/*--------------------------------*- C++ -*----------------------------------*\
| =========                 |                                                 |
| \\      /  F ield         | OpenFOAM: The Open Source CFD Toolbox           |
|  \\    /   O peration     | Version:  2406                                  |
|   \\  /    A nd           | Website:  www.openfoam.com                      |
|    \\/     M anipulation  |                                                 |
\*---------------------------------------------------------------------------*/
FoamFile
{
    version     2.0;
    format      ascii;
    arch        "LSB;label=32;scalar=64";
    class       volVectorField;
    location    "4.32";
    object      U;
}
// * * * * * * * * * * * * * * * * * * * * * * * * * * * * * * * * * * * * * //

dimensions      [0 1 -1 0 0 0 0];

internalField   nonuniform List<vector> 
15536
(
(0.3304285 -8.153237 -1.310455e-21)
(0.604333 -7.816522 -9.541182e-19)
(0.8440425 -7.303158 -1.792083e-18)
(1.024482 -6.677956 -1.637195e-18)
(1.141048 -5.993639 -2.336555e-20)
(1.19643 -5.296414 1.578642e-20)
(1.202041 -4.626704 1.725502e-20)
(1.170023 -3.993772 -1.736622e-20)
(1.149033 -3.452239 3.624634e-18)
(1.3197 -3.300647 3.195696e-18)
(1.848327 -3.888331 0)
(2.497784 -4.692938 0)
(2.826045 -4.94865 -1.691507e-20)
(2.686131 -4.365087 3.831521e-18)
(2.319669 -3.499128 1.249897e-18)
(1.763261 -2.479504 -1.22365e-18)
(1.118429 -1.486844 1.124731e-19)
(0.7603556 -0.9295396 -1.786237e-22)
(0.9548074 -1.043776 -8.975589e-22)
(1.469855 -1.42398 1.066856e-21)
(1.549178 -1.402905 0)
(0.1629705 -0.2217876 7.782173e-19)
(-1.959488 1.440793 0)
(-3.847983 2.749492 4.694127e-18)
(-5.042412 3.431326 -4.471396e-20)
(-5.493941 3.486751 -5.07094e-20)
(-4.585808 2.894312 5.088545e-20)
(0.06516275 0.3290667 -1.952516e-18)
(5.255449 -2.375149 1.447868e-18)
(3.156317 -1.461923 0)
(-0.9752779 0.2126922 -1.195091e-20)
(-2.239699 0.6325183 -1.788433e-18)
(-4.107114 1.044333 2.389173e-18)
(-6.83884 1.517496 0)
(-9.850598 2.072451 -6.600489e-18)
(-7.987445 1.721935 -2.390403e-20)
(-1.355916 0.4112252 2.754969e-18)
(1.95392 -0.2869197 -1.140923e-18)
(-0.6668574 -0.1555453 1.276115e-21)
(4.359831 0.2643412 -3.065975e-19)
(8.964852 0.8319622 1.216248e-18)
(11.35331 1.446777 -1.989731e-20)
(12.59089 2.076378 1.954982e-20)
(13.2546 2.73009 0)
(13.61544 3.382237 -5.068622e-18)
(13.76974 4.008641 -5.054873e-18)
(13.74199 4.596696 0)
(13.59308 5.150062 -9.661671e-18)
(13.34674 5.667944 9.415453e-18)
(13.05258 6.162568 9.070652e-18)
(12.70114 6.618114 3.284687e-20)
(12.28826 7.030325 -8.155062e-18)
(11.82224 7.394435 0)
(11.31265 7.711779 0)
(10.76907 7.978579 6.40235e-18)
(10.18949 8.187244 5.784124e-18)
(9.591879 8.347945 3.719686e-20)
(8.982878 8.459127 4.3421e-18)
(8.35058 8.503144 7.338442e-18)
(7.70754 8.487692 2.943657e-18)
(7.061821 8.415784 2.162727e-18)
(6.42642 8.296202 -1.427839e-20)
(5.798593 8.119985 0)
(5.175887 7.881284 -6.994679e-20)
(4.572392 7.594794 0)
(3.986034 7.24737 1.578483e-18)
(3.423932 6.845796 -2.854304e-20)
(2.895892 6.399849 -2.535015e-21)
(2.401695 5.90745 1.298572e-20)
(1.946053 5.373511 -4.269147e-18)
(1.534304 4.805745 -1.990213e-20)
(1.16724 4.20153 2.715054e-18)
(0.8464538 3.561648 2.940935e-18)
(0.5771042 2.899884 0)
(0.3590312 2.222976 0)
(0.1965185 1.52588 3.446253e-18)
(0.08547557 0.8172302 -6.213823e-23)
(0.02960095 0.1315431 9.147529e-19)
(0.02190225 -0.5173691 1.66075e-21)
(0.06812725 -1.218836 -6.728312e-21)
(0.1661757 -1.96771 -1.65821e-18)
(0.3227256 -2.712211 0)
(0.536079 -3.434017 2.913202e-18)
(0.8028822 -4.12747 0)
(1.121386 -4.790554 -2.371706e-18)
(1.489555 -5.422306 2.039681e-18)
(1.906293 -6.020918 1.480144e-20)
(2.368283 -6.58511 2.764457e-18)
(2.872622 -7.106428 6.335504e-21)
(3.414733 -7.582647 -1.258806e-18)
(3.991853 -8.015099 -4.346359e-19)
(4.601542 -8.398016 -9.198815e-23)
(5.241865 -8.734614 1.295549e-18)
(5.902825 -9.020838 -2.180554e-18)
(6.580739 -9.251442 2.735449e-20)
(7.264593 -9.413019 7.057654e-21)
(7.959977 -9.521083 -4.819672e-18)
(8.66255 -9.575715 0)
(9.363368 -9.568422 1.300252e-17)
(10.06547 -9.51069 7.27904e-18)
(10.74862 -9.387716 1.218623e-19)
(11.40942 -9.202202 -9.04881e-18)
(12.04423 -8.957471 0)
(12.65222 -8.657613 0)
(13.23279 -8.311046 0)
(13.77731 -7.915464 0)
(14.27591 -7.471827 1.251794e-17)
(14.72591 -6.984014 1.319803e-17)
(15.12851 -6.456757 2.757016e-20)
(15.47947 -5.897968 -1.418218e-17)
(15.75746 -5.301522 -7.249678e-18)
(15.97935 -4.681972 -7.511701e-18)
(16.08453 -4.032036 5.88381e-20)
(16.04736 -3.353659 7.718657e-18)
(15.86278 -2.658312 3.994099e-18)
(15.51237 -1.957572 -3.093109e-20)
(14.91558 -1.267574 -7.666874e-21)
(13.91872 -0.6316522 5.02279e-19)
(12.06732 -0.1116694 -9.732805e-19)
(8.512916 0.2153233 -2.330416e-20)
(2.10031 0.1321656 1.671238e-20)
(-2.961669 -0.1863211 4.674862e-18)
(0.1776692 0.440867 3.385518e-20)
(3.645586 0.9830422 0)
(-0.9093533 -0.6248561 -8.209929e-18)
(-8.395625 -3.312653 -1.08206e-17)
(-10.70822 -4.192359 1.75762e-21)
(-8.231717 -3.408158 1.466251e-17)
(-5.692829 -2.628697 -1.078793e-17)
(-4.245066 -2.209771 0)
(-3.550798 -1.996911 0)
(-2.445475 -1.38715 -7.54442e-18)
(-0.0748753 0.1457933 0)
(3.5514 2.740869 2.353631e-20)
(4.600228 3.531703 -3.19562e-18)
(1.36507 0.8572129 -6.250657e-18)
(-2.574488 -2.839063 9.179111e-20)
(-4.683202 -5.072905 -2.571594e-17)
(-5.164921 -5.845134 -2.068205e-19)
(-4.553147 -5.480559 2.508664e-17)
(-3.262091 -4.138306 1.000851e-17)
(-1.751092 -2.335056 7.654212e-18)
(-0.6060643 -0.8088114 6.012636e-18)
(0.3135931 0.6682821 0)
(1.141844 2.209626 -1.854387e-20)
(1.905276 3.803737 -4.518958e-18)
(2.061406 4.314673 0)
(1.268295 2.878703 5.495121e-18)
(0.4975617 1.404189 -4.238182e-20)
(0.2808013 1.040563 2.092853e-20)
(0.3385119 1.463404 2.268922e-18)
(0.5704654 2.651988 2.08674e-22)
(0.6202269 3.248098 0)
(0.1616441 0.02687333 1.404323e-18)
(-0.1484344 -4.625576 1.18283e-20)
(-0.1423776 -7.224403 3.762262e-21)
(0.04617547 -8.10596 -4.936116e-21)
(0.03310409 -8.958296 -4.088846e-19)
(0.3561692 -8.605211 7.778905e-19)
(0.6602686 -8.109575 0)
(0.9312769 -7.587997 1.329442e-18)
(1.179282 -7.12228 0)
(1.432041 -6.779057 4.283936e-18)
(1.708762 -6.576684 1.37219e-20)
(1.988117 -6.442027 -1.368034e-20)
(2.24775 -6.264869 -2.823788e-18)
(2.495188 -6.061261 -2.493432e-18)
(2.697244 -5.905563 0)
(2.789349 -5.64222 1.601298e-20)
(2.689327 -5.116915 -2.452599e-21)
(2.53176 -4.488675 -1.566616e-18)
(2.159967 -3.582427 -2.059668e-18)
(1.553713 -2.437832 4.990149e-19)
(0.8737309 -1.329348 -8.741233e-20)
(0.7966118 -0.9495482 -1.050883e-22)
(1.795453 -1.845285 0)
(2.449277 -2.416144 0)
(1.65909 -1.741965 0)
(-0.4087285 -0.1010846 6.254356e-19)
(-2.503722 1.553852 2.229603e-20)
(-4.319275 2.83584 -2.165423e-20)
(-5.426052 3.517235 4.521841e-20)
(-5.756278 3.484242 -4.529375e-20)
(-5.396148 3.440664 0)
(-1.865299 1.820178 0)
(6.442628 -2.827091 -2.322076e-18)
(4.180905 -2.199187 8.028708e-21)
(1.38655 -0.8497025 -8.489317e-21)
(0.8397094 -0.4720246 1.513512e-18)
(-0.3572858 -0.250034 2.049932e-18)
(-2.631324 0.1149615 -3.542261e-20)
(-4.494936 0.6661079 -5.719761e-18)
(-7.703468 1.660057 2.970614e-18)
(-3.636716 0.9853706 -5.653814e-21)
(4.693926 -0.1305249 8.252515e-19)
(9.72591 0.1459396 0)
(14.10303 0.6955601 2.068755e-19)
(16.71085 1.098393 1.726531e-18)
(17.25375 1.526103 1.862046e-18)
(17.37057 2.076581 1.936118e-18)
(17.29699 2.696888 -6.126166e-20)
(17.13211 3.333824 4.046368e-18)
(16.8982 3.966387 -3.092659e-20)
(16.61192 4.593825 0)
(16.27358 5.198362 7.705032e-18)
(15.8862 5.782212 0)
(15.45075 6.334983 -5.449102e-20)
(14.96387 6.844533 5.461437e-20)
(14.4221 7.307696 6.516649e-18)
(13.83318 7.717903 -4.529278e-20)
(13.20454 8.074721 5.615396e-18)
(12.54336 8.375159 -5.154733e-18)
(11.85326 8.615714 0)
(11.14449 8.804496 2.933113e-20)
(10.42404 8.937104 -3.566078e-18)
(9.687997 9.001107 -5.831905e-18)
(8.941162 8.997991 0)
(8.195663 8.93751 -1.738679e-18)
(7.460408 8.821008 -6.284257e-21)
(6.736286 8.64144 4.934435e-19)
(6.024039 8.398494 -3.143809e-21)
(5.33078 8.097608 3.180817e-21)
(4.66167 7.735026 -1.282013e-18)
(4.019434 7.314978 1.870598e-18)
(3.414591 6.842201 0)
(2.848266 6.322 0)
(2.325678 5.758519 -1.531271e-20)
(1.85103 5.153521 0)
(1.427208 4.508408 0)
(1.056138 3.825872 0)
(0.7427148 3.116377 -2.59865e-18)
(0.4852178 2.391221 2.075364e-20)
(0.2956599 1.642144 1.123864e-20)
(0.1616744 0.8821965 -5.511559e-21)
(0.09236591 0.1421429 -7.516178e-19)
(0.08388762 -0.5646508 2.965888e-21)
(0.150823 -1.319788 -7.180519e-19)
(0.2710175 -2.119969 1.350522e-18)
(0.4589696 -2.913736 1.022764e-20)
(0.7112779 -3.682353 -2.360453e-18)
(1.023621 -4.422012 -3.399147e-20)
(1.394909 -5.130962 1.963649e-18)
(1.82147 -5.803235 -1.699348e-18)
(2.303671 -6.438657 0)
(2.834133 -7.036898 -4.519867e-18)
(3.411528 -7.583967 -1.05824e-20)
(4.032763 -8.083436 1.022399e-18)
(4.692032 -8.53853 3.583575e-19)
(5.387027 -8.93597 0)
(6.116145 -9.279364 0)
(6.870336 -9.573302 0)
(7.643075 -9.799755 2.15771e-20)
(8.428975 -9.955652 -2.143133e-20)
(9.227648 -10.05246 3.797345e-18)
(10.03367 -10.08836 5.716315e-21)
(10.8431 -10.0593 -5.261283e-18)
(11.65025 -9.970387 -8.013267e-20)
(12.44472 -9.816592 1.310734e-17)
(13.21837 -9.595036 7.202032e-18)
(13.96701 -9.308713 -5.829861e-20)
(14.69364 -8.964277 8.26603e-18)
(15.39355 -8.566358 6.72807e-20)
(16.05846 -8.110489 -7.58117e-20)
(16.68102 -7.602285 7.546922e-20)
(17.25783 -7.04418 8.274397e-20)
(17.78952 -6.4428 1.085776e-17)
(18.271 -5.802805 -8.558666e-20)
(18.69274 -5.12648 0)
(19.04282 -4.413587 0)
(19.36139 -3.682148 0)
(19.63549 -2.9431 0)
(19.84835 -2.199436 2.37726e-20)
(19.98717 -1.457654 -2.371343e-20)
(20.03955 -0.7243638 1.489662e-18)
(19.97663 -0.03907416 5.774781e-21)
(19.67824 0.5047885 0)
(18.52572 0.8233601 -1.363917e-18)
(14.01086 0.8593793 2.787584e-18)
(9.589997 1.065925 -3.16664e-18)
(6.791161 1.456211 4.44016e-20)
(3.247563 0.6632 -5.547438e-18)
(-3.482178 -1.708414 4.30519e-20)
(-8.595797 -3.365474 0)
(-6.592272 -2.213228 1.791807e-17)
(-4.742641 -1.419755 -2.502568e-17)
(-2.488041 -0.7594126 -9.089183e-18)
(-1.590809 -0.6196478 -8.844024e-21)
(-1.316762 -0.5850097 -1.177077e-19)
(-0.7280773 -0.1344185 5.392818e-20)
(0.6956448 1.053736 0)
(3.991187 3.517479 2.243573e-18)
(5.25033 3.911783 2.499925e-18)
(-0.5397696 -1.321139 -2.113538e-20)
(-4.491967 -4.860134 -7.694604e-18)
(-5.643448 -5.915005 2.050234e-17)
(-5.726689 -6.210312 1.128739e-17)
(-5.063992 -5.743317 -4.945303e-21)
(-3.697476 -4.263766 -7.914877e-18)
(-2.001465 -2.267736 -5.654374e-20)
(-0.5855351 -0.4786354 -4.83969e-18)
(0.3434674 0.9898106 2.924329e-20)
(1.116694 2.508188 -1.961831e-21)
(1.75877 3.931563 -2.311305e-20)
(2.34464 5.239576 0)
(2.283997 5.224564 0)
(1.608643 3.951131 -4.297427e-18)
(0.8682842 2.649496 0)
(0.5564252 2.602246 -3.636702e-18)
(0.6756373 3.489022 1.92159e-18)
(0.6604379 2.336345 -1.6858e-20)
(-0.08927149 -4.439573 1.555678e-20)
(-0.4871247 -8.480236 1.261491e-18)
(-0.5029461 -9.152131 -7.503408e-19)
(-0.2796494 -9.128657 -3.934742e-19)
(0.222199 -9.012088 3.295221e-19)
(0.494031 -8.656479 -6.351337e-19)
(0.7589468 -8.186782 1.773093e-20)
(1.016285 -7.737334 -1.11047e-18)
(1.278958 -7.424416 0)
(1.56754 -7.280559 -3.498397e-18)
(1.856849 -7.183594 -2.235757e-20)
(2.075007 -6.937961 1.340878e-18)
(2.223888 -6.487515 2.320373e-18)
(2.367774 -5.954565 2.070242e-18)
(2.48007 -5.489392 1.887017e-18)
(2.616309 -5.199131 -1.440947e-20)
(2.677629 -4.957526 0)
(2.491117 -4.43969 0)
(2.038397 -3.553574 8.257997e-19)
(1.3993 -2.429545 4.158368e-19)
(0.645183 -1.202068 7.825462e-20)
(0.4735738 -0.440007 1.501102e-22)
(1.784877 -1.669697 0)
(2.29535 -2.289204 1.605238e-19)
(1.101927 -1.473427 2.242248e-19)
(-1.019941 0.05271801 -5.006545e-19)
(-2.900336 1.569947 0)
(-4.495226 2.747221 3.026154e-18)
(-5.347942 3.429445 0)
(-5.416218 3.356289 -5.030712e-18)
(-4.484961 3.202715 0)
(-2.757234 2.954318 -1.244702e-18)
(6.017311 -2.268847 1.84587e-18)
(5.418842 -2.83531 0)
(4.677926 -2.054563 0)
(4.757614 -1.744846 -1.240614e-21)
(3.968457 -1.604232 -1.568107e-18)
(2.234316 -1.272229 2.746596e-18)
(0.05159826 -0.4236346 9.874453e-18)
(-3.206219 1.059488 -2.635345e-18)
(-1.166518 1.159237 1.604211e-18)
(10.83438 0.2547997 -5.788916e-19)
(15.74466 0.495282 0)
(17.01803 1.004109 0)
(17.04328 1.392298 -1.40806e-18)
(16.86708 1.892716 -1.556308e-18)
(16.85793 2.52779 -3.160002e-18)
(16.78151 3.185426 3.196082e-18)
(16.65063 3.848375 7.635307e-20)
(16.45331 4.493815 -5.106328e-20)
(16.19124 5.111913 0)
(15.85673 5.694075 0)
(15.46449 6.246858 6.031451e-18)
(15.02695 6.770986 -5.817035e-18)
(14.5405 7.24975 0)
(14.00213 7.680925 0)
(13.42005 8.057917 7.423445e-20)
(12.79986 8.383045 -4.68105e-18)
(12.15014 8.651121 0)
(11.47477 8.858487 -3.69175e-18)
(10.78174 9.016556 -3.258174e-18)
(10.07982 9.119451 -2.769805e-18)
(9.365995 9.15312 2.339409e-18)
(8.641408 9.122322 -2.527776e-20)
(7.919117 9.037362 1.370438e-18)
(7.207768 8.898863 0)
(6.510155 8.697957 -4.012407e-19)
(5.826719 8.434762 5.521677e-21)
(5.16081 8.117331 7.567038e-21)
(4.523319 7.737875 -1.118401e-18)
(3.909418 7.305464 0)
(3.332313 6.8226 -2.042659e-18)
(2.791814 6.295252 -2.073213e-20)
(2.295288 5.726521 2.88848e-18)
(1.844052 5.11907 1.637566e-18)
(1.441986 4.473442 -1.812726e-18)
(1.08973 3.792445 -1.974935e-18)
(0.7919208 3.085785 2.113969e-18)
(0.5448541 2.365472 -2.241248e-18)
(0.3672632 1.620885 -1.139739e-18)
(0.2350489 0.8669054 2.385387e-18)
(0.1639548 0.1329895 1.229291e-18)
(0.1538866 -0.5743117 2.454746e-21)
(0.2296622 -1.324465 5.945759e-19)
(0.3440644 -2.117087 -8.843093e-21)
(0.5226063 -2.902085 0)
(0.7610484 -3.663458 -1.468904e-20)
(1.054564 -4.398199 -1.213765e-20)
(1.404543 -5.103953 -1.556583e-18)
(1.805653 -5.775279 2.792292e-18)
(2.263872 -6.410661 -1.185167e-18)
(2.765333 -7.012581 1.836304e-18)
(3.311493 -7.565783 1.26418e-20)
(3.903511 -8.072853 0)
(4.530976 -8.539632 3.483432e-19)
(5.193778 -8.950999 -7.889683e-21)
(5.892989 -9.309554 7.665979e-19)
(6.617005 -9.622475 0)
(7.35862 -9.871023 1.918067e-18)
(8.116724 -10.0498 0)
(8.888357 -10.17266 -5.416993e-20)
(9.667339 -10.23767 3.633781e-18)
(10.45391 -10.23764 0)
(11.2377 -10.18198 -4.822126e-18)
(12.01108 -10.06337 -5.379033e-18)
(12.76608 -9.878188 -5.904748e-18)
(13.49813 -9.628792 0)
(14.21218 -9.32023 -1.381466e-17)
(14.9015 -8.959926 1.105173e-19)
(15.55867 -8.540996 0)
(16.1761 -8.070502 0)
(16.75054 -7.549168 0)
(17.28326 -6.98257 8.806453e-18)
(17.76707 -6.380283 -9.12773e-18)
(18.19301 -5.738708 0)
(18.55767 -5.060475 0)
(18.8575 -4.354831 4.848369e-18)
(19.09835 -3.624097 3.878426e-20)
(19.27465 -2.873154 0)
(19.37904 -2.103954 0)
(19.41193 -1.334355 -2.487923e-18)
(19.39995 -0.5759314 3.019175e-19)
(19.39363 0.1161751 0)
(19.81334 0.6292531 1.064264e-18)
(19.30824 1.075423 3.241343e-20)
(17.69494 1.826827 3.03081e-20)
(15.32778 2.360358 -3.610719e-20)
(8.25712 1.153886 3.802989e-18)
(-2.030986 -1.762656 4.862734e-18)
(-3.914773 -2.141669 1.000603e-19)
(-2.609733 -0.7334183 1.049382e-19)
(-0.6518544 0.5125019 1.060066e-17)
(1.48923 1.225567 7.487622e-18)
(2.61845 1.469599 0)
(2.39164 1.403032 6.128014e-18)
(2.084082 1.604206 0)
(2.2646 2.327371 -3.908277e-20)
(3.892943 3.685187 -1.794249e-18)
(4.096259 2.515516 4.696941e-20)
(-1.867064 -3.220782 -4.362546e-20)
(-4.468302 -5.278467 6.188825e-18)
(-5.504941 -6.030028 -8.416009e-18)
(-5.797879 -6.399627 -9.306628e-18)
(-5.300478 -5.856482 -8.294918e-18)
(-4.094496 -4.389744 -6.276813e-18)
(-2.491687 -2.519334 0)
(-1.00002 -0.7433858 -8.043083e-22)
(-0.03528931 0.7244718 0)
(0.8349466 2.350322 -2.816317e-18)
(1.582344 3.829588 2.994465e-18)
(2.164264 4.950282 0)
(2.433795 5.525491 0)
(2.106603 4.978682 6.880077e-18)
(1.309674 3.721274 -1.60559e-18)
(0.7640208 3.430265 2.97285e-18)
(0.6960037 3.002221 -1.303642e-20)
(0.5338348 -1.219782 1.162938e-20)
(-0.03955552 -7.387242 0)
(-0.2927132 -8.833447 -1.012015e-18)
(-0.2788857 -8.923245 1.216067e-18)
(-0.0538351 -9.130484 3.290444e-19)
(0.06540036 -9.040612 -5.419851e-19)
(0.3595297 -8.684217 -1.568026e-20)
(0.6455495 -8.177895 1.574653e-20)
(0.9207619 -7.640172 -2.645998e-20)
(1.191201 -7.201545 2.684839e-20)
(1.469791 -6.93717 1.450231e-18)
(1.720376 -6.73544 -1.848747e-20)
(1.87311 -6.383858 -1.110678e-18)
(1.964222 -5.88417 3.208028e-20)
(2.105405 -5.426635 -1.669397e-18)
(2.278559 -5.187784 -4.067537e-20)
(2.536034 -5.144922 0)
(2.610388 -4.993171 0)
(2.374197 -4.449739 -1.043904e-18)
(1.880668 -3.577621 -6.840424e-19)
(1.225411 -2.467173 -6.727564e-19)
(0.4459263 -1.201317 -6.088083e-20)
(0.1545177 -0.002285541 0)
(1.299573 -0.9302544 0)
(1.69143 -1.735173 -2.676745e-19)
(0.4346902 -1.184116 -3.648797e-19)
(-1.491671 0.05967082 1.31547e-20)
(-3.124013 1.42349 -4.209691e-20)
(-4.466687 2.49505 -4.938942e-18)
(-5.047455 3.191723 -3.881037e-18)
(-4.865383 3.069604 4.275542e-18)
(-3.704461 2.969074 3.209737e-18)
(-2.558067 3.634007 9.605007e-19)
(5.49334 -1.40276 -7.186724e-19)
(6.804488 -3.310918 0)
(7.603792 -3.012278 -2.367878e-20)
(8.28037 -2.857888 -1.817688e-18)
(7.970033 -2.879767 6.356576e-21)
(6.880102 -2.724625 2.913389e-20)
(4.869983 -1.842939 -3.748632e-18)
(1.703227 0.177583 -2.08669e-18)
(5.420556 1.292659 -6.022501e-21)
(15.56969 0.7071018 -4.327472e-19)
(17.02429 0.5560908 -2.45112e-19)
(16.73596 0.8069297 -2.042027e-21)
(16.69349 1.101574 0)
(16.85063 1.529351 -1.981541e-20)
(16.95949 2.099827 1.328561e-18)
(16.9484 2.713996 -5.280805e-18)
(16.84582 3.364282 4.126365e-20)
(16.6642 4.000499 -2.663533e-18)
(16.40306 4.626252 -8.047158e-20)
(16.0739 5.214311 -5.050044e-18)
(15.68456 5.779358 -1.063959e-20)
(15.24874 6.32218 4.799455e-18)
(14.76535 6.817393 -4.492403e-18)
(14.22903 7.268714 0)
(13.64803 7.665874 5.988064e-20)
(13.0266 8.014496 -6.023335e-20)
(12.37426 8.306606 0)
(11.69438 8.538885 3.041879e-18)
(10.99574 8.721743 6.518564e-20)
(10.28703 8.849366 2.315233e-18)
(9.566524 8.906481 -1.861892e-18)
(8.836518 8.895927 -1.462598e-18)
(8.10528 8.832701 -1.106925e-18)
(7.385672 8.714532 -6.650096e-19)
(6.680045 8.532501 1.191013e-21)
(5.987197 8.287662 -1.202707e-21)
(5.311588 7.988025 0)
(4.665072 7.624649 9.082483e-19)
(4.04151 7.207543 -2.328267e-20)
(3.455745 6.738346 1.70142e-18)
(2.907145 6.223344 2.011986e-18)
(2.404999 5.665115 -2.341077e-18)
(1.948027 5.067471 -1.343902e-18)
(1.541165 4.430864 -3.178527e-21)
(1.184623 3.758495 1.619807e-18)
(0.8854074 3.05928 2.766424e-20)
(0.6345758 2.346776 1.795279e-18)
(0.458602 1.607308 1.494066e-20)
(0.3240473 0.8574978 -9.963363e-19)
(0.2502245 0.1286571 -5.00721e-19)
(0.2381568 -0.5826998 -6.079277e-23)
(0.3243399 -1.32936 4.720066e-19)
(0.4395051 -2.11459 7.24406e-21)
(0.6191478 -2.891133 -8.602245e-19)
(0.8611285 -3.644097 1.603422e-18)
(1.158457 -4.369359 0)
(1.512686 -5.064121 -4.153154e-21)
(1.918021 -5.723237 -1.149501e-18)
(2.383069 -6.345392 9.97685e-19)
(2.889756 -6.934461 -1.591551e-18)
(3.446062 -7.47183 1.490816e-20)
(4.049627 -7.96264 -1.477115e-20)
(4.683894 -8.415015 -2.863135e-19)
(5.357255 -8.808542 0)
(6.071204 -9.146721 -6.371474e-19)
(6.802898 -9.442927 3.369998e-20)
(7.553671 -9.671697 -6.994677e-20)
(8.322667 -9.828586 -1.958026e-18)
(9.103428 -9.92986 -2.545338e-18)
(9.890926 -9.972001 -1.408837e-20)
(10.68537 -9.94793 3.38359e-18)
(11.47801 -9.866003 -5.674379e-20)
(12.25764 -9.721825 -4.294389e-18)
(13.01831 -9.509244 0)
(13.75707 -9.229912 5.134599e-18)
(14.47485 -8.894121 5.612176e-18)
(15.164 -8.510254 5.799968e-18)
(15.82031 -8.066658 -6.153086e-18)
(16.43527 -7.573189 6.577524e-18)
(17.00678 -7.028709 0)
(17.53592 -6.439437 -1.441752e-17)
(18.0152 -5.819081 1.506816e-17)
(18.4358 -5.159289 -1.787916e-19)
(18.79349 -4.466744 -3.890911e-18)
(19.09084 -3.746818 -3.971338e-18)
(19.32417 -3.010086 0)
(19.48342 -2.267455 2.072376e-18)
(19.56217 -1.522783 -2.071035e-18)
(19.54806 -0.7902243 1.030451e-18)
(19.44458 -0.1011799 -2.579116e-19)
(19.23762 0.4997297 -4.91716e-19)
(19.20505 0.8824828 1.428054e-20)
(19.59626 1.326661 -1.749375e-18)
(19.47807 2.172816 3.299014e-20)
(19.02059 2.674304 0)
(14.22551 1.574743 0)
(2.896825 -1.137734 -1.425501e-19)
(0.5638931 -0.7082134 1.719767e-19)
(1.885659 1.263527 0)
(3.682698 2.694347 0)
(5.278616 3.250854 0)
(6.187517 3.363018 4.984417e-18)
(5.988035 3.322511 -9.429725e-18)
(5.158691 3.369801 4.020971e-18)
(4.254048 3.657838 -2.500767e-18)
(3.914491 3.657482 -5.791403e-20)
(2.730771 0.6774725 1.584254e-18)
(-2.013099 -4.172662 3.089174e-18)
(-3.979935 -5.185206 9.191829e-20)
(-5.194605 -5.850367 1.589592e-20)
(-5.629391 -6.189496 -1.169634e-19)
(-5.314801 -5.649572 -9.388814e-20)
(-4.305573 -4.248524 5.265695e-18)
(-2.882991 -2.571832 0)
(-1.38968 -0.9279977 3.135646e-18)
(-0.3860985 0.5834564 -2.593897e-18)
(0.5130976 2.252869 2.296012e-18)
(1.337367 3.7474 0)
(1.957526 4.79695 0)
(2.312428 5.314906 -4.547039e-20)
(2.233449 5.03998 -2.81237e-18)
(1.527386 4.03015 1.348049e-18)
(0.8829977 3.541869 -1.242537e-18)
(0.6740227 0.8853443 0)
(0.5375837 -4.677648 0)
(0.1465655 -8.363885 0)
(-0.2494969 -8.467629 -8.360734e-19)
(-0.3795854 -8.943696 -5.176314e-19)
(-0.2080481 -9.151948 -5.427135e-19)
(0.08561874 -9.055048 2.225817e-19)
(0.3280144 -8.708339 0)
(0.585927 -8.195543 -7.931648e-19)
(0.8384686 -7.577061 0)
(1.076773 -6.935036 -1.326421e-18)
(1.293734 -6.392593 0)
(1.469039 -6.005164 0)
(1.579486 -5.669115 -9.002988e-19)
(1.708291 -5.338105 -1.555399e-18)
(1.972705 -5.110815 1.406266e-18)
(2.250328 -5.075429 -1.278625e-18)
(2.555271 -5.107008 1.210101e-18)
(2.552645 -4.947355 0)
(2.220693 -4.411652 1.716055e-18)
(1.677524 -3.573148 5.598278e-19)
(1.000576 -2.48248 2.816906e-19)
(0.2144213 -1.208473 -5.349164e-21)
(0.01122749 0.1364874 5.170842e-22)
(0.6331409 0.01970682 -5.911454e-21)
(0.9478503 -0.9702501 2.125594e-19)
(-0.2000022 -0.8828802 1.486953e-19)
(-1.810808 -0.06008478 2.186567e-20)
(-3.119656 1.078908 1.014205e-18)
(-4.216312 2.067921 2.055733e-18)
(-4.567247 2.852391 3.242707e-18)
(-4.201574 2.740558 0)
(-2.978988 2.759078 1.148329e-19)
(-1.679185 3.984676 0)
(5.239508 -0.4409071 -4.980838e-19)
(8.141984 -3.507422 5.866127e-20)
(9.888601 -3.589468 9.630189e-19)
(10.97513 -3.644549 -4.215764e-20)
(11.20736 -3.852963 2.553422e-20)
(11.22224 -3.910055 -3.170273e-18)
(10.77451 -2.957679 0)
(9.709962 -0.433659 -1.411038e-18)
(12.62932 1.378136 -9.122585e-19)
(17.37912 1.076097 6.938956e-19)
(16.30643 0.6222885 1.947186e-19)
(16.28288 0.9123448 0)
(16.44961 1.345716 4.757113e-19)
(16.60043 1.863511 0)
(16.67803 2.470346 0)
(16.65111 3.094213 2.203356e-18)
(16.54499 3.737354 -3.369947e-20)
(16.36581 4.354478 4.225788e-20)
(16.10905 4.95826 -2.103727e-18)
(15.78569 5.51765 4.240679e-18)
(15.40237 6.053127 -4.040768e-18)
(14.9757 6.566805 -3.878768e-18)
(14.50782 7.022301 1.868763e-19)
(13.98508 7.440623 -1.118873e-19)
(13.42122 7.802891 -9.703855e-20)
(12.81636 8.121949 -2.767619e-18)
(12.18276 8.386645 -2.775364e-18)
(11.52229 8.591956 -7.09309e-20)
(10.84087 8.75398 2.229409e-18)
(10.15385 8.860566 0)
(9.456508 8.897041 1.533095e-18)
(8.744211 8.872392 1.203966e-18)
(8.031588 8.797064 8.280485e-19)
(7.332878 8.66816 5.471411e-19)
(6.647118 8.477995 0)
(5.974171 8.225559 0)
(5.315095 7.923309 -4.711656e-19)
(4.687636 7.556704 0)
(4.077741 7.140652 0)
(3.507219 6.673362 1.458483e-18)
(2.974347 6.161141 -3.498491e-20)
(2.481049 5.609115 -1.084507e-20)
(2.031212 5.01745 -3.623246e-20)
(1.631927 4.386832 2.484286e-18)
(1.283618 3.720373 0)
(0.994107 3.026996 0)
(0.7394997 2.325914 1.517841e-18)
(0.5692152 1.593318 7.524761e-19)
(0.431261 0.8474793 8.028294e-19)
(0.3538673 0.1249617 -4.096721e-19)
(0.3401086 -0.5898909 0)
(0.4416094 -1.329967 -2.53972e-22)
(0.5589334 -2.107465 2.287539e-20)
(0.7287789 -2.877033 6.823188e-19)
(0.9630984 -3.620428 -1.314361e-18)
(1.254484 -4.333743 -3.610275e-20)
(1.602432 -5.016479 1.088233e-18)
(2.000477 -5.664541 3.162405e-20)
(2.457992 -6.277613 1.61822e-18)
(2.948995 -6.861856 -1.588185e-20)
(3.490188 -7.394901 -1.00577e-18)
(4.083053 -7.883012 2.491368e-20)
(4.700858 -8.336769 0)
(5.352016 -8.733917 -7.443442e-20)
(6.05058 -9.075375 0)
(6.766789 -9.377548 0)
(7.494266 -9.617002 -1.257986e-18)
(8.242864 -9.78421 3.23078e-18)
(9.005981 -9.89697 6.855329e-20)
(9.772051 -9.954686 -1.254981e-19)
(10.54594 -9.947425 -2.780078e-18)
(11.31747 -9.886727 -3.100659e-18)
(12.07645 -9.765378 3.654461e-18)
(12.81532 -9.579723 -3.932738e-18)
(13.53203 -9.330315 -7.805395e-20)
(14.23256 -9.022058 0)
(14.90395 -8.670669 -5.020632e-18)
(15.54481 -8.25895 1.054659e-17)
(16.14528 -7.800936 -5.595599e-18)
(16.70329 -7.292769 0)
(17.22283 -6.739037 9.68384e-20)
(17.69292 -6.156758 -6.038343e-18)
(18.10686 -5.530114 -9.647405e-20)
(18.46177 -4.869121 1.523759e-19)
(18.75758 -4.172769 -1.012675e-19)
(18.98887 -3.460488 0)
(19.1499 -2.734937 -3.305125e-18)
(19.23135 -2.000114 1.6127e-18)
(19.22693 -1.265911 8.111266e-19)
(19.14122 -0.5447657 -1.282641e-20)
(18.98964 0.1234389 3.96714e-19)
(18.81598 0.6521835 7.475682e-19)
(18.94292 1.209232 0)
(18.78048 2.058694 1.48088e-18)
(18.99551 2.469197 -7.6913e-20)
(18.15305 1.613467 2.211598e-18)
(10.32525 -0.1230724 0)
(6.178629 0.8162075 0)
(6.963777 3.377676 0)
(8.223948 4.942986 8.228169e-20)
(9.074097 5.212812 4.340032e-18)
(9.526062 5.077601 -4.052428e-18)
(9.223627 4.985589 3.7479e-18)
(8.080412 4.929257 -6.207454e-18)
(6.372264 4.815395 2.095648e-18)
(4.299285 3.538503 0)
(1.908008 -0.8724505 -1.267909e-18)
(-1.431529 -4.407066 -2.487755e-18)
(-3.27854 -4.862228 4.552181e-18)
(-4.588624 -5.451372 -1.629697e-19)
(-5.233415 -5.789087 -1.935264e-19)
(-5.160677 -5.229381 1.835253e-19)
(-4.375317 -3.886932 0)
(-3.201402 -2.43726 -3.201363e-18)
(-1.737201 -0.936592 7.200078e-20)
(-0.646374 0.6526103 4.14443e-18)
(0.2203353 2.299938 -1.930289e-18)
(1.068202 3.692486 1.266793e-19)
(1.753543 4.640406 -2.366542e-18)
(2.18654 5.052266 0)
(2.258986 4.741902 -2.332484e-18)
(1.653027 3.956512 1.086994e-18)
(0.9982758 2.827954 -6.572967e-20)
(0.7313742 -2.067449 1.031447e-18)
(0.7038327 -6.843201 -4.424127e-20)
(0.3359328 -8.302092 1.619401e-20)
(-0.1459725 -8.39982 7.068348e-19)
(-0.230603 -8.990686 -6.650655e-21)
(-0.1004282 -9.160506 7.396968e-21)
(0.0468052 -9.05734 1.113588e-20)
(0.2589818 -8.725032 3.351928e-19)
(0.4893662 -8.241106 6.503896e-19)
(0.7293277 -7.638956 -5.946306e-19)
(0.9668196 -6.933183 1.086066e-18)
(1.160946 -6.205961 0)
(1.307855 -5.607359 8.070912e-19)
(1.418886 -5.217882 7.960207e-19)
(1.588347 -5.008803 1.288925e-18)
(1.938061 -4.949614 0)
(2.210029 -5.009964 0)
(2.499903 -4.999809 -9.980156e-19)
(2.413491 -4.811039 -2.530035e-20)
(2.001504 -4.303625 -6.807936e-19)
(1.416161 -3.52848 -4.719855e-19)
(0.7275514 -2.507591 -2.442611e-19)
(-0.07351589 -1.246685 5.972588e-20)
(-0.1214698 0.1517447 2.614759e-20)
(0.08740366 0.7405649 3.72212e-21)
(0.215658 -0.1547791 -8.294934e-20)
(-0.7512762 -0.5835582 0)
(-1.901949 -0.3528029 0)
(-2.817412 0.4921171 -8.573781e-19)
(-3.771276 1.470374 0)
(-3.99423 2.475891 -9.015488e-20)
(-3.529414 2.408729 3.956189e-21)
(-2.188383 2.552593 -2.204136e-18)
(-0.4643823 4.185789 -4.570534e-20)
(5.220566 0.5933449 8.100391e-20)
(9.030626 -3.30432 -5.707097e-20)
(11.03865 -3.677414 -2.417692e-20)
(12.32932 -3.914546 5.782225e-19)
(13.08558 -4.288908 -3.308088e-20)
(14.21503 -4.566006 1.349586e-18)
(15.55622 -3.71261 -5.183945e-20)
(16.12429 -1.00678 4.36973e-18)
(16.82578 1.22413 2.636776e-20)
(17.10965 1.115381 6.605117e-21)
(15.88711 0.5522809 -3.425847e-19)
(16.30677 0.8428259 -2.820156e-21)
(16.46386 1.186973 -3.935834e-19)
(16.6302 1.63282 -2.617089e-20)
(16.7124 2.183726 -8.198207e-19)
(16.68962 2.76462 1.713799e-18)
(16.58164 3.39453 -1.722892e-18)
(16.40331 4.003208 3.355457e-18)
(16.14776 4.617382 1.841053e-18)
(15.82644 5.190851 0)
(15.44129 5.745258 0)
(15.01444 6.280566 3.145178e-18)
(14.54679 6.755319 2.993176e-18)
(14.02384 7.191596 0)
(13.4623 7.565454 -7.774806e-20)
(12.85739 7.898195 2.510056e-18)
(12.22112 8.181228 2.210911e-18)
(11.56162 8.397662 1.90444e-18)
(10.88605 8.564728 -4.913581e-20)
(10.20118 8.682862 -1.380313e-18)
(9.501479 8.734495 3.298533e-20)
(8.793895 8.715286 -3.329087e-20)
(8.089617 8.643201 -6.970461e-19)
(7.394095 8.523087 3.946232e-19)
(6.705026 8.347496 0)
(6.040346 8.098947 0)
(5.384197 7.806298 7.836203e-19)
(4.765886 7.445214 -7.883008e-21)
(4.160523 7.037569 -7.525231e-21)
(3.605476 6.574414 -1.1246e-18)
(3.08154 6.068929 -2.745164e-18)
(2.582589 5.533579 1.507056e-18)
(2.136122 4.954238 -1.773233e-18)
(1.741541 4.334526 -9.715053e-19)
(1.401095 3.676962 -3.296011e-20)
(1.119233 2.987673 0)
(0.8593979 2.30061 -1.184867e-18)
(0.7037633 1.57879 -3.979437e-20)
(0.5605001 0.8364692 -6.673039e-19)
(0.4800687 0.1208452 3.509223e-19)
(0.4663299 -0.5960625 -5.248474e-23)
(0.5831807 -1.32659 -3.359325e-19)
(0.6938223 -2.09986 2.841641e-20)
(0.8571489 -2.859889 -5.953088e-19)
(1.081616 -3.585419 1.078262e-18)
(1.366478 -4.281152 -1.02444e-18)
(1.710088 -4.949732 2.946059e-21)
(2.104531 -5.585159 8.125457e-19)
(2.566687 -6.185977 -1.289372e-18)
(3.048682 -6.764102 1.059405e-18)
(3.578908 -7.291351 7.542024e-19)
(4.17272 -7.770803 8.685803e-21)
(4.798721 -8.212131 9.09755e-21)
(5.4426 -8.602158 6.426619e-20)
(6.124597 -8.944785 -3.27914e-19)
(6.841081 -9.238467 2.570579e-20)
(7.567877 -9.467485 9.286142e-19)
(8.308658 -9.628307 -2.610902e-18)
(9.064032 -9.737241 1.606309e-18)
(9.835455 -9.776986 -5.845654e-20)
(10.60677 -9.759547 -2.247319e-18)
(11.37075 -9.694653 5.109682e-18)
(12.13006 -9.55952 9.276119e-20)
(12.86594 -9.363101 3.049883e-18)
(13.5829 -9.097125 -3.531749e-18)
(14.28521 -8.771711 1.093274e-19)
(14.95506 -8.407135 -3.976129e-18)
(15.59595 -7.9767 -4.049207e-18)
(16.19484 -7.503084 1.392188e-19)
(16.75336 -6.972114 -4.645377e-18)
(17.2726 -6.397315 4.790214e-18)
(17.74148 -5.79633 0)
(18.15276 -5.152744 0)
(18.50226 -4.472816 2.608608e-18)
(18.79167 -3.77013 2.616598e-18)
(19.0217 -3.05464 0)
(19.18089 -2.333865 1.416077e-18)
(19.26432 -1.604045 1.304221e-18)
(19.26141 -0.8980443 -6.794139e-19)
(19.17122 -0.2254576 1.584891e-19)
(19.01992 0.3711553 3.234105e-19)
(18.83245 0.8348342 -6.214211e-19)
(18.7713 1.284691 0)
(18.46052 1.993326 7.299281e-20)