/*--------------------------------*- C++ -*----------------------------------*\
| =========                 |                                                 |
| \\      /  F ield         | OpenFOAM: The Open Source CFD Toolbox           |
|  \\    /   O peration     | Version:  2406                                  |
|   \\  /    A nd           | Website:  www.openfoam.com                      |
|    \\/     M anipulation  |                                                 |
\*---------------------------------------------------------------------------*/
FoamFile
{
    version     2.0;
    format      ascii;
    arch        "LSB;label=32;scalar=64";
    class       volScalarField;
    location    "2.28";
    object      p;
}
// * * * * * * * * * * * * * * * * * * * * * * * * * * * * * * * * * * * * * //

dimensions      [0 2 -2 0 0 0 0];

internalField   nonuniform List<scalar> 
15536
(
-45.10549
-40.55618
-37.86876
-37.643
-35.66181
-31.62313
-31.09545
-31.78138
-28.09581
-19.19251
-6.481334
2.654036
-0.1676425
-12.22104
-23.93538
-29.22854
-26.47209
-17.2412
-4.811109
5.453608
8.047472
10.14831
15.36985
15.80165
6.995826
-2.083782
-12.05119
-32.3938
-76.11297
-128.5619
-135.4071
-72.19044
-23.39999
-39.57659
-72.27703
-96.50398
-98.51155
-87.88882
-85.77371
-91.26001
-97.51172
-102.1867
-104.8091
-105.8774
-106.0939
-105.3053
-103.6036
-100.9088
-97.71967
-94.18891
-89.95531
-85.12425
-79.65852
-73.8117
-67.52993
-60.88358
-54.21717
-47.44901
-40.32747
-33.03496
-25.86911
-18.84613
-11.85335
-4.943421
1.742893
8.301421
14.56297
20.50182
26.01435
31.10134
35.72409
39.88471
43.54507
46.62918
49.09676
51.05433
52.3775
53.11216
53.33055
52.99956
51.84396
50.077
47.75933
44.86024
41.40515
37.41637
32.95243
27.93005
22.50599
16.72422
10.44245
3.840737
-3.014854
-10.29842
-17.74257
-25.1428
-32.71115
-40.43475
-48.12559
-55.86942
-63.5098
-70.85759
-77.86945
-84.63186
-91.26773
-97.47167
-103.2201
-108.4699
-113.2343
-117.5804
-121.2285
-124.0972
-126.2317
-127.579
-127.9756
-126.9799
-124.307
-120.1285
-117.3299
-114.9951
-118.715
-147.8662
-156.8872
-128.0204
-97.00394
-81.95546
-72.61988
-56.1317
-34.63865
-53.35839
-122.1852
-143.8334
-119.5171
-94.40854
-74.30829
-60.53476
-50.7436
-41.59616
-31.96356
-26.30596
-25.98554
-27.563
-29.84549
-32.40686
-34.48088
-35.88092
-37.86609
-42.69181
-48.17351
-51.15987
-52.46158
-53.64654
-54.68242
-54.87687
-53.93596
-51.995
-49.09676
-44.9943
-40.5132
-37.86735
-37.65984
-35.65881
-31.59719
-31.03392
-31.66725
-27.91197
-19.09972
-6.518625
2.559918
-0.2332827
-12.18116
-23.74604
-29.02054
-26.36281
-17.21971
-4.821223
5.518521
8.131206
10.25179
15.39174
15.72232
6.914752
-2.091665
-11.9496
-32.21473
-75.88471
-128.4206
-135.7037
-72.21659
-23.29032
-39.72182
-72.54103
-96.69578
-98.44238
-87.87744
-85.67521
-90.77688
-96.66297
-101.0263
-103.4645
-104.4355
-104.6074
-103.7984
-102.0925
-99.40403
-96.22845
-92.72905
-88.5314
-83.74458
-78.32579
-72.53196
-66.31172
-59.72913
-53.12708
-46.42845
-39.38202
-32.16058
-25.06643
-18.11609
-11.19514
-4.354473
2.267575
8.758383
14.95352
20.83159
26.28822
31.32214
35.89729
40.01575
43.63883
46.69328
49.1355
51.07387
52.38429
53.11097
53.32619
52.99626
51.84795
50.09707
47.79993
44.92643
41.50259
37.55078
33.12865
28.15364
22.78386
17.05681
10.835
4.30082
-2.488602
-9.706754
-17.07837
-24.40542
-31.90217
-39.55067
-47.16676
-54.8372
-62.4058
-69.68235
-76.62685
-83.33002
-89.9112
-96.061
-101.7635
-106.9708
-111.7002
-116.0215
-119.6506
-122.515
-124.6628
-126.0431
-126.5065
-125.6736
-123.3301
-119.5029
-117.0674
-114.8949
-118.5933
-147.7674
-156.8458
-128.0651
-96.9947
-81.982
-72.70441
-56.22558
-34.5909
-53.51946
-122.3561
-143.9546
-119.3326
-94.25068
-74.21684
-60.48383
-50.73005
-41.61199
-31.96721
-26.28345
-25.94877
-27.54079
-29.83784
-32.41065
-34.48471
-35.87446
-37.86465
-42.69957
-48.17114
-51.16274
-52.42465
-53.51764
-54.4918
-54.64089
-53.69514
-51.77957
-48.92419
-44.93384
-40.49795
-37.8827
-37.69901
-35.673
-31.55593
-30.98742
-31.64496
-27.87018
-19.1067
-6.66748
2.333503
-0.418743
-12.24794
-23.68924
-29.01415
-26.4253
-17.327
-4.902723
5.463093
8.101155
10.25761
15.35195
15.5246
6.758875
-2.132937
-11.84402
-32.09314
-76.01931
-129.1319
-137.2997
-72.82066
-22.78722
-39.54308
-72.38805
-96.48118
-98.3642
-87.85918
-85.56013
-90.24344
-95.7516
-99.99074
-102.4823
-103.5081
-103.7158
-102.9337
-101.2633
-98.59213
-95.42952
-91.96038
-87.77555
-83.01478
-77.61781
-71.86089
-65.68174
-59.11515
-52.54197
-45.88678
-38.8672
-31.67703
-24.61586
-17.70566
-10.82341
-4.013068
2.565815
9.027087
15.18749
21.03318
26.45906
31.46432
36.01048
40.10273
43.70203
46.7385
49.1602
51.08482
52.38532
53.10405
53.31514
52.98593
51.84483
50.10812
47.82597
44.97029
41.56821
37.64036
33.24575
28.29506
22.95674
17.26259
11.06933
4.570943
-2.181034
-9.367841
-16.7024
-23.98637
-31.44913
-39.06447
-46.63701
-54.28359
-61.81807
-69.06509
-75.98191
-82.64384
-89.19658
-95.31057
-100.9896
-106.1723
-110.8789
-115.1849
-118.7902
-121.6273
-123.7435
-125.0975
-125.5286
-124.615
-122.3355
-118.7933
-116.5099
-114.5338
-118.9093
-147.9405
-157.3595
-128.2761
-97.09966
-81.9613
-72.63189
-56.08061
-34.26028
-54.16203
-123.8636
-144.8534
-119.338
-94.11658
-74.1044
-60.41374
-50.73686
-41.67763
-31.98819
-26.23022
-25.90841
-27.51583
-29.83701
-32.44236
-34.52058
-35.87822
-37.83247
-42.62602
-48.0675
-51.03145
-52.31593
-53.42283
-54.40793
-54.57286
-53.61658
-51.68868
-48.83414
-44.86617
-40.49677
-37.91443
-37.75292
-35.69205
-31.53799
-31.01255
-31.6619
-27.83054
-19.22075
-6.975151
1.911423
-0.7875068
-12.4612
-23.71175
-28.95752
-26.57292
-17.59052
-5.213079
5.144991
7.894245
10.28654
15.37449
15.30686
6.603186
-2.143644
-11.71507
-32.01596
-76.44883
-130.2558
-139.7618
-74.19368
-22.58265
-38.97749
-71.28649
-94.00436
-96.52302
-87.34143
-85.3055
-89.46323
-94.4667
-98.43489
-100.7436
-101.5921
-101.7694
-100.9711
-99.33783
-96.69858
-93.5642
-90.14592
-86.03728
-81.35744
-76.03715
-70.35592
-64.26393
-57.78664
-51.29528
-44.7325
-37.81805
-30.70943
-23.73123
-16.91079
-10.11705
-3.383338
3.11074
9.498717
15.58629
21.36967
26.73327
31.68066
36.17579
40.22461
43.78549
46.79443
49.18567
51.09205
52.37995
53.08857
53.29429
52.96481
51.83105
50.11444
47.85327
45.02289
41.65364
37.76476
33.41759
28.51155
23.23463
17.60171
11.46835
5.049836
-1.627626
-8.748444
-15.98898
-23.18371
-30.56756
-38.08882
-45.56763
-53.12627
-60.5697
-67.717
-74.53551
-81.12155
-87.59777
-93.62269
-99.22924
-104.3332
-108.98
-113.2424
-116.804
-119.6006
-121.7069
-123.081
-123.589
-122.9129
-120.9048
-117.7642
-115.7219
-114.2867
-119.6299
-147.5832
-156.5961
-127.8935
-97.05145
-81.76169
-72.15022
-55.493
-33.70141
-55.57696
-126.7583
-146.4245
-119.5474
-94.00657
-73.95813
-60.3104
-50.76581
-41.81744
-32.04313
-26.13025
-25.82519
-27.47467
-29.83735
-32.50621
-34.59836
-35.90622
-37.75554
-42.45189
-47.87117
-50.86076
-52.18762
-53.30551
-54.19191
-54.30547
-53.39663
-51.51145
-48.70027
-44.80309
-40.50988
-37.95561
-37.79425
-35.68844
-31.57257
-31.13414
-31.74536
-27.89328
-19.51345
-7.52904
1.230612
-1.384555
-12.88422
-23.88592
-29.1091
-26.85798
-18.04565
-5.8897
4.461316
7.532804
10.46092
15.59311
15.21856
6.551796
-2.066237
-11.60898
-32.0093
-77.20805
-131.8221
-142.6005
-76.19004
-24.01155
-38.97909
-69.46651
-89.97094
-93.09441
-86.26015
-84.87494
-88.60402
-93.20386
-96.99801
-99.30916
-100.2134
-100.4181
-99.6023
-97.99942
-95.3592
-92.18483
-88.82717
-84.70967
-80.06639
-74.75909
-69.12602
-63.09994
-56.64635
-50.20509
-43.72781
-36.87827
-29.81802
-22.90395
-16.16772
-9.449166
-2.770506
3.64103
9.971072
15.99136
21.71281
27.01062
31.9048
36.3485
40.35188
43.86644
46.84533
49.20327
51.0886
52.3629
53.05945
53.25785
52.92505
51.79805
50.11116
47.87823
45.07664
41.74308
37.89353
33.5959
28.73326
23.52497
17.9495
11.86204
5.530263
-1.07171
-8.154651
-15.31265
-22.419
-29.74556
-37.20144
-44.5905
-52.10049
-59.48607
-66.57069
-73.33369
-79.86111
-86.30805
-92.2767
-97.86212
-102.9332
-107.5551
-111.8408
-115.3601
-118.1704
-120.279
-121.6692
-122.1514
-121.4016
-119.5083
-116.6516
-114.8553
-114.2144
-119.8347
-144.2717
-151.856
-125.7503
-96.54816
-81.32494
-71.37299
-54.51743
-33.48377
-57.95571
-130.6998
-148.7691
-120.0235
-93.96711
-73.79026
-60.16765
-50.81513
-42.04971
-32.14789
-25.95616
-25.68291
-27.41119
-29.83744
-32.6063
-34.73343
-36.00312
-37.71676
-42.3013
-47.73896
-50.74717
-52.08309
-53.20418
-54.12395
-54.25176
-53.25719
-51.3641
-48.57004
-44.74152
-40.53929
-37.98441
-37.74118
-35.59727
-31.65137
-31.34709
-31.9302
-28.10537
-20.08864
-8.561501
0.1567808
-2.264531
-13.59646
-24.28805
-29.46259
-27.35207
-18.75567
-6.99093
3.325237
7.126075
10.87898
16.12627
15.39695
6.709794
-1.854436
-11.56004
-32.16177
-78.06314
-133.4485
-145.1191
-79.11721
-28.18573
-40.6647
-68.01508
-85.97455
-89.54567
-84.84298
-84.07756
-87.3644
-91.45543
-94.93065
-97.07838
-97.68215
-97.85384
-97.04966
-95.56633
-92.98006
-89.84125
-86.63148
-82.6017
-78.08355
-72.86517
-67.32113
-61.40564
-55.03394
-48.70546
-42.36036
-35.60757
-28.63515
-21.83578
-15.20674
-8.593217
-1.993355
4.299463
10.55431
16.47854
22.10468
27.32983
32.16963
36.54818
40.49252
43.94263
46.89444
49.21075
51.06604
52.32795
53.00921
53.19698
52.85896
51.74365
50.08887
47.8942
45.12967
41.83998
38.03941
33.79547
28.9773
23.86816
18.37283
12.32191
6.093455
-0.3743912
-7.401418
-14.4636
-21.435
-28.65879
-36.02757
-43.29745
-50.70449
-57.98488
-64.95962
-71.59764
-78.02189
-84.39772
-90.23539
-95.73882
-100.6971
-105.229
-109.4334
-112.8703
-115.5798
-117.5634
-118.9917
-119.6506
-119.1341
-117.5487
-115.1129
-113.673
-113.7735
-118.8403
-137.9389
-143.4032
-122.0335
-95.67528
-80.7962
-70.69993
-54.24005
-34.6598
-61.74247
-135.5868
-151.9027
-120.9647
-94.03239
-73.59153
-59.9569
-50.83893
-42.37653
-32.33115
-25.67319
-25.44979
-27.31413
-29.83903
-32.75596
-34.95271
-36.2387
-37.82737
-42.32924
-47.73816
-50.66274
-51.971
-53.07516
-53.93776
-54.003
-53.08748
-51.21165
-48.43084
-44.71417
-40.62505
-37.95545
-37.41254
-35.31438
-31.71781
-31.6103
-32.23839
-28.46888
-20.95637
-10.35398
-1.660481
-3.67854
-14.69287
-25.0199
-30.12642
-28.16706
-19.8019
-8.542732
1.790484
6.694152
11.58794
17.00686
15.94933
7.144284
-1.463765
-11.76493
-32.49751
-78.31144
-134.1774
-146.0042
-82.73062
-34.79753
-43.86406
-66.78117
-82.23268
-86.21231
-83.28365
-83.07247
-86.05116
-89.7069
-92.92194
-95.06961
-95.62003
-95.97622
-94.95533
-93.47223
-90.8643
-87.63913
-84.54162
-80.49564
-76.09549
-70.89867
-65.37443
-59.59716
-53.35188
-47.08894
-40.81068
-34.20529
-27.37135
-20.65542
-14.07636
-7.650127
-1.122803
5.025954
11.20746
16.99819
22.53053
27.7446
32.47174
36.75245
40.61614
44.00444
46.97732
49.2049
51.0226
52.27123
52.92999
53.10534
52.77619
51.6812
50.01818
47.8546
45.14059
41.91155
38.19748
34.02635
29.23029
24.22651
18.86427
12.89624
6.707532
0.3456776
-6.515649
-13.49773
-20.37124
-27.46775
-34.66188
-41.8907
-49.21716
-56.32689
-63.2322
-69.7274
-76.05559
-82.4018
-88.11019
-93.59145
-98.44347
-102.9599
-107.224
-110.5904
-113.3446
-115.5433
-116.9699
-117.5179
-116.9979
-115.6035
-113.4962
-112.366
-112.8609
-117.0852
-131.3753
-135.3495
-117.8736
-94.71505
-80.34757
-70.31689
-55.00258
-38.1421
-67.68169
-140.9481
-155.8221
-122.9245
-94.31337
-73.27766
-59.65979
-50.75157
-42.7296
-32.55895
-25.25632
-25.07922
-27.17247
-29.82236
-32.97105
-35.30757
-36.67512
-38.21076
-42.62072
-47.83322
-50.57668
-51.87019
-52.99355
-53.82702
-53.89057
-52.9389
-51.06986
-48.29775
-44.76154
-40.75385
-37.71509
-36.58499
-34.65663
-31.6478
-31.87608
-32.76039
-28.91948
-22.27474
-12.41943
-4.733083
-6.248153
-16.26403
-26.31795
-31.32851
-29.45924
-21.3106
-10.67553
-0.1511151
6.273968
12.61302
18.12767
16.97295
7.866982
-0.955098
-12.64626
-32.46017
-76.31958
-130.9011
-142.6357
-84.57287
-42.46253
-47.59837
-65.36571
-78.48995
-82.81552
-81.38389
-81.54464
-84.19648
-87.32753
-90.11513
-92.32277
-92.31897
-92.52994
-91.7759
-90.42486
-88.06962
-84.59721
-81.72455
-77.81883
-73.61129
-68.38223
-62.94314
-57.5482
-51.47519
-44.95577
-38.87523
-32.68631
-26.02275
-19.12142
-12.68305
-6.680989
-0.122311
5.797866
11.95087
17.49017
23.11707
28.31875
32.77253
36.92601
40.68215
44.05876
47.06984
49.13872
50.96939
52.18431
52.81537
52.98925
52.68366
51.56902
49.90231
47.73454
45.08362
41.92445
38.31412
34.32476
29.51335
24.58345
19.3853
13.72952
7.585571
0.9771772
-5.575889
-12.20936
-19.22031
-26.24078
-32.97672
-40.05326
-47.67641
-54.31582
-61.22772
-67.54396
-73.6829
-80.02751
-85.46786
-90.99098
-95.57863
-99.94519
-104.258
-107.455
-110.0916
-111.9319
-113.4669
-114.3442
-113.9947
-112.8921
-111.1729
-110.5563
-111.3354
-114.9006
-125.5215
-127.6269
-113.1597
-93.34892
-80.16889
-70.45076
-56.55778
-43.81482
-75.30547
-145.7214
-160.0781
-125.4816
-95.23875
-72.6647
-59.23986
-50.4142
-42.7742
-32.46733
-24.49439
-24.47067
-26.96353
-29.87614
-33.28197
-35.80835
-37.36697
-38.92056
-43.17702
-47.99277
-50.48353
-51.77233
-52.92483
-53.72904
-53.78774
-52.81181
-50.96473
-48.211
2.723962
2.102978
-32.80154
-10.97447
12.98716
-8.217463
2.883843
2.144306
11.96459
-0.8795596
0.03821267
2.762875
-0.204174
1.473502
0.9183612
4.375525
-4.783841
-2.199918
1.513164
1.964377
-50.22572
3.289311
3.65164
-1.024576
2.2186
1.695847
2.768664
-0.4355812
-5.588593
2.398407
2.507908
-14.33784
-9.215394
3.21375
-0.4526555
-3.891357
1.071698
0.5807815
-1.156211
-5.066384
-21.7062
3.311112
1.936199
4.348481
33.19834
2.320616
-3.544206
3.099484
3.101471
-0.5977345
-5.240949
4.379417
-2.260368
1.162308
0.1102976
22.74581
-2.719684
-3.28077
-12.15242
-17.76908
-0.3163016
0.01084066
-17.18958
2.509212
8.099563
3.19282
-27.36293
5.193725
2.989091
3.87693
0.2720492
-4.226425
-8.773131
-55.42283
23.40928
2.118232
5.359441
-1.728589
3.418902
1.751144
-18.03169
0.2024547
4.625596
-2.979402
-9.876248
0.3704852
-6.170724
2.01183
-21.94801
-1.037218
-15.35543
24.01623
1.25808
-0.3531787
1.541457
3.073975
-22.79267
6.96129
-44.48287
1.327497
2.328294
1.98932
-4.251758
-89.89326
2.889627
-13.35014
-4.75281
1.591501
-1.555512
-3.094411
2.38475
1.80777
2.262323
8.603636
-18.85027
-0.2472217
0.1203325
3.2638
22.49682
1.596468
3.062404
0.8537239
0.535626
0.346362
-0.7005638
10.56771
0.03361748
-21.68646
0.6972286
0.701645
0.4993792
1.87698
2.083558
0.3028938
3.384179
-34.45906
0.3625995
8.244844
2.364823
0.1513383
-28.09047
1.587111
-67.22153
2.237585
3.470456
3.08608
1.686559
-41.72971
2.823734
0.3145131
-13.72929
-15.16571
-50.11762
3.255365
-0.8974039
-56.94697
2.486427
-0.8548677
1.672417
-36.41631
1.434437
-36.07035
0.2306548
1.48238
2.705269
-9.523424
-22.35396
3.11755
-28.43627
-0.6652305
2.4973
-1.720504
-0.8440274
-30.30675
-4.842545
-51.3372
3.852356
1.892659
5.013868
2.323959
17.1444
2.754501
3.210781
1.818327
4.611412
-47.71426
3.071775
1.704603
-3.052792
2.361414
0.6902915
2.239623
-7.745948
-1.092959
0.6498094
1.077779
3.471983
1.443288
-3.743147
-34.77928
1.855687
1.910768
2.473632
-20.806
1.687966
0.7110724
-6.820232
3.134655
-8.473206
2.774608
2.400351
-13.59344
-3.860891
-4.379209
-5.805112
-4.639603
-10.48867
2.034788
7.379574
1.561293
2.610206
1.891538
4.335245
-1.187571
-1.939814
0.2604903
2.87015
9.167998
-8.735602
20.05945
-2.705862
26.07719
5.077547
-1.83939
-78.16995
1.730104
26.76269
2.695212
3.62799
1.261003
0.304181
2.394647
-0.2346028
-7.196221
2.116022
-14.44488
2.667183
-39.65661
0.01688585
1.602891
-34.73387
2.164358
2.111911
2.027596
4.347405
-27.79848
2.322984
0.6760457
-57.2409
-2.065018
-2.27285
0.1381008
3.179398
4.556247
0.7583437
3.768123
0.8059897
2.849637
-4.43304
-26.81355
0.3024523
2.003972
13.95433
-0.3125819
-14.87726
4.730922
3.069923
-20.55958
3.032494
1.199147
2.866672
2.088545
3.148612
2.581265
3.033074
1.710586
37.99711
0.4958113
3.387033
3.004676
3.171953
2.737891
1.726691
2.755772
-35.86001
0.1404052
-4.173698
2.931674
-0.1834419
1.126869
-44.62843
3.247704
-0.7251301
-17.32621
0.8369682
4.062329
3.78637
2.550186
-21.28977
-5.110054
-2.178269
2.228825
3.431276
3.022948
0.8348419
-12.40951
35.83145
-67.54727
-24.07619
-66.06514
0.4615085
1.547162
2.054797
0.9715367
0.02727585
-0.009869368
2.67297
-1.688174
2.339724
5.846547
19.51786
-6.111271
-7.154954
-45.90283
2.903112
3.370701
3.100218
1.469788
-3.351025
-18.57633
-43.19152
1.082434
1.959171
1.751633
-13.07131
5.503503
-6.854011
0.5571615
-10.69036
0.1237844
-3.651275
2.601233
14.76071
1.12562
0.4777134
-14.63428
-53.62593
-1.952458
2.131015
3.246444
3.022856
3.579605
2.541785
3.583903
2.051306
3.484724
3.188059
0.5535457
2.399059
2.813005
-2.296016
14.06402
-39.65609
2.386417
3.45006
2.332791
-0.8948718
2.652481
-0.7094172
2.623372
3.199137
3.046872
3.850664
-10.45992
-3.912968
2.58877
3.070217
39.97952
3.450058
2.107957
-1.280731
1.108183
3.504208
-44.61874
-3.59276
-0.1305862
2.108446
-1.58867
2.784563
2.201293
3.423698
1.915969
-30.1377
2.925599
1.728047
-6.086731
-33.66259
-50.44689
3.487786
-0.2978947
2.370692
1.031783
-1.951292
2.202565
3.346266
0.1338019
3.174842
-2.018982
0.7662931
-26.47837
1.941349
2.411912
5.618473
3.302389
0.5110918
-27.15239
-0.152872
2.708158
-48.6001
2.355072
-41.9127
-12.536
-14.53827
2.078695
0.3619703
1.887227
5.621611
-5.020048
1.965374
1.989005
3.283173
4.763026
1.223022
2.071328
-3.867166
2.412905
-2.511048
-0.4330217
0.3566521
0.8509042
2.136247
11.50962
-0.6332883
-6.544094
2.751046
-0.08476983
-3.429407
6.139995
1.941677
-19.45445
0.4242736
-35.57997
1.793556
2.897324
0.8946774
3.9025
27.97569
1.929227
5.198344
-0.7339689
-9.848308
-0.2319312
2.288381
9.141716
2.822554
-7.410679
3.839118
-30.82504
-3.306019
1.21112
-3.962141
2.575598
2.792459
1.88409
2.366454
2.807982
-0.662545
17.8559
0.1494191
3.1842
3.238361
-24.84052
0.6114134
0.91715
-19.22972
2.364255
1.708665
5.197663
2.848945
5.059886
2.622309
1.907186
-0.2033082
-4.152899
3.486806
2.110929
2.115428
0.45323
3.408158
2.659727
-24.80153
5.367736
15.49647
-1.076176
2.850978
2.636117
0.3474365
3.685139
-0.9903188
1.802357
2.41762
2.017474
-0.7616115
2.263915
2.565725
0.2611272
1.263103
0.6226736
0.1462827
-1.442443
-26.98079
0.7028991
-26.45601
0.2539158
5.46985
5.716786
4.675869
0.05470659
2.754797
1.090708
5.742475
2.582815
1.551284
-0.4878501
-43.56867
4.019809
5.046273
2.150273
-1.871701
9.100575
2.675281
7.681795
-4.704308
-2.532849
-27.59409
-0.8908981
2.395015
-15.53007
17.2984
-3.922501
-0.1791966
-17.48319
-0.9888702
-4.571685
0.2608433
1.136037
2.475874
9.024733
31.84682
3.953347
2.376215
6.671957
5.087588
-62.02679
0.7363825
4.214824
2.442309
4.28075
2.831158
3.267039
-0.0123303
3.263499
7.258171
2.234787
-2.644288
-22.85484
-0.4493155
-7.481123
-82.76227
-3.24141
-0.268975
-9.507043
-0.6240749
0.1616161
1.831636
0.09744525
2.396414
-48.97791
-1.475798
2.329429
2.319259
4.561519
-1.119089
3.043027
-0.7435586
-11.7093
-5.313246
1.827604
-16.57344
3.406498
5.94828
3.813428
-38.49809
0.1889228
10.16812
-3.468211
0.5921107
2.045683
-5.688717
5.492164
3.281935
2.730396
2.230818
-1.908926
2.527752
19.31976
3.874438
1.388014
3.24814
-1.581383
2.628632
-14.7502
-14.6132
-1.370497
-48.54003
-8.131946
-5.388064
2.110284
0.4649254
1.271066
2.229759
1.976501
-1.926986
-1.785391
3.34427
1.958409
2.651235
-43.3539
3.003441
26.94693
5.649008
-29.71428
0.1826369
-9.471336
8.353028
-2.017078
-13.59301
2.770869
2.884286
-2.667287
1.846792
2.42728
1.582679
0.5709424
3.284946
0.2294407
-6.144856
3.899113
2.234069
-0.7401895
1.731709
2.792358
-91.29327
3.007114
2.145163
6.147011
-19.49881
0.3498082
1.18337
7.308974
15.33623
11.69947
3.409262
3.929354
1.160177
1.495124
2.716203
-1.909553
4.130962
2.744968
-18.80767
-3.737176
-56.75933
3.093718
3.022773
2.868735
-44.89412
3.06795
2.182842
1.865093
3.563026
-9.408933
1.059773
-1.42882
5.313475
-15.15282
3.383155
2.259181
-16.53452
2.503026
2.157901
1.6851
2.544501
1.125697
-0.4820344
0.7568049
2.84307
-54.96571
3.09993
-6.028306
0.7098686
0.3043877
1.043713
2.131153
3.393701
2.053936
1.8406
-26.41857
1.672448
1.971811
2.431381
2.249394
2.470744
2.127844
3.110411
2.47051
3.201884
5.507435
-48.10557
2.389502
3.701761
-24.37488
1.124784
1.624924
3.793584
3.826312
-52.20103
4.056471
10.43004
10.29448
0.1641595
-5.923828
-3.981254
2.813651
0.09132134
-22.45711
-0.8270699
-6.098033
-12.52588
-5.168543
-3.621686
1.161309
3.50404
14.18152
2.6518
-0.01547877
-29.74658
2.561911
2.335938
2.207445
-9.296395
24.37669
-3.964558
-3.930414
3.787027
2.461112
2.733844
-0.1215241
-2.459301
2.29458
0.1243363
-0.317075
0.5510921
1.849331
5.70706
2.541342
-3.283847
2.619162
2.693512
1.12917
0.08303788
-16.10705
32.30318
2.608826
0.02837573
0.8335091
2.253442
-0.7682261
2.778024
-54.55321
1.205829
-59.27813
-4.289387
-0.04245706
2.387345
0.5078593
-2.723202
1.769339
-5.870468
3.298628
0.4026681
-4.596016
-47.9447
2.62406
-0.1441358
1.838686
2.637078
-0.1326961
3.791436
-1.674543
-2.542186
17.07667
2.556879
1.770369
0.4609083
0.7575513
3.196123
1.63044
2.489645
1.896483
-2.486632
1.960187
9.742152
-37.38995
2.95143
-3.265408
-5.401316
1.016464
1.896032
2.735192
0.6450897
1.75292
3.021511
4.667744
3.351388
4.07653
5.067229
-0.1410265
3.255105
32.11489
2.011259
-1.50794
0.1374983
-56.73323
3.144697
1.897609
2.160563
2.285091
34.25372
0.124319
2.640027
-1.202735
1.391293
1.74639
2.439695
1.947608
1.94998
-14.00789
-15.76357
2.236894
0.5590852
-44.8521
-0.03972002
-1.208651
1.167262
-11.4542
6.593326
31.26545
0.7294482
2.27717
0.4378815
1.108627
1.041593
12.34733
-0.70583
2.152514
-1.231954
0.2139164
2.211265
-2.861251
3.226105
-3.352459
-5.406033
-20.96478
4.557163
-4.621711
-3.906703
-12.37835
3.357435
6.341047
-6.588002
-2.034147
2.990825
10.31501
-20.42803
7.504258
1.373077
1.328833
-6.536058
29.03807
0.315103
5.086638
-1.072256
-40.96585
7.381705
0.05340766
5.25778
1.886406
1.242757
-17.05054
-0.4744589
3.224556
1.587007
2.897905
0.1593864
-17.32983
-13.38721
-44.42144
4.426671
-45.63465
-0.6478945
-0.1767186
-12.20536
1.653616
-0.4675501
-34.66104
0.5541931
1.682304
-24.53749
2.181087
-0.7860347
-10.39352
-55.12144
3.06719
18.50835
1.726619
-3.618324
-5.263567
18.94312
-45.76809
0.2873706
0.6651313
3.710903
1.29978
-1.845149
2.834289
3.302985
2.042116
1.768699
-66.4835
-76.52767
2.405713
-5.885273
4.129863
-0.3353388
2.190145
4.235481
2.033336
0.6578258
2.389339
2.340186
0.4463937
4.616918
1.932178
-12.88774
1.894197
0.207157
-53.35061
2.620497
1.839878
0.7906922
-31.44806
-2.416832
-1.961251
3.638586
-8.186596
-28.54737
36.04371
49.18495
2.823649
2.018679
-7.198784
7.730706
2.611769
0.1206393
12.05682
-36.12116
2.755919
2.531593
0.1441731
3.642035
2.000901
5.79548
-0.9333573
-17.50767
-57.89414
-12.19516
3.279467
2.444569
3.229092
3.515588
-35.95698
2.929108
2.036938
0.632208
2.148248
2.937487
2.929227
-25.77631
-13.76193
2.654595
3.119547
3.293586
2.827189
2.524147
2.803932
0.134384
-44.15099
1.604503
-26.49554
-57.68782
0.9009193
0.3618697
-60.79893
-71.3802
2.591304
1.472441
3.779197
1.790584
2.209187
-3.805531
-2.826031
2.205449
2.567922
-17.91029
1.301586
-0.8417984
1.266637
3.293553
2.164084
0.732891
0.4879849
2.203524
1.615513
1.347878
2.262139
-1.234974
1.98799
-16.12612
5.291293
-0.04992951
3.247289
1.950539
0.148517
4.597202
-15.84631
-14.7989
5.768799
2.275472
0.09604402
3.547289
-31.36316
-12.17122
6.09639
-33.78121
24.80529
3.160657
4.151404
0.7315555
-22.54
0.3424018
4.834932
-42.05641
-8.049384
1.672974
-0.5623543
-0.9975402
7.918222
2.186178
2.923008
-1.536029
3.35636
-26.65814
3.086973
10.65605
36.8628
-12.38887
-6.943111
2.093903
3.70312
2.52943
9.476758
2.869171
8.723404
1.558882
2.834317
-3.642083
2.843207
-1.903275
2.047849
-14.87602
2.391166
-73.31278
9.739749
3.121437
17.45504
2.714455
31.02286
3.625356
-27.88261
4.49444
1.390833
15.65227
-3.671577
5.160993
3.033713
2.650341
1.494163
1.52129
4.309991
-5.275863
1.556174
-0.03751945
-23.29291
-18.99711
18.90776
-1.778154
3.135099
-29.12275
-10.20612
-0.1625616
-26.9552
39.75716
0.7413262
2.65971
-41.11067
3.01432
-2.442738
1.077414
0.3806675
-14.42622
-86.76377
-4.501601
1.804359
1.486066
0.1426634
1.99226
3.356295
3.397386
9.251233
5.084962
3.032044
1.556388
2.319656
3.504498
-8.542924
2.944103
2.396194
2.311525
-39.56525
0.07083592
1.956406
1.078353
-0.3778246
-18.63803
2.991546
-1.564271
3.23931
-4.541477
3.998841
2.356802
1.858636
2.958033
-74.73724
26.70892
-1.631234
-1.575579
5.015328
-0.8230436
0.5407993
0.7196309
-2.084046
0.1636268
3.554549
2.823703
1.920678
-15.91915
-0.1833887
-11.66656
1.544098
-0.06570811
-0.4296416
0.08760493
-1.553813
-2.387102
-6.871458
-2.525487
-1.080381
2.696231
-0.3437048
-2.460355
0.3999939
-6.295517
3.133136
1.707445
3.295987
-3.798452
1.402821
4.067289
3.824785
-45.99612
5.015601
-1.187067
3.068851
-59.17721
3.019583
-36.41617
2.716797
3.115029
0.9961598
0.6466285
4.353734
-32.44425
-59.80392
0.6019114
1.904913
2.385947
3.011885
4.52459
3.943937
2.963981
2.184934
3.904235
2.122901
-6.263219
-3.249162
1.07627
0.2630667
0.0552005
-0.5697365
1.495479
2.861608
0.7472249
-5.734538
-0.02345362
-2.451637
9.536223
0.1816754
-13.58304
1.999201
3.248405
-0.816194
-18.33806
2.076839
1.687331
0.1672988
-18.84546
-47.24854
-42.99231
3.019586
-59.4026
2.955355
-3.335754
-2.47021
2.267385
17.83911
0.5832454
-60.653
-74.72401
-20.97336
-19.18449
-1.159726
-16.79247
-15.04045
-15.89781
4.017815
0.778453
-11.09965
-15.22446
-0.08099093
2.820121
2.489152
2.516157
-0.2620532
0.639509
-0.1659049
2.709261
1.519984
-17.17579
1.974808
4.134075
2.576066
4.115068
-36.82313
3.592543
-0.5246066
3.201516
3.109156
1.66024
-24.29168
-0.545951
3.218312
-2.481778
5.309937
13.71997
-59.47033
-11.46977
-0.1789105
0.6503345
21.17496
-2.053586
1.9193
2.56051
1.024213
0.813456
-35.92821
-32.88213
-20.52906
11.90636
8.891127
5.458386
-61.54397
-48.98861
-74.61976
3.715997
-1.540547
1.508726
2.043365
0.09429784
7.978772
2.486134
0.4297356
2.537545
3.175252
2.576659
2.002447
-28.29271
2.314409
2.84677
0.5651534
-18.30396
21.25347
0.1492697
-33.39546
-36.96615
-6.146824
7.814981
-2.444598
-2.855954
-13.6252
-69.44388
1.250287
-24.27554
2.207944
-46.09097
-16.76196
-1.834558
2.457238
-6.744172
0.9152126
15.80199
1.436346
-0.9263631
4.031844
3.022517
2.988646
-9.197766
1.244435
2.191376
0.9607424
-46.92259
-0.08593157
0.9099678
3.221594
1.923602
2.464176
-17.77999
2.788566
-36.52772
2.010893
3.398355
24.0541
7.50783
2.067198
6.453192
1.472882
-47.66321
3.645627
-1.458791
2.437688
2.188432
-21.68938
1.46864
2.590194
0.68912
0.522059
2.809136
4.501451
23.41308
3.154066
-12.53969
4.857474
-23.74112
2.694042
-80.40457
2.694541
2.540482
4.822228
3.551408
-7.756787
-57.57749
-76.11915
-62.83296
0.1168917
3.060601
-67.90712
3.138388
2.103013
0.02363986
2.03129
-1.187153
-38.15564
-11.12159
-53.53957
1.256569
1.274554
0.9555521
-34.36825
10.80977
1.310108
2.068259
1.606643
3.163331
-0.1769189
16.39818
1.813859
-10.95849
1.810582
3.250106
0.1168797
-0.1835695
-3.139933
0.13318
3.272957
-7.36708
3.159025
4.45213
-32.75429
2.738792
-3.864211
-4.972561
-3.846982
2.334536
2.076437
-1.271756
0.07759751
1.094008
-72.84709
28.15985
-2.405581
-25.09088
-12.00326
-33.64411
3.447807
3.232558
4.025344
2.147144
-0.006416007
1.623341
2.390637
-71.93273
0.1019812
22.63595
36.60402
2.525386
-0.7338911
0.3374446
2.561089
2.011058
-3.018212
35.04309
-67.66813
4.036685
5.575668
2.367339
-5.938902
3.014742
2.805629
4.294937
1.393647
2.886296
-21.93199
1.410422
3.261823
2.759466
-0.247277
-13.73532
-2.167015
0.3510555
-79.54955
29.5018
-54.28386
0.9834189
-4.373719
-0.2603085
1.534955
3.939426
33.7424
-11.3615
2.069281
-15.06434
2.080512
0.1517568
-14.38937
1.57867
2.550833
1.956239
2.06713
20.97437
-2.312285
-10.26392
3.436297
-6.15282
-4.817867
20.74983
4.275426
7.012998
-7.76646
-16.9125
2.900809
0.2966472
-11.06229
3.008353
-44.04476
2.462258
-15.66309
1.114569
2.354034
-9.953782
-14.72351
2.229374
2.471856
-2.30805
-0.1349279
1.974563
1.114675
-63.1245
-18.7756
0.1790783
4.946416
0.07517121
4.492237
2.153526
-2.725785
0.4199118
0.4518663
-51.72072
-4.878299
-1.682794
-1.201544
-44.18913
3.491685
3.557383
-10.89462
4.767175
5.494788
2.704217
37.37471
2.443959
2.134962
2.329178
2.425754
-16.79062
-18.5625
-30.87632
16.02101
2.154487
2.263684
1.038703
1.426634
0.2389296
1.622229
-1.494668
0.6942027
1.140474
1.17396
-0.5395864
2.797701
13.52504
9.203882
-3.999393
3.311568
-1.018865
-0.6055155
3.293
-0.8147278
11.20507
-47.00752
-20.73387
2.415255
2.906891
-78.28114
44.30688
-91.69338
3.478144
2.302296
5.977518
-4.249331
11.02214
-24.62108
-0.1413776
5.453872
0.7898219
3.729096
2.02937
-1.840917
0.3710383
-39.48405
4.188071
-4.067973
-0.5166172
1.706708
2.785744
7.537455
22.93196
2.59239
17.02318
3.003597
2.865289
2.633469
1.188519
-52.18709
1.959349
4.636197
33.13435
2.681652
1.984014
2.644667
28.42897
7.194866
1.229302
4.22675
3.743812
2.042386
2.433602
-66.88875
0.5561752
-60.25801
-0.03415488
1.333348
46.96918
2.566629
2.541041
2.841298
4.067016
-11.99003
2.365484
-23.20022
44.02557
3.292792
-0.981153
47.46101
3.046187
2.810998
6.578271
-23.05902
2.402427
-1.796382
-3.911864
1.370587
-6.748382
-55.74578
2.513883
2.500316
-1.742443
1.481452
19.71187
3.011799
1.296216
2.111406
1.47654
0.2676459
0.7862026
0.8021643
2.770309
1.065943
2.680965
-14.71804
-41.72176
-9.409238
-18.70212
16.61504
-0.2788527
3.293245
1.270379
1.952333
5.211951
-49.12353
-0.9839111
28.78973
-19.90001
2.083253
-4.33903
1.692219
-0.09767595
-0.5410689
-8.445344
3.228729
-67.78882
2.671351
0.1692884
1.850488
2.069752
2.609445
-7.630697
1.790079
2.236789
2.199323
2.449476
4.124467
-3.663061
1.060054
1.622295
2.207164
-34.69753
-12.5013
2.239567
-29.78077
1.256838
-5.50442
13.55316
-0.9400131
-0.4532209
5.278494
2.345611
10.17108
18.31606
-0.2909896
-1.921082
-0.2201972
-10.49416
-71.76129
-69.4677
2.995662
-5.775729
-1.078714
-18.33477
13.40278
2.424763
-1.776174
2.367184
3.577731
3.274234
-5.441262
2.542045
-0.5033911
1.78393
30.098
3.626654
-5.725946
3.602811
3.270681
3.026701
21.55796
3.582178
4.073396
-1.395241
-4.515642
3.254134
-13.55284
-11.95352
7.317215
10.2191
1.38943
-19.48374
2.613414
39.59657
3.607105
8.895769
2.15248
-10.378
3.144057
3.227965
0.06751233
22.13957
2.311072
2.639636
0.3950404
0.8415405
-33.73938