/*--------------------------------*- C++ -*----------------------------------*\
| =========                 |                                                 |
| \\      /  F ield         | OpenFOAM: The Open Source CFD Toolbox           |
|  \\    /   O peration     | Version:  2406                                  |
|   \\  /    A nd           | Website:  www.openfoam.com                      |
|    \\/     M anipulation  |                                                 |
\*---------------------------------------------------------------------------*/
FoamFile
{
    version     2.0;
    format      ascii;
    arch        "LSB;label=32;scalar=64";
    class       volScalarField;
    location    "2.3";
    object      p;
}
// * * * * * * * * * * * * * * * * * * * * * * * * * * * * * * * * * * * * * //

dimensions      [0 2 -2 0 0 0 0];

internalField   nonuniform List<scalar> 
217010
(
-205.1363
-135.4421
-140.2534
-142.4107
-142.5376
-135.0884
-132.2838
-131.9512
-131.2987
-131.1345
-131.2575
-131.7521
-132.2323
-132.5674
-132.9253
-133.537
-133.8873
-133.6256
-132.7162
-131.9108
-133.8328
-138.5686
-139.2475
-137.2015
-135.1
-140.7928
-145.7394
-149.0872
-154.9562
-158.7119
-158.9979
-155.5622
-148.2921
-138.8008
-129.6598
-121.7685
-114.3326
-106.9729
-100.6907
-95.34164
-92.14927
-91.01542
-90.54838
-89.63747
-87.78672
-85.0804
-83.8638
-83.94175
-90.95843
-90.4888
-174.9245
-120.2844
-136.3402
-145.9417
-146.4924
-146.2271
-151.676
-159.1996
-165.8302
-171.0625
-174.7169
-176.7555
-177.1827
-176.1024
-173.5429
-169.8263
-165.2076
-159.8376
-153.8878
-147.5826
-141.0057
-134.2932
-127.6624
-121.0981
-114.7005
-108.7776
-103.3467
-98.23551
-93.47118
-89.03113
-85.01854
-81.53909
-78.48373
-75.63413
-73.04715
-70.6028
-68.21443
-66.10533
-63.75901
-61.85593
-59.74925
-57.54867
-55.60083
-53.63957
-51.66327
-49.75523
-47.85326
-46.10665
-44.41595
-42.78231
-41.29408
-40.04926
-39.07203
-37.97585
-36.13798
-33.69593
-30.82808
-27.43084
-28.96567
-37.97371
-38.47726
-30.55197
-25.03366
-22.93728
-21.3511
-19.02008
-16.22383
-13.79953
-11.5428
-9.052921
-6.145358
-3.671519
-3.985413
-8.722647
-17.3748
-21.60432
-20.07067
-16.41569
-12.97304
-8.918494
-5.789365
-4.039922
-3.262675
-2.935535
-2.948345
-3.094774
-3.453462
-3.880177
-4.543104
-4.478952
-3.758594
-2.283676
0.0457896
2.229011
3.690519
2.727544
-0.9391992
-5.443591
-11.42515
-12.94913
-73.93609
-67.66321
-77.8916
-96.44489
-115.1223
-131.7316
-145.5045
-155.5834
-160.1078
-158.222
-149.2741
-131.7215
-104.7929
-73.05398
-52.76995
-49.97204
-47.27363
-46.34049
-61.8976
-77.79951
-80.27115
-67.96648
-54.54934
-43.94391
-31.96155
-23.9801
-28.40055
-48.32736
-78.56967
-108.2314
-131.0361
-144.9096
-150.0833
-149.305
-143.6873
-133.6446
-124.776
-116.0936
-109.9935
-106.8446
-102.2149
-97.65238
-95.96213
-96.70174
-96.48129
-97.58864
-101.5906
-104.3767
-95.67422
-161.0881
-78.36475
-68.33389
-55.83525
-48.59938
-42.38311
-37.27193
-32.87233
-28.8857
-25.43866
-22.30995
-19.47735
-16.89283
-14.46015
-12.17165
-10.03642
-8.06222
-6.217441
-4.449872
-2.766595
-1.164529
0.3656973
1.815793
3.184804
4.525006
5.831998
7.104805
8.318033
9.466766
10.57153
11.65576
12.72546
13.77468
14.77009
15.7321
16.68466
17.617
18.54065
19.453
20.35936
21.21217
22.10243
22.93851
23.76943
24.58275
25.39102
26.18245
26.95884
27.73417
28.52129
29.3038
30.06851
30.81886
31.56561
32.33017
33.09916
33.84907
34.58297
35.30311
36.00754
36.73063
37.4958
38.30335
39.15319
40.03363
40.88959
41.73196
42.66019
43.68772
44.5585
44.78687
44.76929
52.14309
50.03207
48.82906
47.34627
45.90815
44.63175
43.40873
42.234
41.15835
40.13213
39.05359
37.9512
36.87453
35.84819
34.84593
33.84207
32.82379
31.80485
30.81335
29.83044
28.83091
27.82917
26.837
25.82861
24.82369
23.80006
22.73664
21.68928
20.66338
19.62604
18.55853
17.44753
16.36532
15.24377
14.09028
12.93007
11.75934
10.54507
9.310132
8.069841
6.799355
5.458377
4.054302
2.647546
1.243786
-0.2192274
-1.75518
-3.341585
-5.004219
-6.738167
-8.526475
-10.38162
-12.27237
-14.29559
-16.46043
-18.7185
-21.12094
-23.64523
-26.37463
-29.34014
-32.50629
-35.91773
-39.7371
-44.01145
-48.86868
-54.29543
-60.6183
-68.42608
-77.63187
-93.13822
-107.4083
52.00402
50.19284
48.98334
47.52752
46.07726
44.78057
43.54507
42.35851
41.27088
40.23834
39.15768
38.05128
36.96763
35.93417
34.92678
33.91925
32.89765
31.87445
30.87867
29.89224
28.88987
27.88512
26.89007
25.87893
24.87186
23.84619
22.78031
21.73025
20.70154
19.66197
18.59269
17.47939
16.39594
15.27156
14.11595
12.95389
11.78141
10.56514
9.328459
8.086303
6.814202
5.47101
4.064718
2.656102
1.250692
-0.2147357
-1.752713
-3.34093
-5.006171
-6.743203
-8.534738
-10.39324
-12.28628
-14.31508
-16.48508
-18.74797
-21.15722
-23.68716
-26.4262
-29.40217
-32.57787
-36.00169
-39.83781
-44.12916
-49.02327
-54.48164
-60.85393
-68.72223
-78.11219
-93.59377
-109.6783
-80.2841
-68.69329
-56.22701
-48.8376
-42.57675
-37.42421
-33.00036
-28.98101
-25.52047
-22.3806
-19.53614
-16.94358
-14.50365
-12.20799
-10.06601
-8.08609
-6.23761
-4.466215
-2.779164
-1.173893
0.3591235
1.81233
3.183141
4.524966
5.833692
7.108408
8.323558
9.473736
10.57993
11.66569
12.73691
13.78773
14.78462
15.74777
16.7019
17.63564
18.56098
19.47482
20.38282
21.23806
22.12942
22.96663
23.79911
24.61418
25.42392
26.21692
26.99515
27.77297
28.56225
29.34639
30.11275
30.86521
31.61475
32.38228
33.15301
33.90386
34.6386
35.3594
36.06631
36.79603
37.56996
38.38815
39.24536
40.12855
40.98547
41.83634
42.77694
43.80147
44.61998
44.8135
45.61217
-66.73924
-67.24647
-76.53332
-94.41566
-113.1879
-130.0666
-144.1762
-154.6951
-159.7527
-158.4594
-150.0576
-133.2038
-106.7952
-74.8101
-53.50818
-50.13742
-47.39039
-46.11724
-61.36016
-77.46299
-80.42386
-68.33849
-54.95869
-44.31268
-32.22257
-24.10957
-28.39341
-48.18235
-78.38464
-108.0744
-130.938
-144.874
-150.1269
-149.4061
-143.8464
-133.7415
-124.773
-116.0274
-109.9096
-106.7664
-102.1605
-97.61865
-95.95505
-96.70814
-96.49949
-97.68608
-101.7756
-104.2355
-97.17991
-149.2834
-166.5967
-122.8296
-135.2266
-145.244
-146.3916
-145.8418
-150.9202
-158.4639
-165.3053
-170.7303
-174.5619
-176.7297
-177.2687
-176.33
-173.857
-170.1915
-165.6059
-160.2566
-154.3116
-148.002
-141.4141
-134.6787
-128.0231
-121.437
-114.9993
-109.0358
-103.5741
-98.43489
-93.64695
-89.1818
-85.14257
-81.63963
-78.57075
-75.70701
-73.10954
-70.66067
-68.26183
-66.15046
-63.79528
-61.89231
-59.781
-57.57395
-55.62356
-53.65905
-51.67914
-49.76803
-47.86224
-46.11363
-44.42041
-42.78362
-41.29212
-40.04457
-39.06778
-37.97577
-36.13497
-33.68497
-30.81547
-27.41896
-29.02707
-38.11022
-38.52526
-30.47513
-24.94778
-22.87917
-21.29613
-18.96133
-16.15774
-13.73447
-11.47578
-8.98547
-6.09201
-3.666356
-4.097969
-9.035594
-17.66852
-21.69253
-19.94994
-16.24004
-12.77023
-8.726188
-5.659796
-3.968546
-3.226632
-2.928339
-2.956374
-3.114639
-3.482399
-3.926892
-4.5647
-4.441321
-3.647028
-2.084237
0.2765493
2.392984
3.693891
2.483469
-1.436807
-6.146937
-11.81706
-15.00142
-190.5845
-137.395
-140.4244
-142.4544
-142.7896
-135.2812
-132.3241
-131.9607
-131.3067
-131.1353
-131.2545
-131.748
-132.229
-132.5649
-132.923
-133.5377
-133.8915
-133.6295
-132.7193
-131.9235
-133.8816
-138.6546
-139.2851
-137.1628
-135.1467
-140.9488
-145.9
-149.2446
-155.1268
-158.7929
-158.9459
-155.316
-147.9119
-138.3609
-129.2201
-121.3314
-113.8855
-106.5551
-100.3237
-95.08097
-92.0118
-90.95916
-90.48656
-89.50262
-87.56201
-84.92357
-83.83368
-84.3611
-91.27906
-94.37515
-175.8276
-138.1825
-140.5737
-142.3323
-143.1306
-135.5157
-132.359
-131.97
-131.3161
-131.1383
-131.2546
-131.7462
-132.2289
-132.564
-132.9254
-133.5466
-133.9043
-133.6447
-132.7334
-131.9575
-133.956
-138.7791
-139.3794
-137.0976
-135.112
-141.0365
-146.0434
-149.5906
-155.4593
-158.9742
-159.0293
-155.3982
-147.858
-138.1856
-129.02
-121.1607
-113.7316
-106.3617
-100.1544
-94.9604
-91.96723
-90.97004
-90.484
-89.44233
-87.43492
-84.78579
-83.82239
-84.56738
-91.61283
-95.3725
-159.0117
-124.1021
-134.5518
-145.4385
-146.6426
-145.9331
-150.8282
-158.2277
-165.0405
-170.4879
-174.3997
-176.6548
-177.2398
-176.2964
-173.8657
-170.2375
-165.6924
-160.3746
-154.447
-148.1453
-141.5635
-134.8259
-128.1628
-121.5743
-115.1324
-109.1561
-103.6821
-98.52657
-93.72702
-89.25445
-85.20359
-81.68721
-78.61152
-75.74509
-73.14006
-70.68794
-68.28825
-66.16763
-63.81845
-61.91141
-59.79759
-57.58842
-55.64021
-53.67112
-51.68864
-49.77629
-47.86794
-46.127
-44.43461
-42.79627
-41.3023
-40.0519
-39.06429
-37.9582
-36.10981
-33.66007
-30.78825
-27.37601
-29.08924
-38.42889
-38.67182
-30.40204
-24.86432
-22.85274
-21.29794
-18.94423
-16.13051
-13.706
-11.44504
-8.956564
-6.093018
-3.677606
-4.235547
-9.463263
-18.12541
-21.91935
-19.9973
-16.16535
-12.69382
-8.627888
-5.575631
-3.906823
-3.189909
-2.914069
-2.955855
-3.12649
-3.495653
-3.953629
-4.591558
-4.441421
-3.623998
-2.049431
0.3680949
2.467721
3.649424
2.242599
-1.751936
-6.344784
-11.99269
-15.81387
-61.29299
-67.13589
-75.97126
-93.51537
-112.4889
-129.6884
-144.0716
-154.924
-160.2438
-159.1718
-151.0757
-134.873
-109.244
-77.14961
-54.38513
-50.27173
-47.72313
-46.01069
-61.06572
-77.51938
-80.79234
-68.95143
-55.569
-44.73175
-32.60856
-24.4415
-28.55477
-48.22326
-78.45811
-108.1771
-131.0799
-145.0955
-150.259
-149.5999
-144.2299
-134.2043
-125.0063
-116.0307
-109.852
-106.8053
-102.1538
-97.59863
-95.95202
-96.71008
-96.5271
-97.81368
-101.8962
-104.0636
-97.71264
-136.655
-80.11465
-68.92842
-56.40763
-48.95986
-42.66995
-37.495
-33.0542
-29.03799
-25.55366
-22.41135
-19.56092
-16.96576
-14.52388
-12.22462
-10.07972
-8.096463
-6.248212
-4.475042
-2.786317
-1.179567
0.3541549
1.809869
3.180406
4.523117
5.832957
7.109103
8.325855
9.476143
10.58236
11.66842
12.74008
13.79258
14.79026
15.75227
16.70729
17.64123
18.56828
19.48287
20.39126
21.24227
22.13618
22.97458
23.80803
24.62295
25.43336
26.22672
27.00491
27.7824
28.57315
29.35875
30.12502
30.87751
31.62643
32.39477
33.16766
33.91946
34.65508
35.37888
36.08818
36.81981
37.59307
38.40573
39.25933
40.1462
41.0087
41.86073
42.81154
43.84528
44.64118
44.82409
45.77601
51.86186
50.27127
49.02049
47.57086
46.12205
44.8214
43.57683
42.38228
41.29424
40.26585
39.18241
38.07364
36.98584
35.95187
34.94438
33.93782
32.91454
31.88896
30.89383
29.90773
28.90372
27.89848
26.90398
25.8907
24.88559
23.85944
22.78976
21.73964
20.71145
19.6719
18.59986
17.48748
16.40409
15.28231
14.12402
12.96144
11.78882
10.57028
9.333275
8.091802
6.820393
5.475083
4.066344
2.65762
1.25324
-0.2139102
-1.752697
-3.341309
-5.009086
-6.747882
-8.541127
-10.40104
-12.29263
-14.32537
-16.49779
-18.7612
-21.1749
-23.70468
-26.44991
-29.43031
-32.60868
-36.03718
-39.88088
-44.19941
-49.08906
-54.56957
-60.96783
-68.88019
-78.3378
-93.89215
-109.3227
51.65294
50.34985
49.11735
47.72264
46.29665
44.98412
43.72562
42.5231
41.42638
40.38979
39.30197
38.19048
37.09729
36.05607
35.04234
34.03035
33.00309
31.97263
30.97348
29.98205
28.97383
27.96553
26.96781
25.95048
24.94394
23.91454
22.84
21.78944
20.7582
19.71621
18.64095
17.5349
16.43642
15.31691
14.15425
12.9906
11.81673
10.5939
9.355744
8.113163
6.840889
5.490941
4.078455
2.669011
1.264869
-0.206479
-1.747161
-3.336947
-5.009349
-6.750842
-8.547026
-10.41048
-12.30057
-14.34221
-16.52007
-18.78566
-21.20905
-23.74024
-26.49844
-29.48931
-32.67494
-36.11412
-39.98216
-44.31102
-49.22359
-54.74098
-61.18652
-69.14771
-78.75485
-94.16032
-109.4964
-80.26588
-69.13313
-56.74686
-49.17038
-42.85241
-37.63446
-33.16497
-29.12999
-25.63378
-22.47823
-19.61475
-17.01346
-14.56525
-12.25792
-10.10657
-8.11579
-6.266291
-4.488688
-2.796169
-1.186113
0.3493054
1.8099
3.179811
4.524296
5.836299
7.115012
8.335205
9.486542
10.59349
11.68024
12.75316
13.80902
14.8094
15.77026
16.72755
17.66237
18.59273
19.50841
20.41497
21.28178
22.16767
23.00741
23.84317
24.65984
25.47167
26.26765
27.04789
27.82712
28.61977
29.40806
30.17624
30.93115
31.68166
32.45084
33.22571
33.97729
34.71233
35.4388
36.15441
36.89637
37.6847
38.51503
39.37413
40.2572
41.11962
41.97853
42.93642
43.94879
44.70221
45.00607
46.39918
-54.38664
-65.81372
-74.94193
-91.75603
-110.6134
-128.0307
-142.6956
-153.9153
-159.6599
-159.2265
-152.033
-136.6512
-112.1622
-80.67834
-56.13916
-50.68503
-48.16626
-45.86035
-60.60723
-77.36448
-81.26556
-69.9855
-56.64559
-45.41803
-33.28312
-25.0403
-28.95255
-48.49791
-78.76945
-108.4393
-131.2941
-145.2317
-150.4349
-149.8781
-144.742
-134.9309
-125.5945
-116.1318
-109.7497
-106.6433
-102.0809
-97.55374
-95.94776
-96.7085
-96.55924
-97.98491
-102.1253
-103.829
-99.18107
-127.7194
-153.1823
-125.5472
-133.403
-144.6119
-146.6075
-146.2763
-150.9253
-158.0395
-164.7918
-170.2814
-174.2892
-176.6765
-177.3973
-176.6679
-174.335
-170.7121
-166.1718
-160.8616
-154.9236
-148.6076
-142.0126
-135.2423
-128.5477
-121.9297
-115.4416
-109.4226
-103.9218
-98.7322
-93.90745
-89.40959
-85.33141
-81.78809
-78.70065
-75.82125
-73.20655
-70.75068
-68.34211
-66.21812
-63.86205
-61.95146
-59.83248
-57.61599
-55.67248
-53.69554
-51.70843
-49.79465
-47.88007
-46.14822
-44.45265
-42.81356
-41.32201
-40.06487
-39.02996
-37.86473
-36.04537
-33.63184
-30.79499
-27.44167
-29.28807
-38.72963
-38.71144
-30.29837
-24.78142
-22.78667
-21.2285
-18.88805
-16.07315
-13.64339
-11.36663
-8.871959
-6.045541
-3.628193
-4.480113
-10.15559
-18.73587
-22.16951
-19.98727
-16.01373
-12.52386
-8.45768
-5.440755
-3.809365
-3.137809
-2.899296
-2.963726
-3.152992
-3.523644
-4.008011
-4.629328
-4.444603
-3.567489
-1.860705
0.5527955
2.562307
3.554233
1.890718
-2.290703
-7.008752
-12.22927
-16.67152
-166.1257
-140.0504
-140.4027
-141.8242
-143.5466
-135.9124
-132.3908
-131.9817
-131.3291
-131.1434
-131.2557
-131.7435
-132.2267
-132.5629
-132.935
-133.5669
-133.9296
-133.6777
-132.7719
-132.0239
-134.0811
-138.9706
-139.5154
-137.0081
-134.9721
-141.0109
-146.1978
-150.1253
-155.8877
-159.1816
-159.0292
-155.1242
-147.5468
-137.7686
-128.5494
-120.6977
-113.3074
-105.9853
-99.87266
-94.80977
-91.92086
-90.99542
-90.48042
-89.3502
-87.25399
-84.62177
-83.85867
-85.00549
-92.19124
-97.7822
-159.2429
-141.8534
-139.9231
-140.977
-144.0981
-136.4794
-132.4349
-131.9914
-131.3435
-131.1484
-131.2578
-131.7386
-132.2219
-132.5603
-132.9558
-133.6057
-133.9767
-133.7437
-132.8547
-132.1406
-134.2836
-139.234
-139.6755
-136.9314
-134.7779
-140.8552
-146.4453
-150.8447
-156.4791
-159.5774
-159.2637
-155.2571
-147.3966
-137.392
-128.1058
-120.304
-112.9883
-105.6589
-99.6291
-94.71711
-91.93069
-91.08358
-90.51553
-89.27757
-87.09117
-84.49096
-84.00754
-85.54005
-92.94169
-99.64914
-146.7262
-126.5958
-131.672
-142.9307
-146.1121
-146.6066
-151.0072
-157.7681
-164.4511
-169.9892
-174.0947
-176.609
-177.3934
-176.6411
-174.4204
-170.9463
-166.4824
-161.2253
-155.3058
-148.9905
-142.399
-135.607
-128.8879
-122.2609
-115.743
-109.6857
-104.1621
-98.93274
-94.0838
-89.56571
-85.4584
-81.88191
-78.78777
-75.90025
-73.27195
-70.81417
-68.39856
-66.26682
-63.91133
-61.99727
-59.87207
-57.64509
-55.71321
-53.72528
-51.73247
-49.8176
-47.89198
-46.17676
-44.47552
-42.83297
-41.34237
-40.07346
-38.97629
-37.76355
-35.97692
-33.62219
-30.92084
-27.75124
-29.75117
-38.94204
-38.74917
-30.22899
-24.7311
-22.73804
-21.18255
-18.84428
-16.02529
-13.59103
-11.28041
-8.746048
-5.927048
-3.498574
-4.913349
-11.23139
-19.54698
-22.57511
-20.05513
-15.84833
-12.36706
-8.273222
-5.279683
-3.685939
-3.07361
-2.881604
-2.975822
-3.188569
-3.547396
-4.053861
-4.670171
-4.469606
-3.5343
-1.762307
0.7098988
2.619849
3.37538
1.401485
-2.95148
-7.527688
-12.29084
-16.91853
-46.70388
-63.52071
-73.91219
-90.21607
-109.0141
-126.8522
-141.9485
-153.877
-160.3875
-160.5451
-153.6655
-139.0678
-115.7866
-85.71767
-59.75244
-51.59422
-48.65111
-45.48288
-59.9039
-77.01538
-81.68531
-71.53761
-58.32053
-46.4185
-34.28206
-25.97916
-29.73703
-49.18904
-79.53904
-109.0652
-131.8061
-145.7112
-150.8199
-150.3743
-145.4533
-135.8188
-126.4737
-116.4218
-109.6121
-106.2212
-101.8676
-97.47328
-95.94161
-96.703
-96.59926
-98.18825
-102.473
-103.6711
-100.7525
-121.4986
-80.34282
-69.21391
-57.03608
-49.35769
-43.02189
-37.76344
-33.271
-29.22372
-25.69837
-22.53922
-19.66357
-17.05847
-14.60673
-12.29202
-10.13377
-8.133348
-6.28632
-4.505475
-2.809667
-1.196103
0.3405944
1.808058
3.174986
4.520926
5.834333
7.115511
8.340439
9.491548
10.59743
11.68487
12.75935
13.81927
14.8218
15.77902
16.73934
17.67421
18.60839
19.52349
20.42604
21.29244
22.18433
23.02509
23.8625
24.67908
25.4922
26.2899
27.07016
27.84866
28.64422
29.43629
30.20474
30.9604
31.71042
32.48173
33.26211
34.01493
34.75135
35.48413
36.20422
36.94931
37.73599
38.55693
39.40978
40.30709
41.18405
42.05153
43.02488
44.01345
44.72529
45.14121
46.76624
51.37911
50.3858
49.19094
47.82941
46.41313
45.09653
43.81836
42.5962
41.493
40.46146
39.36711
38.25045
37.14677
36.10271
35.08726
34.07572
33.04474
32.00889
31.01094
30.01942
29.00763
27.99783
27.00082
25.97799
24.97563
23.94478
22.86199
21.81166
20.77975
19.73812
18.65999
17.54483
16.45356
15.33757
14.16925
13.00532
11.83134
10.6039
9.366564
8.125419
6.853927
5.497752
4.080402
2.672839
1.271404
-0.205523
-1.747149
-3.33645
-5.015031
-6.759348
-8.558262
-10.42461
-12.30826
-14.36262
-16.5464
-18.81214
-21.24595
-23.7726
-26.54702
-29.54775
-32.73576
-36.18065
-40.06965
-44.42685
-49.35195
-54.9011
-61.38999
-69.39705
-79.11405
-94.28861
-109.3971
51.01191
50.35362
49.25236
47.95479
46.57385
45.26656
43.9732
42.74211
41.63901
40.60851
39.50577
38.3899
37.27702
36.22545
35.20347
34.1904
33.15333
32.10688
31.10587
30.1093
29.0912
28.07839
27.08047
26.04864
25.05012
24.01701
22.92249
21.87438
20.83915
19.7948
18.70981
17.61037
16.50162
15.38578
14.2108
13.0469
11.86917
10.63027
9.391582
8.152866
6.886715
5.520887
4.091094
2.684433
1.290948
-0.1950569
-1.739408
-3.325664
-5.013099
-6.763038
-8.569767
-10.44203
-12.30911
-14.37995
-16.57066
-18.84034
-21.29108
-23.80501
-26.60463
-29.62039
-32.81467
-36.25929
-40.17517
-44.56705
-49.50535
-55.08846
-61.62647
-69.66581
-79.46741
-94.27869
-109.2559
-80.45813
-69.18899
-57.31744
-49.54866
-43.22556
-37.92035
-33.39916
-29.33388
-25.77831
-22.61965
-19.72335
-17.11221
-14.65927
-12.33152
-10.16088
-8.148725
-6.311955
-4.526004
-2.823768
-1.202827
0.3356469
1.812038
3.173268
4.521942
5.836745
7.124823
8.357621
9.505339
10.61133
11.70304
12.77845
13.8409
14.84771
15.80011
16.76565
17.69957
18.63944
19.55491
20.45977
21.34582
22.22428
23.06531
23.90665
24.72521
25.54108
26.34097
27.12133
27.90173
28.70292
29.49974
30.26672
31.02403
31.77289
32.54439
33.32956
34.08223
34.82
35.56092
36.29068
37.05046
37.85505
38.68899
39.53465
40.42633
41.3085
42.17645
43.14826
44.09524
44.80805
45.434
47.20533
-39.02307
-59.60917
-72.28212
-88.42288
-107.0108
-125.3008
-140.8199
-153.3219
-160.1446
-160.8331
-155.3138
-141.8628
-119.9335
-91.91324
-65.56864
-53.44748
-49.26764
-44.50291
-58.69959
-76.00129
-81.62085
-73.52353
-60.59984
-47.79171
-35.765
-27.38845
-31.12306
-50.40805
-80.95356
-110.1837
-132.7119
-146.5435
-151.4235
-151.1231
-146.429
-136.8825
-127.6408
-116.9225
-109.4337
-105.4587
-101.4201
-97.33591
-95.92676
-96.69581
-96.64123
-98.52971
-102.8498
-103.5446
-101.766
-115.5581
-139.4164
-127.0672
-129.5033
-139.7562
-144.8987
-146.7118
-151.0615
-157.5057
-164.1462
-169.7644
-174.0025
-176.7119
-177.6378
-177.2217
-175.0434
-171.5045
-167.0523
-161.8287
-155.8965
-149.555
-142.9589
-136.1272
-129.3561
-122.6965
-116.1271
-110.0156
-104.4745
-99.18743
-94.29912
-89.75187
-85.60796
-81.99933
-78.9089
-76.00111
-73.35426
-70.89116
-68.46318
-66.3367
-63.96413
-62.05775
-59.93163
-57.67815
-55.7674
-53.76529
-51.76647
-49.8514
-47.9038
-46.21523
-44.5055
-42.86064
-41.36878
-40.08514
-38.92664
-37.67232
-35.90866
-33.62604
-31.10626
-28.33138
-30.42281
-38.88169
-38.4595
-30.16741
-24.76568
-22.72768
-21.12627
-18.78393
-15.96466
-13.51521
-11.1512
-8.558767
-5.73534
-3.308663
-5.588434
-12.65145
-20.4998
-23.07587
-20.13252
-15.63128
-12.20221
-8.044508
-5.075222
-3.521258
-2.993303
-2.862824
-2.997921
-3.226651
-3.563957
-4.080749
-4.725004
-4.533268
-3.521832
-1.620753
0.8658396
2.611815
3.086362
0.7254287
-3.783096
-8.134366
-12.17059
-16.51013
-151.8937
-142.4017
-139.0761
-140.0313
-144.9193
-137.2687
-132.5352
-132.0016
-131.3625
-131.1537
-131.2581
-131.7256
-132.203
-132.553
-132.9933
-133.6755
-134.0601
-133.8647
-133.0092
-132.3271
-134.5871
-139.5815
-139.8591
-136.9249
-134.6874
-140.7692
-146.8799
-151.7812
-157.2666
-160.1299
-159.5142
-155.3144
-147.2386
-136.9153
-127.4917
-119.7858
-112.6275
-105.3147
-99.40736
-94.70052
-92.00515
-91.22084
-90.5827
-89.24018
-86.98097
-84.42786
-84.33966
-86.2655
-94.06345
-101.4357
-143.7333
-141.3546
-138.1056
-139.3783
-145.8827
-138.472
-132.6425
-131.9902
-131.4006
-131.1834
-131.2508
-131.6912
-132.15
-132.5272
-133.0538
-133.8001
-134.2032
-134.0712
-133.2809
-132.6338
-134.9863
-139.9631
-140.0517
-137.0214
-134.7846
-140.9416
-147.6312
-153.0349
-158.3985
-161.0319
-160.0463
-155.5487
-147.1653
-136.3531
-126.6544
-119.2123
-112.0778
-104.8145
-99.2234
-94.78094
-92.14979
-91.35889
-90.62248
-89.25206
-86.99524
-84.59102
-85.12565
-87.40081
-95.44067
-103.3558
-133.0272
-126.9669
-127.3939
-136.6326
-143.1661
-146.5164
-151.0905
-157.3025
-163.8893
-169.5279
-173.827
-176.7596
-177.7509
-177.4074
-175.4215
-172.0309
-167.6673
-162.4903
-156.5643
-150.184
-143.6037
-136.7124
-129.878
-123.2202
-116.6172
-110.4328
-104.8848
-99.49878
-94.56041
-89.99823
-85.81162
-82.15694
-79.03278
-76.12287
-73.47269
-70.99703
-68.57513
-66.42083
-64.05592
-62.12616
-60.00228
-57.74513
-55.84584
-53.81767
-51.81728
-49.90113
-47.92954
-46.26831
-44.53558
-42.89269
-41.39862
-40.10456
-38.88018
-37.58387
-35.83993
-33.64774
-31.32975
-29.07953
-31.02862
-38.16547
-37.46771
-29.98205
-24.89596
-22.77594
-21.05586
-18.73796
-15.93798
-13.47654
-11.06638
-8.376497
-5.560692
-3.205752
-6.540224
-14.34617
-21.58062
-23.72481
-20.22018
-15.39978
-12.01941
-7.765194
-4.795214
-3.302739
-2.895683
-2.840574
-3.02168
-3.233464
-3.562732
-4.120455
-4.843419
-4.645982
-3.523778
-1.452372
0.9988824
2.472951
2.583212
-0.2656396
-4.802753
-8.640838
-11.61891
-15.22084
-31.60452
-53.63716
-69.39878
-86.11227
-104.4528
-123.2721
-139.6259
-153.1599
-160.6998
-162.7122
-157.8903
-145.6029
-124.8317
-98.93968
-73.07712
-57.15981
-50.51551
-42.76901
-56.76609
-74.07563
-80.53114
-75.70828
-63.54218
-49.78203
-38.22594
-29.74181
-33.39216
-52.20546
-83.04059
-111.8857
-134.0111
-147.7935
-152.3856
-152.3218
-147.7746
-138.0774
-129.1248
-117.6067
-109.3036
-104.5038
-100.8532
-97.13754
-95.81356
-96.63977
-96.5866
-99.24139
-103.7092
-103.4525
-101.9136
-109.3673
-80.42679
-68.97473
-57.54368
-49.71205
-43.46373
-38.07943
-33.51373
-29.44283
-25.87679
-22.71269
-19.77151
-17.17024
-14.72326
-12.36691
-10.18775
-8.177181
-6.354305
-4.545815
-2.83432
-1.202579
0.3285178
1.809484
3.168632
4.517564
5.833977
7.139062
8.36629
9.508426
10.62343
11.71435
12.77777
13.84421
14.87095
15.81186
16.78341
17.71396
18.66327
19.58045
20.48454
21.36375
22.24369
23.08996
23.93891
24.75808
25.57187
26.37176
27.15899
27.94169
28.74073
29.53748
30.30728
31.07121
31.81988
32.59073
33.38476
34.14367
34.87512
35.6211
36.36001
37.12843
37.9349
38.76737
39.59875
40.50487
41.42074
42.29441
43.25838
44.15324
44.90714
45.76672
47.54834
50.50996
50.21647
49.27679
48.07698
46.74507
45.4479
44.11548
42.8582
41.75013
40.72502
39.59346
38.47791
37.35801
36.31047
35.27449
34.25923
33.22275
32.17408
31.17754
30.17309
29.14675
28.13273
27.13476
26.09109
25.1003
24.05649
22.95061
21.90864
20.87548
19.83593
18.7394
17.61542
16.51987
15.40336
14.22319
13.07477
11.90323
10.65193
9.409251
8.162294
6.905541
5.541996
4.100788
2.680756
1.29947
-0.1893311
-1.742907
-3.325334
-5.014067
-6.763582
-8.581434
-10.47941
-12.32453
-14.41449
-16.59211
-18.86782
-21.35332
-23.83561
-26.66981
-29.68511
-32.90481
-36.35051
-40.28562
-44.70597
-49.65776
-55.27894
-61.87093
-69.92397
-79.75438
-94.006
-108.6999
49.91695
49.94374
49.23064
48.17681
46.95693
45.74332
44.36012
43.05101
41.96668
40.98949
39.85358
38.68922
37.51567
36.48224
35.4712
34.42722
33.34703
32.27801
31.31201
30.30461
29.25727
28.25031
27.25906
26.17819
25.26039
24.16772
23.02667
22.00215
20.93456
19.92665
18.81709
17.72664
16.64862
15.48767
14.24269
13.10028
11.9391
10.69438
9.479575
8.217397
6.910114
5.548001
4.156194
2.721498
1.304178
-0.1614671
-1.71685
-3.347757
-5.033302
-6.761136
-8.53912
-10.46239
-12.33301
-14.50151
-16.63416
-18.87086
-21.45129
-23.87728
-26.80741
-29.74109
-32.97709
-36.54221
-40.49726
-44.93366
-49.89412
-55.56511
-62.25144
-70.33057
-80.18534
-93.56679
-108.0031
-80.14337
-68.746
-57.94099
-50.00236
-43.8587
-38.21998
-33.67871
-29.64847
-26.06648
-22.79246
-19.80505
-17.28013
-14.80522
-12.39624
-10.25763
-8.246313
-6.364649
-4.524948
-2.841827
-1.208901
0.2854002
1.785526
3.189824
4.493035
5.847271
7.161231
8.338583
9.53857
10.66196
11.7187
12.77143
13.89883
14.96057
15.83587
16.82631
17.75029
18.72015
19.63111
20.52411
21.39973
22.3111
23.16825
24.01084
24.82376
25.62471
26.45288
27.25266
28.00954
28.79139
29.63074
30.42246
31.1722
31.91482
32.66723
33.49508
34.26227
34.9581
35.75131
36.52427
37.28862
38.09698
38.92887
39.73607
40.67926
41.65499
42.47914
43.3962
44.2353
45.09593
46.14392
47.72622
-24.68335
-45.4361
-64.65912
-82.89737
-100.9338
-119.4778
-137.2282
-152.8842
-161.0174
-163.8684
-160.7856
-150.6216
-131.3578
-106.854
-82.58598
-64.11054
-53.02105
-39.54017
-53.40929
-71.55883
-78.84025
-78.29148
-67.58031
-53.12173
-41.61536
-33.76049
-36.56659
-55.22308
-85.91853
-114.7113
-135.8905
-149.1865
-153.3859
-153.9425
-149.7645
-139.5332
-130.852
-118.3386
-109.3461
-103.6125
-100.2054
-96.82225
-95.86512
-96.25291
-96.20301
-99.79906
-103.9707
-102.9926
-101.0266
-103.4784
-128.3011
-125.079
-125.0901
-133.2288
-140.9556
-145.8015
-150.8725
-157.0124
-163.576
-169.2579
-173.7621
-177.1359
-178.1068
-178.0654
-176.2648
-173.0227
-168.5944
-163.4393
-157.5741
-151.1773
-144.6254
-137.6671
-130.7711
-124.1109
-117.3766
-111.072
-105.5065
-100.0051
-95.04041
-90.45043
-86.21778
-82.42219
-79.15642
-76.30038
-73.64769
-71.20208
-68.83683
-66.50672
-64.35221
-62.18404
-60.04368
-57.93248
-55.99509
-53.89019
-51.9
-49.97736
-48.03882
-46.40671
-44.57793
-42.93624
-41.43385
-40.13121
-38.8315
-37.50754
-35.78754
-33.70496
-31.60727
-29.90926
-31.40912
-36.74071
-35.86045
-29.63926
-25.02878
-22.93237
-20.99097
-18.52793
-15.88516
-13.39345
-10.91081
-8.259374
-5.358824
-3.266279
-7.833861
-16.34279
-22.89191
-24.4837
-20.39689
-15.11339
-11.43844
-7.434525
-4.403336
-3.020328
-2.780684
-2.814685
-3.044143
-3.175002
-3.581313
-4.240566
-5.067459
-4.778283
-3.480372
-1.266205
1.034859
2.12949
1.659271
-1.703936
-6.053913
-8.870858
-10.86746
-13.18841
-136.1028
-138.2568
-137.408
-139.7757
-147.4547
-140.3385
-132.3123
-131.7829
-131.4215
-131.2286
-131.2202
-131.6085
-132.0397
-132.4828
-133.1608
-133.9998
-134.4269
-134.3949
-133.7369
-133.183
-135.4569
-140.2325
-140.1698
-137.2695
-135.1879
-141.4601
-148.8013
-154.7816
-160.0101
-162.2403
-160.7021
-155.9102
-147.2283
-135.562
-125.6385
-118.6044
-111.2143
-104.0034
-99.02452
-94.89772
-92.2608
-91.53374
-90.61534
-89.39614
-87.27718
-85.3526
-86.68942
-89.26109
-97.53625
-105.7015
-0.3350334
-0.07842539
3.910756
3.637832
-6.857544
-2.085159
2.638501
3.110197
1.760459
-34.75917
-14.97069
-17.54919
-0.1211484
6.476974
5.700472
3.444196
6.248359
-0.3598503
3.543056
-20.02528
2.870282
3.565384
-7.449418
3.368557
-0.9580668
3.880557
3.329012
2.734722
3.383131
-1.526741
2.208809
-0.4395216
17.16007
-1.473505
4.123785
-7.006566
-16.99007
4.932689
-6.269827
4.069784
5.13317
-0.1015522
-5.625377
-6.51814
1.861014
-53.3404
-1.354248
-0.1183521
-0.3070827
5.464422
0.9048309
-2.98439
0.5937564
-8.402536
4.014565
-20.76281
0.946322
1.651616
-0.9226985
-0.08636817
-15.80537
3.400395
-2.189474
-5.881646
5.71307
-11.82746
-1.745652
-18.26452
2.178688
1.410924
-23.63404
-3.852576
4.381224
2.413664
2.992611
3.244192
2.561855
2.435534
-0.5037647
3.603616
-5.405025
2.436042
-17.0118
-2.087656
-51.04044
-10.28937
6.061494
-7.825182
-1.526314
0.2907682
4.583417
5.015281
3.875812
2.842859
-9.700661
0.8580024
3.836617
3.680647
-75.70988
-4.98579
-3.664263
-34.47606
6.939
-48.77217
1.322027
3.55805
-2.238796
4.114206
4.267688
3.180991
-18.48386
-87.42533
-3.506886
1.695117
5.288861
1.889486
-1.99806
-19.1038
9.143271
2.528738
-0.382668
2.993375
-1.647423
-1.159642
3.339601
-1.417428
-0.2389212
13.20016
-22.54561
-4.143754
8.775083
5.524779
3.613623
3.953647
4.555006
-5.5469
0.8032452
-79.45875
0.7984492
4.928976
3.644391
5.637266
3.593994
0.1376588
-1.764797
-5.038311
4.099226
-0.4666809
-2.643215
-14.42645
-63.82484
-60.91693
-1.457126
3.424762
8.203618
3.202063
-6.461959
8.639007
0.244414
1.532605
-2.174626
3.403981
0.7969444
-3.137923
5.263712
-4.554218
-0.002152974
4.556988
-1.529198
2.080713
-13.52754
-25.16014
-3.331553
1.468329
-1.16563
0.154868
-0.8506153
0.9256726
-2.264783
-36.02805
-4.918741
3.794508
1.790984
2.440637
0.1280285
2.008783
4.280253
4.099522
4.709574
-2.74977
0.7673442
-20.3816
2.652636
3.644589
-14.55416
-0.2855335
0.3377911
-2.30315
6.46217
-0.1625982
-25.6437
0.9630497
0.2461775
7.564936
0.6404433
2.382978
1.554852
6.47791
-0.5922028
1.3957
2.556287
1.078466
4.636778
4.03698
-1.25427
-11.89587
1.040903
-2.041713
2.986516
-26.88227
3.706748
0.7059658
3.37012
-17.59016
17.36344
-35.86936
2.901582
-14.82936
0.3511372
0.5971551
-16.63482
1.571242
3.084354
4.052356
-171.1483
-25.92415
3.164193
3.406685
-221.8797
-3.485534
1.43664
-33.7113
-2.753842
-1.532681
-29.97696
1.608394
3.322266
0.8722043
2.002001
3.394499
3.39192
-95.21251
5.868658
0.9173079
0.2056725
4.905078
-0.9958626
2.924551
0.587916
0.8517569
2.779249
-11.24671
2.619233
-10.38954
4.310123
2.130253
3.931524
-21.49677
3.455159
1.709829
6.039283
6.848344
-1.909117
-0.7045446
5.305885
-102.5111
4.038193
3.677711
-1.738467
-56.13703
0.753312
-7.762075
-19.68797
-1.040655
5.193934
-12.83918
0.9839099
4.375978
4.720627
2.117852
-185.7891
5.707937
-192.2217
3.750578