/*--------------------------------*- C++ -*----------------------------------*\
| =========                 |                                                 |
| \\      /  F ield         | OpenFOAM: The Open Source CFD Toolbox           |
|  \\    /   O peration     | Version:  2406                                  |
|   \\  /    A nd           | Website:  www.openfoam.com                      |
|    \\/     M anipulation  |                                                 |
\*---------------------------------------------------------------------------*/
FoamFile
{
    version     2.0;
    format      ascii;
    arch        "LSB;label=32;scalar=64";
    class       surfaceScalarField;
    location    "2.3";
    object      phi;
}
// * * * * * * * * * * * * * * * * * * * * * * * * * * * * * * * * * * * * * //

dimensions      [0 3 -1 0 0 0 0];

oriented        oriented;

internalField   nonuniform List<scalar> 
326221
(
-0.002590405
-0.006543486
0.009133891
-0.001929614
-0.0006607908
0.001277175
-0.003206789
0.001363372
-8.61969e-05
-0.0006857243
0.002049096
-0.001061507
0.0003757826
-0.0005365626
-0.0005249443
-0.0004674853
-6.907728e-05
-0.0002694558
-0.0001980296
-7.802534e-05
-0.0001914304
0.0001171943
-0.0001952197
0.0002307509
-0.0001135566
0.0002309013
-1.50395e-07
0.0001487682
8.213306e-05
-3.446685e-05
0.0001832351
-0.0002508253
0.0002163584
-0.0003508264
0.0001000011
-0.0002635513
-8.727507e-05
8.380617e-05
-0.0003473575
0.0007363679
-0.0006525617
0.001474765
-0.0007383969
0.001287802
0.0001869629
0.0002587801
0.001029022
-0.0002361879
0.000494968
0.0007088702
-0.0009450582
0.001305186
-0.000596316
0.0005347636
0.0007704226
-0.0008466526
0.001381416
-0.001923743
0.001077091
-0.002463483
0.0005397399
-0.002702975
0.0002394923
-0.002727541
2.456534e-05
-0.002548595
-0.0001789458
-0.002236885
-0.00031171
-0.001961913
-0.0002749721
-0.001736161
-0.000225752
-0.001471804
-0.0002643571
-0.001006417
-0.0004653869
-0.0004630282
-0.0005433886
0.0002830887
-0.0007461169
0.0009446605
-0.0006615718
0.001289414
-0.0003447539
0.001310998
-2.158392e-05
0.001314832
-3.833758e-06
0.001530534
-0.0002157024
0.002045012
-0.0005144773
0.002634139
-0.000589127
0.003352688
-0.0007185489
0.003865211
-0.0005125232
0.003999116
-0.0001339051
-0.002270054
0.00626917
-0.0002008508
-0.002069203
0.002253209
-0.00245406
0.002353539
-0.0001003301
0.001753561
0.0005999782
0.001019264
0.0007342971
-4.380858e-05
0.001063073
-0.001089569
0.001045761
-0.001964241
0.0008746721
-0.00263847
0.000674229
-0.003144401
0.0005059303
-0.003512404
0.0003680033
-0.003757825
0.0002454206
-0.003904498
0.0001466732
-0.003941151
3.66532e-05
-0.003897746
-4.340477e-05
-0.003809664
-8.808203e-05
-0.003690909
-0.0001187551
-0.003548445
-0.0001424647
-0.003396727
-0.0001517173
-0.003241254
-0.0001554736
-0.003080866
-0.0001603878
-0.002924044
-0.0001568223
-0.002749019
-0.0001750242
-0.002531931
-0.0002170883
-0.002300377
-0.000231554
-0.002093015
-0.0002073615
-0.001911186
-0.0001818295
-0.001744818
-0.0001663676
-0.001563386
-0.0001814323
-0.001383573
-0.0001798127
-0.001222992
-0.0001605814
-0.001089255
-0.0001337365
-0.0009275984
-0.0001616569
-0.0008018489
-0.0001257495
-0.000703271
-9.857786e-05
-0.0005705837
-0.0001326873
-0.0005198298
-5.07539e-05
-0.0003502448
-0.0001695851
-0.000277096
-7.314879e-05
-0.0001966189
-8.047713e-05
-6.900655e-05
-0.0001276123
2.327111e-05
-9.227765e-05
8.243364e-05
-5.916253e-05
0.0001326945
-5.026091e-05
0.0001510532
-1.835864e-05
0.000165513
-1.445985e-05
9.362135e-05
7.18917e-05
-6.796447e-05
0.0001615858
-0.0002915849
0.0002236205
-0.0005233137
0.0002317287
-0.0007325388
0.0002092251
-0.0009055217
0.0001729829
-0.001011684
0.000106162
-0.0009440519
-6.76318e-05
-0.0006839455
-0.0002601064
-6.861453e-05
-0.0006153309
0.0004818952
-0.0005505097
-0.0002557495
0.0007376447
-0.001846171
0.001590421
-0.002369545
0.0005233741
-0.001936955
-0.0004325898
-0.001684158
-0.000252797
-0.001719386
3.522794e-05
-0.001705686
-1.369994e-05
-0.001520245
-0.0001854409
-0.001282145
-0.0002381
-0.001039403
-0.0002427428
-0.0007722839
-0.0002671186
-0.0003392747
-0.0004330092
0.0004405013
-0.000779776
0.001132475
-0.0006919738
0.0007349621
0.000397513
-0.000450353
0.001185315
-0.001598391
0.001148038
-0.002086919
0.0004885282
-0.001904051
-0.0001828674
-0.001452448
-0.0004516039
-0.001188651
-0.0002637967
-0.0008215386
-0.0003671122
-0.0003925133
-0.0004290253
-7.554857e-05
-0.0003169647
-4.55784e-05
-2.997017e-05
-0.0001830463
0.0001374679
-0.0002069376
2.389127e-05
-0.0001081975
-9.874009e-05
-7.28132e-05
-3.53843e-05
-3.798723e-06
-6.901447e-05
-7.014901e-05
6.635029e-05
-0.000319505
0.000249356
-0.0006098693
0.0002903642
-0.0007710344
0.0001611652
-0.0005718415
-0.0001991929
-5.072534e-05
-0.0005211162
0.0006429765
-0.0006937018
0.00136479
-0.0007218132
0.001695184
-0.0003303939
0.001463593
0.0002315904
0.001612387
-0.0001487938
0.003142611
-0.001530224
0.001715157
0.001427454
0.003020367
-0.00130521
0.00400519
-0.0009848229
0.004786065
-0.000780875
0.005410379
-0.0006243141
0.005853493
-0.0004431136
0.00615548
-0.0003019878
0.006267836
-0.0001123557
0.006173302
9.453455e-05
0.005795335
0.0003779665
0.004967794
0.0008275413
0.003416707
0.001551087
0.0008552333
0.002561473
-0.001796196
0.00265143
-0.002891286
0.00109509
-0.002630883
-0.0002604036
-0.001757603
-0.0008732797
-0.000277424
-0.001480179
0.000595097
-0.000872521
0.0007410308
-0.0001459338
1.82651e-05
0.0007227657
-0.001288489
0.001306754
-0.002736811
0.001448322
-0.003731359
0.0009945482
-0.00304642
-0.0006849391
-0.001157867
-0.001888553
0.0008170732
-0.00197494
0.002499899
-0.001682826
0.003765818
-0.001265919
0.004550712
-0.0007848941
0.004883043
-0.0003323302
0.00482689
5.615272e-05
0.004564112
0.0002627782
0.003947554
0.0006165574
0.002449283
0.001498271
0.0003224494
0.002126834
-0.001208048
0.001530497
-0.001505191
0.0002971433
-0.001555272
5.008108e-05
-0.00167932
0.0001240481
-0.001322393
-0.0003569276
-0.0006281668
-0.0006942259
-0.0002279788
-0.000400188
-0.0001958611
-3.211772e-05
0.0003422259
-0.000538087
0.0009876169
-0.000645391
5.051712e-05
0.0009370998
0.001407465
-0.001356948
0.002374288
-0.000966823
-0.005819163
0.008193451
-0.006039698
0.0002205351
-0.005209625
-0.0008300731
-0.004884678
-0.0003249467
-0.004557962
-0.0003267159
-0.004311747
-0.0002462151
-0.004086637
-0.0002251097
-0.003891267
-0.0001953702
-0.003627815
-0.0002634522
-0.003491967
-0.0001358475
-0.003375394
-0.0001165734
-0.003267827
-0.0001075674
-0.003171731
-9.609544e-05
-0.003078507
-9.322463e-05
-0.002989708
-8.879809e-05
-0.002905087
-8.462109e-05
-0.002828886
-7.620162e-05
-0.002758237
-7.064898e-05
-0.002690234
-6.800303e-05
-0.00262321
-6.702363e-05
-0.002560736
-6.247441e-05
-0.00250034
-6.039576e-05
-0.00244337
-5.696978e-05
-0.002391771
-5.159925e-05
-0.002339275
-5.249615e-05
-0.002286729
-5.254567e-05
-0.002233637
-5.309256e-05
-0.002184142
-4.94943e-05
-0.002138759
-4.538375e-05
-0.002097041
-4.171753e-05
-0.002053851
-4.318964e-05
-0.002011146
-4.270499e-05
-0.001965946
-4.520062e-05
-0.001925738
-4.020787e-05
-0.001888444
-3.729372e-05
-0.001849542
-3.890206e-05
-0.001810335
-3.920734e-05
-0.00177006
-4.027479e-05
-0.001732795
-3.726495e-05
-0.001696547
-3.624835e-05
-0.001718884
2.233713e-05
-0.001692826
-2.60578e-05
-0.001664313
-2.851343e-05
-0.001635173
-2.913969e-05
-0.00160871
-2.646249e-05
-0.001580995
-2.771527e-05
-0.001554858
-2.613751e-05
-0.001529576
-2.528183e-05
-0.001504846
-2.472979e-05
-0.001476479
-2.836679e-05
-0.001447458
-2.902113e-05
-0.001420972
-2.648608e-05
-0.00139594
-2.503218e-05
-0.001371442
-2.449817e-05
-0.001339696
-3.174515e-05
-0.001298305
-4.139139e-05
-0.001248342
-4.996327e-05
-0.001188875
-5.946665e-05
-0.001119462
-6.941297e-05
-0.001056582
-6.288009e-05
-0.001011237
-4.534542e-05
-0.0009915192
-1.971747e-05
-0.0009928022
1.283035e-06
-0.0009975925
4.79025e-06
-0.0009774171
-2.017534e-05
-0.0009331056
-4.431157e-05
-0.0008720312
-6.107435e-05
-0.0007745337
-9.749751e-05
-0.0006564889
-0.0001180448
-0.0006231621
-3.332676e-05
-0.00069766
7.449786e-05
-0.0008407049
0.000143045
-4.034084e-05
-0.0008003641
0.0008359652
-0.0008763061
0.001234976
-0.0003990109
0.001381859
-0.0001468832
0.001457362
-7.550298e-05
0.001517273
-5.991095e-05
0.001554356
-3.708242e-05
0.001565896
-1.154059e-05
0.001571643
-5.746743e-06
0.001589094
-1.745115e-05
0.001605384
-1.629023e-05
0.001618534
-1.315015e-05
0.001624944
-6.409358e-06
0.001631291
-6.347401e-06
0.001638912
-7.621178e-06
0.001651944
-1.303195e-05
0.001665801
-1.385694e-05
0.001677329
-1.15276e-05
0.001690812
-1.348276e-05
0.001708669
-1.78571e-05
0.001725749
-1.708008e-05
0.001742302
-1.655284e-05
0.001762551
-2.024975e-05
0.001780051
-1.749929e-05
0.001802786
-2.273518e-05
0.001829788
-2.700188e-05
0.001851378
-2.158999e-05
0.001869425
-1.804688e-05
0.001889847
-2.042269e-05
0.001913164
-2.33164e-05
0.001929835
-1.667115e-05
0.001897282
3.255285e-05
0.001925899
-2.861713e-05
0.001962305
-3.640541e-05
0.001999388
-3.708308e-05
0.002037255
-3.786704e-05
0.002078086
-4.083093e-05
0.002117076
-3.899017e-05
0.002153136
-3.60603e-05
0.002192095
-3.895842e-05
0.002236394
-4.429943e-05
0.002284753
-4.835885e-05
0.002327248
-4.249513e-05
0.002368062
-4.081419e-05
0.002412374
-4.431231e-05
0.002460149
-4.777436e-05
0.002509091
-4.894265e-05
0.002563914
-5.48223e-05
0.002621168
-5.72538e-05
0.002679011
-5.7843e-05
0.002738775
-5.976425e-05
0.002795269
-5.649462e-05
0.002862467
-6.719722e-05
0.002933415
-7.094849e-05
0.003007689
-7.427408e-05
0.003087654
-7.996517e-05
0.003170388
-8.273335e-05
0.003262549
-9.216168e-05
0.003363947
-0.0001013977
0.003468519
-0.000104572
0.00358229
-0.000113771
0.003712785
-0.0001304952
0.003864568
-0.0001517826
0.004146628
-0.0002820597
0.004364409
-0.0002177809
0.004614063
-0.0002496545
0.004895496
-0.0002814331
0.00526774
-0.0003722435
0.005623318
-0.000355578
0.006634897
-0.001011579
9.141063e-05
6.512423e-05
0.0008151751
-0.001680663
0.0009585691
-0.001769751
0.001499493
-0.0009399348
0.001798103
-0.0004454927
0.002003198
-0.0002805982
0.002182273
-0.0002389863
0.002332471
-0.0001872798
0.002451106
-0.0001301763
0.0025528
-0.0001074402
0.002655452
-0.0001201039
0.002750144
-0.0001109822
0.002838577
-0.0001015825
0.00291697
-8.480256e-05
0.002991252
-8.062957e-05
0.003060703
-7.707198e-05
0.003130731
-8.305977e-05
0.003198096
-8.122173e-05
0.00326172
-7.515253e-05
0.003323701
-7.546307e-05
0.003387255
-8.141158e-05
0.003449086
-7.891087e-05
0.003509282
-7.674883e-05
0.003572036
-8.300342e-05
0.00363154
-7.700372e-05
0.00369454
-8.573472e-05
0.003759908
-9.237036e-05
0.003822796
-8.447767e-05
0.003881868
-7.711939e-05
0.003942992
-8.154668e-05
0.00400431
-8.463379e-05
0.00406434
-7.670173e-05
0.004037539
5.935415e-05
0.004107917
-9.89956e-05
0.004181892
-0.0001103798
0.004255868
-0.0001110591
0.004330166
-0.0001121649
0.004405888
-0.0001165534
0.004481112
-0.0001142136
0.004553224
-0.0001081727
0.004628011
-0.0001137452
0.004704693
-0.0001209819
0.004786161
-0.0001298266
0.004862575
-0.0001189089
0.00493927
-0.000117509
0.005017274
-0.0001223169
0.005098554
-0.0001290548
0.005180115
-0.000130503
0.005266593
-0.0001413001
0.005355536
-0.0001461976
0.005445209
-0.0001475155
0.005538017
-0.0001525722
0.005627645
-0.0001461227
0.005726848
-0.0001664003
0.005827599
-0.0001716991
0.005933308
-0.0001799834
0.006042457
-0.000189114
0.006155928
-0.0001962046
0.006276065
-0.0002122985
0.006405349
-0.0002306817
0.006537367
-0.0002365899
0.006678585
-0.0002549894
0.006833913
-0.0002858229
0.007008297
-0.0003261669
0.007375828
-0.0006495901
0.007613079
-0.0004550319
0.007888417
-0.0005249927
0.008192587
-0.0005856031
0.008595654
-0.0007753109
0.008967457
-0.0007273805
0.01002422
-0.002068347
0.00949634
0.000619295
-0.009494673
0.008710655
0.001004553
-0.008564872
-0.001759875
-0.008240516
-0.0006493024
-0.007878376
-0.0006888561
-0.007605508
-0.0005190827
-0.007350367
-0.0004802508
-0.007130228
-0.0004155093
-0.006776345
-0.0006173347
-0.006612998
-0.0002991948
-0.006467664
-0.0002619074
-0.006329627
-0.000245604
-0.00620221
-0.000223513
-0.006076869
-0.0002185653
-0.005957026
-0.0002086409
-0.005839715
-0.0002019324
-0.00573078
-0.0001851368
-0.005624649
-0.0001767799
-0.005522761
-0.0001698911
-0.005420621
-0.0001691632
-0.005323592
-0.0001595037
-0.005227425
-0.0001565626
-0.005134764
-0.0001496305
-0.005045849
-0.0001405144
-0.004956749
-0.0001415961
-0.004868566
-0.0001407293
-0.004779921
-0.000141737
-0.00469493
-0.0001344853
-0.00461173
-0.0001285845
-0.004532148
-0.0001212988
-0.00444995
-0.0001253876
-0.004369785
-0.0001228705
-0.004286503
-0.0001284821
-0.004207644
-0.0001190671
-0.004129381
-0.0001155568
-0.004050192
-0.0001180909
-0.003970096
-0.0001193034
-0.003889239
-0.0001211317
-0.003810343
-0.000116161
-0.003731715
-0.0001148765
-0.003747997
3.861872e-05
-0.00368106
-9.299478e-05
-0.003613395
-9.61783e-05
-0.003544092
-9.844217e-05
-0.003477265
-9.328977e-05
-0.003407778
-9.72021e-05
-0.003339356
-9.455993e-05
-0.00326945
-9.518782e-05
-0.003198898
-9.528145e-05
-0.003123576
-0.000103689
-0.003046172
-0.0001064249
-0.002967523
-0.0001051354
-0.002885563
-0.0001069924
-0.002798991
-0.0001110696
-0.002700855
-0.0001298818
-0.002591088
-0.000151158
-0.002471632
-0.0001694195
-0.002346091
-0.0001850068
-0.002217268
-0.0001982363
-0.002103179
-0.0001769693
-0.002013277
-0.0001352473
-0.00195487
-7.812426e-05
-0.001920909
-3.267846e-05
-0.001893989
-2.212963e-05
-0.001847596
-6.656788e-05
-0.001786997
-0.0001049109
-0.00172364
-0.0001244312
-0.001647816
-0.000173322
-0.001548185
-0.0002176751
-0.001346315
-0.0002351973
-0.001029853
-0.0002419638
-7.163309e-05
0.001882993
-0.003620872
0.003165332
0.003416138
-0.002838354
0.004711053
-0.002279738
0.005666808
-0.00173663
0.006490298
-0.001447804
0.007148657
-0.001101473
0.007669802
-0.0008231331
0.007995751
-0.0004383042
0.008177249
-8.696382e-05
0.008229886
0.0003253298
0.008047869
0.001009558
0.007314965
0.002283992
0.005042958
0.004833481
0.000303619
0.007390768
-0.003752
0.005150709
-0.004392355
0.0003799518
-0.003185765
-0.002079869
-0.001293907
-0.003372038
-0.0001301883
-0.002036239
0.0001524076
-0.0004285298
-0.0007843375
0.001659511
-0.003307459
0.003829875
-0.005542626
0.003683489
-0.00548218
0.0009341025
-0.00353554
-0.00263158
-0.001298647
-0.004125446
0.0009713634
-0.00424495
0.003097881
-0.003809344
0.004742639
-0.002910677
0.005819856
-0.001862111
0.006351154
-0.0008636277
0.006438608
-3.130166e-05
0.006331675
0.0003697111
0.006181884
0.0007663488
0.005463062
0.002217092
0.003321343
0.004268553
0.0004280714
0.004423769
-0.001470606
0.002195821
-0.002150552
0.0007300272
-0.002052616
2.611203e-05
-0.001429672
-0.0009798718
-0.0006943153
-0.001429582
-0.0002558887
-0.0008386147
-0.0001188616
-0.0001691448
0.0005133379
-0.001170286
0.001514814
-0.001646868
0.001597458
0.0008544563
0.002609963
-0.002369453
0.0008501427
0.0007929971
0.01775425
-0.001675008
-0.004515327
0.01245951
-0.0001433232
-0.003600888
0.002271901
-0.004869285
0.0029271
-0.0007555284
0.001832084
0.001694994
-0.0004499797
0.003016361
-0.002583994
0.003197087
-0.003933071
0.002394837
-0.004735721
0.001677322
-0.005215993
0.001154501
-0.005505002
0.0007949389
-0.00566542
0.0005284211
-0.005722383
0.0003023842
-0.005708475
0.0001327647
-0.00562283
-4.899156e-05
-0.00548792
-0.0001783148
-0.005315604
-0.0002603982
-0.005116108
-0.0003182513
-0.004894024
-0.0003645484
-0.004665085
-0.0003806557
-0.004436285
-0.0003842737
-0.004202118
-0.0003945552
-0.003964261
-0.0003946795
-0.003696713
-0.000442572
-0.003376978
-0.0005368237
-0.003044334
-0.0005641973
-0.002746614
-0.0005050818
-0.002480127
-0.0004483168
-0.002228082
-0.0004184126
-0.001951508
-0.0004580063
-0.001675584
-0.0004557365
-0.001429682
-0.000406483
-0.001226304
-0.0003371151
-0.0009853798
-0.0004025809
-0.0007801414
-0.0003309878
-0.0005999177
-0.0002788015
-0.0003821942
-0.0003504108
-0.0002585854
-0.0001743627
-3.424362e-05
-0.0003939269
0.0001498322
-0.0002572247
0.00029881
-0.0002294548
0.0005196071
-0.0003484095
0.0007030693
-0.0002757399
0.000873593
-0.0002296862
0.001044481
-0.0002211487
0.001193534
-0.0001674122
0.001345577
-0.0001665021
0.001415508
1.960073e-06
0.001362282
0.000214812
0.001161843
0.0004240592
0.000788891
0.0006046811
0.0002834763
0.0007146398
-0.0001304819
0.0005869411
-0.0001400102
0.0001156903
8.963618e-05
-0.0002972782
0.0003340177
-0.0005044879
0.0003995288
-0.000680842
0.0001093357
-0.0002603166
-0.001190836
0.002037816
-0.002732112
0.003131697
-0.002788827
0.0005800888
-0.002257324
-0.000964092
-0.001961072
-0.0005490493
-0.001737394
-0.0001884497
-0.001482906
-0.0002681882
-0.001211833
-0.0004565138
-0.0009517186
-0.0004982147
-0.000712201
-0.0004822603
-0.0004187092
-0.0005606105
1.825829e-05
-0.0008699767
0.0008981272
-0.001659645
0.001703112
-0.001496959
0.0003421169
0.001758508
-0.00179302
0.003320452
-0.002856676
0.002211693
-0.002981796
0.0006136487
-0.002581311
-0.0005833525
-0.002022658
-0.001010257
-0.00167626
-0.0006101954
-0.001219034
-0.0008243378
-0.0007209307
-0.0009271286
-0.0004045813
-0.000633314
-0.0004094709
-2.508063e-05
-0.0004318384
0.0001598355
-0.0002720358
-0.0001359113
-8.46247e-05
-0.0002861512
-3.447311e-05
-8.553588e-05
8.679965e-05
-0.0001902872
-2.239482e-06
0.0001553894
-0.0003785218
0.0006256383
-0.0008085326
0.000720375
-0.001012402
0.0003650344
-0.0005926682
-0.0006189265
0.0001748276
-0.001288612
0.001033306
-0.001552181
0.001853762
-0.001542269
0.002420965
-0.0008975968
0.002613915
3.863992e-05
0.002741708
-0.0002765868
-0.002409387
-0.00075356
0.01938379
-0.002712651
0.0012983
-0.0001156914
-0.005803749
4.351687e-05
-0.0002454052
-0.001664957
0.00375757
-0.001707844
0.0004186702
-0.0009167136
-0.001316075
-0.0008426628
-0.000143128
-0.000543619
-0.0004970735
-0.0002713998
-0.0004636496
4.109567e-06
-0.0004707291
0.0001944092
-0.0003038562
0.0002425631
-4.830425e-05
6.234471e-05
0.0002623514
-0.0003184219
0.0005640017
-0.0005825307
0.0004804673
-0.0005985999
0.0001160702
-0.0004326083
-0.0002532666
3.170344e-05
-0.0008116693
0.0008317636
-0.001452622
0.001829451
-0.001736085
0.002108181
-9.176643e-05
0.001233172
0.001904031
0.0003979908
0.001330149
0.001009611
-0.001556679
0.001218687
-0.0008053916
-0.0004095719
0.002398682
-0.002462823
0.003434667
-0.003341532
0.0019558
-0.003648874
0.0008470814
-0.003726412
0.0003170312
-0.003616973
-8.487419e-05
-0.003316661
-0.0004792573
-0.002871941
-0.0007564306
-0.002469459
-0.0006774539
-0.002132225
-0.0005629864
-0.001756504
-0.0006400781
-0.001148746
-0.001073145
-0.0004355138
-0.001256621
0.0005165203
-0.001698151
0.001456786
-0.001601838
0.002212959
-0.001100926
0.002701151
-0.0005097762
0.003016834
-0.0003195167
0.003339419
-0.0005382872
0.003869628
-0.001044686
0.004484726
-0.001204225
0.005252701
-0.001486524
0.005379503
-0.0006393253
0.0007302713
0.001473649
-0.01183449
0.02974463
-0.002860595
0.005632544
-0.001658828
-0.007005515
-0.001430088
-0.0004741457
-0.002585994
0.004913477
-0.002109883
-5.744117e-05
-0.001216416
-0.002209542
-0.001067674
-0.0002918693
-0.0007232347
-0.0008415132
-0.0003988625
-0.0007880218
-7.011531e-05
-0.0007994762
0.0001409432
-0.0005149147
0.0001658346
-7.319569e-05
-0.000152156
0.000580342
-0.0006185593
0.001030405
-0.000844861
0.0007067689
-0.0008475187
0.000118728
-0.0007021151
-0.0003986703
-0.0001814935
-0.001332291
0.0007866507
-0.002420766
0.001901044
-0.002850478
0.002415606
-0.0006063284
0.002016893
0.002302744
0.001085817
0.002261225
0.0008955081
-0.00136637
2.373058e-05
6.63859e-05
-0.001975401
0.004397813
-0.003579046
0.005038312
-0.004137698
0.002514452
-0.00451352
0.001222903
-0.004656337
0.000459848
-0.004562194
-0.0001790167
-0.004211708
-0.0008297431
-0.00370599
-0.001262149
-0.003261579
-0.001121865
-0.002867569
-0.0009569966
-0.002376074
-0.001131573
-0.001579632
-0.001869587
-0.0006556491
-0.002180603
0.0005232594
-0.002877059
0.001632384
-0.002710963
0.002537798
-0.00200634
0.003224556
-0.001196534
0.00380691
-0.000901871
0.004441941
-0.001173318
0.005325102
-0.001927848
0.006354082
-0.002233206
0.00748278
-0.002615222
0.007702676
-0.0008592214
0.00565592
0.002777028
-0.00112796
0.01924339
-0.0006464911
-0.004082357
0.001826395
-0.007342171
0.002332755
-0.001261888
0.0003482741
0.003679474
-0.002678945
0.00604358
-0.004619065
0.005137207
-0.005596704
0.003372477
-0.00615092
0.002231538
-0.006510752
0.001514333
-0.006761276
0.001045462
-0.006923237
0.0006903821
-0.00698993
0.0003690772
-0.006978239
0.000121074
-0.006878127
-0.0001491032
-0.006707405
-0.0003490366
-0.006489273
-0.0004785309
-0.006238007
-0.0005695171
-0.005958658
-0.0006438975
-0.00566981
-0.0006695035
-0.005382566
-0.0006715172
-0.005091558
-0.000685564
-0.004798127
-0.0006881098
-0.00447054
-0.0007701593
-0.004079085
-0.0009282785
-0.003668086
-0.0009751965
-0.003298023
-0.000875145
-0.002967681
-0.0007786582
-0.002658156
-0.0007279384
-0.002318391
-0.0007977712
-0.001974129
-0.0007999985
-0.001666719
-0.0007138924
-0.00141584
-0.0005879941
-0.001124126
-0.000694295
-0.0008697846
-0.0005853295
-0.0006469367
-0.0005016494
-0.0003774728
-0.0006198748
-0.0002146944
-0.0003371411
5.693143e-05
-0.0006655527
0.0002807459
-0.0004810391
0.0004689663
-0.0004176753
0.0007381923
-0.0006176354
0.0009722213
-0.0005097688
0.001198836
-0.0004563007
0.001431635
-0.0004539477
0.00164461
-0.0003803876
0.001878449
-0.0004003413
0.002091984
-0.0002115745
0.002285432
2.136442e-05
0.002419932
0.0002895585
0.002420627
0.0006039864
0.002255333
0.0008799338
0.002103651
0.0007386235
0.002108069
0.0001112719
0.002218911
-0.0004081201
0.002276678
-0.0005622554
0.001760926
-0.0001650901
0.0003405783
0.001160031
-0.001446719
0.003825114
-0.002101698
0.003786676
-0.001533193
1.158429e-05
-0.0009586478
-0.001538638
-0.0007156283
-0.0007920688
-0.0004482612
-0.0004558167
-0.000108734
-0.0006077155
0.0001111529
-0.0006764007
0.0003135134
-0.0007005752
0.0003986214
-0.0005673683
0.0005244241
-0.0006864131
0.0007710203
-0.001116573
0.001445486
-0.002334111
0.001732636
-0.001784109
-0.0004840817
0.003975226
-0.002816258
0.005652629
-0.003543529
0.002938964
-0.003625181
0.0006953
-0.003198011
-0.001010522
-0.002606682
-0.001601586
-0.002257911
-0.0009589665
-0.001757262
-0.001324986
-0.001238298
-0.001446093
-0.0008826688
-0.0009889435
-0.0007214595
-0.0001862899
-0.0005316715
-2.99525e-05
-0.0002974246
-0.0003701582
-1.374788e-05
-0.000569828
0.0001171342
-0.0002164179
0.0001679502
-0.0002411033
-9.845218e-05
0.0004217918
-0.0007714561
0.001298642
-0.001380205
0.001329124
-0.00132324
0.0003080701
-0.0005499016
-0.001392265
0.000400444
-0.002238958
0.001506447
-0.002658183
0.002509882
-0.002545704
0.003182273
-0.001569988
0.003573671
-0.0003527585
0.00385731
-0.0005602256
0.004542756
-0.003094833
0.00297835
0.004729739
0.004420119
-0.004280124
0.005937103
-0.003796722
0.007029666
-0.002829193
0.007950069
-0.002368207
0.008685715
-0.001837119
0.009277925
-0.001415343
0.009633809
-0.0007941883
0.009784186
-0.0002373406
0.009744805
0.0003647111
0.009512132
0.001242231
0.009072438
0.002723686
0.008006976
0.005898943
0.003942216
0.01145553
-0.00238884
0.01148176
-0.005558293
0.003549405
-0.004819813
-0.002818349
-0.002676084
-0.005515767
-0.00117323
-0.003539094
-0.0008237087
-0.0007780507
-0.002243768
0.003079571
-0.005524195
0.007110302
-0.007514225
0.005673519
-0.006444389
-0.0001357336
-0.004015017
-0.005060951
-0.001519928
-0.006620535
0.001247501
-0.007012379
0.003841643
-0.006403486
0.005852195
-0.004921229
0.007189376
-0.003199292
0.00785924
-0.001533492
0.007960658
-0.0001327193
0.007776512
0.0005538567
0.007481255
0.001061606
0.007155861
0.002542486
0.006081632
0.005342781
0.003450067
0.007055335
0.0003693347
0.005276553
-0.001532975
0.002632337
-0.00167111
0.0001642476
-0.001046626
-0.001604356
-0.0005040748
-0.001972133
-0.0001333056
-0.001209384
0.0001339334
-0.0004363838
0.0008800188
-0.001916372
0.001994842
-0.002761691
0.00242063
0.0004286679
0.002816508
-0.00276533
-0.001118316
0.004727821
-0.01101964
0.02765558
-0.01179214
0.001777051
-0.01085706
-0.002694962
-0.01044582
-0.001060533
-0.01004233
-0.001092353
-0.009737104
-0.0008243071
-0.009455017
-0.0007623382
-0.009216603
-0.0006539225
-0.008806498
-0.001027441
-0.008627075
-0.0004786171
-0.008465124
-0.0004238592
-0.008310599
-0.0004001288
-0.008167162
-0.0003669493
-0.008025289
-0.0003604387
-0.007889533
-0.0003443965
-0.007755608
-0.0003358581
-0.00763042
-0.0003103243
-0.00750706
-0.0003001399
-0.007388499
-0.0002884528
-0.007268921
-0.0002887408
-0.007154907
-0.0002735183
-0.00704112
-0.0002703495
-0.006930755
-0.000259995
-0.006823965
-0.0002473047
-0.006716811
-0.0002487494
-0.006611038
-0.0002465029
-0.006504485
-0.00024829
-0.006401743
-0.000237227
-0.006299762
-0.0002305657
-0.006201556
-0.000219505
-0.00609963
-0.0002273131
-0.006000564
-0.0002219365
-0.005897316
-0.0002317299
-0.005798617
-0.000217767
-0.005699449
-0.0002147243
-0.005599067
-0.0002184727
-0.0054975
-0.0002208706
-0.005394693
-0.0002239388
-0.005293254
-0.0002176
-0.005190478
-0.000217652
-0.005212035
6.017543e-05
-0.00512209
-0.0001829404
-0.005035336
-0.0001829322
-0.00494613
-0.000187648
-0.004860057
-0.0001793627
-0.00477043
-0.0001868292
-0.004682238
-0.0001827518
-0.004591858
-0.0001855683
-0.00450098
-0.0001861591
-0.004404871
-0.0001997983
-0.004307047
-0.0002042482
-0.004208281
-0.0002039022
-0.004106211
-0.0002090623
-0.004000218
-0.0002170622
-0.003883299
-0.0002468007
-0.003756618
-0.0002778395
-0.003622518
-0.0003035192
-0.00348583
-0.0003216946
-0.003350153
-0.0003339132
-0.003237893
-0.0002892301
-0.003158447
-0.0002146929
-0.003112133
-0.0001244382
-0.00307627
-6.854204e-05
-0.003019964
-7.843479e-05
-0.002917323
-0.0001692092
-0.002783651
-0.0002385828
-0.002636463
-0.0002716188
-0.002466411
-0.000343374
-0.002265642
-0.0004184448
-0.001966316
-0.0005345233
-0.001556552
-0.0006517278
-0.001019053
-0.0006091321
0.0001695241
-0.00286924
0.001127844
-0.002728071
0.001755288
-0.001567379
0.002130332
-0.0008205365
0.002383444
-0.0005337097
0.002604968
-0.0004605105
0.002796151
-0.0003784627
0.002951418
-0.0002854435
0.003086579
-0.0002426016
0.003225798
-0.0002593225
0.003356652
-0.0002418358
0.003482373
-0.0002273036
0.003596488
-0.0001989181
0.003706777
-0.0001909188
0.003811492
-0.0001817861
0.003917272
-0.00018884
0.004020127
-0.0001840774
0.004118112
-0.0001731368
0.004213668
-0.0001710189
0.004310364
-0.0001781082
0.004404481
-0.0001730279
0.004495658
-0.000167926
0.004589418
-0.0001767636
0.004677867
-0.0001654524
0.00476924
-0.0001771079
0.004862464
-0.0001855939
0.00495272
-0.000174734
0.005038345
-0.0001627444
0.005125795
-0.0001689962
0.005211957
-0.0001707962
0.005303293
-0.0001680379
0.005285987
7.666073e-05
0.005384922
-0.0001979306
0.005484933
-0.0002103911
0.005583073
-0.0002091989
0.005680839
-0.0002099315
0.005779567
-0.0002152807
0.005877861
-0.0002125076
0.005972439
-0.0002027509
0.006069512
-0.0002108183
0.006167188
-0.0002186576
0.006270252
-0.0002328911
0.006367715
-0.0002163716
0.006465876
-0.0002156703
0.006564703
-0.0002211435
0.006666744
-0.000231096
0.006768314
-0.0002320732
0.006874764
-0.0002477493
0.006983456
-0.0002548898
0.007092619
-0.0002566786
0.007205689
-0.0002656428
0.007314416
-0.0002548492
0.007433447
-0.0002854318
0.007552796
-0.000291048
0.007677546
-0.0003047331
0.007805412
-0.0003169799
0.007937506
-0.0003282985
0.008076079
-0.0003508717
0.008224095
-0.0003786981
0.00837466
-0.0003871543
0.00853467
-0.0004149997
0.008709897
-0.0004610497
0.008902756
-0.0005190263
0.009324843
-0.001071677
0.009583595
-0.0007137839
0.009889833
-0.0008312308
0.01023404
-0.0009298061
0.01068935
-0.00123063
0.01117499
-0.001213018
0.01223674
-0.0031301
0.001021548
0.0001838066
0.001086604
-0.004139651
0.001211053
-0.003755318
0.001900269
-0.002256595
0.002346918
-0.001267186
0.002661611
-0.0008484032
0.002941497
-0.0007403963
0.003186905
-0.0006238701
0.003390005
-0.000488544
0.003567817
-0.0004204137
0.003749469
-0.000440974
0.003920628
-0.0004129956
0.00408582
-0.0003924947
0.004237236
-0.0003503349
0.004383249
-0.0003369317
0.004522203
-0.0003207399
0.004661071
-0.0003277075
0.004796129
-0.0003191356
0.004923854
-0.0003008621
0.00504806
-0.0002952253
0.00517215
-0.0003021977
0.005292276
-0.0002931539
0.005407902
-0.0002835517
0.005525965
-0.0002948266
0.005636503
-0.0002759908
0.005749989
-0.0002905933
0.005865339
-0.0003009444
0.005976163
-0.0002855574
0.006081972
-0.0002685541
0.006189219
-0.0002762427
0.006294841
-0.0002764187
0.006407128
-0.0002803248
0.006391125
9.266344e-05
0.006509487
-0.0003162927
0.006631882
-0.0003327857
0.006750533
-0.0003278498
0.006868867
-0.0003282656
0.006988488
-0.0003349015
0.007107241
-0.0003312607
0.007221757
-0.0003172668
0.007338965
-0.000328026
0.007457005
-0.0003366979
0.007581282
-0.000357168
0.007698839
-0.000333929
0.007817216
-0.0003340467
0.007936641
-0.0003405691
0.00805944
-0.0003538944
0.008181658
-0.0003542917
0.008309862
-0.000375953
0.008440374
-0.0003854015
0.00857158
-0.0003878853
0.008707557
-0.0004016191
0.008837727
-0.0003850193
0.008981078
-0.0004287832
0.009123815
-0.0004337854
0.00927287
-0.0004537877
0.009426101
-0.000470211
0.009583174
-0.0004853714
0.009749014
-0.000516712
0.009925143
-0.0005548269
0.01010414
-0.0005661479
0.01029445
-0.0006053089
0.01050309
-0.0006696963
0.01095719
-0.0009731213
0.01123763
-0.001352115
0.01154397
-0.001020128
0.01191
-0.001197263
0.01233311
-0.001352912
0.01287867
-0.001776191
0.01355091
-0.001885261
0.01456409
-0.004143273
0.01452394
0.001061699
-0.01416139
0.01362398
0.002314464
-0.01328624
-0.003570107
-0.01273001
-0.00161677
-0.01225737
-0.001564994
-0.01189269
-0.001188982
-0.01156275
-0.001092276
-0.01128822
-0.0009284528
-0.01102859
-0.001287069
-0.01059466
-0.0009125511
-0.01040821
-0.0006103031
-0.01023036
-0.0005779854
-0.01006562
-0.0005316881
-0.009902496
-0.0005235618
-0.009746366
-0.0005005265
-0.009592262
-0.0004899625
-0.009447909
-0.000454677
-0.009305792
-0.0004422575
-0.009169122
-0.0004251223
-0.009031083