/*--------------------------------*- C++ -*----------------------------------*\
| =========                 |                                                 |
| \\      /  F ield         | OpenFOAM: The Open Source CFD Toolbox           |
|  \\    /   O peration     | Version:  2406                                  |
|   \\  /    A nd           | Website:  www.openfoam.com                      |
|    \\/     M anipulation  |                                                 |
\*---------------------------------------------------------------------------*/
FoamFile
{
    version     2.0;
    format      ascii;
    arch        "LSB;label=32;scalar=64";
    class       volVectorField;
    location    "0.54";
    object      U;
}
// * * * * * * * * * * * * * * * * * * * * * * * * * * * * * * * * * * * * * //

dimensions      [0 1 -1 0 0 0 0];

internalField   nonuniform List<vector> 
4531
(
(3.256557e-05 6.575161e-07 0)
(1.223632e-05 -1.197562e-07 1.113395e-28)
(1.546515e-05 2.259752e-08 0)
(1.239064e-05 1.409235e-08 0)
(1.25163e-05 -6.490776e-09 0)
(1.184628e-05 1.682867e-08 0)
(1.115064e-05 -7.011391e-09 0)
(1.137263e-05 6.765818e-09 -1.683864e-28)
(1.050376e-05 8.098407e-09 0)
(1.034722e-05 -4.077974e-09 0)
(1.038396e-05 5.590585e-09 -1.129697e-27)
(1.0076e-05 3.904754e-10 2.1257e-27)
(9.620252e-06 9.070823e-09 1.773156e-27)
(9.6999e-06 -3.687447e-09 -1.779772e-27)
(1.013718e-05 8.787695e-10 0)
(9.944937e-06 1.438348e-09 0)
(9.844982e-06 2.355761e-09 0)
(9.74013e-06 4.694527e-09 0)
(1.030359e-05 -1.009427e-08 0)
(1.034911e-05 1.273632e-08 0)
(1.057564e-05 -3.393217e-09 1.203516e-30)
(1.070851e-05 3.465777e-08 0)
(1.300609e-05 -1.266789e-07 -6.406965e-27)
(6.691731e-06 6.939912e-07 7.50556e-27)
(2.516161e-05 -1.062013e-06 0)
(9.478317e-07 -1.546479e-05 -1.046969e-24)
(-8.088924e-07 4.392315e-06 -4.21004e-27)
(8.229549e-08 -2.573145e-06 8.919236e-26)
(-5.192075e-08 -6.801825e-07 -9.084861e-26)
(-1.76217e-08 -7.526149e-07 -3.678725e-26)
(-1.248143e-08 -5.351778e-07 7.157475e-26)
(-8.211219e-09 -3.797405e-07 -3.478547e-26)
(-8.775286e-09 -1.787924e-07 0)
(-8.102183e-09 -1.858163e-07 -3.01824e-26)
(-1.898946e-09 -1.886701e-07 3.01873e-26)
(-3.806153e-09 -7.61454e-08 0)
(-2.577148e-09 -6.816854e-08 0)
(-2.126136e-09 -5.456348e-08 -1.360446e-26)
(-1.019405e-09 -2.321322e-08 1.360564e-26)
(-1.460583e-09 2.787716e-09 0)
(-9.306467e-10 -1.224597e-09 1.292514e-26)
(-6.406147e-10 5.796516e-09 -2.556233e-26)
(-4.925636e-10 5.35639e-09 3.129227e-27)
(-1.944198e-10 1.489234e-08 3.088606e-27)
(-1.897938e-10 2.85938e-08 -1.602665e-27)
(-3.071637e-10 2.455667e-08 -7.719673e-27)
(5.648637e-11 2.674065e-08 3.848441e-27)
(-2.384597e-10 3.053613e-08 -2.291549e-27)
(-1.156181e-10 1.847051e-08 1.146579e-27)
(-1.677257e-10 1.088428e-08 3.844914e-28)
(-1.448313e-10 6.622157e-10 -2.291187e-27)
(-1.881289e-10 -1.005393e-08 7.627376e-28)
(-1.60961e-10 -1.520304e-08 -3.074526e-27)
(-2.865707e-10 -2.307195e-08 3.068908e-27)
(-2.135405e-10 -2.326876e-08 4.662175e-27)
(-6.067975e-10 -2.93965e-08 -6.189428e-27)
(-2.835179e-10 -2.961734e-08 -6.301448e-27)
(-5.482993e-10 -5.015466e-09 6.336771e-27)
(-1.208411e-09 -1.62317e-08 0)
(-6.554668e-10 1.25903e-08 0)
(-1.861291e-09 2.641057e-08 -1.358446e-26)
(-2.405601e-09 9.505233e-09 1.358328e-26)
(-3.383153e-09 5.301029e-09 0)
(-2.978637e-09 3.343508e-08 0)
(-4.824648e-09 7.702338e-08 -3.050122e-26)
(-4.602522e-09 1.479064e-07 3.049626e-26)
(-9.989725e-09 1.727143e-07 0)
(-5.984537e-09 3.623355e-07 3.480238e-26)
(-1.75089e-08 4.456993e-07 -3.479349e-26)
(-8.042902e-09 7.803717e-07 0)
(-6.899112e-08 5.172152e-07 -9.191876e-26)
(1.096208e-07 2.675029e-06 9.345887e-26)
(-8.297147e-07 -4.360841e-06 -1.915947e-25)
(9.380422e-07 1.495952e-05 1.225574e-24)
(2.554115e-05 1.07354e-06 6.071975e-25)
(7.027461e-06 -6.891807e-07 6.924043e-27)
(1.293986e-05 1.33806e-07 -2.237992e-27)
(1.073345e-05 -4.093049e-08 -2.619787e-27)
(1.056893e-05 9.568309e-09 4.246252e-31)
(1.003663e-05 -1.339189e-08 0)
(1.00895e-05 4.435113e-09 0)
(9.989727e-06 -7.126735e-09 0)
(9.859919e-06 5.996978e-09 -2.781669e-27)
(9.489948e-06 -8.252201e-09 6.278608e-27)
(9.949974e-06 -1.030692e-09 -3.49695e-27)
(9.724575e-06 -1.993026e-09 0)
(9.992113e-06 -6.239694e-09 0)
(1.020873e-05 4.180155e-09 8.214282e-28)
(1.029847e-05 -5.813156e-09 0)
(1.044993e-05 1.602344e-09 3.111189e-28)
(1.075126e-05 -1.034654e-08 -3.113458e-28)
(1.129347e-05 -1.083273e-09 -1.469661e-28)
(1.172112e-05 -7.427533e-09 2.069946e-27)
(1.18434e-05 6.886559e-09 2.269887e-27)
(1.184433e-05 -3.677663e-09 -6.61425e-27)
(1.262841e-05 -1.113581e-08 3.610033e-27)
(1.597793e-05 -4.334828e-08 -6.46645e-27)
(1.277355e-05 1.41766e-07 2.621615e-26)
(3.131153e-05 -6.3819e-07 1.247699e-25)
(2.340441e-05 -2.25009e-05 0)
(8.626196e-06 -8.793622e-06 2.612207e-24)
(1.069604e-05 -1.065062e-05 -4.202933e-24)
(8.915562e-06 -8.924001e-06 2.589694e-26)
(8.488974e-06 -8.473575e-06 -3.369797e-24)
(7.939767e-06 -7.934881e-06 3.169374e-24)
(7.957319e-06 -7.959375e-06 2.930539e-24)
(7.641339e-06 -7.62807e-06 3.115753e-24)
(7.069577e-06 -7.063849e-06 -2.905222e-24)
(7.281013e-06 -7.290372e-06 2.693167e-24)
(7.045222e-06 -7.029409e-06 -3.166828e-24)
(6.560349e-06 -6.551277e-06 2.377405e-26)
(6.295028e-06 -6.294114e-06 -2.18722e-26)
(6.486853e-06 -6.494202e-06 2.18938e-26)
(6.503533e-06 -6.49912e-06 0)
(6.152653e-06 -6.146516e-06 0)
(5.999322e-06 -5.995919e-06 -2.901075e-24)
(6.017253e-06 -6.019098e-06 6.479025e-29)
(5.906911e-06 -5.909839e-06 -2.992773e-24)
(5.90636e-06 -5.895987e-06 2.321128e-26)
(5.936167e-06 -5.946497e-06 0)
(5.896718e-06 -5.891429e-06 2.415034e-26)
(5.983274e-06 -5.992432e-06 -2.382699e-26)
(6.038666e-06 -6.039518e-06 0)
(5.840107e-06 -5.838462e-06 0)
(5.838453e-06 -5.843132e-06 -1.638779e-27)
(5.7999e-06 -5.805365e-06 0)
(5.819568e-06 -5.821557e-06 -1.524948e-27)
(6.004095e-06 -6.023791e-06 3.519335e-24)
(6.078065e-06 -6.087863e-06 -1.437232e-26)
(6.089928e-06 -6.106654e-06 3.855373e-24)
(6.163907e-06 -6.196279e-06 -1.698067e-26)
(6.217089e-06 -6.237843e-06 1.698125e-26)
(6.914843e-06 -7.062964e-06 0)
(6.684084e-06 -6.823488e-06 5.933933e-24)
(6.551139e-06 6.675256e-06 6.087415e-24)
(6.904308e-06 7.064046e-06 -5.632445e-27)
(6.162179e-06 6.180392e-06 1.715376e-26)
(6.12799e-06 6.160793e-06 -4.218821e-24)
(6.054447e-06 6.071068e-06 3.875674e-24)
(6.041219e-06 6.050726e-06 -3.832983e-24)
(5.977973e-06 5.997053e-06 -1.441233e-26)
(5.804281e-06 5.806435e-06 1.489675e-27)
(5.787061e-06 5.792193e-06 0)
(5.834669e-06 5.839176e-06 0)
(5.846289e-06 5.844381e-06 0)
(6.059133e-06 6.059854e-06 0)
(6.010144e-06 6.0193e-06 0)
(5.933858e-06 5.928125e-06 0)
(5.995804e-06 6.006079e-06 0)
(5.970312e-06 5.959942e-06 0)
(5.993824e-06 5.996249e-06 2.976331e-24)
(6.10142e-06 6.104456e-06 2.888866e-24)
(6.053017e-06 6.049972e-06 0)
(6.191136e-06 6.185525e-06 3.028789e-24)
(6.525426e-06 6.52126e-06 -2.934445e-24)
(6.503327e-06 6.510699e-06 0)
(6.312496e-06 6.311482e-06 2.315804e-26)
(6.582227e-06 6.573063e-06 2.953373e-24)
(7.0665e-06 7.050752e-06 2.279167e-26)
(7.297793e-06 7.307277e-06 -2.252777e-26)
(7.076691e-06 7.071173e-06 -2.904079e-24)
(7.637773e-06 7.625077e-06 5.26099e-27)
(7.899413e-06 7.903248e-06 -5.862106e-24)
(7.868395e-06 7.863622e-06 4.92501e-26)
(8.355205e-06 8.344035e-06 -3.343673e-24)
(8.699621e-06 8.710388e-06 0)
(1.10887e-05 1.100723e-05 0)
(8.573902e-06 8.791493e-06 1.111172e-26)
(2.287408e-05 2.195529e-05 1.102564e-23)
(2.053368e-05 1.943919e-05 -2.157978e-23)
(2.171941e-05 2.197341e-05 0)
(1.971969e-05 1.981486e-05 0)
(1.954344e-05 1.958977e-05 2.738171e-26)
(1.934096e-05 1.936358e-05 -6.783961e-24)
(1.930073e-05 1.929784e-05 1.333075e-23)
(1.910654e-05 1.917696e-05 6.144875e-24)
(1.857268e-05 1.859054e-05 -1.214667e-23)
(1.85061e-05 1.850644e-05 -5.92394e-24)
(1.865522e-05 1.865274e-05 0)
(1.871322e-05 1.866882e-05 0)
(1.936459e-05 1.933117e-05 -4.276788e-26)
(1.922377e-05 1.926531e-05 5.259604e-24)
(1.898521e-05 1.895726e-05 -4.209087e-26)
(1.91765e-05 1.92049e-05 0)
(1.913734e-05 1.908177e-05 5.205097e-24)
(1.916741e-05 1.915568e-05 -5.124876e-24)
(1.952512e-05 1.953558e-05 0)
(1.940724e-05 1.9386e-05 0)
(1.985043e-05 1.977997e-05 -5.296001e-24)
(2.082675e-05 2.076899e-05 -5.043875e-24)
(2.079803e-05 2.084344e-05 -3.757729e-26)
(2.02855e-05 2.027684e-05 7.734332e-26)
(2.116299e-05 2.103247e-05 -5.176203e-24)
(2.261259e-05 2.245948e-05 4.117848e-26)
(2.332649e-05 2.335919e-05 0)
(2.27813e-05 2.269814e-05 4.940129e-24)
(2.453631e-05 2.437989e-05 1.071442e-23)
(2.533922e-05 2.531336e-05 5.024591e-24)
(2.533763e-05 2.522905e-05 0)
(2.689938e-05 2.673435e-05 5.727069e-24)
(2.840111e-05 2.807153e-05 0)
(3.524947e-05 3.496184e-05 0)
(3.043652e-05 2.924928e-05 -6.680597e-24)
(7.07004e-05 6.615735e-05 -1.910029e-23)
(7.214658e-05 -6.781173e-05 1.718526e-23)
(3.06916e-05 -2.922749e-05 4.569438e-26)
(3.415229e-05 -3.397515e-05 4.647777e-27)
(2.905188e-05 -2.877824e-05 -4.998053e-26)
(2.742195e-05 -2.724074e-05 0)
(2.557017e-05 -2.54484e-05 1.827016e-26)
(2.552047e-05 -2.548018e-05 5.03443e-24)
(2.455501e-05 -2.438823e-05 0)
(2.276201e-05 -2.26752e-05 -4.984358e-24)
(2.327571e-05 -2.3306e-05 -7.674646e-26)
(2.254682e-05 -2.239276e-05 -1.952192e-27)
(2.109446e-05 -2.096469e-05 4.07767e-26)
(2.022946e-05 -2.022173e-05 0)
(2.074497e-05 -2.07896e-05 0)
(2.075731e-05 -2.069569e-05 0)
(1.973059e-05 -1.965412e-05 4.04623e-26)
(1.923868e-05 -1.921041e-05 4.993086e-24)
(1.926392e-05 -1.926675e-05 3.914678e-26)
(1.889337e-05 -1.888697e-05 5.033981e-24)
(1.893245e-05 -1.888077e-05 0)
(1.89889e-05 -1.902221e-05 -4.072501e-26)
(1.886648e-05 -1.884458e-05 5.541556e-24)
(1.913819e-05 -1.918215e-05 -8.270106e-26)
(1.930021e-05 -1.927059e-05 8.592922e-26)
(1.869364e-05 -1.865349e-05 -4.353085e-26)
(1.866762e-05 -1.866834e-05 5.665381e-24)
(1.854675e-05 -1.854946e-05 0)
(1.862239e-05 -1.864183e-05 6.020912e-24)
(1.919038e-05 -1.926561e-05 -4.701771e-26)
(1.941771e-05 -1.941577e-05 6.57848e-24)
(1.94543e-05 -1.947708e-05 -6.64047e-24)
(1.966071e-05 -1.970933e-05 7.209904e-24)
(1.989045e-05 -1.9986e-05 7.87469e-24)
(2.177527e-05 -2.202545e-05 -3.036569e-26)
(2.093089e-05 -1.990255e-05 -3.165214e-23)
(7.796549e-05 4.052225e-06 -3.02028e-24)
(2.749696e-05 2.661249e-08 -1.904429e-27)
(4.05699e-05 4.601074e-08 -1.281316e-26)
(3.495456e-05 9.848448e-08 8.17492e-27)
(3.402439e-05 1.054152e-07 5.965093e-30)
(3.229915e-05 9.665752e-09 0)
(3.237316e-05 2.725405e-08 7.232294e-27)
(3.207417e-05 -1.498325e-09 1.113015e-27)
(3.167147e-05 6.123441e-08 -1.790252e-26)
(3.050471e-05 -1.867252e-08 9.55593e-27)
(3.184878e-05 -2.258756e-08 0)
(3.121082e-05 -1.524047e-08 -6.585614e-27)
(3.199453e-05 -5.023397e-08 1.03655e-26)
(3.269746e-05 -9.393142e-10 -4.786833e-27)
(3.30481e-05 -3.274878e-08 3.383784e-27)
(3.354861e-05 -2.064727e-08 0)
(3.446436e-05 -9.212484e-08 7.108321e-28)
(3.617692e-05 -6.884135e-08 6.986868e-28)
(3.756173e-05 -7.004701e-08 -5.864448e-27)
(3.802851e-05 2.79162e-09 5.665479e-27)
(3.815115e-05 -9.622678e-08 1.237776e-26)
(4.091759e-05 -3.282894e-07 -1.233221e-26)
(5.072395e-05 -1.380321e-07 0)
(4.359173e-05 -8.077882e-07 6.433401e-26)
(9.556258e-05 -3.060785e-06 -3.102875e-25)
(4.867197e-06 -4.749037e-05 1.852977e-24)
(-3.50729e-09 7.940239e-06 -2.017904e-25)
(-1.241497e-07 -7.464701e-06 1.496388e-25)
(8.185123e-08 -2.851113e-06 0)
(1.757671e-08 -2.648179e-06 -5.116845e-28)
(2.659426e-08 -1.917662e-06 0)
(2.945167e-08 -1.384976e-06 -1.139826e-25)
(1.74406e-08 -7.338548e-07 1.140461e-25)
(-7.886508e-09 -6.8987e-07 -4.090182e-28)
(1.273257e-08 -6.754296e-07 5.058726e-26)
(7.734471e-09 -3.245464e-07 -5.041189e-26)
(2.196946e-09 -2.778271e-07 0)
(2.372805e-09 -2.240992e-07 0)
(5.601406e-09 -1.175524e-07 0)
(1.063692e-09 -3.154074e-08 0)
(1.206613e-10 -3.358384e-08 -2.224266e-26)
(4.988987e-10 -6.960666e-09 1.368328e-28)
(5.288478e-10 -3.789385e-09 5.388594e-27)
(1.966212e-09 3.027803e-08 1.603924e-26)
(9.559572e-10 7.44834e-08 -8.045364e-27)
(-6.355249e-10 6.684283e-08 7.933438e-27)
(9.861052e-10 7.558961e-08 -1.720034e-26)
(-1.12688e-09 8.937866e-08 6.596628e-27)
(-1.525219e-09 5.611008e-08 -6.562346e-28)
(-1.684626e-09 3.447483e-08 5.381702e-30)
(-1.752812e-09 5.127415e-09 6.536574e-28)
(-1.500517e-09 -2.60011e-08 6.575585e-27)
(-1.036419e-09 -3.958298e-08 2.639885e-27)
(-9.528361e-10 -6.104409e-08 0)
(-2.792459e-10 -5.984628e-08 7.990499e-27)
(-1.171034e-09 -7.413716e-08 0)
(2.395498e-09 -7.104054e-08 0)
(1.013257e-09 6.557224e-09 -2.204143e-26)
(5.681459e-10 -1.718918e-08 4.481114e-26)
(4.570197e-09 7.708993e-08 2.334005e-26)
(-1.679047e-09 1.233542e-07 -4.591775e-26)
(-1.826379e-09 8.222967e-08 4.807088e-26)
(4.615832e-10 8.379238e-08 -4.787267e-26)
(6.864141e-09 1.807647e-07 -1.957153e-28)
(6.800088e-09 3.368662e-07 4.01592e-28)
(1.015008e-08 5.716228e-07 0)
(1.049004e-08 7.021111e-07 1.142925e-25)
(3.118572e-08 1.31774e-06 5.092584e-27)
(1.727825e-08 1.654294e-06 -1.20181e-25)
(3.479348e-08 2.693317e-06 0)
(4.756574e-08 2.394032e-06 0)
(-4.432342e-08 7.745219e-06 -2.801248e-27)
(-1.248053e-07 -7.936128e-06 6.494856e-27)
(4.888487e-06 4.596924e-05 1.69665e-24)
(9.933688e-05 3.074458e-06 6.722318e-26)
(4.211085e-05 1.008429e-06 -6.931194e-26)
(4.943843e-05 7.463928e-08 3.250095e-26)
(4.026554e-05 2.572364e-07 -3.830327e-27)
(4.014904e-05 3.571551e-08 -1.682736e-26)
(3.806338e-05 1.59761e-07 1.036745e-26)
(3.584729e-05 1.702858e-08 -6.999786e-27)
(3.636276e-05 6.978901e-08 1.225042e-27)
(3.374077e-05 9.523624e-08 1.370046e-28)
(3.314311e-05 -6.811423e-09 8.610121e-28)
(3.325021e-05 3.526969e-08 -3.873305e-27)
(3.228681e-05 4.326472e-08 5.55979e-27)
(3.091531e-05 4.420952e-08 -3.92555e-27)
(3.118363e-05 -4.241389e-08 -4.919365e-27)
(3.247285e-05 -7.883631e-09 4.952725e-27)
(3.188442e-05 1.957225e-08 -9.074024e-27)
(3.153801e-05 1.888403e-08 9.140569e-27)
(3.132537e-05 -3.1314e-08 -7.027694e-27)
(3.305988e-05 -7.363284e-08 7.023612e-27)
(3.326194e-05 7.991891e-09 0)
(3.403906e-05 -6.949012e-08 -2.065577e-30)
(3.486019e-05 -1.175804e-07 0)
(4.074942e-05 -8.336982e-10 2.466403e-27)
(2.641256e-05 9.97271e-10 -2.647627e-26)
(7.683977e-05 -4.067617e-06 0)
(0.0001744551 8.726906e-06 0)
(8.156039e-05 3.755398e-06 3.57142e-27)
(9.033121e-05 3.993839e-07 -2.046395e-26)
(7.45425e-05 8.452418e-07 0)
(7.352693e-05 1.958475e-07 -1.277693e-26)
(6.979973e-05 5.119482e-07 5.717947e-27)
(6.575154e-05 1.070288e-07 2.454674e-27)
(6.637648e-05 2.372937e-07 2.608549e-28)
(6.183918e-05 3.153411e-07 -1.626025e-28)
(6.057937e-05 -2.074125e-10 -1.021878e-27)
(6.077428e-05 1.066526e-07 -4.572231e-27)
(5.905213e-05 1.595788e-07 4.994782e-28)
(5.669585e-05 1.199895e-07 -2.531347e-27)
(5.721299e-05 -1.170573e-07 7.207157e-27)
(5.939207e-05 -3.391803e-08 1.19376e-26)
(5.836047e-05 7.23793e-08 -1.201439e-26)
(5.76846e-05 5.510295e-08 0)
(5.750993e-05 -1.260196e-07 -3.214967e-28)
(6.058752e-05 -2.268153e-07 0)
(6.106035e-05 -2.235091e-08 -1.288525e-26)
(6.260814e-05 -2.470232e-07 1.28682e-26)
(6.467613e-05 -4.394507e-07 0)
(7.35515e-05 2.755424e-08 -2.916063e-27)
(5.560126e-05 -1.584946e-06 1.973886e-25)
(0.0001342269 -1.110465e-05 -2.42439e-25)
(1.418196e-05 -8.383614e-05 7.994652e-24)
(1.837265e-06 5.057465e-06 4.086648e-25)
(-3.031378e-07 -1.306733e-05 0)
(3.092559e-07 -6.322409e-06 -3.232347e-25)
(1.12638e-07 -5.327344e-06 3.242656e-25)
(1.146806e-07 -3.886157e-06 0)
(1.152563e-07 -2.84483e-06 -2.1687e-27)
(7.453663e-08 -1.635596e-06 -2.065963e-27)
(-7.363495e-09 -1.441019e-06 4.848294e-28)
(4.397758e-08 -1.369152e-06 -9.559551e-28)
(3.349159e-08 -7.386021e-07 -2.300221e-28)
(1.220131e-08 -6.180189e-07 0)
(1.257617e-08 -5.010771e-07 0)
(2.073465e-08 -2.938572e-07 0)
(6.813798e-09 -1.311642e-07 5.352763e-26)
(2.52496e-09 -1.161397e-07 -7.322122e-28)
(2.895641e-09 -5.935373e-08 -3.467615e-28)
(3.156347e-09 -4.557278e-08 -1.279052e-26)
(7.448635e-09 2.345545e-08 -2.534561e-26)
(3.926436e-09 1.053144e-07 5.063392e-26)
(-9.663455e-10 1.004686e-07 -2.527007e-26)
(3.33608e-09 1.197924e-07 1.251819e-26)
(-2.8436e-09 1.483498e-07 -1.25338e-26)
(-4.73915e-09 9.693038e-08 1.561219e-27)
(-5.184571e-09 6.23585e-08 1.546928e-27)
(-5.543965e-09 1.486828e-08 -9.362313e-27)
(-4.527554e-09 -3.633051e-08 -6.08309e-30)
(-3.038504e-09 -5.566005e-08 -3.132656e-27)
(-2.475924e-09 -8.825208e-08 0)
(-4.054152e-10 -8.241687e-08 -6.321795e-27)
(-2.31067e-09 -9.905873e-08 -1.269122e-26)
(8.646229e-09 -8.693249e-08 -2.563267e-26)
(4.897355e-09 5.421592e-08 1.562499e-25)
(4.950777e-09 3.163072e-08 8.841336e-28)
(1.604208e-08 2.085461e-07 -5.36015e-26)
(-2.063322e-09 2.978071e-07 -8.568997e-28)
(-2.167765e-09 2.459105e-07 -1.09688e-27)
(7.546721e-09 2.752587e-07 0)
(2.791567e-08 4.656113e-07 1.216101e-25)
(3.239662e-08 7.815255e-07 -1.208628e-25)
(4.280944e-08 1.229005e-06 1.291435e-25)
(5.711776e-08 1.556003e-06 -1.290554e-25)
(1.14096e-07 2.705689e-06 5.472995e-28)
(9.495546e-08 3.438727e-06 -1.694302e-27)
(1.474622e-07 5.342563e-06 0)
(2.390558e-07 5.589099e-06 0)
(-1.209393e-07 1.349241e-05 -3.602248e-25)
(1.507402e-06 -5.182751e-06 1.071326e-24)
(1.424757e-05 8.126183e-05 -5.005952e-24)
(0.0001361039 1.102821e-05 2.591639e-25)
(5.759592e-05 1.671354e-06 0)
(7.326232e-05 1.071701e-07 1.221809e-26)
(6.488053e-05 3.932222e-07 -1.524686e-26)
(6.260064e-05 3.583074e-07 5.939136e-27)
(5.935418e-05 8.615987e-08 1.490626e-26)
(5.932437e-05 7.896455e-08 -1.501184e-26)
(5.880248e-05 1.829021e-08 -9.827605e-27)
(5.808658e-05 1.880483e-07 2.096315e-26)
(5.596378e-05 -3.833578e-08 2.833832e-27)
(5.820883e-05 -7.184941e-08 -1.416224e-26)
(5.716921e-05 -6.050985e-08 2.070472e-26)
(5.847853e-05 -1.548987e-07 -1.225334e-26)
(5.977296e-05 -2.96064e-08 0)
(6.052347e-05 -1.004853e-07 -4.461022e-27)
(6.146292e-05 -8.94798e-08 4.469519e-27)
(6.304407e-05 -2.938196e-07 1.170105e-28)
(6.614078e-05 -2.529751e-07 -5.677977e-27)
(6.870805e-05 -2.379858e-07 2.647211e-27)
(6.969389e-05 -3.250977e-08 9.598249e-27)
(7.0113e-05 -3.649725e-07 -1.206758e-26)
(7.581887e-05 -1.110654e-06 0)
(9.234017e-05 -5.148283e-07 4.621908e-26)
(8.389706e-05 -3.167456e-06 0)
(0.0001680105 -8.724006e-06 -1.031266e-24)
(0.0001290914 -0.000116621 -3.933615e-23)
(6.069382e-05 -5.527958e-05 -2.015701e-25)
(6.253323e-05 -6.180043e-05 0)
(5.394704e-05 -5.290643e-05 0)
(5.051411e-05 -4.991578e-05 -6.8175e-24)
(4.69977e-05 -4.654683e-05 -1.267218e-23)
(4.671741e-05 -4.654679e-05 -6.215626e-24)
(4.504062e-05 -4.448767e-05 9.75147e-26)
(4.181054e-05 -4.150212e-05 5.960854e-24)
(4.246837e-05 -4.252183e-05 0)
(4.119623e-05 -4.069318e-05 0)
(3.869934e-05 -3.826505e-05 0)
(3.708313e-05 -3.705533e-05 0)
(3.786497e-05 -3.79729e-05 9.043745e-26)
(3.781221e-05 -3.760941e-05 5.957815e-24)
(3.610318e-05 -3.585933e-05 0)
(3.520763e-05 -3.510785e-05 0)
(3.519181e-05 -3.519237e-05 0)
(3.448091e-05 -3.445346e-05 0)
(3.464763e-05 -3.448757e-05 -9.351217e-26)
(3.46521e-05 -3.473787e-05 1.917243e-25)
(3.445246e-05 -3.439733e-05 -6.572626e-24)
(3.49305e-05 -3.505185e-05 -6.072406e-24)
(3.520696e-05 -3.511155e-05 0)
(3.415323e-05 -3.401318e-05 6.549779e-24)
(3.405698e-05 -3.405587e-05 -1.064706e-25)
(3.384402e-05 -3.385066e-05 -6.997611e-24)
(3.40069e-05 -3.408114e-05 5.347835e-26)
(3.498553e-05 -3.520726e-05 7.276266e-24)
(3.539425e-05 -3.538463e-05 -1.560988e-23)
(3.54433e-05 -3.549844e-05 6.392318e-26)
(3.573326e-05 -3.587802e-05 -8.539272e-24)
(3.623533e-05 -3.651903e-05 -5.279534e-26)
(3.878204e-05 -3.918093e-05 3.606936e-26)
(3.677026e-05 -3.298333e-05 2.560235e-23)
(3.610965e-05 3.213601e-05 1.309895e-23)
(3.863216e-05 3.901664e-05 9.643646e-24)
(3.593307e-05 3.621696e-05 -9.305276e-24)
(3.551473e-05 3.565128e-05 -1.357997e-25)
(3.523678e-05 3.529076e-05 8.003886e-24)
(3.518264e-05 3.516981e-05 -7.81493e-24)
(3.483263e-05 3.50393e-05 -7.345282e-24)
(3.391476e-05 3.398237e-05 7.171818e-24)
(3.377091e-05 3.376973e-05 7.080586e-24)
(3.403395e-05 3.402194e-05 6.828992e-24)
(3.418889e-05 3.403428e-05 -6.641729e-24)
(3.532278e-05 3.521412e-05 1.015874e-25)
(3.508599e-05 3.519839e-05 -1.248681e-23)
(3.466922e-05 3.459406e-05 9.989617e-26)
(3.498893e-05 3.505749e-05 -6.008792e-24)
(3.502224e-05 3.484737e-05 -1.145527e-25)
(3.497461e-05 3.493098e-05 2.023456e-27)
(3.565323e-05 3.56774e-05 9.33527e-26)
(3.550862e-05 3.543327e-05 0)
(3.631509e-05 3.609153e-05 -6.120183e-24)
(3.793714e-05 3.774756e-05 5.849875e-24)
(3.796203e-05 3.80729e-05 9.010972e-26)
(3.718549e-05 3.715498e-05 -9.424896e-26)
(3.882188e-05 3.838545e-05 1.216245e-23)
(4.131225e-05 4.081244e-05 -9.27185e-26)
(4.255586e-05 4.261774e-05 -5.375081e-24)
(4.183933e-05 4.154371e-05 -6.006185e-24)
(4.499408e-05 4.447614e-05 -6.224898e-24)
(4.639127e-05 4.626759e-05 9.652077e-26)
(4.656062e-05 4.616256e-05 -6.515186e-24)
(4.957391e-05 4.899496e-05 6.875788e-24)
(5.294421e-05 5.173558e-05 -6.860019e-24)
(6.430589e-05 6.330274e-05 -1.281578e-25)
(6.006486e-05 5.541552e-05 8.082869e-24)
(0.0001268438 0.0001137572 -2.016235e-23)
(5.35045e-05 4.396539e-05 1.565142e-23)
(5.774664e-05 5.804464e-05 -1.141594e-23)
(5.518227e-05 5.575233e-05 1.107928e-23)
(5.449337e-05 5.481972e-05 1.023749e-23)
(5.422929e-05 5.434567e-05 -9.353509e-24)
(5.42013e-05 5.417052e-05 0)
(5.36677e-05 5.413002e-05 0)
(5.234069e-05 5.251783e-05 -8.484293e-24)
(5.20909e-05 5.209341e-05 -1.292636e-25)
(5.247711e-05 5.244934e-05 -7.931379e-24)
(5.280338e-05 5.243171e-05 1.565499e-23)
(5.447646e-05 5.421786e-05 -1.200585e-25)
(5.413186e-05 5.436822e-05 1.018145e-25)
(5.351722e-05 5.335777e-05 0)
(5.395966e-05 5.408973e-05 -1.256246e-25)
(5.42026e-05 5.379448e-05 -1.438444e-23)
(5.394557e-05 5.384183e-05 0)
(5.504028e-05 5.507915e-05 6.988893e-24)
(5.493253e-05 5.474449e-05 1.114999e-25)
(5.617189e-05 5.566721e-05 7.231464e-24)
(5.84052e-05 5.795719e-05 0)
(5.859309e-05 5.878607e-05 -6.305051e-24)
(5.764246e-05 5.755984e-05 -1.052073e-25)
(6.022831e-05 5.920322e-05 -7.112217e-24)
(6.382493e-05 6.265079e-05 -1.091657e-25)
(6.5654e-05 6.572588e-05 1.146763e-25)
(6.499663e-05 6.425683e-05 1.116082e-25)
(6.981439e-05 6.858853e-05 -7.49444e-24)
(7.185236e-05 7.150215e-05 0)
(7.240472e-05 7.138905e-05 4.621143e-26)
(7.734949e-05 7.591701e-05 -8.007418e-24)
(8.364124e-05 8.063738e-05 -7.68623e-26)
(9.950332e-05 9.678573e-05 -1.053776e-23)
(9.975671e-05 8.836538e-05 -4.557437e-24)
(0.0001924274 0.0001641812 2.365311e-23)
(0.0001953342 -0.0001684407 2.283664e-23)
(0.0001009692 -8.796698e-05 -2.240248e-25)
(9.716721e-05 -9.49686e-05 1.389036e-25)
(8.469099e-05 -8.207417e-05 -1.326985e-26)
(7.863286e-05 -7.719286e-05 -8.026629e-26)
(7.310004e-05 -7.195678e-05 1.634374e-25)
(7.234804e-05 -7.18872e-05 -7.194886e-24)
(6.990622e-05 -6.859793e-05 -1.134979e-25)
(6.49637e-05 -6.419251e-05 2.17904e-25)
(6.552822e-05 -6.557951e-05 -2.140351e-25)
(6.3653e-05 -6.247095e-05 -4.991202e-27)
(6.004377e-05 -5.902308e-05 7.217407e-24)
(5.74848e-05 -5.740781e-05 1.055405e-25)
(5.844365e-05 -5.862902e-05 -2.123241e-25)
(5.821658e-05 -5.773684e-05 -7.038227e-24)
(5.585779e-05 -5.530452e-05 7.244867e-24)
(5.4481e-05 -5.423412e-05 7.123171e-24)
(5.435469e-05 -5.433987e-05 -1.098972e-25)
(5.319393e-05 -5.312642e-05 1.108323e-25)
(5.362355e-05 -5.325299e-05 7.083443e-24)
(5.344927e-05 -5.362143e-05 -2.218914e-27)
(5.318308e-05 -5.307049e-05 -1.726485e-27)
(5.389328e-05 -5.415199e-05 7.28254e-24)
(5.430022e-05 -5.407395e-05 -1.223985e-25)
(5.274849e-05 -5.241179e-05 -7.726976e-24)
(5.251333e-05 -5.251154e-05 1.220659e-25)
(5.220196e-05 -5.222309e-05 8.120567e-24)
(5.248482e-05 -5.267954e-05 -2.927774e-27)
(5.390308e-05 -5.44e-05 -8.383984e-24)
(5.45249e-05 -5.45017e-05 9.35507e-24)
(5.454738e-05 -5.46681e-05 -1.436561e-25)
(5.483725e-05 -5.518319e-05 -1.013865e-23)
(5.563775e-05 -5.621157e-05 -1.087309e-23)
(5.80449e-05 -5.840275e-05 -1.153948e-23)
(5.44159e-05 -4.527396e-05 1.524504e-23)
(0.0001997285 2.298474e-05 2.523128e-24)
(9.946749e-05 5.299426e-06 1.580936e-25)
(0.0001125481 5.648071e-07 -1.776548e-26)
(0.0001019048 9.537348e-07 1.793205e-26)
(9.756636e-05 8.920816e-07 4.395042e-29)
(9.230103e-05 2.775306e-07 0)
(9.198086e-05 1.824112e-07 0)
(9.120717e-05 6.689342e-08 1.628522e-27)
(9.014055e-05 4.258388e-07 9.750639e-28)
(8.684104e-05 -5.625165e-08 -1.664239e-26)
(8.997557e-05 -1.625954e-07 1.612662e-26)
(8.855822e-05 -1.569519e-07 -1.527966e-26)
(9.038423e-05 -3.520928e-07 9.206918e-27)
(9.23937e-05 -1.061917e-07 -1.71006e-26)
(9.374513e-05 -2.359135e-07 0)
(9.523677e-05 -2.364743e-07 -2.517657e-27)
(9.750636e-05 -6.82209e-07 1.958734e-27)
(0.0001022511 -6.309492e-07 -6.339073e-27)
(0.000106299 -5.855697e-07 -6.602714e-27)
(0.0001080482 -1.414069e-07 2.692945e-26)
(0.0001090021 -9.646255e-07 -4.788053e-26)
(0.0001189062 -2.606879e-06 7.796979e-26)
(0.0001423025 -1.517281e-06 -9.894042e-26)
(0.0001360177 -7.748906e-06 -3.129905e-27)
(0.0002490376 -1.874253e-05 1.220727e-24)
(3.060323e-05 -0.0001244942 -8.848199e-24)
(6.070217e-06 -6.353895e-06 -1.206442e-24)
(-1.705253e-07 -2.046356e-05 -1.169231e-25)
(7.319429e-07 -1.165768e-05 3.830259e-25)
(3.445812e-07 -9.202694e-06 -7.39148e-25)
(3.036195e-07 -6.71655e-06 3.55828e-25)
(2.912625e-07 -4.973603e-06 3.170722e-25)
(1.956168e-07 -3.060956e-06 -3.175564e-25)
(7.026705e-09 -2.566143e-06 0)
(1.053397e-07 -2.368906e-06 1.127508e-27)
(8.664019e-08 -1.401666e-06 0)
(3.503791e-08 -1.157591e-06 0)
(3.508395e-08 -9.42929e-07 1.311431e-25)
(5.158829e-08 -5.975026e-07 -1.312058e-25)
(2.010524e-08 -3.352684e-07 0)
(9.04194e-09 -2.797925e-07 -6.237051e-26)
(8.412777e-09 -1.762964e-07 7.808669e-28)
(9.478459e-09 -1.413115e-07 6.082832e-26)
(1.899852e-08 -2.16472e-08 -3.006135e-26)
(1.060117e-08 1.076562e-07 0)
(-4.632323e-10 1.157357e-07 2.966668e-26)
(8.331555e-09 1.518677e-07 -2.971983e-26)
(-5.151435e-09 2.027953e-07 -1.474004e-26)
(-1.018905e-08 1.395659e-07 1.106596e-26)
(-1.131805e-08 9.530043e-08 -3.797238e-27)
(-1.227338e-08 3.295823e-08 -1.290927e-26)
(-9.738906e-09 -3.613528e-08 1.842608e-26)
(-6.241848e-09 -5.569481e-08 0)
(-4.752009e-09 -9.441308e-08 -4.466731e-26)
(1.790871e-10 -7.824737e-08 2.974754e-26)
(-3.173769e-09 -8.725333e-08 1.499092e-26)
(2.140682e-08 -5.767088e-08 9.115403e-26)
(1.380335e-08 1.619946e-07 -1.837379e-25)
(1.570281e-08 1.623222e-07 -6.33245e-26)
(3.868908e-08 4.460291e-07 6.528796e-26)
(-8.112672e-10 5.943748e-07 -1.012624e-27)
(-8.526319e-11 5.553921e-07 -1.03757e-27)
(2.431161e-08 6.469836e-07 -1.381671e-25)
(7.174635e-08 9.657613e-07 -8.805247e-28)
(8.695091e-08 1.510859e-06 1.421489e-25)
(1.133278e-07 2.242901e-06 0)
(1.597969e-07 2.900868e-06 0)
(2.832745e-07 4.737622e-06 0)
(2.659361e-07 6.072415e-06 2.658247e-27)
(4.083884e-07 9.125257e-06 0)
(6.080708e-07 1.068124e-05 -3.057624e-27)
(1.638683e-07 2.096038e-05 4.409142e-25)
(5.377229e-06 5.995483e-06 -1.234697e-24)
(3.076081e-05 0.0001208926 9.08054e-24)
(0.0002581737 1.868606e-05 0)
(0.0001329668 9.025546e-06 -4.209333e-27)
(0.0001395104 1.336652e-06 2.264979e-26)
(0.0001165602 1.979313e-06 0)
(0.0001139238 5.814593e-07 -1.309821e-26)
(0.0001082812 1.197989e-06 8.404818e-27)
(0.0001019973 3.271238e-07 5.747651e-27)
(0.0001024624 5.760159e-07 -7.355302e-27)
(9.584449e-05 7.47351e-07 0)
(9.360471e-05 3.19693e-08 0)
(9.394132e-05 2.423869e-07 -1.074441e-26)
(9.133917e-05 3.897878e-07 1.071069e-26)
(8.794724e-05 2.486086e-07 0)
(8.879275e-05 -2.408388e-07 -2.395085e-26)
(9.187844e-05 -8.24039e-08 0)
(9.034854e-05 1.824999e-07 -2.532239e-26)
(8.922444e-05 1.143841e-07 2.530293e-26)
(8.931905e-05 -3.285218e-07 1.901095e-27)
(9.396032e-05 -5.221389e-07 -2.003993e-26)
(9.486866e-05 -1.170823e-07 5.046945e-26)
(9.752738e-05 -6.357223e-07 -3.040095e-26)
(0.0001015234 -1.044765e-06 0)
(0.000112967 -2.578877e-07 1.053105e-26)
(9.636115e-05 -5.10574e-06 -3.184378e-25)
(0.0001971276 -2.318494e-05 4.641354e-24)
(0.000350645 3.409954e-05 -1.097219e-24)
(0.000198976 1.775139e-05 9.237549e-26)
(0.0001988951 3.491473e-06 -9.869996e-26)
(0.0001681087 3.909027e-06 -8.394856e-26)
(0.0001629287 1.306796e-06 4.581852e-26)
(0.0001550342 2.426648e-06 0)
(0.000145972 7.670588e-07 0)
(0.0001459091 1.153041e-06 -3.59032e-27)
(0.0001370372 1.532301e-06 4.44995e-27)
(0.0001333519 1.308824e-07 -1.817908e-26)
(0.0001339663 4.654715e-07 1.259432e-26)
(0.0001303349 7.450699e-07 0)
(0.0001258864 4.63175e-07 -2.520882e-26)
(0.0001271668 -4.530915e-07 6.029487e-26)
(0.0001311488 -1.234171e-07 -3.245331e-26)
(0.0001290503 3.924055e-07 0)
(0.0001272983 1.897871e-07 0)
(0.0001280245 -7.301849e-07 -1.78267e-27)
(0.000134534 -1.068399e-06 -2.504725e-27)
(0.0001361085 -3.217522e-07 3.590386e-26)
(0.0001404032 -1.43091e-06 -1.586651e-26)
(0.0001471525 -2.046617e-06 -4.166386e-26)
(0.0001611289 -1.430785e-06 3.807013e-26)
(0.0001507466 -1.177745e-05 6.486336e-25)
(0.0002651174 -4.137117e-05 -1.186464e-24)
(5.601524e-05 -0.0001691184 -9.625068e-24)
(1.443817e-05 -2.849298e-05 0)
(1.048082e-06 -3.147429e-05 4.065683e-25)
(1.527584e-06 -1.974695e-05 9.00847e-25)
(8.564587e-07 -1.492205e-05 -9.040732e-25)
(6.824329e-07 -1.082941e-05 3.804702e-25)
(6.183347e-07 -8.09169e-06 -3.998126e-25)
(4.390673e-07 -5.274976e-06 3.550519e-25)
(6.135663e-08 -4.258664e-06 -3.44759e-25)
(2.215556e-07 -3.824909e-06 0)
(1.873933e-07 -2.436596e-06 0)
(8.400059e-08 -2.000169e-06 0)
(8.041892e-08 -1.636843e-06 -4.845913e-27)
(1.094359e-07 -1.096507e-06 0)
(4.789568e-08 -7.02969e-07 -4.67036e-27)
(2.492893e-08 -5.716981e-07 -1.462343e-25)
(2.039322e-08 -3.955701e-07 4.327749e-25)
(2.302231e-08 -3.239834e-07 0)
(4.088161e-08 -1.296864e-07 -3.498631e-26)
(2.419703e-08 6.081189e-08 1.055639e-25)
(2.240876e-09 9.73276e-08 0)
(1.829249e-08 1.597865e-07 -1.740467e-26)
(-7.119003e-09 2.452362e-07 0)
(-1.76614e-08 1.815177e-07 1.29628e-26)
(-2.033695e-08 1.342353e-07 -8.506838e-27)
(-2.237682e-08 6.405175e-08 4.321675e-27)
(-1.711176e-08 -1.793002e-08 -2.604051e-26)
(-1.000536e-08 -2.752621e-08 3.465248e-26)
(-6.892608e-09 -6.353241e-08 8.73969e-26)
(3.141675e-09 -2.743808e-08 -1.401581e-25)
(-2.11005e-09 -1.244263e-08 -7.210999e-28)
(4.531017e-08 4.657414e-08 7.061848e-26)
(3.231555e-08 3.671005e-07 -1.447449e-25)
(3.959015e-08 4.23561e-07 1.460964e-25)
(8.092573e-08 8.49222e-07 1.486283e-25)
(5.510764e-09 1.081387e-06 -1.485107e-25)
(1.140331e-08 1.094602e-06 2.429623e-27)
(6.156463e-08 1.301035e-06 0)