/*--------------------------------*- C++ -*----------------------------------*\
| =========                 |                                                 |
| \\      /  F ield         | OpenFOAM: The Open Source CFD Toolbox           |
|  \\    /   O peration     | Version:  2406                                  |
|   \\  /    A nd           | Website:  www.openfoam.com                      |
|    \\/     M anipulation  |                                                 |
\*---------------------------------------------------------------------------*/
FoamFile
{
    version     2.0;
    format      ascii;
    arch        "LSB;label=32;scalar=64";
    class       volScalarField;
    location    "0.22";
    object      p;
}
// * * * * * * * * * * * * * * * * * * * * * * * * * * * * * * * * * * * * * //

dimensions      [0 2 -2 0 0 0 0];

internalField   nonuniform List<scalar> 
217010
(
-146.9796
-88.7169
-95.8536
-95.75262
-93.26537
-91.38559
-92.63667
-91.8574
-90.52503
-91.03255
-91.91379
-91.9183
-94.24023
-102.1854
-112.8374
-127.4957
-133.833
-125.1407
-106.3796
-103.355
-112.6028
-126.7546
-141.9136
-149.0521
-147.3087
-136.788
-119.6752
-99.31288
-78.66965
-60.42474
-47.32727
-41.07387
-43.28322
-51.73346
-61.29282
-69.45347
-74.21193
-77.01099
-79.74528
-79.53774
-78.10038
-82.84225
-94.382
-110.4623
-132.3299
-165.0517
-195.2635
-207.1811
-165.693
-154.3258
-76.41413
-74.30935
-66.92929
-64.4948
-61.68513
-59.07436
-56.34359
-53.65493
-51.15127
-48.94933
-46.94849
-45.23017
-44.01484
-43.25049
-42.55521
-41.3311
-39.4329
-37.51148
-36.29209
-35.46325
-34.58322
-33.54115
-32.49346
-31.499
-30.51189
-29.4913
-28.42839
-27.32393
-26.19764
-25.04107
-23.84844
-22.63075
-21.37706
-20.07481
-18.74692
-17.40627
-16.07724
-14.74438
-13.44624
-12.1933
-10.91768
-9.720928
-8.614919
-7.566709
-6.612989
-5.745478
-4.982046
-4.351096
-3.828155
-3.408042
-3.096102
-2.939967
-2.933155
-3.089273
-3.354073
-3.734839
-4.233487
-4.839283
-5.539068
-6.321646
-7.170106
-8.058757
-8.961728
-9.875699
-10.7757
-11.63287
-12.4575
-13.25255
-13.96024
-14.58828
-15.13869
-15.60486
-15.9862
-16.2832
-16.47991
-16.56746
-16.54094
-16.43274
-16.56588
-17.06924
-17.09942
-16.33341
-15.56765
-15.30009
-14.9516
-14.55507
-15.50429
-16.66864
-17.43398
-17.53645
-17.17859
-16.97029
-17.22657
-18.23568
-19.83632
-19.37661
-20.62664
-25.24619
-26.61152
-29.16619
-13.29003
-15.45842
-14.98114
-16.86476
-19.3969
-23.52443
-30.0222
-39.28586
-51.13153
-66.64819
-84.95409
-104.5877
-123.0795
-139.9778
-154.1275
-164.6549
-173.9649
-181.3211
-184.1225
-181.265
-171.6511
-153.9733
-132.0345
-116.1105
-112.2595
-118.2722
-124.4373
-123.5485
-127.7478
-129.0268
-123.1532
-118.9619
-105.1431
-86.82644
-89.13363
-93.46518
-98.74598
-107.6061
-110.9148
-110.2845
-108.8488
-107.5215
-109.9517
-108.8417
-107.9976
-109.6047
-109.3759
-110.2774
-104.5033
-169.7
-85.4118
-74.95711
-62.16224
-54.69684
-48.28131
-42.98691
-38.41925
-34.28289
-30.68192
-27.41363
-24.44498
-21.72916
-19.16928
-16.75224
-14.48971
-12.39307
-10.43102
-8.546069
-6.744674
-5.023328
-3.376567
-1.814346
-0.3355732
1.117479
2.539965
3.929771
5.259688
6.517978
7.733093
8.930361
10.11417
11.27593
12.38285
13.45785
14.52529
15.57246
16.60898
17.63227
18.65897
19.64335
20.6447
21.60146
22.5505
23.48526
24.41593
25.32984
26.22729
27.1272
28.04349
28.95734
29.84996
30.72671
31.60085
32.5008
33.41377
34.31426
35.21724
36.13043
37.04705
37.97718
38.9083
39.83395
40.80064
41.86027
42.95241
44.01629
45.07075
46.18122
47.53617
49.20624
51.12856
51.50282
49.65291
48.18502
46.99669
45.96004
44.95492
43.92199
42.92957
42.04248
41.206
40.32176
39.41278
38.52797
37.68762
36.86657
36.0422
35.20469
34.36691
33.55308
32.74554
31.92063
31.09351
30.27553
29.44192
28.6129
27.76513
26.88225
26.01264
25.16186
24.30318
23.41751
22.48533
21.58813
20.6502
19.688
18.72364
17.75266
16.7429
15.71533
14.68605
13.63145
12.51979
11.35789
10.19494
9.035873
7.831684
6.569525
5.267256
3.905904
2.490459
1.034675
-0.4740372
-2.006501
-3.641112
-5.383301
-7.191647
-9.110909
-11.1213
-13.28434
-15.62196
-18.10284
-20.7602
-23.71727
-26.98537
-30.69546
-34.77605
-39.46269
-45.19119
-51.66482
-62.7697
-70.36696
51.50937
49.91027
48.36764
47.14113
46.0877
45.07588
44.03707
43.03376
42.13491
41.29282
40.40712
39.49494
38.60416
37.75788
36.93278
36.10559
35.26545
34.42415
33.60689
32.7966
31.96943
31.13985
30.31951
29.4836
28.65287
27.80329
26.91874
26.04669
25.19347
24.33296
23.44601
22.51122
21.61424
20.67349
19.70939
18.74346
17.77103
16.75957
15.73057
14.69976
13.64378
12.53023
11.36646
10.20197
9.041544
7.83535
6.571507
5.267725
3.904206
2.486225
1.027813
-0.4836511
-2.017912
-3.657085
-5.403371
-7.21545
-9.14018
-11.15499
-13.32559
-15.67129
-18.15934
-20.82607
-23.79506
-27.0757
-30.8147
-34.91706
-39.63908
-45.40725
-52.0142
-63.06884
-72.16235
-87.41322
-75.34074
-62.56445
-54.94317
-48.48185
-43.14531
-38.55226
-34.3824
-30.76728
-27.48764
-24.50684
-21.7826
-19.21528
-16.79083
-14.52119
-12.41846
-10.45255
-8.563589
-6.758228
-5.033424
-3.383625
-1.818068
-0.3373789
1.117407
2.541835
3.933698
5.265839
6.525714
7.74242
8.941379
10.12696
11.29051
12.39915
13.47552
14.54477
15.59353
16.63197
17.65736
18.68668
19.67179
20.67556
21.63393
22.58483
23.52182
24.45442
25.37031
26.27002
27.17272
28.09173
29.00783
29.90233
30.78163
31.65937
32.56309
33.47946
34.3831
35.28988
36.20714
37.12828
38.0626
38.99783
39.93026
40.90762
41.97725
43.07494
44.14254
45.20648
46.34221
47.74244
49.48137
51.16624
-13.97847
-15.34995
-14.93318
-16.64825
-19.07306
-23.04307
-29.3452
-38.40861
-50.07039
-65.4001
-83.60235
-103.2685
-121.8951
-138.9769
-153.3301
-164.0266
-173.4878
-181.0318
-184.0991
-181.4899
-172.2135
-154.772
-132.6659
-116.3458
-112.2111
-118.1381
-124.4479
-123.6104
-127.8416
-129.0554
-123.2989
-119.2137
-105.4263
-86.83164
-89.17242
-93.55931
-98.82022
-107.7033
-110.9532
-110.2816
-108.829
-107.5345
-109.9801
-108.8358
-108.0241
-109.6553
-109.4012
-110.2085
-106.1054
-157.7825
-79.3484
-74.79498
-67.54696
-64.80859
-62.01361
-59.38821
-56.65705
-53.94962
-51.41419
-49.1738
-47.1235
-45.35864
-44.09697
-43.30878
-42.63461
-41.44512
-39.57403
-37.63118
-36.35936
-35.51607
-34.64192
-33.60055
-32.54866
-31.5497
-30.56088
-29.54
-28.47695
-27.3718
-26.24437
-25.08635
-23.89223
-22.67293
-21.41846
-20.11135
-18.78193
-17.43833
-16.10683
-14.77085
-13.46864
-12.21434
-10.93533
-9.734787
-8.626503
-7.575644
-6.619703
-5.750248
-4.98491
-4.352736
-3.82899
-3.40845
-3.096284
-2.940097
-2.933544
-3.090404
-3.355941
-3.738125
-4.238481
-4.846258
-5.548326
-6.333411
-7.184423
-8.075341
-8.980399
-9.896745
-10.79806
-11.65532
-12.48073
-13.27813
-13.98321
-14.60954
-15.1581
-15.62194
-16.00057
-16.29417
-16.48623
-16.56855
-16.53834
-16.43456
-16.58309
-17.07983
-17.07346
-16.2893
-15.5335
-15.27842
-14.91863
-14.57123
-15.58926
-16.74245
-17.46338
-17.51733
-17.14538
-16.9627
-17.28028
-18.3855
-19.90569
-19.43419
-20.97225
-25.69375
-27.033
-27.58201
-135.9479
-90.21192
-96.01036
-95.84164
-93.3738
-91.40203
-92.64171
-91.89284
-90.55127
-91.04215
-91.91939
-91.9046
-94.2034
-102.1365
-112.7914
-127.6099
-134.0132
-125.1325
-106.2804
-103.3404
-112.7774
-127.0918
-142.2471
-149.1964
-147.1848
-136.4838
-119.2612
-98.83167
-78.20498
-60.04607
-47.11019
-41.08145
-43.54296
-52.28211
-61.8361
-69.86154
-74.417
-77.1647
-79.81056
-79.48263
-78.19172
-83.43857
-95.48742
-112.0373
-134.7689
-168.3978
-198.6092
-207.5683
-163.1983
-137.8867
-124.2741
-90.92562
-96.27935
-95.97369
-93.59929
-91.4451
-92.6416
-91.93838
-90.60675
-91.07881
-91.95208
-91.90168
-94.183
-102.1255
-112.7606
-127.9156
-134.5127
-125.2284
-105.9632
-103.1961
-113.2147
-128.0773
-142.9706
-149.5286
-147.4449
-136.5612
-119.2018
-98.69197
-78.02633
-59.87245
-47.01414
-41.20647
-43.89526
-52.67113
-62.21858
-70.19305
-74.53416
-77.268
-79.94547
-79.48867
-78.29367
-83.8857
-96.23052
-113.1025
-136.4947
-170.5499
-199.6965
-207.2719
-160.201
-129.3972
-80.32861
-75.26281
-67.88745
-64.99735
-62.14489
-59.49045
-56.72699
-54.00201
-51.44448
-49.20454
-47.19748
-45.43138
-44.14974
-43.34611
-42.67337
-41.51097
-39.63727
-37.65823
-36.38668
-35.53825
-34.66035
-33.62146
-32.57071
-31.5713
-30.58252
-29.56153
-28.49795
-27.38913
-26.25837
-25.10007
-23.90496
-22.68497
-21.42904
-20.12833
-18.79579
-17.45118
-16.1196
-14.78351
-13.47899
-12.22574
-10.94563
-9.742638
-8.633946
-7.581606
-6.624543
-5.754056
-4.987127
-4.354211
-3.830126
-3.409489
-3.097108
-2.94081
-2.934253
-3.091747
-3.357284
-3.74055
-4.241871
-4.850693
-5.553858
-6.340039
-7.192083
-8.083499
-8.988738
-9.905344
-10.8057
-11.66269
-12.49163
-13.28284
-13.99193
-14.61998
-15.16842
-15.6313
-16.00881
-16.30127
-16.49146
-16.57096
-16.53729
-16.43336
-16.59378
-17.09511
-17.07874
-16.27276
-15.52674
-15.2743
-14.90492
-14.5757
-15.63428
-16.80832
-17.50436
-17.53451
-17.14853
-16.97989
-17.3239
-18.4149
-19.95489
-19.52904
-21.29836
-25.95406
-26.92633
-26.56471
-14.24434
-15.35474
-14.9094
-16.53662
-18.91406
-22.77979
-28.98548
-37.96517
-49.50113
-64.8004
-83.00624
-102.8004
-121.5421
-138.8113
-153.3292
-164.0084
-173.5905
-181.2398
-184.3634
-181.9342
-173.1258
-156.3435
-134.1387
-116.8155
-112.0938
-117.9639
-124.59
-123.8219
-127.8649
-129.057
-123.8493
-119.792
-105.8775
-86.87564
-89.26884
-93.77329
-98.95091
-107.8165
-111.0093
-110.283
-108.8073
-107.5579
-110.0492
-108.8659
-108.0791
-109.7316
-109.3718
-110.1165
-106.6883
-144.9583
-87.28881
-75.5932
-62.74888
-55.06791
-48.57692
-43.21799
-38.60654
-34.44177
-30.80126
-27.51903
-24.53236
-21.80529
-19.23613
-16.80805
-14.53538
-12.42907
-10.46351
-8.572751
-6.765753
-5.039331
-3.38872
-1.820565
-0.3402618
1.115395
2.541123
3.934409
5.268529
6.528342
7.744926
8.944251
10.13047
11.29581
12.40514
13.4803
14.55054
15.59952
16.63987
17.66599
18.69322
19.68118
20.68196
21.64221
22.59429
23.53105
24.46437
25.38072
26.28017
27.18244
28.10305
29.02103
29.91535
30.79462
31.6713
32.57617
33.49531
34.3991
35.30547
36.22488
37.14615
38.08125
39.01764
39.95082
40.92813
42.0045
43.10697
44.17189
45.23737
46.37715
47.80302
49.58636
51.13915
51.45864
50.00796
48.4249
47.1734
46.11707
45.10703
44.06283
43.05278
42.15378
41.31525
40.42742
39.51315
38.61919
37.7724
36.94712
36.1205
35.27884
34.43551
33.61892
32.80897
31.98031
31.15045
30.33063
29.49278
28.66411
27.81397
26.92601
26.05398
25.2013
24.34095
23.45099
22.52011
21.62018
20.68223
19.71577
18.74936
17.77699
16.76342
15.73425
14.7042
13.64877
12.53334
11.36757
10.20299
9.043553
7.835972
6.571498
5.26736
3.901754
2.482379
1.022597
-0.490002
-2.022865
-3.665271
-5.413473
-7.225594
-9.154072
-11.16843
-13.34393
-15.69283
-18.1826
-20.85245
-23.82647
-27.13006
-30.86165
-34.98061
-39.72027
-45.51676
-52.17025
-63.26999
-72.1116
51.36564
50.15958
48.6077
47.3252
46.25305
45.23863
44.18861
43.17146
42.26346
41.4175
40.52529
39.60846
38.70988
37.85726
37.02722
36.19642
35.35163
34.50429
33.68498
32.87085
32.03864
31.20645
30.38414
29.54274
28.71342
27.86032
26.9682
26.09605
25.2408
24.3786
23.4855
22.55898
21.64772
20.71243
19.74184
18.77429
17.801
16.78342
15.75342
14.72258
13.66631
12.5468
11.37794
10.21263
9.053538
7.84245
6.576395
5.271154
3.901699
2.480142
1.017924
-0.4976882
-2.029083
-3.678912
-5.431538
-7.24494
-9.181648
-11.1968
-13.38281
-15.73985
-18.23498
-20.9128
-23.90479
-27.21769
-30.96324
-35.11101
-39.88498
-45.71269
-52.48306
-63.44612
-72.33322
-87.47885
-75.8154
-63.10165
-55.28596
-48.76626
-43.36353
-38.72181
-34.5372
-30.88555
-27.58905
-24.58916
-21.85535
-19.2797
-16.84331
-14.56378
-12.44951
-10.48252
-8.587104
-6.776167
-5.046126
-3.393476
-1.820263
-0.3405918
1.116931
2.545249
3.941105
5.279327
6.540281
7.757761
8.958033
10.14581
11.31467
12.42692
13.50136
14.5742
15.62435
16.66861
17.69712
18.72175
19.72384
20.71944
21.68146
22.63629
23.57573
24.51085
25.43044
26.33252
27.23779
28.16104
29.0823
29.97908
30.86199
31.74256
32.65034
33.57447
34.48197
35.39268
36.31632
37.24266
38.18178
39.12372
40.06517
41.05095
42.13446
43.24304
44.31093
45.38558
46.54806
48.0055
49.75635
51.07568
-14.86931
-15.35104
-14.89567
-16.36729
-18.66236
-22.3695
-28.40149
-37.18555
-48.52427
-63.69845
-81.79265
-101.6028
-120.3951
-137.847
-152.4942
-163.2689
-173.0301
-180.8239
-184.2915
-182.3335
-174.1089
-158.3609
-136.7406
-118.0028
-112.0982
-117.6567
-124.9631
-124.1737
-127.4273
-128.5983
-124.7016
-120.613
-106.5842
-86.99919
-89.42023
-94.14889
-99.19297
-108.0585
-111.131
-110.304
-108.7844
-107.6193
-110.1429
-108.9452
-108.1967
-109.8811
-109.3119
-109.9348
-108.2633
-135.823
-83.11478
-76.01694
-68.55608
-65.36693
-62.49954
-59.83568
-57.11194
-54.37316
-51.80337
-49.47232
-47.37928
-45.56305
-44.23926
-43.41209
-42.75614
-41.63509
-39.77623
-37.7694
-36.45078
-35.5946
-34.71894
-33.68022
-32.63068
-31.62875
-30.63799
-29.61639
-28.55379
-27.44543
-26.31573
-25.15848
-23.95981
-22.73669
-21.47779
-20.16841
-18.83474
-17.485
-16.15106
-14.81204
-13.50093
-12.24889
-10.96441
-9.756
-8.646248
-7.590811
-6.631671
-5.759537
-4.990016
-4.356148
-3.831973
-3.411592
-3.09892
-2.942516
-2.935641
-3.09402
-3.359204
-3.744271
-4.247153
-4.858054
-5.56387
-6.352861
-7.207688
-8.101664
-9.009208
-9.929552
-10.83238
-11.68906
-12.51916
-13.31991
-14.0253
-14.64687
-15.19285
-15.65311
-16.02868
-16.31999
-16.50807
-16.58342
-16.54587
-16.44653
-16.62217
-17.11759
-17.05949
-16.24239
-15.51336
-15.2731
-14.89287
-14.60997
-15.72175
-16.89536
-17.54357
-17.52069
-17.12444
-16.94618
-17.38704
-18.56424
-20.05534
-19.69604
-21.80156
-26.48794
-27.32352
-26.10924
-116.0594
-92.59027
-96.12609
-95.69728
-93.89035
-91.52992
-92.67876
-92.03425
-90.71163
-91.15565
-92.0162
-91.90926
-94.16413
-102.1142
-112.7044
-128.3981
-135.3353
-125.5025
-105.5542
-103.0698
-114.2535
-129.6228
-143.8985
-149.863
-147.5149
-136.5324
-119.0658
-98.51573
-77.89051
-59.76966
-47.008
-41.47585
-44.45013
-53.35725
-62.98776
-70.77428
-74.88324
-77.47756
-80.06847
-79.48425
-78.43858
-84.56592
-97.3658
-114.6775
-139.0535
-174.3037
-203.702
-208.0878
-158.0284
-127.3301
-110.4277
-94.1779
-95.57926
-95.06646
-94.142
-91.63782
-92.70509
-92.19788
-90.88763
-91.29059
-92.13092
-91.94373
-94.16284
-102.1174
-112.6059
-129.1225
-136.5856
-126.1209
-105.4037
-103.3765
-116.2124
-131.7374
-145.2134
-150.6243
-148.0026
-136.7606
-119.125
-98.53244
-77.99082
-59.87516
-47.21215
-41.99578
-45.28808
-54.29906
-63.82832
-71.57568
-75.49467
-77.79277
-80.17893
-79.40407
-78.57197
-85.40956
-98.75073
-116.5201
-142.01
-178.7691
-206.8371
-209.0265
-156.6498
-125.912
-85.42426
-77.03832
-69.28763
-65.77131
-62.82469
-60.11115
-57.28444
-54.50339
-51.86889
-49.57798
-47.5262
-45.70202
-44.33984
-43.48587
-42.84278
-41.76771
-39.93635
-37.88736
-36.5047
-35.63314
-34.7634
-33.73792
-32.69291
-31.68698
-30.69175
-29.6663
-28.6011
-27.48356
-26.34154
-25.18223
-23.98864
-22.76859
-21.51236
-20.20653
-18.86968
-17.5162
-16.18203
-14.84234
-13.5219
-12.2755
-10.98674
-9.770262
-8.661178
-7.601709
-6.640251
-5.766374
-4.993142
-4.35892
-3.834966
-3.415423
-3.10247
-2.945784
-2.938229
-3.097726
-3.36179
-3.749087
-4.253749
-4.866392
-5.574904
-6.367224
-7.225241
-8.120563
-9.029339
-9.952047
-10.85371
-11.70879
-12.54439
-13.33672
-14.03653
-14.66661
-15.21543
-15.67413
-16.04836
-16.33968
-16.52723
-16.60151
-16.56605
-16.47873
-16.67048
-17.14549
-17.04569
-16.20898
-15.50908
-15.28628
-14.90624
-14.69095
-15.85733
-17.01794
-17.62107
-17.54266
-17.11786
-16.97496
-17.47133
-18.67825
-20.16491
-19.96704
-22.49446
-27.16206
-27.56009
-25.70827
-15.5627
-15.44269
-14.91367
-16.21932
-18.43345
-21.97424
-27.8117
-36.40002
-47.53819
-62.62743
-80.65521
-100.6239
-119.502
-137.2603
-152.2093
-162.9802
-173.0602
-181.2652
-184.886
-183.135
-175.4864
-160.8513
-140.4621
-120.7141
-112.4972
-117.4133
-125.7263
-124.7049
-126.3452
-127.5395
-125.5494
-121.6575
-107.6826
-87.23811
-89.6716
-94.74485
-99.62717
-108.5012
-111.3308
-110.3504
-108.7636
-107.7329
-110.2297
-109.0843
-108.4278
-110.1216
-109.2038
-109.7429
-109.8481
-129.4729
-87.59021
-75.91043
-63.40315
-55.48053
-48.94169
-43.49798
-38.83277
-34.63365
-30.95382
-27.65255
-24.64065
-21.90236
-19.32321
-16.8796
-14.59279
-12.4684
-10.50367
-8.60502
-6.790781
-5.057038
-3.402692
-1.822493
-0.3458761
1.113093
2.543272
3.941117
5.284771
6.54552
7.761575
8.962659
10.15222
11.32555
12.43962
13.51075
14.58675
15.63708
16.68511
17.7135
18.73438
19.73622
20.73715
21.7002
22.65684
23.59601
24.53253
25.45399
26.35627
27.26071
28.18659
29.11187
30.00869
30.89251
31.77243
32.6829
33.61332
34.52114
35.43158
36.36086
37.28925
38.2308
39.17591
40.12161
41.11099
42.21058
43.3295
44.39038
45.47132
46.65839
48.15611
49.86821
50.95752
51.21389
50.2546
48.74443
47.42596
46.33458
45.32264
44.26214
43.22914
42.31576
41.47445
40.57738
39.65638
38.74964
37.89455
37.06322
36.23269
35.38457
34.53246
33.71443
32.9004
32.06494
31.23173
30.41021
29.56371
28.73884
27.88399
26.98498
26.11298
25.2571
24.39565
23.49987
22.56934
21.65969
20.72825
19.75298
18.78524
17.8123
16.79041
15.76139
14.73212
13.67633
12.5515
11.37877
10.21495
9.058324
7.842705
6.575956
5.270992
3.89649
2.472765
1.008437
-0.5096898
-2.035437
-3.695965
-5.453247
-7.265914
-9.211627
-11.22248
-13.42163
-15.78592
-18.28228
-20.96401
-23.97132
-27.30756
-31.05886
-35.23097
-40.03592
-45.89322
-52.75238
-63.51379
-72.501
50.989
50.29412
48.90008
47.57955
46.4682
45.45972
44.39379
43.35465
42.43918
41.59758
40.69197
39.77085
38.85684
37.99549
37.15866
36.32698
35.4743
34.61337
33.79363
32.97567
32.13456
31.29933
30.47741
29.62269
28.80256
27.94495
27.03634
26.16625
25.30757
24.44457
23.54174
22.62607
21.70177
20.76957
19.78863
18.82091
17.84526
16.8127
15.78298
14.75614
13.70442
12.57125
11.38827
10.22499
9.075196
7.85204
6.583065
5.280303
3.898424
2.470097
0.9994477
-0.5237438
-2.035295
-3.710092
-5.472882
-7.287621
-9.248227
-11.24798
-13.46804
-15.84358
-18.34435
-21.02561
-24.05326
-27.41774
-31.17629
-35.37455
-40.21634
-46.09526
-53.0292
-63.51205
-72.69538
-87.71896
-75.90241
-63.69925
-55.68131
-49.15345
-43.66251
-38.96824
-34.74772
-31.03842
-27.7368
-24.70438
-21.95864
-19.37825
-16.92181
-14.62173
-12.48469
-10.53017
-8.626706
-6.805888
-5.064385
-3.407333
-1.817978
-0.3473109
1.114506
2.546848
3.950894
5.304293
6.561574
7.77706
8.983491
10.17517
11.3515
12.4686
13.53583
14.61764
15.66742
16.72076
17.74977
18.77485
19.79714
20.78664
21.74919
22.70995
23.65197
24.59253
25.51771
26.41985
27.327
28.2603
29.19343
30.08957
30.97638
31.85795
32.77183
33.71198
34.62168
35.53665
36.47382
37.40348
38.34744
39.29944
40.25452
41.24587
42.35385
43.47934
44.53046
45.62534
46.8355
48.32461
49.92599
50.77609
-16.35571
-15.638
-14.97923
-16.07639
-18.18408
-21.53097
-27.17775
-35.49938
-46.39545
-61.38901
-79.28975
-99.50905
-118.457
-136.4845
-151.6204
-162.2476
-172.696
-181.0423
-184.8616
-183.9012
-177.0727
-163.6518
-145.0748
-125.2833
-114.128
-117.6539
-127.1038
-125.4884
-124.8085
-126.163
-126.3344
-122.941
-109.2251
-87.55487
-90.21573
-95.75313
-100.3532
-109.296
-111.6532
-110.4573
-108.7893
-107.9126
-110.2745
-109.173
-108.8473
-110.5442
-109.0761
-109.4406
-110.7231
-123.4189
-88.44816
-78.38103
-70.23636
-66.32238
-63.26696
-60.52232
-57.74878
-54.99251
-52.34564
-49.89785
-47.75827
-45.8735
-44.45472
-43.57093
-42.93885
-41.92063
-40.12664
-38.05715
-36.62977
-35.71058
-34.82911
-33.80854
-32.76822
-31.7605
-30.76439
-29.7377
-28.67482
-27.56436
-26.42741
-25.26886
-24.05919
-22.82868
-21.5714
-20.26015
-18.92051
-17.55832
-16.22272
-14.88122
-13.54661
-12.31291
-11.01368
-9.785468
-8.680765
-7.614548
-6.650222
-5.773842
-4.994923
-4.362892
-3.839555
-3.421935
-3.109307
-2.950902
-2.94256
-3.103236
-3.365626
-3.755896
-4.263327
-4.877978
-5.588191
-6.384123
-7.248418
-8.146561
-9.056631
-9.986648
-10.88777
-11.74
-12.58431
-13.38543
-14.08791
-14.71536
-15.25185
-15.70701
-16.07948
-16.37054
-16.55636
-16.62975
-16.60254
-16.53754
-16.74061
-17.16818
-17.00161
-16.15496
-15.50603
-15.31603
-14.96586
-14.84387
-16.05192
-17.17122
-17.68747
-17.55644
-17.10867
-16.96524
-17.57598
-18.84157
-20.29382
-20.46438
-23.45512
-28.06298
-27.88853
-25.33951
-105.0799
-94.9302
-94.73774
-94.52262
-94.47119
-91.73835
-92.77432
-92.46253
-91.15498
-91.49081
-92.28523
-92.04079
-94.25617
-102.1973
-112.5361
-130.0541
-138.3195
-127.3524
-106.0017
-104.8812
-119.2388
-134.4718
-146.9624
-151.6587
-148.7433
-137.2277
-119.4126
-98.79234
-78.33327
-60.27889
-47.7873
-42.95031
-46.4992
-55.55869
-64.94019
-72.63816
-76.31455
-78.20014
-80.16761
-79.09672
-78.67228
-86.34234
-100.2403
-118.6064
-145.5602
-184.212
-211.6559
-210.3619
-155.8663
-124.2003
-99.45876
-94.56411
-93.77576
-93.78519
-94.79974
-91.8703
-92.84976
-92.87334
-91.53454
-91.63399
-92.4585
-92.3094
-94.58248
-102.2702
-112.7655
-131.4791
-140.6402
-129.6579
-108.0964
-108.4186
-123.5559
-137.9654
-149.4801
-153.2455
-149.9766
-138.2364
-120.2522
-99.48261
-78.80246
-61.10636
-48.92086
-44.57786
-48.19941
-57.06774
-66.29702
-73.92243
-77.25492
-78.67273
-79.89047
-78.34268
-78.91791
-87.82225
-101.6506
-120.6956
-150.3578
-191.2638
-216.7016
-211.9554
-155.8055
-124.0133
-91.36339
-80.42168
-71.52876
-67.14152
-63.86495
-60.98709
-58.09055
-55.21332
-52.49337
-50.0921
-47.96883
-46.06681
-44.59792
-43.66567
-43.02113
-42.04423
-40.34069
-38.28213
-36.80835
-35.816
-34.91306
-33.89104
-32.85085
-31.83922
-30.84322
-29.81314
-28.75213
-27.61652
-26.46394
-25.30499
-24.10785
-22.89249
-21.63722
-20.31658
-18.97731
-17.60335
-16.26784
-14.92516
-13.58108
-12.35836
-11.04212
-9.807022
-8.703612
-7.631949
-6.665337
-5.78686
-5.002775
-4.365489
-3.845476
-3.431715
-3.119637
-2.958221
-2.948172
-3.109705
-3.368572
-3.763987
-4.271153
-4.895527
-5.607739
-6.40648
-7.274251
-8.181565
-9.089071
-10.02764
-10.93461
-11.77379
-12.62136
-13.42758
-14.11519
-14.7447
-15.29029
-15.74164
-16.11351
-16.4077
-16.59347
-16.66734
-16.65478
-16.62345
-16.82315
-17.15994
-16.90748
-16.077
-15.50603
-15.36614
-15.0899
-15.08459
-16.32223
-17.3715
-17.81216
-17.56763
-17.10468
-17.02583
-17.69714
-18.99207
-20.53167
-21.28749
-24.77278
-29.22608
-28.43806
-25.25797
-17.3019
-16.01713
-15.13587
-15.96174
-17.89278
-20.94791
-26.55338
-34.47732
-45.06933
-59.94217
-77.63816
-97.88439
-117.1652
-135.812
-151.1673
-161.6027
-172.6956
-181.5601
-186.0658
-185.285
-179.2609
-166.9402
-150.4197
-131.3916
-118.0816
-119.1538
-129.6061
-126.6009
-123.115
-124.8197
-127.2379
-124.3838
-110.9508
-88.23308
-91.21859
-97.51936
-101.3733
-110.6183
-112.1359
-110.6933
-108.953
-108.1426
-110.1963
-109.0591
-109.5471
-110.9087
-109.0474
-109.0678
-110.5701
-117.0437
-87.67262
-75.70211
-63.93931
-55.85441
-49.40017
-43.83071
-39.09064
-34.86102
-31.14182
-27.8349
-24.75751
-22.0196
-19.44569
-16.96081
-14.65083
-12.51508
-10.57551
-8.649168
-6.81824
-5.065401
-3.414456
-1.82117
-0.3532317
1.109229
2.543776
3.964494
5.314418
6.564422
7.788764
8.996109
10.17554
11.35441
12.49002
13.549
14.63688
15.68365
16.74582
17.7783
18.80533
19.81287
20.80718
21.77406
22.7439
23.68732
24.62686
25.55016
26.45817
27.37148
28.30373
29.23431
30.1288
31.02469
31.90754
32.82398
33.77332
34.68792
35.60295
36.54079
37.47356
38.42919
39.38936
40.3551
41.34078
42.46449
43.61511
44.66301
45.78634
47.00587
48.4531
49.91177
50.52073
50.67434
50.24018
49.03146
47.74438
46.60696
45.59025
44.49886
43.44463
42.52751
41.6912
40.76123
39.83861
38.91986
38.06278
37.2159
36.38126
35.52829
34.66527
33.8509
33.02652
32.1774
31.34209
30.52045
29.65412
28.84381
27.9743
27.05689
26.1918
25.33478
24.47757
23.5623
22.62202
21.7194
20.78292
19.79679
18.84242
17.87305
16.82832
15.79613
14.76288
13.71836
12.58723
11.39513
10.22018
9.081084
7.85577
6.579138
5.279236
3.896573
2.468925
0.9889581
-0.5559786
-2.048101
-3.739716
-5.491251
-7.309046
-9.299879
-11.27223
-13.5214
-15.89566
-18.41586
-21.09717
-24.13858
-27.52544
-31.29164
-35.51827
-40.4003
-46.28735
-53.25857
-63.33732
-72.68119
50.28706
50.06324
49.10277
47.93093
46.82501
45.84014
44.69667
43.60218
42.7056
41.91065
40.97361
40.01221
39.04778
38.20129
37.37566
36.5202
35.62962
34.74782
33.96181
33.1361
32.26745
31.43943
30.62497
29.72383
28.98145
28.06761
27.1206
26.27061
25.38292
24.55623
23.62739
22.72352
21.82936
20.85328
19.81233
18.86349
17.90449
16.86259
15.85551
14.81168
13.72217
12.59152
11.44204
10.25446
9.085012
7.880027
6.602688
5.260413
3.880783
2.47163
1.024478
-0.5422783
-2.053364
-3.811709
-5.524752
-7.308602
-9.379966
-11.3032
-13.63226
-15.93852
-18.47216
-21.24703
-24.30269
-27.70234
-31.47361
-35.73767
-40.69119
-46.59965
-53.61644
-63.10279
-72.54605
-87.3526
-75.48243
-64.35695
-56.16061
-49.81143
-43.98449
-39.26559
-35.07501
-31.33973
-27.92183
-24.79532
-22.13357
-19.53211
-16.99397
-14.72431
-12.58849
-10.58872
-8.626652
-6.826211
-5.072489
-3.457887
-1.847101
-0.3318579
1.084862
2.557166
3.989055
5.287338
6.595623
7.83177
9.002617
10.1707
11.41381
12.58849
13.58107
14.68607
15.7275
16.80966
17.83874
18.85663
19.85676
20.88441
21.86912
22.83014
23.76863
24.69369
25.64602
26.57535
27.46086
28.37181
29.34616
30.27551
31.15863
32.03845
32.93729
33.91883
34.85679
35.723
36.7027
37.66967
38.60723
39.56353
40.53655
41.51084
42.68214
43.89252
44.88205
45.98506
47.14977
48.52273
49.82873
50.19182
-18.47898
-16.65734
-15.4347
-15.97073
-17.64249
-20.32377
-25.88639
-33.27755
-43.50026
-58.2942
-75.86726
-95.15043
-114.876
-135.0817
-150.5322
-160.2554
-172.5851
-181.4112
-186.2986
-186.7561
-181.9873
-170.8797
-156.2378
-138.7435
-125.2574
-122.883
-133.7804
-129.0686
-122.0615
-123.5354
-128.1512
-125.5144
-113.1134
-90.74914
-92.64248
-100.0254
-102.872
-112.6044
-112.7866
-111.1178
-109.341
-108.2877
-110.1892
-109.0494
-110.2532
-111.9182
-108.9609
-108.4746
-109.2851
-110.913
-95.63198
-83.58016
-73.59078
-68.45685
-64.84155
-61.82763
-58.85311
-55.9132
-53.14028
-50.49327
-48.29325
-46.34475
-44.83843
-43.77634
-43.07606
-42.1771
-40.5663
-38.5415
-37.04761
-35.95862
-35.03518
-34.00816
-32.96774
-31.95354
-30.96554
-29.92424
-28.87482
-27.74199
-26.58129
-25.44457
-24.23768
-22.9938
-21.70845
-20.40549
-19.07262
-17.69709
-16.34407
-15.01347
-13.6621
-12.37763
-11.10499
-9.873776
-8.726989
-7.662407
-6.693193
-5.816675
-5.044096
-4.36544
-3.851825
-3.440549
-3.127934
-2.972054
-2.953833
-3.121082
-3.366285
-3.774768
-4.272353
-4.921051
-5.649515
-6.454228
-7.302313
-8.229107
-9.139829
-10.05341
-10.9897
-11.86482
-12.6928
-13.49239
-14.18544
-14.81817
-15.36121
-15.8043
-16.17036
-16.46524
-16.64607
-16.71872
-16.72126
-16.73113
-16.90318
-17.09415
-16.74219
-15.98477
-15.52146
-15.425
-15.31121
-15.4399
-16.68753
-17.60123
-17.87499
-17.56839
-17.08852
-17.0804
-17.86577
-19.25765
-20.91755
-22.18496
-26.82782
-30.72642
-29.17377
-25.66066
-94.23917
-92.79389
-93.21432
-94.32735
-96.44911
-92.21787
-92.8689
-93.52312
-92.02799
-91.56976
-92.63065
-92.8806
-95.08115
-101.8445
-112.773
-133.2019
-143.9284
-133.4165
-112.3653
-114.3901
-129.2589
-142.4703
-153.0363
-155.1819
-151.9227
-140.024
-121.9505
-100.7483
-80.0988
-62.90918
-50.83579
-46.85509
-50.61978
-59.18481
-67.92876
-75.58556
-78.21231
-79.07968
-79.13485
-76.85228
-78.79888
-90.13001
-104.344
-124.5454
-158.4777
-202.3819
-222.9959
-212.8661
-155.7474
-126.3678
-0.02425227
-0.01306148
-1.766917
1.735522
0.3108287
-0.1420718
0.01744008
1.515233
-0.3679799
0.04819856
0.6509192
0.3524429
0.004177377
2.424819
0.02288176
2.158605
4.466156
-5.092647
1.219696
4.454188
-0.179798
1.134445
0.02779262
1.12785
-0.0527862
2.026584
1.021713
0.4202814
1.354238
-0.252302
-2.174945
-0.4162172
0.8581521
-0.01978347
1.825406
0.0643926
0.03459562
2.985439
0.02862872
2.123215
2.927151
-0.0003533357
0.5850855
0.2985389
0.1416886
3.650794
-0.002767374
0.001375351
0.01290872
3.162059
-1.315612
-0.01760574
-0.7383207
-0.02953281
1.95111
0.04545709
-1.935088
-2.626743
-5.700604
-0.01222097
0.07052092
0.6267968
-0.09590813
0.3004836
3.481958
0.002284516
-0.07255333
1.055053
9.783978
-0.2973572
0.5047024
0.06352245
2.098384
0.4494161
0.6447745
0.5036018
0.3658408
-0.1187341
-0.01740185
0.5596033
0.1848972
-0.7147365
0.1477236
-0.1043237
0.111405
0.02542978
5.051141
0.02949004
-0.2596651
-0.613424
3.393
3.8348
2.263832
0.5624052
0.2170537
-0.7098971
2.41342
1.482236
-50.68945
0.2031408
-0.1345419
5.950807
3.563973
0.1209868
-1.544281
1.650488
0.1133343
2.111944
0.09462412
1.636883
0.02791731
24.69261
0.02358168
-0.2874122
-1.121426
0.00665379
-0.1106603
-28.49116
-1.143447
0.02552809
-0.3919363
-0.3994437
-0.2307959
0.03613685
1.29765
7.3994e-05
0.002458063
0.05808741
1.083931
0.05310151
8.186876
4.073764
1.637263
-0.03427932
0.03519914
0.01180563
-1.716451
-6.157768
-3.620492
2.890293
1.685039
3.409231
1.888718
-4.031194
-0.01812042
0.1732621
1.668175
-0.3638502
0.0003455835
3.444116
0.5561917
0.06134317
-0.256724
1.555409
4.82873
1.360165
0.009364505
-0.03929236
0.002549447
-0.5442943
0.558948
1.628062
-1.287765
0.01126868
3.966401
0.00222337
-0.1041166
3.073339
-0.06917836
0.4528097
0.07358293
0.1485141
0.02078611
-1.022486
-0.3047176
0.003038005
-0.3414373
-0.08023868
-0.1142185
1.435538
-0.1019744
2.188271
-3.808275
-0.1655554
-0.4837495
-1.848126
2.474966
2.208568
4.058672
3.159308e-05
-2.267466
0.04297672
-0.5035976
0.03915562
3.766223
-0.4262679
-0.1942219
0.2563121
-2.903235
-0.3936493
2.935793
-0.236595
-0.4657504
5.101072
-0.2727261
-0.2947638
0.01368791
-1.788151
-5.148666
-0.01031778
0.01558732
0.5027705
0.01311216
2.072152
0.004926651
0.02812673
-0.2839786
-0.1639164
0.7819605
0.5655646
-2.606639
-2.290225
1.349343
0.0703015
16.05342
1.076512
0.5504057
0.05142214
-1.82501
-3.505281
0.001550602
-0.263207
-0.6369668
2.047773
0.6919028
2.253772
1.077278
1.114069
1.891878
0.03628686
-1.450596
0.1371645
0.01319599
-0.02222271
0.09219611
0.5066078
-0.4493303
-0.7544751
-1.672914
1.140806
1.150565
-135.2673
4.317417
-0.6984118
0.01264825
1.432847
-0.07969697
0.7247497
-0.219925
-0.8776021
1.036688
0.2021409
0.2020036
0.310751
2.261304
0.0346694
0.05578872
0.3716715
1.44878
0.1045979
-0.218397
0.02748007
-0.1928424
0.01369402
3.939504
2.812595
2.057652
0.04951385
0.8719182