/*--------------------------------*- C++ -*----------------------------------*\
| =========                 |                                                 |
| \\      /  F ield         | OpenFOAM: The Open Source CFD Toolbox           |
|  \\    /   O peration     | Version:  2406                                  |
|   \\  /    A nd           | Website:  www.openfoam.com                      |
|    \\/     M anipulation  |                                                 |
\*---------------------------------------------------------------------------*/
FoamFile
{
    version     2.0;
    format      ascii;
    arch        "LSB;label=32;scalar=64";
    class       surfaceScalarField;
    location    "0.22";
    object      phi;
}
// * * * * * * * * * * * * * * * * * * * * * * * * * * * * * * * * * * * * * //

dimensions      [0 3 -1 0 0 0 0];

oriented        oriented;

internalField   nonuniform List<scalar> 
326221
(
-0.002364061
-0.005544884
0.007908944
-0.001559863
-0.0008041973
0.00102175
-0.002581613
0.0006191123
0.0004026373
-0.000570757
0.001189869
-0.0007046399
0.0001338829
-0.0007614714
5.683149e-05
-0.0005513513
-0.0002101201
0.0001050887
-0.00065644
0.0006864256
-0.0005813369
0.001056579
-0.0003701534
0.001592762
-0.0005361826
0.002344327
-0.0007515657
0.002910142
-0.0005658147
0.003414308
-0.000504166
0.002951832
0.0004624764
0.001380927
0.001570905
7.22626e-05
0.001308664
0.0005710661
-0.0004988035
0.0013871
-0.0008160341
-0.0002591537
0.001646254
-0.002885991
0.002626837
-0.004552826
0.001666835
-0.005097707
0.0005448814
-0.005080369
-1.733816e-05
-0.004674357
-0.0004060119
-0.003963021
-0.0007113358
-0.003073146
-0.0008898756
-0.001913831
-0.001159315
-0.0006476442
-0.001266186
0.0006353672
-0.001283011
0.002120751
-0.001485383
0.00349203
-0.001371279
0.003781762
-0.0002897323
0.002778943
0.001002819
0.001707937
0.001071006
0.001405336
0.0003026005
0.001427789
-2.24529e-05
0.001353422
7.436721e-05
0.001587044
-0.0002336217
0.002218212
-0.000631168
0.002921867
-0.0007036555
0.003653582
-0.0007317146
0.004610575
-0.0009569938
0.005991182
-0.001380606
0.007153049
-0.001161867
0.007031931
0.0001211177
0.003371967
0.003659964
0.0002167756
0.003155191
-0.004671406
0.004888181
-0.003465717
-0.001205689
-0.002512574
-0.0009531421
-0.001880844
-0.00063173
-0.001461999
-0.0004188455
-0.001251979
-0.0002100197
-0.00115397
-9.800942e-05
-0.001145983
-7.987174e-06
-0.001179307
3.332479e-05
-0.001205307
2.599983e-05
-0.001172815
-3.249232e-05
-0.00103383
-0.000138985
-0.0007809806
-0.0002528493
-0.0005015305
-0.0002794501
-0.000294309
-0.0002072215
-0.0002299913
-6.431773e-05
-0.0003782795
0.0001482882
-0.0006224328
0.0002441533
-0.0007084364
8.60036e-05
-0.000583533
-0.0001249034
-0.0004501232
-0.0001334098
-0.0004266894
-2.343381e-05
-0.000464637
3.794763e-05
-0.0005201748
5.553779e-05
-0.0005878719
6.76971e-05
-0.0006696646
8.179275e-05
-0.0007522918
8.262711e-05
-0.0008232494
7.095762e-05
-0.000875623
5.237358e-05
-0.0009178846
4.226164e-05
-0.000953444
3.555937e-05
-0.0009790855
2.564154e-05
-0.0009964791
1.739361e-05
-0.001002483
6.003687e-06
-0.000972693
-2.978984e-05
-0.0009580058
-1.468713e-05
-0.0009346714
-2.333444e-05
-0.0009072229
-2.744847e-05
-0.0008695384
-3.768455e-05
-0.0008245408
-4.499759e-05
-0.0007844196
-4.012117e-05
-0.0007215705
-6.284911e-05
-0.000652897
-6.867353e-05
-0.0005889425
-6.395447e-05
-0.0005145328
-7.440968e-05
-0.0004388257
-7.570709e-05
-0.0003586918
-8.013392e-05
-0.0002743521
-8.43397e-05
-0.0001954625
-7.888956e-05
-0.0001145046
-8.095798e-05
-1.714546e-05
-9.73591e-05
9.960457e-05
-0.00011675
0.0002134675
-0.000113863
0.0003208151
-0.0001073475
0.0004075384
-8.672335e-05
0.0004928181
-8.527969e-05
0.0005762334
-8.341528e-05
0.0006549869
-7.875347e-05
0.0007294893
-7.450243e-05
0.0007990432
-6.955392e-05
0.0008620178
-6.29746e-05
0.0009143122
-5.229434e-05
0.0009549638
-4.065166e-05
0.0009869819
-3.201805e-05
0.001005558
-1.857654e-05
0.001009331
-3.772257e-06
0.001010024
-6.931682e-07
0.001027938
-1.791446e-05
0.001004205
2.373318e-05
0.0009655105
3.869462e-05
0.0009104974
5.501304e-05
0.0008396028
7.089459e-05
0.0007568591
8.27437e-05
0.0006685867
8.827245e-05
0.0005811862
8.74005e-05
0.0005026773
7.850891e-05
0.0004365386
6.613867e-05
0.000381967
5.457156e-05
0.0003213094
6.065763e-05
0.0001950434
0.000126266
7.575927e-05
0.0001192841
0.0001251031
-4.934387e-05
0.0003113012
-0.0001861981
0.0003329246
-2.162341e-05
0.0001181755
0.0002147491
8.100297e-05
3.717257e-05
0.0001141265
-3.312349e-05
-9.070522e-05
0.0002048317
-0.0003292636
0.0002385584
-0.0004601483
0.0001308847
-0.0004372655
-2.288282e-05
-0.0003431217
-9.414377e-05
-0.0003301656
-1.295609e-05
-0.0001713343
-0.0001588313
-6.053753e-05
-0.0001107968
-0.0002844544
0.0002239169
0.0001863347
-0.0004707891
0.001133694
-0.0009473591
0.001514819
-0.0003811257
0.001235772
0.0002790477
-0.001182548
0.00241832
-0.001158334
-2.421438e-05
-0.0007236673
-0.0004346664
-0.0002708907
-0.0004527766
0.0002462905
-0.0005171813
0.0007222874
-0.0004759968
0.001341172
-0.0006188848
0.002039162
-0.0006979895
0.002695758
-0.0006565959
0.003489547
-0.0007937899
0.004258904
-0.0007693564
0.004973018
-0.0007141139
0.005534448
-0.0005614298
0.00598501
-0.0004505625
0.006270524
-0.0002855141
0.00639463
-0.0001241054
0.006510739
-0.0001161096
0.006556776
-4.603717e-05
0.006450209
0.0001065676
0.006140283
0.0003099254
0.005465202
0.0006750819
0.004031366
0.001433835
0.001462322
0.002569044
-0.001142466
0.002604788
-0.001978829
0.0008363635
-0.00149415
-0.0004846791
-0.001359099
-0.0001350515
-0.001470559
0.0001114603
-0.0005181395
-0.0009524195
0.0004376317
-0.0009557711
3.908909e-05
0.0003985426
-0.002016559
0.002055648
-0.004013699
0.00199714
-0.003932293
-8.140592e-05
-0.002217918
-0.001714375
-0.001278221
-0.0009396977
-0.000104316
-0.001173905
0.0008121755
-0.0009164915
0.0009139348
-0.0001017593
0.0007791252
0.0001348096
0.000595547
0.0001835782
0.0005293101
6.623687e-05
0.0001881164
0.0003411938
-0.000520698
0.0007088144
-0.000225316
-0.0002953821
0.0005322402
-0.0007575562
0.0004616864
7.055384e-05
-0.00024955
0.0007112363
0.001483325
-0.001732875
0.002404212
-0.0009208867
-0.005789404
0.008193616
-0.006084586
0.0002951817
-0.005264019
-0.000820567
-0.00493767
-0.0003263483
-0.004613603
-0.0003240675
-0.004369959
-0.0002436441
-0.004147687
-0.0002222713
-0.003954508
-0.00019318
-0.003692727
-0.0002617801
-0.003559158
-0.0001335698
-0.003446366
-0.0001127918
-0.003342647
-0.0001037192
-0.003250341
-9.230545e-05
-0.003161139
-8.920269e-05
-0.003076122
-8.501642e-05
-0.002995077
-8.104481e-05
-0.002922614
-7.246357e-05
-0.002856046
-6.656814e-05
-0.002792156
-6.388942e-05
-0.002729116
-6.304034e-05
-0.002670433
-5.86824e-05
-0.002613966
-5.646699e-05
-0.00256129
-5.267643e-05
-0.002514227
-4.70634e-05
-0.002466021
-4.820526e-05
-0.002417376
-4.864531e-05
-0.002368161
-4.921546e-05
-0.002322318
-4.5843e-05
-0.002281324
-4.099409e-05
-0.002244128
-3.719521e-05
-0.002205088
-3.903996e-05
-0.002166383
-3.870558e-05
-0.002125344
-4.103905e-05
-0.002089374
-3.59702e-05
-0.002056055
-3.331812e-05
-0.002020998
-3.50577e-05
-0.001985494
-3.550367e-05
-0.001948996
-3.649766e-05
-0.001916371
-3.262578e-05
-0.001886576
-2.979412e-05
-0.001918116
3.153914e-05
-0.001902315
-1.58005e-05
-0.001880473
-2.184199e-05
-0.001858449
-2.202413e-05
-0.001839364
-1.908504e-05
-0.001819621
-1.974334e-05
-0.001802053
-1.756787e-05
-0.001786221
-1.583155e-05
-0.00177126
-1.496071e-05
-0.001753037
-1.822381e-05
-0.001734442
-1.859471e-05
-0.001719596
-1.48462e-05
-0.001707378
-1.221749e-05
-0.001697901
-9.477786e-06
-0.001684706
-1.31942e-05
-0.001668465
-1.6241e-05
-0.001654736
-1.372961e-05
-0.001643435
-1.130092e-05
-0.001629846
-1.358868e-05
-0.001618719
-1.112675e-05
-0.001606172
-1.254732e-05
-0.001592484
-1.3688e-05
-0.001579556
-1.292795e-05
-0.001565454
-1.410174e-05
-0.00153468
-3.077442e-05
-0.001493986
-4.069435e-05
-0.001454824
-3.916188e-05
-0.001402141
-5.268238e-05
-0.001324844
-7.729733e-05
-0.00116078
-0.000164064
-0.0008745871
-0.0002861929
-2.899687e-05
-0.0008455903
0.0008322193
-0.0008612162
0.001098654
-0.0002664349
0.001269115
-0.0001704608
0.001356981
-8.786582e-05
0.001416638
-5.965726e-05
0.001470176
-5.353784e-05
0.001506545
-3.636934e-05
0.001522302
-1.57565e-05
0.001535142
-1.284056e-05
0.001560036
-2.489389e-05
0.001584557
-2.452099e-05
0.001605471
-2.091415e-05
0.001619875
-1.440322e-05
0.001633567
-1.369227e-05
0.00164712
-1.355278e-05
0.001663919
-1.679898e-05
0.001679479
-1.556043e-05
0.001691426
-1.194655e-05
0.001704085
-1.26593e-05
0.001720334
-1.624891e-05
0.001735265
-1.493097e-05
0.00174962
-1.435518e-05
0.001767481
-1.786069e-05
0.001782557
-1.507684e-05
0.001803036
-2.047892e-05
0.001827056
-2.401935e-05
0.00184633
-1.92746e-05
0.001862194
-1.586343e-05
0.001880044
-1.785047e-05
0.001900718
-2.067362e-05
0.001913868
-1.315005e-05
0.001877541
3.632681e-05
0.001904703
-2.71616e-05
0.001938807
-3.410447e-05
0.001973543
-3.473545e-05
0.002008681
-3.513828e-05
0.002046496
-3.7815e-05
0.002082386
-3.589058e-05
0.002115225
-3.283889e-05
0.002150867
-3.564117e-05
0.002190791
-3.992483e-05
0.002234172
-4.338114e-05
0.002272219
-3.804615e-05
0.002308792
-3.657317e-05
0.002348035
-3.924358e-05
0.002390479
-4.24439e-05
0.00243398
-4.350107e-05
0.002482485
-4.850497e-05
0.002532966
-5.04803e-05
0.002583881
-5.091508e-05
0.002636595
-5.271434e-05
0.00268619
-4.959458e-05
0.002745087
-5.889714e-05
0.002806762
-6.167481e-05
0.002871126
-6.43649e-05
0.002940333
-6.920656e-05
0.003011966
-7.163314e-05
0.003091209
-7.924274e-05
0.003177998
-8.678949e-05
0.003266817
-8.881892e-05
0.003363263
-9.644531e-05
0.003473124
-0.0001098619
0.003602488
-0.0001293633
0.003853333
-0.0002508448
0.004037113
-0.00018378
0.004245523
-0.0002084099
0.004477861
-0.0002323382
0.004777264
-0.0002994032
0.005069304
-0.0002920397
0.00580006
-0.0007307568
0.0002551767
0.001035554
3.334306e-05
-0.001930113
0.001470876
-0.0007017574
0.001762022
-0.000461606
0.001990352
-0.0003161966
0.002171263
-0.000240568
0.002331645
-0.0002139197
0.002468744
-0.0001734681
0.002581021
-0.0001280338
0.002680792
-0.0001126117
0.002782913
-0.000127015
0.002879192
-0.0001207999
0.002970275
-0.000111997
0.003052966
-9.709408e-05
0.003132649
-9.337486e-05
0.003207906
-8.88101e-05
0.003283473
-9.23663e-05
0.003355645
-8.773243e-05
0.003423821
-8.012283e-05
0.003489604
-7.844232e-05
0.003556183
-8.282751e-05
0.003620166
-7.891436e-05
0.003681802
-7.599093e-05
0.003744968
-8.102609e-05
0.003804028
-7.413767e-05
0.003865877
-8.232754e-05
0.003928514
-8.665663e-05
0.003988768
-7.952828e-05
0.004044752
-7.184693e-05
0.00410213
-7.522908e-05
0.004159449
-7.799289e-05
0.00421407
-6.777079e-05
0.004177707
7.268953e-05
0.004243838
-9.329185e-05
0.00431315
-0.0001034168
0.0043825
-0.0001040854
0.004451791
-0.0001044296
0.004522053
-0.0001080764
0.004591653
-0.0001054908
0.004657896
-9.908235e-05
0.004726668
-0.0001044126
0.004796319
-0.0001095756
0.004870146
-0.0001172087
0.004939097
-0.0001069969
0.005008447
-0.0001059232
0.005078295
-0.0001090916
0.005151116
-0.0001152651
0.005224015
-0.0001163996
0.005301035
-0.0001255254
0.005380024
-0.0001294694
0.005459475
-0.0001303661
0.005541785
-0.0001350239
0.005621
-0.0001288099
0.005708528
-0.0001464254
0.005796689
-0.0001498355
0.005889206
-0.0001568815
0.005984142
-0.000164143
0.006083007
-0.0001704981
0.006186743
-0.0001829786
0.006298009
-0.0001980558
0.006410768
-0.0002015773
0.006531081
-0.0002167588
0.00666223
-0.0002410107
0.006809916
-0.0002770491
0.007143296
-0.0005842249
0.007344031
-0.0003845149
0.007574901
-0.0004392801
0.007825072
-0.000482509
0.008155409
-0.0006297408
0.008433118
-0.0005697488
0.009274556
-0.001572195
0.008399911
0.001129822
-0.009598867
0.008757915
0.001136133
-0.008660661
-0.001758773
-0.00835204
-0.0006349693
-0.007998012
-0.0006780956
-0.007735272
-0.0005063833
-0.007489519
-0.0004680246
-0.007278438
-0.0004042612
-0.006932165
-0.0006080531
-0.006778318
-0.0002874163
-0.006642243
-0.0002488669
-0.006513602
-0.0002323601
-0.006395419
-0.0002104889
-0.006279453
-0.0002051686
-0.006168901
-0.0001955684
-0.006060674
-0.0001892715
-0.005960931
-0.0001722063
-0.005864058
-0.0001634417
-0.005771511
-0.0001564361
-0.005678589
-0.0001559628
-0.005590693
-0.000146578
-0.005503689
-0.0001434716
-0.005420433
-0.0001359324
-0.005340966
-0.0001265296
-0.005261185
-0.0001279863
-0.005182234
-0.0001275971
-0.005102859
-0.0001285898
-0.005026996
-0.0001217061
-0.004953223
-0.000114767
-0.004883144
-0.0001072742
-0.004810178
-0.0001120062
-0.004739428
-0.0001094551
-0.004665699
-0.0001147685
-0.004596482
-0.0001051876
-0.004527523
-0.000102277
-0.004457825
-0.0001047549
-0.004387296
-0.0001060326
-0.00431617
-0.000107624
-0.004247475
-0.0001013212
-0.004179694
-9.757475e-05
-0.004213629
6.547425e-05
-0.004158806
-7.06235e-05
-0.004102519
-7.812936e-05
-0.004044817
-7.972603e-05
-0.00398983
-7.407172e-05
-0.003932433
-7.714115e-05
-0.003876716
-7.328474e-05
-0.003820071
-7.247596e-05
-0.00376351
-7.152224e-05
-0.003703283
-7.845047e-05
-0.003642355
-7.952303e-05
-0.00358236
-7.484056e-05
-0.003521677
-7.290076e-05
-0.003460693
-7.04618e-05
-0.00339433
-7.955689e-05
-0.003324558
-8.601369e-05
-0.003253411
-8.487606e-05
-0.003181335
-8.337705e-05
-0.003103281
-9.164327e-05
-0.003024059
-9.034873e-05
-0.002938364
-9.824218e-05
-0.002847154
-0.0001048975
-0.002749929
-0.0001101531
-0.00264553
-0.0001185007
-0.002521323
-0.0001549818
-0.002383164
-0.000178853
-0.00223479
-0.0001875358
-0.002056176
-0.0002312966
-0.001835285
-0.0002981878
-0.001542279
-0.0004570703
-0.00108511
-0.0007433617
-0.001897357
-0.001720811
0.001272193
0.0004244029
-0.001285483
-0.0008699937
-0.0006426629
-0.001095597
-1.592185e-05
-0.001143922
0.0006118698
-0.001103789
0.001394981
-0.001401996
0.002276689
-0.001579698
0.003125704
-0.001505611
0.004126701
-0.001794787
0.005126401
-0.001769056
0.006087809
-0.001675522
0.00689297
-0.001366591
0.007580351
-0.001137944
0.008089917
-0.0007950797
0.008410133
-0.0004443216
0.008703744
-0.0004097201
0.008925023
-0.0002673166
0.009036211
-4.620585e-06
0.009044832
0.0003013049
0.00888422
0.0008356943
0.008241647
0.002076408
0.005965737
0.004844953
0.001265615
0.00730491
-0.002424158
0.004526137
-0.002915271
6.433792e-06
-0.002636208
-0.0004141145
-0.002699773
0.000175025
-0.001606352
-0.00204584
-0.0001586662
-0.002403457
-0.001428919
0.001668795
-0.004866526
0.005493255
-0.00597667
0.003107284
-0.004706187
-0.001351889
-0.002642575
-0.003777987
-0.001430773
-0.002151499
-2.456252e-05
-0.002580115
0.001076831
-0.002017885
0.001264496
-0.0002894247
0.001188461
0.0002108447
0.00102456
0.0003474793
0.0009057248
0.0001850717
0.0001344903
0.001112428
-0.0006778611
0.001521166
4.719093e-05
-0.001020434
0.0008988894
-0.001609255
0.001069372
-9.992863e-05
0.001123833
0.0006567751
0.002549909
-0.003158951
0.0008442468
0.0007847755
0.01779578
-0.004246144
0.004391804
-0.001351349
-0.0033448
-0.001854486
-0.00248101
-0.00149552
-0.001959817
-0.0009400389
-0.001651471
-0.0005183654
-0.001504201
-0.0002452788
-0.001510662
-1.526189e-06
-0.001618644
0.0001413066
-0.001699361
0.0001067166
-0.001649178
-8.26751e-05
-0.001453516
-0.0003346472
-0.001145357
-0.0005610082
-0.0008019859
-0.0006228213
-0.0005036301
-0.0005055772
-0.000352433
-0.0002155148
-0.0004799046
0.0002757598
-0.000808487
0.0005727357
-0.0009887891
0.0002663057
-0.0009062077
-0.0002074848
-0.000825765
-0.0002138525
-0.0008919743
4.277547e-05
-0.001084122
0.0002300949
-0.001331183
0.0003025994
-0.001549709
0.0002862229
-0.001716407
0.0002484908
-0.001835533
0.0002017528
-0.001914394
0.0001498193
-0.001959631
9.761013e-05
-0.001983927
6.655738e-05
-0.001992051
4.368377e-05
-0.001982854
1.644487e-05
-0.001959406
-6.054713e-06
-0.001923778
-2.962461e-05
-0.001836026
-0.0001175413
-0.001779359
-7.135477e-05
-0.001711028
-9.166474e-05
-0.001636926
-0.0001015507
-0.001551379
-0.0001232322
-0.001455844
-0.0001405322
-0.001363049
-0.0001329159
-0.001246311
-0.0001795874
-0.001124533
-0.0001904517
-0.001007503
-0.0001809843
-0.0008791753
-0.0002027373
-0.0007498619
-0.0002050204
-0.0006150603
-0.0002149355
-0.0004736341
-0.0002257659
-0.0003354934
-0.0002170303
-0.0001910582
-0.0002253932
-2.30416e-05
-0.0002653757
0.0001693588
-0.0003091504
0.0003574119
-0.0003019162
0.0005372787
-0.0002872143
0.0006899957
-0.0002394403
0.000836925
-0.000232209
0.0009797116
-0.0002262019
0.001117504
-0.0002165458
0.001250108
-0.0002071067
0.001376147
-0.0001955922
0.001494395
-0.0001812227
0.001601618
-0.0001595174
0.001696273
-0.0001353068
0.001780343
-0.0001160881
0.001848601
-8.683436e-05
0.001898596
-5.376712e-05
0.001938472
-4.05699e-05
0.002010978
-9.04197e-05
0.002024926
9.784433e-06
0.002022752
4.08692e-05
0.001999467
7.829766e-05
0.001952317
0.0001180451
0.001879024
0.000156036
0.001775563
0.0001917339
0.001630537
0.000232426
0.001436234
0.0002728126
0.001215863
0.0002865093
0.001006563
0.000263872
0.000776722
0.0002904984
0.0004819606
0.0004210274
0.0002792632
0.0003219815
0.0003508768
-0.0001209574
0.0006713602
-0.0005066815
0.0009300341
-0.0002802973
0.0007559383
0.0003888449
0.0003771358
0.0004159751
-2.359246e-05
0.0003676047
-0.0004022805
0.0005835197
-0.0006379457
0.0004742236
-0.0006930821
0.0001860211
-0.0005374496
-0.0001785153
-0.0002755863
-0.000356007
-0.0003558163
6.727387e-05
-0.0005685879
5.394033e-05
-0.0006569511
-2.24336e-05
-0.0006456316
0.0002125973
0.0002819051
-0.001398326
0.001374764
-0.002040218
0.001945837
-0.0009521992
0.001597395
0.0006274903
0.005287908
-0.001081605
0.01739046
-0.002451078
0.0005652754
0.0005463501
-0.005579041
0.0005609711
0.0003880164
-0.001062226
0.002813067
-0.001215105
0.000286761
-0.001188093
2.981974e-05
-0.0008800558
-0.000518157
-3.793059e-05
-0.001498565
0.0007521097
-0.001371377
0.001290281
-0.0009083243
0.002022438
-0.00126834
0.003034602
-0.001763729
0.003889041
-0.001420254
0.00483448
-0.001449605
0.004989293
0.0003076634
0.003659632
0.002900567
0.001835529
0.003132766
0.001653531
-0.0003168055
0.0004746091
0.0003628881
-0.003180749
0.005301612
-0.006114357
0.005560445
-0.006920114
0.002472592
-0.006914334
0.0005391012
-0.00665862
-0.0002730523
-0.006039908
-0.001024724
-0.005058434
-0.00169281
-0.003882221
-0.002066088
-0.002394777
-0.002646758
-0.0007667708
-0.002894193
0.0008711792
-0.002920961
0.00258308
-0.003197284
0.004247467
-0.003035665
0.005622707
-0.001664972
0.005805605
0.0008199206
0.004443035
0.002433576
0.002874882
0.001870753
0.002132005
0.0007204245
0.002152978
5.339415e-05
0.002895198
-0.0009758421
0.004011415
-0.001747385
0.004996717
-0.001688957
0.005821726
-0.001556724
0.006786405
-0.001921672
0.008154265
-0.002748467
0.009066404
-0.002074006
0.009356155
-0.0001686341
0.007058209
0.005957911
0.002791214
0.007422187
0.0120712
0.0008756539
-0.01064722
0.02716203
-0.002809073
0.004250002
-0.0007417105
-0.007646403
-0.000502067
0.0001483729
-0.001722573
0.004033573
-0.001652246
0.0002164339
-0.00162417
1.743887e-06
-0.00123534
-0.000906987
-0.0002492419
-0.002484664
0.0006586472
-0.002279266
0.001302677
-0.001552354
0.00214797
-0.002113634
0.003344766
-0.002960525
0.004408068
-0.002483556
0.005585055
-0.002626592
0.006019059
-0.0001263406
0.005077298
0.003842327
0.003213303
0.004996761
0.001732634
0.001163863
-0.001763074
0.003858596
-0.006114309
0.009652847
-0.007999456
0.007445592
-0.008375528
0.002848665
-0.008487681
0.0006512535
-0.008209449
-0.0005512843
-0.007454249
-0.001779924
-0.006267775
-0.002879284
-0.004852906
-0.003480957
-0.00305878
-0.004440884
-0.001076762
-0.004876212
0.0009585442
-0.004956267
0.003081938
-0.005320679
0.004961752
-0.004915479
0.006626866
-0.003330086
0.007684725
-0.0002379385
0.006964479
0.003153821
0.004944304
0.003890928
0.003323026
0.002341702
0.002906418
0.0004700025
0.003734977
-0.001804401
0.00512579
-0.003138198
0.006408557
-0.002971724
0.00752024
-0.002668407
0.008731244
-0.003132676
0.01020952
-0.004226742
0.01108974
-0.002954223
0.01115277
-0.0002316654
0.008800663
0.008310016
0.003404408
0.01281844
-0.004549002
0.02002461
-0.005343875
-0.0005564771
-0.004297428
-0.002900933
-0.003249523
-0.002543425
-0.002576859
-0.001612703
-0.002193409
-0.0009018154
-0.00200438
-0.0004343083
-0.001941147
-6.475853e-05
-0.001960014
0.0001601731
-0.001974423
0.0001211262
-0.001918365
-0.0001387337
-0.001777477
-0.0004755346
-0.001507283
-0.0008312028
-0.001145179
-0.0009849248
-0.0007888218
-0.0008619348
-0.0005772541
-0.0004270825
-0.000648863
0.0003473687
-0.0009445879
0.0008684606
-0.001208338
0.0005300557
-0.001369836
-4.598641e-05
-0.001570102
-1.35867e-05
-0.001819953
0.0002926264
-0.002094939
0.0005050809
-0.002354933
0.0005625934
-0.002538671
0.0004699606
-0.002644783
0.0003546028
-0.002698131
0.0002551011
-0.002717454
0.000169142
-0.002711595
9.175087e-05
-0.002691726
4.668857e-05
-0.002661348
1.330651e-05
-0.002617776
-2.712739e-05
-0.00256392
-5.991075e-05
-0.002498632
-9.491326e-05
-0.002373452
-0.0002427207
-0.002287202
-0.0001576045
-0.002188435
-0.0001904319
-0.002084528
-0.0002054583
-0.001968835
-0.0002389245
-0.001841681
-0.0002676866
-0.001718607
-0.0002559903
-0.001569425
-0.0003287695
-0.001415806
-0.0003440699
-0.001268333
-0.0003284578
-0.001107951
-0.0003631193
-0.0009465054
-0.0003664658
-0.0007777418
-0.0003836991
-0.0005996564
-0.0004038514
-0.0004239224
-0.0003927643
-0.0002398911
-0.0004094245
-2.951357e-05
-0.0004757532
0.0002075742
-0.0005462382
0.0004390952
-0.0005334371
0.0006612393
-0.0005093584
0.000851307
-0.000429508
0.001034244
-0.0004151461
0.001212245
-0.000404203
0.001385272
-0.0003895725
0.001552678
-0.000374513
0.001712574
-0.0003554878
0.001863825
-0.0003324739
0.002003295
-0.0002989879
0.002129555
-0.0002615668
0.002245019
-0.0002315512
0.002343861
-0.0001856763
0.002423738
-0.0001336448
0.002492162
-0.0001089934
0.002598979
-0.0001972373
0.002638969
-3.020482e-05
0.002665475
1.436299e-05
0.00267665
6.712295e-05
0.002670975
0.00012372
0.002646605
0.0001804056
0.002597589
0.0002407504
0.002505763
0.0003242516
0.002341015
0.0004375603
0.002078462
0.0005490629
0.001722854
0.0006194793
0.001287082
0.0007262703
0.0008196526
0.0008884571
0.0005353987
0.0006062354
0.0006073471
-0.0001929058
0.0009358907
-0.0008352251
0.001314997
-0.0006594037
0.001308259
0.0003955829
0.0007290692
0.000995165
-6.147968e-05
0.001158154
-0.0005854068
0.001107447
-0.0008113613
0.0007001781
-0.0008719814
0.0002466412
-0.0006584481
-0.0003920487
-0.0002422463
-0.0007722088
-0.0003521024
0.0001771301
-0.0008428382
0.0005446761
-0.0009875039
0.0001222322
-0.000674984
-9.992258e-05
0.0005883658
-0.002661676
0.001798625
-0.003250477
0.002356707
-0.001510281
0.00166202
0.001322177
-0.001537765
0.008487693
-0.002230271
0.001116909
-0.001720566
-0.001379699
-0.0009577594
-0.001858403
-0.0001932461
-0.001908436
0.0005900314
-0.001887066
0.001516513
-0.002328477
0.002578341
-0.002641526
0.003607935
-0.002535205
0.004814993
-0.003001846
0.006029926
-0.002983989
0.007211561
-0.002857157
0.008197629
-0.002352659
0.009039753
-0.001980067
0.009664888
-0.001420216
0.01004571
-0.0008251424
0.01039946
-0.0007634662
0.01065844
-0.0005263023
0.01076616
-0.000112339
0.01073519
0.0003322768
0.01054568
0.001025205
0.01023193
0.002390157
0.009225854
0.005851027
0.005128517
0.01140225
-0.0007806924
0.01043535
-0.003741446
0.002967187
-0.003895182
-0.0002603788
-0.004056363
0.0003362063
-0.003246153
-0.00285605
-0.002650404
-0.002999206
-0.004552269
0.00357066
-0.007009014
0.00795
-0.00685985
0.00295812
-0.005146574
-0.003065164
-0.002780854
-0.006143708
-0.001238919
-0.003693434
0.0002582989
-0.004077333
0.001472101
-0.003231686
0.001692139
-0.0005094628
0.001607776
0.0002952072
0.001391206
0.0005640499
0.001052407
0.0005238705
-4.601281e-05
0.002210848
-0.0006419975
0.00211715
0.0004465524
-0.002108984
0.001395801
-0.002558504
0.001625244
-0.0003293713
0.002011347
0.0002706718
0.002742367
-0.00388997
-0.001171725
0.004698867
-0.01105774
0.02768179
-0.0118194
0.001897796
-0.01087795
-0.002700219
-0.01048371
-0.00102921
-0.01009044
-0.001071372
-0.009797356
-0.0007994629
-0.009526479
-0.0007389015
-0.009299245
-0.0006314957
-0.008901638
-0.00100566
-0.008733554
-0.0004555009
-0.008580654
-0.000401766
-0.008435444
-0.0003775702
-0.008300886
-0.0003450474
-0.008167962
-0.0003380922
-0.008040959
-0.0003225719
-0.007915518
-0.0003147117
-0.007798711
-0.0002890135
-0.007683673
-0.0002784801
-0.007573315
-0.0002667942
-0.007461797
-0.000267481
-0.007355629
-0.0002527454
-0.007249607
-0.0002494938
-0.00714708
-0.0002384595
-0.007048016
-0.0002255933
-0.006948367
-0.0002276352
-0.006849993
-0.0002259711
-0.006750908
-0.0002276751
-0.006655314
-0.0002172998
-0.006560725
-0.0002093565
-0.006469801
-0.000198198
-0.006374988
-0.0002068189
-0.006283274
-0.0002011699
-0.006187613
-0.0002104289
-0.006096612
-0.0001961885
-0.006004817
-0.0001940719
-0.005912047
-0.0001975248
-0.005818276
-0.0001998043
-0.005723309
-0.0002025911
-0.00562925
-0.0001953795
-0.005533232
-0.0001935936
-0.005559069
9.131186e-05
-0.005473217
-0.0001564753
-0.005393515
-0.0001578316
-0.005310695
-0.0001625458
-0.00523111
-0.0001536574
-0.005147957
-0.0001602942
-0.005066543
-0.0001546981
-0.004983342
-0.0001556771
-0.004900146
-0.0001547179
-0.004812642
-0.0001659548
-0.004724348
-0.000167817
-0.004636673
-0.0001625156
-0.004547354
-0.0001622195
-0.004457369
-0.0001604468
-0.004361193
-0.0001757331
-0.004261273
-0.0001859339
-0.004159863
-0.0001862857
-0.00405717
-0.0001860706
-0.003947042
-0.0002017709
-0.003835946
-0.0002014444
-0.003717357
-0.0002168314
-0.003593086
-0.0002291686
-0.00346196
-0.0002412793
-0.003323054
-0.0002574065
-0.003160529
-0.000317507
-0.002983664
-0.000355718
-0.002798519
-0.0003726806
-0.002577932
-0.0004518841
-0.002307235
-0.0005688849
-0.001934839
-0.0008294657
-0.001254432
-0.001423769
-4.338615e-05
-0.003108403
0.001185088
-0.003158587
0.001840713
-0.001357383
0.00220581
-0.0008267029
0.002484602
-0.0005949887
0.002707706
-0.0004636718
0.002909622
-0.0004158357
0.00308676
-0.0003506061
0.003234939
-0.0002762122
0.003367083
-0.000244756
0.003502692
-0.0002626238
0.003631569
-0.0002496773
0.003755527
-0.0002359544
0.003869471
-0.0002110389
0.00398025
-0.000204154
0.004085705
-0.0001942647
0.004191819
-0.0001984804
0.004294483
-0.0001903968
0.004392634
-0.0001782738
0.004487982
-0.0001737904
0.004584172
-0.0001790175
0.004677505
-0.000172247
0.004767806
-0.0001662923
0.004860151
-0.000173371
0.004946957
-0.0001609434
0.005036472
-0.0001718427
0.005126538
-0.0001767224
0.005214385
-0.0001673754
0.005297482
-0.0001549435
0.005382095
-0.0001598427
0.005465127
-0.0001610249
0.005553339
-0.0001559829
0.005528157
9.787181e-05
0.005624316
-0.0001894512
0.005720834
-0.0001999346
0.005815328
-0.0001985794
0.005908925
-0.0001980265
0.006002829
-0.0002019803
0.006096052
-0.000198714
0.00618512
-0.0001881496
0.006276425
-0.0001957181
0.006366989
-0.0002001397
0.006462121
-0.0002123402
0.006551612
-0.0001964884
0.006641804
-0.0001961147
0.006731537
-0.0001988245
0.006823991
-0.0002077194
0.006915564
-0.0002079726
0.007010965
-0.0002209268
0.007107938
-0.0002264415
0.007204906
-0.0002273349
0.00730532
-0.0002354381
0.007401405
-0.000224894
0.007506263
-0.0002512839
0.007610363
-0.0002539359
0.007719154
-0.0002656723
0.007829708
-0.0002746971
0.00794405
-0.0002848397
0.008062672
-0.0003016004
0.008188917
-0.0003243011
0.0083162
-0.0003288599
0.008450941
-0.0003515001
0.008597113
-0.0003871823
0.008756874
-0.0004368105
0.009138442
-0.0009657934
0.009352731
-0.0005988038
0.009605011
-0.0006915601
0.009882763
-0.0007602605
0.01025048
-0.0009974545
0.01060556
-0.0009248354
0.01145451
-0.002421143
0.001937113
0.001246002
5.200699e-05
-0.004456596
0.002065042
-0.002176422
0.002519655
-0.001281316
0.002861928
-0.0009372618
0.003142661
-0.0007444048
0.003397038
-0.000670213
0.003619729
-0.0005732971
0.003808287
-0.0004647696
0.003976607
-0.0004130766
0.004147688
-0.0004337052
0.004309601
-0.00041159
0.004465404
-0.0003917568
0.004609179
-0.0003548143
0.004748411
-0.0003433863
0.004881073
-0.0003269262
0.005013596
-0.0003310035
0.005142308
-0.0003191088
0.005264889
-0.0003008547
0.005384343
-0.0002932446
0.005504227
-0.0002989012
0.005620631
-0.0002886511
0.005733239
-0.0002789009
0.005848406
-0.0002885375
0.005956408
-0.000268945
0.006067754
-0.0002831893
0.006179795
-0.0002887633
0.006288654
-0.0002762347
0.006392587
-0.0002588762
0.006497794
-0.0002650493
0.006601159
-0.0002643905
0.006711939
-0.0002667626
0.006687741
0.0001220701
0.006804689
-0.0003063992
0.006924286
-0.0003195319
0.007040034
-0.0003143271
0.007154719
-0.0003127116
0.007269846
-0.0003171071
0.007383749
-0.0003126174
0.007492801
-0.0002972016
0.007604204
-0.0003071206
0.007714663
-0.0003105988
0.007830296
-0.0003279738
0.007939119
-0.0003053112
0.008048658
-0.0003056531
0.008157753
-0.0003079204
0.008269589
-0.0003195551
0.008380247
-0.0003186301
0.008495466
-0.0003361464
0.008612158
-0.0003431337
0.008728851
-0.0003440275
0.008849686
-0.0003562731
0.008964718
-0.0003399259
0.009090866
-0.0003774315
0.009215156
-0.0003782258
0.009344831
-0.0003953473
0.00947695
-0.000406817
0.009612438
-0.0004203278
0.009753812
-0.0004429735
0.009903347
-0.0004738365
0.01005391
-0.0004794276
0.01021327
-0.0005108596
0.01038629
-0.0005601934
0.01079607
-0.0008465954
0.01102942
-0.001199138
0.01128063
-0.0008500182
0.0115799
-0.0009908329
0.01191974
-0.001100101
0.01235717
-0.001434886
0.0128584
-0.001426056
0.013645
-0.003207751
0.01313963
0.002442483
-0.0140707
0.01360963
0.002358865
-0.01318734
-0.003583581
-0.01263638
-0.001580168
-0.01216972
-0.00153803
-0.01181216
-0.00115703
-0.01148919
-0.001061865
-0.01122158
-0.0008991107
-0.01097223
-0.001255011
-0.0105471
-0.0008806279
-0.01036611
-0.0005827596
-0.01019356
-0.0005501215
-0.01003378
-0.0005048195
-0.009875772
-0.0004961037
-0.00972446
-0.0004738838
-0.009574988
-0.0004641831
-0.009435116
-0.0004288854
-0.00929763
-0.0004159669
-0.009165291
-0.0003991325
-0.009031518
-0.0004012543
-0.008903907
-0.0003803562
-0.008776629