/*--------------------------------*- C++ -*----------------------------------*\
| =========                 |                                                 |
| \\      /  F ield         | OpenFOAM: The Open Source CFD Toolbox           |
|  \\    /   O peration     | Version:  2406                                  |
|   \\  /    A nd           | Website:  www.openfoam.com                      |
|    \\/     M anipulation  |                                                 |
\*---------------------------------------------------------------------------*/
FoamFile
{
    version     2.0;
    format      ascii;
    arch        "LSB;label=32;scalar=64";
    class       volVectorField;
    location    "0.36";
    object      U;
}
// * * * * * * * * * * * * * * * * * * * * * * * * * * * * * * * * * * * * * //

dimensions      [0 1 -1 0 0 0 0];

internalField   nonuniform List<vector> 
4541
(
(0.01003633 -7.93212e-05 1.114648e-23)
(0.01055851 -0.0005769901 -3.308683e-24)
(0.01101524 -0.001500066 0)
(0.01087863 -0.001469204 0)
(0.01031296 -0.0006692118 -3.137103e-24)
(0.009465863 -0.000950634 0)
(0.01022285 -0.0008079047 9.932362e-24)
(0.01024934 -0.0006524961 -2.430801e-23)
(0.009330739 -0.0005989245 1.452773e-23)
(0.01129958 3.479789e-05 3.908304e-24)
(0.009403671 -0.001102241 1.655884e-23)
(0.01033007 -0.001109219 -9.603017e-24)
(0.01098909 -0.0005168843 7.01005e-24)
(0.01000475 -0.0004459793 1.877384e-24)
(0.01091824 -0.001648884 0)
(0.01132065 0.0005070123 -1.237542e-27)
(0.01028684 0.001317748 2.096698e-24)
(0.009511031 0.001437562 -1.181322e-24)
(0.010022 0.001419993 -7.198464e-24)
(0.01050374 -0.002076401 3.729505e-24)
(0.01055489 -0.0001254337 0)
(0.01048393 -0.0008694334 -1.132201e-23)
(0.01107792 0.0005598118 0)
(0.008419133 -0.000617762 4.215081e-23)
(0.01055952 -0.001649843 0)
(0.01023196 -0.0006883917 7.679242e-24)
(0.01002276 -0.0005535771 -4.682512e-24)
(0.01018621 -0.0005378767 4.635301e-24)
(0.009356874 -0.0004088762 5.297491e-24)
(0.01103631 -0.0006150796 0)
(0.01006178 -0.0004331128 -2.03988e-23)
(0.01000757 -0.0004813369 -2.218179e-24)
(0.01119655 3.020441e-05 -1.667076e-24)
(0.009692708 -0.0005818565 -8.452803e-24)
(0.01070827 -0.00114332 0)
(0.01070914 -0.0001395002 0)
(0.01099759 -0.001415684 0)
(0.01122448 -0.0008919479 -1.347441e-24)
(0.009958655 -0.0004662066 -3.67849e-23)
(0.009076338 0.001536987 3.364038e-24)
(0.01076237 -0.000166341 0)
(0.00918365 -0.0004449516 -1.090936e-23)
(0.01070843 -0.0005252741 -2.444083e-24)
(0.01095888 0.0001118176 -5.053976e-25)
(0.01106903 -0.0004501153 6.581084e-24)
(0.01130144 1.036751e-05 -4.216233e-24)
(0.01118953 -0.0008115927 6.028469e-24)
(0.008668521 0.00157519 0)
(0.0107209 -0.001802666 0)
(0.01011348 -0.0006761882 1.16642e-25)
(0.009910779 -0.0009120095 0)
(0.01084166 0.0003162663 0)
(0.0103469 0.001074544 5.839624e-25)
(0.01006004 -0.0006655198 2.94636e-24)
(0.01073539 0.001089488 -9.400062e-25)
(0.009850368 -0.001417006 2.156667e-23)
(0.0100177 -0.0001565804 6.503832e-24)
(0.009688888 -0.0001752893 2.319312e-24)
(0.01118019 0.000525936 3.88642e-24)
(0.01071252 -0.001009622 4.754951e-24)
(0.009945563 -0.000608009 0)
(0.01075336 -0.0008024141 0)
(0.0102535 0.00115095 0)
(0.006840788 -0.001845496 -8.825535e-24)
(0.009262019 -0.001272447 4.995387e-23)
(0.009552322 -0.002417708 -8.451994e-24)
(0.009845332 -0.0005790665 -9.494102e-24)
(0.01114154 -0.0003484816 1.16591e-23)
(0.01095179 0.0004817412 -8.576159e-25)
(0.009897857 0.0008034129 0)
(0.01066902 0.00111642 2.889101e-24)
(0.01144362 0.0002681141 4.426629e-25)
(0.01016583 -0.0007194974 0)
(0.01155726 -0.0002801601 9.893099e-25)
(0.00957313 -0.0004262329 2.621792e-23)
(0.011566 -0.0003279695 8.807903e-25)
(0.01003938 0.001207436 -1.379628e-24)
(0.008613552 0.00158913 -5.397835e-25)
(0.01128309 -0.001280154 2.478092e-24)
(0.009838956 -0.0002391757 -1.99442e-23)
(0.01069083 0.0006068141 0)
(0.01108728 -0.001542324 -2.997367e-24)
(0.009816312 -0.0008407041 1.986574e-25)
(0.01135533 -0.00045572 4.717371e-24)
(0.01002552 -0.0002620508 0)
(0.01056581 -0.00120288 7.554145e-24)
(0.01077691 -0.001001699 0)
(0.01015437 0.000428374 1.440072e-23)
(0.01041021 0.00128816 -2.458717e-24)
(0.01137423 0.0004486585 0)
(0.01008147 -0.0001444618 -1.226595e-23)
(0.009690708 0.001027954 -9.422421e-24)
(0.008874167 0.00150717 0)
(0.01020948 0.001324012 0)
(0.01012454 -0.001015856 1.949229e-23)
(0.008535109 0.001627246 5.135117e-24)
(0.01044612 -0.001740229 6.87727e-24)
(0.01065571 -0.0005622053 -5.349406e-24)
(0.01042403 -0.0006790579 -1.867591e-23)
(0.01038882 -0.001004536 -4.464445e-24)
(0.01013494 -0.001330986 1.099729e-23)
(0.01057271 -0.0001564852 0)
(0.009690435 -0.0005263832 -8.310157e-24)
(0.01132373 -0.0002897805 -1.52165e-24)
(0.01083368 0.00010461 4.397262e-24)
(0.009924152 -0.001300761 -3.796965e-23)
(0.008847393 0.001448127 3.517308e-24)
(0.01087669 -0.000273763 -1.501468e-23)
(0.01083721 -0.0007692023 -6.522548e-24)
(0.01143466 -0.0006044621 -2.406129e-24)
(0.01037996 -0.0005918931 4.279874e-24)
(0.009985581 -0.0001579877 -2.305132e-23)
(0.01113965 6.539409e-05 0)
(0.01079559 0.0005380549 -4.65557e-25)
(0.009855952 -0.0004495158 5.061007e-26)
(0.009869859 -0.001649582 -1.697278e-23)
(0.01006801 -0.0008770788 0)
(0.01044312 0.001271783 0)
(0.009975132 -0.0008179817 2.415672e-23)
(0.00915167 -0.0006365025 2.01369e-23)
(0.01084361 0.0001825396 3.386631e-24)
(0.01091027 0.0004664527 0)
(0.009041938 -0.002174624 -1.549817e-23)
(0.01133561 9.369941e-05 4.428788e-24)
(0.01059155 0.001059012 1.163184e-24)
(0.01079978 -0.0007078228 0)
(0.008195131 -0.001762294 0)
(0.007758731 -0.002213626 2.566942e-23)
(0.01051426 -0.0006458459 -1.581285e-24)
(0.00922743 -0.001215114 3.568639e-25)
(0.009552717 -0.0006202553 9.980824e-24)
(0.01044694 -0.001281075 7.086505e-24)
(0.01009667 -0.0007328344 2.354828e-23)
(0.01085106 -0.0007028901 -7.58495e-24)
(0.01036464 -0.002164632 -2.329651e-24)
(0.006940499 -0.001263043 0)
(0.0113524 -6.52033e-06 2.758292e-24)
(0.01018402 -0.0006357099 -8.39894e-26)
(0.009254914 -0.001840485 5.740313e-24)
(0.01115402 -0.0004659839 -3.77183e-24)
(0.01012556 -0.0006689074 8.602945e-24)
(0.01000529 0.001412436 1.866622e-24)
(0.009309926 -0.0008182366 -1.531485e-23)
(0.01023043 0.001104549 -1.084461e-24)
(0.01087893 -0.0009222809 -4.895435e-24)
(0.00909172 -0.001845131 4.137847e-24)
(0.009107944 -0.0008281115 -1.301272e-23)
(0.009975486 -0.0003747584 0)
(0.01101492 -0.0005170282 0)
(0.00979203 -0.0004319024 -5.548481e-24)
(0.01063486 0.000844881 1.722794e-26)
(0.01120157 -0.001381066 -4.689383e-24)
(0.01007241 -0.001060811 0)
(0.01066178 -0.001606798 7.482268e-26)
(0.01029393 -0.0006870897 -7.008966e-24)
(0.009399061 -0.0006014213 0)
(0.009359043 -0.0009411098 8.175767e-24)
(0.009313415 0.001569385 -9.168394e-24)
(0.009996535 -2.42134e-05 -1.445744e-23)
(0.01128187 -0.0007281653 4.411281e-24)
(0.01005379 -0.0009001752 -1.771055e-23)
(0.01038419 -0.0009308929 -1.02417e-24)
(0.008918658 -0.001281056 -2.533046e-25)
(0.010245 0.001306431 9.805984e-24)
(0.01128237 -0.0001232745 4.163605e-24)
(0.01110029 0.0004828693 0)
(0.009304179 -0.001595107 0)
(0.01076587 -0.001261056 8.659831e-24)
(0.009605086 -0.002514501 1.048218e-23)
(0.009788858 -0.0003609871 -2.250016e-23)
(0.009725325 -0.0003711086 -1.276373e-23)
(0.0107462 0.000691838 0)
(0.01051634 0.0008115345 0)
(0.01084797 0.0006859737 -7.616026e-26)
(0.01053298 0.001031618 0)
(0.01107333 -0.0006353866 -5.300281e-24)
(0.008570532 0.001415274 0)
(0.01027578 -0.0009952259 6.557744e-24)
(0.0108165 -0.001601005 -5.037507e-24)
(0.009563074 -0.0004904696 8.863275e-24)
(0.01092574 0.0009813265 -2.240782e-24)
(0.007432042 -0.002290561 -1.70258e-23)
(0.01145664 -0.0001608119 1.795529e-24)
(0.01023423 -0.0005420102 1.682164e-23)
(0.0104184 -0.001987951 0)
(0.01119818 0.00043277 -4.732298e-25)
(0.01093298 -0.0002896369 5.360052e-24)
(0.009840559 -0.0006326999 -3.338722e-23)
(0.01122378 -5.857099e-05 0)
(0.009689551 -0.0004373982 5.569303e-24)
(0.01056309 -0.001113412 0)
(0.01109191 -0.0009157083 0)
(0.0108385 0.0005647559 1.494701e-25)
(0.01153298 3.788965e-05 -1.131534e-25)
(0.01073364 0.001117243 -3.173492e-24)
(0.01111745 -0.000294157 0)
(0.01013391 -0.001132489 -9.792227e-24)
(0.008934251 0.001614236 -3.621956e-24)
(0.008522444 0.001601352 -6.541399e-24)
(0.01046082 0.001091174 -1.154469e-24)
(0.01147464 -0.0005386625 -2.425279e-25)
(0.007641463 -0.001099524 -1.739244e-25)
(0.01026844 -0.0008564861 -9.96932e-24)
(0.01118954 0.0006509593 0)
(0.0109108 0.000128715 3.602092e-24)
(0.01092703 0.000765083 0)
(0.0101944 -0.001483354 -1.835284e-24)
(0.0107017 0.00111707 0)
(0.01016058 -0.001240527 0)
(0.01103069 -0.0008809565 -3.53772e-24)
(0.01004847 -0.0005093414 0)
(0.0104087 0.001084288 0)
(0.01087014 -0.000868533 0)
(0.01019396 -0.002177702 -8.551721e-24)
(0.008624684 -0.0009899932 2.31587e-23)
(0.01043486 -0.00116675 0)
(0.01136426 0.0004819072 -4.195868e-25)
(0.01067473 -0.0006540551 0)
(0.007951275 -0.00185888 -2.484831e-23)
(0.008774354 -0.001806177 -1.502672e-24)
(0.006219318 -0.001070553 5.305565e-23)
(0.01140196 0.0003401846 -2.059051e-25)
(0.00969307 -0.0006392271 -2.326421e-23)
(0.01001726 -0.001340517 -7.51598e-24)
(0.01145028 -1.730703e-05 6.829889e-24)
(0.009996985 -0.000530771 0)
(0.01144205 0.0003145933 1.853771e-26)
(0.0113195 0.0003886654 3.286566e-25)
(0.01034029 0.001217748 0)
(0.009881208 -0.0002635816 0)
(0.01040457 -0.0008850849 -5.130745e-26)
(0.0102168 -0.0004696792 6.597414e-24)
(0.01120824 0.0003674216 9.252027e-25)
(0.009606556 -0.0005844192 1.921618e-23)
(0.007621285 -0.002467879 0)
(0.008826346 0.001469871 0)
(0.01067019 -0.001696513 2.222268e-24)
(0.01094038 -0.0003937645 1.875697e-24)
(0.01000001 -0.0003287837 -1.557625e-23)
(0.009870253 -0.0006607198 -2.239349e-23)
(0.0102006 -0.0004545558 2.121881e-23)
(0.01047248 0.0009749583 7.429058e-25)
(0.01017329 -0.002284665 -6.90165e-24)
(0.009738228 -0.0007233307 0)
(0.009784077 -0.0009323888 0)
(0.01020875 -0.0005211364 2.145547e-23)
(0.01038085 -0.0008037435 1.568903e-23)
(0.01068229 -0.0008617659 2.397588e-24)
(0.01068564 0.0008828447 2.351425e-24)
(0.01023559 -0.0004038474 -1.124008e-23)
(0.01000616 -0.0005395198 0)
(0.009082958 -0.0009419528 5.293354e-24)
(0.01094853 0.0008727213 2.153811e-25)
(0.01123049 0.0002579136 0)
(0.009463027 -0.001401134 0)
(0.01030184 -0.0002774003 0)
(0.009661305 -0.0006410237 1.683332e-23)
(0.01059369 0.0008959876 -3.900143e-25)
(0.01016541 0.001120266 1.438122e-24)
(0.01115051 0.0007006682 -8.864942e-26)
(0.009625917 -0.0004970686 -2.542222e-23)
(0.01028985 -0.0008273515 -4.681786e-24)
(0.01114851 0.0002394988 2.680267e-24)
(0.007609861 -0.001520403 0)
(0.01017605 -0.0007093979 1.157733e-23)
(0.009681545 0.0001732385 4.133906e-24)
(0.0101675 -0.0005431513 8.800865e-25)
(0.008806158 0.001616771 0)
(0.01124906 -0.0002834226 3.363206e-24)
(0.01017787 0.001367689 -4.731858e-24)
(0.01025835 0.0006036263 -1.284649e-23)
(0.01094152 -0.0006743103 -9.724825e-24)
(0.009368263 -0.000663298 1.218456e-23)
(0.009899298 -0.0007464722 -1.071512e-23)
(0.011278 0.0002730603 3.184566e-24)
(0.01116649 0.0005641271 -4.412752e-25)
(0.00839643 -0.002715797 -1.264635e-23)
(0.009913804 0.001345971 4.538302e-24)
(0.01090359 -0.001501708 1.134592e-23)
(0.01063452 -0.001457833 -1.023027e-23)
(0.0100549 -0.001734473 1.722882e-23)
(0.01025844 0.001344659 0)
(0.01011682 -0.0001472051 1.164251e-23)
(0.0111431 -0.0008632565 0)
(0.01073593 0.0009435219 -1.149299e-24)
(0.01146 -0.0005502406 8.243975e-25)
(0.01067683 -0.0001626051 6.22922e-24)
(0.009740876 0.001465591 4.032703e-24)
(0.01037795 0.0006533216 0)
(0.008960162 0.001569534 4.415482e-24)
(0.01013841 -0.0007962424 6.958721e-24)
(0.01018364 -0.0006496107 9.584697e-24)
(0.009391334 -0.0009955709 0)
(0.009363961 0.001565438 1.031967e-23)
(0.01008012 0.00136312 2.984786e-24)
(0.010176 -0.0006022782 7.381792e-24)
(0.009923191 -0.001366564 -1.843222e-23)
(0.01012165 -0.0004230848 4.613034e-24)
(0.009571986 0.00149666 0)
(0.0111338 -0.0002190844 -2.187511e-24)
(0.01093536 0.0009450164 -1.871525e-24)
(0.009721287 -0.001198531 -2.459518e-23)
(0.01028154 -0.0005336836 0)
(0.01135275 -0.0008026181 -9.993272e-24)
(0.01112124 -0.0004312272 1.333647e-23)
(0.008720682 -0.000669564 6.091096e-26)
(0.008985895 -0.0007104049 2.161724e-23)
(0.0096769 0.001464499 -3.717651e-24)
(0.01055334 0.0009505434 3.657246e-25)
(0.01072967 0.001069739 2.971836e-24)
(0.01099554 -0.000828617 -7.604746e-25)
(0.0112249 2.803864e-06 1.680472e-24)
(0.009977851 -0.0003363127 -1.150621e-23)
(0.01136415 0.0001808337 0)
(0.00894923 -0.002415661 2.73237e-23)
(0.009880616 -0.0001944725 0)
(0.01063512 0.0009664097 0)
(0.009196906 -0.000490059 0)
(0.01105089 0.0005636916 0)
(0.007019458 -0.0005984124 0)
(0.01149483 -0.0002028238 0)
(0.009511127 -0.001218699 -2.476521e-24)
(0.01117002 0.0002940781 1.843353e-24)
(0.01055933 -0.0006294803 -1.652826e-23)
(0.009568956 -0.001965853 -2.18103e-23)
(0.0100848 -0.0006347477 6.915801e-24)
(0.0108603 -9.95118e-05 -1.743869e-25)
(0.01042383 -0.0009287662 1.017134e-23)
(0.01042144 -0.000712259 2.277082e-26)
(0.009761921 -0.0009784705 1.398689e-23)
(0.0103533 -0.0005179345 -1.438501e-24)
(0.01115907 0.0007183668 6.913555e-25)
(0.0111815 0.0007416646 0)
(0.01019359 -0.0008886049 -1.300926e-23)
(0.01030181 -0.0008088115 3.149996e-24)
(0.0102008 -0.001860287 1.027328e-23)
(0.009308652 -0.001835975 0)
(0.009530011 -0.001857712 -2.39598e-23)
(0.01130859 0.0003390249 9.661026e-25)
(0.01108341 1.790924e-05 0)
(0.01026275 -0.0008751208 0)
(0.009215031 -0.00242938 0)
(0.009707453 -0.0008265749 6.727837e-24)
(0.0102447 -0.0004339116 0)
(0.007282933 -0.001533857 -1.52648e-23)
(0.01123173 -0.001268711 -2.872578e-24)
(0.01112704 0.0001475801 5.376192e-24)
(0.01068212 -0.001186819 9.779037e-24)
(0.01078442 0.0008767308 4.159802e-25)
(0.01074867 -0.001643034 7.712172e-25)
(0.0111486 0.0007648081 1.492616e-24)
(0.01130406 -0.000255397 -3.543469e-24)
(0.01120307 0.000419894 0)
(0.01002764 -0.0006312088 -1.556265e-23)
(0.01092344 0.0009753913 1.069695e-24)
(0.0104521 -0.000723727 0)
(0.009625596 0.001377309 0)
(0.0105926 0.001147513 0)
(0.01008208 -0.0004613443 -8.236747e-24)
(0.0110767 0.000585981 9.02897e-26)
(0.01042461 -0.0001665276 -3.559715e-25)
(0.01121105 -0.0009216926 0)
(0.01136507 -0.0006853661 3.007866e-24)
(0.01008528 -0.0004033592 5.203883e-24)
(0.01143701 -0.0002326245 9.598104e-25)
(0.009299645 0.001577343 -1.09158e-24)
(0.01079844 -0.001817112 -6.730093e-24)
(0.01001049 -0.0006762135 1.41713e-23)
(0.0105415 -0.0002498236 -4.796936e-24)
(0.01105593 0.0008695695 0)
(0.01078956 0.001085886 3.313524e-24)
(0.006987822 -0.001726412 -1.417322e-23)
(0.009781711 -0.0004695726 -7.978229e-25)
(0.01034797 0.001243759 -4.947033e-24)
(0.01072965 -0.0008917336 0)
(0.01016752 -0.002081648 0)
(0.01044705 -0.0009080733 -9.640087e-26)
(0.01017785 -0.001086175 1.182509e-23)
(0.01146874 -0.0006781645 -6.305843e-25)
(0.01049126 -0.001290204 1.477059e-23)
(0.009902618 -0.0006511052 0)
(0.01086702 0.0007555003 -4.285905e-24)
(0.009153414 0.001503649 4.935232e-24)
(0.01099632 0.0004500377 -8.366379e-25)
(0.01040128 0.0008494686 -8.287589e-24)
(0.007847904 -0.002713862 1.500379e-23)
(0.01040398 0.001078329 0)
(0.01120788 -0.0009424982 3.017824e-25)
(0.009672585 -0.0009562136 -1.760265e-23)
(0.009863377 -0.0005979666 1.785238e-23)
(0.01152293 -0.0004950543 2.236794e-24)
(0.0115283 -0.000667019 -5.091629e-25)
(0.008713873 0.001450828 0)
(0.009751047 -0.0002778246 -3.381461e-23)
(0.01037502 -0.0006267459 9.320811e-24)
(0.009639581 -0.0008337215 3.617915e-24)
(0.009772506 -0.0005606803 2.381297e-26)
(0.01051821 0.001243241 3.327836e-24)
(0.01100043 -0.0003361118 -1.139422e-23)
(0.01035801 -0.0005518472 0)
(0.01141716 -0.0005108235 -1.717861e-24)
(0.01146942 -0.000881194 -1.057119e-24)
(0.01009008 -0.0008853781 0)
(0.01017116 -0.001397332 7.968583e-24)
(0.00947051 -0.0005210887 -1.551326e-23)
(0.01104288 0.0005382543 -6.753771e-25)
(0.01077658 0.0008394814 1.219819e-23)
(0.01132948 -0.0004750258 -2.550554e-24)
(0.01126571 0.0006399328 0)
(0.01054223 -0.0006000938 8.169472e-24)
(0.01123735 -0.0005726385 2.723023e-24)
(0.009603167 0.001524759 0)
(0.0107461 -0.0007209358 0)
(0.00914788 -0.002163463 0)
(0.009637088 -0.001175618 1.468959e-23)
(0.0111499 -0.0005155627 1.169962e-23)
(0.01111632 0.0003161475 3.081483e-24)
(0.01150325 -0.0006575132 3.291371e-24)
(0.01139505 -0.0005217366 -8.822486e-25)
(0.01118138 -0.001424538 -5.855146e-24)
(0.008635281 -0.001408403 0)
(0.008154551 -0.0009940363 -3.600432e-23)
(0.01085607 0.0004086117 2.055932e-24)
(0.009650034 -0.0002758533 2.123267e-23)
(0.009849481 -0.001116458 -1.616807e-23)
(0.01133397 -0.001162315 -1.547993e-24)
(0.01119389 -0.001352627 3.642773e-24)
(0.01140755 -0.001023267 5.330304e-24)
(0.01003884 -0.0008018972 1.345345e-23)
(0.009096295 -0.002673566 0)
(0.01129973 0.0002548287 -1.569839e-24)
(0.009543076 -0.00111482 0)
(0.01070183 -0.001928341 0)
(0.01066306 0.0009200265 3.509795e-25)
(0.01088685 5.12723e-05 -3.531906e-25)
(0.00999954 -0.0008580098 -6.894806e-24)
(0.01134394 -0.0004337448 1.617638e-24)
(0.008796916 -0.001352139 -5.96818e-24)
(0.01072862 -0.000953115 -8.187903e-24)
(0.0108491 -0.000586814 3.42848e-24)
(0.01045127 0.001266469 2.647209e-24)
(0.009676821 -0.0003646061 2.292793e-23)
(0.01065932 -0.001525287 1.600379e-23)
(0.009513787 -3.664896e-05 -1.44347e-23)
(0.01034787 -0.00100599 4.346196e-24)
(0.0102478 -0.001975114 9.248409e-24)
(0.01105793 -0.0004063627 1.516204e-23)
(0.008214265 -0.002080086 0)
(0.01010557 -0.000644365 -1.648346e-23)
(0.01079814 3.762011e-06 0)
(0.01147195 -0.0004840047 -2.253047e-24)
(0.01013403 -0.0005402619 0)
(0.0100093 0.001265966 0)
(0.01129398 0.0005950199 -3.921149e-26)
(0.01115205 0.0003347721 0)
(0.009985058 -0.0004870864 2.770592e-23)
(0.009914099 -0.001431536 0)
(0.01042396 -0.0009980507 0)
(0.009583788 -0.001293431 -1.53427e-23)
(0.009911443 -0.001153636 1.827788e-23)
(0.01070778 0.001053532 4.243136e-24)
(0.01138335 0.0003578398 -3.361575e-25)
(0.01011081 -0.001451308 1.010666e-23)
(0.01073807 0.001099536 0)
(0.01112131 -0.001301798 3.913201e-24)
(0.01043174 0.001282352 -3.509085e-24)
(0.01129619 0.0004632569 -1.54613e-24)
(0.01091339 -0.0009611022 -1.581605e-23)
(0.009235869 -0.001551516 -1.104126e-25)
(0.01048181 -0.001931816 0)
(0.01133004 -0.0002450311 4.363245e-24)
(0.01150851 0.0001364158 -6.753318e-26)
(0.01156325 -0.0003007293 0)
(0.008892194 -0.0005974362 -2.91277e-23)
(0.01047642 -0.0005920311 0)
(0.01135279 0.0004465203 0)
(0.009111581 0.001481877 -9.588465e-24)
(0.01015038 -0.0007085478 4.766314e-24)
(0.01005889 -6.752838e-05 -1.840899e-23)
(0.01013468 -0.0003403766 0)
(0.01087255 0.0004269397 0)
(0.008581484 0.001638259 3.74511e-25)
(0.01031596 -0.000714237 5.799682e-24)
(0.008338989 -0.002803178 9.805645e-24)
(0.01144718 -0.0002364902 1.505277e-24)
(0.009643448 -0.0006673073 1.653414e-23)
(0.009955866 -0.0008299465 -1.606899e-23)
(0.0103487 -0.001442919 -1.214989e-23)
(0.009800343 -0.0001662386 -1.30237e-23)
(0.009691607 -0.0001128759 -5.360961e-26)
(0.01016997 -0.0002582707 0)
(0.01133345 0.000251398 0)
(0.0113981 -0.0007100618 -1.419758e-25)
(0.01104292 7.846554e-05 -3.803798e-24)
(0.0105645 -0.0005075786 -1.235748e-23)
(0.007886405 -0.0005753187 1.217677e-23)
(0.01004905 -0.0003528793 8.22683e-24)
(0.00969412 -0.0004775307 0)
(0.01118784 -0.001424001 9.331324e-24)
(0.01078871 -0.0006116247 0)
(0.01025784 -0.001887313 1.126442e-23)
(0.01025357 -0.0004880661 9.680749e-24)
(0.01007862 -0.0004837582 1.558388e-23)
(0.008790164 -0.0005235346 1.143257e-23)
(0.01082414 0.0006948773 -4.804111e-26)
(0.01039815 -0.0005064599 8.338461e-24)
(0.009717069 -0.00145394 -2.469762e-23)
(0.01104532 -0.001263154 -2.559444e-24)
(0.01003972 -0.0003308961 -3.484039e-25)
(0.01022643 -0.002125595 0)
(0.01060452 0.001104459 -3.836022e-24)
(0.01137164 -9.576857e-05 -1.321658e-24)
(0.01072464 0.0008441703 3.018531e-25)
(0.01040692 -0.001676388 8.067582e-24)
(0.01034826 -0.001493451 0)
(0.0103834 0.0005720731 0)
(0.01097156 0.000448248 0)
(0.01011603 -0.0005289376 2.734475e-23)
(0.01082001 0.0006008441 -6.139887e-25)
(0.009030581 -0.002694568 -2.186793e-23)
(0.01006611 -0.0006504155 0)
(0.01144588 0.0002836028 0)
(0.008966148 -0.002068116 0)
(0.008684247 -0.00270505 0)
(0.009853255 -0.001805832 -3.172353e-23)
(0.009505154 -0.002116229 0)
(0.009708154 -0.001522144 5.589294e-24)
(0.01011988 -0.0002732108 5.049305e-24)
(0.01014275 -0.0005999849 9.165929e-24)
(0.01024979 -0.0007986874 9.177576e-24)
(0.01041418 -0.001553029 -1.42241e-23)
(0.005946263 -0.001217222 3.195031e-23)
(0.01068394 -0.001112387 2.718701e-25)
(0.01105642 -0.0001381598 0)
(0.01105979 0.0004591105 0)
(0.00996153 -0.0007436977 0)
(0.0111205 -0.0001482435 9.073215e-25)
(0.01040321 -0.001232911 5.155878e-24)
(0.01018032 -0.0005737165 -1.254433e-23)
(0.008188209 -0.0008924569 2.42219e-23)
(0.01096091 0.0004247862 -2.862853e-24)
(0.01073702 -0.0007683268 0)
(0.01048715 -0.001493322 0)
(0.00933123 -0.0007092296 -2.249418e-23)
(0.008292814 -0.0008675777 -2.265025e-23)
(0.00999541 -0.0003744555 -7.855293e-24)
(0.01103362 0.0008116832 2.781946e-24)
(0.01009166 -0.0003472356 5.489361e-24)
(0.00633687 -0.002404294 -5.85179e-23)
(0.008491162 -0.002529004 -2.858648e-23)
(0.01080785 -0.0005348156 -5.664179e-24)
(0.01016505 -0.0004862579 3.84777e-24)
(0.01075551 -0.0008925612 5.828185e-24)
(0.00963638 -0.0001972373 -3.828986e-23)
(0.01092833 0.0002645726 -3.798559e-24)
(0.009990549 -0.000277261 9.66697e-24)
(0.008808573 -0.002720789 -1.775072e-23)
(0.01099538 0.0006381442 -6.40262e-25)
(0.01087847 -0.0005542071 -6.608919e-24)
(0.009671516 -0.0009806862 1.651628e-23)
(0.01138855 -0.0006470761 -5.890835e-24)
(0.009955222 -0.001028661 0)
(0.01089207 -0.001272143 -6.142082e-24)
(0.008544376 -0.0007072446 0)
(0.01047753 -0.0006979975 0)
(0.009463309 0.001549228 0)
(0.01148939 -0.000225903 -9.4166e-25)
(0.01121179 0.0002576608 0)
(0.0108232 -0.000657484 -2.404055e-24)
(0.01094825 0.0007143561 3.796754e-24)
(0.01106356 0.0008607593 -1.784943e-24)
(0.01148802 0.0002038944 2.43503e-25)
(0.008150959 -0.002454847 -2.958572e-24)
(0.01022941 -0.0006712291 -1.332913e-23)
(0.01116247 0.0005341781 -3.364999e-26)
(0.01070464 0.0009896823 0)
(0.01081853 0.0007938882 0)
(0.01073573 0.0009199179 1.377229e-24)
(0.01082449 0.0008849403 2.653121e-25)
(0.01110221 -0.0005432334 0)
(0.01126313 -0.0008681739 5.195247e-24)
(0.01000866 -0.0001532321 -9.663166e-24)
(0.01123938 5.179809e-05 6.311141e-25)
(0.01124298 1.137181e-05 0)
(0.01012669 -0.0005114416 5.62954e-24)
(0.01129165 8.455694e-05 0)
(0.01037108 0.001296385 -2.477509e-24)
(0.008999602 -0.0008623044 0)
(0.01054281 -0.0005450329 1.0497e-23)
(0.01004556 -0.0007244036 1.25485e-24)
(0.01004913 -0.000566542 1.3637e-24)
(0.01002007 0.00118818 2.625413e-24)
(0.01050592 0.0009803041 2.559579e-25)
(0.01012182 -0.001563512 9.264786e-26)
(0.009816532 -0.001621894 3.93256e-23)
(0.01066607 -0.001963323 -6.192229e-24)
(0.0107634 0.0001903571 -1.435348e-24)
(0.009274715 -0.0008663025 2.93841e-23)
(0.01132659 -0.0005722496 -6.853749e-24)
(0.01003315 -0.0003451264 1.085869e-23)
(0.01003968 -0.0003891741 -1.128603e-23)
(0.01109177 0.0003957703 1.569844e-24)
(0.01064255 -0.0002777858 8.328142e-24)
(0.01049932 0.001090825 1.379043e-24)
(0.01015734 0.001163343 0)
(0.01077931 0.0002741295 -6.906127e-25)
(0.01096349 -0.001086693 0)
(0.01040973 -0.0007258766 1.064562e-23)
(0.01012589 -0.0009212467 -8.131028e-24)
(0.009993449 0.001329447 0)
(0.009772423 -0.0006792191 1.97285e-23)
(0.01005774 -0.0005841911 0)
(0.009759339 0.0006213847 -5.253054e-24)
(0.01115398 0.000303829 -8.633286e-25)
(0.01018934 -0.0008082395 0)
(0.01020852 -0.0006560863 -2.18287e-23)
(0.009990784 -0.00119865 0)
(0.01082774 0.0005016962 -8.264279e-25)
(0.01108368 -0.0006598717 -2.708263e-25)
(0.009702974 -0.000688669 0)
(0.009015089 -0.0009310937 6.176683e-25)
(0.011244 0.0005648363 0)
(0.01000721 -0.0006093906 2.662965e-24)
(0.009649089 -0.0006116457 -2.636747e-23)
(0.00986817 -0.0005480874 0)
(0.01086814 0.0003727024 -1.755161e-24)
(0.008986369 0.001471987 -3.426149e-24)
(0.008524286 -0.000440045 1.247574e-23)
(0.009888895 -0.0004064534 -1.390449e-23)
(0.009499646 -0.0006638792 2.429824e-23)
(0.01063182 0.0008953617 -4.297431e-25)
(0.01077521 0.000998095 0)
(0.01087237 -0.0005129914 2.270242e-24)
(0.00875384 -0.002591754 9.446194e-24)
(0.01112933 0.000264871 -1.601172e-24)
(0.01098622 -0.001047642 0)
(0.009552844 0.001534439 -1.037332e-23)
(0.01081971 -0.0008556342 1.300821e-23)
(0.01116637 0.0004079548 2.062483e-25)
(0.01027131 -0.001092445 -7.70807e-24)
(0.0100966 0.0009563977 4.253772e-24)
(0.009946382 -0.0004509178 1.040749e-23)
(0.009986664 -0.001007611 0)
(0.01091113 0.0005210533 1.420667e-24)
(0.01140278 0.0003906409 3.650013e-27)
(0.01037643 -0.0007547181 0)
(0.01029411 -0.000722029 1.559973e-23)
(0.009520414 -0.0005559105 -2.828852e-23)
(0.009664458 -0.0005293002 -5.456502e-26)
(0.01047998 -0.0007773652 -3.855233e-25)
(0.01102244 0.0007178361 7.155716e-26)
(0.01117587 -0.001127961 1.805959e-24)
(0.01074642 0.001112783 0)
(0.01032937 -0.0001844134 0)
(0.01097981 0.0002945448 -2.989288e-24)
(0.01018254 -0.0003398522 -1.07156e-23)
(0.009572962 -0.0002575229 -2.776908e-23)
(0.01134236 0.000516342 4.849336e-26)
(0.009977405 -0.0009031467 0)
(0.01054309 -0.0003388217 0)
(0.01139201 0.0003262517 -8.555729e-25)
(0.01131159 -0.001087105 2.382622e-24)
(0.01022272 0.00123836 -1.832517e-24)
(0.01127106 -0.0009377183 -3.948325e-25)
(0.009931527 -0.0004728243 0)
(0.01000015 -2.973561e-05 0)
(0.01152735 4.823151e-05 0)
(0.01155833 -0.0001753878 1.854319e-25)
(0.009743324 -0.0003106751 2.963793e-23)
(0.009644395 -0.0003052906 -3.846376e-23)
(0.01048232 -0.0009460286 -2.858742e-23)
(0.01151197 -0.0007334019 3.581641e-24)
(0.01093871 -0.0001171673 -3.412162e-24)
(0.01107976 5.73047e-05 2.396259e-24)
(0.01085278 2.989324e-05 -5.584055e-24)
(0.01117162 -0.0004207602 1.028638e-23)
(0.01150757 -0.0003114448 -3.768277e-24)
(0.01137928 -0.000344863 4.556478e-24)
(0.009887982 -0.0001238077 0)
(0.009446178 -0.0003074834 -1.682191e-23)
(0.01129409 0.0001977268 -2.131297e-24)
(0.00987833 -0.0004359976 1.349401e-23)
(0.01053946 0.001179475 0)
(0.010858 0.0006028865 0)
(0.01000131 -0.0005842259 1.002832e-23)
(0.009972721 -0.0005457716 6.302532e-26)
(0.01006983 -0.0002111524 -1.90029e-23)
(0.009865693 -0.0007655918 1.695316e-23)
(0.01018286 -0.0009427328 2.859751e-23)
(0.009555976 -0.0008820894 1.615156e-23)
(0.009563961 -0.0008349383 -4.348681e-23)
(0.009780716 0.001329001 -1.098212e-24)
(0.009240048 0.001148452 9.492536e-24)
(0.01010977 0.00122657 1.909979e-24)
(0.01063925 0.001159394 0)
(0.01059354 0.001165806 0)
(0.01098131 0.0006906579 1.331468e-25)
(0.0110509 0.0007336167 -4.294432e-25)
(0.01029013 0.001299819 -1.916658e-24)
(0.009907607 -0.0009459475 7.449958e-24)
(0.01016713 -0.0005284036 -3.950967e-24)
(0.01009816 -0.0004795471 6.25148e-27)
(0.01007437 -0.0005078317 9.279059e-24)
(0.01153774 -0.0002361377 8.697872e-25)
(0.01070686 0.001093816 6.775527e-25)
(0.01043574 -0.001436579 0)
(0.01046892 -0.0008185263 6.453975e-26)
(0.01044324 -0.0007868444 2.803528e-24)
(0.009912033 -0.000439891 0)
(0.0109502 -0.000520288 0)
(0.01114446 -0.0002819514 0)
(0.01019243 -0.0007179257 1.084613e-23)
(0.01003761 0.00130604 1.300102e-24)
(0.009699571 -0.0009411523 0)
(0.01035633 0.001194616 0)
(0.01051559 0.001183745 2.045511e-24)
(0.01103057 -0.0009118603 -1.185928e-26)
(0.01027653 -0.0003256445 0)
(0.00887185 -0.001531051 -2.826576e-23)
(0.009931272 -0.0008997925 0)
(0.0107231 0.0001936427 -1.786599e-25)
(0.01125621 0.0002062599 -1.833617e-24)
(0.01124365 0.0001550483 0)
(0.01149209 3.773958e-05 -6.249301e-25)
(0.01115599 0.0003863024 -2.252848e-25)
(0.01094992 0.000537405 1.718789e-24)
(0.01099923 0.0005860656 0)
(0.01048682 -0.0005096369 -7.373031e-24)
(0.01133984 0.0004290415 3.798843e-25)
(0.01139044 0.0001062297 0)
(0.009848248 -0.0004799529 -1.664917e-23)
(0.01002025 -0.0007155893 1.247614e-23)
(0.00999321 -0.0004294738 -2.058164e-24)
(0.01121662 -0.0012116 0)
(0.01103024 -0.001451884 -8.928188e-24)
(0.01136586 -0.0002525146 -2.850757e-24)
(0.01138427 -0.0002776928 2.773613e-24)
(0.01083109 -0.0007442442 1.126445e-23)
(0.01090519 -0.0009252729 3.893308e-24)
(0.01007497 -0.0007658349 -1.170798e-23)
(0.007282314 -0.0009437975 0)
(0.01062199 -0.0008576912 -6.32682e-24)
(0.01058393 -0.0009103903 5.890494e-25)
(0.01041608 -0.0007499578 -8.443615e-24)
(0.01059106 -0.0008030819 1.464589e-23)
(0.01081983 0.0005849134 -4.837619e-25)
(0.01043114 -0.0009560518 -6.12774e-24)
(0.01047722 -0.001178017 0)
(0.01030881 -0.001410527 0)
(0.01041263 0.0011155 2.451264e-24)
(0.01050083 0.001007346 0)
(0.01021539 0.00130907 0)
(0.01003613 -0.0002860325 -9.535193e-24)
(0.01073636 0.0007237343 0)
(0.01064004 0.0008177379 1.221307e-25)
(0.0109463 -0.001706597 0)
(0.01094011 -0.001699386 8.004309e-24)
(0.01077292 -0.0008697688 -6.130591e-24)
(0.01004877 -0.001135873 -1.943829e-24)
(0.01005544 -0.001772756 9.093272e-24)
(0.01063272 -0.001987363 6.725922e-24)
(0.01011689 -0.002147711 -7.652411e-24)
(0.01075083 0.0007934431 3.000791e-25)
(0.009905747 -0.0001730536 0)
(0.009781201 -0.0002551784 1.433689e-23)
(0.007500069 -0.0003489977 -5.691277e-24)
(0.01135323 0.0004948126 5.63726e-25)
(0.0101449 -0.0006171324 -9.3455e-24)
(0.01121529 0.000657725 0)
(0.01112255 0.0008039404 0)
(0.009571329 -0.001150633 0)
(0.01013867 -0.0004203256 1.537585e-23)
(0.007913542 -0.001501071 0)
(0.01093822 0.0006449155 0)
(0.009853615 -0.002301264 2.564829e-23)
(0.01021492 0.0001518295 -8.207894e-24)
(0.01057381 -0.0007798251 -1.930894e-23)
(0.01084646 -3.400461e-05 -1.20448e-24)
(0.01110183 -0.0009348826 0)
(0.0103504 0.001312544 0)
(0.01063392 0.0004733565 3.619498e-24)
(0.01040257 -0.001191397 0)
(0.01003262 -0.0007541549 1.811393e-23)
(0.009968445 -0.0006902516 0)
(0.0112496 -0.0008009555 -1.483995e-24)
(0.009390632 -0.001479625 -1.863301e-24)
(0.01153971 6.792153e-06 0)
(0.01005384 -0.0002875932 -2.967892e-23)
(0.009957928 -0.0009522042 0)
(0.01050156 -0.001624482 -1.079783e-24)
(0.009798925 -0.001180833 9.250782e-24)