/*--------------------------------*- C++ -*----------------------------------*\
| =========                 |                                                 |
| \\      /  F ield         | OpenFOAM: The Open Source CFD Toolbox           |
|  \\    /   O peration     | Version:  2406                                  |
|   \\  /    A nd           | Website:  www.openfoam.com                      |
|    \\/     M anipulation  |                                                 |
\*---------------------------------------------------------------------------*/
FoamFile
{
    version     2.0;
    format      ascii;
    arch        "LSB;label=32;scalar=64";
    class       surfaceScalarField;
    location    "0.46";
    object      phi;
}
// * * * * * * * * * * * * * * * * * * * * * * * * * * * * * * * * * * * * * //

dimensions      [0 3 -1 0 0 0 0];

oriented        oriented;

internalField   nonuniform List<scalar> 
6710
(
-1.362731e-09
1.733632e-09
-3.709015e-10
1.462783e-09
-1.483474e-09
2.069065e-11
-5.700451e-10
1.545654e-09
-9.756093e-10
-1.032123e-09
1.328949e-09
-2.968265e-10
-1.215288e-09
2.733744e-10
9.419139e-10
2.348934e-10
1.431119e-09
-1.666012e-09
1.575101e-10
1.273318e-09
-1.430829e-09
1.063257e-09
-1.165179e-09
1.019219e-10
-2.838266e-10
1.628383e-09
-1.344556e-09
1.683806e-09
-1.892575e-09
2.087695e-10
-5.830003e-09
2.970416e-09
2.859587e-09
-1.742762e-09
1.523224e-09
2.195373e-10
-5.356305e-10
-1.121755e-09
1.657385e-09
-1.691913e-09
1.668474e-10
1.525066e-09
1.173591e-09
-1.142425e-09
-3.11666e-11
1.308895e-09
-1.483199e-09
1.74304e-10
-1.165662e-09
1.259667e-09
-9.400467e-11
-1.018277e-09
1.861772e-10
8.320994e-10
1.758338e-09
-1.29852e-09
-4.598188e-10
-1.448511e-09
1.233467e-09
2.150434e-10
2.901093e-10
-1.403215e-09
1.113106e-09
1.569464e-09
-1.6047e-09
3.523538e-11
-1.446023e-09
5.700578e-10
8.759657e-10
1.601245e-09
-4.813973e-10
-1.119847e-09
-1.606523e-09
1.132286e-11
1.5952e-09
-1.142084e-09
5.614337e-10
5.806506e-10
-1.487268e-09
1.136784e-09
3.504838e-10
4.023398e-10
-1.345526e-09
9.431863e-10
-8.881422e-10
1.70744e-09
-8.192983e-10
1.549604e-09
-1.310239e-09
-2.393651e-10
1.70935e-09
-3.656738e-10
-1.343676e-09
-1.133473e-09
-1.758272e-10
1.801568e-09
-7.847953e-10
-1.016773e-09
-1.770523e-09
1.010041e-09
7.604819e-10
-2.034586e-09
4.133217e-10
1.621264e-09
3.756532e-10
7.624669e-10
-1.13812e-09
3.529926e-10
1.248252e-09
-1.464486e-10
1.420803e-09
-1.274354e-09
-1.404919e-09
1.573405e-10
1.247578e-09
9.946271e-10
-2.080535e-09
1.085907e-09
1.143993e-09
-1.00785e-09
-1.361437e-10
-1.62692e-09
1.423856e-09
2.030645e-10
1.557673e-09
-1.83973e-09
2.820568e-10
-7.760074e-10
-9.199248e-10
1.695932e-09
-1.602824e-09
1.980308e-09
-3.774842e-10
-2.44145e-10
-1.121836e-09
1.365981e-09
-1.732543e-09
1.306582e-09
4.25961e-10
-2.6204e-10
-1.222214e-09
1.484254e-09
1.544798e-09
-5.419441e-10
-1.002854e-09
-1.347876e-09
-1.363555e-10
1.484232e-09
-3.487213e-10
-5.875194e-10
9.362407e-10
1.53863e-09
2.961625e-10
-1.834792e-09
7.838719e-10
-9.1543e-11
-6.923289e-10
1.195399e-09
-5.862625e-10
-6.091361e-10
-9.801789e-10
-3.124163e-10
1.292595e-09
-1.617248e-09
4.708154e-10
1.146433e-09
-1.622226e-09
1.375663e-09
2.465628e-10
8.045452e-09
-8.044553e-09
-8.989374e-13
-5.494086e-10
1.414561e-09
-8.651523e-10
-1.053847e-09
-3.295496e-10
1.383397e-09
-1.696878e-09
6.855715e-10
1.011307e-09
-1.058244e-09
2.146835e-09
-1.088591e-09
5.068443e-10
8.544305e-10
-1.361275e-09
-1.433418e-09
3.34403e-10
1.099015e-09
-1.493219e-09
1.419251e-09
7.396861e-11
1.618743e-09
-1.571438e-09
-4.730522e-11
1.540165e-09
-1.74577e-09
2.056051e-10
-6.943885e-10
-1.060399e-09
1.754787e-09
-1.395913e-09
8.770476e-10
5.188655e-10
-5.351145e-10
3.104454e-09
-2.56934e-09
-1.287617e-09
-1.358278e-10
1.423444e-09
-1.537308e-09
1.272722e-09
2.645857e-10
-8.81953e-10
-3.026292e-10
1.184582e-09
-6.587312e-10
-1.164067e-09
1.822798e-09
9.455171e-10
-1.616452e-10
-1.030347e-09
1.325503e-09
-2.95156e-10
-1.345159e-09
-4.617678e-10
1.806927e-09
3.368529e-09
-5.109346e-09
1.740817e-09
-1.089923e-09
1.503843e-09
-4.139193e-10
1.347357e-09
1.59283e-10
-1.50664e-09
-1.206543e-10
1.358794e-09
-1.23814e-09
-1.699393e-09
1.882911e-10
1.511102e-09
1.765173e-09
-2.263825e-09
4.986517e-10
-2.313797e-10
1.915186e-09
7.661922e-10
9.280671e-10
-1.694259e-09
2.02036e-09
-1.628959e-09
-3.914012e-10
-1.499894e-09
-4.839887e-11
1.548293e-09
1.737979e-09
-8.743103e-10
-8.636691e-10
2.120312e-09
-1.014061e-09
-1.106251e-09
6.261517e-10
-1.936091e-09
1.309939e-09
-1.312985e-09
9.433957e-10
3.695892e-10
-1.554027e-09
3.309875e-10
-1.854603e-09
1.163139e-09
6.914634e-10
1.321077e-09
-1.114623e-10
-1.209615e-09
4.545629e-10
-1.829526e-09
1.374963e-09
-1.303907e-09
1.489243e-09
-1.853366e-10
1.075213e-09
-2.750479e-10
-8.00165e-10
1.3358e-09
-1.442813e-09
1.070122e-10
3.685505e-10
-1.488022e-09
1.119472e-09
-1.784371e-10
-1.100096e-09
1.278533e-09
1.982917e-09
-4.391356e-10
-1.543781e-09
-1.747048e-09
7.474214e-10
9.996261e-10
5.884115e-11
1.445312e-09
-1.504153e-09
-1.06174e-10
1.441974e-09
1.666783e-09
-3.144547e-10
-1.352328e-09
-6.141827e-10
1.662072e-09
-1.047889e-09
-4.191949e-10
1.316609e-09
-8.974144e-10
-1.616984e-09
1.409878e-11
1.602885e-09
-8.181837e-10
2.259884e-09
-1.4417e-09
2.934453e-10
-1.470285e-09
1.17684e-09
-6.652351e-10
1.784521e-09
-1.119286e-09
1.250112e-09
-1.600816e-09
-1.191937e-09
9.576076e-11
1.096176e-09
-7.487458e-10
-5.278565e-10
1.276602e-09
5.569693e-10
3.737539e-10
-9.307232e-10
4.305984e-11
1.389815e-09
-1.432874e-09
2.785007e-10
1.10784e-09
-1.386341e-09
-5.279346e-10
-1.168943e-09
1.404956e-09
-9.167881e-11
-1.313277e-09
1.99073e-09
-1.161023e-09
-8.297067e-10
1.520503e-09
-1.813202e-09
2.926985e-10
1.10613e-10
1.58322e-09
-1.693833e-09
4.119032e-10
1.327789e-09
-1.739692e-09
-4.029819e-10
1.927102e-09
-1.52412e-09
-3.361601e-10
1.555206e-09
-1.219046e-09
-1.041633e-09
-1.240291e-10
7.61785e-10
-1.476755e-09
7.149697e-10
-7.8283e-10
1.29562e-09
-5.127904e-10
-4.53505e-10
1.18685e-09
-7.333449e-10
-1.434234e-09
1.199389e-09
2.348457e-10
-1.28748e-09
1.608792e-09
-3.213123e-10
-6.473594e-10
-8.504887e-10
1.497848e-09
-1.033904e-09
-2.79081e-10
-1.361412e-09
1.363402e-09
-1.989828e-12
-1.037245e-09
2.031872e-09
1.898557e-09
-7.581989e-10
-1.140358e-09
1.129598e-09
-1.657104e-09
5.275056e-10
-1.574092e-09
8.74335e-10
6.997569e-10
-1.413483e-09
1.348462e-09
6.502094e-11
8.890281e-11
9.888097e-10
-1.077713e-09
1.546739e-09
-1.325373e-09
-2.21366e-10
1.681461e-10
-1.394137e-09
1.225991e-09
-1.138108e-09
7.51659e-10
3.864492e-10
2.256234e-10
9.123559e-10
-1.137979e-09
1.301854e-09
4.424946e-11
-1.346104e-09
1.130816e-09
-9.037047e-10
-2.271111e-10
-1.437279e-09
1.849182e-09
-1.047855e-10
1.000441e-09
-8.956553e-10
-5.681564e-10
1.477266e-09
-9.091096e-10
-1.83495e-09
2.382167e-10
1.596733e-09
1.646806e-09
-5.333251e-10
-1.113481e-09
4.597772e-10
-1.272705e-09
8.129276e-10
9.671833e-10
-1.860552e-09
8.933685e-10
1.046399e-09
-2.071921e-09
1.025521e-09
-1.152075e-09
-3.915755e-10
1.543651e-09
6.031438e-10
-1.727868e-09
1.124724e-09
1.993569e-10
-1.777361e-09
1.578004e-09
5.03719e-10
9.787004e-10
-1.482419e-09
-1.506259e-09
5.656707e-10
9.405883e-10
8.499904e-10
-1.420036e-09
-2.587988e-10
1.697548e-09
-1.438749e-09
1.384485e-10
-1.215687e-09
1.077239e-09
2.875026e-10
1.26168e-09
-1.549183e-09
2.220821e-10
6.216672e-10
-8.437493e-10
-1.609939e-09
1.547857e-09
6.208133e-11
-1.551421e-09
5.152695e-11
-1.688973e-09
7.313272e-10
9.57646e-10
-9.934531e-10
-6.449157e-10
1.638369e-09
-1.794368e-09
6.433895e-10
1.150979e-09
4.418001e-10
-1.497889e-09
1.056089e-09
-1.526116e-09
1.069919e-10
1.419124e-09
1.786239e-09
-7.516098e-10
-1.034629e-09
1.342618e-09
-1.028415e-09
-3.142024e-10
1.617436e-09
-1.103073e-09
-5.143631e-10
5.179901e-10
1.360836e-09
-1.878827e-09
-1.485284e-09
8.996375e-10
5.856464e-10
-6.302073e-10
-6.958539e-10
1.326061e-09
-3.250434e-10
-1.074966e-09
1.400009e-09
2.877412e-10
1.008558e-09
-1.2963e-09
1.842762e-09
-1.512461e-10
-1.532373e-09
1.454982e-10
1.386874e-09
1.608752e-10
-1.33704e-09
1.176165e-09
7.284035e-10
-1.768617e-09
1.040214e-09
-2.34617e-10
1.563273e-09
-1.328656e-09
-6.447913e-10
2.450514e-09
-1.805723e-09
3.381468e-10
-1.378556e-09
1.040409e-09
-1.630573e-10
1.341954e-09
-1.178897e-09
9.189864e-10
1.071743e-09
-1.186894e-09
1.393465e-09
-2.065709e-10
8.649922e-10
-1.044638e-09
1.796456e-10
1.277601e-09
-1.465736e-09
1.881351e-10
-1.046114e-09
-1.174376e-10
1.163552e-09
2.799189e-09
-1.417331e-09
-1.381858e-09
1.19211e-09
-1.408187e-09
2.160775e-10
9.872019e-10
1.545512e-10
-1.141753e-09
-1.070642e-10
-1.40906e-09
1.516124e-09
9.030262e-10
-1.447533e-09
5.445064e-10
-6.044078e-10
-3.392122e-10
9.4362e-10
-8.625675e-10
-8.133878e-10
1.675955e-09
1.319829e-09
1.998363e-10
-1.519666e-09
-1.182742e-09
2.415546e-10
9.411877e-10
-9.265016e-10
-1.522464e-09
2.448966e-09
1.911651e-09
-7.680165e-10
-1.143635e-09
1.220557e-09
-2.095732e-10
-1.010984e-09
-1.545288e-09
1.514949e-10
1.393793e-09
2.711283e-11
1.222477e-09
-1.24959e-09
-1.345444e-09
-8.879077e-11
1.489896e-09
2.312831e-10
-1.497477e-09
1.266194e-09
-1.388566e-09
3.347188e-10
-1.626577e-09
1.795852e-09
-1.692754e-10
1.812709e-10
1.316805e-09
-1.498076e-09
-4.682498e-10
1.728403e-09
-1.260153e-09
-1.325658e-09
9.811258e-10
3.445323e-10
-7.940359e-10
8.829387e-10
1.263398e-09
5.83003e-10
-1.846401e-09
-1.190688e-09
5.873966e-10
6.032916e-10
-1.867751e-09
-1.801436e-11
1.885765e-09
-1.47486e-09
2.295971e-10
1.245263e-09
9.361007e-09
1.577994e-09
-2.876031e-10
-1.290391e-09
-9.686721e-11
-1.465759e-09
1.562626e-09
2.087544e-10
1.291775e-09
-1.500529e-09
-1.605123e-09
1.483904e-09
1.21219e-10
1.892251e-09
-1.935939e-10
-1.698657e-09
2.450464e-09
-1.357492e-09
-1.092972e-09
1.782317e-09
-1.205259e-09
-5.77058e-10
-1.113217e-09
-1.131204e-10
1.226337e-09
-2.620954e-10
-1.171207e-09
1.433303e-09
-1.29413e-09
1.164334e-09
1.297967e-10
-6.710664e-10
1.588205e-09
-9.171382e-10
2.392357e-11
-1.378008e-09
1.354084e-09
1.4295e-09
-2.620801e-10
1.895739e-09
-1.734695e-09
-1.610437e-10
-1.167472e-09
1.301492e-09
-1.340206e-10
1.564532e-09
-8.789606e-10
1.254885e-09
-1.585056e-09
3.301716e-10
1.631831e-09
-9.285612e-10
-7.032696e-10
1.377394e-09
-4.743682e-10
-1.152642e-09
2.687446e-10
8.838977e-10
1.78446e-10
1.331633e-09
-1.510079e-09
1.505711e-09
-1.407359e-09
-9.835115e-11
-1.835761e-09
4.173868e-10
1.418374e-09
-3.197098e-10
-1.06683e-09
1.386539e-09
-2.095449e-09
5.809338e-09
-3.713889e-09
-7.56663e-10
-5.689951e-10
3.11073e-10
1.283417e-09
-1.59449e-09
-2.295502e-10
-1.128201e-09
1.357751e-09
1.747422e-09
-1.823986e-09
7.6564e-11
8.437568e-10
1.315181e-09
-2.158937e-09
1.564688e-09
-1.421732e-09
-1.429561e-10
-3.819299e-09
2.212176e-09
1.607123e-09
1.133112e-09
-1.223033e-09
8.992079e-11
-8.142834e-09
8.142834e-09
2.836913e-10
1.55907e-09
-8.441199e-10
1.361898e-09
-5.177781e-10
1.43028e-09
-5.39921e-10
-8.903595e-10
1.106594e-09
4.054818e-11
-1.147142e-09
2.900525e-11
1.41222e-09
-1.441225e-09
-1.419541e-09
1.188161e-09
-5.954987e-09
4.305252e-09
1.649735e-09
-1.699405e-09
2.357849e-10
1.46362e-09
2.047489e-10
-1.062964e-09
8.58215e-10
1.093419e-09
-9.423716e-10
-1.510477e-10
1.296501e-09
-4.302639e-10
-8.66237e-10
-1.347204e-09
5.927457e-11
1.28793e-09
-1.096234e-09
1.449227e-09
1.740898e-09
-6.58352e-10
-1.082546e-09
1.45142e-09
-1.208204e-09
-2.432167e-10
-1.338929e-09
5.537945e-10
7.851344e-10
1.627439e-09
-3.188907e-10
-1.308548e-09
-8.922053e-10
-1.04687e-09
1.939076e-09
6.765964e-10
1.206216e-09
-1.882812e-09
1.69074e-09
-1.78658e-09
9.583936e-11
-1.189489e-09
1.196568e-09
-7.07958e-12
1.025111e-09
5.178596e-10
-1.54297e-09
1.225402e-09
-1.831981e-09
6.065791e-10
-8.193378e-10
1.722045e-09
-9.027068e-10
1.535108e-09
-1.5064e-09
-2.870736e-11
1.127741e-09
3.017587e-10
2.212719e-11
-1.388939e-09
1.366812e-09
1.517119e-09
-9.00171e-10
-6.169475e-10
-1.76959e-09
2.583127e-11
1.743759e-09
1.833224e-09
-1.077055e-09
-7.561694e-10
1.353072e-09
-4.093003e-11
-1.312142e-09
7.445215e-10
8.011328e-10
-1.040253e-09
-6.004612e-10
1.640714e-09
-9.231392e-10
-7.65834e-10
1.371927e-09
-1.425863e-09
5.393573e-11
3.134269e-11
-1.205506e-09
1.174164e-09
-1.580863e-09
1.161668e-09
8.026067e-10
-2.239886e-09
-5.048337e-10
1.489486e-09
-9.846523e-10
7.297198e-10
-1.71401e-09
9.842899e-10
-1.142985e-10
-1.436583e-09
1.550881e-09
1.328357e-09
-1.290062e-09
-3.829454e-11
-3.793939e-10
-1.353149e-09
-1.150646e-09
1.729141e-10
9.77732e-10
1.074384e-09
9.459756e-10
1.501797e-09
-1.333651e-09
1.330556e-09
-1.166578e-09
-1.639777e-10
-6.01064e-10
-9.266781e-10
1.527742e-09
-2.396275e-10
-1.304439e-09
1.544066e-09
4.601005e-09
-3.815925e-09
-7.850794e-10
1.749874e-09
-2.097091e-10
-1.47304e-09
8.406797e-10
6.323601e-10
-1.365271e-09
-2.656237e-10
1.630894e-09
4.158247e-10
-1.745188e-09
1.329363e-09
-1.270453e-10
-1.507941e-09
1.634986e-09
-2.124729e-09
1.222673e-09
9.02056e-10
1.063313e-09
-2.055616e-10
-8.577516e-10
-1.18496e-09
1.342471e-09
-2.739207e-09
2.39544e-09
3.43767e-10
7.593642e-10
7.987215e-10
-1.558086e-09
-7.429153e-10
-7.952267e-10
1.538142e-09
1.55607e-09
3.178492e-10
-1.873919e-09
-1.327083e-09
1.41287e-09
-8.578675e-11
-4.032552e-10
-1.117459e-09
1.520715e-09
-1.566078e-09
2.385277e-10
1.32755e-09
2.462803e-09
-1.286255e-09
-1.176548e-09
-1.429661e-09
1.864073e-09
-4.344125e-10
2.852076e-09
-1.486358e-09
-1.365717e-09
-1.372242e-09
-1.026183e-10
1.349123e-09
-1.351785e-10
-1.213945e-09
-1.856753e-09
1.064302e-09
7.924501e-10
1.674063e-09
-1.249654e-09
-4.244089e-10
1.137036e-09
-1.914046e-09
4.55228e-10
-1.167374e-09
7.121456e-10
-4.657795e-10
-1.123285e-09
1.589065e-09
1.536878e-09
-5.912938e-11
-1.477749e-09
-1.176074e-09
-4.824898e-10
1.658564e-09
1.366958e-09
-6.676498e-10
-6.993083e-10
-1.707954e-09
1.874154e-09
-1.661994e-10
9.163068e-10
5.315314e-11
-9.694599e-10
4.892073e-10
1.321972e-09
-1.81118e-09
1.131904e-10
1.23601e-09
-1.3492e-09
-1.426455e-09
1.252141e-09
1.743146e-10
-1.029163e-09
1.563133e-09
-5.339696e-10
1.813122e-09
-5.093225e-10
-1.3038e-09
-5.23407e-10
1.558117e-09
-1.03471e-09
9.403473e-10
-1.634736e-09
-3.789787e-10
-1.165571e-09
1.54455e-09
1.466417e-09
7.628463e-10
-2.229263e-09
-2.015124e-10
1.297717e-09
-1.096205e-09
-3.919715e-10
-1.084669e-09
1.47664e-09
1.221946e-09
1.240857e-09
1.614716e-09
-1.315108e-09
-2.996086e-10
7.000118e-10
-1.658651e-09
9.586389e-10
-1.23129e-09
-1.951651e-10
6.089462e-10
1.302705e-09
1.540314e-09
1.187134e-10
-1.659028e-09
3.820074e-09
-4.746576e-09
-1.520964e-09
4.547593e-10
1.066204e-09
-1.168429e-09
1.694152e-09
-5.257233e-10
-1.698686e-09
1.084503e-09
-1.250007e-09
1.509091e-09
-2.590842e-10
1.106868e-09
9.530945e-11
-1.202177e-09
-7.266339e-09
-8.583967e-10
8.124736e-09
-1.347843e-09
1.31151e-09
3.633254e-11
-1.291178e-10
-1.03753e-09
1.166648e-09
1.318293e-09
-1.436576e-09
1.18283e-10
1.298202e-09
4.272608e-10
-1.725463e-09
5.436343e-10
-1.56873e-09
1.025095e-09
-1.752588e-09
3.57031e-10
1.395557e-09
-1.981131e-09
1.347462e-09
6.33669e-10
9.352931e-10
5.809257e-10
-1.516219e-09
1.691933e-09
-1.405438e-09
-2.864945e-10
1.393505e-09
3.536849e-11
-1.428873e-09
-6.679417e-10
1.169113e-09
-5.011714e-10
-1.328421e-09
-6.136836e-10
1.942104e-09
-1.855468e-09
1.679309e-09
1.761587e-10
1.708296e-09
-1.241732e-09
-4.665646e-10
8.601023e-10
4.736661e-10
-1.333768e-09
-2.849842e-09
-1.93397e-10
3.043239e-09
1.759568e-09
-5.217522e-10
-1.237816e-09
3.789623e-10
-1.628673e-09
1.249711e-09
-5.043731e-09
4.556041e-09
4.876894e-10
-1.120256e-09
1.333057e-09
-2.128004e-10
-6.031691e-10
9.185285e-10
-3.153594e-10
1.340033e-09
-5.228936e-10
-8.171397e-10
-1.841581e-10
-1.034206e-09
1.218364e-09
1.126664e-09
-1.660827e-09
5.341633e-10
1.486153e-09
6.346842e-10
-2.120837e-09
1.677328e-09
-8.419111e-10
-8.354164e-10
-1.81853e-09
6.944766e-10
1.124054e-09
-1.699147e-09
1.633675e-09
-2.340929e-10
-1.399582e-09
-2.50846e-09
1.973345e-09
-1.13681e-09
-3.285384e-10
1.465348e-09
1.540639e-09
-4.54403e-11
-1.495199e-09
-7.070362e-11
-1.041836e-09
1.112539e-09
1.298768e-09
-1.433133e-09
1.343654e-10
-3.074646e-09
5.342277e-09
-2.26763e-09
4.453547e-10
6.67124e-10
-1.112479e-09
-3.240803e-10
1.569276e-09
-1.245196e-09
-5.053561e-10
-8.879453e-10
1.393301e-09
1.789404e-09
-1.019425e-09
-7.699798e-10
-3.588477e-10
1.249099e-09
-8.902509e-10
2.487083e-10
1.210418e-09
-1.459127e-09
-1.281251e-09
1.512534e-09
9.927482e-10
-1.787905e-09
1.590486e-09
8.599778e-10
1.27561e-09
-1.175599e-09
-1.000107e-10
1.095299e-09
1.62694e-10
-1.257993e-09
1.192676e-09
8.293327e-11
-1.788343e-09
1.259527e-09
5.288163e-10
1.448166e-09
-7.843286e-10
-6.638378e-10
4.381233e-10
-1.439212e-09
1.001088e-09
2.105283e-11
1.412944e-09
-1.433997e-09
4.950198e-10
-1.591254e-09
1.455218e-09
-6.17128e-11
-2.656436e-10
1.835108e-09
-1.359347e-09
1.280567e-10
2.42361e-10
1.138252e-09
-1.380613e-09
-5.898255e-10
1.612013e-09
-1.022187e-09
-9.755447e-10
-3.340361e-10
1.309581e-09
-9.736132e-10
-2.900695e-10
1.263683e-09
-1.605532e-10
1.495434e-09
-1.33488e-09
-1.695651e-09
3.676605e-10
1.327991e-09
-1.668774e-09
6.001078e-11
1.608764e-09
1.115191e-09
-1.476068e-09
3.608764e-10
-1.781593e-09
1.038678e-09
-3.583849e-10
1.266704e-09
-9.083191e-10
7.841139e-10
1.0583e-09
-1.842414e-09
-9.982358e-10
1.449618e-09
-4.513825e-10
-8.455405e-10
-2.891965e-10
1.134737e-09
1.741511e-09
-1.37296e-09
1.758384e-09
-1.659685e-09
-9.869968e-11
2.093915e-09
-1.035668e-09
-1.396213e-09
1.217776e-09
-2.215312e-10
1.404533e-09
-1.183002e-09
1.130373e-09
-1.585478e-09
4.551046e-10
-3.746523e-10
-1.147835e-09
1.522487e-09
-1.048434e-09
-9.172278e-11
1.140157e-09
1.94914e-09
-9.907678e-10
-9.583719e-10
-1.427582e-09
1.641641e-09
-2.140595e-10
2.101173e-09
-5.645324e-10
-1.536641e-09
7.53123e-10
1.086937e-09
-1.84006e-09
-1.201973e-09
-1.052999e-10
1.307273e-09
2.454641e-10
-1.028294e-09
-5.003271e-11
1.770603e-09
-1.72057e-09
-1.654882e-09
3.135512e-10
1.341331e-09
1.460195e-09
-1.394426e-09
-6.57688e-11
-3.844428e-10
1.632695e-09
-1.525076e-09
7.653969e-10
7.596789e-10
-1.616399e-09
7.894068e-10
-4.283486e-10
-7.941334e-10
1.222482e-09
-9.996106e-10
-5.636565e-10
1.563267e-09
-3.51972e-11
-1.147545e-09
4.880538e-10
-1.674841e-09
1.186788e-09
1.105314e-09
-7.800366e-10
-3.252779e-10
1.82095e-09
-9.608472e-10
-9.43265e-10
1.098533e-09
-1.552678e-10
1.707412e-09
-1.367777e-09
-3.396351e-10
1.743616e-10
1.411988e-09
-1.586349e-09
3.2019e-10
-9.562325e-10
6.360425e-10
6.378802e-10
1.29387e-09
-1.93175e-09
-8.306489e-10
1.334368e-09
4.520427e-10
-1.953571e-09
1.501528e-09
-6.680239e-10
1.72383e-09
-1.055806e-09
1.510414e-09
-7.040539e-10
-8.063601e-10
-5.984738e-10
-1.29381e-09
1.892284e-09
-1.042168e-09
-7.134274e-10
1.755596e-09
-1.481592e-09
6.190247e-10
1.307973e-09
-6.08117e-10
-6.998563e-10
-1.230277e-09
1.273411e-09
-4.313356e-11
4.112824e-10
-1.512666e-09
1.101383e-09
1.204488e-09
4.725219e-10
-1.67701e-09
1.446229e-09
-1.005438e-09
-4.407906e-10
-9.417277e-10
1.598824e-09
-6.570964e-10
-8.352295e-10
-1.601112e-09
1.342313e-09
1.366952e-11
-1.282368e-09
1.268698e-09
-1.322155e-09
5.737434e-10
7.484113e-10
5.735246e-10
1.729275e-10
-7.464521e-10
1.688991e-09
-1.483519e-10
1.32977e-09
4.83464e-11
-1.378117e-09
-1.849778e-09
1.015492e-09
8.34286e-10
1.063328e-09
-1.502228e-09
1.342316e-09
-1.493562e-09
9.017709e-10
1.192144e-09
6.276232e-11
-1.248077e-09
1.185315e-09
7.473693e-10
-1.588593e-09
8.412236e-10
-1.714752e-09
7.306834e-11
1.641684e-09
1.984194e-10
1.624291e-09
-1.822711e-09
1.530341e-09
-1.32664e-09
-2.037014e-10
-1.974746e-09
2.356231e-09
-3.814852e-10
5.701273e-10
1.126935e-09
-1.697063e-09
4.72593e-10
-1.119869e-09
6.472755e-10
1.171679e-09
-1.72539e-10
-1.143387e-09
1.516832e-09
-3.734448e-10
1.505212e-09
-7.412246e-11
-1.43109e-09
1.354189e-09
-1.802939e-09
4.487504e-10
-1.04372e-09
-4.060016e-10
1.449722e-09
-1.3233e-09
1.501746e-09
1.346259e-09
-1.310891e-09
8.077796e-10
-1.467112e-09
6.593324e-10
1.584853e-09
-2.178287e-10
-1.367024e-09
1.579058e-09
-1.521646e-09
-5.74116e-11
-1.513386e-09
1.351082e-09
1.623039e-10
-8.331808e-10
-6.877694e-10
1.52095e-09
1.616024e-10
-9.556383e-10
1.511171e-09
5.567273e-10
1.204585e-09
-1.649029e-09
4.444432e-10
-6.306731e-10
-1.346549e-09
1.977222e-09
-1.578715e-09
3.566374e-10
1.222077e-09
1.649422e-09
-9.020527e-10
-1.209188e-09
-9.068733e-11
1.299875e-09
-3.795423e-11
-1.51974e-09
1.557695e-09
6.653457e-10
9.833852e-10
-1.648731e-09
8.598096e-10
-1.339012e-09
4.792024e-10
8.074091e-10
8.666541e-10
2.284713e-09
-5.381594e-09
3.096881e-09
1.325292e-09
-1.124035e-09
-2.012566e-10
6.135169e-10
-1.246924e-09
6.334075e-10
-9.987302e-10
-6.4864e-10
1.64737e-09
2.248227e-10
-1.416931e-09
1.192108e-09
9.045938e-10
-2.103738e-09
1.199145e-09
2.882574e-10
-1.478764e-09
1.190507e-09
-1.649103e-09
-3.158099e-10
1.964913e-09
-7.57566e-10
1.767607e-09
6.328306e-10
-1.41872e-09
-1.621208e-09
-2.789548e-11
-1.057136e-09
1.666082e-09
-1.509275e-09
2.298834e-10
1.279392e-09
5.883445e-10
-2.144357e-10
1.298521e-09
-1.084085e-09
-1.298443e-09
1.594531e-09
-2.960884e-10
-1.50952e-09
-1.413403e-10
1.65086e-09
-1.412998e-09
2.048454e-10
1.208152e-09
1.09668e-09
-1.597397e-10
-9.369404e-10
1.919931e-09
-1.325732e-09
-5.941988e-10
-4.880603e-10
-1.636668e-09
-8.640239e-10
-7.598971e-10
1.623921e-09
1.654481e-09
8.903844e-10
-2.147285e-09
1.2569e-09
9.425887e-11
1.411452e-09
1.605493e-09
-2.280986e-10
-2.731717e-09
6.971311e-10
-1.318683e-09
1.409108e-09
-9.042486e-11
-1.362156e-09
-2.604086e-10
1.622564e-09
-2.935382e-10
1.537748e-09
7.225676e-10
-1.586591e-09
3.357384e-10
-1.547941e-09
1.212202e-09
-1.059067e-09
-2.994146e-10
1.358482e-09
-1.342246e-09
-2.183949e-10
1.560641e-09
-2.635216e-10
-1.233956e-09
2.594547e-10
1.206247e-09
-1.465702e-09
-2.893725e-09
1.62008e-10
-2.349374e-11
1.370851e-09
-1.370479e-09
1.344794e-09
2.568523e-11
2.462856e-10
8.705413e-10
-1.116827e-09
-1.254417e-09
-2.964991e-10
1.550916e-09
3.7329e-10
9.832874e-10
-1.356577e-09
1.742114e-10
-1.575405e-09
1.401194e-09
-1.258516e-09
1.40292e-09
-1.444042e-10
-1.555089e-10
1.537781e-09
-1.382272e-09
-1.777361e-09
1.586233e-09
1.911279e-10
2.642867e-12
1.544096e-09
1.238211e-09
-2.296455e-09
6.723375e-10
8.918958e-10
-1.564233e-09
-3.63672e-10
-1.170963e-09
1.534635e-09
2.395719e-10
-1.388507e-09
1.148936e-09
1.155592e-09
-1.260377e-09
4.1477e-10
6.297152e-10
-1.044485e-09
-6.18739e-10
-8.915637e-10
1.510303e-09
-2.521306e-10
1.358999e-09
1.192528e-09
-1.202565e-10
-1.072272e-09
8.426548e-10
8.294275e-10
2.928311e-10
-1.722492e-09
2.116293e-09
2.101364e-09
-4.217658e-09
-1.250714e-09
-8.947176e-11
1.340185e-09
1.632813e-09
-2.811998e-10
-1.351613e-09
1.320552e-09
6.383965e-12
-1.326936e-09
-1.379072e-09
1.355578e-09
-1.902552e-11
-1.353895e-09
1.372921e-09
-3.607894e-12
-1.454063e-09
1.457671e-09
-1.142684e-09
1.874011e-09
-1.541534e-09
2.449761e-11
1.248213e-09
-6.615234e-10
-5.866895e-10
1.393955e-09
4.392689e-10
3.755129e-10
-1.980324e-09
1.604811e-09
1.631688e-09
-1.703464e-09
7.177505e-11
6.118369e-10
-1.113551e-09
5.017139e-10
-1.787062e-09
7.578989e-10
4.988086e-10
-1.531208e-09
1.0324e-09
-1.181123e-09
2.001795e-09
-8.206719e-10
8.921267e-10
-1.471713e-09
5.795866e-10
4.550202e-10
1.380426e-09
-1.835447e-09
-3.29589e-10
1.250899e-09
-9.213098e-10
1.576533e-09
-1.81198e-11
-1.558414e-09
2.164472e-10
1.741567e-09
-1.958014e-09
-7.150776e-10
7.240572e-09
-6.525494e-09
2.687516e-10
1.341192e-09
-1.609943e-09
9.648677e-10
8.49185e-10
-1.814053e-09
-1.232081e-09
4.774831e-10
7.545984e-10
-1.341812e-09
1.29717e-09
4.464131e-11
1.849042e-09
-1.435721e-09
1.839493e-09
1.012583e-09
1.50505e-09
-1.363402e-09
-1.416483e-10
1.72734e-10
-1.316121e-09
-8.119016e-10
-7.078685e-10
1.51977e-09
1.168322e-09
8.409833e-10
-2.009306e-09
-7.824995e-10
1.391244e-09
-6.087442e-10
-1.184776e-09
-5.085928e-10
1.693368e-09
-1.527183e-09
-4.47563e-10
1.60738e-09
-1.585252e-09
-7.553162e-10
-6.067833e-10
1.3621e-09
1.69762e-09
-9.247844e-10
-1.589959e-09
3.621794e-10
1.227779e-09
-1.218139e-09
1.480768e-09
-2.626284e-10
1.690568e-09
5.685346e-11
8.372232e-10
-1.505247e-09
1.6696e-09
-2.872244e-10
-1.382375e-09
-5.128507e-09
-1.61963e-09
6.748137e-09
-2.766025e-09
-1.015656e-09
1.885419e-09
-1.124937e-09
-1.399704e-09
1.183391e-09
2.16313e-10
2.031333e-09
-1.68395e-09
-3.473837e-10
-1.323428e-09
-3.898708e-10
1.713299e-09
2.163243e-10
1.195556e-09
-1.411881e-09
-1.297436e-09
-2.352954e-10
1.532732e-09
9.064307e-10
-1.943675e-09
-1.747227e-09
4.503655e-10
1.296862e-09
-1.799539e-09
4.992891e-10
1.30025e-09
-7.975981e-11
-2.015314e-09
2.095073e-09
1.322793e-09
2.613118e-10
-1.584105e-09
1.071046e-09
7.931175e-10
1.674174e-09
-1.35544e-10
8.079475e-10
6.676296e-10
-1.475577e-09
-1.200438e-09
1.700916e-10
-1.411643e-09
1.149547e-09
-1.423808e-09
6.016072e-10
8.22201e-10
2.284984e-10
1.068128e-09
-1.296626e-09
1.801757e-09
-3.64911e-10
-1.436846e-09
-3.437565e-09
1.311636e-09
2.125929e-09
3.082362e-11
1.544726e-09
-1.57555e-09
1.136149e-09
6.532552e-10
-9.63883e-10
-7.97746e-11
1.043658e-09
1.433479e-09
2.304709e-10
-1.66395e-09
1.512801e-09
-8.548422e-10
-6.579585e-10
-8.725174e-10
-1.142756e-09
2.015273e-09
-3.175687e-09
3.458821e-09
-2.831338e-10
-3.588573e-11
1.375919e-09
8.596668e-10
6.967744e-10
-1.556441e-09
7.820117e-10
7.811213e-10
1.309626e-09
-1.709659e-09
1.506983e-09
2.026752e-10
1.346892e-09
1.945126e-09
2.056721e-11
-1.965693e-09
-1.539898e-09
-2.071496e-10
-1.779476e-09
4.867586e-10
1.292718e-09
-1.242759e-09
9.06841e-11
-2.945138e-10
-1.310186e-09
-1.165236e-09
1.540749e-09
1.571836e-09
-8.187132e-10
-1.230816e-09
3.887912e-11
1.317744e-09
-1.56947e-09
2.517263e-10
1.609238e-10
8.873287e-10
-1.776058e-09
6.143101e-10
1.161748e-09
4.103143e-10
1.136085e-09
-1.546399e-09
1.085718e-09
-1.276531e-09
1.908129e-10
-1.474299e-09
8.435081e-10
6.307914e-10
5.597745e-10
1.368877e-09
-1.420877e-09
5.200036e-11
1.916127e-11
-1.324397e-09
1.305236e-09
-1.738749e-09
6.965811e-10
-1.487319e-09
1.349892e-09
1.374268e-10
-1.670642e-09
1.241397e-09
4.292456e-10
4.375987e-10
1.209207e-09
1.449649e-09
-1.200893e-09
-2.487562e-10
-5.926202e-10
1.456397e-09
-8.637768e-10
-1.529285e-09
-1.679696e-10
1.697254e-09
-1.846907e-09
5.306043e-10
1.316303e-09
-6.568397e-10
-6.880038e-10
1.344844e-09
1.551506e-09
-4.585071e-10
-1.092999e-09
-1.570193e-09
2.319841e-09
-7.496479e-10
3.860826e-10
-1.471594e-09
1.085511e-09
8.175653e-10
1.094081e-09
-1.911646e-09
1.577431e-09
-1.546607e-09
1.486112e-09
-1.792128e-09
3.060157e-10
1.880291e-09
-1.150571e-09
1.523616e-09
-4.500694e-10
-1.073546e-09
1.632084e-09
-1.433665e-09
1.451461e-09
2.197603e-12
-1.453659e-09
-2.061295e-09
1.632946e-09
1.461178e-10
-1.422416e-09
1.276298e-09
1.507479e-09
1.832572e-10
-1.690736e-09
-1.196629e-09
-2.913931e-10
-1.330162e-09
1.494424e-09
-1.642617e-10
6.894811e-10
-1.462335e-09
8.249549e-10
-1.735898e-09
9.109433e-10
1.51285e-09
-7.049024e-10
-9.454984e-11
-1.291672e-09
1.386222e-09
-1.872595e-09
7.100984e-10
1.162497e-09
-1.873715e-09
6.574361e-10
5.739904e-10
-1.231426e-09
1.027952e-09
-1.248024e-09
2.200712e-10
-1.205811e-09
1.617093e-09
-1.734007e-09
9.87855e-10
7.461518e-10
-4.595718e-10
-1.408179e-09
-1.297437e-09
2.635332e-10
-9.867735e-10
-5.788072e-10
-1.434768e-09
8.983117e-10
5.364568e-10
1.641733e-09
1.867706e-09
-3.509439e-09
-1.673712e-09
6.334592e-10
-9.827041e-10
1.742068e-09
-1.010346e-09
-1.475654e-09
7.873683e-10
6.882856e-10
7.045631e-10
8.655949e-10
-1.570158e-09
1.370743e-09
-6.276956e-11
1.284224e-09
-1.302771e-09
1.565997e-09
-1.404323e-09
-1.616735e-10
1.465664e-09
-8.559941e-10
-6.096694e-10
-1.608181e-09
1.263547e-09
3.446338e-10
-1.34525e-09
-2.741471e-10
1.619397e-09
-7.550055e-10
1.325133e-09
-1.250778e-09
1.260532e-09
-9.754591e-12
1.550212e-09
-1.342291e-09
-2.079213e-10
8.598994e-10
-1.572933e-09
7.130333e-10
-9.829311e-11
-1.092395e-09
7.565757e-11
-1.175754e-09
2.863766e-10
1.179109e-09
-1.465486e-09
-1.299959e-09
1.59292e-09
-2.929613e-10
9.94932e-11
-1.373255e-09
-1.083375e-10
-8.393491e-10
-3.812245e-09
2.638939e-09
1.173305e-09
-2.079659e-10
-1.574828e-09
1.782794e-09
1.906516e-09
-1.004745e-09
1.733167e-10
-1.748145e-09
1.296895e-09
-1.427844e-09
7.408425e-11
1.353759e-09
-1.497314e-09
3.222346e-10
1.175079e-09
8.455996e-10
2.481944e-10
-1.093794e-09
1.15713e-09
-5.053676e-11
-1.01014e-09
-1.40585e-10
1.150725e-09
-1.527305e-09
3.560972e-10
-7.946775e-10
-8.989232e-10
1.693601e-09
-1.098795e-09
-4.911631e-10
1.348801e-09
-9.600256e-10
-3.887759e-10
1.828749e-09
-7.698418e-10
-1.058907e-09
1.335199e-09
2.984766e-10
-1.171323e-09
1.380077e-09
-4.438964e-11
1.530502e-09
1.747229e-09
3.901022e-11
-1.801466e-09
1.536146e-09
2.653199e-10
-1.865546e-10
1.082533e-09
1.147815e-09
-1.925903e-09
7.780879e-10
2.71543e-10
9.522706e-10
-1.223814e-09
-1.051842e-09
1.36207e-09
-3.102274e-10
1.564853e-09
-8.753717e-10
8.36528e-10
8.8004e-10
-1.716568e-09
-1.607853e-09
1.800092e-10
-9.183671e-10
-5.072377e-10
1.425605e-09
1.347307e-09
-1.433299e-09
1.103749e-09
-1.076108e-09
-3.573097e-10
-3.46801e-10
1.490866e-09
-1.144065e-09
-3.386385e-10
9.960745e-10
-9.680013e-10
1.286136e-09
-1.262212e-09
-1.223778e-10
-1.468244e-09
1.590621e-09
1.718055e-09
-7.763376e-10
-9.41717e-10
3.42596e-10
-1.580052e-09
1.237456e-09
-8.214551e-10
1.538183e-09
-7.167283e-10
1.228706e-09
1.310337e-10
-1.359739e-09
1.147947e-09
5.427931e-10
-1.615403e-09
2.869817e-10
-8.980823e-10
1.471323e-09
-5.732412e-10
7.249535e-11
-1.192751e-09
1.89574e-09
-1.269589e-09
-1.558051e-09
1.162959e-09
3.950912e-10
-3.793937e-10
1.769208e-09
6.461203e-10
-1.705334e-09
1.059214e-09
3.401132e-10
8.791122e-10
-1.219225e-09
-1.169509e-09
1.424835e-09
-2.553262e-10
1.734898e-09
-1.242531e-09
-4.923676e-10
2.005789e-10
-1.177612e-09
9.770331e-10
-1.014695e-09
1.429465e-09
7.482847e-10
-1.666652e-09
1.94068e-09
-1.399234e-09
-5.414463e-10
1.293497e-09
-1.558221e-09
2.64724e-10
1.198327e-09
-1.438217e-09
2.398898e-10
-1.221119e-09
-3.256167e-10
1.546736e-09
1.458438e-09
-2.67192e-10
-1.191246e-09
-1.817181e-09
1.146628e-10
1.702518e-09
-1.607679e-09
6.32867e-10
9.748116e-10
-1.513435e-09
9.99522e-11
-9.633599e-10
9.101287e-10
5.32312e-11
7.994352e-10
-1.975509e-09
-1.838896e-09
1.687339e-09