/*--------------------------------*- C++ -*----------------------------------*\
| =========                 |                                                 |
| \\      /  F ield         | OpenFOAM: The Open Source CFD Toolbox           |
|  \\    /   O peration     | Version:  2406                                  |
|   \\  /    A nd           | Website:  www.openfoam.com                      |
|    \\/     M anipulation  |                                                 |
\*---------------------------------------------------------------------------*/
FoamFile
{
    version     2.0;
    format      ascii;
    arch        "LSB;label=32;scalar=64";
    class       volVectorField;
    location    "0.46";
    object      U;
}
// * * * * * * * * * * * * * * * * * * * * * * * * * * * * * * * * * * * * * //

dimensions      [0 1 -1 0 0 0 0];

internalField   nonuniform List<vector> 
4529
(
(0.01046429 -0.0009919673 0)
(0.009067149 -0.0003927882 1.10038e-24)
(0.009222013 0.0001650921 -9.926658e-25)
(0.008068966 -0.0005880928 -2.915694e-24)
(0.008646031 0.0003006006 1.39124e-24)
(0.008842351 0.001291856 0)
(0.009433425 0.0005736836 0)
(0.009408645 0.001195214 -1.868209e-25)
(0.008838753 -0.0001069697 -1.03765e-24)
(0.009525311 -0.0005476199 6.066449e-26)
(0.01061179 -0.0001938753 -1.519541e-25)
(0.01002554 -0.0008249759 -5.27465e-25)
(0.009906974 -0.0004952875 2.978751e-25)
(0.01001362 -0.0007936375 -5.022201e-25)
(0.009507827 -0.0003140188 0)
(0.009783534 -0.000437267 3.023003e-25)
(0.008861478 -0.0007318891 0)
(0.009738896 -0.0006493232 5.343576e-25)
(0.01014396 -0.0003481252 0)
(0.009559575 -0.000958273 -6.559562e-26)
(0.01004645 -0.0003906671 -5.828572e-28)
(0.009619768 -0.000485031 8.824999e-25)
(0.009567339 -0.0001048342 -2.579521e-25)
(0.009283562 -0.0003468609 0)
(0.01002955 -0.0003500869 1.473135e-26)
(0.009320234 -0.0005499002 -2.428955e-26)
(0.009796236 0.001311443 -3.97101e-25)
(0.008643461 0.0006793968 -8.871916e-25)
(0.009062536 0.001050627 1.223335e-24)
(0.008383607 0.0001526862 -1.275974e-24)
(0.01013991 -0.0006076402 1.786621e-25)
(0.009552576 0.0001116384 3.524435e-25)
(0.009786925 -0.0003559489 0)
(0.01024362 -0.0005428178 0)
(0.01096506 -0.0005709879 0)
(0.009133186 0.0006299031 1.63737e-24)
(0.009303117 -0.0003269943 -3.404845e-25)
(0.00998493 -0.0009607427 0)
(0.008726542 -0.0009119341 -2.331405e-24)
(0.01072918 -0.0008860966 7.483893e-25)
(0.009534057 -0.0001974728 -2.236061e-26)
(0.009796124 -0.0003217685 -3.288258e-25)
(0.00947345 -0.0001761612 -5.691424e-25)
(0.01013222 -0.0004758245 0)
(0.0101199 -0.0004365207 6.286255e-27)
(0.01072669 -0.000731917 -5.500222e-27)
(0.009454333 7.688715e-05 0)
(0.00910962 -0.0003383013 0)
(0.01013549 -0.0003062137 -5.963938e-27)
(0.008881169 0.0001224963 -1.236133e-24)
(0.007288763 -0.0002737801 5.515822e-24)
(0.009432502 -0.0004356831 -3.030123e-25)
(0.007230056 0.0003772447 0)
(0.01048182 -0.0007283711 2.809274e-26)
(0.009334175 -0.001082996 2.188544e-25)
(0.00885055 -0.0002935356 -8.74894e-25)
(0.00890873 -0.0001023102 0)
(0.01071473 -0.0001114201 1.737356e-24)
(0.008084079 0.0009867526 6.015688e-24)
(0.007834892 -0.0009419588 -4.299061e-24)
(0.009294472 0.0009914411 1.032266e-24)
(0.01059525 -0.0006652833 0)
(0.009894376 -0.000351602 -2.926712e-25)
(0.007823813 -0.001028135 0)
(0.009316355 0.0003535439 0)
(0.0104034 -0.0007067488 3.857188e-27)
(0.01015348 -0.001049787 8.440975e-25)
(0.009599547 -0.0002739798 3.039667e-25)
(0.009273615 8.150518e-05 0)
(0.01109094 -0.0004103731 0)
(0.009321309 -1.581069e-05 1.930615e-24)
(0.008995183 -0.000285879 1.144842e-24)
(0.008359637 -0.0001235286 -1.015635e-24)
(0.009809387 -0.0003471239 -4.165149e-25)
(0.007285468 0.000331857 -1.644233e-24)
(0.008504029 -0.0009506753 -3.222502e-24)
(0.01083247 -0.0008329937 5.845196e-25)
(0.01047707 -0.0002545881 0)
(0.008430956 -0.001256073 3.928067e-24)
(0.008958208 0.0002221282 2.706759e-25)
(0.008522934 -9.56412e-05 2.038175e-24)
(0.009425857 0.0002160016 6.674795e-25)
(0.01023922 -0.0004059092 -4.046645e-26)
(0.009551316 -0.0005440323 -1.692312e-25)
(0.009120765 -0.0007260388 -7.271258e-25)
(0.009799025 -0.0004963979 8.874212e-25)
(0.01012454 -0.000350312 0)
(0.0104679 -0.000542287 0)
(0.01071541 -0.000674327 0)
(0.01042271 -0.001090361 1.267029e-24)
(0.007418569 -0.0005784684 2.031343e-24)
(0.009719026 -0.0002727534 0)
(0.01020818 -0.0003585156 -3.829178e-26)
(0.009459845 0.0003855212 -2.185353e-25)
(0.009652639 -0.0002487656 0)
(0.01010838 -0.0008470889 -5.80154e-25)
(0.007965765 -0.0002974778 -3.018496e-24)
(0.009503317 -0.0011721 -2.293205e-25)
(0.009398981 0.001309971 7.031396e-24)
(0.009234018 -0.0007314968 -1.031511e-24)
(0.009813312 -0.0004357198 0)
(0.008595399 -0.0006325009 -1.407149e-25)
(0.009130365 0.000372279 9.851431e-25)
(0.009537223 -0.001157652 -2.222719e-25)
(0.009581954 -0.0003838224 -4.781238e-25)
(0.01074471 -0.0007547319 2.453253e-26)
(0.009691496 -0.001368563 4.303782e-24)
(0.01080659 -0.0007086546 9.433736e-27)
(0.01044985 -0.0005160094 -6.976394e-25)
(0.01029637 -0.0008336312 6.133306e-26)
(0.009968906 -0.0003297237 3.997667e-26)
(0.009522196 0.0002709673 2.919918e-25)
(0.008309347 0.0006973961 0)
(0.008751597 0.0008717372 5.858974e-24)
(0.008299602 -0.0002215009 0)
(0.009617006 -0.0003180137 -4.990661e-25)
(0.009988413 -0.001144329 -1.713634e-24)
(0.009284906 0.00101461 1.523837e-24)
(0.009439703 -0.0005129416 -4.71665e-25)
(0.009991121 -0.0005580989 0)
(0.009719474 -0.001239928 0)
(0.009304566 0.0003025486 -1.034776e-25)
(0.01052312 -0.0009626751 0)
(0.01007432 -0.00103668 -1.098274e-24)
(0.009596023 -0.0003343688 2.58464e-25)
(0.008806797 -0.0007370229 0)
(0.009400373 0.001003265 0)
(0.01039984 -0.000575667 -6.766728e-26)
(0.00948402 -0.0003367665 0)
(0.008668933 -0.001055413 -2.389255e-24)
(0.009359372 0.000423674 4.986676e-26)
(0.009349318 0.001278538 4.23339e-24)
(0.007370106 -0.0006235168 -5.031207e-24)
(0.010457 -0.0008770104 2.101967e-25)
(0.01073207 -0.0008630681 0)
(0.01029051 -0.000558722 -1.3308e-25)
(0.01033531 -0.0005393108 0)
(0.01007325 -0.0004787346 -5.164897e-26)
(0.0100752 -0.000909556 0)
(0.00935624 -0.000804052 0)
(0.009757225 -0.001151517 1.677774e-24)
(0.009824896 -0.0009815588 -2.680457e-24)
(0.009848138 -0.0005954347 -4.118611e-25)
(0.00899045 -0.0008765322 -2.249964e-24)
(0.007934452 3.2032e-05 3.044557e-25)
(0.009396399 0.001159714 1.672034e-24)
(0.01054213 -0.000937748 -9.391538e-25)
(0.008284712 0.0001619258 1.283021e-24)
(0.009441333 0.0008900583 0)
(0.009381327 -0.0005053219 4.38517e-25)
(0.009147132 -7.54516e-05 4.569304e-25)
(0.008785535 0.0007872743 -5.547168e-25)
(0.009220308 -0.0009956815 1.553292e-24)
(0.009803623 -0.0003934953 3.373347e-25)
(0.009283929 0.001335758 4.996753e-24)
(0.009948342 -0.0005944269 -3.765715e-25)
(0.01026286 -0.0006657051 0)
(0.009398644 -0.001193816 0)
(0.009815462 -0.0006644242 -6.545799e-25)
(0.009220916 0.0001898886 1.038755e-24)
(0.01109089 -0.0006027093 0)
(0.009992309 -0.0004286205 2.444508e-25)
(0.008914038 -0.001187012 -1.437962e-25)
(0.009976145 -0.001245661 1.263445e-24)
(0.01005833 -0.0003751714 6.38856e-26)
(0.01012365 -0.0003598521 0)
(0.01009775 -0.0004681247 2.728658e-26)
(0.009446408 -0.000882093 0)
(0.01016893 -0.001238978 0)
(0.009366061 0.0006184982 -1.391948e-24)
(0.008307343 0.001043059 0)
(0.009456052 0.000194962 0)
(0.007484491 -0.0008729232 3.177699e-24)
(0.01026773 -0.0004573384 1.328144e-26)
(0.01089071 -0.0008314462 0)
(0.009088656 0.0009278392 -8.288096e-25)
(0.01000474 -0.001036762 -1.814006e-24)
(0.008205432 -0.001220031 -3.980497e-24)
(0.007296908 -0.0007177168 -2.669495e-25)
(0.01113575 -0.0006274236 0)
(0.01028333 -0.0004814498 -1.663372e-25)
(0.009222544 -0.0005902611 0)
(0.009302913 5.045711e-05 1.67337e-24)
(0.009409453 1.178506e-05 9.717949e-25)
(0.01119188 -0.0004090953 -5.076586e-25)
(0.007570444 -0.001081231 -3.629166e-24)
(0.009500281 -0.001082554 -1.23239e-24)
(0.009987438 -0.0005430104 -4.309745e-25)
(0.008304373 -4.278891e-05 6.002295e-25)
(0.01000422 -0.0005897301 0)
(0.009192392 0.001034204 4.31512e-25)
(0.007519182 -0.0003846891 0)
(0.01040046 -0.0005032151 0)
(0.00930468 0.001231 -8.175843e-26)
(0.009343587 -0.0006149425 0)
(0.01076216 -0.0006798154 8.056418e-28)
(0.01019319 -0.0004594033 0)
(0.007845422 -0.0002877288 0)
(0.01116047 -0.0004646641 1.16675e-24)
(0.01006887 -0.0003933636 -4.293985e-27)
(0.009466068 0.0003466338 7.209358e-25)
(0.01067269 -0.000508009 4.458266e-25)
(0.009499544 4.390945e-05 -2.043547e-25)
(0.007539892 0.0002656264 0)
(0.009648892 -0.0003236899 0)
(0.009136161 -0.0004254827 -1.050852e-24)
(0.008686601 -0.001094682 0)
(0.009109942 -0.0003951998 0)
(0.008905267 0.0005874772 0)
(0.007724277 -0.0009208046 3.913993e-24)
(0.01029677 -0.0005841589 -1.048261e-27)
(0.008782132 0.0003909012 3.169923e-25)
(0.01023871 -0.0007429417 0)
(0.009167967 -0.001066106 2.429966e-24)
(0.009385017 -0.0008122762 1.512323e-24)
(0.009269241 0.0008239373 0)
(0.009604393 -0.0007808886 0)
(0.009723421 -0.0005167917 -1.045696e-24)
(0.0091172 0.0003096114 0)
(0.01092467 -1.117853e-05 -2.476009e-24)
(0.009270057 -0.0008271341 -1.122784e-24)
(0.009933464 -0.0004030629 6.237622e-26)
(0.009555611 -0.0008379825 -7.869459e-25)
(0.01006099 -0.000614528 -1.714804e-27)
(0.01011956 -0.0008799252 -1.538419e-24)
(0.01082649 -0.0005643901 -4.506836e-26)
(0.009626496 -0.000279368 -8.758577e-25)
(0.008957371 -0.0001471092 -4.81208e-25)
(0.008861954 -0.001295003 3.26509e-24)
(0.0098263 -0.0003265575 8.231748e-25)
(0.009416248 0.001344774 0)
(0.007623069 0.000665308 5.447733e-24)
(0.008920791 -0.001432346 0)
(0.01016216 -0.0007131507 -2.345909e-25)
(0.00886912 -0.0005253114 -7.647267e-25)
(0.009242585 0.0009637927 1.431277e-24)
(0.01016067 -0.001157464 1.797145e-25)
(0.009057419 -0.001149428 -2.175107e-24)
(0.01019573 -0.0004472139 2.118597e-26)
(0.009114826 0.0002011696 5.215847e-25)
(0.008869877 0.0003714871 0)
(0.01016901 -0.0004281796 0)
(0.009840249 -0.0004839909 5.452158e-25)
(0.007809584 -0.0004967318 2.922203e-24)
(0.01058603 -0.0003054981 6.970038e-26)
(0.009173623 -0.001095519 -2.942551e-25)
(0.008495243 -0.001319708 3.455686e-24)
(0.009641571 -0.0005432831 0)
(0.00987551 -0.0009060077 -5.011947e-25)
(0.01026714 -0.0004049624 0)
(0.009911556 -0.001286344 -2.873831e-25)
(0.0103918 -0.0003800863 0)
(0.008439393 -0.0003553155 -1.974521e-24)
(0.01075369 -2.453391e-05 0)
(0.01111025 -0.0006577029 -1.037364e-25)
(0.01024969 -0.0009091362 4.966906e-25)
(0.008472994 -2.506713e-05 0)
(0.007806965 0.0007644384 -1.461795e-24)
(0.008343949 -0.000613014 0)
(0.009580363 -0.0005586621 4.889061e-25)
(0.01041471 -0.0002164488 0)
(0.00976064 -0.0002854796 -3.234953e-25)
(0.009518602 -0.0002811882 -4.76448e-25)
(0.009972066 -0.0006936335 4.087303e-25)
(0.009284118 0.000211104 0)
(0.008354483 0.0009369202 3.151502e-24)
(0.009290543 -0.0003014006 3.697221e-25)
(0.01035485 -0.001193435 -6.018602e-26)
(0.009013283 -0.000423503 8.992984e-25)
(0.009742386 -0.0004646324 2.628554e-25)
(0.00938745 -0.0007041902 0)
(0.009990564 -0.0004818324 -2.791571e-25)
(0.01059642 -0.0009411958 0)
(0.01025318 -0.001241591 -2.720799e-24)
(0.007901377 0.0009291644 9.894621e-25)
(0.01002612 -0.0003939992 -1.288326e-25)
(0.01007517 -0.0004535008 0)
(0.01015797 -0.0004903792 2.038197e-26)
(0.008509574 -0.0008294857 5.057154e-25)
(0.008944043 -0.001421229 0)
(0.009979639 -0.0008489468 4.023899e-25)
(0.009487442 0.0003017681 5.11156e-25)
(0.0102579 -0.0006092078 -2.982242e-26)
(0.009530965 -0.001233151 0)
(0.0101007 -0.0003906289 -9.794338e-27)
(0.009249579 0.0001555145 -6.42383e-25)
(0.009365886 0.0007865625 0)
(0.01010533 -0.0004831908 -1.490928e-25)
(0.008988441 -0.0006207901 0)
(0.009667581 -0.000830486 -5.284102e-25)
(0.009791377 -0.001354218 0)
(0.01057731 -0.0009160934 9.74384e-25)
(0.01020292 -0.0009071693 7.015159e-25)
(0.009254226 -0.0001246374 5.467383e-25)
(0.009007719 0.0001751621 2.880705e-26)
(0.01039332 -0.0008552245 4.220076e-25)
(0.009434185 8.732259e-05 0)
(0.009434342 -0.001032384 0)
(0.009804539 -0.0004828627 -7.819016e-26)
(0.009779246 -0.0009803616 -1.749994e-24)
(0.009381772 -4.744075e-05 -2.851315e-25)
(0.009266589 -0.0002250416 0)
(0.008942914 0.0005200863 8.86243e-25)
(0.01095151 -0.0003586858 0)
(0.01016337 -0.001026362 -8.174119e-25)
(0.009155769 0.0008967908 3.245033e-24)
(0.009785525 -0.001315912 0)
(0.009551912 -0.0004177589 6.451798e-25)
(0.008903798 -0.0006652536 0)
(0.009866172 -0.0006648881 4.51645e-26)
(0.009770914 -0.0005866947 0)
(0.009406639 0.000556167 0)
(0.01036176 -0.0004116095 -1.650192e-25)
(0.009321514 -0.0005065747 0)
(0.01009947 -0.001238629 0)
(0.01024231 -0.001032828 0)
(0.009399245 0.0003559848 8.001904e-25)
(0.009502871 0.0003340749 0)
(0.008192617 0.001190821 -1.667051e-24)
(0.01070085 -0.0005720872 3.191646e-25)
(0.0103562 -0.0008086109 0)
(0.01082986 -0.0005137841 -8.518926e-25)
(0.009080578 0.0003074964 0)
(0.008613443 -0.000519356 1.102682e-24)
(0.01003341 -0.0008842876 -1.322789e-24)
(0.008872733 -0.000180137 -2.475073e-24)
(0.009862532 0.001244985 1.793174e-24)
(0.009997476 -0.0003355127 3.126921e-25)
(0.009885062 -0.0004534412 3.10351e-25)
(0.01003621 -0.0003697288 1.930748e-25)
(0.01003752 -0.0004243337 3.97568e-26)
(0.009946066 -0.0003906125 0)
(0.009879604 -0.000336727 0)
(0.009355193 -2.26956e-05 -2.994369e-26)
(0.01062781 -0.00071155 0)
(0.008255951 0.0003977513 0)
(0.008524386 0.0006213435 -8.501077e-26)
(0.0091417 0.0007643495 0)
(0.009915654 -0.0003166103 2.452701e-25)
(0.009685526 -0.0003950974 4.206512e-25)
(0.009586599 -0.0002631233 0)
(0.009541137 -0.001121604 -2.434349e-24)
(0.01110441 -0.0004821966 -1.557424e-24)
(0.008851936 0.001096493 -8.561257e-26)
(0.009366769 -0.001282599 0)
(0.01067317 -0.0005714946 -2.413483e-27)
(0.009181447 0.0003105927 0)
(0.008638871 0.001146173 6.313133e-26)
(0.008496385 0.0006654782 -1.919891e-24)
(0.009512859 4.13705e-05 1.681079e-25)
(0.009651617 -0.0005130363 -1.519914e-25)
(0.01069203 -0.0004706941 3.854985e-25)
(0.009477242 0.0002306641 3.941669e-25)
(0.009437174 0.0002666233 -7.424765e-25)
(0.01075022 -0.0007741681 1.654897e-26)
(0.008776584 -0.0004792684 1.531784e-24)
(0.008890881 0.001157116 -4.061917e-25)
(0.0108167 -0.0001020067 1.260739e-24)
(0.009350675 -0.0004609374 0)
(0.009418074 -0.000216756 -1.272301e-24)
(0.009851759 -0.0003552452 -4.044917e-25)
(0.01094517 -0.0008545184 7.558915e-25)
(0.009055503 -0.0001235884 0)
(0.009885489 -0.0005361581 3.532162e-25)
(0.01004918 -0.0007344982 -1.850281e-25)
(0.01025203 -0.0005689635 0)
(0.01025822 -0.0007026613 -2.65959e-25)
(0.008756175 -1.200797e-05 1.074229e-24)
(0.009443327 0.0006249483 7.07802e-25)
(0.01054868 -0.001104554 2.803254e-24)
(0.01028434 -0.0006340859 0)
(0.009906072 -0.0006048453 -4.009779e-25)
(0.009675147 -0.0009315528 0)
(0.01044353 -0.0004773785 1.433241e-25)
(0.009543616 -0.0007249977 3.930558e-25)
(0.009930501 -0.0002789247 -1.195191e-25)
(0.0103139 -0.0002116245 0)
(0.007809836 -0.0003842717 3.495535e-24)
(0.0072793 -0.0001618808 -1.656511e-24)
(0.009700403 -0.001002249 -5.408741e-25)
(0.009769577 -0.0006704935 5.105255e-25)
(0.01051584 -0.0006827051 -1.173594e-25)
(0.01025607 -0.0003799533 -1.859072e-25)
(0.01015761 -0.0005140933 1.197392e-25)
(0.01099891 -0.0007985122 3.666178e-25)
(0.01012244 -0.0004856259 7.43588e-26)
(0.009525488 -0.001382641 -1.816256e-24)
(0.01110372 -0.0004318957 0)
(0.008746354 0.0001109682 -1.281433e-24)
(0.01007769 -0.0003311309 0)
(0.007772063 0.0004958718 1.09621e-25)
(0.0108932 -0.0006536488 4.555729e-26)
(0.01101973 -0.0002559716 2.165602e-24)
(0.009175162 0.0005259143 0)
(0.01068823 -0.00100559 0)
(0.009165217 0.0005858892 1.233164e-24)
(0.009293995 0.0006345123 5.808731e-25)
(0.009336978 0.000883569 -9.414703e-25)
(0.009263339 0.0005739096 0)
(0.008865784 0.0005492512 0)
(0.009538043 0.0007059054 0)
(0.01079146 -0.0005725252 -8.32482e-26)
(0.007755968 0.000269248 0)
(0.007920652 0.0004427557 0)
(0.00780266 0.0002291786 -2.734256e-24)
(0.009839314 -0.0006368873 -2.55318e-25)
(0.008007008 0.0005740893 -2.109731e-24)
(0.009831477 -0.0003966912 -1.763933e-26)
(0.01093425 -0.0006378178 0)
(0.00925631 -0.0002938787 -7.28912e-25)
(0.008799669 -3.686876e-05 1.078423e-24)
(0.009614229 -0.0004646277 -5.647498e-25)
(0.008419843 0.0006595826 1.893067e-24)
(0.009367013 8.572224e-06 -7.416962e-25)
(0.01030864 -0.0005171569 -3.054308e-26)
(0.009828337 -0.000416007 0)
(0.009803024 -0.0005800898 5.272172e-25)
(0.008969842 -0.0005235135 -1.157733e-24)
(0.01008887 -0.0005926767 3.921252e-25)
(0.0105135 -0.0005697921 5.802676e-27)
(0.00815737 -0.001067559 -2.439931e-24)
(0.01016675 -0.001218997 0)
(0.007847406 -0.00071578 3.718142e-24)
(0.008922173 0.0009816553 0)
(0.008113983 -0.001249582 -4.961494e-24)
(0.007407528 -0.0002351324 -1.099489e-24)
(0.009294687 0.001306828 0)
(0.009700413 -0.00110281 1.48884e-24)
(0.0109232 -0.0008972695 -3.213421e-25)
(0.009191211 -0.0007143905 -3.8972e-25)
(0.009887952 -0.0003803197 1.990209e-25)
(0.01091795 -0.000759134 6.276914e-26)
(0.007961255 -0.001169685 -3.894429e-24)
(0.007539682 0.0003942923 3.784938e-24)
(0.01058965 -0.0005939736 -3.169511e-25)
(0.00960789 -0.0003615555 -6.986674e-25)
(0.01033288 -0.0004961616 -1.743619e-25)
(0.01020075 -0.0004798554 -1.00998e-26)
(0.0087683 -0.0004047874 0)
(0.01040315 -0.0005876975 -5.783587e-28)
(0.01042547 -0.001135868 -1.799367e-25)
(0.01009798 -0.0006210239 2.498501e-25)
(0.009656258 -0.001344551 0)
(0.009336655 -0.0003326754 0)
(0.009502297 0.0005126574 -5.029642e-26)
(0.00954207 0.000499948 0)
(0.01061002 -0.0006084564 4.833791e-25)
(0.009449283 0.0004677379 -2.220613e-25)
(0.009445938 0.0003523171 -4.53353e-25)
(0.009052468 0.0005344949 0)
(0.008917982 -0.001131053 -1.642577e-24)
(0.009636252 -0.0009185472 1.754932e-24)
(0.00924676 -0.000866626 6.646954e-25)
(0.009836641 -0.000749653 3.442674e-25)
(0.009968893 -0.0008176993 -9.318859e-25)
(0.009873666 -0.001332198 -2.121351e-24)
(0.009624434 -0.0002434603 0)
(0.009329317 -0.001188463 2.983822e-24)
(0.01081887 -0.0008860061 -5.255881e-25)
(0.009853401 -0.0005663272 9.801825e-25)
(0.010628 -0.0007823748 -7.028344e-26)
(0.01040058 -0.00103701 1.008142e-25)
(0.009355874 5.150394e-05 0)
(0.0111702 -0.0004724974 0)
(0.00944453 0.001128699 2.726e-25)
(0.008716423 0.000497709 -4.720174e-25)
(0.009709521 -0.0002942227 0)
(0.009921959 -0.0007687069 2.279184e-25)
(0.01031553 -0.0007825201 3.744821e-25)
(0.009919047 -0.0003345971 8.887234e-26)
(0.01025773 -0.0005548044 0)
(0.01110155 -0.0005745486 7.809292e-25)
(0.0090894 0.0006625367 0)
(0.009342343 -0.0001614113 0)
(0.008165922 -0.0001431024 0)
(0.01006827 -0.0003245045 0)
(0.008653818 0.0005309757 6.494524e-26)
(0.009456515 -8.994213e-05 -4.464956e-25)
(0.01027884 -0.0005492519 -2.002204e-26)
(0.00963284 -0.0003287718 -6.353865e-26)
(0.01114602 -0.0005996249 -2.563094e-25)
(0.01089116 -0.0009161185 2.660982e-25)
(0.0108722 -0.0009088546 0)
(0.009948091 -0.0003483765 2.283492e-25)
(0.009448347 -0.0003229788 0)
(0.01090396 -0.0007104071 0)
(0.008932878 0.0004500976 0)
(0.01035868 -0.0004720362 -3.975788e-26)
(0.009471458 -0.0007730007 7.241058e-25)
(0.009311591 0.001138006 0)
(0.007459346 -0.001163573 6.748685e-25)
(0.009132083 -2.133639e-05 -5.70294e-25)
(0.009020149 0.0001126741 0)
(0.009915958 -0.0002901861 2.301638e-25)
(0.009483275 0.0005707145 5.270234e-25)
(0.008842079 0.0003299011 1.100725e-24)
(0.008765264 3.342799e-05 3.391265e-24)
(0.008578136 0.0001476463 2.28569e-24)
(0.009334562 0.0004907915 -6.95241e-25)
(0.008499233 0.0005252261 -1.375463e-24)
(0.008952382 0.0002862688 0)
(0.00984347 -0.0003129958 -2.449725e-25)
(0.009395806 -0.0008327384 -1.130552e-24)
(0.01068885 -0.001051136 0)
(0.01069836 -0.0009768949 0)
(0.009765072 -0.0003928728 1.935883e-25)
(0.009989786 -0.0003496219 0)
(0.009957466 -0.0003439824 -2.046824e-25)
(0.0098468 -0.0003355115 -1.807324e-26)
(0.009869178 -0.0004972644 -4.154834e-25)
(0.009937422 -0.0003626215 -2.050783e-25)
(0.01001132 -0.0004228515 -1.833945e-25)
(0.00890285 -0.0001677939 -1.420255e-24)
(0.01047011 -0.0003184557 -4.823852e-25)
(0.009393548 -0.000331502 -6.811102e-25)
(0.009116784 -0.0009538537 -6.38825e-25)
(0.009691953 -0.0003646963 4.673477e-25)
(0.01063043 -0.000950909 0)
(0.01097307 -0.0007195479 0)
(0.01090559 -0.0007943171 5.85716e-25)
(0.009507304 8.528578e-05 0)
(0.01024877 -0.0005278561 0)
(0.009509414 0.000772298 0)
(0.009489924 7.469574e-05 0)
(0.009519123 2.146003e-05 0)
(0.009994915 -0.0003718893 2.280385e-26)
(0.01009524 -0.0008658879 7.272037e-25)
(0.008997345 -0.0001941752 0)
(0.01052399 -0.0006351926 0)
(0.01014408 -0.0003272399 -1.762095e-26)
(0.009708661 -0.0007212947 -9.483305e-25)
(0.01000578 -0.0007006085 6.019937e-25)
(0.009924694 -0.0006328819 -1.083042e-25)
(0.009862208 -0.0006870976 -5.700893e-25)
(0.009961604 -0.0004933746 -2.521815e-25)
(0.00859943 0.0006325962 6.872128e-25)
(0.01022956 -0.00036676 0)
(0.01016779 -0.0004166641 1.612605e-26)
(0.0101847 -0.0004426362 6.026841e-26)
(0.01099576 -0.0005400546 0)
(0.008476379 -0.001364671 -1.624643e-25)
(0.009913099 -0.000443062 5.842602e-26)
(0.01122256 -0.0004418339 -4.508061e-25)
(0.009949438 -0.0005042786 -2.514244e-25)
(0.009222778 0.0008868564 8.126777e-25)
(0.01008979 -0.0004044879 -7.181606e-26)
(0.009445891 -0.0005908278 -4.018995e-25)
(0.008886916 0.0006230902 0)
(0.009778792 -0.0008234371 -3.889884e-25)
(0.01101495 -0.0005460608 0)
(0.009000241 0.0002344539 3.812056e-26)
(0.009411162 0.00039496 0)
(0.009308127 -0.0005825093 0)
(0.009053201 -0.0002407345 7.945992e-25)
(0.01021389 -0.0008676659 3.675801e-25)
(0.0101058 -0.0009911367 0)
(0.00851874 0.001185437 3.307303e-24)
(0.00922872 0.001193698 -2.392094e-24)
(0.01088513 -0.0006095025 -4.763099e-25)
(0.009714074 -0.001133899 0)
(0.01059314 -0.000687303 -8.785682e-27)
(0.009569229 -0.0003082246 -9.356666e-25)
(0.009326152 -0.0009640121 4.333996e-25)
(0.008482695 -0.00118552 1.054871e-25)
(0.008289982 0.0002132762 3.948336e-24)
(0.009563527 -0.0001470403 6.383793e-25)
(0.009492777 -2.202547e-05 -3.352073e-25)
(0.008951953 0.001147893 0)
(0.008729618 0.0001842462 -2.189432e-24)
(0.009213907 0.001379213 -4.160459e-24)
(0.01035434 -0.0008260774 0)
(0.01044652 -0.0003758008 -7.133749e-25)
(0.01042577 -0.000597743 1.419912e-26)
(0.009831108 -0.001098919 1.341104e-25)
(0.009163748 -0.0005400452 -2.854957e-26)
(0.009020102 0.000270039 -1.261719e-24)
(0.00907762 0.0004006721 -1.239919e-25)
(0.009582091 0.00132379 5.062275e-24)
(0.01010836 -0.0004589738 5.1646e-26)
(0.01008066 -0.0003119826 0)
(0.009475261 0.0009291911 0)
(0.009505937 -0.001212692 0)
(0.009553718 -0.0008784654 0)
(0.0100562 -0.0007663187 3.788035e-25)
(0.009535111 -0.0002613964 -6.919991e-25)
(0.0090879 0.0007580631 -3.398784e-25)
(0.01015459 -0.0007744808 0)
(0.01033454 -0.001186383 -1.486633e-24)
(0.009093254 0.0001517817 -1.126198e-24)
(0.01101518 -0.0007136221 -4.49074e-25)
(0.01105295 -0.0005944723 0)
(0.01013419 -0.001191409 -1.246243e-24)
(0.01029864 -0.0009892799 -6.869875e-25)
(0.01088052 -0.0001735405 1.63721e-24)
(0.009051373 -0.0008480225 1.737729e-24)
(0.00934584 -9.14951e-05 -4.402671e-25)
(0.00914116 -0.0007861366 -1.668635e-24)
(0.009056851 3.105627e-05 1.088298e-24)
(0.01095906 -0.0005944574 -6.006345e-25)
(0.01078855 -0.0005232474 0)
(0.009945859 -0.0002829817 0)
(0.009108363 -1.273783e-06 -5.399248e-25)
(0.01066218 -0.0007678084 0)
(0.01062424 -0.0008680967 -3.714262e-25)
(0.01056419 -0.0007745512 -3.185118e-25)
(0.01053979 -0.0007470203 -5.223604e-26)
(0.01038396 -0.0004720104 0)
(0.009943968 -0.0008546069 -7.807889e-25)
(0.01067069 -0.0007344965 0)
(0.009523273 0.0008347534 -1.232496e-25)
(0.008116172 -0.0008589517 1.96425e-24)
(0.009826153 -0.0008671275 1.298044e-24)
(0.009890621 -0.000882358 0)
(0.009833903 -0.0005677899 -5.798858e-25)
(0.01041159 -0.0009183835 -6.94157e-25)
(0.01081218 -0.0003022016 -1.031818e-24)
(0.01021416 -0.0002382089 5.594106e-26)
(0.01022457 -0.0005472537 0)
(0.007775347 -0.0001289181 3.849653e-24)
(0.01012231 -0.0007471876 -3.263174e-25)
(0.0101993 -0.0008161261 0)
(0.008658485 -0.0008324999 0)
(0.008456099 -0.0007322699 1.561763e-24)
(0.01076155 -0.0008358929 -1.436574e-25)
(0.009728362 -0.001290115 5.462202e-25)
(0.009900189 -0.0003002208 -1.926508e-25)
(0.0105704 -0.000536275 0)
(0.009501614 -0.0001984243 1.305452e-24)
(0.01029643 -0.001233016 0)
(0.009433667 -0.0004094361 5.090343e-25)
(0.008884022 0.0008388551 0)
(0.008431282 -0.0009482469 6.268628e-24)
(0.008968426 -0.001308678 -2.51763e-25)
(0.009507009 0.0002391588 -1.465617e-25)
(0.009719802 -0.0003984746 3.856436e-26)
(0.01053278 -0.0006015928 1.641904e-25)
(0.01024947 -0.0002931631 4.937515e-25)
(0.009666249 -0.0004801914 -8.395383e-25)
(0.009309655 0.0006179397 -8.963734e-25)
(0.009823185 -0.0006043495 0)
(0.009730406 -0.0004867644 1.310013e-25)
(0.00996824 -0.00030266 0)
(0.01104896 -0.0005642362 -5.343906e-26)
(0.01113915 -0.00035181 1.946394e-24)
(0.00968074 -0.0009815146 0)
(0.009994873 -0.0004102082 2.796794e-25)
(0.009158347 0.0007370418 8.104755e-26)
(0.00851725 -4.068156e-05 -1.691293e-24)
(0.01021533 -0.0006686461 0)
(0.01012804 -0.00102 -6.785837e-25)
(0.01020206 -0.0003377756 4.481085e-26)
(0.008547523 -0.0006394766 1.056238e-24)
(0.01025189 -0.001184282 -2.366001e-24)
(0.009230082 0.001350597 -2.290766e-24)
(0.009598873 -0.0004984088 0)
(0.009605782 -0.000877974 0)
(0.01018323 -0.0004811618 0)
(0.008282992 0.0007474941 0)
(0.009751582 -0.0003075063 -2.54663e-25)
(0.006994482 -0.0001880221 -1.216075e-24)
(0.009673412 -0.0004478151 -6.336034e-25)
(0.009360068 0.0008461987 -5.741433e-25)
(0.008104232 -0.000350119 -5.393625e-24)
(0.009549081 -0.0002862481 0)
(0.01030085 -0.001204685 1.118155e-24)
(0.008670226 -0.0001676695 1.323222e-24)
(0.009116582 -0.0006088688 1.135748e-24)
(0.009347602 7.409566e-05 1.877501e-25)
(0.007479231 0.0007079867 -1.064013e-25)
(0.009214223 -2.180923e-05 -3.637047e-25)
(0.009178402 -6.535421e-05 -3.859499e-25)
(0.01116159 -0.0005251286 7.353854e-26)
(0.009527197 0.0005565154 -4.432791e-25)
(0.01003741 -0.0003203252 0)
(0.009845236 -0.001236275 0)
(0.009462419 0.0007234243 -8.146987e-25)
(0.00947349 2.967677e-05 -7.295632e-25)
(0.01076344 -0.0006430662 -5.603922e-26)
(0.009057257 0.0008592284 -1.722762e-25)
(0.009416932 -3.413767e-05 -4.886221e-25)
(0.009688935 -0.000487925 -4.792786e-25)
(0.009460198 0.0001472907 0)
(0.009260511 -9.637176e-05 -5.367801e-25)
(0.009165399 -0.0001285724 3.870101e-25)
(0.01091498 -0.0006846817 0)
(0.01086446 -0.0007561579 1.204409e-26)
(0.01062451 -0.0005922393 -1.338113e-25)
(0.009895229 -0.0009993914 -6.181231e-25)
(0.009842486 -0.0009498584 1.029447e-24)
(0.009443446 0.001326228 -3.178095e-24)
(0.008846815 0.0002599619 2.214217e-24)
(0.009519867 0.0008802684 0)
(0.008890624 0.0009053299 -2.014754e-25)
(0.008944481 0.0008507423 -1.691845e-24)
(0.009763974 -0.0004829412 -7.088882e-26)
(0.01093418 -0.00072093 0)
(0.009847189 -0.0004973057 -2.724446e-25)
(0.008430846 0.0009031474 -3.2099e-24)
(0.008208191 -0.0008265707 3.555292e-24)
(0.009724024 -0.0002979889 -3.076255e-25)
(0.009745473 -0.0003625132 -1.111089e-26)
(0.009729015 -0.0005353233 5.972966e-25)
(0.007259277 -0.0005869844 0)
(0.009561567 -6.712362e-05 0)
(0.01022814 -0.0004893666 0)
(0.01100376 -0.0004803484 -3.367855e-25)
(0.009320708 0.0007913345 5.51127e-25)
(0.009304294 -0.0004838616 8.096302e-25)
(0.00932431 7.486899e-05 -1.775203e-25)
(0.008621322 0.001365983 0)
(0.009003925 0.001382821 1.528992e-25)
(0.00945787 0.001099262 -2.338383e-25)
(0.009533333 0.001192001 -4.094155e-24)
(0.009656082 -0.0006041036 1.136084e-25)
(0.009449988 0.0006619249 0)
(0.009443336 -0.001312528 2.995968e-24)
(0.00959849 -0.0006934722 5.885397e-25)
(0.009438783 -0.0007582861 1.304857e-24)
(0.00925898 -0.0006951303 8.197323e-26)
(0.009428644 -0.0006308687 1.33322e-24)
(0.008131148 0.0001033777 -2.420564e-24)
(0.009591848 -0.0008016992 6.907548e-25)
(0.009239838 -0.0007629424 0)
(0.009929037 -0.0007140002 -1.156748e-24)
(0.009891202 -0.0004317362 0)
(0.008702144 0.0005363896 0)
(0.01118959 -0.0004552536 1.214143e-25)
(0.01064653 -0.0005914481 1.596073e-25)
(0.01105615 -0.0003554075 0)
(0.009493433 -0.0006262249 1.313264e-24)
(0.009454916 -0.0006157734 0)
(0.01083244 -0.0009586169 1.233961e-24)
(0.009506936 -0.0006513199 -1.518546e-24)
(0.0100485 -0.001027206 0)
(0.008898047 -0.0005890416 1.354798e-24)
(0.009335851 -0.0007301165 1.395427e-24)
(0.009285489 -0.0006626731 -1.433051e-24)
(0.007909131 0.0007640686 1.437469e-24)
(0.0102815 -0.001054283 0)
(0.008784512 -0.00130417 -3.260401e-24)
(0.01027605 -0.0007837007 -2.374871e-25)
(0.008098724 -0.0009008718 -5.360063e-24)
(0.007981411 -0.0007037683 1.467199e-24)
(0.008286895 -0.0009837147 0)
(0.009466959 -0.00138216 -2.451943e-24)
(0.009594516 -0.0008371822 1.178889e-24)
(0.009480233 0.0001546413 0)
(0.009474874 0.0001966302 0)
(0.009484779 -0.0004481102 2.815285e-25)
(0.007077463 1.548337e-05 -2.184802e-24)
(0.009351288 0.000184962 5.734872e-25)
(0.009272095 -0.0005509959 5.109694e-25)
(0.008077585 0.0006724468 1.869638e-24)
(0.009483232 0.0008615377 0)
(0.008824175 0.001189463 -1.640064e-25)
(0.008840338 -0.0005876618 1.412647e-24)
(0.009497584 -8.376819e-05 0)
(0.00744157 -0.001015692 -1.205289e-24)
(0.007940565 -0.001002611 -4.243e-24)
(0.007822659 -0.001070836 0)
(0.008866574 0.001021523 7.211523e-25)
(0.008504348 0.0009115225 1.695174e-24)
(0.01096784 -0.0007043727 6.633708e-26)
(0.007535866 0.0005838511 -2.685685e-24)
(0.01037143 -0.0008887066 0)
(0.008338655 -0.000744929 -2.155978e-24)
(0.008743448 0.001133686 -2.782946e-24)
(0.009411513 -0.0003026336 6.152522e-25)
(0.00826209 0.0004986461 0)
(0.01019507 -0.001256129 2.654635e-24)
(0.01061362 -0.001074163 -1.319502e-24)
(0.008937786 -0.00104935 -6.739623e-25)
(0.007745356 -0.0003549384 -2.548739e-24)
(0.0103661 -0.001115931 5.22011e-26)
(0.009196701 -0.0003035875 -7.011394e-26)
(0.009615964 -0.0003028671 5.523473e-25)
(0.0103588 -0.0005191706 -1.273697e-25)
(0.009701289 -0.0003404264 -4.398817e-25)
(0.008695558 -0.0004984736 0)
(0.008790071 -0.0006303997 -2.704708e-24)
(0.007216127 -0.0006331273 0)
(0.008691184 -0.0006467812 1.724359e-24)