/*--------------------------------*- C++ -*----------------------------------*\
| =========                 |                                                 |
| \\      /  F ield         | OpenFOAM: The Open Source CFD Toolbox           |
|  \\    /   O peration     | Version:  2406                                  |
|   \\  /    A nd           | Website:  www.openfoam.com                      |
|    \\/     M anipulation  |                                                 |
\*---------------------------------------------------------------------------*/
FoamFile
{
    version     2.0;
    format      ascii;
    arch        "LSB;label=32;scalar=64";
    class       volScalarField;
    location    "0.88";
    object      p;
}
// * * * * * * * * * * * * * * * * * * * * * * * * * * * * * * * * * * * * * //

dimensions      [0 2 -2 0 0 0 0];

internalField   nonuniform List<scalar> 
15536
(
-44.964
-41.327
-37.93458
-35.39205
-33.98838
-33.12491
-33.69233
-36.32979
-38.655
-38.03998
-32.36481
-24.37369
-19.20942
-14.74541
-11.67213
-8.589422
-5.183187
-7.978337
-11.577
-9.273638
-10.78729
-23.97926
-43.40581
-64.00722
-71.44306
-55.30646
-25.12621
4.89121
0.1171243
-20.10261
-32.08361
-40.53468
-60.71049
-104.9384
-147.3015
-131.4087
-79.74276
-80.96964
-94.27641
-95.42942
-99.47803
-104.8371
-108.4585
-110.2502
-110.9286
-110.4452
-108.9543
-106.386
-103.2669
-99.76211
-95.50603
-90.60587
-85.02833
-79.03199
-72.5602
-65.69014
-58.7804
-51.74654
-44.32391
-36.70596
-29.20525
-21.83839
-14.48651
-7.209518
-0.1534589
6.779641
13.41276
19.71577
25.57696
30.99886
35.93769
40.39444
44.32634
47.65164
50.32949
52.4669
53.92514
54.75342
55.03533
54.76352
53.61154
51.79768
49.39544
46.37652
42.76651
38.59042
33.91439
28.6482
22.95871
16.8963
10.30866
3.386875
-3.798645
-11.42939
-19.2176
-26.95363
-34.85919
-42.91707
-50.93094
-58.98954
-66.92159
-74.53312
-81.77956
-88.75059
-95.57341
-101.9269
-107.7881
-113.1101
-117.9078
-122.2482
-125.8427
-128.6029
-130.5705
-131.7073
-131.8074
-130.4018
-127.2333
-122.5881
-119.7379
-116.8182
-114.1316
-146.3146
-168.3242
-140.1017
-100.6748
-80.91082
-72.92467
-61.2502
-38.34945
-22.74129
-73.5948
-123.3526
-125.554
-112.5963
-91.32906
-71.70044
-55.54635
-42.01248
-29.43926
-19.12185
-15.28936
-14.39707
-14.23654
-15.93803
-20.24454
-26.30101
-32.88776
-37.40785
-38.86444
-41.16715
-45.13455
-48.63443
-51.04433
-52.27368
-52.18625
-50.79328
-48.29912
-44.83573
-41.24097
-37.888
-35.36904
-33.97863
-33.11497
-33.68082
-36.29958
-38.59784
-37.95513
-32.33284
-24.38081
-19.22347
-14.7569
-11.67471
-8.564981
-5.164817
-7.946787
-11.54532
-9.28056
-10.84829
-24.02021
-43.36942
-63.88808
-71.33921
-55.29427
-25.18093
5.001709
0.03751037
-20.19158
-32.14029
-40.50997
-60.674
-104.9825
-147.4208
-131.3429
-79.66215
-80.873
-94.17905
-95.23627
-98.9094
-103.9117
-107.2231
-108.8266
-109.4256
-108.9079
-107.4033
-104.834
-101.7231
-98.24632
-94.02444
-89.16801
-83.63733
-77.69417
-71.28436
-64.47967
-57.63603
-50.67387
-43.32929
-35.7853
-28.35936
-21.06851
-13.79187
-6.586853
0.400626
7.262161
13.82518
20.06397
25.86601
31.23172
36.12011
40.53215
44.42454
47.7184
50.36938
52.48658
53.93164
54.75205
55.03094
54.76018
53.61602
51.81968
49.44001
46.44911
42.87317
38.73729
34.10657
28.89158
23.26059
17.25703
10.73382
3.884479
-3.230101
-10.79028
-18.50117
-26.15915
-33.98825
-41.96605
-49.90047
-57.88105
-65.73699
-73.27321
-80.44856
-87.35753
-94.12361
-100.4207
-106.2339
-111.5119
-116.2737
-120.5896
-124.1667
-126.9254
-128.9091
-130.0848
-130.2641
-129.0471
-126.2332
-121.9592
-119.482
-116.6956
-114.042
-146.1598
-168.3381
-140.1685
-100.6555
-80.90255
-72.97886
-61.35858
-38.49834
-22.55231
-73.76564
-123.7184
-125.3516
-112.286
-91.12043
-71.55989
-55.46597
-42.0009
-29.46603
-19.13039
-15.27094
-14.37351
-14.21713
-15.92646
-20.23473
-26.27958
-32.84476
-37.38943
-38.87054
-41.174
-45.0867
-48.52313
-50.88491
-52.08015
-51.9743
-50.59193
-48.12996
-44.76813
-41.19363
-37.86773
-35.35618
-33.96264
-33.07685
-33.56289
-36.22884
-38.59738
-37.97501
-32.37196
-24.43529
-19.26839
-14.78916
-11.69265
-8.581925
-5.184169
-7.938345
-11.59247
-9.353863
-11.01452
-24.15296
-43.42115
-63.9979
-71.53471
-55.62924
-25.78089
4.937015
0.05014311
-20.20925
-32.15029
-40.5449
-60.78495
-105.2726
-147.9494
-131.8348
-79.9582
-80.40377
-93.19141
-94.65649
-98.2542
-102.9523
-106.1849
-107.8571
-108.5158
-108.024
-106.5612
-104.0121
-100.9125
-97.46539
-93.25647
-88.42433
-82.91391
-77.00691
-70.64008
-63.85021
-57.03509
-50.11743
-42.79905
-35.28644
-27.89385
-20.64422
-13.4073
-6.233179
0.710146
7.541357
14.06845
20.27372
26.04372
31.37968
36.23779
40.62241
44.48993
47.76493
50.39436
52.49723
53.93217
54.74486
55.01983
54.74945
53.61266
51.83141
49.46796
46.49619
42.9435
38.83312
34.23169
29.04232
23.44445
17.47568
10.98236
4.170569
-2.904716
-10.43246
-18.10478
-25.71773
-33.51161
-41.45529
-49.34441
-57.30123
-65.12184
-72.62829
-79.77576
-86.64139
-93.37704
-99.63867
-105.429
-110.6829
-115.4223
-119.7218
-123.2749
-126.0044
-127.9542
-129.1029
-129.2408
-127.9306
-125.2042
-121.2286
-118.8276
-116.1269
-114.3358
-146.4048
-168.7349
-140.4507
-100.7927
-80.93805
-72.92883
-61.28265
-38.44084
-22.19688
-75.03412
-125.384
-125.5268
-112.188
-90.97856
-71.43297
-55.39244
-42.03484
-29.55988
-19.17005
-15.2409
-14.34796
-14.18858
-15.90109
-20.22222
-26.27634
-32.88341
-37.43535
-38.96431
-41.29523
-45.12643
-48.46113
-50.7863
-51.9925
-51.92395
-50.5201
-48.05373
-44.67628
-41.14091
-37.85631
-35.34543
-33.93484
-33.02159
-33.40614
-36.15289
-38.61806
-38.01013
-32.50068
-24.56803
-19.36233
-14.85434
-11.7232
-8.647329
-5.296547
-8.00177
-11.71215
-9.523361
-11.31496
-24.40028
-43.59604
-64.35619
-72.03974
-56.24467
-27.03089
4.489451
0.2974567
-19.94676
-32.00631
-40.62936
-60.99734
-105.7083
-148.6333
-132.4778
-81.49025
-80.31575
-91.83071
-93.70037
-97.28502
-101.5813
-104.5699
-105.9941
-106.534
-106.0029
-104.5637
-102.039
-98.96782
-95.57432
-91.43701
-86.68732
-81.25733
-75.42796
-69.14945
-62.45335
-55.72349
-48.90153
-41.69367
-34.26668
-26.96116
-19.80572
-12.66174
-5.568822
1.285126
8.038804
14.48884
20.62839
26.33244
31.60707
36.41113
40.74971
44.57662
47.8224
50.41971
52.50357
53.92581
54.72887
54.99881
54.7274
53.59784
51.83811
49.4977
46.55356
43.03655
38.9685
34.41849
29.27736
23.74563
17.84288
11.414
4.687857
-2.307619
-9.764209
-17.33542
-24.85338
-32.56244
-40.40519
-48.19482
-56.05697
-63.78025
-71.18041
-78.22301
-85.00911
-91.66421
-97.83152
-103.5444
-108.7145
-113.392
-117.6511
-121.1562
-123.8456
-125.7903
-126.9683
-127.2111
-126.1564
-123.7243
-120.1615
-117.8795
-115.6274
-115.3571
-146.7819
-168.5469
-140.3515
-100.8817
-80.9296
-72.57544
-60.75757
-37.95653
-21.99676
-77.59595
-128.24
-125.9218
-112.235
-90.87729
-71.30482
-55.31462
-42.12096
-29.74977
-19.25415
-15.17793
-14.31479
-14.13264
-15.84649
-20.18147
-26.23061
-32.76697
-37.34135
-39.07408
-41.49321
-45.16798
-48.35823
-50.62247
-51.78797
-51.67808
-50.33451
-47.92013
-44.59548
-41.0987
-37.86731
-35.34482
-33.90156
-32.97483
-33.25101
-36.11022
-38.66753
-38.122
-32.74578
-24.79848
-19.52522
-14.97246
-11.78358
-8.792007
-5.535307
-8.172763
-11.92085
-9.801398
-11.75852
-24.78855
-43.94683
-65.07691
-73.0368
-57.19037
-28.86765
3.513773
0.7609896
-19.31945
-31.66359
-40.81537
-61.21404
-105.6328
-148.1309
-132.3764
-84.25571
-81.37912
-90.66943
-92.66223
-96.22717
-100.2465
-103.129
-104.5259
-105.1769
-104.6373
-103.2219
-100.7032
-97.57725
-94.24065
-90.08872
-85.36978
-79.94663
-74.16393
-67.95155
-61.27608
-54.59487
-47.86018
-40.71751
-33.33907
-26.09857
-19.03041
-11.96392
-4.927638
1.840426
8.533787
14.9135
20.98854
26.62322
31.8419
36.59179
40.88238
44.66043
47.87419
50.43633
52.49825
53.90696
54.69873
54.96187
54.68588
53.56247
51.83425
49.5247
46.61192
43.13342
39.10777
34.61108
29.51623
24.05745
18.21599
11.83588
5.201683
-1.714457
-9.131024
-16.61483
-24.04046
-31.68964
-39.46389
-47.15981
-54.97299
-62.63613
-69.9727
-76.95945
-83.68506
-90.31159
-96.42261
-102.1171
-107.2569
-111.9129
-116.2
-119.661
-122.3647
-124.3113
-125.5086
-125.6955
-124.5806
-122.2762
-119.0016
-116.8682
-115.4573
-116.6384
-145.0352
-164.3244
-138.2239
-100.4881
-80.81055
-71.92279
-59.63851
-37.14556
-22.7305
-81.00728
-132.0971
-126.6963
-112.5469
-90.86334
-71.1927
-55.2283
-42.25008
-30.05348
-19.3889
-15.05864
-14.26112
-14.05979
-15.77345
-20.10816
-26.1047
-32.40195
-36.97592
-39.11703
-41.70399
-45.22127
-48.29535
-50.51057
-51.67815
-51.59002
-50.1994
-47.8079
-44.52154
-41.07032
-37.91308
-35.35089
-33.87506
-32.9591
-33.11782
-36.1218
-38.76154
-38.33131
-33.15307
-25.08607
-19.77137
-15.16754
-11.9009
-9.041531
-5.938775
-8.379307
-12.00232
-10.02881
-12.27646
-25.32392
-44.55283
-66.31796
-74.74266
-58.60117
-31.28183
1.649231
1.080268
-18.57173
-31.30282
-41.09396
-61.12863
-103.3086
-142.7614
-128.962
-86.86266
-82.90947
-89.46937
-91.40828
-94.75529
-98.36761
-101.0067
-102.0988
-102.5958
-101.9772
-100.6684
-98.20441
-95.12349
-91.93727
-87.88248
-83.29385
-77.96483
-72.27564
-66.17756
-59.58672
-53.02237
-46.42702
-39.38517
-32.09759
-24.97679
-18.02187
-11.06477
-4.11112
2.532426
9.146668
15.42532
21.40032
26.95783
32.11949
36.80071
41.02887
44.73882
47.92341
50.44169
52.47216
53.86882
54.64641
54.8997
54.61671
53.50418
51.81003
49.542
46.66953
43.23844
39.26568
34.82729
29.78003
24.42709
18.67164
12.33112
5.807482
-0.9663419
-8.323257
-15.70354
-22.98624
-30.52608
-38.20727
-45.77604
-53.47996
-61.03046
-68.25002
-75.10367
-81.71991
-88.26999
-94.24194
-99.84829
-104.8671
-109.4251
-113.6205
-116.999
-119.5938
-121.4247
-122.6728
-123.0865
-122.2134
-120.2382
-117.4003
-115.5689
-115.029
-116.992
-139.6761
-154.5381
-133.3236
-99.48389
-80.58065
-71.19278
-58.70481
-36.80365
-25.34362
-85.15088
-136.8744
-128.0327
-113.1691
-90.95523
-71.0697
-55.08915
-42.36144
-30.43867
-19.58588
-14.86259
-14.17379
-14.0014
-15.75633
-20.10438
-26.01089
-31.9804
-36.54608
-39.13013
-41.90488
-45.27219
-48.21894
-50.35881
-51.48905
-51.41374
-50.054
-47.69931
-44.49318
-41.11087
-38.04466
-35.36087
-33.87765
-32.99618
-33.012
-36.21642
-38.9395
-38.75997
-33.88287
-25.4651
-20.12848
-15.48806
-12.14358
-9.405271
-6.516763
-8.388527
-11.48725
-9.829094
-12.6496
-25.87953
-45.51169
-68.33665
-77.52788
-60.68877
-34.49133
-1.649162
0.5792113
-18.07553
-30.89285
-41.44893
-60.73989
-98.10801
-130.4184
-120.6779
-87.84523
-83.95371
-88.13223
-90.10655
-93.21807
-96.49055
-99.04077
-99.95406
-100.644
-99.93562
-98.60341
-96.0837
-92.88618
-89.80986
-85.72128
-81.24452
-75.93289
-70.26022
-64.29903
-57.83572
-51.33862
-44.81138
-37.91966
-30.77508
-23.74108
-16.83838
-10.07533
-3.197408
3.295351
9.832579
15.97065
21.84697
27.3927
32.43619
37.01398
41.15656
44.80121
48.0082
50.43243
52.42354
53.80732
54.56357
54.80564
54.52907
53.43616
51.73478
49.50083
46.68272
43.31669
39.43644
35.07692
30.05357
24.81341
19.19979
12.94668
6.467039
-0.1938685
-7.376463
-14.66985
-21.84943
-29.25434
-36.75219
-44.27778
-51.89664
-59.26799
-66.41568
-73.12099
-79.63886
-86.15985
-92.00012
-97.58626
-102.501
-107.0511
-111.3191
-114.6305
-117.2881
-119.3403
-120.5802
-120.8396
-119.9868
-118.2223
-115.7205
-114.1744
-114.1346
-116.2316
-133.1001
-144.2685
-127.2538
-98.23552
-80.37123
-70.55733
-58.2761
-37.89158
-30.28993
-90.57126
-142.2369
-130.4429
-114.1097
-91.20343
-70.95851
-54.85705
-42.33647
-30.6913
-19.79501
-14.58067
-14.03775
-13.9978
-15.894
-20.23763
-25.9901
-31.62011
-36.20595
-39.1783
-42.12064
-45.36451
-48.19124
-50.26083
-51.36859
-51.30327
-49.92027
-47.61551
-44.57082
-41.28279
-38.29838
-35.48664
-33.95757
-33.0866
-32.94843
-36.40719
-39.20024
-39.55727
-35.04534
-26.65872
-20.74256
-16.06692
-12.68975
-9.952709
-7.23656
-8.055878
-9.794856
-8.87614
-12.40353
-25.98044
-46.71464
-71.49405
-81.85895
-63.83706
-39.1041
-6.396634
-1.1689
-18.0377
-30.97109
-43.01546
-60.24291
-91.35297
-117.0245
-110.9306
-87.36176
-84.06627
-86.4673
-88.39969
-91.10996
-93.88457
-96.40117
-96.69795
-97.23479
-96.58721
-95.40738
-93.15899
-89.73947
-86.87959
-82.94137
-78.66083
-73.31685
-67.7291
-62.16164
-55.87639
-49.11252
-42.78726
-36.32979
-29.36266
-22.13459
-15.37671
-9.058089
-2.147714
4.105425
10.61248
16.48561
22.46215
27.99867
32.75113
37.19375
41.2216
44.85442
48.10422
50.35811
52.36391
53.71311
54.44273
54.68611
54.4298
53.31413
51.61098
49.37479
46.62409
43.33276
39.56335
35.39809
30.35913
25.19939
19.76102
13.83712
7.406721
0.4881433
-6.368895
-13.29314
-20.61691
-27.93912
-34.9534
-42.32163
-50.24887
-57.12604
-64.28037
-70.79606
-77.11653
-83.63364
-89.19473
-94.822
-99.45542
-103.8531
-108.1634
-111.293
-113.8104
-115.4751
-116.9072
-117.5021
-116.8439
-115.4058
-113.3117
-112.2835
-112.5969
-114.7276
-127.2229
-134.698
-120.6263
-96.44317
-80.50964
-70.29998
-58.22195
-40.71662
-37.43509
-97.28218
-147.0549
-134.1735
-115.4425
-91.42297
-70.93383
-54.39842
-41.95825
-30.52744
-19.53996
-14.18776
-13.88875
-14.0666
-16.21652
-20.50573
-26.18267
-31.3624
-35.98515
-39.32456
-42.39706
-45.50671
-48.20725
-50.19311
-51.27306
-51.23197
-49.80654
-47.60889
1.550121
0.8865143
-36.3662
-19.73795
11.50176
-15.68644
-0.1304126
0.4334262
10.36781
-1.3214
-1.487372
1.068393
-0.7053475
-0.3179677
-0.561061
2.811837
-0.02161979
-2.960466
0.216258
0.2729127
-57.29296
-0.0242282
2.078875
-1.610921
-0.2465668
0.09952857
0.8131188
-1.363676
-6.008332
-0.1202274
0.8284609
-18.21803
0.04044433
-0.06122757
0.06541418
-4.561815
-0.001038185
-0.0144787
0.01594643
-5.702473
-22.02649
2.019513
0.7546137
3.211583
33.15555
-0.2109602
0.006978666
-0.1078241
-0.05148142
-1.232449
0.05804262
0.001482148
-5.346783
0.1066577
0.0153116
21.94154
-3.022373
0.06854298
-12.64445
-21.22098
-1.258446
0.003039207
-24.41499
0.398195
2.002413
0.07267196
-30.84119
-0.01412482
-0.07638124
-0.04116311
-0.8036474
0.003979143
0.5207991
-58.28109
22.98351
-0.07434808
4.030925
-2.614131
-0.02046704
0.1181634
-21.91764
0.0264825
3.160361
0.04119519
-10.25079
-0.9218047
0.04722496
0.3182999
-36.53946
0.01684546
-16.00514
24.31935
-0.0649236
0.0292439
-0.3676223
1.393853
-12.89652
5.732393
-36.76551
-0.4181012
0.7938104
0.2956455
0.07505692
-91.449
-0.009210352
-16.34837
0.004052992
-0.3569208
-3.750795
-6.232293
0.6457614
0.8038011
1.6105
7.340434
-21.89427
0.0001590455
0.008650193
-0.06181742
22.9648
-0.3567634
2.119788
0.09165245
-0.5983717
-0.01380176
-0.01319824
-1.544528
-0.6392305
-32.20905
-0.4716434
0.1171021
0.03555893
0.02036668
0.09205702
-0.7749
-0.0793029
-31.32358
0.04684317
6.42137
0.7780727
0.02543015
-32.65131
0.4121486
-67.97983
1.018055
-0.003638009
-0.02460794
0.06082947
-43.36236
-0.02065399
-0.7975967
0.04474409
-18.17442
-50.89706
-0.03944381
-2.320305
-31.67823
-0.1141498
0.05197377
0.1178566
-34.2843
0.1103309
-31.09809
1.851996
-0.2845522
0.04339354
-27.58393
-22.59724
1.815744
-31.92058
-0.0106294
-0.1849789
11.80849
0.4170002
-34.76903
-5.142528
-34.50063
2.277961
-0.3036398
-30.6624
-0.003544537
15.96133
1.033206
-0.07085692
-0.2816873
3.571115
-48.09062
-0.08100315
-0.05975625
-2.291525
0.4363737
-0.5925203
0.4952407
-8.102418
-1.035994
0.001453041
-0.499474
-0.04024548
0.3383904
-4.02422
-34.83135
0.1501556
-0.07623743
1.270877
-33.40362
-0.2792663
1.23387
-7.437298
-0.04981378
-9.009282
-0.001040565
0.2820854
0.03700633
-0.8162101
-1.058676
0.05987392
-7.062996
-11.04657
0.3032557
7.387482
0.2006157
0.7026324
-0.03068607
2.852091
-0.06222476
-2.020992
-1.23422
-0.09640972
7.89849
0.03807785
18.98699
-3.709145
-0.537979
3.24391
-0.004555071
-77.80969
-0.2365889
26.21794
-0.06547461
2.321851
0.1934487
-0.729263
0.5100757
-0.006567729
-9.438569
0.4339088
-33.47564
-0.120751
-43.58254
0.01611989
0.521565
-34.62165
0.9434807
0.3676759
0.3311012
2.928153
-28.21978
1.152868
0.05902067
-22.27188
-1.931342
-4.591351
0.01246063
0.009232258
0.008595764
-0.5453235
2.231393
-0.59888
-0.0276149
-1.22453
-26.9621
0.05349978
0.1077131
12.73528
-0.7774246
0.02774224
3.255031
1.527939
-24.58773
-27.01517
-0.4405599
-0.1025557
0.8757355
-0.03315443
0.8142657
0.2811664
0.1510331
39.15681
-0.6858807
1.850313
-0.02125995
1.40606
-0.006872775
-0.3261474
-0.1221367
-39.52275
0.002849722
-14.59745
-0.0001160108
-1.336252
0.03843598
-44.66276
-0.0531477
0.01348741
-39.04071
-0.2346149
-0.01050236
-0.02526334
-0.1500253
0.03682656
-0.00945857
-2.892831
0.3571081
-0.05570362
-0.1633256
-0.3402216
-12.81644
36.13887
-64.08036
-33.53058
-70.44178
-0.5736652
-0.009473394
0.2326892
-0.006326803
0.01768244
-0.0006355213
-0.09552229
-0.0004422712
-0.1830467
4.332277
18.96491
0.006448019
-7.750373
-54.33662
-0.08661192
1.789243
-0.06420741
-0.005222633
-3.859877
0.03858339
-47.1686
0.8529846
0.8576616
0.2398178
-13.5019
4.320661
-11.74842
-0.737065
-11.15675
0.001564684
0.02681548
-0.006908932
13.45451
0.08991521
-0.4293813
-30.32965
-54.53108
-0.004699825
0.2985888
-0.007825398
-0.09529862
-0.02979791
-0.004328218
2.137068
0.3245412
1.938271
1.571559
0.1108067
0.651083
1.270108
-3.152402
12.69442
-39.70838
-0.1626093
1.927459
1.111577
0.08935272
1.245636
-3.084489
0.9221271
0.1904801
1.473682
-0.001741314
-13.12843
0.002338557
-0.178628
-0.1361962
41.24829
2.033505
-0.01891954
-0.009446966
-0.4872511
2.320518
-30.67599
-0.00413214
-1.070159
0.9656595
-1.973263
0.3952383
-0.1991969
1.940537
0.1649918
-30.21575
-0.003286284
-0.01136951
0.01406474
-37.34237
-51.88972
1.858335
-1.168203
0.1335784
0.1097135
-0.01253654
0.4425295
1.838833
-0.9359837
2.078416
-2.226163
0.08548267
-39.23409
0.4777661
-0.05993351
4.025638
-0.0722145
-0.7154911
-27.36935
0.05848245
1.032999
-39.32554
-0.06324459
0.6699864
0.04140527
0.03857537
0.143068
-0.7662966
-0.1349375
-0.02631921
-5.627111
-0.05968571
0.2819443
-0.02170384
-0.02128153
1.789815
-0.2190607
-4.650513
0.2693159
-0.002964249
0.002620819
0.02258544
-0.3832533
0.5138011
-14.79933
-2.396761
-9.051456
-0.1164353
-0.009903609
0.0002296086
4.672665
0.1967278
-19.98849
-0.8095618
-39.23254
0.03428475
-0.0981641
-0.3118278
-0.04683222
28.40152
-0.2336819
3.579452
-1.601591
-10.37917
0.2165918
0.3453933
7.710562
-0.002043566
-9.886295
-0.01504132
-34.56369
-0.0137931
-0.4643419
-5.294183
-0.164655
0.3715609
-0.2715262
-0.199685
-0.1186589
0.002289341
16.78705
0.004639028
1.548941
-0.04712574
-25.04594
-1.171622
-0.001077879
-19.66849
0.5616847
0.1319065
3.863296
-0.09456673
3.654238
1.153769
-0.2757999
0.01576786
-4.835513
2.194121
0.2293891
0.4277565
-0.2992549
0.03084822
-0.0009522706
-25.66196
3.434087
14.22055
-1.992126
0.1376757
0.6757578
-0.4969474
-0.04570254
-0.01159405
0.2134705
0.6099142
-0.1713316
-3.008795
-0.01029377
-0.1716886
1.134018
-0.02064897
-3.182036
0.05042561
0.0440915
-27.28461
-1.444246
-27.30542
0.04123956
4.058264
4.402311
3.332343
0.02462812
0.1953491
0.1189337
4.479396
0.2808547
0.4529625
-2.319609
-45.72571
2.536665
3.755223
-0.01375847
-0.002423805
7.977477
0.53163
7.604138
0.00957344
-2.845461
-18.58923
-0.01091653
0.6470424
-14.29355
16.2248
-6.256525
0.02096377
-0.01835616
0.08618872
0.0657589
0.03838141
0.1376815
0.7959586
7.288193
31.66055
-0.006489055
0.3069148
4.80198
3.938736
-63.48639
0.07309362
2.754853
-0.1784983
2.720121
-0.1015444
-0.02729955
-1.547559
-0.04512323
5.811686
0.008556733
-7.952908
-23.17345
-1.042312
0.05886693
-83.95963
-4.032572
-0.01950401
-16.2722
-0.009720553
-0.001525178
0.1841259
0.03035604
0.5942885
-53.7702
0.08358372
0.2237685
0.2662641
4.275477
0.01151007
-0.03276817
-2.862667
-15.20761
-7.68594
-0.2963661
-19.66462
-0.09378953
4.693777
-0.05467813
-46.51478
0.1084387
8.739762
-9.372735
-0.6260713
-0.005114407
-12.35487
3.924602
2.991064
-0.0192226
0.4313935
0.02105366
-0.1873247
18.39438
2.531492
-0.2394153
-0.07952442
-2.112568
0.4970257
-21.27278
-14.97345
-1.742739
-47.01612
-8.663046
-10.52061
0.4168361
-0.5908026
0.1205561
0.2587479
-0.0002460358
0.07690507
-1.403113
-0.05012165
0.8510595
-0.1523137
-42.3435
-0.08388722
26.5472
4.138655
-33.18215
0.0116603
-4.727676
7.028282
-2.833023
-18.55116
0.07291237
1.238984
-11.95759
0.1314728
0.6448756
0.408337
-0.64718
-0.02511821
0.07721489
0.08424482
2.187868
1.145485
-2.722668
0.1501927
0.08027387
-92.31871
-0.07170058
0.1434092
4.229696
-35.93637
0.006229799
0.06961631
6.906444
14.43126
11.80434
2.017879
0.0420304
0.1347977
0.002579588
-0.1167827
-2.772355
2.704295
0.4843467
-21.82668
0.0002340056
-53.90048
-0.01737201
-0.07106874
-0.1366046
-42.67899
1.811203
0.5147248
0.1041285
-0.07367815
-9.79095
-0.9893621
-3.402902
4.049845
-33.44579
1.771185
0.3266779
-19.66305
-0.06563111
0.9849572
0.4862728
1.246269
0.1056587
-2.665857
-0.5809254
1.244702
-53.43878
-0.07820702
0.0303836
-0.3864019
0.04773465
-0.510816
0.2631108
-0.04892391
0.4898364
-0.3018233
-26.91919
0.1740986
0.204283
0.7218561
0.5154822
0.5065599
-0.2228309
-0.07684529
1.387967
-0.09137032
3.898652
-38.65571
0.6847243
-0.006051996
0.03637563
0.08795588
-0.3065306
2.906242
-0.05182974
-53.29212
2.542132
7.737322
8.608377
0.006403141
-9.058752
-5.739935
0.06124172
0.005697086
3.374442
-1.68823
-8.535906
-15.36344
-5.822596
-4.385428
-0.5205652
1.941121
13.40456
1.523314
-1.341885
-41.96669
-0.170961
0.5870179
0.3383193
-9.649968
23.70981
-0.9719289
0.05119142
2.245535
0.7487067
-0.1044667
0.01665379
-3.033723
0.1214608
-0.2925663
-1.271234
0.1113704
-0.275063
4.983646
0.8534209
0.07795656
-0.003742775
0.3465828
-0.4407862
-0.9399662
-1.081337
32.34195
-0.008514483
0.05402691
-0.5827889
-0.2029144
0.02600007
-0.07823552
-57.99211
-0.4612166
-61.64082
-6.038983
-0.7934312
0.001375281
0.06199221
-5.045542
0.5697491
0.06670677
0.09795201
0.1110292
-6.971184
-52.01321
1.036991
-1.108227
-0.001936475
-0.08751677
-1.084796
2.212147
-3.258651
-2.983685
15.82266
1.095339
-0.3155046
-0.7046428
-0.5520991
1.946303
-0.09082339
-0.008887738
0.1774131
-1.385394
-0.2775407
8.509341
-33.72245
-0.07475294
-0.001101772
-6.458259
2.601053
-0.2662446
0.450433
-0.9076203
-0.03440675
-0.05613578
3.060517
1.760219
2.408534
3.623289
-0.7940659
-0.006619453
32.82699
-0.2148656
-1.656593
0.002084872
-62.88986
1.432066
0.194309
1.040753
0.670173
34.9334
-0.7330871
-0.1363715
-0.5024216
-0.4171465
0.004234235
0.8612999
0.1824256
0.190621
-17.60818
-16.11427
0.1459446
-1.250819
-1.902337
0.01629979
0.00918284
0.103252
-12.05662
5.142882
32.0002
-0.004567614
0.520814
-0.6379891
-0.002207419
0.001942525
10.76687
-1.568753
0.299081
0.02411725
-0.8667282
0.5694644
0.06298553
-0.01702671
-5.621233
-0.3272642
-24.30065
3.059022
-9.64067
0.03381117
-0.1323392
-0.03056388
4.47347
-9.048929
-0.01084597
-0.0539514
9.928881
-24.35942
5.825112
-0.4053634
-0.4294349
-8.697811
28.63405
-0.2110957
-0.01825052
-2.63347
-37.56323
-0.01813627
0.02515427
3.460807
0.7379178
0.02779443
-22.52285
-2.522644
1.930046
-0.001307025
-0.07081456
0.009178593
-31.13058
-16.72393
-48.36622
2.914709
-45.73889
-2.625869
-0.5829386
-15.11246
-0.333549
-1.414947
-34.4913
-0.001741536
0.1001064
0.02123111
2.036151
0.02386177
-40.87533
-51.52183
2.920773
17.31935
0.5748957
0.004963146
-15.24034
19.41469
-28.48322
0.0475035
-0.6217167
2.6797
0.005121956
0.01960895
-0.087429
-0.1427985
-0.2542801
0.01747533
-65.91526
-76.20466
-0.1941819
0.02433354
2.662009
0.02790244
0.44193
2.821541
0.1737901
0.0722036
0.6534028
0.5282377
0.05532065
2.77136
0.188796
-16.55163
0.7704075
-0.9105595
-43.51912
1.375271
-0.2706312
-1.031058
-31.4837
-3.751256
-2.626253
2.776541
-10.76836
-32.3562
36.17213
50.45459
1.695492
0.5888969
-0.6425136
6.173726
1.360548
0.01679765
11.2275
-36.0857
1.544274
-0.1531559
-0.8849172
2.248742
-0.2546929
4.49798
-1.661677
-20.54498
-59.99366
-0.1207727
1.756566
-0.1964497
1.949976
1.988617
-21.22838
0.08884688
0.2176718
-0.6914098
0.3766619
-0.04725043
-0.09247042
-30.23854
-17.73861
1.403201
0.265853
-0.02775078
1.64942
-0.001039846
1.548144
0.01721737
-30.66432
0.4664638
-16.68227
-62.47416
-0.1436275
-0.6501578
-61.07372
-71.51877
0.8295075
-0.1742913
0.07978671
0.1960047
0.3450866
-4.789803
0.04551896
-0.2098497
-0.1248559
0.01573157
0.1193378
-1.696637
0.07805826
-0.05304551
0.5136105
0.07966937
0.06772224
0.4544835
-0.1140719
0.1159011
0.5122817
-2.163541
0.3791172
0.06087147
3.804467
0.001140978
1.612642
-0.6194092
0.01037935
-0.004067118
-20.02704
-17.85483
-0.02655137
-0.2005916
0.01180343
-0.06189703
-31.42625
-12.57354
8.455209
-34.07861
24.51237
-0.06119471
2.947701
0.01370751
-22.94504
0.03605009
3.472532
-58.57207
0.03506192
0.6006545
-1.906672
-3.930934
6.175138
0.4724817
-0.111054
21.65848
-0.01811156
-31.89418
1.561419
-3.750738
37.91684
-12.88514
-7.551392
0.2400829
2.163888
0.03346638
8.147425
0.2980207
7.517864
-0.1678083
-0.06712988
-6.003255
-0.0436081
-2.700368
0.2608623
-17.73897
0.7254304
-71.76243
8.331106
2.046862
16.35771
-0.1202995
31.62929
-0.003508426
-0.2415056
-0.04035952
-0.05938069
15.10957
-0.08152905
-16.4085
-0.0840946
0.0973514
-0.3632546
-0.3605976
2.380558
-7.687219
3.19765
0.03913749
-27.15075
0.03718011
19.36855
-50.95655
1.95342
-42.16773
-12.96468
-2.236826
-31.71025
40.85842
-0.06705503
-0.1309811
-41.42217
-0.06674748
0.0336321
-0.630407
-0.6046362
-17.27695
-87.83106
-0.5200225
0.6786743
0.8226803
-1.174692
0.1680536
-0.04364944
1.747953
7.56811
3.49654
-0.0395899
0.07587731
0.1298075
-0.02307786
-0.2690496
-0.0212211
0.8787886
0.5570932
-43.35463
0.0006368045
3.857543
0.07246394
-1.196908
-26.00334
1.706011
0.03060321
1.690527
0.062591
-0.03785297
-0.03161605
0.1818988
0.3255273
-68.09405
27.48311
-2.52125
0.07197138
3.487883
-1.574678
-0.7225846
-0.5735089
0.02704558
-0.7026699
-0.0324965
-12.95226
0.3650971
-16.53567
-0.5753391
-35.35935
0.5853873
-1.505974
-0.9672993
-0.6835234
-2.023408
-6.682534
-41.2523
-2.319333
0.04915223
-0.00689054
-0.3784178
0.002887461
-0.6862799
-35.80821
1.497906
-0.3065122
-0.03747948
-6.178602
0.1108071
-0.009101132
2.579595
-50.42949
-0.02873412
0.01784921
-0.0811744
-63.52984
-0.07360452
-36.7946
-0.1167327
-0.07477877
-0.4939943
-0.672798
2.810588
-33.62167
-52.82619
0.07693483
0.1109978
-12.72253
-0.02020659
2.991381
2.512092
1.866633
0.3949328
-0.04314905
0.3479128
-31.18186
-0.03095999
-0.05397666
-0.7549211
-1.219944
-1.013664
0.3439364
-0.09286315
-0.6227728
-8.122988
-0.6125733
-2.693747
9.207381
-1.135303
-13.94233
-0.2561081
-0.03550915
-1.538332
-21.43861
0.4022174
-0.01155181
0.02903677
-19.42866
-27.65877
-26.04377
-0.1002152
-35.5227
1.35722
-6.235223
-3.130669
0.5776783
16.9398
-0.3026197
-34.51891
-77.40446
0.0435725
0.04462699
-2.079807
0.05272838
0.03535796
0.04161682
-0.05858766
0.007521418
0.05771402
-16.38907
0.2754742
-0.1028259
-0.1501473
1.562637
-1.240608
-0.6555882
0.01485245
-0.1238247
0.4656166
-23.01427
0.2477798
2.546723
0.8645569
-0.02105481
-36.3152
-0.0230078
-2.072027
-0.03626338
-0.0394303
-0.002809005
-30.01457
-2.763887
1.422561
-3.14715
-0.01069028
12.27142
-60.04759
-14.28275
-0.3584333
-0.4239966
20.18332
-2.871203
0.1820801
0.6568858
-0.7953351
-0.01752768
-39.89275
-33.01502
-20.79939
11.87337
8.30955
-0.02849936
-59.35175
-49.63812
-75.78331
2.330033
-3.207933
-0.159333
0.5341607
0.04710759
-0.01218301
0.1029135
-0.01702114
0.3788974
0.238594
0.3066642
0.1037839
-28.73982
0.1195952
1.173421
-0.4832425
-38.77359
20.59055
0.02035163
-32.07416
-37.74347
-7.839096
7.872117
-2.912898
-5.047539
-14.03176
-69.8746
-0.06950266
-36.70513
0.9855107
-50.18509
-19.67724
0.01893171
-0.1878189
-17.42694
0.1256771
14.8197
0.1931706
0.02651986
2.568628
-0.05498232
-0.01829849
0.04700319
-0.4100779
0.451716
-0.5207097
-45.85772
0.01153286
-0.5620965
-0.03402668
0.1720586
0.2447115
-22.91491
-0.01475791
-40.21883
0.3321154
1.810182
24.72055
-0.01372259
0.854343
-26.78084
-0.25896
-58.906
-0.04981914
0.02016838
-0.1625727
-0.209024
-0.05120712
-0.01239401
0.9619486
0.4447646
0.07748301
-0.1027509
-0.03973743
22.69728
2.03787
-15.2711
4.820845
-0.00127907
-0.1198502
-82.92713
-0.1215541
0.4182123
3.314166
2.149916
0.03973662
-58.45736
-71.35584
-60.08176
0.00400736
0.02270132
-67.92141
1.567338
-1.92067
-0.4651617
0.9099614
-2.917219
-38.52909
0.02287954
-59.30792
0.1530251
-0.8549499
0.08575591
-0.1961064
9.733715
-0.2954999
0.3320236
-0.3406765
-0.02115506
-1.066737
16.20301
0.1245202
-35.32127
-0.2330649
-0.08422069
0.02353593
-0.8805161
-0.5028612
-0.8744973
-0.04286947
-7.946524
1.543358
-0.01397329
7.228173
-0.1633488
0.001229728
-5.290838
-4.468549
0.3822119
0.2580611
-0.7601691
0.002749162
-0.3219215
-74.88484
28.27303
-4.661526
0.03736327
0.05973889
-33.66465
-0.04935412
1.585021
-0.03481039
-0.1220868
-0.8835966
0.4025675
0.9456179
-8.483176
-0.8882801
22.03854
36.78166
1.375828
-2.870722
-1.652692
0.8642582
0.8472528
-0.01041637
35.21016
-63.8945
-0.03520201
3.639125
0.1287338
-0.06819887
-0.07113598
-0.005363856
2.987099
0.3564023
0.2176594
12.97864
-0.4088559
1.74174
-0.05920471
-15.90667
-14.1164
-2.92627
0.05879738
-81.55915
30.39742
-14.72599
-0.2352788
-6.751998
-2.325268
0.1087149
2.345318
34.04077
-0.02182708
-0.005852343
0.04631771
0.4021271
0.01694217
-29.52089
-0.3659415
-0.005279593
0.1347077
0.2374504
20.36186
-0.0010123
-0.08552238
-0.05123167
0.003639699
0.02331693
20.42051
2.984909
6.508629
-32.97531
-16.33009
0.1044977
0.04430614
-60.76759
-0.009622108
-43.37391
0.4769444
0.0318598
0.2632878
0.6807088
-0.1546668
-15.24887
2.116484
0.002168407
-4.582502
0.007477341
0.2157518
-0.6057405
-63.23414
-19.13744
-0.8010447
3.492425
0.003901113
-0.03921669
0.5530293
0.06270609
-0.7604432
-0.5159401
-60.60584
-0.3843308
-2.534093
-1.886348
-47.92645
1.915224
2.034001
-11.28464
3.495082
3.539887
1.289638
38.16553
-0.01831771
-0.1986647
0.6882867
0.6503606
-20.09932
-21.60564
-34.42656
14.73215
1.019976
0.2404456
-0.5057936
-0.3943132
0.04404825
0.5017623
0.07255793
-0.7041054
0.06919347
0.10678
0.01519593
1.100581
12.40883
8.101509
0.03275055
-0.04541971
-1.927232
-1.531429
-0.05349767
-2.584039
9.720684
-48.66012
-11.55452
0.3970763
-0.1344137
-79.66913
45.21433
-93.91784
1.907787
1.153066
4.565105
-0.0004653272
9.561619
-24.86382
0.017676
4.030794
-0.4296151
2.582416
-0.2476632
0.03122949
-0.6138274
-44.75803
2.33433
0.05598116
-1.264093
-0.3324611
-17.80937
-38.44479
11.61281
1.017429