/*--------------------------------*- C++ -*----------------------------------*\
| =========                 |                                                 |
| \\      /  F ield         | OpenFOAM: The Open Source CFD Toolbox           |
|  \\    /   O peration     | Version:  2406                                  |
|   \\  /    A nd           | Website:  www.openfoam.com                      |
|    \\/     M anipulation  |                                                 |
\*---------------------------------------------------------------------------*/
FoamFile
{
    version     2.0;
    format      ascii;
    arch        "LSB;label=32;scalar=64";
    class       volScalarField;
    location    "4.5";
    object      p;
}
// * * * * * * * * * * * * * * * * * * * * * * * * * * * * * * * * * * * * * //

dimensions      [0 2 -2 0 0 0 0];

internalField   nonuniform List<scalar> 
15536
(
-62.65578
-56.80431
-49.04083
-40.99589
-37.65426
-37.34569
-34.27793
-33.39686
-35.9473
-36.06305
-32.82311
-31.08667
-32.75978
-36.86695
-44.85009
-58.42879
-76.37781
-91.02239
-92.55845
-77.26112
-48.87569
-25.73453
-16.26762
-23.55519
-43.17452
-58.02609
-65.90322
-71.76382
-89.47211
-131.2911
-178.4943
-172.6251
-113.6682
-95.71581
-118.2448
-130.5878
-128.4608
-127.9188
-132.3595
-136.4886
-139.1537
-140.3586
-140.1268
-138.8659
-137.0997
-134.4624
-131.054
-126.7183
-122.0298
-117.1207
-111.575
-105.5033
-98.83889
-91.85604
-84.48452
-76.80004
-69.16892
-61.48433
-53.46606
-45.31327
-37.33965
-29.54795
-21.81013
-14.18466
-6.81421
0.4116019
7.322395
13.88507
19.99478
25.66526
30.85551
35.57317
39.77486
43.38441
46.38131
48.86884
50.71645
51.97933
52.72957
52.92794
52.30799
51.08226
49.29587
46.92877
44.00668
40.55257
36.62912
32.15962
27.29504
22.09358
16.41731
10.4326
4.214612
-2.386837
-9.119903
-15.79975
-22.6116
-29.53116
-36.38642
-43.24449
-49.94532
-56.31875
-62.31687
-68.00563
-73.48478
-78.46963
-82.92728
-86.80329
-90.09283
-92.84294
-94.79521
-95.83294
-95.9629
-95.06197
-92.7179
-88.67674
-83.37271
-81.20829
-80.91152
-65.66979
-60.66564
-109.9457
-130.441
-93.9693
-49.46435
-28.10733
-20.56257
-11.41029
4.191172
12.17106
-1.346597
-23.63605
-41.35923
-42.0721
-30.71066
-18.79411
-12.55798
-12.11433
-10.14952
-7.321988
-6.191595
-7.247816
-7.949437
-8.211504
-9.133549
-10.65274
-12.98439
-16.36831
-21.215
-27.66726
-35.09494
-43.07117
-50.97205
-57.6583
-62.41965
-65.0476
-65.41392
-62.50343
-56.7075
-49.00575
-40.99278
-37.6272
-37.32824
-34.25655
-33.34784
-35.8666
-36.00795
-32.79485
-31.05962
-32.7473
-36.87042
-44.86286
-58.43642
-76.32521
-90.85291
-92.44215
-77.26678
-48.89339
-25.67306
-16.225
-23.69078
-43.27696
-58.07049
-65.84227
-71.60574
-89.28151
-131.1494
-178.5095
-172.6833
-113.5278
-95.69388
-118.2039
-130.625
-128.4244
-127.5243
-131.5352
-135.3046
-137.6977
-138.7705
-138.4788
-137.1765
-135.3958
-132.7525
-129.362
-125.0509
-120.3897
-115.5233
-110.023
-104.0047
-97.396
-90.47572
-83.1738
-75.56008
-67.9999
-60.3913
-52.45438
-44.37809
-36.48133
-28.76724
-21.10583
-13.55402
-6.251433
0.9028972
7.743465
14.24204
20.29275
25.90705
31.04682
35.71964
39.88161
43.45918
46.42854
48.89496
50.72809
51.98091
52.72615
52.92351
52.30831
51.0951
49.32654
46.98254
44.08927
40.66976
36.78583
32.36114
27.54815
22.39891
16.77962
10.85907
4.704527
-1.832389
-8.498871
-15.11
-21.8545
-28.70383
-35.48976
-42.27999
-48.91516
-55.22418
-61.16209
-66.79928
-72.2325
-77.17271
-81.59409
-85.43819
-88.70694
-91.45079
-93.40601
-94.4635
-94.63422
-93.8343
-91.69847
-87.94668
-83.00209
-81.16441
-80.94708
-65.56334
-60.60661
-109.8644
-130.5524
-93.99209
-49.40827
-28.06233
-20.58638
-11.48761
4.097846
12.27934
-1.339174
-23.66147
-41.36084
-42.01738
-30.74978
-18.8417
-12.57837
-12.10704
-10.14197
-7.318764
-6.196906
-7.24509
-7.91894
-8.17473
-9.083283
-10.56998
-12.85774
-16.18315
-20.95926
-27.32411
-34.66188
-42.64753
-50.60175
-57.33878
-62.13337
-64.80215
-65.21862
-62.38227
-56.66245
-49.10079
-41.19822
-37.74334
-37.38019
-34.1757
-33.09526
-35.75304
-36.01886
-32.78419
-31.0134
-32.72449
-36.86413
-44.94144
-58.51926
-76.39681
-90.90902
-92.5789
-77.64461
-49.36399
-25.89304
-16.0604
-23.88776
-43.415
-58.16225
-65.85134
-71.56251
-89.27117
-131.3833
-179.3323
-173.4909
-113.6816
-95.53944
-117.3984
-129.3507
-127.6439
-126.9272
-130.5856
-134.1389
-136.5367
-137.7004
-137.4568
-136.1741
-134.4311
-131.8136
-128.4588
-124.1673
-119.5203
-114.6893
-109.2073
-103.2211
-96.64069
-89.75765
-82.49976
-74.90458
-67.37659
-59.81522
-51.90716
-43.86426
-36.00273
-28.3314
-20.71061
-13.19056
-5.933476
1.189832
7.994212
14.45903
20.47741
26.06201
31.17131
35.81655
39.9538
43.51213
46.4597
48.91157
50.73387
51.97724
52.71657
52.91219
52.30181
51.10011
49.34534
47.01803
44.14518
40.74857
36.89109
32.48977
27.70683
22.58938
16.99739
11.11087
4.991834
-1.516426
-8.147724
-14.71804
-21.43058
-28.24882
-34.99474
-41.76348
-48.36733
-54.65058
-60.56466
-66.16465
-71.57148
-76.48219
-80.8858
-84.71269
-87.96101
-90.68846
-92.61879
-93.64116
-93.78339
-92.91016
-90.75094
-87.14979
-82.55412
-80.61642
-79.87646
-65.01991
-60.81055
-110.3496
-131.139
-94.30842
-49.49218
-28.07749
-20.59534
-11.5361
4.031655
12.42142
-1.603163
-23.98234
-41.56597
-42.15092
-30.90551
-18.96763
-12.65842
-12.1538
-10.13005
-7.268504
-6.183085
-7.253763
-7.90454
-8.151237
-9.053121
-10.51172
-12.77411
-16.05724
-20.79131
-27.11772
-34.41441
-42.30528
-50.11183
-56.75148
-61.60641
-64.41519
-65.00304
-62.05302
-56.49517
-49.21866
-41.64167
-38.0752
-37.50194
-34.09001
-32.8339
-35.60763
-36.05392
-32.79455
-30.95693
-32.70225
-36.87891
-45.08609
-58.70249
-76.62202
-91.15977
-92.89245
-78.32031
-50.45345
-26.41424
-15.5918
-23.89831
-43.37887
-58.08149
-65.78484
-71.54682
-89.35767
-131.7422
-179.9792
-174.4806
-114.9779
-95.93093
-116.1435
-126.9591
-126.1365
-125.9856
-129.2519
-132.4696
-134.6162
-135.5818
-135.2879
-133.9547
-132.2356
-129.6432
-126.3483
-122.0908
-117.4908
-112.7329
-107.3345
-101.4376
-94.94162
-88.1447
-80.98285
-73.48363
-66.04387
-58.58222
-50.78663
-42.83046
-35.05717
-27.48139
-19.95412
-12.51512
-5.347416
1.698131
8.425745
14.82531
20.7776
26.30092
31.35592
35.95487
40.05162
43.57968
46.49413
48.92637
50.73469
51.96583
52.69759
52.89042
52.28442
51.09876
49.36307
47.05914
44.21655
40.85644
37.04392
32.68484
27.96008
22.90159
17.36655
11.5557
5.507766
-0.936639
-7.478372
-13.96459
-20.60219
-27.33145
-33.99002
-40.6756
-47.19417
-53.38492
-59.20771
-64.7393
-70.07738
-74.90798
-79.24568
-83.00332
-86.21847
-88.91134
-90.81499
-91.83594
-92.02132
-91.33034
-89.35811
-86.02625
-81.84871
-79.58781
-78.33329
-64.81936
-62.12134
-111.0905
-131.7758
-94.69653
-49.7254
-28.16386
-20.5213
-11.385
4.156941
12.60021
-2.237988
-24.61653
-42.0152
-42.48135
-31.21168
-19.19445
-12.80116
-12.22169
-10.11507
-7.169256
-6.134884
-7.269402
-7.892941
-8.125636
-9.022009
-10.43739
-12.66516
-15.88523
-20.55249
-26.80363
-34.00164
-41.82684
-49.56791
-56.16949
-61.03334
-63.89316
-64.58101
-61.69097
-56.35107
-49.3983
-42.25735
-38.60719
-37.60334
-33.9891
-32.56658
-35.45943
-36.13379
-32.84213
-30.90449
-32.67005
-36.91546
-45.31225
-59.02383
-77.07257
-91.72914
-93.5767
-79.29974
-52.00962
-27.15827
-14.8288
-23.49736
-42.93838
-57.57213
-65.56943
-71.66187
-89.62687
-132.1339
-180.2408
-174.8416
-117.5128
-97.9583
-115.3453
-124.5071
-124.4718
-124.8656
-127.8556
-130.8628
-132.9387
-134.0331
-133.7897
-132.4149
-130.7349
-128.0814
-124.8277
-120.5826
-115.9541
-111.2725
-105.8795
-100.0332
-93.55821
-86.81819
-79.73109
-72.26017
-64.87682
-57.5092
-49.7837
-41.87891
-34.17421
-26.68872
-19.24042
-11.85927
-4.778275
2.206255
8.863788
15.19912
21.08146
26.54908
31.54992
36.10082
40.14907
43.64379
46.52211
48.93194
50.72501
51.94136
52.66396
52.85034
52.249
51.0867
49.37639
47.09938
44.29002
40.96716
37.20189
32.88393
28.22408
23.22164
17.73043
12.00125
6.024913
-0.3823277
-6.846353
-13.25043
-19.83425
-26.50191
-33.07852
-39.72059
-46.1864
-52.32308
-58.09911
-63.58061
-68.89779
-73.68593
-78.01649
-81.76114
-84.9666
-87.70615
-89.56991
-90.59428
-90.77033
-89.97581
-88.05048
-84.89322
-81.02418
-78.47735
-76.99362
-65.75343
-64.8846
-111.6776
-131.9885
-94.92402
-49.98283
-28.39763
-20.36527
-10.90973
4.560751
12.66471
-3.234607
-25.57233
-42.85618
-43.09853
-31.75158
-19.56919
-13.03495
-12.30834
-10.09208
-7.040054
-6.047375
-7.292547
-7.890453
-8.112661
-9.017489
-10.37648
-12.5672
-15.71985
-20.32279
-26.5048
-33.61643
-41.3906
-49.03776
-55.54097
-60.39353
-63.30197
-64.1135
-61.37419
-56.28784
-49.69197
-43.00294
-39.293
-37.7073
-33.91324
-32.36661
-35.32628
-36.27947
-32.9579
-30.84309
-32.63867
-36.97781
-45.66112
-59.57156
-77.8331
-92.7632
-94.79688
-80.68446
-53.97462
-28.19987
-14.07477
-22.66942
-41.91785
-56.51472
-65.13655
-71.95849
-89.97002
-131.2256
-177.5191
-172.7592
-120.002
-101.2976
-114.8406
-122.0817
-122.6289
-123.318
-125.924
-128.5979
-130.3849
-131.2535
-130.9447
-129.4347
-127.8215
-125.3285
-122.2124
-118.0188
-113.4268
-108.9137
-103.6091
-97.90201
-91.52522
-84.88326
-77.91579
-70.53316
-63.27364
-56.04944
-48.42623
-40.61455
-33.03305
-25.66258
-18.32397
-11.02607
-4.069998
2.834896
9.391611
15.62695
21.43175
26.84379
31.77612
36.26382
40.2437
43.70746
46.54168
48.91987
50.69904
51.89658
52.60722
52.78299
52.19222
51.05417
49.37753
47.13474
44.36648
41.09057
37.37703
33.10126
28.53447
23.61001
18.15452
12.52326
6.673196
0.3206206
-6.05163
-12.32921
-18.81626
-25.40051
-31.86645
-38.41242
-44.77921
-50.81497
-56.47576
-61.86317
-67.1148
-71.78391
-76.03843
-79.67626
-82.79429
-85.43592
-87.2439
-88.20186
-88.46909
-87.91008
-86.19122
-83.3271
-79.86168
-77.23835
-75.72299
-67.36191
-68.11221
-110.24
-128.6606
-93.36479
-49.89966
-28.75593
-20.22031
-10.22236
5.148772
12.34195
-4.684477
-26.90944
-44.28362
-44.1237
-32.74083
-20.15998
-13.42927
-12.39812
-10.03822
-6.891671
-5.931103
-7.328766
-7.905386
-8.121791
-9.041548
-10.34282
-12.49556
-15.55825
-20.10383
-26.1979
-33.18557
-40.90314
-48.44648
-54.85073
-59.72589
-62.71404
-63.70034
-61.14727
-56.38954
-50.2001
-43.88577
-40.14178
-37.98698
-33.98795
-32.47775
-35.2062
-36.29526
-33.18292
-30.69853
-32.61222
-37.02472
-46.13701
-60.42029
-79.00564
-94.4333
-96.79901
-82.65033
-56.39026
-29.87943
-14.03148
-21.90432
-40.73621
-55.03217
-64.5774
-72.40527
-90.01509
-127.4063
-168.1091
-164.8457
-120.7073
-104.3551
-114.0159
-119.602
-120.6703
-121.6323
-123.9324
-126.3849
-128.0223
-128.9457
-128.7862
-127.126
-125.6948
-122.8569
-119.8093
-115.6336
-110.9887
-106.6146
-101.3089
-95.74616
-89.39998
-82.7836
-75.97062
-68.72956
-61.54434
-54.39114
-46.92633
-39.26405
-31.7724
-24.45414
-17.31304
-10.09203
-3.287349
3.539282
9.954511
16.09212
21.88728
27.18239
32.01099
36.41134
40.32768
43.81416
46.5514
48.88951
50.65582
51.82596
52.52243
52.68941
52.1156
50.97304
49.32725
47.12931
44.41639
41.22151
37.57796
33.324
28.85644
24.05987
18.68218
13.09178
7.342904
1.145318
-5.149452
-11.33419
-17.70234
-24.12428
-30.55231
-37.02284
-43.23327
-49.20752
-54.74143
-60.04641
-65.27708
-69.84004
-74.08625
-77.6549
-80.79184
-83.54186
-85.34517
-86.42813
-86.62805
-86.01849
-84.39037
-81.74146
-78.6069
-75.94917
-74.3695
-68.67395
-70.25323
-104.5467
-118.4416
-88.52266
-49.27499
-29.25582
-20.05665
-9.559195
5.407137
11.22927
-6.759552
-28.73788
-46.5494
-45.61731
-34.35926
-20.97856
-13.96918
-12.51214
-9.92687
-6.725305
-5.868985
-7.385941
-7.950577
-8.145312
-9.052437
-10.38079
-12.52712
-15.4444
-19.95835
-25.98369
-32.80782
-40.48749
-47.91446
-54.16632
-59.04922
-62.15014
-63.39513
-61.05142
-56.74461
-51.11979
-45.05423
-41.15323
-38.51941
-34.5758
-32.96266
-35.07156
-36.92226
-33.37553
-30.56035
-32.26521
-36.81662
-46.44965
-61.26869
-81.03691
-97.23857
-100.0003
-85.56499
-59.51468
-32.79024
-15.42556
-21.90136
-39.93058
-53.39843
-64.05184
-72.82256
-89.47444
-120.9495
-152.4303
-151.7033
-119.3529
-106.2045
-112.5675
-116.9115
-118.3023
-119.3236
-121.1167
-123.272
-124.6037
-125.243
-125.2175
-123.2567
-121.8681
-119.4048
-116.4839
-112.614
-107.651
-103.5364
-98.40089
-93.05918
-86.67573
-80.15928
-73.77367
-66.72468
-59.25356
-52.31081
-45.30406
-37.82621
-30.12793
-22.95844
-16.27399
-9.017929
-2.454528
4.341644
10.4893
16.73913
22.52788
27.52332
32.215
36.49876
40.41645
43.95117
46.50237
48.85401
50.58583
51.72198
52.41254
52.57717
51.98025
50.84636
49.20857
47.06417
44.4115
41.3097
37.83607
33.56962
29.17581
24.53908
19.44241
13.89743
7.932085
2.020748
-3.952677
-10.25715
-16.5506
-22.54986
-28.84233
-35.5748
-41.35881
-47.33864
-52.70766
-57.84601
-63.07419
-67.40478
-71.68586
-75.01921
-78.04311
-80.80288
-82.43097
-83.30942
-83.60002
-83.32723
-81.93764
-79.59371
-76.87622
-74.32645
-72.79276
-69.13264
-70.86242
-96.24409
-105.3152
-81.38532
-48.31387
-30.49937
-20.29862
-9.001479
4.968375
9.052312
-9.802815
-31.08453
-49.83892
-47.50249
-35.97128
-21.678
-14.20796
-12.45005
-9.675119
-6.530898
-6.019361
-7.451807
-8.046012
-8.208739
-9.121882
-10.51574
-12.69384
-15.43493
-19.83246
-25.9496
-32.58501
-40.24885
-47.56736
-53.62324
-58.38028
-61.54368
-63.21478
3.611308
2.827476
-49.41567
-1.003542
9.626397
-2.953874
2.356739
-0.142201
6.120201
1.068885
-3.142323
-0.4486639
1.568085
1.885653
2.145578
1.946358
-9.106091
0.7763268
0.6811352
-0.7041704
-39.91949
1.491501
1.256438
1.086012
2.246338
0.2488115
-2.735982
1.534798
-1.914288
1.554396
0.9989638
-33.08157
-1.094533
2.114654
1.73556
-0.1489172
-8.802466
0.34383
2.264868
-0.6898681
-11.0269
3.260604
2.845774
5.835973
28.12998
2.188307
3.696101
2.017704
-3.501034
1.326155
0.5545179
-4.101806
-14.65631
0.9984537
0.4063525
16.73148
4.836188
1.400917
-5.357733
-6.355425
1.711177
0.04680824
-14.22483
0.8703993
-2.19937
-0.1236264
-44.54451
0.3095462
2.703648
1.894517
1.809845
4.032485
-9.24709
-34.06843
23.45854
0.8671563
4.954833
1.400944
-12.73477
1.087743
-5.88386
0.4324503
3.058728
1.867549
-1.52994
2.572747
0.05820088
-0.9429514
-7.181876
-0.09080447
-6.161496
26.86862
-7.688279
1.460385
2.435346
-0.1982709
-9.431928
7.535439
-79.96519
2.550711
0.2590918
-0.8008382
1.927705
-59.81916
0.0824624
-27.0635
2.738088
2.246836
-8.792489
-3.585756
-0.9545374
4.543022
6.886331
8.574927
-32.42293
-0.0488805
0.6315879
1.526772
26.34084
2.113267
2.604128
0.713515
2.009904
-4.597088
-2.748935
-3.288493
1.946646
-58.3492
2.611496
0.5817546
0.4371455
-1.873034
1.492452
2.223626
1.625919
-15.82353
0.2706689
2.356995
0.4473597
0.7232023
-57.61688
2.648378
-42.83779
2.892802
-1.667612
-16.22268
-1.240493
-28.96969
0.7722235
1.849894
-1.452708
-28.99669
-66.03854
0.2779139
-39.63229
-88.94335
1.551743
1.548639
1.224839
-10.5368
1.411496
-11.61337
-16.2822
-2.51042
1.495903
-19.47048
-11.38944
3.007256
-45.48883
-0.7255113
2.380246
-19.5965
1.082767
-64.76241
-2.127041
-7.8953
1.41201
2.342876
-47.44876
-14.42273
14.69509
-0.8973899
1.72282
2.01409
6.859384
-29.50459
1.826148
0.8510791
-25.94322
0.6742971
1.995261
0.1753978
0.3412076
0.5167544
-0.660795
2.293535
2.322407
2.879134
3.520086
-19.28425
-1.086
-10.12398
3.167539
-1.838172
2.493137
-0.9487583
-1.43199
1.569745
-2.793368
-5.583226
0.8539318
2.951328
-10.0506
-11.16494
1.892513
-14.59164
-4.652299
-0.581158
13.75763
0.7826521
2.076093
1.307214
2.62625
-7.827699
0.03765674
-3.034433
2.308879
8.962143
2.282695
15.81555
-7.636266
-52.90287
0.4081742
-0.02257548
-34.89152
1.704794
21.24624
-3.100354
3.440339
2.901548
2.177495
0.6758712
-0.04661514
-17.83515
0.3559422
-25.95589
2.283455
-60.68878
0.9074298
3.195407
-16.83165
2.841991
-1.538764
-0.5578318
3.167118
-12.61891
3.260793
0.6868694
-25.53297
-1.329232
-11.66516
0.3780565
-2.845883
1.291953
2.00867
1.674012
2.333602
0.696114
-6.952495
-14.0747
1.146974
1.354232
12.76205
1.474605
2.392201
3.041598
0.8739444
-41.97781
-88.41422
2.042313
2.298337
2.833893
-10.40759
1.353427
1.226322
1.118284
40.25961
1.972041
1.362336
0.5129144
-0.8652994
-0.01440305
2.301378
2.256317
-52.99247
1.129821
-0.7626778
-0.4796537
2.579517
2.692991
-25.47466
1.889781
0.8830206
-32.12371
2.52242
0.2302034
1.206406
2.183817
-2.728102
-2.688453
0.9971909
-2.575773
1.741342
2.222126
2.220096
-4.701409
34.63249
-23.50129
-31.07179
-91.8899
2.399007
-18.74017
-2.230836
-18.78495
0.2134004
0.987657
1.562325
1.829244
2.118032
2.155081
20.36601
3.24711
-1.884863
-82.39724
2.568861
0.9711207
2.5235
-7.143196
2.865559
2.918794
-64.3522
7.451635
3.390728
-1.008402
-5.590435
6.360337
-7.434914
1.945997
-4.041348
0.4379569
1.817085
-6.537527
12.13551
1.267348
3.899283
-58.48088
-35.46043
-10.2361
0.7926846
-1.730869
2.032893
0.1286016
-12.02485
2.252951
-0.4568197
1.362734
0.5385436
0.7643536
0.6274227
0.4724832
1.30574
11.22843
-22.48009
2.062884
1.521292
2.910346
1.522806
2.184641
2.893317
-0.3269742
0.6963377
0.8563294
0.1228242
-21.7355
0.05273728
2.207362
2.00322
42.13319
2.387621
-2.465724
-2.909685
2.159347
4.291736
-79.88142
0.03208814
1.628174
3.251766
-4.002178
1.182294
2.056937
1.813738
-0.8439323
-15.58338
-8.222518
-4.905358
-3.262562
-52.28753
-35.06353
0.615529
2.052652
1.30668
0.6466046
-1.515721
-0.1359197
1.506625
1.749376
4.847989
-31.52859
1.206634
-47.33997
-0.5099378
0.8486373
2.90904
1.72626
1.942465
-13.72142
1.436926
-0.3178846
-17.98128
-5.271094
-25.8094
1.986733
2.921935
1.210293
2.485159
2.120862
0.844286
-0.8322624
0.8528385
-0.6899128
2.533135
0.1995577
2.617346
1.865969
0.4622292
0.8542291
1.317559
-3.108283
3.420464
2.067306
-0.1614167
-95.98634
2.684663
-16.93177
2.023535
-9.771354
0.8224729
4.480266
0.9178239
-9.414904
2.408722
-52.28966
-1.866486
2.180817
1.150888
1.614698
30.20712
1.864508
2.270767
1.506547
-4.040956
0.7930132
0.772109
7.564766
-8.799855
-17.61522
-1.510394
-51.45208
-5.157563
2.128877
-25.82503
2.625727
1.100586
2.074165
2.570331
2.320377
-1.197095
16.1149
1.167471
0.3263766
0.6237798
-13.11399
-3.723618
-4.347376
-9.579933
0.5541421
1.252509
4.741641
2.57225
3.979535
0.9839313
2.133363
1.803118
-0.2124582
3.403417
0.878581
-0.2849588
2.7825
-2.078706
-16.92867
-10.82937
-0.8098543
8.476775
1.945134
1.801638
1.513247
-0.6159688
1.876699
-1.846399
0.8878644
0.7040707
1.530469
-2.588187
-8.217425
2.218754
0.9293052
0.7458697
-0.8291253
1.207592
1.718292
-14.94929
-6.715482
-10.42052
0.6097
4.325039
5.437694
4.151339
1.146445
0.7146486
0.6867746
5.913896
0.8692424
3.012888
2.970052
-76.67161
2.337244
4.963827
-5.30595
0.4130717
9.927362
1.333623
13.16202
-0.7094278
-0.01246545
-5.390573
-0.6688294
-1.125482
-6.590921
15.86957
-13.78763
1.598234
-6.059727
1.080732
0.056385
0.7340862
1.086443
0.1450585
1.750878
27.12402
-10.5079
0.8285908
0.7635696
2.793465
-43.14657
1.672617
2.725286
2.289082
1.84177
2.28395
-1.946968
-0.09894169
1.180599
5.767221
0.1497062
-2.666966
-11.89346
1.711686
1.981063
-53.98382
0.6927393
1.055055
-31.44439
-2.634507
1.110949
0.9618394
1.132777
0.6265275
-78.7094
1.121625
0.8272508
0.842194
1.384467
3.020159
0.6975859
2.971207
-28.5071
-14.2897
2.157467
-31.09084
1.948503
6.205314
1.585451
-24.79281
1.238266
8.372157
-2.825213
1.939995
-4.426096
-6.12298
2.9901
8.968306
-7.942593
0.2517268
1.493101
2.269989
18.12678
3.399002
1.796747
1.892294
0.7685055
5.142096
-13.38902
-5.944707
-54.80997
-15.82135
-1.518486
-3.538925
-0.2473061
2.285995
0.7673857
0.8578288
-8.387148
1.927579
-15.93654
2.120307
3.350653
2.202268
-3.028537
1.806771
25.56496
3.643631
-43.36076
-3.411906
-5.203163
7.805695
1.02831
-36.40042
1.818686
-0.02081159
-27.66639
-1.547611
-1.677576
2.662376
2.577717
-5.254499
0.2252761
-2.605079
0.2842635
3.758494
-6.472659
1.146351
1.831316
-56.94642
-0.2820095
1.190772
-0.6455824
-2.386415
-0.2242105
2.533651
11.82232
15.80444
16.87664
2.579825
0.7481435
0.9291767
-6.794025
1.914299
1.541257
2.911846
1.408036
-31.68938
4.199597
-52.03895
-1.481983
2.724931
2.140725
-10.72895
3.297092
-0.27742
-1.840386
1.517277
-1.069951
-8.012827
-7.435318
5.482477
-32.9922
0.707088
0.7932322
-31.33211
1.726009
3.093368
2.686658
2.716182
0.8214997
-8.002822
1.986786
0.1364135
-21.89932
2.053247
1.998437
2.702925
1.024584
1.943535
0.8472128
2.110768
-0.3865388
2.141072
-14.86182
0.9555085
0.9486622
-0.6040975
-0.2030569
0.8382691
2.099034
2.09702
4.308373
1.650861
2.641549
-29.1437
-0.8189615
0.1798643
2.664688
1.712087
1.88979
7.183944
1.708451
-35.17478
2.104598
-4.116209
5.095974
0.4560961
-23.33175
-3.263182
-0.1451515
1.658645
-96.25853
0.7653545
-15.5596
-25.03941
0.2968213
0.3216761
-2.409597
1.238732
15.68205
3.92271
2.820615
-8.997494
2.527588
0.4469999
0.7451094
-1.203258
22.22421
-12.98319
1.08743
1.647776
-0.8293584
1.657441
1.479249
-6.035649
0.4467747
-4.380935
2.448023
1.203782
-5.687625
9.438844
0.1604132
1.610581
-4.063103
2.046295
1.898979
1.747365
-11.09417
31.1432
-6.0633
1.294835
2.231452
2.115012
1.988965
1.181281
-78.38208
2.104755
-46.54491
-11.90956
1.719088
-12.89434
1.437686
-12.33877
2.704929
1.805119
1.66348
1.120528
-14.60553
-69.48817
1.493258
1.940356
-2.610802
1.305865
1.642238
1.315167
-22.32065
0.130558
13.09523
0.777892
2.104176
1.908616
1.947024
3.470144
-1.83592
-0.2758773
-0.9747371
-32.99067
2.232271
9.639386
-7.626035
2.455052
1.110555
-19.39555
0.7268971
2.023784
1.257687
-2.780594
-2.127413
0.5137336
1.848096
0.8623211
0.788075
3.656703
1.647396
-7.287956
34.21865
1.911517
0.4777663
-0.3407386
-89.41987
-0.5059215
0.9684801
3.46165
0.2206616
35.59374
1.812313
2.251994
1.853412
2.288811
-7.202484
0.6721818
0.9906009
1.027563
-31.39931
-6.972439
1.23977
-3.981615
-127.6254
1.297449
3.234803
1.565499
-5.351731
5.06455
33.69934
-4.179754
0.2836357
2.19041
-17.21857
-15.06352
6.983609
1.48106
0.8089356
2.211056
1.784077
-0.03580652
1.786633
-7.383407
-11.26199
-4.985941
-37.39424
2.701658
0.7003213
1.902142
-12.97098
2.647677
-1.607587
-16.84823
-8.09578
-3.34473
14.21045
-5.644114
3.870871
2.478721
2.246333
-16.33008
24.21227
1.956347
0.404505
-5.389738
-1.807009
0.3820368
1.077263
0.8694741
3.021613
2.418173
-43.06794
-6.452207
3.147453
-10.78499
-19.67372
0.4585323
-33.26505
-29.43264
-62.0989
2.456611
-26.61954
3.049984
1.587694
-25.15779
2.17999
2.020722
-15.45177
0.02398421
1.419913
-3.848044
3.127458
2.038902
-30.88857
-44.1073
2.734496
13.94633
2.883646
2.486728
-29.29638
23.86321
-35.09561
0.3823004
2.143227
2.410968
-10.40157
0.9072863
2.264601
2.158898
2.175911
-1.568261
-33.03773
-35.28664
2.385709
-1.467474
2.579998
1.517445
0.00293261
3.097935
1.112219
1.121489
0.6063403
0.490069
0.8703218
-3.962787
1.0157
-5.650513
3.179661
2.409894
-19.92503
2.99341
1.98857
-3.73863
-14.8706
2.508081
0.7678379
2.676235
-19.00377
-51.4224
32.55692
47.42817
4.080191
0.05167758
-13.11923
5.171879
2.9408
0.7817993
13.95897
-19.43801
3.357905
2.154271
1.939463
2.725636
2.154579
2.206405
3.889074
-31.21631
-42.38497
-8.502391
1.306098
2.245058
3.286291
1.546034
-11.16433
1.725094
0.9085818
2.351658
-1.829033
-3.279039
2.177548
-52.61297
-32.74683
2.96781
1.146737
2.382886
3.688281
-9.129919
3.059626
0.7008466
-33.92736
2.841413
-1.68311
-36.42982
2.756132
2.254107
-49.46801
-81.24833
-1.2697
-3.882775
0.08375315
0.8409825
-2.454439
-9.914749
1.80201
2.116619
1.994903
-3.494564
1.367426
1.459316
2.477521
1.918931
-0.4669312
1.068514
0.9584801
-1.505239
-1.916101
1.019944
0.2504943
-5.277214
-0.5004714
2.083195
3.485712
0.1141783
0.3922331
5.800026
0.3458648
-1.451342
-41.59652
-28.93195
0.9490298
2.086096
0.7424228
1.46506
-16.80589
-4.298602
-26.40311
-19.76193
25.00145
1.907823
4.854172
-13.37021
-11.22066
0.5127964
4.137492
-52.46403
1.210406
3.347996
-48.44647
3.33904
3.579408
-0.7247301
2.10124
-27.5748
-9.492682
-35.52046
0.9789166
-5.181069
38.93739
-5.390196
-1.374496
0.8832308
1.597623
-0.7705502
8.741297
1.617051
9.156891
-1.933701
-1.837104
-12.63242
-10.9339
1.021165
0.8326548
-27.10739
0.6013297
-80.73481
8.206998
2.021885
10.46973
2.270178
33.04399
-9.138333
-23.23557
1.451592
-1.417297
17.72668
-4.484847
-61.48457
1.911078
1.678348
2.017
2.108876
-1.255666
-14.37395
-7.550462
1.235235
-44.62172
-1.631512
23.72522
-25.35015
3.964831
-18.44094
-21.90785
-6.753519
-45.1655
41.15754
4.964361
2.269316
-24.85312
1.118257
1.891047
-2.650794
2.976689
-26.66169
-52.56712
-3.860125
3.059788
3.434196
2.789819
1.07444
2.080144
0.3323658
1.684271
2.432747
0.8392892
1.936637
1.354933
-8.95736
-6.969015
-3.027454
0.3473672
0.3708252
-56.55447
0.2152208
0.41598
1.253432
3.980114
-49.36036
2.986593
2.047047
1.136684
2.054131
1.918605
-6.443594
0.9150267
1.090369
-20.83703
30.96646
1.656067
1.794142
2.860531
1.285659
2.325402
2.1009
1.906617
1.950512
2.361295
0.8186026
0.5824597
-7.811713
2.145627
-3.865776
4.835442
2.748944
1.404342
1.979253
-29.46585
-11.51209
-53.10412
-13.88538
1.588815
-4.100885
1.245571
-0.3084325
2.133179
-31.06298
0.3269317
1.977282
0.7630978
-12.99429
1.257508
-9.413556
4.131166
-72.82294
0.7621457
2.637167
1.863833
-84.41445
2.661154
-21.92783
1.982352
1.929395
1.933664
1.932549
2.113815
-20.76169
-23.42691
1.13512
1.234616
-1.869097
1.246667
2.368244
2.696893
4.656575
-1.939633
1.112782
0.6833938
-72.81454
-6.401883
-5.332565
2.088072
2.709625
1.268622
2.634255
2.465961
2.283001
-14.9223
1.824553
-0.5170465
13.79413
2.679701
-5.059316
2.050929
-1.32026
1.26741
-32.8026
-0.3215018
-1.682428
0.2260459
-9.284604
-21.62873
-12.95638
1.820216
-26.87002
0.5141682
-3.259691
0.4723855
-0.6489323
17.38427
2.737175
-18.7951
-56.21378
2.686784
2.718191
2.018543
2.44769
2.916302
2.852486
1.128587
-5.725262
2.207911
-7.537195
1.166947
2.466583
2.791565
3.120032
1.962564
2.259769
-2.079789
2.316857
3.290275
-2.74641
-1.077355
1.518485
-0.9384775
0.5189358
-23.55031
-15.45503
-4.517126
-8.827445
0.2972392
-6.261366
0.02570981
-8.624327
3.753238
1.358936
0.376669
10.33594
-37.57474
-23.65312
1.501535
2.325251
16.11893
2.376773
1.048725
1.113701
-3.343908
-2.978966
-60.25781
-18.40487
-10.22343
16.55767
12.46635
1.012433
-23.8876
-31.42449
-49.29295
2.848722
-6.810791
-1.71179
2.431684
1.246255
0.2813132
1.435309
-0.9309829
0.91019
1.012024
0.8932896
1.241688
-16.21743
1.386251
-0.3898371
2.442655
-38.95392
20.87938
0.664227
-22.4463
-23.42226
-16.18304
13.84721
4.986085
-10.25941
-5.796646
-41.79787
0.7654794
-18.63561
2.853972
-62.14963
-28.81256
1.255257
2.424514
-2.246275
0.9996168
15.59776
0.7528432
1.680004
2.500613
0.9100862
1.969458
2.022942
1.954258
0.02275719
2.539759
-19.478
1.83877
2.247385
-0.8144309
0.8233644
0.7987153
-3.88383
-16.10371
-52.42991
-1.300697
0.9323618
28.58978
0.3653261
2.825701
-31.07246
-2.179431
-22.71001
1.480666
1.843083
2.097513
2.091607
-11.93822
-15.36779
2.255196
7.809499
1.001585
2.134106
1.357913
17.19391
4.605494
-23.80779
11.25771
-16.4255
1.844935
-59.39626
2.021168
0.9298955
2.837319
2.584292
1.406548
-37.91766
-27.56326
-60.0398
-0.144636
-2.608222
-23.75868
0.8961586
-26.32478
2.049795
3.333275
-34.50536
-23.07742
-1.373631
-86.13375
2.706812
-7.481254
0.9173931
-19.59685
11.53182
1.809985
-0.9508462
2.527782
1.817425
1.609974
19.50616
-1.093565
-24.89747
1.735986
1.750296
1.022741
2.266827
1.36292
2.242803
-2.168557
0.6724144
0.4520521
0.3849102
-28.84793
2.104852
2.841646
-2.063084
-0.2721522
0.7664912
0.8024237
-1.496552
0.1825719
2.676145
-52.48217
29.09949
-10.48412
2.287611
2.362763
-17.93002
0.9654131
0.2244922
0.5914583
-3.784043
1.728576
2.64257
0.254266
-72.58122
2.080126
22.06452
32.29186
3.61267
-4.27721
1.398963
2.402963
3.021996
-7.836236
33.25124
-23.86425
1.906709
-1.764843
0.5301112
-1.853612
2.552931
-7.220833
2.927616
3.375604
1.630453
-27.14218
2.189275
1.339736
-3.006982
9.445263
-5.284246
0.8160065
0.5644944
-56.53157
33.38836
-25.36304
2.236196
-13.20835
-6.511748
1.228809
1.274949
33.48877
-4.158626
-7.865678
-9.638096
-0.673008
0.8842848
4.870728
2.461452
-3.62502
1.261952
0.897025
21.03607
1.373577
-6.480565
0.7807073
2.577882
-16.00729
22.22047
4.202145
11.25058
-86.72767
-49.63535
1.527834
0.8484461
-26.24252
-13.86336
-19.89696
-6.352134
2.884276
4.892906
-0.4286846
-5.52591
-5.552092
9.04258
-3.75689
-11.92145
1.855538
0.9243865
-2.699591
-36.40141
-9.265979
2.679973
3.463464
0.2121157
1.057304
3.241095
1.042804
2.280706
3.244318
-32.53365
-1.574149
1.183013
1.08111
-9.19165
1.097493
1.593372
-3.108552
4.860573
-1.02725
1.220092
38.16767
-0.1989451
1.987562
0.3665791
0.7200232
-9.83111
-32.26049
-48.15658
13.0492
3.355427
0.8563041
2.229142
2.229779
0.8746999
2.953557
1.780836
2.564478
2.753425
2.843879
2.301344
-0.5549508
13.24862
10.3067
3.242514
1.896963
1.811531
1.810671
2.007526
-35.02656
3.458815
-33.0504
-5.638999
0.8126111
2.163762
-52.58741
42.68974
-64.48528
1.152442
3.387294
4.817283
-14.64035
8.704892
-12.66712
1.539108
4.201766
2.062875
4.896079
2.0825
1.868407
2.662777
-40.86995
-0.6144212
0.9021916
1.385553
2.355673
-92.14263
-30.98525
-50.16581
1.223034
14.92321
1.658765
0.9036056
0.6158977
3.08072
-27.93008
1.034995
4.221361
28.45938
2.242096
2.265563
2.263118
23.7059
-0.8065618
3.273722
3.949679
-9.807158
0.8712998
1.024424
-92.07682
1.460554
-91.58967
2.375514
0.3093883
46.94069
-3.362018
1.1069
2.419556
5.074932
1.979926
2.984913
-44.92489
45.68667
4.56739
-4.643861
46.84514
1.248177
-0.1717734
0.5960061
-11.5924
0.367197
3.329013
1.539214
5.284938
-16.64049
-36.76716
2.109615
2.118071
1.707798
2.375828
13.96787
-0.05701291
2.113983
2.233279
1.826502
1.864908
2.103329
1.967022
1.469931
0.9432327
-4.398828
-36.03471
-47.13404
-51.70632
-39.03829
-51.01579
2.732336
-5.462199
2.929861
1.016629
4.635646
-16.35565
-16.22656
28.58226
-9.863981
2.919435
0.006420302
2.497306
-3.071719
-45.84307
-6.109717
3.555072
-95.44786
3.019808
1.788864
-1.452509
3.517447
0.9804324
2.005965
0.9534666
2.93244
0.3844138
2.192861
3.818184
3.958737
2.275376
-1.597301
-0.02561794
-12.08478
-5.11193
0.5218194
2.338152
1.56066
-3.869273
-75.12873
2.902786
0.3408035
0.7242259
0.4854281
7.85178
15.81301
1.461727
-0.2606836
1.842222
-8.70402
-29.71937
-21.30138
1.060798
-15.38889
-10.35334
-10.76836
7.870855
-0.5637355
-8.063882
-0.1992389
-16.62857
-20.9771
-0.3082116
-5.2379
-6.174442
-1.182586
29.31231
0.6203833
-14.8283
0.4482902
-0.09546138
-0.1437219
-46.47833
1.03605
1.564826
1.077765
1.86622
-2.21941
-4.813674
-1.559392
2.680432
6.80656
-0.5482855
-52.5613