/*--------------------------------*- C++ -*----------------------------------*\
| =========                 |                                                 |
| \\      /  F ield         | OpenFOAM: The Open Source CFD Toolbox           |
|  \\    /   O peration     | Version:  2406                                  |
|   \\  /    A nd           | Website:  www.openfoam.com                      |
|    \\/     M anipulation  |                                                 |
\*---------------------------------------------------------------------------*/
FoamFile
{
    version     2.0;
    format      ascii;
    arch        "LSB;label=32;scalar=64";
    class       surfaceScalarField;
    location    "0.1";
    object      phi;
}
// * * * * * * * * * * * * * * * * * * * * * * * * * * * * * * * * * * * * * //

dimensions      [0 3 -1 0 0 0 0];

oriented        oriented;

internalField   nonuniform List<scalar> 
6749
(
5.193348e-09
4.105418e-09
-9.298767e-09
-1.640527e-09
-1.240958e-09
2.881485e-09
-2.298657e-10
-1.612616e-09
1.842482e-09
1.836015e-09
-4.32737e-10
-1.403278e-09
1.25067e-09
-1.410118e-09
1.594478e-10
-9.898946e-10
1.877367e-09
-8.874728e-10
1.197946e-09
3.028273e-10
-1.500773e-09
2.765833e-10
1.057923e-09
-1.334506e-09
-9.040072e-10
1.39287e-09
-4.888631e-10
-1.593027e-09
4.768932e-10
1.116134e-09
1.799734e-09
-9.816609e-10
-8.180727e-10
-8.7596e-10
-1.382607e-09
2.258567e-09
-2.195999e-09
-1.474236e-10
2.343423e-09
3.698869e-09
-1.199304e-09
-2.499565e-09
9.471121e-10
6.092249e-10
-1.556337e-09
-1.783281e-09
8.544101e-11
1.69784e-09
1.816734e-09
-1.31454e-10
-1.68528e-09
2.80405e-10
-1.460342e-09
1.179937e-09
-7.013048e-10
-5.635007e-10
1.264806e-09
1.832346e-09
3.064457e-10
-2.138792e-09
-7.877905e-10
1.823644e-09
-1.035853e-09
9.862864e-10
-1.76061e-09
7.743233e-10
1.416993e-09
5.414174e-10
-1.958411e-09
-1.278267e-09
2.915489e-10
9.867182e-10
7.925413e-10
1.01733e-09
-1.809871e-09
-6.215968e-10
-1.040984e-09
1.662581e-09
1.091622e-09
3.211443e-10
-1.412767e-09
3.088542e-10
9.634991e-10
-1.272353e-09
2.593847e-10
-1.398701e-09
1.139316e-09
1.278902e-09
8.743323e-11
-1.366335e-09
-3.308859e-09
1.943516e-09
1.365343e-09
1.51028e-09
2.188589e-09
-1.329244e-09
2.504887e-09
-1.175643e-09
-1.689838e-09
1.083606e-09
6.062313e-10
-6.57233e-10
-1.528131e-09
2.185364e-09
4.711559e-09
-9.741413e-09
5.029854e-09
2.188947e-10
-1.505289e-09
1.286395e-09
-1.534245e-09
1.854031e-09
-3.19786e-10
-9.200407e-10
2.866122e-09
-1.946082e-09
1.185302e-09
6.885185e-10
-1.87382e-09
6.284304e-09
-1.572745e-09
7.301725e-10
8.782285e-10
-1.608401e-09
5.179909e-10
-2.908516e-09
2.390525e-09
4.235875e-09
2.293854e-09
-6.529729e-09
1.166257e-09
-2.470887e-09
1.304631e-09
-9.722955e-10
-6.207312e-10
5.358124e-10
-1.857479e-09
1.321667e-09
-1.235759e-10
-1.32068e-09
1.444255e-09
-1.818227e-09
1.660143e-09
1.580842e-10
4.436829e-10
-1.804007e-09
1.360324e-09
1.620567e-09
-6.475765e-10
-9.729901e-10
1.580743e-09
3.146404e-09
-4.727147e-09
-1.309333e-09
-5.068284e-10
-1.241745e-09
-7.559965e-10
1.997742e-09
-4.845196e-10
1.803937e-09
-1.319418e-09
6.850946e-10
9.449962e-10
-1.630091e-09
6.419566e-09
-5.019231e-09
-1.400335e-09
1.975952e-09
2.062142e-10
-2.182166e-09
-1.00154e-09
1.200962e-09
-1.994216e-10
-4.07927e-10
1.832357e-09
-1.42443e-09
7.152736e-10
-1.705388e-09
9.901142e-10
-4.687054e-10
-1.114317e-09
1.583022e-09
-3.359943e-10
-1.5708e-09
1.906795e-09
-9.127344e-10
6.332514e-10
2.79483e-10
-8.713919e-10
1.400655e-09
-5.292632e-10
-8.457338e-10
-1.11579e-09
1.961524e-09
1.316672e-09
1.61844e-10
-1.478516e-09
-1.550884e-10
-1.865909e-09
2.020998e-09
-1.690058e-09
2.247072e-09
-5.570144e-10
2.403207e-11
1.54143e-09
-1.565462e-09
6.454501e-10
-1.891334e-09
1.245884e-09
1.339337e-09
6.380826e-10
-1.97742e-09
2.338946e-10
-1.28108e-09
1.047185e-09
-3.709437e-10
-1.258941e-09
1.629885e-09
1.22224e-09
4.396603e-10
-1.6619e-09
9.872115e-10
-1.684831e-09
6.976194e-10
2.126085e-09
-9.249202e-10
-1.201165e-09
8.223115e-10
-1.270424e-09
1.825674e-09
-9.524793e-10
-8.731948e-10
3.662008e-09
-2.797246e-09
-8.647622e-10
5.148543e-11
1.888664e-09
-1.940149e-09
-1.916963e-09
1.303343e-09
6.136206e-10
1.779672e-09
-1.105163e-09
-6.745099e-10
-1.185164e-09
1.3861e-09
-2.009361e-10
-4.253562e-09
4.831826e-10
3.770379e-09
-5.207464e-10
1.680875e-09
-1.160129e-09
-1.601499e-09
2.281579e-10
1.373341e-09
-1.303557e-09
-3.574615e-10
1.661019e-09
1.469e-09
-1.907848e-09
4.388484e-10
-1.768101e-09
3.921629e-10
1.375938e-09
6.694816e-09
-7.08312e-09
3.883036e-10
1.519876e-09
4.50559e-11
-1.564932e-09
1.127606e-09
8.703054e-10
-1.997911e-09
-1.903277e-09
1.970881e-09
-6.760399e-11
-1.80458e-10
-1.605259e-09
1.785717e-09
1.93616e-09
-1.091806e-09
-9.08021e-10
1.884646e-09
-9.76625e-10
2.070001e-09
-3.259388e-09
1.189387e-09
-8.384891e-10
-6.394648e-10
1.477954e-09
-4.278785e-10
-1.022162e-09
1.450041e-09
-2.235109e-09
7.80358e-10
1.454751e-09
-1.213268e-09
-6.926441e-09
8.139709e-09
1.289897e-09
-1.773023e-09
4.831267e-10
-1.875551e-09
8.287486e-10
1.046802e-09
-4.604488e-11
6.599036e-09
-6.552991e-09
-1.319502e-09
-4.958551e-10
1.815357e-09
-1.15952e-09
-7.189194e-10
2.156138e-09
-5.880149e-09
3.724011e-09
1.142919e-10
-1.418335e-09
1.304043e-09
-2.059837e-09
9.048491e-10
1.154988e-09
1.127938e-09
-1.860484e-09
7.325469e-10
3.749481e-09
1.726823e-09
-5.476304e-09
1.567561e-09
-3.523985e-09
1.956424e-09
-8.665857e-10
-6.534785e-10
-2.028478e-09
2.553683e-09
-5.252053e-10
-1.298785e-09
-3.506813e-11
1.333853e-09
6.896309e-10
1.07353e-09
-1.763161e-09
1.512524e-09
7.173687e-11
-1.584261e-09
5.544572e-10
1.175141e-09
-1.729598e-09
-9.587371e-10
-9.460315e-10
1.904769e-09
-4.740955e-09
4.699305e-09
4.164999e-11
-1.701821e-09
-8.593535e-10
2.561175e-09
-4.517862e-10
2.242856e-09
-1.79107e-09
-1.735692e-09
3.844941e-10
1.351198e-09
1.94161e-09
-1.120474e-09
-8.211354e-10
1.945956e-09
-1.486937e-10
-1.797263e-09
-4.875145e-10
1.368445e-09
-8.809307e-10
-5.284954e-10
1.499406e-09
-9.709109e-10
-1.537449e-09
2.398257e-09
-8.608083e-10
3.896181e-10
-1.26101e-09
4.419105e-10
-1.534663e-09
1.092753e-09
1.470561e-09
-1.380898e-09
-8.966297e-11
-1.301393e-09
2.125674e-10
1.088826e-09
-1.43783e-09
1.927593e-09
-4.897635e-10
-1.154421e-09
-6.45386e-10
1.799807e-09
1.061261e-09
4.041521e-10
-1.465413e-09
5.943234e-10
1.382128e-09
-1.976452e-09
5.215662e-10
-1.590401e-09
1.068835e-09
1.540702e-09
-1.599358e-09
5.865608e-11
9.927406e-10
-1.870037e-09
8.772964e-10
-1.274299e-09
1.717982e-09
1.269028e-10
-1.524189e-09
1.397286e-09
2.113858e-09
-7.514564e-10
-1.362402e-09
7.810887e-10
-2.062368e-09
2.050813e-09
-1.104731e-09
-9.460819e-10
-1.723915e-09
4.699214e-10
1.253993e-09
-1.388201e-09
7.614311e-10
6.267702e-10
-4.655337e-09
3.782059e-09
8.732782e-10
-2.19977e-09
-4.414271e-10
2.641197e-09
-7.353057e-10
-1.193677e-09
1.928983e-09
5.809039e-10
1.159123e-09
-1.740026e-09
9.03567e-10
9.078683e-10
-1.811435e-09
1.653597e-09
-1.682121e-09
2.852354e-11
-1.649769e-09
8.590996e-10
7.906692e-10
-2.033147e-09
1.2138e-09
8.193467e-10
-4.062088e-10
-1.171239e-09
1.577448e-09
1.02509e-09
-1.810743e-09
7.856526e-10
-1.728689e-09
8.959467e-10
8.327421e-10
4.815487e-09
2.77566e-09
6.097927e-10
1.299632e-09
-1.909425e-09
-1.265327e-09
1.954958e-09
1.243658e-09
4.79481e-10
-1.723139e-09
-6.696061e-10
-7.444877e-10
1.414094e-09
5.114025e-10
-2.17067e-09
1.659268e-09
-1.566931e-09
1.338512e-09
2.284195e-10
1.619814e-09
2.09293e-11
-1.640743e-09
6.297882e-10
-1.6691e-09
1.039312e-09
-7.611642e-10
-1.211922e-09
1.973087e-09
2.110989e-09
-1.474555e-09
-6.36434e-10
-1.242885e-09
1.660687e-09
-4.17802e-10
3.433709e-10
-2.008569e-09
1.665198e-09
1.533462e-09
-7.008128e-10
-8.326494e-10
-1.033146e-10
-1.229757e-09
1.333072e-09
1.968528e-09
-5.691342e-10
-1.399394e-09
9.569935e-10
1.129129e-09
-2.086122e-09
-1.656181e-09
-1.374862e-10
1.793667e-09
-8.205071e-10
-1.115548e-09
-1.229249e-09
-1.972205e-10
1.42647e-09
-1.506504e-09
-2.504379e-10
1.756942e-09
1.280718e-09
4.943784e-10
-1.775096e-09
1.499287e-09
6.496726e-10
-2.148959e-09
1.38488e-09
-3.644613e-10
-1.020419e-09
-1.166519e-09
9.984398e-10
1.68079e-10
1.966342e-09
-1.941072e-09
-2.527026e-11
2.968519e-10
1.438257e-09
-1.735109e-09
-3.742471e-10
1.994663e-09
-1.620416e-09
-2.028606e-09
4.184744e-09
-4.693607e-10
-1.217959e-09
1.68732e-09
-7.648097e-10
-2.159931e-09
2.92474e-09
1.863459e-10
-1.611731e-09
1.425385e-09
1.566423e-09
-1.066857e-09
-4.995662e-10
1.480415e-09
-1.996427e-09
5.160123e-10
1.307642e-09
7.121407e-10
-2.019782e-09
-1.184613e-09
1.770808e-09
-5.861948e-10
1.590765e-09
1.594098e-10
-1.750175e-09
2.568893e-09
-2.115662e-09
-4.532313e-10
-2.013739e-09
5.034621e-10
1.510277e-09
7.847731e-10
8.963146e-10
-1.681088e-09
9.532481e-10
-1.700084e-09
7.397917e-10
9.602926e-10
1.011936e-09
-1.299931e-09
2.879958e-10
8.641658e-10
1.867695e-10
-1.050935e-09
6.810462e-10
-1.435577e-09
7.545309e-10
1.460475e-09
-1.418663e-09
-4.181256e-11
5.114833e-09
-8.789585e-10
-1.816583e-09
8.730746e-10
9.435089e-10
-1.193119e-09
1.350766e-09
-1.576467e-10
-1.273497e-09
7.88977e-10
-1.430269e-09
-4.262317e-10
1.856501e-09
-3.552196e-10
1.892377e-09
-1.537157e-09
-1.034151e-09
-6.963207e-10
1.730472e-09
-1.51132e-09
1.175326e-09
1.981124e-09
-6.881152e-10
-1.293009e-09
-1.177016e-09
1.200694e-09
-2.367774e-11
-9.450455e-10
-5.679549e-10
1.513e-09
1.964032e-09
-7.078027e-10
-1.25623e-09
1.269097e-09
-1.842468e-09
5.733705e-10
-1.175909e-09
-1.110541e-09
2.286451e-09
-5.370047e-10
1.612009e-09
-1.075004e-09
1.313163e-09
-6.073512e-10
-7.058113e-10
9.585239e-10
-6.389398e-10
-3.195841e-10
1.320732e-09
4.822349e-10
-1.802967e-09
9.635439e-10
7.857941e-10
-1.749338e-09
-1.223948e-09
1.852628e-09
-6.286802e-10
-1.252544e-09
-7.47613e-10
2.000157e-09
1.791858e-09
1.103282e-09
-2.895141e-09
1.911081e-09
-1.186774e-09
-7.243064e-10
1.43792e-09
-1.592537e-09
1.546175e-10
8.444784e-10
6.022044e-10
-1.446683e-09
4.156146e-09
-4.409586e-09
2.534394e-10
8.329999e-10
1.171832e-09
-2.004832e-09
-2.248529e-09
1.748756e-09
4.997734e-10
2.124196e-09
-1.394494e-09
-7.297014e-10
-1.753268e-09
9.956888e-10
7.575796e-10
9.798454e-10
-4.115292e-10
-5.683162e-10
-1.451492e-09
1.580086e-09
2.059198e-09
-1.799845e-10
-1.879214e-09
2.598046e-09
-2.97447e-09
3.764241e-10
2.788473e-09
-4.009797e-09
1.221324e-09
2.545616e-10
-1.53345e-09
1.278888e-09
-1.061953e-09
-1.186576e-09
-2.12979e-09
9.887348e-10
-1.283314e-09
9.576166e-13
1.282356e-09
-1.941233e-10
1.460574e-09
-1.26645e-09
1.47779e-09
-9.137698e-10
-5.640199e-10
1.092364e-10
1.761093e-09
-1.870329e-09
1.121422e-09
7.896765e-10
-1.911098e-09
-8.020089e-10
1.960704e-09
-1.158695e-09
-3.853366e-10
-7.950214e-10
1.180358e-09
1.446924e-09
2.076964e-09
-3.523888e-09
5.385997e-11
1.737998e-09
6.334961e-10
9.050901e-10
-1.538586e-09
8.89228e-10
6.016792e-10
-1.490907e-09
1.143163e-10
-1.6067e-09
1.492384e-09
6.675442e-10
6.729029e-10
-1.340447e-09
-4.130506e-09
7.247441e-10
3.405762e-09
1.89493e-09
-9.313862e-10
-1.755148e-09
8.272389e-10
9.279095e-10
-9.987838e-10
1.574717e-09
-1.14242e-10
-1.186726e-09
-5.946961e-10
1.781422e-09
3.664113e-10
1.020361e-09
-1.386773e-09
2.708848e-09
-1.662695e-09
-1.046153e-09
9.394292e-10
5.977333e-10
-1.537162e-09
1.657109e-09
-1.423215e-09
-1.7093e-09
1.380668e-09
3.286323e-10
-6.134322e-10
-1.02166e-09
1.635092e-09
1.157451e-09
-1.809032e-09
6.515807e-10
2.239162e-09
-8.450023e-10
-1.39416e-09
-2.607643e-10
-1.246133e-09
1.506897e-09
1.996884e-10
1.441324e-09
-1.641013e-09
1.148416e-09
2.355897e-10
-1.384006e-09
-1.088585e-09
1.445176e-09
-3.565912e-10
-2.054564e-10
1.268309e-09
-1.062852e-09
-1.371224e-09
-2.498084e-10
1.621033e-09
-1.168322e-10
1.778105e-09
-1.661273e-09
6.667704e-10
9.818628e-10
-1.648633e-09
-5.569248e-10
1.587416e-09
-1.030491e-09
-1.44491e-09
1.714505e-09
-2.69595e-10
-4.984679e-10
1.901393e-09
-1.402925e-09
-1.458706e-09
2.851915e-10
1.173514e-09
-1.706457e-09
1.711689e-09
-5.232457e-12
9.23442e-10
5.771374e-09
1.310914e-09
-1.478589e-09
1.676748e-10
1.362177e-09
5.352027e-10
-1.89738e-09
8.097615e-10
8.973225e-10
-1.707084e-09
-2.969414e-09
-6.771999e-09
1.635636e-09
-1.173071e-09
-4.625645e-10
-1.310382e-09
1.464802e-09
-1.5442e-10
-1.642179e-09
9.815138e-10
6.606655e-10
-2.470171e-10
-1.430057e-09
1.677074e-09
1.149222e-09
-6.276555e-10
1.899225e-09
-8.741347e-10
-6.498931e-10
-1.078796e-09
1.487246e-09
-9.758436e-10
-1.506236e-09
4.934884e-10
1.012748e-09
1.777623e-09
-5.909465e-10
-1.186677e-09
-2.143632e-09
1.847018e-09
2.966143e-10
-9.995033e-10
-3.800984e-10
1.379602e-09
2.464333e-09
-1.559312e-09
-9.050215e-10
-1.85948e-09
1.36327e-09
4.962102e-10
4.844284e-10
-1.62234e-09
1.137912e-09
-2.595739e-09
1.923213e-09
6.72526e-10
-1.262033e-09
-1.725725e-10
1.434605e-09
7.38902e-10
-2.298131e-09
1.559229e-09
-9.09356e-10
-9.380319e-10
1.847388e-09
-4.5727e-10
1.685541e-09
-1.228271e-09
1.4057e-09
2.299353e-10
7.516689e-10
-1.922185e-09
1.170516e-09
-8.367408e-10
-8.26403e-10
1.663144e-09
-1.876863e-09
2.06126e-09
-1.843972e-10
1.166176e-09
-2.49542e-09
-2.442278e-09
-2.21306e-09
2.076471e-10
1.399868e-09
-1.607515e-09
9.644777e-10
7.294644e-10
-1.693942e-09
-4.017343e-09
2.543807e-09
1.473537e-09
1.84215e-09
-4.863802e-10
-1.35577e-09
-8.99848e-10
1.63002e-09
6.290629e-11
1.354087e-09
8.859227e-10
5.908144e-10
-1.476737e-09
1.500925e-09
4.495789e-11
-1.545883e-09
1.103236e-09
-1.855864e-09
2.049161e-09
-1.094009e-10
-1.939761e-09
-1.048375e-09
2.280322e-09
-1.231948e-09
-1.134002e-09
1.015031e-09
1.189702e-10
1.365184e-09
-2.088598e-09
7.234133e-10
2.057253e-09
-6.883716e-09
4.826463e-09
8.764051e-10
1.200253e-09
-2.076658e-09
-7.403255e-10
1.581961e-09
-8.416359e-10
-9.520918e-10
1.616959e-09
-6.648668e-10
2.286125e-09
-1.723776e-09
-5.623489e-10
1.456828e-09
-1.26684e-09
-1.899877e-10
8.872254e-10
-2.362448e-09
1.475222e-09
-6.375623e-10
1.878275e-09
-1.240713e-09
2.111475e-09
-1.745063e-09
1.801221e-09
-7.800599e-10
-1.021161e-09
-1.643347e-09
5.743589e-10
1.068988e-09
9.40398e-10
-1.067855e-09
1.274568e-10
1.624131e-09
-1.548814e-09
-7.53164e-11
4.104938e-09
-2.329575e-09
-1.775363e-09
-1.148087e-09
1.829133e-09
-8.208686e-10
1.612772e-09
-7.919037e-10
1.955967e-09
-1.58658e-09
-3.693868e-10
-1.735112e-09
3.182037e-09
3.936087e-10
-1.555385e-09
1.161776e-09
-2.088247e-09
1.118872e-09
9.693747e-10
-2.095378e-09
-4.685855e-10
2.563964e-09
1.211209e-09
-1.868442e-09
7.775325e-10
1.195496e-09
-1.973029e-09
-7.768749e-11
-1.428817e-09
-1.011651e-09
1.587092e-09
-5.754414e-10
8.622464e-10
-2.068893e-09
1.206646e-09
1.558936e-09
-1.70045e-09
1.415136e-10
6.135246e-10
-1.798761e-09
1.185236e-09
-2.145513e-09
1.484091e-09
6.614227e-10
4.158095e-10
-1.728006e-09
1.312196e-09
-1.211962e-09
-7.369328e-10
1.056886e-09
-1.699864e-09
6.429779e-10
1.67284e-09
-2.948349e-09
1.27551e-09
1.556921e-09
-1.015503e-09
1.376512e-09
-2.164302e-09
8.812016e-10
-1.933474e-09
1.052272e-09
1.816119e-09
-7.96405e-10
-1.019714e-09
1.212634e-09
-2.848013e-09
1.635379e-09
1.252517e-09
-2.113261e-09
8.607433e-10
-7.81673e-10
1.69639e-09
-9.147168e-10
-1.866634e-09
3.542897e-10
1.512344e-09
-1.560914e-09
1.524203e-10
1.408493e-09
-7.359754e-09
5.936437e-09
1.423316e-09
-1.380542e-09
-3.565158e-10
1.737058e-09
-2.361036e-09
8.087208e-10
1.552315e-09
-2.842842e-10
-6.284503e-10
-1.993713e-09
7.045691e-10
1.289144e-09
-4.309168e-10
-1.739753e-09
1.933338e-09
-9.281754e-10
-1.005163e-09
-1.421567e-09
1.415257e-09
6.309389e-12
1.862368e-09
-9.859628e-10
8.089212e-10
1.276181e-09
-2.085102e-09
-1.6453e-09
1.510058e-09
1.352422e-10
5.74501e-10
8.960601e-10
3.562981e-10
-1.764741e-09
1.408443e-09
1.654118e-09
-2.418386e-10
-1.41228e-09
-1.822411e-09
8.212084e-10
1.001202e-09
2.010976e-09
2.599342e-10
-2.27091e-09
-1.492377e-09
1.389062e-09
-1.012264e-09
1.587287e-09
-5.750228e-10
-1.079842e-09
1.454758e-09
-3.749158e-10
9.097505e-10
-2.443996e-09
1.388442e-09
-9.669498e-10
-4.214923e-10
-2.343048e-10
1.656003e-09
-1.421698e-09
-7.694293e-10
1.585538e-09
-8.16109e-10
-1.406799e-09
1.809995e-09
-4.031961e-10
-1.980027e-09
1.958772e-09
-3.091463e-09
1.132691e-09
-1.662677e-09
1.077936e-09
5.847405e-10
-2.846636e-10
-1.404896e-09
1.68956e-09
1.290158e-09
-1.935258e-09
6.450996e-10
1.66826e-10
1.394041e-09
-1.560867e-09
-2.996121e-09
4.625678e-09
-1.629556e-09
-6.977317e-10
1.875715e-09
-1.177983e-09
-2.907172e-10
-8.586973e-10
1.149415e-09
1.310115e-09
-1.670072e-09
3.599572e-10
-3.751891e-10
1.448719e-09
1.089324e-09
-1.614395e-09
5.250713e-10
-1.100567e-09
-2.855127e-10
1.38608e-09
8.859845e-10
1.076494e-09
-1.962478e-09
1.268782e-09
4.893259e-10
-1.67449e-09
-8.930209e-10
-8.748943e-10
1.767915e-09
-2.688902e-09
-1.941728e-09
6.152344e-10
1.326494e-09
7.03932e-10
-1.519434e-09
8.155023e-10
4.793696e-10
1.587324e-09
-2.066693e-09
1.259831e-09
-9.570844e-10
-3.027467e-10
-6.392022e-10
-9.755555e-10
1.614758e-09
-1.907057e-09
1.263317e-09
6.437403e-10
-2.383936e-09
2.783316e-10
2.105604e-09
-1.469804e-09
-1.950222e-10
1.664826e-09
9.075747e-10
-1.874167e-09
9.665919e-10
1.25139e-09
9.124991e-10
-2.163889e-09
1.362783e-09
-4.493623e-10
-9.13421e-10
-1.310402e-09
9.250352e-10
3.853667e-10
-1.304013e-09
-1.665896e-09
2.969909e-09
7.109667e-10
-1.668194e-09
9.572269e-10
-1.346481e-09
1.714162e-09
-3.676813e-10
-8.064541e-10
-1.073282e-09
1.879737e-09
2.062833e-09
-1.159266e-09
8.023314e-10
-1.782162e-09
9.798309e-10
-1.365938e-10
-1.087543e-09
1.224136e-09
2.044745e-09
-1.24564e-09
-7.991046e-10
-1.592697e-09
2.21473e-10
9.883621e-10
5.873251e-10
-1.575687e-09
1.680445e-10
-2.010553e-09
1.842508e-09
-7.423342e-10
1.730349e-09
-9.880146e-10
-1.261976e-09
-6.169974e-09
7.43195e-09
-1.963521e-09
6.743922e-10
1.289129e-09
-9.67976e-10
-8.603347e-10
1.621897e-09
-7.615624e-10
-1.176733e-09
-9.182582e-10
2.094991e-09
2.513473e-09
-2.718379e-09
2.04906e-10
1.622491e-09
-1.099673e-10
-1.878497e-09
1.385755e-09
4.927417e-10
-1.043204e-09
-4.268979e-10
1.470102e-09
1.336937e-09
-1.830355e-09
4.934175e-10
-8.187325e-10
-1.088841e-09
1.907573e-09
2.012143e-09
-4.766652e-10
-1.535478e-09
-2.420115e-09
3.586372e-09
5.448475e-10
-1.442282e-09
8.974342e-10
4.60281e-10
1.253802e-09
-1.714083e-09
9.11814e-09
-9.11814e-09
-1.381974e-09
1.115825e-09
2.66149e-10
1.761479e-09
-8.697971e-10
-8.916819e-10
1.158948e-09
-1.621817e-09
1.501336e-09
-8.797611e-10
-6.215752e-10
-1.512322e-09
-1.756558e-10
1.687978e-09
1.384861e-09
1.804975e-09
-3.189836e-09
1.672563e-09
-9.874687e-10
1.436229e-09
-8.749957e-10
-5.612333e-10
1.585231e-09
-6.743171e-10
-9.109134e-10
1.796465e-09
-4.535143e-10
-1.34295e-09
8.472008e-10
-1.610651e-09
7.634506e-10
1.795162e-09
-4.744305e-10
9.318493e-10
4.712477e-10
-1.403097e-09
-7.912098e-10
-4.822868e-10
1.793646e-09
-1.380477e-09
-4.131688e-10
1.635826e-09
7.071146e-11
-1.604733e-09
1.534022e-09
-3.588609e-10
1.560771e-09
-1.20191e-09
7.138591e-10
1.567065e-09
-1.270213e-09
-8.420052e-10
1.704252e-09
1.762983e-09
-1.173249e-09
-5.897341e-10
2.152193e-09
-1.164982e-09
1.337775e-09
-1.557589e-09
2.198144e-10
3.819703e-10
-1.872567e-09
1.490597e-09
-3.905163e-10
-1.392765e-09
-1.563e-09
1.474912e-09
8.808729e-11
1.29782e-10
-1.410862e-09
7.332353e-09
-2.139004e-09
2.507701e-09
1.037568e-09
-3.545269e-09
-2.663007e-09
1.358994e-09
9.43003e-10
-1.912682e-09
2.939329e-10
-1.084964e-09
7.910309e-10
-1.280284e-09
1.418025e-09
-1.377412e-10
-2.715338e-10
1.649847e-09
-1.378313e-09
1.286882e-09
6.080476e-10
-1.189698e-09
1.744155e-09
8.870817e-10
-1.772717e-09
8.856353e-10
5.741132e-10
-3.057071e-09
2.482958e-09
-1.817406e-09
-5.83677e-10
3.679612e-09
2.320345e-09
-5.999956e-09
-1.698437e-09
2.977807e-10
1.400656e-09
-7.023932e-10
1.735241e-09
-1.032848e-09
-2.841784e-09
-1.463624e-09
4.305408e-09
-2.202695e-09
-2.03499e-09
4.237685e-09
1.041506e-09
-1.49543e-09
4.539243e-10
-3.464597e-09
6.812319e-10
2.783365e-09
-1.517702e-09
6.231476e-10
8.945544e-10
-7.935087e-10
2.044899e-09
2.441482e-09
-2.509764e-09
6.828172e-11
1.041395e-09
7.598263e-10
-2.695192e-09
2.755798e-10
2.419612e-09
1.435018e-09
-3.476509e-10
-1.087367e-09
1.861856e-09
-5.723357e-10
-1.28952e-09
8.308221e-10
1.137706e-09
-1.724616e-09
2.494062e-09
-7.694453e-10
-4.128883e-10
-1.21717e-09
1.630058e-09
-1.595772e-09
7.759914e-10
8.197804e-10
-5.100695e-11
-3.41359e-09
1.566961e-10
-1.559589e-09
1.402893e-09
-1.191591e-09
2.038792e-09
-1.269305e-09
2.086318e-09
-8.17013e-10
-1.692831e-09
8.148777e-10
8.779529e-10
-1.099874e-09
1.545903e-09
-4.460293e-10
1.853143e-09
-9.660613e-10
-1.110693e-09
3.20918e-10
-9.925577e-10
1.880231e-09
-8.876734e-10
-3.704342e-11
-1.208035e-09
1.245079e-09
5.037096e-10
1.380646e-09
-1.884356e-09
5.087116e-10
-1.750457e-09
-6.543595e-10
1.993697e-09
-3.455557e-10
-8.84756e-10
1.230312e-09
1.775826e-09
-1.109055e-09
1.32262e-10
1.149096e-09
-1.281358e-09
-1.143685e-09
3.0751e-10
8.361751e-10
-3.823304e-10
1.532876e-09
-1.150546e-09
5.324743e-09
-3.671163e-09
-1.65358e-09
9.353953e-10
-1.606576e-09
6.711803e-10
-1.489935e-10
1.407351e-09
-1.258357e-09
1.235604e-09
-1.384379e-09
1.487755e-10
3.98123e-10
-1.649463e-09
1.213325e-10
4.978222e-09
-1.031022e-09
-3.9472e-09
1.109637e-12
1.148633e-09
-1.149742e-09
-3.572241e-10
1.614968e-09
-1.257744e-09
2.726901e-09
-2.323992e-10
-2.494501e-09
-1.202859e-09
2.080339e-09
-8.774795e-10
-9.794121e-10
1.741803e-09
-7.623905e-10
-1.622433e-09
3.120306e-10
2.474712e-09
-2.153794e-09
-5.859402e-11
1.334579e-09
-1.275985e-09
4.368541e-10
1.276083e-09
-1.712937e-09
5.843856e-10
-1.160083e-09
5.756974e-10
-4.39475e-10
-1.182958e-09
1.292942e-09
2.635358e-09
-3.9283e-09
1.521961e-10
1.562159e-09
-1.714355e-09
3.088965e-09
1.559689e-10
-3.244934e-09
-1.218032e-09
1.844831e-10
-3.371933e-10
-1.007507e-09
1.344701e-09
2.768968e-10
3.278494e-09
-3.555391e-09
-1.682952e-09
5.836498e-10
1.099302e-09
1.186578e-09
7.467608e-10
-1.533949e-09
-3.567423e-11
1.569623e-09
-3.193976e-09
3.138283e-09
5.569388e-11
-1.624156e-09
-3.29588e-09
4.920035e-09
-1.297264e-09
1.800973e-09
1.853745e-09
-1.022473e-09
-8.312718e-10
5.921005e-10
1.921373e-09
6.748945e-10
7.135476e-10
8.446088e-10
9.715103e-10
-3.54754e-10
-1.506597e-09
1.861351e-09
7.798816e-10
-2.510782e-09
1.7309e-09
-1.439733e-10
-1.218446e-09
1.362419e-09
-1.63208e-09
1.705615e-09
-7.35346e-11
1.709337e-09
-1.005405e-09
1.248742e-09
-1.910942e-09
6.622005e-10
1.502576e-09
-1.749656e-09
2.470801e-10
-5.081264e-10
-1.839667e-09
2.347793e-09
1.277077e-09
-1.518915e-09
-5.562733e-10
-8.242684e-10
1.16288e-09
6.00103e-10
1.201544e-09
-1.679332e-09
4.777876e-10
4.747104e-10
-1.096307e-09
-2.092704e-09
1.975871e-09
4.328861e-10
1.049931e-09
-1.482817e-09
-1.259641e-09
1.855895e-09
-5.962542e-10
2.139709e-09
7.018057e-10
-2.071022e-09
1.369217e-09
1.478275e-09
-2.060194e-09
5.819195e-10
6.634354e-10
1.190596e-09
-2.347104e-09
5.293595e-09
-2.94649e-09
-1.843307e-09
1.548554e-09
2.947534e-10
-6.771312e-10
-9.882561e-10
-9.466537e-10
1.93491e-09
-6.212986e-10
1.773999e-09
-1.152701e-09
-8.693091e-12
1.631184e-09
9.969337e-10
6.559936e-10
-1.652927e-09
-3.443653e-09
1.356202e-12
-1.377406e-09
1.37605e-09
1.886408e-09
-1.340691e-10
-1.752339e-09
8.789593e-10
-1.378121e-09
1.551246e-09
-8.9355e-10
-6.576956e-10
1.278929e-10
-1.426678e-09
-2.00039e-09
-1.639946e-10
2.164385e-09
6.818105e-09
-1.653422e-09
-5.164683e-09
1.066042e-09
1.047816e-09
-1.760115e-09
1.945788e-09
-1.856732e-10
3.675069e-09
-3.726076e-09
1.365558e-09
2.309512e-09
-1.693655e-09
1.55314e-09
1.405149e-10
-4.463401e-09
2.932646e-10
4.170137e-09
-7.774671e-10
-9.226171e-10
-9.886263e-10
-8.944708e-10
1.883097e-09
-1.808054e-10
-5.064339e-09
5.245145e-09
1.189526e-09
8.37769e-10
-2.027295e-09
1.032967e-09
-1.773293e-09
-5.702919e-10
1.441353e-09
-8.710613e-10
1.008005e-09
-1.56493e-09
-1.304174e-09
1.502815e-10
1.153893e-09
4.680134e-10
1.418394e-09
-3.548341e-10
1.7487e-09
-1.393866e-09
5.36839e-10
-9.615689e-10
-6.33116e-10
1.594685e-09
-1.263383e-09
1.051827e-09
2.115562e-10
-1.448124e-09
-3.556853e-10
1.803809e-09
-9.608905e-10
2.221518e-09
-1.260628e-09
-1.604198e-09
-5.955719e-10
-1.695416e-09
1.784434e-09
-8.901776e-11
1.63043e-09
1.925766e-09
1.329752e-10
-2.058741e-09
-1.975038e-09
1.672256e-09
3.027827e-10
-1.690229e-09
7.588433e-10
1.141245e-09
-1.670466e-09
5.292211e-10
1.586746e-09
-3.252642e-09
1.229895e-09
-1.948814e-09
1.620164e-09
-1.459035e-09
-1.611296e-10
3.119798e-09
-1.627262e-09
-1.492537e-09
2.349508e-10
1.293012e-09
-1.527963e-09
-8.627211e-10
-8.924273e-10
-9.609618e-10
1.742094e-09
-7.811325e-10
-2.954562e-09
3.546663e-09
-9.791006e-10
1.88732e-09
-9.082189e-10
8.617517e-10
1.847097e-09
-6.501298e-10
1.839656e-09
9.718265e-10
-1.62172e-09
-4.068222e-10
-1.18724e-09
1.594062e-09
-2.44168e-10
-1.749948e-09
1.994117e-09
1.590112e-09
-7.321561e-10
-8.579558e-10
-1.184676e-10
1.544757e-09
-1.42629e-09
2.300771e-09
-3.220812e-09
1.602891e-09
-1.957645e-09
-7.621761e-10
2.149895e-09
-1.387719e-09
-1.278977e-09
-4.891247e-10
1.992066e-09
-9.705854e-10
-1.021481e-09
1.415621e-09
-1.681238e-09
2.65617e-10
1.660453e-09
-4.961276e-10
-1.164326e-09
-4.974942e-10
1.787391e-09
-7.166869e-10
-1.081239e-09
1.797926e-09
-1.994316e-09
1.091853e-09
9.024624e-10
-1.293553e-09
-7.020373e-10
1.99559e-09
2.030992e-09
-4.402273e-10
-2.687237e-09
-4.394214e-09
7.081452e-09
-2.912975e-09
3.609415e-09
-6.964399e-10
-2.090023e-09
4.161459e-09
-2.071436e-09
1.92331e-09
-1.84562e-09
-7.769052e-11
1.199411e-09
-1.850386e-09
6.509749e-10
7.648653e-10
1.289704e-09
-2.054569e-09
-5.635634e-09
2.572067e-09
3.063566e-09
6.852833e-10
1.244213e-09
-1.929496e-09
-1.887701e-09
9.360187e-10
9.516821e-10
8.259181e-10
1.095755e-09
-1.921674e-09
1.240408e-09
-2.064704e-09
8.24296e-10
2.520951e-09
-2.201802e-10
1.831019e-09
6.472342e-09
-5.940037e-10
-1.39772e-09
1.991723e-09
-1.561382e-09
-4.942762e-10
2.055658e-09
2.173817e-09
-2.150444e-10
-7.187678e-10
1.429734e-09
-1.017883e-09
1.774088e-09
-7.562052e-10
-6.010278e-12
-1.400789e-09
-5.808816e-09
3.354189e-09
2.454626e-09
1.263154e-09
7.06326e-09
-8.325236e-09
-1.731643e-09
1.717017e-09
1.462552e-11
1.858577e-09
-8.60757e-10
-9.978197e-10
-1.167734e-09
-2.835789e-10
1.451313e-09
-7.26892e-10
4.153764e-09
-3.426872e-09
-1.636613e-09
1.614714e-09
2.189931e-11
1.846346e-10
1.551664e-09
-1.736299e-09
1.09132e-09
2.253325e-09
-1.607875e-09
-5.880123e-10
1.696967e-09
-1.108955e-09
-1.116046e-09
-8.58992e-10
9.267796e-10
1.903191e-09
-2.82997e-09
-4.61939e-09
4.720707e-09
-1.013171e-10
-1.568015e-09
4.308422e-11
1.52493e-09
-1.841051e-09
4.967102e-10
1.34434e-09
-1.888942e-09
1.189984e-09
6.989583e-10
-4.06884e-10
-1.482058e-09
1.120265e-09
-6.796165e-10
-4.406483e-10
-1.706775e-09
1.32718e-09
1.21391e-09
-1.677457e-09
4.635468e-10
8.953304e-10
-1.84376e-09
9.484295e-10
7.326677e-10
-1.897771e-09
1.165103e-09
-9.701075e-10
1.848418e-09
-8.783106e-10
-1.489943e-09
-1.897473e-10
1.67969e-09
-8.65432e-11
1.432551e-09
1.880154e-10
-1.498687e-09
8.852546e-10
2.149025e-10
1.065818e-09
-1.28072e-09
-4.330181e-11
-1.353021e-09
1.396323e-09
1.484241e-09
4.163479e-10
-1.900589e-09
9.671963e-10
-1.490389e-09
1.244173e-09
2.462156e-10
-9.224938e-10
1.740871e-09
-8.183769e-10
-1.115974e-09
-7.836415e-10
1.899615e-09
1.277437e-09
-3.234697e-09
1.95726e-09
8.860498e-12
-2.20486e-09
3.220472e-09
-6.515791e-10
1.733002e-09
-7.589259e-11
-6.740438e-10
1.682049e-09
6.123034e-10
-1.579253e-09
1.54204e-09
-6.975616e-10
1.810693e-09
-7.538064e-10
1.030769e-09
-1.385989e-09
6.114031e-10
3.593549e-09
-4.204952e-09
-1.145691e-09
-1.93353e-10
1.339044e-09
9.080862e-10
-1.555663e-09
2.701488e-09
4.116617e-09
-1.674527e-09
1.440238e-10
1.530503e-09
1.649598e-09
9.202868e-11
-1.741627e-09
-8.074396e-10
2.085406e-09
-1.277967e-09
-1.849015e-09
1.604847e-09
2.356908e-09
-8.45057e-10
-1.511851e-09
1.905891e-09
-9.971531e-10
-9.087377e-10
-2.391392e-09
7.586248e-10
1.632768e-09
-2.130244e-10
1.61767e-09
-1.404646e-09
3.691679e-10
1.339232e-09
-1.7084e-09
1.75222e-09
8.014636e-10
1.330655e-09
1.969677e-10
-1.527622e-09
2.309332e-09
-3.508636e-09
1.696124e-09
-1.200318e-09
-4.958059e-10
-1.605681e-09
1.375815e-09
-7.186258e-10
-1.025301e-09
1.743927e-09
1.400454e-09
-2.11908e-09
-1.383511e-09
1.497803e-09
1.691952e-09
-1.168038e-10
1.232328e-09
-1.115524e-09
-1.194828e-09
1.41065e-09
-2.158222e-10
-1.97464e-09
8.470452e-10
1.127595e-09
-8.478723e-10
-1.121348e-09
1.96922e-09
-1.241236e-09
2.274203e-09
-1.363819e-09
2.146268e-09
-7.824496e-10
1.270598e-09
1.653131e-09
-4.52878e-10
6.537588e-10
1.310274e-09
-5.110731e-10
-1.261644e-09
1.721284e-09
-9.814927e-10
-1.887016e-09
5.088949e-10
1.467089e-09
5.037917e-10
-3.403681e-09
-3.567889e-10
3.76047e-09
-6.311418e-10
1.103225e-09
-4.720835e-10
-1.204679e-09
2.597256e-10
-1.800327e-09
1.540602e-09
2.054323e-09
-1.44071e-09
-6.136134e-10
1.365997e-09
-1.794194e-10
1.707055e-09
-9.881229e-10
-7.189322e-10
1.580394e-09
-1.077394e-09
-5.029994e-10
-1.430688e-09
1.587384e-09
-1.826825e-09
9.032958e-10
9.235293e-10
-2.220738e-09
-1.796605e-09
-1.332276e-09
-1.759187e-09
1.640624e-09
-1.368603e-10
1.66126e-09
1.273315e-09
-3.379199e-10
1.213466e-09
-1.299623e-09
8.615771e-11
2.079236e-09
-1.192011e-09
1.248877e-09
-2.605151e-10
-4.109714e-10
-1.897054e-09
2.308025e-09
1.013185e-09
-1.35292e-09
3.397348e-10
-1.654487e-09
2.349882e-10
1.419499e-09
7.345431e-10
6.489681e-10
-1.383511e-09
-1.846126e-09
4.449496e-10
1.401176e-09
-1.785152e-09
4.213329e-10
-9.125211e-09
3.206149e-09
5.919062e-09
1.387389e-09
-7.471516e-10
-6.402376e-10
-1.63472e-09
-7.659194e-10
-8.972767e-10
1.663196e-09
-1.910662e-09
-1.332011e-09
4.771622e-10
8.548486e-10
9.640302e-11
1.333221e-09
-1.429624e-09
-1.884152e-09
6.972615e-10
1.18689e-09
-1.676382e-09
6.532005e-10
1.023181e-09
-1.778617e-09
2.259619e-09
-4.645193e-09
2.385574e-09
-1.672951e-09
3.632389e-10
1.309713e-09
-2.499034e-10
1.90468e-09
-1.654776e-09
1.187201e-09
4.969934e-10
-1.684195e-09
7.14057e-10
-1.963027e-09
1.24897e-09
1.228136e-09
-1.92515e-09
6.970145e-10
-8.212995e-10
1.700261e-09
-8.789612e-10
9.058055e-10
-1.952655e-09
1.046849e-09
-1.042129e-09
1.522394e-09
-4.802653e-10
8.643508e-10
-1.841481e-09
-1.690714e-10
-7.18898e-10
2.561406e-09
3.542229e-10
1.71665e-09
-2.070872e-09
-1.758117e-09
1.060385e-09
3.457864e-09