/*--------------------------------*- C++ -*----------------------------------*\
| =========                 |                                                 |
| \\      /  F ield         | OpenFOAM: The Open Source CFD Toolbox           |
|  \\    /   O peration     | Version:  2406                                  |
|   \\  /    A nd           | Website:  www.openfoam.com                      |
|    \\/     M anipulation  |                                                 |
\*---------------------------------------------------------------------------*/
FoamFile
{
    version     2.0;
    format      ascii;
    arch        "LSB;label=32;scalar=64";
    class       volVectorField;
    location    "0.2";
    object      U;
}
// * * * * * * * * * * * * * * * * * * * * * * * * * * * * * * * * * * * * * //

dimensions      [0 1 -1 0 0 0 0];

internalField   nonuniform List<vector> 
4531
(
(3.637266e-05 7.319195e-07 0)
(1.375893e-05 -1.337613e-07 1.060495e-28)
(1.738527e-05 2.505152e-08 0)
(1.397084e-05 1.563806e-08 0)
(1.413248e-05 -7.46001e-09 0)
(1.340107e-05 1.86474e-08 0)
(1.264196e-05 -8.106195e-09 0)
(1.291507e-05 7.348318e-09 -1.709211e-28)
(1.195041e-05 9.037235e-09 0)
(1.179696e-05 -5.004273e-09 0)
(1.18583e-05 6.284859e-09 -1.125511e-27)
(1.15227e-05 2.08094e-10 2.096956e-27)
(1.102414e-05 1.015358e-08 1.689496e-27)
(1.11389e-05 -4.446952e-09 -1.695799e-27)
(1.166621e-05 7.215782e-10 0)
(1.146267e-05 1.652249e-09 0)
(1.136924e-05 2.44921e-09 0)
(1.127252e-05 5.419133e-09 0)
(1.194744e-05 -1.176623e-08 0)
(1.202588e-05 1.489422e-08 0)
(1.232111e-05 -3.800644e-09 -3.081084e-31)
(1.249795e-05 4.163147e-08 0)
(1.529114e-05 -1.522337e-07 -5.761565e-27)
(7.656023e-06 8.409815e-07 6.964377e-27)
(3.003237e-05 -1.281902e-06 0)
(1.149781e-06 -1.90367e-05 -1.249021e-24)
(-9.728581e-07 4.952792e-06 -4.876769e-27)
(1.011792e-07 -3.409338e-06 1.049214e-25)
(-6.195649e-08 -1.09187e-06 -1.068734e-25)
(-2.031916e-08 -1.159651e-06 -4.316682e-26)
(-1.457629e-08 -8.731328e-07 8.397087e-26)
(-9.289982e-09 -6.715331e-07 -4.080167e-26)
(-1.024098e-08 -4.014705e-07 0)
(-9.697139e-09 -3.988354e-07 -3.533521e-26)
(-1.79267e-09 -3.918014e-07 3.534095e-26)
(-4.449282e-09 -2.348592e-07 0)
(-2.88453e-09 -2.157208e-07 0)
(-2.416535e-09 -1.875594e-07 -1.5912e-26)
(-1.004883e-09 -1.369339e-07 1.591339e-26)
(-1.661075e-09 -9.298311e-08 0)
(-9.891048e-10 -9.014719e-08 1.510585e-26)
(-6.469352e-10 -7.024517e-08 -2.987611e-26)
(-4.815338e-10 -6.111034e-08 3.655796e-27)
(-8.856941e-11 -4.03917e-08 3.609297e-27)
(-9.211871e-11 -1.110526e-08 -1.875551e-27)
(-3.16068e-10 -8.321701e-09 -9.017547e-27)
(2.240834e-10 2.78284e-09 4.495066e-27)
(-1.963807e-10 1.939291e-08 -2.675431e-27)
(-4.007899e-11 1.272693e-08 1.338674e-27)
(-1.11158e-10 1.221298e-08 4.489204e-28)
(-7.43689e-11 8.057481e-09 -2.675288e-27)
(-1.168815e-10 4.256002e-09 8.906248e-28)
(-8.569633e-11 7.924084e-09 -3.590393e-27)
(-2.47111e-10 6.988966e-09 3.583832e-27)
(-1.257861e-10 1.698864e-08 5.445646e-27)
(-6.676785e-10 1.775e-08 -7.229867e-27)
(-1.761118e-10 2.580332e-08 -7.365544e-27)
(-5.204616e-10 6.990477e-08 7.406832e-27)
(-1.326117e-09 6.596316e-08 0)
(-6.045575e-10 1.136773e-07 0)
(-2.12473e-09 1.410871e-07 -1.588697e-26)
(-2.74569e-09 1.293437e-07 1.588559e-26)
(-3.929722e-09 1.351779e-07 0)
(-3.336933e-09 1.812442e-07 0)
(-5.586756e-09 2.479642e-07 -3.573588e-26)
(-5.182266e-09 3.491712e-07 3.573007e-26)
(-1.180228e-08 3.927567e-07 0)
(-6.468537e-09 6.478271e-07 4.082262e-26)
(-2.068517e-08 7.667466e-07 -4.081219e-26)
(-9.006891e-09 1.186461e-06 0)
(-8.213002e-08 8.977969e-07 -1.081564e-25)
(1.33863e-07 3.529269e-06 1.099726e-25)
(-9.983101e-07 -4.920826e-06 -2.274003e-25)
(1.138502e-06 1.8437e-05 1.461692e-24)
(3.048342e-05 1.29597e-06 7.515183e-25)
(8.05767e-06 -8.354186e-07 6.231873e-27)
(1.519997e-05 1.611379e-07 1.467696e-27)
(1.251233e-05 -5.007572e-08 -5.079522e-27)
(1.231965e-05 1.14443e-08 -1.238139e-30)
(1.165834e-05 -1.580246e-08 0)
(1.170089e-05 5.215153e-09 0)
(1.155919e-05 -8.095861e-09 0)
(1.138442e-05 7.078653e-09 -2.465605e-27)
(1.093425e-05 -9.372894e-09 5.770787e-27)
(1.144385e-05 -1.008479e-09 -3.305213e-27)
(1.116316e-05 -2.054861e-09 0)
(1.144679e-05 -6.944975e-09 0)
(1.167773e-05 4.961579e-09 7.745528e-28)
(1.175835e-05 -6.361749e-09 0)
(1.190752e-05 2.086618e-09 3.138558e-28)
(1.222787e-05 -1.152902e-08 -3.140848e-28)
(1.281939e-05 -9.092633e-10 -1.469352e-28)
(1.32793e-05 -8.259717e-09 2.113152e-27)
(1.340927e-05 7.895283e-09 2.325047e-27)
(1.337295e-05 -3.692174e-09 -6.844537e-27)
(1.424273e-05 -1.268502e-08 3.765171e-27)
(1.795904e-05 -4.783232e-08 -6.648746e-27)
(1.435733e-05 1.579891e-07 2.806752e-26)
(3.496871e-05 -7.099012e-07 1.3723e-25)
(2.601617e-05 -2.500877e-05 0)
(9.524136e-06 -9.710821e-06 3.037963e-24)
(1.181779e-05 -1.17673e-05 -4.801074e-24)
(9.824452e-06 -9.833793e-06 2.967607e-26)
(9.34344e-06 -9.326293e-06 -3.857948e-24)
(8.723949e-06 -8.71847e-06 3.62898e-24)
(8.734689e-06 -8.7369e-06 3.355934e-24)
(8.379698e-06 -8.364944e-06 3.558569e-24)
(7.741779e-06 -7.735362e-06 -3.320472e-24)
(7.966184e-06 -7.976309e-06 3.08509e-24)
(7.701115e-06 -7.683642e-06 -3.602825e-24)
(7.163521e-06 -7.153498e-06 2.704558e-26)
(6.86893e-06 -6.867809e-06 -2.491671e-26)
(7.073667e-06 -7.08159e-06 2.494131e-26)
(7.086319e-06 -7.081321e-06 0)
(6.697917e-06 -6.691097e-06 0)
(6.526793e-06 -6.522958e-06 -3.287572e-24)
(6.543271e-06 -6.545187e-06 5.173072e-29)
(6.419574e-06 -6.422603e-06 -3.385681e-24)
(6.415294e-06 -6.403911e-06 2.623035e-26)
(6.445086e-06 -6.456189e-06 0)
(6.398852e-06 -6.392963e-06 2.721923e-26)
(6.489767e-06 -6.499591e-06 -2.685479e-26)
(6.547617e-06 -6.548409e-06 0)
(6.32918e-06 -6.327256e-06 0)
(6.325124e-06 -6.330064e-06 -1.718521e-27)
(6.280942e-06 -6.286712e-06 0)
(6.300422e-06 -6.302454e-06 -1.597722e-27)
(6.498454e-06 -6.519639e-06 3.936345e-24)
(6.576777e-06 -6.58725e-06 -1.605256e-26)
(6.588412e-06 -6.606407e-06 4.29605e-24)
(6.667078e-06 -6.701966e-06 -1.885853e-26)
(6.723149e-06 -6.745442e-06 1.885917e-26)
(7.477625e-06 -7.637819e-06 0)
(7.226245e-06 -7.376767e-06 6.52685e-24)
(7.08556e-06 7.219935e-06 6.689291e-24)
(7.465815e-06 7.638275e-06 -6.209676e-27)
(6.66432e-06 6.683919e-06 1.904249e-26)
(6.628166e-06 6.663495e-06 -4.689587e-24)
(6.549913e-06 6.567787e-06 4.31706e-24)
(6.536709e-06 6.546858e-06 -4.273587e-24)
(6.469996e-06 6.49051e-06 -1.608979e-26)
(6.283642e-06 6.285853e-06 1.559786e-27)
(6.266721e-06 6.27213e-06 0)
(6.320659e-06 6.32541e-06 0)
(6.335466e-06 6.333256e-06 0)
(6.569328e-06 6.569975e-06 0)
(6.518368e-06 6.528185e-06 0)
(6.438634e-06 6.432257e-06 0)
(6.509423e-06 6.520461e-06 0)
(6.484436e-06 6.473052e-06 0)
(6.514015e-06 6.516489e-06 3.366042e-24)
(6.634871e-06 6.638085e-06 3.271045e-24)
(6.585374e-06 6.581924e-06 0)
(6.739913e-06 6.733676e-06 3.430541e-24)
(7.109921e-06 7.105195e-06 -3.330568e-24)
(7.091235e-06 7.099186e-06 0)
(6.887488e-06 6.886258e-06 2.634805e-26)
(7.186906e-06 7.176783e-06 3.360093e-24)
(7.723767e-06 7.706368e-06 2.601983e-26)
(7.983963e-06 7.99422e-06 -2.571854e-26)
(7.748972e-06 7.742792e-06 -3.32046e-24)
(8.374781e-06 8.360663e-06 5.881071e-27)
(8.669988e-06 8.674164e-06 -6.717273e-24)
(8.643078e-06 8.637756e-06 5.640746e-26)
(9.19714e-06 9.184567e-06 -3.831534e-24)
(9.579432e-06 9.591716e-06 0)
(1.225405e-05 1.216303e-05 0)
(9.461322e-06 9.704395e-06 1.231529e-26)
(2.54267e-05 2.440155e-05 1.243506e-23)
(2.220861e-05 2.102597e-05 -2.371219e-23)
(2.348629e-05 2.376079e-05 0)
(2.132679e-05 2.142945e-05 0)
(2.113887e-05 2.118852e-05 3.046299e-26)
(2.092398e-05 2.094803e-05 -7.555303e-24)
(2.088412e-05 2.088048e-05 1.486235e-23)
(2.06795e-05 2.075508e-05 6.867803e-24)
(2.010703e-05 2.012579e-05 -1.358588e-23)
(2.004055e-05 2.004015e-05 -6.634686e-24)
(2.020967e-05 2.020617e-05 0)
(2.027974e-05 2.023066e-05 0)
(2.099582e-05 2.095861e-05 -4.8118e-26)
(2.085023e-05 2.089442e-05 5.928071e-24)
(2.060121e-05 2.056965e-05 -4.741424e-26)
(2.082016e-05 2.08499e-05 0)
(2.078662e-05 2.072514e-05 5.875001e-24)
(2.083211e-05 2.081789e-05 -5.79591e-24)
(2.123349e-05 2.124373e-05 0)
(2.11157e-05 2.109122e-05 0)
(2.161188e-05 2.153348e-05 -5.99858e-24)
(2.269401e-05 2.262897e-05 -5.724625e-24)
(2.267993e-05 2.272785e-05 -4.281111e-26)
(2.213547e-05 2.212429e-05 8.805583e-26)
(2.310995e-05 2.296527e-05 -5.889827e-24)
(2.471874e-05 2.454868e-05 4.685834e-26)
(2.55226e-05 2.555595e-05 0)
(2.49494e-05 2.485519e-05 5.648754e-24)
(2.690767e-05 2.673273e-05 1.224329e-23)
(2.781501e-05 2.778408e-05 5.757563e-24)
(2.783896e-05 2.771533e-05 0)
(2.961475e-05 2.942864e-05 6.562705e-24)
(3.128653e-05 3.091763e-05 0)
(3.895863e-05 3.863317e-05 0)
(3.363123e-05 3.230293e-05 -7.864812e-24)
(7.860473e-05 7.351776e-05 -2.154254e-23)
(8.021126e-05 -7.535977e-05 1.93856e-23)
(3.392896e-05 -3.229104e-05 5.256275e-26)
(3.774008e-05 -3.753896e-05 5.055332e-27)
(3.202362e-05 -3.171554e-05 -5.72069e-26)
(3.018818e-05 -2.998392e-05 0)
(2.810171e-05 -2.796371e-05 2.144601e-26)
(2.801771e-05 -2.797073e-05 5.765183e-24)
(2.693138e-05 -2.674498e-05 0)
(2.493023e-05 -2.483195e-05 -5.697038e-24)
(2.54689e-05 -2.549963e-05 -8.769894e-26)
(2.464877e-05 -2.447766e-05 -2.079039e-27)
(2.303674e-05 -2.289286e-05 4.639223e-26)
(2.207592e-05 -2.206573e-05 0)
(2.262333e-05 -2.267035e-05 0)
(2.261916e-05 -2.254985e-05 0)
(2.148117e-05 -2.139615e-05 4.58385e-26)
(2.093183e-05 -2.089974e-05 5.658286e-24)
(2.094922e-05 -2.095118e-05 4.430138e-26)
(2.053434e-05 -2.0526e-05 5.694884e-24)
(2.056504e-05 -2.050786e-05 0)
(2.061777e-05 -2.065287e-05 -4.595041e-26)
(2.047399e-05 -2.044904e-05 6.241658e-24)
(2.075911e-05 -2.080592e-05 -9.314907e-26)
(2.092753e-05 -2.089442e-05 9.664436e-26)
(2.025981e-05 -2.021534e-05 -4.891816e-26)
(2.022426e-05 -2.02242e-05 6.356576e-24)
(2.008556e-05 -2.008771e-05 0)
(2.016156e-05 -2.0182e-05 6.73766e-24)
(2.077082e-05 -2.085161e-05 -5.259707e-26)
(2.101129e-05 -2.100866e-05 7.336848e-24)
(2.104691e-05 -2.107111e-05 -7.399453e-24)
(2.126579e-05 -2.131783e-05 8.015318e-24)
(2.150976e-05 -2.161275e-05 8.733343e-24)
(2.354738e-05 -2.381773e-05 -3.365792e-26)
(2.262893e-05 -2.151611e-05 -3.481092e-23)
(9.305567e-05 4.930042e-06 -3.743603e-24)
(3.186887e-05 3.363373e-08 -2.083896e-27)
(4.763611e-05 5.79042e-08 -2.332391e-26)
(4.07798e-05 1.19991e-07 1.645552e-26)
(3.966818e-05 1.277622e-07 -1.381887e-29)
(3.752997e-05 1.610416e-08 0)
(3.754957e-05 3.551296e-08 5.629299e-27)
(3.711923e-05 2.703791e-09 1.368736e-27)
(3.657362e-05 7.488536e-08 -1.549122e-26)
(3.515179e-05 -1.77045e-08 8.471809e-27)
(3.663349e-05 -2.240075e-08 0)
(3.583016e-05 -1.355949e-08 -6.37549e-27)
(3.665478e-05 -5.403542e-08 1.013066e-26)
(3.740334e-05 2.212207e-09 -4.620836e-27)
(3.773316e-05 -3.335676e-08 3.298196e-27)
(3.822847e-05 -1.945695e-08 0)
(3.919738e-05 -1.007163e-07 7.223946e-28)
(4.106431e-05 -7.367718e-08 6.901435e-28)
(4.255488e-05 -7.649039e-08 -5.979334e-27)
(4.305133e-05 6.82251e-09 5.755196e-27)
(4.307293e-05 -1.033283e-07 1.290253e-26)
(4.613912e-05 -3.651997e-07 -1.285505e-26)
(5.701198e-05 -1.483281e-07 0)
(4.896377e-05 -8.943035e-07 6.970181e-26)
(0.0001067268 -3.393402e-06 -3.39749e-25)
(5.854649e-06 -5.844157e-05 2.21058e-24)
(3.154106e-09 8.487389e-06 -2.358775e-25)
(-1.416316e-07 -9.98202e-06 1.752592e-25)
(1.028822e-07 -4.309433e-06 0)
(2.566953e-08 -4.000221e-06 -6.006478e-28)
(3.524867e-08 -3.042216e-06 0)
(3.92841e-08 -2.353993e-06 -1.336924e-25)
(2.48334e-08 -1.483401e-06 1.337669e-25)
(-8.170143e-09 -1.391476e-06 -4.783383e-28)
(1.864479e-08 -1.340163e-06 5.923477e-26)
(1.175657e-08 -8.50727e-07 -5.902962e-26)
(4.70676e-09 -7.627094e-07 0)
(4.861906e-09 -6.603816e-07 0)
(9.122608e-09 -4.908108e-07 0)
(3.004782e-09 -3.473123e-07 0)
(1.796248e-09 -3.2419e-07 -2.599417e-26)
(2.280481e-09 -2.55699e-07 1.597614e-28)
(2.267968e-09 -2.209946e-07 6.294575e-27)
(4.314835e-09 -1.499708e-07 1.874119e-26)
(3.033656e-09 -5.675433e-08 -9.400473e-27)
(5.171229e-10 -4.087706e-08 9.26631e-27)
(3.113815e-09 -3.134751e-09 -2.008846e-26)
(3.07498e-10 5.14749e-08 7.703341e-27)
(-3.611715e-10 3.715922e-08 -7.660993e-28)
(-5.76914e-10 3.870244e-08 6.259999e-30)
(-5.927153e-10 2.955135e-08 7.63024e-28)
(-1.468048e-10 2.110566e-08 7.677761e-27)
(3.760263e-10 3.630195e-08 3.082531e-27)
(4.652512e-10 3.812316e-08 0)
(1.360818e-09 7.198353e-08 9.334548e-27)
(-5.537398e-11 8.122775e-08 0)
(4.981178e-09 1.118865e-07 0)
(3.09369e-09 2.506368e-07 -2.575749e-26)
(2.59526e-09 2.533722e-07 5.237292e-26)
(7.680045e-09 4.086878e-07 2.729496e-26)
(-4.056718e-10 4.986735e-07 -5.3686e-26)
(-4.195462e-10 4.770362e-07 5.624301e-26)
(2.511993e-09 5.140735e-07 -5.601114e-26)
(1.070573e-08 6.696522e-07 -2.292031e-28)
(1.070717e-08 9.034946e-07 4.702412e-28)
(1.505649e-08 1.236514e-06 0)
(1.58458e-08 1.439446e-06 1.340457e-25)
(4.216628e-08 2.264904e-06 5.978716e-27)
(2.335785e-08 2.728397e-06 -1.409578e-25)
(4.637492e-08 4.035509e-06 0)
(6.253837e-08 3.764766e-06 0)
(-4.697973e-08 1.030927e-05 -3.302963e-27)
(-1.419053e-07 -8.496105e-06 7.497142e-27)
(5.881834e-06 5.663728e-05 2.021499e-24)
(0.0001109525 3.410152e-06 7.298748e-26)
(4.731506e-05 1.117489e-06 -7.522987e-26)
(5.557412e-05 7.93916e-08 3.437277e-26)
(4.539304e-05 2.840254e-07 -4.258039e-27)
(4.533088e-05 3.663721e-08 -1.74024e-26)
(4.305705e-05 1.756355e-07 1.065093e-26)
(4.063962e-05 1.526733e-08 -7.11587e-27)
(4.129393e-05 7.51007e-08 1.220475e-27)
(3.838746e-05 1.044834e-07 1.387867e-28)
(3.77862e-05 -1.201829e-08 8.387547e-28)
(3.79712e-05 3.750886e-08 -3.857941e-27)
(3.692471e-05 4.587696e-08 5.500681e-27)
(3.542859e-05 4.662305e-08 -3.914446e-27)
(3.581249e-05 -5.279402e-08 -4.441304e-27)
(3.737285e-05 -1.300037e-08 4.471422e-27)
(3.675448e-05 1.95226e-08 -7.945128e-27)
(3.642609e-05 1.731038e-08 8.003598e-27)
(3.625923e-05 -3.994549e-08 -5.446578e-27)
(3.834219e-05 -8.972396e-08 5.443415e-27)
(3.866109e-05 4.528048e-09 0)
(3.966865e-05 -8.592386e-08 5.28802e-31)
(4.071458e-05 -1.460118e-07 0)
(4.78848e-05 -6.951084e-10 3.79278e-27)
(3.057187e-05 -1.283162e-09 -2.82403e-26)
(9.171914e-05 -4.947415e-06 0)
(0.0001948543 9.670923e-06 0)
(9.158679e-05 4.162435e-06 3.400759e-27)
(0.0001015358 4.315154e-07 -2.170055e-26)
(8.40218e-05 9.318053e-07 0)
(8.301207e-05 2.074059e-07 -1.317978e-26)
(7.895321e-05 5.617064e-07 5.833832e-27)
(7.453823e-05 1.067183e-07 2.462981e-27)
(7.537668e-05 2.552063e-07 2.914039e-28)
(7.035488e-05 3.449377e-07 -1.647175e-28)
(6.906521e-05 -1.469213e-08 -9.954626e-28)
(6.940338e-05 1.115697e-07 -4.552604e-27)
(6.753864e-05 1.699359e-07 5.820856e-28)
(6.497601e-05 1.23337e-07 -2.203313e-27)
(6.571051e-05 -1.488042e-07 6.865178e-27)
(6.835794e-05 -5.263821e-08 1.082013e-26)
(6.728189e-05 7.20258e-08 -1.088741e-26)
(6.663455e-05 4.820228e-08 0)
(6.657814e-05 -1.595463e-07 -2.753704e-28)
(7.02827e-05 -2.785485e-07 0)
(7.099011e-05 -4.350466e-08 -8.050175e-27)
(7.298526e-05 -3.070238e-07 8.039523e-27)
(7.558501e-05 -5.436615e-07 0)
(8.641151e-05 3.008628e-08 -4.484258e-27)
(6.479597e-05 -1.932053e-06 2.692532e-25)
(0.0001602474 -1.353236e-05 -3.100572e-25)
(1.7037e-05 -0.0001031061 9.520773e-24)
(2.233339e-06 4.148534e-06 4.764025e-25)
(-3.412506e-07 -1.754607e-05 0)
(3.877755e-07 -9.219036e-06 -3.793329e-25)
(1.504465e-07 -7.898681e-06 3.80543e-25)
(1.493394e-07 -6.020727e-06 0)
(1.51475e-07 -4.680512e-06 -2.543416e-27)
(1.026854e-07 -3.071779e-06 -2.42272e-27)
(-3.350692e-09 -2.760684e-06 5.66998e-28)
(6.362537e-08 -2.611333e-06 -1.119987e-27)
(4.903606e-08 -1.732344e-06 -2.691238e-28)
(2.174312e-08 -1.52724e-06 0)
(2.22273e-08 -1.317741e-06 0)
(3.302452e-08 -9.925899e-07 0)
(1.431689e-08 -7.246533e-07 6.25545e-26)
(8.855741e-09 -6.581025e-07 -8.586059e-28)
(9.235903e-09 -5.234286e-07 -3.976066e-28)
(9.542251e-09 -4.505648e-07 -1.494191e-26)
(1.568113e-08 -3.118436e-07 -2.961283e-26)
(1.117077e-08 -1.417798e-07 5.914797e-26)
(3.508151e-09 -1.008515e-07 -2.95138e-26)
(1.054195e-08 -2.778602e-08 1.461821e-26)
(2.444213e-09 7.521502e-08 -1.463643e-26)
(-5.497591e-10 6.127464e-08 1.822645e-27)
(-1.169358e-09 7.005269e-08 1.805925e-27)
(-1.402735e-09 6.082379e-08 -1.093075e-26)
(3.037699e-10 5.203223e-08 -7.228283e-30)
(2.001355e-09 8.636598e-08 -3.657926e-27)
(2.651995e-09 9.818396e-08 0)
(5.347076e-09 1.638661e-07 -7.385008e-27)
(2.112011e-09 1.92814e-07 -1.48204e-26)
(1.754948e-08 2.570385e-07 -2.995758e-26)
(1.23728e-08 5.081395e-07 1.82586e-25)
(1.2731e-08 5.393338e-07 1.049231e-27)
(2.674242e-08 8.291265e-07 -6.26496e-26)
(3.226776e-09 9.988972e-07 -1.00166e-27)
(3.558621e-09 9.878332e-07 -1.283091e-27)
(1.595042e-08 1.087907e-06 0)
(4.194012e-08 1.387658e-06 1.42402e-25)
(4.782474e-08 1.85251e-06 -1.415268e-25)
(6.121275e-08 2.482774e-06 1.513203e-25)
(8.028286e-08 2.9633e-06 -1.512171e-25)
(1.522072e-07 4.499279e-06 6.424882e-28)
(1.236757e-07 5.486596e-06 -1.985047e-27)
(1.92566e-07 7.885469e-06 0)
(3.052981e-07 8.344295e-06 0)
(-1.254419e-07 1.803623e-05 -4.220306e-25)
(1.839971e-06 -4.315499e-06 1.26559e-24)
(1.712002e-05 0.0001000545 -5.965288e-24)
(0.0001624738 1.344384e-05 3.138417e-25)
(6.718098e-05 2.034067e-06 0)
(8.601072e-05 1.400256e-07 2.354742e-26)
(7.574556e-05 4.802232e-07 -1.833237e-26)
(7.300104e-05 4.353345e-07 -1.170415e-28)
(6.898784e-05 1.182088e-07 1.072242e-26)
(6.882188e-05 1.059037e-07 -1.07877e-26)
(6.806257e-05 3.689036e-08 -8.276353e-27)
(6.708684e-05 2.31914e-07 1.817414e-26)
(6.44974e-05 -3.054446e-08 3.328959e-27)
(6.695919e-05 -6.991882e-08 -1.337716e-26)
(6.563461e-05 -5.570111e-08 1.956199e-26)
(6.700062e-05 -1.651045e-07 -1.197175e-26)
(6.837722e-05 -2.213098e-08 0)
(6.910411e-05 -1.007233e-07 -4.423686e-27)
(7.003737e-05 -8.771462e-08 4.432112e-27)
(7.170122e-05 -3.198399e-07 1.122091e-28)
(7.507497e-05 -2.717754e-07 -5.720508e-27)
(7.784074e-05 -2.591829e-07 2.683818e-27)
(7.889042e-05 -2.341442e-08 9.878485e-27)
(7.915404e-05 -3.938239e-07 -1.236559e-26)
(8.547833e-05 -1.233536e-06 0)
(0.0001037838 -5.552376e-07 4.919972e-26)
(9.418677e-05 -3.507504e-06 0)
(0.0001876381 -9.664181e-06 -1.130336e-24)
(0.0001435518 -0.0001295841 -4.438576e-23)
(6.715662e-05 -6.109893e-05 -2.28884e-25)
(6.911619e-05 -6.828533e-05 0)
(5.948321e-05 -5.831256e-05 0)
(5.562115e-05 -5.49454e-05 -7.805693e-24)
(5.166166e-05 -5.115117e-05 -1.451187e-23)
(5.129643e-05 -5.109897e-05 -7.117691e-24)
(4.940658e-05 -4.878801e-05 1.115283e-25)
(4.580048e-05 -4.545134e-05 6.813209e-24)
(4.647541e-05 -4.652533e-05 0)
(4.50423e-05 -4.448308e-05 0)
(4.226783e-05 -4.178588e-05 0)
(4.047211e-05 -4.043559e-05 0)
(4.129683e-05 -4.140862e-05 1.028831e-25)
(4.120732e-05 -4.097903e-05 6.760636e-24)
(3.931022e-05 -3.903862e-05 0)
(3.830937e-05 -3.819619e-05 0)
(3.827308e-05 -3.826975e-05 0)
(3.747817e-05 -3.744367e-05 0)
(3.763785e-05 -3.746031e-05 -1.056337e-25)
(3.762647e-05 -3.77159e-05 2.164408e-25)
(3.738993e-05 -3.732608e-05 -7.403043e-24)
(3.78907e-05 -3.801929e-05 -6.846937e-24)
(3.817695e-05 -3.807011e-05 0)
(3.701618e-05 -3.686111e-05 7.360015e-24)
(3.68982e-05 -3.689417e-05 -1.193713e-25)
(3.665333e-05 -3.665789e-05 -7.840314e-24)
(3.681874e-05 -3.689703e-05 5.994637e-26)
(3.786774e-05 -3.810558e-05 8.134957e-24)
(3.829988e-05 -3.828769e-05 -1.740824e-23)
(3.834544e-05 -3.840356e-05 7.113168e-26)
(3.865101e-05 -3.880584e-05 -9.493277e-24)
(3.918602e-05 -3.949181e-05 -6.038757e-26)
(4.193805e-05 -4.236861e-05 3.996562e-26)
(3.975393e-05 -3.565655e-05 2.815582e-23)
(3.905487e-05 3.476044e-05 1.439262e-23)
(4.17761e-05 4.219182e-05 1.067234e-23)
(3.886214e-05 3.916835e-05 -1.031345e-23)
(3.841474e-05 3.856101e-05 -1.508707e-25)
(3.812155e-05 3.817854e-05 8.913844e-24)
(3.80699e-05 3.805432e-05 -8.712284e-24)
(3.770123e-05 3.79228e-05 -8.209342e-24)
(3.67177e-05 3.67889e-05 8.021275e-24)
(3.657238e-05 3.656857e-05 7.930063e-24)
(3.687118e-05 3.68554e-05 7.65682e-24)
(3.705247e-05 3.688169e-05 -7.459276e-24)
(3.829981e-05 3.817868e-05 1.142862e-25)
(3.805633e-05 3.817523e-05 -1.407303e-23)
(3.762226e-05 3.753659e-05 1.125228e-25)
(3.798989e-05 3.806048e-05 -6.78871e-24)
(3.804307e-05 3.784919e-05 -1.289896e-25)
(3.801466e-05 3.796225e-05 2.126884e-27)
(3.877526e-05 3.879749e-05 1.056252e-25)
(3.863766e-05 3.855096e-05 0)
(3.954124e-05 3.929196e-05 -6.931984e-24)
(4.134193e-05 4.112828e-05 6.639214e-24)
(4.140037e-05 4.151551e-05 1.025238e-25)
(4.058092e-05 4.054149e-05 -1.072367e-25)
(4.239867e-05 4.191443e-05 1.383994e-23)
(4.516564e-05 4.461001e-05 -1.05856e-25)
(4.656774e-05 4.662685e-05 -6.158678e-24)
(4.582835e-05 4.549348e-05 -6.867678e-24)
(4.934968e-05 4.876988e-05 -7.11342e-24)
(5.093141e-05 5.07862e-05 1.105509e-25)
(5.116903e-05 5.071616e-05 -7.459727e-24)
(5.458782e-05 5.393476e-05 7.879774e-24)
(5.834501e-05 5.699113e-05 -7.8554e-24)
(7.108449e-05 6.994953e-05 -1.465066e-25)
(6.643222e-05 6.122898e-05 9.505496e-24)
(0.0001410577 0.0001263935 -2.276533e-23)
(5.786803e-05 4.75581e-05 1.720118e-23)
(6.244806e-05 6.277057e-05 -1.263348e-23)
(5.968163e-05 6.02963e-05 1.227967e-23)
(5.894455e-05 5.929419e-05 1.137112e-23)
(5.867028e-05 5.879274e-05 -1.041386e-23)
(5.86511e-05 5.861363e-05 0)
(5.80893e-05 5.858452e-05 0)
(5.666861e-05 5.685541e-05 -9.487215e-24)
(5.641455e-05 5.641111e-05 -1.448363e-25)
(5.685435e-05 5.681752e-05 -8.892937e-24)
(5.722897e-05 5.68183e-05 1.758198e-23)
(5.907065e-05 5.878215e-05 -1.350537e-25)
(5.871797e-05 5.896681e-05 1.157343e-25)
(5.807947e-05 5.789647e-05 0)
(5.859141e-05 5.872313e-05 -1.407728e-25)
(5.888249e-05 5.84295e-05 -1.623717e-23)
(5.863913e-05 5.851434e-05 0)
(5.986468e-05 5.989681e-05 7.911477e-24)
(5.977893e-05 5.956273e-05 1.263289e-25)
(6.116872e-05 6.06049e-05 8.190759e-24)
(6.365336e-05 6.314812e-05 0)
(6.390634e-05 6.410238e-05 -7.193058e-24)
(6.291356e-05 6.280818e-05 -1.198462e-25)
(6.578679e-05 6.464845e-05 -8.093581e-24)
(6.978832e-05 6.848232e-05 -1.246386e-25)
(7.185335e-05 7.191069e-05 1.314444e-25)
(7.120643e-05 7.036879e-05 1.27593e-25)
(7.658571e-05 7.521254e-05 -8.566229e-24)
(7.889809e-05 7.84896e-05 0)
(7.959241e-05 7.843808e-05 5.191974e-26)
(8.519105e-05 8.35745e-05 -9.176711e-24)
(9.221185e-05 8.884582e-05 -8.994448e-26)
(0.0001100176 0.0001069468 -1.204076e-23)
(0.0001104275 9.767434e-05 -5.366416e-24)
(0.0002140473 0.0001823813 2.670498e-23)
(0.0002172678 -0.0001871306 2.57797e-23)
(0.0001118135 -9.726186e-05 -2.546161e-25)
(0.0001074243 -0.0001049374 1.590728e-25)
(9.341365e-05 -9.047058e-05 -1.506398e-26)
(8.660385e-05 -8.497595e-05 -9.25196e-26)
(8.037416e-05 -7.908051e-05 1.861064e-25)
(7.945328e-05 -7.892169e-05 -8.239173e-24)
(7.669545e-05 -7.5231e-05 -1.297022e-25)
(7.117613e-05 -7.030352e-05 2.49157e-25)
(7.172094e-05 -7.175582e-05 -2.445872e-25)
(6.96057e-05 -6.829095e-05 -5.30321e-27)
(6.558985e-05 -6.445621e-05 8.212713e-24)
(6.274594e-05 -6.264658e-05 1.202097e-25)
(6.374693e-05 -6.393432e-05 -2.416842e-25)
(6.345024e-05 -6.290986e-05 -7.986639e-24)
(6.082652e-05 -6.020926e-05 8.204995e-24)
(5.928652e-05 -5.900651e-05 8.072517e-24)
(5.911852e-05 -5.909256e-05 -1.243496e-25)
(5.782231e-05 -5.773767e-05 1.254076e-25)
(5.825595e-05 -5.784434e-05 7.997499e-24)
(5.804066e-05 -5.821844e-05 -2.339333e-27)
(5.772116e-05 -5.758923e-05 -1.797358e-27)
(5.846372e-05 -5.873677e-05 8.21134e-24)
(5.888366e-05 -5.863004e-05 -1.375353e-25)
(5.717304e-05 -5.680011e-05 -8.682718e-24)
(5.689672e-05 -5.688788e-05 1.370444e-25)
(5.653748e-05 -5.6554e-05 9.098803e-24)
(5.682658e-05 -5.70322e-05 -3.112832e-27)
(5.834554e-05 -5.887813e-05 -9.373322e-24)
(5.900265e-05 -5.897317e-05 1.043206e-23)
(5.901493e-05 -5.914171e-05 -1.601009e-25)
(5.931593e-05 -5.968598e-05 -1.126578e-23)
(6.016966e-05 -6.078774e-05 -1.205676e-23)
(6.276842e-05 -6.315324e-05 -1.276573e-23)
(5.883252e-05 -4.894168e-05 1.67669e-23)
(0.000238471 2.805296e-05 3.139092e-24)
(0.0001165797 6.450631e-06 1.519917e-25)
(0.0001321505 7.130796e-07 -3.976264e-26)
(0.0001190574 1.167441e-06 4.006745e-26)
(0.0001138101 1.085033e-06 -8.100719e-29)
(0.0001073201 3.680238e-07 0)
(0.0001067284 2.477799e-07 0)
(0.0001055899 1.161504e-07 1.420891e-27)
(0.0001041246 5.28123e-07 7.883123e-28)
(0.0001000975 -3.098115e-08 -1.571841e-26)
(0.0001035115 -1.554609e-07 1.522848e-26)
(0.000101679 -1.465598e-07 -1.422827e-26)
(0.0001035634 -3.730077e-07 8.947426e-27)
(0.0001056968 -9.232566e-08 -1.639396e-26)
(0.0001070368 -2.351015e-07 0)
(0.0001085241 -2.345436e-07 -2.481603e-27)
(0.0001108946 -7.405953e-07 1.988449e-27)
(0.0001160607 -6.788011e-07 -6.441723e-27)
(0.0001204261 -6.370741e-07 -6.741342e-27)
(0.0001222913 -1.265482e-07 2.749196e-26)
(0.00012305 -1.044327e-06 -4.960422e-26)
(0.0001340286 -2.891876e-06 8.185054e-26)
(0.000159929 -1.645964e-06 -1.0497e-25)
(0.0001526271 -8.578607e-06 -2.196836e-27)
(0.000278131 -2.075194e-05 1.337996e-24)
(3.673698e-05 -0.0001530067 -1.054206e-23)
(7.352274e-06 -1.059438e-05 -1.422254e-24)
(-1.525268e-07 -2.742629e-05 -1.376362e-25)
(9.194587e-07 -1.652483e-05 4.494702e-25)
(4.50837e-07 -1.337584e-05 -8.672055e-25)
(3.933878e-07 -1.016221e-05 4.173899e-25)
(3.810463e-07 -7.929342e-06 3.718179e-25)
(2.667558e-07 -5.399408e-06 -3.72385e-25)
(2.332142e-08 -4.676099e-06 0)
(1.520089e-07 -4.340123e-06 1.320976e-27)
(1.257974e-07 -2.994047e-06 0)
(5.941851e-08 -2.604992e-06 0)
(5.967248e-08 -2.240519e-06 1.533497e-25)
(8.155108e-08 -1.707139e-06 -1.53423e-25)
(3.929584e-08 -1.281694e-06 0)
(2.525387e-08 -1.137251e-06 -7.287935e-26)
(2.403787e-08 -9.105078e-07 9.221586e-28)
(2.552535e-08 -7.819173e-07 7.106762e-26)
(3.915086e-08 -5.504995e-07 -3.511614e-26)
(2.834119e-08 -2.868754e-07 0)
(1.111117e-08 -2.034775e-07 3.46423e-26)
(2.57241e-08 -8.301695e-08 -3.470437e-26)
(8.196015e-09 8.312138e-08 -1.720634e-26)
(3.823478e-10 8.262539e-08 1.291708e-26)
(-1.227463e-09 1.071699e-07 -4.432722e-27)
(-1.929248e-09 1.063052e-07 -1.507085e-26)
(2.280303e-09 1.044076e-07 2.151163e-26)
(6.324079e-09 1.698769e-07 0)
(8.035823e-09 2.029639e-07 -5.21587e-26)
(1.437988e-08 3.12128e-07 3.473946e-26)
(8.366276e-09 3.780347e-07 1.75059e-26)
(4.297102e-08 4.908368e-07 1.065259e-25)
(3.235184e-08 8.781095e-07 -2.147127e-25)
(3.564764e-08 9.704965e-07 -7.400666e-26)
(6.455584e-08 1.43172e-06 7.630202e-26)
(1.307771e-08 1.705922e-06 -1.183526e-27)
(1.500971e-08 1.73909e-06 -1.213529e-27)
(4.613959e-08 1.950247e-06 -1.61722e-25)
(1.066254e-07 2.442327e-06 -1.082963e-27)
(1.263449e-07 3.230365e-06 1.664362e-25)
(1.601039e-07 4.252337e-06 0)
(2.209951e-07 5.183423e-06 0)
(3.760114e-07 7.626149e-06 0)
(3.439524e-07 9.392004e-06 3.114503e-27)
(5.28231e-07 1.323884e-05 0)
(7.739296e-07 1.535793e-05 -3.587306e-27)
(2.434826e-07 2.798773e-05 5.169451e-25)
(6.527383e-06 1.015255e-05 -1.443537e-24)
(3.693475e-05 0.0001487407 1.080714e-23)
(0.0002883631 2.069583e-05 0)
(0.0001492353 1.000158e-05 -4.008188e-27)
(0.0001568022 1.455846e-06 2.394822e-26)
(0.0001313602 2.179526e-06 0)
(0.0001286116 6.215922e-07 -1.334115e-26)
(0.0001224742 1.31286e-06 8.745895e-27)
(0.0001156218 3.344299e-07 5.764125e-27)
(0.0001163535 6.193302e-07 -7.394187e-27)
(0.0001090418 8.1612e-07 0)
(0.0001067154 1.372434e-09 0)
(0.0001072801 2.509856e-07 -1.069585e-26)
(0.0001044724 4.149796e-07 1.066228e-26)
(0.0001007972 2.500898e-07 0)
(0.0001019895 -3.118538e-07 -2.087406e-26)
(0.0001057558 -1.280554e-07 0)
(0.0001041733 1.813999e-07 -2.213535e-26)
(0.0001030849 9.449465e-08 2.211834e-26)
(0.0001034216 -4.146749e-07 1.631222e-27)
(0.0001090223 -6.441852e-07 -1.544758e-26)
(0.0001103297 -1.802277e-07 3.453294e-26)
(0.0001137355 -7.907598e-07 -1.90715e-26)
(0.0001187255 -1.292591e-06 0)
(0.0001327248 -3.265427e-07 1.724121e-26)
(0.0001128671 -6.221475e-06 -3.861077e-25)
(0.00023539 -2.828565e-05 5.802566e-24)
(0.0003916526 3.774925e-05 -1.186443e-24)
(0.0002232174 1.966344e-05 9.365904e-26)
(0.0002235232 3.820273e-06 -1.02288e-25)
(0.0001894181 4.299736e-06 -8.774008e-26)
(0.0001839198 1.401623e-06 4.666076e-26)
(0.0001753434 2.65813e-06 0)
(0.0001654611 7.938012e-07 0)
(0.0001656869 1.237847e-06 -3.632591e-27)
(0.0001559045 1.672992e-06 4.49967e-27)
(0.0001520282 7.702753e-08 -1.797875e-26)
(0.0001529893 4.774048e-07 1.254049e-26)
(0.0001490861 7.888186e-07 0)
(0.000144289 4.588172e-07 -2.509867e-26)
(0.0001460819 -5.929784e-07 5.362937e-26)
(0.0001509708 -2.096124e-07 -2.937248e-26)
(0.0001488199 3.911099e-07 0)
(0.0001471022 1.415675e-07 0)
(0.0001482706 -9.17487e-07 -1.530282e-27)
(0.0001561459 -1.320523e-06 -1.7839e-27)
(0.0001583477 -4.674769e-07 2.272385e-26)
(0.0001638143 -1.776629e-06 -2.073069e-26)
(0.0001722111 -2.537077e-06 -7.230564e-26)
(0.0001893803 -1.773507e-06 3.844762e-26)
(0.000177271 -1.435733e-05 7.134279e-25)
(0.0003166403 -5.052554e-05 -1.464433e-24)
(6.719584e-05 -0.0002077133 -1.143362e-23)
(1.745277e-05 -3.83856e-05 0)
(1.360101e-06 -4.183434e-05 4.784188e-25)
(1.916295e-06 -2.732729e-05 1.057034e-24)
(1.105177e-06 -2.124078e-05 -1.060819e-24)
(8.790192e-07 -1.599843e-05 4.460473e-25)
(8.046405e-07 -1.25107e-05 -4.687196e-25)
(5.928043e-07 -8.809675e-06 4.157489e-25)
(1.062204e-07 -7.391281e-06 -4.037148e-25)
(3.175785e-07 -6.726566e-06 0)
(2.699265e-07 -4.800544e-06 0)
(1.366473e-07 -4.136362e-06 0)
(1.326035e-07 -3.548128e-06 -5.664285e-27)
(1.711992e-07 -2.728714e-06 0)
(8.879063e-08 -2.101238e-06 -5.45761e-27)
(5.975167e-08 -1.828353e-06 -1.70857e-25)
(5.288749e-08 -1.470931e-06 5.056659e-25)
(5.671049e-08 -1.2627e-06 0)
(8.229912e-08 -9.018028e-07 -4.086778e-26)
(6.079805e-08 -5.224233e-07 1.23312e-25)
(2.67896e-08 -3.715282e-07 0)
(5.387074e-08 -1.868841e-07 -2.032621e-26)
(2.100714e-08 6.390129e-08 0)
(4.766676e-09 9.727638e-08 1.513061e-26)
(8.880871e-10 1.511958e-07 -9.929491e-27)
(-6.975477e-10 1.724689e-07 5.045038e-27)
(8.051899e-09 1.889618e-07 -3.040009e-26)
(1.638401e-08 3.044738e-07 4.045268e-26)
(1.994011e-08 3.759032e-07 1.020503e-25)
(3.255866e-08 5.458067e-07 -1.636682e-25)
(2.266689e-08 6.74865e-07 -8.638498e-28)
(8.935095e-08 8.563564e-07 8.248858e-26)
(7.090561e-08 1.413515e-06 -1.690999e-25)
(8.24163e-08 1.61512e-06 1.706788e-25)
(1.342439e-07 2.300403e-06 1.737285e-25)
(3.52139e-08 2.714865e-06 -1.735915e-25)
(4.474213e-08 2.845626e-06 2.841854e-27)
(1.088076e-07 3.239322e-06 0)
(2.311915e-07 3.990899e-06 3.846057e-25)