/*--------------------------------*- C++ -*----------------------------------*\
| =========                 |                                                 |
| \\      /  F ield         | OpenFOAM: The Open Source CFD Toolbox           |
|  \\    /   O peration     | Version:  2406                                  |
|   \\  /    A nd           | Website:  www.openfoam.com                      |
|    \\/     M anipulation  |                                                 |
\*---------------------------------------------------------------------------*/
FoamFile
{
    version     2.0;
    format      ascii;
    arch        "LSB;label=32;scalar=64";
    class       volVectorField;
    location    "1.54";
    object      U;
}
// * * * * * * * * * * * * * * * * * * * * * * * * * * * * * * * * * * * * * //

dimensions      [0 1 -1 0 0 0 0];

internalField   nonuniform List<vector> 
15536
(
(0.1042825 -4.554936 -3.035551e-22)
(0.2008587 -3.449817 -4.501367e-19)
(0.2328126 -2.360086 -6.920841e-19)
(0.2553108 -1.606031 -4.942634e-19)
(0.297518 -1.662159 -5.512721e-21)
(0.1669972 -1.008331 2.282166e-21)
(-0.06000873 -0.06183365 2.050514e-21)
(-0.2915179 0.7562186 -2.024013e-21)
(-0.5978917 1.667925 2.41802e-19)
(-0.5530725 1.442986 5.820545e-22)
(0.07460672 -0.02370931 0)
(0.6759831 -1.271755 0)
(1.031265 -1.869069 -5.968717e-21)
(1.261666 -2.081891 1.332597e-18)
(1.479962 -2.197289 2.30465e-19)
(1.608223 -2.208797 4.901709e-19)
(1.357072 -1.768201 -6.286065e-19)
(1.112668 -1.358908 -4.7915e-21)
(1.186997 -1.284229 7.485254e-21)
(1.117577 -1.102746 -2.671522e-21)
(-0.3734244 0.2416304 0)
(-2.628058 2.138757 1.932133e-18)
(-4.549035 3.588581 0)
(-5.601091 4.210839 5.535208e-18)
(-4.627865 3.410316 -3.909328e-20)
(-1.629538 1.321669 5.792901e-21)
(3.107212 -1.55414 -5.820554e-21)
(4.097863 -2.192185 3.14401e-18)
(0.5907578 -0.4230824 9.268091e-19)
(-2.029874 0.7253217 0)
(-3.333618 1.158101 -1.24692e-20)
(-5.372716 1.658463 -1.975961e-18)
(-8.330482 2.267363 4.168817e-18)
(-11.38767 2.946801 0)
(-7.697472 2.08802 -7.255141e-18)
(0.845107 0.08111733 -1.639091e-20)
(2.678792 -0.5969935 2.041957e-18)
(-2.953392 -0.1216877 -1.358624e-18)
(1.610595 0.05756263 1.283184e-21)
(7.463451 0.4194626 -3.127119e-19)
(10.70625 0.9593784 1.286334e-18)
(12.44239 1.56512 -2.112529e-20)
(13.3823 2.21222 2.082919e-20)
(13.92765 2.884597 0)
(14.22616 3.550649 -5.394894e-18)
(14.3436 4.191441 -5.388884e-18)
(14.289 4.795181 0)
(14.11924 5.365002 -1.034179e-17)
(13.85689 5.900153 1.010379e-17)
(13.54938 6.41262 9.763208e-18)
(13.18449 6.885307 3.555197e-20)
(12.75785 7.314087 -8.846666e-18)
(12.27777 7.694037 0)
(11.75379 8.026909 0)
(11.1953 8.309146 7.077501e-18)
(10.60044 8.532442 6.453596e-18)
(9.987427 8.707442 4.230939e-20)
(9.36303 8.832675 4.984155e-18)
(8.714831 8.889884 8.610683e-18)
(8.055524 8.887007 3.568617e-18)
(7.393203 8.827063 2.772713e-18)
(6.741375 8.719364 -1.901129e-20)
(6.097207 8.554424 0)
(5.458336 8.325556 4.896147e-19)
(4.837873 8.049182 0)
(4.233295 7.711575 1.064278e-18)
(3.652871 7.31932 -2.92327e-20)
(3.106589 6.882756 -2.656857e-21)
(2.593963 6.399443 1.119839e-20)
(2.119464 5.873856 -3.85822e-18)
(1.688797 5.314244 -1.847368e-20)
(1.302668 4.717994 2.537887e-18)
(0.9627308 4.086701 2.78205e-18)
(0.6743186 3.435387 0)
(0.4371387 2.76955 0)
(0.2545372 2.085553 3.344373e-18)
(0.1236084 1.393106 -2.119749e-22)
(0.04752589 0.716833 9.033468e-19)
(0.02627603 0.03411688 1.663055e-21)
(0.05823914 -0.7331711 -6.880459e-21)
(0.1377323 -1.523148 -1.700456e-18)
(0.2763102 -2.269719 0)
(0.4703967 -2.978072 3.040287e-18)
(0.7166546 -3.657087 0)
(1.013808 -4.307911 -2.540781e-18)
(1.359773 -4.929501 2.228508e-18)
(1.753901 -5.520897 1.637194e-20)
(2.192962 -6.080624 3.223522e-18)
(2.67399 -6.59944 8.365005e-21)
(3.192809 -7.075155 -1.793903e-18)
(3.746688 -7.509057 -1.007421e-18)
(4.333055 -7.895072 4.470936e-21)
(4.950255 -8.235815 6.533803e-19)
(5.589412 -8.526405 -1.506e-18)
(6.244427 -8.762634 2.173818e-20)
(6.904905 -8.931134 6.76878e-21)
(7.576317 -9.046633 -4.052791e-18)
(8.254332 -9.109258 0)
(8.93034 -9.110999 1.136005e-17)
(9.607064 -9.062885 6.434908e-18)
(10.26463 -8.950645 1.101634e-19)
(10.89933 -8.776668 -8.131422e-18)
(11.50732 -8.544221 0)
(12.0876 -8.257559 0)
(12.63949 -7.924592 0)
(13.15409 -7.543384 0)
(13.62138 -7.115185 1.144676e-17)
(14.03822 -6.643864 1.208449e-17)
(14.40514 -6.134208 2.552541e-20)
(14.71614 -5.59324 -1.299737e-17)
(14.95564 -5.019124 -6.642701e-18)
(15.10786 -4.41531 -6.871835e-18)
(15.11981 -3.777629 5.382265e-20)
(14.96003 -3.111098 7.039337e-18)
(14.59024 -2.425967 3.632179e-18)
(13.90562 -1.741195 -2.812619e-20)
(12.58761 -1.110245 -6.868427e-21)
(9.961841 -0.5321689 4.562764e-19)
(4.948958 -0.07751339 -9.291171e-19)
(-0.6100515 0.1600024 -2.329367e-20)
(1.958738 0.4673918 1.566289e-20)
(1.064373 0.02582015 3.743735e-18)
(-5.741716 -1.600415 3.204167e-20)
(-9.552487 -2.525647 0)
(-7.440552 -2.056948 -7.63959e-18)
(-4.968248 -1.550511 -5.881979e-18)
(-3.24754 -1.171423 1.995264e-21)
(-2.564354 -1.029927 9.655566e-18)
(-1.599161 -0.6083733 -8.507657e-18)
(1.297229 0.8371784 0)
(4.883698 2.822854 0)
(3.036451 1.611813 -5.171319e-18)
(-1.760787 -1.489074 0)
(-3.823871 -3.046524 1.001383e-19)
(-4.857816 -4.007531 -1.350949e-17)
(-4.919514 -4.339824 -1.302498e-17)
(-4.258167 -3.99564 7.420295e-20)
(-2.837513 -2.785258 -1.665273e-17)
(-1.269549 -1.281874 -1.066894e-19)
(-0.2989386 -0.2673223 1.133005e-17)
(0.3203916 0.4865542 5.063061e-18)
(1.045637 1.550059 4.775776e-18)
(1.950402 3.073101 4.880385e-18)
(2.926288 4.779829 0)
(2.684469 4.502806 -3.084018e-20)
(1.419319 2.616739 -6.799345e-18)
(0.7699693 1.721177 0)
(0.02698292 -0.2297948 7.381225e-18)
(-1.014052 -3.559279 -6.270723e-20)
(-1.537858 -5.789726 3.198922e-20)
(-1.633247 -6.920181 4.425374e-18)
(-1.484287 -7.368754 8.948563e-21)
(-1.211334 -7.436625 0)
(-0.9083185 -7.31033 1.98409e-18)
(-0.6002064 -6.994003 1.496346e-20)
(-0.3112226 -6.419308 2.884437e-21)
(-0.06933018 -5.576496 -3.426199e-21)
(-0.05514908 -4.737196 -2.31891e-19)
(0.07106666 -3.616052 3.689776e-19)
(0.1150403 -2.465428 0)
(0.107137 -1.311623 4.112568e-19)
(0.02526607 -0.4319752 0)
(-0.198298 0.5528071 7.70747e-19)
(-0.3934851 1.180113 1.659789e-21)
(-0.5861311 1.590442 -1.630998e-21)
(-0.9015814 2.457162 -1.970669e-19)
(-0.6833483 1.999229 2.380198e-21)
(0.6314326 -0.8599641 0)
(1.353076 -2.364314 4.994267e-21)
(1.687244 -2.903679 -2.187528e-22)
(1.815283 -2.943164 -5.4211e-19)
(1.71671 -2.626749 -3.776208e-19)
(1.44822 -2.114707 -1.988736e-19)
(1.267704 -1.721492 5.095527e-19)
(1.566519 -1.886022 4.344355e-21)
(1.942942 -2.154688 0)
(1.217176 -1.442245 0)
(-0.9700274 0.3906504 0)
(-3.246225 2.305339 1.533761e-18)
(-5.160883 3.784499 2.996638e-20)
(-6.121301 4.428445 -3.059933e-20)
(-5.826001 4.24462 1.694264e-20)
(-3.684451 2.913451 -1.693882e-20)
(2.743234 -0.9934173 0)
(5.002108 -2.863791 0)
(1.759877 -1.25996 -1.431389e-18)
(0.2174638 -0.3500619 1.033288e-20)
(-0.3524166 -0.09723022 -1.04344e-20)
(-1.97916 0.2141586 1.709323e-18)
(-4.766908 0.7628954 3.549381e-18)
(-6.893516 1.539878 -4.862068e-20)
(-8.73742 2.419844 -5.609954e-18)
(-2.278944 0.9745693 1.746164e-18)
(4.216737 -0.4824259 7.478269e-22)
(8.32792 -0.2855446 9.184908e-19)
(12.27994 0.2532725 0)
(16.54655 0.595906 2.15564e-19)
(17.68922 0.9706963 1.861895e-18)
(18.01261 1.490358 1.998668e-18)
(18.05173 2.11077 2.067086e-18)
(17.95482 2.770927 -6.527074e-20)
(17.77361 3.43511 4.309669e-18)
(17.52734 4.096415 -3.294925e-20)
(17.22999 4.750072 0)
(16.88052 5.379315 8.24178e-18)
(16.47943 5.986359 0)
(16.02947 6.561268 -5.871739e-20)
(15.52808 7.092342 5.885389e-20)
(14.97125 7.576197 7.064443e-18)
(14.36663 8.006565 -4.950718e-20)
(13.72144 8.383378 6.15835e-18)
(13.04382 8.70216 -5.694557e-18)
(12.3369 8.960341 0)
(11.61093 9.166339 3.33795e-20)
(10.87303 9.315778 -4.090244e-18)
(10.11912 9.395756 -6.847569e-18)
(9.353824 9.40781 0)
(8.589467 9.362027 -2.227144e-18)
(7.835211 9.260011 -9.936816e-21)
(7.091929 9.094352 9.578328e-19)
(6.360657 8.86401 2.807491e-22)
(5.647804 8.575123 -2.840368e-22)
(4.958255 8.224283 -8.638944e-19)
(4.295356 7.815538 1.47029e-18)
(3.669688 7.353846 0)
(3.082322 6.844491 0)
(2.538224 6.291358 -1.819188e-20)
(2.041738 5.696259 0)
(1.595796 5.060875 0)
(1.202276 4.388896 0)
(0.8660205 3.691506 -2.482585e-18)
(0.5856439 2.979156 1.99022e-20)
(0.3710093 2.245422 1.122164e-20)
(0.212695 1.503337 -5.502354e-21)
(0.117521 0.7741481 -7.419144e-19)
(0.09216709 0.03590905 2.990706e-21)
(0.1369161 -0.7821393 -7.318566e-19)
(0.2295967 -1.624086 1.385866e-18)
(0.3943466 -2.422269 1.053737e-20)
(0.6230649 -3.180304 -2.465686e-18)
(0.9105971 -3.908157 -3.59221e-20)
(1.256579 -4.606853 2.105619e-18)
(1.657257 -5.271052 -1.855299e-18)
(2.113294 -5.901014 0)
(2.617419 -6.496499 -5.267787e-18)
(3.168302 -7.043221 -1.385737e-20)
(3.763117 -7.544169 1.456282e-18)
(4.396145 -8.002531 8.236142e-19)
(5.064993 -8.405216 0)
(5.768209 -8.755078 0)
(6.497255 -9.056124 0)
(7.244101 -9.291712 1.709497e-20)
(8.003855 -9.457848 -1.698134e-20)
(8.776199 -9.565461 3.188649e-18)
(9.555666 -9.613025 5.485706e-21)
(10.3384 -9.596648 -4.598778e-18)
(11.11873 -9.521394 -7.377234e-20)
(11.88624 -9.382364 1.170027e-17)
(12.63274 -9.176619 6.473196e-18)
(13.35389 -8.907197 -5.255758e-20)
(14.05235 -8.580613 7.50243e-18)
(14.72309 -8.202105 6.11835e-20)
(15.3584 -7.766532 -6.928677e-20)
(15.95068 -7.279713 6.899126e-20)
(16.49628 -6.744386 7.581705e-20)
(16.99484 -6.166989 9.95461e-18)
(17.44246 -5.552355 -7.848553e-20)
(17.8241 -4.90192 0)
(18.14827 -4.22393 0)
(18.43888 -3.532991 0)
(18.68013 -2.839627 0)
(18.85112 -2.152863 2.138616e-20)
(18.93319 -1.4758 -2.127375e-20)
(18.85348 -0.8906332 1.307463e-18)
(18.34437 -0.4578479 4.994636e-21)
(15.63227 -0.1108124 0)
(11.24332 0.3217674 -1.379228e-18)
(7.293643 0.6671434 2.78342e-18)
(0.1856429 -0.4242841 -2.853956e-18)
(-6.089896 -1.815789 6.121301e-20)
(-4.966273 -1.21613 -8.934776e-18)
(-3.145977 -0.4298805 5.469183e-20)
(-0.8314183 0.1117693 0)
(0.3227478 0.303199 8.823951e-18)
(0.4263398 0.2924316 -1.649721e-17)
(0.7387904 0.6354333 -6.770747e-18)
(2.389452 1.73046 -1.377621e-20)
(5.695954 3.477623 -5.792829e-20)
(2.660164 0.9626107 2.615752e-20)
(-3.341208 -2.84412 0)
(-4.864419 -3.814917 9.647923e-18)
(-5.492037 -4.380274 1.085772e-17)
(-5.425161 -4.600114 8.169898e-21)
(-4.663975 -4.110819 -8.71112e-18)
(-3.104047 -2.716789 1.331231e-17)
(-1.23993 -0.9868397 5.32946e-18)
(-0.1033959 0.09887803 -1.288157e-21)
(0.4087954 0.7325249 -4.090059e-18)
(0.9774364 1.703933 -3.072972e-20)
(1.70842 3.12599 -3.941875e-18)
(2.490411 4.445103 4.18769e-20)
(3.045607 5.249453 1.043023e-21)
(2.314045 4.191659 -3.834798e-20)
(0.693373 0.9394301 0)
(-1.046019 -3.732339 0)
(-2.066933 -6.74083 -6.137922e-18)
(-2.283626 -7.668207 0)
(-2.15529 -7.941912 -7.15061e-18)
(-1.885546 -8.012074 3.616468e-18)
(-1.567834 -7.954606 -2.637571e-20)
(-1.224206 -7.745479 2.631998e-20)
(-0.8748018 -7.348785 1.49631e-18)
(-0.5469178 -6.698248 -6.685744e-19)
(-0.2659209 -5.796276 -2.72894e-19)
(-0.1494574 -4.694762 1.8629e-19)
(-0.03442677 -3.594789 -2.986296e-19)
(0.02051168 -2.520549 6.129546e-21)
(0.02521816 -1.441684 -3.410337e-19)
(-0.1422715 -0.2746491 0)
(-0.3771326 0.8216747 -6.261651e-19)
(-0.5636722 1.547645 -2.707922e-21)
(-0.7589918 1.923608 1.375949e-19)
(-0.9996721 2.74642 1.628268e-19)
(-0.4533756 1.927584 -1.920128e-21)
(1.115034 -1.364389 2.299578e-19)
(1.505658 -2.484162 -2.758998e-21)
(1.593262 -2.766121 0)
(1.554904 -2.623283 0)
(1.370741 -2.208599 1.544423e-19)
(1.101763 -1.681948 -1.678007e-19)
(0.9789592 -1.318916 -4.372683e-19)
(1.336641 -1.5525 -7.309835e-21)
(1.710321 -1.945069 0)
(0.6697302 -1.174047 -1.095758e-19)
(-1.663974 0.6106117 2.16109e-19)
(-3.732187 2.364011 -1.220643e-18)
(-5.456035 3.790403 0)
(-6.25441 4.576015 3.727118e-18)
(-5.641333 4.377041 0)
(-3.761848 3.480158 -6.931338e-19)
(1.470526 0.2892353 0)
(4.976929 -2.839541 2.172367e-18)
(3.609924 -2.230146 1.123721e-18)
(3.432997 -1.65248 0)
(3.186913 -1.445505 0)
(1.780178 -1.227972 5.503025e-21)
(-0.4844161 -0.6893444 -3.019434e-18)
(-2.439915 0.4482193 5.523475e-18)
(-5.14988 1.981082 9.774513e-18)
(-1.059095 1.289187 -1.31626e-18)
(10.44918 -0.4207422 1.107188e-18)
(15.3644 -0.2315521 -6.621184e-19)
(17.14985 0.4592217 0)
(17.78977 0.8850527 0)
(17.49992 1.314934 -1.536809e-18)
(17.51395 1.938805 -1.673832e-18)
(17.49123 2.620114 -3.375067e-18)
(17.41023 3.308081 3.404682e-18)
(17.2634 3.998278 8.137024e-20)
(17.05329 4.665465 -5.439861e-20)
(16.77796 5.304994 0)
(16.42932 5.907917 0)
(16.02331 6.480972 6.470852e-18)
(15.57207 7.025036 -6.26034e-18)
(15.07176 7.522987 0)
(14.51865 7.973072 0)
(13.92112 8.368405 8.118155e-20)
(13.28473 8.71189 -5.134762e-18)
(12.61889 8.996872 0)
(11.92696 9.220257 -4.123989e-18)
(11.21701 9.393881 -3.685488e-18)
(10.49802 9.511949 -3.185027e-18)
(9.766811 9.55986 2.750412e-18)
(9.024205 9.542421 -3.155843e-20)
(8.28362 9.470335 1.77211e-18)
(7.553842 9.344501 0)
(6.837565 9.155789 -7.809433e-19)
(6.134935 8.904093 -8.251475e-23)
(5.44956 8.597349 7.835627e-21)
(4.792685 8.227752 -7.754385e-19)
(4.159181 7.804768 0)
(3.562298 7.331231 -1.735683e-18)
(3.002135 6.812914 -1.854636e-20)
(2.485727 6.252691 2.613302e-18)
(2.014254 5.653377 1.511414e-18)
(1.591914 5.015704 -1.697314e-18)
(1.219213 4.343538 -1.870538e-18)
(0.9005671 3.6475 2.020584e-18)
(0.6333122 2.938677 -2.160305e-18)
(0.4332472 2.208554 -1.106627e-18)
(0.2808443 1.472057 2.331212e-18)
(0.1880837 0.7500737 1.214087e-18)
(0.1675388 0.02044672 2.456328e-21)
(0.2212036 -0.7808738 6.056357e-19)
(0.3062422 -1.6089 -9.043847e-21)
(0.4613039 -2.395913 0)
(0.6770084 -3.146524 -1.542473e-20)
(0.9470087 -3.87005 -1.310193e-20)
(1.273369 -4.566191 -1.667302e-18)
(1.650588 -5.23004 3.048161e-18)
(2.084568 -5.860555 -1.324928e-18)
(2.561713 -6.460235 2.137672e-18)
(3.083494 -7.013448 1.510748e-20)
(3.651025 -7.52224 0)
(4.254103 -7.992334 7.214152e-19)
(4.892571 -8.408801 -1.503656e-21)
(5.567222 -8.773777 3.454693e-19)
(6.266323 -9.094244 0)
(6.98319 -9.351451 1.462674e-18)
(7.716365 -9.539705 0)
(8.462822 -9.672437 -4.946274e-20)
(9.216336 -9.748105 3.119053e-18)
(9.977112 -9.759676 0)
(10.735 -9.716449 -4.263202e-18)
(11.48224 -9.611291 -4.800031e-18)
(12.21084 -9.440499 -5.306445e-18)
(12.91616 -9.206493 0)
(13.60275 -8.914288 -1.25359e-17)
(14.26361 -8.57162 1.004761e-19)
(14.89182 -8.171005 0)
(15.47967 -7.71972 0)
(16.02359 -7.218808 0)
(16.52412 -6.673683 8.071743e-18)
(16.97353 -6.094678 -8.367537e-18)
(17.36349 -5.478092 0)
(17.68854 -4.82582 0)
(17.9494 -4.146926 4.422865e-18)
(18.1509 -3.443728 3.528653e-20)
(18.28126 -2.726991 0)
(18.34889 -2.010016 0)
(18.36082 -1.31849 -2.179772e-18)
(18.63133 -0.7620446 2.556677e-19)
(18.73106 -0.3016922 0)
(17.62718 0.3075564 9.79908e-19)
(14.45114 0.6788912 4.243993e-20)
(3.988225 -0.4751752 -8.23057e-21)
(-2.866917 -1.350681 -4.372233e-20)
(-0.007547322 -0.008905036 7.826923e-18)
(1.758592 1.122397 5.420582e-18)
(3.701906 1.758847 7.221455e-20)
(4.860828 1.978978 4.984704e-20)
(4.786109 1.999669 6.281111e-18)
(4.258605 2.196614 5.312423e-18)
(4.1712 2.777283 0)
(5.414878 3.274326 2.464539e-18)
(1.378369 -0.4502271 0)
(-3.260437 -3.292197 -1.02727e-19)
(-4.861821 -4.078858 -7.737865e-18)
(-5.661773 -4.659066 1.385762e-19)
(-5.666161 -4.851712 -1.384922e-19)
(-4.971314 -4.206595 7.102237e-18)
(-3.496504 -2.764431 -5.318112e-18)
(-1.66525 -1.135232 -4.265525e-18)
(-0.2703203 0.09693976 -3.785054e-18)
(0.4254613 0.8967621 -3.313832e-18)
(0.8501807 1.719667 0)
(1.268993 2.746244 1.641697e-21)
(1.922511 3.636572 0)
(2.614167 4.317186 -4.754893e-18)
(2.328925 3.664903 4.392581e-18)
(0.06411202 -1.595732 0)
(-1.500941 -5.857376 0)
(-2.001839 -7.129381 9.954465e-18)
(-2.053207 -7.527113 -2.7847e-18)
(-1.937917 -7.893402 5.913866e-18)
(-1.709498 -8.037921 -2.293573e-20)
(-1.417542 -7.982693 2.284183e-20)
(-1.11278 -7.755953 0)
(-0.8158002 -7.340983 -1.221858e-18)
(-0.5516238 -6.673758 1.069859e-18)
(-0.3254312 -5.758684 2.26129e-19)
(-0.2828972 -4.64618 -3.046821e-19)
(-0.1656956 -3.55312 -6.69611e-21)
(-0.1093594 -2.492486 6.842438e-21)
(-0.1149764 -1.447165 -7.139132e-21)
(-0.28024 -0.3417612 7.253558e-21)
(-0.4666339 0.7229748 2.562688e-19)
(-0.6157847 1.469323 -2.227893e-21)
(-0.8268289 1.877101 -1.115163e-19)
(-0.9654876 2.728626 2.851395e-21)
(-0.06622218 1.661718 -5.651812e-21)
(1.389131 -1.335494 1.8416e-20)
(1.339689 -1.988175 0)
(1.295843 -2.192099 0)
(1.227996 -2.108928 -3.781387e-19)
(1.017785 -1.784321 -1.268281e-19)
(0.7747638 -1.338087 2.87988e-19)
(0.630079 -0.8959684 3.675097e-19)
(0.814672 -0.8859093 0)
(1.04759 -1.29784 0)
(-0.06056927 -0.7683665 1.808711e-19)
(-2.199156 0.6664656 -3.66667e-19)
(-3.99152 2.203128 2.498895e-20)
(-5.487691 3.551405 -6.499201e-20)
(-6.128916 4.466998 -6.175809e-18)
(-5.356832 4.450409 -2.458115e-18)
(-3.096035 3.628712 5.540263e-19)
(0.6268368 1.491779 -1.128529e-18)
(5.031283 -2.610759 -1.733449e-18)
(5.590917 -3.067604 -4.813088e-19)
(6.355197 -2.770583 0)
(6.504718 -2.720887 -2.587155e-20)
(5.542804 -2.706104 -2.1348e-18)
(3.92717 -2.304925 3.292553e-21)
(1.939749 -1.058884 6.639955e-20)
(-0.9072363 1.210489 -4.202223e-18)
(3.983456 1.388139 -1.008507e-18)
(15.34476 -0.1315765 -6.37456e-22)
(17.40156 -0.2043501 -5.040579e-19)
(17.46061 0.2868194 -2.628539e-19)
(17.28011 0.6336337 -2.194011e-21)
(17.36064 0.9687294 0)
(17.56118 1.519971 -2.11988e-20)
(17.63402 2.141342 1.417646e-18)
(17.60176 2.795881 -5.623115e-18)
(17.47996 3.475611 4.396981e-20)
(17.28376 4.138606 -2.837325e-18)
(17.00878 4.788552 -8.598165e-20)
(16.66589 5.399506 -5.403329e-18)
(16.26277 5.986658 -1.085357e-20)
(15.81326 6.551053 5.164697e-18)
(15.316 7.066698 -4.853231e-18)
(14.765 7.538052 0)
(14.16881 7.954286 6.550779e-20)
(13.5317 8.321289 -6.589602e-20)
(12.86293 8.631614 0)
(12.16612 8.881316 3.397935e-18)
(11.45018 9.080984 7.012304e-20)
(10.72383 9.225081 2.662706e-18)
(9.985202 9.297844 -2.197764e-18)
(9.236632 9.301717 -1.791967e-18)
(8.48634 9.252429 -1.43234e-18)
(7.747567 9.147818 -9.798735e-19)
(7.022677 8.97857 5.893309e-21)
(6.31014 8.745529 -5.950514e-21)
(5.614257 8.456911 0)
(4.946989 8.103923 6.309401e-19)
(4.302587 7.69644 -1.929314e-20)
(3.695714 7.236583 1.445484e-18)
(3.125933 6.730551 1.781149e-18)
(2.602324 6.180653 -2.125461e-18)
(2.123653 5.590727 -1.240699e-18)
(1.694878 4.961435 -4.188297e-21)
(1.316144 4.296902 1.534724e-18)
(0.9943888 3.606904 2.658201e-20)
(0.7223314 2.904129 1.731354e-18)
(0.5223051 2.177869 1.45715e-20)
(0.3678738 1.444433 -9.742994e-19)
(0.272965 0.7266857 -4.948405e-19)
(0.2565723 0.002009201 -6.10473e-23)
(0.3212448 -0.780848 4.803492e-19)
(0.4019608 -1.594834 7.407309e-21)
(0.5539658 -2.371922 -8.89611e-19)
(0.7706489 -3.114761 1.673972e-18)
(1.042552 -3.830262 0)
(1.371977 -4.51742 -3.202287e-21)
(1.752557 -5.17158 -1.25417e-18)
(2.192657 -5.791677 1.116451e-18)
(2.674401 -6.381287 -1.841766e-18)
(3.205483 -6.921317 1.925315e-20)
(3.78387 -7.416209 -1.90763e-20)
(4.393226 -7.873995 -5.929371e-19)
(5.041551 -8.274624 0)
(5.730332 -8.620965 -2.905904e-19)
(6.437327 -8.925796 2.25917e-20)
(7.163212 -9.164476 -5.953299e-20)
(7.906973 -9.332163 -1.577994e-18)
(8.662301 -9.444592 -2.133036e-18)
(9.423945 -9.498759 -1.533821e-20)
(10.19242 -9.487497 2.950403e-18)
(10.95883 -9.419358 -4.982725e-20)
(11.7121 -9.28991 -3.828242e-18)
(12.44621 -9.093026 0)
(13.158 -8.830519 4.636721e-18)
(13.84827 -8.512338 5.09233e-18)
(14.50946 -8.146558 5.279543e-18)
(15.13708 -7.722395 -5.616276e-18)
(15.72267 -7.249572 6.015532e-18)
(16.26382 -6.727269 0)
(16.76113 -6.161492 -1.321607e-17)
(17.20645 -5.567008 1.381524e-17)
(17.59136 -4.934609 -1.63877e-19)
(17.91115 -4.272908 -3.563298e-18)
(18.16804 -3.582812 -3.628583e-18)
(18.3528 -2.887801 0)
(18.4542 -2.190706 1.872669e-18)
(18.46072 -1.517607 -1.855065e-18)
(18.35312 -0.8987329 9.084347e-19)
(18.22147 -0.4345557 -2.213649e-19)
(18.40509 -0.0651719 -4.162912e-19)
(18.58803 0.4293495 1.240805e-20)
(18.38129 0.5487067 -1.429423e-18)
(10.67056 -0.458486 -2.145998e-20)
(3.264902 -0.4682264 0)
(4.512416 1.55096 0)
(6.666982 2.904156 -1.103366e-19)
(8.120825 3.448106 1.093178e-19)
(8.872265 3.516777 0)
(8.673385 3.514689 0)
(7.65933 3.625804 0)
(6.342617 3.782358 2.873695e-18)
(5.269849 2.866212 -3.942718e-18)
(0.5780995 -1.717591 2.548969e-18)
(-2.635025 -3.360788 -4.551057e-18)
(-4.584886 -4.115694 -1.943057e-19)
(-5.514 -4.576244 7.463995e-18)
(-5.600854 -4.740244 7.358074e-18)
(-4.965523 -3.951074 7.924532e-20)
(-3.646217 -2.52255 -1.946638e-20)
(-2.005288 -1.110633 -6.218077e-20)
(-0.4050386 0.2255046 -4.484849e-20)
(0.4314002 1.082234 2.808305e-18)
(0.6187086 1.54393 0)
(0.6653715 2.074578 2.700645e-18)
(1.102365 2.546476 -3.454289e-18)
(2.059292 3.277741 4.038155e-18)
(1.851381 1.805632 0)
(-0.4378567 -4.087822 0)
(-1.446194 -6.447869 -5.842868e-20)
(-1.857982 -6.872309 -4.130682e-18)
(-2.066133 -7.458602 2.370886e-18)
(-2.031095 -7.865701 -2.43916e-18)
(-1.830643 -8.003444 0)
(-1.542649 -7.94137 0)
(-1.223582 -7.714752 0)
(-0.9177019 -7.295645 -9.839509e-19)
(-0.661756 -6.623529 -4.530594e-19)
(-0.4517954 -5.706762 -3.700381e-19)
(-0.4343742 -4.585511 1.246418e-19)
(-0.308478 -3.506535 0)
(-0.2438127 -2.486409 -3.096641e-19)
(-0.2745631 -1.51431 0)
(-0.4369079 -0.3916763 -3.064931e-19)
(-0.5798993 0.6484923 0)
(-0.6925936 1.425442 0)
(-0.9129244 1.858325 -9.157258e-20)
(-0.87003 2.628519 -1.13686e-19)
(0.3722461 1.377068 5.836314e-21)
(1.48096 -0.9263607 -1.673808e-19)
(1.078121 -1.333714 3.643054e-19)
(0.9779156 -1.582521 0)
(0.93247 -1.661165 6.340911e-19)
(0.7363659 -1.465524 1.050242e-19)
(0.5241767 -1.099729 -1.265162e-19)
(0.339118 -0.6027927 6.770517e-21)
(0.3010939 -0.2624989 9.779113e-21)
(0.3130749 -0.533682 2.653468e-19)
(-0.7357869 -0.3558726 -1.580853e-19)
(-2.539086 0.5345491 1.570422e-19)
(-4.01088 1.813474 4.184852e-20)
(-5.26728 3.088724 1.819891e-18)
(-5.716002 4.160138 2.604491e-18)
(-4.859495 4.43004 2.018138e-18)
(-2.303092 3.656522 0)
(0.460704 2.398187 6.759082e-20)
(5.367241 -2.258504 0)
(7.430976 -3.636932 -4.365355e-19)
(8.843006 -3.615671 3.688407e-19)
(9.354414 -3.79102 9.185281e-19)
(9.004815 -4.024471 -6.92966e-20)
(8.300055 -3.863721 4.078522e-20)
(6.885218 -2.407267 -6.66684e-18)
(5.407089 0.4025874 0)
(10.66057 1.44343 -7.843625e-19)
(17.52751 0.2892475 -6.38433e-19)
(16.82512 -0.08254541 8.340628e-19)
(16.87414 0.3566668 2.104302e-19)
(16.93561 0.8280087 0)
(17.12302 1.294438 5.111309e-19)
(17.27906 1.902789 0)
(17.33144 2.550691 0)
(17.28754 3.205939 2.34634e-18)
(17.16372 3.87219 -3.58909e-20)
(16.96897 4.515584 4.508041e-20)
(16.69826 5.141908 -2.245719e-18)
(16.36128 5.722711 4.537815e-18)
(15.96419 6.279194 -4.335491e-18)
(15.52378 6.813873 -4.175911e-18)
(15.0421 7.289049 2.011217e-19)
(14.50481 7.726394 -1.211694e-19)
(13.92586 8.106971 -1.062231e-19)
(13.30541 8.443725 -3.040735e-18)
(12.65594 8.725339 -3.073892e-18)
(11.97922 8.946637 -7.983999e-20)
(11.28101 9.124349 2.524546e-18)
(10.577 9.246318 0)
(9.862484 9.297088 1.809803e-18)
(9.132268 9.285861 1.475212e-18)
(8.401193 9.223579 1.088494e-18)
(7.683835 9.107534 8.062637e-19)
(6.979489 8.929404 0)
(6.287615 8.687913 0)
(5.608926 8.395833 -2.391095e-19)
(4.961545 8.038634 0)
(4.33138 7.631237 0)
(3.740326 7.172139 1.250793e-18)
(3.187011 6.667442 -2.630146e-20)
(2.673199 6.121991 -1.315985e-20)
(2.202329 5.536393 -3.376405e-20)
(1.781753 4.911373 2.330236e-18)
(1.411637 4.250958 0)
(1.099312 3.564855 0)
(0.8238082 2.870273 1.465467e-18)
(0.6286037 2.147937 7.320078e-19)
(0.4727241 1.41644 7.858059e-19)
(0.375164 0.7024922 -4.051276e-19)
(0.3631937 -0.01935428 0)
(0.44322 -0.7787484 -3.878198e-22)
(0.5201366 -1.578466 2.354731e-20)
(0.6595692 -2.346589 7.05845e-19)
(0.8687921 -3.079858 -1.372426e-18)
(1.135445 -3.785268 -3.83548e-20)
(1.459961 -4.463342 1.16439e-18)
(1.835156 -5.10939 3.41146e-20)
(2.269547 -5.7228 1.802369e-18)
(2.73736 -6.309099 -1.327398e-20)
(3.2548 -6.845692 -1.228079e-18)
(3.82392 -7.338207 3.189828e-20)
(4.418354 -7.797179 0)
(5.045885 -8.200953 1.847989e-19)
(5.720342 -8.550023 0)
(6.412762 -8.860186 0)
(7.116119 -9.108961 -9.533743e-19)
(7.840038 -9.286338 2.599308e-18)
(8.578277 -9.40947 5.804796e-20)
(9.31915 -9.478276 -1.101584e-19)
(10.06754 -9.482924 -2.42333e-18)
(10.81347 -9.434894 -2.734824e-18)
(11.54654 -9.327277 3.257778e-18)
(12.25929 -9.156256 -3.528839e-18)
(12.94947 -8.922607 -7.20852e-20)
(13.62271 -8.631129 0)
(14.26618 -8.297294 -4.569986e-18)
(14.87829 -7.90465 9.624376e-18)
(15.44943 -7.466721 -5.116938e-18)
(15.97715 -6.980278 0)
(16.46476 -6.4499 8.93825e-20)
(16.90146 -5.891208 -5.535885e-18)
(17.28022 -5.290721 -8.846654e-20)
(17.59695 -4.657643 1.396265e-19)
(17.85062 -3.992037 -9.270481e-20)
(18.0371 -3.309559 0)
(18.14215 -2.627458 -2.986425e-18)
(18.16046 -1.94325 1.443915e-18)
(18.09037 -1.284429 7.177673e-19)
(17.95144 -0.7095394 -1.117057e-20)
(17.91877 -0.2038769 3.406031e-19)
(17.76672 0.3562536 6.574801e-19)
(18.95864 0.3091668 0)
(16.32188 -0.4341611 1.156591e-18)
(11.58071 0.3597933 -1.151018e-19)
(11.29268 2.897494 4.352462e-18)
(11.88878 4.496415 0)
(12.11279 4.867718 0)
(12.19173 4.745596 0)
(11.81342 4.652652 5.393068e-20)
(10.58934 4.652029 3.193877e-18)
(8.545343 4.511532 -2.476406e-18)
(5.607307 2.41937 1.56944e-18)
(0.6333489 -2.523986 -4.126013e-18)
(-1.706294 -3.177588 3.829037e-18)
(-3.887915 -3.920517 0)
(-4.902635 -4.176337 -6.218752e-18)
(-5.13365 -4.289232 -6.033009e-18)
(-4.588875 -3.320435 4.957959e-18)
(-3.465531 -1.910548 -1.296925e-19)
(-2.146874 -0.7933011 -8.001737e-20)
(-0.5356601 0.4584481 8.475476e-20)
(0.415353 1.202675 0)
(0.3262703 1.159282 -2.192356e-18)
(0.0242562 1.234311 8.026587e-20)
(0.1911886 1.263886 5.753056e-18)
(1.360295 1.793267 -3.523451e-18)
(1.102906 -1.025243 1.783089e-19)
(-0.5859542 -5.657836 -2.648258e-18)
(-1.224306 -6.339413 0)
(-1.725068 -6.827975 -3.44271e-18)
(-1.933434 -7.481351 1.955337e-18)
(-1.908512 -7.849017 -1.241057e-19)
(-1.747158 -7.969196 2.15012e-18)
(-1.522425 -7.889927 -9.10213e-20)
(-1.248279 -7.650694 2.914142e-20)
(-0.981663 -7.227364 8.209525e-19)
(-0.771442 -6.55343 -5.153209e-21)
(-0.5942793 -5.638704 5.344946e-21)
(-0.6196258 -4.526747 5.704239e-21)
(-0.4891503 -3.480034 1.587788e-19)
(-0.4080762 -2.501241 2.533547e-19)
(-0.4341251 -1.60716 -1.832017e-19)
(-0.6205677 -0.4270033 2.497383e-19)
(-0.721438 0.5943813 0)
(-0.7925392 1.399857 1.099189e-19)
(-1.008274 1.857383 8.119071e-20)
(-0.6977152 2.479683 9.29536e-20)
(0.8144636 1.091785 0)
(1.499791 -0.4152678 0)
(0.9763744 -1.017421 -3.024082e-19)
(0.8614538 -1.284409 -9.597157e-21)
(0.794377 -1.431145 -2.546593e-19)
(0.5938235 -1.336867 -8.845311e-20)
(0.3577176 -0.9887488 1.02e-19)
(0.116154 -0.4552685 -2.631675e-19)
(-0.07607972 0.09392799 3.100492e-19)
(-0.2697479 0.0243847 -2.128221e-19)
(-1.236583 -0.1013637 6.327811e-20)
(-2.690391 0.2096989 0)
(-3.8974 1.263393 0)
(-4.977007 2.526565 -1.536397e-18)
(-5.181535 3.774136 0)
(-4.147566 4.355931 -3.704438e-20)
(-1.43456 3.650254 3.659587e-20)
(0.9693676 3.011801 6.363943e-19)
(5.96569 -1.75131 2.831551e-20)
(8.835944 -3.81829 -1.942663e-20)
(10.50439 -4.057869 -3.004791e-19)
(11.33678 -4.427073 1.311492e-20)
(11.73166 -4.900717 6.646702e-19)
(12.39335 -5.071573 -5.80433e-20)
(12.90723 -3.588188 2.635047e-18)
(13.04367 -0.3274681 -7.11577e-20)
(15.8163 1.359205 2.454167e-18)
(17.55068 0.5178466 1.885849e-20)
(16.23994 -0.07517003 -3.69941e-21)
(16.79184 0.3132157 -3.601418e-19)
(16.93855 0.6933817 -2.972861e-21)
(17.1522 1.088436 -4.21888e-19)
(17.31019 1.627538 -2.791413e-20)
(17.37083 2.227204 -8.729186e-19)
(17.32864 2.849429 1.823742e-18)
(17.20281 3.511299 -1.834708e-18)
(17.01167 4.142621 3.574622e-18)
(16.74297 4.782005 1.965235e-18)
(16.40825 5.377615 0)
(16.00953 5.953597 0)
(15.56908 6.510712 3.38634e-18)
(15.08774 7.006042 3.234937e-18)
(14.5503 7.462283 0)
(13.97368 7.855305 -8.515525e-20)
(13.35312 8.20671 2.7576e-18)
(12.70071 8.507909 2.44924e-18)
(12.02463 8.741544 2.134546e-18)
(11.33201 8.925286 -5.624246e-20)
(10.62977 9.059969 -1.597864e-18)
(9.912601 9.126932 3.982481e-20)
(9.18695 9.121904 -4.019256e-20)
(8.464002 9.06361 -9.177097e-19)
(7.749509 8.957223 6.073229e-19)
(7.041531 8.79448 0)
(6.35763 8.557594 0)
(5.68154 8.275799 4.114955e-19)
(5.042942 7.924768 -8.189795e-21)
(4.417217 7.526227 -7.846738e-21)
(3.841313 7.071753 -9.645701e-19)
(3.296076 6.574334 -2.441212e-18)
(2.775526 6.045301 1.370765e-18)
(2.307251 5.471151 -1.644582e-18)
(1.89125 4.855684 -9.117111e-19)
(1.529676 4.202145 -3.113134e-20)
(1.22489 3.518597 0)
(0.9426292 2.835516 -1.144067e-18)
(0.7598209 2.11988 -3.838654e-20)
(0.5990478 1.389325 -6.534643e-19)
(0.4988602 0.6795498 3.472014e-19)
(0.4920497 -0.04184942 -1.668656e-23)
(0.58656 -0.7741932 -3.417442e-19)
(0.6514259 -1.563268 2.917674e-20)
(0.7851628 -2.318894 -6.153146e-19)
(0.9858277 -3.035907 1.124778e-18)
(1.246698 -3.728412 -1.080207e-18)
(1.567438 -4.396801 2.704367e-21)
(1.938941 -5.033192 8.821971e-19)
(2.377889 -5.635895 -1.435251e-18)
(2.836657 -6.21686 1.223501e-18)
(3.343007 -6.748214 9.197757e-19)
(3.912995 -7.232143 8.239668e-21)
(4.515123 -7.678822 8.661401e-21)
(5.134689 -8.076025 -1.42222e-19)
(5.792183 -8.42667 -1.075505e-19)
(6.484698 -8.72851 1.819794e-20)
(7.186756 -8.967487 6.93492e-19)
(7.902486 -9.13887 -2.091821e-18)
(8.632781 -9.258457 1.335201e-18)
(9.378563 -9.309824 -5.341281e-20)
(10.124 -9.304837 -1.954035e-18)
(10.86217 -9.253089 4.503714e-18)
(11.59526 -9.132383 8.290892e-20)
(12.30487 -8.951226 2.737086e-18)
(12.99509 -8.701861 -3.18766e-18)
(13.66997 -8.393961 9.889291e-20)
(14.31203 -8.04741 -3.616962e-18)
(14.92439 -7.636455 -3.694861e-18)
(15.49435 -7.183002 1.273433e-19)
(16.02292 -6.674086 -4.252631e-18)
(16.51055 -6.122581 4.390151e-18)
(16.9465 -5.545175 0)
(17.3229 -4.92787 0)
(17.63548 -4.276246 2.388984e-18)
(17.88428 -3.609132 2.392815e-18)
(18.0701 -2.936241 0)
(18.17819 -2.263499 1.279258e-18)
(18.19551 -1.609784 1.169892e-18)
(18.12239 -1.009853 -6.01896e-19)
(17.97232 -0.5056161 1.388869e-19)
(17.90217 -0.1023153 2.814454e-19)