/*--------------------------------*- C++ -*----------------------------------*\
| =========                 |                                                 |
| \\      /  F ield         | OpenFOAM: The Open Source CFD Toolbox           |
|  \\    /   O peration     | Version:  2406                                  |
|   \\  /    A nd           | Website:  www.openfoam.com                      |
|    \\/     M anipulation  |                                                 |
\*---------------------------------------------------------------------------*/
FoamFile
{
    version     2.0;
    format      ascii;
    arch        "LSB;label=32;scalar=64";
    class       volScalarField;
    location    "4.96";
    object      p;
}
// * * * * * * * * * * * * * * * * * * * * * * * * * * * * * * * * * * * * * //

dimensions      [0 2 -2 0 0 0 0];

internalField   nonuniform List<scalar> 
15536
(
-47.33691
-39.12988
-31.81477
-25.46796
-19.81883
-15.57229
-11.68833
-8.569129
-8.649866
-13.222
-20.15959
-22.26255
-17.50044
-11.38753
-7.093688
-4.431405
-2.850433
-0.8657871
1.920188
7.352606
15.46506
21.41609
23.65033
26.4392
21.61867
11.54538
-1.449004
-28.19322
-79.16333
-122.092
-106.096
-31.98319
-8.403423
-31.44365
-64.10417
-91.07137
-94.12426
-79.16439
-75.74086
-81.46968
-88.46081
-93.93259
-97.25752
-98.89884
-99.58893
-99.23809
-97.93124
-95.61105
-92.76491
-89.54992
-85.61639
-81.06727
-75.8719
-70.28378
-64.25004
-57.83843
-51.39123
-44.83467
-37.91936
-30.82442
-23.84537
-17.00292
-10.1852
-3.445533
3.078574
9.476718
15.5809
21.36772
26.73223
31.67433
36.15543
40.17668
43.70082
46.65124
48.98363
50.80586
51.99555
52.59762
52.68238
52.21116
50.91486
49.00869
46.55008
43.50752
39.90719
35.77005
31.15368
25.97344
20.38767
14.43723
7.981038
1.202181
-5.839613
-13.32256
-20.9677
-28.574
-36.35855
-44.3099
-52.23481
-60.22864
-68.13072
-75.74768
-83.0391
-90.09656
-97.04745
-103.5842
-109.6827
-115.3041
-120.4663
-125.2458
-129.3542
-132.7218
-135.405
-137.3768
-138.4996
-138.4314
-136.9224
-134.0837
-131.8649
-133.2511
-129.1691
-119.1713
-143.9632
-177.4291
-164.6646
-125.9736
-101.5022
-94.44153
-91.18262
-82.29088
-64.03677
-49.12511
-54.99554
-87.92968
-110.0429
-122.8857
-123.0011
-110.1312
-90.75048
-72.65593
-57.97613
-49.14325
-44.52547
-42.6498
-40.83608
-38.45933
-41.76534
-46.74313
-50.29236
-58.20003
-66.16614
-71.57029
-74.14434
-73.68567
-70.12436
-64.0118
-56.05929
-47.24976
-39.07508
-31.78299
-25.45412
-19.80768
-15.56646
-11.69324
-8.591067
-8.644243
-13.22095
-20.12548
-22.17445
-17.38699
-11.30142
-7.04359
-4.414691
-2.860259
-0.8865798
1.905548
7.34133
15.46922
21.4889
23.71781
26.40122
21.53516
11.51713
-1.36223
-28.02684
-78.99235
-122.1092
-106.3512
-32.10936
-8.53737
-31.64642
-64.29238
-91.20893
-94.05049
-79.11237
-75.6997
-81.08999
-87.70867
-92.87067
-95.97838
-97.50202
-98.13994
-97.76489
-96.44943
-94.13189
-91.29631
-88.11038
-84.21101
-79.70432
-74.55435
-69.01816
-63.04472
-56.69586
-50.31198
-43.82384
-36.98279
-29.95821
-23.05011
-16.27963
-9.533009
-2.860609
3.597859
9.928527
15.96689
21.69343
27.00251
31.89199
36.32591
40.30537
43.79258
46.71369
49.02105
50.82441
52.00162
52.59604
52.67791
52.2082
50.91978
49.03034
46.59275
43.57624
40.00764
35.90802
31.33407
26.20192
20.6712
14.77622
8.380873
1.670468
-5.304012
-12.71922
-20.29172
-27.82387
-35.53562
-43.41058
-51.25937
-59.17845
-67.00726
-74.55137
-81.77389
-88.77058
-95.66403
-102.1447
-108.1955
-113.7724
-118.8976
-123.6494
-127.7346
-131.0934
-133.7873
-135.7856
-136.9632
-137.0268
-135.7975
-133.3047
-131.478
-133.1199
-129.1036
-119.1418
-143.806
-177.5086
-164.7487
-125.9539
-101.4489
-94.41138
-91.21614
-82.36207
-64.15804
-49.07765
-54.89436
-88.05435
-110.0757
-122.7934
-122.8289
-110.004
-90.68645
-72.66196
-58.0031
-49.14434
-44.50422
-42.63099
-40.83047
-38.46562
-41.75685
-46.70156
-50.3109
-58.18704
-66.09982
-71.4317
-73.95208
-73.45052
-69.8994
-63.83576
-55.93231
-47.20794
-39.06209
-31.77752
-25.45082
-19.79841
-15.56103
-11.69205
-8.577081
-8.634273
-13.40619
-20.25288
-22.19936
-17.34498
-11.26044
-7.0344
-4.43846
-2.912387
-0.945856
1.848423
7.266217
15.36755
21.48952
23.65864
26.27338
21.36057
11.44849
-1.26663
-27.96048
-79.27349
-123.1079
-108.1656
-32.35568
-8.139522
-31.56947
-64.27968
-91.20188
-94.05875
-79.34257
-75.72345
-80.69218
-86.88373
-91.86396
-94.99166
-96.59015
-97.2668
-96.91782
-95.63894
-93.33956
-90.51596
-87.3594
-83.47206
-78.99039
-73.86227
-68.3611
-62.42722
-56.09347
-49.73758
-43.29229
-36.47734
-29.4834
-22.60759
-15.87676
-9.168575
-2.526018
3.890827
10.19252
16.19656
21.89118
27.16992
32.03117
36.43652
40.39014
43.85386
46.75733
49.04449
50.83433
52.00182
52.58856
52.66658
52.19825
50.9175
49.04266
46.62015
43.62163
40.07496
35.99941
31.45312
26.34539
20.84635
14.98441
8.617729
1.943457
-4.993345
-12.3779
-19.91302
-27.40144
-35.07888
-42.92055
-50.72501
-58.6202
-66.41437
-73.92839
-81.12255
-88.07757
-94.94531
-101.387
-107.413
-112.9638
-118.0642
-122.8014
-126.8612
-130.1916
-132.8532
-134.8236
-135.9662
-135.9504
-134.7
-132.4126
-130.7369
-132.0524
-128.2584
-119.2593
-144.0979
-177.8778
-165.0213
-126.101
-101.4877
-94.42813
-91.2066
-82.34266
-64.22359
-48.87636
-54.95758
-88.67366
-110.3771
-122.8574
-122.8941
-110.01
-90.66616
-72.71932
-58.08807
-49.18535
-44.48902
-42.56382
-40.75517
-38.42603
-41.74438
-46.75808
-50.51971
-58.3954
-66.1518
-71.37396
-73.86423
-73.41297
-69.83184
-63.75158
-55.86664
-47.17355
-39.06255
-31.78552
-25.45438
-19.78287
-15.55165
-11.67086
-8.475193
-8.603884
-13.80538
-20.4702
-22.26188
-17.36425
-11.26328
-7.059218
-4.497564
-3.014381
-1.058374
1.727833
7.108095
15.09822
21.40387
23.65999
26.13746
21.16647
11.3958
-1.1443
-27.98561
-80.01578
-124.6319
-111.2306
-32.96224
-7.334185
-31.00041
-63.40829
-89.2374
-92.35746
-79.19932
-75.7338
-80.10623
-85.72723
-90.39898
-93.34711
-94.73202
-95.35449
-94.98394
-93.73533
-91.46537
-88.66916
-85.56104
-81.74827
-77.34612
-72.29409
-66.86816
-61.02027
-54.77563
-48.50083
-42.14667
-35.43632
-28.52369
-21.73021
-15.08829
-8.467991
-1.902141
4.430258
10.65918
16.59069
22.22345
27.44046
32.24419
36.59893
40.50944
43.93501
46.8114
49.06849
50.84032
51.99541
52.57232
52.64524
52.17757
50.90476
49.05072
46.64943
43.67662
40.16333
36.12731
31.62916
26.56681
21.13016
15.3302
9.024507
2.43138
-4.430095
-11.74733
-19.18634
-26.58445
-34.18163
-41.92755
-49.63667
-57.44236
-65.14357
-72.55578
-79.6497
-86.52728
-93.31477
-99.66497
-105.617
-111.0872
-116.1252
-120.8088
-124.8263
-128.115
-130.752
-132.7336
-133.9298
-134.1021
-133.11
-131.1435
-129.6068
-130.4397
-127.2663
-119.9979
-144.9132
-177.894
-165.268
-126.2693
-101.5754
-94.31039
-90.88349
-81.98256
-64.01099
-48.41688
-55.27739
-89.89555
-110.937
-123.0633
-123.0931
-110.1469
-90.70947
-72.84288
-58.23527
-49.27942
-44.49613
-42.47329
-40.59095
-38.27679
-41.61945
-46.83616
-50.9878
-58.7732
-66.22936
-71.29838
-73.72334
-73.1932
-69.69106
-63.65158
-55.80579
-47.1656
-39.08336
-31.8083
-25.47404
-19.76025
-15.53595
-11.61213
-8.18513
-8.569614
-14.29293
-20.72376
-22.45355
-17.47358
-11.33148
-7.134135
-4.612714
-3.180437
-1.243473
1.508877
6.83252
14.66362
21.27398
23.88644
26.1865
21.06316
11.47116
-1.055187
-28.11066
-81.27585
-126.9327
-114.9171
-34.77226
-7.522286
-30.65787
-61.41294
-84.60783
-88.40638
-78.27655
-75.59677
-79.43484
-84.57871
-89.02241
-91.94181
-93.36419
-94.04743
-93.66325
-92.44472
-90.17249
-87.33011
-84.27895
-80.45377
-76.08459
-71.04189
-65.6615
-59.87805
-53.65556
-47.42849
-41.15822
-34.51139
-27.64626
-20.91525
-14.35642
-7.810297
-1.298451
4.952411
11.12426
16.9891
22.56083
27.71288
32.46388
36.76779
40.63334
44.01313
46.86012
49.08435
50.83542
51.97713
52.54226
52.60814
52.13819
50.87272
49.0495
46.67676
43.73312
40.25597
36.25969
31.81164
26.79325
21.42601
15.68367
9.424604
2.919505
-3.866292
-11.14571
-18.50092
-25.81009
-33.34962
-41.02949
-48.64691
-56.40443
-64.04674
-71.39506
-78.43237
-85.24941
-92.007
-98.29956
-104.2286
-109.6627
-114.6716
-119.3787
-123.3481
-126.6422
-129.3054
-131.2923
-132.4831
-132.5417
-131.5817
-129.7846
-128.3449
-128.8182
-126.654
-121.5494
-145.0362
-176.0031
-163.9162
-125.8969
-101.6659
-94.10964
-90.14972
-81.00492
-63.3726
-47.84619
-55.93141
-91.70359
-111.8384
-123.5465
-123.5953
-110.4808
-90.86183
-73.05898
-58.44396
-49.43595
-44.54514
-42.38113
-40.38627
-37.9971
-41.31381
-46.86183
-51.6292
-59.25475
-66.37914
-71.30606
-73.66546
-73.15576
-69.60751
-63.59588
-55.7857
-47.20822
-39.16337
-31.8878
-25.51798
-19.75694
-15.4853
-11.50659
-7.860866
-8.582062
-14.81026
-21.0212
-22.84006
-17.67445
-11.54103
-7.288366
-4.807253
-3.433041
-1.51991
1.153218
6.390348
14.04206
21.21393
24.46805
26.62276
21.16494
11.68767
-0.9183321
-28.41604
-82.76876
-129.4121
-118.6368
-38.52574
-9.992057
-31.59389
-59.63344
-80.01353
-84.05866
-76.87083
-75.08483
-78.41744
-82.99426
-87.06763
-89.80169
-90.9456
-91.53417
-91.11927
-90.02104
-87.80769
-85.00481
-82.09831
-78.36421
-74.11914
-69.16558
-63.87418
-58.20041
-52.05914
-45.94291
-39.80452
-33.25411
-26.47598
-19.85815
-13.40632
-6.964512
-0.5308914
5.602238
11.69966
17.46914
22.94668
28.02657
32.72341
36.96279
40.77004
44.08621
46.90672
49.08979
50.81118
51.9406
52.4908
52.54624
52.07233
50.81901
49.02971
46.696
43.78997
40.35713
36.41013
32.01632
27.04307
21.77658
16.11468
9.892641
3.492996
-3.156904
-10.38074
-17.63792
-24.81001
-32.24516
-39.83728
-47.33182
-54.98527
-62.52046
-69.75597
-76.66545
-83.37702
-90.06133
-96.21887
-102.0628
-107.3808
-112.2974
-116.9211
-120.8034
-123.9966
-126.4959
-128.5073
-129.7801
-130.101
-129.4108
-127.9102
-126.7304
-127.0289
-125.9232
-122.876
-142.7962
-169.0587
-158.7117
-124.2447
-101.5814
-93.71655
-88.96709
-79.58189
-62.49436
-47.64262
-57.32838
-93.99157
-113.1457
-124.3903
-124.4052
-111.0656
-91.13123
-73.35988
-58.72754
-49.66257
-44.64653
-42.29819
-40.19525
-37.6545
-40.91546
-46.91526
-52.37591
-59.82726
-66.62689
-71.38652
-73.65282
-73.07538
-69.60633
-63.62256
-55.82931
-47.37898
-39.44216
-32.15205
-25.50489
-19.73807
-15.40918
-11.36122
-7.570318
-8.705584
-15.36819
-21.37919
-23.26301
-17.97786
-11.94365
-7.528663
-5.084484
-3.805301
-1.947874
0.5876758
5.714319
13.24041
21.18147
25.52654
27.50946
21.55341
12.06823
-0.994758
-28.975
-83.61278
-131.4625
-121.4993
-44.39771
-15.27846
-33.68633
-57.90831
-75.72138
-80.07416
-75.32373
-74.32831
-77.32324
-81.40833
-85.16458
-87.86428
-88.90638
-89.72413
-89.13516
-88.01129
-85.75958
-82.85807
-80.0586
-76.3007
-72.16663
-67.23213
-61.95892
-56.41876
-50.40044
-44.34873
-38.27649
-31.87027
-25.2284
-18.69318
-12.29128
-6.034089
0.3277326
6.318213
12.3434
17.98083
23.36497
28.43302
33.01889
37.16171
40.88966
44.14407
46.98485
49.08124
50.76544
51.88132
52.4096
52.45266
51.99125
50.75964
48.96159
46.65907
43.80481
40.43342
36.57389
32.2534
27.30247
22.14307
16.6153
10.47679
4.117106
-2.424697
-9.481149
-16.65742
-23.73025
-31.03584
-38.45192
-45.90465
-53.47591
-60.83763
-68.00228
-74.76603
-81.37957
-88.03282
-94.05754
-99.87732
-105.0847
-109.9825
-114.6622
-118.4642
-121.6909
-124.4178
-126.4302
-127.6693
-127.8711
-127.282
-125.9623
-124.995
-125.1298
-124.7294
-123.1585
-138.3856
-158.3906
-150.5998
-121.6647
-101.3345
-93.11572
-87.6258
-78.15312
-62.11994
-48.57198
-59.80039
-96.86547
-114.9031
-125.6863
-125.5074
-112.0356
-91.44485
-73.65144
-59.0898
-49.94455
-44.7816
-42.2348
-40.05776
-37.403
-40.63606
-47.15696
-53.23423
-60.51641
-67.03418
-71.60397
-73.75886
-73.15472
-69.73479
-63.74595
-55.97013
-47.75769
-39.93309
-32.57085
-25.41997
-19.74103
-15.32785
-11.26428
-7.436529
-8.891174
-15.98719
-21.79549
-24.59821
-19.0126
-12.29846
-7.826036
-5.44702
-4.351055
-2.697272
-0.4327531
4.634208
12.15468
21.1601
26.7835
28.77829
22.17163
12.52209
-1.742297
-28.91
-82.71418
-132.3502
-122.0528
-50.2234
-22.72403
-36.41164
-56.04265
-71.45184
-76.18456
-73.49842
-73.08178
-75.73373
-79.23812
-82.50753
-85.22549
-85.73053
-86.32037
-85.95998
-84.98776
-82.98314
-79.86353
-77.27725
-73.65952
-69.7148
-64.75072
-59.55886
-54.3933
-48.54461
-42.24439
-36.36446
-30.3683
-23.89479
-17.18053
-10.91498
-5.076764
1.314901
7.079209
13.07623
18.4656
23.93838
28.99599
33.31278
37.33023
40.95238
44.19141
47.06957
49.01236
50.70902
51.79124
52.29276
52.33435
51.90293
50.65389
48.84708
46.53768
43.74917
40.44984
36.69655
32.56051
27.59339
22.50765
17.14669
11.32981
5.010197
-1.784716
-8.522847
-15.3481
-22.56234
-29.79056
-36.73557
-44.03996
-51.91289
-58.79318
-65.96499
-72.5459
-78.96523
-85.61585
-91.36476
-97.22622
-102.1581
-106.8976
-111.6268
-115.2506
-118.3602
-120.7373
-122.7591
-124.2071
-124.6034
-124.2591
-123.2031
-122.6866
-122.8327
-122.9168
-122.4314
-133.7549
-147.5838
-141.538
-118.5752
-101.1746
-92.19203
-86.20112
-77.014
-62.72968
-51.11852
-63.57595
-100.4047
-117.4105
-127.6011
-127.8424
-113.433
-91.72873
-73.82227
-59.18226
-50.14665
-44.84021
-42.4152
-40.20415
-37.45783
-40.762
-47.71022
-54.32201
-61.45726
-67.66807
-72.01814
-74.04267
-73.42387
-70.00669
-63.88617
-56.28494
1.754408
1.195547
-29.32137
-7.561516
13.11367
-6.176954
0.2931418
2.199642
12.74491
-1.936113
0.7643561
2.969786
-0.9448423
0.450408
0.2546828
4.326653
-0.4823347
-3.677495
1.231776
2.119156
-41.16162
2.740462
3.61106
-2.127277
0.8533971
2.499445
3.528997
-1.568592
-7.370348
1.123879
2.403969
-10.68916
3.492257
1.940301
0.3282502
-5.622186
-9.177493
0.2216012
-2.276855
-6.990472
-25.6521
2.606636
0.9782476
3.175664
33.71313
0.9952863
0.6448074
0.989316
-12.14225
-1.587808
-6.320528
-4.821973
-16.46119
0.7619716
0.1926305
23.52757
-5.715471
2.6644
-14.77852
-18.55192
-1.5104
0.0265158
-9.530146
2.237345
7.730126
2.504928
-23.67313
1.217029
1.938818
2.272063
-0.6029677
0.4790018
-12.49241
-86.65072
22.58221
0.8514817
4.72595
-3.290809
2.184612
1.073786
-18.45444
0.2400199
4.332771
0.199724
-13.13156
0.646103
3.344133
2.208855
-28.05127
-5.198797
-18.84764
22.39032
-18.58239
0.5731594
0.7385454
3.282723
-39.01814
6.031289
-35.77161
0.7920775
2.389549
2.156193
0.0151414
-99.43363
0.5436657
-10.53445
1.448404
0.6509474
-0.3009746
-9.729358
2.64199
0.2940892
0.1576686
7.83537
-16.06703
0.999259
0.2869856
1.603549
20.58709
0.5985931
2.786136
0.6352542
-0.5256919
2.167452
3.36591
9.828001
-0.449309
-13.77688
0.7679414
2.489247
0.3993561
-15.06077
0.7633421
0.03750321
0.548548
-39.67169
0.2765151
9.052693
2.363463
0.3528712
-21.36417
0.5932621
-75.23718
1.348228
-4.730576
1.062906
1.964651
-46.23913
1.037002
-0.5144948
3.008127
-12.27941
-66.19454
2.249724
-11.45224
-49.8455
1.175977
0.4831035
0.8603341
-44.94347
1.804515
-44.712
-1.063185
1.939098
2.188451
-10.6035
-26.26236
2.432996
-24.78791
3.076935
0.6639837
-21.11604
-1.55256
-22.54366
-6.444975
-41.60807
3.818441
0.7519734
-21.27803
-3.828039
17.00994
3.068943
1.681033
0.7284526
3.216496
-53.94867
1.552457
0.6953502
-20.3171
2.18092
-0.08395075
2.226429
-10.91863
-2.211109
2.409046
0.5365215
2.284648
0.3390237
-6.672333
-40.10084
2.071785
-26.68508
1.567225
-13.9977
-0.2230459
-0.3826747
-9.064694
2.193808
-10.79265
-4.554802
2.204336
-14.11601
-4.435724
-4.454558
0.04959283
-2.774793
-12.84144
2.161563
4.745246
1.209725
2.355227
-6.668914
4.086667
-15.49389
-3.220443
0.9146816
1.598933
8.446803
-1.782616
20.4024
-2.119652
-34.9383
5.597489
1.894941
-98.87258
0.6621712
27.41282
-9.531173
2.958269
0.09857133
-0.04224957
2.247947
1.997081
-5.613001
2.013338
-14.07672
1.43508
-35.07902
0.3810266
0.4471345
-40.4436
1.269855
2.456449
2.150959
3.949907
-32.27125
1.346648
0.5211384
-46.24116
-3.393107
-0.552792
0.1916987
-13.31486
-16.454
-0.268962
3.642879
0.4946869
1.009598
-6.50301
-31.24798
0.5155738
0.8622341
13.48621
-1.113545
-4.902538
4.470687
3.001329
-15.91233
-32.44998
0.3018842
1.729311
1.175129
1.927025
2.402536
2.343349
1.953559
36.5475
-0.2218017
3.253844
3.127207
3.567929
2.169056
0.7050279
1.466209
-32.27003
0.3357971
-1.241381
-4.213706
1.257104
-0.006178505
-51.06652
2.12106
-7.916066
11.67824
-0.3234547
0.8980431
3.093066
1.318261
2.615023
1.047992
-1.565011
2.834731
1.839065
0.3938202
-0.2304566
-15.37843
35.34343
-75.25241
-13.80103
-60.53107
-0.7653578
-4.416959
2.543391
-5.178147
0.05006274
-8.293618
1.289391
0.6372055
1.10998
5.050475
18.47066
1.642504
-9.360532
-61.51591
1.764891
3.34234
2.011783
-4.488401
-5.931344
-5.562017
-38.61381
-1.577291
0.8421744
2.061692
-15.92978
4.50685
-8.289193
-0.2305094
-13.29809
0.1698264
-1.354659
-0.6932862
14.6792
0.7017801
-1.235338
-21.5561
-59.79947
-2.871811
1.967382
2.324326
1.367756
-5.794278
-1.557772
3.245299
2.161704
3.375502
3.234279
2.511089
2.307009
2.799737
-4.00875
14.04323
-45.4958
1.172362
3.289048
1.460612
1.754865
2.46617
0.1345887
2.774542
2.385254
2.978752
0.8497354
-8.273945
0.3669827
0.9822508
0.9050454
38.56858
3.039783
2.535193
-11.98527
0.3710264
2.549532
-38.01537
1.025083
-1.11734
1.07568
-2.444903
2.326526
1.011848
3.174256
2.099514
-35.02066
-1.398622
2.27705
2.356474
-29.65112
-55.75507
3.579513
1.261006
1.174823
0.7715911
3.781363
2.237702
3.16342
-0.831584
1.965546
-9.195895
0.6277616
-15.71281
2.248762
0.9480636
5.624398
1.741922
-0.2719856
-31.60725
0.5043007
2.873156
-58.71077
-18.1852
-32.76415
-0.7741053
-10.93637
1.599704
1.349417
1.824252
2.057562
-6.883771
0.7940744
2.136805
2.371392
3.457634
1.168303
0.9199499
-5.797398
2.226174
2.25284
-3.208664
-14.16264
-0.181157
2.237822
-34.02518
0.498327
-4.558084
1.477466
0.1002174
0.5482741
5.851891
2.123705
-23.21899
0.3946671
-32.10123
2.158938
1.656962
1.300644
2.033605
26.53163
0.8101906
5.266764
-1.983001
-12.19622
-1.23442
2.093621
8.803016
-0.9389598
-5.587695
-12.34495
-26.29227
0.07642083
0.3898889
-4.678781
-0.01272622
2.325612
0.7738119
0.3987765
1.607493
-3.174777
17.53117
0.3768065
3.283565
2.261325
-29.0361
1.208217
-2.15481
-22.61553
2.2664
1.853734
4.580897
1.657
4.622823
2.603811
0.7879012
0.7303564
-5.941616
2.787819
2.1303
2.186659
-1.856588
-16.19809
-7.422282
-28.55262
6.271287
16.54405
-2.62245
2.310173
2.376093
1.109091
2.103752
1.714109
1.415833
2.295195
0.8792516
-1.284102
1.033609
0.9727655
-0.7212086
0.5059995
-7.888161
0.5377941
0.4187034
-31.34121
1.950759
-30.27134
0.3374656
5.044061
5.043886
4.086121
0.5123571
2.351398
0.8038865
4.940426
2.272405
0.4364625
0.1754155
-35.65364
3.771932
4.324207
1.874177
1.739575
8.087248
2.330617
5.28578
-1.917152
-3.906122
-61.83239
3.558985
2.695614
-12.75447
16.888
-2.142388
0.6260385
-0.05800293
2.721545
2.884071
0.3777751
2.248217
2.486343
10.17525
32.29248
-0.4132303
2.163602
7.494003
4.594775
-68.36221
0.4617513
3.909238
0.8005632
4.23728
1.608657
2.296728
-0.5760152
2.18238
6.911325
0.4738232
-6.693077
-26.89229
1.340828
-0.1479284
-91.97107
-5.046471
-1.181302
-5.138978
2.405584
0.2233826
2.110273
0.5224502
2.295607
-42.22967
2.733322
2.265115
2.179287
2.951593
0.4728484
1.061769
-0.2644075
-8.953646
-3.625409
0.7422455
-13.52157
-0.05320483
5.11946
1.948591
15.32694
2.325854
9.882935
-2.556742
-0.4276134
3.0498
-25.51532
5.443777
0.8345789
-0.6809655
2.187289
-2.589171
0.8104092
18.84154
3.283404
0.3757075
1.801688
-2.823009
3.706918
-36.83174
-17.915
-20.47111
-60.25268
-10.79127
-4.868597
2.186568
-0.7222503
2.444468
2.118817
-4.340959
0.4720325
-8.646221
2.153757
0.8532781
1.266979
-77.03811
1.595551
26.51298
5.46281
-27.05538
-7.142149
-10.36985
7.735086
-3.536784
-7.980048
0.3669587
3.008713
-4.602049
2.151035
2.861436
0.5831212
1.105058
2.107879
0.1493007
-20.80895
4.172618
1.08221
0.1862648
1.910488
0.589355
-102.4509
0.7130831
1.341314
7.196679
-20.28373
-7.326355
0.1189789
5.213102
14.40346
9.397055
2.933898
-5.494317
2.361858
-12.28588
1.417842
-3.58206
3.747056
2.33375
-16.2405
-1.056571
-85.65991
1.921151
1.93481
0.9915899
-59.60646
2.284751
2.249749
2.235853
-0.4867299
-12.66037
2.644348
-0.4108342
4.516352
-7.689529
3.426138
2.079059
-13.41951
-5.53289
1.186262
0.7057747
2.362725
0.7635049
0.806364
-0.06388348
2.921686
-64.14352
1.782497
-3.374167
0.2878924
0.5009807
0.08030404
2.022727
2.095018
2.218438
0.7457226
-30.64191
2.220006
1.952661
2.613877
2.308699
2.261982
0.9403497
1.843871
1.219985
1.139272
5.55626
-1.291059
2.615311
0.8789325
-2.784439
1.175328
0.5732415
2.060344
2.059456
-58.02223
3.883058
5.11024
10.91583
-9.750688
-6.998515
-4.918739
-7.915405
0.4927566
-26.75669
0.1248396
-4.295539
-9.945481
-7.468515
-5.422659
1.599048
3.43438
12.95697
1.569263
1.171714
-22.50632
0.3450611
2.274452
2.035718
-12.47315
24.15369
-8.299668
2.682512
3.673092
2.70295
1.354462
0.5712139
-2.1136
2.448902
1.385635
-1.798817
2.306186
3.115321
3.856961
2.559898
2.286788
0.6084928
2.25193
0.1259597
-0.9516613
-17.15262
31.80526
0.511274
0.5279817
0.3341977
1.033634
0.6696555
1.203893
-76.52848
0.3588153
-92.98142
-3.124297
-0.7741957
-3.0109
0.5534664
-0.9603683
0.8080331
2.004617
0.9961082
2.367598
-2.761709
-43.31548
2.489717
-1.387992
2.371078
1.187947
-1.157688
3.768699
-23.28877
-3.942957
17.35689
2.594278
0.6974828
-0.3452295
-0.2482053
2.398155
1.9704
3.576169
2.094598
-11.41776
0.8051051
8.990801
-48.06803
1.804415
-0.01729959
-7.084191
-0.04756359
0.7844851
2.329424
1.232595
2.167963
1.736672
4.716849
3.346297
4.260243
4.722822
-0.8755402
-1.026034
30.70594
0.8734381
-2.690452
-13.43132
-49.41466
3.445239
2.049378
1.079091
2.311228
33.06108
-0.6115578
1.409913
-0.4717219
0.6260201
-4.824821
2.412042
1.614272
1.773415
-10.66062
-19.07143
1.321542
1.190759
-24.32422
0.5021156
0.4236393
1.592979
-13.829
6.263513
29.76309
-4.387349
2.2341
-0.7223635
-6.980611
-5.159366
13.00321
-1.931761
1.987772
0.1343212
-0.6735752
2.223937
0.2251604
1.625415
-1.91703
-12.44788
-17.43781
4.346232
-2.892967
-0.1553117
0.6320987
2.350396
7.66265
-4.718847
-2.411602
1.666737
8.399101
-20.7393
7.732968
0.7474991
0.5618985
-5.008753
29.51728
-4.349891
1.293598
-0.2337749
-61.62498
1.823602
0.4903644
5.704287
0.8623416
0.2218806
-10.81634
0.4808137
2.527608
-24.27367
-5.891526
0.2334519
8.019236
-10.33057
-40.76671
4.250718
-52.06063
-0.2662186
-0.8775054
-9.567505
0.6523932
-1.84712
-40.5392
0.1108082
0.6922408
1.627216
1.943138
0.5993228
11.23512
-81.95694
2.279735
18.93731
0.7014653
0.9534312
-2.641519
16.72965
-10.91194
0.2673766
0.1174183
3.462481
-8.750055
-3.260708
-4.397886
-0.1325364
0.8440568
2.07071
-77.77109
-95.03512
0.6622051
2.313001
3.84205
0.6785979
2.193649
3.827055
1.573758
0.6029458
2.328121
2.251727
0.5110092
6.036445
1.850651
-13.43307
0.8243417
0.1656233
-59.69897
1.804313
0.7430012
1.402046
-36.61769
-1.410029
-3.357734
3.293528
-6.078462
-23.43345
36.1654
48.84147
1.74154
2.412118
-4.816696
7.673055
1.809197
0.3181331
10.72701
-41.74081
1.870463
1.304493
-1.000434
3.18531
0.8349854
4.402009
-3.076223
-14.65899
-63.18279
0.3877466
3.137627
0.9120386
2.496404
3.36359
-42.62845
0.9085215
1.990744
0.4117452
2.565758
0.8127683
1.706455
-19.67771
-10.14578
1.855124
2.366181
2.242482
1.863881
-2.730423
2.018417
0.3274094
-49.162
0.5568446
-53.39165
-87.5407
-0.3186937
-0.8444491
-95.25094
-63.94115
2.961128
1.578962
2.349002
1.444565
2.781249
-3.275906
0.2664245
0.992743
1.321895
2.839823
1.899598
-2.113071
0.2369718
2.115656
2.275044
0.6030791
0.4972092
2.554717
1.969277
0.8832631
2.234239
-4.092583
2.1484
-0.3335776
5.054185
0.03372657
3.343895
3.222165
0.179609
-10.33941
-8.204045
-11.85365
2.552009
1.065735
0.3057393
1.714672
-36.34339
-15.22121
-25.87865
-38.73954
23.93543
2.114837
3.212664
-14.12346
-26.32712
0.3361144
4.291274
-38.24861
-1.729611
0.4879371
-21.58634
-0.3928868
8.327084
2.357519
1.417425
-37.91715
2.205947
-11.99033
2.992156
6.621036
35.47048
-15.11255
-9.244549
2.032526
3.582829
2.376216
8.902307
2.316881
7.825644
1.913503
-2.652347
-1.967926
-3.265176
-3.378804
1.873627
-12.44945
2.342145
-70.56171
9.38574
2.924413
18.46777
1.497523
29.63719
-0.4675901
-3.603052
2.299954
1.835011
14.262
-11.35461
3.923082
1.655876
0.5647021
0.4964245
0.5530548
5.066398
-3.554203
0.1355574
0.5182323
-18.58556
2.426845
16.71928
0.6411201
2.17515
-30.87066
-7.848266
0.9066608
-15.08291
38.55433
-1.224867
1.430391
-46.73106
1.701892
0.03013952
1.54229
-1.063538
-11.99145
-99.29711
-5.071874
0.7447687
1.396556
0.8744563
1.456466
2.193012
3.542408
10.46022
5.082741
1.137578
0.2467487
1.490585
-9.972856
-21.27821
1.873935
2.487797
2.292012
-36.05026
0.06680519
0.900097
0.6669435
-2.377625
-11.58352
2.277116
0.1392299
3.135673
-0.3396321
2.400986
-14.56848
1.463448
2.35801
-76.24555
24.70686
-3.25302
1.330711
4.880446
-1.974465
0.3486904
0.08328948
0.2035399
-0.3962523
2.433637
1.902777
1.72755
-18.79843
0.7663984
-9.231165
-0.1409801
0.5274462
-1.306427
-0.3674065
-20.45739
-13.62602
2.007837
-14.28778
0.46145
0.3636806
-1.191105
-1.068525
-0.03889522
7.36927
3.222273
0.6452441
1.173317
-2.073707
0.7552994
-1.040085
3.006898
-40.00156
1.688413
-0.5528032
1.65522
-53.72001
1.911516
-41.52044
1.444474
1.727564
-0.005706803
-0.2114917
4.253355
-36.66348
-65.81337
0.5842784
0.9676072
2.351684
2.038494
4.397919
3.574805
1.750196
2.634258
1.617561
1.94768
-28.43297
-4.843133
-16.09205
-0.1582073
0.3864334
-1.495691
0.4811142
1.679593
0.3712402
-4.006825
-0.5858252
-2.075001
7.51237
0.7982084
-16.85578
0.8552018
2.271714
-1.942719
-15.29553
2.182917
2.001637
0.1402714
-22.07126
-41.9375
-44.06994
1.606665
-49.86992
2.959407
-3.77058
-3.926711
2.434032
17.16076
-0.5404097
-44.18497
-80.83077
-3.716701
-7.333037
-2.757675
-2.974926
-12.70013
-6.793578
-2.098989
-12.66579
-0.9382229
-17.6609
-0.9562769
1.625371
-1.138518
2.308235
-1.553328
0.2850482
-5.275877
1.487326
0.3089224
-15.86937
2.19655
4.1404
2.863136
3.364956
-37.10616
2.073945
0.232485
2.167487
1.863335
-8.767454
-22.81922
0.8762049
4.034747
-1.996096
1.326504
13.84857
-66.77719
-8.969107
-0.8997621
-0.4962675
21.72975
-4.055818
1.81927
2.34931
1.584933
2.524796
-30.46278
-37.92101
-24.28177
9.754071
7.076265
2.648656
-70.30698
-55.00478
-82.85543
3.240907
-0.620166
1.839405
2.808917
0.5313929
2.314569
0.9321654
3.731098
2.232479
2.363479
2.241703
1.010068
-32.67574
1.474772
3.055448
-0.6471504
-18.57591
20.54619
0.3226671
-23.11355
-41.77722
-5.297394
5.258797
-5.373738
-1.535419
-16.60849
-78.62056
0.5012831
-21.44256
1.321969
-42.8919
-14.43722
-3.235985
0.6530372
-3.038944
2.371356
15.05701
1.109876
0.574397
3.738698
1.175671
2.236031
-0.2782547
0.2777722
2.191167
0.9856992
-55.07912
0.6279387
0.4052846
-4.991163
2.294487
2.285393
-17.23736
-7.130973
-33.28292
2.286998
3.385278
21.969
2.71579
1.152401
-7.298467
1.86501
-69.9919
-1.893592
0.4750642
1.217041
0.9915566
-6.108039
-4.365596
2.392035
-2.167379
0.541624
1.561106
2.159651
24.22868
2.008444
-10.41349
2.190527
-32.47596
1.388038
-87.24088
1.428302
2.248162
4.642204
3.107874
-0.09323687
-64.18722
-74.41494
-96.00953
-1.813272
-14.14207
-70.58783
3.077957
-12.5251
-0.3271786
0.9537838
-33.52148
-43.43212
2.789305
-46.11947
0.1555471
2.816224
0.6946925
-17.14157
9.820424
0.2935023
2.274358
0.7598257
2.745351
-1.186004
14.70384
2.035094
-14.74828
0.7238662
0.7786147
0.5176757
1.068113
-2.442508
-1.138693
2.386444
-10.49007
3.220241
1.136075
-28.52994
1.274244
-0.5685491
-6.613308
-5.516266
2.133983
1.896933
-0.2861016
0.05244979
0.1673148
-79.54795
27.0793
-0.9527523
-1.224473
-1.835725
-38.94563
1.348093
3.369508
-5.294974
2.080916
-0.7868269
0.6403949
2.54418
-43.92689
-1.117813
21.98191
36.93304
1.500573
-0.9090694
0.06318484
2.378514
1.021197
-0.3760151
34.71712
-72.8884
2.531561
6.759436
2.434904
-17.6536
2.040986
0.8963835
4.370795
0.1197921
2.270578
-25.85041
0.5519542
3.105988
-6.314041
0.08254912
-16.97322
-3.655326
0.3394198
-87.01329
27.60406
-40.08106
-0.05669334
-2.720192
0.7430416
0.7826692
3.963888
32.99473
1.821661
-4.059004
-28.59572
2.228376
0.3854306
-10.48941
0.7658149
-4.297162
1.716543
1.995258
20.14694
-17.10419
0.6614497
-2.351169
1.619981
-3.415609
19.52371
3.560343
5.00236
-32.69291
-8.545578
0.901823
0.4442684
20.38198
-0.2063244
-51.49458
3.975221
-5.052168
-0.7181192
2.483626
-25.30958
-18.21979
-0.5581571
-15.35441
-0.6008349
0.6245465
1.802507
1.57949
-72.01133
-22.19426
-1.229613
4.625597
0.1049302
1.808774
2.074892
2.925493
0.1973714
-1.056491
-88.26109
-9.307837
-3.143989
-2.418546
-116.9446
3.457174
3.400517
-13.93069
3.997877
6.479753
2.657356
36.33699
3.487543
0.9651847
2.317182
2.326398
-49.96807
-15.73823
-27.19226
16.03191
1.103429
2.185522
0.4297129
0.5816731
0.4414615
0.5462259
0.2871884
0.883321
-0.007969732
0.004806604
0.6648966
3.038148
12.80421
8.113314
-10.75168
2.151375
-2.49985
-1.949843
2.056181
-11.60197
12.4183
-51.87578
-52.72965
2.18577
0.8318675
-86.59448
43.93296
-100.3342
3.425983
1.282192
5.551481
-8.536175
10.87465
-28.75621
0.6433467
5.059099
-0.2469669
2.659301
0.8723874
-0.8567664
-0.9739713
-40.65336
4.754077
3.044593
-1.545229
0.7324396
-30.63239
-5.088246
-44.97544
2.487616
16.79566
1.43946
2.331463
2.390606
-0.05055455
-88.04425
1.472373
4.014893
33.56209
0.8036971
0.7944955
1.37628
28.89137
8.51299
1.130794
3.572422
-6.650045
1.899122
1.012367
-61.51049
0.5384668
-60.3612
-0.06103028
1.962012
46.16154
3.435411
1.092198
1.6637
3.039908
0.4900604
2.232278
-29.49872
42.77173
2.197583
-0.1767856
46.81461
2.885786
3.956471
2.033477
-26.94721
2.442647
-3.674508
-6.227005
-0.5042741
-4.851475
-87.43441
1.287544
1.276125
0.4983032
0.6974883
20.44531
3.17225
0.4257057
0.8366898
0.4500545
-0.4896159
-0.2600826
-0.2081197
1.205043
0.2257768
2.017974
-10.20358
-37.3212
-1.602669
-14.36409
-42.99599
-1.844402
4.770451
0.1016489
1.529682
4.629026
-49.11004
-6.441445
28.0311
-23.65412
1.143367
-4.389889
1.682805
-0.434184
-28.48474
2.545005
2.414742
-61.82083
2.357636
-0.8618736
2.133977
0.9438617
2.274381
-0.2470021
1.313097
1.334991
0.6470001
1.11839
3.479016
-6.662752
0.02595598
1.924199
2.215167
-41.46515
-15.34955
2.110838
-1.127309
0.5884347
-6.168813
-36.40908
-0.3870706
2.633426
1.733981
2.328205
10.02903
18.19491
0.5567385
1.389088
-0.6557012
-13.79416
-87.08127
-77.9855
1.240504
-3.924887
0.4982636
-4.216405
14.10026
2.597907
-0.6956111
2.444679
0.7402371
-2.227028
3.122335
-17.12451
0.3946646
2.023373
29.49749
3.74981
-4.370146
3.765225
3.496161
3.21192
-26.25616
3.585565
4.051833
1.967803