/*--------------------------------*- C++ -*----------------------------------*\
| =========                 |                                                 |
| \\      /  F ield         | OpenFOAM: The Open Source CFD Toolbox           |
|  \\    /   O peration     | Version:  2406                                  |
|   \\  /    A nd           | Website:  www.openfoam.com                      |
|    \\/     M anipulation  |                                                 |
\*---------------------------------------------------------------------------*/
FoamFile
{
    version     2.0;
    format      ascii;
    arch        "LSB;label=32;scalar=64";
    class       volScalarField;
    location    "3.8";
    object      p;
}
// * * * * * * * * * * * * * * * * * * * * * * * * * * * * * * * * * * * * * //

dimensions      [0 2 -2 0 0 0 0];

internalField   nonuniform List<scalar> 
15536
(
-53.80909
-61.20131
-66.70707
-69.55925
-69.64847
-67.03246
-63.33672
-58.96692
-58.60352
-71.06417
-72.69723
-60.1696
-51.01386
-48.20869
-43.93687
-35.96515
-25.91994
-17.68776
-15.40423
-12.61063
-13.74703
-24.61234
-37.23284
-45.61506
-54.03281
-73.63692
-117.5612
-168.1446
-175.4937
-105.9077
-48.67148
-63.19515
-89.77866
-117.9766
-140.4665
-138.8708
-123.8937
-118.4252
-121.3261
-126.5343
-130.5784
-132.798
-133.2747
-132.5387
-131.1761
-128.9029
-125.8275
-121.8095
-117.4067
-112.7529
-107.4512
-101.6119
-95.17437
-88.40558
-81.24024
-73.75464
-66.30721
-58.79468
-50.94707
-42.9609
-35.14338
-27.49796
-19.90218
-12.4152
-5.177713
1.916853
8.699349
15.13778
21.12761
26.67948
31.75241
36.35329
40.44052
43.9383
46.82397
49.20078
50.93352
52.06734
52.68444
52.791
52.07312
50.72208
48.80433
46.30434
43.24308
39.64334
35.57032
30.94285
25.91632
20.54839
14.69562
8.528889
2.123081
-4.680407
-11.62515
-18.5189
-25.55667
-32.71603
-39.8212
-46.94273
-53.91901
-60.57514
-66.86248
-72.85246
-78.65443
-83.97222
-88.77618
-93.01353
-96.68671
-99.8465
-102.2296
-103.7419
-104.3794
-104.1306
-102.7063
-99.6339
-94.87349
-88.93465
-85.60701
-80.25973
-67.75452
-101.8801
-136.5254
-110.362
-61.29756
-34.38584
-24.46168
-13.45291
5.984316
12.54303
-24.7555
-50.68674
-59.49017
-53.24585
-33.10255
-16.15497
-7.025888
-5.236396
-2.960446
-2.275348
-3.322541
-5.660082
-8.756624
-12.03425
-13.75448
-13.58479
-14.01182
-12.21704
-10.97001
-12.75444
-13.83348
-15.27551
-18.09732
-22.18688
-28.25305
-36.04412
-45.10397
-53.56989
-60.88686
-66.3411
-69.19781
-69.38945
-66.87075
-63.27712
-58.92546
-58.57119
-71.06093
-72.77386
-60.25615
-51.067
-48.21706
-43.9178
-35.96522
-25.91303
-17.64451
-15.33087
-12.57864
-13.80826
-24.6988
-37.25972
-45.51513
-53.83902
-73.38108
-117.2679
-167.9405
-175.8722
-105.9895
-48.5544
-63.37103
-89.94842
-118.1242
-140.5459
-138.7766
-123.8361
-118.338
-120.847
-125.6514
-129.3268
-131.3292
-131.7123
-130.9235
-129.5387
-127.2557
-124.193
-120.1951
-115.8166
-111.2027
-105.9439
-100.1556
-93.77143
-87.06273
-79.96479
-72.54789
-65.1695
-57.73108
-49.96285
-42.05145
-34.30913
-26.73973
-19.21877
-11.80368
-4.632915
2.391385
9.105094
15.48072
21.41282
26.90989
31.93365
36.49093
40.53965
44.0066
46.8658
49.22256
50.94198
52.06751
52.68107
52.78724
52.07485
50.73763
48.83916
46.36374
43.33283
39.76936
35.73754
31.15669
26.18369
20.8698
15.07599
8.975628
2.635103
-4.103041
-10.97768
-17.80009
-24.76795
-31.85428
-38.88717
-45.93776
-52.84513
-59.4334
-65.65691
-71.59161
-77.34388
-82.61276
-87.37613
-91.57701
-95.2226
-98.36767
-100.7451
-102.2684
-102.9303
-102.7373
-101.433
-98.5938
-94.13615
-88.54681
-85.497
-80.15951
-67.69777
-101.6574
-136.6325
-110.45
-61.27215
-34.36599
-24.50901
-13.55166
5.844661
12.65728
-24.9023
-50.79165
-59.36708
-53.182
-33.11919
-16.18796
-7.031162
-5.219756
-2.934892
-2.257231
-3.30922
-5.653078
-8.758115
-12.03799
-13.75514
-13.58714
-14.02959
-12.25579
-10.99036
-12.75472
-13.81495
-15.25969
-18.09641
-22.17699
-28.21584
-35.95625
-44.94833
-53.43965
-60.73993
-66.21136
-69.08353
-69.23213
-66.84369
-63.29641
-58.83209
-58.59649
-71.1785
-72.96947
-60.42305
-51.18103
-48.2697
-43.95173
-36.02546
-26.03214
-17.693
-15.32478
-12.61135
-14.00325
-24.90503
-37.37582
-45.4731
-53.65242
-73.15757
-117.3379
-168.5844
-177.7379
-107.0487
-48.10551
-63.20452
-89.93139
-118.0099
-140.5109
-138.7904
-123.8472
-118.1589
-120.328
-124.7172
-128.2092
-130.2705
-130.717
-129.9463
-128.5981
-126.3422
-123.314
-119.3346
-114.9703
-110.3898
-105.148
-99.39039
-93.03303
-86.36129
-79.30619
-71.90726
-64.5603
-57.16789
-49.42803
-41.54943
-33.84179
-26.31435
-18.83342
-11.44979
-4.323584
2.67014
9.348124
15.69054
21.59083
27.05857
32.05242
36.58264
40.60705
44.05524
46.89319
49.23583
50.94511
52.06281
52.67214
52.77678
52.06974
50.74483
48.86105
46.40322
43.39361
39.85393
35.84954
31.29282
26.35083
21.06971
15.30406
9.238779
2.934939
-3.772859
-10.61125
-17.39166
-24.32644
-31.38046
-38.37171
-45.39968
-52.27422
-58.83519
-65.03326
-70.92867
-76.65272
-81.89001
-86.63351
-90.8142
-94.43915
-97.57036
-99.92491
-101.4169
-102.0495
-101.8239
-100.4331
-97.58798
-93.30149
-88.01368
-84.88799
-79.41795
-67.89286
-101.971
-137.1244
-110.8227
-61.42151
-34.43256
-24.5155
-13.5715
5.800975
12.68444
-25.83159
-51.36159
-59.4316
-53.30214
-33.23998
-16.30939
-7.077394
-5.218275
-2.885137
-2.238739
-3.296229
-5.6487
-8.783696
-12.07297
-13.81798
-13.66593
-14.05413
-12.28365
-11.02156
-12.75441
-13.80803
-15.25175
-18.11094
-22.18326
-28.19772
-35.90163
-44.86437
-53.27322
-60.50374
-65.8938
-68.6598
-68.97589
-66.79317
-63.38602
-58.90465
-58.84707
-71.41938
-73.25923
-60.66317
-51.37253
-48.39496
-44.03019
-36.1359
-26.29591
-17.86821
-15.3555
-12.62138
-14.2926
-25.17189
-37.5319
-45.44672
-53.43397
-72.96758
-117.7013
-169.6768
-180.6509
-109.092
-48.12254
-62.60008
-89.36766
-116.7112
-137.9223
-136.8404
-123.2576
-117.7994
-119.5507
-123.3837
-126.5277
-128.3434
-128.6569
-127.8209
-126.4835
-124.2392
-121.2678
-117.3223
-112.9974
-108.4863
-103.3259
-97.65487
-91.37945
-84.79102
-77.8295
-70.52407
-63.26326
-55.96842
-48.33836
-40.54455
-32.9233
-25.48946
-18.10013
-10.79585
-3.757377
3.160337
9.763227
16.04179
21.87756
27.2856
32.22665
36.71188
40.69692
44.11599
46.92203
49.24594
50.94251
52.05055
52.65477
52.75603
52.0539
50.74619
48.88288
46.44989
43.47215
39.97079
36.01334
31.50057
26.61902
21.39889
15.69213
9.70514
3.474812
-3.16742
-9.913527
-16.60687
-23.46408
-30.42596
-37.32652
-44.26816
-51.05409
-57.51873
-63.6215
-69.44471
-75.09654
-80.24928
-84.92338
-89.02993
-92.60952
-95.70467
-98.02064
-99.49266
-100.138
-99.9948
-98.78672
-96.1321
-92.13334
-87.21804
-83.94413
-78.76547
-69.00622
-102.9345
-137.536
-111.2396
-61.69957
-34.57768
-24.41391
-13.28706
6.063593
12.29036
-27.63822
-52.39922
-59.66064
-53.63779
-33.49546
-16.5405
-7.172499
-5.204169
-2.815757
-2.227091
-3.280334
-5.647255
-8.840474
-12.14007
-13.9279
-13.78855
-13.95471
-12.21141
-11.02334
-12.71767
-13.78455
-15.27077
-18.13319
-22.21289
-28.20176
-35.85853
-44.78389
-53.124
-60.29594
-65.6582
-68.48761
-68.78977
-66.76526
-63.55647
-59.313
-59.47229
-71.71617
-73.66282
-60.99756
-51.65933
-48.63891
-44.22367
-36.35636
-26.70543
-18.12115
-15.32933
-12.45547
-14.51488
-25.40908
-37.56586
-45.36043
-53.25809
-72.89296
-118.3255
-171.2929
-184.159
-111.8619
-49.91909
-62.55143
-88.51508
-113.9671
-132.7532
-132.6568
-121.8541
-117.2354
-118.6454
-122.0535
-124.9664
-126.7863
-127.213
-126.336
-125.0253
-122.7392
-119.8005
-115.8631
-111.5089
-107.0689
-101.9111
-96.28753
-90.0316
-83.49795
-76.60861
-69.33048
-62.1248
-54.92164
-47.36021
-39.61689
-32.06321
-24.7179
-17.4061
-10.15883
-3.205655
3.651963
10.18585
16.40115
22.16839
27.52191
32.41002
36.84825
40.78578
44.17255
46.94359
49.24591
50.92879
52.02558
52.62331
52.7177
52.01971
50.73696
48.90096
46.49654
43.55361
40.09123
36.18299
31.7128
26.89845
21.73608
16.0745
10.17186
4.015501
-2.588478
-9.25421
-15.8623
-22.66362
-29.56154
-36.37682
-43.27221
-50.00262
-56.40971
-62.46192
-68.23125
-73.85873
-78.96318
-83.62484
-87.71054
-91.27533
-94.40913
-96.69137
-98.16481
-98.8089
-98.62337
-97.35757
-94.75228
-90.94802
-86.32604
-83.00808
-78.73722
-71.51796
-103.7248
-136.5614
-110.6666
-61.79943
-34.8516
-24.21875
-12.60521
6.65472
11.38221
-30.39738
-53.98114
-60.1671
-54.29535
-33.90326
-16.90151
-7.280237
-5.072867
-2.714962
-2.229131
-3.264393
-5.655589
-8.943156
-12.26062
-14.08684
-13.88921
-13.73317
-11.99513
-10.9855
-12.62348
-13.74369
-15.30367
-18.17555
-22.27122
-28.24635
-35.85253
-44.74048
-53.00505
-60.1152
-65.44485
-68.16809
-68.57144
-66.72794
-63.78347
-60.01424
-60.41512
-71.93341
-73.92117
-61.39519
-52.04656
-49.06023
-44.59291
-36.77441
-27.25971
-18.45041
-15.08935
-11.90524
-14.44321
-25.38619
-37.35943
-45.14939
-53.23578
-73.022
-119.0515
-173.0732
-187.5009
-115.6651
-54.48708
-64.19465
-88.26587
-111.1202
-127.6274
-128.1562
-119.9855
-116.2666
-117.3096
-120.202
-122.7122
-124.3006
-124.5228
-123.4796
-122.2188
-120.0621
-117.2572
-113.3697
-109.0508
-104.7737
-99.70227
-94.21363
-88.05294
-81.61448
-74.84152
-67.64937
-60.56465
-53.50113
-46.03954
-38.38748
-30.95458
-23.72163
-16.51735
-9.351779
-2.521145
4.258448
10.6935
16.81076
22.50227
27.80152
32.62287
36.99965
40.87053
44.2275
46.95557
49.2272
50.89801
51.98062
52.56926
52.65327
51.96415
50.70757
48.90785
46.53992
43.63991
40.22647
36.37221
31.94563
27.22785
22.14607
16.5215
10.71988
4.693926
-1.853506
-8.424554
-14.90194
-21.60299
-28.41436
-35.11518
-41.91033
-48.53767
-54.83966
-60.77141
-66.44184
-72.00084
-76.98045
-81.56323
-85.53888
-89.01473
-92.05833
-94.26681
-95.63952
-96.28696
-96.27789
-95.18582
-92.7978
-89.3219
-85.11026
-81.93686
-78.83733
-74.29708
-102.1663
-130.3432
-106.7089
-61.1563
-35.20984
-24.09895
-11.85627
7.227569
9.599558
-34.09383
-56.18542
-61.07194
-55.38887
-34.54519
-17.41362
-7.353586
-4.692962
-2.540221
-2.239175
-3.247114
-5.686181
-9.1292
-12.46201
-14.30493
-13.98423
-13.51993
-11.76327
-10.96366
-12.53162
-13.70533
-15.36544
-18.26735
-22.3709
-28.33476
-35.92363
-44.77749
-52.96293
-59.9834
-65.26727
-67.96746
-68.45443
-66.76837
-64.06829
-60.85081
-61.49865
-71.53513
-73.25699
-61.42784
-52.43411
-49.71335
-45.20026
-37.4842
-28.01649
-18.80675
-14.51652
-10.88697
-13.93271
-24.90165
-36.73434
-44.73713
-53.62699
-73.28721
-120.0629
-174.1932
-189.0812
-120.3169
-61.5785
-67.49337
-88.22887
-108.145
-122.6877
-123.8979
-117.9318
-115.0562
-115.854
-118.3397
-120.5354
-122.0362
-122.4172
-121.2858
-120.175
-117.6905
-114.9412
-111.0636
-106.6868
-102.5414
-97.46611
-92.11569
-85.98354
-79.5693
-72.94651
-65.89215
-58.87988
-51.88559
-44.57909
-37.07347
-29.72885
-22.54708
-15.53681
-8.446948
-1.765019
4.937821
11.23429
17.25552
22.93811
28.12212
32.84209
37.13384
40.94263
44.32266
46.9562
49.18913
50.84843
51.90935
52.48729
52.56547
51.89159
50.6298
48.8623
46.54241
43.70024
40.3711
36.58989
32.18574
27.57111
22.62112
17.07711
11.31773
5.395633
-0.9916805
-7.482197
-13.86414
-20.44194
-27.08443
-33.7456
-40.46223
-46.92619
-53.16325
-58.96067
-64.54251
-70.07705
-74.94054
-79.50967
-83.40051
-86.88049
-90.00958
-92.1858
-93.6648
-94.40871
-94.26851
-93.17384
-90.893
-87.67519
-83.81082
-80.83187
-78.60869
-75.98959
-97.3887
-118.6467
-98.95876
-59.77076
-35.67581
-24.0669
-11.45487
7.039338
6.300879
-38.65499
-59.14744
-62.67613
-57.07863
-35.5822
-18.03559
-7.258456
-4.021894
-2.24374
-2.227834
-3.202419
-5.734707
-9.472498
-12.75884
-14.58628
-14.1197
-13.40252
-11.6604
-10.99771
-12.46781
-13.70076
-15.47941
-18.45356
-22.55763
-28.4446
-36.10777
-44.98555
-53.09538
-60.00267
-65.1228
-67.72261
-68.42344
-66.90271
-64.40981
-61.69017
-62.4144
-69.85094
-70.76288
-60.61478
-52.66024
-50.64153
-46.11143
-38.56426
-29.02651
-19.24028
-13.68016
-9.543703
-13.00156
-23.81779
-35.60048
-44.20659
-54.59768
-73.09574
-120.4208
-171.6956
-186.8657
-123.7877
-69.7557
-71.82078
-88.21148
-104.8884
-117.5443
-119.5163
-115.4915
-113.277
-113.6885
-115.7321
-117.5017
-118.6811
-119.1546
-117.5442
-116.4577
-114.3444
-111.718
-108.1317
-103.4494
-99.5532
-94.64016
-89.50271
-83.33349
-77.01597
-70.80871
-63.94122
-56.64994
-49.86126
-43.00187
-35.67718
-28.13087
-21.0948
-14.53167
-7.407526
-0.9626987
5.710602
11.74408
17.87391
23.55117
28.44278
33.02922
37.20704
41.01438
44.4416
46.89676
49.1438
50.77026
51.80347
52.38165
52.46091
51.7615
50.50693
48.74566
46.4832
43.70478
40.47353
36.86898
32.45193
27.91411
23.12699
17.87444
12.16544
6.017666
-0.07668378
-6.231252
-12.73859
-19.2393
-25.44558
-31.96168
-38.95218
-44.97192
-51.21439
-56.83886
-62.24439
-67.77625
-72.39199
-76.99859
-80.64157
-83.99619
-87.15445
-89.16516
-90.47778
-90.98225
-91.26505
-90.36543
-88.29819
-85.45646
-82.0041
-79.41089
-77.78324
-76.41764
-91.83758
-106.2571
-89.9662
-57.91387
-36.88445
-24.57466
-11.47584
5.48289
0.91656
-44.11516
-63.20549
-66.42042
-58.25181
-36.07466
-18.39776
-6.690004
-3.052189
-1.752736
-2.20051
-3.137778
-5.679791
-9.965745
-13.16879
-14.95019
-14.28756
-13.37941
-11.71845
-11.1363
-12.45993
-13.75568
-15.62991
-18.72624
-22.9276
-28.70033
-36.28141
-45.41938
3.208322
2.473768
-47.29622
-8.730029
9.635047
-8.94147
1.897549
-0.3543058
6.494673
0.9936527
-3.561628
-0.5977537
1.740654
1.616374
1.994914
1.770044
-0.8516013
0.3056901
0.4070424
-0.9259864
-21.96412
2.198798
1.070398
0.9333085
1.836552
1.460765
-2.669191
1.249376
-2.563868
1.373529
0.7863699
-32.78048
1.43156
1.878892
0.7572443
-0.7522682
-22.36951
0.3190005
-1.868107
-1.398094
-12.77209
2.928565
2.478752
5.344513
28.91257
1.614704
0.5963895
-0.1628421
-19.11463
1.22096
-8.359954
-4.779959
-18.26266
0.4909262
0.1724052
17.49877
3.146294
0.8436125
-6.467237
-9.188401
1.36179
0.01017476
-2.137268
0.883114
-3.767233
1.412833
-42.7452
1.183686
1.724818
2.008433
1.657253
0.01810266
-7.440809
-17.07352
23.1662
0.9429076
4.632891
0.8418641
1.655194
0.5857651
-8.891783
0.1853224
2.824572
0.8711283
-3.107728
2.463522
1.410463
-1.128183
-2.500745
-17.12315
-8.14147
26.20667
-26.06942
0.544436
2.362718
-0.3376239
-14.52496
7.126049
-76.15162
2.510964
-0.03205447
-0.9970179
0.7918329
-65.75866
0.6046129
-26.44371
0.2269598
2.0258
-8.691835
-7.618144
-1.108014
3.933559
6.021499
8.223447
-31.01251
-0.1350448
0.2507739
1.556319
25.48819
1.828266
2.391474
0.3591964
1.701241
2.039929
2.263797
-4.318502
2.211617
-57.98954
2.172877
1.431844
0.2153674
-12.80242
0.6705319
2.296601
-2.963306
-12.20805
0.1381558
2.644772
0.2022857
0.2943377
-55.65322
2.289735
-47.16072
2.537032
0.183414
0.6891618
-1.528524
-31.97896
1.015354
1.715
1.906659
-28.0971
-50.58588
2.10296
-14.67968
-86.99289
1.390653
0.6984823
0.6027503
-12.72852
0.8065053
-11.67099
-16.53675
-2.666309
1.746447
-9.961591
-12.99849
2.680479
-43.61357
3.178615
2.032934
-19.36256
2.96029
-63.6563
-2.756846
-19.25876
1.230119
2.164494
-56.46722
-4.93344
14.64208
-1.018828
1.668948
1.661088
6.28152
-32.55051
-0.2997355
0.8596324
-19.72609
0.5921485
1.84121
-0.01674499
-1.271737
0.5757511
-1.22746
2.152454
2.195068
2.465101
2.150092
-21.57644
-1.295531
-14.46049
2.795183
-35.25392
0.5133237
-1.054526
-2.295809
1.882334
-3.689347
-1.552718
0.9848587
-1.695539
-10.34373
-4.030996
0.8751464
-13.66937
-5.693502
-0.7780949
12.24926
0.46405
1.830007
-9.618218
2.401105
-11.32076
-0.1214048
-3.44159
1.270515
8.625951
-0.1640222
16.05421
-7.928031
-48.08985
0.4437801
2.764519
-41.68582
1.450169
21.95878
-3.563163
3.112211
2.465013
2.22814
0.5548907
3.12863
-18.01949
0.166344
-11.08991
1.490591
-58.06451
0.3371297
2.74827
-19.15741
2.488839
-1.683189
-0.7644091
2.904447
-14.64055
2.867938
0.3336183
-11.80501
-1.659767
-10.83921
0.1656152
-23.09517
-6.446288
1.72241
1.468739
2.224467
0.9760736
-6.257571
-15.92953
0.5225155
0.6460427
12.54709
1.587528
-1.497139
2.816363
0.6728212
-40.81076
-78.09252
1.812976
1.294486
2.478479
1.564941
1.160698
1.455697
0.8866119
39.67365
1.862542
1.151665
2.303618
-0.943787
2.221779
2.1039
1.312242
-50.71869
0.3161833
-9.886626
0.4424313
1.413425
2.27984
-28.37058
2.012809
-9.13441
-48.89547
2.110285
0.8885708
2.244144
1.537014
1.916069
-1.143424
1.798833
-2.61336
1.754174
1.297071
1.885154
-5.889023
34.58671
-29.61536
-58.29407
-87.71279
1.96428
-3.107742
-2.324788
-2.359122
0.1243653
-5.061532
1.433838
0.2783846
1.558822
-0.236451
19.9618
-0.2948025
-2.72188
-77.32604
1.62854
0.7825136
1.87687
-0.03142836
1.786253
-1.083543
-61.54692
6.257406
2.94991
-1.367226
-6.749049
5.922961
-5.73328
1.801493
-5.086656
0.1467663
-1.994048
0.006190253
12.08353
0.5975138
3.221839
-75.01093
-38.92537
0.4415435
0.6932884
1.429477
0.2363358
-13.0485
-1.719032
1.999075
-0.6649518
1.158315
0.3625809
1.259857
0.4453092
0.2818984
0.6691711
11.18937
-25.05651
1.547308
1.303813
2.557551
0.7509527
1.928278
2.272637
-0.49497
1.3335
0.6549804
1.042684
-20.53231
1.462981
1.44107
0.393978
41.56064
2.117943
1.935228
-15.955
1.978951
3.87936
-88.52902
1.913282
1.440975
2.843836
-1.839605
1.262986
1.57818
1.573562
-1.077633
-17.63893
-1.911475
1.636146
-0.330581
-50.08839
-38.39685
0.4571058
1.104662
0.6762765
0.3414277
2.651415
-0.3164581
1.285669
1.54966
4.347568
-11.66552
0.5661654
-11.13675
-0.9378602
0.9873524
2.767891
1.685379
1.801253
-15.64964
0.6643884
-0.4797123
-12.82526
-5.488752
-14.25126
-0.1507405
-0.7505259
0.760712
1.930247
1.798891
1.68121
-1.498528
0.9078413
-0.8932431
2.463962
2.405141
2.970575
1.512903
-0.2639574
1.020417
-0.962043
-5.271839
-4.474396
1.77129
-0.4246099
-70.05122
1.036264
-16.01059
1.605738
1.216256
-2.657234
4.259766
0.966312
-11.33563
2.393715
-50.03432
-2.027627
1.685554
1.076504
1.80854
29.64449
1.533599
2.142766
1.140595
-5.012707
1.173631
0.7323301
7.3558
-0.7591306
-16.10987
-26.37414
-49.33837
2.264963
1.925455
-33.5064
2.301732
1.222139
1.693378
2.700698
1.643593
-4.661293
15.98647
0.2791163
0.1627668
2.01113
-14.86935
-3.933786
-3.190568
-11.1124
0.3934251
0.8503146
4.424148
1.636934
3.71101
0.6743711
1.74794
0.4833507
-0.8517839
3.069918
0.9406624
-0.4860546
0.0389184
-25.93759
-12.77275
-12.77712
-0.5565007
9.352022
1.372692
1.821835
1.367361
0.3743578
1.913581
2.851865
0.5623244
0.5431929
1.32501
-4.100472
0.9064863
1.451386
1.572937
0.701623
0.9265065
0.532542
0.7730715
-16.90822
-6.407215
-12.13705
0.2712164
4.061823
5.103825
3.840221
0.4491227
1.292865
0.3698444
5.540861
1.090861
2.587709
3.058492
-71.97624
2.107749
4.616048
1.477201
-1.436802
9.493438
1.269531
12.08499
-5.355611
-0.3047444
-8.172386
2.789099
-1.267334
-2.893167
15.70009
-12.54832
0.5800797
1.074809
1.089588
1.609877
0.3210784
1.029645
-0.03932598
2.400468
27.71162
-1.851385
0.8795661
1.018617
2.00402
-47.1287
0.7240608
2.48252
1.809524
1.665653
1.652752
2.309881
1.200105
2.153211
5.53861
0.5523884
-5.303719
-13.69661
0.2932894
0.7977329
-59.3034
0.01963487
1.458438
-33.97271
1.352535
0.3113413
0.9742127
0.4750868
0.4572294
-74.73321
1.060537
1.107467
0.9465563
1.356902
0.278424
1.011519
3.550051
-28.59169
-14.18727
1.810874
-30.10957
-2.142462
5.824638
1.761102
-91.22408
0.9762333
8.190766
-6.8221
1.668079
-4.237639
-3.720856
2.831188
7.900053
1.237739
0.09229026
-6.23688
1.731355
17.94411
3.088985
1.551166
1.752479
0.500149
4.536667
-7.945766
-7.295178
-31.59291
-18.2206
-2.574509
-7.118057
-0.4591683
1.881225
1.26209
0.9047522
-3.508194
0.6060451
-13.66271
2.11224
2.915091
1.315638
-1.962552
0.6786651
25.46876
3.446892
-41.28112
-24.04483
-2.628607
7.497841
0.5135608
-36.5763
0.7127712
-0.1864076
-31.89205
-1.72279
-1.7737
2.300691
2.204725
2.340396
0.09996313
-23.49928
0.1884427
3.295315
-6.607853
0.8671605
0.6750883
-61.9066
-1.726587
0.6800919
-0.2359638
-17.36342
-4.554827
2.161015
10.94549
15.42129
15.8087
2.2943
-15.96356
1.157464
-8.545309
1.577077
0.9176946
2.652742
1.377501
-30.14108
-0.8785853
-26.09512
2.79302
1.783064
0.8697909
-13.30958
2.948621
-0.4584128
-1.993267
-5.122086
-2.704022
-6.895797
-7.608804
5.111493
-6.777044
0.5347266
0.7529074
-30.39443
-6.868847
2.709032
2.327616
2.43825
0.4199588
-7.733451
1.811764
-0.03862238
-24.23387
1.764827
-3.789473
2.111464
0.4525838
1.698766
0.8065757
2.013542
-0.6889196
1.791651
-16.93743
1.06179
0.8418593
-0.7709303
-0.3846515
0.76202
1.625422
1.813936
3.802516
-0.5974024
2.512002
-83.81067
-0.9791817
1.177649
-0.02944579
0.6544372
1.597194
6.475157
1.850947
-38.57561
1.892826
-2.148857
5.312674
-5.338487
-24.83535
-4.711086
-14.36884
0.4557665
-23.51782
-2.866876
-15.39066
-24.25099
-0.6073686
-0.3329529
-2.669795
1.042836
15.18654
3.479865
1.995642
-27.93341
2.529212
0.2696015
0.6603912
-2.666702
22.2062
-13.22463
0.87623
1.445673
-0.9838492
1.485277
0.5730499
-6.219949
1.356478
-0.4179077
1.889611
0.9841479
-5.278756
8.687864
-0.02455384
0.6993091
1.047161
1.876174
1.640631
1.498937
-7.183218
31.06546
0.4649082
0.5817605
2.114244
1.586271
0.5184827
1.247932
-66.79168
1.894362
-22.83439
-12.22272
1.748297
-3.860451
0.6614149
-11.35304
2.34927
0.5486379
0.6787706
1.048942
-13.42482
-66.44828
1.265303
1.53548
-2.698493
1.288393
1.421309
1.135615
-25.30077
-0.2192537
13.2432
0.4484294
1.769345
1.769211
1.68534
3.113975
-2.027241
2.844342
-1.1843
-15.49197
1.872612
9.293153
-11.09067
1.601845
-2.765172
-20.38128
1.668675
1.651453
1.264614
-3.167333
-2.273629
1.630914
1.704145
0.6793028
0.6712978
3.412796
1.740981
-2.453456
33.67835
1.5488
0.4226944
-9.800536
-85.02193
-0.6160439
0.9231195
3.02943
-0.02355647
35.174
1.76741
1.523255
-0.3652819
2.117135
-14.1554
0.4153521
0.6773302
0.76319
-31.08045
-8.310393
0.6904793
-4.166115
-28.76546
0.4519059
0.5836148
0.7460063
-6.510924
4.835502
33.10243
-4.972077
0.1084517
1.808945
-3.170013
-6.006118
7.274743
1.134556
0.7280382
-0.4516805
1.633221
-0.2144456
0.8380184
1.992205
-11.18716
-13.58623
-36.09903
2.487294
2.456491
0.509367
-1.892345
2.345931
-0.8320849
-15.51225
1.520574
1.413386
13.41653
-8.542803
3.841828
2.426654
2.066228
-16.51749
24.75419
-6.655742
1.18467
-5.750864
-5.601371
1.625385
0.4232997
0.8789165
2.62677
2.077365
-41.84927
-6.500071
2.819372
-8.85724
-5.261768
0.1975146
-46.82032
-29.09794
-59.46787
2.248751
-29.56149
3.774949
1.822822
-24.61176
1.896771
1.531412
-17.74345
0.1289788
0.657218
2.03219
3.192116
0.4251785
-46.99483
-19.43075
2.843208
14.2135
2.495263
0.2465607
-34.37658
22.72746
-65.02119
0.1645985
2.051282
1.994922
-19.78282
-9.221641
-4.314356
0.6614764
1.758008
-1.757705
-37.99054
-41.87935
2.13995
1.840625
2.341939
0.5142003
-0.1762588
2.832907
0.7279632
0.5205765
0.4005801
0.326983
0.3923827
-2.717105
0.8119853
-8.615603
2.762229
2.534565
-15.20177
2.646713
1.634276
-3.897894
-17.03501
3.873101
0.3664118
2.379204
-18.08088
-49.41905
32.906
47.60003
3.634279
-0.4691479
-3.529677
5.041342
2.598553
0.2762668
13.41347
-21.81415
2.983964
1.543236
1.593301
2.448575
1.738319
1.586144
3.022613
-29.97008
-46.10907
0.3531788
1.092492
1.651771
2.946979
1.332113
-19.8542
0.6862963
0.8402059
2.261938
-1.948317
0.9155548
0.9557208
-50.80531
-32.5733
2.627254
1.456062
2.456304
3.28593
-5.384601
2.717947
0.2861211
-14.04359
2.449759
-11.13103
-21.55383
2.304566
1.84289
-25.55696
-49.96238
-1.379405
-0.2570097
1.447798
0.5431929
-2.506608
-10.18885
0.8379872
1.604761
1.555718
1.529418
0.8442212
1.082546
2.125638
2.044211
-0.6478244
0.5008513
0.4402401
-1.641291
-2.101678
0.5230905
0.06518487
-1.796663
-0.7688385
0.9477577
3.271945
0.02508188
0.2294014
5.791481
0.1623899
-6.308697
-40.14649
-28.142
1.968934
1.569137
0.2730067
1.604349
-18.91343
-5.523785
-30.55258
-22.03142
24.69947
1.903557
4.443487
-10.19274
-12.94229
0.2359792
3.840413
-30.81374
-2.802208
2.885026
-33.15047
2.484917
3.635258
-0.9032044
0.7669394
-26.50311
2.060559
-61.97562
0.7759632
-4.891252
38.39848
-6.498805
-2.265874
0.854171
1.392369
1.55023
8.456707
1.649607
8.758841
-2.132884
-0.5735303
-12.20413
-0.7512276
0.5379635
0.690167
-25.76418
0.3814593
-49.03121
7.997604
1.711461
11.50404
1.595952
32.51738
-1.875685
-3.155271
1.904794
-1.844842
17.16918
-14.11164
-27.00895
1.676361
0.7452467
1.733793
1.838535
-1.128606
-14.17981
-5.559882
0.5270822
-43.16789
2.055373
22.63935
-57.6287
3.557652
-5.841462
-21.4082
-6.652066
-70.22108
40.73112
4.166889
1.548704
-27.54747
0.7461927
0.3291326
-2.900096
2.419949
-25.36561
-57.70026
-7.756074
2.650876
3.270809
2.495887
0.670305
2.160507
0.1855687
2.48221
2.28107
1.096534
0.6690838
0.7489774
-11.37612
-18.48441
2.254267
0.002587479
0.158015
-54.12946
0.08679224
1.625999
0.587145
3.178994
-47.47438
2.659636
0.1116412
0.9296162
0.7063751
2.047862
-9.86968
0.5903062
1.305867
-31.06008
29.88275
1.055094
0.6363525
2.670733
1.029702
2.27522
1.98599
0.57165
2.010755
2.219755
-6.753693
0.3740601
-9.249201
1.018382
-5.276733
4.160722
2.718172
1.428644
2.177752
-30.23619
-15.02838
-51.51438
-12.48628
0.7287852
1.31687
1.532751
-3.882895
2.12253
-43.38028
0.159974
1.658959
1.100683
-12.50763
0.5999353
-3.266532
3.760851
-69.37875
1.449418
-1.08931
1.667179
-80.55908
1.789688
-24.37527
1.574486
1.720191
1.674854
1.750974
1.923993
-23.35439
-14.66503
0.5269776
0.6149704
-5.84161
2.541612
2.17399
2.438356
4.157432
-2.045356
1.465025
0.5499395
-78.44373
-3.250008
-24.74176
2.148927
2.856575
1.306084
2.269278
1.659184
2.182422
-14.86908
2.05065
0.1030449
12.94806
2.529808
-6.424003
1.641566
1.87729
1.036509
-31.59035
-0.549316
-1.875005
0.1028492
-10.88969
-20.17232
-18.7814
1.636014
-13.21308
0.3274916
-5.322157
0.05030601
-0.8241376
17.11632
1.58281
-16.25486
-60.82197
0.2186222
-0.4372112
1.41861
0.1889612
-0.9330103
-0.4502416
-12.17244
-14.12662
0.6606243
-9.223091
1.696979
1.619858
1.268237
2.927017
1.527261
2.193957
-20.40973
1.528892
2.819254
-7.388746
-1.264629
1.352825
-1.074533
2.372504
-10.75409
-0.1902522
-4.879642
1.441888
1.890555
-5.547707
-5.653616
-8.210677
2.917362
2.473119
1.245582
10.35795
-41.37721
-22.9754
1.849384
1.937694
16.53643
1.591855
0.8014273
0.9845441
-3.495623
2.063768
-57.59985
-20.59774
-11.77563
15.62335
11.72236
2.006013
-28.77026
-34.59498
-54.12698
2.567696
-7.125914
-1.966582
1.822724
0.5536694
1.996309
0.6767466
2.422635
0.9591456
1.404175
1.038556
0.6257217
-18.32698
0.7548006
-0.5375162
2.012317
-12.09341
20.62347
0.2685778
2.897527
-26.0264
-16.54087
12.57101
3.122098
-10.27039
-6.982465
-46.25734
0.7331135
-54.62306
2.501652
-59.52196
-27.22952
-9.468666
2.10566
-12.30547
1.116319
15.28963
0.4362895
0.6022409
2.262317
1.146828
2.350839
0.9419605
1.702536
-0.1536264
2.370273
-22.44492
0.4299369
2.114278
-7.441682
1.135498
1.079133
-7.790067
-13.88772
-50.14415
-1.469723
0.7476068
27.45293
2.1305
2.469624
-41.41559
-2.3718
-10.25953
-6.744642
0.5798743
1.55005
1.597185
-3.643825
-4.564061
1.985223
6.133495
0.461445
1.642902
1.814443
18.11663
4.131328
-22.32577
9.91496
-23.81981
1.543302
-64.46074
1.576956
0.9289313
2.633759
2.309213
-1.677483
-41.62761
-36.81995
-34.83372
0.0143566
-9.173145
-11.2936
0.6983523
-30.82024
2.563544
2.907456
-35.50109
-25.61338
1.786632
-81.64537
2.305317
-6.662638
0.4504619
-13.45639
11.10472
1.560629
-1.131136
2.534643
2.241546
1.408534
18.8083
-1.314636
-6.500037
1.461815
-1.199816
0.4075832
1.317373
-2.434669
1.795972
1.88713
-1.256977
0.2787873
1.055689
-18.91605
0.9000365
-2.237706
-2.683538
-0.8243982
0.7206016
0.6733881
-0.2287936
0.03751536
1.918883
-57.12914
28.7203
-10.25626
0.5619372
0.4010157
-20.18186
1.267546
0.07111821
-17.81311
0.5644134
1.685197
2.286933
-0.145751
-40.52045
1.675985
21.83957
32.88282
3.195059
-2.228791
1.690287
2.106275
2.636186
1.455486
33.28983
-30.04004
2.093017
-1.236345
1.299306
-20.22901
1.72954
1.417392
1.999829
2.878129
1.707369
-18.99477
1.96282
1.121361
-1.487119
-9.547928
-6.621885
0.3343646
0.2551345
-61.70195
32.40569
-12.64937
1.911461
-12.93669
-6.504468
0.588736
1.109675
33.29324
1.487067
-3.04871
-24.97957
-0.8609683
0.3334644
-36.56139
2.39883
1.411236
0.8026198
0.8317541
20.72733
-8.077686
0.9793012
-7.063789
-1.092937
-2.239816
21.74968
3.859183
10.41906
-84.89756
-40.01717
0.6885243
0.3681
-60.50148
0.3569942
-22.79534
-5.256735
-1.733968
4.15742
-0.6048977
-27.63409
-7.400899
7.595332
-21.47005
-10.69021
0.4489442
0.723637
-2.924864
-40.55239
-10.72241
2.149648
3.222975
0.08642338
1.566364
2.700659
1.021083
2.295434
2.652867
-17.82233
-9.759826
0.6958338
0.7986753
0.3385744
0.9107534
1.379608
-4.347101
4.499065
-0.7033392
0.9084704
37.83703
2.316613
1.571753
0.1486991
0.5393773
-8.326412
-30.89641
-46.13565
13.04811
2.937319
0.9948932
2.08442
2.021283
0.3768409
2.54525
0.804467
2.351487
2.330873
2.407725
0.4297994
-0.6959419
12.939
9.842247
-3.050485
2.099119
1.279742
1.354312
1.980587
-15.936
4.563137
-36.2564
-6.789476
0.7897485
0.7652
-57.71711
42.78566
-70.6879
0.9597372
2.977142
4.55651
-4.654341
8.581786
-14.43329
0.4111425
3.946976
1.764544
4.444068
1.652381
-1.60743
2.158594
-20.60839
-0.5864055
0.9721322
1.226184
2.186532
-70.71096
-43.81031
-45.56934
0.9805636
14.82915
-0.00292783
1.205207
1.288436
2.606513
-14.60784
0.6594911
3.902538
29.07163
1.479589
1.939309
1.476413
24.19303
0.07462369
2.928577
3.622316
-7.57417
0.7429766
1.096931
-87.96926
0.6746467
-65.05663
2.881431
-0.1544995
46.79395
-3.243575
1.180615
1.453697
4.633919
0.3219445
2.598465
-37.60182
45.19985
4.110551
-5.02845
46.79098
2.191726
2.609629
1.664128
-13.32017
0.06762495
-2.546893
0.6102453
4.524509
-16.45365
-17.40842
1.555934
1.550728
0.6342046
2.25073
14.51883
-0.2107962
1.887655
1.842553
1.564367
1.778239
1.793884
1.69635
0.7179003
2.097941
-0.4822231
-35.74986
-24.78756
-46.40932
-38.09384
-46.43932
2.12963
-4.264361
2.489329
0.6710033
4.328253
-16.15145
-6.469049
28.35078
-11.84737
2.552505
-6.94403
1.863552
-1.886739
-34.98686
0.5438492
3.193803
-90.94732
2.923628
1.535484
-1.634131
3.070022
1.023635
0.9864855
0.570035
2.572923
0.6058318
1.507954
3.494823
2.127388
1.94975
-1.817747
-0.2020823
-13.87112
-6.242353
0.3942893
0.8081162
0.6954514
-5.939322
-57.18035
3.006308
1.474208
1.47563
0.2557448
7.720644
15.77631
0.6331231
3.070552
3.15814
-5.8613
-35.73291
-28.75846
1.225986
-15.03066
-8.910921
-2.240533
8.215337
-0.7315361
-8.229879
-0.3766569
-1.297535
-5.947627
0.2241611
-5.794563
-6.289685
-1.412587
29.16427
0.4739602
-15.05428
0.311824
-0.2238525
-0.2907011
-48.57627
0.858261
1.389638
-13.1514
-0.3422199
1.905694