# Force and moment coefficients
# dragDir      : (1.0000000e+00 0.0000000e+00 0.0000000e+00)
# sideDir      : (0.0000000e+00 0.0000000e+00 -1.0000000e+00)
# liftDir      : (0.0000000e+00 1.0000000e+00 0.0000000e+00)
# rollAxis     : (1.0000000e+00 0.0000000e+00 0.0000000e+00)
# pitchAxis    : (0.0000000e+00 0.0000000e+00 -1.0000000e+00)
# yawAxis      : (0.0000000e+00 1.0000000e+00 0.0000000e+00)
# magUInf      : 2.0000000e+01
# lRef         : 1.0000000e+00
# Aref         : 7.9000000e-01
# CofR         : (0.0000000e+00 0.0000000e+00 0.0000000e+00)
#
# Time         	Cd             	Cd(f)          	Cd(r)          	Cl             	Cl(f)          	Cl(r)          	CmPitch        	CmRoll         	CmYaw          	Cs             	Cs(f)          	Cs(r)          
0.000240964    	2.6376785e+02	1.3188393e+02	1.3188393e+02	4.8417290e-01	2.4208645e-01	2.4208645e-01	-1.2028606e-09	5.0062653e-17	-2.6569117e-17	-1.8434506e-16	-1.1874164e-16	-6.5603412e-17
0.00051926     	-2.8483786e+00	-1.4241893e+00	-1.4241893e+00	3.4283653e-01	1.7141878e-01	1.7141775e-01	5.1671991e-07	3.6730787e-20	-9.6011886e-20	-2.1979601e-19	-2.0590989e-19	-1.3886119e-20
0.000833466    	2.4947956e-02	1.2473978e-02	1.2473978e-02	-3.8136248e-02	-1.9067736e-02	-1.9068512e-02	3.8782456e-07	-7.4316730e-20	3.2067402e-20	2.7999402e-19	1.7206441e-19	1.0792961e-19
0.00118195     	-1.0901380e-01	-5.4506900e-02	-5.4506900e-02	-6.8925527e-03	-3.4458696e-03	-3.4466832e-03	4.0681501e-07	-5.0098612e-20	1.4020228e-20	1.8602567e-19	1.0703307e-19	7.8992609e-20
0.00153701     	-5.8314110e-02	-2.9157055e-02	-2.9157055e-02	-7.2250262e-03	-3.6120811e-03	-3.6129451e-03	4.3199395e-07	-3.7716650e-20	7.0868803e-21	1.3924919e-19	7.6711477e-20	6.2537717e-20
0.00189206     	-4.7023549e-02	-2.3511775e-02	-2.3511775e-02	-4.5076319e-03	-2.2533648e-03	-2.2542671e-03	4.5115393e-07	-2.9268910e-20	2.0180696e-21	1.0731898e-19	5.5677558e-20	5.1641418e-20
0.00225422     	-3.8096067e-02	-1.9048033e-02	-1.9048033e-02	-2.7902659e-03	-1.3946672e-03	-1.3955987e-03	4.6574996e-07	-2.2386349e-20	-2.0621003e-21	8.1383006e-20	3.8629403e-20	4.2753603e-20
0.00260914     	-3.4807242e-02	-1.7403621e-02	-1.7403621e-02	-1.4819553e-03	-7.4050635e-04	-7.4144898e-04	4.7131397e-07	-1.8073014e-20	-4.6209858e-21	6.5115872e-20	2.7936950e-20	3.7178922e-20
0.00296405     	-2.9095962e-02	-1.4547981e-02	-1.4547981e-02	-8.2307827e-04	-4.1106293e-04	-4.1201534e-04	4.7620162e-07	-1.4289439e-20	-6.7968570e-21	5.0885967e-20	1.8646127e-20	3.2239841e-20
0.00331897     	-2.3789685e-02	-1.1894843e-02	-1.1894843e-02	-5.1684055e-04	-2.5793699e-04	-2.5890356e-04	4.8328712e-07	-1.1304131e-20	-8.4806937e-21	3.9678737e-20	1.1358675e-20	2.8320062e-20
0.00367388     	-1.8599985e-02	-9.2999923e-03	-9.2999923e-03	-1.9043321e-04	-9.4724951e-05	-9.5708258e-05	4.9165373e-07	-8.9261988e-21	-9.7974768e-21	3.0753383e-20	5.5792149e-21	2.5174168e-20
0.0040288      	-1.3903433e-02	-6.9517166e-03	-6.9517166e-03	-2.2299288e-04	-1.1100016e-04	-1.1199272e-04	4.9627899e-07	-7.0243661e-21	-1.0846891e-20	2.3574057e-20	9.4013760e-22	2.2633920e-20
0.00438372     	-9.5774396e-03	-4.7887198e-03	-4.7887198e-03	-3.1448445e-05	-1.5226259e-05	-1.6222186e-05	4.9796341e-07	-5.4980908e-21	-1.1691244e-20	1.7783369e-20	-2.7995596e-21	2.0582928e-20
0.00473863     	-5.6128626e-03	-2.8064313e-03	-2.8064313e-03	-7.1216989e-05	-3.5109900e-05	-3.6107089e-05	4.9859435e-07	-4.2659122e-21	-1.2373522e-20	1.3100493e-20	-5.8232750e-21	1.8923768e-20
0.00509355     	-2.2010137e-03	-1.1005068e-03	-1.1005068e-03	-2.3003389e-04	-1.1451614e-04	-1.1551775e-04	5.0080614e-07	-3.2671062e-21	-1.2931320e-20	9.3025940e-21	-8.2800234e-21	1.7582617e-20
0.00544846     	8.4819686e-04	4.2409843e-04	4.2409843e-04	-4.9736883e-04	-2.4818104e-04	-2.4918779e-04	5.0337634e-07	-2.4604604e-21	-1.3384863e-20	6.2234187e-21	-1.0273154e-20	1.6496573e-20
0.00580338     	3.6499214e-03	1.8249607e-03	1.8249607e-03	-9.3200985e-04	-4.6549898e-04	-4.6651087e-04	5.0594463e-07	-1.8072567e-21	-1.3752406e-20	3.7382089e-21	-1.1883302e-20	1.5621511e-20
0.00615829     	6.0325584e-03	3.0162792e-03	3.0162792e-03	-1.2426213e-03	-6.2080331e-04	-6.2181800e-04	5.0734783e-07	-1.2747266e-21	-1.4045975e-20	1.7468859e-21	-1.3172533e-20	1.4919418e-20
0.00651321     	8.0545154e-03	4.0272577e-03	4.0272577e-03	-1.6607606e-03	-8.2987337e-04	-8.3088725e-04	5.0694421e-07	-8.4553806e-22	-1.4284252e-20	1.3998164e-22	-1.4214261e-20	1.4354242e-20
0.00686812     	9.9729188e-03	4.9864594e-03	4.9864594e-03	-2.1172887e-03	-1.0581395e-03	-1.0591492e-03	5.0488093e-07	-5.0205632e-22	-1.4469311e-20	-1.1340334e-21	-1.5036328e-20	1.3902295e-20
0.00722304     	1.1849721e-02	5.9248607e-03	5.9248607e-03	-2.5849574e-03	-1.2919778e-03	-1.2929795e-03	5.0084903e-07	-2.3232319e-22	-1.4610735e-20	-2.1340563e-21	-1.5677763e-20	1.3543707e-20
0.00757796     	1.3359181e-02	6.6795905e-03	6.6795905e-03	-2.9081658e-03	-1.4535878e-03	-1.4545780e-03	4.9512272e-07	-2.0946087e-23	-1.4719160e-20	-2.9018223e-21	-1.6170071e-20	1.3268249e-20
0.00793287     	1.4755514e-02	7.3777570e-03	7.3777570e-03	-3.2426999e-03	-1.6208620e-03	-1.6218379e-03	4.8796426e-07	1.4040123e-22	-1.4798056e-20	-3.4808288e-21	-1.6538470e-20	1.3057641e-20
0.00828779     	1.6016789e-02	8.0083946e-03	8.0083946e-03	-3.4178589e-03	-1.7084498e-03	-1.7094091e-03	4.7964576e-07	2.5269837e-22	-1.4850578e-20	-3.8993336e-21	-1.6800245e-20	1.2900911e-20
0.0086427      	1.7153419e-02	8.5767095e-03	8.5767095e-03	-3.5899275e-03	-1.7944928e-03	-1.7954346e-03	4.7089686e-07	3.2683399e-22	-1.4880820e-20	-4.1760671e-21	-1.6968854e-20	1.2792786e-20
0.00899762     	1.8042135e-02	9.0210677e-03	9.0210677e-03	-3.7556323e-03	-1.8773539e-03	-1.8782783e-03	4.6219814e-07	3.7225388e-22	-1.4897986e-20	-4.3486937e-21	-1.7072333e-20	1.2723639e-20
0.00935253     	1.8855142e-02	9.4275708e-03	9.4275708e-03	-3.8792235e-03	-1.9391582e-03	-1.9400653e-03	4.5355743e-07	3.9041440e-22	-1.4900003e-20	-4.4229440e-21	-1.7111475e-20	1.2688531e-20
0.00970745     	1.9472340e-02	9.7361699e-03	9.7361699e-03	-3.9211381e-03	-1.9601243e-03	-1.9610138e-03	4.4475980e-07	3.8732824e-22	-1.4890170e-20	-4.4135626e-21	-1.7096951e-20	1.2683388e-20
0.0100624      	1.9962500e-02	9.9812500e-03	9.9812500e-03	-3.9134209e-03	-1.9562743e-03	-1.9571466e-03	4.3617509e-07	3.6228544e-22	-1.4869363e-20	-4.3246202e-21	-1.7031673e-20	1.2707052e-20
0.0104173      	2.0343065e-02	1.0171532e-02	1.0171532e-02	-3.8979278e-03	-1.9485356e-03	-1.9493922e-03	4.2827871e-07	3.2066268e-22	-1.4841865e-20	-4.1799777e-21	-1.6931854e-20	1.2751876e-20
0.0107722      	2.0670361e-02	1.0335181e-02	1.0335181e-02	-3.8049927e-03	-1.9020752e-03	-1.9029175e-03	4.2114417e-07	2.6687925e-22	-1.4808345e-20	-3.9896934e-21	-1.6803192e-20	1.2813498e-20
0.0111271      	2.0892567e-02	1.0446283e-02	1.0446283e-02	-3.7198144e-03	-1.8594924e-03	-1.8603220e-03	4.1482447e-07	2.0313186e-22	-1.4769549e-20	-3.7606551e-21	-1.6649876e-20	1.2889221e-20
0.011482       	2.1027224e-02	1.0513612e-02	1.0513612e-02	-3.5976990e-03	-1.7984401e-03	-1.7992588e-03	4.0935295e-07	1.3097599e-22	-1.4727283e-20	-3.5013413e-21	-1.6477954e-20	1.2976613e-20
0.0118369      	2.1104000e-02	1.0552000e-02	1.0552000e-02	-3.4635510e-03	-1.7313708e-03	-1.7321802e-03	4.0469655e-07	5.0996692e-23	-1.4681212e-20	-3.2140298e-21	-1.6288227e-20	1.3074197e-20
0.0121919      	2.1116360e-02	1.0558180e-02	1.0558180e-02	-3.2995476e-03	-1.6493730e-03	-1.6501746e-03	4.0079990e-07	-3.4370279e-23	-1.4632528e-20	-2.9038164e-21	-1.6084437e-20	1.3180620e-20
0.0125468      	2.1068310e-02	1.0534155e-02	1.0534155e-02	-3.1129438e-03	-1.5560744e-03	-1.5568694e-03	3.9749996e-07	-1.2574408e-22	-1.4581044e-20	-2.5747234e-21	-1.5868406e-20	1.3293682e-20
0.0129017      	2.0949497e-02	1.0474748e-02	1.0474748e-02	-2.9270674e-03	-1.4631389e-03	-1.4639285e-03	3.9480091e-07	-2.2037199e-22	-1.4528746e-20	-2.2347347e-21	-1.5646114e-20	1.3411379e-20
0.0132566      	2.0805565e-02	1.0402783e-02	1.0402783e-02	-2.7187177e-03	-1.3589663e-03	-1.3597514e-03	3.9252030e-07	-3.1769746e-22	-1.4474801e-20	-1.8840181e-21	-1.5416810e-20	1.3532792e-20
0.0136115      	2.0619965e-02	1.0309982e-02	1.0309982e-02	-2.5303399e-03	-1.2647795e-03	-1.2655604e-03	3.9048488e-07	-4.1888986e-22	-1.4420786e-20	-1.5254456e-21	-1.5183509e-20	1.3658063e-20
0.0139664      	2.0442943e-02	1.0221471e-02	1.0221471e-02	-2.2957639e-03	-1.1474936e-03	-1.1482704e-03	3.8840119e-07	-5.2295390e-22	-1.4364930e-20	-1.1580447e-21	-1.4943953e-20	1.3785908e-20
0.0143214      	2.0270346e-02	1.0135173e-02	1.0135173e-02	-2.0784814e-03	-1.0388554e-03	-1.0396260e-03	3.8534190e-07	-6.2843164e-22	-1.4308402e-20	-7.8591230e-22	-1.4701358e-20	1.3915446e-20
0.0146763      	2.0112656e-02	1.0056328e-02	1.0056328e-02	-1.8722183e-03	-9.3572819e-04	-9.3649014e-04	3.8097429e-07	-7.3359067e-22	-1.4250624e-20	-4.1359295e-22	-1.4457421e-20	1.4043828e-20
0.0150312      	1.9891792e-02	9.9458962e-03	9.9458962e-03	-1.6634549e-03	-8.3135209e-04	-8.3210278e-04	3.7534501e-07	-8.3911740e-22	-1.4194220e-20	-4.3984186e-23	-1.4216212e-20	1.4172228e-20
0.0153861      	1.9667329e-02	9.8336645e-03	9.8336645e-03	-1.4596691e-03	-7.2946604e-04	-7.3020303e-04	3.6849894e-07	-9.4439658e-22	-1.4136890e-20	3.2712189e-22	-1.3973329e-20	1.4300451e-20
0.015741       	1.9465919e-02	9.7329597e-03	9.7329597e-03	-1.2525188e-03	-6.2589888e-04	-6.2661991e-04	3.6051528e-07	-1.0493536e-21	-1.4080384e-20	6.9490902e-22	-1.3732930e-20	1.4427839e-20
0.0160959      	1.9244171e-02	9.6220856e-03	9.6220856e-03	-1.0701804e-03	-5.3473871e-04	-5.3544165e-04	3.5147018e-07	-1.1533492e-21	-1.4024501e-20	1.0591452e-21	-1.3494928e-20	1.4554073e-20
0.0164508      	1.9030218e-02	9.5151088e-03	9.5151088e-03	-9.2183274e-04	-4.6057492e-04	-4.6125782e-04	3.4144940e-07	-1.2576029e-21	-1.3969008e-20	1.4196827e-21	-1.3259167e-20	1.4678849e-20
0.0168058      	1.8828625e-02	9.4143125e-03	9.4143125e-03	-7.9598594e-04	-3.9766242e-04	-3.9832353e-04	3.3055455e-07	-1.3601205e-21	-1.3913639e-20	1.7768229e-21	-1.3025228e-20	1.4802050e-20
0.0171607      	1.8599594e-02	9.2997968e-03	9.2997968e-03	-6.6583109e-04	-3.3259664e-04	-3.3323445e-04	3.1890433e-07	-1.4609298e-21	-1.3859682e-20	2.1283678e-21	-1.2795498e-20	1.4923866e-20
0.0175156      	1.8385899e-02	9.1929494e-03	9.1929494e-03	-5.2954511e-04	-2.6446578e-04	-2.6507933e-04	3.0677308e-07	-1.5598518e-21	-1.3806198e-20	2.4740822e-21	-1.2569157e-20	1.5043239e-20
0.0178705      	1.8149229e-02	9.0746146e-03	9.0746146e-03	-4.1305684e-04	-2.0623405e-04	-2.0682279e-04	2.9437077e-07	-1.6565640e-21	-1.3753378e-20	2.8133696e-21	-1.2346693e-20	1.5160063e-20
0.0182254      	1.7978318e-02	8.9891589e-03	8.9891589e-03	-3.3127734e-04	-1.6535685e-04	-1.6592049e-04	2.8182312e-07	-1.7512047e-21	-1.3700677e-20	3.1451984e-21	-1.2128078e-20	1.5273276e-20
0.0185803      	1.7820075e-02	8.9100374e-03	8.9100374e-03	-2.9086568e-04	-1.4516334e-04	-1.4570233e-04	2.6949564e-07	-1.8429917e-21	-1.3649557e-20	3.4679028e-21	-1.1915605e-20	1.5383508e-20
0.0189353      	1.7632366e-02	8.8161828e-03	8.8161828e-03	-1.9808976e-04	-9.8787099e-05	-9.9302661e-05	2.5778101e-07	-1.9322098e-21	-1.3599734e-20	3.7820545e-21	-1.1708707e-20	1.5490761e-20
0.0192902      	1.7430313e-02	8.7151567e-03	8.7151567e-03	-1.2318639e-04	-6.1346147e-05	-6.1840243e-05	2.4704828e-07	-2.0193201e-21	-1.3551686e-20	4.0887356e-21	-1.1507318e-20	1.5596054e-20
0.0196451      	1.7233958e-02	8.6169792e-03	8.6169792e-03	-7.2641811e-05	-3.6083556e-05	-3.6558255e-05	2.3734979e-07	-2.1028899e-21	-1.3505419e-20	4.3820641e-21	-1.1314387e-20	1.5696451e-20
0.02           	1.7012496e-02	8.5062481e-03	8.5062481e-03	1.2537752e-05	6.4974796e-06	6.0402725e-06	2.2860358e-07	-2.1854936e-21	-1.3461415e-20	4.6708403e-21	-1.1125995e-20	1.5796835e-20
0.0203571      	1.6850462e-02	8.4252310e-03	8.4252310e-03	9.6383676e-05	4.8412593e-05	4.7971083e-05	2.2075513e-07	-2.2643964e-21	-1.3418215e-20	4.9473508e-21	-1.0944539e-20	1.5891890e-20
0.0207143      	1.6679347e-02	8.3396735e-03	8.3396735e-03	1.7129553e-04	8.5861665e-05	8.5433863e-05	2.1390093e-07	-2.3427220e-21	-1.3376233e-20	5.2216494e-21	-1.0765409e-20	1.5987058e-20
0.0210714      	1.6501783e-02	8.2508916e-03	8.2508916e-03	2.3091280e-04	1.1566445e-04	1.1524835e-04	2.0804701e-07	-2.4185898e-21	-1.3335302e-20	5.4871871e-21	-1.0591709e-20	1.6078896e-20
0.0214286      	1.6303296e-02	8.1516478e-03	8.1516478e-03	2.6796651e-04	1.3418644e-04	1.3378007e-04	2.0318405e-07	-2.4924530e-21	-1.3295139e-20	5.7457248e-21	-1.0422276e-20	1.6168001e-20
0.0217857      	1.6120597e-02	8.0602983e-03	8.0602983e-03	3.1169184e-04	1.5604520e-04	1.5564663e-04	1.9928563e-07	-2.5642100e-21	-1.3256579e-20	5.9971341e-21	-1.0258012e-20	1.6255146e-20
0.0221429      	1.5949082e-02	7.9745409e-03	7.9745409e-03	3.6676281e-04	1.8357771e-04	1.8318510e-04	1.9630614e-07	-2.6341655e-21	-1.3219155e-20	6.2415822e-21	-1.0098364e-20	1.6339946e-20
0.0225         	1.5769549e-02	7.8847744e-03	7.8847744e-03	4.2282033e-04	2.1160436e-04	2.1121597e-04	1.9419373e-07	-2.7020755e-21	-1.3183185e-20	6.4784741e-21	-9.9439477e-21	1.6422422e-20
0.0228571      	1.5602266e-02	7.8011328e-03	7.8011328e-03	4.5606449e-04	2.2822508e-04	2.2783941e-04	1.9283697e-07	-2.7676268e-21	-1.3148038e-20	6.7095105e-21	-9.7932831e-21	1.6502794e-20
0.0232143      	1.5461897e-02	7.7309487e-03	7.7309487e-03	4.9142318e-04	2.4590363e-04	2.4551955e-04	1.9203841e-07	-2.8311929e-21	-1.3113103e-20	6.9357607e-21	-9.6452225e-21	1.6580983e-20
0.0235714      	1.5294908e-02	7.6474538e-03	7.6474538e-03	5.7839313e-04	2.8938825e-04	2.8900487e-04	1.9169118e-07	-2.8945726e-21	-1.3081201e-20	7.1507105e-21	-9.5058453e-21	1.6656556e-20
0.0239286      	1.5157051e-02	7.5785255e-03	7.5785255e-03	6.2209298e-04	3.1123823e-04	3.1085475e-04	1.9174344e-07	-2.9545863e-21	-1.3048722e-20	7.3620818e-21	-9.3676810e-21	1.6729763e-20
0.0242857      	1.5023685e-02	7.5118424e-03	7.5118424e-03	6.4846170e-04	3.2442295e-04	3.2403874e-04	1.9210529e-07	-3.0120796e-21	-1.3016822e-20	7.5676320e-21	-9.2330057e-21	1.6800638e-20
0.0246429      	1.4897613e-02	7.4488064e-03	7.4488064e-03	6.9947338e-04	3.4992939e-04	3.4954399e-04	1.9269847e-07	-3.0680988e-21	-1.2985656e-20	7.7673790e-21	-9.1019662e-21	1.6869345e-20
0.025          	1.4765957e-02	7.3829783e-03	7.3829783e-03	7.3614622e-04	3.6826657e-04	3.6787965e-04	1.9345567e-07	-3.1215506e-21	-1.2955557e-20	7.9609065e-21	-8.9751041e-21	1.6936011e-20
0.0253571      	1.4606599e-02	7.3032995e-03	7.3032995e-03	7.6140236e-04	3.8089551e-04	3.8050685e-04	1.9432903e-07	-3.1744115e-21	-1.2925973e-20	8.1525759e-21	-8.8496853e-21	1.7002261e-20
0.0257143      	1.4473289e-02	7.2366444e-03	7.2366444e-03	8.1574043e-04	4.0806548e-04	4.0767495e-04	1.9526263e-07	-3.2262524e-21	-1.2896765e-20	8.3386676e-21	-8.7274314e-21	1.7066099e-20
0.0260714      	1.4367089e-02	7.1835443e-03	7.1835443e-03	8.4601336e-04	4.2320291e-04	4.2281045e-04	1.9622796e-07	-3.2756698e-21	-1.2868040e-20	8.5167550e-21	-8.6096623e-21	1.7126417e-20
0.0264286      	1.4272186e-02	7.1360928e-03	7.1360928e-03	8.7710007e-04	4.3874723e-04	4.3835283e-04	1.9720191e-07	-3.3234633e-21	-1.2839984e-20	8.6886061e-21	-8.4956809e-21	1.7184287e-20
0.0267857      	1.4160501e-02	7.0802506e-03	7.0802506e-03	9.0753571e-04	4.5396603e-04	4.5356968e-04	1.9817642e-07	-3.3708484e-21	-1.2812543e-20	8.8580499e-21	-8.3835185e-21	1.7241568e-20
0.0271429      	1.4070176e-02	7.0350880e-03	7.0350880e-03	9.3117222e-04	4.6578519e-04	4.6538703e-04	1.9908331e-07	-3.4166833e-21	-1.2785331e-20	9.0219033e-21	-8.2743790e-21	1.7296282e-20
0.0275         	1.3985118e-02	6.9925588e-03	6.9925588e-03	9.5780202e-04	4.7910093e-04	4.7870109e-04	1.9992237e-07	-3.4612674e-21	-1.2758002e-20	9.1812453e-21	-8.1673796e-21	1.7348625e-20
0.0278571      	1.3887065e-02	6.9435324e-03	6.9435324e-03	9.7228863e-04	4.8634498e-04	4.8594365e-04	2.0066759e-07	-3.5046466e-21	-1.2731715e-20	9.3339483e-21	-8.0647406e-21	1.7398689e-20
0.0282143      	1.3820653e-02	6.9103263e-03	6.9103263e-03	1.0071425e-03	5.0377273e-04	5.0336974e-04	2.0149553e-07	-3.5473594e-21	-1.2706222e-20	9.4829403e-21	-7.9647516e-21	1.7447692e-20
0.0285714      	1.3745943e-02	6.8729715e-03	6.8729715e-03	1.0411219e-03	5.2076346e-04	5.2035841e-04	2.0252707e-07	-3.5883297e-21	-1.2682201e-20	9.6242861e-21	-7.8700583e-21	1.7494344e-20
0.0289286      	1.3650385e-02	6.8251927e-03	6.8251927e-03	1.0688359e-03	5.3462176e-04	5.3421413e-04	2.0381156e-07	-3.6295034e-21	-1.2657804e-20	9.7658890e-21	-7.7748594e-21	1.7540748e-20
0.0292857      	1.3576182e-02	6.7880909e-03	6.7880909e-03	1.0966036e-03	5.4850673e-04	5.4809691e-04	2.0491201e-07	-3.6687571e-21	-1.2634117e-20	9.9009047e-21	-7.6836652e-21	1.7584570e-20
0.0296429      	1.3501887e-02	6.7509436e-03	6.7509436e-03	1.1164331e-03	5.5842227e-04	5.5801079e-04	2.0573670e-07	-3.7069578e-21	-1.2611391e-20	1.0030813e-20	-7.5959850e-21	1.7626798e-20
0.03           	1.3421490e-02	6.7107448e-03	6.7107448e-03	1.1516739e-03	5.7604330e-04	5.7563061e-04	2.0634536e-07	-3.7450589e-21	-1.2589335e-20	1.0159262e-20	-7.5097035e-21	1.7668966e-20
0.0303571      	1.3347674e-02	6.6738372e-03	6.6738372e-03	1.1764711e-03	5.8844249e-04	5.8802865e-04	2.0692122e-07	-3.7818327e-21	-1.2567979e-20	1.0282596e-20	-7.4266810e-21	1.7709277e-20
0.0307143      	1.3263661e-02	6.6318304e-03	6.6318304e-03	1.2128220e-03	6.0661846e-04	6.0620355e-04	2.0745956e-07	-3.8178786e-21	-1.2547680e-20	1.0401930e-20	-7.3467151e-21	1.7748645e-20
0.0310714      	1.3190371e-02	6.5951857e-03	6.5951857e-03	1.2297148e-03	6.1506532e-04	6.1464952e-04	2.0789767e-07	-3.8524793e-21	-1.2527511e-20	1.0516965e-20	-7.2690283e-21	1.7785993e-20
0.0314286      	1.3119331e-02	6.5596655e-03	6.5596655e-03	1.2413198e-03	6.2086790e-04	6.2045186e-04	2.0802079e-07	-3.8863290e-21	-1.2507790e-20	1.0629377e-20	-7.1931021e-21	1.7822479e-20
0.0317857      	1.3051244e-02	6.5256218e-03	6.5256218e-03	1.2671653e-03	6.3379041e-04	6.3337492e-04	2.0774083e-07	-3.9197187e-21	-1.2488659e-20	1.0739105e-20	-7.1191068e-21	1.7858212e-20
0.0321429      	1.2998535e-02	6.4992674e-03	6.4992674e-03	1.3146085e-03	6.5751149e-04	6.5709702e-04	2.0723507e-07	-3.9530415e-21	-1.2469884e-20	1.0847138e-20	-7.0463147e-21	1.7893452e-20
0.0325         	1.2939482e-02	6.4697409e-03	6.4697409e-03	1.3464437e-03	6.7342831e-04	6.7301537e-04	2.0646745e-07	-3.9849038e-21	-1.2451677e-20	1.0952140e-20	-6.9756073e-21	1.7927747e-20
0.0328571      	1.2879952e-02	6.4399762e-03	6.4399762e-03	1.3902441e-03	6.9532739e-04	6.9491671e-04	2.0534006e-07	-4.0161081e-21	-1.2433377e-20	1.1055372e-20	-6.9056911e-21	1.7961063e-20
0.0332143      	1.2818140e-02	6.4090700e-03	6.4090700e-03	1.4044930e-03	7.0245041e-04	7.0204260e-04	2.0390376e-07	-4.0461171e-21	-1.2416417e-20	1.1153739e-20	-6.8395476e-21	1.7993287e-20
0.0335714      	1.2754523e-02	6.3772616e-03	6.3772616e-03	1.4273783e-03	7.1389126e-04	7.1348706e-04	2.0209960e-07	-4.0752722e-21	-1.2399688e-20	1.1250283e-20	-6.7745463e-21	1.8024829e-20
0.0339286      	1.2714133e-02	6.3570667e-03	6.3570667e-03	1.4381748e-03	7.1928751e-04	7.1888728e-04	2.0011463e-07	-4.1035783e-21	-1.2383478e-20	1.1345213e-20	-6.7108717e-21	1.8056085e-20
0.0342857      	1.2660684e-02	6.3303419e-03	6.3303419e-03	1.4513863e-03	7.2589106e-04	7.2549521e-04	1.9792615e-07	-4.1309193e-21	-1.2367880e-20	1.1437168e-20	-6.6492957e-21	1.8086464e-20
0.0346429      	1.2613416e-02	6.3067080e-03	6.3067080e-03	1.4675187e-03	7.3395519e-04	7.3356350e-04	1.9584140e-07	-4.1583742e-21	-1.2352855e-20	1.1527060e-20	-6.5893251e-21	1.8116386e-20
0.035          	1.2556937e-02	6.2784683e-03	6.2784683e-03	1.4672554e-03	7.3382164e-04	7.3343372e-04	1.9396032e-07	-4.1845935e-21	-1.2338488e-20	1.1614515e-20	-6.5312309e-21	1.8145746e-20
0.0353571      	1.2514769e-02	6.2573844e-03	6.2573844e-03	1.4704528e-03	7.3541870e-04	7.3503412e-04	1.9229069e-07	-4.2100444e-21	-1.2324186e-20	1.1700597e-20	-6.4738876e-21	1.8174485e-20
0.0357143      	1.2486694e-02	6.2433470e-03	6.2433470e-03	1.4782242e-03	7.3930297e-04	7.3892128e-04	1.9084645e-07	-4.2348400e-21	-1.2309959e-20	1.1785594e-20	-6.4171619e-21	1.8202756e-20
0.0360714      	1.2465678e-02	6.2328391e-03	6.2328391e-03	1.4877057e-03	7.4404242e-04	7.4366329e-04	1.8956250e-07	-4.2591016e-21	-1.2296331e-20	1.1868753e-20	-6.3619548e-21	1.8230708e-20
0.0364286      	1.2436608e-02	6.2183038e-03	6.2183038e-03	1.4874376e-03	7.4390716e-04	7.4353045e-04	1.8835391e-07	-4.2825863e-21	-1.2282843e-20	1.1949984e-20	-6.3078516e-21	1.8257835e-20
0.0367857      	1.2409774e-02	6.2048868e-03	6.2048868e-03	1.4868789e-03	7.4362672e-04	7.4325220e-04	1.8725925e-07	-4.3055773e-21	-1.2270092e-20	1.2028525e-20	-6.2558292e-21	1.8284354e-20
0.0371429      	1.2418133e-02	6.2090667e-03	6.2090667e-03	1.5030379e-03	7.5170531e-04	7.5133259e-04	1.8636015e-07	-4.3281749e-21	-1.2256914e-20	1.2107219e-20	-6.2033046e-21	1.8310523e-20
0.0375         	1.2408851e-02	6.2044256e-03	6.2044256e-03	1.4981475e-03	7.4925943e-04	7.4888804e-04	1.8569717e-07	-4.3499023e-21	-1.2244621e-20	1.2182632e-20	-6.1533046e-21	1.8335937e-20
0.0378571      	1.2396223e-02	6.1981115e-03	6.1981115e-03	1.5015961e-03	7.5098378e-04	7.5061233e-04	1.8572598e-07	-4.3715860e-21	-1.2232671e-20	1.2257393e-20	-6.1039745e-21	1.8361368e-20
0.0382143      	1.2400335e-02	6.2001674e-03	6.2001674e-03	1.5127112e-03	7.5654213e-04	7.5616911e-04	1.8651161e-07	-4.3928441e-21	-1.2220878e-20	1.2330436e-20	-6.0556599e-21	1.8386096e-20
0.0385714      	1.2411137e-02	6.2055685e-03	6.2055685e-03	1.5199294e-03	7.6015250e-04	7.5977694e-04	1.8778371e-07	-4.4136566e-21	-1.2209402e-20	1.2401705e-20	-6.0085491e-21	1.8410254e-20
0.0389286      	1.2400812e-02	6.2004062e-03	6.2004062e-03	1.5143146e-03	7.5734676e-04	7.5696789e-04	1.8943575e-07	-4.4332900e-21	-1.2199209e-20	1.2469024e-20	-5.9646967e-21	1.8433721e-20
0.0392857      	1.2402933e-02	6.2014664e-03	6.2014664e-03	1.5137902e-03	7.5708656e-04	7.5670369e-04	1.9143524e-07	-4.4526247e-21	-1.2188854e-20	1.2536002e-20	-5.9208530e-21	1.8456855e-20
0.0396429      	1.2399971e-02	6.1999855e-03	6.1999855e-03	1.5133621e-03	7.5687485e-04	7.5648727e-04	1.9379172e-07	-4.4714179e-21	-1.2178966e-20	1.2601046e-20	-5.8784435e-21	1.8479489e-20
0.04           	1.2402690e-02	6.2013449e-03	6.2013449e-03	1.5132081e-03	7.5680057e-04	7.5640754e-04	1.9651432e-07	-4.4896018e-21	-1.2169376e-20	1.2664330e-20	-5.8372112e-21	1.8501541e-20
0.0403704      	1.2415571e-02	6.2077855e-03	6.2077855e-03	1.5223311e-03	7.6136589e-04	7.6096526e-04	2.0031708e-07	-4.5055797e-21	-1.2159555e-20	1.2720866e-20	-5.7991222e-21	1.8519988e-20
0.0407407      	1.2405371e-02	6.2026857e-03	6.2026857e-03	1.5134857e-03	7.5694821e-04	7.5653749e-04	2.0535893e-07	-4.5243941e-21	-1.2149870e-20	1.2788413e-20	-5.7556640e-21	1.8544077e-20
0.0411111      	1.2410727e-02	6.2053636e-03	6.2053636e-03	1.5124983e-03	7.5646076e-04	7.5603756e-04	2.1160132e-07	-4.5420793e-21	-1.2140579e-20	1.2851247e-20	-5.7149561e-21	1.8566203e-20
0.0414815      	1.2417703e-02	6.2088515e-03	6.2088515e-03	1.5142337e-03	7.5733584e-04	7.5689788e-04	2.1898175e-07	-4.5595428e-21	-1.2131433e-20	1.2913141e-20	-5.6748628e-21	1.8588004e-20
0.0418519      	1.2424299e-02	6.2121495e-03	6.2121495e-03	1.5149678e-03	7.5771088e-04	7.5725697e-04	2.2695899e-07	-4.5766981e-21	-1.2122658e-20	1.2973199e-20	-5.6360581e-21	1.8609257e-20
0.0422222      	1.2433374e-02	6.2166869e-03	6.2166869e-03	1.5124076e-03	7.5643935e-04	7.5596827e-04	2.3553970e-07	-4.5931564e-21	-1.2114101e-20	1.3031514e-20	-5.5983440e-21	1.8629858e-20
0.0425926      	1.2443413e-02	6.2217064e-03	6.2217064e-03	1.5155213e-03	7.5800534e-04	7.5751597e-04	2.4468813e-07	-4.6093573e-21	-1.2105848e-20	1.3088792e-20	-5.5614522e-21	1.8650244e-20
0.042963       	1.2450032e-02	6.2250159e-03	6.2250159e-03	1.5216484e-03	7.6107867e-04	7.6056976e-04	2.5445464e-07	-4.6254088e-21	-1.2097903e-20	1.3145199e-20	-5.5253036e-21	1.8670502e-20
0.0433333      	1.2498063e-02	6.2490313e-03	6.2490313e-03	1.5273659e-03	7.6394841e-04	7.6341748e-04	2.6546535e-07	-4.6405160e-21	-1.2089453e-20	1.3200734e-20	-5.4890862e-21	1.8689820e-20
0.0437037      	1.2514848e-02	6.2574238e-03	6.2574238e-03	1.5297632e-03	7.6515935e-04	7.6460387e-04	2.7774353e-07	-4.6551947e-21	-1.2082359e-20	1.3252033e-20	-5.4563421e-21	1.8708375e-20
0.0440741      	1.2521534e-02	6.2607672e-03	6.2607672e-03	1.5270154e-03	7.6379855e-04	7.6321689e-04	2.9082834e-07	-4.6701278e-21	-1.2075542e-20	1.3302484e-20	-5.4243006e-21	1.8726784e-20
0.0444444      	1.2546334e-02	6.2731670e-03	6.2731670e-03	1.5270227e-03	7.6381606e-04	7.6320664e-04	3.0470757e-07	-4.6849004e-21	-1.2068361e-20	1.3352633e-20	-5.3920443e-21	1.8744678e-20
0.0448148      	1.2578322e-02	6.2891610e-03	6.2891610e-03	1.5242901e-03	7.6246442e-04	7.6182567e-04	3.1937562e-07	-4.6992693e-21	-1.2060761e-20	1.3403335e-20	-5.3590933e-21	1.8762429e-20
0.0451852      	1.2610597e-02	6.3052986e-03	6.3052986e-03	1.5235650e-03	7.6211730e-04	7.6144766e-04	3.3481765e-07	-4.7137439e-21	-1.2053422e-20	1.3452735e-20	-5.3270545e-21	1.8779790e-20
0.0455556      	1.2649367e-02	6.3246836e-03	6.3246836e-03	1.5260063e-03	7.6335418e-04	7.6265212e-04	3.5103281e-07	-4.7279588e-21	-1.2045798e-20	1.3501941e-20	-5.2948281e-21	1.8796769e-20
0.0459259      	1.2693617e-02	6.3468085e-03	6.3468085e-03	1.5276418e-03	7.6418891e-04	7.6345288e-04	3.6801200e-07	-4.7421722e-21	-1.2038145e-20	1.3550792e-20	-5.2627489e-21	1.8813541e-20
0.0462963      	1.2731208e-02	6.3656040e-03	6.3656040e-03	1.5324259e-03	7.6659805e-04	7.6582781e-04	3.8511920e-07	-4.7568580e-21	-1.2030245e-20	1.3600835e-20	-5.2298273e-21	1.8830662e-20
0.0466667      	1.2785409e-02	6.3927044e-03	6.3927044e-03	1.5255519e-03	7.6317746e-04	7.6237448e-04	4.0149199e-07	-4.7710768e-21	-1.2022165e-20	1.3649435e-20	-5.1974474e-21	1.8846883e-20
0.047037       	1.2850610e-02	6.4253049e-03	6.4253049e-03	1.5176604e-03	7.5924711e-04	7.5841330e-04	4.1690222e-07	-4.7857156e-21	-1.2013790e-20	1.3698216e-20	-5.1646816e-21	1.8862897e-20
0.0474074      	1.2907407e-02	6.4537036e-03	6.4537036e-03	1.5131158e-03	7.5698992e-04	7.5612583e-04	4.3204223e-07	-4.8008460e-21	-1.2005760e-20	1.3745671e-20	-5.1329247e-21	1.8878596e-20
0.0477778      	1.2959191e-02	6.4795953e-03	6.4795953e-03	1.5328510e-03	7.6687270e-04	7.6597828e-04	4.4720673e-07	-4.8164697e-21	-1.1998103e-20	1.3792032e-20	-5.1020869e-21	1.8894119e-20
0.0481481      	1.3026113e-02	6.5130564e-03	6.5130564e-03	1.5300514e-03	7.6548807e-04	7.6456334e-04	4.6236632e-07	-4.8323622e-21	-1.1990311e-20	1.3837990e-20	-5.0713163e-21	1.8909307e-20
0.0485185      	1.3079668e-02	6.5398342e-03	6.5398342e-03	1.5449902e-03	7.7297261e-04	7.7201763e-04	4.7749242e-07	-4.8487384e-21	-1.1982491e-20	1.3883172e-20	-5.0409045e-21	1.8924077e-20
0.0488889      	1.3136361e-02	6.5681804e-03	6.5681804e-03	1.5501620e-03	7.7557359e-04	7.7458840e-04	4.9259712e-07	-4.8658126e-21	-1.1975000e-20	1.3927166e-20	-5.0114169e-21	1.8938583e-20
0.0492593      	1.3199934e-02	6.5999668e-03	6.5999668e-03	1.5458868e-03	7.7345105e-04	7.7243575e-04	5.0764877e-07	-4.8841758e-21	-1.1966798e-20	1.3972524e-20	-4.9805364e-21	1.8953060e-20
0.0496296      	1.3266349e-02	6.6331746e-03	6.6331746e-03	1.5602510e-03	7.8064776e-04	7.7960324e-04	5.2226291e-07	-4.9020011e-21	-1.1959807e-20	1.4013467e-20	-4.9530737e-21	1.8966541e-20
0.05           	1.3335816e-02	6.6679080e-03	6.6679080e-03	1.5700289e-03	7.8555066e-04	7.8447828e-04	5.3619159e-07	-4.9217248e-21	-1.1951210e-20	1.4058469e-20	-4.9219758e-21	1.8980444e-20
0.0503704      	1.3419492e-02	6.7097461e-03	6.7097461e-03	1.5656066e-03	7.8335223e-04	7.8225438e-04	5.4892379e-07	-4.9415219e-21	-1.1944493e-20	1.4098419e-20	-4.8952834e-21	1.8993702e-20
0.0507407      	1.3505492e-02	6.7527458e-03	6.7527458e-03	1.5651483e-03	7.8313462e-04	7.8201369e-04	5.6046880e-07	-4.9615199e-21	-1.1938898e-20	1.4134833e-20	-4.8714820e-21	1.9006315e-20
0.0511111      	1.3594037e-02	6.7970183e-03	6.7970183e-03	1.5788929e-03	7.9001722e-04	7.8887569e-04	5.7076429e-07	-4.9855175e-21	-1.1928164e-20	1.4183643e-20	-4.8363427e-21	1.9019986e-20
0.0514815      	1.3681827e-02	6.8409135e-03	6.8409135e-03	1.5647805e-03	7.8297005e-04	7.8181049e-04	5.7978216e-07	-5.0120434e-21	-1.1925701e-20	1.4211119e-20	-4.8201414e-21	1.9031260e-20
0.0518519      	1.3767319e-02	6.8836597e-03	6.8836597e-03	1.5958763e-03	7.9852568e-04	7.9735065e-04	5.8751608e-07	-5.0326980e-21	-1.1914025e-20	1.4263207e-20	-4.7824221e-21	1.9045629e-20
0.0522222      	1.3822273e-02	6.9111363e-03	6.9111363e-03	1.5874606e-03	7.9432593e-04	7.9313464e-04	5.9564283e-07	-5.0584950e-21	-1.1907637e-20	1.4301022e-20	-4.7571264e-21	1.9058149e-20
0.0525926      	1.3914121e-02	6.9570604e-03	6.9570604e-03	1.5881026e-03	7.9465549e-04	7.9344707e-04	6.0420766e-07	-5.0854672e-21	-1.1899899e-20	1.4341904e-20	-4.7289468e-21	1.9070851e-20
0.052963       	1.4021581e-02	7.0107905e-03	7.0107905e-03	1.5933154e-03	7.9727096e-04	7.9604442e-04	6.1326948e-07	-5.1121769e-21	-1.1891205e-20	1.4384907e-20	-4.6987516e-21	1.9083659e-20
0.0533333      	1.4123645e-02	7.0618227e-03	7.0618227e-03	1.5911590e-03	7.9620110e-04	7.9495790e-04	6.2159901e-07	-5.1435021e-21	-1.1885755e-20	1.4418581e-20	-4.6764643e-21	1.9095046e-20
0.0537037      	1.4229810e-02	7.1149052e-03	7.1149052e-03	1.5981521e-03	7.9970467e-04	7.9844747e-04	6.2859999e-07	-5.1745074e-21	-1.1878298e-20	1.4457881e-20	-4.6493575e-21	1.9107238e-20
0.0540741      	1.4334612e-02	7.1673060e-03	7.1673060e-03	1.6022476e-03	8.0175804e-04	8.0048959e-04	6.3422791e-07	-5.2067763e-21	-1.1870884e-20	1.4497434e-20	-4.6221667e-21	1.9119601e-20
0.0544444      	1.4447269e-02	7.2236346e-03	7.2236346e-03	1.6162498e-03	8.0876331e-04	8.0748650e-04	6.3840201e-07	-5.2397918e-21	-1.1862681e-20	1.4539488e-20	-4.5929369e-21	1.9132425e-20
0.0548148      	1.4568690e-02	7.2843449e-03	7.2843449e-03	1.6253668e-03	8.1332451e-04	8.1204226e-04	6.4112370e-07	-5.2745563e-21	-1.1854619e-20	1.4580271e-20	-4.5644842e-21	1.9144755e-20
0.0551852      	1.4694038e-02	7.3470189e-03	7.3470189e-03	1.6226394e-03	8.1196198e-04	8.1067738e-04	6.4230288e-07	-5.3110517e-21	-1.1845934e-20	1.4623880e-20	-4.5339937e-21	1.9157873e-20
0.0555556      	1.4812777e-02	7.4063884e-03	7.4063884e-03	1.6427147e-03	8.2199926e-04	8.2071545e-04	6.4190260e-07	-5.3489686e-21	-1.1837225e-20	1.4667753e-20	-4.5033485e-21	1.9171102e-20