/*--------------------------------*- C++ -*----------------------------------*\
| =========                 |                                                 |
| \\      /  F ield         | OpenFOAM: The Open Source CFD Toolbox           |
|  \\    /   O peration     | Version:  2406                                  |
|   \\  /    A nd           | Website:  www.openfoam.com                      |
|    \\/     M anipulation  |                                                 |
\*---------------------------------------------------------------------------*/
FoamFile
{
    version     2.0;
    format      ascii;
    arch        "LSB;label=32;scalar=64";
    class       volScalarField;
    location    "0.22";
    object      p;
}
// * * * * * * * * * * * * * * * * * * * * * * * * * * * * * * * * * * * * * //

dimensions      [0 2 -2 0 0 0 0];

internalField   nonuniform List<scalar> 
4529
(
-9.416914e-07
-2.563241e-06
-1.876199e-06
-5.411984e-06
-3.193128e-06
-6.50433e-06
-1.79116e-06
-2.174616e-06
-2.979003e-06
-1.535676e-06
2.522361e-06
-9.079267e-07
-4.907017e-07
-7.757999e-07
-1.363094e-06
-6.844793e-07
-3.147058e-06
-1.188378e-06
3.310323e-07
-2.127153e-06
-8.41812e-08
-1.24429e-06
-1.199451e-06
-2.021795e-06
-1.031971e-07
-2.219829e-06
-3.433581e-06
-3.823199e-06
-3.585145e-06
-4.635728e-06
-1.589895e-07
-1.302997e-06
-7.897395e-07
2.108819e-07
2.020915e-06
-2.349552e-06
-1.947729e-06
-1.497633e-06
-4.427226e-06
4.210855e-07
-1.2079e-06
-7.359003e-07
-1.588149e-06
-3.365533e-09
1.085345e-07
1.078489e-06
-1.481691e-06
-2.356911e-06
3.285277e-07
-2.814892e-06
-5.989019e-06
-1.733268e-06
-7.010179e-06
4.020025e-07
-3.086129e-06
-3.139913e-06
-2.76832e-06
3.603077e-06
-6.352673e-06
-7.616409e-06
-2.944564e-06
8.869983e-07
-6.215916e-07
-7.532341e-06
-1.940956e-06
6.054826e-07
-1.200906e-06
-1.200207e-06
-1.925049e-06
3.61552e-06
-1.915108e-06
-2.558161e-06
-4.155401e-06
-7.118099e-07
-8.545863e-06
-5.35459e-06
7.670198e-07
1.714621e-06
-6.806013e-06
-2.707108e-06
-3.965484e-06
-1.744084e-06
5.910526e-07
-1.782696e-06
-2.463806e-06
-8.037574e-07
1.498363e-07
9.528708e-07
1.09598e-06
-1.294557e-06
-7.5341e-06
-8.963689e-07
4.970425e-07
-1.609222e-06
-1.085495e-06
-8.28519e-07
-5.75783e-06
-3.571781e-06
-4.855222e-06
-2.860665e-06
-8.962954e-07
-4.806102e-06
-2.407802e-06
-3.186359e-06
-1.336819e-06
1.158453e-06
-5.701868e-06
1.409777e-06
1.291004e-06
-2.642714e-07
-2.14554e-07
-1.396285e-06
-4.761133e-06
-4.21494e-06
-4.285303e-06
-1.148236e-06
-1.578034e-06
-2.963825e-06
-1.710595e-06
-4.699793e-07
-2.460394e-06
-2.07149e-06
-2.512055e-07
-1.361601e-06
-1.202415e-06
-3.124917e-06
-2.917311e-06
6.756424e-07
-1.270773e-06
-4.560121e-06
-1.901458e-06
-3.436732e-06
-8.431725e-06
1.162016e-07
4.068623e-07
4.933365e-07
7.235421e-07
-1.533937e-07
-1.052461e-06
-2.414746e-06
-2.909445e-06
-2.001533e-06
-9.594753e-07
-3.582371e-06
-5.388757e-06
-2.844595e-06
-1.391496e-07
-3.924195e-06
-2.542946e-06
-1.914713e-06
-2.222127e-06
-4.025953e-06
-3.381252e-06
-7.990669e-07
-4.087623e-06
-6.020585e-07
1.606606e-08
-2.820087e-06
-1.15471e-06
-1.862339e-06
2.31549e-06
-3.189625e-07
-5.028399e-06
-3.042955e-06
-4.934595e-08
1.27908e-07
-5.507973e-08
-2.289695e-06
-2.560613e-06
-2.177111e-06
-5.989922e-06
-1.636198e-06
-8.63174e-06
4.560703e-07
7.414764e-07
-3.170051e-06
-1.722463e-06
-7.605476e-06
-8.732921e-06
2.231414e-06
5.235212e-07
-2.609756e-06
-1.923362e-06
-1.80099e-06
3.628232e-06
-9.069647e-06
-2.298202e-06
-5.438321e-07
-5.049532e-06
-5.891711e-07
-2.341419e-06
-7.241846e-06
1.153458e-06
-3.856234e-06
-1.947068e-06
1.362031e-06
3.434606e-07
-5.148059e-06
3.102011e-06
-3.528717e-08
-1.573288e-06
1.786183e-06
-1.526808e-06
-7.080567e-06
-1.090612e-06
-2.34893e-06
-5.391096e-06
-2.508855e-06
-3.096592e-06
-7.536667e-06
2.436607e-07
-3.278266e-06
-4.622869e-07
-4.119189e-06
-2.34194e-06
-2.67635e-06
-1.774283e-06
-1.098489e-06
-2.421237e-06
6.939669e-06
-2.718315e-06
-4.080511e-07
-2.152533e-06
-4.036745e-07
-9.314956e-07
1.995784e-06
-1.083298e-06
-2.8104e-06
-5.803572e-06
-7.594794e-07
-4.329922e-06
-7.429576e-06
-9.125286e-06
-3.076002e-07
-3.145415e-06
-3.221718e-06
-1.558003e-06
-4.041954e-06
3.085978e-07
-2.161252e-06
-2.963828e-06
2.013464e-07
-6.761301e-07
-5.95859e-06
2.163572e-06
-3.340639e-06
-6.757144e-06
-1.209611e-06
-1.378448e-06
5.158512e-07
-4.425272e-06
1.172422e-06
-3.563057e-06
4.140655e-06
1.489746e-06
-7.67665e-07
-4.242593e-06
-6.072637e-06
-4.887077e-06
-1.349286e-06
1.508211e-06
-8.039625e-07
-1.350114e-06
-8.657789e-07
-1.830673e-06
-5.252487e-06
-1.924304e-06
-3.348347e-06
-2.912228e-06
-8.404656e-07
-2.146796e-06
-4.078421e-07
-2.55873e-07
-2.839483e-06
-6.4311e-06
-2.071734e-07
-1.568707e-07
1.043858e-07
-5.075151e-06
-9.592301e-06
-9.955915e-07
-1.57826e-06
2.515361e-07
-3.078628e-06
9.794238e-08
-1.909578e-06
-2.302097e-06
-7.896615e-08
-3.011616e-06
-1.389782e-06
-4.032409e-06
7.652467e-08
-5.25661e-07
-1.924129e-06
-2.628979e-06
-2.617383e-07
-1.470004e-06
-2.95746e-06
-1.000097e-06
-1.651604e-06
-1.557625e-06
-1.94255e-06
-2.976671e-06
3.874543e-06
-1.194394e-06
-3.028666e-06
-3.40207e-06
-1.28901e-06
-3.336674e-06
-9.899325e-07
-9.551757e-07
-2.057405e-06
8.270943e-07
-1.903524e-06
-2.460093e-06
-1.003461e-06
-1.76045e-06
-1.439374e-06
-6.96235e-06
1.722779e-06
-3.293259e-07
2.286542e-06
-2.459981e-06
-3.839368e-06
-1.127953e-06
-3.180163e-06
-3.078978e-06
-2.456236e-07
-6.617021e-07
-2.222064e-07
-1.228964e-07
-4.532431e-07
-5.19604e-07
-1.431598e-06
5.410334e-07
-4.704619e-06
-4.037197e-06
-2.867182e-06
-3.883909e-07
-1.021073e-06
-1.184518e-06
-3.407068e-06
3.218401e-06
-4.405306e-06
-4.129457e-06
1.504712e-06
-2.157797e-06
-5.47421e-06
-4.530779e-06
-1.44437e-06
-1.298856e-06
2.366652e-06
-1.545816e-06
-1.643922e-06
7.162909e-07
-3.407855e-06
-4.155288e-06
4.508829e-06
-1.926399e-06
-1.43071e-06
-6.148532e-07
5.618446e-07
-2.652689e-06
-7.252697e-07
-3.8156e-07
7.434013e-08
-8.184223e-09
-3.122254e-06
-1.78234e-06
-1.334276e-06
2.330964e-07
-7.318103e-07
-2.131214e-06
1.080241e-06
-1.742195e-06
-3.110715e-07
1.078067e-06
-6.389832e-06
-8.692429e-06
-2.020051e-06
-1.04952e-06
6.435277e-07
6.802116e-07
4.732449e-08
7.852181e-07
-3.952839e-09
-3.953496e-06
3.270794e-06
-3.122996e-06
4.87085e-08
-6.522647e-06
1.624821e-06
4.743453e-06
-2.385958e-06
-5.982508e-07
-2.457139e-06
-2.411647e-06
-2.966673e-06
-2.686419e-06
-3.281098e-06
-1.704837e-06
1.988592e-06
-6.171169e-06
-5.714721e-06
-5.993591e-06
-1.021192e-06
-5.838083e-06
-5.239292e-07
1.909093e-06
-2.013116e-06
-3.027185e-06
-1.273002e-06
-4.622866e-06
-1.934619e-06
2.876461e-07
-8.955112e-07
-8.317395e-07
-2.926295e-06
-2.650608e-07
1.145896e-06
-6.453063e-06
-1.974065e-06
-6.476158e-06
-3.544937e-06
-8.232541e-06
-7.215811e-06
-4.610565e-06
-2.4203e-06
-2.171154e-07
-2.430774e-06
-5.4399e-07
9.491613e-07
-8.280422e-06
-7.012089e-06
1.456429e-06
-1.276163e-06
8.105189e-07
2.763083e-07
-2.994198e-06
6.321104e-07
-9.247454e-07
-2.904292e-07
-4.678632e-06
-1.824354e-06
-1.579433e-06
-1.523708e-06
1.169435e-06
-1.679302e-06
-1.586238e-06
-2.646101e-06
-3.343414e-06
-2.085887e-06
-2.453809e-06
-1.217303e-06
-9.497302e-07
-3.987547e-06
-1.135395e-06
-4.051369e-06
3.357412e-07
-8.796626e-07
6.882916e-07
-8.325646e-07
-1.681663e-06
3.028364e-06
-3.8845e-06
-3.58766e-06
-9.007774e-07
-6.354812e-07
7.742654e-08
-4.038879e-07
1.731093e-07
2.672633e-06
-2.484336e-06
-1.766233e-06
-4.486461e-06
2.297128e-08
-4.110136e-06
-1.511805e-06
3.564469e-07
-1.144475e-06
2.191051e-06
-7.307096e-08
-1.017353e-06
-3.827319e-07
-1.88068e-06
1.725911e-06
-2.918628e-06
6.898577e-07
-1.930215e-06
-3.47952e-06
-1.07719e-05
-2.331107e-06
-2.488219e-06
-3.817584e-07
-1.577982e-06
-3.004592e-06
-2.992184e-06
-3.589855e-06
-1.908241e-06
-4.34258e-06
-2.75415e-06
-6.353802e-07
-2.557498e-06
-2.159344e-06
-1.899505e-07
-8.635867e-07
-2.848528e-07
-3.118072e-07
-5.314518e-07
-6.367706e-07
-3.726488e-07
-3.771207e-07
-3.216628e-06
1.546483e-06
-1.528532e-06
-3.5691e-06
-1.144672e-06
-6.886383e-07
1.472602e-06
4.804939e-07
-1.382629e-06
2.238326e-07
-2.045545e-06
-1.332078e-06
-1.352908e-06
-1.336744e-07
-6.210877e-07
-2.555492e-06
9.836702e-07
2.275517e-07
-1.404969e-06
-6.658988e-07
-6.860319e-07
-8.441063e-07
-3.758066e-07
-4.259578e-06
4.405609e-07
2.957991e-07
2.146475e-07
2.767419e-06
-8.936943e-06
-5.362912e-07
3.357985e-06
-5.470634e-07
-3.129803e-06
-2.483749e-08
-1.718668e-06
-3.109651e-06
-1.162108e-06
2.943401e-06
-2.663289e-06
-1.779855e-06
-2.068294e-06
-2.510405e-06
-5.810587e-07
-1.296043e-06
-4.810433e-06
-3.937806e-06
2.203533e-06
-2.66563e-06
8.497325e-07
-1.309772e-06
-3.163535e-06
-5.981702e-06
-4.15567e-06
-1.061535e-06
-1.399018e-06
-4.040728e-06
-3.554533e-06
-5.203253e-06
-2.779904e-07
1.315137e-06
6.486183e-07
-2.56886e-06
-2.306506e-06
-2.630756e-06
-2.496341e-06
-3.025033e-06
-7.229118e-08
8.561075e-08
-2.324559e-06
-3.282181e-06
-2.297948e-06
-7.091109e-07
-1.417475e-06
-3.046416e-06
-6.132701e-07
-2.180264e-06
-2.131499e-06
9.794628e-07
2.09963e-06
-2.504063e-06
-7.840111e-07
4.815669e-06
-3.353416e-06
-1.608482e-06
-2.453107e-06
-2.433633e-06
1.939232e-06
2.030297e-06
-2.577353e-07
-2.16145e-06
8.301177e-07
2.530175e-07
3.642232e-07
6.473989e-07
6.90683e-07
-1.130454e-06
8.524145e-07
-2.038078e-06
-5.892921e-06
-1.413893e-06
-1.485946e-06
-9.370476e-07
-5.005894e-07
3.541633e-06
6.206104e-07
2.437453e-07
-5.739167e-06
-5.59774e-07
-3.396271e-07
-3.98652e-06
-4.337306e-06
6.79759e-07
-3.368737e-06
-4.387971e-07
1.067791e-06
-1.479248e-06
-2.241954e-06
-1.533025e-06
-3.714522e-06
-5.733708e-06
-5.259904e-06
-1.359727e-06
-8.976391e-07
9.8251e-07
7.971987e-07
-1.166911e-06
-2.16595e-06
-1.151797e-06
-1.016422e-06
-1.609069e-07
2.403759e-06
4.524573e-06
-2.268734e-06
-2.304485e-07
-2.744976e-06
-3.969503e-06
-6.259319e-08
-1.160562e-06
3.84518e-07
-4.220279e-06
-2.582646e-06
-5.395502e-06
-1.374844e-06
-1.890649e-06
1.029671e-07
-5.199424e-06
-8.772828e-07
-8.751143e-06
-1.350596e-06
-2.202719e-06
-5.147913e-06
-1.348813e-06
-2.783726e-06
-3.433603e-06
-2.625259e-06
-1.761903e-06
-8.818438e-06
-2.004752e-06
-2.188509e-06
2.613286e-06
-1.594967e-06
-6.28374e-08
-2.693159e-06
-1.615865e-06
-1.423868e-06
1.597879e-06
-2.983087e-06
-1.672591e-06
-1.17721e-06
-1.540753e-06
-1.923481e-06
-2.034207e-06
1.692878e-06
1.056823e-06
1.593593e-06
-1.581669e-06
-1.200407e-06
-5.179748e-06
-3.101725e-06
-2.220312e-06
-3.608309e-06
-3.537826e-06
-8.507143e-07
1.046687e-06
-8.019163e-07
-4.32656e-06
-5.250279e-06
-8.463719e-07
-8.639123e-07
-9.072042e-07
-8.769229e-06
-1.232956e-06
2.675934e-07
3.187861e-06
-2.418694e-06
-2.023035e-06
-1.817912e-06
-6.367939e-06
-5.585433e-06
-2.023603e-06
-4.906826e-06
-1.245344e-06
-1.917748e-06
-4.138919e-06
-1.381376e-06
-1.896104e-06
-2.556321e-06
-1.847514e-06
-5.437456e-06
-1.44732e-06
-2.550121e-06
-1.029117e-06
-6.010261e-07
-3.79052e-06
3.110288e-06
1.31007e-06
4.129776e-06
-1.777619e-06
-1.802559e-06
-6.175517e-07
-1.80156e-06
-9.855411e-07
-3.145687e-06
-2.512627e-06
-2.001918e-06
-5.7064e-06
-1.339196e-06
-5.689962e-06
5.112096e-08
-5.580673e-06
-5.940891e-06
-6.983011e-06
-4.225861e-06
-1.855687e-06
-1.425286e-06
-1.563721e-06
-1.575484e-06
-8.362124e-06
-1.72715e-06
-2.246054e-06
-6.059704e-06
-2.231936e-06
-4.695208e-06
-2.978711e-06
-1.309405e-06
-9.66561e-06
-7.105361e-06
-8.106928e-06
-4.689532e-06
-4.170901e-06
1.398571e-06
-6.882915e-06
-3.177925e-07
-4.954378e-06
-5.756918e-06
-1.804656e-06
-4.828349e-06
-3.387351e-06
-1.597671e-06
-4.894934e-06
-6.836167e-06
-1.492143e-06
-2.235512e-06
-1.195461e-06
4.279874e-07
-8.178345e-07
-3.680838e-06
-3.938701e-06
-9.115612e-06
-3.262792e-06
-1.147341e-06
-1.537698e-06
-1.075726e-06
-1.512402e-06
-5.59396e-06
-1.978627e-06
-1.797284e-06
-5.401101e-07
-2.445261e-06
-9.456218e-07
-4.565898e-06
-7.756492e-08
-1.733257e-06
-1.139391e-06
-1.296735e-06
-6.819353e-06
-2.348897e-06
-2.361307e-06
1.75804e-06
-1.326619e-06
-5.518878e-06
-8.181665e-06
-2.753321e-06
-2.243836e-06
-1.363225e-06
-2.243143e-06
-1.227647e-06
1.344708e-07
-1.279983e-06
-1.486857e-06
-3.707595e-07
-1.5149e-06
-1.583351e-06
-2.214689e-06
-1.772582e-06
-1.202704e-06
-2.61552e-06
-2.952643e-07
-1.144304e-06
-5.392544e-06
-1.003258e-05
1.228511e-07
1.073171e-06
-6.854273e-07
-1.633531e-06
-6.190619e-07
-2.815082e-07
-9.396365e-07
1.547826e-07
-5.673651e-07
-1.662657e-06
-1.907733e-06
-1.031225e-06
4.483609e-07
4.367579e-07
-3.630946e-06
-2.413496e-08
-2.261005e-06
-1.848703e-06
-4.407624e-06
-2.40735e-06
-5.870615e-06
-3.859799e-06
-6.996632e-06
-6.512247e-06
-4.160693e-06
-4.376122e-06
3.144117e-07
9.236724e-07
1.359162e-06
-1.733342e-06
-2.020846e-06
-1.090797e-06
-1.588883e-06
-1.424486e-06
-1.544119e-06
-1.593894e-06
-1.81063e-06
-3.091039e-06
-1.767478e-06
-4.271788e-07
-2.126391e-06
-2.978576e-07
-5.432531e-07
-6.495175e-06
-3.814383e-06
-3.70642e-06
-5.841816e-06
-5.274131e-06
-1.631976e-06
-2.412607e-06
-7.317579e-06
-3.40561e-06
-4.89797e-06
8.189487e-07
-6.605665e-06
1.043089e-07
-1.543632e-06
1.192091e-06
-4.46277e-06
-1.237346e-06
-3.804522e-06
-5.166598e-06
-8.083797e-06
-3.329563e-06
-2.808046e-06
-2.465721e-06
-8.734645e-07
-1.143249e-06
-5.107638e-07
-3.506473e-06
-3.657931e-06
-2.631112e-06
-6.173401e-06
-5.951375e-06
-5.48997e-06
-4.276439e-06
-8.067371e-06
-8.104686e-07
-1.611354e-06
-3.871247e-07
2.443287e-07
-1.322227e-06
-1.035528e-06
-2.832403e-06
-2.389728e-06
-5.26756e-06
-4.411645e-06
-4.050902e-06
-5.407606e-06
-4.593595e-06
-3.538913e-06
-3.969586e-06
-5.304172e-06
-4.210822e-06
1.015908e-07
4.030611e-08
-4.932602e-06
-5.775754e-06
-8.009395e-06
-6.278875e-06
-2.708322e-06
-2.875899e-06
-7.205717e-06
-7.84987e-06
-8.285113e-06
-2.3515e-06
4.132323e-07
-3.800008e-06
-4.071298e-06
-1.055515e-06
-1.147927e-06
-1.323069e-06
-3.768186e-06
-6.338189e-06
-4.868352e-06
-4.953072e-06
-4.901485e-06
-5.060831e-06
-6.140936e-06
-5.477516e-06
2.283698e-07
-4.857516e-06
-5.297501e-06
1.336689e-06
-4.09079e-06
-3.101154e-06
-3.279971e-06
-5.67367e-06
-2.51281e-06
5.74594e-08
-4.034401e-06
-7.480442e-06
-8.900805e-07
3.417551e-08
-7.3523e-06
1.646612e-06
-4.796607e-06
-1.27037e-06
-2.329753e-06
-4.404728e-06
-1.944089e-06
-5.867496e-07
-3.908791e-07
-5.306275e-06
-3.548212e-06
-4.648106e-06
-6.230882e-06
-3.787475e-06
-4.062329e-06
-4.335496e-06
-5.319933e-06
-6.564196e-07
-1.181887e-06
-1.138095e-06
-1.969242e-06
-4.100812e-06
-8.616427e-06
-7.480408e-06
-1.332485e-06
-7.229396e-07
-6.952471e-06
2.22605e-06
-5.962243e-06
-1.822326e-06
3.596628e-06
-2.111682e-07
-3.258086e-06
-7.531835e-06
-2.193856e-07
-1.42624e-07
-1.080332e-06
-4.902427e-06
-8.441682e-06
-2.110891e-06
3.297139e-07
3.658753e-06
-7.331715e-07
-1.460576e-07
2.488288e-06
-2.028135e-06
7.245058e-07
-3.841688e-06
-2.048221e-06
-3.679513e-06
-9.190734e-07
-1.013026e-06
-3.697045e-06
-8.894567e-06
-2.119731e-07
-7.511641e-06
-4.897772e-06
-4.931597e-06
-2.409192e-06
-1.058074e-06
-4.012937e-06
-2.083953e-06
-2.335253e-06
-2.348806e-06
-2.318258e-06
2.248463e-06
-8.859515e-06
-8.883598e-06
-6.89233e-06
-9.928353e-06
-8.732511e-06
-9.020807e-06
-1.073084e-05
-2.445935e-06
-6.393358e-06
5.645353e-07
1.048306e-06
-2.236445e-07
1.728293e-07
-3.609763e-06
-2.850442e-06
-4.722855e-06
-1.908694e-06
-1.550476e-06
-1.432257e-06
-6.429605e-07
-1.675215e-06
-7.532144e-07
3.961472e-07
7.229728e-08
6.39088e-07
4.897969e-07
5.271615e-07
-3.02745e-06
-1.401481e-06
-4.359201e-08
3.381476e-07
2.490861e-06
-1.444469e-06
-2.902306e-07
-2.241924e-06
-5.751294e-06
3.052186e-07
-6.127406e-06
-7.676002e-06
-5.998372e-06
-2.320172e-06
-2.013516e-06
-4.364814e-06
-3.217431e-06
-6.311993e-06
-3.616712e-06
-9.144346e-07
2.559913e-06
-2.697544e-06
-2.82616e-06
-9.951027e-07
-1.313621e-06
1.126443e-06
8.601973e-08
-1.246437e-06
-1.246731e-06
-1.216902e-06
-3.806831e-07
9.093424e-08
-3.124025e-07
-2.634442e-08
-1.16925e-06
1.037818e-07
-2.544844e-07
-2.730268e-07
2.796665e-08
-1.038214e-08
3.101492e-08
-2.534781e-06
-1.914986e-06
-2.078863e-06
-6.348197e-06
-7.163183e-06
-4.478294e-06
-1.413174e-06
-8.497985e-06
-5.555274e-06
-7.031287e-06
-1.032716e-06
-1.483736e-06
-3.678454e-06
1.14065e-06
-2.536681e-07
-1.990805e-06
-1.902504e-06
-6.767571e-07
-1.814254e-06
-2.042092e-06
-2.570878e-06
-7.68087e-08
-3.009937e-06
9.569836e-07
-7.081061e-07
-6.372225e-07
-1.283928e-06
-1.566066e-06
-1.371025e-06
-4.255677e-06
-6.118729e-07
-1.003031e-06
-1.695546e-06
-2.490385e-06
-2.705367e-06
-3.468981e-06
-8.382701e-06
-8.360639e-06
-1.095231e-06
-8.377161e-06
6.505688e-08
2.336488e-07
1.33848e-07
-9.613032e-08
1.536036e-07
3.661517e-07
-6.152431e-06
-6.004638e-06
4.637664e-07
-3.480034e-06
-3.352075e-06
-5.149732e-06
-1.820385e-06
-2.010332e-06
-1.956955e-06
-5.162638e-06
-2.395974e-07
-8.168548e-06
-3.409601e-06
-1.711064e-06
-1.960867e-07
-2.08633e-06
-2.134272e-06
-6.491919e-07
-8.079181e-07
-2.508363e-06
-1.115879e-06
-1.728592e-06
-2.348387e-06
-2.110931e-06
-1.945387e-06
2.721741e-07
-2.356732e-06
-2.2671e-06
-1.939354e-06
-1.288905e-06
-2.533848e-06
-2.725707e-06
-1.612096e-06
-8.861443e-07
-3.945695e-06
-7.815044e-07
-4.640779e-06
-2.297749e-06
-3.564842e-06
-3.227445e-06
-5.093479e-07
-1.985562e-06
-2.337854e-06
-4.95515e-06
-1.753872e-06
8.964792e-07
-1.480249e-06
-5.336023e-06
-1.87288e-06
-1.87375e-06
-1.823067e-07
8.614817e-07
-1.772302e-06
-1.690444e-06
1.308549e-06
-4.91614e-06
-7.3708e-06
-5.744673e-06
-1.490191e-06
8.978206e-07
8.723555e-07
-1.134917e-06
-7.475521e-07
-1.46873e-06
-3.381796e-07
-2.132873e-06
4.815152e-07
-2.055181e-06
-3.459858e-06
-3.736612e-06
-9.392149e-07
-2.502887e-06
-2.64316e-06
-2.578254e-07
-1.928325e-06
-2.258772e-06
-4.938293e-06
-3.675423e-06
-3.382155e-06
2.927562e-07
2.160526e-06
8.463646e-08
-4.199625e-06
-4.814377e-06
-8.203574e-07
-2.02281e-07
-1.757434e-06
3.308134e-07
-1.116347e-06
-1.330939e-06
2.176618e-07
7.505042e-07
-4.702455e-07
9.552735e-08
-5.414085e-07
-1.806158e-06
-1.419463e-06
-4.35976e-06
-8.508665e-07
-5.629964e-07
-2.812182e-06
2.001382e-07
-8.693382e-07
-7.411425e-07
-1.07554e-06
-3.697859e-06
-5.204493e-06
-1.653322e-06
-1.367509e-06
-1.517524e-06
8.028702e-08
-1.856915e-06
7.505611e-07
-3.537127e-06
-1.980404e-06
-1.773616e-06
-8.465238e-06
-6.235909e-06
-1.15765e-06
-4.178862e-06
-6.221219e-06
-6.649759e-06
-9.046575e-07
-9.113354e-07
-1.554151e-06
-4.275727e-07
-2.99413e-06
-5.741871e-07
6.098238e-07
-2.099334e-06
-7.679967e-06
-8.614586e-07
5.974409e-07
-1.22496e-06
-1.077751e-06
-2.156114e-06
-7.311882e-07
-4.428841e-06
-5.85482e-06
-2.133837e-06
-4.412952e-06
2.646639e-07
1.933253e-06
-6.654254e-07
-7.789748e-06
-1.281284e-06
-1.670005e-06
-5.20428e-07
-1.408014e-06
3.935941e-06
-2.550004e-06
-4.197932e-06
-3.378304e-07
-2.34479e-06
-2.216867e-06
1.586731e-06
1.347948e-06
-8.914088e-08
-1.647605e-06
5.843542e-07
1.773637e-07
-1.414685e-06
-6.363336e-06
-4.051065e-07
-3.384798e-07
-5.006291e-07
-6.55564e-07
-9.356853e-07
-5.933852e-07
-7.151704e-07
-4.020478e-07
-6.435109e-07
-6.896096e-07
-3.646092e-07
-3.96675e-07
-2.555007e-06
-4.272561e-07
5.152214e-07
8.787876e-07
8.886853e-07
-3.413995e-08
1.889542e-07
1.33613e-07
1.119243e-06
9.302507e-08
-4.501496e-06
1.866729e-06
1.476597e-06
-1.200658e-06
-4.34281e-06
-3.204213e-06
-4.296162e-06
-1.22259e-06
-5.902959e-06
-6.54505e-07
-7.70682e-07
1.960862e-06
8.37047e-08
-1.762664e-07
-5.011599e-07
-1.894222e-06
-1.067706e-06
-3.039311e-06
-2.819744e-06
-8.032471e-06
-3.284166e-06
-3.215802e-06
-3.447067e-06
-3.015761e-06
-3.806436e-06
-3.747372e-06
-3.597537e-06
-3.21767e-06
-2.741718e-06
3.445694e-07
-4.479811e-06
-3.607831e-06
-2.054338e-06
5.57255e-07
-4.722086e-06
1.090873e-06
-1.753122e-06
-8.46211e-08
-4.679881e-06
-4.154606e-06
-5.044352e-06
-7.772758e-06
-7.587349e-06
-2.791546e-06
-1.233617e-06
-1.276368e-06
-1.733114e-06
-1.651316e-06
-2.704034e-06
2.456627e-07
-6.527044e-06
-2.214654e-06
3.718588e-07
-2.873796e-07
2.738654e-06
-4.781128e-06
-5.698372e-06
-3.43668e-06
-4.921926e-06
-4.649774e-06
-3.154029e-06
-2.812748e-06
-2.436648e-07
-3.630905e-06
2.269185e-06
1.646922e-06
1.210975e-06
-4.356804e-06
-4.450401e-06
-5.517097e-06
-5.041398e-06
-3.153967e-06
-4.221813e-06
-5.785426e-06
-6.202219e-06
-4.613921e-06
-3.943677e-06
-1.490761e-06
-4.615896e-06
-1.144072e-06
-7.357673e-06
1.289844e-06
-1.541704e-07
-4.358849e-06
2.100432e-07
5.140745e-07
2.818008e-06
-1.877745e-06
3.500026e-06
2.711941e-06
-2.261034e-06
-4.304472e-06
-7.184652e-06
9.34796e-07
5.486102e-07
4.716043e-07
-5.155709e-07
-5.022848e-06
-4.888629e-06
-4.460634e-06
-2.835093e-07
-6.929015e-08
-5.866776e-06
-8.017689e-06
-8.278088e-06
-3.615923e-06
-2.896198e-06
-5.12685e-06
-6.46013e-06
-1.60219e-06
-2.258784e-06
-3.193258e-06
-3.139184e-06
-2.927993e-06
-8.162576e-07
-8.423562e-06
1.316852e-07
-1.783779e-06
1.865893e-06
-1.162432e-07
-2.737365e-06
1.162e-06
-3.006298e-06
3.052093e-07
-6.43406e-06
-1.38468e-06
-3.310295e-06
1.004028e-06
-7.300661e-07
3.28138e-07
-3.633704e-07
-7.103179e-07
-2.797588e-06
-1.569167e-06
-2.053281e-06
-1.746899e-06
-1.308596e-06
-1.375749e-06
-1.99707e-06
-6.266188e-06
-2.458949e-06
-4.691254e-07
-3.263833e-06
1.140305e-06
1.077667e-06
-4.040694e-06
-4.666106e-08
-3.700331e-06
-2.06411e-06
-2.127492e-06
-1.262343e-06
-1.744603e-06
2.892405e-06
-4.13685e-07
5.048072e-07
-4.528135e-06
5.006332e-06
-6.768894e-07
-1.717341e-06
-7.448759e-07
-7.122774e-07
-6.234131e-07
-7.344205e-07
-1.58475e-06
-8.041659e-07
-7.630775e-07
4.867929e-06
1.092785e-07
3.977827e-08
-1.203734e-06
-2.540622e-06
-3.052561e-06
-1.401082e-06
-1.249777e-06
1.8639e-07
3.901721e-07
6.639544e-07
-1.217955e-06
-1.355129e-06
3.805558e-06
3.202535e-06
4.007801e-07
4.915667e-07
-4.996925e-07
-1.488388e-06
-1.584121e-06
-2.33841e-06
-1.890777e-06
3.830967e-07
2.532347e-08
-5.326841e-06
-1.04547e-06
-1.046696e-06
9.818124e-07
1.047625e-06
-4.772152e-06
-1.940012e-06
-2.265516e-06
6.998237e-07
4.766271e-07
-8.019363e-06
-3.493914e-06
-4.233915e-06
-3.981016e-06
-8.453067e-07
-1.094941e-06
-6.353201e-08
-1.216378e-06
-9.38184e-06
9.667379e-07
-4.886405e-06
2.375058e-06
-8.211378e-07
-1.196445e-06
-2.025989e-06
-3.00574e-07
-5.09845e-07
-3.470742e-06
-9.998524e-07
8.149011e-07
9.050643e-07
-4.170235e-06
-7.559983e-06
3.469773e-07
-2.55101e-07
-3.060004e-06
-1.18443e-07
-2.49121e-07
-4.008575e-06
-8.917237e-06
1.596949e-07
7.990425e-07
-2.334888e-06
-4.279654e-06
-4.964737e-06
-4.467438e-06
-4.22808e-07
-3.902621e-07
-3.105568e-06
-2.113262e-06
-1.280525e-08
2.141667e-08
3.06467e-07
-7.338058e-08
6.190126e-07
2.584346e-06
2.39416e-06
-2.588206e-07
-1.362926e-06
-2.71342e-06
-1.903405e-06
-3.299324e-06
2.964231e-06
-6.141238e-06
-2.090628e-06
-2.276084e-06
-2.600749e-06
6.156392e-07
-2.160017e-06
-1.962166e-06
-4.901393e-06
-5.511409e-06
9.456082e-08
-4.717099e-06
2.447904e-06
-3.717977e-07
-1.00664e-07
-8.454337e-07
-7.967752e-06
-7.494466e-06
-1.078498e-07
-1.854514e-06
-2.361063e-06
-3.391137e-06
1.004298e-06
-5.049625e-07
-2.578801e-06
-2.233433e-06
-1.804948e-06
3.799878e-06
4.24563e-06
3.39592e-08
-4.740055e-08
-4.055918e-06
-1.376131e-07
-1.402193e-06
-1.595571e-06
-4.403748e-06
-5.692209e-06
-5.674966e-07
-1.245965e-07
-1.627349e-06
-1.52154e-06
2.723042e-07
-4.366157e-06
1.902373e-07
-5.784775e-07
-6.921321e-06
-1.465554e-06
2.860348e-06
5.112817e-06
-1.451506e-06
-1.174192e-06
3.404589e-07
4.73854e-07
-1.043741e-06
2.101636e-06
2.949109e-06
8.280491e-07
6.222286e-07
-5.877728e-07
-4.20184e-07
4.544661e-06
2.344085e-06
-2.502835e-06
8.176741e-07
1.63253e-06
-3.900945e-06
-1.813708e-06
-2.483613e-06
-2.453777e-06
-1.219658e-06
-1.044897e-06
-2.199101e-06
-2.728328e-06
-2.426298e-06
-2.640132e-06
-3.482557e-06
-2.911336e-06
-3.209802e-06
-4.957073e-06
-2.016586e-06
-2.821981e-06
-2.916975e-06
-3.399018e-06
-3.332231e-06
-3.509509e-06
-2.614605e-06
-3.145605e-06
-2.982789e-06
-2.369565e-06
-2.05094e-06
-1.00154e-07
-1.971789e-06
-2.086083e-06
-4.234342e-06
-4.136551e-06
1.428205e-07
1.476368e-06
-3.003128e-06
-4.844475e-06
3.693717e-07
-1.223173e-06
-4.062961e-06
-1.502697e-06
-2.161777e-06
-2.877107e-06
-2.45186e-06
-2.56257e-06
-2.760597e-06
-8.91409e-07
-3.01226e-06
-2.96578e-06
-3.676801e-06
-2.698988e-06
-2.435418e-06
-3.060406e-06
-4.129864e-07
2.372988e-07
1.423173e-07
2.006113e-06
5.959654e-07
-1.299307e-06
-1.278569e-06
8.774226e-08
-5.360203e-07
-1.859074e-06
1.166925e-07
-5.478118e-06
-3.040353e-06
-2.605099e-06
3.546388e-07
2.632173e-07
1.171443e-06
1.080337e-06
1.147775e-06
-1.533036e-06
-1.668531e-06
-1.659596e-06
-4.657738e-06
-2.625959e-06
-2.028348e-06
-2.366176e-06
-1.247398e-06
-1.503559e-06
2.142376e-06
-1.095006e-06
-2.554382e-07
-3.240432e-06
-1.827269e-06
5.258935e-07
-2.2351e-06
-3.109825e-07
-1.644234e-06
-1.864253e-06
-1.785846e-06
1.073724e-07
-2.169343e-06
-7.104934e-06
1.374037e-06
1.874787e-06
1.792604e-06
1.579848e-06
1.309742e-07
-1.844907e-06
-2.202335e-07
-1.36136e-06
-7.437976e-07
-3.312379e-06
4.164534e-07
5.448304e-07
-1.315418e-06
-2.905566e-06
-9.043563e-07
-2.069468e-06
-1.95413e-06
4.634737e-06
-6.919894e-06
-6.466309e-06
-1.332447e-06
-1.458001e-06
-2.755749e-06
-1.34036e-06
-3.930258e-06
-2.22215e-06
-2.923961e-06
-4.166449e-07
-1.35241e-06
-9.782221e-07
-1.27442e-06
-1.18991e-06
-2.166241e-06
-3.296021e-06
-1.431355e-06
-1.597593e-06
-4.848059e-07
3.140074e-07
-7.968988e-06
-5.075114e-06
-4.901258e-06
2.196716e-07
-2.518154e-06
2.627423e-07
1.764427e-06
2.085391e-06
-1.540755e-06
-6.909524e-07
-1.683585e-06
-2.273043e-06
-5.50341e-07
1.314128e-06
-6.322102e-06
-5.207745e-06
-6.867886e-07
-6.524893e-07
-9.835573e-07
-4.613186e-06
-4.156777e-06
-6.167448e-06
3.316956e-07
4.152166e-07
-8.556954e-06
2.159444e-06
-3.661292e-06
-2.593012e-06
2.247562e-07
-1.608312e-06
-9.622412e-07
-7.676401e-07
-2.733241e-06
-2.932768e-06
9.865458e-07
-1.82533e-06
-1.470103e-06
1.839993e-06
-8.32763e-06
-5.148895e-06
-3.240362e-06
-1.704675e-06
-1.86992e-06
-1.202919e-06
-1.270123e-06
-2.379645e-06
-1.949189e-06
-2.005673e-06
-1.747738e-06
4.025356e-07
3.396313e-07
-6.845146e-06
-6.584189e-06
2.91551e-06
-3.905812e-07
-5.648496e-07
-1.041666e-07
8.424696e-08
-3.428809e-06
-2.292468e-07
-5.865845e-07
-1.383206e-06
-1.569682e-06
5.124968e-06
-1.638303e-06
1.563983e-06
1.013937e-06
-2.028711e-06
-4.489699e-06
-3.077052e-07
-2.388192e-07
-1.575848e-06
-1.806302e-06
-2.38983e-06
-3.536462e-06
-5.741178e-06
-2.489526e-06
-7.155365e-06
-7.745319e-06
-1.486494e-07
-2.0857e-06
-1.157629e-06
-8.204292e-06
-2.54373e-06
-7.961721e-06
-1.925973e-07
-1.417585e-06
9.350941e-07
1.453137e-06
2.699542e-07
2.021807e-07
1.521269e-06
5.012255e-07
-2.825281e-06
-2.268944e-06
-2.226038e-06
2.676126e-07
1.173591e-06
-7.834277e-06
-3.334753e-08
4.851012e-08
-2.856332e-06
-2.896807e-06
-4.062806e-06
-3.25268e-06
-9.603963e-07
-4.060151e-07
-6.140718e-07
-3.747573e-06
-5.226954e-06
-1.522135e-06
-5.842882e-06
-5.234602e-06
-5.364054e-06
-5.738998e-06
7.252403e-07
-4.773616e-06
-1.861934e-07
-3.488557e-06
-3.635594e-06
-3.563658e-06
-7.900092e-06
-2.456551e-06
-2.121318e-06
-2.820962e-06
-3.012959e-06
-5.424742e-06
-4.238463e-08
-8.941271e-07
-1.487082e-06
-3.469372e-07
-7.946661e-06
-9.631023e-06
-8.368703e-06
-2.219886e-06
-6.418678e-06
-8.276361e-06
-9.028951e-06
-1.282934e-06
-1.948563e-06
-1.755119e-06
-2.727997e-06
-2.280841e-06
-4.491435e-06
-3.482979e-06
1.962436e-06
-6.642433e-06
-2.192259e-06
2.093874e-06
1.978167e-06
-2.132453e-06
2.470516e-08
-4.376552e-06
2.786945e-07
-1.255366e-06
-1.33645e-06
-3.792712e-07
-2.252331e-06
8.664078e-07
-2.062785e-06
-8.081734e-06
-3.838152e-06
-6.336536e-06
-7.600576e-06
-6.835743e-06
-1.018883e-06
-6.606181e-06
-4.489e-06
-3.992075e-06
-2.148435e-06
-1.848048e-06
-1.760044e-06
-1.084679e-06
-4.008484e-07
-3.230618e-06
-2.436063e-06
-7.03559e-06
-5.111078e-06
-4.35808e-06
-4.342773e-06
3.999726e-07
-7.796327e-07
-1.172353e-06
3.349298e-06
-2.729866e-06
-3.594875e-06
-3.572795e-06
-5.554684e-07
-6.096823e-07
-4.723918e-06
-2.744239e-06
-4.49483e-07
-4.046116e-06
-2.847066e-06
-2.632959e-06
-2.676538e-06
-3.314655e-06
-5.517598e-06
-1.174465e-06
-1.474584e-06
1.226104e-06
1.146544e-06
-1.01665e-07
-7.563085e-08
-1.904804e-07
-2.472891e-07
-1.549406e-07
1.361565e-07
-1.768804e-06
-3.646111e-06
-5.527363e-06
-4.403658e-07
-1.441828e-06
-1.10257e-06
-1.152475e-06
-1.716232e-06
1.291808e-06
-6.957571e-07
-1.152089e-06
-2.083325e-06
-1.712979e-06
-1.695524e-06
-8.323852e-07
-5.623386e-07
-5.327986e-07
7.726398e-07
8.325777e-07
9.713062e-07
-5.895957e-06
-1.189487e-06
3.222359e-07
5.376902e-07
-6.95157e-07
-1.622791e-06
-2.001032e-06
-1.101052e-06
-9.684733e-07
2.012254e-06
1.763876e-06
-8.538534e-07
2.665035e-06
-5.200604e-06
-6.559262e-06
-1.670405e-07
-2.419575e-06
-6.427427e-07
-1.486677e-06
5.203776e-07
-4.099035e-07
-1.345193e-06
-2.386873e-06
-4.194537e-06
-4.129938e-06
-8.615274e-07
-5.515512e-07
-7.663641e-06
-1.931041e-06
-5.272811e-06
4.997022e-07
-2.882823e-06
-2.819438e-06
1.418831e-08
9.023648e-08
-1.280521e-06
-1.216514e-06
-1.328605e-06
2.222341e-07
-1.915279e-06
-2.532154e-06
-2.272941e-06
-2.623793e-06
-1.481106e-06
-1.990823e-06
-1.438512e-06
-1.457607e-06
3.463754e-06
3.27052e-06
-1.907661e-06
4.012167e-07
4.193624e-07
-1.436819e-06
-1.304882e-06
-3.034433e-06
-1.396579e-06
-2.116557e-06
-2.327749e-07
-4.917451e-07
-2.548029e-06
-6.878286e-06
-7.160327e-06
-4.933377e-06
-4.645676e-06
-1.653923e-06
-1.652168e-06
5.012678e-07
-8.798569e-06
-8.496593e-06
-8.645916e-06
-3.433645e-06
9.801866e-07
-8.902099e-07
-8.732158e-07
5.170259e-07
1.843099e-06
-9.228084e-07
1.881748e-06
-1.80774e-06
-1.399314e-06
-1.920749e-06
-1.670397e-06
-1.671866e-06
-7.163908e-07
-5.851974e-07
-2.004134e-07
-5.098734e-07
-1.021099e-06
-1.255833e-06
6.723767e-07
8.471751e-07
-1.95211e-06
-1.746079e-06
1.544958e-06
-4.062579e-06
-5.066225e-06
-4.941509e-06
-5.363631e-06
-5.227345e-06
-5.727032e-06
-6.547992e-06
-5.575211e-06
-5.044519e-06
-6.350874e-06
-8.210286e-06
9.019562e-07
-2.231863e-06
-2.125407e-06
-4.887296e-06
-1.699267e-06
-1.100823e-06
-9.06716e-07
-7.975387e-07
7.961882e-09
1.238162e-07
-6.287862e-07
1.203769e-07
-1.918607e-06
-1.124761e-06
1.808417e-07
-8.578977e-06
-8.640783e-06
-1.807083e-06
-2.19916e-06
-2.184337e-06
-1.711522e-06
-7.271125e-07
-6.374744e-06