/*--------------------------------*- C++ -*----------------------------------*\
| =========                 |                                                 |
| \\      /  F ield         | OpenFOAM: The Open Source CFD Toolbox           |
|  \\    /   O peration     | Version:  2406                                  |
|   \\  /    A nd           | Website:  www.openfoam.com                      |
|    \\/     M anipulation  |                                                 |
\*---------------------------------------------------------------------------*/
FoamFile
{
    version     2.0;
    format      ascii;
    arch        "LSB;label=32;scalar=64";
    class       surfaceScalarField;
    location    "0.22";
    object      phi;
}
// * * * * * * * * * * * * * * * * * * * * * * * * * * * * * * * * * * * * * //

dimensions      [0 3 -1 0 0 0 0];

oriented        oriented;

internalField   nonuniform List<scalar> 
6710
(
-1.353216e-09
1.675825e-09
-3.226086e-10
1.566808e-09
-1.546211e-09
-2.059681e-11
-5.802564e-10
1.620298e-09
-1.040041e-09
-1.182393e-09
1.467491e-09
-2.850972e-10
-1.330048e-09
3.340759e-10
9.95972e-10
2.035878e-10
1.561041e-09
-1.764629e-09
1.215704e-10
1.335395e-09
-1.456965e-09
1.095038e-09
-1.143668e-09
4.862969e-11
-2.910006e-10
1.748428e-09
-1.457427e-09
1.766956e-09
-1.914708e-09
1.47752e-10
-5.640393e-09
2.91984e-09
2.720553e-09
-1.709472e-09
1.559796e-09
1.496757e-10
-4.921541e-10
-1.15124e-09
1.643394e-09
-1.652829e-09
9.999107e-11
1.552838e-09
1.218837e-09
-1.157624e-09
-6.121277e-11
1.291294e-09
-1.509391e-09
2.180971e-10
-1.263622e-09
1.311956e-09
-4.833404e-11
-1.008238e-09
1.240612e-10
8.841772e-10
1.727056e-09
-1.301424e-09
-4.256325e-10
-1.513905e-09
1.219603e-09
2.943025e-10
3.286363e-10
-1.41018e-09
1.081544e-09
1.564337e-09
-1.655682e-09
9.134449e-11
-1.48454e-09
5.754253e-10
9.091146e-10
1.658299e-09
-4.636423e-10
-1.194657e-09
-1.62373e-09
4.753334e-11
1.576197e-09
-1.19303e-09
6.279146e-10
5.651154e-10
-1.496657e-09
1.189264e-09
3.07393e-10
3.642145e-10
-1.428618e-09
1.064404e-09
-8.741697e-10
1.784504e-09
-9.103343e-10
1.70819e-09
-1.461025e-09
-2.47165e-10
1.674666e-09
-3.121929e-10
-1.362473e-09
-1.17278e-09
-1.704855e-10
1.832304e-09
-8.306939e-10
-1.00161e-09
-1.739732e-09
1.041277e-09
6.984543e-10
-1.932517e-09
3.641964e-10
1.56832e-09
3.37907e-10
8.337553e-10
-1.171662e-09
3.301587e-10
1.328141e-09
-7.767565e-11
1.39631e-09
-1.318634e-09
-1.473847e-09
9.656586e-11
1.377282e-09
9.957885e-10
-1.997129e-09
1.00134e-09
1.177334e-09
-1.02335e-09
-1.539843e-10
-1.6588e-09
1.42238e-09
2.364204e-10
1.600569e-09
-1.910656e-09
3.100877e-10
-8.164074e-10
-8.788598e-10
1.695267e-09
-1.561811e-09
1.979739e-09
-4.179286e-10
-2.629797e-10
-1.042523e-09
1.305503e-09
-1.790777e-09
1.35712e-09
4.336571e-10
-2.306626e-10
-1.31562e-09
1.546283e-09
1.525951e-09
-5.181937e-10
-1.007757e-09
-1.456153e-09
-1.286514e-10
1.584805e-09
-4.215398e-10
-6.720138e-10
1.093554e-09
1.56411e-09
3.54742e-10
-1.918852e-09
9.098634e-10
-8.558282e-11
-8.242806e-10
1.153427e-09
-5.266596e-10
-6.26767e-10
-1.078899e-09
-2.344533e-10
1.313353e-09
-1.731669e-09
4.794607e-10
1.252208e-09
-1.747791e-09
1.469725e-09
2.780655e-10
7.753311e-09
-7.779044e-09
2.573294e-11
-5.561627e-10
1.555167e-09
-9.990043e-10
-1.21967e-09
-3.242138e-10
1.543884e-09
-1.756816e-09
6.546306e-10
1.102186e-09
-1.076498e-09
2.093617e-09
-1.017119e-09
4.855998e-10
8.911687e-10
-1.376769e-09
-1.594835e-09
3.305337e-10
1.264301e-09
-1.574044e-09
1.458993e-09
1.150511e-10
1.555004e-09
-1.547968e-09
-7.036381e-12
1.566466e-09
-1.692066e-09
1.255994e-10
-7.368096e-10
-1.070674e-09
1.807484e-09
-1.462844e-09
9.267063e-10
5.361378e-10
-5.264188e-10
2.967436e-09
-2.441018e-09
-1.345654e-09
-1.389149e-10
1.484569e-09
-1.62443e-09
1.37381e-09
2.506202e-10
-9.870278e-10
-3.213251e-10
1.308353e-09
-7.014329e-10
-1.149554e-09
1.850987e-09
1.113211e-09
-2.03348e-10
-1.160076e-09
1.4085e-09
-2.484239e-10
-1.320522e-09
-4.072552e-10
1.727778e-09
3.333148e-09
-4.965162e-09
1.632014e-09
-1.222766e-09
1.616358e-09
-3.93592e-10
1.447057e-09
1.475497e-10
-1.594607e-09
-1.405399e-10
1.498143e-09
-1.357603e-09
-1.755124e-09
1.746221e-10
1.580502e-09
1.762232e-09
-2.222485e-09
4.602535e-10
-1.923707e-10
1.959327e-09
7.292665e-10
1.042294e-09
-1.77156e-09
2.046087e-09
-1.608034e-09
-4.380533e-10
-1.507567e-09
-1.673857e-11
1.524306e-09
1.686908e-09
-8.843534e-10
-8.025542e-10
2.033177e-09
-9.299578e-10
-1.103219e-09
5.615051e-10
-1.8763e-09
1.314795e-09
-1.506318e-09
1.110434e-09
3.958842e-10
-1.588462e-09
3.653978e-10
-1.836392e-09
1.12489e-09
7.11502e-10
1.379347e-09
-1.526194e-10
-1.226728e-09
4.91025e-10
-1.876871e-09
1.385846e-09
-1.346158e-09
1.459859e-09
-1.137014e-10
1.205651e-09
-2.871113e-10
-9.185396e-10
1.414257e-09
-1.434821e-09
2.056328e-11
3.178574e-10
-1.514776e-09
1.196918e-09
-2.464762e-10
-1.11792e-09
1.364397e-09
1.991518e-09
-3.939773e-10
-1.597541e-09
-1.925731e-09
8.693457e-10
1.056385e-09
1.041601e-10
1.50296e-09
-1.60712e-09
-2.540289e-11
1.43966e-09
1.690969e-09
-2.729725e-10
-1.417997e-09
-6.20673e-10
1.597311e-09
-9.766381e-10
-3.909905e-10
1.344694e-09
-9.537037e-10
-1.527857e-09
-1.911192e-11
1.546969e-09
-8.291627e-10
2.197623e-09
-1.368461e-09
2.193057e-10
-1.415468e-09
1.196163e-09
-6.925416e-10
1.787848e-09
-1.095307e-09
1.267027e-09
-1.655497e-09
-1.290421e-09
4.39165e-11
1.246504e-09
-7.437453e-10
-6.319158e-10
1.375661e-09
6.342952e-10
3.980586e-10
-1.032354e-09
7.452817e-11
1.404853e-09
-1.479382e-09
3.253627e-10
1.049144e-09
-1.374507e-09
-6.268821e-10
-1.129934e-09
1.423842e-09
-4.867136e-11
-1.375171e-09
1.98607e-09
-1.108227e-09
-8.778425e-10
1.565994e-09
-1.800179e-09
2.341843e-10
1.535478e-10
1.633683e-09
-1.787231e-09
4.423379e-10
1.264293e-09
-1.706631e-09
-3.230225e-10
1.882693e-09
-1.559671e-09
-3.129953e-10
1.577887e-09
-1.264892e-09
-1.059219e-09
-2.044028e-10
8.721429e-10
-1.52925e-09
6.571074e-10
-7.823869e-10
1.248008e-09
-4.656212e-10
-5.085558e-10
1.234868e-09
-7.263122e-10
-1.51461e-09
1.334153e-09
1.804562e-10
-1.311072e-09
1.686903e-09
-3.758312e-10
-5.98255e-10
-9.220809e-10
1.520336e-09
-1.218805e-09
-2.875123e-10
-1.334298e-09
1.294706e-09
3.95915e-11
-9.583314e-10
1.95412e-09
1.872242e-09
-7.823804e-10
-1.089862e-09
1.062091e-09
-1.618561e-09
5.564698e-10
-1.565962e-09
9.083151e-10
6.576471e-10
-1.446762e-09
1.294647e-09
1.52115e-10
1.46213e-10
9.948597e-10
-1.141073e-09
1.536661e-09
-1.402328e-09
-1.343322e-10
7.881136e-11
-1.379306e-09
1.300495e-09
-1.171747e-09
7.286555e-10
4.430913e-10
1.846024e-10
1.013072e-09
-1.197674e-09
1.476098e-09
5.611906e-11
-1.532217e-09
1.159709e-09
-8.57052e-10
-3.026568e-10
-1.338227e-09
1.780565e-09
-1.000269e-10
1.107243e-09
-1.007216e-09
-5.249604e-10
1.52222e-09
-9.972595e-10
-1.914443e-09
2.932472e-10
1.621196e-09
1.735864e-09
-5.540342e-10
-1.181829e-09
4.330601e-10
-1.360918e-09
9.278582e-10
1.085477e-09
-1.963694e-09
8.782167e-10
1.027253e-09
-2.094365e-09
1.067113e-09
-1.227271e-09
-3.561709e-10
1.583441e-09
6.553324e-10
-1.744707e-09
1.089374e-09
1.344607e-10
-1.734406e-09
1.599946e-09
4.475663e-10
1.038879e-09
-1.486445e-09
-1.531249e-09
6.270194e-10
9.042297e-10
9.059257e-10
-1.486182e-09
-2.354141e-10
1.61828e-09
-1.382866e-09
1.000606e-10
-1.20038e-09
1.100319e-09
2.210479e-10
1.391627e-09
-1.612675e-09
2.652619e-10
5.971267e-10
-8.623887e-10
-1.623135e-09
1.522549e-09
1.005852e-10
-1.525517e-09
1.79494e-11
-1.682327e-09
7.769727e-10
9.053545e-10
-9.621368e-10
-7.191923e-10
1.681329e-09
-1.780046e-09
5.945693e-10
1.185477e-09
5.072265e-10
-1.568292e-09
1.061066e-09
-1.699244e-09
1.811955e-10
1.518048e-09
1.856964e-09
-7.971196e-10
-1.059845e-09
1.523476e-09
-1.205577e-09
-3.178995e-10
1.597374e-09
-1.053077e-09
-5.442978e-10
4.716532e-10
1.332225e-09
-1.803878e-09
-1.561778e-09
1.023091e-09
5.386865e-10
-5.578055e-10
-7.466434e-10
1.304449e-09
-3.01645e-10
-1.2186e-09
1.520244e-09
3.02636e-10
1.186985e-09
-1.489621e-09
1.760287e-09
-1.376248e-10
-1.532476e-09
1.877445e-10
1.344732e-09
2.204265e-10
-1.431909e-09
1.211483e-09
7.664241e-10
-1.848843e-09
1.082418e-09
-2.415528e-10
1.621642e-09
-1.380089e-09
-6.167079e-10
2.336233e-09
-1.719526e-09
3.479563e-10
-1.552616e-09
1.204659e-09
-2.701673e-10
1.41114e-09
-1.140973e-09
8.767516e-10
1.109318e-09
-1.324461e-09
1.546889e-09
-2.224286e-10
9.046751e-10
-1.033255e-09
1.285794e-10
1.346713e-09
-1.469612e-09
1.22899e-10
-1.220181e-09
-1.069306e-10
1.327111e-09
2.736077e-09
-1.346504e-09
-1.389573e-09
1.265022e-09
-1.424135e-09
1.591133e-10
9.925754e-10
2.067189e-10
-1.199294e-09
-6.051741e-11
-1.365265e-09
1.425782e-09
9.166184e-10
-1.425946e-09
5.093274e-10
-7.028314e-10
-3.633177e-10
1.066149e-09
-8.280486e-10
-7.707644e-10
1.598813e-09
1.294498e-09
2.343597e-10
-1.528858e-09
-1.235964e-09
2.832921e-10
9.526714e-10
-8.368658e-10
-1.503904e-09
2.34077e-09
1.972293e-09
-7.952845e-10
-1.177009e-09
1.416187e-09
-2.577911e-10
-1.158396e-09
-1.58912e-09
1.847165e-10
1.404404e-09
-1.816271e-11
1.315029e-09
-1.296867e-09
-1.495656e-09
-1.895336e-11
1.548645e-09
1.831113e-10
-1.572233e-09
1.389122e-09
-1.555121e-09
3.354509e-10
-1.636942e-09
1.757565e-09
-1.206228e-10
1.522538e-10
1.439184e-09
-1.591437e-09
-5.139136e-10
1.734066e-09
-1.220152e-09
-1.379755e-09
1.092636e-09
2.87119e-10
-7.880305e-10
9.342435e-10
1.386598e-09
5.285631e-10
-1.915161e-09
-1.215211e-09
6.627746e-10
5.52436e-10
-1.859037e-09
-7.360767e-11
1.932645e-09
-1.575228e-09
2.770395e-10
1.298189e-09
8.994282e-09
1.672236e-09
-3.724667e-10
-1.299769e-09
-1.257075e-10
-1.44786e-09
1.573567e-09
2.858846e-10
1.269475e-09
-1.555359e-09
-1.569204e-09
1.511123e-09
5.808174e-11
1.858787e-09
-1.18857e-10
-1.73993e-09
2.347443e-09
-1.252786e-09
-1.094657e-09
1.832396e-09
-1.214044e-09
-6.183521e-10
-1.19607e-09
-1.07039e-10
1.303109e-09
-2.110101e-10
-1.286006e-09
1.497016e-09
-1.30162e-09
1.194861e-09
1.067596e-10
-7.416812e-10
1.636863e-09
-8.951815e-10
-2.12328e-11
-1.555782e-09
1.577015e-09
1.542652e-09
-3.100315e-10
1.844418e-09
-1.748142e-09
-9.627565e-11
-1.275901e-09
1.365886e-09
-8.998465e-11
1.646154e-09
-9.915229e-10
1.280632e-09
-1.541457e-09
2.608253e-10
1.713541e-09
-9.133732e-10
-8.001675e-10
1.347821e-09
-4.312031e-10
-1.226742e-09
3.075603e-10
9.191815e-10
1.495313e-10
1.446923e-09
-1.596454e-09
1.501848e-09
-1.370805e-09
-1.310427e-10
-1.82554e-09
3.783145e-10
1.447225e-09
-3.267906e-10
-1.237805e-09
1.564595e-09
-1.968794e-09
5.636329e-09
-3.667535e-09
-8.618766e-10
-5.17878e-10
2.791791e-10
1.424845e-09
-1.704024e-09
-1.846486e-10
-1.167798e-09
1.352446e-09
1.796096e-09
-1.785675e-09
-1.042074e-11
7.869771e-10
1.334092e-09
-2.121069e-09
1.557298e-09
-1.476282e-09
-8.101647e-11
-3.74193e-09
2.116294e-09
1.625636e-09
1.261351e-09
-1.327127e-09
6.577609e-11
-7.849576e-09
7.849576e-09
2.610463e-10
1.499241e-09
-7.592842e-10
1.326278e-09
-5.669936e-10
1.576385e-09
-5.95399e-10
-9.809855e-10
1.272994e-09
-5.618439e-12
-1.267375e-09
-1.59206e-11
1.584357e-09
-1.568436e-09
-1.424431e-09
1.232061e-09
-5.797783e-09
4.249656e-09
1.548126e-09
-1.729973e-09
2.685717e-10
1.461401e-09
2.389703e-10
-1.109328e-09
8.70358e-10
1.132903e-09
-9.215803e-10
-2.113228e-10
1.350827e-09
-4.284101e-10
-9.224166e-10
-1.445128e-09
-9.359642e-12
1.454488e-09
-1.169526e-09
1.499685e-09
1.720905e-09
-6.124425e-10
-1.108463e-09
1.560918e-09
-1.266614e-09
-2.943037e-10
-1.345521e-09
5.231696e-10
8.223519e-10
1.699085e-09
-3.924853e-10
-1.3066e-09
-9.284795e-10
-1.012217e-09
1.940696e-09
6.007714e-10
1.210808e-09
-1.811579e-09
1.676847e-09
-1.798838e-09
1.219905e-10
-1.353667e-09
1.310252e-09
4.341504e-11
1.005857e-09
5.423291e-10
-1.548186e-09
1.252141e-09
-1.81367e-09
5.61529e-10
-8.608703e-10
1.716375e-09
-8.555052e-10
1.641056e-09
-1.684963e-09
4.390768e-11
1.190131e-09
3.525215e-10
-5.266899e-11
-1.355979e-09
1.408648e-09
1.572452e-09
-9.112735e-10
-6.611788e-10
-1.710906e-09
-3.155391e-11
1.74246e-09
1.842335e-09
-1.150748e-09
-6.91587e-10
1.361221e-09
-7.197069e-11
-1.28925e-09
7.664656e-10
8.53832e-10
-1.14624e-09
-5.403735e-10
1.686613e-09
-8.762334e-10
-8.060938e-10
1.427743e-09
-1.545789e-09
1.180461e-10
1.055832e-10
-1.243135e-09
1.137552e-09
-1.593364e-09
1.202374e-09
8.256856e-10
-2.163912e-09
-4.367291e-10
1.439703e-09
-1.002974e-09
7.504491e-10
-1.797953e-09
1.047504e-09
-1.017057e-10
-1.540463e-09
1.642169e-09
1.282047e-09
-1.287238e-09
5.190636e-12
-3.804456e-10
-1.410331e-09
-1.222108e-09
2.806374e-10
9.414702e-10
1.120994e-09
9.25093e-10
1.477547e-09
-1.398736e-09
1.379608e-09
-1.215825e-09
-1.63783e-10
-6.001312e-10
-9.932459e-10
1.593377e-09
-1.948358e-10
-1.427598e-09
1.622433e-09
4.417778e-09
-3.639588e-09
-7.781903e-10
1.697374e-09
-1.309078e-10
-1.552284e-09
9.669766e-10
5.853073e-10
-1.418041e-09
-2.150051e-10
1.633047e-09
4.816733e-10
-1.806178e-09
1.324505e-09
-1.925421e-10
-1.572785e-09
1.765327e-09
-2.139902e-09
1.170544e-09
9.69358e-10
1.059389e-09
-1.449271e-10
-9.144619e-10
-1.255467e-09
1.377037e-09
-2.719883e-09
2.330489e-09
3.893931e-10
7.322757e-10
8.812396e-10
-1.613515e-09
-6.918428e-10
-8.299008e-10
1.521744e-09
1.573339e-09
2.473211e-10
-1.82066e-09
-1.397471e-09
1.449883e-09
-5.241106e-11
-4.470367e-10
-1.129464e-09
1.576501e-09
-1.745095e-09
3.153351e-10
1.42976e-09
2.379329e-09
-1.204803e-09
-1.174527e-09
-1.454856e-09
1.826218e-09
-3.713625e-10
2.732295e-09
-1.375381e-09
-1.356914e-09
-1.434242e-09
-1.409866e-10
1.445972e-09
-1.03888e-10
-1.342084e-09
-1.87614e-09
1.027487e-09
8.486527e-10
1.794362e-09
-1.358945e-09
-4.354174e-10
1.093376e-09
-1.938637e-09
4.256252e-10
-1.163599e-09
7.379736e-10
-4.204195e-10
-1.163012e-09
1.583431e-09
1.518713e-09
-1.958911e-11
-1.499124e-09
-1.197377e-09
-4.43107e-10
1.640484e-09
1.372021e-09
-6.406693e-10
-7.313519e-10
-1.708009e-09
1.907232e-09
-1.992225e-10
9.531281e-10
5.815971e-11
-1.011288e-09
4.220924e-10
1.329886e-09
-1.751979e-09
9.369448e-11
1.392439e-09
-1.486133e-09
-1.53137e-09
1.410334e-09
1.210359e-10
-1.153558e-09
1.638765e-09
-4.85207e-10
1.827058e-09
-5.438543e-10
-1.283203e-09
-5.793219e-10
1.594235e-09
-1.014913e-09
9.465566e-10
-1.683366e-09
-3.211452e-10
-1.254802e-09
1.575947e-09
1.385988e-09
7.423177e-10
-2.128306e-09
-1.461063e-10
1.358982e-09
-1.212875e-09
-3.335554e-10
-1.160697e-09
1.494252e-09
1.127043e-09
1.252286e-09
1.714206e-09
-1.367145e-09
-3.470608e-10
8.032126e-10
-1.79661e-09
9.933978e-10
-1.387306e-09
-1.440647e-10
6.251335e-10
1.34716e-09
1.54013e-09
1.737877e-10
-1.713918e-09
3.730268e-09
-4.567134e-09
-1.581454e-09
4.904114e-10
1.091042e-09
-1.2345e-09
1.75724e-09
-5.2274e-10
-1.616143e-09
9.954704e-10
-1.373981e-09
1.602113e-09
-2.281321e-10
1.208108e-09
2.907311e-11
-1.237181e-09
-6.999331e-09
-8.076148e-10
7.806946e-09
-1.430957e-09
1.339356e-09
9.160133e-11
-1.093763e-10
-1.092013e-09
1.20139e-09
1.341914e-09
-1.432327e-09
9.041301e-11
1.24103e-09
4.307753e-10
-1.671806e-09
5.898196e-10
-1.670729e-09
1.08091e-09
-1.780227e-09
4.077419e-10
1.372485e-09
-1.949422e-09
1.378782e-09
5.706392e-10
9.619603e-10
5.326465e-10
-1.494607e-09
1.642321e-09
-1.421603e-09
-2.207177e-10
1.508947e-09
3.973026e-11
-1.548677e-09
-6.508723e-10
1.209846e-09
-5.589741e-10
-1.268863e-09
-6.385129e-10
1.907376e-09
-1.789103e-09
1.686243e-09
1.0286e-10
1.732056e-09
-1.204055e-09
-5.280011e-10
8.316486e-10
5.503628e-10
-1.382011e-09
-2.757242e-09
-2.575382e-10
3.01478e-09
1.772449e-09
-4.569526e-10
-1.315496e-09
4.093558e-10
-1.640377e-09
1.231021e-09
-4.922103e-09
4.501567e-09
4.20536e-10
-1.295604e-09
1.508596e-09
-2.129919e-10
-6.990398e-10
1.075239e-09
-3.761995e-10
1.339191e-09
-4.422686e-10
-8.969223e-10
-2.422157e-10
-1.006549e-09
1.248765e-09
1.126067e-09
-1.598295e-09
4.722275e-10
1.422682e-09
6.660074e-10
-2.08869e-09
1.670425e-09
-8.784703e-10
-7.919545e-10
-1.753052e-09
6.81853e-10
1.071199e-09
-1.692641e-09
1.669183e-09
-2.043669e-10
-1.464816e-09
-2.395551e-09
1.869132e-09
-1.224523e-09
-3.662503e-10
1.590773e-09
1.52085e-09
-1.495276e-11
-1.505898e-09
-4.48576e-11
-1.20296e-09
1.247817e-09
1.229723e-09
-1.385506e-09
1.55783e-10
-2.92984e-09
5.11216e-09
-2.18232e-09
4.305031e-10
7.354187e-10
-1.165922e-09
-2.820891e-10
1.519253e-09
-1.237164e-09
-4.706726e-10
-9.727948e-10
1.443467e-09
1.875755e-09
-1.117059e-09
-7.586956e-10
-4.468087e-10
1.331492e-09
-8.846829e-10
3.066418e-10
1.247918e-09
-1.55456e-09
-1.40971e-09
1.592822e-09
9.463649e-10
-1.829878e-09
1.564707e-09
7.827357e-10
1.446511e-09
-1.355323e-09
-9.11871e-11
1.25465e-09
1.554139e-10
-1.410064e-09
1.367045e-09
7.946579e-11
-1.797563e-09
1.315337e-09
4.822264e-10
1.619477e-09
-9.055125e-10
-7.139642e-10
4.086801e-10
-1.434372e-09
1.025692e-09
4.768261e-11
1.336147e-09
-1.383829e-09
4.849736e-10
-1.6545e-09
1.568289e-09
-5.934194e-11
-3.280822e-10
1.892419e-09
-1.463425e-09
7.611976e-11
2.524502e-10
1.184901e-09
-1.437351e-09
-6.311534e-10
1.600629e-09
-9.69476e-10
-1.020527e-09
-3.079152e-10
1.328442e-09
-1.025711e-09
-2.387878e-10
1.264499e-09
-2.283987e-10
1.619164e-09
-1.390765e-09
-1.66241e-09
3.056414e-10
1.356768e-09
-1.592565e-09
1.973854e-11
1.572826e-09
1.265228e-09
-1.61006e-09
3.448314e-10
-1.75948e-09
1.067637e-09
-3.568452e-10
1.412054e-09
-1.055209e-09
7.417124e-10
1.195243e-09
-1.936955e-09
-1.132845e-09
1.587739e-09
-4.548936e-10
-9.728181e-10
-3.477216e-10
1.32054e-09
1.79114e-09
-1.473283e-09
1.814994e-09
-1.641466e-09
-1.735281e-10
2.033562e-09
-9.958084e-10
-1.477434e-09
1.230958e-09
-1.987134e-10
1.398433e-09
-1.19972e-09
1.109712e-09
-1.519305e-09
4.095925e-10
-3.691392e-10
-1.314298e-09
1.683437e-09
-1.195558e-09
-1.29978e-10
1.325536e-09
1.882734e-09
-9.288088e-10
-9.539251e-10
-1.482304e-09
1.66257e-09
-1.802655e-10
2.055259e-09
-5.932716e-10
-1.461987e-09
7.048176e-10
1.11299e-09
-1.817808e-09
-1.320621e-09
-6.450325e-11
1.385125e-09
2.053752e-10
-9.877621e-10
-6.731804e-12
1.711185e-09
-1.704453e-09
-1.618036e-09
2.528897e-10
1.365146e-09
1.475861e-09
-1.462817e-09
-1.304431e-11
-3.584985e-10
1.686639e-09
-1.574593e-09
8.347717e-10
7.398215e-10
-1.666945e-09
7.691348e-10
-3.819141e-10
-7.997879e-10
1.181702e-09
-9.875591e-10
-6.224671e-10
1.610026e-09
-6.930144e-11
-1.166662e-09
4.539979e-10
-1.758936e-09
1.304938e-09
1.168843e-09
-7.550995e-10
-4.137432e-10
1.856283e-09
-1.024635e-09
-9.26255e-10
1.165663e-09
-2.394075e-10
1.741813e-09
-1.326919e-09
-4.148934e-10
1.068811e-10
1.451442e-09
-1.558323e-09
3.50586e-10
-9.778912e-10
6.273053e-10
6.781983e-10
1.306364e-09
-1.984562e-09
-9.169865e-10
1.364553e-09
3.996417e-10
-1.873164e-09
1.473523e-09
-7.261763e-10
1.755896e-09
-1.02972e-09
1.437901e-09
-7.061897e-10
-7.317116e-10
-5.425093e-10
-1.300429e-09
1.842939e-09
-1.079729e-09
-7.471469e-10
1.826876e-09
-1.413922e-09
5.858738e-10
1.354198e-09
-7.056555e-10
-6.485423e-10
-1.306723e-09
1.399426e-09
-9.270353e-11
4.469059e-10
-1.544157e-09
1.097251e-09
1.148369e-09
5.320758e-10
-1.680445e-09
1.394047e-09
-1.010798e-09
-3.832487e-10
-9.20612e-10
1.611707e-09
-6.910954e-10
-7.777714e-10
-1.526829e-09
1.291414e-09
-5.968398e-11
-1.300641e-09
1.360325e-09
-1.376938e-09
5.853449e-10
7.915933e-10
6.491953e-10
1.860604e-10
-8.352558e-10
1.702888e-09
-1.820376e-10
1.469245e-09
1.22327e-11
-1.481477e-09
-1.915977e-09
1.061334e-09
8.546429e-10
1.094471e-09
-1.514592e-09
1.288184e-09
-1.425809e-09
8.62322e-10
1.17124e-09
8.495737e-11
-1.225398e-09
1.14044e-09
7.795751e-10
-1.598723e-09
8.191477e-10
-1.76741e-09
4.655624e-11
1.720853e-09
2.186309e-10
1.53636e-09
-1.754991e-09
1.60508e-09
-1.443716e-09
-1.613638e-10
-1.912075e-09
2.334199e-09
-4.221244e-10
5.111406e-10
1.218354e-09
-1.729494e-09
4.397789e-10
-1.154785e-09
7.15006e-10
1.320583e-09
-1.600715e-10
-1.210293e-09
1.601444e-09
-3.911516e-10
1.593984e-09
-6.456306e-11
-1.529421e-09
1.337958e-09
-1.816223e-09
4.782646e-10
-1.024e-09
-4.793849e-10
1.503384e-09
-1.443143e-09
1.592675e-09
1.456368e-09
-1.416637e-09
8.748849e-10
-1.612271e-09
7.373865e-10
1.620747e-09
-1.699398e-10
-1.450808e-09
1.743504e-09
-1.632423e-09
-1.110806e-10
-1.597563e-09
1.457017e-09
1.405459e-10
-8.238874e-10
-7.1334e-10
1.537227e-09
2.392754e-10
-1.027306e-09
1.471482e-09
5.699562e-10
1.196243e-09
-1.59464e-09
3.983973e-10
-6.855749e-10
-1.325847e-09
2.011422e-09
-1.585766e-09
3.799869e-10
1.205779e-09
1.654231e-09
-8.74656e-10
-1.235235e-09
-6.169746e-11
1.296932e-09
-8.628097e-11
-1.498067e-09
1.584348e-09
7.001702e-10
9.603818e-10
-1.660552e-09
8.890548e-10
-1.338108e-09
4.490528e-10
8.763574e-10
9.180048e-10
2.165804e-09
-5.242779e-09
3.076975e-09
1.382813e-09
-1.141194e-09
-2.416191e-10
5.995251e-10
-1.329174e-09
7.296486e-10
-9.877616e-10
-7.0536e-10
1.693122e-09
1.638395e-10
-1.347304e-09
1.183465e-09
8.882632e-10
-2.011658e-09
1.123394e-09
2.444335e-10
-1.407989e-09
1.163555e-09
-1.707906e-09
-3.147089e-10
2.022615e-09
-7.013403e-10
1.742618e-09
5.876126e-10
-1.45269e-09
-1.671398e-09
-3.650839e-11
-1.090726e-09
1.71586e-09
-1.492606e-09
2.048188e-10
1.287787e-09
5.126295e-10
-2.060483e-10
1.372639e-09
-1.166591e-09
-1.284569e-09
1.533663e-09
-2.490949e-10
-1.48291e-09
-1.686868e-10
1.651597e-09
-1.471125e-09
2.89378e-10
1.181748e-09
1.117698e-09
-1.990685e-10
-9.186297e-10
1.939112e-09
-1.285352e-09
-6.537596e-10
-5.551938e-10
-1.584708e-09
-9.051671e-10
-7.029224e-10
1.60809e-09
1.774549e-09
9.163067e-10
-2.125138e-09
1.208831e-09
1.26759e-10
1.375089e-09
1.603774e-09
-2.559526e-10
-2.626929e-09
6.94412e-10
-1.41441e-09
1.560515e-09
-1.461048e-10
-1.392206e-09
-2.148401e-10
1.607046e-09
-2.803534e-10
1.466563e-09
6.864088e-10
-1.591576e-09
4.152985e-10
-1.647175e-09
1.231876e-09
-1.032489e-09
-3.337767e-10
1.366265e-09
-1.339921e-09
-2.836779e-10
1.623599e-09
-2.159551e-10
-1.356278e-09
3.28925e-10
1.144858e-09
-1.473783e-09
-2.756545e-09
1.296163e-10
8.704943e-13
1.446187e-09
-1.437788e-09
1.371693e-09
6.609501e-11
3.014309e-10
8.781443e-10
-1.179575e-09
-1.34699e-09
-2.817583e-10
1.628748e-09
2.944541e-10
1.015534e-09
-1.309988e-09
9.256908e-11
-1.52375e-09
1.431181e-09
-1.323136e-09
1.528277e-09
-2.051416e-10
-8.700691e-11
1.560029e-09
-1.473022e-09
-1.691512e-09
1.533423e-09
1.580892e-10
-6.864904e-11
1.60531e-09
1.141844e-09
-2.218342e-09
6.660725e-10
9.281898e-10
-1.594262e-09
-3.054216e-10
-1.280663e-09
1.586084e-09
1.949945e-10
-1.479249e-09
1.284255e-09
1.296835e-09
-1.396862e-09
4.12125e-10
6.584528e-10
-1.070578e-09
-6.402014e-10
-9.180384e-10
1.55824e-09
-2.031723e-10
1.41128e-09
1.30271e-09
-1.450809e-10
-1.157629e-09
8.323191e-10
9.155118e-10
2.201478e-10
-1.675004e-09
2.016049e-09
2.114204e-09
-4.130253e-09
-1.190414e-09
-1.313489e-10
1.321763e-09
1.645126e-09
-2.281135e-10
-1.417012e-09
1.419964e-09
-4.934553e-11
-1.370619e-09
-1.451346e-09
1.452217e-09
2.695727e-11
-1.457518e-09
1.43056e-09
4.445663e-11
-1.508178e-09
1.463722e-09
-1.102714e-09
1.879687e-09
-1.521414e-09
-8.348339e-12
1.290386e-09
-6.174503e-10
-6.729361e-10
1.472848e-09
3.694871e-10
4.70969e-10
-2.053864e-09
1.582895e-09
1.666586e-09
-1.664074e-09
-2.512364e-12
6.507651e-10
-1.151284e-09
5.005187e-10
-1.880343e-09
7.267849e-10
5.473197e-10
-1.518208e-09
9.708883e-10
-1.208593e-09
1.97281e-09
-7.642166e-10
9.278467e-10
-1.55393e-09
6.260837e-10
4.105067e-10
1.340633e-09
-1.75114e-09
-3.005006e-10
1.188984e-09
-8.884836e-10
1.540747e-09
5.340505e-11
-1.594152e-09
1.430622e-10
1.741764e-09
-1.884827e-09
-6.637454e-10
6.941083e-09
-6.277337e-09
2.18277e-10
1.461843e-09
-1.68012e-09
1.015923e-09
8.738002e-10
-1.889723e-09
-1.270797e-09
4.353309e-10
8.354662e-10
-1.424041e-09
1.378077e-09
4.596391e-11
1.749894e-09
-1.385698e-09
1.81511e-09
9.171846e-10
1.484219e-09
-1.37802e-09
-1.061991e-10
1.84185e-10
-1.394478e-09
-7.390981e-10
-7.078177e-10
1.446916e-09
1.084729e-09
8.52919e-10
-1.937648e-09
-7.78714e-10
1.318709e-09
-5.399953e-10
-1.098953e-09
-5.417117e-10
1.640665e-09
-1.535196e-09
-3.768786e-10
1.572295e-09
-1.624964e-09
-7.528082e-10
-5.488178e-10
1.301626e-09
1.739421e-09
-1.014053e-09
-1.744248e-09
3.502507e-10
1.393997e-09
-1.281494e-09
1.456315e-09
-1.748206e-10
1.649217e-09
1.468789e-10
8.066267e-10
-1.532803e-09
1.651135e-09
-3.355268e-10
-1.315608e-09
-4.907553e-09
-1.608095e-09
6.515648e-09
-2.704859e-09
-1.037471e-09
1.852262e-09
-1.153808e-09
-1.61097e-09
1.34817e-09
2.627995e-10
1.983143e-09
-1.709347e-09
-2.737964e-10
-1.342803e-09
-3.15113e-10
1.657916e-09
1.603309e-10
1.337014e-09
-1.497345e-09
-1.473931e-09
-1.800621e-10
1.653993e-09
9.025993e-10
-1.860931e-09
-1.74487e-09
3.888662e-10
1.356004e-09
-1.817051e-09
5.30165e-10
1.286886e-09
-8.765981e-12
-1.994447e-09
2.003213e-09
1.353862e-09
2.906251e-10
-1.644487e-09
1.081878e-09
7.779224e-10
1.75089e-09
-1.867799e-10
9.297861e-10
6.49944e-10
-1.57973e-09
-1.293892e-09
1.338155e-10
-1.462909e-09
1.251899e-09
-1.471893e-09
6.435312e-10
8.283614e-10
2.627699e-10
1.057042e-09
-1.319811e-09
1.730844e-09
-3.139034e-10
-1.41694e-09
-3.389946e-09
1.334231e-09
2.055715e-09
9.276623e-11
1.538708e-09
-1.631475e-09
1.146953e-09
7.288017e-10
-1.009393e-09
-3.354197e-11
1.042935e-09
1.47588e-09
1.870149e-10
-1.662895e-09
1.508276e-09
-8.264129e-10
-6.818626e-10
-8.143165e-10
-1.106043e-09
1.92036e-09
-3.026856e-09
3.30345e-09
-2.765936e-10
-1.013754e-10
1.440566e-09
8.885853e-10
6.607866e-10
-1.549372e-09
8.692376e-10
7.69527e-10
1.435845e-09
-1.661779e-09
1.522273e-09
1.395055e-10
1.374352e-09
1.947145e-09
-1.323348e-11
-1.933911e-09
-1.646126e-09
-2.79605e-10
-1.73865e-09
4.123905e-10
1.326259e-09
-1.253431e-09
2.616062e-11
-3.562718e-10
-1.29941e-09
-1.116449e-09
1.587418e-09
1.55846e-09
-8.536424e-10
-1.407087e-09
1.166665e-10
1.312297e-09
-1.607231e-09
2.949342e-10
1.832864e-10
1.054179e-09
-1.825785e-09
6.678522e-10
1.157933e-09
3.436733e-10
1.239346e-09
-1.583019e-09
1.233222e-09
-1.421893e-09
1.886707e-10
-1.52307e-09
8.480384e-10
6.750312e-10
5.123117e-10
1.499559e-09
-1.541006e-09
4.144691e-11
8.016044e-11
-1.428369e-09
1.348209e-09
-1.812382e-09
7.326524e-10
-1.70062e-09
1.579003e-09
1.216171e-10
-1.757057e-09
1.306684e-09
4.503722e-10
4.55263e-10
1.280601e-09
1.382537e-09
-1.15064e-09
-2.318965e-10
-6.64949e-10
1.507818e-09
-8.428685e-10
-1.547997e-09
-1.328856e-10
1.680883e-09
-1.841301e-09
4.601073e-10
1.381194e-09
-7.190614e-10
-6.323077e-10
1.351369e-09
1.60244e-09
-4.705396e-10
-1.1319e-09
-1.545647e-09
2.224561e-09
-6.789146e-10
3.298434e-10
-1.551173e-09
1.22133e-09
8.530259e-10
1.13233e-09
-1.985356e-09
1.635315e-09
-1.542549e-09
1.549529e-09
-1.850138e-09
3.006091e-10
1.965788e-09
-1.215339e-09
1.603927e-09
-4.603267e-10
-1.1436e-09
1.584149e-09
-1.365518e-09
1.387021e-09
3.310524e-11
-1.420127e-09
-1.986456e-09
1.604542e-09
7.324084e-11
-1.398431e-09
1.32519e-09
1.45753e-09
2.50149e-10
-1.707679e-09
-1.280692e-09
-2.340838e-10
-1.447034e-09
1.589355e-09
-1.423216e-10
6.429375e-10
-1.498181e-09
9.515432e-10
-1.860556e-09
9.090128e-10
1.608826e-09
-6.790396e-10
-1.30359e-10
-1.281302e-09
1.411661e-09
-1.790655e-09
6.470593e-10
1.143596e-09
-1.911821e-09
7.564375e-10
5.740873e-10
-1.330525e-09
1.162058e-09
-1.352995e-09
1.909369e-10
-1.200793e-09
1.647699e-09
-1.762969e-09
9.703062e-10
7.926624e-10
-3.967196e-10
-1.462317e-09
-1.498866e-09
2.800602e-10
-1.020458e-09
-5.870581e-10
-1.417441e-09
8.427213e-10
5.747193e-10
1.538813e-09
1.811827e-09
-3.35064e-09
-1.730271e-09
5.840317e-10
-1.063484e-09
1.79576e-09
-1.045958e-09
-1.594588e-09
8.116112e-10
7.829771e-10
7.787478e-10
8.908418e-10
-1.66959e-09
1.330637e-09
2.356065e-11
1.300081e-09
-1.388458e-09
1.610443e-09
-1.385657e-09
-2.247853e-10
1.524368e-09
-8.438841e-10
-6.804841e-10
-1.627496e-09
1.337571e-09
2.89925e-10
-1.31924e-09
-3.569196e-10
1.676159e-09
-8.286071e-10
1.339748e-09
-1.276135e-09
1.344269e-09
-6.813367e-11
1.624623e-09
-1.347664e-09
-2.769587e-10
9.614939e-10
-1.771562e-09
8.100681e-10
-1.562568e-10
-1.058954e-09
1.586538e-10
-1.276574e-09
3.485345e-10
1.155887e-09
-1.504421e-09
-1.326818e-09
1.583455e-09
-2.566368e-10
1.625218e-10
-1.307579e-09
-1.063433e-10
-8.59413e-10
-3.644264e-09
2.506485e-09
1.137779e-09
-2.847017e-10
-1.573437e-09
1.858139e-09
1.858218e-09
-9.95896e-10
2.420618e-10
-1.815499e-09
1.324888e-09
-1.55208e-09
1.372175e-10
1.414862e-09
-1.582134e-09
3.953516e-10
1.186783e-09
9.255027e-10
1.973385e-10
-1.122841e-09
1.27118e-09
1.814337e-12
-1.018273e-09
-9.59827e-11
1.114255e-09
-1.607116e-09
3.211102e-10
-7.075886e-10
-9.223931e-10
1.629982e-09
-1.259856e-09
-4.843918e-10
1.48908e-09
-1.107494e-09
-3.815857e-10
2.018812e-09
-8.990554e-10
-1.119756e-09
1.409747e-09
2.594355e-10
-1.139448e-09
1.425332e-09
-2.50591e-11
1.574588e-09
1.792981e-09
6.39836e-11
-1.882776e-09
1.55926e-09
3.235158e-10
-2.188343e-10
1.276571e-09
1.213013e-09
-2.001198e-09
7.881846e-10
3.148856e-10
9.660727e-10
-1.280958e-09
-1.161672e-09
1.557912e-09
-3.962393e-10
1.6111e-09
-9.681624e-10
9.541127e-10
8.838545e-10
-1.837967e-09
-1.685004e-09
1.329238e-10
-9.409438e-10
-5.326782e-10
1.473622e-09
1.528547e-09
-1.584089e-09
1.259875e-09
-1.242119e-09
-3.527156e-10
-4.536535e-10
1.639387e-09
-1.185733e-09
-3.082988e-10
1.064736e-09
-9.023918e-10
1.450411e-09
-1.471644e-09
-5.564652e-11
-1.468107e-09
1.523753e-09
1.880798e-09
-8.977365e-10
-9.83062e-10
3.111931e-10
-1.687067e-09
1.375874e-09
-8.757295e-10
1.602356e-09
-7.266264e-10
1.386473e-09
1.055347e-10
-1.492008e-09
1.1682e-09
5.086465e-10
-1.59099e-09
3.221273e-10
-1.027526e-09
1.577916e-09
-5.503899e-10
6.454245e-11
-1.360146e-09
1.845693e-09
-1.284188e-09
-1.625566e-09
1.244257e-09
3.813083e-10
-4.133513e-10
1.818205e-09
6.832308e-10
-1.689508e-09
1.006278e-09
3.113499e-10
9.166064e-10
-1.227956e-09
-1.294159e-09
1.520024e-09
-2.258652e-10
1.877546e-09
-1.293497e-09
-5.840491e-10
2.658743e-10
-1.282655e-09
1.01678e-09
-1.054105e-09
1.46623e-09
7.806192e-10
-1.721563e-09
1.990919e-09
-1.414628e-09
-5.76291e-10
1.326251e-09
-1.624893e-09
2.986421e-10
1.339428e-09
-1.527389e-09
1.879615e-10
-1.258509e-09
-2.530683e-10
1.511577e-09
1.505268e-09
-2.388751e-10
-1.266393e-09
-1.744601e-09
4.378728e-11
1.700813e-09
-1.663344e-09
7.239077e-10
9.394363e-10
-1.471757e-09
2.499425e-11
-1.068398e-09
1.020643e-09
4.775456e-11
7.596583e-10
-1.957035e-09
-1.921786e-09
1.73427e-09