/*--------------------------------*- C++ -*----------------------------------*\
| =========                 |                                                 |
| \\      /  F ield         | OpenFOAM: The Open Source CFD Toolbox           |
|  \\    /   O peration     | Version:  2406                                  |
|   \\  /    A nd           | Website:  www.openfoam.com                      |
|    \\/     M anipulation  |                                                 |
\*---------------------------------------------------------------------------*/
FoamFile
{
    version     2.0;
    format      ascii;
    arch        "LSB;label=32;scalar=64";
    class       volScalarField;
    location    "0.16";
    object      p;
}
// * * * * * * * * * * * * * * * * * * * * * * * * * * * * * * * * * * * * * //

dimensions      [0 2 -2 0 0 0 0];

internalField   nonuniform List<scalar> 
4536
(
-1.76189e-05
3.234671e-05
-4.296051e-07
-1.611061e-05
4.660649e-05
4.939024e-05
3.271537e-05
3.063225e-05
2.977073e-06
3.978119e-05
-4.084328e-06
2.384924e-06
-7.450263e-06
3.996321e-05
3.325613e-05
1.894783e-05
3.766445e-05
-1.058155e-06
4.42526e-05
5.105572e-05
2.902254e-05
2.962528e-05
5.866816e-06
3.110531e-05
3.941502e-06
5.293703e-05
2.77697e-05
3.07019e-05
-1.439427e-05
8.973485e-06
2.079683e-05
2.081507e-06
3.977659e-05
1.61498e-05
2.107173e-05
4.002348e-05
3.386537e-05
3.510607e-05
3.169521e-05
-2.664709e-06
2.611057e-05
1.532024e-05
3.305216e-05
5.111434e-05
-7.202272e-06
-1.950916e-05
3.155431e-05
1.899509e-05
-2.052177e-06
4.07013e-05
2.934841e-05
4.618889e-05
2.743413e-05
2.949138e-07
5.447422e-05
4.061708e-05
4.559145e-05
2.237384e-05
-2.054592e-05
-1.30044e-06
4.800306e-05
2.720937e-05
-3.18336e-06
3.600719e-05
2.374619e-05
1.075142e-05
3.280168e-05
1.311103e-05
2.614901e-05
1.000517e-05
2.450842e-05
4.140168e-05
5.736131e-06
-9.902897e-06
2.923833e-05
3.643613e-06
1.368417e-05
3.461267e-05
-1.633033e-05
-5.24775e-06
2.366734e-05
6.380016e-05
9.031779e-05
-8.18773e-06
4.311128e-05
2.573239e-05
2.578409e-05
2.502272e-05
2.300494e-05
4.63179e-05
3.338639e-05
4.443187e-05
4.239562e-05
1.875405e-05
3.009314e-05
3.624549e-05
5.457816e-06
3.291966e-05
-1.892737e-05
9.571727e-06
-1.878632e-05
5.088476e-06
1.728416e-05
3.823845e-05
-8.596146e-06
-1.69217e-06
2.129911e-05
-2.190518e-06
2.724787e-05
1.884814e-05
7.590484e-05
3.713172e-05
2.893299e-05
4.32131e-05
3.442399e-05
5.887741e-06
-1.053739e-05
2.707036e-05
3.743084e-05
1.426901e-05
7.052885e-06
1.532754e-05
4.063089e-06
-5.289302e-06
1.511902e-05
5.371595e-05
3.865747e-05
2.204825e-05
1.207508e-05
4.17014e-05
-9.365045e-06
2.315498e-06
5.030654e-05
2.747818e-05
5.592303e-05
2.911249e-05
-9.60502e-06
9.64744e-06
3.075645e-05
1.796647e-05
3.752821e-05
-6.140177e-06
1.551526e-05
3.96757e-05
2.829738e-05
-9.598888e-07
1.370413e-05
3.475417e-05
3.282974e-05
5.413381e-05
2.959728e-05
3.431642e-05
-1.409591e-06
2.069383e-05
4.628626e-05
4.45947e-05
4.493952e-05
1.821681e-05
3.585968e-05
3.22517e-06
8.227935e-06
3.440471e-05
5.70345e-06
3.888672e-05
5.708599e-05
3.334356e-05
1.254023e-05
2.599579e-05
2.775837e-06
5.270376e-05
4.430954e-05
3.559865e-05
2.025422e-05
8.51914e-05
2.495248e-05
4.580825e-05
8.608861e-06
2.941458e-05
3.485146e-05
2.298062e-05
1.962529e-05
3.042844e-05
7.140532e-05
4.170512e-05
4.847957e-05
6.172999e-05
4.201849e-06
2.473564e-05
1.037959e-05
2.578115e-05
2.188528e-06
-1.406136e-05
4.465913e-06
-5.033629e-06
2.86363e-06
5.505154e-05
5.458227e-05
4.658706e-05
4.709814e-05
3.725373e-05
2.951089e-05
2.679261e-05
3.070971e-05
3.069946e-05
3.11914e-05
3.130169e-05
2.613362e-05
-6.724831e-06
3.234633e-05
4.289243e-05
-7.332358e-06
2.455342e-05
1.650456e-05
5.285098e-05
2.113115e-05
3.007224e-05
-2.552231e-06
-4.133e-07
3.730722e-05
3.95834e-05
1.441871e-05
2.421548e-05
5.149852e-06
2.058296e-07
4.179859e-06
2.428521e-05
2.734369e-05
-9.05232e-06
3.044279e-05
-4.624209e-06
2.16482e-05
-2.198712e-06
1.133629e-05
4.617991e-05
9.37979e-06
4.82342e-05
7.683662e-05
4.021629e-05
2.900117e-05
1.601604e-05
1.576426e-06
4.510678e-05
1.682636e-05
2.180279e-05
4.698948e-05
9.551371e-06
8.344829e-06
2.488167e-05
3.245679e-05
1.417805e-05
1.69541e-06
4.298858e-05
6.316636e-05
7.074368e-05
4.4191e-05
2.467714e-05
8.066992e-06
2.53884e-05
4.112987e-06
4.11029e-06
3.203443e-05
2.978046e-05
4.355092e-05
-1.084123e-05
7.744926e-05
6.675464e-06
1.524852e-05
1.763863e-05
4.842707e-05
3.966769e-05
2.42751e-07
1.688711e-05
-1.447377e-05
4.267117e-05
2.968248e-05
1.163546e-05
1.384639e-05
1.289583e-05
4.22801e-05
5.012717e-05
2.315993e-05
3.666766e-05
5.948645e-05
3.352775e-05
-7.284919e-06
1.535678e-05
1.991906e-05
5.783913e-05
3.765021e-05
4.777298e-06
1.163952e-07
1.794519e-06
9.759099e-06
3.273099e-05
3.237755e-05
2.967913e-05
1.009179e-05
1.535164e-05
3.44974e-05
3.07594e-05
1.297666e-05
1.164649e-05
1.533844e-05
-1.789394e-06
-9.361127e-06
-1.139154e-05
-1.509823e-05
6.067794e-06
1.276932e-05
4.074798e-05
2.654712e-05
5.487119e-05
5.037837e-05
2.137599e-05
-7.141224e-06
2.848221e-05
3.620127e-05
4.167331e-05
3.031117e-05
2.890856e-05
2.882757e-05
2.982207e-05
2.921786e-05
2.735407e-05
4.382967e-05
5.498997e-05
1.895573e-05
3.166934e-05
3.146481e-05
1.613681e-05
8.034649e-06
1.576278e-05
3.823405e-06
6.905569e-06
-1.164817e-05
8.553921e-06
3.27006e-05
4.090582e-05
3.5956e-05
3.709443e-05
1.087365e-05
4.78914e-05
1.642248e-05
-1.14206e-05
2.318976e-05
5.60195e-05
3.023538e-05
1.868002e-05
3.274088e-05
2.867623e-05
4.556908e-05
2.186139e-05
3.299838e-06
2.466069e-05
4.027953e-05
4.248329e-05
4.344833e-05
5.78289e-05
2.72278e-05
6.089294e-05
5.123564e-06
2.846754e-05
6.603042e-05
3.961676e-05
2.801301e-05
6.629351e-05
1.785153e-05
-1.536906e-05
9.329916e-06
7.49026e-06
4.938232e-05
3.406284e-05
1.150286e-05
4.044397e-05
2.802522e-05
-5.942862e-06
1.19466e-05
4.645698e-05
1.047021e-05
1.000579e-06
4.292108e-05
3.623151e-05
3.296216e-05
2.965152e-05
1.546683e-05
7.301004e-06
7.651363e-06
4.413336e-05
6.166092e-05
7.861443e-05
4.228919e-05
1.051085e-05
1.885689e-06
3.600063e-05
1.055451e-05
3.574694e-06
4.662213e-05
3.337606e-05
2.91377e-05
-1.008564e-05
4.686197e-05
-1.70808e-05
4.579085e-05
4.855699e-05
2.610084e-05
4.327638e-05
4.471091e-05
-9.563962e-08
5.935884e-06
2.775485e-05
9.64356e-07
3.463628e-05
4.870027e-05
4.831083e-05
-4.285318e-06
5.283264e-06
1.750243e-05
2.351132e-05
1.952693e-05
-6.940173e-06
-4.637542e-06
7.730947e-06
3.782037e-05
1.141184e-05
3.291562e-05
3.08373e-05
2.339628e-05
2.333562e-05
2.829325e-05
2.853378e-05
4.221882e-05
1.678139e-05
9.448258e-06
-3.726123e-06
2.48103e-06
-1.847604e-06
3.55004e-05
5.481148e-05
-3.918307e-06
3.792817e-05
3.758745e-05
5.609764e-05
-1.381791e-05
2.631859e-05
3.18542e-05
5.053618e-05
-2.120105e-05
-6.102598e-06
-5.766026e-07
4.265761e-05
3.408712e-05
4.598256e-05
2.873612e-05
-1.015428e-05
3.810006e-05
4.568405e-05
5.249359e-05
3.382783e-05
4.189611e-05
3.957883e-05
8.579322e-06
2.018318e-05
1.989912e-05
3.713712e-05
2.992818e-05
4.609209e-05
3.906763e-05
3.708493e-05
4.622055e-05
4.370275e-05
3.436077e-05
4.534758e-05
4.80061e-05
3.20052e-06
2.35969e-05
3.994216e-05
6.182602e-05
3.927586e-05
3.202332e-06
1.190156e-05
5.072675e-05
3.622784e-05
-6.05109e-06
-5.602205e-06
1.842606e-05
2.22181e-05
5.404918e-05
3.304777e-06
3.874905e-06
3.42812e-05
-5.421016e-06
2.398732e-05
4.040041e-05
4.696303e-05
2.906588e-05
2.743892e-05
5.311413e-06
2.341871e-05
4.537993e-05
1.548782e-05
2.984675e-05
-1.044098e-05
3.774155e-05
3.093097e-05
7.795971e-06
1.945621e-05
6.036979e-05
-9.256956e-06
2.817829e-05
9.039541e-06
5.125197e-06
2.873435e-05
1.658998e-05
2.678844e-05
2.391959e-05
4.486277e-05
4.48461e-05
4.349652e-05
3.119437e-05
5.206079e-05
5.955359e-05
2.557486e-05
3.244358e-06
1.263647e-05
6.966623e-06
4.324098e-06
9.42147e-06
3.446194e-05
4.975568e-05
1.293762e-05
1.496974e-05
3.300186e-05
4.036543e-05
4.789676e-05
2.646394e-05
3.303054e-05
5.083217e-05
3.271867e-05
4.426767e-05
4.245276e-05
1.278089e-05
2.411194e-05
3.163001e-05
1.820978e-05
2.969329e-05
3.652352e-05
2.866397e-05
6.368147e-06
1.428863e-05
3.46715e-05
3.434161e-05
2.244927e-05
2.784065e-05
2.307307e-06
3.230948e-06
-5.67151e-06
2.760673e-05
1.688147e-06
6.108462e-05
4.744466e-05
4.892183e-05
5.084097e-05
5.06322e-05
2.420521e-05
4.204763e-05
2.578178e-05
4.180175e-05
-7.070897e-08
3.194032e-05
-5.624771e-06
3.142701e-05
3.20802e-05
3.349035e-05
3.863485e-05
3.830189e-05
4.267436e-05
1.727679e-05
-2.637279e-05
2.804548e-05
2.892151e-05
-2.807097e-05
5.153339e-05
1.646824e-05
-4.29857e-06
3.296177e-05
2.858005e-05
3.605223e-05
4.065889e-05
3.008327e-05
2.054562e-05
3.131117e-05
1.286917e-05
8.47111e-06
2.678391e-05
-1.96894e-05
6.781695e-05
7.03033e-05
2.686103e-05
-9.407355e-06
3.057563e-05
3.616812e-05
2.938719e-05
4.407101e-05
6.444371e-06
2.675385e-05
2.174432e-05
4.370621e-05
4.108512e-05
2.044228e-05
4.743875e-05
4.468357e-05
3.302654e-05
3.317736e-05
-7.983629e-06
3.592753e-06
6.84178e-05
2.282473e-05
-1.834818e-05
1.155661e-05
2.436352e-05
2.228355e-05
-1.509204e-06
2.605178e-05
6.521355e-06
1.454528e-05
1.787822e-05
3.103177e-05
4.175589e-05
6.219162e-05
5.462089e-05
2.650459e-05
3.025174e-05
2.974053e-05
3.12639e-06
3.191371e-05
3.151659e-05
-6.884969e-06
1.382668e-06
4.298573e-05
3.656036e-05
-5.630873e-07
1.165863e-05
-5.477722e-06
5.805558e-05
1.595836e-05
5.449952e-05
2.356496e-05
2.230639e-05
-2.741453e-06
4.198653e-06
6.55756e-06
4.087659e-05
3.307789e-05
-9.372773e-06
-1.146337e-05
-9.651715e-06
2.1389e-05
2.261367e-05
2.856983e-05
2.861993e-05
2.970006e-05
-6.802754e-06
-8.906733e-06
3.800371e-05
1.41294e-05
1.876108e-05
-7.438385e-06
4.478993e-06
1.795517e-05
4.477765e-05
1.134764e-06
3.123076e-05
1.05831e-05
9.018546e-06
1.461753e-05
-1.675027e-05
3.89481e-06
5.059578e-07
6.307606e-06
7.638023e-06
3.099024e-05
3.207877e-05
2.91349e-05
3.601018e-05
5.313825e-06
2.84898e-05
4.451552e-05
1.001675e-05
1.025567e-05
9.223369e-06
-1.698292e-06
1.351537e-05
2.405436e-05
1.065919e-05
1.184712e-05
1.791002e-05
2.616091e-05
3.481864e-05
2.76573e-05
2.726927e-05
-6.275097e-07
1.673501e-05
5.151625e-05
4.520745e-05
4.13853e-05
4.737712e-05
1.520598e-05
-1.047748e-05
5.951566e-05
3.940692e-05
3.035572e-05
5.906174e-06
2.223686e-05
4.656323e-05
4.818814e-05
1.122726e-05
2.624559e-06
1.799735e-06
-2.335149e-05
4.622704e-05
3.717736e-05
3.103286e-05
3.46637e-05
4.209052e-05
-1.732989e-05
9.671535e-07
3.06706e-05
1.440717e-05
1.610927e-05
-1.213567e-05
2.196697e-05
2.602262e-05
-2.925136e-06
1.582347e-05
7.074631e-06
-2.148211e-06
1.488249e-05
6.430871e-05
1.528962e-05
4.983279e-05
9.914721e-06
6.128088e-05
2.992104e-06
2.331861e-06
-2.559407e-05
2.944524e-05
1.985818e-05
4.386839e-05
-6.172295e-06
5.395592e-06
5.954194e-06
4.119593e-05
-5.759423e-06
2.55861e-05
6.249257e-06
2.944282e-05
2.271496e-05
2.529325e-05
2.181632e-05
-1.501712e-05
4.449013e-05
2.467986e-05
3.834244e-05
1.947765e-05
-2.602736e-06
1.841599e-06
3.646555e-05
4.008346e-05
4.260895e-05
2.281367e-05
-4.250366e-06
5.286979e-05
1.42553e-05
4.769331e-05
2.703353e-05
4.081885e-05
4.757407e-05
3.788214e-05
-1.108913e-05
5.142417e-05
3.403387e-05
3.759095e-05
2.068331e-05
1.886461e-07
3.945912e-05
2.500042e-05
5.627132e-06
5.089659e-05
2.501006e-05
8.378429e-05
4.28103e-05
3.616756e-05
4.037034e-05
4.462841e-05
4.959159e-05
5.046858e-05
4.261821e-05
4.588355e-05
2.906539e-05
4.349102e-05
3.019502e-05
3.061904e-05
4.583176e-05
3.805795e-05
2.077852e-05
-1.020414e-05
2.624126e-05
4.190565e-05
-9.664311e-06
5.399381e-06
2.075753e-05
2.879941e-05
3.31355e-05
4.844081e-05
2.332529e-05
-2.38977e-06
5.61784e-05
3.922462e-05
1.8698e-05
6.658716e-06
-6.284306e-06
4.081956e-05
6.416053e-06
3.239476e-05
2.982297e-05
3.158253e-05
3.673888e-05
5.798889e-05
3.10474e-06
5.414583e-06
-1.752456e-05
-1.253516e-05
2.557348e-05
3.000639e-05
1.233621e-05
1.246059e-05
9.184088e-06
2.70998e-06
2.829427e-05
3.833084e-05
3.27332e-05
3.047355e-05
-1.193869e-05
3.670851e-05
2.002279e-05
-1.585047e-06
1.219184e-05
6.081012e-05
9.784304e-06
1.095948e-05
4.049851e-05
5.04082e-06
1.791968e-05
3.693531e-05
5.371006e-05
5.637788e-05
4.779653e-05
4.858721e-05
5.170761e-05
2.38666e-05
8.169899e-06
2.550384e-05
-1.209185e-05
4.520185e-05
3.209949e-05
3.536336e-06
6.422301e-05
-1.441747e-05
8.540199e-06
2.217856e-05
2.757296e-05
2.773803e-05
2.589235e-05
2.563204e-05
3.191697e-05
3.269572e-05
4.350178e-05
-1.926028e-06
-1.635385e-06
7.856323e-07
9.904026e-06
-1.408506e-06
3.416862e-06
3.107615e-05
1.185912e-05
1.969793e-05
2.104022e-06
4.347167e-06
6.233687e-06
3.050016e-05
3.539601e-05
3.658659e-05
3.564581e-05
3.489779e-05
1.849769e-05
2.187016e-05
-3.346784e-06
-3.622138e-06
2.968378e-05
2.76072e-05
2.807823e-05
2.651682e-05
2.229613e-05
5.742852e-07
-5.062611e-06
1.375373e-06
3.365382e-06
3.787538e-05
3.878847e-05
2.455704e-05
-2.642879e-06
3.867062e-05
3.491712e-05
2.782431e-05
2.298404e-05
3.341108e-05
3.342378e-05
1.681026e-06
-6.252388e-06
-6.758192e-06
-8.578246e-06
-2.795988e-06
4.228369e-05
-4.811463e-07
-8.960504e-06
-1.283088e-05
5.588847e-05
-6.876155e-06
-9.50938e-06
7.4968e-06
3.383834e-05
2.749139e-05
-1.379881e-06
-1.121836e-05
-3.371986e-06
1.879601e-06
3.499705e-05
3.55692e-05
2.889276e-05
3.69428e-05
8.362859e-06
6.756287e-06
1.341874e-05
3.17102e-05
5.448016e-05
2.932202e-05
3.097602e-05
3.42686e-05
5.471439e-05
4.864494e-05
4.540801e-05
6.361232e-06
4.360637e-05
5.104135e-05
3.998075e-05
8.106921e-06
2.688251e-05
4.40227e-05
2.679118e-05
3.664365e-05
4.940659e-06
1.336694e-06
2.741601e-05
2.872015e-05
4.344438e-05
2.709095e-05
2.269204e-05
2.019209e-05
2.60781e-05
3.905092e-06
3.95529e-05
2.971345e-05
4.615838e-05
3.135409e-05
4.493156e-05
5.390693e-06
3.566891e-05
1.644572e-05
4.704175e-05
5.038786e-05
5.599832e-05
5.36665e-05
5.223451e-05
3.51053e-05
3.360007e-05
1.020514e-05
3.070613e-05
-6.215453e-06
2.214418e-05
2.337874e-05
3.459858e-05
3.023139e-05
1.90593e-05
3.89258e-05
-3.43086e-06
-7.118565e-06
3.123225e-05
3.106071e-05
4.228979e-05
2.286483e-05
5.665966e-06
-1.652928e-05
4.544858e-05
4.363221e-05
4.400347e-05
7.537102e-06
5.597361e-05
2.206761e-06
5.828863e-06
1.584094e-05
1.483332e-05
1.561262e-05
3.906544e-05
6.023277e-07
-2.213176e-06
-8.935241e-07
1.952503e-05
-7.290141e-06
4.564648e-05
4.901034e-07
-8.786351e-06
9.356579e-06
4.942281e-05
4.174894e-05
3.64532e-05
2.199516e-05
3.552005e-05
3.85049e-05
2.017428e-05
4.231351e-05
2.348075e-05
5.423194e-05
2.594411e-05
2.793199e-05
2.698874e-05
7.359568e-06
4.213048e-05
4.130361e-05
4.113974e-05
3.672894e-06
4.469582e-06
-1.239573e-05
4.726194e-05
3.548516e-05
4.555233e-05
4.587759e-05
2.921566e-05
2.634293e-05
1.758706e-05
5.415872e-05
4.445005e-05
3.103685e-05
2.447658e-05
-1.574012e-05
2.916204e-05
4.684007e-05
-2.45096e-05
3.525757e-05
6.199902e-06
7.921507e-06
3.460393e-05
6.533133e-06
3.210471e-05
2.782882e-05
3.293108e-05
1.95078e-05
4.062064e-05
1.43256e-05
6.224513e-05
6.675888e-05
3.45641e-05
3.583273e-05
4.759532e-05
3.808817e-05
4.825847e-05
3.250111e-05
3.071127e-05
4.220291e-05
5.732678e-05
5.676566e-05
7.346197e-06
-2.85352e-08
-1.094152e-05
-1.25923e-05
3.410549e-05
4.243915e-05
4.371574e-05
3.170112e-05
4.188415e-05
6.537335e-05
2.643754e-05
-5.373733e-07
7.647177e-06
-2.274571e-05
2.314824e-05
2.407462e-05
3.376955e-05
1.139062e-05
3.345979e-05
6.579319e-05
4.575309e-05
2.681473e-05
1.124569e-05
4.26799e-06
-5.366173e-06
4.108011e-05
-2.091548e-05
1.085527e-05
3.335395e-05
3.405307e-05
-1.467547e-05
-5.299926e-06
1.818124e-05
-1.664414e-05
4.289867e-05
-9.562925e-06
3.530037e-05
2.88067e-05
2.658067e-05
3.852838e-05
4.023264e-05
3.188093e-05
3.194403e-05
2.399784e-05
2.04182e-05
7.96284e-05
0.0001031549
2.106648e-05
2.188576e-05
1.750843e-05
2.73571e-05
2.304502e-05
2.269162e-06
3.962936e-05
1.453246e-06
1.065529e-05
1.190915e-05
4.139711e-05
3.002218e-05
-9.073441e-06
4.719521e-05
3.650498e-05
8.443997e-06
1.17183e-05
1.459667e-05
-1.112296e-05
4.004491e-05
1.335526e-05
1.027242e-05
-3.630261e-06
-5.047551e-06
4.107872e-05
3.768007e-05
-4.86835e-06
-6.772613e-06
1.337862e-05
1.42715e-05
4.146996e-05
3.031636e-05
2.945271e-05
3.200499e-05
3.032755e-05
7.437238e-06
-1.522775e-06
4.81754e-05
4.721495e-05
4.970792e-05
3.928412e-05
3.202576e-05
3.123153e-05
5.160068e-06
-2.881743e-06
9.58552e-06
7.573304e-06
5.358944e-06
3.754053e-06
5.221164e-05
5.847005e-05
3.655627e-05
3.595198e-05
6.762833e-06
7.528792e-06
8.181645e-06
1.987826e-05
9.845668e-06
4.343287e-05
-1.097312e-06
1.950429e-05
2.047412e-05
6.781723e-07
3.623207e-06
3.897791e-05
-8.806889e-06
2.872838e-05
1.975806e-05
2.820181e-05
-8.066118e-06
1.841822e-05
2.35237e-05
2.455362e-05
-6.409153e-06
-9.834973e-06
-8.331718e-06
2.116331e-05
-5.154002e-06
2.201674e-05
2.497425e-05
-1.198784e-05
3.163508e-05
-2.877176e-06
-3.639844e-06
4.938847e-05
-1.259086e-05
2.695148e-05
2.849665e-05
2.817423e-05
4.302383e-05
4.450428e-05
4.857568e-05
4.989762e-05
3.519787e-05
-1.843594e-06
3.438686e-05
3.822335e-06
4.534476e-06
3.066373e-06
7.583234e-05
-1.421487e-05
4.191168e-05
3.773903e-05
-1.983885e-06
5.19084e-05
6.767825e-05
1.987834e-05
2.568335e-05
1.785433e-05
6.947049e-05
2.908823e-05
3.041655e-05
2.776081e-05
3.731457e-05
3.764284e-05
5.866018e-07
4.427025e-05
6.607767e-06
1.096656e-05
4.462755e-05
1.334506e-05
9.16102e-06
8.418888e-06
4.260192e-05
2.608191e-05
-1.403079e-05
6.838025e-06
2.117792e-05
1.135771e-05
-1.346097e-05
2.870824e-05
3.908506e-05
-6.971874e-06
2.973055e-05
4.105155e-05
4.510234e-05
4.306435e-05
3.735949e-05
4.963404e-05
4.489338e-05
4.573628e-05
5.883644e-05
2.394651e-05
1.772837e-05
3.375509e-05
2.825038e-05
3.175216e-05
4.382304e-05
5.786191e-05
6.092141e-05
-3.108196e-06
3.92602e-05
6.553873e-06
2.893943e-05
5.06778e-05
2.367828e-05
2.97983e-05
3.362416e-05
3.77158e-05
3.884256e-05
2.614516e-05
-8.582183e-06
4.489281e-05
3.122503e-05
3.645879e-05
5.526581e-06
-3.877849e-07
4.218308e-06
7.029819e-06
3.402931e-05
3.717209e-06
-1.030864e-05
2.746495e-05
2.767455e-05
2.45572e-05
2.596134e-05
2.947096e-05
-5.256518e-06
3.113591e-05
3.209234e-05
1.031571e-05
2.429064e-06
4.598236e-05
4.852242e-05
4.517577e-05
4.51042e-05
4.504213e-05
2.078404e-05
5.082866e-06
2.895677e-05
2.515838e-05
-9.277135e-06
8.667048e-06
8.845703e-06
1.731248e-05
2.817989e-05
1.615999e-05
1.693238e-05
4.521418e-05
3.779275e-05
3.805589e-05
4.456459e-05
4.273391e-05
3.830839e-05
4.417533e-05
3.540463e-05
4.296696e-05
4.490654e-05
2.471054e-05
4.404827e-05
3.397045e-05
3.879284e-05
4.274789e-05
3.941028e-05
-7.266464e-06
1.459948e-05
1.998258e-05
1.969318e-06
8.097438e-05
7.50514e-05
2.277646e-05
-1.73589e-05
3.273087e-05
5.731411e-05
6.784298e-06
3.495198e-05
3.513391e-05
1.060923e-05
1.459689e-05
3.056235e-05
2.178009e-05
3.432888e-05
3.329826e-05
2.791576e-05
9.59637e-06
1.327581e-05
2.892264e-05
3.144301e-05
6.520448e-06
3.408234e-05
1.377159e-05
3.825071e-05
5.213884e-05
1.265869e-05
2.675889e-05
4.677613e-05
6.201808e-06
2.462026e-05
6.392462e-06
1.634016e-05
2.965795e-05
3.325533e-05
4.147572e-05
1.892644e-05
-1.447276e-05
6.874989e-06
-1.04561e-05
2.807433e-05
2.193117e-05
1.841764e-05
1.821817e-05
4.977402e-05
2.477083e-05
4.461771e-05
2.585921e-05
1.611021e-05
1.218619e-06
4.651704e-06
4.912383e-05
6.858669e-05
7.757763e-05
2.662408e-05
-5.189576e-06
3.07048e-05
3.168371e-05
2.429685e-05
3.427127e-05
3.387927e-05
-2.577067e-05
3.524689e-05
-8.323323e-06
3.05778e-05
-5.301316e-06
2.875782e-05
5.272725e-06
-4.655015e-06
4.380693e-05
6.140731e-06
1.091472e-05
4.124987e-05
2.699826e-05
8.492303e-06
3.203828e-05
3.112817e-05
4.276279e-05
1.613686e-05
1.481425e-05
1.426991e-05
1.551834e-05
5.079831e-05
4.887631e-05
4.039087e-05
4.20697e-05
3.994702e-05
4.078195e-05
3.964366e-05
3.307929e-05
8.454353e-05
3.339278e-05
1.429736e-05
3.264926e-05
3.257028e-05
-3.226965e-06
-1.845597e-05
7.954129e-06
4.580824e-06
2.693918e-05
6.040889e-05
1.689636e-05
2.985109e-05
4.980112e-05
1.106448e-05
8.603689e-06
-6.653193e-06
3.194188e-05
2.95503e-05
2.837618e-05
3.248798e-05
4.093137e-05
4.205712e-05
6.987257e-05
4.412686e-05
2.583232e-05
4.819536e-05
4.707206e-05
3.740741e-05
4.090436e-05
2.455903e-05
-1.146298e-06
-7.662659e-06
9.622472e-06
7.764277e-05
2.158769e-05
-9.777577e-07
-9.250429e-06
1.061249e-06
2.325516e-05
1.810698e-05
2.88933e-05
3.210851e-05
-8.045682e-06
6.952686e-05
6.604625e-05
3.124317e-05
9.074953e-06
7.197814e-05
4.202324e-05
4.237777e-05
1.338237e-05
5.115882e-06
3.353427e-05
3.419964e-05
3.631284e-05
-1.452481e-05
-9.423166e-06
4.294303e-05
4.310488e-05
3.802834e-06
4.19248e-05
2.541749e-05
-1.774798e-05
-2.235595e-05
-1.250527e-05
3.695806e-05
2.943931e-06
-1.115833e-05
-1.273331e-05
3.569421e-05
3.018668e-05
6.844087e-05
1.588275e-05
4.917644e-05
2.969489e-05
2.177893e-05
-2.276076e-06
2.875154e-06
1.70278e-05
5.650318e-06
3.4637e-05
3.396645e-05
1.14463e-05
1.486182e-05
2.65447e-05
1.201332e-05
5.222301e-05
7.158476e-06
3.350978e-05
3.692019e-05
3.232745e-05
1.914262e-05
-7.543972e-06
-2.33309e-06
3.795533e-05
2.812363e-05
2.754739e-05
3.222127e-05
7.526183e-06
4.028667e-05
-7.688235e-06
1.832227e-05
7.041525e-05
2.241147e-05
6.089624e-05
-3.43479e-06
3.35852e-06
3.818887e-05
-1.457436e-05
-2.31003e-06
8.899466e-06
2.252287e-05
2.366337e-05
4.846471e-05
5.132879e-05
4.921883e-05
4.759991e-05
4.970442e-05
4.796339e-05
5.10488e-05
4.613715e-05
4.899343e-05
-1.147985e-05
-1.206619e-05
-2.204766e-06
-2.942274e-07
4.611581e-05
4.604307e-05
4.552222e-05
4.719007e-05
4.744846e-05
4.673579e-05
-1.125344e-06
2.438383e-07
1.026152e-07
-7.490746e-06
-9.533697e-06
3.107537e-05
9.57249e-06
4.014824e-05
1.000997e-06
-2.477389e-05
5.78629e-05
-4.721184e-06
-3.453422e-06
-1.702874e-05
3.63444e-05
1.042874e-05
1.146361e-05
-5.954642e-07
1.240744e-06
2.806774e-05
2.502882e-05
1.399723e-05
6.392546e-05
5.387436e-05
2.842303e-05
2.591634e-05
8.373532e-07
1.872829e-05
2.664862e-05
2.738025e-05
-1.58505e-06
3.878121e-06
4.184508e-05
9.493366e-06
1.150375e-05
-1.875207e-05
2.011672e-06
-5.213983e-06
1.370228e-05
1.356527e-05
3.654042e-05
3.551027e-05
2.71273e-05
2.704263e-05
2.281628e-05
-2.004404e-06
-3.827223e-06
2.053792e-08
3.43941e-05
3.432324e-05
3.387069e-05
-1.321499e-05
2.798663e-06
3.361159e-06
2.160172e-05
1.712757e-05
5.742392e-05
2.016666e-05
2.052959e-05
2.23636e-05
3.99522e-05
4.772792e-05
5.178306e-05
5.390139e-06
5.483752e-05
2.946486e-05
4.266804e-05
2.946041e-05
1.996384e-05
9.424743e-06
3.01652e-05
4.694327e-05
1.167736e-05
7.424195e-05
7.36049e-05
3.202086e-05
3.249836e-05
3.84709e-05
4.285342e-05
4.769686e-06
5.677593e-06
6.820664e-06
2.826482e-05
4.488588e-05
4.150089e-05
4.00581e-05
-6.066208e-06
4.001638e-06
4.236726e-06
9.741289e-06
2.903798e-06
3.706227e-05
3.812577e-05
3.091741e-05
3.115009e-05
7.051054e-06
7.721993e-06
3.661395e-07
1.605985e-05
1.682196e-05
1.024771e-05
4.040359e-05
1.267084e-06
2.691963e-06
2.744308e-05
2.69785e-05
3.244307e-05
2.646664e-05
2.686541e-05
3.04195e-05
3.090752e-05
3.32657e-05
2.726586e-05
2.435766e-05
3.430122e-05
4.559893e-05
3.974438e-05
3.048694e-05
8.03006e-06
3.358623e-05
5.739126e-06
7.293844e-06
1.690134e-05
3.013241e-05
2.808672e-05
2.919712e-05
2.968237e-05
2.785315e-05
3.938805e-05
1.264563e-05
3.627359e-05
4.518173e-05
-1.776106e-05
2.8574e-05
2.727104e-05
2.67198e-05
2.093226e-05
2.094326e-05
-1.483054e-05
2.635918e-05
-4.762091e-06
2.874183e-05
2.564618e-06
3.277828e-05
2.305282e-05
4.5045e-05
4.473257e-05
3.469867e-05
2.65939e-06
1.559759e-06
1.882845e-05
1.166596e-05
2.249261e-05
2.955758e-05
3.844474e-05
3.862277e-05
3.784164e-05
6.941962e-06
1.38331e-05
-7.447847e-06
4.399964e-05
4.419637e-05
3.228918e-05
3.036672e-05
1.147902e-05
1.939668e-06
1.332502e-05
1.529879e-05
3.434393e-05
-3.489957e-05
3.524266e-05
3.528676e-05
5.447376e-05
5.463586e-05
3.811277e-05
2.553685e-06
5.260507e-06
-8.417051e-06
2.346138e-05
2.304444e-05
3.677369e-05
6.157059e-05
-3.440266e-07
2.756988e-05
7.596171e-06
3.731597e-05
3.328379e-06
3.523499e-06
1.995532e-05
2.476204e-05
4.876536e-05
3.198774e-05
-1.963306e-05
-1.859441e-05
4.589053e-05
7.056628e-05
3.159763e-05
-1.801797e-05
-1.43338e-05
3.761352e-05
4.189766e-05
3.891497e-05
3.753204e-05
4.252677e-05
4.193007e-05
4.330598e-05
4.281367e-05
3.967188e-05
3.949145e-05
2.637296e-05
3.002025e-05
2.893231e-05
2.739726e-05
4.215984e-05
3.883402e-05
4.010108e-05
2.272969e-06
4.152585e-05
3.152333e-05
2.552978e-05
2.575512e-05
3.00223e-05
2.707441e-05
3.217559e-06
-5.105314e-06
1.946273e-05
4.677454e-05
4.376793e-05
-9.934571e-06
4.264982e-05
4.253699e-05
4.547556e-05
4.223923e-05
-1.418861e-07
4.880151e-05
1.809476e-06
4.646898e-06
3.908075e-05
4.594552e-05
4.344017e-05
4.400333e-05
4.276085e-05
2.60174e-05
5.613554e-05
7.081118e-05
1.346658e-05
1.407904e-05
9.900694e-06
2.098502e-05
2.333248e-05
2.388828e-05
5.759996e-05
2.598617e-05
3.625288e-06
3.080057e-05
3.33479e-05
1.51346e-05
3.816668e-05
3.879673e-05
4.209025e-05
7.610161e-06
3.284191e-05
3.193284e-05
-1.375059e-06
9.130714e-06
2.739204e-05
2.816988e-05
3.268261e-06
7.444705e-05
1.485444e-05
1.469403e-05
1.433036e-05
1.503176e-05
5.592162e-05
6.118761e-05
5.220212e-05
2.886587e-05
-8.240591e-07
2.961922e-05
-1.007178e-05
-1.170004e-05
3.082481e-06
4.451033e-05
2.972276e-05
-1.502933e-06
2.800523e-05
3.006126e-05
2.207375e-06
1.21685e-05
-9.113133e-06
-8.243561e-06
3.709239e-05
5.686998e-06
6.139567e-06
2.722801e-05
3.059647e-05
1.319525e-05
5.363833e-05
3.735406e-05
3.790993e-05
7.276699e-05
6.204331e-05
2.603245e-05
2.04531e-05
-9.958746e-06
3.239847e-05
4.113816e-05
4.107004e-05
-2.240343e-05
4.622425e-06
3.649463e-05
3.619068e-05
-5.193864e-07
8.902104e-07
7.833149e-05
2.484031e-05
2.39429e-05
1.703773e-05
2.76451e-06
1.781847e-05
-1.179522e-05
4.150355e-06
3.134182e-05
2.857048e-05
8.963534e-06
2.497687e-05
5.975076e-06
5.945803e-06
4.988695e-05
4.94046e-05
2.897947e-05
4.094947e-05
4.124075e-05
3.008901e-05
2.430099e-05
3.06015e-05
2.968457e-05
1.711719e-06
3.214636e-05
3.597805e-05
5.047995e-05
3.772455e-05
1.542065e-05
1.527805e-05
4.309742e-05
4.094595e-05
-4.305844e-07
-8.03458e-07
5.18003e-06
1.710208e-05
1.416611e-05
1.974155e-05
2.116695e-05
6.367286e-05
3.270745e-05
-1.863993e-05
2.205447e-05
1.999148e-05
2.088937e-05
3.015369e-06
2.653429e-05
2.074807e-05
5.024946e-05
4.866991e-05
9.329072e-06
1.658782e-05
1.773538e-05
5.107266e-05
4.260693e-05
3.924544e-05
3.876955e-05
-1.170068e-05
4.401104e-05
4.612233e-05
2.236552e-05
3.376873e-05
3.281991e-05
4.202452e-05
4.142522e-05
2.612542e-05
4.805695e-05
4.829711e-05
5.225968e-05
4.816329e-05
4.986754e-05
4.950748e-05
4.285796e-05
5.503201e-05
3.274851e-05
-1.49837e-06
4.418786e-05
4.555972e-07
-6.589146e-07
3.103702e-05
2.807166e-05
1.411277e-05
1.379758e-05
5.27823e-06
7.646372e-06
4.602428e-05
-4.149918e-06
2.574186e-05
-5.076315e-06
2.831658e-06
4.248775e-05
-2.14294e-06
3.045966e-05
3.093653e-05
3.968186e-05
1.187944e-05
3.350194e-05
4.115921e-05
1.210451e-05
3.755764e-05
2.887766e-05
1.740822e-05
-1.453752e-05
-1.319163e-05
2.999109e-05
3.009182e-05
5.161368e-05
7.28961e-06
5.568683e-05
7.115709e-05
1.673795e-05
3.856117e-05
3.884163e-05
5.445203e-05
2.031547e-05
2.36202e-05
5.281171e-05
5.214185e-05
3.335653e-05
1.163293e-05
1.062939e-05
3.554836e-06
3.372287e-06
1.159829e-05
7.06236e-06
1.304072e-05
-1.337268e-05
5.953896e-06
4.536382e-06
4.470808e-05
1.205863e-05
8.548186e-06
-1.041967e-06
-2.210308e-05
2.124525e-05
9.20077e-06
4.426818e-05
2.953615e-05
2.82095e-05
2.763493e-05
5.297768e-05
9.944337e-06
7.101899e-05
1.972196e-05
2.973234e-05
4.363601e-05
3.743496e-05
1.604589e-06
2.642371e-05
-4.166274e-06
2.994021e-05
4.604161e-05
1.60303e-05
1.62877e-05
-1.291497e-06
3.13184e-05
3.667244e-05
-4.148868e-06
2.809303e-05
2.73087e-05
9.523239e-06
9.941392e-06
1.101535e-05
2.826922e-05
2.818438e-05
3.598267e-05
5.353925e-05
5.419148e-05
3.385155e-05
-4.871007e-06
4.322847e-05
2.504751e-05
2.435299e-05
3.85924e-05
3.839829e-05
1.404767e-05
8.747734e-06
-3.835257e-06
-2.650276e-06
-1.078008e-06
2.8582e-05
2.967621e-05
5.983463e-06
4.019944e-05
4.047619e-05
3.543961e-05
4.097943e-05
3.992652e-05
4.293921e-05
4.099188e-05
2.710647e-05
3.674262e-05
3.670087e-05
5.017389e-05
5.893329e-05
6.402208e-05
3.304074e-05
2.057023e-06
2.026227e-06
6.607887e-05
1.144831e-05
1.097467e-05
-5.301726e-06
3.504414e-05
7.429077e-05
4.247594e-05
4.246343e-05
2.892674e-06
3.915019e-05
4.011062e-05
1.031091e-06
-5.196343e-06
3.649801e-05
2.303909e-05
4.147239e-05
2.904297e-05
2.851923e-05
6.984196e-06
3.37189e-05
4.153856e-05
4.043555e-05
-1.253269e-05
-9.710211e-06
1.23142e-05
1.348035e-05
4.422665e-05
4.414346e-05
1.290959e-05
4.810381e-05
1.42276e-05
1.347054e-05
1.480136e-05
1.446547e-05
-1.085935e-05
2.108375e-05
3.003879e-05
6.4674e-05
6.200845e-05
3.21322e-05
3.178625e-05
6.38705e-06
7.908592e-06
5.739234e-05
5.650946e-05
-8.013621e-06
4.10243e-05
3.106006e-05
3.056298e-05
3.136413e-05
3.161031e-05
-2.583848e-06
1.894413e-06
9.123921e-06
1.173251e-05
-6.892483e-06
-4.393399e-06
-1.095847e-05
2.058162e-05
1.871473e-05
1.381011e-05
2.271733e-05
4.261274e-05
4.312768e-05
2.745551e-05
1.21893e-05
5.182728e-05
4.413326e-05
5.357115e-05
2.31458e-05
8.131608e-06
7.666811e-06
5.685916e-05
5.550482e-05
2.865586e-05
2.901471e-05
3.770976e-05
-1.79723e-05
-1.671967e-05
4.062965e-05
4.216328e-05
5.861113e-05
3.531303e-05
3.567571e-05
6.770463e-05
6.772779e-05
6.494404e-05
6.605413e-05
8.310095e-05
-2.026048e-05
2.551523e-05
2.349918e-05
8.071726e-06
-3.210913e-06
3.468528e-06
6.213281e-06
-4.600804e-06
3.472265e-05
3.280264e-05
-1.224958e-05
8.246208e-06
4.013429e-05
3.555438e-05
1.871102e-05
1.359535e-05
3.798694e-05
9.98747e-07
3.522032e-05
-1.154382e-05
-1.060236e-05
1.315726e-05
-3.332809e-07
2.977138e-05
-7.158757e-06
-1.077271e-05
1.345716e-05
-2.533979e-06
-1.953469e-06
5.777872e-06
4.853789e-06
4.318293e-06
1.097077e-06
1.520514e-05
1.618489e-05
2.7077e-05
4.80563e-06
4.521792e-06
8.832851e-06
4.313924e-05
4.536196e-05
4.557153e-05
4.493005e-05
1.725112e-05
1.756648e-05
1.253159e-05
1.072373e-05
8.684264e-08
-1.383076e-06
-4.381799e-06
-2.884658e-06
-2.984628e-06
-4.189972e-06
2.47866e-05
2.820866e-05
2.88136e-05
2.730207e-05
2.699331e-05
2.974592e-05
2.764697e-05
-9.733723e-07
1.756925e-06
-7.516917e-07