/*--------------------------------*- C++ -*----------------------------------*\
| =========                 |                                                 |
| \\      /  F ield         | OpenFOAM: The Open Source CFD Toolbox           |
|  \\    /   O peration     | Version:  2406                                  |
|   \\  /    A nd           | Website:  www.openfoam.com                      |
|    \\/     M anipulation  |                                                 |
\*---------------------------------------------------------------------------*/
FoamFile
{
    version     2.0;
    format      ascii;
    arch        "LSB;label=32;scalar=64";
    class       volVectorField;
    location    "0.68";
    object      U;
}
// * * * * * * * * * * * * * * * * * * * * * * * * * * * * * * * * * * * * * //

dimensions      [0 1 -1 0 0 0 0];

internalField   nonuniform List<vector> 
15536
(
(-0.01546834 8.52698 -1.421551e-21)
(-0.3506601 8.950655 -1.114393e-18)
(-0.6920081 9.115295 -2.353397e-18)
(-0.9954828 8.833946 -2.38321e-18)
(-1.174166 8.027568 -3.695307e-20)
(-1.137479 6.466185 2.478282e-20)
(-0.6990014 3.630312 3.160993e-20)
(0.2491106 -0.4355987 -3.25898e-20)
(1.104917 -3.01371 7.357801e-18)
(1.189685 -2.974974 7.009123e-18)
(0.7196794 -1.860316 0)
(0.01340014 -0.202134 0)
(0.5510287 -0.8708347 -4.726346e-20)
(1.909269 -2.89634 1.191375e-17)
(2.562487 -3.752666 5.725822e-18)
(2.468615 -3.425667 -1.08216e-17)
(2.350619 -3.030412 5.096255e-18)
(2.364685 -2.787627 3.611587e-20)
(2.172005 -2.348146 -7.290845e-20)
(1.246583 -1.281257 3.729578e-20)
(-0.2278883 0.1509788 0)
(-1.76736 1.443799 7.393247e-18)
(-3.358149 2.60344 0)
(-4.975628 3.624273 1.163326e-17)
(-6.455122 4.377767 -9.801458e-20)
(-7.827493 4.97197 -1.193691e-19)
(-6.453587 4.169709 1.197589e-19)
(1.322643 -0.2269137 -8.612025e-18)
(6.826407 -3.200731 -4.063897e-18)
(2.920966 -1.412577 0)
(-0.8901288 0.1648974 -3.930465e-20)
(-2.22258 0.6075541 -5.236216e-18)
(-4.224448 1.057171 5.817993e-18)
(-6.682545 1.507 0)
(-9.336136 2.000008 -9.972263e-18)
(-6.503482 1.423741 -3.465546e-20)
(-0.2956537 0.2084739 4.294608e-18)
(0.8374801 -0.2199498 -2.026524e-18)
(2.571467 0.002602179 1.936178e-21)
(8.22344 0.469146 -4.62582e-19)
(11.74863 1.069507 1.830079e-18)
(13.46092 1.708715 -2.894593e-20)
(14.32583 2.389095 2.85666e-20)
(14.78179 3.082177 0)
(15.00434 3.762196 -7.147556e-18)
(15.05432 4.414393 -7.07115e-18)
(14.93758 5.028104 0)
(14.71759 5.608071 -1.343091e-17)
(14.42441 6.158652 1.307114e-17)
(14.08787 6.684412 1.26087e-17)
(13.6969 7.169868 4.59495e-20)
(13.24599 7.610944 -1.145973e-17)
(12.74332 8.002554 0)
(12.19765 8.346373 0)
(11.61809 8.63894 9.340656e-18)
(11.00271 8.872311 8.606841e-18)
(10.3705 9.057547 5.782368e-20)
(9.727489 9.192534 6.899939e-18)
(9.060172 9.258008 1.225057e-17)
(8.381859 9.262797 5.282978e-18)
(7.700876 9.210064 4.380511e-18)
(7.030655 9.10887 -3.118026e-20)
(6.367814 8.948973 0)
(5.710204 8.723702 1.754672e-18)
(5.071919 8.449937 0)
(4.448772 8.113623 3.561635e-20)
(3.848761 7.721513 -2.887872e-20)
(3.28324 7.284028 -3.155419e-21)
(2.751795 6.799029 8.321e-21)
(2.258694 6.270323 -3.308418e-18)
(1.809893 5.706587 -1.701845e-20)
(1.40623 5.105429 2.380417e-18)
(1.049477 4.469207 2.685821e-18)
(0.7451401 3.814203 0)
(0.4927382 3.144276 0)
(0.2951637 2.457666 3.425019e-18)
(0.1501348 1.770649 -4.121854e-22)
(0.06027668 1.107998 9.525587e-19)
(0.02536996 0.4381333 1.77706e-21)
(0.04344068 -0.3270046 -7.614919e-21)
(0.1093306 -1.120341 -1.896056e-18)
(0.2329139 -1.868899 0)
(0.4123352 -2.582983 3.497209e-18)
(0.6444764 -3.26983 0)
(0.9278591 -3.929023 -3.050895e-18)
(1.259864 -4.5575 2.75921e-18)
(1.639735 -5.153967 2.065068e-20)
(2.063894 -5.717151 4.39252e-18)
(2.528639 -6.236813 1.324964e-20)
(3.029676 -6.710668 -3.068462e-18)
(3.564246 -7.141151 -2.338554e-18)
(4.129376 -7.522336 1.493024e-20)
(4.722593 -7.855844 -7.887862e-19)
(5.335084 -8.137243 -2.538831e-21)
(5.960577 -8.36348 9.243396e-21)
(6.589067 -8.522173 6.08375e-21)
(7.224964 -8.627056 -2.337008e-18)
(7.863879 -8.678478 0)
(8.497072 -8.669351 7.608265e-18)
(9.125927 -8.609562 4.475082e-18)
(9.731307 -8.486112 9.142344e-20)
(10.30949 -8.30208 -5.927227e-18)
(10.85601 -8.060755 0)
(11.36857 -7.766568 0)
(11.84536 -7.427504 0)
(12.27726 -7.042083 0)
(12.65338 -6.611464 8.51556e-18)
(12.96918 -6.139852 8.940678e-18)
(13.22186 -5.634127 3.160076e-20)
(13.36329 -5.084689 -9.423694e-18)
(13.3763 -4.493724 -4.747012e-18)
(13.23781 -3.867024 -4.822084e-18)
(12.85918 -3.202612 3.744966e-20)
(12.09656 -2.5201 4.68474e-18)
(10.57683 -1.818112 2.325396e-18)
(7.557691 -1.054089 -1.802986e-20)
(1.761866 -0.2287286 -4.635959e-21)
(-3.630898 0.1721474 3.250704e-19)
(-2.186943 0.120023 -5.819413e-19)
(-0.9921795 0.210516 -8.995042e-21)
(5.074641 0.7892156 5.170375e-21)
(-0.3127908 -0.4245478 1.966422e-18)
(-9.046015 -2.331732 2.048943e-20)
(-11.07407 -2.819687 0)
(-8.399691 -2.308612 -3.309861e-18)
(-5.460251 -1.70145 -1.185354e-18)
(-3.522359 -1.261107 2.963824e-21)
(-2.244271 -0.8648448 -5.89338e-19)
(-0.3884421 -0.06253599 2.001786e-18)
(2.185246 1.199325 0)
(3.159601 1.72546 0)
(1.126823 0.53115 2.13709e-18)
(-1.435555 -1.145319 0)
(-1.915059 -1.436374 1.004201e-20)
(-1.084362 -0.8343901 -1.628048e-18)
(-0.4956796 -0.4835143 -1.886607e-18)
(-1.1825 -1.187805 7.999411e-21)
(-1.756282 -1.757864 -1.25294e-18)
(-1.207355 -1.232613 2.092084e-21)
(-0.0729073 0.02430665 -1.521902e-18)
(1.034954 1.427871 -7.817129e-19)
(1.918018 2.692439 -2.610197e-19)
(2.436254 3.602246 2.492993e-19)
(2.137495 3.279739 0)
(0.9097273 1.449414 -2.734576e-21)
(-0.09940046 -0.2094237 -3.665175e-19)
(-0.1127126 -0.2472356 0)
(0.05693412 0.1878421 6.276541e-19)
(0.283811 0.9086118 -7.006888e-21)
(0.5204627 1.779822 4.08147e-21)
(0.7001386 2.680256 9.421202e-19)
(0.8038127 3.580455 1.769002e-21)
(0.8354363 4.466303 0)
(0.7946657 5.328333 1.065712e-18)
(0.687475 6.172899 9.269034e-21)
(0.5156868 7.031186 3.325385e-21)
(0.2825345 7.858241 -4.433934e-21)
(-0.3668335 8.778582 -4.25521e-19)
(-0.7454564 9.308688 9.142489e-19)
(-1.121688 9.573902 0)
(-1.487452 9.676492 1.942303e-18)
(-1.792558 9.601441 0)
(-1.939199 9.239943 7.100487e-18)
(-1.709093 7.937647 2.332733e-20)
(-0.6946644 3.881332 -2.440289e-20)
(0.935114 -2.020558 -5.889126e-18)
(1.390665 -3.556231 -5.765185e-18)
(1.048074 -2.752884 0)
(0.9230295 -1.979739 3.695157e-20)
(1.665539 -2.622925 1.24462e-21)
(2.720052 -4.162637 -4.693099e-18)
(2.738995 -4.168096 -9.460668e-18)
(2.757303 -3.96013 4.388345e-18)
(3.055411 -3.976562 -4.045306e-18)
(3.261978 -3.926153 -3.095955e-20)
(2.586552 -3.050795 0)
(1.039648 -1.419439 0)
(-0.5991443 0.1898521 0)
(-2.069196 1.440308 5.930505e-18)
(-3.582473 2.513509 6.630879e-20)
(-5.116554 3.441752 -6.417103e-20)
(-6.528046 4.096507 9.431282e-20)
(-7.583616 4.464629 -9.252687e-20)
(-8.160459 5.365566 0)
(-1.225235 1.764052 0)
(7.760786 -3.619588 6.502754e-18)
(4.376161 -2.329942 4.639729e-20)
(2.274752 -1.145739 -4.953573e-20)
(1.71682 -0.7669532 4.339703e-18)
(0.7249101 -0.5626861 5.017473e-18)
(-0.9947927 -0.2351911 -6.000287e-20)
(-3.358802 0.6384424 -8.904416e-18)
(-5.913126 1.477345 4.134668e-18)
(-0.6069784 0.4905578 -4.793483e-21)
(8.624145 -0.2029625 1.36181e-18)
(13.663 0.1911186 0)
(17.55483 0.5971452 3.166696e-19)
(18.69787 0.991458 2.648072e-18)
(18.86933 1.519891 2.777419e-18)
(18.83847 2.170406 2.818922e-18)
(18.68915 2.852328 -8.773908e-20)
(18.47186 3.546141 5.715042e-18)
(18.19629 4.234931 -4.351532e-20)
(17.87877 4.914753 0)
(17.507 5.567659 1.069105e-17)
(17.07611 6.192719 0)
(16.60153 6.785805 -7.591189e-20)
(16.07649 7.333932 7.611212e-20)
(15.49725 7.834305 9.140654e-18)
(14.87113 8.280427 -6.459463e-20)
(14.20469 8.672283 8.066937e-18)
(13.5059 9.005456 -7.507364e-18)
(12.77877 9.276812 0)
(12.03337 9.49603 4.576218e-20)
(11.27632 9.657938 -5.655817e-18)
(10.50283 9.748951 -9.765268e-18)
(9.717626 9.771171 0)
(8.9335 9.735203 -3.514279e-18)
(8.159462 9.642049 -1.89182e-20)
(7.395992 9.483786 2.071749e-18)
(6.644252 9.259747 7.834485e-21)
(5.911385 8.975684 -7.929652e-21)
(5.201499 8.628118 -2.888372e-20)
(4.517556 8.221132 7.295431e-19)
(3.87092 7.760004 0)
(3.26289 7.250405 0)
(2.698375 6.6956 -2.131386e-20)
(2.181677 6.097415 0)
(1.716129 5.457915 0)
(1.30361 4.78169 0)
(0.9488554 4.080806 -2.451543e-18)
(0.6509777 3.364512 1.984961e-20)
(0.4187988 2.628702 1.179598e-20)
(0.2436902 1.891652 -5.760065e-21)
(0.1325819 1.174749 -7.820866e-19)
(0.09179298 0.4475248 3.239234e-21)
(0.119566 -0.3731621 -8.043368e-19)
(0.196594 -1.220477 1.544101e-18)
(0.3441086 -2.02217 1.182016e-20)
(0.5566453 -2.78684 -2.83385e-18)
(0.8289359 -3.522898 -4.209972e-20)
(1.160034 -4.230171 2.526338e-18)
(1.545762 -4.901894 -2.292136e-18)
(1.986763 -5.537597 0)
(2.475316 -6.137322 -7.164282e-18)
(3.009308 -6.686327 -2.177636e-20)
(3.585916 -7.186905 2.486227e-18)
(4.199257 -7.643343 1.903054e-18)
(4.846544 -8.043207 0)
(5.525583 -8.388339 0)
(6.227895 -8.682674 0)
(6.945483 -8.911377 6.988034e-21)
(7.673483 -9.070918 -6.942093e-21)
(8.410842 -9.171508 1.802878e-18)
(9.15218 -9.21188 4.84368e-21)
(9.893111 -9.189035 -3.070794e-18)
(10.62742 -9.107369 -7.024915e-20)
(11.34495 -8.96259 8.331372e-18)
(12.03773 -8.753041 4.684888e-18)
(12.70122 -8.481785 -3.833108e-20)
(13.3372 -8.154503 5.536208e-18)
(13.9401 -7.776402 4.530628e-20)
(14.50146 -7.344717 -5.131532e-20)
(15.01309 -6.865159 5.115048e-20)
(15.47133 -6.340468 5.552024e-20)
(15.87329 -5.777839 7.275365e-18)
(16.23752 -5.194168 -5.690262e-20)
(16.54277 -4.588565 0)
(16.78499 -3.970974 0)
(16.96037 -3.350803 0)
(17.02855 -2.756975 0)
(16.8532 -2.249391 1.260134e-20)
(15.96325 -1.850515 -1.242847e-20)
(11.88319 -1.241196 7.673609e-19)
(6.424625 -0.4292059 3.4684e-21)
(3.824408 0.1818118 0)
(2.318276 0.5334484 -6.739315e-19)
(3.196014 0.3952961 8.082448e-19)
(-4.154733 -1.490651 -1.492432e-18)
(-10.32033 -2.653047 3.940588e-20)
(-8.374115 -1.762865 -5.315073e-18)
(-6.271377 -1.241113 2.946368e-20)
(-3.472046 -0.7177763 0)
(-1.974938 -0.5070451 4.122985e-19)
(-1.124722 -0.2529196 9.886755e-19)
(0.1736319 0.4430372 1.573342e-18)
(2.537467 1.643364 -4.222749e-21)
(3.588377 1.926672 3.822017e-20)
(0.04266694 -0.3915815 -1.680296e-20)
(-2.344413 -1.84923 0)
(-2.154648 -1.495433 7.975249e-19)
(-1.388043 -0.9195521 1.300144e-18)
(-0.547058 -0.4718804 6.449662e-22)
(-0.5623278 -0.6839508 -1.173864e-18)
(-1.317963 -1.347776 1.03876e-18)
(-1.400476 -1.297286 -1.654523e-19)
(-0.2158826 0.09762097 3.19701e-21)
(0.9002301 1.545143 6.257381e-19)
(1.870971 2.901143 3.263126e-21)
(2.33226 3.707227 -1.963679e-19)
(2.704399 4.320262 2.504798e-21)
(2.132333 3.361015 6.000348e-22)
(0.5406267 0.7470591 -2.293573e-21)
(-0.1374833 -0.2606929 0)
(0.1232041 0.5322314 0)
(0.3186517 1.232348 -6.798028e-19)
(0.5315302 2.112993 0)
(0.6895553 3.03636 -1.531173e-18)
(0.7555786 3.929044 1.056269e-18)
(0.7400506 4.762266 -1.236841e-20)
(0.645061 5.546799 1.215034e-20)
(0.4834924 6.332259 1.078995e-18)
(0.2542134 7.176243 -6.489616e-19)
(-0.02455308 8.038909 -3.658894e-19)
(-0.2427036 8.657703 3.418435e-19)
(-0.5515856 9.213329 -7.485122e-19)
(-0.8713091 9.511361 2.50187e-20)
(-1.191709 9.542718 -1.640305e-18)
(-1.481128 9.34837 0)
(-1.670667 8.99102 -5.863718e-18)
(-1.67608 8.714065 -3.754871e-20)
(-1.202466 7.024128 2.260939e-18)
(0.128651 1.719035 4.524482e-18)
(1.139167 -2.564773 4.775133e-18)
(1.070869 -2.972082 4.130805e-18)
(1.263088 -2.695346 -3.117879e-20)
(2.141346 -3.249417 0)
(2.793163 -4.105907 0)
(2.736391 -4.078946 3.845827e-18)
(2.837352 -4.005375 3.649118e-18)
(3.132867 -4.037447 3.389041e-18)
(3.173869 -3.902828 5.083938e-20)
(2.18884 -2.883338 0)
(0.5498182 -1.261973 3.210256e-18)
(-0.8802238 0.181382 3.935068e-18)
(-2.086925 1.229249 -4.81849e-18)
(-3.354228 2.111266 0)
(-4.641973 2.910312 7.657727e-18)
(-5.816351 3.495712 0)
(-6.728735 3.871327 -1.051801e-17)
(-6.598275 4.937776 0)
(-2.760614 3.421612 -4.992467e-18)
(7.041821 -2.914809 -5.033689e-18)
(6.437495 -3.231157 0)
(6.637951 -2.661289 0)
(6.979431 -2.419052 -3.971873e-21)
(6.550076 -2.29758 -3.665005e-18)
(5.139813 -1.94895 4.953572e-18)
(2.581023 -0.9552467 1.483244e-17)
(-2.381773 0.8077071 -3.530361e-18)
(5.222644 0.5746893 2.282674e-18)
(15.75109 0.08951824 -9.574186e-19)
(18.2948 0.4565145 0)
(18.67869 0.8876962 0)
(18.3519 1.370532 -2.192043e-18)
(18.30033 2.020305 -2.330561e-18)
(18.25405 2.731705 -4.612931e-18)
(18.13931 3.443856 4.590083e-18)
(17.96161 4.158355 1.08102e-19)
(17.7209 4.843082 -7.188811e-20)
(17.41227 5.50226 0)
(17.0338 6.121986 0)
(16.59984 6.712201 8.403798e-18)
(16.12359 7.272917 -8.117178e-18)
(15.60002 7.786184 0)
(15.0248 8.251156 0)
(14.40617 8.660649 1.060782e-19)
(13.74888 9.0178 -6.726356e-18)
(13.06237 9.315976 0)
(12.35074 9.55151 -5.533627e-18)
(11.62183 9.737388 -5.026255e-18)
(10.88432 9.866932 -4.436249e-18)
(10.1343 9.924836 3.931726e-18)
(9.372554 9.916699 -4.854941e-20)
(8.613037 9.853689 2.839515e-18)
(7.864493 9.735969 0)
(7.129186 9.553889 -1.691041e-18)
(6.407064 9.308022 -1.246915e-20)
(5.702015 9.006314 9.14764e-21)
(5.02554 8.640093 -8.475801e-20)
(4.372501 8.21859 0)
(3.755849 7.745622 -1.211459e-18)
(3.176214 7.22716 -1.538044e-20)
(2.640792 6.665264 2.242142e-18)
(2.150195 6.062944 1.367424e-18)
(1.709322 5.421053 -1.593188e-18)
(1.318429 4.744304 -1.805742e-18)
(0.9816447 4.044131 1.994288e-18)
(0.6976123 3.329921 -2.174004e-18)
(0.4799446 2.595446 -1.132546e-18)
(0.3103171 1.860425 2.422661e-18)
(0.2020402 1.146043 1.279682e-18)
(0.167512 0.4232402 2.626244e-21)
(0.2041954 -0.3851714 6.654858e-19)
(0.27625 -1.221178 -9.996366e-21)
(0.4163789 -2.013177 0)
(0.6181722 -2.770442 -1.788025e-20)
(0.8750494 -3.501105 -1.59033e-20)
(1.187999 -4.204229 -1.996799e-18)
(1.551239 -4.873827 3.762753e-18)
(1.970865 -5.508254 -1.697882e-18)
(2.433042 -6.110393 2.902368e-18)
(2.93821 -6.66437 2.127027e-20)
(3.487889 -7.171291 0)
(4.071698 -7.638052 1.599462e-18)
(4.688874 -8.050541 1.313451e-20)
(5.339543 -8.409763 -6.198592e-19)
(6.012305 -8.722403 0)
(6.700574 -8.971549 4.271605e-19)
(7.402651 -9.152106 0)
(8.114819 -9.276674 -4.755545e-20)
(8.831206 -9.343755 1.928421e-18)
(9.550996 -9.34768 0)
(10.26393 -9.296521 -2.947052e-18)
(10.96248 -9.183808 -3.410862e-18)
(11.6388 -9.007187 -3.841082e-18)
(12.28807 -8.768885 0)
(12.9135 -8.473613 -9.237308e-18)
(13.50817 -8.128632 7.426422e-20)
(14.06438 -7.728875 0)
(14.57407 -7.280528 0)
(15.03192 -6.787376 0)
(15.43739 -6.255499 5.871759e-18)
(15.78206 -5.691787 -6.019672e-18)
(16.05848 -5.092628 0)
(16.26557 -4.461361 0)
(16.4067 -3.814837 2.957714e-18)
(16.50032 -3.171102 2.308603e-20)
(16.539 -2.575594 0)
(16.92268 -2.210817 0)
(16.50619 -1.856164 -1.168736e-18)
(14.55184 -1.008118 1.582073e-19)
(12.42235 -0.1152249 0)
(9.942202 0.5590005 4.876369e-19)
(4.195356 0.06773832 2.184611e-20)
(-4.520928 -2.046382 2.848064e-21)
(-7.010543 -2.27423 -2.704805e-20)
(-5.882603 -1.091903 4.449383e-18)
(-3.708858 -0.2179619 2.27194e-18)
(-0.9834898 0.3077029 2.572379e-20)
(0.469156 0.4395428 -2.274078e-22)
(0.8139609 0.5711661 -4.059153e-19)
(1.222368 1.072064 -1.279071e-18)
(2.375136 1.715978 0)
(2.748472 1.249039 -2.22165e-18)
(-0.8407386 -1.283758 0)
(-2.310477 -1.989471 -3.868327e-21)
(-2.327723 -1.565646 -6.47719e-19)
(-1.64106 -0.9925716 1.794065e-20)
(-0.7597739 -0.6058324 -1.892473e-20)
(-0.1919084 -0.3977411 9.845921e-19)
(-0.8286748 -0.9566329 -4.286059e-19)
(-1.43224 -1.248836 1.363499e-19)
(-0.3584528 0.1981534 4.98738e-19)
(0.7383513 1.646777 4.899726e-19)
(1.757261 2.929673 0)
(2.305264 3.68756 5.74983e-22)
(2.60691 4.101789 0)
(2.680419 4.021691 -2.436926e-19)
(1.343529 1.850735 2.298081e-19)
(0.08433729 0.1064524 0)
(0.1475168 0.8129726 0)
(0.3368005 1.542141 1.10574e-18)
(0.5212538 2.371728 -4.201172e-19)
(0.6472572 3.191006 1.24922e-18)
(0.6843723 3.926874 -7.87043e-21)
(0.660174 4.596342 7.771785e-21)
(0.5770866 5.28283 0)
(0.4468847 6.061425 -8.80878e-19)
(0.2488062 6.956638 1.040909e-18)
(0.02850532 7.876332 3.028863e-19)
(-0.4046505 8.616223 -5.604475e-19)
(-0.7276997 9.155797 -1.966239e-20)
(-1.06495 9.438897 1.979078e-20)
(-1.377532 9.465194 -4.116256e-20)
(-1.603423 9.249951 4.083651e-20)
(-1.689523 8.792369 2.432158e-18)
(-1.536667 8.324544 -3.139563e-20)
(-1.223605 8.082074 -1.806125e-18)
(-0.4908368 5.169575 5.60214e-20)
(0.4894209 0.331448 -3.67426e-18)
(0.8547926 -2.260855 -6.621784e-20)
(1.322002 -2.787737 0)
(2.259912 -3.245701 0)
(2.775314 -3.934741 -3.177871e-18)
(2.720324 -4.071838 -3.233898e-18)
(2.736694 -3.886485 -6.034999e-18)
(2.909782 -3.781552 -2.814363e-18)
(2.758584 -3.575075 0)
(1.645744 -2.637068 0)
(0.1391485 -1.214666 -5.233026e-18)
(-0.955454 -0.009923324 -6.450095e-18)
(-1.820953 0.7844012 7.092289e-20)
(-2.787071 1.442776 -1.593424e-19)
(-3.820664 2.118103 -1.267661e-17)
(-4.895447 2.704553 -7.825217e-18)
(-5.679028 3.087316 8.936674e-18)
(-4.938253 4.395674 8.155962e-18)
(-2.76151 4.392449 3.831116e-18)
(6.451153 -1.93253 1.987771e-18)
(8.674953 -3.933039 0)
(10.35332 -3.857591 -7.52787e-20)
(11.23997 -3.763444 -5.04221e-18)
(11.23413 -3.75541 2.968743e-20)
(10.55158 -3.527323 3.36558e-20)
(8.845362 -2.360708 -5.258973e-18)
(7.075534 -0.07988218 -2.441984e-18)
(13.07469 0.6961386 -1.645436e-20)
(18.91493 0.3105837 -7.325384e-19)
(18.39685 0.3153073 -3.944689e-19)
(18.1589 0.5989628 -3.280471e-21)
(18.23377 0.9855703 0)
(18.38455 1.555921 -2.933441e-20)
(18.41603 2.210278 1.940428e-18)
(18.34027 2.896764 -7.593147e-18)
(18.18231 3.600347 5.840805e-20)
(17.95152 4.288902 -3.746639e-18)
(17.64562 4.959744 -1.124018e-19)
(17.27334 5.590512 -7.055014e-18)
(16.84261 6.197061 4.921283e-21)
(16.36841 6.779828 6.696396e-18)
(15.84819 7.31212 -6.310896e-18)
(15.27531 7.799485 0)
(14.65828 8.230693 8.589828e-20)
(14.00076 8.611642 -8.643318e-20)
(13.31195 8.935008 0)
(12.59538 9.197699 4.559355e-18)
(11.86037 9.410523 7.725775e-20)
(11.11538 9.566974 3.709394e-18)
(10.35784 9.65054 -3.175169e-18)
(9.590047 9.664443 -2.711448e-18)
(8.820511 9.625186 -2.296696e-18)
(8.062793 9.529588 -1.782556e-18)
(7.318833 9.367754 1.695728e-20)
(6.586847 9.141287 -1.712606e-20)
(5.871587 8.858367 0)
(5.184657 8.509743 7.253618e-20)
(4.520509 8.104942 -1.212549e-20)
(3.893606 7.646964 1.007411e-18)
(3.304109 7.14227 1.423785e-18)
(2.761502 6.592215 -1.83285e-18)
(2.263527 6.000969 -1.122209e-18)
(1.815843 5.369082 -5.180287e-21)
(1.418271 4.701272 1.481058e-18)
(1.077588 4.007916 2.648981e-20)
(0.7885555 3.299507 1.741836e-18)
(0.5699697 2.567567 1.502062e-20)
(0.3971609 1.832638 -1.01226e-18)
(0.2864288 1.117594 -5.215559e-19)
(0.2579496 0.3953016 -6.567582e-23)
(0.3045362 -0.3978111 5.274821e-19)
(0.3742531 -1.222231 8.180619e-21)
(0.5111041 -2.005262 -1.003686e-18)
(0.7131599 -2.753744 1.919529e-18)
(0.9712373 -3.474606 0)
(1.286462 -4.167017 -2.691983e-21)
(1.652176 -4.825543 -1.546406e-18)
(2.077108 -5.448482 1.432154e-18)
(2.543035 -6.039923 -2.486475e-18)
(3.056328 -6.580584 2.989899e-20)
(3.616168 -7.073549 -2.961689e-20)
(4.205859 -7.528148 -1.314337e-18)
(4.83223 -7.92532 0)
(5.496327 -8.266553 5.037151e-19)
(6.176877 -8.56399 -2.884527e-21)
(6.873939 -8.795324 -4.476249e-20)
(7.586251 -8.956226 -7.014959e-19)
(8.307038 -9.061409 -1.187639e-18)
(9.031521 -9.107881 -2.869e-20)
(9.758842 -9.090156 1.926514e-18)
(10.48021 -9.015248 -3.343307e-20)
(11.18496 -8.879378 -2.689828e-18)
(11.86698 -8.678009 0)
(12.52278 -8.413069 3.366971e-18)
(13.15181 -8.094419 3.746306e-18)
(13.74655 -7.729664 3.8834e-18)
(14.30216 -7.309597 -4.135211e-18)
(14.81011 -6.843492 4.419711e-18)
(15.26631 -6.333907 0)
(15.66968 -5.787884 -9.599857e-18)
(16.01247 -5.215577 9.923759e-18)
(16.28555 -4.611203 -1.161197e-19)
(16.4832 -3.98638 -2.458033e-18)
(16.59231 -3.356818 -2.425223e-18)
(16.60064 -2.760171 0)
(16.4817 -2.224857 1.136811e-18)
(16.43018 -1.913793 -1.041527e-18)
(16.84895 -1.72856 4.88716e-19)
(16.9364 -1.014694 -1.30593e-19)
(16.16468 -0.1454034 -2.428547e-19)
(14.5706 0.3421239 6.67514e-21)
(7.643079 -0.378303 -4.273468e-19)
(-2.444436 -2.322046 -2.127105e-20)
(-2.890006 -1.735372 0)
(-2.827347 -0.1930801 0)
(-0.9375257 0.9350317 -4.013839e-20)
(1.319436 1.364174 4.140269e-20)
(2.713371 1.366989 0)
(2.889579 1.381844 0)
(2.597767 1.713207 0)
(2.332583 1.701949 -1.757125e-18)
(1.794547 0.384135 3.605573e-18)
(-1.018847 -1.765338 -1.067922e-18)
(-2.222074 -2.085834 7.930775e-20)
(-2.537715 -1.642601 -1.488528e-20)
(-1.959908 -1.085518 8.885184e-19)
(-1.058181 -0.7438214 1.086368e-18)
(-0.2867102 -0.4868865 9.197552e-21)
(-0.7000923 -0.9458738 -7.255196e-21)
(-1.561665 -1.288929 -1.798866e-21)
(-0.4709944 0.4064312 6.231373e-21)
(0.5914975 1.825408 -4.092736e-19)
(1.621687 2.997915 0)
(2.233052 3.73309 1.321689e-19)
(2.441465 3.918622 -2.355771e-19)
(2.829227 4.066294 2.137855e-19)
(2.004967 2.621686 0)
(0.5529729 0.8492018 0)
(0.1928342 1.119135 -6.248121e-21)
(0.3151457 1.79985 -4.535286e-19)
(0.4773852 2.566826 3.523994e-19)
(0.5729674 3.238271 -5.125997e-19)
(0.5795699 3.8015 0)
(0.5423231 4.381728 0)
(0.4517583 5.094692 0)
(0.3145257 5.948075 -7.060421e-19)
(0.1005228 6.901807 -4.37832e-19)
(-0.1231569 7.841479 -4.958741e-19)
(-0.4735368 8.561873 2.296644e-19)
(-0.7430685 9.092349 0)
(-0.9876762 9.383783 -1.066755e-18)
(-1.231722 9.422604 0)
(-1.437083 9.217469 -2.130027e-18)
(-1.536553 8.787483 0)
(-1.397483 8.129602 0)
(-1.048684 7.973156 -1.514934e-18)
(-0.7001307 7.050706 -2.765789e-18)
(-0.121881 3.521085 2.856527e-18)
(0.4613511 -0.4068729 -2.858833e-18)
(1.318303 -2.526707 2.585408e-18)
(2.289361 -3.019444 0)
(2.799957 -3.789811 5.247842e-18)
(2.68264 -3.998232 2.676176e-18)
(2.572525 -3.704638 2.564979e-18)
(2.590971 -3.417188 -7.545177e-20)
(2.270569 -3.167659 -6.505282e-20)
(1.142978 -2.425674 -1.900862e-18)
(-0.09761121 -1.315003 4.301392e-18)
(-0.7682871 -0.3982809 2.668255e-18)
(-1.263291 0.1349427 1.185628e-19)
(-1.969484 0.5917563 4.056519e-18)
(-2.885508 1.213924 5.344709e-18)
(-4.006463 1.890067 6.555208e-18)
(-4.538129 2.21454 0)
(-3.574793 3.941377 2.318466e-19)
(-1.674355 4.788698 0)
(6.500515 -0.9582915 1.51211e-18)
(10.62342 -4.210838 2.601047e-18)
(12.89389 -4.466682 3.584034e-18)
(14.0535 -4.537604 -1.160811e-19)
(14.65176 -4.668222 6.378654e-20)
(15.34176 -4.61175 -5.6004e-18)
(15.85632 -3.428596 0)
(15.93079 -0.8153565 -1.653826e-18)
(18.0011 0.69079 -1.2911e-18)
(18.8587 0.4597551 1.213425e-18)
(17.65457 0.3759273 3.163864e-19)
(17.85552 0.8208322 0)
(17.97906 1.333697 7.360415e-19)
(18.08731 1.965154 0)
(18.09921 2.638656 0)
(18.01596 3.314727 3.174423e-18)
(17.85562 4.010327 -4.833767e-20)
(17.6269 4.674229 4.949152e-20)
(17.32509 5.317991 -2.955123e-18)
(16.95894 5.916316 5.925952e-18)
(16.53432 6.491457 -5.646602e-18)
(16.06939 7.044223 -5.446749e-18)
(15.56504 7.535203 2.457711e-19)
(15.00571 7.988688 -1.579856e-19)
(14.40598 8.383998 -1.396941e-19)
(13.76507 8.7346 -4.021994e-18)
(13.09556 9.029055 -4.103325e-18)
(12.39918 9.26286 -1.08644e-19)
(11.68205 9.453295 3.458283e-18)
(10.95999 9.586796 0)
(10.22713 9.647527 2.614904e-18)
(9.477889 9.645794 2.23235e-18)
(8.727954 9.592986 1.789908e-18)
(7.992349 9.48526 1.466851e-18)
(7.269489 9.313965 0)
(6.558502 9.078712 0)
(5.860913 8.79206 2.655256e-19)
(5.194537 8.438973 0)
(4.545314 8.034122 0)
(3.934931 7.576958 8.928487e-19)
(3.362918 7.073813 -1.34606e-20)
(2.831123 6.528714 -1.566108e-20)
(2.341633 5.942963 -3.118797e-20)
(1.902976 5.316987 2.18912e-18)
(1.514999 4.655167 0)
(1.18428 3.967561 0)
(0.8920274 3.267953 1.474808e-18)
(0.6777739 2.539294 7.492401e-19)
(0.5031415 1.804332 8.165803e-19)
(0.3893942 1.08857 -4.270127e-19)
(0.3671451 0.3649743 0)
(0.4256939 -0.4074173 -4.250751e-22)
(0.4920775 -1.219124 2.636435e-20)
(0.6181687 -1.992194 7.961069e-19)
(0.8137203 -2.728438 -1.572992e-18)
(1.066613 -3.437021 -4.531173e-20)
(1.376888 -4.119014 1.391193e-18)
(1.737156 -4.768621 4.133988e-20)
(2.156626 -5.384319 2.301797e-18)
(2.60913 -5.972211 -1.214982e-20)
(3.108837 -6.509518 -1.788352e-18)
(3.6596 -7.000095 4.917324e-20)
(4.234899 -7.455824 0)
(4.841075 -7.856096 7.983487e-19)
(5.490675 -8.200254 0)
(6.156596 -8.503083 0)
(6.831598 -8.744347 -2.538252e-19)
(7.524304 -8.914962 1.135246e-18)
(8.227823 -9.031059 3.349073e-20)
(8.931827 -9.092106 -8.358671e-20)
(9.639188 -9.09053 -1.581118e-18)
(10.33989 -9.036112 -1.849068e-18)
(11.02442 -8.922397 2.289762e-18)
(11.68509 -8.747389 -2.512949e-18)
(12.3191 -8.512129 -6.814058e-20)
(12.93078 -8.221012 0)
(13.50799 -7.888349 -3.362188e-18)
(14.04814 -7.50065 7.07196e-18)
(14.54132 -7.071033 -3.76073e-18)
(14.98493 -6.596047 0)
(15.37991 -6.081213 8.22514e-20)
(15.71718 -5.533111 -3.972262e-18)
(15.98445 -4.953513 -6.297336e-20)
(16.17616 -4.347821 1.049114e-19)
(16.28969 -3.72746 -6.247355e-20)
(16.31624 -3.111089 0)
(16.25293 -2.5304 -1.815469e-18)
(16.11812 -2.071796 8.197506e-19)
(16.25533 -1.708567 3.935213e-19)
(16.55275 -0.9863974 -6.339381e-21)
(16.18555 -0.1893537 1.938567e-19)
(15.9887 -0.02991491 2.790681e-19)
(11.42687 -1.01192 0)
(1.45337 -2.449769 7.714511e-19)
(0.5999259 -1.103811 -1.038089e-19)
(0.8922725 0.8694598 3.418693e-18)
(2.314299 2.197687 0)
(3.887716 2.469627 0)
(4.931245 2.259026 0)
(4.905625 2.117721 -8.94881e-21)
(4.098879 2.256927 -8.727358e-19)
(2.5802 1.647339 1.559213e-18)
(1.231857 -0.3298114 -1.502465e-18)
(-0.8122789 -1.977607 1.680017e-18)
(-2.22783 -2.252576 -6.206214e-20)
(-2.815513 -1.758851 0)
(-2.415407 -1.234671 -7.244364e-19)
(-1.478634 -0.9337473 -8.660627e-19)
(-0.5798641 -0.7393568 7.051454e-19)
(-0.8950591 -1.276438 -1.49526e-20)
(-1.644927 -1.245723 6.575043e-21)
(-0.5738429 0.72331 -6.235105e-21)
(0.4412548 2.039892 0)
(1.469626 3.075634 9.613218e-20)
(2.141803 3.705928 4.766352e-21)
(2.33853 3.816137 3.897069e-19)
(2.81619 3.900633 -1.822393e-19)
(2.464132 3.023116 1.049632e-20)
(1.062156 1.545307 -2.014471e-19)
(0.3325768 1.537596 0)
(0.311865 2.089994 -3.646675e-19)
(0.4333381 2.727207 2.912394e-19)
(0.4884067 3.194367 -2.671189e-20)
(0.464477 3.609336 6.182776e-19)
(0.4216123 4.196081 -3.465877e-20)
(0.3252246 5.000953 1.339297e-20)
(0.1786273 5.919628 5.884339e-19)
(-0.03747911 6.886966 -5.898481e-21)
(-0.2298225 7.809886 6.514634e-21)
(-0.5802415 8.510607 1.223816e-20)
(-0.8197184 9.034778 3.970116e-19)
(-1.045924 9.323817 8.781476e-19)
(-1.279425 9.364601 -8.943595e-19)
(-1.437083 9.181745 1.753499e-18)
(-1.471043 8.786149 0)
(-1.317674 8.176358 1.401116e-18)
(-0.9005031 7.695569 1.352827e-18)
(-0.6261327 7.552039 2.27165e-18)
(-0.3851953 5.71804 0)
(0.07953519 2.006573 0)
(1.291276 -1.748051 -2.101274e-18)
(2.321096 -2.728916 -6.599252e-20)
(2.821454 -3.603184 -2.097219e-18)
(2.579653 -3.864478 -2.227736e-18)
(2.360088 -3.542177 -2.042797e-18)
(2.247727 -3.114757 1.896356e-18)
(1.820007 -2.84658 -1.679498e-18)
(0.7801268 -2.362584 1.509245e-18)
(-0.04741019 -1.674692 -1.715323e-18)
(-0.2605379 -1.038542 0)
(-0.4711985 -0.6886976 0)
(-1.089972 -0.3365997 -3.507254e-18)
(-2.063305 0.3126951 0)
(-3.139618 1.094945 -1.877283e-19)
(-3.198422 1.156778 -1.790395e-20)
(-2.058017 3.398101 -5.69956e-18)
(0.135589 4.827811 -1.258575e-19)
(7.122733 -0.02068654 1.130169e-19)
(11.74191 -3.929521 -2.033351e-18)
(13.67633 -4.395005 -2.222127e-20)
(14.77895 -4.61006 1.606713e-18)
(15.74904 -4.874217 -6.561625e-20)
(17.21286 -4.992745 2.426668e-18)
(18.89497 -3.978105 -8.167398e-20)
(19.58019 -1.403858 5.468892e-18)
(19.17204 0.4160676 3.656189e-20)
(18.02248 0.3561645 4.923184e-22)
(17.5953 0.2756546 -5.523464e-19)
(17.88609 0.6720375 -4.488258e-21)
(18.00258 1.089902 -6.079619e-19)
(18.12103 1.657005 -3.893688e-20)
(18.13579 2.289567 -1.207697e-18)
(18.05006 2.942664 2.486924e-18)
(17.88779 3.636054 -2.471061e-18)
(17.66571 4.291936 4.746419e-18)
(17.36598 4.954828 2.587188e-18)
(17.00187 5.568311 0)
(16.57587 6.162107 0)
(16.11147 6.736655 4.417451e-18)
(15.6079 7.247316 4.220742e-18)
(15.04874 7.719231 0)
(14.45187 8.126387 -1.125057e-19)
(13.81098 8.491554 3.647341e-18)
(13.13832 8.805985 3.270558e-18)
(12.44255 9.05216 2.905714e-18)
(11.73134 9.248324 -7.856721e-20)
(11.01106 9.394679 -2.269912e-18)
(10.27507 9.471968 5.956712e-20)
(9.530341 9.476256 -6.013389e-20)
(8.78885 9.427086 -1.511682e-18)
(8.056098 9.328953 1.158833e-18)
(7.329164 9.173071 0)
(6.626178 8.942053 0)
(5.931095 8.665424 -4.013932e-19)
(5.27357 8.318177 -9.632634e-21)
(4.62916 7.921698 -9.286204e-21)
(4.034888 7.468581 -6.887529e-19)
(3.471212 6.972697 -1.96699e-18)
(2.931474 6.444346 1.18474e-18)
(2.444363 5.87027 -1.496177e-18)
(2.011014 5.254569 -8.567914e-19)
(1.633933 4.600832 -2.97113e-20)
(1.31243 3.918523 0)
(1.012585 3.232832 -1.150753e-18)
(0.8105035 2.510808 -3.880408e-20)
(0.6306383 1.775978 -6.789948e-19)
(0.5140488 1.060889 3.658683e-19)
(0.4986165 0.3340285 5.540049e-23)
(0.5695735 -0.4141076 -3.748828e-19)
(0.6237047 -1.213823 3.248931e-20)
(0.7459326 -1.971572 -6.931528e-19)
(0.9340808 -2.689629 1.287931e-18)
(1.181051 -3.385089 -1.260754e-18)
(1.486991 -4.057883 2.307545e-21)
(1.842444 -4.698368 1.082818e-18)
(2.265894 -5.303829 -1.831194e-18)
(2.709562 -5.886932 1.65026e-18)
(3.198348 -6.41936 1.337139e-18)
(3.749618 -6.90147 7.474643e-21)
(4.331148 -7.345652 7.887818e-21)
(4.929408 -7.739631 -6.305994e-19)
(5.562788 -8.084985 4.163026e-19)
(6.227971 -8.379948 6.126844e-22)
(6.901356 -8.611819 1.390115e-19)
(7.586257 -8.776598 -8.727219e-19)
(8.282129 -8.889146 6.913864e-19)
(8.990437 -8.933972 -5.117271e-20)
(9.695135 -8.923298 -1.243952e-18)
(10.38893 -8.864965 3.027257e-18)
(11.07379 -8.738685 5.818213e-20)
(11.7323 -8.553464 1.950429e-18)
(12.36751 -8.302335 -2.301927e-18)
(12.98178 -7.99482 7.149e-20)
(13.55901 -7.648757 -2.631531e-18)
(14.10079 -7.242353 -2.709239e-18)
(14.59502 -6.794545 9.254773e-20)
(15.04133 -6.295558 -3.078091e-18)
(15.43697 -5.758615 3.170909e-18)
(15.77228 -5.200027 0)
(16.03761 -4.616039 0)
(16.2328 -4.012522 1.645945e-18)
(16.34825 -3.412123 1.579991e-18)
(16.36788 -2.840727 0)
(16.29398 -2.325595 7.770363e-19)
(16.16275 -1.926814 6.721491e-19)
(16.08927 -1.593215 -3.356567e-19)
(16.14711 -0.98096 7.899738e-20)
(15.56462 -0.264305 1.55528e-19)
(15.64733 -0.3467584 -2.271134e-19)
(14.29441 -1.641768 0)