/*--------------------------------*- C++ -*----------------------------------*\
| =========                 |                                                 |
| \\      /  F ield         | OpenFOAM: The Open Source CFD Toolbox           |
|  \\    /   O peration     | Version:  2406                                  |
|   \\  /    A nd           | Website:  www.openfoam.com                      |
|    \\/     M anipulation  |                                                 |
\*---------------------------------------------------------------------------*/
FoamFile
{
    version     2.0;
    format      ascii;
    arch        "LSB;label=32;scalar=64";
    class       surfaceScalarField;
    location    "2.58";
    object      phi;
}
// * * * * * * * * * * * * * * * * * * * * * * * * * * * * * * * * * * * * * //

dimensions      [0 3 -1 0 0 0 0];

oriented        oriented;

internalField   nonuniform List<scalar> 
326221
(
-0.002073038
-0.004859715
0.006932753
-0.001018059
-0.001054979
0.0004204711
-0.00143853
-0.001246105
0.001666576
-0.00126286
1.67557e-05
-7.235675e-05
-0.001190504
-0.0002208315
0.0001484748
-0.0003745744
0.0001537429
-0.0001010899
-0.0002734845
-4.326728e-05
-5.782262e-05
1.172046e-05
-5.498774e-05
2.972982e-05
-1.800936e-05
-0.0003388523
0.0003685821
-0.001016437
0.0006775842
-0.00144119
0.0004247537
-0.001472683
3.14932e-05
-0.00120715
-0.0002655338
-0.0005272994
-0.0006798502
0.0004941178
-0.001021417
0.001742003
-0.001247885
0.002862692
-0.001120689
0.003770714
-0.0009080227
0.003754702
1.601214e-05
0.002131431
0.001623271
0.0004532259
0.001678206
-0.000457356
0.0009105818
-0.001280389
0.0008230327
-0.001140917
-0.0001394718
0.0003148979
-0.001455815
0.001747327
-0.001432429
0.00194531
-0.0001979835
0.000946191
0.0009991193
0.0008636958
8.24952e-05
0.001796023
-0.0009323273
0.0016577
0.0001383236
-0.0002285327
0.001886232
-0.002671445
0.002442912
-0.004358367
0.001686922
-0.00530894
0.0009505731
-0.005787399
0.0004784586
-0.005934495
0.0001470963
-0.00585487
-7.962517e-05
-0.005601872
-0.0002529985
-0.005209486
-0.0003923857
-0.004666753
-0.0005427332
-0.004022821
-0.0006439318
-0.003337071
-0.0006857504
-0.002420885
-0.0009161857
-0.001616856
-0.0008040291
-0.000224952
-0.001391904
0.0001721719
-0.000397124
0.0004542173
-0.0002820454
-0.0003258978
0.0007801152
-0.001519799
0.001193901
-0.001613495
9.369661e-05
-0.0009385328
-0.0006749624
-0.0003968258
-0.000541707
5.502088e-05
-0.0004518467
0.0004697645
-0.0004147436
0.0008644208
-0.0003946563
0.00123008
-0.0003656588
0.001540492
-0.0003104122
0.001809791
-0.0002692987
0.002027388
-0.000217597
0.002216531
-0.0001891438
0.002371262
-0.0001547304
0.002412441
-4.117925e-05
0.002321397
9.10441e-05
0.002188312
0.0001330849
0.002101434
8.687833e-05
0.002076308
2.512558e-05
0.002055619
2.068909e-05
0.002006742
4.887659e-05
0.001944081
6.266151e-05
0.001912799
3.128147e-05
0.001916799
-3.999552e-06
0.001890355
2.644379e-05
0.001764958
0.0001253968
0.001572709
0.0001922489
0.001496677
7.603245e-05
0.001698669
-0.0002019916
0.002154902
-0.0004562335
0.002670854
-0.0005159521
0.003047274
-0.00037642
0.003379083
-0.0003318091
0.00361333
-0.0002342466
0.003782092
-0.0001687616
0.003941207
-0.0001591153
0.004095828
-0.0001546214
0.004261173
-0.0001653452
0.00444551
-0.0001843365
0.004637029
-0.000191519
0.00482738
-0.0001903508
0.005022073
-0.0001946932
0.005216522
-0.0001944487
0.005405087
-0.000188565
0.005592404
-0.0001873179
0.005768043
-0.0001756381
0.005930982
-0.0001629397
0.006080169
-0.0001491864
0.00621596
-0.0001357913
0.006328282
-0.0001123218
0.006420945
-9.266282e-05
0.006485443
-6.449817e-05
0.006525866
-4.042365e-05
0.006522423
3.443726e-06
0.006441996
8.042673e-05
0.006256959
0.0001850373
0.005914389
0.0003425692
0.005302053
0.0006123365
0.004210877
0.001091176
0.00245433
0.001756547
0.0003167952
0.002137535
-0.0008721221
0.001188917
-0.0008961341
2.401208e-05
0.00055857
-0.001454704
0.001861372
-0.001302802
-0.0008042044
0.002665577
-0.004545592
0.003741387
-0.004705227
0.0001596355
-0.002428318
-0.002276909
-0.0008413002
-0.001587018
-0.0002483807
-0.0005929196
0.0002202512
-0.0004686319
0.001321279
-0.001101028
0.002594293
-0.001273013
0.000391322
0.002202971
-0.002902022
0.003293344
-0.00502255
0.002120529
-0.005211135
0.0001885848
-0.004619085
-0.0005920507
-0.003731063
-0.0008880211
-0.002940728
-0.0007903358
-0.0023159
-0.0006248277
-0.001630587
-0.000685313
-0.001003217
-0.0006273695
-9.500385e-05
-0.0009082136
0.0008901618
-0.0009851657
0.001306341
-0.0004161789
0.001234743
7.159739e-05
0.0009875745
0.0002471688
9.818739e-05
0.0008893871
-0.001048582
0.00114677
-0.001500673
0.0004520909
-0.001059527
-0.0004411458
0.0002618419
-0.001321369
0.0009977516
-0.0007359097
0.001115699
-0.0001179474
0.001115967
-2.682277e-07
-0.001147601
0.002263568
-0.000319105
-0.0008284959
0.001387013
-0.001706118
0.002473312
-0.001086298
0.003026547
-0.0005532351
0.003560283
-0.0005337358
0.004302785
-0.0007425028
0.005021372
-0.0007185862
0.005726504
-0.0007051324
0.006333186
-0.0006066825
0.006737936
-0.0004047494
0.006953625
-0.0002156894
0.006831565
0.0001220606
0.006214967
0.0006165974
0.004635734
0.001579233
0.001579669
0.003056064
-0.001601202
0.003180872
-0.002720403
0.0011192
-0.002173578
-0.0005468244
-0.001095765
-0.001077813
7.384724e-05
-0.001169613
0.0007668798
-0.0006930325
0.0001910466
0.0005758332
-0.001749674
0.00194072
-0.00373104
0.001981366
-0.003922495
0.0001914554
-0.002532551
-0.001389944
-0.0004008524
-0.002131699
0.0009021561
-0.001303008
0.001284683
-0.0003825271
0.001298254
-1.357103e-05
0.001469995
-0.0001717407
0.001557098
-8.710269e-05
0.0004629437
0.001094154
-0.001042003
0.001504947
-0.001389714
0.000347711
-0.0007817351
-0.0006079789
-0.0002547742
-0.0005269609
0.000102507
-0.0003572812
0.0002041359
-0.0001016289
2.704557e-05
0.0001770903
-8.875316e-05
0.0001157987
-3.385183e-05
-5.490133e-05
-0.0004499731
0.0004161213
-0.0007776623
0.0003276891
0.0005121998
-0.001289862
0.001482706
-0.0009705066
0.0005382367
0.0009444697
0.001776696
-0.00123846
0.002588351
-0.0008116544
-0.006897508
0.009485859
-0.007186834
0.0002893252
-0.006141372
-0.001045462
-0.005754858
-0.0003865142
-0.005362684
-0.000392174
-0.005070376
-0.0002923083
-0.004804236
-0.0002661396
-0.004573414
-0.0002308215
-0.004267952
-0.0003054621
-0.004109086
-0.000158866
-0.003972675
-0.0001364109
-0.003847225
-0.0001254507
-0.003735241
-0.0001119836
-0.003627477
-0.0001077638
-0.003525078
-0.0001023994
-0.003427622
-9.745534e-05
-0.003340198
-8.74245e-05
-0.003259532
-8.066607e-05
-0.003182213
-7.731893e-05
-0.003106155
-7.605811e-05
-0.003035231
-7.092389e-05
-0.002967056
-6.817501e-05
-0.002903319
-6.373644e-05
-0.00284557
-5.774963e-05
-0.002786953
-5.861634e-05
-0.002728746
-5.820726e-05
-0.002670236
-5.851016e-05
-0.002615192
-5.504382e-05
-0.002565299
-4.989317e-05
-0.002519491
-4.580789e-05
-0.002471833
-4.765806e-05
-0.002424995
-4.683849e-05
-0.002375857
-4.913753e-05
-0.002332095
-4.376162e-05
-0.002290997
-4.109875e-05
-0.002248509
-4.24873e-05
-0.002205824
-4.268522e-05
-0.00216242
-4.340463e-05
-0.00212293
-3.948967e-05
-0.002086052
-3.687823e-05
-0.002116696
3.064384e-05
-0.002093034
-2.366186e-05
-0.002064443
-2.859073e-05
-0.002035313
-2.91304e-05
-0.0020089
-2.641205e-05
-0.001981148
-2.775227e-05
-0.001955352
-2.57963e-05
-0.00193082
-2.453216e-05
-0.001906849
-2.397106e-05
-0.001878968
-2.78804e-05
-0.00184999
-2.897829e-05
-0.001823688
-2.630198e-05
-0.001798639
-2.504931e-05
-0.001774737
-2.390168e-05
-0.001745615
-2.912239e-05
-0.001712299
-3.331536e-05
-0.001678635
-3.366435e-05
-0.001643812
-3.482336e-05
-0.001603168
-4.06435e-05
-0.001560775
-4.239345e-05
-0.001512466
-4.830814e-05
-0.001457538
-5.492891e-05
-0.001392234
-6.530383e-05
-0.001309294
-8.294007e-05
-0.001190273
-0.0001190208
-0.001022744
-0.0001675285
-0.0007695393
-0.000253205
-0.0003868306
-0.0003827087
4.03986e-05
-0.0004272292
0.0003968719
-0.0003564733
-0.0001762822
0.000573154
-0.001732169
0.001555887
-0.000569215
-0.001162954
0.000675467
-0.001244682
0.001028403
-0.000352936
0.001074071
-4.566781e-05
0.001097897
-2.382646e-05
0.001133599
-3.570213e-05
0.001161761
-2.816146e-05
0.001177554
-1.579276e-05
0.001196451
-1.889739e-05
0.001230015
-3.356434e-05
0.001261768
-3.175247e-05
0.001289481
-2.77131e-05
0.001310322
-2.084074e-05
0.00132982
-1.949862e-05
0.00134824
-1.841974e-05
0.001368952
-2.071221e-05
0.001388083
-1.913128e-05
0.001402668
-1.4585e-05
0.001417396
-1.472798e-05
0.001435179
-1.778209e-05
0.001451272
-1.609334e-05
0.001466277
-1.500541e-05
0.00148464
-1.836299e-05
0.001500002
-1.5362e-05
0.001520747
-2.074453e-05
0.00154496
-2.421359e-05
0.001563381
-1.842042e-05
0.001578242
-1.486124e-05
0.001594912
-1.666961e-05
0.001614355
-1.944293e-05
0.001627498
-1.314377e-05
0.001598089
2.940948e-05
0.001623448
-2.535937e-05
0.001655212
-3.17634e-05
0.001686975
-3.176295e-05
0.001718911
-3.193644e-05
0.001753324
-3.441274e-05
0.001785626
-3.230194e-05
0.001814912
-2.928601e-05
0.0018468
-3.188811e-05
0.001882968
-3.616838e-05
0.001922316
-3.934767e-05
0.001956314
-3.39977e-05
0.001988509
-3.219514e-05
0.002023428
-3.491933e-05
0.002061402
-3.797433e-05
0.002100354
-3.895201e-05
0.002143868
-4.351371e-05
0.002189011
-4.51433e-05
0.002234295
-4.528391e-05
0.002280777
-4.648141e-05
0.002324191
-4.341463e-05
0.002376486
-5.22948e-05
0.002431497
-5.501051e-05
0.002488491
-5.699405e-05
0.002549868
-6.137751e-05
0.002613124
-6.325552e-05
0.00268355
-7.042639e-05
0.002760883
-7.73323e-05
0.002839601
-7.871876e-05
0.002925309
-8.570801e-05
0.003023542
-9.823316e-05
0.003140206
-0.000116664
0.003364887
-0.0002246804
0.003530385
-0.0001654982
0.003719005
-0.0001886202
0.003931079
-0.0002120735
0.004205074
-0.0002739956
0.00448204
-0.0002769662
0.005161398
-0.0006793573
0.0003016823
-0.0006594181
0.001848832
-0.002352368
0.0004390677
-0.002343168
0.0008861173
-0.0007999856
0.001134963
-0.0002945134
0.00133883
-0.0002276939
0.001534821
-0.0002316924
0.001702421
-0.0001957615
0.001840164
-0.0001535365
0.001963072
-0.0001418048
0.002086946
-0.0001574388
0.002201054
-0.00014586
0.002307376
-0.0001340355
0.00240315
-0.0001166143
0.002493656
-0.0001100045
0.002577773
-0.0001025374
0.002660143
-0.0001030819
0.002738084
-9.707219e-05
0.002810357
-8.685852e-05
0.002879224
-8.359467e-05
0.002947875
-8.6433e-05
0.003013225
-8.144316e-05
0.003075413
-7.719395e-05
0.003138714
-8.166395e-05
0.003197535
-7.418225e-05
0.003258774
-8.198368e-05
0.003321024
-8.646353e-05
0.003380009
-7.740578e-05
0.00343479
-6.964224e-05
0.003490535
-7.241404e-05
0.00354629
-7.519863e-05
0.003599919
-6.677241e-05
0.003575269
5.405953e-05
0.003638262
-8.835215e-05
0.003704393
-9.789478e-05
0.003770339
-9.770853e-05
0.003836278
-9.787556e-05
0.003903308
-0.0001014428
0.003969596
-9.859034e-05
0.004032757
-9.24465e-05
0.004098182
-9.731308e-05
0.004164725
-0.0001027116
0.004235114
-0.0001097367
0.004300861
-9.974488e-05
0.004366595
-9.792942e-05
0.004432968
-0.0001012916
0.004502042
-0.0001070487
0.004571188
-0.0001080977
0.004644081
-0.0001164072
0.004718691
-0.0001197534
0.004793588
-0.0001201809
0.004870778
-0.0001236708
0.004944955
-0.0001175924
0.005026875
-0.0001342141
0.005109489
-0.0001376252
0.005195717
-0.0001432221
0.005284169
-0.0001498289
0.005375908
-0.0001549952
0.005472248
-0.0001667662
0.005575437
-0.0001805211
0.005679694
-0.0001829756
0.005790856
-0.0001968701
0.005912083
-0.0002194604
0.006048786
-0.0002533666
0.006351997
-0.0005278912
0.006537137
-0.0003506388
0.006750257
-0.00040174
0.006981934
-0.0004437501
0.007288718
-0.0005807802
0.007549306
-0.0005375536
0.008348605
-0.001478657
0.007619597
0.00103069
-0.01095748
0.01023497
0.001011831
-0.00980347
-0.002199467
-0.009422738
-0.0007672459
-0.008999516
-0.0008153968
-0.008685935
-0.0006058893
-0.00839464
-0.0005574337
-0.008145211
-0.0004802508
-0.00774773
-0.0007029435
-0.007565685
-0.0003409105
-0.007403901
-0.0002981955
-0.007251226
-0.0002781254
-0.007110997
-0.000252213
-0.006973893
-0.000244867
-0.006843323
-0.0002329699
-0.006715811
-0.0002249668
-0.006598167
-0.0002050695
-0.006484042
-0.0001947906
-0.006374956
-0.0001864046
-0.00626572
-0.0001852945
-0.006162249
-0.0001743947
-0.006060002
-0.0001704221
-0.00596208
-0.0001616591
-0.005868288
-0.0001515415
-0.005774338
-0.0001525663
-0.005681731
-0.0001508144
-0.005588724
-0.000151517
-0.005499325
-0.0001444426
-0.005412155
-0.0001370628
-0.005328941
-0.0001290226
-0.005242555
-0.0001340433
-0.005158642
-0.0001307522
-0.005071402
-0.000136377
-0.004988837
-0.0001263268
-0.004906287
-0.0001236485
-0.004822925
-0.0001258493
-0.004738441
-0.0001271697
-0.004653103
-0.0001287426
-0.004569751
-0.0001228413
-0.004486585
-0.0001200445
-0.004512641
5.669944e-05
-0.004442019
-9.428323e-05
-0.00437044
-0.0001001701
-0.004296489
-0.0001030808
-0.004224822
-9.807924e-05
-0.004149819
-0.0001027556
-0.004075983
-9.963226e-05
-0.004000486
-0.0001000291
-0.003924404
-0.0001000531
-0.003843587
-0.0001086977
-0.003761097
-0.0001114679
-0.003678456
-0.0001089433
-0.003594062
-0.0001094429
-0.003508124
-0.0001098394
-0.003415348
-0.0001218987
-0.003317829
-0.0001308344
-0.003216846
-0.0001346477
-0.003112549
-0.0001391201
-0.00299986
-0.0001533321
-0.00288294
-0.0001593135
-0.002756356
-0.0001748922
-0.002619834
-0.0001914512
-0.002467821
-0.0002173161
-0.002293434
-0.0002573277
-0.0020805
-0.0003319544
-0.001821401
-0.0004266283
-0.001491818
-0.0005827873
-0.001056264
-0.0008182634
-0.0004852525
-0.0009982403
1.624205e-05
-0.0008579678
-0.000507899
0.001097295
0.002896819
-0.0007417858
0.001233501
-0.001320211
0.0007957231
-0.003243627
0.002119923
-0.002410498
0.003148165
-0.001581478
0.003989708
-0.001375279
0.004965281
-0.001718076
0.005897619
-0.001650924
0.006831276
-0.001638789
0.007688065
-0.001463472
0.008343212
-0.001059896
0.008804315
-0.0006767931
0.00901691
-9.05336e-05
0.009024411
0.0006090959
0.00851075
0.002092895
0.006083177
0.005483638
0.0007848223
0.008479226
-0.003462211
0.005366234
-0.003912711
-9.632486e-05
-0.00273542
-0.002255104
-0.001356763
-0.002548269
-0.0004795608
-0.001570235
-0.00179429
0.001890562
-0.004733042
0.004879472
-0.005949866
0.00319819
-0.004873178
-0.0008852323
-0.00301513
-0.003247992
-0.0004803347
-0.004666494
0.00108726
-0.002870603
0.001379045
-0.0006743115
0.00116868
0.0001967938
0.00108151
-8.457081e-05
0.001240617
-0.0002462103
-8.34196e-05
0.002418191
-0.001742892
0.00316442
-0.001726023
0.0003308417
-0.0009295031
-0.001404499
-0.0002209389
-0.001235525
0.000283223
-0.000861443
0.000390791
-0.0002091969
4.163988e-05
0.0005262415
-0.0002358256
0.0003932642
-0.0004426271
0.0001519001
-0.0009919485
0.0009654428
-0.0008961109
0.0002318515
0.0008805414
-0.003066514
0.002230904
-0.002320869
0.002221662
0.0009537117
0.003103545
-0.002120343
0.0005781721
0.001713719
0.020299
0.0002978776
4.477326e-05
-0.0007397748
5.252208e-05
-3.66899e-05
-0.0009976861
0.001830323
-0.002015396
0.002211611
-0.001815746
-0.0001059537
-0.001046994
-0.001443714
-0.0003596838
-0.001229017
0.0002300994
-0.00104163
0.0007648755
-0.0009495197
0.001282859
-0.0009126397
0.001780244
-0.0008630443
0.002225924
-0.0007560924
0.002635631
-0.0006790054
0.00298893
-0.0005708961
0.00328698
-0.0004871933
0.00355279
-0.0004205408
0.003823011
-0.0003114
0.004101277
-0.0001872216
0.004354064
-0.0001197024
0.004577532
-0.00013659
0.004738354
-0.0001356964
0.004694846
6.419778e-05
0.004369771
0.0003739517
0.003907072
0.0005253602
0.003555383
0.0003829707
0.003392393
0.0001589901
0.003259487
0.00015935
0.002970256
0.000414627
0.002561748
0.0006007574
0.002342524
0.0002952561
0.002544624
-0.0004040911
0.003117633
-0.001029243
0.003818158
-0.001216477
0.004397551
-0.0009558136
0.004973517
-0.0009077747
0.005437949
-0.0006986785
0.005803773
-0.0005345854
0.006116842
-0.0004721848
0.00638474
-0.0004225197
0.00663265
-0.0004132546
0.00688229
-0.0004339761
0.007133416
-0.0004426457
0.007386467
-0.0004434018
0.007650997
-0.0004592231
0.007924277
-0.0004677282
0.008200325
-0.000464613
0.008482068
-0.0004690615
0.008757329
-0.0004508985
0.009023231
-0.0004288417
0.009276885
-0.0004028407
0.009518077
-0.000376983
0.009736934
-0.0003311795
0.009937682
-0.00029341
0.0101125
-0.0002393153
0.01026478
-0.0001927094
0.01039595
-0.0001277267
0.01050488
-2.84945e-05
0.01058064
0.0001092738
0.01059705
0.0003261569
0.01048771
0.0007216833
0.01005947
0.001519412
0.00881276
0.003003256
0.006595724
0.004354571
0.004254415
0.003530226
0.002565296
0.00171313
0.001898411
-0.0007878189
0.001099399
-0.0005037904
-0.002241995
0.006006971
-0.004560853
0.006060245
-0.003278242
-0.001122976
-0.001027698
-0.004527453
0.0007856338
-0.00340035
0.001473944
-0.00128123
0.001760582
-0.0007552703
0.002909965
-0.002250411
0.003435051
-0.001798099
-0.001107548
0.006745569
-0.005404522
0.007590318
-0.006393977
0.003109983
-0.00599799
-0.0002074019
-0.005232427
-0.001357614
-0.004175231
-0.001945217
-0.003261733
-0.001703834
-0.002507221
-0.001379339
-0.001687748
-0.001504786
-0.0009329816
-0.001382136
0.0001297023
-0.001970898
0.001401348
-0.002256811
0.002125043
-0.001139874
0.00218067
1.597064e-05
0.001181871
0.001245968
-0.000911656
0.002982914
-0.002263189
0.002498303
-0.002099966
0.0002888682
-0.001255425
-0.001285687
0.000287862
-0.002864656
0.001224605
-0.001672653
0.001374656
-0.0002679981
0.001253717
0.0001206706
0.004750786
-0.0006254322
0.01517778
-0.002187841
0.0005074294
-0.001338955
-0.002287415
-0.002235135
0.002562755
-0.001814063
-0.0004043156
-0.0001165316
-0.002888035
-0.0002644086
0.0002963517
-0.0005913119
0.0004806462
-0.0001114655
-0.0007533309
-3.919901e-05
-0.0001300891
-0.0001270544
3.286766e-05
-0.0005580088
0.000412945
-0.001323278
0.001133851
-0.001972012
0.001326319
-0.002109893
0.0005626341
-0.001957746
-0.0001206531
-0.001577355
-0.0006459255
-0.0007008235
-0.001556381
0.0005746263
-0.002296867
0.002153309
-0.002826567
0.003570852
-0.002538233
0.004746223
-0.002083393
0.005712172
-0.0009499366
0.005073633
0.00226181
0.002347497
0.004404342
-0.000145095
0.003403173
-0.000943925
0.001621863
-0.0002906389
-0.0007927579
0.001282155
-0.003028608
0.00283886
-0.002989135
0.003232256
-0.0005913786
0.002469983
0.001761392
0.002465665
8.681353e-05
0.002632499
-0.001099162
-6.443946e-06
0.002777267
-0.00417041
0.006050198
-0.006876215
0.005148718
-0.007847567
0.002658274
-0.00809043
0.001193436
-0.008043937
0.0004319653
-0.007825252
-7.1588e-05
-0.00749206
-0.0004128177
-0.007014618
-0.0007304405
-0.006397434
-0.001009569
-0.005634031
-0.001306136
-0.004770257
-0.001507706
-0.003835011
-0.001620996
-0.00265865
-0.002092547
-0.001499234
-0.001963445
-0.002846364
0.001134809
-0.009736616
0.02377959
-0.002438138
0.004080376
-0.002517329
-0.002208224
-0.003116769
0.003162194
-0.002401991
-0.001119093
-0.0002085338
-0.005081492
-0.0002242199
0.0003120379
-0.0007384038
0.0009948301
-0.0001243263
-0.001367408
-7.515803e-05
-0.0001792574
-0.0003802427
0.0003379523
-0.001178065
0.001210767
-0.002058141
0.002013928
-0.002539975
0.001808153
-0.002619333
0.0006419919
-0.002473007
-0.0002669793
-0.002024408
-0.001094524
-0.001000601
-0.002580188
0.0005390964
-0.003836564
0.002436751
-0.004724222
0.004192504
-0.004293986
0.005528961
-0.00341985
0.006716526
-0.002137502
0.00706833
0.001910006
0.004732762
0.00673991
0.001266306
0.006869629
-0.0002779549
0.003166123
0.000488087
-0.0015588
0.0024144
-0.004954921
0.004129277
-0.004704011
0.004474694
-0.0009367958
0.003653819
0.002582267
0.003298173
0.0004424593
0.001384391
0.0008146207
-0.003572922
0.007734579
-0.007697109
0.01017438
-0.009068897
0.006520506
-0.009382688
0.002972065
-0.009550873
0.001361621
-0.00955085
0.0004319429
-0.00936079
-0.0002616484
-0.008987142
-0.000786465
-0.008417913
-0.00129967
-0.007687597
-0.001739885
-0.006793281
-0.002200452
-0.005790299
-0.002510687
-0.004711219
-0.002700076
-0.003316417
-0.00348735
-0.001710144
-0.003569718
9.282126e-05
-0.004649329
0.0003665194
-0.001013473
-0.0002470287
0.0005768582
-0.001463506
0.0030468
-0.002301392
0.003049497
-0.001977966
-0.0004293791
-0.001137043
-0.002284637
-0.0003043368
-0.002061723
0.0004247405
-0.001770707
0.00107366
-0.001598439
0.001701384
-0.001540363
0.002305717
-0.001467377
0.002845798
-0.001296174
0.003339754
-0.001172961
0.003762727
-0.0009938688
0.004122636
-0.0008471025
0.00444623
-0.0007441353
0.004760099
-0.0006252688
0.005089186
-0.0005163082
0.005418102
-0.0004486186
0.005734616
-0.0004531043
0.006071359
-0.000472439
0.006377714
-0.0002421573
0.006480767
0.0002708986
0.006233326
0.0007728008
0.00570426
0.0009120369
0.005105655
0.0007575957
0.004567557
0.000697448
0.004021673
0.0009605103
0.00345671
0.001165721
0.003153047
0.0005989187
0.003358673
-0.0006097175
0.004007773
-0.001678342
0.004813051
-0.002021755
0.005475895
-0.001618658
0.006148135
-0.001580015
0.006693207
-0.001243751
0.00712067
-0.0009620481
0.007483482
-0.0008349967
0.007788453
-0.0007274913
0.008067251
-0.0006920522
0.008347647
-0.0007143721
0.008631471
-0.0007264692
0.008920584
-0.0007325152
0.00922743
-0.0007660687
0.009548321
-0.0007886195
0.009875643
-0.0007919355
0.01021262
-0.0008060355
0.01054345
-0.0007817336
0.01086481
-0.0007502037
0.01117252
-0.0007105453
0.01146665
-0.0006711144
0.01173508
-0.0005996136
0.01198398
-0.0005423102
0.01220327
-0.0004586043
0.01240001
-0.0003894444
0.01256757
-0.0002952877
0.01270035
-0.0001612772
0.01279992
9.708261e-06
0.01286917
0.0002569089
0.01291663
0.0006742205
0.0129846
0.001451446
0.01292651
0.003061342
0.01231675
0.004964331
0.01097996
0.004867011
0.00932648
0.003366615
0.006535936
0.002002725
0.002580843
0.003451303
-0.001712709
0.01030052
-0.002811225
0.007158762
-0.0008449472
-0.003089254
0.001426389
-0.006798789
0.003347494
-0.005321454
0.004065393
-0.00199913
0.004127858
-0.0008177345
0.004543732
-0.002666286
0.003398564
-0.0006529306
-0.002561133
0.01270527
-0.006289745
0.01131893
-0.00679677
0.003617008
-0.006423725
-0.0005804468
-0.005498325
-0.002283014
-0.004298549
-0.003144994
-0.003332163
-0.00267022
-0.00253699
-0.002174512
-0.001688095
-0.002353681
-0.0009454407
-0.00212479
0.0002340189
-0.003150357
0.001742854
-0.003765646
0.002616317
-0.002013338
0.002437109
0.0001951787
0.0003523558
0.003330721
-0.002315794
0.005651063
-0.003073258
0.003255767
-0.002552793
-0.000231597
-0.001487809
-0.002350671
0.0003884202
-0.004740886
0.00153202
-0.002816252
0.001779594
-0.0005155726
0.001299793
0.0006004721
-0.001614021
0.0076646
-0.00129612
-0.001638112
0.0004721036
-0.005011851
0.002274852
-0.004213247
0.003728335
-0.00303496
0.00475745
-0.002404394
0.005904302
-0.002864928
0.00702214
-0.002768762
0.00816249
-0.002779139
0.009215498
-0.00251648
0.01001872
-0.001863119
0.01058026
-0.001238336
0.01076446
-0.0002747326
0.0106433
0.0007302563
0.01029293
0.002443266
0.009161089
0.006615479
0.004628722
0.01301159
-0.002105636
0.01210059
-0.005287322
0.003085361
-0.004870472
-0.002671954
-0.003863014
-0.003555727
-0.003679564
-0.001753685
-0.0053262
0.003537199
-0.007140907
0.006694178
-0.007024681
0.003081965
-0.005587152
-0.002322762
-0.003522737
-0.005312408
-0.000380252
-0.007808979
0.001657761
-0.004908617
0.002004024
-0.001020574
0.001477875
0.0007229424
0.0007531996
0.0006401049
0.0002895791
0.0002174102
-0.0009422236
0.003649994
-0.002049424
0.00427162
-0.001707902
-1.068043e-05
-0.0008682629
-0.002244138
-7.665988e-05
-0.002027128
0.0005650797
-0.001503183
0.0006515765
-0.0002956938
9.023138e-05
0.001087587
-0.000480265
0.0009637606
-0.0009303288
0.0006019639
-0.00130588
0.001340994
-0.0007931856
-0.0002808429
0.001297697
-0.005157397
0.00274192
-0.003765092
0.002928898
0.0007667332
0.003097869
-0.002289313
-0.001645466
0.006457053
-0.01277292
0.03142646
-0.01338934
0.00162825
-0.01224662
-0.003342187
-0.01174911
-0.00126476
-0.01127649
-0.001288015
-0.01092412
-0.0009582552
-0.01060178
-0.0008797764
-0.01033202
-0.0007500143
-0.009876076
-0.001158883
-0.00967687
-0.000540116
-0.009496909
-0.0004781563
-0.009326629
-0.0004484055
-0.009169436
-0.0004094061
-0.009014961
-0.0003993419
-0.008867731
-0.0003802001
-0.008722917
-0.0003697812
-0.008588371
-0.0003396151
-0.008456376
-0.0003267856
-0.008329907
-0.0003128739
-0.008202502
-0.0003126996
-0.008081295
-0.0002956015
-0.007960585
-0.0002911315
-0.007844001
-0.0002782432
-0.007731316
-0.0002642272
-0.007618141
-0.0002657411
-0.007506692
-0.0002622632
-0.007394449
-0.0002637602
-0.007285828
-0.0002530633
-0.007178353
-0.000244538
-0.007074849
-0.000232526
-0.006966964
-0.000241929
-0.006862357
-0.0002353587
-0.006753222
-0.000245512
-0.006648897
-0.0002306517
-0.006543423
-0.0002291229
-0.006436749
-0.0002325231
-0.006328544
-0.0002353751
-0.006218756
-0.0002385303
-0.006109633
-0.0002319642
-0.00599814
-0.0002315379
-0.006022881
8.14404e-05
-0.005923307
-0.0001938566
-0.005828751
-0.0001947263
-0.005730479
-0.0002013529
-0.005635164
-0.0001933943
-0.005535509
-0.0002024103
-0.005437372
-0.0001977691
-0.005336885
-0.0002005167
-0.005235905
-0.0002010325
-0.005129609
-0.0002149943
-0.005021811
-0.0002192661
-0.004913938
-0.0002168157
-0.004803781
-0.0002196002
-0.004692093
-0.0002215275
-0.004573083
-0.000240909
-0.004449585
-0.0002543316
-0.004322926
-0.0002613075
-0.004193363
-0.000268683
-0.004054963
-0.0002917321
-0.003913551
-0.0003007249
-0.003762623
-0.0003258206
-0.003602895
-0.0003511789
-0.003428332
-0.000391879
-0.003232967
-0.0004526928
-0.003000145
-0.0005647763
-0.00272378
-0.0007029937
-0.002379371
-0.0009271961
-0.001930676
-0.001266958
-0.001373704
-0.001555212
-0.001138558
-0.001093114
-0.001605367
0.001564104
-0.002321653
0.003613105
-0.0009018004
-0.00377222
0.0002392689
-0.003484237
0.0007882338
-0.001348951
0.001185529
-0.0006918083
0.001494137
-0.000536302
0.001775381
-0.0005129365
0.002013005
-0.0004333859
0.002207418
-0.000347949
0.002378383
-0.0003127704
0.002549024
-0.0003280795
0.002706493
-0.0003033289
0.002854474
-0.0002820171
0.002988734
-0.0002508735
0.003116435
-0.0002377058
0.003236024
-0.0002221261
0.003353381
-0.0002204395
0.003465745
-0.0002094357
0.00357128
-0.0001923935
0.003672609
-0.000184924
0.003773361
-0.0001871846
0.003870214
-0.0001782968
0.003962835
-0.0001698148
0.004056798
-0.0001756268
0.004144503
-0.0001618872
0.004234288
-0.0001717687
0.0043248
-0.000176976
0.004411962
-0.000164567
0.004494406
-0.0001520865
0.00457771
-0.0001557179
0.004659638
-0.0001571264
0.004746002
-0.0001531369
0.004734151
6.591031e-05
0.004826623
-0.0001808236
0.004919654
-0.0001909264
0.005010751
-0.0001888056
0.005101137
-0.0001882616
0.005192085
-0.0001923902
0.005282365
-0.0001888706
0.005368904
-0.0001789856
0.005457462
-0.0001858706
0.005545695
-0.000190945
0.005638207
-0.0002022484
0.005725551
-0.0001870893
0.005813234
-0.0001856124
0.005900731
-0.0001887879
0.005990681
-0.000196999
0.006079834
-0.0001972512
0.006172451
-0.0002090244
0.006266444
-0.000213746
0.006360329
-0.0002140654
0.006457091
-0.0002204336
0.006549693
-0.0002101942
0.00665034
-0.0002348614
0.006750353
-0.0002376381
0.006854228
-0.0002470969
0.006959692
-0.000255293
0.007068219
-0.0002635223
0.007180676
-0.0002792225
0.007299949
-0.0002997944
0.007419777
-0.000302804
0.007546256
-0.0003233487
0.007683117
-0.0003563213
0.007832215
-0.0004024648
0.008180474
-0.0008761502
0.008379129
-0.0005492934
0.008612429
-0.0006350403
0.008869547
-0.0007008675
0.009210007
-0.0009212408
0.009541928
-0.0008694744
0.01033953
-0.002276262
0.001633607
-0.001169215
0.002756171
-0.005359176
5.768458e-06
-0.004659221
0.0007358718
-0.002079054
0.001282529
-0.001238465
0.00168524
-0.0009390139
0.002039484
-0.0008671804
0.002336567
-0.0007304681
0.002579449
-0.000590831
0.00279127
-0.0005245922
0.003001608
-0.0005384169
0.003195348
-0.0004970693
0.003378184
-0.000464853
0.003544602
-0.0004172912
0.003702884
-0.0003959883
0.003851323
-0.0003705642
0.003996601
-0.0003657184
0.004136347
-0.0003491812
0.004267428
-0.0003234743
0.004393772
-0.0003112684
0.004519022
-0.0003124346
0.004639618
-0.000298893
0.004755032
-0.0002852282
0.004872235
-0.0002928301
0.004981411
-0.0002710631
0.005093199
-0.0002835573
0.005205859
-0.0002896352
0.005314
-0.0002727084
0.005417258
-0.0002553443
0.005521024
-0.0002594836
0.005623125
-0.0002592275
0.005731163
-0.0002611751
0.005723377
7.369622e-05
0.00583592
-0.0002933667
0.005951375
-0.0003063816
0.006063135
-0.0003005652
0.006174076
-0.0002992032
0.006285758
-0.0003040714
0.006396279
-0.0002993922
0.006502467
-0.0002851733
0.006610783
-0.0002941863
0.006718668
-0.0002988309
0.006831459
-0.0003150393
0.006938051
-0.0002936812
0.007044999
-0.0002925596
0.007151871
-0.0002956608
0.007261227
-0.0003063545
0.007369545
-0.0003055689
0.007482018
-0.0003214974
0.007595789
-0.0003275177
0.007709474
-0.0003277496
0.007826648
-0.000337608
0.007938282
-0.0003218282
0.008060104
-0.0003566833
0.008180251
-0.000357785
0.00830478
-0.0003716257
0.00843152
-0.000382033
0.008560785
-0.0003927874
0.00869541
-0.0004138477
0.008837247
-0.0004416312
0.008979468
-0.0004450254
0.009129472
-0.0004733527
0.00929171
-0.0005185592
0.009665667
-0.0007764212
0.009882147
-0.001092631
0.01011466
-0.0007818027
0.01039089
-0.0009112768
0.01070462
-0.001014593
0.0111085
-0.001325123
0.01157577
-0.001336749
0.01231384
-0.003014326
0.01199725
0.001950196
-0.01593681
0.01565231
0.001912747
-0.0148601
-0.004418896
-0.01417438
-0.001950485
-0.01361417
-0.001848219
-0.0131864
-0.001386031
-0.0128041
-0.001262072
-0.01248847
-0.001065646
-0.01219676
-0.001450598
-0.01171248
-0.001024395
-0.01150264
-0.0006879912
-0.01130379
-0.0006472565
-0.01112081
-0.0005923857
-0.010941
-0.0005791499
-0.0107696
-0.0005516062
-0.01060113
-0.0005382497
-0.01044428
-0.0004964628
-0.01029085
-0.0004802206
-0.01014366
-0.0004600617
-0.009995364
-0.0004609933
-0.009854315
-0.0004366508
-0.009714074
-0.0004313719
-0.009578133
-0.0004141849
-0.009447325
-0.0003950346
-0.00931571
-0.0003973563
-0.009186249
-0.0003917248
-0.00905602
-0.0003939886
-0.008929776
-0.0003793076
-0.008804853
-0.0003694603
-0.008684505
-0.0003528741
-0.008558753
-0.0003676815
-0.008437103
-0.0003570092