/*--------------------------------*- C++ -*----------------------------------*\
| =========                 |                                                 |
| \\      /  F ield         | OpenFOAM: The Open Source CFD Toolbox           |
|  \\    /   O peration     | Version:  2406                                  |
|   \\  /    A nd           | Website:  www.openfoam.com                      |
|    \\/     M anipulation  |                                                 |
\*---------------------------------------------------------------------------*/
FoamFile
{
    version     2.0;
    format      ascii;
    arch        "LSB;label=32;scalar=64";
    class       volVectorField;
    location    "0.5";
    object      U;
}
// * * * * * * * * * * * * * * * * * * * * * * * * * * * * * * * * * * * * * //

dimensions      [0 1 -1 0 0 0 0];

internalField   nonuniform List<vector> 
4562
(
(0.01005782 0.0003500373 -5.785889e-26)
(0.009990624 4.283659e-05 0)
(0.01002031 0.0001683289 0)
(0.009986981 5.049279e-05 1.878069e-26)
(0.01061538 0.0001550298 0)
(0.01000321 7.706142e-05 -1.092436e-26)
(0.009639665 0.00031399 3.504201e-26)
(0.009856646 0.0001696365 -9.830468e-27)
(0.009878142 7.166124e-05 -9.270547e-26)
(0.009987484 5.468857e-05 1.548744e-26)
(0.009811603 0.0006112076 -4.249508e-25)
(0.0100796 0.0002460187 2.259451e-26)
(0.009910435 0.0002975155 0)
(0.009988871 0.0001668057 0)
(0.01104431 0.0005280413 1.075248e-24)
(0.01005347 3.544251e-05 6.178323e-28)
(0.009744583 0.0001171242 1.596294e-25)
(0.01013329 0.0001776054 -4.551368e-26)
(0.009505754 0.0002582834 4.194579e-25)
(0.01003663 0.00020276 0)
(0.009930213 0.001186841 2.047496e-24)
(0.009943365 0.0001780103 0)
(0.009747124 0.0005263938 0)
(0.01001127 5.111427e-05 -6.90998e-27)
(0.01001396 7.474496e-05 0)
(0.009961328 0.000415365 1.758301e-25)
(0.00984773 0.0001342172 0)
(0.009919915 0.0001943831 -1.82713e-25)
(0.009512097 0.0008988521 0)
(0.01046148 0.0007612571 0)
(0.0100209 0.0003320413 4.65767e-26)
(0.01001809 5.704913e-05 2.902253e-27)
(0.009993557 0.0001404179 4.492105e-26)
(0.009709204 0.0003154114 2.527505e-25)
(0.01022156 0.0003637387 1.142826e-25)
(0.01013255 8.207727e-05 -3.314012e-26)
(0.009639242 0.0009987466 -8.217967e-25)
(0.009920051 7.394371e-05 0)
(0.01002775 4.981556e-05 -5.492463e-28)
(0.01007705 0.0001321865 1.55664e-26)
(0.009772242 9.924947e-05 0)
(0.009969444 3.196192e-05 -1.844893e-27)
(0.009752786 0.0001954692 -2.298381e-25)
(0.00998197 7.933583e-05 -2.208083e-26)
(0.01000831 4.921648e-05 2.596642e-26)
(0.00978762 0.0001815005 -5.028532e-25)
(0.01001027 7.483699e-05 0)
(0.009975412 3.424625e-05 0)
(0.009966114 5.842117e-05 0)
(0.01013731 0.0004654247 -4.129212e-26)
(0.009967344 7.05861e-05 0)
(0.009999696 0.0003246227 1.689509e-26)
(0.01019982 9.150186e-05 1.956557e-25)
(0.009654857 0.0003414898 0)
(0.01004122 7.756701e-05 -3.951152e-26)
(0.01092176 0.000696923 0)
(0.00966684 0.0003174197 1.582333e-25)
(0.009547025 0.0004315081 8.073461e-25)
(0.009704225 0.0002751231 -6.995105e-25)
(0.0108559 0.0005695127 0)
(0.009999875 0.0001061075 2.481956e-27)
(0.009692024 0.0008269948 -5.658759e-25)
(0.009814823 0.0002913761 -2.532416e-25)
(0.01010126 0.0003457538 -2.042668e-26)
(0.009802851 9.089025e-05 2.727812e-26)
(0.01054153 0.0008761792 4.503597e-25)
(0.009950928 0.0002804632 -1.489244e-25)
(0.009962393 0.0003945547 5.143901e-26)
(0.01013116 0.0004415783 0)
(0.009971215 0.0001704571 0)
(0.009593659 0.0004945186 0)
(0.009932595 0.0001021543 -5.499477e-26)
(0.01037916 0.0005351714 0)
(0.009881775 8.520537e-05 -4.786245e-26)
(0.009774952 0.0002244062 1.849649e-25)
(0.01053177 0.0005368123 7.392869e-26)
(0.01004335 0.0002993504 4.199383e-26)
(0.009897011 0.0001331081 -1.14721e-25)
(0.01006518 0.0004632129 0)
(0.01091326 0.000373132 5.75596e-25)
(0.0108504 0.0001356128 1.81179e-24)
(0.01031087 0.0002582855 -1.431969e-25)
(0.0103406 0.001062935 5.454439e-25)
(0.009969661 0.0001015381 0)
(0.009722123 0.0003261995 0)
(0.009955442 5.056392e-05 -8.879332e-27)
(0.01002032 4.643474e-05 -4.030413e-27)
(0.009946603 0.0001620627 -6.703258e-26)
(0.009875251 0.0001431966 0)
(0.009965323 0.0002725687 -8.669595e-26)
(0.009931004 9.433873e-05 0)
(0.01001214 3.759515e-05 0)
(0.009896934 0.0001755353 -5.247265e-26)
(0.009999712 0.0001467067 -2.30988e-26)
(0.01011892 0.0006641225 0)
(0.009884295 0.0007247296 0)
(0.01001621 4.2818e-05 0)
(0.009908274 6.345993e-05 1.162409e-26)
(0.009487092 0.0006704511 0)
(0.009686215 0.0003802385 3.669456e-26)
(0.00998292 0.0001987284 2.508036e-26)
(0.009571777 0.0006555079 2.985109e-25)
(0.009980053 0.0001048888 7.573681e-26)
(0.009992171 0.001201539 0)
(0.01001104 0.0002995369 2.503467e-26)
(0.0100452 0.0008069698 0)
(0.009869624 0.0001509354 -7.03948e-26)
(0.009995155 0.0001910558 0)
(0.009987329 9.672393e-05 1.265728e-26)
(0.01006095 5.417663e-05 0)
(0.009910381 0.0003958891 1.065089e-25)
(0.01022932 0.0006053069 -8.442641e-26)
(0.01001851 0.0002852664 -3.090219e-26)
(0.009558083 0.0002745518 0)
(0.0105587 0.0008974304 0)
(0.009970628 3.138882e-05 3.875336e-26)
(0.01078161 0.0003735932 -6.904051e-25)
(0.009882916 0.0001958775 1.789668e-25)
(0.009579701 0.0008122248 -4.304819e-25)
(0.009937275 0.0002331491 -2.061726e-25)
(0.01025236 0.00036464 -2.480718e-25)
(0.009834398 8.992653e-05 1.451889e-25)
(0.009957685 5.999667e-05 -4.262421e-27)
(0.009983475 8.803339e-05 3.223375e-27)
(0.009809025 0.0003758951 2.289166e-25)
(0.009987867 0.0001349773 -4.550087e-26)
(0.009948487 0.0001337382 -4.456416e-26)
(0.009990714 0.0001079127 8.551179e-27)
(0.01013347 0.0006500311 -9.383565e-26)
(0.01011563 0.0005055365 -3.636897e-27)
(0.01010519 0.0002785495 -1.216976e-27)
(0.0099617 6.818524e-05 -1.645174e-26)
(0.01005207 0.0007935118 -1.246723e-25)
(0.009991758 3.847516e-05 -6.504203e-27)
(0.010027 0.0002982413 -1.602858e-26)
(0.01080843 0.0007686758 4.33053e-25)
(0.009615638 0.00045078 0)
(0.009957268 0.0001337838 -4.412563e-26)
(0.01028907 0.0001390306 0)
(0.009998369 4.855196e-05 -5.165905e-28)
(0.01037083 0.0009937699 0)
(0.01036442 0.0003063078 -1.353518e-25)
(0.01002679 7.960498e-05 -1.832063e-26)
(0.01083676 0.0008251796 4.403829e-25)
(0.009976418 0.0004949364 0)
(0.009998127 0.0001788974 0)
(0.009742344 0.0004083643 0)
(0.009954176 9.935777e-05 -9.032721e-27)
(0.01012231 0.0003499499 -1.145011e-25)
(0.01021782 0.0001175246 -4.262669e-25)
(0.009988028 7.69115e-05 0)
(0.009766694 0.0007984919 0)
(0.009980273 0.0001688333 0)
(0.01009473 0.0002122457 4.800767e-26)
(0.009998375 7.409161e-05 0)
(0.01023164 0.0003369966 9.583671e-26)
(0.009942016 6.978125e-05 0)
(0.01067306 0.0009092744 1.535933e-24)
(0.01001865 0.0002286205 -3.413136e-26)
(0.009970074 6.524822e-05 -2.062673e-26)
(0.00993899 0.0003935759 -4.961465e-25)
(0.01053164 0.0005119051 -1.20704e-25)
(0.01049312 0.0007975163 0)
(0.009965996 3.499591e-05 -2.649947e-26)
(0.009946696 9.17061e-05 -6.542773e-26)
(0.01094392 0.0006802682 5.948628e-26)
(0.01002611 0.0001272815 -4.284752e-27)
(0.01001153 6.004907e-05 -1.072203e-26)
(0.009711247 0.0005157488 -2.434448e-25)
(0.01026888 0.0004108592 7.400809e-26)
(0.01000921 0.001176553 -3.903921e-24)
(0.01005677 0.0001661075 -3.114813e-28)
(0.01023172 0.0006814744 4.549436e-25)
(0.01001801 0.0001479665 0)
(0.01002306 0.0007397401 -4.231935e-25)
(0.010023 0.0002216895 2.999189e-26)
(0.009966395 4.294976e-05 -5.637699e-27)
(0.009955009 6.141951e-05 2.257725e-26)
(0.009881287 0.0003492955 9.051624e-27)
(0.009911944 9.116453e-05 0)
(0.009999338 5.444308e-05 0)
(0.009770636 0.0002979497 4.054061e-25)
(0.009732002 0.0003967163 3.502542e-25)
(0.01104443 0.0004969945 -8.088305e-26)
(0.01015117 0.0006760773 0)
(0.01000497 0.0002487765 -1.087244e-26)
(0.01005973 0.0008918436 -6.438723e-25)
(0.01006234 0.0003204894 -3.07103e-26)
(0.009925458 6.756292e-05 -4.876252e-27)
(0.0103525 0.0008466747 0)
(0.01001854 0.00096671 0)
(0.01029044 0.0009147058 1.131752e-24)
(0.0102334 0.000384222 0)
(0.01000573 0.0001305409 -4.577862e-27)
(0.01012739 0.0007183884 0)
(0.009908914 9.348543e-05 -1.205429e-25)
(0.009636859 0.0001870679 1.504339e-25)
(0.00970333 0.0003823913 3.756973e-25)
(0.01026066 0.0004259008 -2.198981e-27)
(0.009981767 6.106457e-05 5.364342e-27)
(0.009957163 9.029774e-05 1.694303e-26)
(0.009858365 0.0004065582 0)
(0.01004772 0.0002766824 0)
(0.01027185 0.0007702012 4.842686e-25)
(0.009713346 0.0007206607 -2.819058e-25)
(0.0100135 0.0001157955 0)
(0.01066798 0.0006860823 -3.247928e-26)
(0.01074912 0.0007994189 2.409498e-25)
(0.01018902 0.0003886037 2.591982e-25)
(0.009868856 0.0001102701 9.145367e-26)
(0.0100126 5.410694e-05 -5.033337e-28)
(0.009879632 0.0008068465 0)
(0.009958922 4.934208e-05 -1.10065e-26)
(0.01001953 8.209062e-05 -3.716316e-27)
(0.01044028 0.0007469376 0)
(0.01072404 0.000805402 1.053796e-25)
(0.009986274 0.0001029152 0)
(0.009986748 4.115207e-05 -1.57341e-27)
(0.01004576 0.0003308866 0)
(0.01072052 0.0009025086 3.121894e-25)
(0.009995171 0.0001026018 -2.010801e-26)
(0.01053689 0.001031443 2.660816e-24)
(0.01026976 0.0004983421 0)
(0.01003711 7.703469e-05 1.729036e-26)
(0.009785405 0.0005426893 0)
(0.009782754 0.0003621914 -7.467725e-26)
(0.009934824 0.0007373086 -1.971936e-25)
(0.009858434 0.0005707223 8.176429e-26)
(0.01043489 0.0009567731 0)
(0.009818453 0.0001406617 0)
(0.009991041 4.427288e-05 -1.150208e-27)
(0.009786653 0.0003865188 1.569617e-25)
(0.01013181 0.000258534 4.552922e-26)
(0.009859878 0.0004625418 2.98679e-25)
(0.009916365 6.243445e-05 4.740153e-26)
(0.009606839 0.0004331186 0)
(0.009640214 0.0002804398 -1.518138e-25)
(0.01059584 0.0009190717 -4.835526e-26)
(0.01017555 0.000377292 0)
(0.009853477 8.113736e-05 0)
(0.009828396 8.676191e-05 -2.670303e-25)
(0.009914306 0.0001901283 -1.190037e-25)
(0.01018378 0.0007437957 0)
(0.009979112 0.0002430569 1.16037e-25)
(0.01004732 0.00022195 7.825968e-28)
(0.01085964 0.0006437442 -9.559267e-26)
(0.0099117 0.0001350209 4.997288e-26)
(0.009725868 0.0006532704 -3.357357e-25)
(0.01004487 0.0003211351 -1.24057e-26)
(0.00996064 4.767927e-05 -1.450127e-27)
(0.009992977 4.699038e-05 1.698525e-26)
(0.009965608 0.0001632072 -1.036906e-25)
(0.009981104 0.0001316355 1.542689e-26)
(0.009966696 9.647745e-05 2.050514e-26)
(0.01002752 0.0001026292 3.932059e-26)
(0.0100438 0.0001553905 -8.415669e-27)
(0.009995544 7.840346e-05 0)
(0.009798773 0.0002607153 -7.161817e-25)
(0.0098226 9.023962e-05 1.371997e-25)
(0.009748066 0.0008812514 -7.121432e-25)
(0.01016483 0.0009392128 -5.155505e-25)
(0.009901825 8.207284e-05 4.136732e-27)
(0.01011925 0.0002690151 4.510625e-26)
(0.01001072 0.0001431936 -1.754952e-27)
(0.01049497 0.000604873 -6.628607e-27)
(0.01002618 0.0002882832 2.708864e-26)
(0.0100018 4.16728e-05 0)
(0.01010617 0.000363399 5.313212e-27)
(0.01002944 7.510405e-05 -1.516645e-26)
(0.01001723 4.045758e-05 1.678113e-26)
(0.009974822 4.234656e-05 0)
(0.009945021 0.0001545121 2.381605e-26)
(0.009876085 0.0002641526 9.540675e-26)
(0.01030813 0.0002908803 -1.749559e-25)
(0.01052915 0.0003295731 2.762765e-26)
(0.009983955 4.773592e-05 0)
(0.01001094 6.761995e-05 7.803881e-28)
(0.009990467 7.132844e-05 -1.265353e-26)
(0.01004354 0.0001906894 7.658471e-26)
(0.01075538 0.0005444036 -1.782848e-25)
(0.009949495 0.0003207257 1.081026e-25)
(0.01002083 3.969822e-05 1.121916e-26)
(0.009862972 0.0001793872 0)
(0.009921287 0.0001808599 -5.312531e-26)
(0.01022194 0.001042856 5.114915e-25)
(0.0100469 0.0001110337 1.263183e-27)
(0.01002459 0.0001071024 7.608305e-26)
(0.009980921 7.46555e-05 3.274229e-26)
(0.009990001 8.680946e-05 3.78932e-26)
(0.009570048 0.0004882867 0)
(0.009996707 0.0004335986 0)
(0.009979845 0.0001589085 0)
(0.009827122 0.0005811244 -1.39791e-25)
(0.01018046 0.0007114478 0)
(0.009969053 8.809225e-05 -2.60591e-26)
(0.009811796 0.0006356783 3.520149e-25)
(0.009903428 0.0006490136 3.363435e-25)
(0.009992066 0.0001353539 5.123461e-26)
(0.009650587 0.0008874339 1.733765e-25)
(0.0103797 0.0001891855 -1.142559e-25)
(0.01007263 0.0001718984 4.218541e-26)
(0.009925175 0.0002270567 2.44083e-26)
(0.01007837 0.0004215447 1.256578e-26)
(0.01052136 0.0008218356 0)
(0.0102416 0.0001166066 9.373444e-26)
(0.009806469 0.0009391776 -5.432622e-25)
(0.009685802 0.0009861657 1.100319e-24)
(0.01002349 9.390354e-05 0)
(0.009873737 0.0003192146 0)
(0.009835448 0.0003382762 1.914775e-25)
(0.009883154 7.749062e-05 -1.460404e-25)
(0.01020608 0.0002860814 -2.010156e-26)
(0.01064763 0.0008738782 0)
(0.00953007 0.0006164234 8.748243e-25)
(0.009921003 0.0003443549 -1.785791e-25)
(0.01006876 0.0002184903 -1.066716e-26)
(0.009966844 5.136188e-05 1.579329e-27)
(0.01002563 5.094331e-05 0)
(0.01026293 0.0005462863 -4.140789e-27)
(0.009957624 4.112041e-05 8.183123e-28)
(0.00995268 5.368944e-05 1.997473e-26)
(0.0110222 0.0005042888 -1.370039e-24)
(0.009995161 6.602572e-05 -2.217327e-27)
(0.009972563 8.275448e-05 0)
(0.009819562 0.001001358 0)
(0.009890204 0.0001992424 -2.69038e-27)
(0.009775795 0.0005685195 0)
(0.009903045 0.0005367511 -2.389657e-25)
(0.009940259 7.304314e-05 4.081559e-27)
(0.009807755 0.0007288599 4.519526e-25)
(0.01003251 0.000146808 1.794221e-26)
(0.01011022 0.0001415699 0)
(0.01002356 0.000184927 -1.077161e-26)
(0.01004422 0.0001715588 -5.311672e-26)
(0.009486231 0.0004381987 5.515506e-25)
(0.009507003 0.0004284325 -8.607638e-25)
(0.01000811 6.121115e-05 -1.102823e-28)
(0.01014045 0.0008313274 6.511055e-25)
(0.01056902 0.0008763883 0)
(0.01044163 0.0009840078 0)
(0.01029944 0.0007537258 -4.11981e-25)
(0.01033439 0.0005836053 0)
(0.0103012 0.000897793 -7.933987e-25)
(0.009947622 0.0002578728 -4.920247e-26)
(0.009964575 4.808879e-05 0)
(0.009994399 5.530028e-05 2.248034e-27)
(0.009987295 3.869123e-05 -6.474435e-27)
(0.009878556 0.0003017126 -3.759174e-26)
(0.009631777 0.0006282948 1.073909e-25)
(0.009901997 0.0001039566 0)
(0.01039176 0.0007766885 4.33429e-25)
(0.009963283 0.0002939981 -1.168458e-25)
(0.01001687 7.843653e-05 -7.357868e-28)
(0.009931076 6.530262e-05 6.765842e-26)
(0.01001075 3.757875e-05 0)
(0.009896992 0.0001388145 6.878456e-26)
(0.00994759 0.0001010277 0)
(0.009957895 0.0001839027 0)
(0.009793571 0.0001465362 -1.370923e-25)
(0.009940515 6.672775e-05 -3.015846e-27)
(0.009944943 7.038674e-05 0)
(0.009987707 5.815408e-05 0)
(0.01000848 5.089398e-05 1.416676e-27)
(0.01009388 0.0001445632 1.240304e-26)
(0.009944031 0.0001306788 8.615764e-26)
(0.009824558 0.0001731786 3.763403e-25)
(0.00986603 8.541868e-05 0)
(0.009836638 0.0002244739 1.112168e-25)
(0.009870286 0.000196347 1.251325e-26)
(0.009924332 0.0001452517 -4.987492e-26)
(0.00975519 0.000135145 0)
(0.009709365 0.0001702923 5.509405e-25)
(0.009738767 0.0001515283 5.313339e-25)
(0.009831515 0.0008352067 0)
(0.01019081 0.0006176685 -3.329642e-26)
(0.01000914 4.254565e-05 0)
(0.009688785 0.0002208164 0)
(0.009939675 0.001154507 0)
(0.009953668 0.0002342272 0)
(0.009973911 0.0001872876 0)
(0.009999839 9.963947e-05 4.877282e-26)
(0.01008829 0.0003962908 0)
(0.009913875 0.0006990327 0)
(0.01001278 4.883384e-05 -9.222605e-27)
(0.01018563 0.0004601133 -1.222767e-25)
(0.009877741 0.0007102666 2.494281e-25)
(0.01017072 0.0009879758 -2.08506e-24)
(0.01000636 3.917473e-05 3.641388e-27)
(0.009967966 0.0001133471 8.089358e-27)
(0.009927108 0.000130401 4.336606e-26)
(0.00993884 0.0001380923 1.526713e-27)
(0.009941671 0.0001064608 -1.021339e-26)
(0.009973899 3.737627e-05 0)
(0.01018182 0.0005268592 -4.382029e-26)
(0.01062501 0.0002803422 1.030513e-24)
(0.01048752 0.000402428 5.672691e-25)
(0.009623314 0.0002870135 -5.367308e-25)
(0.009515412 0.0005925224 7.283873e-25)
(0.009979992 7.066829e-05 1.871421e-26)
(0.009549421 0.0001942277 9.327977e-26)
(0.01017927 0.0009537955 -1.291801e-26)
(0.009890004 0.001235252 2.344259e-24)
(0.009705796 0.0001826904 -4.327942e-25)
(0.0100672 0.000270124 -2.784956e-27)
(0.01093982 0.0005248211 0)
(0.01010245 0.0004302947 0)
(0.01025154 0.001157084 0)
(0.00949227 0.0004625668 5.688489e-25)
(0.00982396 0.00117449 0)
(0.009987991 0.000110654 0)
(0.01002883 0.0004162214 0)
(0.01000609 0.0001522398 0)
(0.01004228 2.068659e-05 0)
(0.009977014 0.000364486 1.504252e-26)
(0.01002029 0.0004378945 -1.194567e-26)
(0.009996959 6.220384e-05 0)
(0.009664221 0.0001936505 -3.218758e-27)
(0.009976052 0.0001449316 3.570888e-26)
(0.01001298 0.000147806 9.761132e-27)
(0.009971607 0.0001757545 -4.750885e-26)
(0.009928703 0.000108137 0)
(0.009898983 6.726965e-05 -7.39118e-27)
(0.009686287 0.0001646048 0)
(0.009796069 0.000237105 -1.922231e-26)
(0.009982533 3.556096e-05 8.853028e-26)
(0.009988055 0.0002306796 -3.49985e-26)
(0.009998812 7.205845e-05 -2.282884e-33)
(0.009776726 0.000186148 7.157044e-26)
(0.00980862 0.0001236831 -5.918359e-26)
(0.009900893 0.0001075792 0)
(0.009917568 7.763532e-05 0)
(0.009856126 0.000222431 0)
(0.009676715 0.0002149447 -9.172427e-26)
(0.009804864 0.0001072742 0)
(0.009827888 0.0001181763 0)
(0.01009283 9.294191e-05 5.285863e-26)
(0.01002121 6.640072e-05 3.451537e-27)
(0.009972895 9.619122e-05 1.144125e-26)
(0.00952952 0.0004028379 0)
(0.009846564 0.0003845455 8.737601e-26)
(0.01001249 0.000173587 0)
(0.01001326 9.508211e-05 -4.931023e-27)
(0.009593843 0.0006701069 0)
(0.01000175 0.0006073663 1.901668e-25)
(0.01099036 0.00059062 0)
(0.009957505 5.746392e-05 2.123318e-27)
(0.010436 0.001010207 0)
(0.009992508 5.07303e-05 0)
(0.009866938 0.0001056307 -1.060855e-25)
(0.009979541 0.0001012235 1.519715e-26)
(0.009840319 0.0002577294 0)
(0.01003927 2.868622e-05 0)
(0.01009482 0.0006632575 -3.418202e-26)
(0.0102459 0.0005765363 2.437076e-26)
(0.01001433 9.188626e-05 -7.945938e-27)
(0.009935552 6.328304e-05 -3.269747e-26)
(0.01078334 0.0008749692 -2.761023e-25)
(0.009741113 0.0002405431 -5.171035e-26)
(0.009697389 0.001195567 1.138191e-24)
(0.01011289 0.0002011519 6.847266e-26)
(0.01074161 0.0007019466 -1.065138e-25)
(0.01000132 9.762573e-05 -6.625341e-26)
(0.009900674 0.0001499245 8.337021e-26)
(0.009568006 0.0005252303 -5.265993e-25)
(0.00953674 0.0004618465 0)
(0.009968411 4.829917e-05 0)
(0.009984713 4.4052e-05 1.853028e-26)
(0.009989823 0.0001036281 4.186612e-26)
(0.01071839 0.0007902181 4.805398e-26)
(0.00985153 0.0001055876 0)
(0.009955432 0.0001125743 -9.655586e-26)
(0.009884092 0.001203524 0)
(0.009902189 6.572052e-05 1.090511e-25)
(0.009920992 5.642573e-05 0)
(0.01065126 0.0004374965 -5.36565e-25)
(0.00987689 0.0001997431 -1.214692e-26)
(0.009933965 0.0002444228 0)
(0.009915801 0.0002922831 0)
(0.009848854 0.0003527761 1.781725e-25)
(0.009905401 0.0003757346 1.124136e-25)
(0.01002894 0.0002625451 -6.666669e-26)
(0.01006784 0.000731601 2.961442e-25)
(0.009884364 0.0003880537 -2.005727e-25)
(0.0108296 0.0004349414 0)
(0.0101266 0.0005143472 3.008951e-26)
(0.0103796 0.0004447633 -1.922092e-25)
(0.01043094 0.0005616763 3.653044e-27)
(0.009895113 0.0001484278 -4.563208e-26)
(0.009856419 0.0001757049 0)
(0.01003345 0.0001569143 -8.941163e-27)
(0.01000426 4.269139e-05 3.716214e-27)
(0.009993099 3.989081e-05 4.102591e-27)
(0.01002494 0.0001958874 2.088876e-26)
(0.009794708 0.0002708346 -1.604382e-25)
(0.009886308 0.0009667736 0)
(0.01006247 0.0001994921 2.154552e-26)
(0.01000847 0.000357836 -7.499349e-26)
(0.009965995 4.116129e-05 -1.648078e-27)
(0.01054698 0.000858919 -5.04118e-25)
(0.01046535 0.0007847617 0)
(0.01048421 0.0007403866 4.362374e-25)
(0.01034795 0.0006269364 0)
(0.01034814 0.0007423091 -3.206024e-26)
(0.01017863 0.0007583806 2.588098e-26)
(0.01007458 0.000875494 1.129278e-24)
(0.01024844 0.0009244674 -2.880432e-25)
(0.01062461 0.0007089179 0)
(0.01031501 0.0009228354 -3.540936e-25)
(0.01057688 0.0008301197 -7.016834e-27)
(0.01072568 0.0008620156 5.780852e-25)
(0.0104406 0.0007109742 0)
(0.01030137 0.0007412641 3.571292e-25)
(0.01026151 0.000683261 0)
(0.01025508 0.0007214937 2.947987e-28)
(0.00989758 9.284681e-05 6.216591e-27)
(0.01020087 0.0005668746 -1.880683e-25)
(0.01052863 0.0002920891 -3.112104e-25)
(0.009909961 8.028675e-05 0)
(0.01056042 0.0004948311 0)
(0.0100543 0.0001301415 0)
(0.01002934 4.562386e-05 -1.539953e-26)
(0.009945558 0.0008027257 0)
(0.01022777 0.0005906785 5.725965e-26)
(0.009910648 0.0005599273 2.41245e-25)
(0.0100559 0.0002002271 0)
(0.009788799 0.0002861537 0)
(0.01054402 0.0009846262 -7.118554e-25)
(0.01016501 0.0001104068 0)
(0.01002604 9.643935e-05 0)
(0.009704791 0.0001492578 0)
(0.009524794 0.0001728138 2.161715e-25)
(0.009771994 0.0009787475 9.20326e-27)
(0.009791763 0.0001179847 -1.065188e-25)
(0.00992531 0.0007672706 -4.032011e-25)
(0.00998959 6.944922e-05 -5.185867e-28)
(0.009927494 0.0004307413 0)
(0.009891959 0.000239908 2.277057e-25)
(0.01020302 0.0006263558 3.319012e-26)
(0.009954236 0.0006103667 -2.885302e-25)
(0.01002065 0.0004889518 1.428736e-25)
(0.01060262 0.0003493924 6.230218e-25)
(0.009879201 0.0001068733 0)
(0.009861058 0.0001044768 0)
(0.009996407 8.276284e-05 1.476227e-26)
(0.01005439 7.043774e-05 -2.452701e-26)
(0.009917626 0.000128127 3.699112e-26)
(0.009740972 0.0001063962 -1.363992e-25)
(0.009844058 0.0004514557 -3.281938e-25)
(0.009823108 0.0003753941 -8.468039e-25)
(0.009542749 0.0002464424 0)
(0.009567384 0.0001922169 7.449862e-25)
(0.009522674 0.0003426671 -1.407734e-25)
(0.009903131 0.0003468502 -9.754117e-26)
(0.009655079 0.0002902005 2.286116e-25)
(0.009931913 0.0003032689 -5.983199e-26)
(0.00973107 0.0006046334 4.618954e-25)
(0.0098924 8.71465e-05 0)
(0.01002453 4.660891e-05 7.827889e-27)
(0.01031697 0.0005598803 0)
(0.01009168 0.0003222777 9.364397e-26)
(0.009888126 0.0004108149 2.071857e-25)
(0.01003589 0.0002159503 -3.311943e-26)
(0.009910323 0.0003084063 0)
(0.01000589 3.808512e-05 6.926994e-27)
(0.01000119 4.926057e-05 9.014184e-27)
(0.0100818 0.0003248227 0)
(0.009957762 7.037339e-05 9.515368e-27)
(0.009934031 9.835643e-05 7.419696e-26)
(0.009935515 0.000130711 -7.226415e-26)
(0.01018478 0.0005106887 -2.883935e-26)
(0.01075463 0.0007106492 -2.165897e-26)
(0.01054216 0.001000075 0)
(0.009978686 9.167971e-05 0)
(0.009677995 0.0004204772 9.831675e-25)
(0.01008719 5.853103e-06 -1.525803e-26)
(0.01011393 0.0005524312 1.625274e-26)
(0.01011226 0.0004596981 -1.068622e-25)
(0.01007839 0.00035469 4.821751e-26)
(0.00994768 0.0001387939 -8.182482e-26)
(0.00995727 0.0001511423 7.670176e-26)
(0.009990072 0.0003522748 7.135234e-26)
(0.009914931 0.0003851243 -9.400646e-26)
(0.009988259 6.17974e-05 0)
(0.009886156 5.76919e-05 0)
(0.009960713 0.0005163668 0)
(0.00997317 5.410254e-05 6.403516e-27)
(0.009998681 5.131691e-05 0)
(0.009737146 0.0001415077 -2.193147e-25)
(0.0100104 0.0002286278 -2.95553e-26)
(0.009869138 0.0003471394 -3.126325e-25)
(0.009770198 0.0006616283 -6.27795e-26)
(0.01083082 0.00024793 0)
(0.009650811 0.000575659 -1.395866e-24)
(0.009785831 0.0008250707 8.77259e-25)
(0.01022669 0.001134492 -1.436598e-24)
(0.01016578 0.001023079 -3.057453e-24)
(0.01041864 0.0009010673 -1.012311e-24)
(0.01001944 0.0001174362 -8.210261e-27)
(0.01006659 0.0005268725 -6.932077e-25)
(0.00998914 5.984789e-05 0)
(0.009714356 0.0007772481 1.152723e-25)
(0.009659891 0.000782616 1.391956e-24)
(0.009931585 0.0001084284 0)
(0.01006293 0.0005874728 -1.656613e-25)
(0.01016024 5.960795e-05 0)
(0.009855674 0.0004793721 -2.113342e-25)
(0.009834793 0.000190588 0)
(0.01001262 3.825221e-05 -2.20846e-26)
(0.01000592 9.971697e-05 0)
(0.01037718 0.0004864752 -2.739201e-26)
(0.009911944 0.0001612731 1.591433e-26)
(0.01011289 0.0003414694 -7.497994e-27)
(0.01081439 0.0006655366 8.784469e-29)
(0.01083637 0.0006452621 0)
(0.009990234 0.0003152976 0)
(0.009728921 0.001147746 1.416362e-24)
(0.009891871 0.0003767148 -1.217089e-25)
(0.01045298 0.0003520997 7.516839e-25)
(0.009998256 0.00036094 0)
(0.01004883 0.000121249 0)
(0.01008968 0.0002374934 0)
(0.01000515 5.910637e-05 2.352352e-27)
(0.0100014 8.024343e-05 6.655639e-27)
(0.01001521 8.565321e-05 -2.948025e-26)
(0.01002686 0.0001398425 1.587654e-26)
(0.01008613 5.467757e-05 0)
(0.01002854 3.212994e-05 0)
(0.01002287 4.823528e-05 0)
(0.01017435 0.0004056272 -3.375167e-26)
(0.009796123 0.0005716162 6.850061e-25)
(0.009686048 0.0002542925 -2.724294e-25)
(0.009729497 0.0009506599 0)
(0.009987034 7.258494e-05 -2.170403e-26)
(0.00978587 9.1943e-05 -1.691252e-25)
(0.009933318 0.0001453922 -4.314091e-26)
(0.009692987 0.0007090862 0)
(0.01017241 0.0005046952 -8.066647e-27)
(0.009731598 0.0002615836 -5.119544e-25)
(0.01006289 0.000926526 -9.31366e-25)
(0.01006579 0.001000521 8.606054e-25)
(0.01001819 8.936358e-05 5.6318e-28)
(0.0100356 9.331042e-05 0)
(0.01000223 0.0009479947 8.515727e-25)
(0.009976873 0.0009206372 1.393328e-26)
(0.01004554 0.0001194159 -5.357752e-27)
(0.0100369 0.0001401442 0)
(0.009961711 0.0002797251 1.921034e-25)
(0.009968876 5.276662e-05 -2.847493e-26)
(0.00995934 5.603689e-05 -6.409053e-27)
(0.009962093 3.763808e-05 0)
(0.009733854 0.0002742688 2.872359e-25)
(0.009689518 0.0001994057 1.440941e-25)
(0.00972315 0.0002959063 -2.66104e-25)
(0.009714717 0.0002536275 -2.324872e-26)
(0.009967781 0.0002133846 0)
(0.01044415 0.0009059689 0)
(0.00987081 0.0001398062 0)
(0.009986261 8.340691e-05 -1.737071e-27)
(0.009962284 5.639696e-05 1.072458e-26)
(0.009994606 0.0002126533 -3.00338e-26)
(0.009729633 0.0004858699 1.394472e-25)
(0.0100602 0.0004326139 4.550896e-26)
(0.01000879 4.049474e-05 -1.487632e-26)
(0.01001764 4.177134e-05 1.209724e-26)
(0.01003655 0.0001779992 0)
(0.01003563 0.0001280939 8.319514e-29)
(0.01004484 9.243117e-05 0)
(0.01000198 5.813805e-05 0)
(0.01092236 0.0004108618 9.072618e-25)
(0.009952093 8.635256e-05 0)
(0.009649754 0.0003696926 -2.157084e-25)
(0.01001025 0.0001169771 -3.922903e-26)
(0.01001439 0.0001121891 -1.465608e-27)
(0.01005918 6.690925e-05 0)
(0.009979504 0.0004480943 -2.752e-27)
(0.009569688 0.0001792499 -7.187849e-25)
(0.009978704 3.528335e-05 1.949108e-26)
(0.009976068 3.610307e-05 0)
(0.01065248 0.0005604818 -1.716679e-26)
(0.01062438 0.0006402073 1.037991e-25)
(0.009966394 0.0001207907 6.50305e-26)
(0.00994018 5.589297e-05 -2.20471e-26)
(0.01002851 0.0001734618 6.494332e-27)
(0.0100658 0.00049015 -1.063662e-25)
(0.01001536 0.000179253 -2.75902e-26)
(0.009976661 6.433552e-05 5.258005e-26)
(0.01071378 0.0008834219 -1.258801e-24)
(0.009901227 0.0001658734 -1.305187e-25)
(0.01000641 0.0001428537 -3.694741e-27)
(0.009992172 0.0001500802 0)
(0.009980063 0.0001534019 -4.47192e-27)
(0.009966747 0.0001269412 -8.634688e-27)
(0.01001441 5.506619e-05 5.610569e-28)
(0.01049731 0.0006783416 1.205693e-25)
(0.0098317 0.000708332 -5.20245e-25)
(0.0101603 0.0004839499 -3.730129e-26)
(0.01017507 0.0004264173 -2.329557e-26)
(0.009885303 0.0002682153 -1.96535e-25)
(0.009994328 3.806079e-05 -5.660909e-27)
(0.01053268 0.0006838962 6.046086e-26)
(0.009635073 0.0005562032 -3.309003e-27)
(0.01007289 0.0002457386 -4.060526e-26)
(0.01009108 0.0002531294 4.787394e-26)
(0.009985255 3.987485e-05 9.994725e-27)
(0.009991929 5.745164e-05 0)
(0.009875171 0.0001111175 -8.014217e-26)
(0.01000962 4.856721e-05 -2.34483e-26)
(0.01005097 0.0001594722 -1.974434e-26)
(0.0100051 4.177762e-05 -1.04539e-27)
(0.01005214 0.0001941665 -1.258634e-26)
(0.009643044 0.001019334 1.011099e-24)
(0.009771531 0.00091107 -4.100664e-25)
(0.01025012 0.001011686 -1.236078e-24)
(0.009875817 8.388115e-05 0)
(0.009835184 0.0003268109 -2.218428e-25)
(0.009939355 0.0001199599 1.072985e-26)
(0.009524275 0.001161275 0)
(0.009980686 4.325249e-05 0)
(0.01008873 0.0002138642 -4.884556e-27)
(0.01020043 0.0004989344 3.392825e-26)
(0.009879888 0.0002479623 -2.114603e-25)
(0.009896744 0.0002832905 -1.099643e-26)
(0.009848819 0.0002499051 -4.598008e-26)
(0.00956994 0.0008331848 0)
(0.01017024 0.0003879249 5.105275e-27)
(0.01001547 8.258827e-05 6.839897e-27)
(0.01021191 0.0005037285 -5.464078e-26)
(0.01009725 0.0005628885 -1.095503e-25)
(0.01067528 0.0007587741 0)
(0.01082625 0.0005238891 0)
(0.01040084 0.0005111429 1.743397e-25)
(0.01001138 4.167963e-05 0)
(0.009977108 0.0004631148 -1.58058e-25)
(0.01005471 0.0004444699 -3.979397e-26)
(0.009576956 0.0003839195 3.946644e-25)
(0.01086482 0.0003237663 6.330531e-25)
(0.009633691 0.0008743726 0)
(0.009959727 3.499427e-05 -3.82479e-27)
(0.01025889 0.0001451571 3.086228e-25)
(0.01078056 0.0007738242 0)
(0.01078765 0.0004688478 0)
(0.009960658 3.869084e-05 -2.908936e-27)
(0.00976005 0.0001560452 0)
(0.01000218 5.037981e-05 -5.726875e-27)
(0.009952788 6.019989e-05 1.138739e-27)
(0.01053684 0.0006055372 0)
(0.009765576 0.0008173 -8.962321e-25)
(0.01032609 0.0004395471 -6.228897e-26)
(0.009905836 6.640281e-05 0)
(0.01047024 0.0004784719 1.457007e-25)
(0.01002078 0.0001037589 0)
(0.01059446 0.0006193221 3.295025e-25)
(0.009912781 0.0001292331 -5.952426e-26)
(0.009853041 8.777145e-05 -4.790132e-26)
(0.01003795 0.0001189061 7.659568e-27)
(0.01007022 0.0003139279 0)
(0.009888179 9.065763e-05 7.058867e-27)
(0.009841448 0.0002893111 -2.218795e-26)
(0.009961565 3.568114e-05 1.186085e-26)
(0.009916906 8.481832e-05 8.599847e-27)
(0.01001535 6.035156e-05 0)
(0.009900561 7.507054e-05 0)
(0.009816407 0.0001900232 -2.088911e-25)
(0.009833311 0.0001148846 0)
(0.009840146 0.0001489649 8.102434e-26)
(0.01003003 8.353836e-05 4.491584e-26)
(0.00965954 0.0003582089 5.976253e-25)
(0.0100255 0.0001093613 -5.161871e-26)
(0.009748373 0.0004478791 -3.038266e-25)
(0.01002232 7.308634e-05 -9.351247e-28)
(0.01037459 0.0001406597 0)
(0.009902203 0.000619617 0)
(0.009941403 9.892014e-05 0)
(0.009993106 8.626738e-05 0)
(0.009996896 0.0007128089 -4.497023e-25)
(0.01042941 0.0009265143 0)
(0.01057932 0.000941153 6.417775e-25)
(0.01045165 0.0009342567 -5.689888e-25)
(0.01031771 0.0009525117 0)
(0.009994033 0.001052845 -1.355787e-24)
(0.01037428 0.0002704063 -9.757666e-26)
(0.01034098 0.0002454931 3.602657e-25)
(0.009740381 0.0004996611 -2.285579e-25)
(0.01000338 3.822483e-05 -6.46361e-27)
(0.01013631 0.0004032947 9.365992e-26)
(0.01004648 0.0002623512 -9.275662e-27)
(0.009968679 0.0001091519 5.493428e-26)
(0.009989202 0.0003926417 1.225229e-25)
(0.01000916 0.000194627 -1.228072e-26)
(0.01011657 0.0004032536 -1.44272e-26)
(0.009996672 7.481759e-05 0)
(0.01033654 0.001120516 1.185689e-24)
(0.01002089 0.000179393 -2.666396e-27)
(0.01002339 0.0001738424 -6.882716e-27)
(0.009996877 0.0001618357 0)
(0.01001882 0.0001576237 0)
(0.009960818 0.0002353522 6.702081e-28)
(0.01034186 0.0003696814 -3.496987e-25)
(0.01040103 0.0004543117 0)
(0.01004729 0.0001752555 6.432876e-26)