/*--------------------------------*- C++ -*----------------------------------*\
| =========                 |                                                 |
| \\      /  F ield         | OpenFOAM: The Open Source CFD Toolbox           |
|  \\    /   O peration     | Version:  2406                                  |
|   \\  /    A nd           | Website:  www.openfoam.com                      |
|    \\/     M anipulation  |                                                 |
\*---------------------------------------------------------------------------*/
FoamFile
{
    version     2.0;
    format      ascii;
    arch        "LSB;label=32;scalar=64";
    class       volVectorField;
    location    "0.02";
    object      U;
}
// * * * * * * * * * * * * * * * * * * * * * * * * * * * * * * * * * * * * * //

dimensions      [0 1 -1 0 0 0 0];

internalField   nonuniform List<vector> 
4531
(
(6.173034e-05 1.230761e-06 0)
(2.377881e-05 -2.272003e-07 7.009361e-29)
(3.003031e-05 4.155318e-08 0)
(2.433193e-05 2.596848e-08 0)
(2.4709e-05 -1.366098e-08 0)
(2.355056e-05 3.086115e-08 0)
(2.235061e-05 -1.506237e-08 0)
(2.293485e-05 1.141794e-08 -1.847603e-28)
(2.133386e-05 1.517389e-08 0)
(2.117982e-05 -1.063328e-08 0)
(2.137995e-05 1.081199e-08 -1.080011e-27)
(2.085111e-05 -7.330324e-10 1.879306e-27)
(2.005456e-05 1.726152e-08 1.134533e-27)
(2.037076e-05 -9.093997e-09 -1.138765e-27)
(2.144046e-05 7.426152e-11 0)
(2.114657e-05 2.86136e-09 0)
(2.107261e-05 3.27866e-09 0)
(2.099621e-05 9.93629e-09 0)
(2.23438e-05 -2.217955e-08 0)
(2.25934e-05 2.841154e-08 0)
(2.327839e-05 -6.363053e-09 -9.530161e-30)
(2.369395e-05 8.454183e-08 0)
(2.948525e-05 -3.086465e-07 -1.955934e-27)
(1.375643e-05 1.73786e-06 3.807049e-27)
(5.990392e-05 -2.622654e-06 0)
(2.379309e-06 -4.074987e-05 -2.481982e-24)
(-1.97585e-06 8.426928e-06 -8.907313e-27)
(2.155524e-07 -8.503437e-06 2.00136e-25)
(-1.237068e-07 -3.625184e-06 -2.038812e-25)
(-3.685233e-08 -3.677627e-06 -8.166699e-26)
(-2.78102e-08 -2.978653e-06 1.587286e-25)
(-1.590601e-08 -2.509734e-06 -7.705711e-26)
(-1.936628e-08 -1.821372e-06 0)
(-1.956096e-08 -1.772701e-06 -6.631429e-26)
(-9.96285e-10 -1.709677e-06 6.632506e-26)
(-8.408919e-09 -1.280136e-06 0)
(-4.668865e-09 -1.194478e-06 0)
(-4.160449e-09 -1.075153e-06 -2.978026e-26)
(-8.166321e-10 -9.041622e-07 2.978285e-26)
(-2.831271e-09 -7.460826e-07 0)
(-1.275807e-09 -6.985615e-07 2.821415e-26)
(-6.127433e-10 -5.944993e-07 -5.580866e-26)
(-3.275449e-10 -5.212124e-07 6.821558e-27)
(6.651273e-10 -4.259819e-07 6.742248e-27)
(6.176404e-10 -2.919907e-07 -3.518121e-27)
(-3.168656e-10 -2.418704e-07 -1.682529e-26)
(1.410849e-09 -1.666438e-07 8.385746e-27)
(8.734156e-11 -6.321232e-08 -4.984104e-27)
(5.905374e-10 -2.924369e-08 2.49396e-27)
(3.030454e-10 2.522267e-08 8.364822e-28)
(4.619664e-10 6.435549e-08 -4.986094e-27)
(4.298474e-10 1.126423e-07 1.660109e-27)
(4.864022e-10 1.799087e-07 -6.693124e-27)
(9.33757e-11 2.298645e-07 6.680893e-27)
(5.362035e-10 3.115158e-07 1.015576e-26)
(-9.762969e-10 3.614735e-07 -1.348551e-26)
(6.247519e-10 4.263569e-07 -1.376211e-26)
(-2.446188e-10 6.002012e-07 1.383925e-26)
(-1.960228e-09 6.457823e-07 0)
(-1.648047e-10 8.157158e-07 0)
(-3.670973e-09 9.307594e-07 -2.97103e-26)
(-4.759974e-09 9.510422e-07 2.970771e-26)
(-7.18868e-09 1.020103e-06 0)
(-5.462797e-09 1.174934e-06 0)
(-1.020492e-08 1.380938e-06 -6.716718e-26)
(-8.679506e-09 1.664553e-06 6.715626e-26)
(-2.296303e-08 1.815275e-06 0)
(-9.234007e-09 2.46758e-06 7.70089e-26)
(-4.056741e-08 2.785982e-06 -7.698922e-26)
(-1.501831e-08 3.707273e-06 0)
(-1.624349e-07 3.252402e-06 -2.06182e-25)
(2.80375e-07 8.727203e-06 2.096676e-25)
(-2.027452e-06 -8.379007e-06 -4.451227e-25)
(2.356836e-06 3.955288e-05 2.899244e-24)
(6.073914e-05 2.650088e-06 1.628696e-24)
(1.454626e-05 -1.726157e-06 2.180004e-27)
(2.922348e-05 3.276228e-07 2.378085e-26)
(2.364047e-05 -1.055234e-07 -1.997429e-26)
(2.329884e-05 2.281092e-08 -1.13534e-29)
(2.187749e-05 -3.038346e-08 0)
(2.187383e-05 9.976834e-09 0)
(2.150078e-05 -1.432213e-08 0)
(2.107293e-05 1.374274e-08 -4.665893e-28)
(2.014463e-05 -1.656341e-08 2.530007e-27)
(2.099224e-05 -1.005034e-09 -2.063573e-27)
(2.038439e-05 -2.677016e-09 0)
(2.079574e-05 -1.161225e-08 0)
(2.113541e-05 9.842351e-09 4.509892e-28)
(2.117511e-05 -1.007373e-08 0)
(2.133096e-05 4.951523e-09 3.245024e-28)
(2.179268e-05 -1.931163e-08 -3.247392e-28)
(2.272274e-05 -6.271248e-11 -1.432876e-28)
(2.341022e-05 -1.369205e-08 2.349553e-27)
(2.359432e-05 1.433527e-08 2.660884e-27)
(2.335455e-05 -4.19634e-09 -8.268992e-27)
(2.478854e-05 -2.24778e-08 4.739666e-27)
(3.096899e-05 -7.825162e-08 -7.82547e-27)
(2.474977e-05 2.663626e-07 4.040002e-26)
(5.929501e-05 -1.190813e-06 2.206636e-25)
(4.356974e-05 -4.186942e-05 0)
(1.567303e-05 -1.598818e-05 5.911367e-24)
(1.948554e-05 -1.9401e-05 -8.845357e-24)
(1.60878e-05 -1.610325e-05 5.547003e-26)
(1.525379e-05 -1.522488e-05 -7.196762e-24)
(1.417671e-05 -1.416727e-05 6.789163e-24)
(1.415637e-05 -1.415968e-05 6.297525e-24)
(1.354508e-05 -1.352035e-05 6.628805e-24)
(1.246705e-05 -1.245601e-05 -6.213634e-24)
(1.279275e-05 -1.280836e-05 5.82766e-24)
(1.233269e-05 -1.230383e-05 -6.66283e-24)
(1.143595e-05 -1.141938e-05 5.005347e-26)
(1.094125e-05 -1.093883e-05 -4.648296e-26)
(1.124153e-05 -1.125359e-05 4.652886e-26)
(1.123182e-05 -1.122294e-05 0)
(1.058436e-05 -1.057287e-05 0)
(1.029048e-05 -1.028375e-05 -6.050564e-24)
(1.029873e-05 -1.030127e-05 1.092445e-29)
(1.008109e-05 -1.008498e-05 -6.208217e-24)
(1.005233e-05 -1.003394e-05 4.793707e-26)
(1.008211e-05 -1.009882e-05 0)
(9.986452e-06 -9.976425e-06 4.941166e-26)
(1.010703e-05 -1.012166e-05 -4.875008e-26)
(1.018021e-05 -1.018068e-05 0)
(9.819406e-06 -9.815618e-06 0)
(9.795923e-06 -9.802809e-06 -2.304217e-27)
(9.708013e-06 -9.716016e-06 0)
(9.723165e-06 -9.725602e-06 -2.121761e-27)
(1.001207e-05 -1.004377e-05 6.970442e-24)
(1.011673e-05 -1.013201e-05 -2.827069e-26)
(1.012346e-05 -1.015052e-05 7.499839e-24)
(1.023068e-05 -1.028342e-05 -3.249671e-26)
(1.029874e-05 -1.033148e-05 3.249781e-26)
(1.145675e-05 -1.170405e-05 0)
(1.103431e-05 -1.126074e-05 1.08176e-23)
(1.088568e-05 1.109503e-05 1.099417e-23)
(1.143906e-05 1.169923e-05 -1.035867e-26)
(1.023034e-05 1.026005e-05 3.270801e-26)
(1.018219e-05 1.023519e-05 -8.099314e-24)
(1.00758e-05 1.010258e-05 7.515686e-24)
(1.00659e-05 1.00806e-05 -7.466071e-24)
(9.978537e-06 1.000923e-05 -2.824889e-26)
(9.706286e-06 9.708986e-06 2.06653e-27)
(9.694097e-06 9.701549e-06 0)
(9.795972e-06 9.802577e-06 0)
(9.834713e-06 9.830493e-06 0)
(1.021839e-05 1.021865e-05 0)
(1.015387e-05 1.016851e-05 0)
(1.004923e-05 1.00384e-05 0)
(1.018273e-05 1.019934e-05 0)
(1.015965e-05 1.014121e-05 0)
(1.02292e-05 1.023217e-05 6.158989e-24)
(1.044348e-05 1.044804e-05 6.006441e-24)
(1.038454e-05 1.037837e-05 0)
(1.06525e-05 1.064197e-05 6.29207e-24)
(1.126971e-05 1.126127e-05 -6.142816e-24)
(1.126909e-05 1.128121e-05 0)
(1.096952e-05 1.096692e-05 4.885189e-26)
(1.147187e-05 1.145515e-05 6.225038e-24)
(1.236715e-05 1.233841e-05 4.863871e-26)
(1.281989e-05 1.28357e-05 -4.807552e-26)
(1.247785e-05 1.246721e-05 -6.221981e-24)
(1.353524e-05 1.351158e-05 1.00088e-26)
(1.404994e-05 1.405646e-05 -1.263324e-23)
(1.403906e-05 1.403003e-05 1.056337e-25)
(1.502389e-05 1.500208e-05 -7.167575e-24)
(1.566098e-05 1.568293e-05 0)
(2.022495e-05 2.007043e-05 0)
(1.555493e-05 1.596748e-05 2.047452e-26)
(4.261285e-05 4.087822e-05 2.184989e-23)
(3.411459e-05 3.231991e-05 -3.896598e-23)
(3.599218e-05 3.640957e-05 0)
(3.27381e-05 3.289212e-05 0)
(3.247489e-05 3.254648e-05 5.278412e-26)
(3.218825e-05 3.222108e-05 -1.314459e-23)
(3.216122e-05 3.215105e-05 2.595963e-23)
(3.189507e-05 3.200586e-05 1.210955e-23)
(3.106104e-05 3.108503e-05 -2.401294e-23)
(3.100362e-05 3.099703e-05 -1.178144e-23)
(3.132407e-05 3.131262e-05 0)
(3.148395e-05 3.140142e-05 0)
(3.266143e-05 3.259717e-05 -8.673166e-26)
(3.248315e-05 3.254621e-05 1.075173e-23)
(3.215835e-05 3.210132e-05 -8.578689e-26)
(3.257315e-05 3.261273e-05 0)
(3.257381e-05 3.247106e-05 1.068431e-23)
(3.271921e-05 3.268803e-05 -1.060502e-23)
(3.342767e-05 3.343677e-05 0)
(3.330466e-05 3.325817e-05 0)
(3.416637e-05 3.403317e-05 -1.100266e-23)
(3.597935e-05 3.586516e-05 -1.055819e-23)
(3.604924e-05 3.611654e-05 -7.985448e-26)
(3.52636e-05 3.523668e-05 1.637514e-25)
(3.690028e-05 3.665882e-05 -1.091734e-23)
(3.959175e-05 3.93065e-05 8.678999e-26)
(4.099368e-05 4.103505e-05 0)
(4.019043e-05 4.002409e-05 1.058776e-23)
(4.350301e-05 4.320525e-05 2.284768e-23)
(4.509125e-05 4.502946e-05 1.082835e-23)
(4.524708e-05 4.502699e-05 0)
(4.839602e-05 4.807263e-05 1.227674e-23)
(5.120468e-05 5.057578e-05 0)
(6.431911e-05 6.374908e-05 0)
(5.548488e-05 5.322173e-05 -1.591678e-23)
(0.000131798 0.0001231102 -3.785688e-23)
(0.0001343905 -0.0001261211 3.409e-23)
(5.601651e-05 -5.322907e-05 9.897357e-26)
(6.225145e-05 -6.189715e-05 8.009622e-27)
(5.248119e-05 -5.194888e-05 -1.062339e-25)
(4.930875e-05 -4.895445e-05 0)
(4.569092e-05 -4.544818e-05 4.413927e-26)
(4.542477e-05 -4.533637e-05 1.081917e-23)
(4.354688e-05 -4.323033e-05 0)
(4.016185e-05 -3.998887e-05 -1.066328e-23)
(4.091153e-05 -4.094892e-05 -1.643225e-25)
(3.948509e-05 -3.919817e-05 -3.106186e-27)
(3.678763e-05 -3.654738e-05 8.588859e-26)
(3.517254e-05 -3.514708e-05 0)
(3.596026e-05 -3.602584e-05 0)
(3.585911e-05 -3.573784e-05 0)
(3.395421e-05 -3.381033e-05 8.422299e-26)
(3.30092e-05 -3.295106e-05 1.041377e-23)
(3.297799e-05 -3.297443e-05 8.129578e-26)
(3.225182e-05 -3.22303e-05 1.044267e-23)
(3.222925e-05 -3.213329e-05 0)
(3.225625e-05 -3.230393e-05 -8.368079e-26)
(3.195716e-05 -3.191018e-05 1.12982e-23)
(3.233356e-05 -3.240001e-05 -1.687555e-25)
(3.254096e-05 -3.248258e-05 1.742652e-25)
(3.143507e-05 -3.135923e-05 -8.79586e-26)
(3.132422e-05 -3.131767e-05 1.137401e-23)
(3.104721e-05 -3.10442e-05 0)
(3.111611e-05 -3.114232e-05 1.194684e-23)
(3.200254e-05 -3.212093e-05 -9.316757e-26)
(3.232185e-05 -3.231313e-05 1.284805e-23)
(3.233984e-05 -3.23727e-05 -1.291737e-23)
(3.263184e-05 -3.270593e-05 1.386621e-23)
(3.295069e-05 -3.310462e-05 1.496535e-23)
(3.607224e-05 -3.64838e-05 -5.753008e-26)
(3.455879e-05 -3.283696e-05 -5.766176e-23)
(0.000185432 1.026447e-05 -8.139816e-24)
(5.916082e-05 6.822071e-08 -3.195e-27)
(9.148486e-05 1.231585e-07 -8.696706e-26)
(7.718849e-05 2.464528e-07 6.659935e-26)
(7.504675e-05 2.59526e-07 -1.342048e-28)
(7.047504e-05 5.154942e-08 0)
(7.022087e-05 8.277723e-08 -4.318916e-27)
(6.906715e-05 2.379582e-08 2.888922e-27)
(6.771885e-05 1.558666e-07 -3.254094e-28)
(6.477757e-05 -1.616374e-08 1.609589e-27)
(6.720971e-05 -2.534107e-08 0)
(6.543428e-05 -7.334755e-09 -4.929519e-27)
(6.659988e-05 -8.194381e-08 8.465515e-27)
(6.769653e-05 1.949503e-08 -3.43266e-27)
(6.795089e-05 -4.060933e-08 2.664919e-27)
(6.848145e-05 -1.54364e-08 0)
(6.985429e-05 -1.593555e-07 7.810563e-28)
(7.278353e-05 -1.085773e-07 6.175135e-28)
(7.50194e-05 -1.200769e-07 -6.599579e-27)
(7.572732e-05 2.950149e-08 6.216992e-27)
(7.521203e-05 -1.542916e-07 1.61928e-26)
(8.026108e-05 -6.107548e-07 -1.613321e-26)
(9.830793e-05 -2.234129e-07 0)
(8.426158e-05 -1.481537e-06 1.055577e-25)
(0.0001809848 -5.642732e-06 -5.369083e-25)
(1.188695e-05 -0.0001250194 4.392733e-24)
(3.633269e-08 1.199529e-05 -4.423903e-25)
(-2.55332e-07 -2.531001e-05 3.304879e-25)
(2.267991e-07 -1.327203e-05 0)
(7.369776e-08 -1.235879e-05 -1.138297e-27)
(8.550141e-08 -1.004247e-05 0)
(9.789504e-08 -8.449711e-06 -2.524096e-25)
(6.858906e-08 -6.252802e-06 2.525503e-25)
(-1.170481e-08 -5.907522e-06 -8.948272e-28)
(5.478846e-08 -5.645878e-06 1.112296e-25)
(3.608219e-08 -4.306904e-06 -1.108455e-25)
(2.025027e-08 -3.971556e-06 0)
(2.038678e-08 -3.56566e-06 0)
(3.132686e-08 -3.002482e-06 0)
(1.5495e-08 -2.49399e-06 0)
(1.27393e-08 -2.30759e-06 -4.854368e-26)
(1.399738e-08 -1.965847e-06 2.943951e-28)
(1.394003e-08 -1.720556e-06 1.174075e-26)
(2.003475e-08 -1.403682e-06 3.499289e-26)
(1.715388e-08 -9.814341e-07 -1.755101e-26)
(8.743506e-09 -8.031463e-07 1.728614e-26)
(1.792285e-08 -5.581524e-07 -3.746329e-26)
(1.024703e-08 -2.265578e-07 1.435956e-26)
(8.65688e-09 -1.002602e-07 -1.426759e-27)
(7.631694e-09 7.978713e-08 1.182672e-29)
(7.964411e-09 2.146127e-07 1.42091e-27)
(9.817587e-09 3.757928e-07 1.43079e-26)
(1.06244e-08 5.97899e-07 5.744898e-27)
(1.066871e-08 7.694148e-07 0)
(1.290416e-08 1.032386e-06 1.741785e-26)
(7.868712e-09 1.208359e-06 0)
(2.235793e-08 1.427621e-06 0)
(1.69616e-08 1.972975e-06 -4.808013e-26)
(1.596339e-08 2.154334e-06 9.779303e-26)
(2.776774e-08 2.704315e-06 5.103956e-26)
(7.761157e-09 3.075737e-06 -1.003336e-25)
(8.419111e-09 3.17492e-06 1.053071e-25)
(1.515543e-08 3.434294e-06 -1.048731e-25)
(3.393843e-08 3.945051e-06 -4.302561e-28)
(3.413795e-08 4.647458e-06 8.823469e-28)
(4.420703e-08 5.571075e-06 0)
(4.746912e-08 6.193189e-06 2.527746e-25)
(1.079602e-07 8.289436e-06 1.131751e-26)
(5.660346e-08 9.47253e-06 -2.658523e-25)
(1.152563e-07 1.23613e-05 0)
(1.488355e-07 1.222389e-05 0)
(-7.12534e-08 2.590531e-05 -6.336575e-27)
(-2.513464e-07 -1.205174e-05 1.354329e-26)
(1.193921e-05 0.0001214225 3.999968e-24)
(0.000188317 5.680019e-06 1.115255e-25)
(8.160836e-05 1.85507e-06 -1.147941e-25)
(9.598416e-05 1.154928e-07 4.662367e-26)
(7.902153e-05 4.658475e-07 -7.14099e-27)
(7.92441e-05 4.649644e-08 -2.098706e-26)
(7.565679e-05 2.841147e-07 1.236305e-26)
(7.183925e-05 7.759175e-09 -7.759965e-27)
(7.332754e-05 1.130748e-07 1.165107e-27)
(6.852566e-05 1.670588e-07 1.47336e-28)
(6.783479e-05 -4.159977e-08 6.790897e-28)
(6.845795e-05 5.45418e-08 -3.693998e-27)
(6.682552e-05 6.626127e-08 5.029547e-27)
(6.445514e-05 6.601957e-08 -3.797885e-27)
(6.550215e-05 -1.143301e-07 -1.354656e-27)
(6.869206e-05 -4.081061e-08 1.363842e-27)
(6.782085e-05 2.203824e-08 -7.924902e-28)
(6.75341e-05 1.261898e-08 7.988374e-28)
(6.75566e-05 -8.963409e-08 4.342264e-27)
(7.173749e-05 -1.849943e-07 -4.339742e-27)
(7.267459e-05 -1.081762e-08 0)
(7.499357e-05 -1.818399e-07 1.635648e-29)
(7.731627e-05 -3.138884e-07 0)
(9.221576e-05 4.206572e-09 1.186163e-26)
(5.662108e-05 -6.331704e-09 -3.936513e-26)
(0.000182968 -1.030188e-05 0)
(0.0003307216 1.606782e-05 0)
(0.0001577239 6.914508e-06 2.232029e-27)
(0.0001753367 6.621446e-07 -2.982725e-26)
(0.0001462053 1.521363e-06 0)
(0.0001450926 2.972299e-07 -1.565061e-26)
(0.0001387115 9.033254e-07 6.510311e-27)
(0.0001317434 1.18962e-07 2.468707e-27)
(0.0001338431 3.835266e-07 4.936414e-28)
(0.0001255835 5.467094e-07 -1.74864e-28)
(0.0001239783 -9.45176e-08 -8.059664e-28)
(0.0001251221 1.530113e-07 -4.347083e-27)
(0.0001222425 2.490008e-07 1.094396e-27)
(0.0001182194 1.588318e-07 -6.945054e-29)
(0.0001202013 -3.348351e-07 4.587862e-27)
(0.0001256564 -1.553745e-07 3.626452e-27)
(0.0001241785 8.104991e-08 -3.632407e-27)
(0.000123575 2.267125e-08 0)
(0.0001240821 -3.534085e-07 1.284084e-29)
(0.000131554 -5.829289e-07 0)
(0.0001335201 -1.529924e-07 2.140663e-26)
(0.0001380708 -6.569135e-07 -2.13783e-26)
(0.0001437411 -1.160408e-06 0)
(0.0001663061 6.296523e-08 -1.402416e-26)
(0.0001220805 -4.018807e-06 7.048431e-25)
(0.0003198053 -2.830013e-05 -7.21007e-25)
(3.448626e-05 -0.0002202776 1.883554e-23)
(4.630335e-06 -1.098698e-06 8.871354e-25)
(-5.970981e-07 -4.48063e-05 0)
(8.516776e-07 -2.700425e-05 -7.184074e-25)
(3.754741e-07 -2.378464e-05 7.207e-25)
(3.526684e-07 -1.929746e-05 0)
(3.673956e-07 -1.621259e-05 -4.801755e-27)
(2.69756e-07 -1.219266e-05 -4.570781e-27)
(1.523173e-08 -1.123882e-05 1.060683e-27)
(1.831537e-07 -1.064458e-05 -2.106845e-27)
(1.432784e-07 -8.243593e-06 -5.040789e-28)
(8.054599e-08 -7.530694e-06 0)
(8.234805e-08 -6.74439e-06 0)
(1.103833e-07 -5.682689e-06 0)
(6.234484e-08 -4.747468e-06 1.168008e-25)
(5.002131e-08 -4.348024e-06 -1.608637e-27)
(5.080278e-08 -3.705609e-06 -6.910042e-28)
(5.219888e-08 -3.239342e-06 -2.787544e-26)
(7.070054e-08 -2.637727e-06 -5.527878e-26)
(6.028945e-08 -1.876001e-06 1.103544e-25)
(3.511575e-08 -1.520288e-06 -5.503567e-26)
(6.060595e-08 -1.065079e-06 2.724917e-26)
(3.913055e-08 -4.563678e-07 -2.728314e-26)
(3.142e-08 -1.954603e-07 3.396534e-27)
(2.848617e-08 1.443056e-07 3.363996e-27)
(2.897335e-08 4.074453e-07 -2.036575e-26)
(3.567506e-08 7.136533e-07 -1.355992e-29)
(3.840949e-08 1.132564e-06 -6.81726e-27)
(3.933137e-08 1.466074e-06 0)
(4.570722e-08 1.950728e-06 -1.377917e-26)
(3.310397e-08 2.300419e-06 -2.761565e-26)
(7.726706e-08 2.719967e-06 -5.595878e-26)
(6.201709e-08 3.70153e-06 3.408086e-25)
(6.376308e-08 4.092951e-06 2.031659e-27)
(9.571193e-08 5.112217e-06 -1.16989e-25)
(3.690463e-08 5.799292e-06 -1.870596e-27)
(3.930604e-08 6.041152e-06 -2.401086e-27)
(6.754385e-08 6.582784e-06 0)
(1.267025e-07 7.545052e-06 2.672239e-25)
(1.404661e-07 8.908409e-06 -2.655812e-25)
(1.706381e-07 1.063666e-05 2.845092e-25)
(2.179842e-07 1.20136e-05 -2.843151e-25)
(3.796323e-07 1.588483e-05 1.215119e-27)
(2.866541e-07 1.832498e-05 -3.73208e-27)
(4.603765e-07 2.364696e-05 0)
(6.913142e-07 2.531576e-05 0)
(-1.793961e-07 4.566597e-05 -7.958996e-25)
(3.852383e-06 7.162322e-07 2.445288e-24)
(3.464389e-05 0.0002141989 -1.180665e-23)
(0.0003238868 2.811438e-05 6.46202e-25)
(0.0001267342 4.21405e-06 0)
(0.0001651109 3.142024e-07 9.215604e-26)
(0.0001435994 9.927505e-07 -3.689215e-26)
(0.0001381675 8.890122e-07 -3.69154e-26)
(0.0001296324 2.997261e-07 -1.512047e-26)
(0.0001287496 2.584293e-07 1.530502e-26)
(0.0001266845 1.347948e-07 1.439011e-27)
(0.0001242518 4.905846e-07 6.141793e-28)
(0.0001188838 2.317494e-09 6.34319e-27)
(0.0001228656 -7.251258e-08 -8.278464e-27)
(0.0001198763 -4.080827e-08 1.191686e-26)
(0.0001217502 -2.430713e-07 -9.972593e-27)
(0.0001237573 1.525832e-08 0)
(0.0001244419 -1.141228e-07 -4.074655e-27)
(0.0001254615 -8.895958e-08 4.082416e-27)
(0.0001277724 -4.992788e-07 7.800762e-29)
(0.0001330566 -4.058857e-07 -5.861407e-27)
(0.0001372198 -4.036547e-07 2.85985e-27)
(0.0001387269 2.315175e-08 1.158672e-26)
(0.0001381935 -5.980672e-07 -1.413737e-26)
(0.0001486209 -2.053768e-06 0)
(0.0001789435 -8.46597e-07 6.89331e-26)
(0.0001618678 -5.813868e-06 0)
(0.0003181914 -1.603516e-05 -1.792909e-24)
(0.000240646 -0.0002167881 -7.813647e-23)
(0.0001111348 -0.0001008227 -4.119106e-25)
(0.000114061 -0.0001126016 0)
(9.755613e-05 -9.553728e-05 0)
(9.089622e-05 -8.971868e-05 -1.45679e-23)
(8.404171e-05 -8.314599e-05 -2.716374e-23)
(8.31963e-05 -8.283114e-05 -1.33562e-23)
(7.991566e-05 -7.886277e-05 2.085906e-25)
(7.381108e-05 -7.319685e-05 1.275285e-23)
(7.467649e-05 -7.471445e-05 0)
(7.217656e-05 -7.123662e-05 0)
(6.751911e-05 -6.671216e-05 0)
(6.449892e-05 -6.440818e-05 0)
(6.565594e-05 -6.580098e-05 1.912932e-25)
(6.534279e-05 -6.494227e-05 1.246772e-23)
(6.215215e-05 -6.168975e-05 0)
(6.042684e-05 -6.022209e-05 0)
(6.025918e-05 -6.023017e-05 0)
(5.887508e-05 -5.879239e-05 0)
(5.899586e-05 -5.869504e-05 -1.930042e-25)
(5.88739e-05 -5.898864e-05 3.947551e-25)
(5.83694e-05 -5.82423e-05 -1.340073e-23)
(5.902484e-05 -5.920262e-05 -1.245567e-23)
(5.936922e-05 -5.917942e-05 0)
(5.744084e-05 -5.71767e-05 1.323655e-23)
(5.715496e-05 -5.71265e-05 -2.130558e-25)
(5.666249e-05 -5.664812e-05 -1.396233e-23)
(5.682807e-05 -5.693028e-05 1.069115e-25)
(5.834831e-05 -5.869448e-05 1.438127e-23)
(5.892066e-05 -5.888591e-05 -3.047687e-23)
(5.892132e-05 -5.899533e-05 1.235127e-25)
(5.930927e-05 -5.952782e-05 -1.642363e-23)
(6.003287e-05 -6.04888e-05 -1.169151e-25)
(6.423381e-05 -6.487957e-05 6.821163e-26)
(6.072177e-05 -5.439654e-05 4.662448e-23)
(5.998319e-05 5.345256e-05 2.364781e-23)
(6.403652e-05 6.467156e-05 1.810855e-23)
(5.965707e-05 6.011537e-05 -1.759921e-23)
(5.901975e-05 5.922963e-05 -2.599592e-25)
(5.864671e-05 5.872014e-05 1.550755e-23)
(5.863176e-05 5.859239e-05 -1.521392e-23)
(5.815295e-05 5.847541e-05 -1.447438e-23)
(5.672578e-05 5.681837e-05 1.417561e-23)
(5.658513e-05 5.655916e-05 1.408143e-23)
(5.715438e-05 5.710925e-05 1.364676e-23)
(5.753032e-05 5.724334e-05 -1.336923e-23)
(5.958658e-05 5.937632e-05 2.059409e-25)
(5.929739e-05 5.946239e-05 -2.551942e-23)
(5.87376e-05 5.857757e-05 2.035443e-25)
(5.944369e-05 5.952996e-05 -1.240136e-23)
(5.962719e-05 5.930067e-05 -2.320253e-25)
(5.971793e-05 5.960582e-05 2.999882e-27)
(6.105447e-05 6.106444e-05 1.935305e-25)
(6.095487e-05 6.07908e-05 0)
(6.252733e-05 6.210086e-05 -1.271525e-23)
(6.555925e-05 6.518294e-05 1.224377e-23)
(6.581905e-05 6.597043e-05 1.906178e-25)
(6.466588e-05 6.4571e-05 -1.988761e-25)
(6.772083e-05 6.691044e-05 2.56589e-23)
(7.236496e-05 7.14307e-05 -1.979283e-25)
(7.481811e-05 7.487007e-05 -1.164257e-23)
(7.385223e-05 7.32612e-05 -1.28718e-23)
(7.981448e-05 7.882503e-05 -1.327643e-23)
(8.259579e-05 8.231716e-05 2.073604e-25)
(8.321515e-05 8.241048e-05 -1.396115e-23)
(8.92453e-05 8.810991e-05 1.474768e-23)
(9.558179e-05 9.326898e-05 -1.465891e-23)
(0.0001174067 0.0001154194 -2.709723e-25)
(0.0001098719 0.000101 1.917846e-23)
(0.0002366563 0.000211563 -4.016134e-23)
(8.886144e-05 7.316963e-05 2.829895e-23)
(9.574674e-05 9.624385e-05 -2.143449e-23)
(9.162043e-05 9.253772e-05 2.09546e-23)
(9.056941e-05 9.107142e-05 1.957711e-23)
(9.026427e-05 9.041782e-05 -1.809606e-23)
(9.033722e-05 9.024216e-05 0)
(8.960893e-05 9.032609e-05 0)
(8.755707e-05 8.78026e-05 -1.67532e-23)
(8.729596e-05 8.724192e-05 -2.575607e-25)
(8.814095e-05 8.803339e-05 -1.585046e-23)
(8.887023e-05 8.817927e-05 3.151245e-23)
(9.191423e-05 9.14121e-05 -2.432885e-25)
(9.15063e-05 9.18439e-05 2.158927e-25)
(9.069346e-05 9.034409e-05 0)
(9.169502e-05 9.18416e-05 -2.501329e-25)
(9.231064e-05 9.154453e-05 -2.954002e-23)
(9.213809e-05 9.187034e-05 0)
(9.428132e-05 9.426983e-05 1.451612e-23)
(9.433206e-05 9.392385e-05 2.320807e-25)
(9.675626e-05 9.57858e-05 1.502447e-23)
(0.0001009679 0.0001000764 0)
(0.0001016252 0.0001018584 -1.349161e-23)
(0.0001002841 0.0001000369 -2.234781e-25)
(0.0001051158 0.0001032062 -1.500829e-23)
(0.0001118583 0.0001096589 -2.330956e-25)
(0.0001154835 0.00011547 2.477365e-25)
(0.0001147997 0.0001133233 2.387602e-25)
(0.0001239157 0.0001215682 -1.600399e-23)
(0.0001280048 0.0001272331 0)
(0.0001295268 0.0001274809 8.955962e-26)
(0.0001393517 0.0001365384 -1.717548e-23)
(0.0001512236 0.0001454683 -1.793802e-25)
(0.0001818154 0.0001764545 -2.218339e-23)
(0.0001830484 0.0001612827 -1.087024e-23)
(0.0003593567 0.0003051055 4.710011e-23)
(0.000364446 -0.0003129055 4.545495e-23)
(0.0001854307 -0.000160641 -4.59712e-25)
(0.0001773943 -0.0001730498 2.95984e-25)
(0.0001533324 -0.0001482601 -2.649396e-26)
(0.0001416129 -0.0001387696 -1.784461e-25)
(0.0001308297 -0.0001285631 3.405888e-25)
(0.0001289177 -0.0001279423 -1.546379e-23)
(0.0001241057 -0.0001216089 -2.423767e-25)
(0.0001147558 -0.0001132226 4.669539e-25)
(0.0001152797 -0.0001152318 -4.583996e-25)
(0.0001115786 -0.0001093654 -7.873183e-27)
(0.0001048115 -0.0001029089 1.523053e-23)
(0.0001000259 -9.978706e-05 2.241509e-25)
(0.0001013735 -0.0001015905 -4.499974e-25)
(0.0001006409 -9.969131e-05 -1.472868e-23)
(9.620004e-05 -9.51437e-05 1.505319e-23)
(9.353896e-05 -9.303267e-05 1.486114e-23)
(9.309796e-05 -9.299805e-05 -2.280879e-25)
(9.085346e-05 -9.065172e-05 2.300286e-25)
(9.133241e-05 -9.06313e-05 1.457709e-23)
(9.083023e-05 -9.104647e-05 -3.394014e-27)
(9.01242e-05 -8.985171e-05 -2.469553e-27)
(9.108682e-05 -9.145658e-05 1.493707e-23)
(9.158239e-05 -9.11302e-05 -2.472362e-25)
(8.873163e-05 -8.809551e-05 -1.561472e-23)
(8.814236e-05 -8.807442e-05 2.457301e-25)
(8.741166e-05 -8.738519e-05 1.620533e-23)
(8.771722e-05 -8.798852e-05 -4.529637e-27)
(8.99084e-05 -9.06798e-05 -1.657008e-23)
(9.077606e-05 -9.069147e-05 1.825823e-23)
(9.068421e-05 -9.084083e-05 -2.796159e-25)
(9.102011e-05 -9.154255e-05 -1.945113e-23)
(9.218518e-05 -9.310085e-05 -2.064612e-23)
(9.612216e-05 -9.667381e-05 -2.164303e-23)
(8.98801e-05 -7.46247e-05 2.776566e-23)
(0.0004755946 5.881989e-05 6.882675e-24)
(0.0002225464 1.339062e-05 1.176263e-25)
(0.0002537361 1.551289e-06 -1.730148e-25)
(0.0002260859 2.424497e-06 1.741588e-25)
(0.0002155326 2.221919e-06 -8.415978e-28)
(0.0002018102 8.850913e-07 0)
(0.0001997511 6.164136e-07 0)
(0.0001966081 3.790787e-07 1.266555e-28)
(0.0001929124 1.128969e-06 -3.886544e-28)
(0.0001845531 8.818241e-08 -9.704919e-27)
(0.0001899702 -1.470387e-07 9.385509e-27)
(0.0001857296 -1.187198e-07 -7.254898e-27)
(0.0001882127 -5.380935e-07 7.07764e-27)
(0.000191305 -2.978155e-08 -1.141954e-26)
(0.000192745 -2.592105e-07 0)
(0.0001944009 -2.530138e-07 -2.181757e-27)
(0.0001976013 -1.146126e-06 2.133802e-27)
(0.0002056795 -1.018884e-06 -6.956526e-27)
(0.0002122779 -9.895831e-07 -7.50392e-27)
(0.0002149754 -6.140541e-08 3.065738e-26)
(0.0002147876 -1.603984e-06 -6.023713e-26)
(0.0002329123 -4.798642e-06 1.066856e-25)
(0.0002757076 -2.557976e-06 -1.445662e-25)
(0.0002619788 -1.420908e-05 4.188071e-27)
(0.0004716462 -3.43853e-05 2.12229e-24)
(7.423292e-05 -0.0003264085 -2.088167e-23)
(1.51329e-05 -3.602869e-05 -2.735895e-24)
(-9.58358e-08 -6.979299e-05 -2.632953e-25)
(2.025934e-06 -4.638267e-05 8.511677e-25)
(1.083744e-06 -3.913798e-05 -1.64088e-24)
(9.218286e-07 -3.157431e-05 7.890558e-25)
(9.161178e-07 -2.647068e-05 7.016208e-25)
(6.893503e-07 -2.021968e-05 -7.026901e-25)
(1.088436e-07 -1.820257e-05 0)
(4.351491e-07 -1.706467e-05 2.484933e-27)
(3.633391e-07 -1.339986e-05 0)
(2.093825e-07 -1.213769e-05 0)
(2.127451e-07 -1.084184e-05 2.867962e-25)
(2.700095e-07 -9.13461e-06 -2.869334e-25)
(1.618674e-07 -7.675993e-06 0)
(1.304516e-07 -6.958998e-06 -1.360389e-25)
(1.263294e-07 -5.929989e-06 1.760413e-27)
(1.324567e-07 -5.180113e-06 1.326182e-25)
(1.737004e-07 -4.207794e-06 -6.550842e-26)
(1.484486e-07 -3.044146e-06 0)
(9.238429e-08 -2.444985e-06 6.456981e-26)
(1.464118e-07 -1.728207e-06 -6.46855e-26)
(1.007779e-07 -7.787091e-07 -3.203844e-26)
(8.019462e-08 -3.243135e-07 2.404694e-26)
(7.301667e-08 2.208486e-07 -8.25446e-27)
(7.36131e-08 6.566657e-07 -2.807261e-26)
(8.990827e-08 1.15029e-06 4.007032e-26)
(9.678329e-08 1.822787e-06 0)
(9.918513e-08 2.372677e-06 -9.720107e-26)
(1.137444e-07 3.131296e-06 6.475476e-26)
(8.870442e-08 3.720546e-06 3.26197e-26)
(1.874531e-07 4.398959e-06 1.989195e-25)
(1.55277e-07 5.898426e-06 -4.008363e-25)
(1.661792e-07 6.603538e-06 -1.381546e-25)
(2.311425e-07 8.211182e-06 1.424433e-25)
(1.012373e-07 9.29232e-06 -2.209294e-27)
(1.089945e-07 9.771804e-06 -2.26993e-27)
(1.799228e-07 1.072675e-05 -3.031354e-25)
(3.173982e-07 1.22675e-05 -2.294703e-27)
(3.629561e-07 1.452258e-05 3.122424e-25)
(4.384022e-07 1.728542e-05 0)
(5.853331e-07 1.982247e-05 0)
(9.282908e-07 2.592218e-05 0)
(7.912174e-07 3.016849e-05 5.855893e-27)
(1.239418e-06 3.871082e-05 0)
(1.740686e-06 4.411774e-05 -6.781415e-27)
(6.685577e-07 7.07095e-05 9.772214e-25)
(1.350495e-05 3.511214e-05 -2.708956e-24)
(7.460825e-05 0.0003179179 2.13227e-23)
(0.0004894329 3.433206e-05 0)
(0.0002566444 1.660429e-05 -2.6307e-27)
(0.0002707104 2.292585e-06 3.245066e-26)
(0.0002284699 3.546618e-06 0)
(0.00022475 9.204769e-07 -1.47219e-26)
(0.0002151354 2.103792e-06 1.087828e-26)
(0.0002043236 4.174315e-07 5.753661e-27)
(0.0002065899 9.301115e-07 -7.502457e-27)
(0.0001946253 1.287091e-06 0)
(0.0001915476 -1.629298e-07 0)
(0.0001933984 3.311684e-07 -1.019056e-26)
(0.0001891118 6.07429e-07 1.015858e-26)
(0.0001834078 2.943482e-07 0)
(0.0001865908 -7.244728e-07 -8.247973e-28)
(0.0001944258 -3.78882e-07 0)
(0.0001923152 2.036633e-07 -1.900849e-27)
(0.0001912336 1.293852e-08 1.899388e-27)
(0.0001928143 -9.138567e-07 -5.655736e-29)
(0.0002041684 -1.359913e-06 1.268442e-26)
(0.0002076443 -5.184633e-07 -6.276122e-26)
(0.0002153371 -1.696023e-06 5.000121e-26)
(0.0002261209 -2.758139e-06 0)
(0.0002554408 -6.986866e-07 5.807005e-26)
(0.0002153269 -1.295391e-05 -7.988483e-25)
(0.0004699876 -5.930638e-05 1.287144e-23)
(0.0006647584 6.253829e-05 -1.780824e-24)
(0.000383395 3.260927e-05 1.013725e-25)
(0.000385782 6.103195e-06 -1.254274e-25)
(0.0003292732 6.97422e-06 -1.118286e-25)
(0.0003213246 2.099451e-06 5.140951e-26)
(0.0003079394 4.254049e-06 0)
(0.0002923434 1.04168e-06 0)
(0.0002941581 1.849858e-06 -3.832242e-27)
(0.0002782433 2.63793e-06 4.726488e-27)
(0.0002728555 -2.028953e-07 -1.630825e-26)
(0.000275785 6.064804e-07 1.193374e-26)
(0.0002699015 1.132524e-06 0)
(0.0002625665 5.02946e-07 -2.40416e-26)
(0.0002673026 -1.40238e-06 1.027743e-26)
(0.0002775926 -6.798364e-07 -9.379827e-27)
(0.0002748183 4.448538e-07 0)
(0.0002729935 -7.162765e-08 0)
(0.0002765434 -2.006189e-06 4.850569e-29)
(0.0002925933 -2.797885e-06 2.661443e-27)
(0.0002982435 -1.26059e-06 -5.769884e-26)
(0.0003104695 -3.801666e-06 -5.007902e-26)
(0.0003285269 -5.432091e-06 -2.582746e-25)
(0.0003647574 -3.761921e-06 4.220669e-26)
(0.0003414702 -2.994594e-05 1.116505e-24)
(0.0006324991 -0.0001061862 -3.153096e-24)
(0.0001355566 -0.0004424739 -2.247323e-23)
(3.577238e-05 -9.815871e-05 0)
(3.162431e-06 -0.0001048651 9.143955e-25)
(4.20966e-06 -7.379103e-05 2.001521e-24)
(2.588716e-06 -6.02137e-05 -2.00869e-24)
(2.039654e-06 -4.8087e-05 8.41408e-25)
(1.914594e-06 -4.018685e-05 -8.841606e-25)
(1.507499e-06 -3.11612e-05 7.80907e-25)
(3.520247e-07 -2.742576e-05 -7.584087e-25)
(8.992323e-07 -2.541728e-05 0)
(7.706685e-07 -2.020312e-05 0)
(4.600405e-07 -1.816496e-05 0)
(4.571864e-07 -1.618191e-05 -1.058069e-26)
(5.59328e-07 -1.361974e-05 0)
(3.494755e-07 -1.151413e-05 -1.018811e-26)
(2.852272e-07 -1.033317e-05 -3.188326e-25)
(2.6528e-07 -8.797713e-06 9.437724e-25)
(2.806848e-07 -7.685707e-06 0)
(3.584933e-07 -6.22265e-06 -7.624154e-26)
(3.08215e-07 -4.579455e-06 2.300457e-25)
(1.983307e-07 -3.648731e-06 0)
(3.004088e-07 -2.605251e-06 -3.790491e-26)
(2.158812e-07 -1.229625e-06 0)
(1.726347e-07 -5.000323e-07 2.817016e-26)
(1.564009e-07 3.122591e-07 -1.848597e-26)
(1.569566e-07 9.811427e-07 9.396081e-27)
(1.90693e-07 1.718112e-06 -5.661544e-26)
(2.056446e-07 2.722744e-06 7.533056e-26)
(2.105086e-07 3.562208e-06 1.901482e-25)
(2.377605e-07 4.66369e-06 -3.049959e-25)
(1.942548e-07 5.583817e-06 -1.713024e-27)
(3.83997e-07 6.59465e-06 1.53826e-25)
(3.260941e-07 8.719548e-06 -3.153652e-25)
(3.621312e-07 9.881423e-06 3.183097e-25)
(4.773169e-07 1.224197e-05 3.244258e-25)
(2.231629e-07 1.382224e-05 -3.241736e-25)
(2.517658e-07 1.467878e-05 5.316803e-27)
(3.979145e-07 1.623349e-05 0)
(6.757501e-07 1.852209e-05 7.213112e-25)