/*--------------------------------*- C++ -*----------------------------------*\
| =========                 |                                                 |
| \\      /  F ield         | OpenFOAM: The Open Source CFD Toolbox           |
|  \\    /   O peration     | Version:  2406                                  |
|   \\  /    A nd           | Website:  www.openfoam.com                      |
|    \\/     M anipulation  |                                                 |
\*---------------------------------------------------------------------------*/
FoamFile
{
    version     2.0;
    format      ascii;
    arch        "LSB;label=32;scalar=64";
    class       surfaceScalarField;
    location    "0.56";
    object      phi;
}
// * * * * * * * * * * * * * * * * * * * * * * * * * * * * * * * * * * * * * //

dimensions      [0 3 -1 0 0 0 0];

oriented        oriented;

internalField   nonuniform List<scalar> 
6749
(
5.233338e-09
4.0741e-09
-9.307438e-09
-1.807026e-09
-1.133598e-09
2.940624e-09
-6.332483e-11
-1.694695e-09
1.75802e-09
1.72024e-09
-5.775381e-10
-1.142702e-09
1.31494e-09
-1.38498e-09
7.004051e-11
-1.014212e-09
1.822101e-09
-8.078894e-10
1.239211e-09
2.407582e-10
-1.479969e-09
2.301751e-10
1.127891e-09
-1.358066e-09
-9.202089e-10
1.357854e-09
-4.376455e-10
-1.736875e-09
4.754984e-10
1.261377e-09
1.749023e-09
-1.029799e-09
-7.192244e-10
-7.801915e-10
-1.509375e-09
2.289566e-09
-2.233498e-09
-2.983702e-10
2.531868e-09
3.702098e-09
-1.245508e-09
-2.456589e-09
9.962964e-10
4.169017e-10
-1.413198e-09
-1.906714e-09
5.032476e-11
1.856389e-09
1.767304e-09
-4.068647e-11
-1.726617e-09
3.539793e-10
-1.365737e-09
1.011758e-09
-6.399684e-10
-5.63365e-10
1.203333e-09
1.827857e-09
1.133991e-10
-1.941256e-09
-7.957058e-10
1.578329e-09
-7.826232e-10
9.139059e-10
-1.800313e-09
8.864071e-10
1.540147e-09
6.041917e-10
-2.144339e-09
-1.183882e-09
2.407836e-10
9.430981e-10
9.373757e-10
9.000086e-10
-1.837384e-09
-5.770758e-10
-1.113703e-09
1.690779e-09
1.065841e-09
3.609153e-10
-1.426757e-09
3.540083e-10
9.287281e-10
-1.282736e-09
2.849782e-10
-1.373522e-09
1.088544e-09
1.301047e-09
1.652002e-10
-1.466248e-09
-3.311126e-09
1.904747e-09
1.406379e-09
1.463161e-09
2.238937e-09
-1.491519e-09
2.70057e-09
-1.209051e-09
-1.683703e-09
1.036953e-09
6.467501e-10
-8.097275e-10
-1.452318e-09
2.262045e-09
4.858473e-09
-1.023163e-08
5.37316e-09
7.214639e-11
-1.477028e-09
1.404882e-09
-1.734752e-09
1.911495e-09
-1.767429e-10
-9.660014e-10
2.881396e-09
-1.915394e-09
9.822027e-10
7.114757e-10
-1.693678e-09
6.680506e-09
-1.822032e-09
7.398415e-10
8.287114e-10
-1.568553e-09
6.552593e-10
-3.019252e-09
2.363993e-09
4.636154e-09
2.445111e-09
-7.081264e-09
1.371597e-09
-2.655171e-09
1.283574e-09
-1.014914e-09
-7.219612e-10
4.285886e-10
-1.93789e-09
1.509301e-09
-5.3067e-11
-1.103658e-09
1.156725e-09
-1.707278e-09
1.715087e-09
-7.809111e-12
4.906634e-10
-1.832321e-09
1.341657e-09
1.59031e-09
-5.650214e-10
-1.025288e-09
1.762413e-09
3.388841e-09
-5.151253e-09
-1.415431e-09
-4.166666e-10
-1.191643e-09
-8.126764e-10
2.00432e-09
-4.626101e-10
1.858011e-09
-1.395401e-09
7.47886e-10
8.253137e-10
-1.5732e-09
6.405294e-09
-5.02933e-09
-1.375964e-09
1.952472e-09
2.226082e-10
-2.17508e-09
-9.440372e-10
1.203882e-09
-2.598452e-10
-2.742897e-10
1.805125e-09
-1.530835e-09
6.671977e-10
-1.700892e-09
1.033695e-09
-5.71161e-10
-1.072619e-09
1.64378e-09
-2.532834e-10
-1.467857e-09
1.72114e-09
-8.093832e-10
5.967143e-10
2.126688e-10
-9.024437e-10
1.333336e-09
-4.308928e-10
-6.315802e-10
-1.085777e-09
1.717357e-09
1.279927e-09
2.02623e-10
-1.48255e-09
-5.36636e-11
-2.068038e-09
2.121702e-09
-1.860804e-09
2.442159e-09
-5.81355e-10
1.453269e-10
1.221218e-09
-1.366545e-09
6.157132e-10
-1.858872e-09
1.243159e-09
1.471131e-09
5.753837e-10
-2.046514e-09
3.192648e-10
-1.320458e-09
1.001193e-09
-5.254601e-10
-1.235066e-09
1.760526e-09
1.183808e-09
4.680804e-10
-1.651889e-09
8.918899e-10
-1.721176e-09
8.292856e-10
2.114513e-09
-1.033724e-09
-1.080789e-09
6.371962e-10
-1.065453e-09
1.830476e-09
-1.10653e-09
-7.239457e-10
3.655827e-09
-2.773771e-09
-8.820557e-10
-6.859868e-11
1.777665e-09
-1.709067e-09
-1.860993e-09
1.109138e-09
7.518553e-10
1.775857e-09
-1.050334e-09
-7.255228e-10
-1.206545e-09
1.527551e-09
-3.21006e-10
-4.243396e-09
4.579596e-10
3.785437e-09
-3.725841e-10
1.685958e-09
-1.313374e-09
-1.694125e-09
3.943953e-10
1.29973e-09
-1.035038e-09
-4.151999e-10
1.450238e-09
1.435412e-09
-1.893434e-09
4.580218e-10
-1.87897e-09
3.693637e-10
1.509606e-09
6.746426e-09
-7.091291e-09
3.448648e-10
1.207842e-09
1.453803e-10
-1.353222e-09
8.843002e-10
8.641145e-10
-1.748415e-09
-1.950074e-09
1.928926e-09
2.114836e-11
-8.234683e-11
-1.674989e-09
1.757336e-09
1.619751e-09
-9.600069e-10
-1.022177e-09
1.87157e-09
-8.493929e-10
2.270747e-09
-3.342464e-09
1.071717e-09
-7.796366e-10
-7.103024e-10
1.489939e-09
-3.570903e-10
-1.127847e-09
1.484937e-09
-2.240928e-09
9.046775e-10
1.336251e-09
-1.394175e-09
-7.12122e-09
8.515395e-09
1.248628e-09
-1.767152e-09
5.185233e-10
-1.818879e-09
9.78665e-10
8.402135e-10
-3.437946e-11
7.147794e-09
-7.113414e-09
-1.201205e-09
-5.808776e-10
1.782083e-09
-9.017081e-10
-7.360418e-10
2.175429e-09
-6.254618e-09
4.079189e-09
2.227809e-10
-1.547776e-09
1.324995e-09
-2.192601e-09
8.672634e-10
1.325337e-09
1.074444e-09
-1.900533e-09
8.260888e-10
3.757397e-09
1.715824e-09
-5.473221e-09
1.641093e-09
-3.839132e-09
2.198039e-09
-9.01692e-10
-7.521935e-10
-1.998312e-09
2.565166e-09
-5.668536e-10
-1.324759e-09
1.09169e-10
1.21559e-09
6.218538e-10
1.131366e-09
-1.75322e-09
1.486591e-09
1.237178e-10
-1.610308e-09
4.850999e-10
1.224022e-09
-1.709121e-09
-9.564122e-10
-8.754552e-10
1.831867e-09
-5.145284e-09
5.115395e-09
2.988831e-11
-1.888821e-09
-8.997791e-10
2.7886e-09
-2.889742e-10
1.838535e-09
-1.54956e-09
-1.646827e-09
2.013271e-10
1.4455e-09
2.038107e-09
-1.103007e-09
-9.351e-10
2.079794e-09
-2.785212e-10
-1.801273e-09
-3.79079e-10
1.241813e-09
-8.62734e-10
-3.989106e-10
1.313284e-09
-9.14373e-10
-1.655862e-09
2.441895e-09
-7.860324e-10
2.854221e-10
-1.187866e-09
4.822698e-10
-1.523401e-09
1.041131e-09
1.513173e-09
-1.291552e-09
-2.216206e-10
-1.312479e-09
2.637012e-10
1.048778e-09
-1.422639e-09
2.047464e-09
-6.248251e-10
-1.187915e-09
-4.603598e-10
1.648275e-09
9.825471e-10
3.239006e-10
-1.306448e-09
7.00108e-10
1.451463e-09
-2.151571e-09
4.628934e-10
-1.586741e-09
1.123848e-09
1.256519e-09
-1.410564e-09
1.540445e-10
1.134354e-09
-2.005776e-09
8.714216e-10
-1.235661e-09
1.726325e-09
1.959231e-10
-1.519491e-09
1.323568e-09
2.036191e-09
-6.707868e-10
-1.365404e-09
9.113102e-10
-2.098977e-09
2.07524e-09
-1.210556e-09
-8.646837e-10
-1.603485e-09
3.269205e-10
1.276565e-09
-1.347491e-09
6.908997e-10
6.565914e-10
-4.664136e-09
3.753317e-09
9.108198e-10
-1.930215e-09
-5.561608e-10
2.486376e-09
-6.964246e-10
-1.226259e-09
1.922684e-09
5.374516e-10
1.312777e-09
-1.850228e-09
7.222685e-10
1.055832e-09
-1.778101e-09
1.705996e-09
-1.643926e-09
-6.207047e-11
-1.657017e-09
7.61139e-10
8.95878e-10
-2.069458e-09
1.286909e-09
7.825491e-10
-3.644846e-10
-1.166728e-09
1.531212e-09
1.057451e-09
-1.746992e-09
6.895418e-10
-1.539321e-09
8.20591e-10
7.187304e-10
4.812775e-09
2.778371e-09
7.570455e-10
1.263745e-09
-2.02079e-09
-1.337533e-09
1.959386e-09
1.331717e-09
4.136797e-10
-1.745397e-09
-5.569351e-10
-7.741639e-10
1.331099e-09
4.718613e-10
-2.051904e-09
1.580043e-09
-1.698918e-09
1.508358e-09
1.905595e-10
1.775474e-09
1.788586e-11
-1.79336e-09
4.920446e-10
-1.587205e-09
1.09516e-09
-9.389812e-10
-1.106497e-09
2.045478e-09
1.861767e-09
-1.405995e-09
-4.557723e-10
-1.257637e-09
1.645765e-09
-3.881285e-10
3.124171e-10
-1.985091e-09
1.672674e-09
1.647385e-09
-8.095582e-10
-8.378272e-10
-2.028281e-10
-1.064863e-09
1.267691e-09
2.124702e-09
-6.594489e-10
-1.465253e-09
1.093448e-09
1.09003e-09
-2.183478e-09
-1.799746e-09
-3.700139e-11
1.836747e-09
-8.050375e-10
-8.269129e-10
-1.158202e-09
-3.186203e-10
1.476822e-09
-1.568279e-09
-8.561847e-11
1.653897e-09
1.232884e-09
5.231178e-10
-1.756002e-09
1.549506e-09
6.947559e-10
-2.244262e-09
1.224524e-09
-2.785494e-10
-9.45975e-10
-1.209328e-09
1.121167e-09
8.816095e-11
2.012102e-09
-1.920758e-09
-9.134373e-11
4.395963e-10
1.296479e-09
-1.736075e-09
-3.953269e-10
2.175816e-09
-1.78049e-09
-2.302867e-09
4.478296e-09
-5.276089e-10
-1.170947e-09
1.698556e-09
-9.248484e-10
-2.292004e-09
3.216853e-09
2.115086e-10
-1.619087e-09
1.407579e-09
1.594921e-09
-9.690603e-10
-6.258608e-10
1.272024e-09
-1.891519e-09
6.19495e-10
1.459231e-09
7.24232e-10
-2.183463e-09
-1.330497e-09
1.84884e-09
-5.183428e-10
1.608188e-09
1.694456e-10
-1.777634e-09
2.672838e-09
-2.320964e-09
-3.518736e-10
-2.057392e-09
6.420285e-10
1.415364e-09
6.956953e-10
7.507226e-10
-1.446418e-09
7.650962e-10
-1.781955e-09
8.715945e-10
9.10361e-10
9.897464e-10
-1.421648e-09
4.319019e-10
8.063838e-10
1.423818e-10
-9.487656e-10
6.08316e-10
-1.417014e-09
8.086984e-10
1.572144e-09
-1.534798e-09
-3.734588e-11
5.545365e-09
-9.092111e-10
-1.96041e-09
9.839348e-10
9.764749e-10
-1.139682e-09
1.131104e-09
8.577894e-12
-1.319464e-09
8.568543e-10
-1.319705e-09
-5.566942e-10
1.876399e-09
-5.165425e-10
2.027806e-09
-1.511263e-09
-1.079188e-09
-6.384996e-10
1.717688e-09
-1.387479e-09
1.134196e-09
2.09299e-09
-8.577751e-10
-1.235214e-09
-1.036816e-09
1.21245e-09
-1.756345e-10
-8.48624e-10
-5.918674e-10
1.440491e-09
2.001751e-09
-8.378562e-10
-1.163895e-09
1.388811e-09
-1.942584e-09
5.537735e-10
-1.295531e-09
-1.048097e-09
2.343628e-09
-4.233147e-10
1.452973e-09
-1.029658e-09
1.217718e-09
-4.722123e-10
-7.455058e-10
8.403588e-10
-5.797057e-10
-2.606531e-10
1.463182e-09
4.642935e-10
-1.927476e-09
9.10219e-10
8.333983e-10
-1.743617e-09
-1.086432e-09
1.799978e-09
-7.135457e-10
-1.401231e-09
-7.300822e-10
2.131313e-09
1.837122e-09
1.060541e-09
-2.897663e-09
2.021786e-09
-1.320514e-09
-7.012715e-10
1.586971e-09
-1.718223e-09
1.312528e-10
8.052602e-10
7.186674e-10
-1.523928e-09
4.166793e-09
-4.388682e-09
2.218888e-10
7.754942e-10
1.259171e-09
-2.034665e-09
-2.244541e-09
1.80569e-09
4.388508e-10
2.318608e-09
-1.540737e-09
-7.778715e-10
-1.736243e-09
9.489562e-10
7.872864e-10
8.735946e-10
-3.995367e-10
-4.740579e-10
-1.144294e-09
1.327353e-09
1.915064e-09
-3.517642e-10
-1.563299e-09
2.685328e-09
-3.255711e-09
5.703825e-10
2.804003e-09
-3.999095e-09
1.195092e-09
3.048974e-10
-1.54017e-09
1.235273e-09
-1.008604e-09
-1.235937e-09
-2.243366e-09
1.140306e-09
-1.255197e-09
1.69095e-10
1.086102e-09
-1.43277e-10
1.430177e-09
-1.2869e-09
1.489858e-09
-8.719679e-10
-6.1789e-10
5.23628e-11
1.806695e-09
-1.859058e-09
1.196322e-09
7.436968e-10
-1.940019e-09
-7.331748e-10
2.028204e-09
-1.295029e-09
-3.013998e-10
-7.981747e-10
1.099574e-09
1.393485e-09
2.141984e-09
-3.535469e-09
9.916677e-11
1.737955e-09
5.458938e-10
9.247033e-10
-1.470597e-09
9.193423e-10
6.689766e-10
-1.588319e-09
9.365125e-11
-1.743071e-09
1.64942e-09
7.157977e-10
5.453738e-10
-1.261171e-09
-4.146733e-09
6.313971e-10
3.515336e-09
1.870333e-09
-9.601143e-10
-1.868259e-09
9.886719e-10
8.795867e-10
-8.904453e-10
1.692415e-09
-1.202712e-10
-1.143625e-09
-6.220136e-10
1.765639e-09
4.43686e-10
9.802038e-10
-1.42389e-09
2.970004e-09
-1.79884e-09
-1.171164e-09
8.858172e-10
4.985265e-10
-1.384344e-09
1.717727e-09
-1.398462e-09
-1.419798e-09
1.012914e-09
4.068845e-10
-5.716211e-10
-1.068577e-09
1.640198e-09
9.785163e-10
-1.515795e-09
5.372784e-10
2.45473e-09
-1.017832e-09
-1.436898e-09
-2.698551e-10
-1.186089e-09
1.455944e-09
2.937199e-10
1.169139e-09
-1.462859e-09
1.166231e-09
3.661045e-10
-1.532336e-09
-1.093567e-09
1.3975e-09
-3.039335e-10
-2.645467e-10
1.285158e-09
-1.020611e-09
-1.524638e-09
-2.342765e-10
1.758915e-09
-1.266141e-10
1.935203e-09
-1.808588e-09
6.58151e-10
7.998035e-10
-1.457954e-09
-6.46222e-10
1.56187e-09
-9.156476e-10
-1.533898e-09
1.661659e-09
-1.277611e-10
-3.482406e-10
1.879347e-09
-1.531107e-09
-1.47961e-09
4.233315e-10
1.056278e-09
-1.712864e-09
1.658149e-09
5.471496e-11
9.904878e-10
5.755938e-09
1.475485e-09
-1.508798e-09
3.33137e-11
1.372649e-09
6.569765e-10
-2.029626e-09
9.506835e-10
7.481691e-10
-1.698853e-09
-3.230428e-09
-7.001205e-09
1.571595e-09
-1.045504e-09
-5.260908e-10
-1.189885e-09
1.236083e-09
-4.619755e-11
-1.428042e-09
9.326133e-10
4.954283e-10
-1.729993e-10
-1.486213e-09
1.659212e-09
1.149197e-09
-6.863041e-10
1.835044e-09
-7.775936e-10
-6.028916e-10
-9.364298e-10
1.388965e-09
-9.17104e-10
-1.505135e-09
4.397582e-10
1.065377e-09
1.729482e-09
-6.609446e-10
-1.068537e-09
-2.128201e-09
1.868989e-09
2.592126e-10
-8.710383e-10
-4.411864e-10
1.312225e-09
2.624533e-09
-1.770297e-09
-8.542358e-10
-1.971843e-09
1.420222e-09
5.516209e-10
5.460135e-10
-1.608271e-09
1.062257e-09
-2.640855e-09
1.877459e-09
7.633962e-10
-1.278442e-09
-2.911163e-10
1.569558e-09
6.939706e-10
-2.442542e-09
1.748572e-09
-9.050267e-10
-8.419303e-10
1.746957e-09
-3.928804e-10
1.599648e-09
-1.206768e-09
1.260974e-09
3.10621e-10
9.002243e-10
-2.041311e-09
1.141087e-09
-8.059635e-10
-9.133013e-10
1.719265e-09
-1.861425e-09
2.194459e-09
-3.330349e-10
1.189675e-09
-2.681194e-09
-2.474302e-09
-2.189835e-09
1.589913e-10
1.560846e-09
-1.719837e-09
7.919072e-10
7.586726e-10
-1.55058e-09
-4.00715e-09
2.551882e-09
1.455268e-09
1.959589e-09
-6.174778e-10
-1.342111e-09
-8.515903e-10
1.591432e-09
4.952477e-11
1.490622e-09
8.127141e-10
5.119071e-10
-1.324621e-09
1.550952e-09
1.569439e-10
-1.707896e-09
1.039742e-09
-1.543673e-09
2.25227e-09
-1.373153e-10
-2.114955e-09
-9.561106e-10
2.313927e-09
-1.357817e-09
-1.100427e-09
8.642703e-10
2.361567e-10
1.330926e-09
-2.101657e-09
7.707315e-10
2.307883e-09
-7.370928e-09
5.063044e-09
9.849679e-10
1.122244e-09
-2.107211e-09
-8.361532e-10
1.637166e-09
-8.010126e-10
-9.077757e-10
1.618287e-09
-7.105111e-10
2.323243e-09
-1.668509e-09
-6.547337e-10
1.562335e-09
-1.35677e-09
-2.055643e-10
9.133316e-10
-2.489809e-09
1.576477e-09
-5.600732e-10
1.878587e-09
-1.318514e-09
2.177756e-09
-1.73407e-09
1.733706e-09
-8.636024e-10
-8.701035e-10
-1.568958e-09
6.43574e-10
9.25384e-10
8.133954e-10
-1.070639e-09
2.572432e-10
1.755783e-09
-1.713195e-09
-4.258796e-11
4.45439e-09
-2.450434e-09
-2.003956e-09
-1.228527e-09
1.836843e-09
-6.258104e-10
1.380377e-09
-7.545664e-10
1.953079e-09
-1.517704e-09
-4.353749e-10
-1.824277e-09
3.217762e-09
3.180405e-10
-1.395516e-09
1.077476e-09
-2.0705e-09
1.258657e-09
8.118427e-10
-2.327436e-09
-4.580479e-10
2.785484e-09
1.116352e-09
-1.926079e-09
8.847257e-10
1.218339e-09
-2.103065e-09
-2.284138e-10
-1.339865e-09
-1.070291e-09
1.689104e-09
-6.188132e-10
8.438979e-10
-2.229548e-09
1.38565e-09
1.469446e-09
-1.702451e-09
2.33005e-10
6.628357e-10
-1.81562e-09
1.152784e-09
-2.186534e-09
1.528649e-09
6.578854e-10
3.38795e-10
-1.715094e-09
1.376299e-09
-1.044739e-09
-8.17538e-10
1.149517e-09
-1.74288e-09
5.933631e-10
1.638228e-09
-2.942496e-09
1.304268e-09
1.69867e-09
-1.094478e-09
1.054607e-09
-1.850313e-09
9.855773e-10
-1.801605e-09
8.160277e-10
1.951509e-09
-9.613856e-10
-9.901229e-10
1.167815e-09
-2.840972e-09
1.673157e-09
1.139232e-09
-2.111104e-09
9.718724e-10
-6.740176e-10
1.496e-09
-8.219829e-10
-1.669631e-09
1.590161e-10
1.510615e-09
-1.528006e-09
8.89654e-11
1.43904e-09
-7.520459e-09
6.208263e-09
1.312196e-09
-1.434745e-09
-3.57605e-10
1.79235e-09
-2.445161e-09
8.596184e-10
1.585542e-09
-2.197491e-10
-5.896341e-10
-1.638211e-09
6.985836e-10
9.396274e-10
-3.864764e-10
-1.665427e-09
1.99294e-09
-8.489047e-10
-1.144035e-09
-1.325533e-09
1.433025e-09
-1.074921e-10
1.903451e-09
-9.184832e-10
9.155925e-10
1.166419e-09
-2.082012e-09
-1.746318e-09
1.490057e-09
2.562612e-10
4.651565e-10
1.048016e-09
4.146551e-10
-1.78257e-09
1.367915e-09
1.536769e-09
-1.310982e-10
-1.40567e-09
-1.646533e-09
8.416947e-10
8.048385e-10
2.181591e-09
3.045718e-10
-2.486163e-09
-1.382916e-09
1.180088e-09
-8.504824e-10
1.408495e-09
-5.58013e-10
-1.206587e-09
1.485503e-09
-2.789161e-10
8.036369e-10
-2.538389e-09
1.382785e-09
-9.221966e-10
-4.605882e-10
-1.948321e-10
1.646425e-09
-1.451593e-09
-9.373947e-10
1.69688e-09
-7.594852e-10
-1.54109e-09
1.7962e-09
-2.551093e-10
-1.706746e-09
1.970796e-09
-3.076163e-09
1.105366e-09
-1.678675e-09
1.175006e-09
5.03669e-10
-3.591445e-10
-1.34388e-09
1.703024e-09
1.243967e-09
-1.93666e-09
6.926926e-10
1.992645e-10
1.380938e-09
-1.580203e-09
-3.30737e-09
4.917567e-09
-1.610198e-09
-7.758425e-10
1.9103e-09
-1.134458e-09
-4.439029e-10
-8.586842e-10
1.302587e-09
1.196018e-09
-1.704735e-09
5.087166e-10
-2.919674e-10
1.423333e-09
9.78607e-10
-1.62335e-09
6.447426e-10
-1.053551e-09
-3.191727e-10
1.372723e-09
7.363684e-10
1.141543e-09
-1.877912e-09
1.235369e-09
6.404031e-10
-1.846948e-09
-8.956001e-10
-9.541048e-10
1.849705e-09
-2.763137e-09
-2.10315e-09
7.72762e-10
1.330388e-09
6.851983e-10
-1.400575e-09
7.15377e-10
3.783952e-10
1.722123e-09
-2.100518e-09
1.183362e-09
-8.014662e-10
-3.818956e-10
-5.778736e-10
-1.009712e-09
1.587585e-09
-2.053633e-09
1.267138e-09
7.864949e-10
-2.60816e-09
2.958224e-10
2.312337e-09
-1.645312e-09
-2.887243e-11
1.674184e-09
7.302313e-10
-1.825706e-09
1.095475e-09
1.070084e-09
1.072375e-09
-2.142458e-09
1.292403e-09
-3.687609e-10
-9.236425e-10
-1.240623e-09
8.399361e-10
4.006869e-10
-1.375677e-09
-1.852929e-09
3.228606e-09
7.197784e-10
-1.653034e-09
9.332558e-10
-1.295192e-09
1.731371e-09
-4.36179e-10
-6.340781e-10
-1.229144e-09
1.863222e-09
1.998232e-09
-1.275964e-09
1.001438e-09
-1.780752e-09
7.793143e-10
-5.419372e-11
-1.122662e-09
1.176856e-09
1.801901e-09
-1.011112e-09
-7.907886e-10
-1.720394e-09
1.957558e-10
1.018537e-09
5.101521e-10
-1.528689e-09
-2.696023e-11
-1.868312e-09
1.895272e-09
-8.554166e-10
1.846934e-09
-9.915176e-10
-1.306333e-09
-6.716293e-09
8.022625e-09
-1.946632e-09
5.996242e-10
1.347008e-09
-1.088647e-09
-8.680181e-10
1.51403e-09
-6.460118e-10
-1.335635e-09
-8.369168e-10
2.172552e-09
2.669624e-09
-2.736765e-09
6.714149e-11
1.648452e-09
-1.618618e-10
-1.855764e-09
1.393276e-09
4.624882e-10
-1.165224e-09
-3.055261e-10
1.47075e-09
9.678222e-10
-1.49038e-09
5.225582e-10
-8.986382e-10
-1.03762e-09
1.936258e-09
2.008948e-09
-5.859097e-10
-1.423039e-09
-2.424378e-09
3.795975e-09
4.218033e-10
-1.305501e-09
8.836977e-10
5.090443e-10
1.221082e-09
-1.730127e-09
9.821482e-09
-9.821482e-09
-1.548412e-09
1.121805e-09
4.266076e-10
1.760227e-09
-9.091865e-10
-8.510402e-10
1.064136e-09
-1.624372e-09
1.589485e-09
-9.656627e-10
-6.238228e-10
-1.648554e-09
-2.055373e-10
1.854091e-09
1.434501e-09
1.762874e-09
-3.197376e-09
1.603948e-09
-8.56062e-10
1.473812e-09
-8.311023e-10
-6.427102e-10
1.559223e-09
-7.17205e-10
-8.42018e-10
1.794558e-09
-5.675968e-10
-1.226961e-09
7.865864e-10
-1.564731e-09
7.78145e-10
1.924433e-09
-4.612505e-10
8.345053e-10
5.769976e-10
-1.411503e-09
-7.93499e-10
-5.259654e-10
1.789283e-09
-1.529483e-09
-2.598005e-10
1.634677e-09
1.146414e-12
-1.605332e-09
1.604186e-09
-2.44143e-10
1.565906e-09
-1.321763e-09
6.748897e-10
1.597476e-09
-1.15788e-09
-9.935348e-10
1.837433e-09
1.849592e-09
-1.31532e-09
-5.342726e-10
2.204453e-09
-1.312563e-09
1.302845e-09
-1.472963e-09
1.701182e-10
3.199362e-10
-1.901225e-09
1.581289e-09
-3.752814e-10
-1.531433e-09
-1.338148e-09
1.205045e-09
1.331027e-10
7.401709e-11
-1.394475e-09
7.363874e-09
-2.130536e-09
2.565202e-09
9.872808e-10
-3.552482e-09
-2.895537e-09
1.51986e-09
7.709129e-10
-1.600735e-09
3.615823e-10
-1.11556e-09
7.539775e-10
-1.130001e-09
1.16391e-09
-3.390938e-11
-4.100434e-10
1.819831e-09
-1.409788e-09
1.316006e-09
5.543273e-10
-1.237451e-09
1.722551e-09
7.462008e-10
-1.766238e-09
1.020037e-09
5.891158e-10
-3.05484e-09
2.465725e-09
-1.808206e-09
-5.690187e-10
3.751923e-09
2.241525e-09
-5.993448e-09
-1.829125e-09
2.71041e-10
1.558084e-09
-6.560314e-10
1.816617e-09
-1.160586e-09
-3.15519e-09
-1.509414e-09
4.664604e-09
-2.380519e-09
-1.956044e-09
4.336563e-09
9.802731e-10
-1.374044e-09
3.937713e-10
-3.487182e-09
7.162847e-10
2.770898e-09
-1.516757e-09
6.532915e-10
8.634651e-10
-9.61157e-10
2.031241e-09
2.608174e-09
-2.530115e-09
-7.805896e-11
1.142975e-09
5.907311e-10
-2.675839e-09
1.98698e-10
2.477141e-09
1.426856e-09
-2.92882e-10
-1.133974e-09
1.773608e-09
-5.681724e-10
-1.205436e-09
8.529944e-10
1.271708e-09
-1.675074e-09
2.570337e-09
-8.952623e-10
-4.751386e-10
-1.111066e-09
1.586204e-09
-1.644874e-09
9.328994e-10
7.119743e-10
-9.081836e-11
-3.396364e-09
-7.601266e-12
-1.312688e-09
1.320289e-09
-1.175727e-09
1.962313e-09
-1.442219e-09
2.249551e-09
-8.073317e-10
-1.814839e-09
9.405818e-10
8.742577e-10
-1.215828e-09
1.53436e-09
-3.185315e-10
1.896941e-09
-1.15074e-09
-8.961653e-10
3.207868e-10
-9.59816e-10
1.886319e-09
-9.265031e-10
-9.508685e-11
-1.282169e-09
1.377256e-09
3.663038e-10
1.265923e-09
-1.632227e-09
5.551916e-10
-1.746835e-09
-6.005697e-10
2.0717e-09
-4.035419e-10
-7.514689e-10
1.155011e-09
1.576049e-09
-9.178982e-10
2.561205e-10
1.013479e-09
-1.269599e-09
-1.097686e-09
3.852821e-10
7.124037e-10
-4.594975e-10
1.500981e-09
-1.041483e-09
5.323624e-09
-3.614777e-09
-1.708847e-09
9.032313e-10
-1.618384e-09
7.151531e-10
-2.201483e-10
1.455841e-09
-1.235693e-09
1.320125e-09
-1.304173e-09
-1.595189e-11
3.718929e-10
-1.741025e-09
2.887076e-10
5.349152e-09
-1.226277e-09
-4.122875e-09
8.644794e-12
1.252511e-09
-1.261156e-09
-2.893045e-10
1.588732e-09
-1.299428e-09
2.966212e-09
-3.48748e-10
-2.617464e-09
-1.105724e-09
2.116921e-09
-1.011197e-09
-1.023183e-09
1.730496e-09
-7.073133e-10
-1.491945e-09
2.513222e-10
2.693159e-09
-2.372372e-09
-1.587033e-10
1.454826e-09
-1.296123e-09
3.097359e-10
1.415211e-09
-1.724947e-09
6.068597e-10
-1.148666e-09
5.418061e-10
-3.625983e-10
-1.129347e-09
1.322692e-09
2.601361e-09
-3.924053e-09
9.358674e-11
1.599085e-09
-1.692672e-09
3.106468e-09
9.776476e-11
-3.204233e-09
-1.072954e-09
2.089091e-10
-3.95391e-10
-8.261895e-10
1.22158e-09
1.285909e-10
3.469721e-09
-3.598312e-09
-1.695248e-09
5.538103e-10
1.141438e-09
1.3071e-09
6.858398e-10
-1.527471e-09
-2.191593e-11
1.549387e-09
-3.477282e-09
3.426673e-09
5.060893e-11
-1.604774e-09
-3.314022e-09
4.918796e-09
-1.190013e-09
1.556317e-09
2.009746e-09
-1.134005e-09
-8.757403e-10
7.749726e-10
1.894651e-09
6.259715e-10
7.568133e-10
8.006931e-10
1.150815e-09
-2.593621e-10
-1.569658e-09
1.82902e-09
9.57786e-10
-2.591976e-09
1.63419e-09
-1.758267e-10
-1.100026e-09
1.275853e-09
-1.633885e-09
1.808342e-09
-1.744571e-10
1.552753e-09
-8.675552e-10
1.353163e-09
-1.858603e-09
5.054394e-10
1.502952e-09
-1.629764e-09
1.268119e-10
-6.571553e-10
-1.811869e-09
2.469024e-09
1.281171e-09
-1.412269e-09
-5.91337e-10
-8.434081e-10
1.30022e-09
5.493721e-10
1.13389e-09
-1.487377e-09
3.53487e-10
5.232872e-10
-1.100363e-09
-2.280614e-09
2.154e-09
5.066638e-10
1.065705e-09
-1.572368e-09
-1.300746e-09
1.997425e-09
-6.966785e-10
2.257375e-09
8.134973e-10
-2.215909e-09
1.402411e-09
1.495644e-09
-2.236911e-09
7.412668e-10
5.658784e-10
1.345616e-09
-2.334028e-09
5.286384e-09
-2.952356e-09
-2.00225e-09
1.734946e-09
2.673036e-10
-8.125744e-10
-1.027447e-09
-9.037055e-10
1.931153e-09
-7.271103e-10
1.963846e-09
-1.236736e-09
5.61282e-11
1.592324e-09
1.009844e-09
5.689756e-10
-1.578819e-09
-3.514117e-09
-5.162881e-11
-1.342455e-09
1.394083e-09
1.907232e-09
-1.849492e-10
-1.722283e-09
7.548805e-10
-1.343142e-09
1.563031e-09
-8.11449e-10
-7.515816e-10
2.359296e-11
-1.348352e-09
-1.800897e-09
-3.364596e-10
2.137356e-09
7.357436e-09
-1.748851e-09
-5.608584e-09
9.649715e-10
1.07122e-09
-1.807745e-09
2.155347e-09
-3.476026e-10
3.66184e-09
-3.752658e-09
1.308824e-09
2.353016e-09
-1.853633e-09
1.699796e-09
1.538373e-10
-4.695031e-09
4.369932e-10
4.258038e-09
-9.016909e-10
-8.802646e-10
-8.844415e-10
-1.012099e-09
1.896541e-09
-1.324739e-10
-5.529835e-09
5.662309e-09
1.383234e-09
7.43661e-10
-2.126895e-09
9.650777e-10
-1.801231e-09
-4.777131e-10
1.418842e-09
-9.411287e-10
9.175962e-10
-1.563818e-09
-1.265136e-09
9.165152e-11
1.173485e-09
5.213173e-10
1.385915e-09
-4.07498e-10
1.485583e-09
-1.078085e-09
6.037164e-10
-1.014636e-09
-5.796397e-10
1.594276e-09
-1.256792e-09
1.106305e-09
1.504876e-10
-1.342268e-09
-4.659551e-10
1.808223e-09
-1.088264e-09
2.415086e-09
-1.326822e-09
-1.54302e-09
-3.871949e-10
-1.700111e-09
1.740465e-09
-4.035407e-11
1.555737e-09
2.00255e-09
6.197777e-11
-2.064528e-09
-1.993962e-09
1.633486e-09
3.604761e-10
-1.67598e-09
7.158659e-10
1.168858e-09
-1.673153e-09
5.042949e-10
1.682759e-09
-3.535688e-09
9.89953e-10
-1.725995e-09
1.509518e-09
-1.382491e-09
-1.270274e-10
3.129833e-09
-1.604149e-09
-1.525684e-09
2.826113e-10
1.233392e-09
-1.516004e-09
-1.003733e-09
-8.64526e-10
-1.075173e-09
1.855352e-09
-7.801791e-10
-2.984035e-09
3.759008e-09
-8.067074e-10
1.701273e-09
-8.945655e-10
9.655611e-10
2.004443e-09
-4.990547e-10
1.882288e-09
8.57791e-10
-1.460683e-09
-3.35833e-10
-1.311004e-09
1.646837e-09
-2.551864e-10
-1.923281e-09
2.178468e-09
1.593315e-09
-8.301443e-10
-7.631704e-10
-1.977628e-10
1.405896e-09
-1.208133e-09
2.261097e-09
-3.227098e-09
1.66258e-09
-1.921942e-09
-7.913829e-10
2.333763e-09
-1.54238e-09
-1.412213e-09
-4.667566e-10
2.021897e-09
-1.056075e-09
-9.658222e-10
1.413767e-09
-1.746778e-09
3.330107e-10
1.639432e-09
-5.257187e-10
-1.113714e-09
-5.260431e-10
1.774672e-09
-6.54896e-10
-1.175361e-09
1.830257e-09
-2.158332e-09
1.154267e-09
1.004065e-09
-1.441725e-09
-5.87974e-10
2.029699e-09
2.074388e-09
-4.661993e-10
-2.818737e-09
-4.39147e-09
7.210206e-09
-3.180738e-09
3.944188e-09
-7.634505e-10
-2.050433e-09
4.182858e-09
-2.132426e-09
1.8847e-09
-1.828e-09
-5.669957e-11
1.307489e-09
-1.932895e-09
6.254057e-10
6.746295e-10
1.353779e-09
-2.028409e-09
-5.806993e-09
2.538564e-09
3.268429e-09
5.963504e-10
1.366671e-09
-1.963021e-09
-1.831847e-09
1.062173e-09
7.696746e-10
9.184281e-10
1.006315e-09
-1.924743e-09
1.407702e-09
-2.136186e-09
7.284835e-10
2.541926e-09
-2.808294e-10
1.827653e-09
6.475708e-09
-5.168112e-10
-1.549154e-09
2.065965e-09
-1.725556e-09
-3.837382e-10
2.109294e-09
2.152519e-09
-1.817224e-10
-6.911784e-10
1.410957e-09
-9.443362e-10
1.821765e-09
-8.774285e-10
-1.73682e-10
-1.367408e-09
-6.251654e-09
3.479879e-09
2.771775e-09
1.2992e-09
7.651855e-09
-8.958187e-09
-1.828325e-09
1.917791e-09
-8.946669e-11
2.005324e-09
-8.510479e-10
-1.154276e-09
-1.203263e-09
-4.302404e-10
1.633504e-09
-7.389762e-10
4.152184e-09
-3.413208e-09
-1.615967e-09
1.569476e-09
4.649039e-11
1.497519e-10
1.722807e-09
-1.872559e-09
1.131521e-09
2.19155e-09
-1.575837e-09
-5.97377e-10
1.849491e-09
-1.252114e-09
-1.073286e-09
-9.206753e-10
9.832935e-10
1.87427e-09
-2.857564e-09
-4.586559e-09
4.737689e-09
-1.511301e-10
-1.523292e-09
-3.408596e-11
1.557378e-09
-1.909458e-09
5.908886e-10
1.31857e-09
-1.875128e-09
1.11682e-09
7.583082e-10
-4.67954e-10
-1.407174e-09
9.960365e-10
-5.768634e-10
-4.191731e-10
-1.334817e-09
1.144073e-09
1.120547e-09
-1.696021e-09
5.754745e-10
8.856342e-10
-1.830813e-09
9.451784e-10
6.908324e-10
-1.942538e-09
1.251705e-09
-1.018853e-09
1.996498e-09
-9.776458e-10
-1.597093e-09
-2.275112e-10
1.824604e-09
-1.827706e-10
1.491594e-09
9.871613e-11
-1.499023e-09
9.274022e-10
1.883003e-10
1.080935e-09
-1.269235e-09
-1.064776e-10
-1.325826e-09
1.432304e-09
1.460572e-09
5.903806e-10
-2.050953e-09
1.052048e-09
-1.520963e-09
1.132179e-09
3.887843e-10
-1.016377e-09
1.780368e-09
-7.639906e-10
-1.054121e-09
-8.852299e-10
1.939351e-09
1.245427e-09
-3.235683e-09
1.990256e-09
1.743145e-10
-2.407812e-09
3.484168e-09
-8.1133e-10
1.713812e-09
3.915562e-12
-7.594318e-10
1.677028e-09
6.550866e-10
-1.577283e-09
1.594673e-09
-7.894124e-10
1.839051e-09
-6.895338e-10
9.711598e-10
-1.487702e-09
5.113618e-10
3.696817e-09
-4.208179e-09
-1.018618e-09
-2.526651e-10
1.271283e-09
9.691885e-10
-1.53421e-09
2.857572e-09
4.499864e-09
-1.808461e-09
1.10961e-10
1.697499e-09
1.831841e-09
4.571182e-11
-1.877553e-09
-7.763081e-10
2.218527e-09
-1.442219e-09
-2.017098e-09
1.761912e-09
2.564164e-09
-8.926241e-10
-1.67154e-09
2.080899e-09
-1.111866e-09
-9.69033e-10
-2.484721e-09
9.166472e-10
1.568074e-09
-1.856948e-10
1.734846e-09
-1.549151e-09
3.27548e-10
1.497941e-09
-1.825489e-09
1.717829e-09
8.473371e-10
1.364039e-09
1.368595e-10
-1.500898e-09
2.266672e-09
-3.512181e-09
1.673993e-09
-1.37575e-09
-2.98243e-10
-1.550203e-09
1.486878e-09
-8.695238e-10
-1.026407e-09
1.895931e-09
1.40956e-09
-2.279084e-09
-1.377935e-09
1.600715e-09
1.831097e-09
-1.736211e-10
1.258611e-09
-1.084989e-09
-1.088716e-09
1.259734e-09
-1.710182e-10
-2.034841e-09
9.834613e-10
1.05138e-09
-9.718351e-10
-1.042091e-09
2.013926e-09
-1.344761e-09
2.309839e-09
-1.2938e-09
2.214625e-09
-9.208253e-10
1.364144e-09
1.690732e-09
-5.684886e-10
8.043584e-10
1.197393e-09
-3.654601e-10
-1.400778e-09
1.807147e-09
-9.355529e-10
-1.990716e-09
6.475744e-10
1.51022e-09
4.187062e-10
-3.382053e-09
-3.89073e-10
3.771126e-09
-6.336638e-10
1.196344e-09
-5.626803e-10
-1.354584e-09
3.982185e-10
-1.745383e-09
1.347164e-09
1.950247e-09
-1.502149e-09
-4.480976e-10
1.379475e-09
-7.237468e-11
1.420829e-09
-9.348505e-10
-4.859787e-10
1.354633e-09
-8.222185e-10
-5.324147e-10
-1.367792e-09
1.360191e-09
-1.966983e-09
1.032152e-09
9.348304e-10
-2.197419e-09
-1.809731e-09
-1.34895e-09
-1.727212e-09
1.486369e-09
-1.070817e-10
1.758175e-09
1.297597e-09
-3.943656e-10
1.311417e-09
-1.393746e-09
8.232879e-11
2.176539e-09
-1.263207e-09
1.187101e-09
-1.68564e-10
-4.540932e-10
-1.872625e-09
2.326718e-09
9.686883e-10
-1.223406e-09
2.547176e-10
-1.803533e-09
2.865143e-10
1.517018e-09
5.539084e-10
7.628703e-10
-1.316779e-09
-1.580724e-09
5.10041e-10
1.070683e-09
-1.823905e-09
5.301055e-10
-9.757569e-09
3.368207e-09
6.389362e-09
1.421308e-09
-8.820633e-10
-5.392446e-10
-1.589146e-09
-5.595246e-10
-8.9183e-10
1.451355e-09
-1.943581e-09
-1.31241e-09
4.044082e-10
9.080017e-10
3.151434e-11
1.371994e-09
-1.403508e-09
-1.959496e-09
5.875374e-10
1.371959e-09
-1.60467e-09
5.20286e-10
1.084384e-09
-1.847309e-09
2.217065e-09
-4.641882e-09
2.424817e-09
-1.643818e-09
2.639351e-10
1.379883e-09
-3.88082e-10
1.740133e-09
-1.352051e-09
1.099746e-09
5.811103e-10
-1.680857e-09
8.325394e-10
-1.992904e-09
1.160364e-09
1.375319e-09
-2.057361e-09
6.820415e-10
-8.949984e-10
1.734543e-09
-8.395442e-10
8.61741e-10
-1.98961e-09
1.127869e-09
-9.947253e-10
1.522627e-09
-5.27902e-10
7.38499e-10
-1.87814e-09
9.828239e-12
-5.269643e-10
2.422236e-09
4.916598e-10
1.423926e-09
-1.915586e-09
-1.787009e-09
1.011167e-09