/*--------------------------------*- C++ -*----------------------------------*\
| =========                 |                                                 |
| \\      /  F ield         | OpenFOAM: The Open Source CFD Toolbox           |
|  \\    /   O peration     | Version:  2406                                  |
|   \\  /    A nd           | Website:  www.openfoam.com                      |
|    \\/     M anipulation  |                                                 |
\*---------------------------------------------------------------------------*/
FoamFile
{
    version     2.0;
    format      ascii;
    arch        "LSB;label=32;scalar=64";
    class       volVectorField;
    location    "0.56";
    object      U;
}
// * * * * * * * * * * * * * * * * * * * * * * * * * * * * * * * * * * * * * //

dimensions      [0 1 -1 0 0 0 0];

internalField   nonuniform List<vector> 
4541
(
(0.010037 -8.322455e-05 1.058402e-23)
(0.01060588 -0.0007152106 -3.120163e-24)
(0.01090319 -0.001739991 0)
(0.01057713 -0.001662587 0)
(0.01032526 -0.0007682289 -2.996818e-24)
(0.009424412 -0.001016026 0)
(0.01022401 -0.0009104137 9.478658e-24)
(0.01025683 -0.0007367566 -2.312409e-23)
(0.009295874 -0.0006349129 1.401972e-23)
(0.01152096 -0.0001915769 3.038229e-24)
(0.009351175 -0.00117618 1.591227e-23)
(0.01031671 -0.001264993 -9.105363e-24)
(0.01110579 -0.0007347754 6.424695e-24)
(0.01000396 -0.0004666819 1.798153e-24)
(0.01065785 -0.001845916 0)
(0.01139989 0.0002667405 -6.056837e-27)
(0.01008801 0.001179561 2.659926e-24)
(0.00912628 0.001349047 -1.398529e-24)
(0.009674326 0.00118657 -8.366095e-24)
(0.01029256 -0.00224244 3.482784e-24)
(0.01015368 -0.0003635015 0)
(0.01049971 -0.001027682 -1.070609e-23)
(0.01133217 0.0004400098 0)
(0.008342316 -0.0006406054 4.062108e-23)
(0.01047005 -0.001849566 0)
(0.01023743 -0.0007742406 7.328393e-24)
(0.01002127 -0.0005890709 -4.48657e-24)
(0.01019112 -0.0005941002 4.416632e-24)
(0.009327942 -0.0004324745 5.112083e-24)
(0.01113265 -0.0008518367 0)
(0.01006205 -0.0004570632 -1.951212e-23)
(0.01000646 -0.0005063291 -2.124566e-24)
(0.01145594 -0.0001643685 -1.317023e-24)
(0.009677641 -0.0006180456 -8.135924e-24)
(0.01070207 -0.001357556 0)
(0.01085424 -0.0002098511 0)
(0.01091616 -0.00165947 0)
(0.01123927 -0.001167253 -1.206032e-24)
(0.009956668 -0.0004882267 -3.531298e-23)
(0.00859071 0.001372807 3.895707e-24)
(0.01092146 -0.000258458 0)
(0.009144634 -0.0004698288 -1.053441e-23)
(0.01078635 -0.000686293 -2.27763e-24)
(0.01128565 1.885419e-05 -4.133101e-25)
(0.01120695 -0.0006763571 5.943716e-24)
(0.01151909 -0.0002194834 -3.187342e-24)
(0.01123155 -0.001081665 5.399223e-24)
(0.008165336 0.001294248 0)
(0.01057516 -0.002005481 0)
(0.01011304 -0.0007406575 1.434311e-25)
(0.009892823 -0.0009940744 0)
(0.01120541 0.0002947806 0)
(0.01035567 0.001122328 9.144475e-25)
(0.01005778 -0.0007216188 2.816986e-24)
(0.01069082 0.0009422998 -1.445016e-24)
(0.009791793 -0.001541517 2.065198e-23)
(0.0100176 -0.0001597922 6.20604e-24)
(0.009679879 -0.0001833291 2.234411e-24)
(0.01094444 0.0002193103 4.806627e-24)
(0.01072603 -0.001218503 4.505032e-24)
(0.009940652 -0.0006480287 0)
(0.0107989 -0.001004407 0)
(0.009860172 0.0008537532 0)
(0.006709182 -0.001848792 -8.388081e-24)
(0.009193511 -0.001349183 4.806361e-23)
(0.009263308 -0.002492843 -7.841335e-24)
(0.009837417 -0.0006142635 -9.134298e-24)
(0.01130601 -0.0005779227 1.040024e-23)
(0.01127809 0.0004246557 -4.394524e-25)
(0.009449519 0.0005312938 0)
(0.01041273 0.0008471057 3.558563e-24)
(0.01133896 -3.61302e-05 7.738383e-25)
(0.0101665 -0.0007992079 0)
(0.01154456 -0.0005862284 6.276517e-25)
(0.009555551 -0.0004505777 2.52695e-23)
(0.01147806 -0.0006367741 4.321085e-25)
(0.009888259 0.001243904 -1.828897e-24)
(0.008076677 0.001381166 -5.898426e-25)
(0.01111318 -0.001537661 2.081737e-24)
(0.009835399 -0.0002477475 -1.921177e-23)
(0.01031524 0.000311096 0)
(0.01087217 -0.001766648 -2.65566e-24)
(0.009797649 -0.0009081365 2.044795e-25)
(0.01145325 -0.000736108 4.019829e-24)
(0.01002558 -0.0002689639 0)
(0.01054902 -0.001399122 7.113037e-24)
(0.01079336 -0.001220688 0)
(0.009721309 0.0001736889 1.485009e-23)
(0.01015443 0.001062249 -2.985455e-24)
(0.01140532 0.0001844699 0)
(0.01008344 -0.0001539539 -1.165422e-23)
(0.009232527 0.0007477684 -9.694061e-24)
(0.008356021 0.001364973 0)
(0.01001204 0.00121344 0)
(0.01010999 -0.001133192 1.859669e-23)
(0.007998992 0.001398856 5.586439e-24)
(0.01034516 -0.001926966 6.445322e-24)
(0.01071918 -0.0007191217 -5.046413e-24)
(0.01044637 -0.0008024226 -1.772324e-23)
(0.01038771 -0.001159638 -4.2302e-24)
(0.01009344 -0.001478926 1.048812e-23)
(0.01066723 -0.0002120138 0)
(0.009676645 -0.0005575534 -8.00003e-24)
(0.01104823 -0.0005762106 -2.080983e-24)
(0.0111726 6.308237e-05 3.70467e-24)
(0.009878514 -0.001424605 -3.63403e-23)
(0.008319728 0.001338094 4.058032e-24)
(0.01103755 -0.0004261398 -1.383659e-23)
(0.010894 -0.0009834433 -6.070348e-24)
(0.01145965 -0.0009007126 -2.003261e-24)
(0.01040153 -0.000693938 4.050311e-24)
(0.009985527 -0.0001596657 -2.212891e-23)
(0.01142246 -0.0001046458 0)
(0.01112834 0.0005510649 -1.263398e-25)
(0.009850946 -0.0004712803 4.88887e-26)
(0.009787291 -0.00178489 -1.617199e-23)
(0.01005842 -0.0009683456 0)
(0.01024042 0.001082836 0)
(0.009964539 -0.0008912896 2.315837e-23)
(0.009106313 -0.0006726834 1.944782e-23)
(0.01119907 0.0001443782 2.674926e-24)
(0.01124843 0.0004271105 0)
(0.008723251 -0.002225475 -1.441063e-23)
(0.01109054 -0.0002114566 6.254257e-24)
(0.01062861 0.001018523 1.791189e-24)
(0.01086339 -0.0009095502 0)
(0.008072292 -0.001803864 0)
(0.007608124 -0.002237716 2.468693e-23)
(0.01054946 -0.0007826863 -1.492728e-24)
(0.009161011 -0.001287531 3.317927e-25)
(0.009529353 -0.0006596887 9.608325e-24)
(0.01041841 -0.00146469 6.766334e-24)
(0.0100941 -0.0008045298 2.259137e-23)
(0.01092003 -0.0009141506 -7.044633e-24)
(0.01011664 -0.002308055 -2.146569e-24)
(0.006824029 -0.001269559 0)
(0.01154371 -0.000251877 2.027276e-24)
(0.01018767 -0.0007052454 -9.236363e-26)
(0.008912125 -0.00191218 4.924809e-24)
(0.01128553 -0.0007116486 -3.356242e-24)
(0.01012558 -0.0007340415 8.240769e-24)
(0.009715153 0.001260672 2.259254e-24)
(0.009266635 -0.0008692111 -1.47631e-23)
(0.01019056 0.001166005 -1.545948e-24)
(0.01091093 -0.001152882 -4.572776e-24)
(0.008977711 -0.001929 3.967366e-24)
(0.009054284 -0.0008745579 -1.253753e-23)
(0.009974617 -0.0003877912 0)
(0.01067098 -0.0007630862 0)
(0.009784722 -0.0004536224 -5.337479e-24)
(0.01082722 0.0008858487 5.079361e-26)
(0.01099037 -0.001620526 -3.966755e-24)
(0.0100524 -0.00117723 0)
(0.01057412 -0.001815928 2.256635e-26)
(0.01030384 -0.0007853083 -6.674169e-24)
(0.009367947 -0.0006383357 0)
(0.009312948 -0.001002029 7.865962e-24)
(0.008851738 0.001330865 -1.034129e-23)
(0.009996534 -2.431332e-05 -1.392031e-23)
(0.01132735 -0.001008671 3.922376e-24)
(0.01004278 -0.0009930315 -1.693887e-23)
(0.01038849 -0.001077655 -9.727771e-25)
(0.008837 -0.001342576 -2.858775e-25)
(0.009897034 0.001033418 1.133533e-23)
(0.01148336 -0.0003608038 3.5028e-24)
(0.01137499 0.0003588107 0)
(0.009214356 -0.001686911 0)
(0.01074022 -0.001485468 8.113783e-24)
(0.00934176 -0.002595861 9.857894e-24)
(0.009782451 -0.000377621 -2.166484e-23)
(0.009716075 -0.000389746 -1.230287e-23)
(0.01102185 0.0007161871 0)
(0.01012704 0.0005124176 0)
(0.01111457 0.0006631862 1.23812e-25)
(0.01059138 0.001031943 0)
(0.01116554 -0.0008795793 -4.839771e-24)
(0.007998594 0.001302397 0)
(0.0102696 -0.001130951 6.237481e-24)
(0.01071345 -0.001823151 -4.67228e-24)
(0.00954366 -0.0005195627 8.547394e-24)
(0.01086628 0.0007756358 -3.290072e-24)
(0.007278836 -0.002302808 -1.63365e-23)
(0.01156599 -0.0004428206 1.355314e-24)
(0.01024241 -0.0006081591 1.600046e-23)
(0.01026471 -0.002161273 0)
(0.01143771 0.0002648556 -1.978804e-25)
(0.01110102 -0.0004592558 4.953076e-24)
(0.009830899 -0.0006743628 -3.207988e-23)
(0.01145632 -0.0002734768 0)
(0.009677602 -0.0004613342 5.36564e-24)
(0.01055819 -0.001304856 0)
(0.01077666 -0.00115063 0)
(0.01115902 0.0005579197 -2.35894e-26)
(0.01149964 -0.0002658431 7.65558e-26)
(0.0105601 0.0008860252 -4.047122e-24)
(0.01129944 -0.0005107531 0)
(0.01011062 -0.001264478 -9.342486e-24)
(0.008432857 0.001366199 -3.962865e-24)
(0.007981842 0.001381529 -7.239338e-24)
(0.01047207 0.001084764 -1.739235e-24)
(0.01149483 -0.0008375628 -2.709366e-25)
(0.007534985 -0.001118888 -1.810538e-25)
(0.01027028 -0.0009737046 -9.508625e-24)
(0.01130388 0.0004553422 0)
(0.0112482 5.940443e-05 2.932793e-24)
(0.01112662 0.0006871328 0)
(0.009836226 -0.00162026 -1.13513e-24)
(0.01063202 0.0009623601 0)
(0.01012864 -0.001385137 0)
(0.01107054 -0.001132209 -3.248131e-24)
(0.01004801 -0.0005410439 0)
(0.01003758 0.0007857849 0)
(0.010912 -0.001094825 0)
(0.01001186 -0.002325681 -8.039373e-24)
(0.00854503 -0.001030572 2.236466e-23)
(0.0104196 -0.001343142 0)
(0.0113567 0.0002100067 -1.220901e-24)
(0.01073073 -0.0008258844 0)
(0.007821106 -0.001891915 -2.38979e-23)
(0.008657435 -0.001872718 -1.438452e-24)
(0.006106065 -0.001068289 5.104945e-23)
(0.01149096 8.24053e-05 1.612875e-25)
(0.009676352 -0.0006809329 -2.238223e-23)
(0.009970624 -0.001476115 -7.198352e-24)
(0.01157497 -0.0002907036 4.561144e-24)
(0.00999506 -0.0005616556 0)
(0.0114597 3.381458e-05 -3.342409e-25)
(0.01148409 0.0001678243 -6.123313e-26)
(0.01023898 0.001160848 0)
(0.009878752 -0.0002722621 0)
(0.01041334 -0.001030312 -3.042506e-26)
(0.01022439 -0.0005237661 6.27485e-24)
(0.01146144 0.0001959753 4.323263e-25)
(0.009587035 -0.0006209333 1.851515e-23)
(0.007457508 -0.002483905 0)
(0.008335927 0.001188151 0)
(0.01036749 -0.001864798 1.843743e-24)
(0.01108198 -0.0005850818 1.724593e-24)
(0.009999576 -0.0003387149 -1.492448e-23)
(0.009861067 -0.0007062358 -2.15312e-23)
(0.01020714 -0.0005039148 2.019432e-23)
(0.01056603 0.001030616 1.338839e-24)
(0.009945084 -0.002416128 -6.440301e-24)
(0.009720761 -0.0007743998 0)
(0.009758911 -0.001009443 0)
(0.01021536 -0.0005793817 2.040895e-23)
(0.01039279 -0.0009341952 1.491204e-23)
(0.0107144 -0.001055958 2.247739e-24)
(0.01034561 0.000579877 2.658124e-24)
(0.01024584 -0.0004542547 -1.068896e-23)
(0.01000429 -0.0005721676 0)
(0.00902358 -0.0009940586 5.100148e-24)
(0.01104403 0.0007416694 4.638576e-25)
(0.0114901 7.382907e-05 0)
(0.009393645 -0.001494972 0)
(0.01032447 -0.0003238075 0)
(0.009642856 -0.0006828286 1.620089e-23)
(0.01075214 0.000937595 -8.225143e-25)
(0.01009741 0.001187395 2.047116e-24)
(0.01125767 0.0005139861 -2.61482e-25)
(0.009609617 -0.0005263145 -2.450842e-23)
(0.01029419 -0.0009442118 -4.451392e-24)
(0.01144583 8.647166e-05 1.932012e-24)
(0.007490694 -0.00154308 0)
(0.01017783 -0.000788784 1.104114e-23)
(0.009244717 -3.447908e-05 4.176993e-24)
(0.01017123 -0.0005967681 8.395649e-25)
(0.008300051 0.001346411 0)
(0.01141935 -0.00052973 2.881643e-24)
(0.009855598 0.001128886 -5.63028e-24)
(0.00983109 0.0003284536 -1.34166e-23)
(0.01102168 -0.0008988421 -8.976434e-24)
(0.009333587 -0.0007043345 1.176879e-23)
(0.009888465 -0.0008048027 -1.029116e-23)
(0.01150807 7.06e-05 1.868586e-24)
(0.01136592 0.0004011243 1.480856e-25)
(0.00819679 -0.002750207 -1.213996e-23)
(0.009659844 0.001292285 5.631271e-24)
(0.01081369 -0.001734868 1.048864e-23)
(0.01057668 -0.001667055 -9.633528e-24)
(0.009962711 -0.001887127 1.641089e-23)
(0.01000977 0.001161835 0)
(0.01012117 -0.0001598215 1.106256e-23)
(0.01117809 -0.001128168 0)
(0.01085191 0.0008987466 -2.104413e-24)
(0.01124555 -0.0008397719 -1.35064e-25)
(0.01080706 -0.0002345723 5.817576e-24)
(0.009390308 0.001322078 4.742197e-24)
(0.009962767 0.000368915 0)
(0.008458495 0.001377552 4.960849e-24)
(0.01013561 -0.0008838256 6.64742e-24)
(0.01018704 -0.000721013 9.159406e-24)
(0.009344177 -0.001061402 0)
(0.008907117 0.001320052 1.155156e-23)
(0.009705557 0.001090803 3.361273e-24)
(0.01017962 -0.0006653595 7.029521e-24)
(0.009871663 -0.001494763 -1.763363e-23)
(0.01012371 -0.0004550114 4.399758e-24)
(0.00917926 0.001340284 0)
(0.01133697 -0.0004305574 -1.928324e-24)
(0.01094755 0.0007740694 -2.954009e-24)
(0.009676286 -0.001297867 -2.3612e-23)
(0.01029401 -0.0006083652 0)
(0.01135805 -0.001090853 -8.547807e-24)
(0.0112634 -0.000667246 1.195317e-23)
(0.008654529 -0.000699484 5.876504e-26)
(0.008930457 -0.0007477209 2.086745e-23)
(0.00931723 0.001333752 -4.45348e-24)
(0.01067378 0.0009859934 8.04984e-25)
(0.01071252 0.0009418298 4.388071e-24)
(0.01104632 -0.001072711 -6.995012e-25)
(0.01147 -0.0002043421 1.327609e-24)
(0.009977246 -0.0003463121 -1.104918e-23)
(0.01154722 -5.68751e-05 0)
(0.008779172 -0.002485263 2.613415e-23)
(0.009878475 -0.0002001302 0)
(0.01074168 0.0009559121 0)
(0.009157663 -0.0005178025 0)
(0.01131623 0.0004569701 0)
(0.006913703 -0.000603568 0)
(0.01156895 -0.0004945727 0)
(0.009133526 -0.001326943 -2.737798e-24)
(0.01145429 0.0001342042 1.20749e-24)
(0.01060187 -0.0007744402 -1.555472e-23)
(0.009447194 -0.002080375 -2.082209e-23)
(0.01008401 -0.0006888161 6.606744e-24)
(0.01108381 -0.0001946026 -1.771444e-25)
(0.01043089 -0.001082523 9.650431e-24)
(0.01044199 -0.0008390292 8.94099e-27)
(0.009733285 -0.001059392 1.342958e-23)
(0.0103742 -0.0006050241 -1.371089e-24)
(0.01123523 0.0005180085 1.630263e-24)
(0.01115773 0.0004977935 0)
(0.0101895 -0.0009982795 -1.242657e-23)
(0.01030799 -0.0009251505 2.994978e-24)
(0.01008841 -0.002024871 9.739405e-24)
(0.009198607 -0.001933392 0)
(0.009420162 -0.001969524 -2.284695e-23)
(0.01150214 0.0001250011 2.684723e-25)
(0.01136541 -0.0001387115 0)
(0.0102631 -0.0009938016 0)
(0.008918111 -0.002484912 0)
(0.009684165 -0.0008884054 6.466731e-24)
(0.01025529 -0.0004892213 0)
(0.007160782 -0.00154774 -1.4715e-23)
(0.01113001 -0.00153266 -2.564824e-24)
(0.01142692 -6.879526e-06 4.239318e-24)
(0.01066941 -0.001398702 9.177309e-24)
(0.01094193 0.0008347108 1.005234e-24)
(0.01064443 -0.0018581 7.207115e-25)
(0.01116433 0.0005437261 2.528072e-24)
(0.01146714 -0.0005116137 -2.970981e-24)
(0.01095281 0.0001127584 0)
(0.01002494 -0.0006789485 -1.489843e-23)
(0.01076746 0.0007206448 1.364816e-24)
(0.01047519 -0.00085859 0)
(0.009283854 0.00132826 0)
(0.01053513 0.001035895 0)
(0.01008282 -0.0004911871 -7.87664e-24)
(0.01131821 0.0004643262 -1.039992e-25)
(0.01001585 -0.0003934862 -3.747805e-25)
(0.01092368 -0.001168958 0)
(0.01139918 -0.0009742679 2.612167e-24)
(0.01008605 -0.0004279238 4.9664e-24)
(0.01121303 -0.0005331965 2.02544e-24)
(0.008833218 0.001322573 -1.213021e-24)
(0.01055035 -0.002002487 -6.041071e-24)
(0.0100062 -0.0007297241 1.357182e-23)
(0.01061584 -0.0003264575 -4.486783e-24)
(0.01095655 0.0006187399 0)
(0.01069089 0.000888382 4.530339e-24)
(0.006860051 -0.001733494 -1.365652e-23)
(0.009369144 -0.0006359376 -7.443281e-25)
(0.01001008 0.0009659352 -5.680765e-24)
(0.01076099 -0.001096026 0)
(0.01001469 -0.002234547 0)
(0.0104573 -0.001063556 -9.618964e-26)
(0.01016013 -0.001218773 1.130357e-23)
(0.01145032 -0.0009772695 -5.138519e-25)
(0.0104618 -0.001480224 1.391509e-23)
(0.009895023 -0.0006959738 0)
(0.01055454 0.0004518139 -4.83247e-24)
(0.008681952 0.001367 5.741871e-24)
(0.01131951 0.0003730137 -4.76701e-25)
(0.009997419 0.0005522912 -8.85153e-24)
(0.007660407 -0.002729368 1.435581e-23)
(0.01042061 0.001103555 0)
(0.01121333 -0.001216317 2.710439e-25)
(0.009641189 -0.001030242 -1.692243e-23)
(0.009855601 -0.000635496 1.711237e-23)
(0.01151439 -0.0007983939 1.78701e-24)
(0.01143656 -0.0009670594 -4.512932e-25)
(0.008165962 0.001330874 0)
(0.009743953 -0.0002902368 -3.255694e-23)
(0.01039471 -0.0007329608 8.846845e-24)
(0.009612534 -0.0008942707 3.477282e-24)
(0.009761698 -0.0005943573 2.178538e-26)
(0.01031028 0.001032762 4.160934e-24)
(0.01116413 -0.0005298234 -1.034773e-23)
(0.01037835 -0.0006439422 0)
(0.01147575 -0.0008030035 -1.466275e-24)
(0.01133904 -0.001169774 -8.421655e-25)
(0.01008108 -0.0009805285 0)
(0.01012269 -0.001552555 7.586795e-24)
(0.009445377 -0.0005525334 -1.495214e-23)
(0.01074682 0.0002316444 -9.331712e-25)
(0.01045481 0.0005363602 1.3745e-23)
(0.01142985 -0.000752213 -2.183303e-24)
(0.01121576 0.0003724617 0)
(0.01058485 -0.0007380346 7.691684e-24)
(0.01133319 -0.0008404752 2.425623e-24)
(0.009189359 0.001303199 0)
(0.01080203 -0.0009138948 0)
(0.009003497 -0.002249467 0)
(0.009590107 -0.001267237 1.410447e-23)
(0.01126875 -0.0007646013 1.045575e-23)
(0.01142134 0.0001804705 2.190659e-24)
(0.01146328 -0.0009586587 2.628659e-24)
(0.01114638 -0.0008044254 -2.129485e-24)
(0.01102203 -0.001671569 -5.156481e-24)
(0.008538418 -0.001462011 0)
(0.008061062 -0.001022768 -3.476006e-23)
(0.01121301 0.0003912619 1.389032e-24)
(0.009638426 -0.0002897177 2.047341e-23)
(0.009815654 -0.001218074 -1.550796e-23)
(0.01113856 -0.001422345 -1.238334e-24)
(0.01096347 -0.001588682 2.98134e-24)
(0.01123516 -0.001297032 4.182062e-24)
(0.01003131 -0.0008784743 1.288456e-23)
(0.008872701 -0.002734047 0)
(0.01151877 4.360557e-05 -9.376888e-25)
(0.009496293 -0.001196159 0)
(0.01050344 -0.002115063 0)
(0.01080469 0.0009203743 8.450858e-25)
(0.01119876 -1.780332e-05 -3.595186e-25)
(0.009988291 -0.0009392614 -6.606658e-24)
(0.0110749 -0.0007152175 2.805278e-24)
(0.008707077 -0.001410934 -5.765221e-24)
(0.01075151 -0.001161381 -7.64464e-24)
(0.01093823 -0.0007857771 3.189391e-24)
(0.01026563 0.001090905 3.38106e-24)
(0.009665448 -0.0003835909 2.2089e-23)
(0.01058855 -0.001737296 1.49928e-23)
(0.009085564 -0.0002189704 -1.43909e-23)
(0.01034436 -0.001154864 4.161662e-24)
(0.01011358 -0.002137872 8.664917e-24)
(0.01120782 -0.0006244583 1.380158e-23)
(0.008073756 -0.002122166 0)
(0.01010541 -0.0007026575 -1.574651e-23)
(0.01108966 -7.909991e-06 0)
(0.0115084 -0.0007815176 -1.798662e-24)
(0.01013612 -0.0005876272 0)
(0.009818855 0.001260633 0)
(0.01128259 0.0003344104 -6.984746e-26)
(0.01143983 0.000186565 0)
(0.009983511 -0.000511846 2.656716e-23)
(0.009855696 -0.00156269 0)
(0.01042501 -0.001158798 0)
(0.009526197 -0.001389802 -1.474149e-23)
(0.009877533 -0.001264117 1.754804e-23)
(0.01043236 0.0007694455 5.114086e-24)
(0.01148891 0.0001078851 8.615261e-27)
(0.0100551 -0.001602583 9.627488e-24)
(0.010667 0.0009336945 0)
(0.0110455 -0.00155928 3.555588e-24)
(0.01019551 0.001068112 -4.279291e-24)
(0.01111928 0.000159433 -2.118628e-24)
(0.01093901 -0.001198531 -1.466826e-23)
(0.008878034 -0.001632072 1.731875e-25)
(0.01033579 -0.002112482 0)
(0.01148757 -0.0005055947 3.658316e-24)
(0.0114898 -0.0001620415 1.349706e-25)
(0.0114578 -0.000608795 0)
(0.008835085 -0.000626965 -2.807546e-23)
(0.0105098 -0.0007146039 0)
(0.01143714 0.0001999632 0)
(0.008626062 0.00119495 -1.004561e-23)
(0.01015061 -0.0007840534 4.550167e-24)
(0.01006084 -7.15526e-05 -1.747985e-23)
(0.01013788 -0.0003682027 0)
(0.01122407 0.0004023298 0)
(0.008054902 0.001390248 3.528854e-25)
(0.01032679 -0.0008202392 5.517871e-24)
(0.008088665 -0.002819814 9.258749e-24)
(0.01155267 -0.0005203119 1.130522e-24)
(0.009623249 -0.0007114801 1.591927e-23)
(0.009943939 -0.0009036034 -1.54078e-23)
(0.01029707 -0.001619813 -1.14758e-23)
(0.009795856 -0.0001724273 -1.254787e-23)
(0.009682981 -0.0001179828 -5.851366e-26)
(0.01017723 -0.0002847632 0)
(0.0115291 2.716096e-05 0)
(0.01141195 -0.001002334 -1.422659e-25)
(0.01135009 -5.346014e-05 -3.148452e-24)
(0.01061856 -0.0006362856 -1.161746e-23)
(0.007794516 -0.0005891791 1.175797e-23)
(0.01004918 -0.00036816 7.863245e-24)
(0.009681576 -0.0005045582 0)
(0.01101172 -0.00166815 8.15896e-24)
(0.01086594 -0.0008013081 0)
(0.01013937 -0.002055165 1.060491e-23)
(0.01026421 -0.0005513192 9.202128e-24)
(0.01007897 -0.0005157791 1.48841e-23)
(0.008729996 -0.0005480352 1.104989e-23)
(0.01109028 0.0006825515 2.700774e-26)
(0.01042539 -0.0006009345 7.901611e-24)
(0.009651021 -0.001569398 -2.365032e-23)
(0.0109974 -0.001516302 -2.334771e-24)
(0.01003977 -0.0003434317 -3.330434e-25)
(0.009937348 -0.002250835 0)
(0.01030612 0.0008204442 -4.436881e-24)
(0.01154082 -0.0003539206 -1.026386e-24)
(0.0109146 0.0008438519 8.97614e-25)
(0.01031897 -0.001861405 7.622361e-24)
(0.01028902 -0.001671118 0)
(0.00996676 0.0002926069 0)
(0.01130142 0.0003819617 0)
(0.01011758 -0.0005718059 2.608718e-23)
(0.01112924 0.0006005852 -2.596811e-26)
(0.008776325 -0.002743417 -2.074545e-23)
(0.0100645 -0.000704784 0)
(0.01136109 -1.762974e-05 0)
(0.008830455 -0.002145597 0)
(0.008477948 -0.002750535 0)
(0.009752142 -0.00194151 -3.02503e-23)
(0.009365203 -0.002223627 0)
(0.009635468 -0.00163973 5.346777e-24)
(0.01012274 -0.0002934923 4.799669e-24)
(0.01014477 -0.0006570502 8.75208e-24)
(0.01025285 -0.0009044256 8.748274e-24)
(0.0103463 -0.001738823 -1.34787e-23)
(0.005832018 -0.001211243 3.078367e-23)
(0.01068161 -0.001322175 2.546801e-25)
(0.01128987 -0.0003130928 0)
(0.01135949 0.0003536793 0)
(0.009953377 -0.0008045555 0)
(0.01134536 -0.0003446577 8.065833e-25)
(0.01037909 -0.001408485 4.890711e-24)
(0.01018446 -0.000633604 -1.196999e-23)
(0.008098174 -0.0009190303 2.338487e-23)
(0.01129824 0.0003620793 -1.699682e-24)
(0.01078576 -0.0009643136 0)
(0.01042839 -0.001687044 0)
(0.009293126 -0.0007528521 -2.166036e-23)
(0.008206423 -0.0008959776 -2.185486e-23)
(0.009994894 -0.0003877066 -7.532944e-24)
(0.01082755 0.0005217696 3.479579e-24)
(0.01009284 -0.000367883 5.238375e-24)
(0.006188739 -0.002388085 -5.62278e-23)
(0.008314438 -0.002573101 -2.740252e-23)
(0.01090054 -0.0007183836 -5.269704e-24)
(0.01016904 -0.0005324016 3.667369e-24)
(0.01078818 -0.001101893 5.469042e-24)
(0.009624822 -0.000206936 -3.689497e-23)
(0.0112831 0.000202417 -2.841022e-24)
(0.009990339 -0.0002835381 9.281311e-24)
(0.008548758 -0.002756863 -1.667184e-23)
(0.01124667 0.0005499553 1.088299e-26)
(0.01097691 -0.0007551478 -6.138186e-24)
(0.009638574 -0.001057123 1.587803e-23)
(0.01142461 -0.0009379659 -5.058648e-24)
(0.00993238 -0.001129322 0)
(0.01085577 -0.001511496 -5.70835e-24)
(0.008470056 -0.0007355969 0)
(0.01050497 -0.0008346806 0)
(0.009028884 0.001331032 0)
(0.0113019 -0.0005313033 -1.491948e-24)
(0.01093333 -4.696122e-05 0)
(0.01089753 -0.0008584809 -2.216146e-24)
(0.01065766 0.0004099415 4.327474e-24)
(0.01095433 0.0006045562 -2.573626e-24)
(0.01146695 -9.167558e-05 -7.573612e-25)
(0.00798522 -0.002488219 -2.842833e-24)
(0.01023514 -0.0007543266 -1.272019e-23)
(0.01138181 0.0003770055 -5.473557e-28)
(0.01078401 0.0009333237 0)
(0.01102857 0.00076327 0)
(0.01087043 0.0008851929 2.807402e-24)
(0.01096616 0.0008198787 7.02086e-25)
(0.0112157 -0.0007861884 0)
(0.01127638 -0.001147363 4.665064e-24)
(0.01000856 -0.0001555324 -9.228466e-24)
(0.01148899 -0.0001542169 4.872458e-25)
(0.01148562 -0.0001992753 0)
(0.01012866 -0.0005539116 5.384908e-24)
(0.01152167 -0.0001344576 0)
(0.01017174 0.001130684 -3.165013e-24)
(0.008940053 -0.0009076502 0)
(0.01059029 -0.000674944 9.888708e-24)
(0.01004128 -0.0007887505 1.201486e-24)
(0.01004809 -0.0006062561 1.305479e-24)
(0.009870593 0.001239135 3.403351e-24)
(0.01060183 0.001021226 4.787043e-25)
(0.01005272 -0.001719983 1.195972e-25)
(0.009736122 -0.001752045 3.753348e-23)
(0.01043765 -0.002138865 -5.667572e-24)
(0.01112225 0.0001824998 -1.112446e-24)
(0.009228006 -0.0009194629 2.83462e-23)
(0.01140244 -0.0008535324 -5.96526e-24)
(0.01003309 -0.0003581858 1.03881e-23)
(0.01003969 -0.0004064831 -1.079718e-23)
(0.01139453 0.0002749863 9.073119e-25)
(0.01074089 -0.0003780231 7.77038e-24)
(0.01051152 0.001067661 2.070069e-24)
(0.01006439 0.001204794 0)
(0.01114409 0.0002697831 -4.994232e-25)
(0.01096232 -0.001334204 0)
(0.01042852 -0.0008521345 1.010906e-23)
(0.01011673 -0.001025803 -7.759209e-24)
(0.009765322 0.001274529 0)
(0.009758231 -0.0007257123 1.896845e-23)
(0.01005669 -0.0006274917 0)
(0.009309685 0.0003718858 -5.338604e-24)
(0.01144469 0.0001518895 -5.716384e-25)
(0.01018859 -0.0009052189 0)
(0.0102133 -0.0007329472 -2.077524e-23)
(0.009956672 -0.001320697 0)
(0.01116765 0.0004997976 -4.153017e-25)
(0.01075489 -0.0009047253 -5.165659e-25)
(0.009685003 -0.000735577 0)
(0.008953524 -0.0009805188 5.954249e-25)
(0.0110716 0.0002651449 0)
(0.01000435 -0.0006521655 2.552345e-24)
(0.009630913 -0.0006506548 -2.54063e-23)
(0.009861786 -0.0005796418 0)
(0.01122782 0.0003475322 -1.182474e-24)
(0.008484945 0.001356856 -3.95285e-24)
(0.008454454 -0.0004573573 1.205869e-23)
(0.009885556 -0.0004238486 -1.335221e-23)
(0.009472033 -0.0007065201 2.344366e-23)
(0.01079091 0.0009193289 -9.73395e-25)
(0.0108257 0.0008978105 0)
(0.01097908 -0.0007072112 2.10511e-24)
(0.008562033 -0.002644749 9.004235e-24)
(0.01143316 0.0001217161 -1.028249e-24)
(0.01099223 -0.001296401 0)
(0.009118191 0.001284601 -1.153454e-23)
(0.01086124 -0.001073001 1.205026e-23)
(0.01143203 0.0002550453 9.723239e-26)
(0.0102575 -0.001238676 -7.343946e-24)
(0.009663698 0.0006647931 4.50506e-24)
(0.009944338 -0.0004713389 9.994904e-24)
(0.009966358 -0.001108743 0)
(0.01123435 0.0004825714 6.517357e-25)
(0.01143741 0.0001211871 7.757425e-25)
(0.01039051 -0.0008784854 0)
(0.01030291 -0.0008249647 1.480079e-23)
(0.009497141 -0.000590078 -2.726073e-23)
(0.009649325 -0.0005609157 -5.662994e-26)
(0.01050244 -0.0009237456 -3.651039e-25)
(0.01121297 0.0006019622 -5.354721e-25)
(0.01113942 -0.001396153 1.627118e-24)
(0.01059365 0.000892292 0)
(0.01036119 -0.000219806 0)
(0.01132693 0.0002147207 -2.241513e-24)
(0.01018903 -0.0003751535 -1.019762e-23)
(0.009557809 -0.0002711123 -2.681556e-23)
(0.01129315 0.0002371202 7.485346e-26)
(0.00996303 -0.0009890833 0)
(0.01060885 -0.0004344326 0)
(0.01124329 2.031206e-05 -1.152708e-24)
(0.01107934 -0.001341982 1.693514e-24)
(0.01009475 0.001202531 -2.452009e-24)
(0.01126342 -0.001217947 -3.522763e-25)
(0.009928767 -0.0004956738 0)
(0.01000011 -2.989687e-05 0)
(0.01145608 -0.0002589682 0)
(0.01146511 -0.0004851093 4.953026e-26)
(0.009735583 -0.00032504 2.853546e-23)
(0.009632212 -0.0003209357 -3.708237e-23)
(0.01049168 -0.001111342 -2.703695e-23)
(0.011412 -0.001030763 2.678681e-24)
(0.01116827 -0.0002476842 -3.043199e-24)
(0.0113739 -9.192927e-05 1.952964e-24)
(0.01115651 -2.072086e-05 -4.820192e-24)
(0.011314 -0.0006654479 9.078257e-24)
(0.01155449 -0.0006089808 -2.672439e-24)
(0.01149511 -0.0006226086 3.746552e-24)
(0.009886266 -0.0001271118 0)
(0.009423759 -0.0003247385 -1.624458e-23)
(0.01152311 -1.404892e-05 -1.401284e-24)
(0.009874251 -0.0004560334 1.297653e-23)
(0.01025343 0.000910162 0)
(0.0111615 0.0005844018 0)
(0.009998737 -0.0006228627 9.616423e-24)
(0.009969956 -0.0005778098 5.547998e-26)
(0.01007063 -0.0002222074 -1.809074e-23)
(0.009852593 -0.0008251868 1.628871e-23)
(0.01017487 -0.001058754 2.714956e-23)
(0.009522581 -0.000944805 1.554818e-23)
(0.009532996 -0.0008935797 -4.185945e-23)
(0.009339883 0.001035551 -1.176323e-24)
(0.008768694 0.000877727 9.672145e-24)
(0.00996739 0.001233058 2.558398e-24)
(0.01040196 0.000905505 0)
(0.01050482 0.001028013 0)
(0.01120733 0.0006019766 -5.442973e-25)
(0.01120965 0.0005965789 -1.697572e-24)
(0.01010938 0.001178772 -2.431544e-24)
(0.009887651 -0.001032286 7.141112e-24)
(0.01017098 -0.0005799977 -3.770416e-24)
(0.01009917 -0.0005137008 1.600363e-26)
(0.01007467 -0.0005421274 8.866619e-24)
(0.0115615 -0.000537886 5.854262e-25)
(0.01066731 0.0009579512 1.041233e-24)
(0.01038489 -0.001624256 0)
(0.01048738 -0.0009682608 5.681123e-26)
(0.01046163 -0.0009272825 2.655048e-24)
(0.00990893 -0.0004596473 0)
(0.01106253 -0.0007308109 0)
(0.01132975 -0.0005044476 0)
(0.01019477 -0.0008014088 1.035255e-23)
(0.009833072 0.00126364 1.69441e-24)
(0.009670167 -0.001014918 0)
(0.01027802 0.001152787 0)
(0.01043648 0.001079943 2.690111e-24)
(0.01106268 -0.001164451 -3.407082e-26)
(0.01029357 -0.0003745196 0)
(0.008775423 -0.001597637 -2.724315e-23)
(0.009915044 -0.0009816645 0)
(0.01108077 0.0001985089 -1.826234e-25)
(0.01150568 8.904089e-06 -1.273143e-24)
(0.01149965 -4.160852e-05 0)
(0.01156737 -0.000247109 -3.179683e-25)
(0.01143219 0.0002371857 -1.062069e-25)
(0.01125925 0.0004804817 6.101015e-25)
(0.0112741 0.0005026824 0)
(0.01052747 -0.0006230421 -7.000159e-24)
(0.01145913 0.0001937385 -3.001491e-25)
(0.01156095 -0.0001432265 0)
(0.00984245 -0.000504712 -1.601093e-23)
(0.01001526 -0.0007762227 1.194209e-23)
(0.00999239 -0.0004479219 -1.974411e-24)
(0.01114199 -0.001478847 0)
(0.01093059 -0.001695801 -8.117123e-24)
(0.01150788 -0.0005217355 -2.313326e-24)
(0.0115131 -0.0005524119 2.245847e-24)
(0.01089142 -0.0009551266 1.051128e-23)
(0.01093748 -0.001160515 3.608334e-24)
(0.01007051 -0.0008402515 -1.120192e-23)
(0.007174616 -0.0009552154 0)
(0.01065006 -0.001040335 -5.954457e-24)
(0.01060341 -0.00109083 5.555742e-25)
(0.01043412 -0.0008805106 -8.018132e-24)
(0.010622 -0.0009741711 1.390093e-23)
(0.01113567 0.0005857209 -2.161905e-25)
(0.01043654 -0.001113489 -5.820783e-24)
(0.01046218 -0.001361269 0)
(0.01026134 -0.001581649 0)
(0.01040165 0.001111596 3.67437e-24)
(0.01057778 0.001036893 0)
(0.01003176 0.001212845 0)
(0.01003607 -0.0002957701 -9.105423e-24)
(0.01099655 0.0007483129 0)
(0.01084903 0.0008646101 6.185158e-25)
(0.01072155 -0.001912027 0)
(0.01076569 -0.001916568 7.282785e-24)
(0.01080991 -0.001080369 -5.740231e-24)
(0.009668419 -0.001278879 -2.265574e-24)
(0.009714547 -0.00188911 8.18162e-24)
(0.01042069 -0.002164472 6.156075e-24)
(0.009819732 -0.002263502 -6.976119e-24)
(0.01097074 0.0007958914 1.448439e-24)
(0.009904308 -0.0001773377 0)
(0.00977549 -0.0002657965 1.380836e-23)
(0.007402913 -0.0003546602 -5.503413e-24)
(0.01136296 0.0002294004 1.657209e-24)
(0.01014685 -0.0006769879 -8.932332e-24)
(0.01128757 0.0004413998 0)
(0.01106898 0.0005599833 0)
(0.009523269 -0.001236308 0)
(0.01014159 -0.0004547333 1.465712e-23)
(0.007798394 -0.001531876 0)
(0.01120536 0.0005843148 0)
(0.009673114 -0.002424401 2.426859e-23)
(0.009788769 -8.522175e-05 -8.423127e-24)
(0.01060486 -0.0009462617 -1.832683e-23)
(0.01109743 -9.665469e-05 -1.070834e-24)
(0.01112432 -0.001197479 0)
(0.01011723 0.001120057 0)
(0.01024174 0.0001879678 3.890788e-24)
(0.01038332 -0.00136437 0)
(0.01002699 -0.0008221771 1.738594e-23)
(0.009962163 -0.0007433979 0)
(0.01128277 -0.001079121 -1.329868e-24)
(0.009311515 -0.001573313 -1.781417e-24)
(0.01148911 -0.0002996362 0)
(0.01005405 -0.0002996685 -2.831442e-23)
(0.009939769 -0.001043369 0)
(0.0101729 -0.001779399 -1.036031e-24)
(0.009758422 -0.001284455 8.881443e-24)