/*--------------------------------*- C++ -*----------------------------------*\
| =========                 |                                                 |
| \\      /  F ield         | OpenFOAM: The Open Source CFD Toolbox           |
|  \\    /   O peration     | Version:  2406                                  |
|   \\  /    A nd           | Website:  www.openfoam.com                      |
|    \\/     M anipulation  |                                                 |
\*---------------------------------------------------------------------------*/
FoamFile
{
    version     2.0;
    format      ascii;
    arch        "LSB;label=32;scalar=64";
    class       surfaceScalarField;
    location    "4.06";
    object      phi;
}
// * * * * * * * * * * * * * * * * * * * * * * * * * * * * * * * * * * * * * //

dimensions      [0 3 -1 0 0 0 0];

oriented        oriented;

internalField   nonuniform List<scalar> 
23794
(
-0.007947618
0.007845212
0.0001024066
-0.007489078
-0.0004585402
-0.006798347
-0.0006907312
-0.005887482
-0.0009108649
-0.004906103
-0.0009813789
-0.003911919
-0.0009941843
-0.002977506
-0.0009344131
-0.002114235
-0.0008632707
-0.001493048
-0.0006211871
-0.001057691
-0.0004353564
-0.0008646255
-0.0001930657
-0.0009481145
8.34891e-05
-0.001138923
0.0001908081
-0.00137578
0.0002368576
-0.001649878
0.000274098
-0.001878351
0.0002284732
-0.001843506
-3.484546e-05
-0.001603463
-0.0002400427
-0.001675869
7.240621e-05
-0.001845053
0.0001691838
-0.00102261
-0.0008224434
0.0007153442
-0.001737954
0.002509577
-0.001794232
0.004095036
-0.00158546
0.005285215
-0.001190179
0.006475572
-0.001190357
0.005533219
0.0009423529
0.0002152085
0.005318011
-0.005253234
0.005468443
-0.003266427
-0.001986807
-0.0002821516
-0.002984276
0.001243768
-0.00152592
0.00259011
-0.001346342
0.005054561
-0.002464451
0.00820922
-0.003154659
0.007603336
0.0006058843
0.002388408
0.005214928
-0.0004312526
0.00281966
-0.0009429794
0.0005117269
-0.003928955
0.002985976
-0.008229955
0.004301
-0.01106503
0.002835071
-0.01252298
0.001457951
-0.01330426
0.0007812799
-0.01377661
0.0004723504
-0.01399568
0.0002190759
-0.01408277
8.708925e-05
-0.01408921
6.440746e-06
-0.01403106
-5.815746e-05
-0.01395235
-7.870424e-05
-0.01381343
-0.000138917
-0.01363248
-0.0001809563
-0.01339288
-0.0002395978
-0.01312811
-0.0002647708
-0.01284395
-0.0002841595
-0.01250631
-0.0003376426
-0.01214816
-0.0003581467
-0.01178012
-0.0003680368
-0.01134933
-0.0004307974
-0.01089531
-0.0004540163
-0.01041616
-0.0004791499
-0.009929048
-0.0004871124
-0.009420105
-0.0005089429
-0.00886367
-0.0005564357
-0.008313018
-0.0005506518
-0.007721764
-0.0005912543
-0.007113136
-0.0006086274
-0.006496546
-0.0006165902
-0.005871268
-0.0006252783
-0.005216432
-0.0006548352
-0.004558638
-0.0006577948
-0.003891711
-0.000666927
-0.00320981
-0.0006819007
-0.002523
-0.0006868102
-0.001856962
-0.0006660382
-0.001142645
-0.0007143168
-0.0004606182
-0.0006820265
0.0001929722
-0.0006535905
0.0008242528
-0.0006312805
0.001558585
-0.0007343324
0.002287718
-0.0007291324
0.003006475
-0.0007187574
0.003711485
-0.0007050099
0.004399793
-0.0006883078
0.00508691
-0.0006871172
0.005751591
-0.0006646815
0.00642732
-0.0006757286
0.007082728
-0.0006554082
0.007701989
-0.0006192613
0.008325002
-0.000623013
0.008935403
-0.0006104004
0.009522722
-0.0005873194
0.01010657
-0.0005838497
0.0106768
-0.0005702286
0.01119205
-0.0005152533
0.01170406
-0.00051201
0.01220105
-0.0004969866
0.01265697
-0.0004559188
0.01311411
-0.0004571388
0.01351792
-0.0004038158
0.01389505
-0.0003771251
0.01423316
-0.000338109
0.01452836
-0.000295203
0.01481968
-0.0002913197
0.01507387
-0.0002541849
0.01528884
-0.000214972
0.01546115
-0.0001723134
0.01559143
-0.0001302828
0.01569159
-0.0001001594
0.01573031
-3.871795e-05
0.01574064
-1.032692e-05
0.01566133
7.930305e-05
0.01540767
0.0002536686
0.01500369
0.0004039726
0.0144379
0.0005657971
0.01361385
0.0008240497
0.01224709
0.001366752
0.009726893
0.002520201
0.005320801
0.004406092
-0.0002899409
0.005610742
-0.001152889
0.0008629481
0.001591437
-0.002744325
-0.000802721
0.002394158
-0.008077166
0.007274445
-0.01134982
0.003272652
-0.008825372
-0.002524446
-0.005391035
-0.003434337
-0.003493035
-0.001898
-0.002433312
-0.001059723
-6.155182e-06
-0.002427157
0.003156165
-0.00316232
0.00399317
-0.0008370051
-0.0003999041
0.004393075
-0.005155773
0.004755869
-0.007534061
0.002378288
-0.007933937
0.0003998761
-0.006053002
-0.001880934
-0.002931494
-0.003121508
0.0002903981
-0.003221892
0.002500507
-0.002210109
0.003385965
-0.0008854581
0.004005286
-0.0006193214
0.005240632
-0.001235346
0.00694424
-0.001703608
0.007997331
-0.00105309
0.007624143
0.000373188
0.004584629
0.003039514
-0.0002537968
0.004838426
-0.003805237
0.00355144
-0.0001359652
-0.003669271
0.004761817
-0.004897782
0.003396282
0.001365535
0.0009936211
0.00240266
1.94158e-05
0.0009742054
-0.002469473
0.002488889
-0.006174801
0.003705327
0.001670411
-0.01032926
0.01086878
-0.0004371136
-0.009670136
-0.00111766
-0.00872516
-0.001635708
-0.007558944
-0.00207708
-0.006325856
-0.002214467
-0.005098175
-0.002221865
-0.003964015
-0.002068574
-0.002939935
-0.001887351
-0.002207536
-0.001353586
-0.001707264
-0.0009356284
-0.001490484
-0.0004098461
-0.001584564
0.0001775699
-0.001792717
0.0003989613
-0.002065152
0.0005092923
-0.002345631
0.0005545767
-0.002481815
0.0003646577
-0.002477082
-3.957878e-05
-0.002883641
0.0001665166
-0.00376902
0.0009577852
-0.003491137
-0.0001086994
-0.001264481
-0.003049099
0.00125694
-0.004259375
0.003271524
-0.003808816
0.005069874
-0.003383809
0.006382238
-0.002502543
0.007633906
-0.002442026
0.007640252
0.0009360069
0.001804792
0.01115347
-0.006327673
0.01360091
-0.005464493
-0.002849987
-0.002878926
-0.005569842
-0.002217396
-0.00218745
-0.001438993
-0.002124745
0.0006502694
-0.004553713
0.003664025
-0.006168414
0.005723207
-0.001453298
0.003147659
0.007790476
-0.003584055
0.009551374
-0.01056531
0.00749298
-0.01607744
0.00849811
-0.01919763
0.007421186
-0.02024507
0.003882516
-0.020431
0.001643877
-0.02044213
0.0007924093
-0.02038504
0.0004152651
-0.02021717
5.120319e-05
-0.02003008
-9.999915e-05
-0.01983874
-0.0001849015
-0.01960497
-0.0002919236
-0.01935087
-0.0003328056
-0.01903539
-0.0004544016
-0.01867869
-0.0005376542
-0.01825894
-0.0006593474
-0.01781313
-0.0007105826
-0.01735332
-0.0007439666
-0.0168359
-0.0008550641
-0.01629384
-0.0009002088
-0.01574554
-0.0009163317
-0.01512537
-0.001050969
-0.014483
-0.00109639
-0.01381155
-0.001150595
-0.01313064
-0.001168028
-0.01242957
-0.001210012
-0.0116723
-0.001313703
-0.01092357
-0.001299378
-0.01013218
-0.00138265
-0.009318561
-0.001422244
-0.008498929
-0.001436222
-0.007673048
-0.00145116
-0.00681113
-0.001516753
-0.005944886
-0.001524039
-0.005070078
-0.001541736
-0.004178756
-0.001573223
-0.0032842
-0.001581366
-0.002410567
-0.001539671
-0.001487829
-0.001637055
-0.0006001169
-0.001569738
0.0002549515
-0.001508659
0.00108568
-0.001462009
0.002031324
-0.001679976
0.002976703
-0.001674511
0.003911489
-0.001653544
0.00482926
-0.001622781
0.005730277
-0.001589325
0.006631806
-0.001588647
0.007507582
-0.001540458
0.008396534
-0.00156468
0.009262819
-0.001521693
0.01008502
-0.001441464
0.01091418
-0.00145217
0.01173307
-0.001429295
0.01252292
-0.001377168
0.01330969
-0.001370618
0.0140849
-0.001345442
0.01479554
-0.001225892
0.01550669
-0.001223154
0.01620112
-0.001191417
0.01684971
-0.001104511
0.01750186
-0.001109289
0.01809144
-0.0009933941
0.01865863
-0.0009443212
0.0191821
-0.0008615739
0.01965852
-0.0007716283
0.02013773
-0.0007705288
0.0205775
-0.0006939551
0.02097438
-0.0006118501
0.02132789
-0.0005258217
0.02163802
-0.00044041
0.02191974
-0.0003818839
0.02213728
-0.0002562605
0.02235542
-0.000228461
0.02255243
-0.0001177133
0.02265992
0.0001461788
0.0227183
0.0003455911
0.02273642
0.0005476771
0.02268285
0.0008776268
0.02242769
0.001621908
0.02158136
0.003366531
0.01858529
0.007402164
0.01381805
0.01037799
0.008164918
0.006516075
0.003052826
0.002367767
-0.003161064
0.008608047
-0.009106074
0.01321945
-0.009492259
0.003658838
-0.005759233
-0.006257472
-0.002110367
-0.007083203
-0.0006115568
-0.003396811
1.128237e-05
-0.001682562
0.001563812
-0.003979687
0.00483083
-0.006429338
0.003851169
0.0001426564
-0.003310877
0.01155512
-0.008436007
0.009880998
-0.009911722
0.003854003
-0.009824613
0.0003127667
-0.007506169
-0.004199378
-0.003903738
-0.006723939
-0.0001909527
-0.006934677
0.003094344
-0.005495405
0.005227074
-0.003018188
0.006505504
-0.001897751
0.007646912
-0.002376754
0.009147522
-0.003204218
0.01012073
-0.002026301
0.01033719
0.0001567319
0.008564647
0.004812056
0.001779532
0.01162354
-0.003974452
0.009305424
0.0001743926
-0.007818116
0.005784981
-0.01050837
0.005570946
0.001579571
0.00225644
0.005717166
-0.002618451
0.005849097
-0.008311565
0.008182003
-0.01091156
0.006305321
0.001627629
-0.01207335
0.01247329
-0.0008370582
-0.01124855
-0.001942459
-0.01012469
-0.002759568
-0.008727471
-0.003474297
-0.007257954
-0.003683984
-0.005800441
-0.003679377
-0.004469533
-0.003399482
-0.003292728
-0.003064156
-0.00247898
-0.002167333
-0.001942076
-0.001472533
-0.001737228
-0.0006146942
-0.001897007
0.000337349
-0.002174949
0.0006769039
-0.002515683
0.0008500262
-0.002849607
0.0008885014
-0.003041004
0.0005560547
-0.003248711
0.0001681278
-0.004114057
0.001031862
-0.00510654
0.001950269
-0.004041524
-0.001173716
-0.001036753
-0.00605387
0.001643114
-0.006939242
0.003744005
-0.005909708
0.005697484
-0.005337288
0.006990537
-0.003795596
0.008313896
-0.003765385
0.008238137
0.001011767
0.002870797
0.01652081
-0.006130986
0.02260269
-0.008095959
-0.0008850139
-0.008020576
-0.005645226
-0.008806331
-0.001401695
-0.008712375
-0.0022187
-0.006682588
-0.006583501
-0.003148578
-0.009702424
0.000651108
-0.005252984
-0.0009829457
0.009424529
-0.01184303
0.02041145
-0.0210238
0.01667375
-0.02399737
0.01147169
-0.02417705
0.007600859
-0.02396062
0.003666092
-0.02398238
0.001665637
-0.02405009
0.0008601145
-0.02407989
0.0004450657
-0.02396039
-6.828991e-05
-0.02378663
-0.0002737652
-0.02357743
-0.0003941039
-0.02330708
-0.000562274
-0.023016
-0.0006238824
-0.02264874
-0.000821663
-0.0222335
-0.0009528948
-0.02174221
-0.001150635
-0.02121862
-0.001234168
-0.0206797
-0.001282886
-0.02006927
-0.001465499
-0.01942941
-0.001540064
-0.01878349
-0.001562254
-0.01804886
-0.001785605
-0.01728789
-0.001857359
-0.0164918
-0.001946682
-0.01568413
-0.001975693
-0.01485234
-0.002041809
-0.01395086
-0.002215182
-0.01306086
-0.002189377
-0.0121174
-0.002326106
-0.01114756
-0.002392083
-0.01016979
-0.002413996
-0.009184128
-0.002436821
-0.008154858
-0.002546022
-0.007120094
-0.002558803
-0.006074057
-0.002587773
-0.005008491
-0.002638789
-0.003937618
-0.002652239
-0.002889345
-0.002587945
-0.001785717
-0.002740682
-0.0007225658
-0.00263289
0.0003019447
-0.002533169
0.001303606
-0.002463671
0.002435605
-0.002811974
0.003569467
-0.002808373
0.004690775
-0.002774852
0.005790165
-0.002722171
0.006868806
-0.002667965
0.007947041
-0.002666882
0.008992986
-0.002586403
0.01005413
-0.002625821
0.01108645
-0.002554017
0.01206534
-0.002420354
0.01305227
-0.002439101
0.01402551
-0.002402535
0.01496337
-0.002315025
0.01589752
-0.002304763
0.01681702
-0.002264949
0.01765813
-0.002067003
0.01850049
-0.002065514
0.01932189
-0.002012813
0.02008687
-0.001869487
0.0208581
-0.001880526
0.02155165
-0.001686939
0.02221947
-0.001612148
0.02283362
-0.001475716
0.02338931
-0.001327318
0.02394996
-0.00133118
0.02446131
-0.001205307
0.02492207
-0.001072611
0.02532967
-0.0009334253
0.0256853
-0.0007960403
0.02600662
-0.0007031992
0.02625197
-0.0005016065
0.02649066
-0.0004671557
0.02667117
-0.000298224
0.02671426
0.0001030916
0.02669115
0.0003686969
0.02662903
0.0006097975
0.02654784
0.0009588153
0.02643681
0.001732946
0.02654971
0.003253628
0.02651508
0.00743679
0.02525061
0.01164246
0.0208495
0.01091718
0.01074971
0.01246756
-0.0009547574
0.02031252
-0.005120601
0.0173853
-0.003967697
0.002505933
-8.135662e-05
-0.01014381
0.003610831
-0.01077539
0.005372656
-0.005158635
0.005134283
-0.001444189
0.004943973
-0.003789377
0.006105685
-0.00759105
0.00245404
0.003794301
-0.005454396
0.01946356
-0.009813479
0.01424008
-0.01138882
0.005429341
-0.01140531
0.0003292632
-0.008696759
-0.006907932
-0.004712844
-0.01070785
-0.0006208969
-0.01102662
0.003116284
-0.009232586
0.005846279
-0.005748183
0.007505097
-0.003556568
0.008870346
-0.003742004
0.01069532
-0.005029187
0.01199056
-0.003321541
0.01196135
0.000185933
0.01078145
0.005991959
0.004498219
0.01790677
-0.001504895
0.01530854
0.001571314
-0.01089433
0.005780988
-0.01471804
0.005713897
0.001646662
0.001240066
0.010191
-0.00685584
0.013945
-0.01232108
0.01364724
-0.01290318
0.006887422
0.00119774
-0.01416807
0.0146605
-0.001329488
-0.01318968
-0.002920841
-0.01183677
-0.00411248
-0.01013551
-0.005175555
-0.008338419
-0.005481078
-0.006546943
-0.005470854
-0.004915199
-0.005031225
-0.00349603
-0.004483324
-0.002573072
-0.003090292
-0.002026245
-0.002019359
-0.001880462
-0.0007604774
-0.002150117
0.0006070043
-0.002547871
0.001074658
-0.003018165
0.00132032
-0.003480539
0.001350876
-0.003788893
0.000864409
-0.004164447
0.0005436809
-0.005221003
0.002088419
-0.006039282
0.002768548
-0.004382351
-0.002830646
-0.001049172
-0.009387049
0.001651607
-0.009640021
0.003862181
-0.008120282
0.00592561
-0.007400717
0.007181669
-0.005051655
0.008722693
-0.005306409
0.008418773
0.001315687
0.003631909
0.02130768
-0.006022699
0.0322573
-0.01175082
0.004843105
-0.01487538
-0.002520664
-0.01708483
0.0008077525
-0.01762723
-0.001676296
-0.01613327
-0.008077464
-0.01259193
-0.01324376
-0.009857606
-0.007987312
-0.01388635
0.01345327
-0.02317489
0.02969999
-0.02873082
0.02222968
-0.02887574
0.0116166
-0.02855733
0.007282452
-0.02872128
0.003830044
-0.02898524
0.001929593
-0.02912213
0.000997002
-0.0291604
0.0004833349
-0.02899383
-0.0002348602
-0.02875856
-0.0005090308
-0.02848353
-0.0006691374
-0.02813609
-0.0009097151
-0.02776666
-0.0009933041
-0.0273092
-0.001279127
-0.02679554
-0.001466558
-0.02619164
-0.001754526
-0.02555017
-0.001875643
-0.02489156
-0.001941494
-0.02414916
-0.002207898
-0.02337172
-0.002317509
-0.02258773
-0.002346243
-0.0217007
-0.002672637
-0.02078041
-0.002777649
-0.01981911
-0.002907976
-0.01884536
-0.002949444
-0.01784415
-0.003043019
-0.0167583
-0.003301037
-0.01568902
-0.003258653
-0.01455448
-0.003460651
-0.01339016
-0.0035564
-0.01221546
-0.003588694
-0.01103213
-0.003620158
-0.009796876
-0.003781272
-0.008555299
-0.00380038
-0.007300141
-0.003842931
-0.006023767
-0.003915163
-0.004738517
-0.003937489
-0.003479289
-0.003847172
-0.002152108
-0.004067864
-0.0008721643
-0.003912834
0.0003615997
-0.003766933
0.001574432
-0.003676503
0.002936522
-0.004174065
0.004299564
-0.004171416
0.005649612
-0.004124899
0.00697055
-0.004043109
0.008264245
-0.00396166
0.009555569
-0.003958206
0.01080695
-0.003837787
0.01207858
-0.003897445
0.01331304
-0.003788476
0.01448671
-0.003594032
0.0156716
-0.003623987
0.01683845
-0.003569384
0.01796662
-0.003443195
0.01909254
-0.00343069
0.02019814
-0.003370549
0.02121378
-0.003082636
0.02223182
-0.00308356
0.02322379
-0.003004783
0.02415073
-0.002796427
0.02508577
-0.002815564
0.02592889
-0.002530061
0.02674129
-0.002424543
0.02749059
-0.002225012
0.0281736
-0.002010338
0.02886234
-0.00201992
0.02949216
-0.001835121
0.03006443
-0.00164488
0.03057211
-0.001441104
0.03102136
-0.001245295
0.03143224
-0.001114077
0.03175207
-0.0008214354
0.03206689
-0.0007819809
0.03231544
-0.0005467677
0.03239037
2.815916e-05
0.03236731
0.000391759
0.03227733
0.0006997754
0.03210068
0.001135465
0.03177477
0.002058854
0.03144247
0.003585924
0.03165109
0.007228177
0.03204087
0.01125268
0.03054789
0.01241016
0.02186467
0.02115078
0.008042882
0.0341343
0.001218691
0.02420949
0.003253878
0.0004707461
0.007529217
-0.01441915
0.01148889
-0.01473506
0.01294047
-0.006610216
0.01202733
-0.0005310513
0.009919142
-0.001681187
0.007960669
-0.005632577
0.001385303
0.01036967
-0.006615368
0.02746423
-0.01070939
0.0183341
-0.01270882
0.007428773
-0.01283599
0.0004564384
-0.009740857
-0.01000307
-0.005358728
-0.01508998
-0.001120479
-0.01526487
0.002751712
-0.01310478
0.005772292
-0.008768763
0.007687979
-0.005472255
0.009529713
-0.005583738
0.01211912
-0.007618596
0.01395882
-0.005161244
0.01387456
0.0002701991
0.01284551
0.007021006
0.007741025
0.02301126
0.002120543
0.02092902
0.003217525
-0.01199131
0.005021361
-0.01652188
0.004319293
0.00234873
-0.002179625
0.01668992
-0.01159737
0.02336275
-0.0150774
0.01712727
-0.01477137
0.006581396
0.001086862
-0.01687388
0.01750305
-0.001958667
-0.01570735
-0.004087365
-0.01406981
-0.005750019
-0.01198838
-0.007256984
-0.009773759
-0.007695702
-0.007533877
-0.007710736
-0.005457545
-0.007107557
-0.003600646
-0.006340223
-0.002390453
-0.004300485
-0.001759108
-0.002650703
-0.001717031
-0.0008025547
-0.002174706
0.001064679
-0.002758096
0.001658048
-0.003438157
0.002000381
-0.004107675
0.002020394
-0.004579444
0.001336178
-0.005108622
0.001072859
-0.006232406
0.003212203
-0.00685225
0.003388392
-0.004865916
-0.004816981
-0.001499136
-0.01275383
0.001110476
-0.01224963
0.00344188
-0.01045169
0.005671218
-0.009630056
0.006978771
-0.006359207
0.008849211
-0.00717685
0.008477346
0.001687552
0.003968565
0.02581646
-0.006877663
0.04310353
-0.01669686
0.0146623
-0.02297253
0.003755004
-0.02633419
0.004169416
-0.02779433
-0.0002161527
-0.02793588
-0.007935913
-0.0270856
-0.01409404
-0.02731363
-0.007759275
-0.03040201
0.01654165
-0.03385276
0.03315074
-0.03434511
0.02272204
-0.03371523
0.01098672
-0.03390218
0.0074694
-0.03421405
0.004141919
-0.03451345
0.002228988
-0.0346711
0.001154649
-0.03475715
0.0005693855
-0.03458113
-0.0004108772
-0.03432673
-0.0007634262
-0.03402115
-0.0009747215
-0.03361495
-0.001315916
-0.03319862
-0.001409635
-0.03266009
-0.001817652
-0.03206062
-0.002066029
-0.03134522
-0.002469927
-0.03058554
-0.002635319
-0.02980865
-0.00271839
-0.02892355
-0.003092994
-0.02799696
-0.003244104
-0.02706603
-0.003277168
-0.02600793
-0.003730738
-0.02490686
-0.003878721
-0.02375743
-0.004057402
-0.02259534
-0.004111538
-0.02139976
-0.004238592
-0.02009661
-0.004604195
-0.01882043
-0.004534828
-0.01745998
-0.004821098
-0.01606742
-0.004948968
-0.01466032
-0.004995793
-0.01324535
-0.005035124
-0.01176477
-0.005261853
-0.01027668
-0.005288474
-0.00877011
-0.005349498
-0.007242224
-0.005443048
-0.005702039
-0.005477674
-0.004194543
-0.005354669
-0.002597561
-0.005664845
-0.001052771
-0.005457624
0.0004364328
-0.005256137
0.001905919
-0.005145989
0.003547929
-0.005816074
0.005186331
-0.005809819
0.006810496
-0.005749064
0.008390344
-0.005622958
0.009932561
-0.005503877
0.01147214
-0.005497786
0.01296371
-0.005329355
0.01448582
-0.005419557
0.01595763
-0.005260284
0.01736401
-0.005000409
0.01878682
-0.005046805
0.02017972
-0.004962276
0.02153201
-0.004795489
0.02288671
-0.004785386
0.02420719
-0.004691036
0.02542258
-0.004298016
0.0266432
-0.004304186
0.02782853
-0.004190111
0.02893269
-0.003900593
0.03005269
-0.003935559
0.03105604
-0.003533414
0.03202251
-0.003391008
0.03291179
-0.003114291
0.03371794
-0.002816493
0.03453436
-0.002836341
0.03527232
-0.002573082
0.03594648
-0.002319036
0.03653577
-0.002030399
0.03705492
-0.001764442
0.03753147
-0.001590621
0.03788361
-0.001173575
0.0382394
-0.00113778
0.03850418
-0.0008115419
0.03856475
-3.241358e-05
0.03850492
0.0004515867
0.03836663
0.0008380735
0.03814579
0.0013563
0.0377814
0.002423244
0.0373171
0.004050227
0.0371714
0.007373871
0.0372169
0.01120719
0.03717414
0.01245292
0.03355238
0.02477254
0.02322865
0.04445803
0.01499555
0.03244259
0.01456311
0.0009031863
0.01902092
-0.01887697
0.02189584
-0.01760998
0.02245331
-0.007167688
0.02070651
0.001215751
0.01658309
0.002442235
0.01095405
-3.538476e-06
0.001516711
0.019807
-0.006784051
0.03576499
-0.01126175
0.0228118
-0.01379584
0.009962864
-0.01431664
0.0009772373
-0.01079698
-0.01352272
-0.005884629
-0.02000234
-0.001620058
-0.01952944
0.001946014
-0.01667085
0.004881748
-0.0117045
0.007146064
-0.00773657
0.009882931
-0.008320605
0.01358483
-0.01132049
0.01605728
-0.007633694
0.01600568
0.000321802
0.01484071
0.008185975
0.01103539
0.02681658
0.005659832
0.02630458
0.003849177
-0.01018065
0.002755701
-0.0154284
0.0008663461
0.004238085
-0.008178373
0.02573463
-0.01634932
0.03153369
-0.01758027
0.01835823
-0.01732914
0.006330266
0.001260774
-0.02046014
0.02120646
-0.002704987
-0.01903756
-0.005509952
-0.0170437
-0.007743874
-0.01447431
-0.009826377
-0.01175419
-0.01041582
-0.008979749
-0.01048518
-0.006371729
-0.009715577
-0.00392056
-0.008791391
-0.002157029
-0.006064015
-0.00111131
-0.003696423
-0.001057054
-0.0008568109
-0.001754261
0.001761886
-0.002573517
0.002477305
-0.003543884
0.002970748
-0.004546719
0.003023229
-0.005300922
0.002090381
-0.006044298
0.001816235
-0.00723312
0.004401024
-0.007779964
0.003935237
-0.005806932
-0.006790013
-0.002788666
-0.01577209
-0.0003945751
-0.01464372
0.002227848
-0.01307411
0.004909925
-0.01231213
0.006427412
-0.007876694
0.008471054
-0.009220492
0.007827415
0.002331191
0.003019528
0.03062434
-0.009303336
0.05542639
-0.02222712
0.02758609
-0.03041179
0.01193967
-0.03437988
0.008137507
-0.03680591
0.00220988
-0.03875739
-0.00598443
-0.04077375
-0.01207769
-0.04337632
-0.00515671
-0.04439953
0.01756486
-0.04236051
0.03111172
-0.04044529
0.02080682
-0.04053302
0.01107445
-0.0409768
0.007913185
-0.04132194
0.004487054
-0.04166503
0.002572076
-0.04180216
0.001291785
-0.04187041
0.0006376295
-0.04161081
-0.0006704706
-0.04129301
-0.001081228
-0.04090928
-0.001358455
-0.04039553
-0.00182966
-0.03989462
-0.001910551
-0.03923377
-0.002478502
-0.03850926
-0.002790541
-0.03764091
-0.003338269
-0.0367196
-0.00355663
-0.03578541
-0.003652583
-0.03471455
-0.004163852
-0.03359761
-0.00436105
-0.03248266
-0.004392119
-0.03121004
-0.005003357
-0.02988153
-0.005207227
-0.02850129
-0.005437647
-0.02710628
-0.005506542
-0.02567434
-0.005670537
-0.02410325
-0.006175284
-0.02257972
-0.006058361
-0.02094343
-0.006457383
-0.01927367
-0.006618727
-0.01758643
-0.006683038
-0.01589464
-0.006726907
-0.01412281
-0.007033688
-0.01234541
-0.00706587
-0.01053741
-0.007157503
-0.00870904
-0.007271416
-0.006856984
-0.00732973
-0.005059591
-0.007152062
-0.003143077
-0.007581358
-0.001271981
-0.00732872
0.0005306866
-0.007058804
0.002313645
-0.006928948
0.004297078
-0.007799507
0.006268103
-0.007780844
0.008207117
-0.007688078
0.01008126
-0.007497103
0.01191307
-0.007335681
0.0137486
-0.00733332
0.01553108
-0.007111833
0.01736346
-0.007251935
0.01912194
-0.007018769
0.02081527
-0.006693735
0.02253488
-0.006766422
0.02420127
-0.006628666
0.02582479
-0.006419008
0.02746774
-0.006428332
0.02904973
-0.006273028
0.03050704
-0.005755331
0.03197812
-0.005775265
0.03340374
-0.005615728
0.03472697
-0.005223819
0.03607837
-0.005286962
0.0372865
-0.004741542
0.03845116
-0.004555669
0.0395209
-0.004184028
0.04049617
-0.003791771
0.04148946
-0.003829623
0.04237816
-0.003461788
0.04320484
-0.003145712
0.04391984
-0.002745402
0.04455955
-0.002404148
0.04514888
-0.002179956
0.04559391
-0.001618607
0.0460392
-0.001583069
0.046377
-0.001149337
0.04649112
-0.0001465381
0.04646392
0.0004787853
0.04633407
0.0009679255
0.0461037
0.001586669
0.04568799
0.002838954
0.04514981
0.004588406
0.04478205
0.007741632
0.04423546
0.01175378
0.04358923
0.01309915
0.04401893
0.02434283
0.04156421
0.04691275
0.03668749
0.03731932
0.03378771
0.003802965
0.03429946
-0.01938872
0.0342406
-0.01755112
0.03305922
-0.005986303
0.03022108
0.004053883
0.02450328
0.008160036
0.01529944
0.009200302
0.003270052
0.03183639
-0.005787945
0.04482299
-0.01137992
0.02840377
-0.0147942
0.01337714
-0.01617472
0.002357759
-0.01212331
-0.01757413
-0.006430176
-0.02569547
-0.001998071
-0.02396155
0.001061917
-0.01973084
0.003758043
-0.01440062
0.006459926
-0.01043845
0.009944579
-0.01180526
0.01464526
-0.01602118
0.01769691
-0.01068534
0.01754453
0.0004741812
0.01598309
0.009747413
0.01332371
0.02947596
0.008249755
0.03137853
0.002650121
-0.004581019
-0.003131584
-0.0096467
-0.008655393
0.009761894
-0.01664988
0.03372913
-0.02099495
0.03587875
-0.02070006
0.01806334
-0.02102064
0.006650854
0.001446594
-0.02515476
0.02603595
-0.003586182
-0.02340934
-0.007255372
-0.02099507
-0.01015814
-0.01775119
-0.01307026
-0.01438203
-0.01378497
-0.01094843
-0.01391879
-0.007742006
-0.012922
-0.004648494
-0.0118849
-0.00225264
-0.008459869
-0.0004273425
-0.00552172
2.352008e-05
-0.001307673
-0.0007058677
0.002491274
-0.00180548
0.003576917
-0.003088314
0.004253583
-0.004583123
0.004518038
-0.005855465
0.003362723
-0.006951947
0.002912717
-0.00826698
0.005716057
-0.008970372
0.004638629
-0.007526457
-0.008233928
-0.005350939
-0.01794761
-0.003304143
-0.01669052
-8.653632e-05
-0.01629172
0.003656681
-0.01605535
0.005465764
-0.009685778
0.006999645
-0.01075437
0.005029971
0.004300865
-0.0002811182
0.03593543
-0.01410833
0.06925361
-0.02842293
0.04190068
-0.0369466
0.02046333
-0.04094459
0.0121355
-0.04402256
0.005287851
-0.04698404
-0.003022957
-0.05049306
-0.008568661
-0.05423449
-0.00141528
-0.05415235
0.01748272
-0.05022547
0.02718485
-0.04835303
0.01893438
-0.04885852
0.01157993
-0.04914703
0.008201696
-0.04948209
0.004822117
-0.04988723
0.002977211
-0.05000759
0.001412143
-0.05015617
0.0007862101
-0.04984484
-0.0009817966
-0.04947675
-0.001449317
-0.04902877
-0.001806439
-0.0483926
-0.002465831
-0.04782816
-0.002474987
-0.04702127
-0.003285395
-0.04616998
-0.003641831
-0.04512932
-0.004378929
-0.04401855
-0.004667404
-0.04291043
-0.004760693
-0.04163082
-0.005443467
-0.04029105
-0.005700824
-0.03895269
-0.005730472
-0.03743619
-0.006519861
-0.035845
-0.006798417
-0.03419224
-0.007090408
-0.03250148
-0.007197299
-0.03081017
-0.007361845
-0.02890675
-0.008078709
-0.02709368
-0.007871432
-0.02511873
-0.008432329
-0.02311983
-0.008617631
-0.02110246
-0.008700401
-0.01904467
-0.008784699
-0.01693931
-0.009139049
-0.01482255
-0.009182627
-0.01265731
-0.009322741
-0.01049092
-0.009437806
-0.008230548
-0.009590106
-0.00610981
-0.009272799
-0.003812257
-0.009878912
-0.001540104
-0.009600873
0.0006516045
-0.009250513
0.002818329
-0.009095672
0.0052139
-0.01019508
0.007580502
-0.01014745
0.009852729
-0.009960305
0.01207276
-0.009717136
0.01426816
-0.009531084
0.01646275
-0.009527903
0.01860099
-0.009250078
0.02082889
-0.009479831
0.02293758
-0.009127459
0.02496825
-0.008724402
0.02703545
-0.008833628
0.02904823
-0.008641448
0.03100034
-0.008371118
0.03296384
-0.008391829
0.03486364
-0.008172832
0.03660566
-0.007497352
0.03836727
-0.007536868
0.04005603
-0.007304493
0.0416558
-0.006823593
0.04327761
-0.006908767
0.04471437
-0.006178297
0.04612185
-0.005963156
0.04738486
-0.005447032
0.04855186
-0.004958774
0.0497465
-0.005024266
0.05078926
-0.004504549
0.05178857
-0.004145024
0.05261972
-0.00357655
0.05338413
-0.003168554
0.05409309
-0.002888914
0.05459485
-0.002120369
0.05512691
-0.002115129
0.05554131
-0.001563738
0.05564133
-0.0002465592
0.05556684
0.0005532737
0.05539156
0.001143208
0.05511326
0.001864968
0.05464628
0.003305937
0.05411481
0.005119877
0.05372441
0.008132035
0.05324728
0.01223091
0.05181517
0.01453126
0.05342579
0.02273221
0.05755954
0.04277901
0.05772179
0.03715706
0.05347425
0.008050502
0.04955453
-0.015469
0.04624857
-0.01424515
0.04308409
-0.002821822
0.03913986
0.007998107
0.03259003
0.01470987
0.02092361
0.02086671
0.006772783
0.04598722
-0.003482437
0.05507821
-0.0109228
0.03584413
-0.01592181
0.01837615
-0.01869955
0.0051355
-0.0138121
-0.02246158
-0.00704114
-0.03246643
-0.002130889
-0.0288718
0.0007064133
-0.02256814
0.003079918
-0.01677413
0.005580346
-0.01293888
0.00875695
-0.01498186
0.01415155
-0.02141577
0.01783713
-0.01437092
0.01742506
0.0008862511
0.01533719
0.01183528
0.0134865
0.03132666
0.008311696
0.03655333
-0.002036677
0.005767354
-0.01302552
0.001342144
-0.02105678
0.01779315
-0.02573178
0.03840412
-0.02575275
0.03589973
-0.0251259
0.01743649
-0.0259657
0.007490647
0.001516847
-0.03110939
0.03221381
-0.004690603
-0.02898747
-0.009377298
-0.02619265
-0.01295296
-0.02213921
-0.0171237
-0.01787331
-0.01805087
-0.01353941
-0.01825268
-0.009587138
-0.01687427
-0.005724544
-0.0157475
-0.002706715
-0.0114777
-0.0002133168
-0.008015118
0.001274428
-0.002795418
0.0008715253
0.002894177
-0.0003815228
0.004829965
-0.001918621
0.005790681
-0.003988196
0.006587613
-0.006022016
0.005396543
-0.007637143
0.004527845
-0.00907663
0.007155544
-0.01030639
0.005868387
-0.01016115
-0.008379165
-0.009292063
-0.0188167
-0.007713994
-0.01826859
-0.00375426
-0.02025145
0.001618338
-0.02142795
0.003382024
-0.01144946
0.003099103
-0.01047145
-0.001485277
0.008885245
-0.008469858
0.04292001
-0.02204383
0.08282758
-0.0361132
0.05597006
-0.0438011
0.02815123
-0.04805582
0.01639022
-0.05175564
0.008987666
-0.05515165
0.0003730615
-0.05902181
-0.004698504
-0.06303592
0.002598827
-0.06311609
0.0175629
-0.05979423
0.02386298
-0.05849119
0.01763134
-0.05893812
0.01202686
-0.05920683
0.008470406
-0.05952125
0.005136538
-0.06003554
0.003491506
-0.06004499
0.001421592
-0.06018237
0.0009235902
-0.05981161
-0.001352558
-0.05934865
-0.001912275
-0.05886996
-0.002285134
-0.05802878
-0.003307007
-0.0573899
-0.003113863
-0.056409
-0.004266299
-0.05541534
-0.004635488
-0.05414713
-0.005647143
-0.0527852
-0.006029337
-0.05147981
-0.006066082
-0.0499751
-0.006948175
-0.04830802
-0.0073679
-0.04670796
-0.00733054
-0.04491648
-0.008311337
-0.04302692
-0.008687981
-0.04101088
-0.009106444
-0.0389603
-0.009247877
-0.0370255
-0.009296647
-0.0346568
-0.01044741
-0.03253249
-0.009995749
-0.03008897
-0.01087585
-0.02774882
-0.01095778
-0.0253362
-0.01111303
-0.02282503
-0.01129587
-0.02034135
-0.01162273
-0.01777943
-0.01174455
-0.01516881
-0.01193336
-0.01263443
-0.01197218
-0.009879653
-0.01234488
-0.007411656
-0.0117408
-0.004619941
-0.01267063
-0.001879262
-0.01234155
0.0008008986
-0.01193067
0.003456035
-0.01175081
0.006367787
-0.01310683
0.009090393
-0.01287005
0.01173815
-0.01260806
0.01441969
-0.01239868
0.0171024
-0.01221379
0.0197509
-0.01217641
0.02228956
-0.01178873
0.0250357
-0.01222597