/*--------------------------------*- C++ -*----------------------------------*\
| =========                 |                                                 |
| \\      /  F ield         | OpenFOAM: The Open Source CFD Toolbox           |
|  \\    /   O peration     | Version:  2406                                  |
|   \\  /    A nd           | Website:  www.openfoam.com                      |
|    \\/     M anipulation  |                                                 |
\*---------------------------------------------------------------------------*/
FoamFile
{
    version     2.0;
    format      ascii;
    arch        "LSB;label=32;scalar=64";
    class       volScalarField;
    location    "0.06";
    object      p;
}
// * * * * * * * * * * * * * * * * * * * * * * * * * * * * * * * * * * * * * //

dimensions      [0 2 -2 0 0 0 0];

internalField   nonuniform List<scalar> 
4529
(
-3.670204e-07
-3.769228e-06
-3.001013e-06
-7.880661e-06
-5.124424e-06
-7.521547e-06
-2.664739e-06
-4.005381e-06
-4.438185e-06
-2.287861e-06
3.970691e-06
-1.068269e-06
-7.713859e-07
-9.88828e-07
-2.089879e-06
-1.148609e-06
-4.905867e-06
-1.68453e-06
4.948842e-07
-3.010434e-06
-5.769342e-08
-1.861905e-06
-1.77551e-06
-2.958386e-06
-8.358592e-08
-3.082423e-06
-4.070413e-06
-5.674599e-06
-5.074952e-06
-6.323785e-06
-6.391885e-08
-1.855898e-06
-1.109566e-06
5.330536e-07
3.946771e-06
-3.733184e-06
-2.867747e-06
-1.673816e-06
-6.020635e-06
1.241684e-06
-1.901357e-06
-1.037201e-06
-2.195426e-06
1.599971e-07
2.095114e-07
2.105897e-06
-2.194204e-06
-3.550401e-06
5.078031e-07
-4.262055e-06
-1.047684e-05
-2.509885e-06
-1.114545e-05
1.034597e-06
-4.215417e-06
-4.514396e-06
-4.157857e-06
5.444278e-06
-8.860886e-06
-1.009874e-05
-4.074072e-06
1.788637e-06
-7.200249e-07
-1.030258e-05
-2.845726e-06
8.933615e-07
-1.378486e-06
-1.74904e-06
-2.858474e-06
5.971404e-06
-2.712581e-06
-3.906431e-06
-6.226922e-06
-1.010409e-06
-1.14663e-05
-7.074818e-06
1.781792e-06
2.673434e-06
-8.785432e-06
-4.037636e-06
-5.676182e-06
-2.405496e-06
8.746509e-07
-2.287265e-06
-3.922314e-06
-1.209499e-06
3.396976e-07
1.666295e-06
2.272661e-06
-9.654559e-07
-1.085232e-05
-1.292027e-06
7.846969e-07
-2.356483e-06
-1.540741e-06
-8.540106e-07
-8.076297e-06
-4.212924e-06
-5.495065e-06
-3.745281e-06
-1.134775e-06
-6.065241e-06
-3.527504e-06
-3.946747e-06
-1.911659e-06
2.044606e-06
-5.698284e-06
2.549722e-06
1.78602e-06
-8.212948e-08
-3.089598e-07
-2.035848e-06
-7.032791e-06
-5.777613e-06
-6.489927e-06
-1.705832e-06
-2.213376e-06
-4.1523e-06
-2.551877e-06
-5.844927e-07
-3.561222e-06
-2.88978e-06
1.163877e-07
-1.603869e-06
-1.79435e-06
-5.053834e-06
-3.787459e-06
1.229711e-06
-2.137711e-06
-6.567896e-06
-2.758512e-06
-4.906325e-06
-1.142096e-05
4.275718e-07
1.308914e-06
7.742574e-07
1.079617e-06
-9.796266e-08
-1.153664e-06
-3.378e-06
-3.273498e-06
-2.31433e-06
-1.227042e-06
-4.888383e-06
-7.977941e-06
-4.209868e-06
4.047749e-07
-6.412355e-06
-3.320034e-06
-2.769393e-06
-3.306771e-06
-5.476943e-06
-4.426678e-06
-1.094403e-06
-5.670483e-06
-8.104223e-07
2.925829e-07
-4.292231e-06
-1.485756e-06
-3.00507e-06
4.176007e-06
-3.661483e-07
-6.38421e-06
-3.212439e-06
8.777319e-09
3.184117e-07
3.530018e-08
-3.229877e-06
-2.684222e-06
-3.018101e-06
-8.150376e-06
-2.273022e-06
-1.156202e-05
8.615367e-07
1.864051e-06
-4.582845e-06
-1.864844e-06
-9.662169e-06
-1.196662e-05
4.015952e-06
9.046618e-07
-3.523435e-06
-2.763811e-06
-2.424893e-06
6.233073e-06
-1.197259e-05
-3.498888e-06
-6.100777e-07
-6.679328e-06
-6.252534e-07
-4.254815e-06
-1.020112e-05
1.546129e-06
-5.03966e-06
-2.999594e-06
2.544576e-06
5.324796e-07
-8.266838e-06
5.491297e-06
2.935828e-08
-2.298311e-06
2.975208e-06
-2.080291e-06
-9.957411e-06
-1.599527e-06
-3.528494e-06
-6.899533e-06
-3.628701e-06
-4.575206e-06
-1.037465e-05
6.535466e-07
-4.813458e-06
-1.298645e-07
-4.969242e-06
-3.275686e-06
-3.74447e-06
-2.450729e-06
-1.553043e-06
-3.532197e-06
1.034226e-05
-3.756635e-06
-5.655374e-07
-2.799064e-06
-4.194253e-07
-9.301237e-07
3.483384e-06
-1.633768e-06
-4.056931e-06
-7.2382e-06
-9.586422e-07
-5.460594e-06
-1.019575e-05
-9.113804e-06
-2.368564e-07
-4.62589e-06
-4.253172e-06
-1.879948e-06
-5.530967e-06
5.554891e-07
-3.405214e-06
-4.447548e-06
4.34315e-07
-1.029449e-06
-8.836083e-06
3.336585e-06
-4.786772e-06
-8.77943e-06
-1.849054e-06
-1.811229e-06
9.701556e-07
-4.136232e-06
1.788683e-06
-5.902286e-06
6.280578e-06
3.536592e-06
-5.568575e-07
-5.915291e-06
-9.268217e-06
-6.858923e-06
-2.082153e-06
2.343002e-06
-1.141485e-06
-2.034099e-06
-9.646134e-07
-2.82269e-06
-7.518067e-06
-2.879481e-06
-2.503827e-06
-4.051752e-06
-1.349297e-06
-3.053304e-06
-4.712295e-07
4.089318e-07
-2.814869e-06
-9.354661e-06
-1.801451e-07
-7.253724e-08
2.711498e-07
-6.720633e-06
-9.275451e-06
-1.27353e-06
-2.213303e-06
4.724401e-07
-4.174655e-06
1.964228e-07
-2.932044e-06
-3.27956e-06
3.125771e-08
-4.337674e-06
-2.231317e-06
-4.743409e-06
6.197252e-07
-6.169868e-07
-2.914697e-06
-3.855939e-06
1.333766e-07
-2.248221e-06
-3.76623e-06
-1.249172e-06
-2.313157e-06
-2.425329e-06
-2.919573e-06
-4.355012e-06
5.898468e-06
-1.290841e-06
-4.292702e-06
-4.122346e-06
-2.008211e-06
-4.753467e-06
-1.285057e-06
-1.430773e-06
-2.802018e-06
1.463035e-06
-2.936467e-06
-2.744251e-06
-1.061427e-06
-2.553425e-06
-2.141183e-06
-9.344624e-06
2.82767e-06
1.307989e-07
3.846732e-06
-3.648276e-06
-5.588119e-06
-1.262738e-06
-4.423859e-06
-3.480031e-06
-2.391249e-07
-8.477587e-07
-1.295738e-07
-1.414318e-07
-5.267549e-07
-7.17563e-07
-2.450964e-06
1.581236e-06
-6.868969e-06
-6.040747e-06
-4.045205e-06
-5.378318e-07
-1.520686e-06
-1.775825e-06
-3.896935e-06
5.34168e-06
-6.07727e-06
-5.185817e-06
2.633103e-06
-3.266645e-06
-7.225147e-06
-6.343389e-06
-2.006816e-06
-1.817345e-06
3.44718e-06
-2.198782e-06
-2.361319e-06
1.8773e-06
-4.937389e-06
-6.050065e-06
6.828281e-06
-2.814515e-06
-2.316859e-06
-8.489721e-07
1.735194e-06
-3.713348e-06
-9.673779e-07
-6.441217e-07
4.664271e-07
1.997798e-07
-4.709551e-06
-2.677963e-06
-8.946066e-07
5.167479e-07
-9.922555e-07
-2.642736e-06
1.770464e-06
-2.523784e-06
-4.342576e-07
1.671681e-06
-8.8611e-06
-1.142323e-05
-2.67675e-06
-1.588258e-06
1.357409e-06
1.028285e-06
2.095715e-07
2.252617e-06
1.12114e-07
-5.33267e-06
5.728886e-06
-4.74911e-06
1.566752e-07
-9.247003e-06
3.120653e-06
7.364158e-06
-3.521552e-06
1.146174e-07
-3.628075e-06
-3.314417e-06
-3.725951e-06
-3.410163e-06
-4.701487e-06
-2.494969e-06
3.302636e-06
-8.907555e-06
-8.329896e-06
-8.663584e-06
-1.3393e-06
-8.200219e-06
-9.171288e-07
3.448399e-06
-3.001025e-06
-4.556581e-06
-1.870649e-06
-6.600926e-06
-2.590939e-06
8.485997e-07
-1.06765e-06
-1.297072e-06
-4.267152e-06
-2.449548e-07
1.857698e-06
-8.90282e-06
-2.380393e-06
-9.173245e-06
-5.290963e-06
-1.03514e-05
-1.047107e-05
-5.655344e-06
-3.105961e-06
1.066866e-06
-3.708778e-06
-7.328854e-07
2.396849e-06
-1.060595e-05
-1.003302e-05
2.208861e-06
-1.802816e-06
1.184732e-06
4.97109e-07
-4.766058e-06
1.193853e-06
-1.060596e-06
-2.719501e-07
-5.094098e-06
-2.735992e-06
-2.328508e-06
-2.189388e-06
2.134592e-06
-2.47045e-06
-2.363609e-06
-3.957258e-06
-5.57142e-06
-2.722576e-06
-3.774459e-06
-1.570258e-06
-1.2281e-06
-4.331661e-06
-1.637631e-06
-4.874349e-06
1.349945e-06
-1.150621e-06
1.435979e-06
-6.491115e-07
-2.538404e-06
5.410779e-06
-4.31374e-06
-5.179435e-06
-1.335906e-06
-1.161599e-06
2.18582e-07
-5.450991e-07
5.467659e-07
4.502602e-06
-3.946769e-06
-2.626108e-06
-6.951752e-06
1.165037e-07
-5.568995e-06
-2.198429e-06
6.95687e-07
-1.66593e-06
4.219552e-06
1.043542e-06
6.764943e-07
-4.586701e-07
-2.435765e-06
2.997726e-06
-4.303835e-06
1.279496e-06
-2.858111e-06
-4.57088e-06
-1.343533e-05
-3.384298e-06
-3.759726e-06
-5.141187e-07
-2.436453e-06
-4.515042e-06
-4.642836e-06
-5.399516e-06
-2.879051e-06
-6.129925e-06
-4.095771e-06
-8.503351e-07
-3.342204e-06
-9.604873e-07
4.680965e-07
-1.228995e-06
-2.886825e-07
-3.954241e-07
-8.210943e-07
-9.362382e-07
-5.007799e-07
-3.245063e-07
-4.335366e-06
2.447075e-06
-2.483687e-06
-4.686671e-06
-1.521791e-06
3.062018e-07
2.991224e-06
2.051696e-06
-2.011191e-06
5.822485e-07
-2.778872e-06
-2.041132e-06
-1.957802e-06
-2.326858e-07
-8.556003e-07
-3.861839e-06
1.648487e-06
4.615188e-07
-1.949082e-06
-8.14765e-07
-9.616448e-07
-1.274039e-06
-5.522956e-07
-5.88829e-06
8.469149e-07
4.843053e-07
4.650779e-07
4.431462e-06
-1.003719e-05
-7.113545e-07
5.86987e-06
-6.755529e-07
-4.123395e-06
9.331e-08
-2.611063e-06
-4.664137e-06
-1.835509e-06
4.593125e-06
-3.906184e-06
-2.550882e-06
-3.095463e-06
-3.707189e-06
-5.01804e-07
-1.359579e-06
-7.551052e-06
-5.154267e-06
3.547217e-06
-3.242538e-06
1.70898e-06
-1.894165e-06
-3.999575e-06
-8.005839e-06
-6.481246e-06
-1.751065e-06
-2.053393e-06
-5.816537e-06
-4.955012e-06
-6.51558e-06
9.300404e-08
2.116106e-06
1.25288e-06
-2.811837e-06
-3.53766e-06
-3.856556e-06
-3.723132e-06
-4.475327e-06
7.358988e-08
1.981794e-07
-3.235857e-06
-4.258772e-06
-2.92909e-06
-7.959417e-07
-1.998624e-06
-4.259352e-06
-4.883295e-07
-2.009052e-06
-3.440093e-06
2.876064e-06
4.107383e-06
-2.497999e-06
-6.827283e-07
7.110555e-06
-4.612669e-06
-2.545805e-06
-3.943479e-06
-3.627347e-06
3.770703e-06
3.509443e-06
-3.677319e-07
-3.392425e-06
1.644547e-06
9.640904e-07
1.189855e-06
1.251077e-06
1.392474e-06
-1.432223e-06
1.78597e-06
-2.829788e-06
-8.32267e-06
-1.875648e-06
-1.758423e-06
-1.232361e-06
-6.667418e-08
5.31941e-06
9.899622e-07
4.685309e-07
-8.616662e-06
-5.116336e-07
-3.408588e-07
-5.928815e-06
-6.478115e-06
1.604481e-06
-4.085349e-06
-5.93094e-07
2.161574e-06
-2.087908e-06
-2.505414e-06
-2.421642e-06
-5.1841e-06
-7.424605e-06
-6.762208e-06
-2.05279e-06
-1.380564e-06
1.77631e-06
1.147913e-06
-1.699039e-06
-3.170616e-06
-1.380102e-06
-1.472227e-06
-2.708795e-07
4.369443e-06
6.925684e-06
-2.797394e-06
-3.078553e-07
-3.932948e-06
-5.682715e-06
1.07113e-07
-1.35056e-06
7.239718e-07
-6.060567e-06
-2.205667e-06
-6.332856e-06
-1.977796e-06
-2.645707e-06
3.736523e-07
-7.324615e-06
-1.206069e-06
-1.254982e-05
-1.711138e-06
-3.361915e-06
-7.45547e-06
-1.949295e-06
-2.388745e-06
-5.079625e-06
-3.842304e-06
-2.585809e-06
-1.128312e-05
-3.04093e-06
-3.20543e-06
4.895444e-06
-2.308514e-06
-1.546166e-08
-3.343126e-06
-2.691845e-06
-2.113792e-06
2.731007e-06
-4.481528e-06
-2.357845e-06
-1.645377e-06
-2.211323e-06
-2.892642e-06
-3.205055e-06
3.055847e-06
2.300383e-06
2.41354e-06
-2.02451e-06
-1.927961e-06
-5.583425e-06
-4.495031e-06
-2.991725e-06
-5.244346e-06
-4.972493e-06
-1.311862e-06
2.691178e-06
-1.062247e-06
-6.86477e-06
-7.720686e-06
-1.276394e-06
-1.262534e-06
-1.483943e-06
-1.190379e-05
-1.798771e-06
5.980547e-07
5.068684e-06
-3.452954e-06
-3.006821e-06
-2.673356e-06
-8.515719e-06
-7.254249e-06
-3.590491e-06
-4.683766e-06
-1.884777e-06
-2.751332e-06
-5.127463e-06
-2.202598e-06
-2.903062e-06
-3.535173e-06
-2.750154e-06
-7.346779e-06
-2.406757e-06
-3.654266e-06
-1.194707e-06
-7.889109e-07
-5.319775e-06
5.675818e-06
2.410193e-06
6.491263e-06
-2.542844e-06
-2.643203e-06
4.960568e-07
-2.544804e-06
-1.496279e-06
-4.605985e-06
-3.345918e-06
-3.227599e-06
-8.799517e-06
-1.151369e-06
-7.480002e-06
1.09493e-07
-8.340608e-06
-8.516203e-06
-8.417993e-06
-5.520833e-06
-2.589185e-06
-2.116063e-06
-2.192601e-06
-2.320561e-06
-1.202292e-05
-2.589209e-06
-3.229989e-06
-8.178855e-06
-3.05799e-06
-6.548133e-06
-4.723605e-06
-2.011054e-06
-1.254236e-05
-9.655802e-06
-1.067258e-05
-5.944073e-06
-6.610536e-06
3.009444e-06
-1.020062e-05
-3.717655e-08
-7.090792e-06
-6.986238e-06
-2.503819e-06
-6.97429e-06
-3.106473e-06
-7.489845e-07
-5.839851e-06
-9.219465e-06
-1.277009e-06
-3.245924e-06
-1.717276e-06
1.08806e-06
-1.36036e-06
-5.286587e-06
-5.225725e-06
-1.230341e-05
-5.319065e-06
-1.775157e-06
-2.115516e-06
-1.635985e-06
-2.263326e-06
-7.542055e-06
-2.20458e-06
-2.765148e-06
-6.533814e-07
-3.421659e-06
-1.181121e-06
-7.075462e-06
-1.693665e-07
-2.43787e-06
-1.828789e-06
-1.762039e-06
-9.624074e-06
-3.355613e-06
-3.388609e-06
3.540414e-06
-1.880926e-06
-8.195781e-06
-1.041028e-05
-3.659931e-06
-3.188117e-06
-1.966383e-06
-3.472757e-06
-1.701287e-06
2.713657e-07
-2.029338e-06
-2.264698e-06
-4.616816e-07
-2.264517e-06
-2.324917e-06
-3.063703e-06
-2.631055e-06
-1.582588e-06
-3.47112e-06
-3.250524e-07
-1.747542e-06
-8.586815e-06
-1.241981e-05
2.604662e-07
1.760938e-06
1.514224e-08
-2.486198e-06
-7.022972e-07
-2.29731e-07
3.349697e-07
3.955488e-07
-5.670597e-07
-1.815415e-06
-1.94554e-06
-1.02335e-06
8.148925e-07
6.738789e-07
-5.43425e-06
1.090292e-07
-2.621536e-06
-2.345931e-06
-6.418904e-06
-3.356776e-06
-8.382855e-06
-5.927988e-06
-9.648587e-06
-8.976139e-06
-6.642562e-06
-5.909617e-06
1.223338e-06
1.476091e-06
2.188332e-06
-2.684558e-06
-3.021379e-06
-1.903697e-06
-1.797813e-06
-2.082506e-06
-2.242657e-06
-2.367649e-06
-2.694028e-06
-3.496376e-06
-2.983725e-06
-5.865668e-07
-3.277587e-06
-2.833961e-07
-3.388635e-07
-8.50009e-06
-4.652643e-06
-4.746889e-06
-8.302186e-06
-7.166793e-06
-9.971312e-07
-3.211635e-06
-9.972216e-06
-5.05622e-06
-5.881028e-06
1.187425e-06
-1.031024e-05
4.816137e-07
-2.037885e-06
2.276093e-06
-5.329573e-06
-1.839338e-06
-5.473036e-06
-7.63624e-06
-1.193773e-05
-4.673317e-06
-4.072682e-06
-3.924762e-06
-1.142832e-06
-1.464337e-06
-7.50207e-07
-4.861709e-06
-4.972014e-06
-3.999932e-06
-8.629414e-06
-6.626732e-06
-7.087256e-06
-5.139016e-06
-1.075282e-05
-1.202494e-06
-2.383245e-06
-6.259228e-07
5.217586e-07
-1.500979e-06
-1.151448e-06
-4.624857e-06
-4.021891e-06
-7.687753e-06
-6.401491e-06
-6.051396e-06
-7.800216e-06
-6.163969e-06
-5.719453e-06
-5.84782e-06
-7.090547e-06
-6.11704e-06
2.165941e-07
1.455176e-07
-7.13349e-06
-7.216843e-06
-1.11138e-05
-8.63155e-06
-4.381646e-06
-4.647334e-06
-9.198293e-06
-9.550647e-06
-1.074482e-05
-3.454259e-06
8.960707e-07
-4.844774e-06
-4.911969e-06
-1.546243e-06
-1.534002e-06
-2.169414e-06
-8.146505e-06
-9.212011e-06
-6.972429e-06
-7.190052e-06
-7.523576e-06
-7.504927e-06
-9.246731e-06
-8.053603e-06
5.370887e-07
-6.534252e-06
-6.80106e-06
1.979523e-06
-5.760318e-06
-4.337278e-06
-4.624324e-06
-8.226546e-06
-3.3335e-06
6.40646e-07
-4.796238e-06
-9.939484e-06
-1.241913e-06
2.377929e-07
-9.984825e-06
2.593788e-06
-6.087867e-06
-1.757792e-06
-3.181559e-06
-6.074129e-06
-2.765331e-06
-9.033623e-07
-5.348368e-07
-7.043536e-06
-5.949933e-06
-6.759668e-06
-8.186009e-06
-5.468142e-06
-5.76302e-06
-6.70321e-06
-7.764648e-06
-5.928368e-07
-1.026655e-06
-7.75588e-07
-2.78184e-06
-6.072145e-06
-1.017312e-05
-1.018304e-05
-3.894141e-07
-8.093464e-07
-8.113465e-06
3.697717e-06
-7.639309e-06
-2.285453e-06
6.068877e-06
-2.16365e-07
-4.430615e-06
-1.033454e-05
-1.230857e-07
-4.687907e-08
-1.477837e-06
-5.898244e-06
-9.198375e-06
-3.455015e-06
1.81694e-06
5.729759e-06
3.340527e-07
9.10395e-07
4.104058e-06
-3.248738e-06
1.199812e-06
-3.921747e-06
-2.792262e-06
-4.501625e-06
-1.314627e-06
-1.333275e-06
-4.949155e-06
-1.11072e-05
-5.845114e-08
-1.045741e-05
-6.875984e-06
-6.97614e-06
-3.175236e-06
-1.543044e-06
-4.188773e-06
-3.130248e-06
-3.435286e-06
-3.496948e-06
-3.380913e-06
3.647941e-06
-1.136153e-05
-1.204123e-05
-9.009335e-06
-1.279176e-05
-1.146631e-05
-1.246275e-05
-1.31661e-05
-2.552897e-06
-8.727449e-06
1.078406e-06
1.913088e-06
-3.745512e-07
2.614561e-07
-4.972319e-06
-4.235867e-06
-6.344631e-06
-3.089869e-06
-2.382485e-06
-2.072148e-06
-3.554121e-07
-2.488357e-06
-1.069415e-06
9.992808e-07
3.381888e-07
1.383875e-06
1.289025e-06
1.283076e-06
-3.010223e-06
-1.761094e-06
4.060061e-07
9.119602e-07
4.023508e-06
-2.277849e-06
-4.169976e-07
-3.397564e-06
-8.102181e-06
2.120558e-06
-8.222468e-06
-1.028833e-05
-8.633251e-06
-3.014369e-06
-2.820388e-06
-5.552948e-06
-4.548619e-06
-8.943805e-06
-5.574856e-06
-1.432316e-06
4.193741e-06
-3.64517e-06
-3.768567e-06
-1.47317e-06
-2.030193e-06
1.845022e-06
1.786682e-06
-1.908587e-06
-1.860129e-06
-1.804845e-06
-4.996976e-07
2.63594e-07
-2.838486e-07
8.065863e-09
-1.481272e-06
2.307993e-07
-2.663918e-07
-2.302494e-07
7.737931e-08
7.726764e-08
1.356049e-07
-3.330824e-06
-2.799019e-06
-3.275885e-06
-8.943558e-06
-7.940572e-06
-5.34831e-06
-2.102257e-06
-1.02069e-05
-8.17238e-06
-9.523204e-06
-1.482071e-06
-2.131714e-06
-4.31131e-06
1.809898e-06
-2.754761e-07
-2.747532e-06
-2.919451e-06
-6.399675e-07
-2.427313e-06
-3.009828e-06
-3.629383e-06
-7.373594e-08
-3.732153e-06
1.520042e-06
-9.943463e-07
-8.618203e-07
-1.748053e-06
-2.272267e-06
-1.838844e-06
-3.624063e-06
-2.087843e-07
-5.155042e-07
-1.453678e-06
-2.730345e-06
-2.625099e-06
-3.300885e-06
-1.202459e-05
-1.237625e-05
-1.587219e-06
-1.088639e-05
2.412421e-07
4.065237e-07
3.209629e-07
-2.545746e-08
3.576884e-07
5.547475e-07
-9.168821e-06
-8.760705e-06
2.281008e-06
-4.927766e-06
-5.105264e-06
-7.424853e-06
-2.710791e-06
-2.882321e-06
-2.71549e-06
-6.48837e-06
-1.423244e-07
-1.007253e-05
-5.561913e-06
-2.422185e-06
-1.419085e-07
-3.066966e-06
-2.943058e-06
-9.029434e-07
-1.184372e-06
-3.030732e-06
-1.473994e-06
-2.34917e-06
-3.3726e-06
-2.91199e-06
-2.993159e-06
4.298259e-07
-3.050958e-06
-3.098065e-06
-2.794197e-06
-1.757537e-06
-3.59505e-06
-3.893196e-06
-2.395348e-06
-1.370978e-06
-4.461755e-06
-1.08742e-06
-5.845431e-06
-3.066357e-06
-5.051675e-06
-4.6811e-06
-5.440534e-07
-2.735192e-06
-3.415021e-06
-5.363601e-06
-2.616253e-06
2.048875e-06
-2.190256e-06
-8.016773e-06
-2.919829e-06
-2.794032e-06
-1.183302e-07
2.188594e-06
-2.527079e-06
-2.470583e-06
2.019945e-06
-6.170577e-06
-8.896527e-06
-7.809357e-06
-2.182195e-06
1.342173e-06
1.33554e-06
-1.610893e-06
-1.001612e-06
-2.122172e-06
-3.028198e-07
-2.908049e-06
1.56661e-06
-2.767446e-06
-4.510756e-06
-4.642409e-06
-4.836433e-07
-3.59932e-06
-3.605458e-06
1.163622e-07
-2.8806e-06
-3.185421e-06
-5.81914e-06
-4.901617e-06
-4.625877e-06
4.434642e-07
3.570176e-06
4.802169e-07
-6.259962e-06
-6.541962e-06
-1.179679e-06
-3.307811e-08
-2.398617e-06
1.276122e-06
-1.77472e-06
-1.934258e-06
8.695871e-07
1.430804e-06
-2.363028e-07
4.62809e-07
-5.650598e-07
-2.352556e-06
-2.086987e-06
-5.347122e-06
-3.29686e-07
-6.279081e-07
-4.110941e-06
3.524147e-07
-1.203069e-06
-1.072631e-06
-1.51452e-06
-4.277262e-06
-6.247495e-06
-2.612328e-06
-2.193395e-06
-2.243008e-06
2.042233e-07
-2.59643e-06
1.447789e-06
-5.256078e-06
-2.292271e-06
-1.634939e-06
-9.478221e-06
-8.96539e-06
-1.896076e-06
-5.553635e-06
-7.511538e-06
-9.554167e-06
-1.254589e-06
-1.476001e-06
-2.338277e-06
-6.095256e-07
-4.41499e-06
-8.000749e-07
1.148635e-06
-3.203044e-06
-8.298423e-06
-1.296002e-06
1.194676e-06
-1.647059e-06
-1.513062e-06
-3.339479e-06
-9.668807e-07
-6.916827e-06
-8.198741e-06
-3.376506e-06
-5.936745e-06
7.371183e-07
3.437614e-06
-8.410545e-07
-1.148685e-05
-1.748874e-06
-2.13908e-06
-6.189643e-07
-1.586178e-06
6.122946e-06
-3.760132e-06
-5.657727e-06
-3.392477e-07
-3.39261e-06
-3.346784e-06
3.012052e-06
2.87358e-06
-2.200036e-08
-2.688993e-06
1.23542e-06
5.082563e-07
-2.421658e-06
-8.180388e-06
-3.928761e-07
-4.180078e-07
-8.473474e-07
-8.648739e-07
-1.065549e-06
-7.992884e-07
-1.054759e-06
-5.727845e-07
-7.115134e-07
-9.321554e-07
-6.386748e-07
-2.992666e-07
-3.80525e-06
-5.136987e-07
1.369447e-06
1.671248e-06
2.642893e-06
4.288358e-07
8.297905e-07
7.581128e-07
1.330588e-06
6.855966e-07
-7.166747e-06
2.977894e-06
2.369664e-06
-1.456962e-06
-6.538539e-06
-4.631304e-06
-6.024156e-06
-1.818073e-06
-7.795899e-06
9.782293e-08
-1.1091e-06
2.94187e-06
2.121033e-07
-4.306204e-08
-8.620074e-07
-2.78949e-06
-1.584135e-06
-3.766165e-06
-3.610215e-06
-1.056031e-05
-4.353101e-06
-4.684752e-06
-5.392741e-06
-5.249797e-06
-5.744233e-06
-6.1715e-06
-4.522658e-06
-4.473297e-06
-3.91059e-06
6.326655e-07
-4.787432e-06
-4.097211e-06
-2.46414e-06
9.1359e-07
-5.467889e-06
1.874495e-06
-2.53975e-06
-2.713448e-07
-6.072004e-06
-5.440924e-06
-6.671049e-06
-9.912115e-06
-1.000588e-05
-3.843074e-06
-1.723107e-06
-1.700182e-06
-2.57308e-06
-2.492719e-06
-3.854101e-06
6.471247e-07
-8.831919e-06
-3.239259e-06
1.299142e-06
-3.879756e-07
5.085032e-06
-6.142922e-06
-6.454522e-06
-4.050704e-06
-6.86003e-06
-6.741843e-06
-3.786007e-06
-3.849068e-06
6.314854e-07
-4.844713e-06
4.392477e-06
3.54535e-06
2.593736e-06
-4.920228e-06
-6.291027e-06
-8.130564e-06
-7.227589e-06
-4.860576e-06
-6.197009e-06
-7.549793e-06
-7.150174e-06
-5.576045e-06
-5.478138e-06
-1.891826e-06
-6.337893e-06
-1.753907e-06
-9.75824e-06
2.579787e-06
-9.233773e-08
-5.945899e-06
7.731366e-07
9.032422e-07
4.764601e-06
-2.56106e-06
5.475019e-06
4.346959e-06
-3.092295e-06
-5.088449e-06
-9.451438e-06
1.463395e-06
1.05243e-06
1.050622e-06
-7.02806e-07
-6.884477e-06
-7.044735e-06
-5.110203e-06
-2.589637e-07
-8.060051e-08
-9.151848e-06
-1.122005e-05
-1.070098e-05
-4.981343e-06
-3.874315e-06
-6.397037e-06
-7.605674e-06
-2.118934e-06
-3.382283e-06
-3.454014e-06
-4.625102e-06
-4.435892e-06
-1.130315e-06
-1.038848e-05
2.773688e-07
-2.748269e-06
3.045486e-06
-8.470995e-08
-4.279109e-06
2.25368e-06
-4.189937e-06
7.047927e-07
-8.737442e-06
-2.023193e-06
-5.322223e-06
1.641257e-06
-3.221028e-07
7.136507e-07
-2.982647e-07
-4.553438e-07
-4.141166e-06
-2.227369e-06
-3.226648e-06
-2.370662e-06
-1.940729e-06
-2.049911e-06
-2.720822e-06
-8.505093e-06
-3.150058e-06
1.095849e-07
-4.091709e-06
1.818895e-06
1.671578e-06
-4.057176e-06
-1.093369e-08
-5.037875e-06
-2.716547e-06
-3.168163e-06
-1.938627e-06
-2.846453e-06
4.462241e-06
-5.45459e-07
1.017915e-06
-5.883256e-06
7.43349e-06
-8.001762e-07
-1.133651e-06
-8.093894e-07
-7.168748e-07
-7.392351e-07
-1.013481e-06
-2.23824e-06
-9.668e-07
-9.629438e-07
7.500759e-06
2.835837e-07
1.618735e-07
-1.442532e-06
-3.775958e-06
-4.60312e-06
-2.064201e-06
-1.457573e-06
6.111931e-07
6.710318e-07
1.02571e-06
-1.970715e-06
-1.938145e-06
6.302138e-06
5.579918e-06
1.213494e-06
7.560094e-07
-8.993768e-07
-2.234663e-06
-2.312399e-06
-3.258056e-06
-3.071833e-06
1.312058e-06
7.328663e-07
-7.901793e-06
-1.607221e-06
-1.487595e-06
1.501608e-06
1.47372e-06
-6.113676e-06
-3.011332e-06
-3.275132e-06
1.165361e-06
9.161264e-07
-1.116403e-05
-5.40119e-06
-5.705056e-06
-4.941722e-06
-1.104467e-06
-1.331435e-06
-2.04049e-08
-1.630135e-06
-1.214073e-05
1.54278e-06
-7.034069e-06
3.855003e-06
-1.264766e-06
-1.70015e-06
-3.297233e-06
-3.034292e-07
-6.857431e-07
-5.505012e-06
-1.446151e-06
1.41042e-06
1.669981e-06
-4.622818e-06
-1.052793e-05
7.852445e-07
-4.094255e-07
-4.708775e-06
1.01472e-07
-2.854588e-07
-6.267971e-06
-1.089624e-05
4.887795e-07
1.541165e-06
-3.743217e-06
-5.034313e-06
-6.971708e-06
-6.524979e-06
-4.158112e-07
-3.653903e-07
-4.706117e-06
-3.013127e-06
1.745809e-07
3.083507e-07
5.370154e-07
1.825855e-07
9.226144e-07
4.427186e-06
4.225674e-06
-4.665772e-07
-1.285228e-06
-2.15834e-06
-1.541766e-06
-4.982711e-06
5.124089e-06
-7.990607e-06
-3.012028e-06
-3.327267e-06
-3.853585e-06
2.2064e-06
-3.180384e-06
-2.9093e-06
-7.243522e-06
-7.405165e-06
2.520441e-07
-6.780799e-06
4.490509e-06
6.819942e-07
-2.003582e-07
-1.103028e-06
-1.100344e-05
-1.047596e-05
-1.31898e-07
-2.209742e-06
-3.459465e-06
-4.190443e-06
1.958572e-06
-7.556218e-07
-3.753475e-06
-3.466848e-06
-2.549903e-06
5.780708e-06
6.444478e-06
1.155783e-07
5.284215e-09
-5.591417e-06
-7.207968e-09
-2.039683e-06
-2.20711e-06
-6.380676e-06
-8.627996e-06
-7.003313e-07
-1.730621e-07
-2.309372e-06
-2.267067e-06
4.552797e-07
-6.489235e-06
2.957241e-07
-8.157689e-07
-7.465857e-06
-2.345759e-06
4.626797e-06
7.738457e-06
-2.002124e-06
-1.410864e-06
6.993352e-07
8.405577e-07
-1.455698e-06
4.163294e-06
5.261584e-06
1.378183e-06
1.17444e-06
-6.078413e-07
-2.526764e-07
6.818317e-06
3.681092e-06
-3.67145e-06
1.920461e-06
2.463617e-06
-4.007707e-06
-2.57782e-06
-3.755857e-06
-3.579952e-06
-2.074105e-06
-1.386657e-06
-3.339152e-06
-4.43536e-06
-3.641016e-06
-3.883345e-06
-4.991239e-06
-4.27606e-06
-4.716787e-06
-6.689257e-06
-3.517771e-06
-4.236368e-06
-4.288311e-06
-5.093949e-06
-5.017605e-06
-5.497262e-06
-3.893536e-06
-4.628738e-06
-4.680988e-06
-3.24108e-06
-2.927396e-06
-1.475395e-07
-2.936844e-06
-2.832214e-06
-6.197398e-06
-6.145027e-06
1.881177e-06
2.583735e-06
-4.070383e-06
-6.769241e-06
6.273566e-07
-1.789723e-06
-4.397207e-06
-2.254057e-06
-2.122504e-06
-4.222925e-06
-3.531484e-06
-3.720489e-06
-4.089047e-06
-9.674986e-07
-4.494381e-06
-4.449238e-06
-5.270217e-06
-3.967562e-06
-3.330352e-06
-3.866299e-06
-5.205362e-07
5.024858e-07
3.412105e-07
3.041387e-06
9.553829e-07
-1.892737e-06
-1.874014e-06
3.479162e-07
-4.880246e-07
-2.713671e-06
2.484365e-07
-7.831123e-06
-3.185181e-06
-3.840716e-06
1.601015e-06
7.707788e-07
2.473117e-06
1.829802e-06
1.870468e-06
-2.403511e-06
-2.428711e-06
-2.509655e-06
-7.010096e-06
-3.554882e-06
-3.094931e-06
-3.467912e-06
-1.792741e-06
-2.867213e-07
4.232908e-06
5.572889e-08
5.030416e-07
-3.892275e-06
-2.446897e-06
9.297683e-07
-2.984859e-06
-4.511297e-07
-2.190529e-06
-2.701625e-06
-2.602399e-06
2.283417e-07
-2.709743e-06
-9.672069e-06
2.692132e-06
3.644312e-06
3.36771e-06
2.629559e-06
3.684925e-07
-2.746698e-06
5.576086e-08
-1.796245e-06
-1.031828e-06
-4.436086e-06
8.967122e-07
8.651986e-07
-1.449515e-06
-3.233119e-06
-1.222117e-06
-2.987906e-06
-2.853821e-06
7.002842e-06
-9.475094e-06
-8.981242e-06
-1.994518e-06
-2.135047e-06
-3.875258e-06
-2.098577e-06
-4.448727e-06
-3.329427e-06
-5.070918e-06
2.205652e-07
-1.807081e-06
-1.188087e-06
-1.717839e-06
-1.589187e-06
-3.138918e-06
-4.476304e-06
-1.808237e-06
-1.987781e-06
-5.816397e-07
5.763734e-07
-9.61906e-06
-7.373423e-06
-7.363371e-06
4.671175e-07
-3.647743e-06
4.5312e-07
2.630979e-06
3.248981e-06
-2.220314e-06
-9.892519e-07
-2.375053e-06
-2.866735e-06
-7.522232e-07
2.158375e-06
-7.74579e-06
-6.476498e-06
-8.599003e-07
-9.22714e-07
-1.426044e-06
-6.37557e-06
-5.426661e-06
-7.832216e-06
7.000184e-07
1.098111e-06
-1.168892e-05
3.357097e-06
-4.978068e-06
-3.56516e-06
3.97181e-07
-2.378602e-06
-1.276353e-06
-1.105709e-06
-4.023646e-06
-4.539081e-06
1.868425e-06
-2.346339e-06
-2.384989e-06
3.089701e-06
-9.686193e-06
-6.732482e-06
-4.890405e-06
-2.533081e-06
-2.686718e-06
-1.950626e-06
-1.68242e-06
-4.249676e-06
-2.928391e-06
-2.795454e-06
-2.432099e-06
6.073949e-07
7.870463e-07
-9.995367e-06
-9.403229e-06
5.302377e-06
-6.399849e-07
-8.666882e-07
6.88916e-08
2.903271e-07
-4.990277e-06
-2.603621e-07
-7.633121e-07
-1.978501e-06
-2.184561e-06
8.000433e-06
-2.408041e-06
2.868129e-06
2.199776e-06
-2.896039e-06
-6.487162e-06
1.061338e-07
-5.703625e-08
-2.475739e-06
-2.468718e-06
-3.692338e-06
-5.143675e-06
-8.140262e-06
-3.305954e-06
-1.055096e-05
-1.066409e-05
-1.204104e-07
-3.098495e-06
-1.683092e-06
-1.115179e-05
-4.03422e-06
-1.135547e-05
-2.092884e-07
-2.362467e-06
1.796743e-06
2.142134e-06
9.722931e-07
1.119422e-06
3.101028e-06
1.024181e-06
-5.496186e-06
-3.257525e-06
-3.188159e-06
9.963734e-07
2.216438e-06
-1.072927e-05
1.723173e-07
1.630323e-07
-3.585548e-06
-3.851211e-06
-5.476793e-06
-4.991342e-06
-1.52017e-06
-2.998878e-07
-8.867601e-07
-5.478189e-06
-7.582193e-06
-2.236157e-06
-7.787278e-06
-7.856522e-06
-7.409596e-06
-7.545307e-06
2.652833e-06
-5.276517e-06
-2.847047e-07
-4.917462e-06
-5.281537e-06
-4.932028e-06
-9.757245e-06
-1.839331e-06
-2.888361e-06
-4.048739e-06
-4.07908e-06
-6.401997e-06
1.589001e-07
-4.579351e-07
-2.16343e-06
-4.058123e-07
-1.074408e-05
-1.24217e-05
-1.146141e-05
-3.022275e-06
-8.406921e-06
-1.108365e-05
-1.17876e-05
-1.886961e-06
-2.681048e-06
-2.643496e-06
-3.487496e-06
-3.262122e-06
-5.994695e-06
-5.423503e-06
3.734111e-06
-1.048239e-05
-3.585792e-06
3.753148e-06
3.30997e-06
-3.12903e-06
1.33074e-07
-6.187571e-06
5.832441e-07
-1.796167e-06
-1.884001e-06
-3.93805e-07
-3.165976e-06
1.423893e-06
-3.105454e-06
-1.002273e-05
-4.688467e-06
-8.385637e-06
-1.023263e-05
-9.361606e-06
-1.427455e-06
-9.215443e-06
-6.62195e-06
-6.121018e-06
-3.175508e-06
-2.690826e-06
-2.627617e-06
-1.02933e-06
-4.478576e-07
-4.41579e-06
-2.487817e-06
-9.119866e-06
-6.552865e-06
-5.800982e-06
-5.818623e-06
6.263223e-07
-1.017853e-06
-1.500852e-06
5.645904e-06
-3.564551e-06
-5.215823e-06
-5.371956e-06
-5.90808e-07
-8.638125e-07
-6.803128e-06
-3.983184e-06
-7.126175e-07
-5.570596e-06
-5.229857e-06
-4.349675e-06
-4.231468e-06
-4.808686e-06
-7.756571e-06
-1.749064e-06
-2.167149e-06
2.215622e-06
2.078517e-06
3.437225e-08
1.091969e-07
-1.183819e-07
-3.966048e-07
4.475341e-08
6.820795e-07
-2.639019e-06
-4.656643e-06
-6.105745e-06
-6.102525e-07
-1.952193e-06
-1.618619e-06
-1.673212e-06
-2.523147e-06
1.998905e-06
-1.056978e-06
-1.694873e-06
-3.168458e-06
-2.392417e-06
-2.402801e-06
-3.243626e-07
-8.088059e-07
-7.376285e-07
1.428437e-06
1.491475e-06
1.631859e-06
-9.776498e-06
-1.665171e-06
8.270756e-07
1.187157e-06
-9.068769e-07
-1.965364e-06
-2.643187e-06
-1.66687e-06
-1.520642e-06
3.018353e-06
3.319299e-06
-1.238703e-06
4.191092e-06
-7.650048e-06
-8.440591e-06
-8.141435e-08
-3.60559e-06
-6.859217e-07
-2.000084e-06
1.040136e-06
-3.194876e-07
-1.967599e-06
-3.331968e-06
-5.999142e-06
-6.090013e-06
-6.97634e-07
-6.43685e-07
-9.165141e-06
-2.102402e-06
-7.089964e-06
7.642693e-07
-4.436826e-06
-3.909765e-06
1.472024e-07
3.24466e-07
-1.97966e-06
-1.786648e-06
-1.762337e-06
4.3273e-07
-2.912724e-06
-3.61442e-06
-3.288313e-06
-3.267212e-06
-2.149617e-06
-3.377985e-06
-2.004671e-06
-2.245044e-06
5.183684e-06
5.95029e-06
-2.799071e-06
1.523285e-06
1.120752e-06
-1.834109e-06
-1.913645e-06
-4.071706e-06
-9.586146e-07
-3.237267e-06
1.181778e-06
4.169343e-07
-3.826292e-06
-1.00544e-05
-9.319185e-06
-7.267033e-06
-6.480047e-06
-2.422163e-06
-2.435744e-06
7.322185e-07
-1.130017e-05
-1.190564e-05
-1.184343e-05
-4.752981e-06
1.532087e-06
-1.359955e-06
-1.278577e-06
7.929241e-07
3.24168e-06
-1.329224e-06
3.014697e-06
-2.495919e-06
-1.957311e-06
-3.21594e-06
-2.430161e-06
-2.658228e-06
-7.341364e-07
-6.171157e-07
-5.629761e-08
-2.424026e-07
-1.134801e-06
-1.396217e-06
1.606911e-06
1.758376e-06
-2.952665e-06
-2.518603e-06
2.653196e-06
-5.21342e-06
-7.402581e-06
-7.439132e-06
-7.382706e-06
-7.611523e-06
-7.849557e-06
-9.130632e-06
-7.958362e-06
-7.233142e-06
-9.406242e-06
-1.007929e-05
2.047508e-06
-3.335581e-06
-3.155092e-06
-6.524003e-06
-1.768654e-06
-1.266809e-06
-1.305102e-06
-1.003724e-06
1.486529e-07
3.152911e-07
-8.54087e-07
7.155115e-07
-2.084502e-06
-1.009698e-06
4.909806e-07
-1.012033e-05
-1.050897e-05
-2.611483e-06
-3.394451e-06
-3.551767e-06
-2.493372e-06
-1.181186e-06
-8.208526e-06
-6.813056e-06
-6.530745e-06
-6.402166e-06
8.200679e-07