/*--------------------------------*- C++ -*----------------------------------*\
| =========                 |                                                 |
| \\      /  F ield         | OpenFOAM: The Open Source CFD Toolbox           |
|  \\    /   O peration     | Version:  2406                                  |
|   \\  /    A nd           | Website:  www.openfoam.com                      |
|    \\/     M anipulation  |                                                 |
\*---------------------------------------------------------------------------*/
FoamFile
{
    version     2.0;
    format      ascii;
    arch        "LSB;label=32;scalar=64";
    class       volVectorField;
    location    "1.46";
    object      U;
}
// * * * * * * * * * * * * * * * * * * * * * * * * * * * * * * * * * * * * * //

dimensions      [0 1 -1 0 0 0 0];

internalField   nonuniform List<vector> 
15536
(
(0.1042273 8.198196 -8.662121e-22)
(-0.0442344 5.903556 -6.142124e-19)
(0.003340196 1.057391 -1.285628e-18)
(0.2843012 -1.73908 -1.351594e-18)
(0.4473009 -2.280502 -1.87527e-20)
(0.2583231 -1.427314 7.32768e-21)
(-0.1904135 0.423226 7.252294e-21)
(-0.6816734 2.073886 -7.262845e-21)
(0.1483819 -0.004635958 2.457146e-18)
(1.266009 -2.751643 3.539328e-18)
(1.51849 -3.254253 0)
(1.45713 -2.898382 0)
(1.2151 -2.270568 -3.034981e-20)
(0.823859 -1.469292 7.818845e-18)
(0.5159017 -0.8254046 4.112881e-18)
(0.2526624 -0.3415585 -9.573287e-18)
(-0.5780192 0.7079027 5.774567e-18)
(-1.9517 2.23219 5.582179e-20)
(-3.053039 3.364158 -1.107223e-19)
(-3.500386 3.715551 5.622665e-20)
(-2.056439 2.259367 0)
(1.391384 -0.9378962 1.663226e-18)
(4.085046 -3.144655 0)
(2.932002 -2.2747 -5.240776e-19)
(-0.3591483 0.06388294 -2.305154e-21)
(-2.514625 1.45128 -2.945579e-20)
(-3.808427 2.121984 2.893042e-20)
(-5.234245 2.661485 -5.628921e-18)
(-7.666298 3.522575 -8.94092e-18)
(-10.34142 4.405266 0)
(-11.14638 4.608789 -6.601746e-20)
(-4.685907 2.106806 -7.874184e-18)
(4.282194 -1.186753 4.78515e-18)
(1.046754 -0.5407701 0)
(-1.788 0.003397155 -6.997433e-18)
(-4.189144 0.4538374 -2.994756e-20)
(0.4648026 0.02620538 3.633877e-18)
(7.264493 -0.1673255 -1.69336e-18)
(11.02624 0.1063913 1.694046e-21)
(13.03301 0.5885391 -4.3198e-19)
(14.13215 1.18907 1.75468e-18)
(14.80853 1.85772 -2.768594e-20)
(15.22668 2.542518 2.748262e-20)
(15.4583 3.223231 0)
(15.54401 3.892669 -6.834929e-18)
(15.49543 4.53653 -6.761577e-18)
(15.30573 5.145601 0)
(15.04494 5.727406 -1.281384e-17)
(14.71761 6.278641 1.246661e-17)
(14.35045 6.803643 1.201869e-17)
(13.93172 7.28742 4.375005e-20)
(13.45528 7.725942 -1.090533e-17)
(12.9289 8.11411 0)
(12.36156 8.45401 0)
(11.7626 8.74217 8.863297e-18)
(11.12958 8.970322 8.159783e-18)
(10.48119 9.15003 5.472489e-20)
(9.823855 9.279621 6.524084e-18)
(9.143974 9.339971 1.157102e-17)
(8.454576 9.339798 4.983454e-18)
(7.763766 9.282285 4.123597e-18)
(7.085247 9.177129 -2.934573e-20)
(6.415633 9.014307 0)
(5.75235 8.786839 1.645333e-18)
(5.109297 8.511769 0)
(4.482181 8.175352 3.55241e-20)
(3.879359 7.784334 -2.818842e-20)
(3.311672 7.349321 -2.932292e-21)
(2.778383 6.867914 7.747256e-21)
(2.283667 6.344173 -3.073253e-18)
(1.833438 5.786944 -1.576109e-20)
(1.428294 5.193869 2.20178e-18)
(1.069806 4.567304 2.479162e-18)
(0.7633291 3.923231 0)
(0.5082721 3.265502 0)
(0.3072658 2.590367 3.138627e-18)
(0.1578769 1.903189 -4.162106e-22)
(0.06376505 1.20807 8.693257e-19)
(0.02828766 0.467725 1.620817e-21)
(0.04371175 -0.3317367 -6.903374e-21)
(0.1070633 -1.098346 -1.717665e-18)
(0.2271459 -1.815686 0)
(0.4020366 -2.508378 3.145774e-18)
(0.6292122 -3.182073 0)
(0.9075413 -3.832549 -2.71003e-18)
(1.234631 -4.455847 2.427188e-18)
(1.610065 -5.050577 1.80553e-20)
(2.03038 -5.614543 3.740142e-18)
(2.492182 -6.137326 1.073145e-20)
(2.991517 -6.616806 -2.425434e-18)
(3.525698 -7.054866 -1.696933e-18)
(4.091948 -7.445338 1.000456e-20)
(4.688267 -7.790244 -1.45729e-19)
(5.306948 -8.084112 -6.528552e-19)
(5.940443 -8.323768 1.446505e-20)
(6.578579 -8.496736 6.283576e-21)
(7.226529 -8.616866 -3.038177e-18)
(7.879912 -8.684157 0)
(8.530366 -8.691232 9.123527e-18)
(9.180139 -8.648596 5.268115e-18)
(9.809897 -8.542706 9.652034e-20)
(10.41574 -8.37594 -6.829252e-18)
(10.9935 -8.151435 0)
(11.54183 -7.87352 0)
(12.05977 -7.549847 0)
(12.53823 -7.178871 0)
(12.96702 -6.762031 9.812521e-18)
(13.34249 -6.303269 1.035992e-17)
(13.66365 -5.807033 2.654404e-20)
(13.92634 -5.282449 -1.110826e-17)
(14.09415 -4.720271 -5.656385e-18)
(14.14376 -4.124155 -5.824298e-18)
(14.02845 -3.492345 4.55237e-20)
(13.69047 -2.830367 5.885996e-18)
(13.01657 -2.159461 3.003508e-18)
(11.69254 -1.512671 -2.318598e-20)
(8.867674 -0.8596119 -5.549912e-21)
(3.764663 -0.2393544 3.819429e-19)
(-1.823385 -0.08443402 -8.046416e-19)
(-4.509102 -0.5931308 -2.056816e-20)
(-6.002128 -0.8527979 1.386353e-20)
(-4.612162 -0.5743333 2.945839e-18)
(-2.086852 -0.05769134 2.014011e-20)
(4.073771 1.316309 0)
(5.932927 1.552045 -2.869392e-18)
(-3.845347 -1.817522 -6.628404e-18)
(-10.3382 -4.261366 -7.670575e-21)
(-9.988364 -4.223446 1.406061e-17)
(-7.389313 -3.35738 -9.014323e-18)
(-4.832198 -2.417646 0)
(-3.149203 -1.738695 0)
(-1.920459 -1.12275 -3.271446e-18)
(-0.3692112 -0.1454755 0)
(1.757641 1.328707 1.002752e-20)
(2.807634 2.171053 -1.269735e-18)
(2.11937 1.747362 -1.60958e-18)
(1.14833 1.009028 2.025516e-20)
(0.6147141 0.5735162 -6.110916e-18)
(0.4222486 0.4224182 -5.958107e-20)
(0.3032458 0.298751 8.948235e-18)
(-0.1264181 -0.2095114 4.776434e-18)
(-0.5281278 -0.7697863 4.885951e-18)
(-0.7983086 -1.251515 4.770664e-18)
(-0.8586487 -1.440918 0)
(-0.8079719 -1.508358 -1.896233e-20)
(-0.9575339 -2.05322 -4.306415e-18)
(-1.192503 -2.815919 0)
(-1.161185 -2.962769 3.707911e-18)
(-0.8535602 -2.374133 -2.377939e-20)
(-0.4879048 -1.460056 1.070407e-20)
(-0.1413437 -0.3599867 8.926212e-19)
(0.1750039 0.9824676 -2.742601e-22)
(0.4329027 2.558456 0)
(0.5972715 4.247891 4.04474e-19)
(0.6320808 5.838519 3.94264e-21)
(0.5172999 7.116435 1.856965e-21)
(0.3045539 8.115003 -2.916384e-21)
(-0.2111046 9.348986 -2.413147e-19)
(-0.255752 9.630154 4.671832e-19)
(-0.1251708 6.14239 0)
(0.04323345 1.27643 1.064035e-18)
(-0.00976544 -0.2986851 0)
(-0.2399501 0.07203071 3.082026e-18)
(-0.6218099 1.471216 5.832445e-21)
(-0.7071654 2.302684 -5.950954e-21)
(0.8781659 -1.402052 -1.941991e-18)
(1.654559 -3.612173 -2.837806e-18)
(1.445879 -3.346611 0)
(1.434965 -3.075906 2.532006e-20)
(1.342889 -2.632289 -7.143016e-22)
(1.28253 -2.292792 -3.151075e-18)
(1.13342 -1.875752 -6.698612e-18)
(0.3701191 -0.7782493 3.811817e-18)
(-1.103593 1.037123 -4.503815e-18)
(-2.560635 2.634422 -3.790591e-20)
(-3.631031 3.76922 0)
(-4.078925 4.208466 0)
(-3.538463 3.855292 0)
(-0.1058854 0.8050721 1.284801e-18)
(4.753027 -3.593276 -2.654143e-21)
(3.220712 -2.911737 2.589201e-21)
(0.1868633 -0.6602276 1.336724e-20)
(-1.213664 0.4577202 -1.394212e-20)
(-2.066358 0.9513125 0)
(-2.974651 1.176899 0)
(-5.041572 1.790853 1.489953e-17)
(-7.466505 2.633192 1.09758e-19)
(-9.832782 3.88495 -1.078769e-19)
(-7.473683 3.397966 5.899795e-18)
(1.672694 -0.06830644 3.741582e-18)
(2.245586 -0.8343597 -3.891807e-20)
(4.42256 -1.080834 -5.487799e-18)
(6.577458 -0.6742385 2.817066e-18)
(12.10509 -0.6413219 -3.299331e-22)
(17.35773 -0.6767787 1.122777e-18)
(18.85122 -0.4174472 0)
(19.29328 0.08316843 3.211977e-19)
(19.42572 0.7303354 2.646147e-18)
(19.4196 1.4436 2.720933e-18)
(19.31001 2.159778 2.730646e-18)
(19.11924 2.879145 -8.456098e-20)
(18.87047 3.601453 5.492367e-18)
(18.57051 4.311323 -4.169906e-20)
(18.2338 5.006228 0)
(17.82972 5.665808 1.021233e-17)
(17.36923 6.294801 0)
(16.86761 6.890805 -7.234858e-20)
(16.31737 7.440697 7.255967e-20)
(15.71463 7.941383 8.705695e-18)
(15.0665 8.386471 -6.140211e-20)
(14.37986 8.776296 7.663903e-18)
(13.66282 9.106661 -7.128432e-18)
(12.91843 9.375081 0)
(12.15714 9.590679 4.330202e-20)
(11.38585 9.748926 -5.350676e-18)
(10.59975 9.836348 -9.223814e-18)
(9.803362 9.854857 0)
(9.009308 9.815236 -3.309766e-18)
(8.226755 9.719072 -1.776786e-20)
(7.456198 9.558628 1.943101e-18)
(6.69852 9.332968 7.324506e-21)
(5.960623 9.048046 -7.411375e-21)
(5.246521 8.700756 -2.882196e-20)
(4.559376 8.295296 6.829018e-19)
(3.910209 7.836934 0)
(3.300052 7.331248 0)
(2.733639 6.781829 -2.1086e-20)
(2.215261 6.190622 0)
(1.747928 5.559773 0)
(1.333328 4.893856 0)
(0.9761323 4.20448 -2.259621e-18)
(0.6751663 3.500806 1.826287e-20)
(0.4388056 2.776501 1.092587e-20)
(0.2586858 2.03915 -5.345398e-21)
(0.1427648 1.290159 -7.134059e-19)
(0.1010371 0.494374 2.941695e-21)
(0.1185032 -0.3562318 -7.311032e-19)
(0.1889504 -1.177478 1.400815e-18)
(0.3315062 -1.948292 1.071094e-20)
(0.5379425 -2.691488 -2.552112e-18)
(0.8034472 -3.41427 -3.769918e-20)
(1.127828 -4.112586 2.246547e-18)
(1.506983 -4.778947 -2.018762e-18)
(1.941827 -5.412727 0)
(2.424857 -6.013152 -6.108062e-18)
(2.954328 -6.565221 -1.768408e-20)
(3.52761 -7.071308 1.967976e-18)
(4.138988 -7.535148 1.383725e-18)
(4.78587 -7.944053 0)
(5.466501 -8.300047 0)
(6.173004 -8.606548 0)
(6.896394 -8.848559 1.124911e-20)
(7.63196 -9.022034 -1.117558e-20)
(8.379299 -9.13724 2.375947e-18)
(9.132945 -9.192682 5.07925e-21)
(9.888965 -9.184902 -3.691847e-18)
(10.64167 -9.118818 -6.836911e-20)
(11.38076 -8.989804 9.713418e-18)
(12.0981 -8.79524 5.426986e-18)
(12.78913 -8.538147 -4.426218e-20)
(13.45605 -8.224827 6.373471e-18)
(14.09368 -7.860726 5.211106e-20)
(14.69451 -7.440858 -5.929501e-20)
(15.25077 -6.971147 5.906425e-20)
(15.75825 -6.454594 6.488827e-20)
(16.21656 -5.89766 8.521981e-18)
(16.61893 -5.304332 -6.710097e-20)
(16.96312 -4.68336 0)
(17.25861 -4.041372 0)
(17.50874 -3.392664 0)
(17.69731 -2.748735 0)
(17.78948 -2.117836 1.727482e-20)
(17.71577 -1.580504 -1.708183e-20)
(17.04718 -1.186877 1.009661e-18)
(13.92875 -0.7958219 3.962651e-21)
(6.990383 -0.3527635 0)
(-0.8451198 -0.1708303 -1.463072e-18)
(-1.900953 -0.05205689 3.268216e-18)
(1.164062 0.5118152 -2.561971e-18)
(1.873064 0.8489463 2.198421e-20)
(4.268314 1.49527 -2.179494e-18)
(4.375474 0.7101073 1.86393e-20)
(-7.285378 -3.445709 0)
(-10.23892 -4.117129 1.369699e-17)
(-8.814343 -3.291978 -2.316619e-17)
(-6.42218 -2.465981 -7.174188e-18)
(-4.164907 -1.765202 -1.762459e-20)
(-2.696396 -1.297212 -5.679604e-20)
(-1.651965 -0.7942949 2.432271e-20)
(-0.4456759 0.07384209 0)
(1.617874 1.56055 1.046108e-18)
(3.483014 2.838788 1.018388e-18)
(2.896038 2.320241 -2.786194e-21)
(1.229096 0.9618018 -1.758958e-18)
(0.4873705 0.4080377 5.052905e-18)
(0.3408448 0.3537789 3.211324e-18)
(0.4633204 0.5016571 2.101146e-21)
(0.4878993 0.4958076 -3.894206e-18)
(0.1190654 -0.009175485 -3.107387e-20)
(-0.5331389 -0.9302494 -3.95317e-18)
(-0.8537198 -1.439889 2.91428e-20)
(-0.9842894 -1.854948 -3.189674e-21)
(-1.255132 -2.706991 -2.476379e-20)
(-1.433579 -3.313393 0)
(-1.293089 -3.117971 0)
(-0.9675243 -2.415457 -2.497287e-18)
(-0.5846568 -1.419599 0)
(-0.2377382 -0.264014 -1.451787e-18)
(0.0550354 1.138849 5.325762e-19)
(0.2753878 2.770877 -4.577224e-21)
(0.4038951 4.517054 4.42404e-21)
(0.3999668 6.156695 4.942487e-19)
(0.2451497 7.566927 -3.447966e-19)
(-0.01481072 8.464562 -2.103158e-19)
(-0.1092806 9.00065 1.972272e-19)
(-0.1477252 9.771751 -3.792802e-19)
(-0.09925287 9.043422 1.150805e-20)
(-0.18423 5.91213 -8.038439e-19)
(-0.5299544 3.781305 0)
(-0.7717836 2.618198 -2.441564e-18)
(-0.9025775 2.479848 -9.446303e-21)
(-0.4129209 1.956772 4.731388e-19)
(1.415035 -2.048504 1.548099e-18)
(1.667811 -3.32879 2.32703e-18)
(1.447438 -3.30233 2.766729e-18)
(1.399686 -3.009121 -2.128946e-20)
(1.262007 -2.526993 0)
(1.165217 -2.185119 0)
(0.8789926 -1.707362 2.692276e-18)
(-0.1699128 -0.4059213 3.078122e-18)
(-1.826093 1.560443 3.629761e-18)
(-3.134255 3.01139 6.079362e-20)
(-3.94542 3.975969 0)
(-4.156597 4.366316 4.687873e-18)
(-3.57226 4.217069 3.059344e-18)
(-1.371325 2.526736 -1.009602e-18)
(3.775949 -2.446094 0)
(3.02353 -3.034237 -3.357192e-19)
(1.383617 -1.693491 0)
(0.9894206 -0.9415887 -2.142334e-18)
(0.8198921 -0.6587655 0)
(0.2357445 -0.577377 -4.089959e-18)
(-1.86858 0.05037376 -1.265498e-17)
(-4.19049 1.097764 0)
(-5.237214 2.38442 0)
(-5.93386 3.374299 3.550226e-20)
(1.579009 0.4601989 -2.796027e-18)
(9.830623 -2.043156 3.062621e-18)
(13.74943 -2.179462 7.738835e-18)
(15.89642 -1.531003 -1.965509e-18)
(18.26308 -0.8680297 1.769545e-18)
(19.15879 -0.5123703 -9.090802e-19)
(18.77725 -0.07442025 0)
(18.80442 0.5700802 0)
(18.83709 1.297061 -2.202733e-18)
(18.83082 2.048029 -2.282162e-18)
(18.74765 2.793783 -4.462926e-18)
(18.59049 3.526923 4.415575e-18)
(18.37517 4.248348 1.037473e-19)
(18.10019 4.938327 -6.876589e-20)
(17.75508 5.604266 0)
(17.3454 6.228423 0)
(16.88218 6.822709 8.011153e-18)
(16.37928 7.385957 -7.73317e-18)
(15.83146 7.899431 0)
(15.23346 8.36365 0)
(14.59343 8.771221 1.00794e-19)
(13.91631 9.12574 -6.389601e-18)
(13.21182 9.420413 0)
(12.48323 9.652209 -5.241744e-18)
(11.73861 9.833891 -4.754957e-18)
(10.98692 9.959274 -4.19177e-18)
(10.2243 10.01308 3.712621e-18)
(9.451249 10.00069 -4.572563e-20)
(8.681613 9.93344 2.670156e-18)
(7.924222 9.812138 0)
(7.181452 9.627242 -1.586286e-18)
(6.453041 9.378958 -1.164275e-20)
(5.742518 9.075488 8.580485e-21)
(5.061552 8.708421 -8.383269e-20)
(4.404717 8.287368 0)
(3.785082 7.815921 -1.133655e-18)
(3.203001 7.299998 -1.432911e-20)
(2.665386 6.7421 2.085924e-18)
(2.172981 6.145358 1.269885e-18)
(1.730369 5.51087 -1.47633e-18)
(1.337748 4.843489 -1.669698e-18)
(0.9992917 4.154453 1.839553e-18)
(0.7134222 3.453501 -2.000242e-18)
(0.4939475 2.732685 -1.038972e-18)
(0.3232933 2.001908 2.215795e-18)
(0.2153351 1.262574 1.167179e-18)
(0.1829676 0.4794845 2.391301e-21)
(0.2022648 -0.3514126 6.051631e-19)
(0.264563 -1.161385 -9.098067e-21)
(0.400561 -1.923787 0)
(0.597488 -2.66113 -1.606613e-20)
(0.848485 -3.379955 -1.409021e-20)
(1.155689 -4.0753 -1.776761e-18)
(1.513386 -4.740543 3.315409e-18)
(1.927744 -5.373975 -1.477046e-18)
(2.385242 -5.977586 2.475906e-18)
(2.886899 -6.535106 1.791717e-20)
(3.43403 -7.047923 0)
(4.016525 -7.522316 1.173058e-18)
(4.63398 -7.943851 6.432455e-21)
(5.286828 -8.313872 -1.835171e-19)
(5.963327 -8.639208 0)
(6.657142 -8.901899 8.709243e-19)
(7.366835 -9.096253 0)
(8.08901 -9.235268 -4.56153e-20)
(8.817506 -9.317425 2.419449e-18)
(9.552228 -9.336264 0)
(10.28322 -9.300739 -3.484766e-18)
(11.00278 -9.204044 -3.981562e-18)
(11.70296 -9.042831 -4.448421e-18)
(12.37894 -8.819461 0)
(13.0347 -8.538834 -1.064324e-17)
(13.66321 -8.20864 8.551229e-20)
(14.25772 -7.821631 0)
(14.81041 -7.385072 0)
(15.31736 -6.900145 0)
(15.77798 -6.373021 6.898215e-18)
(16.18434 -5.814127 -7.135898e-18)
(16.52927 -5.218295 0)
(16.80268 -4.590439 0)
(17.01538 -3.932746 3.702231e-18)
(17.16291 -3.263644 2.938545e-20)
(17.24671 -2.591889 0)
(17.28104 -1.956779 0)
(17.53909 -1.494443 -1.648235e-18)
(17.66572 -1.222526 1.906623e-19)
(15.03333 -0.8237214 0)
(9.744845 -0.1804125 9.714246e-19)
(8.217763 0.8794367 2.858444e-20)
(8.32827 1.637646 5.570962e-21)
(7.863906 1.925956 -2.492529e-20)
(5.60722 1.697324 1.792524e-18)
(1.718324 -0.6396689 1.675281e-18)
(-6.951855 -3.972735 4.21276e-20)
(-7.604582 -3.3747 8.363979e-20)
(-7.053992 -2.402678 9.631337e-18)
(-4.733894 -1.392811 5.975584e-18)
(-2.54851 -0.7510963 0)
(-1.476165 -0.5027984 2.923624e-18)
(-0.8167468 -0.1740273 0)
(-0.1371071 0.4946288 -1.822948e-20)
(1.262866 1.602538 -8.264353e-19)
(3.108573 2.604636 1.505564e-20)
(2.630566 1.910262 -1.458933e-20)
(1.069186 0.6047827 1.447303e-18)
(0.3865449 0.2179671 -2.088541e-18)
(0.2125013 0.2035702 -2.672111e-18)
(0.3091808 0.343856 -3.107692e-18)
(0.5234167 0.565019 -3.204966e-18)
(0.5950249 0.5373741 0)
(0.06311158 -0.2312959 -3.374296e-21)
(-0.5519604 -1.089638 0)
(-0.8582189 -1.784954 -2.985294e-18)
(-1.184571 -2.772177 2.871869e-18)
(-1.405418 -3.354723 0)
(-1.308584 -3.061701 0)
(-1.016005 -2.268722 4.092109e-18)
(-0.672711 -1.323757 -7.96514e-19)
(-0.3464518 -0.1788345 1.184268e-18)
(-0.08348165 1.199242 -3.31951e-21)
(0.1163675 2.802761 3.193286e-21)
(0.2575218 4.523476 0)
(0.3065182 6.151396 -3.984867e-19)
(0.2230663 7.518627 5.494105e-19)
(0.07212082 8.549171 1.72982e-19)
(-0.2631289 9.029451 -3.259699e-19)
(-0.2047647 9.365102 -9.917245e-21)
(-0.08750677 9.724172 9.374281e-21)
(-0.3189389 8.691433 -1.84508e-20)
(-0.8492182 7.045788 2.007479e-20)
(-1.124439 5.114248 9.744319e-19)
(-1.06604 3.693977 -7.713298e-21)
(-0.04625546 1.801993 -3.7579e-19)
(1.781266 -2.083401 1.530947e-20)
(1.637728 -3.032764 -1.929903e-18)
(1.364705 -3.206809 -2.362939e-20)
(1.309981 -2.970772 0)
(1.056719 -2.290501 0)
(0.7426069 -1.632557 -2.150829e-18)
(0.1875475 -0.9375534 -2.260942e-18)
(-1.029857 0.3522671 -4.983105e-18)
(-2.508036 2.025247 -2.903468e-18)
(-3.594414 3.262017 0)
(-4.151875 4.084279 0)
(-4.132708 4.388605 -7.773176e-18)
(-3.282642 4.228543 -5.068087e-18)
(-1.667211 3.472167 5.510247e-21)
(2.47594 -0.8096849 -2.382512e-21)
(2.887197 -2.971962 5.89097e-19)
(2.916423 -2.769079 -5.931971e-19)
(3.411987 -2.363481 1.737349e-18)
(3.663187 -2.258862 2.415143e-18)
(3.084286 -2.247949 3.014325e-18)
(1.383623 -1.817342 5.158493e-18)
(-0.5220199 -0.7059338 0)
(-1.361432 0.9567633 -1.775291e-19)
(-2.550356 2.74263 -8.239818e-18)
(5.265308 0.3331815 5.940542e-20)
(15.34202 -2.54212 4.43658e-20)
(17.83054 -2.718691 -2.891409e-18)
(18.81129 -1.983993 -1.478952e-18)
(19.02068 -1.095665 -4.083305e-20)
(18.57196 -0.7330139 -7.560449e-19)
(18.56575 -0.4178748 -4.055111e-19)
(18.81068 0.1367781 -3.314663e-21)
(18.94987 0.7886939 0)
(18.99911 1.497124 -2.848127e-20)
(18.9488 2.220104 1.87546e-18)
(18.8122 2.936714 -7.300319e-18)
(18.60656 3.662719 5.594208e-20)
(18.33586 4.364611 -3.575632e-18)
(17.99673 5.043441 -1.071731e-19)
(17.59311 5.681767 -6.723313e-18)
(17.13343 6.294508 -4.512379e-22)
(16.63294 6.881612 6.378486e-18)
(16.08856 7.415857 -6.003054e-18)
(15.4929 7.903634 0)
(14.8544 8.334001 8.154226e-20)
(14.17681 8.71361 -8.206495e-20)
(13.4696 9.035008 0)
(12.73612 9.294531 4.318405e-18)
(11.9854 9.503633 7.6258e-20)
(11.22615 9.65638 3.504668e-18)
(10.45588 9.736297 -2.993327e-18)
(9.676656 9.746268 -2.551695e-18)
(8.89684 9.702989 -2.159609e-18)
(8.129994 9.603976 -1.670901e-18)
(7.378182 9.439445 1.584995e-20)
(6.639492 9.21052 -1.600563e-20)
(5.918262 8.925625 0)
(5.226205 8.575817 7.155826e-20)
(4.557655 8.170844 -1.138283e-20)
(3.927117 7.713523 9.429383e-19)
(3.334345 7.21029 1.32996e-18)
(2.788523 6.662966 -1.707487e-18)
(2.287889 6.075705 -1.042557e-18)
(1.837616 5.449504 -5.214248e-21)
(1.437541 4.789427 1.370205e-18)
(1.094602 4.105945 2.443187e-20)
(0.8032338 3.410529 1.603632e-18)
(0.5828861 2.693788 1.377706e-20)
(0.410605 1.967608 -9.262496e-19)
(0.303502 1.235969 -4.757081e-19)
(0.2794017 0.4643355 -5.974068e-23)
(0.3010767 -0.3433764 4.799342e-19)
(0.3574305 -1.143324 7.45229e-21)
(0.4903726 -1.899808 -9.091893e-19)
(0.6880983 -2.631608 1.731038e-18)
(0.9403503 -3.343546 0)
(1.250011 -4.030688 -2.418508e-21)
(1.610357 -4.686975 -1.363179e-18)
(2.030052 -5.310671 1.245596e-18)
(2.491278 -5.904842 -2.123721e-18)
(3.001013 -6.44989 2.435095e-20)
(3.558058 -6.949415 -2.41273e-20)
(4.146106 -7.412135 -9.640592e-19)
(4.77249 -7.818681 0)
(5.438535 -8.17097 1.44833e-19)
(6.12278 -8.481169 8.351471e-21)
(6.825371 -8.72603 -4.838009e-20)
(7.545277 -8.900713 -1.073652e-18)
(8.275941 -9.020437 -1.580818e-18)
(9.012161 -9.082215 -2.007035e-20)
(9.754274 -9.079364 2.35009e-18)
(10.49341 -9.020205 -4.019476e-20)
(11.21879 -8.900438 -3.163182e-18)
(11.92429 -8.714458 0)
(12.60652 -8.464052 3.905239e-18)
(13.26593 -8.158781 4.321237e-18)
(13.89502 -7.806563 4.49203e-18)
(14.48911 -7.397547 -4.79167e-18)
(15.0397 -6.941222 5.13945e-18)
(15.54411 -6.437171 0)
(16.00201 -5.892067 -1.129018e-17)
(16.40465 -5.321315 1.177753e-17)
(16.74454 -4.715462 -1.392811e-19)
(17.01675 -4.079254 -3.012381e-18)
(17.21793 -3.425829 -3.036547e-18)
(17.33851 -2.770559 0)
(17.35742 -2.142253 1.527032e-18)
(17.2685 -1.576563 -1.47886e-18)
(17.11189 -1.183217 6.95588e-19)
(17.55461 -1.0689 -1.639731e-19)
(17.90662 -0.8921577 -3.247005e-19)
(16.65462 -0.07510957 1.087356e-20)
(15.72291 1.383751 -1.665995e-18)
(14.72853 2.344233 2.644029e-20)
(13.2953 2.539584 0)
(9.110717 1.902398 0)
(1.234759 -1.531104 -7.314544e-20)
(-4.775678 -3.873312 7.114745e-20)
(-5.524614 -2.683372 0)
(-5.116331 -1.32348 0)
(-3.093337 -0.2445444 0)
(-0.7868712 0.3715787 3.223924e-18)
(0.2338686 0.5278941 -4.865818e-18)
(0.4678456 0.6584228 1.888968e-18)
(0.5742945 1.107807 -1.18694e-18)
(1.039132 1.682314 -2.504022e-20)
(2.414869 2.120074 6.879538e-19)
(2.086541 1.233502 8.718544e-19)
(0.9537652 0.2913935 2.215358e-20)
(0.2971311 0.05269077 7.085611e-21)
(0.08427895 0.06646434 -3.125107e-20)
(0.1691158 0.2149093 -4.121922e-20)
(0.3580591 0.4110063 2.755436e-18)
(0.6253107 0.5328472 0)
(0.4545877 0.1627098 2.668936e-18)
(-0.2076662 -0.7574549 -2.569142e-18)
(-0.7135112 -1.757693 2.440862e-18)
(-1.110639 -2.867566 0)
(-1.385125 -3.361128 0)
(-1.333375 -2.930499 -2.927556e-20)
(-1.108155 -2.185363 -1.671383e-18)
(-0.7965452 -1.275217 6.742208e-19)
(-0.4975974 -0.1511819 -4.836485e-19)
(-0.2685297 1.19237 0)
(-0.09728008 2.774721 0)
(0.03876726 4.488028 0)
(0.1097905 6.110167 -3.172287e-19)
(0.0459378 7.471711 -2.300556e-19)
(-0.08265451 8.496846 -2.833539e-19)
(-0.2481294 9.033522 1.33622e-19)
(-0.207355 9.222824 0)
(-0.08950983 9.523175 -5.028905e-19)
(-0.3525429 9.43838 0)
(-0.9004436 8.460929 -9.444821e-19)
(-1.145873 6.466487 0)
(-0.9764581 4.568409 0)
(0.375265 1.91157 -2.974377e-19)
(2.050938 -1.786185 -1.072771e-18)
(1.597344 -2.686087 1.625161e-18)
(1.251924 -2.94627 -1.889386e-18)
(1.195952 -2.912952 1.847331e-18)
(0.8406199 -2.149892 0)
(0.3022952 -1.193212 3.539193e-18)
(-0.5416414 -0.1300825 1.836598e-18)
(-1.814219 1.0636 2.063224e-18)
(-3.013154 2.310506 -6.681457e-20)
(-3.903618 3.335893 -9.526734e-20)
(-4.276908 4.11706 -3.265944e-18)
(-4.022131 4.397754 6.476313e-18)
(-2.949577 4.189308 2.111653e-18)
(-1.340663 3.808372 9.876977e-21)
(1.555917 0.6573311 -1.482088e-19)
(3.02042 -2.811425 -2.666161e-19)
(4.60702 -3.724623 4.901678e-19)
(5.81838 -3.697682 0)
(6.41184 -3.751428 -4.480079e-21)
(6.051975 -3.929783 0)
(4.942514 -3.824357 3.845143e-18)
(3.626247 -2.8146 7.067116e-18)
(2.262794 -0.6072625 1.060248e-17)
(2.576586 1.590854 -2.15532e-19)
(10.67808 0.05157362 6.930859e-20)
(17.78045 -2.404944 -3.385673e-18)
(17.87051 -2.625871 0)
(18.42558 -1.945927 -1.157897e-18)
(18.33187 -1.027996 -1.249614e-18)
(18.1406 -0.5378834 1.268812e-18)
(18.3294 -0.069434 3.194329e-19)
(18.51939 0.5577098 0)
(18.63865 1.244766 7.23827e-19)
(18.67415 1.962983 0)
(18.62067 2.671821 0)
(18.4813 3.37369 3.050667e-18)
(18.27577 4.083592 -4.632372e-20)
(18.00879 4.758585 4.962276e-20)
(17.67279 5.408138 -2.815536e-18)
(17.27581 6.012275 5.646043e-18)
(16.82291 6.591781 -5.376508e-18)
(16.33222 7.147647 -5.179172e-18)
(15.8038 7.640716 2.375684e-19)
(15.22183 8.094888 -1.501638e-19)
(14.6008 8.489331 -1.325028e-19)
(13.93997 8.838597 -3.811492e-18)
(13.25213 9.131247 -3.884805e-18)
(12.53885 9.362211 -1.027024e-19)
(11.806 9.549202 3.268327e-18)
(11.06957 9.679388 0)
(10.32395 9.736758 2.464995e-18)
(9.563321 9.731303 2.100716e-18)
(8.803064 9.674666 1.678638e-18)
(8.05815 9.563791 1.374927e-18)
(7.327374 9.389964 0)
(6.60972 9.152232 0)
(5.906016 8.863558 2.427728e-19)
(5.234427 8.509036 0)
(4.580556 8.103633 0)
(3.966271 7.646464 8.379061e-19)
(3.390654 7.143755 -1.159899e-20)
(2.855367 6.599925 -1.550282e-20)
(2.362894 6.016207 -2.897208e-20)
(1.921166 5.393483 2.0311e-18)
(1.529982 4.736678 0)
(1.196481 4.056194 0)
(0.9021826 3.367453 1.358935e-18)
(0.6868753 2.65385 6.883521e-19)
(0.5152017 1.931025 7.475702e-19)
(0.40909 1.20709 -3.894761e-19)
(0.3937749 0.4468788 0)
(0.420646 -0.3316671 -4.252604e-22)
(0.4706065 -1.122336 2.393502e-20)
(0.5929382 -1.873781 7.215027e-19)
(0.7855835 -2.598014 -1.419078e-18)
(1.033823 -3.301355 -4.049075e-20)
(1.339718 -3.98049 1.239004e-18)
(1.695724 -4.629112 3.664059e-20)
(2.110577 -5.246002 2.003521e-18)
(2.55875 -5.836407 -1.116923e-20)
(3.055379 -6.377598 -1.486992e-18)
(3.603814 -6.874195 4.012308e-20)
(4.177886 -7.337424 0)
(4.784416 -7.746455 5.074985e-19)
(5.436606 -8.100996 0)
(6.106795 -8.415996 0)
(6.787476 -8.670424 -5.558606e-19)
(7.48799 -8.854329 1.759286e-18)
(8.201826 -8.984312 4.377245e-20)
(8.91782 -9.060003 -9.193828e-20)
(9.640269 -9.07241 -1.929382e-18)
(10.35935 -9.03257 -2.218118e-18)
(11.06492 -8.933853 2.69208e-18)
(11.74947 -8.772939 -2.941375e-18)
(12.41044 -8.550651 -6.689498e-20)
(13.05293 -8.27158 0)
(13.6644 -7.950846 -3.888419e-18)
(14.24298 -7.573067 8.204907e-18)
(14.77917 -7.151302 -4.371583e-18)
(15.27011 -6.682969 0)
(15.71849 -6.172516 8.247904e-20)
(16.11358 -5.634103 -4.717279e-18)
(16.4475 -5.057142 -7.526325e-20)
(16.71628 -4.444212 1.214765e-19)
(16.91552 -3.807468 -7.776854e-20)
(17.03935 -3.166214 0)
(17.07346 -2.526069 -2.434248e-18)
(17.02235 -1.920727 1.151439e-18)
(16.88193 -1.412807 5.576208e-19)
(16.9179 -1.097679 -8.471341e-21)
(17.6377 -0.8093641 2.66252e-19)
(18.15485 0.1321867 5.758668e-19)
(17.84643 1.612555 0)
(16.60268 2.554925 1.121013e-18)
(15.34784 2.584565 -4.136907e-20)
(11.92379 1.656592 1.081742e-18)
(2.799239 -2.049166 0)
(-1.530685 -3.317481 0)
(-3.098144 -1.926875 0)
(-2.653552 0.01781919 8.85312e-20)
(-1.15621 1.070071 4.156507e-18)
(0.8106819 1.481785 -2.698492e-18)
(1.976207 1.570573 2.008559e-18)
(2.047238 1.575624 -2.987734e-18)
(1.609981 1.803341 9.837676e-19)
(1.078376 1.812839 0)
(1.73869 1.564617 -5.7779e-19)
(1.629869 0.6459462 -7.128091e-19)
(0.8838879 0.05054931 1.030869e-18)
(0.1842898 -0.1481791 -3.863979e-20)
(-0.08190075 -0.1136042 -6.162704e-20)
(-0.02274894 0.04138362 6.125125e-20)
(0.187528 0.2572073 0)
(0.4933604 0.3444775 -2.290347e-18)
(0.5798409 0.1974346 6.72959e-20)
(0.07782412 -0.6039483 4.126267e-18)
(-0.576653 -1.855012 -2.046868e-18)
(-1.045261 -3.018619 1.191809e-19)
(-1.357729 -3.325301 -1.958727e-18)
(-1.383732 -2.83639 0)
(-1.247775 -2.195849 -1.385127e-18)
(-0.9671911 -1.291925 5.525338e-19)
(-0.6929768 -0.1872506 -2.558692e-20)
(-0.5000986 1.12722 3.145939e-19)
(-0.3504574 2.721396 -1.353909e-20)
(-0.2076856 4.457521 4.793788e-21)
(-0.1065414 6.08163 2.639295e-19)
(-0.1262149 7.441404 -3.214765e-21)
(-0.1756804 8.446775 3.640423e-21)
(-0.3274797 9.036263 6.952157e-21)
(-0.2596423 9.235353 2.159501e-19)
(-0.1143939 9.321077 4.217864e-19)
(-0.3028986 9.302963 -4.088712e-19)
(-0.7407373 8.654025 7.685654e-19)
(-0.905957 6.890049 0)
(-0.662655 5.059807 3.69423e-19)
(0.8612503 2.188473 2.563566e-19)
(2.319559 -1.271303 8.786184e-19)
(1.53599 -2.20744 0)
(1.060211 -2.532429 0)
(0.967936 -2.689549 -1.52582e-18)
(0.5657105 -2.03717 -4.526431e-20)
(-0.02402806 -1.16451 -1.394008e-18)
(-0.9852191 -0.02575363 -1.479857e-18)
(-2.299246 1.200961 -1.620687e-18)
(-3.339664 2.332351 1.958531e-18)
(-4.152965 3.322383 -2.313186e-18)
(-4.393496 4.156118 2.600323e-18)
(-3.945381 4.491168 -2.58478e-18)
(-2.596736 4.219054 0)
(-0.7201015 3.820911 0)
(1.273897 1.68414 1.10722e-19)
(3.58298 -2.606928 0)
(6.324413 -4.423424 -2.24241e-20)
(7.984838 -4.739644 -1.806344e-20)
(8.816038 -5.001466 -1.401523e-18)
(8.819739 -5.463327 -5.229669e-20)
(8.521803 -5.767075 -5.492451e-21)
(8.2333 -4.995958 -5.38189e-18)
(7.677303 -2.346447 -1.650661e-19)
(9.403947 0.2671256 2.439715e-18)
(15.4458 -0.2264856 -4.071856e-20)
(17.92253 -2.035094 1.479538e-18)
(17.10661 -2.420511 -5.351073e-20)
(17.97301 -1.851896 4.026232e-18)
(18.06524 -1.104815 3.15115e-20)
(18.14976 -0.6968691 -6.634943e-21)
(18.35348 -0.2878897 -5.412877e-19)
(18.5443 0.266002 -4.403758e-21)
(18.66878 0.8968352 -5.965932e-19)
(18.70581 1.584315 -3.763356e-20)
(18.652 2.284405 -1.161689e-18)
(18.51069 2.979296 2.383843e-18)
(18.30608 3.69426 -2.358871e-18)
(18.04688 4.366668 4.521361e-18)
(17.71452 5.039134 2.464598e-18)
(17.31964 5.658675 0)
(16.86578 6.256984 0)
(16.37602 6.834766 4.199793e-18)
(15.84887 7.347293 4.010414e-18)
(15.26746 7.819905 0)
(14.64969 8.226357 -1.065931e-19)
(13.98913 8.590527 3.45621e-18)
(13.2985 8.903475 3.095976e-18)
(12.58623 9.147045 2.743945e-18)
(11.8595 9.340154 -7.408023e-20)
(11.12496 9.483705 -2.137428e-18)
(10.37639 9.558191 5.599907e-20)
(9.620418 9.559314 -5.653138e-20)
(8.868526 9.506954 -1.417559e-18)
(8.126389 9.406308 1.081981e-18)
(7.391534 9.248578 0)
(6.681797 9.015761 0)
(5.980464 8.737788 -3.647815e-19)
(5.317475 8.389773 -8.996389e-21)
(4.668035 7.993388 -8.644186e-21)
(4.069075 7.540877 -6.463703e-19)
(3.501097 7.04564 -1.840246e-18)
(2.957716 6.518121 1.104606e-18)
(2.467104 5.945143 -1.392325e-18)
(2.029893 5.330957 -7.951761e-19)
(1.648197 4.679638 -2.754413e-20)
(1.322378 4.001005 0)
(1.019565 3.322646 -1.060815e-18)
(0.8157624 2.613897 -3.565562e-20)
(0.6405691 1.893138 -6.21933e-19)
(0.535125 1.177644 3.338346e-19)
(0.5291867 0.4278406 3.38588e-23)
(0.5616992 -0.3175522 -3.416098e-19)
(0.5977174 -1.102239 2.955001e-20)
(0.7172937 -1.844872 -6.284466e-19)
(0.9040055 -2.556311 1.161981e-18)
(1.147348 -3.249555 -1.130695e-18)
(1.449459 -3.920171 2.329247e-21)
(1.800785 -4.559201 9.550836e-19)
(2.219508 -5.164998 -1.59446e-18)
(2.658492 -5.749867 1.409209e-18)
(3.143977 -6.28582 1.112492e-18)
(3.693075 -6.773639 7.539011e-21)
(4.273884 -7.22485 7.971424e-21)
(4.872062 -7.627756 -3.992545e-19)
(5.507417 -7.983978 1.73596e-19)
(6.177304 -8.290909 8.395466e-21)
(6.856148 -8.536073 3.828315e-19)
(7.548427 -8.714213 -1.397102e-18)
(8.254223 -8.840847 9.661415e-19)
(8.974583 -8.899769 -4.924637e-20)
(9.693856 -8.90305 -1.542758e-18)
(10.40522 -8.859763 3.645149e-18)
(11.11061 -8.748645 6.862424e-20)
(11.79204 -8.578149 2.2821e-18)
(12.45304 -8.340868 -2.679503e-18)
(13.0972 -8.046032 8.329691e-20)
(13.70756 -7.712898 -3.066332e-18)
(14.28674 -7.317184 -3.147765e-18)
(14.82236 -6.87974 1.085148e-19)
(15.31478 -6.388928 -3.622523e-18)
(15.76357 -5.857211 3.743415e-18)
(16.1585 -5.29999 0)
(16.49037 -4.706231 0)
(16.75548 -4.08411 2.016925e-18)
(16.95482 -3.455079 1.997058e-18)
(17.08058 -2.829917 0)
(17.11342 -2.226528 1.041954e-18)
(17.05312 -1.678135 9.352461e-19)
(16.93474 -1.245913 -4.697654e-19)
(16.83906 -0.9547399 1.074535e-19)
(17.11338 -0.6392364 2.236237e-19)