/*--------------------------------*- C++ -*----------------------------------*\
| =========                 |                                                 |
| \\      /  F ield         | OpenFOAM: The Open Source CFD Toolbox           |
|  \\    /   O peration     | Version:  2406                                  |
|   \\  /    A nd           | Website:  www.openfoam.com                      |
|    \\/     M anipulation  |                                                 |
\*---------------------------------------------------------------------------*/
FoamFile
{
    version     2.0;
    format      ascii;
    arch        "LSB;label=32;scalar=64";
    class       surfaceScalarField;
    location    "0.82";
    object      phi;
}
// * * * * * * * * * * * * * * * * * * * * * * * * * * * * * * * * * * * * * //

dimensions      [0 3 -1 0 0 0 0];

oriented        oriented;

internalField   nonuniform List<scalar> 
23794
(
-0.002447235
0.001233973
0.001213261
-0.002965782
0.0005185475
-0.002211511
-0.000754271
-0.0009448654
-0.001266646
0.0003894747
-0.00133434
0.001731137
-0.001341662
0.002231988
-0.0005008509
0.001624631
0.0006073562
0.0007598876
0.0008647438
-0.0008105232
0.001570411
-0.001705263
0.0008947395
-0.000498042
-0.001207221
0.001681939
-0.002179981
0.003087845
-0.001405906
0.003818783
-0.0007309373
0.003787245
3.153804e-05
0.00264227
0.001144975
0.0005679396
0.00207433
-0.001498918
0.002066858
-0.002861267
0.001362349
-0.003534066
0.0006727986
-0.00237154
-0.001162526
0.0003933825
-0.002764922
0.002842854
-0.002449471
0.005209324
-0.002366471
0.008898519
-0.003689195
0.01221475
-0.003316227
0.01091046
0.001304287
0.000549373
0.01036109
-0.007045394
0.007594767
-0.003573378
-0.003472016
0.001174565
-0.004747943
0.00468004
-0.003505475
0.0082547
-0.00357466
0.008791769
-0.0005370695
0.004835143
0.003956626
0.001540836
0.003294307
-0.001151623
0.002692459
-0.005929471
0.004777848
-0.01014777
0.004218296
-0.01251971
0.002371945
-0.01378808
0.001268363
-0.01456606
0.0007779804
-0.01508421
0.0005181511
-0.01544459
0.0003603814
-0.01560208
0.0001574894
-0.01565255
5.04768e-05
-0.01564097
-1.158508e-05
-0.01557303
-6.794063e-05
-0.01548821
-8.482147e-05
-0.01534255
-0.000145661
-0.01515407
-0.0001884796
-0.01490521
-0.0002488562
-0.01463137
-0.0002738416
-0.01433927
-0.0002921021
-0.01399078
-0.0003484862
-0.01362113
-0.0003696481
-0.01324289
-0.0003782453
-0.01279758
-0.0004453055
-0.0123281
-0.0004694798
-0.01183158
-0.0004965178
-0.01132764
-0.0005039409
-0.01080154
-0.0005261046
-0.01022292
-0.0005786152
-0.009651547
-0.0005713768
-0.009037206
-0.0006143409
-0.008403433
-0.0006337724
-0.007764012
-0.0006394214
-0.007114709
-0.0006493035
-0.006431742
-0.0006829667
-0.005746125
-0.0006856171
-0.005051889
-0.0006942362
-0.00434309
-0.000708799
-0.003634574
-0.0007085159
-0.00294105
-0.0006935239
-0.002204496
-0.0007365543
-0.001475578
-0.0007289178
-0.0007379929
-0.0007375849
7.209067e-05
-0.0008100836
0.0008590533
-0.0007869627
0.001562893
-0.0007038401
0.002259836
-0.0006969426
0.002957074
-0.0006972378
0.003642782
-0.0006857076
0.004332628
-0.0006898467
0.00500487
-0.0006722421
0.005689237
-0.0006843666
0.006352491
-0.0006632537
0.006980605
-0.0006281142
0.007610764
-0.0006301585
0.00822552
-0.0006147565
0.008815398
-0.0005898781
0.009399904
-0.0005845061
0.009967043
-0.000567139
0.01047769
-0.0005106425
0.0109807
-0.0005030133
0.01146599
-0.0004852944
0.01190738
-0.0004413848
0.01234659
-0.0004392086
0.01273157
-0.0003849802
0.01308612
-0.0003545547
0.01339954
-0.0003134136
0.01366826
-0.0002687235
0.01392884
-0.0002605791
0.01414964
-0.0002208064
0.01432859
-0.0001789474
0.01446209
-0.000133497
0.01455062
-8.853434e-05
0.01459938
-4.875857e-05
0.01456322
3.616183e-05
0.01446065
0.0001025686
0.01422272
0.0002379342
0.01372343
0.0004992894
0.01282588
0.0008975526
0.01110011
0.001725762
0.007800218
0.003299896
0.003194921
0.004605297
0.0008043566
0.002390564
-0.0004025278
0.001206884
-0.004117287
0.003714759
-0.007567851
0.003450565
-0.006700179
-0.0008676727
-0.003903154
-0.002797025
-0.00220778
-0.001695374
-0.001250414
-0.0009573665
0.0004774157
-0.001727829
0.003560131
-0.003082715
0.005121553
-0.001561422
-0.0003996694
0.005521222
-0.006599151
0.006199482
-0.007778462
0.001179311
-0.006192926
-0.001585536
-0.004159437
-0.002033489
-0.002813727
-0.001345711
-0.001093514
-0.001720213
0.0005900066
-0.00168352
0.001719055
-0.001129048
0.002054979
-0.0003359246
0.002135571
-8.05913e-05
0.002281771
-0.0001462007
0.002164422
0.0001173488
0.001547378
0.0006170441
0.0005226374
0.001024741
-0.0003501256
0.000872763
-0.000696583
0.0003464574
-0.001146794
0.0004502114
-0.001866823
0.0007200285
-0.002593986
0.0007271635
-0.003132129
0.0005381429
-0.003422483
0.0002903539
-0.003390811
-3.167171e-05
-0.003044687
-0.0003461239
-0.002425827
-0.0006188608
-0.001716321
-0.0007095052
-0.0009068243
-0.0008094971
-0.000536505
-0.0003703192
0.0006974682
-0.002863342
0.001144854
0.002931749
-0.002150699
-0.0001940956
-0.0006667386
-0.002238231
0.0002808077
-0.002214192
0.001555538
-0.00260907
0.002857811
-0.002643936
0.003632175
-0.001275215
0.003248963
0.000990568
0.001031617
0.00308209
-0.001906353
0.00450838
-0.002507096
0.001495483
-0.0007107103
-0.003003607
0.001929894
-0.004820585
0.003774973
-0.003250986
0.00478963
-0.001745594
0.004972539
-0.0001513713
0.003964552
0.002152963
0.00143446
0.004604422
-0.002052269
0.005553586
-0.004762763
0.004072844
-0.005111203
0.001021238
-0.00258473
-0.003688999
0.0008585844
-0.006208237
0.00340773
-0.004998616
0.005913929
-0.00487267
0.01000166
-0.007776923
0.01350178
-0.00681635
0.0144837
0.0003223653
0.004442278
0.02040251
-0.006832654
0.0188697
-0.005879616
-0.004425054
-0.002359107
-0.008268452
-0.0002498896
-0.005614693
0.00227576
-0.00610031
0.005295292
-0.003556602
0.00504596
0.004205958
-0.002481798
0.01082207
-0.01253984
0.0127505
-0.01891421
0.01115222
-0.02159041
0.006894498
-0.02233273
0.003114262
-0.02253775
0.001473384
-0.022588
0.0008282298
-0.02256127
0.0004914288
-0.02249243
0.0002915381
-0.02231153
-2.340882e-05
-0.02211358
-0.000147472
-0.02190987
-0.0002153005
-0.02165947
-0.0003183395
-0.02139162
-0.0003526662
-0.0210616
-0.0004756865
-0.02068955
-0.0005605247
-0.02025251
-0.0006858983
-0.01978942
-0.0007369366
-0.01931421
-0.0007673118
-0.01877835
-0.0008843482
-0.0182169
-0.0009310906
-0.01765123
-0.0009439211
-0.01700862
-0.001087908
-0.01634311
-0.001134995
-0.01564658
-0.001193051
-0.01494103
-0.001209482
-0.01421614
-0.001251002
-0.01342887
-0.001365882
-0.0126522
-0.00134805
-0.01183046
-0.001436076
-0.01098425
-0.001479989
-0.01013508
-0.001488592
-0.009279267
-0.001505113
-0.00838257
-0.001579664
-0.007481913
-0.001586274
-0.006574143
-0.001602006
-0.005650244
-0.001632699
-0.004729118
-0.001629642
-0.003824108
-0.001598534
-0.002872677
-0.001687985
-0.001925761
-0.001675834
-0.0009678075
-0.001695538
6.997528e-05
-0.001847866
0.001083143
-0.001800131
0.002003535
-0.001624232
0.002912334
-0.001605742
0.003819494
-0.001604397
0.004716302
-0.001582516
0.005619385
-0.00159293
0.006502453
-0.00155531
0.007399851
-0.001581764
0.008274168
-0.001537571
0.009106157
-0.001460103
0.009942948
-0.00146695
0.01076612
-0.001437925
0.01155847
-0.001382229
0.01234524
-0.001371275
0.01311702
-0.001338925
0.01382205
-0.001215667
0.01452269
-0.001203657
0.01520356
-0.001166162
0.01583546
-0.001073283
0.01646704
-0.001070788
0.01703528
-0.0009532245
0.01757673
-0.0008960052
0.0180723
-0.000808985
0.01851899
-0.0007154066
0.01896363
-0.0007052195
0.01936627
-0.0006234463
0.0197235
-0.0005361819
0.02003524
-0.0004452358
0.02029966
-0.0003529538
0.02053381
-0.0002829103
0.02071442
-0.0001444464
0.02090357
-8.657845e-05
0.02106887
7.263398e-05
0.0211363
0.000431852
0.02111248
0.000921375
0.02087455
0.001963695
0.0194607
0.004713741
0.01576448
0.008301521
0.009336204
0.008818838
0.001520821
0.009022268
-0.003929221
0.009164801
-0.004306246
0.00382759
-0.001442713
-0.003731206
0.0009205184
-0.005160256
0.002027228
-0.002802083
0.002204138
-0.001134276
0.003020481
-0.002544173
0.005646116
-0.005708349
0.005439287
-0.001354593
-0.00284011
0.01380062
-0.009199818
0.01255919
-0.009256613
0.001236105
-0.00746644
-0.003375709
-0.005171858
-0.004328071
-0.003599723
-0.002917846
-0.001483226
-0.003836709
0.0009872363
-0.004153983
0.003203221
-0.003345032
0.003989326
-0.00112203
0.00361457
0.0002941646
0.003233668
0.0002347015
0.003084063
0.0002669538
0.002637425
0.001063682
0.001242163
0.002420003
-0.0003088334
0.002423759
-0.001142611
0.001180235
-0.002029573
0.001337173
-0.003039875
0.00173033
-0.003804637
0.001491926
-0.004253459
0.0009869645
-0.004422901
0.0004597965
-0.004266016
-0.0001885572
-0.003771683
-0.0008404565
-0.002944963
-0.001445581
-0.002021763
-0.001632705
-0.001090865
-0.001740395
-0.0001428007
-0.001318383
0.001699522
-0.0007898271
-0.0002044632
0.003926039
6.073388e-05
-0.001044657
0.001424552
-0.00360205
0.002133981
-0.002923621
0.002936714
-0.003411803
0.00398852
-0.003695742
0.004688118
-0.001974813
0.004082352
0.001596334
0.0006195073
0.006544934
-0.002834554
0.007962442
-0.003113222
0.001774151
-0.001164194
-0.004952635
0.00207943
-0.008064209
0.004369236
-0.005540792
0.005688625
-0.003064983
0.005908042
-0.000370788
0.00459042
0.003470584
0.001842175
0.007352667
-0.001867003
0.009262765
-0.004990395
0.007196235
-0.00529023
0.001321073
-0.00229559
-0.006683639
0.001066194
-0.009570021
0.003212568
-0.00714499
0.00566955
-0.007329652
0.01023017
-0.01233755
0.01440244
-0.01098862
0.01603955
-0.001314737
0.007564701
0.02887735
-0.004804916
0.03123932
-0.009178358
-5.161197e-05
-0.009835447
-0.007611363
-0.009738133
-0.005712007
-0.006958875
-0.008879567
-0.002850309
-0.007665168
-0.004408323
0.005763972
-0.01457355
0.0209873
-0.02376469
0.02194163
-0.02627222
0.01365975
-0.02627794
0.006900221
-0.02624958
0.003085902
-0.02637012
0.00159392
-0.02647515
0.0009332587
-0.02653286
0.0005491439
-0.02654623
0.0003049067
-0.02640537
-0.0001642665
-0.02621159
-0.00034125
-0.02598748
-0.0004394117
-0.02570241
-0.000603414
-0.02539973
-0.0006553407
-0.02501932
-0.0008560957
-0.02458955
-0.0009903032
-0.02408029
-0.001195153
-0.02353905
-0.001278178
-0.02298516
-0.001321202
-0.0223551
-0.001514409
-0.02169403
-0.001592158
-0.02102961
-0.001608338
-0.02026967
-0.001847849
-0.0194824
-0.001922272
-0.01865746
-0.002017989
-0.01782135
-0.00204559
-0.01696198
-0.002110376
-0.01602531
-0.002302553
-0.01510302
-0.002270339
-0.01412411
-0.002414982
-0.01311595
-0.002488149
-0.01210362
-0.002500926
-0.01108305
-0.002525685
-0.01001305
-0.002649661
-0.008938357
-0.002660966
-0.007854504
-0.002685858
-0.00675214
-0.002735062
-0.005652405
-0.002729377
-0.004572138
-0.002678801
-0.003438592
-0.002821531
-0.002309251
-0.002805174
-0.001167376
-0.002837414
6.058181e-05
-0.003075824
0.001264766
-0.003004315
0.002370579
-0.002730044
0.003464244
-0.002699408
0.004555382
-0.002695535
0.005633599
-0.002660733
0.00671734
-0.00267667
0.007775235
-0.002613205
0.008849238
-0.002655768
0.009893934
-0.002582267
0.01088721
-0.002453379
0.01188556
-0.002465301
0.01286613
-0.002418491
0.0138091
-0.002325198
0.01474546
-0.00230764
0.01566253
-0.002255993
0.01649863
-0.002051764
0.01732998
-0.002035014
0.01813681
-0.001972988
0.01888349
-0.001819965
0.01963172
-0.001819016
0.0203016
-0.001623102
0.02094034
-0.001534748
0.02152309
-0.00139173
0.02204536
-0.001237678
0.02256664
-0.001226503
0.02303599
-0.001092796
0.02345192
-0.0009521161
0.0238124
-0.0008057065
0.02411698
-0.0006575332
0.02438251
-0.0005484407
0.02456865
-0.0003305859
0.02473814
-0.0002560782
0.02484758
-3.679936e-05
0.02482619
0.0004532439
0.02474252
0.001005044
0.02478553
0.001920683
0.0250727
0.004426565
0.02465488
0.008719351
0.0203872
0.01308651
0.01030776
0.01910171
0.002131815
0.01734075
0.002467973
0.003491431
0.006189902
-0.007453135
0.00924552
-0.008215874
0.01013697
-0.00369353
0.009418355
-0.0004156648
0.008276483
-0.001402301
0.007979795
-0.005411661
0.0044696
0.002155602
-0.004483694
0.02275391
-0.0100695
0.018145
-0.01008158
0.001248186
-0.008050194
-0.005407095
-0.005601132
-0.006777132
-0.004004771
-0.004514207
-0.001803684
-0.006037797
0.0008775325
-0.006835199
0.003707484
-0.006174984
0.005080603
-0.002495149
0.004704282
0.0006704861
0.003964166
0.0009748177
0.003559155
0.0006719643
0.003223011
0.001399827
0.002029441
0.003613573
0.0002576178
0.004195582
-0.0010737
0.002511553
-0.002399314
0.002662788
-0.003725923
0.003056939
-0.00464966
0.002415663
-0.005166133
0.001503437
-0.005354936
0.0006485993
-0.005142485
-0.0004010078
-0.004522996
-0.001459946
-0.003530564
-0.002438013
-0.002432487
-0.002730782
-0.001259545
-0.002913337
0.0001191103
-0.002697039
0.001614169
0.002472992
-0.001318369
0.002771416
0.00307926
-0.001650924
0.003518534
-0.004041324
0.003698117
-0.003103204
0.00402669
-0.003740376
0.00487115
-0.004540202
0.005484339
-0.002588002
0.004220827
0.002859847
-0.0003773806
0.01114314
-0.003974227
0.01155929
-0.003952753
0.001752677
-0.001780209
-0.007125178
0.002136061
-0.01198048
0.004932545
-0.008337276
0.006573297
-0.004705735
0.007067708
-0.0008651996
0.00562318
0.004915113
0.002462533
0.01051331
-0.001195775
0.01292107
-0.004078413
0.01007887
-0.004422919
0.001665579
-0.001706447
-0.00940011
0.0007984041
-0.01207487
0.002150898
-0.008497484
0.004641708
-0.009820462
0.009918807
-0.01761465
0.01494332
-0.01601313
0.01639247
-0.002763885
0.008767458
0.03650236
-0.00379959
0.04380636
-0.01392871
0.01007751
-0.01930172
-0.002238356
-0.02137547
-0.003638256
-0.02068064
-0.009574401
-0.01980336
-0.008542445
-0.02256447
0.00852508
-0.02842912
0.02685195
-0.03157505
0.02508756
-0.03120713
0.01329183
-0.0311921
0.006885188
-0.03160074
0.003494542
-0.03191125
0.001904425
-0.03210543
0.001127439
-0.03217905
0.0006227696
-0.03218602
0.0003118714
-0.03198547
-0.0003648106
-0.03172208
-0.000604638
-0.03142559
-0.0007359027
-0.03105653
-0.0009724796
-0.03067022
-0.00104165
-0.03019261
-0.001333701
-0.02965833
-0.001524587
-0.02903013
-0.001823352
-0.02836402
-0.001944292
-0.0276838
-0.002001416
-0.02691509
-0.002283121
-0.02610942
-0.002397824
-0.02530019
-0.002417577
-0.02438052
-0.002767514
-0.02342595
-0.00287684
-0.02242742
-0.003016521
-0.02141691
-0.003056104
-0.02037981
-0.003147471
-0.01924866
-0.003433699
-0.01813728
-0.003381725
-0.01695688
-0.003595385
-0.01574313
-0.003701894
-0.01452344
-0.003720613
-0.01329483
-0.003754296
-0.01200757
-0.003936924
-0.01071523
-0.0039533
-0.009412145
-0.003988948
-0.008089631
-0.004057576
-0.00676897
-0.004050038
-0.0054751
-0.003972671
-0.004118711
-0.00417792
-0.002768441
-0.004155445
-0.001407115
-0.004198739
4.48284e-05
-0.004527768
0.001478665
-0.004438151
0.002814413
-0.004065792
0.004139853
-0.004024848
0.005457872
-0.004013554
0.006757026
-0.003959887
0.008060263
-0.003979907
0.009330574
-0.003883516
0.01062124
-0.003946438
0.0118734
-0.003834419
0.01306608
-0.003646059
0.01426567
-0.003664898
0.01544201
-0.003594831
0.0165765
-0.003459686
0.01770485
-0.003435993
0.01880741
-0.003358548
0.01981658
-0.003060933
0.02082107
-0.003039507
0.02179514
-0.002947054
0.02269936
-0.002724184
0.02360627
-0.002725934
0.02442009
-0.002436921
0.02519671
-0.002311367
0.02590742
-0.00210244
0.02654915
-0.001879406
0.02718964
-0.001866993
0.02776806
-0.001671221
0.02828527
-0.001469317
0.02873535
-0.001255789
0.02912375
-0.001045931
0.02946518
-0.0008898759
0.0297145
-0.000579902
0.02994711
-0.0004886946
0.03010084
-0.0001905264
0.03007259
0.0004814998
0.02989557
0.001182058
0.0296302
0.002186055
0.02957473
0.004482038
0.03010338
0.008190701
0.0294588
0.01373108
0.02356406
0.02499645
0.01644862
0.02445619
0.01462948
0.005310571
0.01728505
-0.01010871
0.01954753
-0.01047835
0.01988915
-0.004035157
0.01854177
0.0009317157
0.01559424
0.001545231
0.01153962
-0.001357042
0.004137269
0.009557952
-0.005113385
0.03200457
-0.01036507
0.02339668
-0.01063159
0.001514706
-0.00813296
-0.007905725
-0.005404327
-0.009505765
-0.003870196
-0.006048338
-0.001685348
-0.008222645
0.0009795867
-0.009500134
0.004107036
-0.009302434
0.0058841
-0.004272212
0.005606712
0.0009478735
0.004723668
0.001857862
0.004112102
0.00128353
0.003744764
0.001767164
0.002810292
0.004548046
0.0009489444
0.00605693
-0.0009588981
0.004419395
-0.002882425
0.004586315
-0.00459334
0.004767854
-0.00565047
0.003472793
-0.006186632
0.002039599
-0.006381478
0.0008434456
-0.00611936
-0.0006631259
-0.005369802
-0.002209503
-0.004169381
-0.003638434
-0.002826548
-0.004073615
-0.001341535
-0.00439835
2.402112e-05
-0.004062594
0.0003198207
0.003994388
-0.002027623
0.0008046513
0.004636091
-0.002292626
0.004728773
-0.004134006
0.004575255
-0.002949686
0.004696687
-0.003861807
0.005488749
-0.005332264
0.005907275
-0.003006527
0.003436023
0.005331098
-0.002137609
0.01671677
-0.005521051
0.01494273
-0.005245618
0.001477244
-0.002562013
-0.009808783
0.002078275
-0.01662077
0.005424996
-0.011684
0.007417161
-0.0066979
0.00835858
-0.001806618
0.007250128
0.006023564
0.003848672
0.01391477
-6.49462e-05
0.01683469
-0.002558366
0.01257229
-0.002821651
0.001928864
-0.001044851
-0.01117691
-0.0001948312
-0.01292489
0.0002018637
-0.008894179
0.002652293
-0.01227089
0.008377209
-0.02333956
0.01391441
-0.02155033
0.01523129
-0.004080768
0.007909884
0.04382377
-0.005027799
0.05674405
-0.01992074
0.02497045
-0.02891339
0.006754292
-0.03279612
0.0002444766
-0.03474235
-0.007628175
-0.0367407
-0.006544094
-0.03860821
0.01039259
-0.03877926
0.02702301
-0.03733913
0.02364743
-0.03664121
0.01259391
-0.0370966
0.007340583
-0.03758013
0.003978067
-0.03793614
0.002260431
-0.03818123
0.001372532
-0.03829623
0.00073777
-0.0383399
0.000355542
-0.03812631
-0.0005784054
-0.03784261
-0.0008883379
-0.03751647
-0.00106204
-0.03708707
-0.001401882
-0.03665523
-0.001473482
-0.03609616
-0.001892776
-0.03547506
-0.002145692
-0.03473332
-0.002565092
-0.03394709
-0.002730521
-0.03314754
-0.002800963
-0.03223298
-0.003197683
-0.03127449
-0.00335631
-0.03031554
-0.003376531
-0.02921991
-0.003863144
-0.02807895
-0.004017795
-0.02688585
-0.004209625
-0.02568062
-0.004261332
-0.02444301
-0.004385085
-0.02308539
-0.004791312
-0.02175859
-0.004708525
-0.02034203
-0.005011951
-0.01888822
-0.005155704
-0.0174244
-0.00518443
-0.0159511
-0.005227601
-0.01440326
-0.005484759
-0.01284914
-0.00550742
-0.01127929
-0.005558802
-0.009690333
-0.00564653
-0.008101254
-0.005639117
-0.006549786
-0.005524139
-0.004922986
-0.00580472
-0.003307256
-0.005771175
-0.001687609
-0.005818387
2.345725e-05
-0.006238834
0.001730723
-0.006145417
0.003348535
-0.005683605
0.004956127
-0.005632439
0.006543824
-0.005601252
0.008104266
-0.00552033
0.009668831
-0.005544472
0.01119064
-0.005405329
0.01273971
-0.005495507
0.01423516
-0.00532987
0.01566566
-0.005076559
0.01710695
-0.005106185
0.01851198
-0.004999857
0.01987219
-0.0048199
0.0212304
-0.004794198
0.02254816
-0.004676312
0.02375633
-0.004269101
0.02496125
-0.004244426
0.0261258
-0.004111607
0.0272031
-0.003801487
0.02828988
-0.003812711
0.02925879
-0.003405828
0.03018276
-0.003235344
0.03102658
-0.00294626
0.03178403
-0.002636854
0.03254317
-0.002626129
0.03322046
-0.002348518
0.03382921
-0.002078063
0.0343508
-0.001777378
0.03479725
-0.001492384
0.0351928
-0.001285423
0.03545972
-0.0008468276
0.03571597
-0.0007449421
0.0358709
-0.0003454522
0.0358016
0.0005507954
0.03559678
0.001386877
0.03530199
0.002480843
0.03503031
0.004753724
0.03506034
0.008160668
0.0360005
0.01279093
0.03597084
0.02502611
0.03381348
0.02661356
0.03184869
0.007275358
0.03141378
-0.009673802
0.03129323
-0.0103578
0.03037879
-0.003120709
0.02831787
0.002992631
0.02413386
0.005729242
0.01656508
0.006211743
0.005441451
0.02068158
-0.004765543
0.04221156
-0.01047776
0.0291089
-0.01088647
0.001923418
-0.007746294
-0.0110459
-0.004505509
-0.01274655
-0.003027274
-0.007526572
-0.0009566241
-0.0102933
0.001455968
-0.01191273
0.004593962
-0.01244043
0.006597294
-0.006275544
0.006424941
0.001120226
0.005532806
0.002749998
0.004787438
0.002028898
0.004291061
0.002263541
0.003457127
0.00538198
0.001497967
0.00801609
-0.001061705
0.006979068
-0.003667824
0.007192433
-0.005676077
0.006776108
-0.006769309
0.004566025
-0.007347901
0.002618192
-0.007608676
0.001104221
-0.007292255
-0.0009795466
-0.00637377
-0.003127989
-0.004895343
-0.005116861
-0.003229884
-0.005739075
-0.001428446
-0.006199788
0.0001017262
-0.005592767
-0.001606077
0.00475318
-0.002635201
-0.001313327
0.005494401
-0.003033848
0.005514138
-0.004153743
0.005224476
-0.002660025
0.005279802
-0.003917133
0.005962239
-0.006014701
0.005699359
-0.002743647
0.001450931
0.009579526
-0.004733979
0.02290168
-0.007462092
0.01767084
-0.006952938
0.0009680892
-0.003561538
-0.01320018
0.001829521
-0.02201183
0.005772959
-0.01562743
0.008191116
-0.009116058
0.009682981
-0.003298483
0.009208012
0.006498534
0.006035763
0.01708702
0.001521075
0.02134938
-0.001086438
0.01517981
-0.001411546
0.002253971
-0.0008838925
-0.01170456
-0.002237658
-0.01157113
-0.00326871
-0.007863128
-0.001320623
-0.01421898
0.004104924
-0.02876511
0.009658945
-0.02710435
0.01159909
-0.006020917
0.004635725
0.05078714
-0.009267219
0.07064699
-0.02650927
0.04221251
-0.03632012
0.01656513
-0.04058786
0.004512223
-0.04405351
-0.004162526
-0.0475337
-0.003063909
-0.04872894
0.01158783
-0.04640713
0.0247012
-0.04420181
0.02144212
-0.0442625
0.0126546
-0.04488939
0.007967469
-0.04542582
0.004514496
-0.04582189
0.002656501
-0.04610013
0.00165078
-0.04617233
0.0008099685
-0.04619753
0.0003807366
-0.04590006
-0.0008758713
-0.04554375
-0.001244651
-0.04513107
-0.001474717
-0.04458583
-0.00194712
-0.04406376
-0.001995553
-0.04337596
-0.002580577
-0.04262377
-0.002897888
-0.04172206
-0.003466794
-0.04076698
-0.003685603
-0.0398048
-0.003763149
-0.03869789
-0.004304584
-0.03754169
-0.004512519
-0.03639304
-0.004525173
-0.03507577
-0.005180418
-0.03369908
-0.005394481
-0.03226651
-0.005642199
-0.03081976
-0.005708079
-0.02933836
-0.00586649
-0.02770156
-0.006428108
-0.02611802
-0.006292066
-0.02441435
-0.006715625
-0.02267084
-0.00689921
-0.02091542
-0.006939856
-0.0191507
-0.006992315
-0.01729303
-0.007342429
-0.01542947
-0.007370978
-0.01353597
-0.007452301
-0.01162397
-0.007558538
-0.009700369
-0.007562714
-0.007837731
-0.007386778
-0.00588264
-0.007759811
-0.003940771
-0.007713043
-0.002014962
-0.007744196
-5.165804e-08
-0.008253744
0.002032949
-0.008178418
0.003999655
-0.007650311
0.00593842
-0.007571204
0.007844943
-0.007507775
0.009717089
-0.007392476
0.01159275
-0.007420129
0.01341405
-0.007226627
0.01527674
-0.007358204
0.01706275
-0.007115882
0.01878378
-0.006797584
0.02052408
-0.006846487
0.02220423
-0.006680002
0.02383641
-0.00645208
0.02548273
-0.006440523
0.02706127
-0.006254849
0.02850854
-0.005716375
0.02995974
-0.005695622
0.03135974
-0.005511613
0.03264917
-0.005090915
0.03395983
-0.00512337
0.03512576
-0.004571754
0.03623813
-0.004347719
0.03725275
-0.003960872
0.03816854
-0.003552643
0.03909186
-0.003549453
0.03990727
-0.003163924
0.04065412
-0.002824914
0.04128736
-0.002410626
0.04183895
-0.002043974
0.04232789
-0.001774356
0.04267169
-0.001190634
0.04299599
-0.001069233
0.04322269
-0.0005721598
0.04319812
0.0005753659
0.04298188
0.001603121
0.04265822
0.002804502
0.04236489
0.005047049
0.04197161
0.008553954
0.04243241
0.01233012
0.04509472
0.0223638
0.046855
0.02485327
0.04535838
0.008771981
0.04268518
-0.007000601
0.04066463
-0.00833725
0.03867106
-0.00112713
0.03621935
0.005444334
0.03187624
0.01007235
0.02246342
0.01562457
0.008786919
0.03435808
-0.003030381
0.05402886
-0.009707643
0.03578616
-0.01014596
0.002361732
-0.006504589
-0.01468727
-0.002750366
-0.01650077
-0.001207955
-0.009068984
0.0007385756
-0.01223983
0.002690171
-0.01386432
0.005368227
-0.01511848
0.007283646
-0.008190963
0.007172574
0.001231298
0.006390054
0.003532518
0.005572063
0.002846888
0.00487724
0.002958365
0.003918235
0.006340985
0.001707922
0.0102264
-0.001540907
0.0102279
-0.004768136
0.01041966
-0.006925335
0.008933307
-0.008048733
0.005689422
-0.008749562
0.003319021
-0.009093352
0.001448011
-0.008672367
-0.001400531
-0.007531564
-0.004268792
-0.005696759
-0.006951666
-0.003598393
-0.00783744
-0.001393794
-0.008404387
0.0004733391
-0.0074599
-0.003767939
0.005866022
-0.003448946
-0.003730403
0.006812226
-0.003980052
0.006810632
-0.004152149
0.006296738
-0.00214613
0.005998969
-0.003619364
0.006121057
-0.00613679
0.004315744
-0.0009383337
-0.00210218
0.01599745
-0.007944795
0.0287443
-0.009762779
0.01948883
-0.009026127
0.0002314365
-0.004872442
-0.01735387
0.001244207
-0.02812847
0.005927909
-0.02031114
0.008850507
-0.01203866
0.01100178
-0.005449751
0.011138
0.006362309
0.008469687
0.01975533
0.003596166
0.0262229
0.0001302319
0.01864574
-0.0007622353
0.003146438
-0.001810426
-0.01065637
-0.005827272
-0.007554281
-0.008628303
-0.005062096
-0.008368165
-0.01447912
-0.004182274
-0.032951
-0.0003112198
-0.03097541
0.003666499
-0.009998636
-0.001867466
0.05632111
-0.01739024
0.08616976
-0.03439525
0.05921751
-0.04310222
0.02527211
-0.04723999
0.008649996
-0.0514458
4.328702e-05
-0.0554268
0.0009170814
-0.05671458
0.01287562
-0.05462305
0.02260966
-0.05304564
0.01986471
-0.05328283
0.01289179
-0.05379731
0.008481939
-0.05434878
0.005065968
-0.05477292
0.003080646
-0.05514178
0.002019642
-0.05521044
0.0008786232
-0.05532536
0.0004956593
-0.0549489
-0.001252336
-0.05454216
-0.001651384
-0.05406802
-0.001948864
-0.05339356
-0.002621575
-0.05280933
-0.002579784
-0.05197155
-0.003418357
-0.05108953
-0.003779909
-0.0500108
-0.004545525
-0.04886054
-0.004835859
-0.04772106
-0.004902628
-0.04640041
-0.005625241
-0.04501412
-0.005898807
-0.04363752
-0.00590177
-0.0420699
-0.006748039
-0.04042284
-0.007041545
-0.03870899
-0.007356048
-0.03695767
-0.007459397
-0.03521161
-0.007612551
-0.03323
-0.008409717
-0.0313485
-0.008173564
-0.02929356
-0.008770563
-0.02720897
-0.008983799
-0.02511208
-0.009036749
-0.02297039
-0.009134011
-0.02076317
-0.00954964
-0.01854108
-0.009593068
-0.01626733
-0.009726058
-0.01398753
-0.009838332
-0.01162145
-0.009928799
-0.009400328
-0.009607897
-0.007041098
-0.01011904
-0.004690348
-0.01006379
-0.002397032
-0.01003751
-1.999089e-05
-0.01063079
0.002402555
-0.01060096
0.004795309
-0.01004306
0.00710083
-0.009876725
0.009396128
-0.009803072
0.01164991
-0.009646259
0.01388874
-0.00965896
0.01606771
-0.009405592
0.01832747
-0.009617969
0.02047055
-0.009258959
0.02253265
-0.008859689
0.02462354
-0.008937377
0.02665498
-0.00871144
0.02861685
-0.008413944
0.03058295
-0.008406632
0.03248035
-0.00815225
0.03420862
-0.007444637
0.03594655
-0.00743356
0.03760489
-0.007169951
0.03916352
-0.006649542
0.04073714
-0.00669699
0.04212431
-0.005958921
0.04346896
-0.005692375
0.04466742
-0.005159329
0.04576362
-0.004648843
0.04687481
-0.004660647
0.04783159
-0.004120706
0.04873497
-0.003728286
0.04947138
-0.003147037
0.05013172
-0.002704319
0.05072343
-0.00236606
0.05110953
-0.001576735
0.05150977
-0.001469473
0.05174991
-0.0008122978
0.05168501
0.0006402637
0.05144215
0.001845984
0.05109124
0.003155407
0.05084567
0.005292624
0.05057435
0.008825269
0.05055605
0.01234842
0.05307955
0.0198403
0.05572884
0.02220398
0.05442947
0.01007135
0.05088397
-0.0034551
0.04808637
-0.005539655
0.04542214
0.001537104
0.04264993
0.008216546
0.03871369
0.01400859
0.02928489
0.02505336
0.01467151
0.04897146
0.0006811687
0.0680192
-0.006417452
0.04288478
-0.007093929
0.003038209
-0.00341191
-0.01836929
0.0003404045
-0.02025309
0.001696976
-0.01042556
0.00385246
-0.01439531
0.005230056
-0.01524192
0.006873103
-0.01676153
0.008074612
-0.009392472
0.007845783
0.001460127
0.00728294
0.004095361
0.006424212
0.003705616
0.005486606
0.003895971
0.004179046
0.007648545
0.001469121
0.01293633
-0.002488182
0.0141852
-0.00614234
0.01407382
-0.008339214
0.01113018
-0.009576948
0.006927156
-0.0104297
0.004171778
-0.01082321
0.001841518
-0.01022039
-0.002003356
-0.008836167
-0.005653011
-0.006591696
-0.009196137
-0.003916944
-0.01051219
-0.001256795
-0.01106454
0.0009601533
-0.009676848
-0.006256732
0.007270273
-0.004339758
-0.006660919
0.008738029
-0.005447807
0.008706949
-0.004121068
0.007877535
-0.001316716
0.00677894
-0.002520769
0.005360824
-0.004718673
0.001055322
0.003367168
-0.006715392
0.02376816
-0.01161455
0.03364346
-0.01272292
0.0205972
-0.01147819
-0.001013299
-0.00666257
-0.02216948
8.802187e-05
-0.03487907
0.005888236
-0.02611135
0.009537477
-0.0156879
0.01250045
-0.008412729
0.01319757
0.005665193
0.01083242
0.02212048
0.005721411
0.03133391
0.001502389
0.02286476
-0.0007513026
0.00540013
-0.004757114
-0.006650562
-0.01198741
-0.0003239857
-0.01643756
-0.0006119449
-0.01859267
-0.012324
-0.01690044
-0.03464324
-0.01414822
-0.03372762
-0.008651214
-0.01549564
-0.01754623
0.06521612
-0.03183111
0.1004546
-0.04483659
0.072223
-0.05134122
0.03177673
-0.05599134
0.01330012
-0.06076295
0.00481489
-0.06485472
0.005008855
-0.06656836
0.01458926
-0.06523323
0.02127453
-0.06409911
0.01873059
-0.06426701
0.0130597
-0.06481235
0.009027282
-0.06542599
0.005679603
-0.06581215
0.003466807
-0.06631054
0.002518033
-0.06627493
0.0008430142
-0.06634692
0.000567644
-0.0659442
-0.001655056
-0.06542726
-0.002168326
-0.06491713
-0.002458989
-0.06402175
-0.003516956
-0.06336501
-0.003236525
-0.06234435
-0.004439017
-0.06131332
-0.004810939
-0.05999842
-0.005860427
-0.05858523
-0.006249048
-0.05724243
-0.006245422
-0.05569081
-0.007176861
-0.05396027
-0.007629348
-0.05231848
-0.007543558
-0.05046652
-0.008600002
-0.04851192
-0.008996146
-0.04641704
-0.009450929
-0.04429779
-0.009578642
-0.04230579
-0.009604554
-0.03984083
-0.01087468
-0.03764034
-0.01037405
-0.0351002
-0.01131071
-0.03266728
-0.01141672
-0.03015326
-0.01155076
-0.02755004
-0.01173723
-0.02495083
-0.01214885
-0.02226419
-0.01227971
-0.01953177
-0.01245848
-0.0168575
-0.0125126
-0.01395407
-0.01283222
-0.01134623
-0.01221574
-0.008442615
-0.01302266
-0.005600728
-0.01290568
-0.002853699
-0.01278454
-2.076909e-05
-0.01346372
0.002904507
-0.01352624
0.005705164
-0.01284372
0.008441943
-0.0126135
0.0112346
-0.01259573
0.01396667
-0.01237832
0.01665727
-0.01234957
0.0192427