/*--------------------------------*- C++ -*----------------------------------*\
| =========                 |                                                 |
| \\      /  F ield         | OpenFOAM: The Open Source CFD Toolbox           |
|  \\    /   O peration     | Version:  2406                                  |
|   \\  /    A nd           | Website:  www.openfoam.com                      |
|    \\/     M anipulation  |                                                 |
\*---------------------------------------------------------------------------*/
FoamFile
{
    version     2.0;
    format      ascii;
    arch        "LSB;label=32;scalar=64";
    class       volScalarField;
    location    "0.32";
    object      p;
}
// * * * * * * * * * * * * * * * * * * * * * * * * * * * * * * * * * * * * * //

dimensions      [0 2 -2 0 0 0 0];

internalField   nonuniform List<scalar> 
4562
(
-1.012886e-08
2.033054e-09
-1.23643e-08
-2.26208e-08
2.087068e-06
-1.994762e-08
-9.739472e-07
-3.494929e-07
-2.53429e-07
-1.900857e-08
-9.657193e-07
1.191554e-07
-4.445045e-07
-6.284998e-08
1.96979e-06
4.775664e-08
-6.509447e-07
1.986187e-07
-1.064923e-06
-8.043007e-09
-2.611682e-06
-1.727171e-07
-7.023821e-07
-9.034364e-10
1.29924e-09
-3.535037e-07
-3.504782e-07
-2.093515e-07
-1.836998e-06
4.341002e-08
-1.083203e-07
6.970508e-09
-6.18686e-08
-6.53026e-07
3.330016e-07
3.669695e-07
-1.894138e-06
-1.555332e-07
7.43176e-09
1.470889e-07
-5.595863e-07
2.887029e-08
-5.833196e-07
-3.714826e-08
-2.303831e-08
-5.220734e-07
1.026064e-08
3.132994e-08
-4.856986e-08
1.230011e-07
-4.847005e-08
-8.820175e-08
4.704158e-07
-7.65988e-07
6.786672e-08
4.512908e-07
-7.89108e-07
-1.404889e-06
-8.2139e-07
1.803039e-06
-2.948213e-08
-1.420062e-06
-5.558705e-07
1.069929e-07
-4.239664e-07
-1.768854e-07
-2.637603e-07
-1.110812e-07
-8.648147e-08
-1.483358e-07
-1.146348e-06
-1.621528e-07
4.918184e-07
-2.330391e-07
-5.256566e-07
6.988186e-07
-2.44708e-08
-1.634347e-07
-2.024475e-07
2.287633e-06
3.400062e-06
7.680345e-07
-1.326412e-06
-7.893138e-08
-7.893773e-07
-5.310324e-08
9.561103e-09
-1.649278e-07
-3.538727e-07
-2.64351e-07
-1.632629e-07
-1.663598e-08
-2.163189e-07
-3.828723e-08
-2.779925e-07
-4.340328e-07
-1.56409e-09
-2.129785e-07
-1.742497e-06
-8.803105e-07
3.957804e-09
-1.082304e-06
-8.757184e-08
-2.496956e-06
-4.976607e-08
-1.09754e-06
-3.27982e-07
1.929063e-08
-6.337562e-08
1.053783e-07
-4.181422e-07
-1.021872e-07
-8.012779e-09
-1.100665e-06
-2.50499e-07
3.966466e-08
2.25168e-06
-3.696449e-07
-1.492073e-06
-2.752103e-07
3.919156e-07
-3.818654e-07
-4.003626e-08
-2.938123e-08
-6.583571e-07
-5.367704e-08
-1.844045e-07
-4.912161e-08
-1.241458e-07
8.226216e-08
1.837308e-07
-6.045488e-08
-7.532445e-07
1.157271e-08
-3.406088e-08
3.888705e-07
-1.118535e-06
-6.606365e-08
7.820539e-07
-1.860486e-09
-1.117361e-06
7.703722e-07
4.395019e-08
1.520102e-07
-4.117267e-07
-6.586988e-08
-6.215024e-07
-7.6402e-08
1.919609e-08
6.598669e-07
-4.800605e-08
-1.287543e-06
-9.613403e-08
1.666483e-07
-5.405288e-08
4.211007e-07
-7.969204e-08
-5.601978e-07
-1.988296e-08
-3.692778e-08
-4.747507e-07
9.171033e-07
-9.25243e-09
-6.871094e-09
-1.663492e-07
1.509717e-06
6.495327e-08
3.05348e-08
-9.886994e-07
4.131282e-07
-2.297757e-06
1.075228e-07
-1.813171e-08
-1.034225e-08
-8.37529e-07
-3.454408e-08
-1.782556e-08
-5.689471e-08
-3.937083e-07
-1.925499e-07
1.010869e-08
-7.298264e-07
-6.813908e-07
2.611775e-06
-2.371851e-07
-6.994439e-08
-1.004471e-06
1.327763e-08
-1.015527e-07
-3.254466e-07
-1.908201e-06
-7.026431e-07
2.234849e-07
1.215695e-08
-4.206206e-07
-1.860135e-07
-8.41113e-07
-7.557073e-07
4.165278e-07
-5.102788e-09
-7.113867e-08
-4.164315e-07
-1.325575e-08
-2.865339e-07
-1.127564e-06
-1.365187e-08
7.530062e-07
3.496955e-07
4.602013e-07
-2.809098e-07
9.452565e-09
-8.328936e-07
-4.996378e-08
1.874503e-08
1.953752e-07
5.939965e-07
-2.579343e-08
-2.027143e-09
-9.603433e-08
-1.357355e-07
-1.514826e-08
-1.36549e-06
3.610229e-07
7.598571e-08
-1.121664e-06
-6.918021e-07
-9.086182e-07
-9.046429e-07
-6.810115e-07
-5.018854e-07
-5.044468e-09
-6.076582e-07
2.07556e-07
-5.225394e-07
-1.803404e-07
-1.094738e-06
-7.818592e-07
-4.407291e-07
3.389589e-07
-3.409395e-07
-3.766536e-07
-2.398556e-07
-3.715861e-07
-2.021656e-07
1.18255e-08
1.212588e-06
-2.201743e-07
-1.08024e-06
-4.717547e-08
-2.52137e-08
-4.226963e-08
-1.154569e-07
-5.186516e-08
-5.933276e-08
7.620831e-08
5.636497e-08
-5.689977e-09
-6.636777e-07
-3.848869e-07
-1.393782e-06
-6.118318e-07
-1.92314e-07
2.021479e-07
-3.899525e-10
3.68797e-07
-8.088648e-08
1.188925e-08
1.215929e-07
-2.35805e-09
-1.166706e-08
-6.45899e-09
-7.89948e-08
-3.217171e-07
7.287445e-07
1.146557e-06
-1.671577e-08
1.211836e-08
-1.822407e-08
1.074194e-07
1.351462e-06
-2.683811e-07
-9.381718e-09
-3.557734e-07
-2.42621e-07
-1.150265e-06
5.481031e-08
8.507205e-08
-6.514271e-08
-4.704362e-08
-1.10853e-06
-2.621994e-07
-6.837565e-08
-8.31547e-07
-1.908408e-07
-4.870636e-08
-9.410715e-07
-6.272081e-07
-6.547638e-08
-1.564098e-06
1.027758e-06
1.088002e-07
-1.588751e-07
3.798122e-08
4.220527e-09
7.374636e-07
-1.607623e-06
-1.882099e-06
4.019643e-08
-4.434204e-07
-4.843776e-07
-2.646271e-07
2.715365e-07
-1.679071e-07
-1.59922e-06
-2.239729e-07
5.626786e-08
-1.765786e-08
-8.580957e-09
2.255673e-07
-2.881102e-08
-5.673368e-08
2.38249e-06
-2.717923e-08
-6.475236e-08
-1.821675e-06
-3.621578e-07
-1.009553e-06
-4.074053e-07
-1.007112e-07
-6.447595e-07
5.31678e-08
1.87988e-07
-1.204127e-08
1.07694e-07
-1.179204e-06
-1.244111e-06
-3.875345e-08
-6.319772e-07
-2.345918e-07
-7.943918e-07
-1.331174e-07
4.084843e-09
-7.24595e-07
-8.563223e-08
-6.730546e-08
3.19074e-09
9.952214e-09
-4.091128e-07
-9.82002e-07
-2.058487e-07
-1.146982e-07
-2.33137e-07
-2.196843e-08
-1.190653e-07
-1.431897e-08
-3.112772e-07
-1.070768e-07
-3.391006e-08
-4.954262e-07
-8.902262e-08
-1.080115e-07
-2.597855e-08
1.409351e-08
1.91824e-07
-1.637515e-07
-4.276409e-07
-2.530607e-07
-4.048957e-07
-3.262219e-07
-2.092384e-07
-5.493011e-07
-5.932149e-07
-5.352152e-07
-1.325777e-06
4.873021e-08
-2.097755e-08
-7.315529e-07
-2.415747e-06
-1.290728e-07
-1.127776e-07
-5.102392e-08
1.734778e-08
-7.367673e-07
-1.453382e-08
9.905557e-08
-1.426402e-06
-1.188409e-06
-1.180594e-08
-8.712161e-08
-1.947657e-07
-1.535728e-07
-1.783479e-07
8.000625e-09
5.082234e-08
1.424724e-06
1.20638e-06
-8.521822e-07
-1.41915e-06
-3.393285e-08
-8.304024e-07
-1.032256e-06
-3.342143e-06
-7.025944e-07
3.859677e-08
1.92609e-06
2.882799e-08
-2.912065e-06
-1.318052e-06
-2.610745e-06
-5.208667e-08
-1.569723e-07
-3.822878e-08
-3.852989e-08
-2.656859e-07
-1.041072e-07
-1.341361e-08
-7.907644e-07
-6.898669e-08
-2.049906e-08
-1.206044e-07
-1.297192e-07
-1.912809e-07
-6.110578e-07
-5.495239e-07
5.280876e-08
-1.053984e-07
1.25865e-08
-5.248686e-07
-4.600478e-07
-2.047648e-07
-1.575437e-07
-3.81667e-07
-7.992033e-07
-4.628576e-07
-4.325254e-07
2.021981e-07
2.58948e-08
-7.674947e-08
-9.767822e-07
-6.322553e-07
-3.134099e-08
1.07749e-08
-1.244999e-06
-7.079444e-07
1.541282e-06
-6.39806e-08
-4.0813e-07
2.611156e-08
-2.672166e-07
-7.541955e-08
-3.669588e-07
1.743043e-09
-2.913568e-07
1.491068e-07
9.404574e-09
-1.028088e-07
-1.615208e-07
-6.215867e-07
-2.817495e-06
1.424744e-07
9.621372e-07
-6.655272e-08
-2.145591e-07
-1.190908e-06
-1.329187e-06
-3.681796e-08
1.21305e-08
-5.502998e-08
-2.404917e-08
-3.843416e-07
-1.128483e-07
-2.994862e-06
-2.202726e-07
-1.275337e-07
1.348427e-06
-3.906109e-07
-1.535447e-07
-4.37705e-07
-4.987489e-07
-3.773594e-07
-4.375021e-08
-7.219827e-07
-3.29918e-07
1.978935e-06
-1.381336e-08
6.446942e-07
3.174836e-07
-2.748205e-07
-4.012523e-07
3.331509e-08
4.239044e-09
7.018466e-10
-9.502867e-08
-3.084043e-07
-1.395131e-06
5.564784e-08
-1.455605e-07
-5.461291e-09
-2.141963e-07
-4.604199e-08
8.029017e-08
5.22556e-07
-8.226719e-08
-6.726043e-07
-9.228076e-07
-9.378265e-07
4.86434e-07
-6.713492e-07
-5.660827e-08
-1.20161e-07
2.84641e-07
-1.723855e-07
-1.281703e-07
2.643856e-07
-1.991046e-07
2.135776e-07
1.294732e-06
-1.711291e-07
1.119859e-06
9.584495e-08
9.955235e-09
-1.115744e-06
1.700044e-07
-7.792354e-07
5.968539e-08
-4.508504e-07
-3.216417e-07
3.617142e-07
2.128672e-08
-8.656678e-07
-1.193558e-06
-1.889845e-06
-4.451677e-07
-8.986556e-07
-1.253064e-08
-5.231713e-07
-3.779993e-07
1.088624e-07
-4.67443e-07
-3.083601e-07
1.520978e-06
-2.571642e-07
-3.13268e-07
-4.740497e-08
8.576254e-08
-2.268341e-07
-6.887928e-07
-5.561165e-07
-6.022936e-07
-1.108986e-06
-9.092685e-07
-1.166382e-06
-6.168797e-07
-9.197904e-07
-3.022155e-07
-1.035674e-06
-2.152549e-07
2.92869e-08
4.83647e-07
1.757186e-07
-5.616009e-07
-2.768552e-08
-1.356194e-07
-6.744271e-09
-4.626484e-09
-5.98042e-08
-1.04568e-07
-1.928746e-07
-1.645386e-07
8.561391e-08
4.440324e-07
-1.309767e-06
-3.299799e-08
-9.071993e-07
1.122944e-07
6.096492e-08
-7.776945e-08
-3.457015e-08
-1.252924e-07
-1.501925e-07
-2.186752e-07
-4.324692e-07
-2.894918e-08
-1.927196e-07
-6.605649e-07
-7.154565e-09
-1.763861e-08
-6.230768e-07
-4.380429e-08
-4.89717e-07
-1.170379e-06
2.94137e-06
-1.153053e-06
-1.141212e-06
-1.983233e-06
-1.489217e-06
-5.476667e-07
-4.878615e-09
-4.054599e-07
-2.593489e-08
-1.041104e-06
-1.558128e-06
-2.027475e-07
-1.310107e-07
3.831084e-07
-6.971239e-07
-4.109935e-07
-1.477517e-08
-4.582846e-09
6.132962e-07
-1.746669e-07
2.078704e-08
7.784162e-07
1.22558e-06
1.330576e-08
-2.307416e-06
-4.303773e-07
1.078221e-06
-2.03656e-07
9.549313e-08
1.345034e-07
-6.040422e-09
3.200008e-08
3.057985e-08
-3.564072e-08
1.272492e-07
-4.079492e-08
6.03829e-10
1.668351e-07
-5.973896e-07
-6.901834e-07
-1.818568e-06
-2.866488e-08
-4.697646e-07
-1.78237e-07
-1.282602e-06
6.885379e-08
-6.339558e-07
-7.316749e-07
-1.352727e-06
-3.189035e-08
1.930095e-08
-1.129556e-06
-1.383172e-06
1.22452e-07
1.413638e-08
-2.064356e-07
-5.153555e-08
-7.102361e-08
-1.616766e-08
-6.338824e-07
-6.955424e-07
-7.150597e-07
-7.461227e-07
-2.16126e-07
-5.029666e-07
-3.35497e-07
-4.56087e-08
-2.805277e-08
7.182022e-09
-8.853148e-07
-9.627768e-09
-1.89019e-08
-5.836431e-09
9.248966e-09
6.88871e-08
9.176991e-08
3.581536e-09
2.498365e-06
-1.456199e-07
-9.919537e-07
-3.019554e-08
8.223077e-09
1.084322e-07
-3.116575e-07
-1.046123e-06
3.212504e-08
6.047326e-09
8.877905e-07
8.636512e-07
-1.183008e-07
-9.210208e-08
1.478059e-08
-6.979275e-08
-3.335115e-08
-4.051183e-10
-2.219432e-07
-2.953256e-07
-1.80679e-08
-7.72754e-08
-9.673208e-08
-9.085427e-08
6.786431e-09
4.461272e-07
-6.08761e-07
-1.169475e-08
1.739055e-07
-3.531685e-07
9.476784e-09
7.021649e-07
-1.08314e-06
9.737086e-08
1.15136e-07
1.621346e-08
-1.002986e-08
-2.555301e-07
-2.011812e-08
1.107455e-07
-9.839438e-09
7.09071e-08
-2.179078e-06
-1.370769e-06
-1.297165e-06
-2.825116e-07
-5.820948e-07
-1.424461e-07
-2.704662e-06
1.864921e-08
1.528201e-07
2.260631e-07
-4.892341e-07
-3.216281e-07
-4.0364e-07
-1.610303e-06
2.219886e-07
8.52869e-09
2.425052e-07
-1.494433e-07
5.897726e-07
1.740855e-06
6.852536e-07
-9.004039e-10
-3.079623e-07
-7.306755e-08
-9.312969e-07
2.701777e-06
-1.088541e-06
1.167946e-10
5.584773e-07
2.542544e-07
2.074252e-06
-1.636551e-08
-5.99786e-07
-3.097894e-09
-5.424553e-08
8.879434e-07
-1.135316e-06
4.445681e-07
-1.273547e-07
1.284163e-06
2.717655e-08
8.590097e-07
-2.312346e-07
-3.07437e-07
6.995939e-08
3.281502e-08
-2.620056e-07
-4.399432e-07
-1.493803e-08
-1.734198e-07
1.56214e-08
-2.340942e-07
-4.677019e-07
-4.065705e-07
-3.706826e-07
6.990369e-08
-9.320112e-07
7.770845e-08
-6.216447e-07
2.174402e-08
1.104881e-06
-6.28285e-07
-6.171675e-08
-2.951089e-09
-5.396861e-07
-4.824423e-07
-4.829077e-07
-6.765164e-07
-8.3981e-07
-1.356335e-06
9.021494e-07
7.658049e-07
-8.711366e-07
-6.154793e-09
-9.363388e-09
6.289974e-08
-7.424321e-08
-2.561313e-07
-3.195173e-08
6.484392e-08
-2.237543e-08
-2.050731e-06
-1.47242e-08
-1.356947e-08
-7.602001e-08
-3.839654e-09
-1.387845e-07
7.15755e-07
7.896197e-07
1.016144e-07
-3.710481e-07
3.301415e-07
-3.315438e-07
-2.139674e-07
-4.662145e-07
-3.929643e-07
-4.537692e-07
-1.135849e-06
-5.263083e-08
-1.107285e-06
-1.09564e-06
-1.08376e-07
7.9075e-08
-1.191944e-07
-4.156496e-07
-7.38081e-07
-2.148426e-07
7.022615e-08
-1.900066e-07
-4.873094e-07
-1.273619e-07
5.742127e-07
-1.366446e-07
2.498841e-07
-3.543505e-07
-2.380703e-07
-4.69589e-07
-4.730238e-07
-1.103293e-06
-6.0128e-07
-3.998547e-09
-1.039915e-07
4.195796e-08
1.79924e-07
1.300666e-06
-2.759872e-07
-3.879779e-07
-1.827505e-07
3.665021e-08
-2.602042e-08
-2.336787e-07
-1.236732e-07
-1.325493e-07
-1.188849e-06
-7.185764e-07
-2.232554e-07
-6.90181e-08
4.559149e-08
3.313046e-07
1.095088e-07
-1.343746e-06
-4.305023e-07
2.003728e-07
2.719256e-07
5.602894e-07
-2.197023e-07
-1.384743e-08
2.134264e-06
6.394704e-09
1.235814e-08
-1.192799e-06
1.474356e-08
-5.97396e-07
-4.319361e-08
4.015738e-07
-1.896451e-08
1.621337e-07
-9.664609e-07
1.820744e-08
8.606976e-08
4.477872e-08
1.806642e-07
-4.791093e-07
-6.467504e-07
-1.250629e-08
-7.443715e-07
-1.878838e-07
8.857076e-08
-3.531066e-07
7.679127e-08
-1.496924e-07
8.357152e-07
-2.373152e-07
-1.201018e-06
-9.732724e-09
-5.375003e-07
-9.63914e-07
-6.109019e-07
-1.282449e-06
8.999025e-09
-7.325949e-07
-2.606763e-07
-4.134435e-07
-3.652251e-08
9.393345e-08
-3.463933e-07
-5.527876e-07
-7.791476e-07
-1.504473e-08
1.561302e-07
-1.558455e-06
-1.040739e-07
-5.68774e-07
-3.240908e-07
-3.012609e-07
4.637372e-07
4.796724e-08
-3.124164e-08
-1.008596e-07
-8.902135e-07
-2.087553e-07
-2.378944e-07
-2.597674e-07
-2.572922e-07
-1.829224e-07
-2.200519e-07
-2.515983e-07
-2.313156e-07
-4.550921e-07
-1.871528e-07
9.891287e-09
-2.877152e-07
-1.791142e-07
-2.81978e-07
-2.860627e-07
4.727878e-07
2.964413e-07
6.91223e-08
-3.528638e-07
-8.691918e-08
2.857843e-10
-7.693531e-07
-1.833873e-07
-5.798036e-07
-5.018493e-07
1.261736e-06
-1.483464e-08
-7.277232e-08
-4.858902e-08
-1.770689e-06
-1.934561e-06
-1.983784e-06
-2.093751e-06
5.424866e-07
1.310596e-07
1.722337e-07
1.538735e-08
6.161288e-09
-5.592705e-07
-8.843566e-07
-4.970255e-08
-1.567455e-06
-8.785902e-07
-1.808749e-06
-2.174288e-07
-1.16403e-07
4.131957e-07
8.428942e-07
-6.186378e-07
-1.251583e-06
1.672734e-09
-4.674397e-08
-6.017309e-08
-1.15717e-06
1.596487e-06
3.565633e-07
-4.85834e-08
3.669804e-07
-2.278397e-06
-1.42578e-06
1.214953e-06
-4.92733e-07
-2.169553e-08
1.193391e-06
-1.092092e-08
3.019124e-07
-8.686433e-07
-9.378965e-07
-7.53464e-07
1.503425e-08
-1.197278e-07
-2.838769e-07
-3.196264e-07
-1.857648e-07
-1.565583e-07
-2.306059e-07
-8.077286e-11
-2.086859e-06
-1.833656e-06
-2.369673e-06
-5.349658e-07
-1.240918e-07
-8.619149e-08
2.873572e-08
-1.69689e-07
-9.011972e-07
1.388008e-07
-1.226039e-07
-9.831876e-07
-8.997541e-07
-1.198985e-06
-1.502889e-07
-1.980528e-07
-2.766552e-07
-1.383197e-06
8.343905e-07
-3.234768e-07
2.496751e-07
-3.336768e-07
-3.493866e-07
-6.488695e-07
1.574835e-09
8.232973e-07
1.3654e-08
7.144183e-09
-1.173856e-06
-1.933392e-08
1.106065e-08
1.817e-08
-7.063698e-09
1.83702e-07
3.868792e-08
-3.13525e-07
-4.545272e-07
-4.962612e-07
-2.136437e-07
-8.377511e-07
3.541279e-08
1.720492e-07
9.978828e-09
-1.686937e-08
-1.296958e-08
-1.214812e-07
3.083222e-09
-1.017829e-06
-1.111393e-06
-2.740364e-07
-1.577367e-08
-4.37183e-09
-2.290767e-06
-2.326212e-06
-1.642866e-06
-1.383003e-06
-1.588081e-07
-1.043684e-07
-1.217651e-07
-1.423175e-07
-8.115141e-08
-7.386862e-08
-8.632065e-08
-3.47725e-08
-3.028959e-07
-2.098333e-06
6.765795e-07
-3.630147e-08
-2.638836e-08
-4.422078e-09
-5.282363e-08
-1.153785e-07
3.113403e-07
-9.177932e-08
1.135273e-07
-5.6441e-07
-1.880802e-08
1.730111e-08
-2.481703e-08
-8.776989e-07
-9.583221e-08
2.528878e-06
7.729587e-09
3.732678e-08
5.435174e-08
-1.335172e-06
-1.46147e-06
-1.145027e-06
-1.164341e-06
-8.072591e-07
-5.871385e-08
-2.807235e-08
-1.946602e-06
-1.919572e-06
-1.945688e-06
1.093015e-08
-8.117126e-09
-4.547098e-08
-1.542682e-07
-1.96479e-07
-6.923099e-07
-4.278881e-09
-1.36961e-06
-1.693692e-06
-6.939239e-07
-8.129066e-07
-4.130129e-08
-2.026578e-08
-6.707994e-08
-7.946663e-07
7.092259e-08
-7.847017e-07
2.327188e-07
2.56965e-08
-2.459675e-08
1.647197e-08
1.514706e-06
-5.085596e-08
-1.724216e-08
2.039194e-07
7.070524e-08
-2.380313e-06
-1.596321e-08
-2.249007e-08
1.48745e-07
2.02342e-07
3.118696e-07
-4.677651e-07
-3.33296e-07
5.961635e-08
-1.293687e-07
-1.245396e-07
-7.343607e-07
7.447759e-08
-2.686731e-06
-3.132193e-06
-1.453625e-10
1.233129e-08
3.009339e-08
-3.10327e-07
2.050254e-08
9.973198e-09
1.29789e-08
-1.018071e-06
-8.727931e-09
4.83953e-08
2.370926e-08
1.552465e-10
-2.165465e-07
-1.606391e-07
-6.77001e-08
-9.754756e-08
-2.710594e-08
1.228416e-08
2.866786e-09
1.521812e-08
-2.102444e-07
1.462195e-07
1.647083e-07
-1.651653e-08
2.395715e-06
-1.231292e-07
-7.808384e-07
-1.010754e-06
-4.124304e-07
5.388719e-09
6.318635e-08
2.212877e-06
2.170566e-06
-7.511553e-07
6.7004e-07
2.024573e-07
-6.396391e-07
6.525736e-08
-5.733527e-08
-1.397339e-08
2.986302e-07
2.888533e-08
-1.944738e-07
-7.731567e-08
-8.363258e-08
4.283561e-08
-9.852881e-07
-2.713232e-08
-1.130964e-06
1.034507e-06
-1.864772e-09
-3.585667e-07
3.132524e-09
-2.934126e-07
-2.634401e-07
-1.851482e-07
-2.21988e-07
-5.405133e-07
-3.128289e-08
-3.715198e-07
-3.514062e-07
-3.232438e-07
-2.460302e-09
-2.714575e-08
6.847786e-08
-1.976952e-08
6.943356e-09
-7.317764e-07
-7.330112e-07
-5.840357e-07
2.622559e-08
5.360672e-08
-3.098277e-07
3.458295e-08
-8.614752e-07
-7.940583e-07
-7.566009e-07
-1.200783e-06
2.386384e-09
4.864053e-08
-8.184639e-08
-1.063892e-06
4.54868e-08
3.107206e-07
-3.726892e-07
-5.99065e-07
2.842288e-07
4.520007e-07
2.738594e-07
-6.418636e-07
-6.624263e-07
-3.235655e-07
-8.210818e-07
4.554846e-08
1.590103e-07
4.711806e-07
3.998546e-07
-5.1415e-07
-8.566399e-08
-6.777368e-07
-5.861407e-07
-6.867454e-07
-8.442825e-07
-3.701665e-07
-1.145502e-06
-2.230061e-07
-8.102727e-07
4.527985e-07
9.295822e-08
-1.246188e-06
-1.429583e-06
2.433344e-07
-1.098708e-07
-2.012812e-07
-6.223482e-08
-1.357956e-07
-3.690283e-08
2.671532e-08
8.214991e-09
-1.376588e-07
-1.62442e-07
-8.486897e-08
-3.286925e-07
-3.168942e-07
-3.6135e-07
2.741873e-07
3.109532e-07
4.50923e-07
-8.909095e-07
-9.078541e-07
1.342151e-06
1.275028e-06
1.363102e-06
1.347967e-06
1.15691e-06
1.702753e-08
2.1667e-08
2.38147e-07
-3.905379e-08
1.068165e-06
-2.622249e-07
-2.679403e-07
-2.019536e-07
-2.027697e-07
1.682567e-06
-5.036784e-10
-3.646373e-08
-5.064542e-08
6.196123e-08
1.625432e-07
-3.074073e-07
-2.464366e-07
2.212858e-07
-2.195479e-07
-3.473187e-07
-3.216776e-08
-1.106531e-08
2.802595e-08
-9.698097e-08
1.093289e-06
-1.425143e-06
-1.096886e-06
2.432654e-07
-3.190767e-07
9.175308e-08
6.267695e-07
5.176211e-07
6.56751e-07
-6.384604e-07
-1.218706e-06
2.806962e-07
-9.083153e-10
-1.452355e-07
-1.313824e-07
-1.966047e-07
3.559286e-06
-1.115325e-06
-7.437405e-07
9.487263e-09
3.762139e-07
8.146611e-07
-2.345342e-06
1.580653e-08
4.042857e-08
-2.700762e-08
-7.85409e-07
-1.059809e-07
1.93636e-09
-4.235572e-07
-8.33035e-07
1.233331e-06
-2.326194e-06
-3.96278e-09
-5.146989e-08
-1.022909e-07
-1.489028e-07
-1.691525e-07
-1.649465e-07
-1.326636e-07
-7.759264e-08
-1.098529e-07
-1.237229e-07
-4.17914e-08
-6.446805e-07
-6.949715e-07
-6.544767e-07
-2.320901e-07
-1.024227e-08
-1.57438e-08
-4.306025e-09
-2.142051e-08
-4.4101e-08
-2.621671e-08
-1.249686e-08
-5.086581e-08
-2.278661e-08
1.83624e-07
1.498875e-09
1.849702e-09
-2.548045e-08
8.980428e-08
9.962115e-08
-8.240396e-08
2.858201e-07
8.905652e-09
-2.606275e-07
-1.887181e-08
-1.585908e-06
6.103568e-08
-2.908419e-07
-8.593153e-07
-2.407145e-07
7.251751e-09
6.986349e-09
-4.14805e-07
-5.182368e-07
-4.574413e-07
-4.110962e-07
-5.739638e-07
-4.999314e-07
-4.390073e-07
-3.603832e-07
-4.484045e-07
-6.194325e-07
-4.650087e-07
-4.523065e-07
-5.577299e-07
-6.861746e-07
-6.407882e-07
-5.48004e-07
-1.031226e-06
-1.151262e-06
5.971163e-07
-9.428356e-09
-2.981832e-08
1.515915e-08
3.717422e-09
1.019615e-07
-7.090918e-07
-5.115817e-07
-4.900579e-07
-4.410642e-07
2.267244e-08
6.738757e-09
1.004898e-08
2.878344e-07
-1.480664e-07
-4.716297e-07
-1.921684e-07
-1.134325e-07
7.458161e-07
-2.564633e-07
7.277018e-08
5.508848e-08
4.53525e-07
3.371456e-07
5.70404e-07
1.488257e-07
-2.504628e-09
-2.264996e-08
-1.162826e-08
-5.799522e-08
-3.558909e-08
-3.475524e-07
-2.583531e-07
1.107012e-07
-5.922466e-07
-7.122163e-08
-4.914601e-07
-1.587482e-07
-1.779973e-07
-4.095651e-07
-3.553805e-07
-2.616629e-07
3.645602e-07
-6.518968e-09
9.035083e-09
3.223332e-08
5.720278e-07
3.493872e-07
-3.762663e-07
1.050527e-08
-1.504985e-07
-7.993492e-08
-3.090037e-08
-2.226881e-08
-2.326144e-07
-2.447344e-08
-1.19921e-06
-2.530613e-07
-2.859632e-07
-6.127113e-07
-6.580177e-08
3.549427e-08
-1.788259e-06
-1.229837e-06
1.534066e-06
2.334134e-09
2.749978e-07
4.191248e-07
-1.253628e-07
-8.383614e-08
-1.46593e-07
-1.259963e-07
-1.326541e-07
-1.828388e-08
-2.236766e-07
-4.836792e-07
-7.944693e-07
-2.626591e-07
5.600836e-07
2.959641e-07
-7.839918e-07
-5.855475e-07
-7.553497e-07
-7.024601e-07
-1.012623e-06
-1.008836e-06
-1.701658e-06
-1.189161e-07
-2.088278e-07
-2.334494e-07
-2.524926e-07
-2.384049e-07
-3.545998e-07
-3.108633e-07
-2.520181e-07
1.984821e-07
-8.343382e-07
-1.156275e-07
-2.71291e-07
-2.659331e-06
-3.676552e-08
-3.504599e-07
-6.852958e-08
-1.675133e-07
-3.664531e-09
3.82859e-09
-5.577799e-07
-6.248227e-07
-5.794507e-07
-9.991771e-09
2.167055e-08
-6.90401e-08
-2.251652e-07
2.066192e-07
-4.031228e-08
-1.085835e-08
4.896834e-09
1.040968e-06
2.379326e-07
1.159608e-07
-1.904665e-07
-1.445037e-07
-8.379664e-08
5.130508e-08
-9.580844e-08
-3.364961e-07
-3.081921e-07
-1.251176e-07
-1.067867e-07
-2.50558e-06
-4.155072e-07
-5.656296e-07
2.242111e-07
2.651644e-07
6.219933e-07
3.384922e-08
-2.428659e-06
7.647611e-07
-2.522536e-08
-5.209696e-07
-5.899683e-07
-4.632524e-07
-3.243607e-07
-4.161002e-07
-1.129253e-08
-1.251755e-06
-1.638176e-06
-6.173834e-07
8.179418e-07
6.65211e-07
-1.908462e-06
-1.781961e-06
-8.345731e-08
-4.74527e-10
-7.962265e-08
-7.747644e-08
-4.532836e-08
5.026452e-08
-3.578303e-07
-9.306715e-07
5.291029e-09
-1.90111e-08
-2.370618e-08
6.221619e-08
8.711418e-09
-1.64216e-07
-1.145564e-07
2.51484e-07
3.111033e-07
-2.693788e-07
-5.872014e-09
-1.751103e-07
-1.81419e-07
-2.627995e-07
-1.175792e-06
5.773318e-08
6.266456e-09
-1.08029e-07
-8.437737e-08
8.193902e-09
6.137246e-08
1.132384e-07
-8.531656e-07
-1.532277e-06
-5.296869e-08
-1.224164e-06
-3.142355e-09
1.540357e-09
-3.886029e-08
-6.679385e-07
-3.525154e-08
-4.91527e-08
-6.046721e-08
-3.319736e-07
-1.087109e-07
-1.773997e-08
-1.056149e-07
-2.04762e-07
-8.422954e-07
-8.37082e-08
-5.597815e-08
-2.901895e-08
-2.809585e-06
-3.310295e-07
-3.556035e-07
-3.298445e-07
-3.878933e-07
-1.718245e-07
-1.693399e-07
-2.082886e-06
-1.218435e-06
-1.533489e-06
-1.187879e-06
-1.57898e-08
-6.15644e-09
-1.285966e-06
4.129474e-09
3.891692e-08
-2.337899e-07
-2.309695e-07
-1.531954e-08
4.177346e-08
5.681444e-08
4.679574e-08
5.501581e-07
-1.257877e-07
-1.218863e-08
1.456037e-09
-6.166375e-10
-7.29535e-07
-1.898527e-07
-1.642111e-07
-8.020162e-07
-1.566565e-06
-1.576287e-06
-2.109412e-06
-6.314946e-07
7.407894e-09
-1.588878e-08
3.002528e-08
-1.660645e-08
-1.412637e-07
3.408764e-07
-5.695686e-07
5.360698e-09
-2.204729e-08
-9.919815e-07
-1.121081e-06
-3.852432e-07
-3.569079e-07
-7.424692e-07
-5.407187e-07
-4.949527e-07
-4.999067e-07
-4.778372e-07
-6.077508e-07
-6.591585e-07
-4.527234e-07
-5.059261e-07
-5.086444e-07
-4.906606e-07
-4.746322e-07
-4.790101e-07
-4.911713e-07
-3.82142e-07
-5.205493e-07
-5.238401e-07
-5.353212e-07
-5.931246e-07
-6.165956e-07
-7.574297e-07
-4.147673e-07
-4.506724e-07
-5.014129e-07
-5.257017e-07
-5.564405e-07
-4.763706e-07
-3.909284e-07
-5.655464e-07
-6.009432e-07
-4.922661e-07
-4.922691e-07
-6.184231e-08
-1.609479e-07
2.783632e-08
-5.722891e-08
-5.059265e-08
-6.993914e-07
-1.697863e-08
8.339139e-09
-1.457726e-07
2.603974e-07
1.188741e-07
2.010124e-06
1.823162e-06
-3.093661e-07
-1.121003e-06
-1.14416e-06
-2.674084e-07
5.843844e-08
-8.400639e-07
-1.519711e-06
2.512204e-08
-7.945173e-08
-2.388937e-06
-1.897086e-06
-2.942987e-08
-3.514268e-07
-6.137346e-07
1.964652e-08
-1.113065e-07
1.599986e-06
5.56808e-09
-6.390833e-07
-6.162291e-07
-2.168315e-08
-2.790143e-07
-1.786125e-07
1.363055e-08
-7.700525e-09
-7.167494e-07
2.318272e-08
-5.378618e-09
4.176493e-09
-4.937395e-08
-1.635161e-06
-1.683784e-06
9.943581e-07
1.332992e-06
-1.707567e-06
-1.791429e-06
-1.440968e-06
-9.474108e-07
3.358642e-09
-6.168898e-09
-1.691737e-07
-1.287844e-06
-1.934709e-07
-7.423064e-07
-1.020095e-06
-2.182046e-07
-3.955452e-07
-3.111443e-07
-9.216949e-07
2.981294e-08
2.438501e-07
-1.010841e-06
4.328017e-07
6.543254e-07
-7.833996e-09
-3.768341e-07
-5.174062e-07
-2.870566e-09
1.071572e-07
8.636463e-09
1.234847e-06
8.516747e-07
6.977985e-08
1.232688e-08
-4.147599e-07
-1.057277e-06
-8.83052e-07
-3.386372e-09
-9.685168e-08
-9.166488e-08
-1.280691e-07
1.577842e-07
-1.242496e-07
-4.574498e-08
-1.288451e-06
2.553828e-10
-4.486091e-07
-5.352554e-07
-5.071628e-07
-4.475382e-07
-5.042723e-07
-4.391879e-07
6.440969e-08
-4.209625e-07
-5.453326e-08
5.209534e-11
-2.81459e-08
-1.160668e-07
-3.715697e-08
-7.593483e-07
-6.351328e-07
-4.254263e-08
-4.14725e-07
-2.86837e-07
3.188282e-07
-1.310928e-06
1.270499e-07
2.132984e-07
-1.326531e-07
-2.258854e-07
-2.791305e-07
6.121979e-07
4.395197e-08
-4.891678e-07
1.693687e-06
-7.531141e-07
-1.033982e-06
3.727022e-08
-5.767945e-07
-1.107912e-07
-7.972045e-07
-5.796249e-07
2.997394e-08
-1.233381e-06
-9.648051e-09
-7.673578e-09
-2.579512e-08
1.293463e-08
2.397729e-07
2.705242e-07
9.343535e-08
-7.223999e-07
-7.780287e-07
9.687946e-07
-4.125489e-08
3.184746e-08
-5.52197e-07
2.364135e-07
-5.595761e-08
3.128554e-08
1.09605e-07
-7.822216e-07
-1.102239e-08
2.674314e-08
1.057864e-07
-5.519704e-07
-2.49922e-07
-7.244992e-07
-5.376116e-08
-3.978239e-08
2.423476e-07
-1.487015e-06
-1.767928e-06
-1.0768e-06
-5.099518e-07
-1.621879e-09
-5.504349e-07
-3.875055e-07
-3.982504e-07
-4.527331e-07
-2.684766e-07
-2.302589e-06
-2.4001e-06
-2.221931e-07
1.38612e-07
-1.829209e-06
-1.540187e-06
-2.095591e-06
-2.841617e-06
-4.291916e-08
-1.751287e-06
-8.55425e-08
-1.076594e-07
-8.106215e-08
-9.0487e-08
-7.438196e-08
-1.173569e-07
-9.078619e-08
1.113778e-06
-5.897955e-07
-3.625798e-07
-3.792636e-07
-3.244213e-07
-3.792785e-07
-5.918878e-08
-9.859689e-08
1.084481e-08
-1.267914e-07
-1.109939e-07
5.405153e-07
-3.404447e-07
-2.029403e-07
-5.20237e-08
-9.297623e-07
-2.63592e-07
-3.40417e-07
-1.883213e-07
-3.112483e-07
-2.667059e-07
1.024477e-06
-2.134156e-08
2.386355e-08
5.570789e-07
1.580759e-07
1.285606e-07
-3.190148e-06
-9.284888e-07
4.438714e-07
1.777663e-07
1.486863e-07
3.863395e-08
-1.363613e-06
-1.006757e-07
-2.830472e-08
-9.82568e-08
-3.361599e-08
-4.275594e-08
-7.076839e-07
-6.928001e-07
-5.729212e-09
1.049645e-06
7.642171e-07
-1.563441e-07
-1.313145e-06
8.37843e-09
-1.949881e-07
-8.928105e-09
7.147086e-09
-1.188705e-06
2.710833e-08
-2.20143e-06
4.970126e-07
-2.623098e-06
-2.42783e-06
-3.190928e-07
-3.353276e-07
-1.256706e-06
2.407715e-08
6.606341e-08
-1.01464e-06
-1.330867e-06
-8.155617e-07
-2.383855e-07
8.396498e-08
-8.171519e-08
-4.739126e-09
-1.510506e-06
4.471321e-09
-1.276223e-06
-2.475698e-07
-3.215379e-07
-1.147288e-06
-1.164449e-06
1.848564e-07
7.560546e-08
-3.655496e-08
-5.252486e-08
-4.347002e-08
-2.797912e-08
-1.645966e-06
1.06427e-07
-3.196277e-07
-6.35928e-07
7.373338e-09
2.300585e-07
2.454734e-07
-1.410601e-07
-2.129722e-06
-7.791345e-07
-2.560761e-07
-2.432201e-07
3.788238e-08
2.870521e-08
1.838614e-08
-3.601248e-07
-7.969834e-08
2.520014e-07
9.2273e-07
-1.866685e-07
-4.145946e-07
-1.013066e-06
-1.342804e-07
-3.878063e-08
-4.490023e-07
-6.012156e-09
-5.05346e-08
-4.388575e-09
1.191356e-08
9.161339e-09
-8.888728e-07
-6.247623e-07
3.074555e-08
-7.70235e-07
-7.733527e-07
1.176993e-07
-1.050271e-06
-6.586747e-07
-3.020872e-07
6.839049e-07
-1.216387e-07
-1.181713e-07
-2.756142e-07
-1.725076e-07
-4.780419e-07
2.010203e-07
-1.830482e-07
-1.923827e-07
-9.19352e-07
-8.43333e-08
-5.80303e-08
-1.731782e-07
-1.486572e-07
2.579921e-07
1.284974e-07
-6.901365e-07
-9.735219e-07
1.183319e-08
-1.756774e-06
-1.622675e-06
-2.652708e-06
-3.146927e-06
-5.67292e-07
-2.606624e-08
-1.4457e-07
-1.699554e-07
2.303713e-08
-1.022449e-07
1.608625e-06
-5.520204e-08
-4.17277e-08
-4.709374e-08
-6.431618e-08
-5.651133e-08
-4.18518e-07
3.417152e-07
7.276807e-08
-5.29035e-07
-2.969166e-07
-3.215546e-07
-2.564786e-07
-1.777477e-07
-2.322245e-07
3.099236e-07
3.162311e-07
-1.341471e-07
-4.2255e-07
4.288422e-07
-8.763582e-07
-1.136064e-06
-9.000161e-07
-1.180137e-07
-2.115203e-06
-2.452883e-07
-1.764291e-07
-2.894641e-07
-3.840679e-07
4.262894e-08
6.334284e-09
-1.254309e-07
-1.730569e-07
3.224565e-09
1.88458e-09
-1.010112e-07
-2.702157e-09
-4.96084e-08
1.48564e-07
1.826646e-07
-6.389005e-07
-7.196963e-08
-3.705488e-08
-1.296414e-07
1.384275e-07
-1.083243e-06
-1.084526e-06
-1.13269e-06
-8.274745e-07
-1.17952e-06
-1.171467e-06
-1.163353e-06
-1.173914e-06
6.328233e-09
-1.086727e-07
-6.874258e-07
-1.000216e-06
-7.797436e-07
-6.840192e-07
-2.157941e-09
-8.257933e-08
-1.486915e-07
-1.20198e-07
-9.653785e-08
-1.402156e-07
-1.046922e-07
-1.281606e-07
-1.89092e-07
-1.22325e-07
7.203395e-09
-3.059649e-09
-1.336423e-10
1.185251e-06
1.53311e-07
-4.093965e-07
-4.556029e-07
-7.170156e-07
-9.877674e-07
-2.211946e-07
-2.041306e-07
-4.285578e-07
-7.54975e-08
-1.255261e-07
-2.258558e-07
1.301779e-08
2.784965e-08
2.999696e-09
-1.399548e-08
6.345127e-08
5.597373e-07
-6.327539e-09
-7.537604e-08
-8.145084e-08
2.245697e-07
2.703201e-07
-1.3415e-07
-9.016159e-08
-4.390735e-09
2.746439e-07
-2.372585e-08
-6.138223e-08
2.748637e-07
-7.543158e-07
-7.543543e-07
-2.760875e-07
-2.361471e-07
-1.832028e-07
-1.128067e-06
-4.58656e-07
1.413737e-07
1.622994e-06
-1.027405e-07
-7.373238e-08
-1.068914e-07
-1.273991e-06
-2.243595e-08
-4.674905e-08
3.086836e-07
-1.149487e-06
4.509401e-09
-1.889431e-07
-3.17004e-07
-1.751326e-08
-6.108134e-07
1.120745e-08
2.124734e-08
-2.490598e-07
-6.216664e-07
-1.104774e-07
-8.607347e-08
-1.123311e-06
1.140323e-07
-1.262384e-07
-1.633067e-07
6.557223e-07
7.455292e-09
5.454971e-09
-1.423423e-07
-3.532598e-08
-5.199983e-08
-6.178045e-08
8.124915e-08
-1.099571e-07
-6.366494e-07
-3.364502e-07
3.384825e-07
-4.969839e-08
-1.734497e-08
-2.939272e-08
-1.038971e-08
-2.752364e-09
5.069152e-08
3.251466e-08