/*--------------------------------*- C++ -*----------------------------------*\
| =========                 |                                                 |
| \\      /  F ield         | OpenFOAM: The Open Source CFD Toolbox           |
|  \\    /   O peration     | Version:  2406                                  |
|   \\  /    A nd           | Website:  www.openfoam.com                      |
|    \\/     M anipulation  |                                                 |
\*---------------------------------------------------------------------------*/
FoamFile
{
    version     2.0;
    format      ascii;
    arch        "LSB;label=32;scalar=64";
    class       surfaceScalarField;
    location    "0.32";
    object      phi;
}
// * * * * * * * * * * * * * * * * * * * * * * * * * * * * * * * * * * * * * //

dimensions      [0 3 -1 0 0 0 0];

oriented        oriented;

internalField   nonuniform List<scalar> 
6770
(
6.329547e-11
-1.763914e-09
1.700619e-09
-1.466747e-09
3.373915e-10
1.129356e-09
-1.473322e-09
1.369778e-09
1.035442e-10
1.686769e-09
-1.013759e-09
-6.730097e-10
7.623084e-09
-6.881775e-09
-7.413099e-10
6.216735e-10
8.553908e-10
-1.477064e-09
-1.121198e-09
1.614902e-09
-4.937035e-10
-1.267538e-09
1.221402e-09
4.613586e-11
-8.818026e-10
-8.215933e-10
1.703396e-09
-1.180232e-09
1.226127e-09
-4.589539e-11
2.295678e-10
-1.281283e-09
1.051715e-09
7.394307e-10
-1.671806e-09
9.323754e-10
1.361457e-09
-1.400512e-09
3.905419e-11
1.108042e-09
-1.645805e-09
5.377634e-10
-2.295443e-10
1.831486e-09
1.82298e-09
-4.901715e-09
3.078735e-09
4.483385e-10
1.357562e-09
-1.8059e-09
-2.321491e-09
5.614987e-10
1.759992e-09
-1.299245e-09
9.791669e-10
3.200783e-10
-6.461902e-10
-1.164057e-09
1.810248e-09
-8.004203e-10
-1.051721e-09
1.852142e-09
5.516976e-10
-1.507961e-09
9.562638e-10
8.901111e-10
-1.7996e-09
9.094892e-10
1.515006e-09
-1.117068e-09
-3.979377e-10
-1.197321e-09
8.989588e-10
2.983619e-10
-1.313771e-09
-3.162018e-10
1.629973e-09
1.210771e-09
4.058095e-10
-1.616581e-09
7.765209e-10
9.603788e-10
-1.7369e-09
-1.574508e-09
8.254609e-10
1.567206e-10
-1.05132e-09
8.945999e-10
3.377685e-10
-1.391717e-09
1.053949e-09
1.886838e-09
-1.551069e-09
-3.357694e-10
1.488971e-09
-2.754382e-10
-1.213532e-09
-1.988437e-10
1.701018e-09
-1.502174e-09
-2.089647e-09
2.004086e-09
8.556162e-11
-6.577316e-09
5.023157e-09
1.554158e-09
8.282361e-10
-1.710436e-09
8.822004e-10
-2.039614e-09
1.40401e-09
6.356043e-10
-1.006059e-09
2.169005e-09
-1.162946e-09
3.095647e-09
-2.676423e-09
-4.192233e-10
1.592031e-09
-1.501897e-09
-9.013428e-11
1.736814e-09
-7.532304e-10
-9.83584e-10
-1.96976e-09
1.632978e-09
3.367826e-10
-1.590529e-09
1.007668e-09
5.828611e-10
-1.271619e-09
8.623332e-10
4.092862e-10
-1.974324e-09
1.635137e-09
3.391876e-10
-1.219491e-09
8.227944e-10
3.966969e-10
-7.902059e-10
-8.249177e-10
1.615124e-09
-5.561873e-10
-1.435675e-09
1.991862e-09
-1.583282e-09
-5.503642e-10
2.133646e-09
5.693702e-10
9.392007e-10
-1.508571e-09
-1.188443e-09
3.388446e-10
8.495987e-10
-5.893515e-09
2.539312e-10
5.639584e-09
-1.181368e-09
-4.348071e-10
1.616176e-09
1.607905e-09
7.770765e-10
-2.384981e-09
-1.509978e-09
1.019954e-09
4.900235e-10
1.474721e-09
-2.747943e-10
-1.199927e-09
-1.569459e-09
1.15919e-09
4.102691e-10
3.697871e-10
1.430251e-09
-1.800039e-09
-4.996651e-10
-2.365624e-09
2.865289e-09
-1.505557e-09
1.43962e-09
6.593725e-11
-1.171362e-09
2.986649e-10
8.726968e-10
3.873046e-10
1.295198e-09
-1.682503e-09
-3.435307e-10
-1.438176e-09
1.781707e-09
-1.658834e-09
1.847999e-09
-1.709442e-09
1.004053e-09
7.05389e-10
1.663538e-11
-1.741421e-09
1.724785e-09
1.029007e-09
-1.75421e-09
7.252023e-10
-3.961101e-11
-1.454083e-09
1.493694e-09
-1.486978e-09
9.390891e-10
5.478887e-10
-6.280244e-10
-1.008896e-09
1.636921e-09
2.187433e-09
-9.507527e-10
-1.23668e-09
1.190779e-09
6.163993e-10
-1.807178e-09
-9.115881e-10
-8.307587e-10
1.742347e-09
-3.814385e-10
1.894487e-09
-1.513049e-09
5.155096e-10
1.869171e-09
-2.38468e-09
-1.075536e-09
1.568405e-09
-4.928698e-10
-1.697667e-09
3.822194e-10
1.315448e-09
1.859541e-09
-4.416119e-10
-1.417929e-09
-1.854831e-10
3.390556e-09
-3.205072e-09
-4.728599e-09
8.26116e-09
-3.532561e-09
-1.259711e-09
-3.188672e-09
4.448383e-09
-2.074712e-09
1.42985e-09
6.448621e-10
-5.834968e-10
1.796545e-09
-1.213048e-09
-1.698877e-09
1.500033e-09
-1.078037e-09
-7.143696e-10
1.792406e-09
7.130217e-10
1.288381e-09
-2.001403e-09
-1.412996e-09
5.86724e-10
8.262722e-10
-1.528793e-10
-1.211624e-09
1.364503e-09
-1.712305e-09
3.686056e-10
1.343699e-09
-9.41569e-10
-1.126159e-09
2.067728e-09
7.265185e-10
-1.626362e-09
8.998434e-10
-1.201525e-09
-4.550247e-10
1.656549e-09
1.519281e-09
-3.252719e-10
-1.194009e-09
9.758223e-10
5.770673e-10
-1.55289e-09
1.18808e-09
-3.534303e-10
-8.346499e-10
8.056433e-10
-1.667273e-09
8.616298e-10
-1.284814e-09
1.168993e-09
1.158211e-10
6.565046e-10
-1.524981e-09
9.653643e-10
8.272105e-10
-1.792575e-09
-6.338268e-10
1.526091e-09
-8.922643e-10
-1.015186e-09
1.723529e-09
-7.083424e-10
1.65024e-09
-4.017929e-10
-1.248447e-09
-1.792513e-09
1.092162e-09
7.003505e-10
1.550401e-09
-1.241304e-09
-3.090968e-10
1.196968e-09
-1.030869e-09
-1.660992e-10
-1.339749e-09
1.212508e-09
1.272406e-10
2.091515e-09
-1.530437e-09
-5.610778e-10
9.793183e-10
-1.406188e-09
4.268698e-10
6.181742e-09
-9.5671e-10
-5.225032e-09
1.750717e-09
-4.324979e-10
-1.318219e-09
1.5888e-09
-5.029478e-10
-1.085852e-09
-8.944121e-10
1.456234e-09
-5.61822e-10
1.667466e-09
-1.256964e-09
-4.105022e-10
1.003181e-09
9.644054e-10
-1.967587e-09
1.044705e-09
6.92109e-10
-2.095878e-10
-4.485004e-09
4.694591e-09
-3.219278e-11
-1.367576e-09
1.399769e-09
-1.528114e-09
4.937573e-10
1.034357e-09
-1.299237e-09
1.086531e-09
2.127061e-10
9.514114e-10
1.67445e-09
-2.625862e-09
-6.977197e-10
1.723704e-09
-1.025984e-09
-1.5443e-09
1.681855e-09
-1.375545e-10
1.821162e-09
-1.250916e-09
-5.702462e-10
7.986694e-10
1.061043e-09
-1.859712e-09
-3.82389e-10
1.706389e-09
-1.324e-09
5.852744e-10
-1.915813e-09
1.330539e-09
-1.262273e-09
1.634939e-09
-3.726664e-10
1.952554e-09
-9.767315e-10
-1.965212e-09
1.448026e-09
5.171863e-10
1.026014e-09
8.57373e-10
-1.883387e-09
-7.928854e-10
-5.157071e-10
1.308592e-09
1.547084e-09
-3.501155e-10
-5.519729e-10
-8.205797e-10
1.372553e-09
1.562173e-09
-4.443171e-10
-1.117856e-09
2.035278e-09
-1.007364e-09
-1.027914e-09
1.231032e-09
4.819391e-10
-1.712971e-09
-1.663258e-09
1.41761e-09
2.456475e-10
4.470511e-09
8.829189e-10
-5.353429e-09
1.530097e-09
-1.445975e-09
-8.412244e-11
-1.607094e-09
9.488985e-10
6.581951e-10
1.170204e-09
-4.948121e-09
3.777918e-09
-1.552224e-09
3.102754e-10
1.241948e-09
1.192538e-09
7.787348e-10
9.268369e-10
6.806084e-10
-1.607445e-09
1.705121e-09
-1.425176e-09
-2.799451e-10
7.201238e-10
-1.359715e-09
6.395912e-10
5.712043e-10
-1.370764e-09
7.995597e-10
1.847004e-09
-1.480613e-09
-3.663919e-10
-7.707212e-09
1.813697e-09
2.19736e-10
1.075327e-09
-1.295063e-09
-1.155531e-09
7.320375e-10
4.234937e-10
6.104681e-10
9.658489e-10
-1.576317e-09
7.397038e-10
8.822804e-10
-1.621984e-09
1.54433e-09
-9.669523e-10
-5.773779e-10
-4.637601e-11
2.639707e-09
-2.59333e-09
-1.697199e-09
9.089533e-10
7.882459e-10
-9.290347e-10
1.910172e-09
-9.811378e-10
1.506436e-09
4.261374e-10
-1.932574e-09
-1.579912e-09
-2.814769e-10
1.861389e-09
1.146786e-09
-1.777249e-09
6.304626e-10
-1.933458e-09
2.448968e-09
1.233968e-09
-1.011369e-09
-2.225989e-10
4.452763e-10
-1.531009e-09
1.085733e-09
-2.442876e-10
1.529086e-09
-1.284799e-09
-1.749437e-09
2.394595e-10
-1.556533e-09
2.704636e-10
1.28607e-09
3.677547e-10
-1.745285e-09
1.37753e-09
-1.709287e-09
6.840943e-10
1.025192e-09
-6.066551e-10
2.437623e-09
-1.830967e-09
-1.961612e-09
1.161191e-09
1.419293e-09
-2.758976e-11
-1.391704e-09
8.196106e-10
7.7979e-10
-1.599401e-09
2.845304e-10
-1.628841e-09
1.34431e-09
-8.049238e-10
1.821596e-09
-1.016672e-09
-5.181543e-10
2.024591e-09
1.206024e-09
-1.581217e-09
3.751927e-10
9.29259e-11
-1.637226e-09
-9.013368e-12
1.302747e-09
-1.293734e-09
-1.47536e-09
6.773169e-10
7.980432e-10
1.363811e-09
-1.590346e-09
2.265357e-10
1.706947e-10
-1.634084e-09
1.463389e-09
-9.353645e-10
1.655488e-09
2.818674e-09
-1.37633e-09
7.114179e-10
6.649122e-10
2.129962e-10
8.250395e-10
-1.038036e-09
1.092791e-09
-1.510563e-09
4.177718e-10
3.866492e-10
1.287721e-09
-1.67437e-09
-1.241784e-09
1.902266e-09
-6.604813e-10
1.000414e-09
-1.188616e-09
1.882019e-10
1.507938e-09
-5.650754e-10
-9.428628e-10
1.138004e-09
5.427696e-10
-1.680774e-09
-1.677624e-09
1.138236e-09
5.393876e-10
3.561138e-10
-1.331067e-09
9.749528e-10
-1.652589e-09
1.013037e-09
6.395514e-10
-2.667314e-10
-1.208629e-09
-1.791019e-09
1.307171e-09
4.838471e-10
-7.840841e-10
1.749448e-09
-1.734695e-09
1.12804e-09
1.073887e-09
7.114272e-10
-1.785314e-09
6.425945e-10
-2.033532e-09
1.390937e-09
-7.967247e-10
-1.077976e-09
1.874701e-09
-1.627244e-09
5.019971e-10
1.125247e-09
1.751343e-10
-1.181535e-09
1.0064e-09
1.015858e-09
1.534418e-10
-1.1693e-09
-1.862105e-10
1.553495e-09
-1.367284e-09
1.614494e-09
-1.362468e-09
-2.520257e-10
2.037319e-09
-9.680393e-10
-1.06928e-09
3.209784e-10
1.371824e-09
-1.692802e-09
8.812604e-10
8.84229e-10
-1.765489e-09
-1.117387e-09
-5.535186e-10
1.670906e-09
5.080074e-10
-1.309448e-09
8.014406e-10
1.764681e-09
-7.245888e-10
-1.040092e-09
9.759012e-10
4.904904e-10
-1.466392e-09
2.163389e-10
9.584291e-10
-1.174768e-09
1.377797e-09
6.595224e-10
-4.795991e-10
-1.223862e-09
1.703461e-09
-1.291087e-09
-2.606251e-10
1.551713e-09
1.533735e-09
-5.023696e-10
-1.031365e-09
8.25081e-10
-1.959946e-09
1.134865e-09
-1.398468e-09
3.469353e-10
1.051532e-09
1.10654e-09
-1.669249e-09
5.627088e-10
-1.315504e-11
-1.862515e-09
1.87567e-09
3.128439e-09
-1.520535e-09
1.408818e-09
-1.162217e-09
-2.466009e-10
-1.582002e-09
9.776463e-10
6.043556e-10
-9.144005e-10
1.142267e-09
-2.278665e-10
1.608241e-10
-1.37135e-09
1.210526e-09
8.90887e-10
-1.799568e-09
9.086808e-10
-1.549444e-09
-5.334013e-10
2.082845e-09
-1.319735e-09
-1.47012e-10
-1.72572e-09
9.762475e-10
7.494725e-10
8.19749e-10
9.997513e-10
-1.8195e-09
1.449821e-09
-2.146652e-09
6.968304e-10
-1.061685e-09
1.602188e-09
-5.405033e-10
1.741269e-09
-5.102371e-10
-1.762161e-09
2.805358e-10
1.481625e-09
-1.070932e-09
1.971301e-09
-9.003696e-10
-7.978474e-10
-1.089242e-09
1.88709e-09
-1.247649e-09
2.21434e-09
-9.66691e-10
-1.7866e-09
1.992176e-09
-1.215656e-09
-1.203256e-09
1.746465e-09
-5.432091e-10
-1.221732e-09
3.569251e-10
8.648067e-10
1.823926e-09
-1.320247e-09
-5.036792e-10
2.065355e-09
-1.619626e-09
-4.457292e-10
1.741238e-09
-6.189981e-10
-1.12224e-09
-1.254163e-09
-3.86996e-10
1.641159e-09
1.163272e-09
3.704633e-10
1.529518e-09
2.351628e-10
1.579068e-09
-9.286107e-10
-6.504572e-10
8.501534e-10
-1.85256e-09
1.002406e-09
1.484866e-09
5.506255e-11
-1.539929e-09
-8.846527e-10
-5.715777e-10
1.45623e-09
1.425043e-09
-1.052388e-09
-3.726552e-10
-1.225567e-09
-4.90606e-10
1.716173e-09
1.983365e-10
-1.223131e-09
1.024794e-09
-1.663264e-09
1.695658e-09
-3.239426e-11
-1.087311e-09
-6.992889e-10
-9.457127e-10
-3.316877e-10
1.2774e-09
-1.964603e-09
8.550924e-10
1.10951e-09
1.87017e-09
-1.439293e-09
-4.308761e-10
1.048225e-09
9.435407e-10
-1.991766e-09
-1.65476e-09
3.740356e-10
1.280724e-09
1.771591e-09
-3.11109e-10
-1.460482e-09
6.677612e-10
1.26661e-09
-1.417255e-09
1.50645e-10
-1.437567e-09
-3.453755e-10
1.782943e-09
1.212139e-09
9.080154e-10
-2.120155e-09
-2.107612e-09
9.496162e-10
1.157995e-09
-8.064297e-10
1.599065e-09
-7.926353e-10
8.259917e-10
-1.131954e-09
3.059623e-10
-2.051885e-10
-1.487881e-09
1.69307e-09
-4.783904e-09
3.524194e-09
1.81411e-09
-5.147701e-09
3.333592e-09
-1.730372e-09
1.277375e-09
4.52997e-10
-1.745123e-09
1.488694e-09
2.564285e-10
1.395063e-09
-2.839499e-11
-1.366668e-09
-1.714538e-09
1.394352e-09
3.201859e-10
-2.987926e-09
-6.23044e-11
3.050231e-09
-5.058397e-10
1.925184e-09
-1.419344e-09
1.358296e-09
-2.368226e-09
1.009929e-09
6.289115e-13
1.386822e-09
-1.387451e-09
-1.357719e-09
-4.849403e-10
1.842659e-09
-1.538767e-09
1.792842e-09
-2.540753e-10
2.350365e-09
-1.247783e-09
-1.102582e-09
-1.616129e-09
4.520892e-10
1.164039e-09
-1.583487e-09
8.943876e-10
6.890999e-10
2.879722e-10
1.452926e-09
-1.740898e-09
-1.635503e-09
1.007479e-09
1.397012e-09
9.263931e-11
-1.489651e-09
1.565372e-09
-8.080052e-10
-7.57367e-10
-1.531238e-10
1.192758e-09
-1.039634e-09
-7.764626e-10
-1.02668e-09
1.803142e-09
-1.860895e-09
6.935575e-10
1.167338e-09
1.262637e-09
2.221709e-11
-1.284854e-09
1.07292e-09
1.249615e-09
-2.322534e-09
1.106582e-09
1.144989e-09
-1.363469e-09
2.184791e-10
2.648153e-09
-7.253531e-09
4.605378e-09
1.836822e-09
4.876422e-11
-1.885586e-09
-1.476459e-09
9.605636e-10
5.158955e-10
1.675994e-09
-8.161002e-10
-8.598938e-10
1.011011e-09
-1.201871e-09
1.908601e-10
-4.987263e-09
-2.719949e-09
-5.914716e-10
1.49349e-09
-9.02018e-10
1.732166e-09
-9.039298e-10
-1.818552e-09
-9.286187e-11
1.911414e-09
1.79603e-10
1.472295e-09
-1.651898e-09
1.068658e-09
-1.676153e-10
-9.010427e-10
-8.750679e-10
-5.280512e-10
1.403119e-09
-1.623105e-09
-1.342509e-09
2.965614e-09
-1.030699e-09
-9.207427e-10
1.951442e-09
9.981453e-10
-1.663275e-09
6.651293e-10
-1.351415e-12
-1.306368e-09
1.307719e-09
-5.247088e-10
-1.173025e-09
1.697733e-09
-6.763933e-10
1.79597e-09
-1.119577e-09
1.643072e-09
-2.649131e-09
1.598465e-09
-1.798623e-09
2.001587e-10
1.397452e-09
-2.14885e-09
7.513972e-10
7.829196e-10
2.53363e-10
-1.036283e-09
2.142575e-09
6.760985e-10
-3.571305e-10
-1.620444e-09
1.977574e-09
2.640822e-10
-1.784436e-09
1.520354e-09
-7.43922e-10
-8.491502e-10
1.593072e-09
1.594608e-09
-1.6268e-09
-3.103036e-10
1.476175e-09
-1.165871e-09
6.11283e-11
-1.514237e-09
1.453109e-09
-1.196788e-09
-5.004115e-10
-8.530474e-10
1.087879e-09
-2.348314e-10
1.544646e-09
-1.898112e-09
3.534657e-10
2.747877e-09
-2.736681e-09
-1.119607e-11
1.481997e-09
-1.120155e-09
-3.618411e-10
-1.510115e-09
1.123919e-09
3.86196e-10
1.717305e-09
-1.237948e-09
3.776967e-10
1.339609e-09
1.093935e-09
-1.547533e-09
4.535984e-10
9.924928e-10
-1.172733e-09
1.802406e-10
-7.062608e-10
8.312847e-10
9.322959e-10
-1.763581e-09
1.009685e-09
-1.18341e-09
1.737251e-10
-1.375906e-09
1.578568e-09
-2.02662e-10
1.452379e-09
-3.143745e-10
-1.861488e-09
8.043709e-10
1.057117e-09
1.936347e-09
-2.376072e-10
-1.69874e-09
-3.157992e-12
1.234265e-09
-1.231107e-09
-1.422292e-10
1.308255e-09
-1.166026e-09
-1.50412e-09
-7.167583e-11
1.575796e-09
-1.421963e-09
1.512226e-09
-9.026249e-11
-1.410554e-09
1.039158e-09
3.713956e-10
1.188705e-09
-1.009513e-09
-1.791928e-10
1.922539e-09
-1.593282e-09
-3.292568e-10
-1.390127e-09
1.898282e-10
1.200299e-09
1.836222e-09
-1.16592e-09
-6.703019e-10
-8.977318e-10
-1.95954e-09
2.618732e-10
-6.135733e-10
-1.067416e-09
1.680989e-09
-8.500757e-10
1.081246e-09
-2.311708e-10
1.633513e-09
-1.976946e-09
3.434327e-10
-1.228399e-09
2.137352e-09
1.742582e-09
-9.543361e-10
-1.234751e-09
-3.944648e-10
1.629216e-09
-3.435018e-10
-9.281176e-10
8.137332e-10
2.438706e-09
-3.25244e-09
-1.107452e-09
1.692727e-09
2.118283e-09
-1.51032e-09
-6.079623e-10
8.909585e-10
8.612852e-10
-1.752244e-09
1.775896e-09
-1.329516e-10
-1.642945e-09
-7.353843e-11
-1.337013e-09
1.410551e-09
-1.050011e-09
-5.717068e-10
1.621718e-09
9.324649e-11
1.623484e-09
-1.71673e-09
-1.468235e-09
1.815737e-09
-3.475021e-10
1.115869e-09
5.925865e-10
-1.708455e-09
-4.866649e-10
1.327224e-09
-8.405587e-10
-1.811122e-09
1.52805e-09
2.830718e-10
-1.222851e-09
1.286819e-09
-6.396816e-11
-4.595932e-10
-7.737101e-10
1.233303e-09
2.032059e-09
-1.28166e-09
-7.503989e-10
-5.073472e-10
-7.311612e-10
1.238508e-09
-2.159545e-11
1.10916e-09
-1.087564e-09
1.354668e-09
-1.441439e-09
8.677111e-11
1.442579e-09
2.422198e-10
-1.684799e-09
5.275316e-10
7.264778e-10
-1.254009e-09
-4.858392e-10
-8.529112e-10
1.33875e-09
-8.803636e-10
1.586145e-09
-7.057812e-10
1.33504e-09
-1.469594e-10
-6.987018e-10
2.091241e-09
-1.392539e-09
8.05491e-10
6.670695e-10
-1.47256e-09
1.867393e-09
-9.993071e-10
-8.680857e-10
-4.380838e-10
-1.218602e-09
1.656685e-09
-8.82223e-10
1.574973e-09
-6.927504e-10
2.394796e-09
-6.393143e-10
-1.755481e-09
1.881187e-09
-1.133195e-09
-7.479921e-10
1.433319e-09
3.507748e-10
-1.784093e-09
-3.081317e-09
-2.384355e-09
5.465672e-09
1.774989e-09
-5.207255e-09
3.432267e-09
-1.274733e-09
-4.874282e-10
1.646369e-09
1.025757e-09
-1.482234e-09
4.564762e-10
1.320472e-09
-1.334714e-09
1.424149e-11
-8.974553e-10
-1.067148e-09
1.661302e-09
-8.545211e-10
-1.71262e-09
2.443851e-10
-9.671867e-10
-4.704597e-10
1.437646e-09
9.036813e-10
1.452977e-09
-2.356658e-09
8.549242e-10
4.514595e-10
-1.306384e-09
1.794234e-09
-5.848302e-10
6.481251e-10
-5.704813e-10
1.513118e-09
-9.426371e-10
4.372089e-10
-1.699482e-09
5.635885e-11
1.482247e-09
-1.538606e-09
-1.016304e-10
1.470997e-09
-1.369367e-09
-6.564558e-09
1.789075e-09
4.775483e-09
-1.224241e-09
1.430373e-09
-2.061324e-10
-1.467715e-09
1.439576e-09
2.813866e-11
1.591596e-09
-5.739768e-10
-1.017619e-09
-1.827785e-09
1.434884e-09
3.929002e-10
7.077889e-10
-1.818753e-09
1.110964e-09
-1.370229e-09
-8.601597e-10
-6.268182e-10
4.194399e-10
-8.809657e-10
4.615258e-10
1.388728e-09
-1.669348e-10
-1.221793e-09
-1.580565e-09
1.403097e-09
1.514709e-09
2.048011e-10
-1.71951e-09
-7.346067e-11
-1.541282e-09
1.276631e-09
-1.625137e-09
3.485056e-10
-1.898019e-12
1.546228e-09
-1.635129e-09
-3.391951e-10
-1.791042e-09
-3.471847e-10
2.138227e-09
-1.29353e-09
-1.170243e-10
-9.886764e-10
-1.050938e-09
3.790189e-11
1.512431e-09
-1.550333e-09
1.286051e-09
-1.745644e-09
-1.632379e-09
-3.213823e-10
1.953761e-09
1.884129e-09
-9.17468e-10
-9.666609e-10
-3.324068e-10
-4.621631e-09
4.954037e-09
1.376886e-09
-1.185964e-09
-1.909218e-10
-4.963412e-10
-1.224967e-09
1.721309e-09
-1.5795e-09
1.732463e-09
-1.52963e-10
-8.972827e-10
-5.85102e-10
1.482385e-09
-1.656754e-09
2.002253e-10
1.456529e-09
1.453852e-09
-1.407495e-09
-4.635658e-11
6.575642e-10
-1.67275e-09
3.767591e-10
-1.827872e-09
1.451113e-09
1.609815e-09
1.475374e-10
-1.757353e-09
1.754457e-09
-7.260259e-11
8.279747e-10
-2.205478e-09
1.377504e-09
-1.305209e-09
1.358284e-09
-5.307447e-11
-7.735045e-10
1.654765e-09
1.177472e-09
4.727676e-10
1.477709e-09
-1.289513e-10
-1.348758e-09
-4.923731e-09
5.430156e-10
4.380715e-09
-1.076885e-09
1.653952e-09
1.99227e-10
-1.807855e-09
1.608628e-09
4.672003e-11
1.407132e-09
-1.10671e-09
-6.896693e-10
1.79638e-09
5.184049e-10
1.327096e-09
1.759156e-09
-1.307081e-09
-4.520757e-10
1.946691e-09
-8.714403e-10
-1.075251e-09
-2.126224e-09
-1.76986e-10
2.30321e-09
-1.016549e-09
-4.315539e-10
1.448103e-09
1.525519e-09
-1.708505e-10
-4.577455e-10
1.615766e-09
-1.158021e-09
7.872252e-10
9.557832e-10
-1.743008e-09
1.191762e-09
-1.724501e-09
5.327392e-10
1.127057e-09
4.313059e-10
-1.558363e-09
-1.40438e-09
8.903432e-10
5.140365e-10
1.15534e-09
1.402286e-09
-2.448878e-11
-1.726969e-09
6.851894e-10
1.04178e-09
6.767689e-10
-2.082579e-09
1.40581e-09
5.41499e-10
-1.59322e-09
5.389725e-10
8.497557e-10
3.277408e-10
-1.768014e-09
6.806165e-10
-2.798556e-09
2.117939e-09
-1.441114e-09
-1.148057e-09
-4.252564e-10
1.573313e-09
-8.308508e-11
1.444542e-09
2.242953e-10
1.404903e-09
-1.629198e-09
-1.292575e-09
-4.833697e-10
1.775944e-09
-2.662415e-11
1.275898e-09
-1.249273e-09
1.294929e-09
-8.257796e-10
-4.691496e-10
1.869017e-09
-1.751969e-09
-1.170479e-10
3.516832e-09
2.679972e-10
-3.784829e-09
-1.671435e-09
-2.93777e-10
-3.191713e-09
2.50187e-09
6.898429e-10
-1.617585e-09
2.150295e-10
1.402556e-09
1.343223e-09
-1.800969e-09
-1.266909e-09
1.024017e-10
-1.579287e-09
1.476886e-09
1.496622e-09
-1.628816e-09
1.321944e-10
1.492522e-09
-3.916862e-10
-1.100836e-09
1.339012e-09
-1.43111e-09
9.209817e-11
-1.250705e-09
-4.125591e-10
3.143939e-10
-1.360036e-09
1.045642e-09
5.604732e-10
-1.708189e-09
1.147715e-09
-2.610613e-10
1.528913e-09
-1.267852e-09
-8.020916e-11
1.286234e-09
1.454619e-09
-4.505664e-10
-1.048943e-09
1.17871e-09
-1.297668e-10
-1.288229e-09
1.008061e-09
2.80168e-10
-1.535788e-09
5.279233e-10
1.007865e-09
-1.011751e-09
1.185233e-09
-1.734821e-10
-1.08074e-09
-1.22516e-10
1.52652e-09
-4.337295e-10
-1.109711e-09
1.652481e-09
1.548425e-09
-3.764102e-10
-1.172015e-09
-9.572355e-10
-7.235384e-10
-2.60871e-10
1.178782e-09
-9.179113e-10
-1.021897e-09
-8.54536e-10
1.876433e-09
-1.193729e-09
1.021192e-09
1.725373e-10
-1.722122e-10
1.181898e-09
-1.542296e-09
8.311128e-10
7.111828e-10
1.576048e-09
-1.391695e-09
-1.84353e-10
3.987905e-10
1.042376e-09
-1.441167e-09
5.335778e-10
-1.939994e-09
1.406416e-09
-4.356513e-09
6.170623e-09
-8.097671e-10
1.902165e-09
-1.092398e-09
-3.149705e-09
1.216247e-09
-2.212648e-09
1.091897e-09
1.120751e-09
-8.539941e-10
3.461936e-09
-2.607942e-09
4.821104e-10
8.534296e-10
-1.33554e-09
1.788027e-09
-7.953955e-10
1.753612e-09
-9.58216e-10
1.844258e-09
-1.283785e-09
-1.306202e-09
-3.072406e-10
1.613443e-09
-1.576354e-09
2.043005e-09
-4.666509e-10
5.206594e-09
-3.830988e-10
-4.823496e-09
-1.839236e-09
2.068385e-11
2.01784e-09
-1.055595e-09
-1.993788e-09
1.238747e-09
-8.362477e-10
-7.757525e-10
1.612e-09
1.979564e-09
-1.860948e-09
-1.186162e-10
1.518862e-09
-5.954646e-10
-9.233971e-10
1.817401e-10
1.213322e-09
1.468584e-09
1.401623e-10
-1.608747e-09
1.060599e-09
4.10682e-10
-1.471281e-09
-9.099142e-10
-9.012074e-10
4.294926e-10
-1.602573e-09
1.17308e-09
-5.573108e-10
1.727639e-09
-1.170328e-09
-1.996195e-09
-2.96277e-09
4.958965e-09
-1.653941e-09
8.045435e-10
8.493973e-10
-1.57815e-09
8.046458e-10
-6.544836e-10
1.738368e-09
-1.083885e-09
-6.133597e-10
3.685185e-09
-3.071825e-09
-1.529719e-09
-5.212261e-10
2.050945e-09
1.974669e-09
2.206101e-09
-7.562796e-10
-8.352984e-10
1.633968e-09
-7.076734e-10
1.835463e-09
-1.127789e-09
9.359808e-10
3.844913e-10
1.27724e-09
3.607172e-10
-1.637957e-09
1.327555e-09
3.827423e-10
-1.710297e-09
-1.340107e-09
1.620643e-09
1.556233e-09
5.260547e-10
-2.082288e-09
7.938636e-10
-1.804285e-09
1.010422e-09
-1.830432e-09
1.26901e-09
5.614213e-10
-1.170874e-09
-1.315011e-09
2.485885e-09
1.772023e-09
-2.389787e-09
6.177648e-10
4.522065e-10
-1.779572e-09
1.327366e-09
2.184467e-09
-8.636639e-10
-1.320803e-09
-5.414076e-10
-1.369262e-09
1.91067e-09
-4.402698e-10
-9.602417e-10
-8.634769e-10
-7.538054e-10
-1.005103e-09
-1.043466e-10
1.109449e-09
-9.530436e-10
1.40525e-09
-1.15643e-09
-8.008395e-10
1.95727e-09
1.245864e-09
-4.675212e-10
-1.139742e-09
1.607263e-09
1.716483e-09
-2.831643e-10
-7.276683e-11
-9.437827e-10
-3.258245e-10
-1.250529e-09
2.062891e-10
-1.760496e-09
1.554207e-09
-1.048255e-09
-7.499637e-10
1.798218e-09
8.052502e-09
-8.052502e-09
-2.149516e-10
1.402806e-09
-1.187854e-09
-6.795631e-10
1.390647e-09
-7.110841e-10
3.04819e-10
-1.780884e-09
1.476065e-09
-1.041666e-09
-8.741475e-10
1.606019e-09
-5.703269e-10
-1.035693e-09
-1.188263e-09
-2.438238e-10
1.432087e-09
4.581427e-10
1.703531e-09
-1.294762e-09
-4.087689e-10
-1.032463e-09
1.595529e-09
-1.604269e-09
4.723799e-10
1.131889e-09
1.1476e-09
7.304354e-10
-1.878036e-09
-1.039574e-09
1.550322e-09
-5.107475e-10
-1.081685e-09
2.197554e-09
1.871975e-09
-1.445837e-09
-1.453584e-09
1.444571e-09
-4.01075e-10
-7.597254e-10
1.1608e-09
-6.989249e-09
1.695727e-09
5.293521e-09
9.640947e-10
5.992986e-10
-1.563393e-09
8.35053e-10
-1.256802e-09
4.217488e-10
-1.826134e-09
9.752072e-10
8.509273e-10
7.824578e-10
-1.382547e-09
6.000888e-10
-1.501959e-09
5.715446e-10
9.304147e-10
1.513722e-11
1.538371e-09
-1.553508e-09
-1.058643e-09
2.182148e-09
-1.123505e-09
4.687795e-10
9.546806e-10
5.169088e-11
-1.006371e-09
-4.157034e-10
1.333267e-09
-9.175639e-10
-9.433643e-10
1.362804e-09
-9.270414e-10
2.034692e-09
-1.107651e-09
8.067315e-09
-6.406821e-09
-1.660494e-09
-1.130696e-09
-1.015956e-09
-4.679305e-10
-1.621172e-09
2.089102e-09
-7.540422e-10
-8.723197e-10
-1.372491e-09
9.825483e-11
1.274236e-09
1.815845e-09
-1.207125e-09
-6.087203e-10
1.336869e-09
-1.417593e-09
8.072431e-11
1.503474e-09
-1.275202e-09
1.706769e-09
-4.31567e-10
7.901528e-10
-1.543383e-09
3.10608e-10
1.232775e-09
-1.756061e-09
9.578202e-10
7.982411e-10
1.385648e-09
-5.10858e-09
4.922212e-09
1.863681e-10
-1.449324e-09
1.81344e-09
-1.511269e-09
-3.021713e-10
6.773366e-10
1.059204e-09
-1.73654e-09
1.404807e-09
-1.49947e-09
9.466274e-11
-1.644711e-09
8.055203e-10
8.391903e-10
1.492759e-09
-3.390744e-10
-1.153684e-09
-1.637884e-10
-1.119769e-09
1.283558e-09
-3.074436e-09
6.934136e-09
-3.8597e-09
2.241811e-09
2.1494e-09
-4.391211e-09
-2.046706e-09
8.758317e-10
1.021202e-09
9.416205e-10
-1.962823e-09
-1.511126e-09
1.200822e-09
-1.855476e-09
5.724854e-10
1.28299e-09
1.797874e-09
-7.773458e-10
-1.020529e-09
-1.040214e-09
1.077654e-09
-3.74398e-11
-1.706302e-09
2.577406e-10
-1.08569e-09
1.378439e-09
-2.927489e-10
1.798276e-09
-7.824183e-10
1.461028e-09
2.554551e-10
-1.643581e-09
-3.862609e-10
2.029842e-09
6.136532e-10
-1.59088e-09
9.772265e-10
9.93727e-10
9.903953e-10
-1.984122e-09
-1.678677e-09
3.923272e-11
1.639444e-09
7.560838e-10
-2.312137e-09
1.556053e-09
7.915112e-10
7.164269e-10
1.302753e-09
-3.431056e-10
-9.596477e-10
1.982718e-09
-1.692782e-10
-3.240643e-10
1.374115e-09
-1.050051e-09
-1.695669e-09
1.151107e-09
-1.8275e-09
4.014304e-10
1.353027e-09
-1.811034e-09
1.405358e-09
4.056758e-10
-1.856059e-09
2.124775e-10
1.422198e-09
2.567529e-10
-1.678951e-09
1.486271e-09
3.287842e-10
-1.815056e-09
-2.002737e-09
1.616476e-09
4.016988e-10
-2.002376e-09
1.600677e-09
-7.838588e-10
-7.181005e-10
-1.195404e-09
1.042524e-09
-1.106024e-09
-3.789128e-10
1.484936e-09
-1.39992e-09
1.80135e-09
-1.763675e-09
7.392124e-10
1.024462e-09
-9.863199e-10
1.421493e-09
-4.351726e-10
-1.11952e-09
-4.451379e-10
1.564658e-09
-1.213553e-10
1.581071e-09
-1.459716e-09
-1.301968e-09
1.270508e-09
4.716946e-10
-1.742202e-09
-1.58463e-09
1.604297e-09
-1.966698e-11
-5.081787e-10
2.616082e-09
-2.107904e-09
1.835774e-09
-6.917795e-10
-1.143995e-09
4.018177e-09
-4.203661e-09
-1.723254e-09
1.648465e-09
7.478901e-11
1.967938e-09
-1.018079e-09
-9.49859e-10
-1.185711e-09
9.995007e-10
1.996576e-10
1.353837e-09
-4.084806e-09
3.471446e-09
-1.681255e-09
1.345548e-09
3.357073e-10
1.417446e-09
-4.81465e-10
-1.058606e-09
-1.184836e-09
2.243442e-09
-1.159461e-09
1.848812e-09
-6.893509e-10
-2.648855e-09
5.713184e-10
2.077536e-09
1.297376e-09
-2.055445e-09
7.580685e-10
6.006926e-10
8.442312e-10
-1.444924e-09
-7.484241e-10
-4.287821e-10
1.177206e-09
3.657343e-10
1.187996e-09
-1.553731e-09
1.135191e-09
-1.552842e-09
4.176505e-10
-3.744088e-10
-1.282345e-09
1.919454e-09
-4.201943e-12
-1.915252e-09
-1.950931e-09
4.105274e-10
1.271263e-09
-1.68179e-09
1.519761e-09
-1.145725e-09
-1.275339e-09
-2.765623e-10
1.551901e-09
7.603341e-10
8.050382e-10
3.374633e-10
-1.611703e-09
1.274239e-09
-1.727887e-09
6.104996e-10
1.360352e-09
-1.463464e-09
1.031123e-10
1.798865e-09
-7.404313e-10
-1.058434e-09
-1.344902e-09
4.006048e-10
9.442976e-10
-1.764705e-09
9.827796e-10
7.819256e-10
1.353786e-09
-1.558975e-09
-1.511008e-09
9.223014e-10
5.887065e-10
-1.412223e-10
2.061232e-09
-1.92001e-09
-7.861326e-10
1.750227e-09
1.316895e-09
-5.774643e-10
8.903705e-10
-1.874133e-09
9.837622e-10
-6.484648e-10
-4.200212e-10
1.068486e-09
-1.450121e-09
9.653538e-10
4.847675e-10
-7.697119e-10
-1.029167e-09
1.8915e-09
-6.413726e-10
1.559769e-09
-9.183966e-10
1.308145e-09
1.884762e-10
1.221449e-09
6.228089e-10
-7.484835e-10
-9.61953e-10
-5.796164e-10
1.446282e-09
-8.666654e-10
-6.565242e-10
1.42483e-09
-7.683061e-10
9.360773e-10
-1.847665e-09
-3.678239e-11
1.10544e-09
-5.041236e-10
1.89216e-09
-1.388036e-09
-1.16507e-09
4.39655e-10
-8.879012e-10
1.481871e-09
-5.939701e-10
-9.978446e-10
1.737548e-09
-1.97751e-09
1.694346e-09
1.314509e-09
-1.803904e-09
4.893951e-10
1.463558e-09
-1.53458e-09
7.102254e-11
1.357129e-09
1.205806e-10
-7.853076e-10
-7.428064e-10
-1.342181e-09
5.443334e-10
4.142257e-10
1.078533e-09
-5.649908e-10
-1.41252e-09
1.545375e-09
-1.760326e-09
-1.162427e-09
1.233747e-09
-7.13195e-11
4.066774e-09
-3.374602e-09
-6.921718e-10
-1.642946e-09
1.245135e-09
3.978118e-10
1.303238e-09
-1.476135e-09
1.728966e-10
-1.268372e-09
-4.128835e-10
-1.425565e-09
3.060448e-10
1.87267e-09
-1.323892e-09
-5.487787e-10
3.55904e-09
8.264507e-10
-4.385491e-09
1.062409e-09
8.258041e-11
5.827286e-10
-1.554386e-09
-5.167528e-10
1.067239e-09
-1.078848e-09
4.59568e-09
-1.275167e-09
-5.358668e-10
-2.223572e-09
3.415448e-10
1.882027e-09
-1.271337e-09
2.662345e-10
-1.279074e-09
1.372e-09
1.422754e-09
8.161525e-10
-2.238906e-09
-3.204783e-10
3.979435e-10
1.964179e-09
-2.362122e-09
-7.458418e-10
-7.83125e-10
-2.575377e-09
3.358502e-09
-1.255633e-09
1.007937e-09
2.476959e-10
-1.847164e-09
6.495743e-10
1.19759e-09
2.115196e-10
-1.861254e-09
6.136047e-10
5.033545e-10
1.296379e-09
-1.799733e-09
1.428466e-09
-1.041817e-09
-8.594574e-10
-9.709743e-10
-5.972322e-10
1.014793e-09
-4.17561e-10
1.988087e-09
-1.156232e-09
-1.064274e-09
2.220506e-09
-1.578602e-09
-1.726834e-10
1.751285e-09
-1.344892e-09
3.803173e-10
9.645751e-10
1.978251e-09
-1.638914e-09
-3.393367e-10
1.261775e-09
6.223534e-10
1.720545e-09
-6.601885e-10
-1.060356e-09
1.025159e-09
-2.206719e-09
1.181561e-09
7.865692e-10
-5.810441e-10
-1.035084e-09
1.86173e-09
-1.313215e-09
-5.48515e-10
-1.686076e-10
1.395526e-09
-1.226919e-09
-5.597266e-09
8.245419e-09
-6.624083e-10
1.228955e-09
-5.665471e-10
-1.32738e-09
5.426208e-11
1.273118e-09
-1.15627e-09
1.444242e-09
1.738443e-09
-1.361718e-09
-3.767245e-10
-1.851843e-09
1.067984e-09
-1.956475e-09
8.855436e-10
-9.609558e-10
-1.033594e-09
1.904877e-09
-8.712828e-10
-1.098651e-09
1.983398e-09
-8.847468e-10
5.757233e-09
-4.587029e-09
2.56856e-09
5.878855e-10
-1.574205e-09
-6.710747e-10
-9.45938e-10
1.407632e-09
-1.294883e-09
-1.12749e-10
1.231243e-09
-3.831455e-10
-8.480977e-10
9.113517e-10
9.560411e-10
-3.941193e-11
1.588124e-09
-1.548712e-09
-8.561811e-10
1.027758e-09
-1.715771e-10
1.567935e-09
-1.303386e-09
-2.645491e-10
4.698834e-10
-1.436836e-09
-1.217057e-09
1.465595e-09
-2.485382e-10
1.107588e-09
-1.482559e-09
1.368482e-09
1.140773e-10
1.023056e-10
1.370456e-09
-1.472762e-09
1.271423e-09
-1.77877e-09
3.839381e-09
-2.837562e-10
-3.555625e-09
-2.288914e-09
-9.027991e-10
-1.448723e-09
-6.139251e-11
-7.871262e-10
-1.109264e-09
1.89639e-09
1.050677e-09
-1.384286e-09
3.336089e-10
-1.326203e-09
3.041658e-10
1.022038e-09
-2.184228e-10
-1.600566e-09
1.818989e-09
-1.772316e-09
1.643365e-09
8.981826e-10
1.073119e-09
7.696145e-10