/*--------------------------------*- C++ -*----------------------------------*\
| =========                 |                                                 |
| \\      /  F ield         | OpenFOAM: The Open Source CFD Toolbox           |
|  \\    /   O peration     | Version:  2406                                  |
|   \\  /    A nd           | Website:  www.openfoam.com                      |
|    \\/     M anipulation  |                                                 |
\*---------------------------------------------------------------------------*/
FoamFile
{
    version     2.0;
    format      ascii;
    arch        "LSB;label=32;scalar=64";
    class       volScalarField;
    location    "1.92";
    object      p;
}
// * * * * * * * * * * * * * * * * * * * * * * * * * * * * * * * * * * * * * //

dimensions      [0 2 -2 0 0 0 0];

internalField   nonuniform List<scalar> 
217010
(
-190.5263
-123.2527
-127.4912
-129.812
-130.8742
-124.6475
-121.8542
-120.7004
-119.5414
-119.221
-118.9366
-119.0756
-119.2065
-119.0618
-119.056
-119.1307
-119.1111
-118.9989
-119.2038
-119.834
-120.7782
-121.3795
-121.5607
-121.7425
-121.9495
-122.4703
-123.4332
-124.5548
-125.9049
-127.434
-128.6261
-128.6469
-126.0729
-120.0943
-111.771
-104.1257
-97.67339
-90.6409
-84.50514
-80.93085
-78.81491
-78.48007
-79.11187
-80.29514
-82.31675
-85.12617
-89.24784
-93.96386
-101.6103
-103.5759
-158.3675
-135.3097
-138.141
-137.9281
-137.9167
-138.4051
-139.722
-141.0564
-141.6459
-142.0117
-142.9725
-144.321
-145.7416
-147.3238
-149.1102
-151.1325
-153.3283
-155.5853
-157.8247
-160.0316
-162.1721
-164.1934
-166.0525
-167.6735
-168.92
-169.6631
-169.8563
-169.4824
-168.6399
-167.4291
-165.8552
-163.9474
-161.6682
-159.0066
-156.0203
-152.7774
-149.2871
-145.5256
-141.6718
-137.6367
-133.3078
-129.0969
-124.9438
-120.6758
-116.3024
-111.8226
-107.4388
-103.2255
-98.93689
-94.69778
-91.16297
-88.57263
-85.79788
-81.66137
-76.62588
-71.83756
-67.08094
-62.53316
-58.96451
-55.87703
-53.00588
-50.49358
-47.93309
-45.4999
-43.139
-40.71608
-38.33645
-36.18991
-34.10146
-32.14356
-30.44145
-28.90174
-27.43239
-25.98387
-22.3853
-19.02942
-18.65387
-20.02492
-21.88366
-23.25617
-24.41569
-25.47249
-26.31085
-26.45161
-25.73821
-24.1677
-21.59904
-18.23548
-14.6091
-10.81546
-6.824647
-2.640364
1.345248
4.471537
6.547982
7.944753
8.550679
5.939864
4.407808
-1.915636
12.61417
10.97256
9.684204
5.096757
-0.5436578
-7.774639
-18.43159
-32.27707
-49.74654
-70.29213
-92.32081
-115.2734
-137.4531
-157.1559
-171.8858
-179.0731
-179.5474
-172.343
-154.2467
-125.9049
-98.91512
-90.34441
-91.01075
-82.97383
-83.74763
-96.81262
-105.8616
-110.4852
-103.4533
-96.35338
-87.71637
-73.59948
-62.65735
-61.52672
-68.37038
-81.57345
-91.6638
-98.85068
-99.179
-92.44316
-87.51796
-85.09521
-83.77036
-84.58564
-84.09879
-83.71596
-85.70397
-88.48886
-81.65927
-142.1825
-65.28973
-56.78193
-45.3925
-38.82213
-33.12
-28.41907
-24.35789
-20.66374
-17.46716
-14.55539
-11.91442
-9.500097
-7.223795
-5.080045
-3.077347
-1.222754
0.5131641
2.178287
3.765226
5.277106
6.723032
8.094552
9.390623
10.66093
11.90087
13.10894
14.26086
15.35323
16.40459
17.43705
18.4564
19.45712
20.40716
21.32596
22.23638
23.12794
24.01191
24.88622
25.75403
26.56824
27.42188
28.22177
29.01685
29.79463
30.56733
31.32363
32.06582
32.80746
33.56084
34.31005
35.04311
35.76409
36.48456
37.22586
37.97638
38.71543
39.45115
40.18982
40.92374
41.66298
42.40488
43.15182
43.92912
44.75272
45.57762
46.40559
47.32155
48.3401
49.22784
49.5297
49.64865
56.3624
54.33155
53.14302
51.72089
50.33985
49.10992
47.932
46.80283
45.7707
44.78702
43.75337
42.69722
41.66682
40.68577
39.72868
38.77077
37.79966
36.82854
35.88425
34.94872
33.99781
33.0454
32.10281
31.1454
30.19212
29.22187
28.21432
27.22197
26.2505
25.26917
24.25986
23.20874
22.1866
21.12717
20.03821
18.94345
17.83925
16.69415
15.52971
14.36061
13.16326
11.89989
10.57727
9.25207
7.929778
6.552061
5.105568
3.611272
2.045146
0.4117111
-1.273255
-3.022026
-4.804855
-6.713242
-8.755962
-10.88758
-13.15741
-15.54427
-18.12699
-20.93523
-23.93642
-27.17453
-30.80486
-34.87162
-39.50287
-44.68557
-50.73639
-58.22681
-67.07996
-82.04189
-95.85803
56.24058
54.49079
53.29293
51.89456
50.50251
49.25316
48.06315
46.92242
45.87865
44.88886
43.85316
42.79311
41.75594
40.76795
39.80585
38.84436
37.87004
36.89483
35.94643
35.00752
34.05386
33.09856
32.15318
31.19312
30.23777
29.26555
28.25565
27.26073
26.28658
25.30311
24.29212
23.23867
22.21557
21.15338
20.06239
18.96589
17.86003
16.71305
15.54695
14.3761
13.17723
11.91176
10.58705
9.260101
7.936259
6.55627
5.107871
3.61187
2.043281
0.4069363
-1.281067
-3.033002
-4.817992
-6.731647
-8.779243
-10.91542
-13.19171
-15.58393
-18.17581
-20.99398
-24.00427
-27.25424
-30.90055
-34.98372
-39.65032
-44.86346
-50.96201
-58.51108
-67.54244
-82.48203
-98.06286
-67.08754
-57.10151
-45.75067
-39.04003
-33.29824
-28.5596
-24.47665
-20.75208
-17.54314
-14.62125
-11.96933
-9.547586
-7.264544
-5.11413
-3.10515
-1.245225
0.494152
2.162873
3.75336
5.26824
6.716791
8.091254
9.389024
10.66086
11.90244
13.11235
14.26607
15.35983
16.41255
17.44648
18.46728
19.46954
20.421
21.3409
22.25282
23.14575
24.03133
24.907
25.7763
26.5936
27.44763
28.24853
29.04508
29.82443
30.5985
31.35625
32.10018
32.84417
33.59965
34.35054
35.08522
35.80875
36.53218
37.27668
38.02976
38.77094
39.50898
40.25005
40.98674
41.72914
42.4747
43.22714
44.01153
44.84062
45.67022
46.50846
47.43835
48.45656
49.29688
49.5735
50.41396
12.02578
11.09254
9.977107
5.623958
0.1070273
-6.940695
-17.34183
-30.9572
-48.2277
-68.66901
-90.68103
-113.7043
-136.0396
-156.0104
-171.1003
-178.7002
-179.6503
-172.8944
-155.3755
-127.1974
-99.67621
-90.48818
-91.176
-83.07519
-83.67903
-96.63248
-105.7869
-110.5455
-103.5859
-96.5915
-87.96609
-73.75171
-62.73916
-61.61413
-68.44641
-81.67381
-91.77367
-99.00375
-99.25107
-92.38221
-87.43874
-85.05353
-83.75879
-84.58935
-84.09195
-83.75231
-85.81612
-88.40853
-83.09552
-131.4248
-151.8937
-136.7146
-138.0489
-137.9299
-137.8943
-138.3103
-139.5733
-140.9489
-141.5902
-141.945
-142.8688
-144.1922
-145.6056
-147.1779
-148.951
-150.9627
-153.1548
-155.4167
-157.6659
-159.8865
-162.0465
-164.0905
-165.9728
-167.6189
-168.8963
-169.6654
-169.8811
-169.5256
-168.6968
-167.4973
-165.9344
-164.0324
-161.7556
-159.0841
-156.1071
-152.8643
-149.3745
-145.6077
-141.7483
-137.713
-133.372
-129.1506
-124.9931
-120.7182
-116.3391
-111.8515
-107.4591
-103.2419
-98.94944
-94.7089
-91.17022
-88.56006
-85.7744
-81.66028
-76.64029
-71.82584
-67.04193
-62.49136
-58.92309
-55.83589
-52.96286
-50.44806
-47.88438
-45.4488
-43.08414
-40.65763
-38.27729
-36.13083
-34.04307
-32.0898
-30.39354
-28.84962
-27.37659
-25.87921
-22.25397
-18.95675
-18.66815
-20.10848
-21.99121
-23.33703
-24.49096
-25.54011
-26.35377
-26.43888
-25.65474
-24.00792
-21.33995
-17.91015
-14.2491
-10.42878
-6.412756
-2.237335
1.694721
4.733124
6.730566
8.027475
8.43072
5.698574
3.845814
-0.9761981
-176.4541
-125.1468
-127.6616
-129.8394
-131.0849
-124.8265
-121.9117
-120.7247
-119.5567
-119.226
-118.9381
-119.0748
-119.2074
-119.0619
-119.0563
-119.1314
-119.1112
-118.9974
-119.2049
-119.8402
-120.7895
-121.3919
-121.5666
-121.7456
-121.9535
-122.483
-123.4551
-124.5787
-125.9303
-127.4609
-128.6329
-128.596
-125.8857
-119.7429
-111.3705
-103.7484
-97.27255
-90.25055
-84.21582
-80.75159
-78.74064
-78.49423
-79.18914
-80.43752
-82.55001
-85.47815
-89.73664
-94.69637
-102.1398
-106.3548
-162.2077
-125.8993
-127.8421
-129.7149
-131.3685
-125.0828
-121.9731
-120.7476
-119.5755
-119.2345
-118.941
-119.0754
-119.2108
-119.0619
-119.0564
-119.1318
-119.1114
-118.9929
-119.1925
-119.8414
-120.8164
-121.4205
-121.5755
-121.7485
-121.9541
-122.4876
-123.4704
-124.6025
-125.9678
-127.5188
-128.6985
-128.6387
-125.9037
-119.6934
-111.2029
-103.5494
-97.11604
-90.04367
-84.02882
-80.63785
-78.69226
-78.52099
-79.24786
-80.53097
-82.69614
-85.68712
-90.0235
-95.06122
-102.5808
-107.1479
-146.6423
-137.0741
-138.0391
-137.9373
-137.893
-138.2701
-139.5244
-140.9344
-141.5729
-141.9114
-142.8301
-144.1635
-145.5731
-147.1413
-148.9112
-150.919
-153.1045
-155.3625
-157.6151
-159.8407
-162.0109
-164.0677
-165.9553
-167.6023
-168.8881
-169.6677
-169.8937
-169.5425
-168.7089
-167.5051
-165.9436
-164.049
-161.7729
-159.124
-156.1296
-152.8849
-149.3996
-145.6352
-141.7739
-137.7482
-133.4043
-129.1777
-125.0209
-120.7425
-116.3628
-111.8731
-107.4744
-103.2586
-98.96737
-94.72483
-91.16733
-88.52875
-85.7698
-81.72497
-76.6997
-71.83604
-67.03253
-62.47253
-58.90287
-55.82045
-52.94135
-50.43158
-47.86355
-45.42823
-43.06175
-40.6333
-38.2504
-36.10443
-34.01513
-32.06384
-30.37579
-28.85104
-27.37769
-25.85419
-22.16594
-18.88874
-18.67903
-20.14906
-21.99784
-23.38634
-24.61435
-25.7
-26.49113
-26.51934
-25.68153
-23.99825
-21.32904
-17.86653
-14.17882
-10.33529
-6.287157
-2.083105
1.848582
4.856331
6.812533
8.055966
8.288965
5.453152
3.702889
-0.3173527
11.70076
11.12647
10.13571
5.901969
0.4450537
-6.481008
-16.78591
-30.27042
-47.49104
-67.94732
-89.99754
-113.1588
-135.6654
-155.9137
-171.3446
-179.0879
-180.1973
-173.7871
-157.1499
-129.8113
-101.4156
-90.79683
-91.47652
-83.3509
-83.64369
-96.51675
-105.8479
-110.7293
-103.9855
-97.28071
-88.409
-74.00835
-62.94054
-61.84755
-68.62916
-81.87526
-91.94867
-99.22384
-99.43973
-92.37895
-87.3719
-85.00952
-83.74639
-84.59586
-84.10099
-83.80971
-85.88346
-88.33024
-83.59626
-119.7935
-67.00732
-57.31454
-45.91472
-39.15105
-33.38355
-28.62456
-24.52619
-20.80511
-17.57383
-14.64985
-11.99243
-9.56835
-7.283513
-5.129722
-3.118043
-1.255009
0.4841228
2.154538
3.746599
5.262855
6.712067
8.08892
9.386416
10.65909
11.90172
13.11303
14.26824
15.36211
16.41487
17.44908
18.4703
19.47417
20.42641
21.34523
22.25801
23.15117
24.03841
24.91494
25.78524
26.59534
27.45429
28.25638
29.05387
29.83319
30.60795
31.36612
32.1101
32.85386
33.61077
34.36308
35.09776
35.82124
36.54389
37.28909
38.04409
38.78554
39.52352
40.26675
41.00425
41.74772
42.4946
43.24785
44.03163
44.86457
45.69691
46.5335
47.47125
48.497
49.31735
49.58623
50.55143
56.1092
54.57193
53.33141
51.93631
50.5451
49.29218
48.09339
46.94484
45.90067
44.9149
43.87647
42.81411
41.77299
40.78461
39.82249
38.86192
37.88594
36.90841
35.96068
35.02212
34.06688
33.11114
32.16631
31.20416
30.25071
29.27803
28.26452
27.26954
26.2959
25.31245
24.2988
23.24675
22.22314
21.16351
20.06999
18.97298
17.86701
16.71787
15.55148
14.38129
13.18308
11.9156
10.58857
9.261533
7.93869
6.557085
5.107926
3.61155
2.040566
0.4025601
-1.287044
-3.040301
-4.823898
-6.741287
-8.791171
-10.92781
-13.20835
-15.60042
-18.19818
-21.02055
-24.03339
-27.28785
-30.94136
-35.0506
-39.71297
-44.94745
-51.07108
-58.6628
-67.75955
-82.77036
-97.71237
55.91432
54.65497
53.4286
52.08109
50.71201
49.44877
48.23664
47.08033
46.02777
45.03406
43.99141
42.92642
41.88008
40.88457
39.91633
38.95046
37.97064
36.98841
36.03681
35.0931
34.13381
33.1751
32.22712
31.26108
30.30623
29.33043
28.31227
27.31686
26.34027
25.35449
24.33769
23.29122
22.25377
21.19634
20.0986
19.00054
17.89339
16.74014
15.57267
14.40145
13.20243
11.93055
10.59997
9.272254
7.949673
6.564113
5.113169
3.61568
2.040335
0.3997932
-1.29258
-3.049186
-4.831331
-6.757145
-8.812171
-10.95083
-13.24059
-15.63396
-18.24406
-21.07634
-24.09605
-27.36073
-31.03738
-35.15676
-39.84091
-45.11088
-51.28005
-58.91899
-68.16018
-83.02803
-97.887
-67.19601
-57.50156
-46.22717
-39.34392
-33.55181
-28.7534
-24.62865
-20.89081
-17.64829
-14.71227
-12.04276
-9.61307
-7.322351
-5.160991
-3.143333
-1.273269
0.466981
2.141612
3.737238
5.256569
6.707366
8.088873
9.385736
10.66007
11.90474
13.11857
14.27695
15.37182
16.4253
17.46014
18.48253
19.4896
20.44442
21.36207
22.27697
23.17091
24.06114
24.93828
25.80681
26.63541
27.48372
28.28685
29.08648
29.86733
30.64352
31.40427
32.15041
32.89613
33.65538
34.41083
35.14804
35.87485
36.60044
37.34775
38.10644
38.84985
39.58938
40.33509
41.07608
41.82315
42.5755
43.33554
44.12439
44.96235
45.80318
46.65185
47.59966
48.60625
49.38717
49.76761
51.10589
11.13682
11.15314
10.34912
6.34146
1.028604
-5.707782
-15.79514
-29.03617
-46.09566
-66.45052
-88.45976
-111.6992
-134.3289
-154.8556
-170.5629
-178.5186
-180.208
-174.6521
-159.0843
-133.3635
-104.9424
-91.72608
-92.01979
-83.71698
-83.44891
-96.33894
-105.8042
-110.7755
-104.7486
-98.49753
-89.12636
-74.4395
-63.32577
-62.3064
-68.99137
-82.24324
-92.27366
-99.66174
-99.78564
-92.4661
-87.32018
-84.94095
-83.73487
-84.59538
-84.12006
-83.89212
-86.03061
-88.19767
-84.99286
-111.4235
-143.5723
-137.7538
-137.9901
-137.933
-137.8849
-138.2025
-139.3903
-140.8047
-141.5072
-141.8445
-142.7042
-144.0053
-145.4138
-146.9833
-148.7543
-150.7602
-152.9503
-155.2336
-157.5213
-159.773
-161.9707
-164.055
-165.957
-167.606
-168.8956
-169.6835
-169.9292
-169.6264
-168.8107
-167.6152
-166.0529
-164.1604
-161.879
-159.2207
-156.244
-152.9911
-149.508
-145.7315
-141.8546
-137.8362
-133.4746
-129.2343
-125.0773
-120.7894
-116.4055
-111.908
-107.4936
-103.2798
-98.98902
-94.7347
-91.13461
-88.46978
-85.79256
-81.80976
-76.74461
-71.8326
-67.01018
-62.4399
-58.87051
-55.79053
-52.90232
-50.38914
-47.81454
-45.37727
-43.00957
-40.57721
-38.19569
-36.05151
-33.96433
-32.02377
-30.35085
-28.85342
-27.3965
-25.75539
-21.9599
-18.75651
-18.65471
-20.1821
-22.08598
-23.53617
-24.84077
-25.91481
-26.62961
-26.55305
-25.60086
-23.79581
-20.97735
-17.47905
-13.78975
-9.942228
-5.892466
-1.710028
2.163306
5.091015
6.959332
8.080312
8.07981
5.13429
3.234536
0.1836375
-152.8299
-127.7076
-127.7177
-129.2197
-131.7078
-125.5043
-122.0484
-120.7836
-119.6026
-119.2483
-118.9449
-119.0753
-119.2168
-119.0635
-119.0565
-119.1319
-119.1128
-118.9849
-119.1717
-119.8391
-120.8534
-121.4593
-121.5834
-121.7465
-121.9499
-122.4886
-123.4851
-124.6244
-126.0033
-127.5798
-128.7605
-128.6583
-125.7412
-119.3793
-110.8439
-103.1758
-96.72959
-89.68472
-83.75395
-80.47835
-78.63185
-78.56159
-79.33738
-80.68394
-82.94883
-86.05185
-90.54635
-95.80068
-103.2709
-109.0965
-146.1468
-129.4394
-127.2781
-128.3324
-132.1347
-126.1511
-122.1449
-120.8366
-119.639
-119.2671
-118.9506
-119.0737
-119.2253
-119.0681
-119.0587
-119.1353
-119.1173
-118.9729
-119.1438
-119.8366
-120.9033
-121.5145
-121.5955
-121.7575
-121.9428
-122.4925
-123.5174
-124.6731
-126.0768
-127.7049
-128.9036
-128.7821
-125.8058
-119.2389
-110.5234
-102.771
-96.39005
-89.32101
-83.44635
-80.30627
-78.5754
-78.62793
-79.45326
-80.86972
-83.24578
-86.46194
-91.14476
-96.56307
-104.0919
-110.9888
-140.891
-138.1291
-137.9734
-137.9155
-137.8935
-138.1536
-139.2377
-140.6222
-141.3878
-141.7841
-142.6299
-143.9035
-145.2901
-146.8468
-148.6136
-150.6064
-152.781
-155.0767
-157.3985
-159.6776
-161.9056
-164.0207
-165.9355
-167.5807
-168.8756
-169.6787
-169.9468
-169.6192
-168.8108
-167.6497
-166.108
-164.2316
-161.9578
-159.3062
-156.3197
-153.0616
-149.593
-145.814
-141.9208
-137.9343
-133.5523
-129.2923
-125.1458
-120.8473
-116.4607
-111.9534
-107.5153
-103.3101
-99.01421
-94.73152
-91.06352
-88.40249
-85.842
-81.91077
-76.80157
-71.84299
-67.00561
-62.42755
-58.85467
-55.77232
-52.86573
-50.35643
-47.77179
-45.33274
-42.95911
-40.51684
-38.13808
-35.99896
-33.91174
-31.98301
-30.3369
-28.88674
-27.43199
-25.63496
-21.69408
-18.57665
-18.54656
-20.1991
-22.27886
-23.83997
-25.17309
-26.18105
-26.81761
-26.65446
-25.61366
-23.84257
-20.94001
-17.30095
-13.55633
-9.665501
-5.578068
-1.388317
2.450372
5.310566
7.083295
8.062971
7.787178
4.749859
3.041773
0.8759917
10.57385
11.11123
10.53852
6.776814
1.605125
-4.943185
-14.80144
-27.78172
-44.72774
-65.04754
-87.06338
-110.5218
-133.345
-154.3014
-170.6166
-179.0278
-181.386
-176.1514
-161.5426
-137.787
-110.4494
-94.19335
-92.75898
-83.85612
-82.80415
-96.0705
-105.4313
-110.2015
-105.6751
-100.15
-90.09949
-75.06846
-63.94121
-63.0901
-69.63341
-82.87992
-92.83606
-100.3971
-100.3382
-92.67344
-87.32072
-84.87264
-83.72799
-84.58526
-84.14736
-84.01081
-86.23217
-88.07781
-86.41435
-105.5883
-67.33956
-57.57608
-46.49479
-39.51558
-33.70808
-28.87242
-24.7267
-20.97823
-17.70831
-14.76923
-12.08842
-9.655336
-7.361338
-5.193028
-3.169
-1.28991
0.4479531
2.125732
3.724444
5.247029
6.699008
8.08709
9.38108
10.65678
11.90277
13.11911
14.28187
15.37651
16.42904
17.46453
18.48841
19.49936
20.45632
21.37048
22.28831
23.1824
24.0764
24.95303
25.81785
26.64314
27.49993
28.30431
29.10558
29.88658
30.66414
31.42666
32.17281
32.91768
33.67951
34.43842
35.17567
35.90297
36.62753
37.3766
38.14076
38.88479
39.62446
40.3755
41.11849
41.86726
42.62248
43.38531
44.17424
45.02177
45.87163
46.72422
47.68474
48.66979
49.41443
49.8962
51.43733
55.65425
54.69753
53.50472
52.18351
50.82301
49.55644
48.32532
47.14977
46.09088
45.10207
44.05304
42.98297
41.92655
40.92842
39.95859
38.99317
38.00974
37.02234
36.07194
35.12819
34.16548
33.20536
32.2581
31.28675
30.33592
29.35876
28.33276
27.33753
26.36037
25.37499
24.35546
23.30104
22.26961
21.21564
20.11257
19.01426
17.90705
16.74943
15.58277
14.41294
13.21465
11.93689
10.60174
9.275797
7.955814
6.565015
5.113193
3.616156
2.034992
0.3918017
-1.30313
-3.062477
-4.83848
-6.776342
-8.836943
-10.97566
-13.27537
-15.66438
-18.28992
-21.13149
-24.15344
-27.42364
-31.12022
-35.26686
-39.96287
-45.26344
-51.47438
-59.15761
-68.50489
-83.15064
-97.78471
55.30242
54.6745
53.57043
52.30462
50.97625
49.71973
48.4746
47.29042
46.23156
45.2437
44.18659
43.11723
42.05193
41.04645
40.07029
39.10328
38.11385
37.11619
36.16288
35.21428
34.24546
33.28245
32.33424
31.35418
30.40703
29.42771
28.39047
27.39728
26.41686
25.42889
24.40269
23.36319
22.31529
21.26136
20.15192
19.05359
17.94284
16.77431
15.60639
14.43892
13.24565
11.95873
10.61184
9.286757
7.974325
6.574973
5.120593
3.626405
2.036889
0.3884035
-1.313884
-3.078828
-4.839088
-6.792602
-8.859712
-11.00203
-13.3179
-15.69479
-18.34431
-21.20003
-24.22789
-27.49793
-31.22004
-35.39988
-40.1084
-45.44159
-51.69972
-59.41395
-68.8428
-83.13721
-97.64056
-67.52825
-57.56205
-46.7583
-39.69214
-33.89674
-29.01759
-24.84568
-21.08116
-17.78288
-14.84447
-12.14443
-9.705913
-7.410788
-5.230185
-3.194691
-1.304595
0.4235375
2.106251
3.710983
5.240445
6.69405
8.090702
9.379209
10.65749
11.9047
13.12786
14.29783
15.38925
16.44197
17.48145
18.5061
19.51942
20.48058
21.38996
22.31268
23.20583
24.10533
24.98218
25.8489
26.69394
27.53631
28.34107
29.14618
29.92919
30.70964
31.47464
32.22157
32.96897
33.73732
34.50237
35.23953
35.96978
36.69491
37.44576
38.21696
38.96159
39.70253
40.4586
41.20322
41.95586
42.71845
43.4886
44.27632
45.13143
45.9952
46.85183
47.81139
48.7565
49.50057
50.1656
51.82286
9.972031
10.98255
10.69719
7.255468
2.280212
-4.026251
-13.64512
-26.28528
-43.10479
-63.3703
-85.32806
-109.109
-132.1949
-153.5872
-170.4187
-178.9558
-181.7486
-177.7629
-164.3519
-142.803
-117.4942
-99.03803
-93.72212
-83.3716
-81.47128
-95.89214
-104.5173
-108.5889
-106.4572
-102.1254
-91.29445
-76.0142
-64.71658
-64.24806
-70.69896
-84.01245
-93.78144
-101.6252
-101.2149
-93.07166
-87.4126
-84.80195
-83.70148
-84.49112
-84.15264
-84.22984
-86.54351
-87.93536
-87.27686
-100.1133
-138.134
-138.4574
-138.0224
-137.8843
-137.8888
-138.0928
-139.0231
-140.2985
-141.1609
-141.6725
-142.5191
-143.7876
-145.1528
-146.6931
-148.461
-150.4485
-152.6043
-154.9061
-157.2637
-159.5722
-161.8345
-163.9878
-165.9238
-167.5705
-168.8836
-169.7133
-170.0261
-169.7756
-168.9803
-167.8014
-166.2415
-164.3751
-162.1067
-159.4522
-156.4733
-153.1952
-149.7382
-145.9408
-142.0187
-138.0819
-133.649
-129.3632
-125.2394
-120.9178
-116.5247
-112.0048
-107.5382
-103.35
-99.0329
-94.70589
-90.96535
-88.35041
-85.91075
-82.00085
-76.83719
-71.86477
-67.02156
-62.42981
-58.85762
-55.75405
-52.82132
-50.3228
-47.70863
-45.26674
-42.90152
-40.43962
-38.06069
-35.93907
-33.8453
-31.93665
-30.33573
-28.94586
-27.49759
-25.54243
-21.37248
-18.3631
-18.49271
-20.32506
-22.62575
-24.2503
-25.55976
-26.46561
-27.00854
-26.72069
-25.49919
-23.46837
-20.54121
-16.87234
-13.15811
-9.269853
-5.180429
-1.007041
2.788619
5.562637
7.201507
7.992093
7.394014
4.356202
2.812524
1.710813
-138.9965
-129.9363
-126.4707
-127.2721
-132.774
-127.0404
-122.3286
-120.9249
-119.699
-119.2993
-118.9586
-119.0697
-119.2317
-119.0791
-119.0665
-119.1435
-119.127
-118.9556
-119.1056
-119.8298
-120.9689
-121.5922
-121.6061
-121.7432
-121.9179
-122.4882
-123.5536
-124.7421
-126.1824
-127.8946
-129.1226
-128.9798
-125.8654
-119.0944
-110.1126
-102.2642
-96.02475
-88.918
-83.10669
-80.13346
-78.53467
-78.73303
-79.59525
-81.10071
-83.61455
-86.96732
-91.89041
-97.46408
-105.1565
-112.8819
-131.0552
-128.8817
-125.5394
-126.4802
-133.5218
-128.2075
-122.6022
-120.9992
-119.7974
-119.3858
-118.9767
-119.0587
-119.2368
-119.0902
-119.0844
-119.1645
-119.1448
-118.9261
-119.0534
-119.8266
-121.0808
-121.725
-121.6259
-121.7298
-121.8757
-122.4817
-123.6202
-124.8528
-126.3509
-128.215
-129.5042
-129.3699
-126.1205
-118.924
-109.4686
-101.7246
-95.51745
-88.34384
-82.75518
-79.99063
-78.53927
-78.91965
-79.77362
-81.42339
-84.13191
-87.65878
-92.93848
-98.56935
-106.3782
-114.7953
-135.8724
-138.6352
-138.2961
-137.8859
-137.9099
-138.0581
-138.8116
-139.9382
-140.8668
-141.5036
-142.3611
-143.6491
-144.9908
-146.5065
-148.283
-150.2668
-152.3995
-154.7102
-157.1208
-159.465
-161.7664
-163.968
-165.9321
-167.5682
-168.8952
-169.7412
-170.0851
-169.8418
-169.0297
-167.8976
-166.3716
-164.5365
-162.2621
-159.592
-156.6227
-153.3195
-149.8892
-146.0926
-142.1527
-138.2458
-133.751
-129.4583
-125.3479
-120.9966
-116.5952
-112.0792
-107.5867
-103.3955
-99.05983
-94.71042
-90.862
-88.2971
-85.94264
-81.98233
-76.89033
-71.94668
-67.06013
-62.37564
-58.87393
-55.74449
-52.83173
-50.29488
-47.6357
-45.18322
-42.86209
-40.35646
-37.98019
-35.85867
-33.75215
-31.88975
-30.34184
-29.03146
-27.59218
-25.47279
-21.07474
-18.28409
-18.62355
-20.68522
-23.14863
-24.74258
-26.02346
-26.82506
-27.30158
-26.91965
-25.59781
-23.63163
-20.46473
-16.57302
-12.7933
-8.840377
-4.722921
-0.5518182
3.194693
5.844283
7.300497
7.844871
6.895388
4.017802
2.854173
2.612249
9.372964
10.71209
10.80669
7.762323
3.114903
-2.752478
-12.33203
-24.58157
-41.19045
-61.39179
-83.24652
-107.1371
-130.8382
-153.1431
-170.5974
-179.36
-183.6195
-180.25
-168.0047
-148.4911
-125.6715
-106.0807
-96.04352
-83.05958
-79.24663
-95.75168
-103.3406
-106.4484
-107.0283
-104.4264
-93.02276
-77.70243
-65.82652
-65.91658
-72.23156
-85.9932
-95.25819
-103.5604
-102.531
-93.7616
-87.65943
-84.72329
-83.61087
-84.46004
-84.0128
-84.67712
-87.19439
-87.92176
-87.38038
-94.47912
-67.595
-57.38002
-46.97278
-39.84354
-34.11738
-29.16469
-24.95249
-21.18302
-17.87492
-14.93176
-12.1898
-9.760686
-7.47114
-5.263551
-3.220305
-1.331691
0.3832053
2.087337
3.700822
5.240406
6.686974
8.08818
9.374556
10.65311
11.90168
13.14153
14.30582
15.39198
16.45347
17.4921
18.50531
19.52254
20.50299
21.40113
22.32959
23.21955
24.12807
25.00596
25.87076
26.71345
27.55579
28.36556
29.17769
29.96128
30.73962
31.50475
32.25815
33.00752
33.77406
34.53845
35.27694
36.0139
36.73913
37.49035
38.27066
39.02121
39.75768
40.51661
41.2668
42.02707
42.79531
43.57094
44.348
45.21495
46.10881
46.96882
47.92185
48.81874
49.59803
50.46684
52.11825
54.8292
54.54302
53.60146
52.42458
51.14003
49.89295
48.61034
47.40082
46.33707
45.35439
44.26934
43.20025
42.1283
41.12667
40.13704
39.16802
38.17926
37.17945
36.23038
35.27422
34.29753
33.33339
32.38515
31.39369
30.45387
29.46454
28.41657
27.42915
26.45078
25.46742
24.43001
23.36654
22.33263
21.27783
20.16338
19.07971
17.97489
16.7945
15.62285
14.44766
13.26329
11.97851
10.62084
9.28311
7.98232
6.580345
5.117264
3.626692
2.035989
0.3879499
-1.324831
-3.114125
-4.853447
-6.825155
-8.879793
-11.02763
-13.37661
-15.72333
-18.4058
-21.26083
-24.3128
-27.58398
-31.32431
-35.53137
-40.2527
-45.62236
-51.9323
-59.65954
-69.11611
-82.86725
-97.09091
54.26735
54.2799
53.5631
52.52554
51.34502
50.17724
48.84552
47.58596
46.54503
45.60856
44.519
43.40287
42.27941
41.29132
40.32553
39.32876
38.29794
37.27869
36.35902
35.39989
34.40301
33.44573
32.50375
31.47658
30.60637
29.57019
28.48907
27.51775
26.50684
25.55364
24.50371
23.47313
22.45443
21.35726
20.18161
19.10365
18.00876
16.83441
15.68922
14.49972
13.26759
11.98415
10.67317
9.321464
7.986812
6.606825
5.142
3.605608
2.017938
0.3904427
-1.284604
-3.097987
-4.86106
-6.907232
-8.919099
-11.02984
-13.46908
-15.76203
-18.53584
-21.3128
-24.38042
-27.76525
-31.52444
-35.74684
-40.47643
-45.89374
-52.29408
-60.04599
-69.52539
-82.42965
-96.39429
-67.44152
-57.19764
-47.34702
-40.11294
-34.48368
-29.29542
-25.10661
-21.37477
-18.05192
-15.00697
-12.22148
-9.864098
-7.54852
-5.291194
-3.286513
-1.397209
0.3727289
2.106651
3.693477
5.234053
6.645542
8.065196
9.393966
10.62937
11.91352
13.16273
14.27874
15.41988
16.48962
17.49566
18.49852
19.57382
20.58779
21.42298
22.36955
23.25324
24.18142
25.05295
25.90603
26.74523
27.61882
28.43818
29.24472
30.02273
30.78962
31.58295
32.34964
33.07512
33.82615
34.63184
35.39457
36.11928
36.8402
37.57417
38.38634
39.14818
39.84462
40.6431
41.41651
42.16274
42.92873
43.70988
44.47533
45.38673
46.34309
47.15531
48.06163
48.9013
49.77106
50.79948
52.25739
8.793762
10.35622
10.80932
8.195304
4.026031
-1.271463
-10.80812
-22.74401
-38.85468
-59.07739
-80.86269
-103.9107
-128.2202
-152.7094
-171.0444
-179.3245
-185.1659
-183.2486
-172.5502
-155.1202
-135.339
-115.411
-101.1924
-83.59649
-77.83734
-98.07513
-103.481
-104.4233
-107.5423
-107.426
-95.82382
-79.8127
-68.39304
-68.35956
-74.52514
-88.64207
-97.45674
-106.3655
-104.5082
-94.84354
-87.95662
-84.51336
-83.41771
-83.92066
-83.55155
-84.95493
-87.38038
-87.53024
-86.5647
-89.15573
-134.3813
-137.7005
-137.9582
-137.8224
-137.9109
-137.9965
-138.5636
-139.5275
-140.5316
-141.2669
-142.1283
-143.4581
-144.7684
-146.2797
-148.0378
-149.9936
-152.1541
-154.4839
-156.9431
-159.318
-161.6613
-163.931
-165.9356
-167.5677
-168.9505
-169.8381
-170.2378
-170.0633
-169.2315
-168.1587
-166.6403
-164.7629
-162.4813
-159.8461
-156.9116
-153.6036
-150.1387
-146.4442
-142.3649
-138.3705
-134.0444
-129.6699
-125.4865
-121.1773
-116.7794
-112.3456
-107.728
-103.3804
-99.07316
-94.65348
-90.73229
-88.25134
-85.95935
-82.05173
-76.96523
-72.09864
-67.09405
-62.29818
-58.89434
-55.76604
-52.96834
-50.15306
-47.63283
-45.21686
-42.65273
-40.10203
-37.9154
-35.6959
-33.6023
-31.85794
-30.3388
-29.14488
-27.74945
-25.52312
-20.87183
-18.49267
-19.12013
-21.36469
-23.90284
-25.32815
-26.58831
-27.2461
-27.62814
-27.08857
-25.29967
-23.11324
-20.00329
-15.85262
-12.00681
-8.181831
-4.093403
0.05070338
3.659509
6.139366
7.368593
7.635192
6.386799
3.862343
3.310649
3.571316
-123.6249
-125.8327
-124.8576
-126.7722
-134.7986
-130.2896
-122.4537
-120.9408
-119.8469
-119.4956
-119.0242
-119.0176
-119.2047
-119.1252
-119.1433
-119.1998
-119.17
-118.8873
-118.9748
-119.8101
-121.2317
-121.9062
-121.7235
-121.7303
-121.8186
-122.4534
-123.7211
-125.0618
-126.679
-128.7353
-130.0657
-129.97
-126.503
-118.7159
-108.8201
-101.1813
-94.52075
-87.43721
-82.31811
-79.85269
-78.53598
-79.24018
-80.02627
-81.90788
-84.91078
-88.67493
-94.59771
-100.1626
-108.2242
-116.9979
-0.1695191
-0.03927241
-4.12219
4.708458
-27.08585
-1.255946
0.343794
4.508993
3.753254
1.456336
-48.97251
-86.96989
-0.05951852
11.68322
-0.2667441
5.423705
9.244641
0.2315505
5.923546
-1.39206
-10.172
6.032435
0.8136129
5.629836
-0.4782033
5.342958
5.645789
1.89602
3.940855
-1.075626
5.753728
-0.2533062
-25.85016
0.1318166
6.633267
2.211928
1.140865
7.452314
0.6847202
5.901792
7.92291
-0.04609585
-18.50318
-23.15834
-8.065665
-34.79912
0.1694086
-0.05008414
-0.09152421
8.42349
3.679654
-0.8400446
1.940957
-2.942692
6.113076
1.456057
3.207018
4.8823
1.197655
-0.03768823
0.3284553
6.068648
-1.171158
-16.52877
8.714123
-1.940332
-0.9275389
-0.8056581
8.810155
-2.289914
-79.84072
2.701693
6.966265
2.830396
5.295964
5.843881
4.702626
4.754474
-0.1758744
6.49992
1.142232
5.094636
-14.0737
-1.117644
-1.702162
-1.185146
9.115339
0.8323528
-1.397285
1.185751
7.050078
7.636316
5.561033
2.003181
-4.280362
3.186266
5.733655
5.945002
-86.17714
-44.79582
-2.850031
-10.78317
10.89888
-3.740935
0.4646839
4.555713
-17.90793
6.135058
-22.19082
4.649916
1.368813
-266.7046
0.6305798
-1.753702
-6.839908
0.1195363
-1.134906
-13.98489
-12.04365
0.9998788
0.2650073
-6.447743
-1.183407
-0.2292562
3.812099
-4.878769
-0.06793945
0.8349675
12.325
2.158173
12.50032
8.219047
4.638101
-17.03117
-0.1668118
0.784888
3.136032
-75.07171
0.7940972
7.518033
4.718422
8.610614
4.957398
2.62101
0.1942224
3.723338
6.713601
-1.207214
-0.516029
-1.51842
-104.3009
-1.424582
-0.9908901
4.354728
12.46844
4.036573
-0.9151379
-14.98287
0.3115636
3.476918
-31.61974
4.517226
2.906323
0.4524527
7.901903
1.020321
-7.539339
6.771238
-0.2553072
3.284967
0.8072063
-5.021234
0.615353
4.857048
-0.724964
0.1787272
-0.3646856
-5.027575
-1.288718
2.250253
-4.112947
5.439982
-1.361234
-0.1645009
1.019259
-1.111389
6.194017
5.861798
7.712425
0.8957385
3.065149
1.211346
5.368706
0.8858917
-33.36434
0.4189061
-1.591016
-44.09617
-6.66867
0.6078599
-6.993133
0.8077334
1.26086
11.15256
-0.9173756
-0.7941528
0.01429657
-6.566103
1.541548
0.01567123
0.2762671
4.899132
0.08770365
5.859523
-0.1934471
1.062788
4.61692
-1.378732
2.597918
-147.9214
-3.386454
3.113925
3.928033
1.136444
21.84993
18.95798
5.186086
1.658974
1.24785
2.032105
-3.04146
3.376357
3.345507
6.010124
-39.82919
-4.701406
3.334863
5.717749
-9.410576
-0.3746455
0.4350073
-3.595124
-0.429987
0.05927268
0.4733663
-6.769166
-6.623443
3.336595
4.862855
5.667774
5.655448
-142.9406
8.692557
2.503593
0.1461222
10.96881
-1.610368
2.538486
-1.714214
2.516829
3.742229
-2.596473
0.9489736
-38.36013
6.579765
4.151357
0.5715566
-117.9237
4.157639
-15.18856
-13.93171
0.5681236
-1.264969
-0.06400584
7.936102
-63.36614
5.905672
0.2235768
5.008646
1.393887
1.608415
-8.780395
-12.84985
-0.6732891
8.029782
-2.299491
4.107165
6.792119
7.405017
4.174729
-150.6273
0.04727752
-169.1934
6.003918
6.976534
-17.13772
0.1257508
-53.33509
5.72141
5.181503
0.2244368
0.1261706
2.586716
11.53259
2.453333
0.3008586
1.07629