/*--------------------------------*- C++ -*----------------------------------*\
| =========                 |                                                 |
| \\      /  F ield         | OpenFOAM: The Open Source CFD Toolbox           |
|  \\    /   O peration     | Version:  2406                                  |
|   \\  /    A nd           | Website:  www.openfoam.com                      |
|    \\/     M anipulation  |                                                 |
\*---------------------------------------------------------------------------*/
FoamFile
{
    version     2.0;
    format      ascii;
    arch        "LSB;label=32;scalar=64";
    class       volScalarField;
    location    "0.76";
    object      p;
}
// * * * * * * * * * * * * * * * * * * * * * * * * * * * * * * * * * * * * * //

dimensions      [0 2 -2 0 0 0 0];

internalField   nonuniform List<scalar> 
15536
(
-31.55
-31.72671
-40.85162
-42.59287
-31.5216
-21.89542
-24.72678
-30.44833
-34.10881
-37.00767
-36.93731
-30.87972
-26.93624
-31.31724
-42.94386
-52.76312
-56.75487
-53.16728
-40.78398
-23.08615
-14.04679
-9.860253
-5.285438
-12.1817
-26.7922
-36.57446
-44.95153
-62.97842
-106.2148
-164.9568
-182.5382
-122.8041
-65.02523
-80.974
-111.8612
-128.0344
-127.7523
-120.9842
-121.9796
-128.0345
-133.2997
-136.7504
-138.237
-138.3272
-137.6804
-136.035
-133.4964
-129.923
-125.8898
-121.5613
-116.503
-110.8306
-104.4883
-97.75064
-90.54266
-82.94591
-75.34906
-67.64592
-59.52936
-51.20755
-43.02228
-34.98103
-26.94393
-18.97284
-11.22001
-3.578783
3.771541
10.7886
17.35979
23.49603
29.14842
34.31937
38.95829
42.98268
46.36218
49.21109
51.41927
53.05154
54.05969
54.21778
53.75345
52.72015
51.08142
48.83597
46.02824
42.67445
38.83319
34.4411
29.65157
24.52498
18.93787
13.05392
6.949685
0.4882092
-6.084976
-12.58287
-19.18061
-25.85465
-32.4357
-38.98703
-45.35445
-51.37354
-57.00314
-62.306
-67.36552
-71.91894
-75.93119
-79.34617
-82.16048
-84.38899
-85.76035
-86.1587
-85.44601
-83.30291
-79.57502
-76.2587
-73.06466
-72.1033
-98.43996
-113.4599
-88.86686
-57.7635
-41.44678
-32.54752
-19.59496
-5.803643
-25.61464
-64.05245
-77.62284
-70.86268
-54.09296
-36.32556
-22.99484
-15.93514
-13.34739
-12.38063
-12.13723
-13.65941
-15.86707
-18.09857
-19.75931
-20.6374
-20.90977
-20.87443
-20.6985
-20.44494
-20.58789
-21.28413
-22.83392
-25.37325
-28.63554
-32.47939
-36.50363
-39.88423
-41.7115
-41.0166
-37.20307
-31.52846
-31.68677
-40.79639
-42.6199
-31.58047
-21.94013
-24.72164
-30.43595
-34.14743
-37.01814
-36.91907
-30.90601
-26.9938
-31.36278
-42.92815
-52.64454
-56.62426
-53.13579
-40.78745
-23.08832
-13.94014
-9.740481
-5.306658
-12.29234
-26.88449
-36.56073
-44.81701
-62.77006
-105.9756
-164.7831
-182.7408
-122.774
-64.88122
-81.08382
-112.1601
-128.1558
-127.7118
-120.9693
-121.6028
-127.201
-132.078
-135.2483
-136.5992
-136.6166
-135.9341
-134.2726
-131.7376
-128.1775
-124.1631
-119.8717
-114.8547
-109.2328
-102.9438
-96.26542
-89.12436
-81.59812
-74.0724
-66.44647
-58.41391
-50.17119
-42.06594
-34.10611
-26.14976
-18.25741
-10.5804
-3.012369
4.262282
11.20925
17.71555
23.78909
29.38475
34.50491
39.0981
43.08478
46.43101
49.25298
51.44019
53.05584
54.05629
54.21319
53.75216
52.72745
51.10294
48.87766
46.09582
42.77363
38.96909
34.61897
29.87807
24.80102
19.2679
13.44469
7.400621
1.000709
-5.508369
-11.94345
-18.47857
-25.08753
-31.60476
-38.09418
-44.4022
-50.36353
-55.93999
-61.19851
-66.21991
-70.73679
-74.72051
-78.11376
-80.92062
-83.15713
-84.54768
-84.9932
-84.40983
-82.52219
-79.07422
-76.04876
-72.96568
-72.02237
-98.31226
-113.4607
-88.92474
-57.76811
-41.47546
-32.61637
-19.65236
-5.730761
-25.66257
-64.2412
-77.57975
-70.74088
-54.05368
-36.33319
-23.0215
-15.93698
-13.31746
-12.35554
-12.1141
-13.64578
-15.86393
-18.09135
-19.74788
-20.62756
-20.89601
-20.8605
-20.67857
-20.41474
-20.54269
-21.21416
-22.73149
-25.22628
-28.43345
-32.21746
-36.17454
-39.49193
-41.3291
-40.7725
-37.07831
-31.77111
-31.81204
-40.86761
-42.78427
-31.75813
-22.00816
-24.674
-30.47561
-34.27896
-37.22227
-37.0471
-31.00279
-27.13526
-31.48201
-42.98708
-52.63397
-56.70496
-53.2631
-41.04125
-23.35112
-14.01443
-9.772528
-5.420623
-12.53252
-27.06028
-36.59871
-44.71606
-62.63498
-106.0978
-165.4123
-184.1331
-123.4319
-64.49283
-80.70979
-111.7508
-127.6518
-127.1525
-120.6393
-121.1496
-126.2832
-130.9014
-134.0776
-135.5281
-135.5718
-134.9298
-133.2988
-130.8013
-127.2583
-123.2588
-119.0023
-114.0001
-108.4067
-102.1406
-95.49929
-88.40869
-80.9003
-73.40563
-65.82865
-57.8233
-49.61376
-41.5438
-33.6282
-25.71372
-17.85271
-10.22348
-2.689718
4.546944
11.45787
17.92959
23.97162
29.53422
34.6243
39.19007
43.15481
46.47589
49.28017
51.45165
53.05215
54.04526
54.20174
53.74487
52.72829
51.11464
48.90441
46.14132
42.84045
39.06078
34.73295
30.0208
24.97391
19.46683
13.676
7.665574
1.292433
-5.184528
-11.58106
-18.08607
-24.66636
-31.14649
-37.61675
-43.89659
-49.83495
-55.39066
-60.61558
-65.61203
-70.10452
-74.07468
-77.45195
-80.23932
-82.45479
-83.81583
-84.23134
-83.57583
-81.73838
-78.533
-75.65158
-72.64812
-72.2752
-98.54543
-113.8078
-89.12582
-57.87644
-41.49435
-32.60972
-19.56865
-5.531566
-26.17095
-65.19533
-77.96922
-70.8181
-54.09397
-36.38949
-23.10192
-15.9743
-13.30397
-12.32239
-12.08708
-13.64442
-15.86409
-18.09348
-19.75095
-20.62539
-20.89
-20.85297
-20.66609
-20.39127
-20.51119
-21.16259
-22.66038
-25.13132
-28.30609
-32.06438
-36.00108
-39.31904
-41.18226
-40.67191
-37.24028
-32.4787
-32.30407
-41.18849
-43.20472
-32.10166
-22.03689
-24.47144
-30.39902
-34.47605
-37.62219
-37.27852
-31.22132
-27.40796
-31.7209
-43.14941
-52.69392
-56.77231
-53.52306
-41.55916
-24.0205
-14.36073
-9.767988
-5.515998
-12.7851
-27.18808
-36.58822
-44.61545
-62.55604
-106.4489
-166.3412
-186.1122
-124.8319
-64.82495
-79.80333
-109.86
-125.0562
-125.1683
-119.7809
-120.4188
-124.9772
-129.1937
-132.1255
-133.3688
-133.3123
-132.664
-131.0244
-128.5784
-125.0737
-121.106
-116.9105
-111.9912
-106.4879
-100.3094
-93.7521
-86.75431
-79.34599
-71.9423
-64.46767
-56.58197
-48.46375
-40.48711
-32.67298
-24.85862
-17.0856
-9.551817
-2.102331
5.05026
11.88931
18.28805
24.26177
29.76342
34.80129
39.32056
43.24938
46.53048
49.30899
51.45824
53.03811
54.02304
54.17987
53.72769
52.72237
51.12281
48.93291
46.19668
42.92864
39.19039
34.90203
30.24451
25.25314
19.80013
14.08092
8.137709
1.825015
-4.567006
-10.8838
-17.31852
-23.81571
-30.21441
-36.6076
-42.80857
-48.66147
-54.1337
-59.2978
-64.23331
-68.65414
-72.56631
-75.89352
-78.65413
-80.85354
-82.21233
-82.67201
-82.23289
-80.61555
-77.75078
-75.09939
-72.50213
-73.16929
-98.83538
-113.7418
-89.12829
-57.95905
-41.4673
-32.41233
-19.20281
-5.181679
-27.26608
-66.93069
-78.5483
-71.08761
-54.22928
-36.48434
-23.22987
-16.05458
-13.2828
-12.29173
-12.06111
-13.63515
-15.86885
-18.10529
-19.75714
-20.62623
-20.87962
-20.84339
-20.65034
-20.3603
-20.47172
-21.09504
-22.56755
-25.00489
-28.12762
-31.83915
-35.72196
-38.97354
-40.78394
-40.44463
-37.51902
-33.55782
-33.29074
-41.64781
-43.5463
-32.33813
-21.85804
-23.97355
-30.07449
-34.69092
-38.19608
-37.68915
-31.60951
-27.87031
-32.1455
-43.47314
-52.87321
-57.04145
-54.02491
-42.36799
-25.0757
-14.94731
-9.554585
-5.34857
-12.80764
-27.11452
-36.45637
-44.54179
-62.62484
-107.0242
-167.4342
-187.9868
-126.7565
-67.35491
-80.05351
-107.7004
-121.5022
-122.4617
-118.6109
-119.512
-123.6397
-127.5686
-130.4396
-131.7981
-131.736
-131.1059
-129.4458
-127.0335
-123.5335
-119.5255
-115.4046
-110.4771
-105.0149
-98.84883
-92.34609
-85.42293
-78.03728
-70.68627
-63.30686
-55.49059
-47.42307
-39.51524
-31.79505
-24.06326
-16.35051
-8.908825
-1.523839
5.554127
12.32376
18.64671
24.5594
30.00138
34.98652
39.45153
43.34201
46.58007
49.32962
51.45303
53.00725
53.98333
54.14049
53.69454
52.70611
51.12495
48.95849
46.25225
43.01802
39.32364
35.07442
30.47879
25.5406
20.12953
14.48818
8.613036
2.335288
-3.983479
-10.22297
-16.60799
-23.0484
-29.37083
-35.72585
-41.8798
-47.68487
-53.11763
-58.23907
-63.15968
-67.54863
-71.46345
-74.78659
-77.54978
-79.78271
-81.12728
-81.58292
-81.03792
-79.52495
-76.91552
-74.50244
-72.64084
-74.27835
-97.42998
-110.8229
-87.73198
-57.73243
-41.37187
-32.0292
-18.59421
-5.042227
-28.89578
-69.44088
-79.58956
-71.6392
-54.49185
-36.60099
-23.37331
-16.176
-13.22417
-12.2578
-12.04135
-13.63682
-15.88383
-18.13317
-19.78247
-20.64187
-20.87998
-20.84424
-20.6441
-20.33365
-20.43972
-21.03256
-22.48469
-24.89205
-27.96468
-31.64239
-35.48848
-38.71151
-40.57257
-40.372
-37.88601
-34.76091
-34.54324
-41.69728
-43.08286
-32.00072
-21.31114
-23.08528
-29.55812
-34.96146
-38.95894
-38.30087
-32.17938
-28.6035
-32.85802
-44.07284
-53.24913
-57.57413
-54.90162
-43.58604
-26.53463
-15.61568
-8.974721
-4.664985
-12.38427
-26.65511
-36.11049
-44.60344
-62.94516
-107.6756
-168.2099
-188.7095
-129.3614
-72.58235
-82.17424
-105.8818
-118.0473
-119.6848
-117.1245
-118.1511
-121.7775
-125.2614
-127.8634
-129.0454
-128.7049
-128.1098
-126.5187
-124.2424
-120.7967
-116.8221
-112.8684
-108.0396
-102.7177
-96.6525
-90.24977
-83.44967
-76.15458
-68.92898
-61.70119
-53.99344
-46.022
-38.24266
-30.64546
-23.03091
-15.40667
-8.099269
-0.800501
6.167863
12.82792
19.06595
24.9164
30.28191
35.19642
39.58389
43.43841
46.62415
49.33367
51.42999
52.95152
53.91748
54.07398
53.6415
52.66846
51.11161
48.97509
46.30633
43.11527
39.46816
35.25899
30.75161
25.8867
20.50897
14.96081
9.206141
2.979381
-3.253438
-9.372813
-15.66701
-22.03052
-28.2487
-34.51539
-40.5784
-46.28987
-51.61736
-56.65405
-61.51465
-65.79563
-69.63884
-72.86224
-75.53907
-77.67266
-79.00487
-79.49927
-79.2711
-78.00913
-75.76994
-73.68886
-72.5964
-74.64098
-93.08949
-103.3175
-84.32943
-57.13848
-41.30927
-31.81359
-18.27703
-5.752681
-31.36645
-72.92675
-81.27024
-72.58953
-54.95908
-36.76311
-23.52572
-16.29204
-13.04689
-12.17451
-12.02856
-13.64534
-15.91107
-18.18008
-19.83446
-20.67912
-20.89776
-20.86384
-20.65321
-20.31664
-20.42129
-20.9789
-22.42245
-24.79658
-27.80689
-31.45227
-35.25737
-38.44144
-40.31332
-40.22006
-38.23139
-35.97606
-35.74078
-41.04841
-41.25785
-30.37913
-20.47582
-21.7487
-29.07996
-35.38443
-39.90177
-39.13079
-33.01215
-29.73873
-33.95323
-45.10039
-53.94131
-58.48967
-56.33623
-45.36537
-28.39755
-16.3196
-8.029746
-3.433454
-11.39595
-25.60783
-35.47879
-44.97999
-63.50306
-107.1224
-166.5155
-186.4655
-131.0211
-79.24431
-85.31233
-104.133
-114.677
-116.8842
-115.4626
-116.6208
-119.8793
-123.0107
-125.4614
-126.7242
-126.3938
-125.9515
-124.0548
-121.8121
-118.3576
-114.2931
-110.4761
-105.6248
-100.4351
-94.39344
-88.01017
-81.3606
-74.20478
-67.04977
-59.89576
-52.34944
-44.53082
-36.84232
-29.30102
-21.894
-14.3499
-7.204728
0.00992578
6.824252
13.37839
19.60344
25.32748
30.57864
35.39605
39.71103
43.5872
46.66171
49.32079
51.38975
52.86542
53.81881
53.97967
53.56531
52.57912
51.04471
48.94842
46.33076
43.21587
39.63288
35.44404
31.02966
26.28708
20.98429
15.4729
9.815558
3.737026
-2.42522
-8.455611
-14.63749
-20.85048
-27.03421
-33.23203
-39.15106
-44.80706
-50.02182
-54.98794
-59.83412
-64.02779
-67.87321
-71.05805
-73.7905
-76.09295
-77.44668
-77.96566
-77.61634
-76.5134
-74.58209
-72.79336
-72.19939
-74.13963
-87.7095
-95.3817
-80.01342
-56.38317
-41.44543
-31.99891
-18.71441
-7.941295
-35.01591
-77.40361
-83.84934
-74.06084
-55.76246
-37.05108
-23.76099
-16.25831
-12.63564
-11.98044
-12.02349
-13.70238
-15.95951
-18.25307
-19.92455
-20.72389
-20.94503
-20.91599
-20.6912
-20.33157
-20.44225
-20.95152
-22.40815
-24.76346
-27.6969
-31.31878
-35.08322
-38.21272
-40.10326
-40.20597
-38.63181
-37.1344
-36.86254
-40.35114
-38.88132
-28.72302
-19.51303
-20.75089
-28.80168
-36.05732
-41.23555
-40.42175
-34.61851
-31.44037
-35.41132
-46.56339
-55.20456
-60.02107
-58.60612
-47.96664
-30.73556
-17.31589
-6.985635
-1.80339
-9.694337
-24.38921
-34.68937
-46.00254
-63.69923
-103.6884
-158.1334
-176.4245
-128.7461
-85.60652
-88.18825
-102.0962
-111.1548
-113.8124
-113.2955
-114.3838
-117.2412
-119.8984
-121.9831
-123.3866
-122.3837
-121.9186
-120.3952
-118.2886
-115.1324
-110.7753
-107.2117
-102.5294
-97.55765
-91.4806
-85.19159
-78.97534
-72.01356
-64.55701
-57.62794
-50.55667
-42.92628
-35.01467
-27.63673
-20.71268
-13.13107
-6.243791
0.9364787
7.463745
14.14323
20.35113
25.74807
30.84774
35.5375
39.8588
43.7831
46.64161
49.30878
51.32541
52.74201
53.68377
53.86836
53.42893
52.44231
50.91131
48.8636
46.29988
43.26933
39.847
35.64474
31.29746
26.71163
21.68099
16.20124
10.33528
4.538016
-1.326376
-7.470553
-13.58187
-19.39212
-25.45581
-31.90171
-37.42203
-43.08419
-48.1503
-52.96737
-57.81151
-61.80098
-65.67637
-68.64677
-71.28032
-73.5181
-74.67378
-75.15735
-75.27809
-74.48809
-72.95827
-71.55852
-71.2744
-73.0548
-82.99124
-88.0066
-75.29309
-55.31851
-41.56424
-32.72813
-20.23025
-11.9296
-40.27588
-82.84523
-88.44821
-76.09752
-56.8062
-37.1368
-23.7703
-15.87984
-11.86009
-11.61716
-11.99926
-13.68622
-16.04115
-18.37259
-20.08599
-20.96984
-21.04547
-21.0204
-20.78209
-20.41531
-20.52494
-20.96358
-22.39977
-24.81673
-27.66883
-31.28268
-35.02737
-38.10662
-39.98049
-40.19236
-39.08327
2.725465
1.798032
-49.83177
10.95638
9.104818
7.152933
0.4010292
-1.711626
5.44405
-0.5081756
-5.547833
-1.417454
-0.2662307
0.3667908
0.355087
1.116765
0.0292351
-0.3339599
-0.3895348
-2.185134
-69.66302
0.05343397
0.3531488
-0.3914885
0.3705795
-0.1088022
-3.254009
0.2259782
-2.79842
0.1299452
-0.9203164
-31.8634
0.01504583
0.1214121
-0.08335487
-1.128673
0.02377341
0.08722381
-0.001915827
-1.638122
-11.15207
2.346636
1.854638
4.998505
26.83832
0.3215896
-0.006521092
0.2970164
0.2442572
-0.2090965
0.02074911
0.06140623
0.7654201
-0.1452889
-0.02288674
15.37459
6.075084
-0.05988917
-6.244706
-5.490259
0.4811063
-0.00888018
-22.02875
-0.5875073
-3.400787
-0.09701888
-43.81307
0.01908783
0.1743857
0.08110366
0.2469995
0.005991796
-18.56638
-37.83366
23.6326
0.07129902
4.12164
0.4125567
0.08494871
-0.1989187
-4.808066
-0.04629661
2.210678
-0.04215447
-1.177898
0.4187898
-0.009739318
-2.24019
-62.54011
-0.0001386219
-4.950443
27.40779
0.09466071
-0.04138981
0.4587571
-1.108695
-12.07947
6.735046
-73.56473
0.4979521
-1.552456
-2.15626
-0.07819615
-56.80272
0.001739546
-26.77871
0.001685668
0.4005633
-9.334358
-0.759169
-2.032702
3.810354
6.392773
7.835227
-32.70294
0.00358738
-0.02580804
0.1180265
27.12884
0.3753616
0.1341418
-0.1263589
0.720315
0.0303398
0.03355176
-7.815714
-0.1035644
-48.92156
0.6197208
-0.1256611
-0.07458965
0.06472283
-0.1225523
0.214924
0.2781061
-39.65108
-0.01944743
1.766687
-1.347689
-0.02717488
-52.03144
1.535042
-40.93534
1.889741
0.005837884
0.1217572
-2.898729
-26.44593
0.04258221
0.2613131
0.02847575
-28.58484
-45.38851
0.1099945
0.4071061
-85.83011
0.1324061
-0.06357633
-0.1635605
-24.35004
-0.1417639
-50.81749
1.029397
-3.600553
-0.07245067
-11.62153
-12.34713
2.084978
-44.94991
0.02130081
0.4068603
-29.13211
-2.03034
-57.20549
-2.786351
-6.258584
0.5380409
0.4187335
-26.63715
0.03655444
14.37014
-1.785076
0.1066225
0.3281003
6.150644
-28.81883
0.2498874
0.04163846
-0.2848921
-0.7798914
0.3278671
-1.392463
0.9513678
-1.032017
0.002266643
0.4150215
0.08421469
1.893427
3.726675
-19.9469
-2.489451
0.123201
2.221352
-15.70575
0.5513101
-1.831081
-2.282973
0.1404203
-3.733553
0.007048414
-0.3973793
-0.007353958
0.7579252
0.3055143
-0.0699245
-15.37574
-5.444749
-1.957128
15.22796
-0.3442566
-0.3028448
0.4178374
1.767752
0.08589604
-1.290577
-5.279915
0.2340452
8.225763
-0.01897771
15.37943
-10.92103
-39.35643
-0.1581656
0.009318178
-37.31812
0.3063477
20.13331
0.1641433
2.544889
1.939945
0.2023436
-0.9025843
0.009786253
-19.30821
-0.9119004
-21.48037
0.2498459
-59.37254
-0.03617282
2.267836
-18.95671
1.829701
-2.551829
-2.004832
2.297933
-14.98019
2.324551
-0.1237268
-52.88977
-2.055986
-12.42757
-0.03384529
0.2428601
0.04428458
0.7783186
0.7696616
0.4049003
0.04809054
-13.64841
-15.03256
-0.08040899
-0.1464505
12.31342
-0.3182866
0.005542493
2.203817
-0.1166473
-39.51861
-57.93964
0.3722008
0.2272646
1.826597
0.1206907
-0.6649849
-0.2721463
-0.2260598
41.59135
0.2636629
0.4117464
0.04019022
-1.609586
0.01759533
0.4159123
0.2567507
-53.5264
-0.01216056
17.7237
0.005010245
0.7009354
1.671699
-25.80404
0.1155052
-0.0007147523
-28.35544
1.474353
0.01118148
0.05544369
0.2424926
0.05764808
0.04347723
-4.659568
-3.298834
0.1108595
0.3762462
1.050305
-5.458324
35.18595
-37.15405
-45.07838
-91.01144
1.330698
0.02216621
-3.108236
0.02651484
-0.0264322
0.01034487
0.1387336
-0.002097057
0.2889651
4.925448
20.38259
0.004174383
-2.792924
-56.30851
0.1936987
0.02993126
0.1408607
0.01508547
2.453768
-0.008292621
-63.35964
7.492494
2.482081
-2.821716
-6.485191
5.580936
-11.53541
0.2804227
-4.929942
-0.005714481
-0.01074465
0.04149886
11.68347
-0.1207859
3.187873
-41.96473
-33.68093
0.01975559
-0.5120353
-0.005891635
0.2680929
0.2030408
0.04218206
1.333174
-1.932282
0.4237498
-0.4294046
-0.1308856
-1.095112
-0.539522
0.4200517
10.75629
-22.94946
0.2425757
0.5762576
1.930671
-0.0995988
-0.3078314
0.5427372
-1.395975
-0.214471
-0.1523336
0.01529486
-22.70321
0.006016484
0.3307527
0.3207567
43.57305
1.457757
0.04162415
0.06529806
0.3787244
3.467723
-74.10194
0.004276568
0.1181048
2.313962
0.3089807
-0.4093019
0.2851277
0.8745225
-2.310548
-16.88002
0.05104214
0.03494842
0.03986494
-51.53894
-32.62595
-0.2795746
0.7438164
-0.1903532
-0.2170962
0.03346186
-1.48597
0.5496887
0.2072175
4.068755
0.5928018
-0.108685
-25.81044
-2.412357
0.07314892
2.155379
0.1167303
0.2957497
-15.09418
-0.07578806
-1.327153
-22.59156
0.1693987
-50.83556
-0.004722127
-0.01606726
-0.2080177
0.6463264
0.004088378
0.04842686
-1.80902
0.07464621
-2.094555
0.05997306
0.04096545
-0.01117239
0.2900677
-0.3911611
-0.3745258
0.007908168
0.01091296
0.01118013
0.8101341
-1.866889
-58.2707
0.7388492
-17.5098
0.1756937
0.02944975
0.005447361
3.67508
-0.2953585
-8.7608
0.345304
-53.12718
-2.983449
0.1633874
0.07497928
0.08772094
30.86944
0.3028446
1.522128
0.3205958
-4.927066
-1.058864
-0.5840343
6.844212
0.04244527
-20.51741
0.2786919
-49.52671
0.0200606
0.3837654
0.03307514
0.4724921
-0.4102792
0.3372874
0.4560744
0.2026173
0.01087372
15.85286
-0.004969376
-0.6036833
0.1113538
-13.80165
-5.045595
0.008136515
-10.53064
-1.078779
-0.1814951
3.904291
0.1955863
3.135201
-0.9567241
0.3426165
-0.02369043
-1.160661
2.507212
-0.3498222
-1.784775
0.5544735
0.213472
0.09845625
-13.0968
-1.306717
6.885718
1.018372
-0.1214913
-0.5068968
0.1181006
0.09106609
0.0166371
-0.3350306
-1.000693
0.1926119
-0.3363685
0.0368279
0.347525
-1.175326
0.07199231
-5.884744
-0.07601828
-0.04520771
-14.97254
-7.091822
-14.1509
-0.06549298
3.490027
4.614536
3.294807
-0.03579351
-0.2312591
-0.2227226
5.105732
-0.3676554
2.04356
0.426845
-70.44159
1.450188
4.136005
0.040328
0.001174088
9.275233
-0.504169
13.36848
0.03422488
-1.289775
-13.20982
0.03064215
-2.116789
-13.1173
15.60281
-15.72491
-0.03187316
0.1286559
-0.08805472
-0.0430423
-0.05346287
-0.173545
-0.896894
0.770257
26.33391
0.07240938
-0.4911149
0.2195507
1.964545
-40.3148
-0.09397689
1.854014
0.3703475
1.010963
0.1776836
0.09731986
0.0634821
0.1054901
4.965963
0.001820887
0.8210272
-11.93806
0.7737647
-0.0607161
-51.36928
-0.1941971
-0.8628926
-29.80382
0.01940524
-0.00844923
-0.2599699
-0.05542523
-1.068153
-74.242
-0.07693296
-0.2954687
-0.4024952
1.509526
-0.007224304
0.04540952
0.2303241
-28.27651
-14.95454
0.3643776
-30.54587
0.3333937
5.393714
0.08662286
-28.74119
-0.1198112
7.710203
4.588193
0.5579156
-4.85462
-24.52391
2.213909
8.874957
0.04303954
-1.178699
-0.001368995
0.3665116
18.00554
2.518187
0.3946096
0.1162921
-0.5559698
3.255187
-45.99759
-6.503261
0.8866327
-16.46515
-2.185738
2.684928
-1.790551
1.196021
-0.1450535
-0.4091605
0.02390899
-0.07127939
0.8860942
0.1011583
2.435236
0.2829886
-8.819206
0.220535
25.77646
2.835552
-46.33581
0.01273087
-13.44554
7.041442
-0.01880617
-33.66754
-0.1041126
-1.04945
-26.76452
-2.727496
-2.537525
1.607768
0.6062004
0.0752825
-0.07327903
0.5716148
-0.4571726
2.889264
-7.559877
-0.2154666
-0.09745247
-47.23608
0.2119584
-0.2238821
-1.239561
-49.09553
0.01194557
1.43799
11.58784
15.50098
17.36645
1.65381
0.3545022
-0.1675051
0.01676104
0.1722018
0.6424115
2.034971
-0.4294315
-32.86247
0.005005235
-40.37453
0.05499822
0.1611392
0.3281553
-15.82509
2.375382
-1.610099
-2.904145
0.2870105
-0.531298
-9.679441
-8.723115
4.66818
-24.07017
-0.2127633
-0.5444861
-30.72449
0.4786094
2.131101
1.607146
-0.1355237
-0.1817995
-8.368055
0.3520933
-0.8390178
-20.3346
0.1386646
-0.002604735
0.6229828
-0.06261042
0.4429952
-0.4181766
0.104047
-2.117856
0.3432336
-14.36439
-0.218691
-0.3214346
-1.758122
-1.448755
-0.7436132
0.3076588
0.1379608
3.453346
0.2601019
1.903209
-45.9851
-1.891041
0.0156905
-0.02586246
-0.1062691
0.3407376
6.586673
0.0890915
-33.15292
1.229118
-16.88714
4.539244
0.01364608
-24.74095
-1.772852
0.3611722
-0.003661481
-65.96097
0.8862402
-16.11013
-24.84905
-0.3832481
-0.6134902
-3.951309
0.3028808
15.39897
3.055974
0.6214901
-44.03547
0.4456835
-1.200218
-0.6131177
-1.104826
22.21837
-18.77016
-0.0469836
0.7484445
-1.86548
0.147982
-0.02839527
-10.04063
-0.165143
0.1084822
1.548799
-0.134605
-6.143411
8.938579
-0.9047291
-0.06225411
0.04149439
-0.2126078
0.3947391
0.3650917
-22.71387
31.57281
0.03869069
-0.074863
0.3729423
0.2987589
-0.02261666
0.09914313
-55.27241
0.3714028
-47.17669
-14.11253
-0.02466343
0.03742113
-0.1145382
-13.47669
1.633187
-0.05430586
-0.1148992
-0.1314893
-16.18831
-68.86044
-0.629941
0.8475532
-3.478127
0.1314818
0.1725882
0.4339726
-0.1058976
-1.090242
12.64475
-1.118043
0.3515544
0.2868831
0.5015689
2.5687
-3.11901
0.0239636
-2.396693
0.856333
0.3763258
8.951605
-31.58264
0.1925771
0.008337135
-22.14745
-1.62559
0.3287546
-0.4555652
-4.76378
-3.176334
0.1745726
1.072423
-0.07771063
0.01437064
2.816189
-0.136438
0.05143988
35.11315
0.2727403
-1.025662
0.0100206
-84.23156
-1.339888
-0.2940164
2.552196
-1.508228
36.46217
0.1225961
0.2431593
0.6878533
0.4136081
0.02983719
-1.179138
-0.3241052
-0.3047826
-30.59305
-7.693104
-0.2168927
-5.229453
-102.8767
-0.02626755
-0.01017252
-0.1082358
-6.023469
4.260276
34.60351
0.01612976
-1.274638
1.060673
0.01882439
0.01340083
6.372548
0.2623404
-0.4791855
-0.007050881
0.1908668
-1.389686
-0.07429594
0.07138726
-11.9284
0.6716315
-36.44811
1.859406
-0.6055319
-0.02736878
0.1549542
0.08003019
-2.743732
-18.98391
0.02049621
0.1614349
14.01618
-5.838165
3.214665
0.4761447
0.4087448
-17.91551
23.4911
0.5857239
0.0295894
-7.737842
-15.59601
0.02426074
-0.04300708
0.2815149
2.053254
1.395008
-38.58504
-7.308897
2.226424
0.1554063
0.1081108
-0.02160542
-29.73979
-28.99307
-63.62278
1.606362
-26.68154
0.02733631
-0.3304819
-25.04752
0.3804328
1.015902
-18.4893
0.003978448
-0.1387092
0.08055026
0.1912954
-0.0215221
-24.86541
-35.28153
0.4994709
13.43249
1.895948
-0.001818858
-27.63027
25.10485
-50.79884
-0.06627506
0.3271495
0.5418693
0.02131859
-0.003770823
0.4658052
0.4027913
0.3513934
-2.805531
-35.19364
-36.72645
0.4031189
0.02112078
1.702279
-0.04033688
-1.444397
2.221879
-0.2771734
-0.1101199
-1.171483
-1.12964
-0.08760681
-6.511728
-0.2880618
-2.831534
2.241742
0.2326592
-26.50838
2.03267
0.3093088
-4.867906
-17.12715
-2.753639
-0.4264544
0.5699467
-19.41765
-48.57046
32.44681
48.10286
3.238307
-2.088957
0.2592983
4.439862
1.971339
-0.01723155
13.58725
-20.47751
2.438875
0.2354827
0.7437379
1.810283
0.3483296
2.731082
3.320636
-31.09981
-39.01971
0.1257566
0.3221676
0.3601575
2.370796
0.6044146
-37.9287
-0.1101226
-0.3538011
0.3496449
-2.764787
0.1614624
0.231623
-48.06459
-31.53451
2.001829
-0.2310874
0.07714445
2.797678
0.03931143
2.109034
-0.02492668
-86.10134
1.829867
-26.5982
-5.62244
1.773816
1.174037
-47.1194
-81.43454
-2.158828
0.0729396
-0.0769024
-0.3761744
-3.210399
-13.23267
-0.05260054
0.3131442
0.2017547
0.04899005
-0.1444594
0.2750574
1.381415
0.1028946
-1.7277
-0.1086787
-0.07287389
-2.49661
-3.164877
-0.1761887
-1.326402
0.1194991
-2.137047
-0.06965775
2.669639
-0.03560323
-0.5428724
3.016628
-0.01586844
0.04890059
-37.05374
-28.4815
0.0471751
0.2877845
-0.01835679
0.0941303
-17.76722
-4.933841
-29.98744
-19.67964
25.25908
0.1281491
4.018858
0.1271255
-12.42711
-0.08968754
3.29115
-95.90024
0.01021733
2.440359
0.8316077
0.5220757
2.986954
-1.921155
0.2752395
-40.87859
0.0921337
-46.20309
-0.02400138
-12.81322
40.10156
-6.239586
-2.202655
-0.3716533
0.6898358
-0.02904333
8.015225
-0.1980487
8.460725
-3.244228
0.1697203
-12.85359
0.1485085
-0.07808077
-0.445647
-27.97194
-1.188344
-77.01451
7.521217
-0.1493723
8.338597
0.2070835
33.84656
0.06438089
0.2358768
0.0664224
-3.421585
17.59989
0.3854313
-27.82563
0.1376582
-0.1186966
0.3672614
0.3654788
-1.75377
-14.84152
-0.0278182
-0.06306287
-42.19758
0.03578996
24.81897
-5.453567
3.102613
-81.26098
-21.93958
-7.317027
-33.14021
42.34703
4.373249
0.2274633
-24.45448
0.2011336
-0.02950357
-4.127979
2.10104
-27.37923
-42.9053
0.753913
2.084147
0.04961858
0.5032689
-0.2825723
0.09539168
-0.5494509
0.3888843
1.657239
0.06746508
-0.08722108
-0.1778694
0.07301418
0.5628703
0.06272567
-1.525152
-1.361068
-57.84525
0.002982021
-2.318593
-0.1300718
3.389356
-42.51581
2.045891
-0.01914756
0.1573504
-0.07048826
0.07221004
0.2015897
-0.3681737
-0.341333
-53.42398
32.68837
0.7405975
-0.07061472
2.04764
-0.1144027
0.356784
0.3361302
-0.02404371
0.08207962
0.07207028
-2.732038
-0.6448228
-8.545676
0.6847663
-0.7318162
4.170112
0.360595
-0.2755798
-0.03290111
1.282522
1.130134
-36.92473
-0.8619433
-0.06197302
0.04375861
-0.6389222
0.004962962
0.2461439
-25.0998
-0.6306476
0.3381055
0.06111628
-13.21346
-0.1290642
0.07400195
3.276084
-69.41696
0.04959512
-0.008044956
0.1400935
-83.05599
0.1640573
-21.50712
0.1742952
0.1386223
0.5126854
0.3356162
1.27659
-18.91447
-30.49648
-0.09727447
-0.1855295
-9.585636
0.05841087
1.532739
1.802101
3.831906
-2.836486
0.0778095
-0.6459656
-46.77542
0.08078848
0.07054262
0.160174
0.2944671
-0.3737164
1.577575
0.1850006
0.3672751
-15.70716
-0.1508948
-6.31369
13.6295
0.4771399
-5.505622
0.3067475
0.1218089
-0.09959033
-32.36624
-1.886739
-2.991899
-0.05250164
-10.18501
-37.54409
-23.69724
0.1247672
-42.20376
-0.6549148
-0.2454378
-0.7463697
-1.793277
17.20895
0.6073641
-31.55843
-51.67029
-0.02352266
-0.02076037
1.122044
-0.03403622
-0.005475217
-0.01688932
0.3247208
0.01377254
-0.0534795
-7.802463
-0.8960602
0.2018608
0.5144843
0.06350727
0.887947
0.3522913
0.01520878
0.221859
2.382143
0.4305335
-2.259155
0.681503
-1.892195
0.04588555
-26.56112
0.08984328
-6.761243
0.1213432
0.152185
0.0265956
-5.308121
-8.981259
1.566433
-4.436934
0.02912178
9.827596
-36.18423
-23.51423
-0.4778383
1.236377
15.47936
1.708718
-0.2796861
-0.7179874
-4.463242
0.03737641
-57.19819
-18.88138
-10.9632
16.74321
12.12657
0.05144037
-31.19817
-30.18012
-46.63501
1.941932
-8.820199
-3.238066
-0.4458313
-0.06502712
0.02567982
-0.154904
0.03262765
-0.5200167
-0.2491163
-0.4358971
-0.18775
-15.79977
-0.171715
-1.32392
1.387792
-33.69578
20.90167
-0.02086004
-31.75275
-22.20189
-18.4836
14.6207
6.892988
-11.10723
-6.688624
-39.87763
0.04345582
-38.13802
1.8429
-65.51571
-30.73563
0.003808803
0.4229648
20.69842
-0.1576818
15.31609
-0.2851677
-0.0356985
1.610177
0.07599056
0.05103264
-0.06200813
0.4084011
-1.402026
0.5464305
-22.37385
-0.00779983
0.3920179
0.2177535
-0.2333753
-0.3227535
-1.754543
0.09471596
-54.16459
-2.423029
0.0008071455
30.25606
0.0374473
1.794902
-24.15997
-3.454977
-42.61939
0.2893751
-0.02535964
0.2480749
0.3042608
0.2405539
0.02355474
-0.2746564
9.305005
-0.07361727
0.1796678
0.0655851
15.37907
3.787025
-25.87296
12.00146
0.4669844
0.179159
-54.58911
0.1858433
-0.587809
2.017658
1.665197
0.008848415
-36.05522
-40.94696
-48.09327
0.0007857359
0.06011159
-35.23342
-0.07289081
-27.05492
-0.1938262
2.409835
0.6390031
-22.64874
-0.0003035811
-80.74631
1.688469
-8.45089
-0.1326586
0.3400176
10.99689
0.3843994
-2.140608
0.4897904
0.05509114
0.121272
19.57366
-2.541584
-36.6899
0.2934181
0.2697963
-0.0440772
0.7121923
0.651099
1.187908
0.1096362
2.386631
-0.4826329
0.02806383
-53.03529
0.3325112
0.01154616
-2.780092
-1.316349
-0.634171
-0.458544
0.1658219
-0.005776588
0.6018975
-48.51782
29.59605
-10.83398
-0.02887768
-0.04267578
-18.98499
0.07079247
-0.6825142
0.2450206
0.05344277
0.06003536
1.548764
-1.606343
-93.59086
0.9674872
22.14914
31.6289
2.72025
0.3015644
0.1515779
-0.2042791
2.053122
0.01807517
33.6619
-34.85948
0.06974144
-2.452178
-0.1792475
0.4840402
0.1642127
0.05569257
1.528426
2.484896
-0.1796776
-47.5402
0.3831123
0.3667369
0.1625996
-4.094462
-5.800251
-0.2561233
-0.0674584
-52.25106
35.03972
-51.72565
1.009491
-13.55237
-7.214421
-0.1537798
0.4304543
34.11956
0.08898389
0.02832218
0.4541304
-1.982363
-0.01312642
-24.54851
0.4640804
0.01240926
-0.1925269
-0.3750983
21.08631
0.04108744
0.1089648
0.2272671
0.001923853
0.06138618
22.3336
3.352311
10.93195
-56.24374
-40.76568
-0.1339141
-0.077954
-15.12438
0.1407168
-22.79232
-8.117657
-0.007808039
4.245786
-1.549127
0.5667123
-4.730541
9.900131
0.3017794
-14.09558
-0.01157347
-0.3655905
-4.094388
-35.61769
-10.23182
1.749793
2.621903
-0.006959274
0.06463841
-0.03190188
-0.05463843
0.2894111
2.436794
-45.50233
0.5968769
0.1261197
-0.2152025
-9.237639
0.1662783
0.661493
-3.660507
4.024597
-1.570972
-0.7833207
39.11642
0.04443659
0.2816391
-1.360682
-1.035633
-33.35471
-32.36258
-47.81682
12.65411
2.433872
-0.3530817
0.3964553
0.4009044
-0.05874047
1.971516
-0.08576901
0.4868022
1.741839
1.862388
-0.011156
-1.511415
12.81119
9.676331
-0.0001239322
0.1019459
0.8220219
0.7426828
0.1095597
0.2604163
1.210916
-30.45457
-22.22975
-0.621624
0.3345774
-49.5335
43.34177
-59.43014
0.2110994
2.475361
3.991953
0.08579832
8.091569
-13.71333
-0.01870913
3.367685
0.8328675
4.07937
0.3204477
-0.01438244
1.719009
-95.21985
-1.196316
-0.03623513
-0.09386009
0.424718
-69.60379
-20.89058
-42.95712
-0.7897847
14.60681
0.2105904
-0.3415776
-0.2051697
2.147586
-41.82433
-0.2991991
3.370453
27.66652
0.3544412
0.3897333
0.2469667
23.09264
-2.242999
0.08126799
3.08695
0.07548194
-0.4035727
0.08813548
-91.6532
-0.1077404
-79.29636
-0.0718443
-2.519475
48.08028
-3.829591