/*--------------------------------*- C++ -*----------------------------------*\
| =========                 |                                                 |
| \\      /  F ield         | OpenFOAM: The Open Source CFD Toolbox           |
|  \\    /   O peration     | Version:  2406                                  |
|   \\  /    A nd           | Website:  www.openfoam.com                      |
|    \\/     M anipulation  |                                                 |
\*---------------------------------------------------------------------------*/
FoamFile
{
    version     2.0;
    format      ascii;
    arch        "LSB;label=32;scalar=64";
    class       volVectorField;
    location    "0.76";
    object      U;
}
// * * * * * * * * * * * * * * * * * * * * * * * * * * * * * * * * * * * * * //

dimensions      [0 1 -1 0 0 0 0];

internalField   nonuniform List<vector> 
15536
(
(0.107153 0.5373218 -7.887851e-23)
(0.1403077 -1.906772 -5.265497e-19)
(0.3687912 -2.766933 -1.325699e-18)
(0.5836991 -3.799105 -1.366069e-18)
(0.3980023 -2.702336 -1.613997e-20)
(-0.1630255 0.086102 5.530539e-21)
(-0.6047392 2.153395 1.425056e-20)
(-0.6580408 2.338649 -1.417634e-20)
(-0.504621 1.684007 4.508909e-18)
(1.090425 -2.253839 4.802563e-18)
(1.971319 -4.139882 0)
(1.330812 -2.797128 0)
(0.2180896 -0.6631123 -2.985275e-20)
(-1.176325 1.746901 8.166376e-18)
(-2.323783 3.51147 5.355441e-18)
(-3.073602 4.377482 -1.315099e-17)
(-3.4304 4.572765 7.108961e-18)
(-3.001736 3.841263 4.589231e-20)
(-1.47058 1.904242 -7.93332e-20)
(0.6897649 -0.5113175 3.26607e-20)
(2.802508 -2.458534 0)
(4.282469 -3.529964 1.238937e-18)
(3.156717 -2.543598 0)
(0.218695 -0.3276656 1.592815e-18)
(-1.971816 1.221262 -1.988387e-20)
(-3.275085 2.000606 -4.059081e-20)
(-4.416501 2.489089 3.972472e-20)
(-6.319333 3.202238 -7.439797e-18)
(-9.196265 4.238508 -1.184705e-17)
(-11.89451 5.146809 0)
(-10.55525 4.536066 -6.550802e-20)
(-1.679753 1.080675 -7.09648e-18)
(6.031747 -1.858759 4.214804e-18)
(0.1424439 -0.4439862 0)
(-3.942953 0.5471773 -7.122093e-18)
(-4.780021 0.804629 -3.194764e-20)
(-3.875031 0.4305337 4.145358e-18)
(1.140639 0.008425538 -1.895526e-18)
(7.79311 0.1477885 1.782945e-21)
(11.68855 0.5988157 -4.450531e-19)
(13.67993 1.182148 1.806555e-18)
(14.71659 1.849543 -2.87099e-20)
(15.32049 2.560462 2.843758e-20)
(15.66009 3.271797 0)
(15.82021 3.971438 -7.127213e-18)
(15.82738 4.645258 -7.065666e-18)
(15.67717 5.281647 0)
(15.43209 5.885383 -1.346486e-17)
(15.11981 6.461025 1.31334e-17)
(14.76376 7.010755 1.269678e-17)
(14.35334 7.519427 4.644037e-20)
(13.88208 7.982601 -1.159512e-17)
(13.35823 8.395066 0)
(12.79092 8.758771 0)
(12.18919 9.070191 9.545857e-18)
(11.55045 9.321014 8.836041e-18)
(10.89442 9.522644 5.987014e-20)
(10.22744 9.673158 7.168007e-18)
(9.535394 9.752451 1.283472e-17)
(8.831769 9.769466 5.596449e-18)
(8.124897 9.727303 4.712331e-18)
(7.428954 9.635803 -3.386109e-20)
(6.740388 9.484294 0)
(6.056642 9.265395 2.142577e-18)
(5.392517 8.996659 0)
(4.743972 8.66326 -3.821959e-19)
(4.117657 8.273728 -2.923158e-20)
(3.526414 7.837856 -3.123585e-21)
(2.969441 7.353104 6.527469e-21)
(2.451012 6.823241 -2.835401e-18)
(1.977639 6.257781 -1.510999e-20)
(1.550018 5.654303 2.129732e-18)
(1.169872 5.015316 2.432278e-18)
(0.8428809 4.357002 0)
(0.5684088 3.681121 0)
(0.3489646 2.98093 3.164659e-18)
(0.1827683 2.254904 -5.559796e-22)
(0.07496525 1.499511 8.890557e-19)
(0.02917542 0.696002 1.662999e-21)
(0.03255269 -0.1042215 -7.183116e-21)
(0.08764031 -0.8320332 -1.80087e-18)
(0.1979844 -1.539153 0)
(0.3634757 -2.239499 3.343131e-18)
(0.5821634 -2.923493 0)
(0.8523528 -3.583085 -2.931613e-18)
(1.171398 -4.214281 2.658897e-18)
(1.538821 -4.815641 1.993166e-20)
(1.950676 -5.38431 4.255252e-18)
(2.403066 -5.909256 1.291089e-20)
(2.891816 -6.388427 -2.996314e-18)
(3.413953 -6.823999 -2.300107e-18)
(3.966352 -7.209962 1.478824e-20)
(4.546622 -7.548264 -8.189198e-19)
(5.146832 -7.833807 6.008139e-20)
(5.759802 -8.063071 8.388404e-21)
(6.374366 -8.225021 5.840207e-21)
(6.995482 -8.333253 -2.183293e-18)
(7.618766 -8.387996 0)
(8.235814 -8.382555 7.195887e-18)
(8.848192 -8.326991 4.247722e-18)
(9.436933 -8.208629 8.417523e-20)
(9.998162 -8.030301 -5.651009e-18)
(10.52774 -7.795507 0)
(11.02385 -7.508808 0)
(11.4845 -7.178166 0)
(11.9006 -6.802306 0)
(12.26136 -6.382264 8.208272e-18)
(12.56353 -5.923053 8.641966e-18)
(12.79714 -5.428096 2.57211e-20)
(12.91519 -4.888687 -9.166382e-18)
(12.89786 -4.30716 -4.635081e-18)
(12.70745 -3.685895 -4.728699e-18)
(12.2178 -3.024876 3.682758e-20)
(11.14242 -2.336381 4.645734e-18)
(8.882517 -1.553281 2.339439e-18)
(4.411214 -0.6226855 -1.869291e-20)
(0.3623878 0.1015777 -4.724695e-21)
(0.6019387 -0.05272591 3.091143e-19)
(-4.379707 -0.4535339 -7.595325e-19)
(-8.204172 -0.8395275 -1.795791e-20)
(-7.200406 -0.83207 1.178605e-20)
(-4.800432 -0.615347 1.773641e-18)
(-2.52218 -0.3708066 1.258262e-20)
(-0.8240851 -0.06437258 0)
(2.008947 0.7091753 -1.256832e-18)
(5.794506 1.934226 -3.74903e-19)
(2.206997 0.5078962 -2.677693e-21)
(-4.749595 -2.369847 7.780011e-18)
(-6.686639 -3.23871 -9.337912e-18)
(-5.934223 -3.060388 0)
(-4.5554 -2.521057 0)
(-2.792566 -1.627765 -4.6308e-18)
(-0.8687827 -0.4956668 0)
(0.891384 0.6620917 1.530337e-20)
(1.508322 1.160925 -1.802713e-18)
(1.209744 1.031783 -1.657351e-18)
(0.7318995 0.6749382 1.360464e-20)
(0.6103038 0.6109299 -3.710196e-18)
(0.7889949 0.8705421 -3.344894e-20)
(0.971783 1.145988 4.88869e-18)
(0.9703156 1.230468 2.651841e-18)
(0.8650242 1.182725 2.775061e-18)
(0.7966008 1.191126 2.799949e-18)
(0.8266292 1.354756 0)
(0.9151501 1.644196 -1.189582e-20)
(1.045704 2.076963 -2.672159e-18)
(1.207368 2.650442 0)
(1.367991 3.342353 2.742523e-18)
(1.50977 4.136175 -2.275995e-20)
(1.609661 4.991291 1.166358e-20)
(1.645966 5.861828 1.751278e-18)
(1.610068 6.70329 7.208794e-21)
(1.496033 7.463195 0)
(1.294075 8.051221 1.172658e-18)
(1.05118 8.45499 9.438039e-21)
(0.7934698 8.03057 2.264747e-21)
(0.4478221 5.397091 -2.760166e-21)
(0.4254583 5.314356 -1.908145e-19)
(0.3459966 -1.791612 4.136589e-19)
(0.5774677 -4.16677 0)
(0.6754447 -4.49929 1.124964e-18)
(0.3587595 -3.399418 0)
(-0.1875034 -0.85821 2.302843e-18)
(-0.5150413 1.301143 1.182339e-20)
(-0.5094681 1.684103 -1.187297e-20)
(0.05523483 0.7678579 -3.565931e-18)
(2.129527 -4.314223 -3.720406e-18)
(2.101595 -4.655333 0)
(1.154096 -2.909825 2.317979e-20)
(0.06009562 -0.8507441 1.877635e-22)
(-1.374995 1.63997 -3.238973e-18)
(-2.515115 3.492008 -8.790087e-18)
(-3.28795 4.405145 5.335421e-18)
(-3.655511 4.645744 -5.726633e-18)
(-3.677028 4.579221 -4.303846e-20)
(-2.666582 3.445748 0)
(-0.08699282 0.6713233 0)
(3.763896 -3.084738 0)
(5.393763 -4.622793 9.898727e-19)
(3.083638 -2.954672 6.808227e-21)
(0.2901301 -0.7837113 -7.038581e-21)
(-1.360939 0.5833793 2.650179e-20)
(-2.379124 1.281057 -2.639017e-20)
(-3.332138 1.624587 0)
(-4.794364 1.995685 0)
(-7.334428 2.815811 1.945264e-17)
(-9.470182 3.606647 1.245264e-19)
(-11.43156 4.838118 -1.163968e-19)
(-5.737409 2.958933 5.323857e-18)
(3.800055 -0.9497938 3.455886e-18)
(1.971682 -0.9968958 -3.847603e-20)
(1.562224 -0.6313555 -5.97103e-18)
(1.691695 -0.3540642 3.422266e-18)
(5.73711 -0.243999 -6.546394e-22)
(12.83213 -0.1690932 1.228407e-18)
(17.96622 -0.008112203 0)
(19.40111 0.311314 3.201829e-19)
(19.74371 0.8365535 2.687296e-18)
(19.80396 1.508441 2.793027e-18)
(19.7299 2.231126 2.821092e-18)
(19.55959 2.95654 -8.770595e-20)
(19.32435 3.691273 5.715225e-18)
(19.03343 4.416412 -4.349651e-20)
(18.70292 5.130236 0)
(18.31386 5.814615 1.072911e-17)
(17.862 6.468453 0)
(17.36732 7.089912 -7.656559e-20)
(16.82134 7.665211 7.676485e-20)
(16.2202 8.191421 9.255852e-18)
(15.57112 8.6621 -6.568976e-20)
(14.88091 9.077394 8.216758e-18)
(14.1574 9.432916 -7.677402e-18)
(13.40484 9.724668 0)
(12.63345 9.962926 4.740138e-20)
(11.85002 10.14284 -5.878589e-18)
(11.04962 10.2501 -1.023699e-17)
(10.23662 10.28675 0)
(9.424177 10.26373 -3.782141e-18)
(8.621717 10.18242 -2.117294e-20)
(7.829741 10.03454 2.369597e-18)
(7.049178 9.819138 1.030353e-20)
(6.287389 9.542105 -1.04238e-20)
(5.549182 9.199578 3.100729e-19)
(4.836481 8.796837 3.776032e-19)
(4.161469 8.338878 0)
(3.52537 7.831275 0)
(2.933008 7.277431 -2.370981e-20)
(2.389023 6.679367 0)
(1.896693 6.039381 0)
(1.457793 5.362241 0)
(1.077261 4.659167 -2.241649e-18)
(0.7540848 3.937671 1.819419e-20)
(0.4962048 3.188545 1.127937e-20)
(0.2962098 2.412157 -5.508665e-21)
(0.164177 1.603206 -7.288214e-19)
(0.1079864 0.7454518 3.026644e-21)
(0.1022637 -0.1065955 -7.592624e-19)
(0.1631588 -0.8898183 1.469878e-18)
(0.2945183 -1.65008 1.127249e-20)
(0.4891094 -2.401067 -2.71348e-18)
(0.7441892 -3.134548 -4.040776e-20)
(1.058649 -3.842515 2.431458e-18)
(1.428017 -4.517678 -2.210956e-18)
(1.853267 -5.159103 0)
(2.326379 -5.765498 -6.949589e-18)
(2.845101 -6.321445 -2.122746e-20)
(3.406566 -6.829109 2.431842e-18)
(4.004754 -7.292488 1.874885e-18)
(4.636731 -7.699285 0)
(5.300381 -8.051442 0)
(5.9876 -8.352387 0)
(6.689552 -8.587597 6.361291e-21)
(7.400755 -8.753905 -6.323125e-21)
(8.120792 -8.861297 1.691402e-18)
(8.844179 -8.908713 4.664542e-21)
(9.566829 -8.89316 -2.911076e-18)
(10.2827 -8.819611 -6.318315e-20)
(10.98165 -8.683825 7.94982e-18)
(11.65573 -8.483964 4.482607e-18)
(12.30049 -8.223559 -3.671243e-20)
(12.91773 -7.908881 5.320127e-18)
(13.50263 -7.54416 4.357794e-20)
(14.04655 -7.126906 -4.957111e-20)
(14.54187 -6.663019 4.942288e-20)
(14.98355 -6.155035 5.393823e-20)
(15.37296 -5.612033 7.07397e-18)
(15.72607 -5.049542 -5.545047e-20)
(16.02113 -4.466936 0)
(16.25253 -3.877178 0)
(16.41703 -3.289646 0)
(16.42875 -2.766364 0)
(16.05063 -2.339373 1.265124e-20)
(13.60826 -1.765017 -1.27677e-20)
(9.317851 -0.9320139 8.321583e-19)
(2.367135 -0.3389239 3.53937e-21)
(-4.864714 -0.6737518 0)
(-4.973471 -0.5743364 -1.487736e-18)
(-2.153341 0.1076608 2.328438e-18)
(-0.3083215 0.3315974 -1.53344e-18)
(1.055188 0.4556823 1.557333e-20)
(1.804864 0.6770842 -1.740555e-18)
(3.357888 1.34371 1.057688e-20)
(6.466675 2.224956 0)
(0.6078305 -0.5772412 2.361628e-18)
(-6.473913 -3.323885 -1.197944e-17)
(-6.397927 -2.912341 -7.618054e-18)
(-5.866154 -2.790931 -9.079043e-21)
(-4.550267 -2.285836 -8.435927e-20)
(-2.912002 -1.463738 3.624321e-20)
(-1.149545 -0.4074158 0)
(0.8210698 0.874386 1.712397e-18)
(2.364832 1.931693 1.437219e-18)
(2.262101 1.849513 5.07095e-22)
(0.9547041 0.8113708 -1.319593e-18)
(0.5661939 0.5826413 3.078267e-18)
(0.7715342 0.9136909 1.764204e-18)
(1.021183 1.24723 -3.314811e-22)
(1.076544 1.397604 -2.174811e-18)
(1.01156 1.411817 -1.750623e-20)
(0.9359357 1.467129 -2.305516e-18)
(0.9487286 1.66743 1.784665e-20)
(1.020734 1.993639 -1.995086e-21)
(1.121874 2.460386 -1.431261e-20)
(1.254495 3.065685 0)
(1.379352 3.793201 0)
(1.482528 4.625408 -2.3296e-18)
(1.541982 5.520845 0)
(1.531858 6.435756 -2.838136e-18)
(1.451193 7.333701 1.595862e-18)
(1.293463 8.157529 -1.440331e-20)
(1.058615 8.855779 1.426555e-20)
(0.7715402 9.270686 1.001964e-18)
(0.5832232 9.761705 -4.911849e-19)
(0.5657293 9.594098 -2.084082e-19)
(0.8694127 8.56386 1.441084e-19)
(0.713766 1.33477 -3.107947e-19)
(0.757199 -4.208132 1.377223e-20)
(0.6896819 -4.525561 -9.452726e-19)
(0.1642625 -3.595762 0)
(-0.3097948 -1.567994 -1.851626e-18)
(-0.4017787 0.4137829 -1.957065e-20)
(-0.02350653 0.424704 1.412929e-18)
(1.112692 -1.212429 2.816902e-18)
(2.605724 -4.937028 2.971132e-18)
(1.911994 -4.344402 3.232869e-18)
(1.025289 -3.123331 -2.200163e-20)
(-0.1971918 -0.9730293 0)
(-1.604292 1.502465 0)
(-2.625199 3.379574 3.499853e-18)
(-3.292024 4.329993 4.402003e-18)
(-3.566581 4.619959 4.818437e-18)
(-3.430642 4.49043 7.106112e-20)
(-2.602252 3.762175 0)
(-0.4932088 1.667056 1.897652e-18)
(3.401958 -2.250422 1.13174e-18)
(5.059939 -4.314852 -8.209862e-19)
(2.781693 -3.116252 0)
(0.8045675 -1.490659 1.034659e-18)
(-0.08638663 -0.4154264 0)
(-0.582937 0.09785637 -3.335539e-18)
(-1.009234 0.2568196 0)
(-2.107612 0.4354595 -5.288225e-18)
(-4.627546 1.280433 -1.630662e-17)
(-6.801547 2.415638 0)
(-7.589572 3.735483 0)
(-5.770594 3.570381 3.40129e-20)
(2.426118 -0.07889404 -2.59152e-18)
(8.163896 -2.152581 3.224095e-18)
(10.94096 -2.028929 8.563168e-18)
(12.76289 -1.364617 -2.295995e-18)
(15.76345 -0.6287988 2.045249e-18)
(18.87729 -0.09080492 -9.303991e-19)
(19.59839 0.2493888 0)
(19.17776 0.6926144 0)
(19.17239 1.354509 -2.235849e-18)
(19.17289 2.100941 -2.343658e-18)
(19.11834 2.85811 -4.613348e-18)
(18.98386 3.610996 4.583618e-18)
(18.78698 4.355544 1.080682e-19)
(18.52819 5.06942 -7.181556e-20)
(18.19943 5.758075 0)
(17.80152 6.405632 0)
(17.34757 7.023003 8.44579e-18)
(16.85126 7.610195 -8.175856e-18)
(16.3072 8.148432 0)
(15.71015 8.637409 0)
(15.06864 9.069511 1.078919e-19)
(14.38762 9.448067 -6.852539e-18)
(13.67654 9.766617 0)
(12.93964 10.02063 -5.683743e-18)
(12.18486 10.22346 -5.190379e-18)
(11.42118 10.36891 -4.611919e-18)
(10.64457 10.44084 4.123397e-18)
(9.855326 10.44475 -5.187336e-20)
(9.067938 10.39225 3.059659e-18)
(8.291455 10.28394 0)
(7.528321 10.10969 -1.935358e-18)
(6.778201 9.869775 -1.652178e-20)
(6.044768 9.572613 9.021725e-21)
(5.34012 9.209413 1.93916e-19)
(4.659451 8.789561 0)
(4.01567 8.317271 -9.170246e-19)
(3.409578 7.798416 -1.299484e-20)
(2.848186 7.235336 1.927746e-18)
(2.332264 6.631462 1.208e-18)
(1.86691 5.988009 -1.430584e-18)
(1.452335 5.310143 -1.639911e-18)
(1.092986 4.608817 1.82496e-18)
(0.7878751 3.892071 -2.001675e-18)
(0.5501539 3.149189 -1.047089e-18)
(0.3631454 2.3827 2.247944e-18)
(0.2425444 1.586427 1.191542e-18)
(0.1950672 0.742787 2.450266e-21)
(0.1814816 -0.09361167 6.289221e-19)
(0.2371949 -0.8688211 -9.522914e-21)
(0.3658788 -1.622963 0)
(0.5526938 -2.369396 -1.714412e-20)
(0.794612 -3.099268 -1.531405e-20)
(1.092866 -3.804312 -1.921746e-18)
(1.441463 -4.478335 3.630542e-18)
(1.846726 -5.119386 -1.641694e-18)
(2.294735 -5.728888 2.81554e-18)
(2.786024 -6.290148 2.066289e-20)
(3.321626 -6.804374 0)
(3.891244 -7.27808 1.570489e-18)
(4.494143 -7.697258 1.318796e-20)
(5.130338 -8.063193 -6.309637e-19)
(5.788028 -8.382632 0)
(6.460589 -8.63844 3.768799e-19)
(7.146498 -8.825192 0)
(7.842201 -8.955723 -4.245765e-20)
(8.54151 -9.028965 1.825109e-18)
(9.243889 -9.039158 0)
(9.939327 -8.994984 -2.806024e-18)
(10.62019 -8.890051 -3.25631e-18)
(11.27877 -8.721755 -3.675067e-18)
(11.91042 -8.492837 0)
(12.51819 -8.208465 -8.880363e-18)
(13.09586 -7.874881 7.146886e-20)
(13.63574 -7.487494 0)
(14.13001 -7.052598 0)
(14.57361 -6.573417 0)
(14.96522 -6.056587 5.719642e-18)
(15.29664 -5.508312 -5.882558e-18)
(15.56158 -4.925819 0)
(15.75516 -4.312081 0)
(15.89342 -3.692185 2.920462e-18)
(15.97097 -3.089419 2.27208e-20)
(16.22467 -2.633873 0)
(16.28583 -2.289011 0)
(15.08583 -1.804827 -1.208755e-18)
(8.482606 -1.189711 1.601913e-19)
(-1.72383 -0.7260787 0)
(0.7193461 0.08675518 1.290474e-18)
(3.19736 0.9401759 4.263624e-20)
(4.82645 1.27845 -9.438792e-21)
(5.643595 1.371082 -1.584742e-20)
(5.60728 1.513223 1.340052e-18)
(5.318731 1.921231 7.829182e-19)
(5.839182 1.82999 8.387678e-21)
(-0.9537607 -1.807882 2.557293e-20)
(-5.514646 -3.339212 4.843083e-18)
(-5.822255 -2.696386 6.415812e-18)
(-5.342051 -2.43556 0)
(-4.185787 -1.903848 4.453429e-18)
(-2.726586 -1.134589 0)
(-1.207751 -0.1892276 -2.621848e-20)
(0.5353007 0.9329853 -1.353441e-18)
(2.33084 2.010788 1.77783e-20)
(2.483683 1.93097 -1.759108e-20)
(1.009381 0.7042121 1.083206e-18)
(0.5603175 0.547997 -1.274038e-18)
(0.7113604 0.9049583 -1.452534e-18)
(0.9945817 1.249049 -1.685249e-18)
(1.097095 1.420099 -1.784021e-18)
(1.057079 1.448033 0)
(0.971762 1.507532 7.279497e-22)
(0.9627053 1.698226 0)
(1.01827 2.008099 -1.8575e-18)
(1.094921 2.458486 1.800146e-18)
(1.215766 3.042402 0)
(1.330569 3.745133 0)
(1.4307 4.547128 3.816624e-18)
(1.502399 5.4092 -1.036752e-18)
(1.513341 6.291852 2.318951e-18)
(1.466127 7.15977 -1.078196e-20)
(1.358506 7.962646 1.067035e-20)
(1.18892 8.628702 0)
(0.9741958 9.115377 -8.234193e-19)
(0.74424 9.241701 8.018683e-19)
(0.7826152 9.859371 1.730382e-19)
(1.184083 9.757237 -2.328759e-19)
(1.219112 5.442761 -8.495254e-21)
(0.9385168 -1.635623 9.572995e-21)
(0.5224875 -3.64948 -2.147801e-20)
(-0.1341837 -3.131937 2.011925e-20)
(-0.4308061 -2.112003 7.505938e-19)
(-0.169118 -0.6894695 -1.588392e-20)
(0.7318389 -1.299371 -1.125314e-18)
(2.058081 -2.920515 3.301663e-20)
(2.750816 -4.945587 -2.446679e-18)
(1.777912 -4.346861 -1.923493e-20)
(0.8115587 -3.247482 0)
(-0.4804092 -1.16745 0)
(-1.874169 1.337856 -2.135305e-18)
(-2.758078 3.256711 -2.925205e-18)
(-3.327449 4.227454 -7.25189e-18)
(-3.54843 4.539124 -3.980891e-18)
(-3.282937 4.438856 0)
(-2.331165 3.839849 0)
(-0.5125897 2.330247 -3.110134e-18)
(2.637777 -0.8978534 -1.859768e-18)
(4.244176 -3.510042 8.34272e-21)
(2.473705 -3.206118 -1.70361e-20)
(1.637656 -2.326481 -1.669808e-18)
(1.618067 -1.595719 -1.928885e-18)
(1.775623 -1.332652 2.710275e-18)
(1.684658 -1.317257 3.232751e-18)
(0.3379546 -1.118132 4.180642e-18)
(-1.892307 -0.4072696 7.040842e-18)
(-3.708166 0.9038171 0)
(-3.691013 2.502781 -1.561009e-19)
(-3.459859 3.438343 -7.144128e-18)
(4.761006 0.09711732 5.447475e-20)
(14.16776 -2.79947 2.227339e-20)
(17.00804 -2.818571 -3.165592e-18)
(18.55955 -2.033088 -1.649104e-18)
(19.51201 -0.9529087 -5.461682e-20)
(19.566 -0.2674958 -7.597609e-19)
(18.99497 -0.01427324 -3.976115e-19)
(19.00669 0.3105636 -3.328262e-21)
(19.22554 0.8827536 0)
(19.32549 1.560135 -2.936556e-20)
(19.32211 2.280732 1.938658e-18)
(19.21653 3.011952 -7.577649e-18)
(19.036 3.753218 5.835475e-20)
(18.78438 4.476175 -3.741281e-18)
(18.45973 5.177967 -1.12569e-19)
(18.06808 5.838799 -7.07208e-18)
(17.61761 6.473996 1.722166e-21)
(17.12344 7.084991 6.743915e-18)
(16.58283 7.643659 -6.368683e-18)
(15.98821 8.156453 0)
(15.34844 8.611652 8.732104e-20)
(14.66725 9.015343 -8.785454e-20)
(13.95395 9.360076 0)
(13.21183 9.642656 4.68298e-18)
(12.45052 9.873964 8.047351e-20)
(11.67861 10.04794 3.856616e-18)
(10.89351 10.14726 -3.330321e-18)
(10.09751 10.17446 -2.877434e-18)
(9.299056 10.14695 -2.475359e-18)
(8.512188 10.06188 -1.96943e-18)
(7.739066 9.908808 2.010399e-20)
(6.977753 9.688933 -2.029685e-20)
(6.233074 9.410604 0)
(5.516609 9.064927 -1.530402e-19)
(4.823088 8.661609 -8.458441e-21)
(4.167352 8.203786 7.621128e-19)
(3.549436 7.698023 1.181967e-18)
(2.97884 7.145964 -1.585087e-18)
(2.453872 6.552137 -9.919214e-19)
(1.980035 5.917815 -6.114354e-21)
(1.557219 5.248538 1.345983e-18)
(1.192924 4.554694 2.436157e-20)
(0.8823141 3.846305 1.604934e-18)
(0.6439538 3.111547 1.393445e-20)
(0.4563794 2.354995 -9.394213e-19)
(0.33848 1.571909 -4.853796e-19)
(0.2978674 0.7432323 -6.132301e-23)
(0.2752317 -0.07519927 4.989861e-19)
(0.3278451 -0.845909 7.802762e-21)
(0.455502 -1.597917 -9.599688e-19)
(0.6429437 -2.340616 1.839589e-18)
(0.8857211 -3.064406 0)
(1.18602 -3.761934 -1.954213e-21)
(1.536742 -4.427564 -1.492176e-18)
(1.946744 -5.059274 1.38518e-18)
(2.397824 -5.659589 -2.408875e-18)
(2.89641 -6.208628 2.909713e-20)
(3.441262 -6.709804 -2.884031e-20)
(4.01594 -7.172111 -1.290785e-18)
(4.627286 -7.576694 0)
(5.276167 -7.925397 5.131258e-19)
(5.941263 -8.230184 -3.604811e-21)
(6.622495 -8.468583 -3.941706e-20)
(7.318448 -8.636229 -6.516908e-19)
(8.02239 -8.748188 -1.116251e-18)
(8.729223 -8.801858 -2.418026e-20)
(9.438775 -8.79129 1.834517e-18)
(10.14207 -8.724554 -3.186682e-20)
(10.82858 -8.597665 -2.575013e-18)
(11.49231 -8.405869 0)
(12.12999 -8.151519 3.236386e-18)
(12.74136 -7.84424 3.603959e-18)
(13.31889 -7.491909 3.748193e-18)
(13.85781 -7.085685 -4.000304e-18)
(14.34981 -6.6346 4.285876e-18)
(14.79116 -6.140873 0)
(15.1801 -5.612534 -9.359168e-18)
(15.50881 -5.059068 9.707833e-18)
(15.76803 -4.475653 -1.139924e-19)
(15.9491 -3.875681 -2.42441e-18)
(16.03996 -3.284277 -2.396286e-18)
(16.01086 -2.734637 0)
(15.92476 -2.324077 1.127454e-18)
(15.97825 -2.077441 -1.051665e-18)
(16.62732 -2.058076 4.825909e-19)
(14.05788 -2.043895 -1.207496e-19)
(6.520074 -1.175839 -3.650798e-19)
(6.256533 0.5948992 1.427098e-20)
(8.319221 1.806034 -1.382486e-18)
(9.340993 2.158643 8.82067e-22)
(9.581409 2.150733 0)
(8.98173 2.17702 0)
(7.476732 2.341255 -1.274359e-20)
(5.383241 1.227375 1.275081e-20)
(-1.51568 -2.755924 0)
(-4.332413 -3.231161 0)
(-5.25881 -2.403838 0)
(-4.824919 -2.036198 4.746151e-18)
(-3.758357 -1.464878 -7.32972e-18)
(-2.432936 -0.7232017 2.556408e-18)
(-1.129584 0.1335998 -1.608749e-18)
(0.3242717 1.091365 -3.756319e-20)
(2.082406 1.976241 9.683562e-19)
(2.330223 1.668978 8.994905e-19)
(0.9972102 0.5109912 1.47041e-20)
(0.5079793 0.4931072 2.297065e-21)
(0.5928188 0.8564326 -1.738939e-20)
(0.896642 1.190423 -2.236102e-20)
(1.035629 1.367238 1.51829e-18)
(1.028325 1.415842 0)
(0.9376547 1.487248 1.571517e-18)
(0.9089462 1.67697 -1.55923e-18)
(0.9443972 1.979846 1.529394e-18)
(0.98832 2.414285 0)
(1.084256 2.971279 0)
(1.171124 3.63982 -2.407938e-20)
(1.249271 4.403496 -1.569321e-18)
(1.306993 5.231038 8.787395e-19)
(1.305153 6.085562 -9.524066e-19)
(1.251449 6.930782 0)
(1.142234 7.715437 0)
(0.9661969 8.371112 0)
(0.7413258 8.846961 -6.616812e-19)
(0.5390125 9.044351 -3.450572e-19)
(0.6865455 9.160286 -2.913489e-19)
(1.316697 9.525925 9.816044e-20)
(1.671565 8.499011 0)
(1.238172 3.312755 -5.319376e-19)
(0.3918833 -0.3249405 0)
(-0.432832 -1.530616 -9.500848e-19)
(-0.5203358 -2.259764 0)
(0.1160602 -1.580358 0)
(1.391539 -2.607367 -8.576709e-19)
(2.622514 -3.849776 -1.840905e-18)
(2.705488 -4.727742 2.066907e-18)
(1.639473 -4.371249 -2.160264e-18)
(0.5233788 -3.319491 1.739807e-18)
(-0.816661 -1.381689 0)
(-2.186582 1.121369 3.484038e-18)
(-2.92314 3.120877 2.386202e-18)
(-3.389665 4.139232 3.075492e-18)
(-3.531076 4.50265 -9.935191e-20)
(-3.159881 4.465241 -8.4481e-20)
(-2.107451 3.971235 -2.209798e-18)
(-0.4330037 2.842632 2.618732e-18)
(1.851649 0.5177619 7.654173e-19)
(3.257273 -2.373062 1.343516e-20)
(2.266603 -3.154748 2.607415e-19)
(2.747418 -3.169269 6.923204e-19)
(3.594765 -2.821855 1.555186e-18)
(4.230667 -2.755681 0)
(4.20572 -2.812272 -7.019259e-22)
(3.051452 -2.828707 0)
(1.415073 -2.347366 5.523214e-18)
(0.00829135 -0.8101544 9.737507e-18)
(0.07180173 1.2064 1.113377e-17)
(0.5173079 2.744285 -2.370807e-19)
(9.270478 0.07258169 6.509823e-20)
(17.22109 -2.71413 -3.551554e-18)
(18.23573 -2.880104 0)
(19.19563 -2.166362 -1.253877e-18)
(19.31716 -1.026497 -1.356692e-18)
(18.82204 -0.2364812 1.286813e-18)
(18.58292 0.1842138 3.167762e-19)
(18.75814 0.6770161 0)
(18.9142 1.320226 7.389228e-19)
(18.99324 2.030218 0)
(18.97791 2.753831 0)
(18.86881 3.46563 3.166985e-18)
(18.6858 4.19682 -4.822187e-20)
(18.43768 4.892015 5.117368e-20)
(18.11669 5.565488 -2.954909e-18)
(17.73137 6.192388 5.940221e-18)
(17.28711 6.794938 -5.671291e-18)
(16.80232 7.374944 -5.480671e-18)
(16.27785 7.891136 2.503923e-19)
(15.69714 8.36847 -1.596194e-19)
(15.07503 8.786283 -1.419914e-19)
(14.41075 9.158531 -4.093958e-18)
(13.71735 9.473081 -4.19323e-18)
(12.99644 9.724909 -1.11871e-19)
(12.25372 9.932382 3.570495e-18)
(11.50563 10.08204 0)
(10.74665 10.15664 2.74289e-18)
(9.970187 10.16681 2.3692e-18)
(9.192275 10.12444 1.932073e-18)
(8.428412 10.02607 1.620781e-18)
(7.677558 9.862191 0)
(6.938255 9.632195 0)
(6.211816 9.348972 4.402177e-19)
(5.516839 8.99725 0)
(4.838866 8.592175 0)
(4.200231 8.133158 6.92447e-19)
(3.600564 7.626453 -5.242894e-21)
(3.041582 7.076457 -1.754186e-20)
(2.525529 6.485061 -2.78933e-20)
(2.061043 5.853402 1.971413e-18)
(1.647986 5.187109 0)
(1.2942 4.4968 0)
(0.9821914 3.796676 1.361163e-18)
(0.7506914 3.068632 6.942008e-19)
(0.5664137 2.321716 7.582882e-19)
(0.4522684 1.553834 -3.972354e-19)
(0.4195214 0.7424456 0)
(0.3892959 -0.05248711 -3.958231e-22)
(0.4378887 -0.8214755 2.521563e-20)
(0.5585831 -1.572815 7.61835e-19)
(0.742288 -2.309735 -1.507915e-18)
(0.9816353 -3.02564 -4.354742e-20)
(1.278466 -3.715387 1.338955e-18)
(1.624987 -4.372995 3.982632e-20)
(2.030064 -4.997251 2.223158e-18)
(2.467973 -5.593191 -9.890255e-21)
(2.953263 -6.138029 -1.735091e-18)
(3.489386 -6.636092 4.782262e-20)
(4.050039 -7.098838 0)
(4.641554 -7.505926 7.860207e-19)
(5.276452 -7.857009 0)
(5.927261 -8.166809 0)
(6.586479 -8.415005 -2.238475e-19)
(7.262853 -8.592225 1.056573e-18)
(7.949716 -8.714822 3.170579e-20)
(8.636101 -8.782848 -7.646116e-20)
(9.325969 -8.787894 -1.505572e-18)
(10.00907 -8.74096 -1.769025e-18)
(10.67563 -8.63564 2.192109e-18)
(11.31841 -8.469391 -2.414307e-18)
(11.93479 -8.243778 -6.14068e-20)
(12.52903 -7.963493 0)
(13.08928 -7.642564 -3.245037e-18)
(13.6131 -7.267683 6.845408e-18)
(14.09094 -6.851614 -3.646289e-18)
(14.52008 -6.39172 0)
(14.9012 -5.892994 7.427469e-20)
(15.22513 -5.361306 -3.887541e-18)
(15.47964 -4.799101 -6.181598e-20)
(15.65685 -4.212673 9.971861e-20)
(15.75638 -3.617963 -6.174561e-20)
(15.75835 -3.038168 0)
(15.70555 -2.546139 -1.810515e-18)
(15.51931 -2.12474 8.319888e-19)
(16.03498 -2.071378 3.94941e-19)
(16.52666 -2.457115 -5.901173e-21)
(13.99654 -1.555731 2.664606e-19)
(13.62501 0.764005 6.840968e-19)
(13.59089 2.321994 0)
(13.03204 2.698989 6.984247e-19)
(12.42858 2.603351 -2.913707e-20)
(11.46826 2.493378 8.570339e-19)
(9.433653 2.430724 0)
(5.529379 0.5589116 0)
(-1.123729 -3.381534 0)
(-3.411925 -3.183786 5.945667e-20)
(-4.607486 -2.096678 4.583283e-18)
(-4.312191 -1.614177 -4.095338e-18)
(-3.295618 -0.9832719 3.148639e-18)
(-2.049068 -0.2500584 -4.145687e-18)
(-0.9314174 0.51848 1.33697e-18)
(0.1613557 1.278724 0)
(1.756354 1.853582 -7.968744e-19)
(2.00772 1.230001 -7.290784e-19)
(0.9374649 0.2805027 7.491041e-19)
(0.4305229 0.4037427 -2.562477e-20)
(0.4420885 0.7797896 -3.305801e-20)
(0.7346154 1.067685 3.31597e-20)
(0.8937421 1.218814 0)
(0.9342823 1.276823 -1.298025e-18)
(0.8446201 1.367603 4.052797e-20)
(0.8055041 1.563033 2.534803e-18)
(0.8268287 1.855287 -1.301518e-18)
(0.8353398 2.250282 7.654163e-20)
(0.90933 2.759624 -1.246833e-18)
(0.9722632 3.384634 0)
(1.041308 4.11395 -1.283458e-18)
(1.10547 4.917339 7.209387e-19)
(1.11437 5.756609 -4.892266e-20)
(1.083957 6.592588 9.247949e-19)
(1.01123 7.368777 -4.451945e-20)
(0.8856065 8.019095 1.576622e-20)
(0.7466704 8.47449 5.562043e-19)
(0.6262975 8.740118 -4.198479e-21)
(0.6866141 8.627549 2.833693e-21)
(1.235278 8.794957 5.475005e-21)
(1.865293 9.660926 1.599521e-19)
(1.492287 7.669114 4.072239e-19)
(0.4076326 4.453515 -4.750247e-19)
(-0.5873492 1.494937 8.154582e-19)
(-0.5303353 -1.650945 0)
(0.3585571 -1.971816 5.288495e-19)
(1.828568 -3.149337 7.281612e-19)
(2.835693 -4.065166 1.521213e-18)
(2.567369 -4.452767 0)
(1.4541 -4.289266 0)
(0.1840058 -3.324108 -1.419192e-18)
(-1.219135 -1.604685 -4.218576e-20)
(-2.550153 0.8392705 -1.381971e-18)
(-3.144162 2.959788 -2.001769e-18)
(-3.507702 4.083346 -2.475025e-18)
(-3.573382 4.532786 2.756823e-18)
(-3.080645 4.565742 -2.48491e-18)
(-1.909617 4.155772 1.760189e-18)
(-0.3361072 3.266817 -1.048746e-18)
(1.293951 1.680237 0)
(2.334224 -1.106559 0)
(2.300678 -3.005626 -2.323218e-19)
(4.057031 -3.932032 0)
(5.624898 -3.95851 -4.559833e-20)
(6.583013 -4.065041 -1.287959e-20)
(6.695503 -4.257091 -1.854084e-18)
(5.946906 -4.599898 -7.009658e-20)
(5.035864 -4.43829 4.322919e-21)
(4.228134 -2.875373 -7.45884e-18)
(3.897805 -0.141881 -2.724057e-20)
(6.285878 1.758602 2.252728e-18)
(13.88399 0.05120065 -3.929771e-20)
(17.82011 -2.26119 1.508216e-18)
(17.50419 -2.629641 -5.499316e-20)
(18.53748 -2.030054 4.363084e-18)
(18.70572 -1.045385 3.379146e-20)
(18.57238 -0.3634085 -7.156534e-21)
(18.61379 0.01090053 -5.458438e-19)
(18.79212 0.4370628 -4.471085e-21)
(18.95231 1.002692 -6.092652e-19)
(19.03641 1.661176 -3.884728e-20)
(19.02309 2.358578 -1.202415e-18)
(18.91089 3.062056 2.476416e-18)
(18.72836 3.789972 -2.462659e-18)
(18.48713 4.480295 4.734252e-18)
(18.16902 5.174444 2.586481e-18)
(17.78592 5.817117 0)
(17.34033 6.439369 0)
(16.85604 7.042616 4.44468e-18)
(16.33237 7.579918 4.257485e-18)
(15.75173 8.077336 0)
(15.1324 8.508428 -1.142851e-19)
(14.46817 8.89641 3.712343e-18)
(13.77137 9.232526 3.342388e-18)
(13.05056 9.498563 2.982319e-18)
(12.31341 9.71323 -8.137302e-20)
(11.56669 9.877361 -2.359844e-18)
(10.8042 9.970099 6.284875e-20)
(10.03199 9.987529 -6.342959e-20)
(9.26214 9.950029 -1.632317e-18)
(8.50075 9.862511 1.284377e-18)
(7.745438 9.715234 0)
(7.013833 9.490414 0)
(6.289518 9.218123 -6.814828e-19)
(5.602882 8.873016 -9.507521e-21)
(4.929234 8.476832 -9.17577e-21)
(4.305968 8.022123 -5.342802e-19)
(3.713524 7.522532 -1.64693e-18)
(3.145402 6.988204 1.027761e-18)
(2.630688 6.406428 -1.331568e-18)
(2.17072 5.782006 -7.72222e-19)
(1.767806 5.119876 -2.695114e-20)
(1.421981 4.430974 0)
(1.100928 3.741955 -1.062649e-18)
(0.8820132 3.021196 -3.56965e-20)
(0.6967131 2.282814 -6.309495e-19)
(0.586212 1.532491 3.404227e-19)
(0.5626349 0.7396997 5.45532e-23)
(0.5268836 -0.02721726 -3.553025e-19)
(0.5642499 -0.7991923 3.10688e-20)
(0.6864811 -1.546524 -6.632441e-19)
(0.8648476 -2.272998 1.233966e-18)
(1.098981 -2.979102 -1.209961e-18)
(1.391113 -3.659419 2.168558e-21)
(1.731669 -4.306265 1.042995e-18)
(2.139815 -4.918638 -1.768698e-18)
(2.568041 -5.508942 1.597523e-18)
(3.041835 -6.048834 1.297372e-18)
(3.578319 -6.538402 7.170667e-21)
(4.145089 -6.989584 7.572632e-21)
(4.727733 -7.39105 -6.21021e-19)
(5.345708 -7.744045 4.126627e-19)
(5.995887 -8.046164 1.799722e-22)
(6.652937 -8.285561 1.228933e-19)
(7.321116 -8.457294 -8.157306e-19)
(8.000229 -8.576592 6.556416e-19)
(8.690828 -8.628514 -4.571109e-20)
(9.377637 -8.624827 -1.190189e-18)
(10.05367 -8.574282 2.899592e-18)
(10.72043 -8.456717 5.590547e-20)
(11.36091 -8.280543 1.873899e-18)
(11.9783 -8.039522 -2.216058e-18)
(12.57495 -7.743274 6.89811e-20)
(13.1352 -7.409146 -2.548345e-18)
(13.66051 -7.015981 -2.624333e-18)
(14.13926 -6.582226 9.008163e-20)
(14.57084 -6.098975 -3.003215e-18)
(14.95226 -5.579013 3.097764e-18)
(15.27339 -5.039176 0)
(15.52516 -4.47683 0)
(15.7065 -3.897074 1.625708e-18)
(15.80739 -3.33348 1.572907e-18)
(15.80337 -2.80805 0)
(15.73426 -2.39167 7.786131e-19)
(15.57943 -2.041661 6.899487e-19)
(15.5179 -1.921329 -3.397022e-19)
(16.56957 -2.329283 7.803443e-20)
(17.10857 -1.454766 2.032786e-19)
(17.08111 0.9523398 -5.363198e-19)
(15.97904 2.540572 0)
(14.49137 2.84321 3.05594e-20)
(13.35711 2.645197 -3.212507e-20)
(12.32112 2.384056 -6.566335e-19)