/*--------------------------------*- C++ -*----------------------------------*\
| =========                 |                                                 |
| \\      /  F ield         | OpenFOAM: The Open Source CFD Toolbox           |
|  \\    /   O peration     | Version:  2406                                  |
|   \\  /    A nd           | Website:  www.openfoam.com                      |
|    \\/     M anipulation  |                                                 |
\*---------------------------------------------------------------------------*/
FoamFile
{
    version     2.0;
    format      ascii;
    arch        "LSB;label=32;scalar=64";
    class       volScalarField;
    location    "0.42";
    object      p;
}
// * * * * * * * * * * * * * * * * * * * * * * * * * * * * * * * * * * * * * //

dimensions      [0 2 -2 0 0 0 0];

internalField   nonuniform List<scalar> 
4541
(
2.288094e-05
1.985826e-05
1.54256e-05
5.658734e-06
2.454912e-05
3.875974e-05
2.633257e-05
2.491381e-05
4.00047e-05
5.358515e-06
3.818842e-05
2.509589e-05
1.394165e-05
2.981788e-05
8.933407e-06
-6.151259e-07
-6.550933e-06
-7.906218e-06
-1.146009e-05
1.913909e-05
-1.181318e-05
2.258731e-05
6.708557e-07
4.767175e-05
2.206386e-05
2.518168e-05
2.970238e-05
2.527134e-05
4.028856e-05
1.33379e-05
2.746451e-05
2.955704e-05
5.504416e-06
3.593537e-05
2.017422e-05
1.366344e-05
1.626763e-05
1.278907e-05
3.150507e-05
-8.770393e-06
1.381279e-05
4.200583e-05
1.722752e-05
5.821396e-06
1.226348e-05
5.029908e-06
1.264331e-05
-1.980625e-05
1.933769e-05
2.739561e-05
3.199053e-05
3.39042e-06
-2.813661e-06
2.844917e-05
-3.311238e-06
3.304732e-05
2.54095e-05
3.697489e-05
-6.803718e-06
1.972919e-05
3.12223e-05
1.824213e-05
-1.187421e-05
6.05169e-05
4.037441e-05
1.905805e-05
3.43109e-05
1.082592e-05
2.016087e-06
-1.692063e-05
-8.130106e-06
-2.377057e-06
2.715818e-05
3.315524e-06
3.776112e-05
1.364156e-06
-3.959406e-06
-1.258513e-05
9.768462e-06
3.599711e-05
-1.043321e-05
1.030033e-05
3.356364e-05
8.144036e-06
2.75784e-05
2.303739e-05
2.014916e-05
-1.556802e-05
-7.534646e-06
-8.364e-07
2.252698e-05
-1.804316e-05
-9.21116e-06
-5.291915e-06
2.863695e-05
-1.416266e-05
2.454077e-05
1.856716e-05
2.228884e-05
2.408585e-05
2.880458e-05
1.668445e-05
3.623486e-05
-3.589133e-06
5.479826e-06
3.164289e-05
-9.268049e-06
1.275185e-05
1.743365e-05
7.446362e-06
2.249148e-05
3.164893e-05
5.751221e-06
1.13651e-06
3.403979e-05
3.153174e-05
2.931458e-05
-6.759499e-06
3.094061e-05
4.326985e-05
4.303838e-06
1.841696e-06
1.113585e-05
-4.710979e-06
-2.563323e-06
1.723252e-05
4.96168e-05
5.517151e-05
2.06263e-05
4.069802e-05
3.747983e-05
2.520406e-05
2.890917e-05
1.683092e-05
1.826411e-05
6.192582e-05
4.809946e-06
2.60718e-05
3.853387e-06
1.114015e-05
2.760741e-05
-6.001438e-06
3.997533e-05
-3.009707e-06
1.679515e-05
3.912165e-05
4.127474e-05
3.129108e-05
-4.43738e-06
3.436359e-05
-8.409689e-07
8.329163e-06
2.958901e-05
2.094649e-05
2.39812e-05
4.059465e-05
3.927083e-05
-1.216782e-05
3.505254e-05
1.053273e-05
2.944655e-05
2.418311e-05
4.245446e-05
-8.996785e-06
7.839458e-06
1.883729e-06
3.927824e-05
2.026519e-05
2.240929e-05
3.539496e-05
3.65217e-05
-2.939298e-08
-1.37022e-05
1.326886e-07
-1.970497e-06
1.330734e-05
-9.271974e-06
2.666379e-05
1.878253e-05
3.793816e-05
-4.23148e-06
4.656023e-05
4.946388e-06
2.409498e-05
2.354591e-05
1.724845e-06
1.29421e-05
3.320646e-05
7.271742e-06
3.644e-05
2.277607e-05
5.655906e-07
1.396662e-06
6.073904e-07
-5.906046e-06
9.880913e-06
2.86111e-05
-1.474302e-05
-1.451862e-05
-3.009841e-06
6.636843e-06
5.867682e-05
2.634239e-05
-6.008167e-07
5.370823e-06
-7.264187e-07
2.153536e-06
-4.473718e-06
2.843974e-05
1.556709e-05
2.874296e-05
-1.133981e-05
1.782984e-05
2.560263e-05
4.582935e-05
2.450462e-05
-1.659917e-06
1.831946e-05
5.226479e-05
4.325513e-05
6.877244e-05
5.008982e-07
3.53534e-05
3.087152e-05
3.876065e-06
3.010398e-05
-2.03368e-07
1.141152e-06
-4.228028e-06
3.500127e-05
2.382797e-05
2.367019e-05
2.031349e-06
3.721018e-05
5.151668e-05
-2.115563e-05
6.830714e-06
1.37186e-05
2.963447e-05
3.319078e-05
2.393575e-05
-1.281803e-06
2.4195e-05
3.444252e-05
3.395407e-05
2.425654e-05
2.357508e-05
1.965846e-05
-1.159752e-05
2.26128e-05
2.965834e-05
4.212721e-05
-2.272699e-06
3.176038e-06
3.943997e-05
2.112739e-05
3.659211e-05
-1.689651e-06
-3.291935e-06
-1.047246e-06
3.731054e-05
2.546535e-05
4.059072e-06
5.949853e-05
2.661414e-05
-1.716754e-05
2.550663e-05
-1.596014e-05
8.862243e-06
-7.054393e-06
-1.453451e-05
1.607899e-05
4.068161e-05
3.212183e-05
2.941123e-06
8.034127e-07
4.482949e-05
-5.816385e-06
1.812856e-05
2.207223e-05
3.014735e-05
-7.120962e-06
2.243123e-05
1.379272e-05
-2.587508e-06
1.980212e-07
1.471563e-05
-7.871595e-06
-1.242732e-05
-1.159316e-05
2.758681e-05
2.642274e-05
3.878096e-05
-1.39848e-05
-1.372404e-05
2.559853e-05
3.181902e-05
2.536982e-05
-8.796408e-06
9.576141e-06
-3.299339e-06
3.457194e-05
2.348011e-05
1.033803e-05
1.146669e-05
4.566381e-05
4.427987e-05
-8.710617e-06
-1.552943e-06
-4.165187e-06
1.545428e-05
5.218355e-06
3.108697e-05
2.827308e-06
4.008084e-05
3.560479e-05
-3.052654e-06
4.152668e-05
4.318531e-07
6.329682e-05
4.696176e-06
-5.54981e-06
3.644404e-06
1.97663e-05
3.456667e-05
2.816119e-05
1.074e-05
2.374783e-05
2.258279e-05
3.404839e-05
2.242831e-05
-1.831738e-06
-2.824498e-06
2.711505e-05
2.444783e-05
2.731423e-05
3.950823e-05
3.544175e-05
1.761181e-06
6.929287e-06
2.612714e-05
1.756261e-05
3.515353e-05
2.294923e-05
5.814135e-05
1.116739e-05
5.159709e-06
2.10527e-05
-1.188918e-06
1.99123e-05
-2.367396e-06
8.062899e-06
-5.49084e-06
2.926893e-05
-5.628433e-06
2.215358e-05
-7.015895e-06
-4.268298e-06
2.686796e-05
3.031726e-07
-1.16511e-05
-4.218371e-08
1.006873e-05
2.613612e-05
-1.050108e-06
-1.214296e-05
1.279493e-05
3.002181e-05
1.738278e-05
-4.068419e-06
-3.826674e-06
6.321935e-05
-1.279892e-05
-1.002475e-05
1.906469e-05
2.487143e-05
2.32559e-05
2.837072e-05
6.522035e-06
2.414295e-05
3.228038e-05
-9.980758e-06
-8.563456e-06
2.470118e-06
-1.510493e-05
4.588351e-05
-3.688184e-06
1.266158e-05
3.593968e-05
3.256722e-05
6.094355e-06
5.161069e-06
-9.572518e-06
3.644957e-05
2.286481e-05
3.532451e-05
3.495045e-05
-6.943348e-06
1.165107e-05
2.194888e-05
8.473522e-06
6.040711e-06
2.919786e-05
2.837085e-05
3.861183e-05
-7.727324e-06
-9.626031e-06
9.078681e-06
-3.105555e-06
1.992631e-05
1.100126e-05
-1.011251e-05
1.774421e-05
3.880491e-05
3.550155e-05
1.171169e-05
3.841994e-06
6.705773e-06
-1.506563e-06
1.043964e-05
4.255173e-05
5.041844e-05
2.354789e-06
3.763249e-05
3.223951e-05
6.52475e-06
6.927668e-06
5.866168e-06
2.994408e-05
3.385913e-05
2.725541e-06
3.737343e-05
1.796404e-05
-9.487495e-07
6.949848e-06
3.042963e-05
-1.891267e-06
4.686684e-05
1.941237e-05
1.584023e-05
-5.787048e-06
3.682603e-05
2.202662e-05
-1.849817e-05
2.453085e-05
2.294795e-05
1.144639e-05
4.893347e-05
2.774742e-05
7.557835e-06
6.990306e-06
2.63467e-05
-4.578522e-06
-2.248556e-06
2.841726e-06
3.063778e-05
3.202183e-05
2.382724e-05
3.544773e-05
3.199806e-05
-9.805511e-06
6.778917e-07
2.8442e-05
-4.059903e-06
1.403261e-05
-7.412285e-06
-5.291807e-06
1.733247e-05
1.588262e-06
2.374968e-05
7.556397e-06
2.622679e-07
1.135757e-06
4.306233e-05
2.063435e-05
-2.669124e-08
-2.019955e-05
2.706279e-05
2.228185e-05
2.402292e-05
2.136918e-06
-1.603221e-05
2.446977e-05
3.568786e-05
5.771264e-06
3.656545e-05
3.117178e-05
2.64084e-05
3.661191e-05
3.761928e-05
2.272412e-05
2.555494e-06
8.628158e-06
5.936377e-06
1.868043e-05
5.445042e-05
2.688598e-05
3.596493e-05
1.073973e-05
1.663686e-05
2.746518e-05
2.310165e-05
2.739152e-05
4.715513e-05
6.006958e-07
2.150825e-05
3.398179e-05
1.551253e-05
2.732627e-05
1.415245e-05
-9.198946e-06
5.659476e-06
-1.116011e-06
2.513637e-05
2.579194e-05
-1.529679e-05
2.017189e-06
2.63849e-05
3.148316e-07
2.793602e-05
2.872065e-05
-1.742868e-06
3.999129e-05
3.879894e-05
3.186528e-05
3.432317e-05
3.335351e-05
2.353573e-05
2.629655e-05
2.60308e-05
2.650278e-05
7.33897e-05
2.103208e-05
8.960407e-06
1.660542e-06
3.128234e-05
8.478623e-06
2.47872e-05
2.568497e-05
5.252284e-05
2.014882e-06
1.865521e-05
2.381997e-05
3.94432e-05
5.174581e-05
3.047952e-05
-6.872598e-06
2.554842e-05
6.645427e-05
4.845891e-05
1.611643e-05
2.485482e-05
1.842477e-05
3.762594e-05
3.932486e-06
3.053797e-05
2.700759e-05
5.921532e-07
1.546286e-05
3.51493e-05
9.815022e-06
3.098096e-05
1.699433e-05
4.862725e-05
2.190035e-05
-1.133203e-05
-2.041905e-06
-5.996354e-06
1.616102e-05
-9.160194e-06
-4.642265e-06
-4.006231e-07
4.861043e-05
2.577327e-05
1.054659e-06
-2.130199e-06
-8.942983e-07
-1.473063e-06
-1.786807e-06
1.266203e-05
1.183566e-05
2.674586e-05
5.816979e-06
5.398626e-06
2.627546e-05
5.308075e-06
-5.910672e-06
4.294968e-05
1.951185e-05
2.947178e-05
2.874887e-05
-3.298432e-06
-2.008613e-06
2.798898e-05
3.134174e-05
1.58345e-05
3.891944e-06
4.083976e-05
1.013115e-05
2.760949e-05
2.816454e-05
2.232245e-06
1.636777e-05
-3.408936e-06
-3.662757e-06
2.870454e-06
1.65898e-05
2.322056e-05
2.922488e-05
-5.426272e-06
3.461177e-05
2.858436e-05
-1.928289e-05
3.643751e-06
2.682353e-05
2.550438e-05
3.087863e-05
1.490204e-06
-1.836852e-06
3.621782e-05
4.284888e-05
-4.578411e-06
3.007228e-05
3.663019e-05
3.310141e-05
2.985353e-06
-8.578506e-06
5.090365e-05
3.341831e-05
3.904521e-05
-1.348918e-06
-2.756086e-06
1.509242e-05
3.714513e-05
3.318237e-06
1.721308e-05
-1.310362e-05
1.764479e-05
1.96638e-06
2.675525e-05
-1.596682e-05
3.219961e-05
3.065093e-05
1.588073e-06
-3.819127e-07
2.339186e-05
2.411818e-05
3.818188e-05
3.673216e-05
2.223762e-05
-4.698186e-07
1.359919e-05
-5.691275e-06
2.000871e-05
3.806682e-06
2.288883e-05
3.908399e-05
-2.387043e-06
3.104663e-05
1.781863e-05
-3.625941e-06
4.270519e-06
-4.996978e-06
1.162799e-05
3.230964e-05
2.477557e-05
-3.259706e-07
9.908489e-07
3.587095e-05
3.757539e-05
2.297189e-05
6.036115e-06
9.930165e-06
6.221605e-06
7.252309e-06
1.119077e-05
5.378778e-06
7.983577e-06
3.562291e-05
3.984104e-05
3.348183e-06
3.376417e-05
-8.447458e-06
7.246257e-07
3.011084e-05
3.077583e-05
2.386702e-05
3.298126e-05
2.656621e-05
3.709051e-05
3.711779e-05
-1.450328e-05
-2.18473e-05
-4.423728e-06
-7.584694e-06
-3.981295e-06
-3.904022e-07
-1.077834e-06
-5.379828e-06
3.166172e-05
2.552172e-05
2.665098e-05
2.783554e-05
3.84975e-06
-4.107411e-06
2.595991e-05
2.253466e-05
2.296792e-05
3.277544e-05
1.476176e-05
9.282082e-06
2.630724e-05
-4.954797e-06
3.534853e-05
-3.208365e-06
-5.087214e-06
1.623038e-05
2.159954e-05
4.514899e-05
3.181959e-05
3.482039e-06
3.665002e-06
4.137175e-06
2.664949e-06
1.999961e-06
1.504501e-06
4.065487e-07
2.05778e-05
2.375742e-07
3.406991e-06
3.400716e-05
2.972344e-05
3.040493e-05
1.314799e-05
1.598148e-05
7.114156e-06
6.263181e-06
1.708986e-05
1.667047e-05
2.894336e-05
6.632682e-05
2.061694e-05
2.136551e-05
2.267103e-05
2.091389e-05
5.368327e-07
2.436143e-05
2.444446e-05
2.650773e-05
-2.720784e-06
-2.812875e-06
-5.571728e-06
2.66144e-05
-3.583906e-07
-7.671257e-07
1.178677e-05
1.434549e-05
1.945118e-05
-4.509051e-06
5.252487e-06
1.714687e-05
1.332739e-05
-5.324147e-07
3.517228e-05
3.61944e-05
6.211343e-05
-1.264237e-06
2.677581e-05
-1.002954e-06
-3.562452e-06
3.688184e-05
2.496138e-05
5.302751e-05
4.394399e-07
3.053535e-05
-1.459043e-05
2.131963e-05
9.23192e-06
1.482127e-05
-6.87255e-06
-1.267471e-05
2.515101e-05
3.011897e-05
3.081723e-05
1.254711e-05
3.830231e-05
2.215714e-07
2.577921e-05
3.116765e-05
3.623961e-06
3.354426e-05
2.299993e-05
2.366069e-05
3.759253e-06
2.275147e-05
2.45384e-05
2.771204e-05
4.441043e-05
1.873857e-05
1.506599e-05
1.237274e-06
2.257712e-05
2.298323e-05
2.805405e-05
2.134039e-05
3.75658e-05
3.56559e-05
3.457105e-05
-3.976098e-06
-1.708006e-05
2.275618e-05
1.371944e-06
1.02329e-05
9.367768e-06
1.241404e-05
2.488839e-05
1.620361e-05
2.309253e-05
-9.202252e-07
2.767909e-05
3.717918e-05
3.549397e-05
2.351437e-05
1.118085e-06
4.936685e-06
3.265504e-06
4.034326e-06
2.156409e-05
1.112546e-05
1.830839e-06
-2.161814e-05
3.925566e-05
3.906545e-05
3.884717e-05
3.916271e-05
2.496808e-05
5.428139e-05
4.032153e-05
2.233099e-05
3.095272e-05
1.065528e-05
-2.6469e-06
-2.242817e-07
2.386982e-05
6.417064e-06
9.109509e-06
-3.972724e-06
-6.53227e-06
-2.209098e-05
4.989976e-05
1.207225e-05
2.339135e-05
-6.29097e-06
-2.235208e-05
2.01801e-05
5.076956e-05
2.525201e-05
-3.602616e-06
3.660454e-05
-3.367498e-06
1.755444e-05
-1.007209e-05
3.36832e-05
-5.628817e-07
8.772761e-06
5.565219e-05
1.99637e-05
5.205094e-05
-7.976352e-06
-5.138076e-06
-7.536352e-07
3.9293e-06
-2.341925e-07
-7.516801e-07
2.449374e-05
-6.598307e-06
3.136132e-05
2.746262e-05
6.020086e-05
-1.773388e-05
-2.120448e-05
2.922097e-05
6.53803e-06
3.256909e-05
3.168961e-05
1.907689e-05
2.787997e-05
3.119968e-06
-1.312122e-05
2.809992e-06
9.744492e-06
1.020824e-05
1.790714e-05
1.790451e-06
1.39984e-06
9.435176e-07
1.393721e-06
-1.326048e-05
3.329365e-05
3.171046e-05
1.785962e-05
1.252027e-05
3.218869e-05
1.935281e-05
2.61612e-05
1.264677e-05
9.599782e-08
2.388497e-05
2.097955e-05
2.022652e-05
2.537396e-05
8.938909e-06
3.98655e-05
2.065133e-06
2.359238e-05
2.558413e-05
-5.966936e-07
-2.979676e-06
4.886024e-05
1.779173e-05
-1.962765e-06
3.156246e-05
-2.607442e-06
1.913027e-06
-9.206695e-06
1.02711e-06
3.405854e-07
1.350329e-06
1.447418e-05
1.034132e-05
3.429962e-05
-7.936961e-06
-8.483671e-06
-9.325386e-06
-9.791469e-06
1.663478e-05
-7.058744e-06
-7.890478e-06
3.99144e-05
2.806642e-05
3.731895e-05
-3.356418e-06
-9.789761e-06
-1.147339e-05
3.060659e-05
9.362077e-07
3.551391e-05
5.334634e-06
5.703369e-07
2.28302e-05
3.262663e-05
3.128579e-05
3.256604e-05
3.18234e-05
2.268162e-07
3.612237e-05
2.645599e-05
3.593173e-05
8.540731e-06
9.390035e-06
8.251154e-06
1.915703e-05
1.811584e-05
1.859678e-05
1.871889e-05
-2.675105e-06
-3.924391e-06
-4.308388e-06
3.656004e-05
3.592766e-05
-1.224922e-06
2.355963e-05
-2.186937e-06
1.456326e-05
2.591192e-05
3.554791e-05
3.052829e-05
3.635243e-05
1.92503e-05
2.235454e-05
2.851545e-05
3.47155e-05
3.509076e-05
2.578614e-05
-8.682962e-06
-5.465495e-06
-1.536658e-05
-1.992762e-05
1.414152e-06
3.970139e-05
-3.635807e-06
-2.283862e-06
-3.872671e-06
2.866001e-05
7.923925e-06
9.229327e-06
2.23823e-05
2.875619e-05
2.767699e-05
-9.867713e-06
-1.359723e-05
2.387757e-05
2.938625e-05
9.418763e-06
4.744294e-05
3.618736e-05
3.887404e-05
-4.551175e-06
4.53131e-06
8.982027e-06
2.214206e-05
3.74292e-05
9.193995e-06
2.670466e-06
-1.062122e-05
-1.478562e-05
1.524856e-05
4.510287e-05
-4.058294e-06
3.030328e-06
-4.721765e-08
1.963868e-06
4.418975e-07
-3.179996e-06
1.374044e-05
-9.523442e-06
3.335636e-05
1.384425e-05
-9.921357e-06
1.549602e-05
4.063161e-05
4.121228e-05
1.972599e-05
-4.370656e-07
1.211218e-05
-3.853398e-06
4.217323e-06
1.344366e-05
1.446114e-05
4.360897e-05
4.183786e-05
7.9025e-06
6.104557e-05
1.162299e-05
4.288642e-05
-1.163682e-05
1.012252e-06
1.090816e-06
9.688705e-07
-6.473573e-08
-3.684776e-07
1.997514e-06
2.996716e-06
1.964816e-05
2.877595e-05
4.218495e-06
5.236832e-06
7.455929e-07
2.413955e-06
-3.300278e-06
-6.950155e-06
-7.512686e-06
2.396825e-05
2.541517e-06
2.522645e-05
-4.924756e-06
1.615538e-05
1.534821e-05
1.553849e-05
-2.239268e-06
4.068332e-06
3.308045e-05
3.003637e-05
3.005805e-05
2.491041e-05
3.23376e-05
4.083478e-05
-7.940722e-06
-5.903282e-06
2.989766e-05
3.004051e-05
3.144952e-05
2.238997e-05
-3.498943e-06
4.745604e-06
8.754944e-06
1.057156e-05
4.997306e-06
2.11307e-05
2.265629e-05
4.001494e-06
9.378599e-06
1.573474e-05
-1.198724e-05
-6.767016e-08
1.62435e-06
4.225065e-06
7.628153e-06
-1.189746e-05
-2.497196e-05
-7.239145e-06
-5.635352e-06
2.615803e-05
-2.937341e-07
1.42426e-05
1.676073e-05
3.755179e-05
2.123296e-06
4.486328e-05
3.758652e-05
2.216017e-05
1.143569e-08
-2.979656e-06
-9.094753e-06
2.715177e-05
2.975079e-05
1.213033e-05
2.741625e-05
2.821796e-05
-2.127896e-05
-1.303446e-05
-2.198434e-05
-1.949837e-05
-9.326818e-06
-1.658647e-05
-2.02835e-05
1.18559e-05
1.180884e-05
2.745588e-05
-1.074319e-05
-9.449771e-06
-1.208361e-05
2.11571e-05
1.883081e-05
8.71905e-06
5.63261e-06
3.421193e-05
8.519454e-06
2.317028e-05
2.53456e-05
3.413722e-06
4.172974e-06
6.644938e-06
4.260172e-05
3.49618e-05
-1.185863e-05
-1.048275e-05
1.958877e-05
3.33141e-05
3.498302e-05
3.949239e-07
3.287438e-05
3.337379e-05
3.352521e-05
1.093194e-05
4.614581e-05
3.662249e-05
1.420119e-05
5.592272e-05
1.845695e-05
2.162398e-05
1.240852e-05
-1.156423e-06
2.186277e-05
3.651874e-05
2.828515e-06
1.126153e-06
1.037556e-05
4.241288e-05
3.591034e-05
2.020496e-05
2.727133e-05
-1.504328e-06
-3.072316e-06
-9.608261e-06
-6.826968e-06
8.579673e-07
-1.752213e-06
1.618276e-05
1.610246e-05
1.995375e-05
1.719746e-05
3.411034e-05
-6.646122e-06
2.496471e-05
2.559356e-05
3.150417e-05
3.063626e-05
2.673642e-06
4.976596e-06
2.41261e-05
2.880719e-05
-2.467549e-06
3.488148e-05
3.756325e-05
3.616819e-05
2.830809e-05
4.012889e-05
3.3398e-05
3.303415e-05
1.128368e-05
-3.706322e-06
-5.826087e-07
-1.067881e-06
3.349852e-07
2.325657e-05
2.344569e-05
2.713837e-06
3.881276e-05
-5.946782e-06
5.569996e-05
3.779136e-05
3.058417e-05
2.772718e-05
2.379468e-05
2.382914e-05
-1.208866e-05
1.373859e-05
3.534236e-05
5.290583e-06
5.866514e-06
1.078674e-05
-5.810983e-07
-9.820143e-06
2.738008e-05
2.996497e-05
2.855237e-05
1.589823e-05
1.436608e-05
3.200228e-06
2.611193e-05
6.240555e-07
4.458638e-05
2.127397e-05
2.904912e-05
2.475958e-05
2.866106e-05
2.61405e-05
2.61134e-05
3.684005e-05
-1.011602e-05
6.909587e-05
6.945037e-05
2.329261e-05
2.625531e-05
2.745304e-05
3.629208e-05
2.400555e-05
9.930626e-07
2.619086e-05
3.471009e-05
2.500995e-05
2.98613e-05
-9.804857e-06
-1.04344e-05
4.317101e-05
1.659208e-05
3.692923e-06
3.804554e-06
2.143831e-06
3.852063e-05
3.734757e-05
2.796623e-07
-6.975116e-07
1.911534e-05
6.475432e-06
7.893634e-06
1.4262e-05
6.714476e-06
7.002937e-06
4.186795e-05
3.262283e-05
2.758553e-05
3.563241e-05
3.370383e-05
2.817783e-05
3.736434e-05
3.636279e-05
2.843744e-05
2.615807e-05
2.300179e-05
2.629279e-05
1.976526e-05
9.499642e-06
1.351883e-05
7.727877e-06
-7.702239e-06
-2.920881e-06
2.234525e-06
2.134853e-05
2.267853e-05
-9.486274e-06
3.73612e-05
3.432562e-05
3.84832e-05
2.100733e-05
5.548836e-05
4.785685e-05
1.430738e-05
1.801856e-05
8.559009e-06
3.375535e-05
4.039682e-05
2.288462e-05
1.980918e-05
2.777657e-05
2.595885e-05
4.180042e-05
3.11079e-05
2.881709e-05
2.949938e-05
3.711003e-05
3.643285e-05
3.675602e-07
1.612527e-05
3.106189e-05
-1.0659e-06
-5.850984e-07
-1.394344e-06
1.240993e-05
4.524869e-05
8.574541e-06
3.530926e-05
1.900042e-05
3.33537e-05
3.320713e-05
2.284214e-06
8.599854e-06
4.150819e-05
-1.445032e-07
2.758121e-05
3.804066e-05
1.826239e-05
2.516692e-06
-6.461019e-06
-7.95235e-07
-1.499665e-06
2.736481e-05
1.322129e-05
3.377024e-06
-4.739118e-06
2.311602e-05
4.035387e-05
4.221511e-05
3.669652e-05
3.649403e-05
4.584188e-05
2.381242e-05
9.865298e-06
2.714567e-05
1.601436e-05
2.5397e-05
3.057627e-05
2.942254e-05
2.891408e-05
1.975113e-05
8.663219e-06
-5.949026e-06
1.477275e-05
8.124989e-06
6.160539e-05
6.404563e-05
7.350545e-05
9.716208e-06
1.999154e-06
1.080217e-05
-1.548421e-06
2.178552e-05
3.906636e-05
2.057546e-06
4.11907e-06
1.170289e-05
2.247061e-06
2.6523e-05
8.169946e-07
2.629375e-05
1.410768e-05
2.065943e-05
2.75922e-05
2.845219e-05
-2.887842e-06
-7.809131e-06
2.595665e-05
1.828556e-05
3.381989e-05
7.909288e-06
9.299787e-06
-9.259181e-06
-1.568628e-05
-1.856773e-05
2.799889e-05
-2.224245e-05
2.251744e-06
1.604503e-05
-1.11843e-05
1.416396e-05
4.121385e-05
4.131007e-05
3.657398e-05
6.32548e-05
3.08295e-05
-1.337723e-05
1.563556e-05
-1.322942e-05
2.581956e-05
1.795351e-05
1.353971e-05
2.66721e-05
2.821524e-05
2.908395e-05
4.776172e-05
1.929472e-05
2.161384e-05
3.245336e-05
3.196088e-05
3.092273e-05
1.481765e-05
-2.291801e-06
5.079424e-06
-5.391741e-06
-3.525876e-06
-2.460681e-06
-4.6634e-06
-8.168604e-06
3.416473e-05
2.891706e-05
2.343069e-06
-4.753782e-06
3.719813e-05
2.577003e-05
-5.66052e-06
2.684654e-06
-3.006579e-06
-9.093144e-06
1.567003e-05
7.30479e-06
3.397412e-05
6.987788e-06
2.292733e-05
1.660466e-05
7.110458e-06
6.742717e-06
2.878759e-05
1.681237e-05
2.621996e-05
2.74387e-05
2.476078e-05
1.516906e-05
2.811173e-05
-3.172352e-06
-2.566467e-06
-1.367972e-05
-4.801271e-06
-3.93887e-07
7.525554e-06
9.392514e-06
-1.888829e-05
-1.348774e-05
-1.036669e-05
3.226892e-05
3.204021e-05
3.449911e-05
3.624686e-05
2.060618e-05
1.828393e-05
2.820499e-05
1.688427e-05
2.047289e-05
2.973353e-05
2.585551e-05
2.49378e-05
2.723293e-05
-1.172558e-05
-1.021677e-05
-1.095103e-06
2.879215e-06
4.634932e-06
5.381481e-05
6.560234e-06
7.870441e-06
1.000488e-05
2.925884e-05
4.234615e-05
-3.19425e-07
-1.524102e-06
2.747e-05
2.813468e-05
1.925685e-05
1.410047e-05
1.05413e-05
-3.552607e-06
2.44475e-05
2.416457e-06
6.648216e-06
5.440257e-06
4.226856e-06
-4.009538e-07
-4.041664e-07
1.52934e-07
-6.139099e-06
1.656308e-06
2.380669e-05
2.308126e-05
6.720293e-06
5.942461e-06
2.925397e-05
3.063312e-05
4.506693e-05
3.357867e-05
8.624951e-06
2.682758e-05
2.513898e-05
5.343143e-05
1.597271e-05
1.876752e-05
2.927712e-05
2.959627e-05
6.831749e-06
6.714697e-06
6.618867e-06
8.618325e-06
3.306377e-05
3.395798e-05
-1.092095e-05
-1.387582e-05
-1.071454e-05
2.233075e-05
4.452111e-06
4.311698e-06
1.020314e-05
8.107946e-06
1.120577e-05
1.152251e-05
2.671198e-05
3.593017e-05
2.634434e-05
-3.435185e-06
-1.485041e-06
4.337717e-06
3.656443e-05
3.501899e-05
3.504012e-05
3.132034e-06
1.662405e-06
-5.23154e-08
-7.456534e-06
-1.215204e-06
-4.999814e-06
4.974568e-05
6.810063e-05
5.398673e-06
-3.172521e-06
-2.05878e-06
-8.839532e-06
-1.049102e-05
-2.662635e-06
1.189158e-05
9.761066e-06
5.675725e-06
-8.728345e-06
5.664769e-06
-5.457644e-06
3.139029e-05
3.108943e-05
1.223524e-05
2.420502e-05
6.730113e-05
3.770415e-05
4.270107e-05
4.34875e-05
3.698683e-05
2.21335e-05
2.136306e-06
3.268115e-06
2.804747e-05
8.762168e-06
1.566465e-05
3.01306e-05
4.50342e-05
1.503211e-05
1.629428e-05
3.547699e-05
2.362837e-05
2.312598e-05
-9.129015e-06
-1.035264e-05
-1.001997e-05
-1.12642e-05
-2.907094e-06
1.125373e-05
1.005288e-05
3.180987e-05
2.949855e-06
3.506118e-05
3.375815e-05
3.371931e-05
3.28203e-05
3.307677e-05
3.347256e-05
2.589505e-05
1.819488e-05
-4.770708e-06
8.446049e-06
1.008142e-05
2.390717e-05
3.421435e-05
2.238693e-05
-6.721676e-06
-4.587646e-06
6.549676e-06
6.74218e-06
2.6134e-05
2.597189e-05
2.484675e-05
1.484157e-05
1.42162e-05
1.446641e-05
1.520169e-05
2.177911e-05
1.371743e-05
1.218007e-05
1.434526e-05
2.721345e-05
1.084942e-05
4.52428e-05
1.821754e-05
1.626531e-05
2.393381e-05
-9.580642e-06
-5.215827e-07
1.924834e-05
3.282569e-05
2.180551e-05
-2.599902e-06
4.054408e-05
3.894822e-05
2.036571e-06
5.772324e-05
1.527909e-05
3.150579e-05
-3.477917e-06
4.294706e-05
4.608647e-05
2.049064e-06
3.276365e-05
2.759022e-05
1.051694e-05
5.727015e-07
-1.939492e-06
-3.399214e-06
5.082391e-06
8.16152e-06
7.515523e-06
2.092671e-05
5.19724e-05
2.010682e-05
5.838056e-06
5.065993e-06
-5.064221e-06
3.055668e-06
7.623578e-06
2.346792e-05
1.947397e-05
1.899248e-05
2.272484e-05
3.044201e-05
3.061884e-05
2.458448e-05
3.345337e-05
2.144354e-05
1.437549e-05
4.606841e-05
4.642362e-05
2.948351e-06
-1.139503e-05
1.772776e-05
2.678588e-05
2.677931e-05
6.079565e-05
3.378288e-05
3.491641e-05
2.988428e-05
2.447688e-05
3.54606e-05
-4.686498e-06
2.719832e-05
-2.466091e-06
3.642367e-06
4.351923e-06
2.276065e-05
8.741827e-06
3.684008e-05
3.163652e-05
3.402482e-05
6.970512e-06
5.644603e-06
5.734281e-06
3.302888e-06
4.456593e-06
6.697252e-06
-7.250399e-06
-1.436494e-05
7.225486e-07
2.79207e-05
2.969466e-06
2.696285e-05
3.217041e-05
1.095328e-06
2.932196e-05
3.009344e-05
3.007074e-05
-1.642396e-05
2.370919e-05
-8.053414e-06
2.302587e-05
1.319827e-05
3.135175e-05
2.518951e-05
2.596566e-05
2.561261e-05
3.318148e-05
3.281272e-05
-1.637954e-05
2.762058e-05
2.525822e-05
1.967097e-05
2.442661e-05
3.555898e-05
1.942834e-05
2.454197e-05
1.318022e-05
-1.937714e-05
-2.06205e-05
-1.682522e-05
-1.953134e-05
-1.434702e-05
-1.583625e-05
2.572836e-05
4.29433e-06
7.075315e-06
3.015021e-05
9.999756e-06
-3.064158e-06
1.103753e-05
-6.35849e-06
-9.135429e-07
-4.549881e-08
3.467043e-05
4.013767e-06
5.378e-06
3.07465e-05
1.025322e-05
2.141194e-05
3.117362e-05
9.704218e-07
3.071695e-05
-9.927512e-06
-8.651555e-06
1.647538e-05
7.121181e-07
2.382581e-05
2.068699e-05
-9.232864e-07
2.686586e-05
-1.084155e-05
-8.471196e-06
3.855793e-05
5.83819e-08
-1.153285e-06
1.965398e-05
1.316491e-05
2.283705e-05
2.19543e-05
4.75982e-06
-5.481135e-06
-5.196105e-06
1.058579e-05
2.840794e-05
5.927244e-05
-6.624297e-06
4.371036e-05
-1.369736e-05
-1.495311e-05
-7.158904e-06
-7.386188e-06
1.75753e-05
1.876983e-05
2.257454e-05
8.027634e-06
1.104641e-05
3.004514e-05
2.848059e-05
2.478677e-05
2.006099e-05
3.659855e-05
-2.185135e-05
2.846473e-05
1.407581e-05
2.511795e-05
1.876844e-05
4.025852e-05
4.022465e-05
2.512417e-05
-4.29038e-06
-3.828051e-06
1.401814e-05
1.557121e-05
2.364519e-05
2.296376e-05
2.268072e-05
-3.742092e-06
-4.705363e-06
3.619114e-05
3.530204e-05
2.859238e-05
3.969555e-05
3.574078e-05
9.353307e-06
1.183189e-05
1.683664e-05
5.840147e-05
5.786651e-05
5.671056e-05
3.909004e-05
4.024947e-05
3.947792e-06
3.866155e-05
3.962287e-05
-4.494808e-06
2.072913e-05
1.933035e-05
2.086988e-05
-7.24683e-06
4.662631e-06
4.002375e-05
3.364504e-06
1.895375e-06
4.162165e-06
3.836611e-06
2.900591e-06
1.473413e-06
6.408582e-07
3.994296e-06
3.228143e-05
1.553308e-05
1.605324e-05
3.116809e-05
-6.159559e-06
-4.799943e-06
1.902747e-05
-3.928915e-06
-3.248417e-06
4.536014e-06
3.601459e-05
2.392617e-05
2.376092e-05
4.027464e-05
-2.014863e-06
2.451901e-05
2.456132e-05
3.614036e-05
4.690798e-05
3.09345e-07
-1.843903e-05
3.85161e-05
4.024174e-05
9.310509e-06
4.057564e-05
3.82683e-05
4.664933e-05
3.750199e-05
3.901099e-05
3.458022e-05
3.98479e-05
3.570459e-05
2.327499e-05
2.378393e-05
-1.378704e-05
-1.471433e-05
2.742041e-05
2.885962e-05
6.444606e-06
-1.475727e-07
-1.444273e-06
-1.413493e-06
3.860608e-05
-3.311583e-06
-1.314765e-06
3.490343e-05
2.255073e-05
2.023496e-05
2.256302e-06
1.327418e-05
4.200316e-05
2.860389e-05
2.810817e-05
-1.643403e-06
1.823486e-05
1.826463e-05
2.254823e-05
2.46336e-05
2.171376e-05
2.22505e-05
2.245548e-05
2.150094e-05
2.219876e-05
-3.330433e-06
-6.380062e-06
-1.111453e-07
1.39129e-05
-5.382939e-06
1.778098e-05
1.560468e-05
1.684622e-05
1.671429e-05
1.309746e-05
-2.497813e-06
-1.406096e-06
3.734293e-05
2.547763e-05
2.58249e-05
3.19042e-05
3.15451e-05
3.288987e-05
-8.371268e-06
-8.458997e-06
6.710115e-06
3.448969e-05
3.458593e-05
1.675932e-05
3.714695e-05
-2.709391e-06
3.837644e-05
3.622304e-05
3.682894e-05
2.421672e-06
2.454965e-05
1.833887e-05
-5.83923e-06
5.773144e-06
3.657263e-05
3.775347e-05
3.186333e-05
3.152574e-05
2.452001e-05
6.850351e-07
-2.541787e-06
-3.054003e-06
1.812151e-05
-6.995929e-06
2.037598e-05
1.996642e-05
-1.406176e-05
4.561167e-05
4.580923e-05
1.516379e-05
1.59854e-05
2.613153e-05
2.606697e-05
-4.610041e-06
-6.773608e-06
2.518295e-05
2.454069e-05
-2.411905e-06
2.181317e-05
2.116252e-05
4.350085e-05
2.497879e-05
2.316591e-05
3.248424e-05
7.031531e-06
2.610981e-05
1.956466e-05
1.061515e-05
-3.783184e-06
-5.085076e-06
2.045662e-05
2.775479e-05
-1.028206e-06
8.540426e-06
2.72703e-07
3.236595e-05
3.166168e-05
5.332982e-06
2.636576e-05
2.449918e-05
2.014229e-05
2.042134e-05
2.27103e-05
2.244877e-05
4.005993e-05
3.067144e-05
5.35105e-05
2.036011e-05
1.937816e-05
1.87826e-05
4.968124e-06
2.661078e-06
4.95924e-05
4.98284e-05
-4.769495e-07
4.081268e-05
-1.013988e-06
8.854172e-07
2.551238e-05
5.347073e-08
2.005079e-05
1.972511e-05
2.825051e-05
5.818636e-05
3.794159e-05
1.951596e-05
2.001548e-05
3.835649e-05
-5.184977e-06
2.375458e-05
2.470765e-05
4.343679e-06
4.723115e-06
3.182572e-07
1.271219e-06
3.340159e-05
3.30559e-05
4.474638e-05
-4.420784e-07
3.684173e-05
3.738413e-05
3.18308e-06
4.516021e-06
3.298034e-05
2.569948e-05
2.525088e-05
-1.021714e-06
1.401459e-06
2.522267e-05
3.22552e-05
2.873877e-05
6.475908e-06
-5.32609e-06
6.64382e-07
5.107878e-07
2.56884e-05
2.360208e-05
2.287538e-05
-1.282536e-05
-1.028943e-05
2.589342e-06
2.204042e-06
1.833396e-05
-1.693812e-05
1.43475e-05
-6.791219e-07
5.366471e-05
1.655061e-05
1.70622e-05
3.901716e-06
3.591112e-05
-8.275359e-06
-1.012796e-05
-8.007144e-06
-8.520998e-06
4.195787e-05
4.99341e-05
5.174847e-05
3.436812e-05
3.5035e-05
6.835898e-06
-6.689845e-06
1.150225e-05
2.112496e-05
2.174605e-05
-3.370119e-06
5.228454e-07
2.557826e-07
3.731567e-05
-9.110857e-06
1.752248e-05
-1.896705e-07
2.849774e-05
2.435183e-05
2.452994e-05
1.989152e-05
1.919196e-05
2.226764e-05
-7.057908e-06
-3.182329e-06
2.158151e-05
2.28002e-05
2.423811e-05
2.300343e-05
1.154154e-05
-1.312609e-06
-1.071574e-06
2.026994e-05
3.814229e-05
3.847754e-05
3.631441e-06
4.165219e-05
4.464216e-05
3.39669e-05
3.398658e-05
3.033713e-05
4.121554e-06
2.416146e-05
3.686594e-05
3.78706e-05
-1.174781e-06
3.954624e-05
4.134497e-05
4.368723e-05
-3.99351e-06
-3.394663e-06
-1.001546e-05
2.265167e-05
3.646832e-05
4.863597e-05
5.133199e-05
4.926002e-05
4.89872e-05
1.712899e-06
7.539637e-07
7.639493e-06
6.963583e-06
4.378395e-06
2.631422e-05
2.977716e-05
2.920652e-05
7.939839e-06
7.734246e-06
1.644954e-05
3.110555e-05
3.110179e-05
9.345055e-06
9.037844e-06
3.263437e-05
3.169654e-05
2.716445e-05
-1.348694e-05
-2.217973e-05
5.290157e-05
-9.850789e-06
-8.344773e-06
2.89067e-05
4.039472e-05
8.082461e-06
4.107739e-06
-2.079047e-05
7.678389e-06
1.536512e-06
-4.055846e-06
2.468723e-05
3.715061e-06
1.047367e-05
-9.387799e-06
4.33732e-06
2.882654e-06
-5.799527e-07
4.385687e-06
5.914555e-06
-5.61064e-06
9.399588e-06
6.709159e-05
6.528554e-05
1.752021e-05
2.16313e-05
2.77066e-05
2.662523e-05
-4.840801e-06
1.59126e-05
2.23028e-05
2.443159e-05
-6.40574e-07
-1.596978e-07
-7.771783e-07
2.749126e-05
7.586265e-06
4.101679e-06
2.621673e-05
1.818385e-05
1.723456e-05
3.842355e-05
2.472393e-05
2.441205e-05
-7.653092e-06
-8.243235e-06
1.618764e-05
6.883564e-06
7.483512e-06
1.802772e-05
3.266984e-05
3.204132e-05
-9.764932e-06
-5.989581e-06
-6.532339e-06
2.715306e-05
-1.193265e-06
-8.797968e-06
3.765538e-05
-1.004948e-05
-8.094754e-06
1.289572e-06
4.949961e-08
1.793217e-05
1.798088e-05
-7.421248e-07
9.705005e-06
2.129319e-05
2.530801e-05
2.954777e-05
3.034413e-05
5.021986e-05
5.638891e-05
5.448491e-05
4.771892e-05
5.453195e-05
5.240233e-05
2.073163e-05