/*--------------------------------*- C++ -*----------------------------------*\
| =========                 |                                                 |
| \\      /  F ield         | OpenFOAM: The Open Source CFD Toolbox           |
|  \\    /   O peration     | Version:  2406                                  |
|   \\  /    A nd           | Website:  www.openfoam.com                      |
|    \\/     M anipulation  |                                                 |
\*---------------------------------------------------------------------------*/
FoamFile
{
    version     2.0;
    format      ascii;
    arch        "LSB;label=32;scalar=64";
    class       surfaceScalarField;
    location    "0.42";
    object      phi;
}
// * * * * * * * * * * * * * * * * * * * * * * * * * * * * * * * * * * * * * //

dimensions      [0 3 -1 0 0 0 0];

oriented        oriented;

internalField   nonuniform List<scalar> 
6749
(
5.230786e-09
4.076686e-09
-9.307472e-09
-1.780029e-09
-1.15584e-09
2.935869e-09
-9.060922e-11
-1.690912e-09
1.781522e-09
1.741235e-09
-5.58099e-10
-1.183136e-09
1.307126e-09
-1.389446e-09
8.231973e-11
-1.01204e-09
1.827445e-09
-8.154051e-10
1.234953e-09
2.486941e-10
-1.483647e-09
2.361171e-10
1.119763e-09
-1.35588e-09
-9.186723e-10
1.360564e-09
-4.418921e-10
-1.716214e-09
4.894406e-10
1.226773e-09
1.754283e-09
-1.025456e-09
-7.288269e-10
-7.948995e-10
-1.494298e-09
2.289198e-09
-2.238807e-09
-2.624075e-10
2.501214e-09
3.702151e-09
-1.242343e-09
-2.459808e-09
9.925528e-10
4.457894e-10
-1.438342e-09
-1.910326e-09
8.467988e-11
1.825646e-09
1.783502e-09
-2.191132e-11
-1.761591e-09
3.706698e-10
-1.405441e-09
1.034771e-09
-6.393281e-10
-5.969381e-10
1.236266e-09
1.833879e-09
1.385313e-10
-1.97241e-09
-7.939942e-10
1.618074e-09
-8.240797e-10
9.272865e-10
-1.797362e-09
8.700752e-10
1.512511e-09
6.139607e-10
-2.126472e-09
-1.191208e-09
2.447442e-10
9.464634e-10
9.201793e-10
9.196745e-10
-1.839854e-09
-5.828202e-10
-1.105494e-09
1.688314e-09
1.068117e-09
3.576873e-10
-1.425804e-09
3.491349e-10
9.327656e-10
-1.281901e-09
2.828282e-10
-1.375223e-09
1.092395e-09
1.305026e-09
1.474432e-10
-1.452469e-09
-3.311138e-09
1.907952e-09
1.403187e-09
1.466824e-09
2.235327e-09
-1.451755e-09
2.675991e-09
-1.224235e-09
-1.684207e-09
1.040737e-09
6.434697e-10
-7.874204e-10
-1.470279e-09
2.2577e-09
4.842742e-09
-1.014358e-08
5.300839e-09
9.652762e-11
-1.489807e-09
1.393279e-09
-1.706626e-09
1.915467e-09
-2.088403e-10
-9.628614e-10
2.880525e-09
-1.917663e-09
1.00869e-09
7.535974e-10
-1.762287e-09
6.601341e-09
-1.758598e-09
7.388359e-10
8.325334e-10
-1.571369e-09
6.273989e-10
-3.005272e-09
2.377873e-09
4.51268e-09
2.441511e-09
-6.954191e-09
1.326546e-09
-2.627209e-09
1.300664e-09
-1.021293e-09
-6.949209e-10
4.558611e-10
-1.935568e-09
1.479706e-09
-8.176118e-11
-1.133643e-09
1.215405e-09
-1.729846e-09
1.714525e-09
1.532133e-11
4.859582e-10
-1.830008e-09
1.34405e-09
1.594069e-09
-5.737633e-10
-1.020305e-09
1.735443e-09
3.308317e-09
-5.04376e-09
-1.416173e-09
-4.176445e-10
-1.196709e-09
-8.075172e-10
2.004227e-09
-4.49227e-10
1.860267e-09
-1.41104e-09
7.415689e-10
8.39668e-10
-1.581237e-09
6.405731e-09
-5.028554e-09
-1.377177e-09
1.953908e-09
2.214723e-10
-2.175381e-09
-9.757682e-10
1.217171e-09
-2.414027e-10
-2.988964e-10
1.816557e-09
-1.517661e-09
6.712649e-10
-1.701475e-09
1.030211e-09
-5.535046e-10
-1.084653e-09
1.638158e-09
-2.874346e-10
-1.492444e-09
1.779879e-09
-8.177868e-10
5.997587e-10
2.180281e-10
-8.998132e-10
1.340216e-09
-4.404032e-10
-6.560652e-10
-1.087817e-09
1.743882e-09
1.282934e-09
1.994227e-10
-1.482357e-09
-8.513791e-11
-2.029731e-09
2.114869e-09
-1.83401e-09
2.392983e-09
-5.589724e-10
1.204987e-10
1.277097e-09
-1.397595e-09
6.603287e-10
-1.906385e-09
1.246057e-09
1.451078e-09
6.103245e-10
-2.061402e-09
3.096943e-10
-1.316651e-09
1.006957e-09
-4.898335e-10
-1.261808e-09
1.751641e-09
1.186669e-09
4.658186e-10
-1.652487e-09
9.293555e-10
-1.735639e-09
8.062838e-10
2.139229e-09
-1.044102e-09
-1.095127e-09
6.506909e-10
-1.109824e-09
1.842132e-09
-1.087677e-09
-7.544553e-10
3.656268e-09
-2.775201e-09
-8.810668e-10
-3.943201e-11
1.807304e-09
-1.767872e-09
-1.878134e-09
1.14397e-09
7.341642e-10
1.776627e-09
-1.055794e-09
-7.20833e-10
-1.215907e-09
1.507601e-09
-2.916932e-10
-4.244087e-09
4.596993e-10
3.784387e-09
-3.968183e-10
1.690354e-09
-1.293536e-09
-1.684112e-09
3.656376e-10
1.318474e-09
-1.079398e-09
-4.041479e-10
1.483546e-09
1.448161e-09
-1.940033e-09
4.918714e-10
-1.88406e-09
3.991475e-10
1.484913e-09
6.743122e-09
-7.091825e-09
3.487033e-10
1.264689e-09
1.222449e-10
-1.386934e-09
9.103475e-10
9.10958e-10
-1.821305e-09
-1.986984e-09
1.951977e-09
3.500664e-11
-9.442001e-11
-1.667964e-09
1.762384e-09
1.692865e-09
-1.018127e-09
-1.010202e-09
1.879533e-09
-8.693306e-10
2.235702e-09
-3.334708e-09
1.099006e-09
-7.898774e-10
-7.00215e-10
1.490092e-09
-3.680504e-10
-1.114374e-09
1.482424e-09
-2.243409e-09
8.902226e-10
1.353187e-09
-1.355098e-09
-7.095437e-09
8.450536e-09
1.251856e-09
-1.767597e-09
5.15741e-10
-1.84273e-09
9.538496e-10
8.888802e-10
-6.173936e-11
7.006494e-09
-6.944754e-09
-1.216087e-09
-5.717527e-10
1.78784e-09
-9.349513e-10
-7.728653e-10
2.185723e-09
-6.187167e-09
4.001443e-09
2.013605e-10
-1.528155e-09
1.326794e-09
-2.185919e-09
8.873735e-10
1.298546e-09
1.083654e-09
-1.896301e-09
8.12647e-10
3.756969e-09
1.716486e-09
-5.473454e-09
1.651682e-09
-3.779843e-09
2.128161e-09
-8.81276e-10
-7.407818e-10
-2.0005e-09
2.564504e-09
-5.64004e-10
-1.323744e-09
9.264705e-11
1.231097e-09
6.297411e-10
1.125486e-09
-1.755227e-09
1.495866e-09
1.494953e-10
-1.645361e-09
4.922453e-10
1.219464e-09
-1.711709e-09
-9.563852e-10
-8.812555e-10
1.837641e-09
-5.027581e-09
5.019619e-09
7.961887e-12
-1.863392e-09
-8.702004e-10
2.733593e-09
-3.069929e-10
1.879162e-09
-1.572169e-09
-1.685225e-09
2.502929e-10
1.434932e-09
2.038264e-09
-1.095411e-09
-9.428533e-10
2.060499e-09
-2.528251e-10
-1.807674e-09
-3.886116e-10
1.2533e-09
-8.64688e-10
-4.105269e-10
1.330021e-09
-9.194944e-10
-1.638496e-09
2.438849e-09
-8.003539e-10
2.951742e-10
-1.194987e-09
4.788435e-10
-1.524237e-09
1.045393e-09
1.510859e-09
-1.30771e-09
-2.031496e-10
-1.311803e-09
2.583978e-10
1.053405e-09
-1.432351e-09
2.031385e-09
-5.990342e-10
-1.185611e-09
-4.84856e-10
1.670467e-09
9.888944e-10
3.299717e-10
-1.318866e-09
6.713537e-10
1.458204e-09
-2.129557e-09
4.6967e-10
-1.587721e-09
1.118051e-09
1.285732e-09
-1.428087e-09
1.423554e-10
1.106095e-09
-1.987842e-09
8.817469e-10
-1.240098e-09
1.726056e-09
2.150146e-10
-1.560679e-09
1.345665e-09
2.042931e-09
-6.779154e-10
-1.365016e-09
9.131341e-10
-2.107794e-09
2.080708e-09
-1.195958e-09
-8.8475e-10
-1.616524e-09
3.409092e-10
1.275615e-09
-1.350844e-09
6.968966e-10
6.53947e-10
-4.663776e-09
3.755371e-09
9.084046e-10
-1.981699e-09
-5.383229e-10
2.520022e-09
-6.991877e-10
-1.224008e-09
1.923196e-09
5.304425e-10
1.300382e-09
-1.830825e-09
7.552481e-10
1.037739e-09
-1.792987e-09
1.701193e-09
-1.649773e-09
-5.142042e-11
-1.662383e-09
7.783641e-10
8.84019e-10
-2.066178e-09
1.27805e-09
7.881284e-10
-3.679512e-10
-1.166921e-09
1.534872e-09
1.054551e-09
-1.752828e-09
6.982775e-10
-1.593403e-09
8.639594e-10
7.294439e-10
4.812846e-09
2.7783e-09
7.294434e-10
1.284499e-09
-2.013942e-09
-1.330257e-09
1.959998e-09
1.320808e-09
4.23946e-10
-1.744754e-09
-5.672033e-10
-7.717235e-10
1.338927e-09
5.102755e-10
-2.116938e-09
1.606663e-09
-1.68062e-09
1.471737e-09
2.088836e-10
1.76157e-09
2.423272e-12
-1.763994e-09
5.0593e-10
-1.596453e-09
1.090523e-09
-9.138734e-10
-1.12844e-09
2.042314e-09
1.890035e-09
-1.413306e-09
-4.767289e-10
-1.256671e-09
1.646808e-09
-3.90137e-10
3.14604e-10
-1.98672e-09
1.672116e-09
1.621239e-09
-7.99373e-10
-8.218656e-10
-1.750984e-10
-1.108629e-09
1.283728e-09
2.092622e-09
-6.565503e-10
-1.436071e-09
1.096971e-09
1.082513e-09
-2.179484e-09
-1.778669e-09
-6.167103e-11
1.84034e-09
-8.480561e-10
-8.612096e-10
-1.169147e-09
-3.027424e-10
1.47189e-09
-1.566093e-09
-1.111356e-10
1.677228e-09
1.236574e-09
5.207682e-10
-1.757342e-09
1.532175e-09
7.293223e-10
-2.261497e-09
1.238612e-09
-2.861652e-10
-9.524473e-10
-1.217899e-09
1.100401e-09
1.17498e-10
2.007253e-09
-1.923792e-09
-8.346102e-11
4.223402e-10
1.318885e-09
-1.741225e-09
-4.139591e-10
2.157681e-09
-1.743722e-09
-2.239566e-09
4.425289e-09
-5.228706e-10
-1.17493e-09
1.697801e-09
-8.772532e-10
-2.28324e-09
3.160493e-09
2.096282e-10
-1.6185e-09
1.408872e-09
1.594955e-09
-9.872578e-10
-6.076975e-10
1.309527e-09
-1.91427e-09
6.047435e-10
1.437136e-09
7.046335e-10
-2.141769e-09
-1.307364e-09
1.859802e-09
-5.524377e-10
1.615027e-09
1.937733e-10
-1.8088e-09
2.670788e-09
-2.282578e-09
-3.882097e-10
-2.054138e-09
6.252719e-10
1.428866e-09
7.413985e-10
7.640944e-10
-1.505493e-09
7.875588e-10
-1.785232e-09
8.788654e-10
9.063662e-10
1.008707e-09
-1.408953e-09
4.00246e-10
8.110735e-10
1.457999e-10
-9.568734e-10
6.18525e-10
-1.420788e-09
8.022625e-10
1.576769e-09
-1.510356e-09
-6.641308e-11
5.450784e-09
-9.381045e-10
-1.939844e-09
9.870855e-10
9.527582e-10
-1.145021e-09
1.157996e-09
-1.297498e-11
-1.328763e-09
8.795357e-10
-1.335612e-09
-5.410037e-10
1.876616e-09
-4.865787e-10
2.012497e-09
-1.525919e-09
-1.07568e-09
-6.432881e-10
1.718968e-09
-1.431143e-09
1.143708e-09
2.080835e-09
-8.284082e-10
-1.252427e-09
-1.056534e-09
1.214095e-09
-1.575604e-10
-8.567139e-10
-5.899112e-10
1.446625e-09
2.000781e-09
-8.20706e-10
-1.180075e-09
1.36636e-09
-1.952527e-09
5.861677e-10
-1.275935e-09
-1.063602e-09
2.339537e-09
-4.332373e-10
1.467144e-09
-1.033907e-09
1.227427e-09
-4.850292e-10
-7.423979e-10
8.49305e-10
-5.842416e-10
-2.650634e-10
1.435682e-09
4.935871e-10
-1.929269e-09
9.146993e-10
8.294321e-10
-1.744131e-09
-1.104359e-09
1.808718e-09
-7.043594e-10
-1.376172e-09
-7.544966e-10
2.130669e-09
1.833755e-09
1.064012e-09
-2.897768e-09
2.029749e-09
-1.295628e-09
-7.341201e-10
1.55554e-09
-1.714914e-09
1.59374e-10
8.065194e-10
7.356439e-10
-1.542163e-09
4.166313e-09
-4.390005e-09
2.236916e-10
7.853091e-10
1.247986e-09
-2.033295e-09
-2.245392e-09
1.799329e-09
4.460625e-10
2.295574e-09
-1.504252e-09
-7.91322e-10
-1.737555e-09
9.527493e-10
7.848056e-10
8.831736e-10
-4.005589e-10
-4.826148e-10
-1.201084e-09
1.364311e-09
1.937928e-09
-3.291203e-10
-1.608808e-09
2.680786e-09
-3.201655e-09
5.208686e-10
2.803081e-09
-3.999914e-09
1.196833e-09
3.006372e-10
-1.539796e-09
1.239159e-09
-1.014775e-09
-1.230617e-09
-2.233516e-09
1.13508e-09
-1.260645e-09
1.487744e-10
1.111871e-09
-1.477698e-10
1.432993e-09
-1.285223e-09
1.489091e-09
-8.763559e-10
-6.127346e-10
5.883729e-11
1.801904e-09
-1.860741e-09
1.186806e-09
7.514504e-10
-1.938256e-09
-7.480707e-10
2.022492e-09
-1.274421e-09
-3.336105e-10
-7.968175e-10
1.130428e-09
1.400534e-09
2.134231e-09
-3.534765e-09
9.557199e-11
1.738183e-09
5.535133e-10
9.229854e-10
-1.476499e-09
8.996827e-10
6.803728e-10
-1.580055e-09
1.161514e-10
-1.730068e-09
1.613917e-09
7.113998e-10
5.584752e-10
-1.269875e-09
-4.146742e-09
6.456346e-10
3.501107e-09
1.872425e-09
-9.577257e-10
-1.852804e-09
9.820709e-10
8.707329e-10
-8.994251e-10
1.667827e-09
-9.105812e-11
-1.146947e-09
-6.198408e-10
1.766788e-09
4.336834e-10
9.866131e-10
-1.420296e-09
2.916994e-09
-1.786603e-09
-1.130391e-09
8.904729e-10
5.065379e-10
-1.397011e-09
1.711584e-09
-1.401889e-09
-1.455607e-09
1.061392e-09
3.942149e-10
-5.761274e-10
-1.063915e-09
1.640043e-09
1.00175e-09
-1.58209e-09
5.803393e-10
2.419076e-09
-9.76393e-10
-1.442683e-09
-2.954384e-10
-1.205386e-09
1.500825e-09
2.740678e-10
1.219569e-09
-1.493637e-09
1.169076e-09
3.386162e-10
-1.507692e-09
-1.09298e-09
1.401387e-09
-3.084069e-10
-2.591693e-10
1.283859e-09
-1.02469e-09
-1.489659e-09
-2.582838e-10
1.747943e-09
-1.475941e-10
1.930181e-09
-1.782586e-09
6.588906e-10
8.177692e-10
-1.47666e-09
-6.643335e-10
1.592894e-09
-9.285609e-10
-1.527604e-09
1.6786e-09
-1.509963e-10
-3.721806e-10
1.889803e-09
-1.517622e-09
-1.480038e-09
4.073749e-10
1.072664e-09
-1.754243e-09
1.677478e-09
7.676449e-11
9.832298e-10
5.759892e-09
1.451112e-09
-1.513365e-09
6.225318e-11
1.354106e-09
6.667059e-10
-2.020811e-09
9.295685e-10
7.854408e-10
-1.715009e-09
-3.174422e-09
-6.969159e-09
1.617314e-09
-1.063953e-09
-5.533613e-10
-1.212938e-09
1.282867e-09
-6.992911e-11
-1.48369e-09
9.857762e-10
4.979134e-10
-1.815535e-10
-1.480647e-09
1.662201e-09
1.149693e-09
-6.800228e-10
1.841228e-09
-7.866767e-10
-6.385568e-10
-9.548465e-10
1.424789e-09
-9.145139e-10
-1.505703e-09
4.457762e-10
1.059927e-09
1.737118e-09
-6.536374e-10
-1.08348e-09
-2.129602e-09
1.866964e-09
2.626378e-10
-8.881248e-10
-4.68445e-10
1.35657e-09
2.604786e-09
-1.721693e-09
-8.830927e-10
-1.980952e-09
1.405743e-09
5.75209e-10
5.397963e-10
-1.610592e-09
1.070796e-09
-2.636199e-09
1.884528e-09
7.51671e-10
-1.28724e-09
-2.676082e-10
1.554848e-09
7.13421e-10
-2.424977e-09
1.711556e-09
-9.051997e-10
-8.496683e-10
1.754868e-09
-3.982593e-10
1.606579e-09
-1.20832e-09
1.285837e-09
3.314771e-10
8.971151e-10
-2.029501e-09
1.132386e-09
-7.872525e-10
-9.325297e-10
1.719782e-09
-1.875608e-09
2.179572e-09
-3.039635e-10
1.20873e-09
-2.660486e-09
-2.472424e-09
-2.191352e-09
1.915697e-10
1.527723e-09
-1.719293e-09
8.098089e-10
7.564044e-10
-1.566213e-09
-4.007786e-09
2.551509e-09
1.456277e-09
1.951402e-09
-6.226338e-10
-1.328768e-09
-8.553679e-10
1.594204e-09
3.085416e-11
1.481657e-09
8.183125e-10
5.177193e-10
-1.336032e-09
1.563914e-09
1.23023e-10
-1.686937e-09
1.044423e-09
-1.576639e-09
2.208193e-09
-1.171196e-10
-2.091073e-09
-9.748994e-10
2.312847e-09
-1.337948e-09
-1.105582e-09
8.817356e-10
2.23846e-10
1.334571e-09
-2.10091e-09
7.66339e-10
2.238211e-09
-7.267142e-09
5.02893e-09
9.700956e-10
1.136022e-09
-2.106117e-09
-8.224752e-10
1.630819e-09
-8.08344e-10
-9.125108e-10
1.618674e-09
-7.061631e-10
2.319561e-09
-1.67791e-09
-6.416505e-10
1.54219e-09
-1.362802e-09
-1.79388e-10
9.44638e-10
-2.500487e-09
1.555849e-09
-5.701708e-10
1.880145e-09
-1.309974e-09
2.170899e-09
-1.737215e-09
1.746804e-09
-8.554632e-10
-8.913406e-10
-1.578056e-09
6.372519e-10
9.408042e-10
8.279376e-10
-1.071715e-09
2.437773e-10
1.751111e-09
-1.679871e-09
-7.124017e-11
4.38609e-09
-2.447422e-09
-1.938667e-09
-1.219187e-09
1.837712e-09
-6.469763e-10
1.404077e-09
-7.571008e-10
1.953633e-09
-1.524278e-09
-4.293551e-10
-1.813668e-09
3.214202e-09
3.240012e-10
-1.408541e-09
1.08454e-09
-2.088074e-09
1.242726e-09
8.453488e-10
-2.265931e-09
-4.847052e-10
2.750636e-09
1.135919e-09
-1.92334e-09
8.863392e-10
1.198839e-09
-2.085178e-09
-2.074243e-10
-1.358668e-09
-1.082708e-09
1.676771e-09
-5.940623e-10
8.635486e-10
-2.210717e-09
1.347168e-09
1.51283e-09
-1.718966e-09
2.061368e-10
6.585152e-10
-1.814466e-09
1.155951e-09
-2.218233e-09
1.519887e-09
6.983461e-10
3.516076e-10
-1.719711e-09
1.368103e-09
-1.068812e-09
-8.422524e-10
1.169857e-09
-1.749721e-09
5.798637e-10
1.641281e-09
-2.943185e-09
1.301904e-09
1.679632e-09
-1.065672e-09
1.102966e-09
-1.896961e-09
9.725242e-10
-1.831467e-09
8.589426e-10
1.940273e-09
-9.325053e-10
-1.007768e-09
1.171555e-09
-2.841534e-09
1.669979e-09
1.176148e-09
-2.131574e-09
9.554262e-10
-6.844682e-10
1.549094e-09
-8.646253e-10
-1.702084e-09
1.863463e-10
1.515738e-09
-1.531333e-09
9.480773e-11
1.436525e-09
-7.501352e-09
6.16227e-09
1.339082e-09
-1.437397e-09
-3.799974e-10
1.817394e-09
-2.473362e-09
8.913127e-10
1.58205e-09
-2.249406e-10
-5.928463e-10
-1.679999e-09
6.975744e-10
9.824247e-10
-4.320097e-10
-1.684928e-09
1.989219e-09
-8.665875e-10
-1.122632e-09
-1.340601e-09
1.434602e-09
-9.400103e-11
1.900614e-09
-9.305181e-10
9.029017e-10
1.181755e-09
-2.084657e-09
-1.742803e-09
1.512349e-09
2.304536e-10
4.825758e-10
1.028284e-09
4.097365e-10
-1.781309e-09
1.371572e-09
1.585638e-09
-1.723184e-10
-1.413319e-09
-1.70837e-09
8.842696e-10
8.241006e-10
2.130524e-09
3.143418e-10
-2.444866e-09
-1.406881e-09
1.231783e-09
-8.65709e-10
1.424981e-09
-5.592718e-10
-1.208828e-09
1.485757e-09
-2.769297e-10
8.319575e-10
-2.538584e-09
1.383646e-09
-9.267429e-10
-4.56903e-10
-1.980169e-10
1.64737e-09
-1.449353e-09
-9.071532e-10
1.691544e-09
-7.843908e-10
-1.528377e-09
1.820071e-09
-2.91694e-10
-1.783007e-09
1.969966e-09
-3.07713e-09
1.107164e-09
-1.677887e-09
1.161565e-09
5.16322e-10
-3.523631e-10
-1.349599e-09
1.701963e-09
1.247666e-09
-1.936646e-09
6.889801e-10
2.263305e-10
1.390675e-09
-1.617005e-09
-3.244573e-09
4.873391e-09
-1.628819e-09
-7.650198e-10
1.906774e-09
-1.141754e-09
-4.088909e-10
-8.696183e-10
1.278509e-09
1.230202e-09
-1.713404e-09
4.83201e-10
-3.016368e-10
1.427123e-09
9.944412e-10
-1.624923e-09
6.304815e-10
-1.057247e-09
-3.163761e-10
1.373623e-09
7.864364e-10
1.129428e-09
-1.915864e-09
1.252027e-09
6.061899e-10
-1.822097e-09
-9.303918e-10
-9.330701e-10
1.863462e-09
-2.754928e-09
-2.082675e-09
7.3952e-10
1.343155e-09
7.235014e-10
-1.445522e-09
7.220206e-10
4.000021e-10
1.701178e-09
-2.10118e-09
1.192517e-09
-8.180863e-10
-3.744306e-10
-5.844252e-10
-1.006683e-09
1.591108e-09
-2.033692e-09
1.278148e-09
7.555433e-10
-2.567943e-09
3.067756e-10
2.261168e-09
-1.62392e-09
-6.851725e-11
1.692437e-09
7.70868e-10
-1.848618e-09
1.07775e-09
1.106109e-09
1.052571e-09
-2.15868e-09
1.299013e-09
-3.759311e-10
-9.230814e-10
-1.246277e-09
8.467491e-10
3.995282e-10
-1.337119e-09
-1.823127e-09
3.160247e-09
7.190827e-10
-1.65398e-09
9.348972e-10
-1.301481e-09
1.730539e-09
-4.290582e-10
-6.685299e-10
-1.210358e-09
1.878888e-09
2.019063e-09
-1.263815e-09
9.721201e-10
-1.794588e-09
8.224676e-10
-6.285033e-11
-1.119451e-09
1.182301e-09
1.828146e-09
-1.036602e-09
-7.915442e-10
-1.712974e-09
2.233143e-10
1.015885e-09
5.178357e-10
-1.533721e-09
-7.288275e-13
-1.894322e-09
1.895051e-09
-8.538727e-10
1.834473e-09
-9.806002e-10
-1.315291e-09
-6.567568e-09
7.882859e-09
-1.949134e-09
6.076935e-10
1.341441e-09
-1.071862e-09
-8.675986e-10
1.524099e-09
-6.565005e-10
-1.311957e-09
-8.546078e-10
2.166564e-09
2.646697e-09
-2.745323e-09
9.862586e-11
1.68046e-09
-1.845937e-10
-1.857324e-09
1.392659e-09
4.646649e-10
-1.151677e-09
-3.248387e-10
1.476516e-09
1.01315e-09
-1.529982e-09
5.168314e-10
-8.887313e-10
-1.046472e-09
1.935203e-09
2.015031e-09
-5.740301e-10
-1.441e-09
-2.443661e-09
3.770206e-09
4.328991e-10
-1.318327e-09
8.854282e-10
5.042989e-10
1.224712e-09
-1.72901e-09
9.648645e-09
-9.648645e-09
-1.525312e-09
1.136045e-09
3.892671e-10
1.760698e-09
-9.055277e-10
-8.551704e-10
1.077361e-09
-1.648353e-09
1.593405e-09
-9.427465e-10
-6.506585e-10
-1.632974e-09
-1.830386e-10
1.816013e-09
1.430943e-09
1.76614e-09
-3.197083e-09
1.613994e-09
-8.724253e-10
1.470946e-09
-8.39193e-10
-6.317532e-10
1.562828e-09
-7.132313e-10
-8.495965e-10
1.796184e-09
-5.553123e-10
-1.240872e-09
8.356048e-10
-1.602937e-09
7.673324e-10
1.925265e-09
-4.895831e-10
8.480339e-10
5.647222e-10
-1.412756e-09
-7.862401e-10
-5.425227e-10
1.80194e-09
-1.513531e-09
-2.884085e-10
1.674492e-09
2.791853e-11
-1.631684e-09
1.603765e-09
-2.67724e-10
1.57318e-09
-1.305456e-09
6.773495e-10
1.598966e-09
-1.176626e-09
-9.593576e-10
1.822906e-09
1.859146e-09
-1.291476e-09
-5.676693e-10
2.221802e-09
-1.292446e-09
1.305447e-09
-1.479595e-09
1.741476e-10
3.309814e-10
-1.899174e-09
1.568192e-09
-4.050401e-10
-1.505286e-09
-1.373421e-09
1.262949e-09
1.104718e-10
8.021574e-11
-1.396867e-09
7.362365e-09
-2.131579e-09
2.559267e-09
9.922051e-10
-3.551472e-09
-2.834715e-09
1.497596e-09
7.900536e-10
-1.67644e-09
3.525624e-10
-1.112346e-09
7.597835e-10
-1.143437e-09
1.188465e-09
-4.502868e-11
-3.724347e-10
1.796527e-09
-1.424092e-09
1.313532e-09
5.588929e-10
-1.233078e-09
1.725323e-09
7.671596e-10
-1.771201e-09
1.004041e-09
5.882236e-10
-3.05495e-09
2.466727e-09
-1.808633e-09
-5.699632e-10
3.744287e-09
2.251204e-09
-5.995491e-09
-1.824415e-09
3.004941e-10
1.523921e-09
-6.741058e-10
1.817478e-09
-1.143372e-09
-3.067408e-09
-1.528301e-09
4.595709e-09
-2.351646e-09
-1.975066e-09
4.326712e-09
9.849959e-10
-1.383293e-09
3.982972e-10
-3.485578e-09
7.13692e-10
2.771886e-09
-1.516809e-09
6.509869e-10
8.658222e-10
-9.397603e-10
2.045869e-09
2.582409e-09
-2.535643e-09
-4.67655e-11
1.133298e-09
6.135061e-10
-2.679033e-09
2.083717e-10
2.470661e-09
1.427727e-09
-2.975525e-10
-1.130175e-09
1.780334e-09
-5.683522e-10
-1.211981e-09
8.345295e-10
1.258092e-09
-1.684402e-09
2.560712e-09
-8.763101e-10
-4.688824e-10
-1.123724e-09
1.592606e-09
-1.646011e-09
9.108178e-10
7.351933e-10
-8.798731e-11
-3.39759e-09
1.281479e-11
-1.34435e-09
1.331535e-09
-1.178846e-09
2.01445e-09
-1.406842e-09
2.234765e-09
-8.279227e-10
-1.796876e-09
9.367323e-10
8.601436e-10
-1.203945e-09
1.540691e-09
-3.367462e-10
1.895989e-09
-1.128829e-09
-9.3887e-10
2.965136e-10
-9.630141e-10
1.886051e-09
-9.230373e-10
-9.917965e-11
-1.256472e-09
1.355652e-09
3.80953e-10
1.277415e-09
-1.658368e-09
5.508661e-10
-1.747576e-09
-6.348509e-10
2.085929e-09
-3.983495e-10
-7.651713e-10
1.163521e-09
1.596542e-09
-9.37651e-10
2.423093e-10
1.030752e-09
-1.273061e-09
-1.104178e-09
3.77528e-10
7.2665e-10
-4.516556e-10
1.506173e-09
-1.054517e-09
5.323586e-09
-3.619945e-09
-1.703641e-09
9.068077e-10
-1.6176e-09
7.107918e-10
-2.112111e-10
1.450776e-09
-1.239565e-09
1.312349e-09
-1.31878e-09
6.430399e-12
3.739624e-10
-1.731674e-09
2.613943e-10
5.28355e-09
-1.170922e-09
-4.112628e-09
2.153313e-11
1.225912e-09
-1.247445e-09
-2.958108e-10
1.591635e-09
-1.295824e-09
2.920748e-09
-3.105514e-10
-2.610196e-09
-1.122121e-09
2.116518e-09
-9.94397e-10
-1.01877e-09
1.732267e-09
-7.134965e-10
-1.502339e-09
2.560619e-10
2.636704e-09
-2.34019e-09
-1.397414e-10
1.436436e-09
-1.296694e-09
3.286072e-10
1.399714e-09
-1.728321e-09
6.048425e-10
-1.149494e-09
5.446511e-10
-3.687507e-10
-1.133589e-09
1.320757e-09
2.603732e-09
-3.924489e-09
1.298215e-10
1.604113e-09
-1.733935e-09
3.104721e-09
1.025356e-10
-3.207257e-09
-1.084663e-09
2.065383e-10
-3.89877e-10
-8.441621e-10
1.234039e-09
1.629141e-10
3.44081e-09
-3.603724e-09
-1.69418e-09
5.569863e-10
1.137194e-09
1.289316e-09
6.999029e-10
-1.527748e-09
-2.289757e-11
1.550645e-09
-3.39015e-09
3.362329e-09
2.782071e-11
-1.606015e-09
-3.312992e-09
4.919007e-09
-1.199624e-09
1.580577e-09
1.97998e-09
-1.130026e-09
-8.499536e-10
7.353604e-10
1.911336e-09
6.308978e-10
7.527481e-10
8.207187e-10
1.119555e-09
-2.70125e-10
-1.563608e-09
1.833733e-09
9.319735e-10
-2.590968e-09
1.658995e-09
-1.732505e-10
-1.109461e-09
1.282712e-09
-1.636144e-09
1.794292e-09
-1.581477e-10
1.604997e-09
-8.814952e-10
1.34301e-09
-1.891905e-09
5.488953e-10
1.515216e-09
-1.674449e-09
1.592331e-10
-6.281481e-10
-1.825622e-09
2.45377e-09
1.288503e-09
-1.460821e-09
-5.749278e-10
-8.624691e-10
1.275774e-09
5.833719e-10
1.140567e-09
-1.505636e-09
3.650689e-10
5.176229e-10
-1.100443e-09
-2.267288e-09
2.119694e-09
5.131531e-10
1.055557e-09
-1.56871e-09
-1.27834e-09
1.975586e-09
-6.972466e-10
2.240445e-09
8.215599e-10
-2.200854e-09
1.379295e-09
1.504062e-09
-2.210099e-09
7.060374e-10
5.918531e-10
1.323614e-09
-2.334862e-09
5.286738e-09
-2.951876e-09
-1.979065e-09
1.689942e-09
2.891225e-10
-7.703342e-10
-1.0239e-09
-9.079093e-10
1.931809e-09
-6.954421e-10
1.926715e-09
-1.231273e-09
7.711194e-11
1.603348e-09
1.008671e-09
5.763254e-10
-1.584996e-09
-3.507486e-09
-4.641664e-11
-1.346297e-09
1.392714e-09
1.905734e-09
-1.806282e-10
-1.725105e-09
7.657972e-10
-1.336401e-09
1.564701e-09
-8.23273e-10
-7.414285e-10
3.527235e-11
-1.359016e-09
-1.83315e-09
-3.144571e-10
2.147607e-09
7.192699e-09
-1.700492e-09
-5.492206e-09
9.738209e-10
1.069111e-09
-1.815363e-09
2.125316e-09
-3.099522e-10
3.662918e-09
-3.750905e-09
1.313041e-09
2.349877e-09
-1.829594e-09
1.663182e-09
1.664121e-10
-4.654691e-09
4.035104e-10
4.251181e-09
-9.097589e-10
-8.754727e-10
-8.926458e-10
-1.01865e-09
1.911296e-09
-1.189094e-10
-5.415682e-09
5.534591e-09
1.354632e-09
7.65322e-10
-2.119954e-09
9.767826e-10
-1.799258e-09
-4.890333e-10
1.422579e-09
-9.335456e-10
9.281495e-10
-1.592483e-09
-1.268568e-09
9.666257e-11
1.171906e-09
5.166471e-10
1.389086e-09
-3.970034e-10
1.523735e-09
-1.126732e-09
5.752184e-10
-1.008947e-09
-5.864718e-10
1.595418e-09
-1.25811e-09
1.100384e-09
1.577259e-10
-1.355894e-09
-4.536003e-10
1.809495e-09
-1.072146e-09
2.367348e-09
-1.295202e-09
-1.557579e-09
-4.241202e-10
-1.699796e-09
1.74435e-09
-4.455381e-11
1.562184e-09
2.005623e-09
9.421818e-11
-2.099841e-09
-1.992673e-09
1.637124e-09
3.555491e-10
-1.677138e-09
7.194121e-10
1.166839e-09
-1.673086e-09
5.062467e-10
1.635604e-09
-3.458731e-09
1.021752e-09
-1.794617e-09
1.517912e-09
-1.388216e-09
-1.296959e-10
3.129339e-09
-1.605736e-09
-1.523603e-09
2.785019e-10
1.238394e-09
-1.516896e-09
-9.985389e-10
-8.542649e-10
-1.090248e-09
1.858162e-09
-7.679141e-10
-2.991952e-09
3.727313e-09
-8.246176e-10
1.720745e-09
-8.961276e-10
9.242693e-10
1.992725e-09
-5.307522e-10
1.885385e-09
8.63032e-10
-1.501589e-09
-3.512349e-10
-1.292493e-09
1.643728e-09
-2.770808e-10
-1.881615e-09
2.158696e-09
1.595236e-09
-8.181672e-10
-7.770693e-10
-1.768779e-10
1.431965e-09
-1.255087e-09
2.264014e-09
-3.226875e-09
1.656879e-09
-1.927004e-09
-7.66034e-10
2.288816e-09
-1.522782e-09
-1.38757e-09
-4.964903e-10
2.020009e-09
-1.044841e-09
-9.751678e-10
1.415242e-09
-1.73946e-09
3.242176e-10
1.640995e-09
-5.232372e-10
-1.117758e-09
-5.237886e-10
1.775645e-09
-6.660359e-10
-1.162273e-09
1.828308e-09
-2.136582e-09
1.125171e-09
1.011412e-09
-1.424237e-09
-6.139047e-10
2.038142e-09
2.112379e-09
-4.97352e-10
-2.800933e-09
-4.394662e-09
7.195594e-09
-3.090037e-09
3.868693e-09
-7.786561e-10
-2.055077e-09
4.1808e-09
-2.125723e-09
1.887296e-09
-1.829037e-09
-5.825899e-11
1.286971e-09
-1.947432e-09
6.604617e-10
6.844739e-10
1.347517e-09
-2.031991e-09
-5.782987e-09
2.550917e-09
3.23207e-09
6.388699e-10
1.345964e-09
-1.984834e-09
-1.852207e-09
1.046845e-09
8.053624e-10
9.342921e-10
1.009834e-09
-1.944127e-09
1.384587e-09
-2.139211e-09
7.54624e-10
2.540612e-09
-2.765986e-10
1.827784e-09
6.475577e-09
-5.52215e-10
-1.528189e-09
2.080404e-09
-1.705947e-09
-4.210529e-10
2.127e-09
2.153933e-09
-1.839677e-10
-6.931199e-10
1.412203e-09
-9.577653e-10
1.818078e-09
-8.603127e-10
-1.393652e-10
-1.389012e-09
-6.158965e-09
3.47577e-09
2.683194e-09
1.318681e-09
7.49297e-09
-8.808261e-09
-1.819516e-09
1.88019e-09
-6.067378e-11
1.994757e-09
-8.677108e-10
-1.127046e-09
-1.209985e-09
-3.921895e-10
1.602174e-09
-7.384156e-10
4.152321e-09
-3.413905e-09
-1.617219e-09
1.572678e-09
4.454038e-11
1.780531e-10
1.685824e-09
-1.863878e-09
1.128838e-09
2.242769e-09
-1.582441e-09
-5.802497e-10
1.818692e-09
-1.238442e-09
-1.076955e-09
-9.157178e-10
9.789719e-10
1.876769e-09
-2.855741e-09
-4.58852e-09
4.735954e-09
-1.474336e-10
-1.527683e-09
-2.697934e-11
1.554662e-09
-1.902606e-09
5.795651e-10
1.323041e-09
-1.876519e-09
1.123666e-09
7.528529e-10
-4.624486e-10
-1.41407e-09
1.025199e-09
-6.088003e-10
-4.163983e-10
-1.395143e-09
1.169691e-09
1.130847e-09
-1.715127e-09
5.842805e-10
9.304399e-10
-1.865788e-09
9.353478e-10
6.767061e-10
-1.954873e-09
1.278167e-09
-9.924181e-10
1.969724e-09
-9.773062e-10
-1.574519e-09
-2.464513e-10
1.820971e-09
-2.034819e-10
1.485996e-09
1.080725e-10
-1.499255e-09
9.231279e-10
1.906528e-10
1.079699e-09
-1.270352e-09
-1.011156e-10
-1.328259e-09
1.429375e-09
1.493955e-09
5.468737e-10
-2.040829e-09
1.073015e-09
-1.520692e-09
1.151111e-09
3.695806e-10
-1.003283e-09
1.777274e-09
-7.739913e-10
-1.065425e-09
-8.708389e-10
1.936264e-09
1.247694e-09
-3.235814e-09
1.988119e-09
1.338437e-10
-2.372651e-09
3.440923e-09
-7.701353e-10
1.717041e-09
-5.457574e-12
-7.761298e-10
1.704279e-09
6.510595e-10
-1.577802e-09
1.607609e-09
-8.010898e-10
1.848446e-09
-6.785892e-10
9.895905e-10
-1.476169e-09
5.256678e-10
3.68388e-09
-4.209547e-09
-1.030678e-09
-2.474628e-10
1.278141e-09
9.631887e-10
-1.536952e-09
2.790718e-09
4.401981e-09
-1.798208e-09
1.385898e-10
1.659618e-09
1.789812e-09
7.621155e-11
-1.866024e-09
-8.075179e-10
2.220665e-09
-1.413147e-09
-1.999839e-09
1.722758e-09
2.517751e-09
-8.66199e-10
-1.651552e-09
2.051945e-09
-1.10895e-09
-9.429943e-10
-2.471947e-09
8.897684e-10
1.582179e-09
-2.17609e-10
1.737834e-09
-1.520225e-09
3.576885e-10
1.466316e-09
-1.824004e-09
1.720419e-09
8.440848e-10
1.361168e-09
1.426626e-10
-1.50383e-09
2.269794e-09
-3.512137e-09
1.690556e-09
-1.353964e-09
-3.365918e-10
-1.56796e-09
1.477351e-09
-8.345063e-10
-1.04276e-09
1.877267e-09
1.42997e-09
-2.264477e-09
-1.385066e-09
1.586427e-09
1.812984e-09
-1.67736e-10
1.256333e-09
-1.088597e-09
-1.096906e-09
1.271335e-09
-1.74429e-10
-2.029713e-09
9.619096e-10
1.067803e-09
-9.535016e-10
-1.058166e-09
2.011667e-09
-1.330872e-09
2.307654e-09
-1.309213e-09
2.208214e-09
-8.990018e-10
1.337956e-09
1.688168e-09
-5.521465e-10
7.834813e-10
1.2173e-09
-3.859923e-10
-1.385209e-09
1.813423e-09
-9.345573e-10
-1.984621e-09
6.482205e-10
1.539114e-09
4.12863e-10
-3.383458e-09
-3.867968e-10
3.770255e-09
-6.222226e-10
1.179137e-09
-5.569147e-10
-1.339278e-09
3.795002e-10
-1.760056e-09
1.380556e-09
1.974979e-09
-1.499931e-09
-4.750477e-10
1.382481e-09
-9.316507e-11
1.455117e-09
-9.397196e-10
-5.153978e-10
1.381214e-09
-8.532439e-10
-5.279704e-10
-1.375257e-09
1.388072e-09
-1.943851e-09
1.024967e-09
9.188838e-10
-2.198643e-09
-1.809143e-09
-1.347895e-09
-1.729235e-09
1.497867e-09
-1.092677e-10
1.765507e-09
1.295444e-09
-3.886358e-10
1.288633e-09
-1.391565e-09
1.029324e-10
2.188808e-09
-1.24417e-09
1.19372e-09
-1.778348e-10
-4.499952e-10
-1.874936e-09
2.324931e-09
9.727233e-10
-1.23437e-09
2.616464e-10
-1.778949e-09
2.920632e-10
1.486886e-09
5.756212e-10
7.511578e-10
-1.326779e-09
-1.619488e-09
4.985676e-10
1.120921e-09
-1.821316e-09
5.121034e-10
-9.619785e-09
3.345372e-09
6.274413e-09
1.424413e-09
-8.606468e-10
-5.637661e-10
-1.604748e-09
-6.049513e-10
-8.927007e-10
1.497652e-09
-1.942827e-09
-1.314751e-09
4.118295e-10
9.029216e-10
3.739705e-11
1.368728e-09
-1.406125e-09
-1.959636e-09
6.173597e-10
1.342276e-09
-1.612869e-09
5.338326e-10
1.079037e-09
-1.859579e-09
2.22008e-09
-4.641753e-09
2.421673e-09
-1.647663e-09
2.747168e-10
1.372946e-09
-3.699514e-10
1.76289e-09
-1.392939e-09
1.109842e-09
5.723401e-10
-1.682182e-09
8.156863e-10
-1.992883e-09
1.177197e-09
1.347328e-09
-2.054117e-09
7.067895e-10
-8.850904e-10
1.732075e-09
-8.469845e-10
8.689971e-10
-1.986732e-09
1.117735e-09
-9.991774e-10
1.522881e-09
-5.237031e-10
7.506899e-10
-1.879635e-09
-1.46878e-11
-5.565168e-10
2.451568e-09
4.723964e-10
1.46747e-09
-1.939866e-09