/*--------------------------------*- C++ -*----------------------------------*\
| =========                 |                                                 |
| \\      /  F ield         | OpenFOAM: The Open Source CFD Toolbox           |
|  \\    /   O peration     | Version:  2406                                  |
|   \\  /    A nd           | Website:  www.openfoam.com                      |
|    \\/     M anipulation  |                                                 |
\*---------------------------------------------------------------------------*/
FoamFile
{
    version     2.0;
    format      ascii;
    arch        "LSB;label=32;scalar=64";
    class       volVectorField;
    location    "0.42";
    object      U;
}
// * * * * * * * * * * * * * * * * * * * * * * * * * * * * * * * * * * * * * //

dimensions      [0 1 -1 0 0 0 0];

internalField   nonuniform List<vector> 
4541
(
(0.01003663 -8.100386e-05 1.091985e-23)
(0.0105783 -0.000628459 -3.233924e-24)
(0.01097623 -0.001589972 0)
(0.01076258 -0.001541134 0)
(0.01031863 -0.0007085892 -3.080884e-24)
(0.009448502 -0.000978319 0)
(0.01022418 -0.0008493976 9.746797e-24)
(0.01025292 -0.0006865141 -2.3827e-23)
(0.009315586 -0.0006144718 1.431583e-23)
(0.01138878 -3.199022e-05 3.596282e-24)
(0.009381818 -0.00113327 1.628881e-23)
(0.01032658 -0.001170832 -9.399421e-24)
(0.01103703 -0.0005917263 6.782087e-24)
(0.01000453 -0.0004549356 1.844837e-24)
(0.01081866 -0.001722393 0)
(0.01136602 0.0004394554 -2.96832e-27)
(0.01023401 0.001295058 2.286906e-24)
(0.009388966 0.001433084 -1.250749e-24)
(0.009908475 0.001354202 -7.623811e-24)
(0.01042219 -0.002139554 3.623272e-24)
(0.0104015 -0.0002132292 0)
(0.01049208 -0.0009305181 -1.107283e-23)
(0.01117911 0.0005396812 0)
(0.008385765 -0.000627414 4.150769e-23)
(0.01052713 -0.00172683 0)
(0.01023476 -0.0007232037 7.535112e-24)
(0.01002234 -0.000568758 -4.602101e-24)
(0.01018843 -0.0005609829 4.546445e-24)
(0.009344104 -0.0004191757 5.220211e-24)
(0.01107771 -0.0006975712 0)
(0.01006196 -0.0004433148 -2.003638e-23)
(0.01000723 -0.0004921165 -2.179724e-24)
(0.01129556 -2.549154e-05 -1.536036e-24)
(0.009686304 -0.0005976316 -8.321362e-24)
(0.01070949 -0.001224501 0)
(0.01076257 -0.0001625486 0)
(0.0109708 -0.001506951 0)
(0.01123726 -0.0009905521 -1.291234e-24)
(0.009957938 -0.0004758166 -3.617874e-23)
(0.008910837 0.001498507 3.541995e-24)
(0.01082084 -0.0001961671 0)
(0.009166488 -0.0004557261 -1.075279e-23)
(0.01074011 -0.0005829798 -2.378093e-24)
(0.01107066 9.022507e-05 -4.73815e-25)
(0.01112516 -0.0005262672 6.334132e-24)
(0.01138929 -5.809109e-05 -3.839874e-24)
(0.0112124 -0.0009075717 5.777803e-24)
(0.008481048 0.001476156 0)
(0.01066662 -0.0018799 0)
(0.01011371 -0.0007030215 1.275643e-25)
(0.009903885 -0.0009463647 0)
(0.01096195 0.0003219622 0)
(0.0103669 0.001121014 6.82716e-25)
(0.01005946 -0.0006891328 2.893214e-24)
(0.01073871 0.001063186 -1.110955e-24)
(0.009827471 -0.001467577 2.118468e-23)
(0.01001764 -0.0001579479 6.382618e-24)
(0.009684806 -0.000178916 2.284067e-24)
(0.01110388 0.0004231899 4.239955e-24)
(0.01072127 -0.00108824 4.652713e-24)
(0.00994373 -0.000625243 0)
(0.01077418 -0.0008768428 0)
(0.01011433 0.001050354 0)
(0.006785174 -0.001846326 -8.640716e-24)
(0.009233525 -0.001304383 4.916209e-23)
(0.009436383 -0.002445209 -8.188738e-24)
(0.009842112 -0.0005943852 -9.345397e-24)
(0.01120767 -0.0004236117 1.117945e-23)
(0.01106981 0.0004813629 -7.243492e-25)
(0.009728132 0.0007040469 0)
(0.0105893 0.001034828 3.14325e-24)
(0.01141871 0.0001683962 5.693646e-25)
(0.01016667 -0.0007522274 0)
(0.01156454 -0.0003836021 8.509364e-25)
(0.009565405 -0.0004369475 2.582363e-23)
(0.01154407 -0.0004344897 7.053544e-25)
(0.010005 0.001251218 -1.511866e-24)
(0.008422832 0.001528388 -5.568401e-25)
(0.01122283 -0.001375029 2.314327e-24)
(0.00983738 -0.0002430661 -1.964124e-23)
(0.01055452 0.0005021875 0)
(0.01100713 -0.001625885 -2.854516e-24)
(0.009808858 -0.0008692896 2.012187e-25)
(0.01140088 -0.0005502167 4.447357e-24)
(0.01002554 -0.0002650023 0)
(0.01056218 -0.00127846 7.374246e-24)
(0.01078718 -0.001083462 0)
(0.009989223 0.0003346431 1.46097e-23)
(0.01033317 0.001227115 -2.648179e-24)
(0.01140204 0.0003701686 0)
(0.01008234 -0.0001485078 -1.201914e-23)
(0.009518093 0.0009262341 -9.541691e-24)
(0.008696635 0.001477 0)
(0.01015762 0.001312603 0)
(0.01011969 -0.001063576 1.912517e-23)
(0.008342377 0.001556432 5.289726e-24)
(0.01040861 -0.001812623 6.697675e-24)
(0.01068196 -0.0006192765 -5.227714e-24)
(0.01043402 -0.0007268559 -1.828925e-23)
(0.01039023 -0.001065462 -4.368716e-24)
(0.01011975 -0.001390229 1.078707e-23)
(0.01060873 -0.0001757898 0)
(0.009684523 -0.0005400408 -8.181509e-24)
(0.01122533 -0.0003921959 -1.753538e-24)
(0.01094374 9.732361e-05 4.151247e-24)
(0.009906576 -0.001351169 -3.729205e-23)
(0.008667942 0.00143112 3.689143e-24)
(0.01093744 -0.000323558 -1.45618e-23)
(0.01086273 -0.0008470241 -6.344184e-24)
(0.01145366 -0.0007070915 -2.248637e-24)
(0.01038928 -0.0006316984 4.187895e-24)
(0.009985575 -0.0001587169 -2.267216e-23)
(0.01124456 1.866298e-05 0)
(0.01091121 0.0005611032 -3.622013e-25)
(0.009853876 -0.0004591341 4.982762e-26)
(0.009837558 -0.00170386 -1.663848e-23)
(0.0100648 -0.0009147889 0)
(0.0103877 0.001227642 0)
(0.009971234 -0.000848764 2.374449e-23)
(0.00913196 -0.0006520365 1.984883e-23)
(0.01095937 0.000178837 3.150356e-24)
(0.01102993 0.0004712925 0)
(0.008913502 -0.00219249 -1.501548e-23)
(0.01125244 -1.259713e-05 5.181268e-24)
(0.01062266 0.001073862 1.367478e-24)
(0.01082742 -0.0007809202 0)
(0.008143572 -0.001779076 0)
(0.007695948 -0.002222744 2.525333e-23)
(0.01052947 -0.0006977316 -1.545583e-24)
(0.009199672 -0.001245351 3.467603e-25)
(0.009542677 -0.0006373569 9.825884e-24)
(0.01043816 -0.001352675 6.952742e-24)
(0.01009611 -0.0007626474 2.315494e-23)
(0.01088103 -0.0007788603 -7.371519e-24)
(0.01026736 -0.002218761 -2.252158e-24)
(0.00689076 -0.001265484 0)
(0.01143233 -8.099698e-05 2.489172e-24)
(0.01018592 -0.0006642447 -8.757931e-26)
(0.009117341 -0.001866484 5.366839e-24)
(0.01120904 -0.0005486828 -3.612103e-24)
(0.01012598 -0.0006959571 8.454558e-24)
(0.009917631 0.001383384 1.996275e-24)
(0.009291427 -0.0008399895 -1.508429e-23)
(0.01023394 0.001156176 -1.22061e-24)
(0.0108957 -0.001006991 -4.764003e-24)
(0.009044933 -0.001879075 4.066036e-24)
(0.009084893 -0.0008478722 -1.281405e-23)
(0.009975196 -0.0003804686 0)
(0.01088548 -0.0006071522 0)
(0.00978891 -0.0004415251 -5.461066e-24)
(0.01071282 0.0008848294 2.745711e-26)
(0.01112394 -0.001469717 -4.389524e-24)
(0.01006529 -0.001108319 0)
(0.01063062 -0.001686928 5.456894e-26)
(0.01029865 -0.0007263114 -6.872724e-24)
(0.009385563 -0.0006173952 0)
(0.009339573 -0.0009669296 8.046402e-24)
(0.009152728 0.001497995 -9.60837e-24)
(0.009996535 -2.426271e-05 -1.42356e-23)
(0.01130691 -0.000826612 4.216053e-24)
(0.01005001 -0.0009385573 -1.739241e-23)
(0.01038756 -0.0009885624 -1.003207e-24)
(0.00888426 -0.00130666 -2.668542e-25)
(0.01012855 0.001221311 1.039835e-23)
(0.01136361 -0.0001967577 3.935553e-24)
(0.01120716 0.000459992 0)
(0.009267405 -0.001632657 0)
(0.01075985 -0.001346007 8.437961e-24)
(0.009499534 -0.002544704 1.021362e-23)
(0.009786074 -0.0003684148 -2.215414e-23)
(0.009721272 -0.0003794014 -1.257284e-23)
(0.01084803 0.0007227605 0)
(0.01037549 0.0007065623 0)
(0.01094982 0.0007014434 -1.127907e-26)
(0.01057046 0.001060933 0)
(0.01111364 -0.0007205488 -5.120537e-24)
(0.008372681 0.001395171 0)
(0.01027473 -0.001049419 6.426604e-24)
(0.01077994 -0.001685287 -4.887256e-24)
(0.009554606 -0.0005032099 8.731911e-24)
(0.01092291 0.0009302506 -2.606448e-24)
(0.007368094 -0.002294771 -1.673328e-23)
(0.01150869 -0.0002518173 1.630971e-24)
(0.01023785 -0.000568822 1.648874e-23)
(0.0103595 -0.002054653 0)
(0.01129538 0.0003933339 -3.785103e-25)
(0.01099691 -0.0003448806 5.204838e-24)
(0.009836653 -0.0006507243 -3.284639e-23)
(0.01131442 -0.0001229586 0)
(0.009684352 -0.0004479716 5.484799e-24)
(0.01056401 -0.001187045 0)
(0.01097294 -0.001002169 0)
(0.01095292 0.0005824827 8.973338e-26)
(0.01153434 -6.194895e-05 -4.101145e-26)
(0.01068782 0.001054474 -3.486475e-24)
(0.01118902 -0.0003640236 0)
(0.01012577 -0.001185785 -9.606441e-24)
(0.008755277 0.001536132 -3.739567e-24)
(0.008328699 0.001534467 -6.779555e-24)
(0.01048273 0.001118758 -1.337218e-24)
(0.01149242 -0.0006415846 -2.537735e-25)
(0.007595826 -0.001107432 -1.758925e-25)
(0.01027027 -0.0009034825 -9.780231e-24)
(0.01124756 0.0006029168 0)
(0.01102379 0.0001144328 3.371603e-24)
(0.01101135 0.0007628801 0)
(0.01005296 -0.00153437 -1.542979e-24)
(0.01069595 0.001087724 0)
(0.01014922 -0.001298514 0)
(0.01105146 -0.000971704 -3.424389e-24)
(0.01004842 -0.0005228553 0)
(0.01027888 0.0009838316 0)
(0.01089054 -0.0009512997 0)
(0.01012275 -0.002234647 -8.334984e-24)
(0.008590533 -0.001007027 2.28244e-23)
(0.01043116 -0.001235606 0)
(0.01137795 0.0003998385 -7.148027e-25)
(0.01069859 -0.0007171176 0)
(0.007896633 -0.001872034 -2.444673e-23)
(0.008725853 -0.001833177 -1.475649e-24)
(0.006170865 -0.001069362 5.220928e-23)
(0.01144999 0.0002640824 -7.218257e-26)
(0.009686022 -0.0006573107 -2.289816e-23)
(0.009999629 -0.001395267 -7.383632e-24)
(0.01150859 -0.0001030646 5.989291e-24)
(0.009996348 -0.0005440694 0)
(0.01146419 0.0002278088 -1.120496e-25)
(0.01139346 0.00032839 1.906463e-25)
(0.01032367 0.001227456 0)
(0.009880147 -0.0002675129 0)
(0.01040969 -0.0009419316 -4.284893e-26)
(0.01022006 -0.0004916935 6.466753e-24)
(0.01130922 0.0003257569 7.491225e-25)
(0.00959817 -0.0006003148 1.892485e-23)
(0.007553266 -0.002473444 0)
(0.008641663 0.00136825 0)
(0.01055239 -0.001759305 2.058102e-24)
(0.0109959 -0.0004579466 1.81739e-24)
(0.009999872 -0.0003330866 -1.530889e-23)
(0.009866604 -0.0006803207 -2.203661e-23)
(0.0102034 -0.0004747442 2.080356e-23)
(0.01051971 0.001022527 9.207145e-25)
(0.01008335 -0.00233459 -6.708149e-24)
(0.009731012 -0.0007452845 0)
(0.009774003 -0.0009648261 0)
(0.01021166 -0.0005449276 2.103091e-23)
(0.01038693 -0.0008549855 1.53721e-23)
(0.01069773 -0.0009343945 2.33737e-24)
(0.01056767 0.0007801701 2.474792e-24)
(0.01023991 -0.0004242007 -1.101745e-23)
(0.01000556 -0.0005535379 0)
(0.009057617 -0.0009640019 5.212365e-24)
(0.01100029 0.000851861 2.971219e-25)
(0.01133262 0.0002100106 0)
(0.009434692 -0.001439821 0)
(0.01031118 -0.0002955272 0)
(0.009653493 -0.0006591456 1.657079e-23)
(0.01066154 0.0009372597 -5.220375e-25)
(0.01015934 0.001174025 1.617587e-24)
(0.01120621 0.0006565926 -1.488043e-25)
(0.009618844 -0.0005098966 -2.504291e-23)
(0.01029268 -0.0008740506 -4.587901e-24)
(0.01125997 0.0002020938 2.421436e-24)
(0.007559306 -0.001529493 0)
(0.01017732 -0.0007419556 1.135847e-23)
(0.009511126 9.542193e-05 4.158887e-24)
(0.01016923 -0.0005652915 8.636066e-25)
(0.008621476 0.001525822 0)
(0.01131893 -0.0003629148 3.182127e-24)
(0.01007416 0.001299839 -5.0607e-24)
(0.01009768 0.0005035764 -1.308838e-23)
(0.01097629 -0.0007539441 -9.431673e-24)
(0.009353287 -0.0006809801 1.201144e-23)
(0.009895123 -0.000771299 -1.054047e-23)
(0.01137183 0.0002186464 2.720786e-24)
(0.01125187 0.0005281473 -2.398749e-25)
(0.008314682 -0.00272826 -1.242953e-23)
(0.009841891 0.00135658 4.880054e-24)
(0.01087284 -0.00158965 1.099561e-23)
(0.01061514 -0.001538144 -9.983659e-24)
(0.01001939 -0.001794949 1.688644e-23)
(0.01018572 0.001302844 0)
(0.01011871 -0.0001524924 1.140872e-23)
(0.01116293 -0.0009581452 0)
(0.01079316 0.0009556156 -1.450165e-24)
(0.01138573 -0.0006538009 4.347237e-25)
(0.01072526 -0.0001866874 6.068735e-24)
(0.009630178 0.001439159 4.266969e-24)
(0.0102237 0.0005509886 0)
(0.008786128 0.001518143 4.596585e-24)
(0.01013794 -0.0008322511 6.831022e-24)
(0.01018546 -0.0006789126 9.411026e-24)
(0.009371535 -0.001023379 0)
(0.009204733 0.001490927 1.079763e-23)
(0.009952897 0.001277769 3.124713e-24)
(0.0101778 -0.0006282395 7.23822e-24)
(0.009903303 -0.001418562 -1.810031e-23)
(0.01012254 -0.0004364643 4.526396e-24)
(0.009444294 0.00146408 0)
(0.01121262 -0.0002856708 -2.090415e-24)
(0.01095856 0.000908657 -2.240442e-24)
(0.009703287 -0.001239644 -2.418545e-23)
(0.01028694 -0.0005635305 0)
(0.01136307 -0.0009046806 -9.424902e-24)
(0.0111795 -0.0005101331 1.280733e-23)
(0.008691948 -0.0006822771 6.001009e-26)
(0.008961873 -0.0007263266 2.130324e-23)
(0.009563134 0.001443235 -3.960687e-24)
(0.01060972 0.0009907701 5.000203e-25)
(0.01074277 0.001051223 3.449232e-24)
(0.01102003 -0.000916476 -7.361806e-25)
(0.01131992 -5.772946e-05 1.54838e-24)
(0.009977657 -0.0003407041 -1.131791e-23)
(0.011443 0.0001117272 0)
(0.00887993 -0.002442768 2.68192e-23)
(0.009879666 -0.0001970624 0)
(0.01068854 0.0009910192 0)
(0.00917969 -0.0005020585 0)
(0.01115498 0.0005482427 0)
(0.006973871 -0.0006004629 0)
(0.01153435 -0.0002984798 0)
(0.009360642 -0.001258905 -2.607843e-24)
(0.01127877 0.0002553699 1.623974e-24)
(0.01057747 -0.0006837774 -1.613695e-23)
(0.009520164 -0.002011525 -2.139447e-23)
(0.0100848 -0.0006574432 6.789116e-24)
(0.01093942 -0.0001282143 -1.74809e-25)
(0.01042844 -0.0009887907 9.958923e-24)
(0.0104308 -0.0007615005 1.798113e-26)
(0.00975043 -0.001012443 1.375526e-23)
(0.01036217 -0.0005519962 -1.411264e-24)
(0.01120417 0.0006687803 1.018507e-24)
(0.01119056 0.0006732807 0)
(0.01019292 -0.0009330832 -1.276993e-23)
(0.01030536 -0.0008552131 3.086826e-24)
(0.01015773 -0.001924686 1.005013e-23)
(0.009263898 -0.001875312 0)
(0.009485868 -0.001902615 -2.349201e-23)
(0.01139162 0.0002809889 7.193633e-25)
(0.01118602 -2.562368e-05 0)
(0.01026402 -0.000922737 0)
(0.009095391 -0.002449162 0)
(0.009697882 -0.0008529193 6.619348e-24)
(0.01024918 -0.0004562008 0)
(0.007231069 -0.001539266 -1.503206e-23)
(0.01119848 -0.001365949 -2.744952e-24)
(0.01123751 0.0001077877 4.98293e-24)
(0.01068068 -0.001267445 9.533391e-24)
(0.01085481 0.0008889068 6.033831e-25)
(0.01071128 -0.001724961 7.500443e-25)
(0.01117234 0.000706577 1.854736e-24)
(0.0113724 -0.0003378729 -3.330447e-24)
(0.01111996 0.0003154024 0)
(0.0100268 -0.0006514702 -1.528971e-23)
(0.01088325 0.0009016774 1.177982e-24)
(0.01046259 -0.0007757794 0)
(0.009521063 0.001388838 0)
(0.01059151 0.001135713 0)
(0.01008246 -0.000473975 -8.089715e-24)
(0.01117433 0.0005655639 2.499437e-26)
(0.01026735 -0.0002505714 -3.644997e-25)
(0.01110398 -0.001012397 0)
(0.01138668 -0.0007862251 2.851599e-24)
(0.01008562 -0.0004137562 5.107239e-24)
(0.01136066 -0.0003386557 1.396325e-24)
(0.009135387 0.00149762 -1.138608e-24)
(0.01070298 -0.001886635 -6.436205e-24)
(0.01000905 -0.0006988947 1.392474e-23)
(0.01057053 -0.0002771938 -4.674205e-24)
(0.01103711 0.0007980262 0)
(0.01077263 0.001038473 3.738222e-24)
(0.006933711 -0.001728887 -1.395496e-23)
(0.009619269 -0.0005319229 -7.75073e-25)
(0.0102351 0.001156428 -5.232653e-24)
(0.01074515 -0.0009678558 0)
(0.01010804 -0.002140971 0)
(0.01045296 -0.0009685333 -9.571948e-26)
(0.01017204 -0.001139589 1.161045e-23)
(0.01147126 -0.0007830303 -5.841805e-25)
(0.01048234 -0.001363974 1.442447e-23)
(0.009899649 -0.0006703906 0)
(0.01075993 0.0006527223 -4.502001e-24)
(0.008995195 0.001477431 5.19766e-24)
(0.01111415 0.0004424587 -7.183395e-25)
(0.01025408 0.0007446474 -8.515941e-24)
(0.0077706 -0.00271886 1.472855e-23)
(0.01042708 0.001117004 0)
(0.01121692 -0.001041106 2.893992e-25)
(0.009659746 -0.0009874494 -1.731984e-23)
(0.009860254 -0.0006142463 1.754613e-23)
(0.01153042 -0.0005995228 2.063501e-24)
(0.01150283 -0.0007730234 -4.864976e-25)
(0.008525502 0.001428871 0)
(0.009747888 -0.0002834039 -3.329301e-23)
(0.01038367 -0.0006682769 9.129427e-24)
(0.009628343 -0.0008595377 3.559412e-24)
(0.009767978 -0.0005753921 2.293492e-26)
(0.0104601 0.001189575 3.625847e-24)
(0.01106406 -0.0003997258 -1.099672e-23)
(0.01036672 -0.0005879125 0)
(0.01144883 -0.000610583 -1.621242e-24)
(0.01142739 -0.0009849953 -9.700273e-25)
(0.01008717 -0.0009245556 0)
(0.01015339 -0.001459169 7.810936e-24)
(0.009459544 -0.0005347882 -1.527966e-23)
(0.01094108 0.0004330044 -7.728614e-25)
(0.0106662 0.0007372659 1.280536e-23)
(0.01137557 -0.0005686455 -2.40808e-24)
(0.01126432 0.0005603236 0)
(0.01056023 -0.0006517778 7.977661e-24)
(0.01128065 -0.0006645141 2.607982e-24)
(0.009463719 0.00146293 0)
(0.01077057 -0.0007914965 0)
(0.009089149 -0.002197586 0)
(0.009618048 -0.00121371 1.444554e-23)
(0.01120045 -0.0006002513 1.121861e-23)
(0.01123019 0.0002862164 2.795512e-24)
(0.01149784 -0.000763168 3.029253e-24)
(0.01130669 -0.0006233316 -1.3997e-24)
(0.01112446 -0.001516236 -5.56338e-24)
(0.008594432 -0.001430545 0)
(0.008114387 -0.001005997 -3.547983e-23)
(0.01097739 0.0004185456 1.844848e-24)
(0.009644845 -0.0002820438 2.091756e-23)
(0.009836255 -0.001158477 -1.589367e-23)
(0.01126407 -0.001257645 -1.419708e-24)
(0.01110851 -0.001439956 3.365997e-24)
(0.0113478 -0.001122851 4.861237e-24)
(0.01003629 -0.0008338437 1.321954e-23)
(0.009005765 -0.002696085 0)
(0.01139017 0.0001968684 -1.346234e-24)
(0.00952384 -0.001148861 0)
(0.01062609 -0.001998611 0)
(0.01072722 0.0009477342 5.032035e-25)
(0.01099132 3.453216e-05 -3.54863e-25)
(0.009995478 -0.0008919218 -6.775916e-24)
(0.01124742 -0.00053492 2.11036e-24)
(0.008759091 -0.001376507 -5.8824e-24)
(0.01074097 -0.001031067 -7.970044e-24)
(0.01088608 -0.000657135 3.333608e-24)
(0.01040259 0.001228167 2.901201e-24)
(0.009671807 -0.0003730395 2.257973e-23)
(0.01063492 -0.001606529 1.559009e-23)
(0.009345465 -0.0001052283 -1.444359e-23)
(0.01034817 -0.001064799 4.269655e-24)
(0.0101961 -0.002038398 9.001732e-24)
(0.01111794 -0.0004790863 1.462777e-23)
(0.00815579 -0.00209673 0)
(0.01010585 -0.0006687144 -1.618158e-23)
(0.01089409 8.303316e-07 0)
(0.01149602 -0.0005856101 -2.078998e-24)
(0.01013508 -0.0005599992 0)
(0.009960966 0.001294896 0)
(0.01130685 0.0005186298 -5.035475e-26)
(0.01126198 0.0003008768 0)
(0.009984548 -0.00049782 2.723756e-23)
(0.009891487 -0.001484581 0)
(0.01042637 -0.001060855 0)
(0.00956043 -0.001333261 -1.509112e-23)
(0.009898391 -0.001199032 1.79747e-23)
(0.0106193 0.0009639968 4.573276e-24)
(0.01143726 0.0002852508 -2.114504e-25)
(0.01008996 -0.001511709 9.907006e-24)
(0.0107317 0.001065543 0)
(0.01109761 -0.001397185 3.766637e-24)
(0.0103627 0.001226767 -3.78076e-24)
(0.01124365 0.0003634201 -1.759038e-24)
(0.01092799 -0.001048328 -1.535432e-23)
(0.009092488 -0.001581004 2.436662e-26)
(0.01042627 -0.002001275 0)
(0.0113969 -0.0003289047 4.100942e-24)
(0.011516 3.997173e-05 9.065307e-27)
(0.01153463 -0.0004070805 0)
(0.008867308 -0.0006100529 -2.868641e-23)
(0.01049065 -0.000638668 0)
(0.01139968 0.0003759002 0)
(0.008931677 0.001380912 -9.763257e-24)
(0.01015099 -0.0007396659 4.67782e-24)
(0.01005974 -6.924554e-05 -1.803464e-23)
(0.01013601 -0.0003519864 0)
(0.01099354 0.0004352293 0)
(0.008390682 0.001558059 3.63256e-25)
(0.01032117 -0.0007563798 5.685353e-24)
(0.008237003 -0.002807865 9.573868e-24)
(0.01149736 -0.0003291884 1.365239e-24)
(0.009634901 -0.0006864116 1.627871e-23)
(0.009951411 -0.0008609054 -1.579598e-23)
(0.01033038 -0.001512356 -1.187304e-23)
(0.009798305 -0.0001690621 -1.282651e-23)
(0.009687671 -0.0001151905 -5.582719e-26)
(0.01017303 -0.0002691767 0)
(0.01141669 0.0001883926 0)
(0.01141228 -0.0008125016 -1.446631e-25)
(0.01115204 4.413097e-05 -3.569516e-24)
(0.01058664 -0.0005550903 -1.206031e-23)
(0.007846599 -0.0005810994 1.200038e-23)
(0.01004912 -0.0003594064 8.078421e-24)
(0.009688702 -0.0004894271 0)
(0.01112421 -0.001514575 8.844348e-24)
(0.01082098 -0.0006795267 0)
(0.01021253 -0.00195276 1.09892e-23)
(0.01025813 -0.0005135339 9.486966e-24)
(0.01007887 -0.0004973132 1.529789e-23)
(0.008763882 -0.0005339961 1.127215e-23)
(0.01092541 0.000714054 -2.427689e-26)
(0.01040959 -0.0005429147 8.161982e-24)
(0.009690793 -0.001501016 -2.426078e-23)
(0.01103222 -0.001357164 -2.4677e-24)
(0.01003975 -0.0003362604 -3.421271e-25)
(0.01011216 -0.002172383 0)
(0.01050694 0.001014582 -4.063522e-24)
(0.01144382 -0.0001764147 -1.212725e-24)
(0.01080365 0.0008703327 4.888227e-25)
(0.01037443 -0.00174841 7.879912e-24)
(0.01032687 -0.001563113 0)
(0.01022773 0.0004709487 0)
(0.0110906 0.0004440991 0)
(0.01011683 -0.0005468946 2.683138e-23)
(0.01093157 0.0006215672 -4.263757e-25)
(0.008927704 -0.002712074 -2.138347e-23)
(0.01006577 -0.0006732987 0)
(0.01142887 0.0001858249 0)
(0.008910552 -0.002099076 0)
(0.008600127 -0.002721867 0)
(0.009813511 -0.001859912 -3.110485e-23)
(0.009448951 -0.002158717 0)
(0.009679237 -0.001569934 5.487895e-24)
(0.01012107 -0.0002817403 4.948346e-24)
(0.01014387 -0.0006236697 8.996841e-24)
(0.01025193 -0.000841282 9.002328e-24)
(0.01038979 -0.001625174 -1.394165e-23)
(0.005897499 -0.001214433 3.145854e-23)
(0.01068652 -0.001191971 2.64958e-25)
(0.01114315 -0.0001913088 0)
(0.01117279 0.0004422033 0)
(0.00995849 -0.0007694732 0)
(0.01120602 -0.0002083703 8.698442e-25)
(0.01039594 -0.001301682 5.046327e-24)
(0.01018228 -0.0005983564 -1.230979e-23)
(0.008149426 -0.0009035562 2.386907e-23)
(0.0110812 0.0004212081 -2.478736e-24)
(0.01075886 -0.0008404522 0)
(0.01046668 -0.001568544 0)
(0.009314815 -0.000727966 -2.214604e-23)
(0.008255569 -0.0008794729 -2.231539e-23)
(0.009995264 -0.0003802183 -7.723026e-24)
(0.01097181 0.0007198969 3.048055e-24)
(0.01009214 -0.0003559748 5.387425e-24)
(0.006274845 -0.002396743 -5.755033e-23)
(0.008418613 -0.002545789 -2.808584e-23)
(0.01084558 -0.0005995367 -5.509212e-24)
(0.01016681 -0.0005053403 3.774497e-24)
(0.01077167 -0.0009702909 5.684012e-24)
(0.009631162 -0.0002015858 -3.771038e-23)
(0.01104886 0.0002566717 -3.479908e-24)
(0.0099905 -0.0002799979 9.508323e-24)
(0.008703219 -0.002733163 -1.729274e-23)
(0.01109514 0.000630404 -4.308321e-25)
(0.01091894 -0.0006245654 -6.422909e-24)
(0.00965807 -0.001012875 1.625091e-23)
(0.0114112 -0.0007481745 -5.568357e-24)
(0.009946594 -0.001070252 0)
(0.01088262 -0.001361903 -5.964802e-24)
(0.00851217 -0.0007192325 0)
(0.01048974 -0.000750395 0)
(0.009315566 0.001488359 0)
(0.01142809 -0.0003327793 -1.162515e-24)
(0.0111156 0.0001516412 0)
(0.01085481 -0.0007296039 -2.329625e-24)
(0.01085019 0.0006118568 4.006692e-24)
(0.01104079 0.0007864819 -2.072301e-24)
(0.01149502 0.0001092247 -1.332648e-25)
(0.008082463 -0.002467478 -2.909478e-24)
(0.01023224 -0.0007049151 -1.307897e-23)
(0.01125388 0.0005000575 -2.229933e-26)
(0.01075017 0.0009979985 0)
(0.01090462 0.0008087954 0)
(0.0107987 0.0009352651 1.826838e-24)
(0.01089043 0.0008889958 4.041614e-25)
(0.01115033 -0.000626444 0)
(0.01127566 -0.0009678201 4.985081e-24)
(0.01000861 -0.0001541935 -9.485986e-24)
(0.01133656 -7.412772e-06 5.795117e-25)
(0.01133774 -5.023506e-05 0)
(0.01012764 -0.0005291867 5.530067e-24)
(0.01138393 2.123404e-05 0)
(0.01031749 0.001262243 -2.715472e-24)
(0.008974008 -0.0008815441 0)
(0.01056249 -0.0005934487 1.025189e-23)
(0.01004422 -0.0007514126 1.232885e-24)
(0.01004891 -0.0005834152 1.339803e-24)
(0.009986192 0.001236933 2.848542e-24)
(0.01055439 0.001022923 3.24396e-25)
(0.01009575 -0.001625691 1.012693e-25)
(0.009784903 -0.001674284 3.857651e-23)
(0.01057776 -0.002029539 -5.951348e-24)
(0.01087677 0.0001953136 -1.329711e-24)
(0.009254789 -0.0008889278 2.89503e-23)
(0.01136356 -0.0006687928 -6.512823e-24)
(0.01003315 -0.0003507247 1.066631e-23)
(0.01003973 -0.0003965904 -1.108619e-23)
(0.01120551 0.000372449 1.342371e-24)
(0.01068038 -0.0003126246 8.110951e-24)
(0.01052181 0.001112343 1.598116e-24)
(0.0101431 0.001208625 0)
(0.01089625 0.0002831843 -6.270182e-25)
(0.0109682 -0.001178106 0)
(0.01041839 -0.0007750663 1.042826e-23)
(0.01012307 -0.0009640064 -7.978201e-24)
(0.009931029 0.001339732 0)
(0.009766578 -0.0006992799 1.941374e-23)
(0.01005754 -0.0006025272 0)
(0.009586664 0.0005289753 -5.295297e-24)
(0.01126443 0.0002680713 -7.624446e-25)
(0.01018983 -0.0008477402 0)
(0.01021098 -0.0006874498 -2.138656e-23)
(0.009977933 -0.001248392 0)
(0.01094561 0.0005191046 -6.951673e-25)
(0.01096018 -0.0007495364 -3.744058e-25)
(0.009695465 -0.0007089108 0)
(0.00898874 -0.0009520051 6.083382e-25)
(0.01119407 0.0004677546 0)
(0.01000628 -0.0006276495 2.617462e-24)
(0.009641349 -0.0006285979 -2.596818e-23)
(0.009865593 -0.0005618568 0)
(0.01098982 0.0003791799 -1.573757e-24)
(0.008817279 0.001453803 -3.593528e-24)
(0.008493782 -0.0004474051 1.230055e-23)
(0.009887531 -0.0004141686 -1.367615e-23)
(0.009487796 -0.0006822959 2.394259e-23)
(0.01070056 0.0009307344 -5.985911e-25)
(0.01081155 0.0009899763 0)
(0.01091554 -0.0005805461 2.205257e-24)
(0.008675582 -0.002611832 9.258566e-24)
(0.01124251 0.0002313489 -1.396389e-24)
(0.01099384 -0.001139141 0)
(0.009402658 0.001458521 -1.078737e-23)
(0.01083958 -0.0009354656 1.263064e-23)
(0.01127089 0.0003736186 1.684514e-25)
(0.01026738 -0.001150694 -7.558157e-24)
(0.009936332 0.000852345 4.366585e-24)
(0.009945629 -0.0004598658 1.023754e-23)
(0.009979099 -0.001049347 0)
(0.01102775 0.0005276201 1.174699e-24)
(0.01143157 0.0003095075 2.878977e-25)
(0.01038322 -0.0008033023 0)
(0.01029847 -0.000763149 1.527594e-23)
(0.009510318 -0.0005707851 -2.786087e-23)
(0.00965795 -0.0005431434 -5.547361e-26)
(0.01049047 -0.0008337281 -3.7724e-25)
(0.0111047 0.0007012515 -1.317725e-25)
(0.01116823 -0.001226122 1.733827e-24)
(0.0107088 0.001054967 0)
(0.01034232 -0.0001979804 0)
(0.01110099 0.0002821558 -2.743275e-24)
(0.01018526 -0.0003543442 -1.0506e-23)
(0.00956617 -0.0002635669 -2.737344e-23)
(0.01134051 0.000430697 5.796837e-26)
(0.009972089 -0.0009389584 0)
(0.01056911 -0.0003734754 0)
(0.01134984 0.0002250329 -9.68671e-25)
(0.01122691 -0.001180508 2.095355e-24)
(0.01019664 0.001256076 -2.028527e-24)
(0.01127555 -0.001038428 -3.778161e-25)
(0.00993048 -0.0004828334 0)
(0.01000013 -2.979647e-05 0)
(0.01151417 -5.382415e-05 0)
(0.01153526 -0.0002810255 1.325047e-25)
(0.009739898 -0.00031711 2.918065e-23)
(0.00963897 -0.00031226 -3.789046e-23)
(0.01048813 -0.001010029 -2.795954e-23)
(0.01148285 -0.00083907 3.221827e-24)
(0.01102142 -0.0001564394 -3.272392e-24)
(0.01118613 1.706524e-05 2.237396e-24)
(0.01095372 1.746419e-05 -5.315202e-24)
(0.01123064 -0.0005022964 9.830208e-24)
(0.01153665 -0.0004109653 -3.34777e-24)
(0.01143186 -0.0004366947 4.251344e-24)
(0.009887197 -0.0001253388 0)
(0.009436193 -0.000315081 -1.65818e-23)
(0.01138711 0.0001387942 -1.871384e-24)
(0.009876658 -0.0004448567 1.328011e-23)
(0.01044807 0.00109741 0)
(0.01096912 0.0006178454 0)
(0.01000046 -0.0006007728 9.858924e-24)
(0.00997174 -0.0005596064 5.97106e-26)
(0.01007015 -0.0002158798 -1.863385e-23)
(0.009860538 -0.0007909676 1.667789e-23)
(0.01018072 -0.0009897259 2.800379e-23)
(0.009542023 -0.000908757 1.590024e-23)
(0.00955098 -0.000859958 -4.280928e-23)
(0.009621659 0.001228684 -1.129081e-24)
(0.00906047 0.001048934 9.57154e-24)
(0.01007854 0.001259767 2.108693e-24)
(0.01056795 0.001085599 0)
(0.01058112 0.001143574 0)
(0.01107381 0.0006835796 -9.110306e-26)
(0.01112344 0.0007092626 -8.646962e-25)
(0.0102443 0.001284253 -2.090535e-24)
(0.009899933 -0.0009819921 7.321985e-24)
(0.01016889 -0.0005497182 -3.877529e-24)
(0.01009868 -0.0004939371 1.022068e-26)
(0.01007463 -0.0005223599 9.110497e-24)
(0.01155886 -0.0003368095 7.621234e-25)
(0.01071206 0.001072242 8.012601e-25)
(0.01041817 -0.001509734 0)
(0.01047792 -0.0008763658 6.11011e-26)
(0.01045203 -0.000841319 2.744436e-24)
(0.009910805 -0.0004485956 0)
(0.01099619 -0.0005929064 0)
(0.01121757 -0.0003534684 0)
(0.01019398 -0.0007520243 1.064395e-23)
(0.00998393 0.001321181 1.4245e-24)
(0.009687591 -0.0009722885 0)
(0.01034779 0.001209909 0)
(0.01050682 0.001175107 2.257238e-24)
(0.01104845 -0.001003366 -1.865626e-26)
(0.01028363 -0.0003449898 0)
(0.008831583 -0.001558452 -2.783659e-23)
(0.009925104 -0.0009340527 0)
(0.0108345 0.0002021313 -1.793242e-25)
(0.01135512 0.0001527561 -1.634984e-24)
(0.0113438 0.000100963 0)
(0.01153357 -5.251917e-05 -5.105234e-25)
(0.01126318 0.0003529783 -1.839993e-25)
(0.01106407 0.0005383718 1.359663e-24)
(0.01110545 0.0005790801 0)
(0.01050366 -0.0005523186 -7.222434e-24)
(0.01139881 0.0003631495 1.356191e-25)
(0.01146479 3.161507e-05 0)
(0.009845851 -0.0004908561 -1.638528e-23)
(0.01001858 -0.0007411532 1.225645e-23)
(0.009992968 -0.000437491 -2.023757e-24)
(0.01119412 -0.001309797 0)
(0.01099634 -0.001543124 -8.595978e-24)
(0.01142782 -0.0003397116 -2.645717e-24)
(0.01144175 -0.0003673561 2.573327e-24)
(0.01085783 -0.000820687 1.096265e-23)
(0.01092224 -0.001011488 3.779023e-24)
(0.01007366 -0.0007968175 -1.150001e-23)
(0.00723605 -0.0009484047 0)
(0.01063554 -0.0009266014 -6.177043e-24)
(0.01059409 -0.000979075 5.754931e-25)
(0.01042454 -0.0008008033 -8.271258e-24)
(0.01060541 -0.0008677349 1.434277e-23)
(0.01093277 0.0006055728 -3.961477e-25)
(0.01043519 -0.001017491 -6.003247e-24)
(0.01047381 -0.001249216 0)
(0.01029197 -0.001477967 0)
(0.01042699 0.00114421 2.833994e-24)
(0.0105436 0.001046507 0)
(0.01016881 0.001303447 0)
(0.01003609 -0.0002901939 -9.359992e-24)
(0.01083422 0.0007555493 0)
(0.01072253 0.0008589973 2.742829e-25)
(0.01086127 -0.001783491 0)
(0.01087538 -0.001781099 7.702317e-24)
(0.01079079 -0.0009476564 -5.971803e-24)
(0.009898594 -0.00118915 -2.092289e-24)
(0.009920169 -0.001815862 8.684401e-24)
(0.01055121 -0.002054017 6.464321e-24)
(0.009999063 -0.002190844 -7.359066e-24)
(0.01083856 0.0008195579 6.621925e-25)
(0.009905109 -0.0001750243 0)
(0.009778655 -0.0002599708 1.411784e-23)
(0.007457967 -0.0003513319 -5.612e-24)
(0.01137342 0.0004158808 9.664282e-25)
(0.01014603 -0.0006419501 -9.176664e-24)
(0.01125885 0.0006011516 0)
(0.01112087 0.000735576 0)
(0.009551673 -0.001186378 0)
(0.01013991 -0.0004346774 1.508408e-23)
(0.007864741 -0.00151358 0)
(0.01104163 0.0006468296 0)
(0.009782023 -0.002348907 2.506754e-23)
(0.01005117 6.407595e-05 -8.310995e-24)
(0.01058807 -0.0008427437 -1.890933e-23)
(0.01093293 -5.179292e-05 -1.155545e-24)
(0.01111658 -0.001029814 0)
(0.01028332 0.001266635 0)
(0.01048904 0.0003709669 3.731202e-24)
(0.01039718 -0.001259171 0)
(0.01003075 -0.0007826817 1.781425e-23)
(0.009966145 -0.0007128448 0)
(0.01126965 -0.000899517 -1.423737e-24)
(0.009358294 -0.001518102 -1.829241e-24)
(0.01153425 -9.481439e-05 0)
(0.01005391 -0.0002927461 -2.912383e-23)
(0.009951099 -0.0009900924 0)
(0.01037277 -0.001682161 -1.061324e-24)