/*--------------------------------*- C++ -*----------------------------------*\
| =========                 |                                                 |
| \\      /  F ield         | OpenFOAM: The Open Source CFD Toolbox           |
|  \\    /   O peration     | Version:  2406                                  |
|   \\  /    A nd           | Website:  www.openfoam.com                      |
|    \\/     M anipulation  |                                                 |
\*---------------------------------------------------------------------------*/
FoamFile
{
    version     2.0;
    format      ascii;
    arch        "LSB;label=32;scalar=64";
    class       volScalarField;
    location    "2.54";
    object      p;
}
// * * * * * * * * * * * * * * * * * * * * * * * * * * * * * * * * * * * * * //

dimensions      [0 2 -2 0 0 0 0];

internalField   nonuniform List<scalar> 
217010
(
-103.002
-48.0661
-58.01603
-61.54368
-56.14836
-47.59835
-51.55619
-51.10555
-49.72292
-49.09882
-49.04113
-49.51926
-50.08884
-50.79738
-51.72451
-52.93549
-54.82364
-60.44429
-69.50361
-80.04068
-83.4989
-79.86798
-77.48796
-75.56202
-70.81335
-71.36321
-79.47174
-88.10049
-93.75123
-95.4284
-94.02856
-90.2157
-84.61714
-78.01326
-70.05438
-60.05348
-49.24106
-38.22971
-27.87349
-17.70851
-7.358703
2.380611
9.691944
15.0412
18.59967
21.00728
22.76534
23.35377
20.46813
19.47018
-3.233502
11.09801
12.25511
10.93789
7.765954
4.365797
1.348656
-1.129776
-2.658456
-3.067242
-2.806573
-3.594474
-7.473572
-8.934465
-5.694284
-1.809557
-1.120244
-2.643209
-4.327678
-5.638981
-7.189297
-8.908646
-10.57922
-12.29171
-14.11426
-16.04878
-18.1082
-20.43262
-23.1113
-26.19669
-29.89504
-34.15703
-38.65889
-43.48963
-48.63161
-53.89468
-58.949
-63.25449
-67.6266
-72.52064
-77.90057
-83.98443
-90.34134
-96.88026
-103.6982
-110.7221
-117.8759
-125.2208
-132.6257
-139.9641
-147.1261
-154.0566
-160.5334
-166.5627
-172.0425
-177.0093
-181.4576
-185.2352
-188.3477
-190.8165
-192.676
-193.8296
-194.3124
-194.163
-193.4027
-192.0699
-190.0047
-187.3893
-184.192
-180.5474
-176.4422
-172.1004
-167.6983
-163.8593
-160.8481
-159.5471
-158.4765
-153.1894
-142.9691
-130.5952
-126.7478
-142.1971
-152.5916
-141.788
-123.6781
-112.5436
-107.6376
-103.1552
-100.4599
-101.7784
-103.1941
-105.9769
-109.3286
-110.1391
-107.8633
-104.6851
-102.1326
-99.99607
-99.49813
-121.4103
-71.40012
-73.06643
-70.14045
-71.92939
-74.86283
-79.82398
-87.23349
-97.20029
-108.5445
-123.3467
-138.2581
-151.5209
-163.2948
-175.3772
-186.4873
-193.6469
-197.5146
-196.7175
-189.4042
-175.9794
-162.7644
-159.2591
-158.4216
-158.3614
-169.3682
-180.4588
-177.1617
-169.0998
-168.4106
-170.131
-166.3365
-164.72
-170.1588
-173.5719
-171.5238
-163.9637
-157.1065
-153.0334
-151.0232
-149.0759
-146.5485
-144.2374
-144.2101
-146.4085
-141.0165
-142.5196
-146.2664
-148.2217
-139.4194
-222.6147
-114.913
-99.63267
-82.80127
-72.96126
-64.64393
-57.81742
-51.96874
-46.70995
-42.14035
-38.02344
-34.29679
-30.90291
-27.71561
-24.71404
-21.91259
-19.32674
-16.91573
-14.60484
-12.4012
-10.30064
-8.297739
-6.402567
-4.611499
-2.857513
-1.148304
0.5202883
2.115643
3.620306
5.071005
6.496848
7.902101
9.277552
10.58683
11.85598
13.1121
14.3413
15.55539
16.75301
17.95214
19.09566
20.25845
21.36574
22.46293
23.54158
24.61288
25.6622
26.69102
27.72
28.76491
29.80527
30.82044
31.81553
32.80507
33.82018
34.84472
35.85227
36.86169
37.87875
38.89251
39.91224
40.93206
41.95681
43.01438
44.10547
45.15997
46.21152
47.37738
48.51596
48.98606
48.02478
44.82934
64.84143
62.77851
62.52839
61.63303
60.69162
59.86207
59.05786
58.27699
57.55482
56.85287
56.10193
55.33424
54.58865
53.87673
53.17711
52.47427
51.76131
51.04847
50.35691
49.67108
48.97062
48.26951
47.57813
46.87395
46.17527
45.45962
44.71491
43.9851
43.27417
42.55757
41.81814
41.04075
40.29504
39.51574
38.71596
37.91542
37.11052
36.27294
35.4207
34.56793
33.69516
32.77679
31.81577
30.85172
29.89241
28.89719
27.85235
26.77358
25.64667
24.47485
23.26852
22.01634
20.74474
19.38767
17.94061
16.43962
14.84363
13.17053
11.36906
9.421478
7.353423
5.135634
2.665603
-0.06276871
-3.169818
-6.592745
-10.53187
-15.36364
-20.84459
-30.31434
-36.88419
64.23807
62.86427
62.59161
61.74714
60.80304
59.95993
59.14792
58.35963
57.63028
56.92546
56.17373
55.40312
54.65246
53.93582
53.23297
52.52777
51.81251
51.09665
50.40218
49.71406
49.01167
48.30842
47.61501
46.9088
46.20849
45.49154
44.74539
44.01345
43.3002
42.58225
41.84185
41.06241
40.31631
39.53487
38.73354
37.9317
37.12561
36.28661
35.43319
34.57916
33.70525
32.78535
31.82276
30.85742
29.89703
28.90018
27.85391
26.77389
25.64519
24.47128
23.26277
22.00829
20.73524
19.37434
17.92388
16.41984
14.81922
13.14244
11.33462
9.380305
7.306261
5.080569
2.600627
-0.1385127
-3.270068
-6.711215
-10.68052
-15.54637
-21.14069
-30.57855
-38.4981
-117.4086
-100.1484
-83.3271
-73.28149
-64.9019
-58.02012
-52.13705
-46.83602
-42.24828
-38.11624
-34.37401
-30.9693
-27.77257
-24.76169
-21.95129
-19.35781
-16.94201
-14.62615
-12.41763
-10.31278
-8.306137
-6.406935
-4.613564
-2.857395
-1.145883
0.525103
2.123161
3.629697
5.082278
6.510119
7.917461
9.294987
10.60625
11.87698
13.13519
14.36623
15.58255
16.78259
17.98456
19.12914
20.29444
21.40356
22.50281
23.58395
24.65735
25.70891
26.74023
27.77228
28.82019
29.86302
30.88018
31.87797
32.87127
33.89032
34.91837
35.92913
36.94242
37.96345
38.98133
40.00516
41.02953
42.06067
43.12585
44.21979
45.27679
46.33778
47.5034
48.59815
48.94698
47.76113
47.16368
-73.74796
-73.12612
-70.21734
-71.70154
-74.49751
-79.26924
-86.48214
-96.29505
-107.517
-122.21
-137.1911
-150.6019
-162.4692
-174.6392
-185.9037
-193.2648
-197.3921
-196.928
-189.9627
-176.6819
-163.1607
-159.3715
-158.4848
-158.2704
-169.1411
-180.4595
-177.271
-169.1252
-168.401
-170.1996
-166.4307
-164.7926
-170.2152
-173.6209
-171.573
-163.9562
-157.0713
-153.0002
-150.9988
-149.0533
-146.5318
-144.2215
-144.227
-146.3914
-141.0106
-142.6206
-146.4348
-148.0702
-141.3942
-206.6476
-1.239297
10.10129
12.25339
11.15796
8.133779
4.746267
1.675289
-0.9143135
-2.586508
-3.073361
-2.766725
-3.364572
-7.291305
-9.059615
-5.975289
-1.960812
-1.095802
-2.516919
-4.221653
-5.554256
-7.097099
-8.8157
-10.48999
-12.20317
-14.02516
-15.95944
-18.01698
-20.33506
-23.00308
-26.0646
-29.75821
-33.99323
-38.49513
-43.33784
-48.48536
-53.76731
-58.83815
-63.17435
-67.55282
-72.44391
-77.82172
-83.90973
-90.26974
-96.81486
-103.6411
-110.6736
-117.8364
-125.1923
-132.6074
-139.9566
-147.1288
-154.0694
-160.5555
-166.5968
-172.0836
-177.0543
-181.5075
-185.2833
-188.3938
-190.8603
-192.7163
-193.8618
-194.3354
-194.1748
-193.4005
-192.0471
-189.9626
-187.3225
-184.1019
-180.4314
-176.2963
-171.9231
-167.5111
-163.6807
-160.7211
-159.4595
-158.3024
-152.7365
-142.5154
-130.2719
-127.0696
-143.0361
-152.6645
-140.8921
-122.7478
-111.9823
-107.2788
-102.9242
-100.4484
-101.9144
-103.437
-106.3072
-109.5192
-110.0331
-107.5314
-104.3409
-101.8857
-99.97105
-101.0081
-116.2517
-93.92027
-49.24933
-57.76762
-61.68951
-56.48098
-47.72866
-51.54039
-51.1274
-49.74895
-49.10641
-49.04359
-49.51617
-50.08386
-50.79225
-51.71939
-52.92295
-54.80575
-60.46382
-69.59972
-80.21685
-83.62865
-79.81841
-77.47463
-75.57259
-70.7526
-71.43653
-79.75467
-88.41666
-93.9441
-95.47888
-93.91629
-89.99028
-84.30577
-77.61351
-69.54565
-59.44658
-48.5759
-37.54501
-27.16996
-16.96189
-6.589781
3.059319
10.25113
15.45935
18.89406
21.21258
22.86392
23.22578
20.25781
18.45617
-83.84157
-49.674
-57.35956
-61.8279
-56.84632
-47.939
-51.54698
-51.17686
-49.78783
-49.1136
-49.05044
-49.51739
-50.08263
-50.79085
-51.7165
-52.89793
-54.75718
-60.4914
-69.75224
-80.52202
-83.87926
-79.62795
-77.39639
-75.60095
-70.7097
-71.71863
-80.57379
-89.15888
-94.34026
-95.65053
-94.03982
-90.05525
-84.31346
-77.58307
-69.49433
-59.28878
-48.36757
-37.28612
-26.90435
-16.66632
-6.270007
3.393124
10.47615
15.61905
19.01961
21.33072
22.93057
23.10618
20.02102
17.9848
-0.3707516
9.656598
12.19316
11.25336
8.262557
4.84528
1.717835
-0.9414663
-2.640467
-3.222281
-2.850156
-3.322736
-7.136644
-9.112773
-6.189409
-2.110525
-1.079764
-2.508273
-4.205197
-5.513506
-7.059463
-8.780754
-10.45565
-12.16833
-13.98954
-15.92283
-17.97675
-20.29499
-22.96551
-26.03311
-29.71493
-33.95359
-38.45678
-43.31273
-48.46944
-53.72776
-58.8382
-63.13084
-67.52891
-72.41729
-77.79278
-83.89249
-90.25101
-96.79867
-103.6308
-110.6674
-117.8338
-125.1984
-132.6195
-139.9746
-147.152
-154.1007
-160.5882
-166.6348
-172.1172
-177.0866
-181.5409
-185.3182
-188.4275
-190.8931
-192.75
-193.89
-194.3602
-194.1938
-193.409
-192.0397
-189.9668
-187.3082
-184.1019
-180.4373
-176.3079
-171.9542
-167.5634
-163.72
-160.7668
-159.5051
-158.3003
-152.6813
-142.0974
-129.8492
-126.8224
-143.9487
-153.2578
-140.625
-122.1399
-111.6054
-107.1081
-102.7904
-100.4082
-101.8753
-103.6149
-106.6432
-109.7447
-110.1264
-107.4664
-104.2238
-101.822
-100.0992
-101.5802
-112.4183
-74.55642
-73.32841
-70.32453
-71.60582
-74.3137
-78.97626
-86.09858
-95.8817
-106.9857
-121.7749
-136.8437
-150.3687
-162.2395
-174.513
-185.9394
-193.3667
-197.6936
-197.3236
-190.8671
-178.1733
-164.1848
-159.6054
-158.6178
-158.1985
-169.0084
-180.5892
-177.468
-169.0511
-168.3674
-170.3064
-166.6382
-164.9849
-170.3715
-173.7471
-171.7146
-164.04
-157.1183
-153.0012
-150.9911
-149.0503
-146.5334
-144.1973
-144.2187
-146.4187
-141.0688
-142.7864
-146.5374
-147.8762
-142.1089
-189.9318
-117.0604
-100.4799
-83.57315
-73.44749
-65.02672
-58.11509
-52.20794
-46.91103
-42.2923
-38.1565
-34.40646
-30.99793
-27.79873
-24.78333
-21.96902
-19.37107
-16.95561
-14.63752
-12.42698
-10.32011
-8.312377
-6.410087
-4.617162
-2.859701
-1.146777
0.5256888
2.12622
3.632636
5.085088
6.513421
7.92152
9.300976
10.61299
11.88243
13.14177
14.37304
15.5915
16.79244
17.99225
19.13879
20.3017
21.41289
22.51344
23.5944
24.66861
25.72055
26.75159
27.78331
28.83295
29.87767
30.89463
31.89249
32.88494
33.90541
34.93638
35.94737
36.96081
37.98416
39.00245
40.02749
41.05363
42.08648
43.15201
44.25065
45.31117
46.3738
47.5505
48.65096
48.92962
47.66109
48.05095
63.82596
62.86027
62.57703
61.77023
60.8336
59.98742
59.16937
58.37713
57.64842
56.9461
56.19215
55.41988
54.66679
53.94969
53.24655
52.54159
51.82493
51.10717
50.41318
49.7252
49.02145
48.31792
47.62497
46.91712
46.21879
45.50101
44.75179
44.01991
43.30726
42.58944
41.84646
41.06905
40.3221
39.54248
38.73916
37.93693
37.13088
36.29004
35.43647
34.58303
33.70952
32.78813
31.82382
30.8583
29.89884
28.90086
27.85396
26.77362
25.64319
24.46813
23.25851
22.00307
20.73124
19.36756
17.91552
16.41155
14.80768
13.13136
11.31939
9.362452
7.287021
5.058755
2.574765
-0.1839747
-3.308895
-6.764068
-10.74824
-15.63799
-21.27131
-30.7527
-38.40927
63.24668
62.83094
62.58849
61.86071
60.94651
60.09204
59.26439
58.46685
57.73332
57.02757
56.27097
55.49694
54.74
54.01859
53.31183
52.60378
51.88453
51.16355
50.46748
49.7762
49.0695
48.36406
47.66907
46.95813
46.25932
45.53882
44.78612
44.05418
43.33935
42.61995
41.87448
41.10199
40.34402
39.56623
38.75974
37.95678
37.15008
36.30588
35.45169
34.59764
33.72344
32.79885
31.83188
30.86568
29.90673
28.90592
27.85759
26.77636
25.64281
24.46599
23.25436
21.99637
20.72592
19.35589
17.90019
16.3954
14.78442
13.10762
11.28673
9.323079
7.243237
5.008287
2.509552
-0.257441
-3.393886
-6.873437
-10.88648
-15.80248
-21.53488
-30.89534
-38.55729
-117.1783
-100.7698
-84.02941
-73.73127
-65.27
-58.30107
-52.35502
-47.03097
-42.39875
-38.2442
-34.47713
-31.0598
-27.85237
-24.82671
-22.00368
-19.39583
-16.97855
-14.65477
-12.43943
-10.32807
-8.317756
-6.409515
-4.617324
-2.857162
-1.141327
0.5338724
2.139533
3.647229
5.100725
6.530246
7.940244
9.323655
10.63895
11.90764
13.16997
14.4026
15.62556
16.8291
18.02547
19.18958
20.34527
21.45842
22.562
23.64583
24.72203
25.77753
26.81137
27.84614
28.89855
29.94681
30.96626
31.96776
32.96367
33.98686
35.02311
36.03726
37.05425
38.08137
39.10372
40.13212
41.16314
42.20128
43.26819
44.3672
45.43018
46.49203
47.65431
48.70106
48.87222
47.83943
49.55264
-76.58191
-73.62064
-70.48738
-71.47168
-74.04807
-78.53491
-85.4743
-95.10287
-106.0455
-120.8175
-135.8709
-149.4769
-161.398
-173.8276
-185.3934
-192.933
-197.4814
-197.5864
-191.8067
-180.1601
-166.2417
-160.089
-158.6375
-157.9268
-168.5502
-180.9116
-177.9156
-168.8308
-168.2357
-170.4548
-167.0205
-165.3649
-170.6975
-174.0198
-171.9967
-164.2293
-157.2611
-152.9901
-150.9184
-149.0096
-146.5211
-144.1587
-144.2256
-146.4575
-141.2009
-143.053
-146.7157
-147.5877
-144.0086
-178.5855
0.7004618
9.036152
12.03542
11.39171
8.561649
5.210117
2.07844
-0.640908
-2.626107
-3.409824
-3.086567
-3.386556
-7.048958
-9.287535
-6.512052
-2.303244
-1.047075
-2.322524
-4.086851
-5.433273
-6.9805
-8.699503
-10.37307
-12.0847
-13.90506
-15.83881
-17.89056
-20.20734
-22.86903
-25.92047
-29.58586
-33.78796
-38.24694
-43.21184
-48.36701
-53.58369
-58.69092
-63.02773
-67.48166
-72.36176
-77.72868
-83.8453
-90.19193
-96.74095
-103.5831
-110.6257
-117.7971
-125.1765
-132.6095
-139.9776
-147.165
-154.1287
-160.6189
-166.678
-172.161
-177.1405
-181.6062
-185.3807
-188.4864
-190.9504
-192.8079
-193.9377
-194.4027
-194.2271
-193.4284
-192.0468
-189.9816
-187.2924
-184.1032
-180.4438
-176.3324
-172.0466
-167.733
-163.9004
-160.9151
-159.4874
-157.8895
-151.778
-141.3243
-129.3516
-127.1308
-144.9105
-153.6539
-139.8123
-121.2151
-111.0456
-106.7265
-102.5318
-100.2613
-101.8657
-103.8455
-107.0027
-109.9352
-109.9685
-107.1782
-103.9363
-101.6025
-100.3279
-102.5338
-110.2627
-76.2638
-50.92499
-56.71632
-62.02875
-57.50328
-48.2214
-51.50391
-51.22132
-49.84395
-49.1181
-49.05842
-49.51904
-50.08328
-50.78978
-51.71209
-52.85289
-54.67117
-60.54195
-69.9958
-81.02212
-84.19496
-79.29862
-77.30696
-75.85638
-70.88937
-72.67436
-81.98346
-90.05802
-94.7342
-95.65736
-93.86398
-89.8099
-83.9865
-77.16395
-69.03456
-58.72077
-47.75948
-36.65539
-26.26706
-15.99179
-5.59961
3.963924
10.94967
16.07159
19.40723
21.61797
23.0593
22.96567
19.76471
17.152
-70.86419
-52.18341
-56.10808
-62.36079
-58.39648
-48.57535
-51.38389
-51.2458
-49.91485
-49.11876
-49.06498
-49.52086
-50.08817
-50.78982
-51.70394
-52.78172
-54.55228
-60.64523
-70.35805
-81.66728
-84.56308
-78.91474
-77.31446
-76.4161
-71.73153
-74.67652
-83.869
-91.11742
-95.29575
-96.09707
-94.0567
-89.85757
-83.90701
-76.97447
-68.8175
-58.30825
-47.30601
-36.12696
-25.71345
-15.38781
-4.989942
4.473076
11.35851
16.387
19.73
21.94913
23.18538
22.8256
19.55302
16.59492
2.343233
8.612129
11.83679
11.51498
8.822228
5.478372
2.265077
-0.6206056
-2.708919
-3.652984
-3.46207
-3.618869
-6.993182
-9.26252
-6.796296
-2.522244
-1.006123
-2.267666
-4.017553
-5.358179
-6.910893
-8.630607
-10.30277
-12.01348
-13.83253
-15.76633
-17.81361
-20.13079
-22.7893
-25.83288
-29.50046
-33.6749
-38.11268
-43.12968
-48.30854
-53.46162
-58.53942
-62.85126
-67.42513
-72.30251
-77.66139
-83.82111
-90.14805
-96.69573
-103.555
-110.6072
-117.7845
-125.1807
-132.6229
-140.0106
-147.2122
-154.1967
-160.6852
-166.7617
-172.2374
-177.2266
-181.6994
-185.4632
-188.5687
-191.0296
-192.8885
-194.0002
-194.4574
-194.2685
-193.4527
-192.0644
-189.9908
-187.2663
-184.0953
-180.4338
-176.3319
-172.1212
-167.9031
-164.1223
-161.0938
-159.3189
-157.0748
-150.846
-140.7639
-129.4008
-128.1408
-146.0708
-153.8509
-138.8522
-120.2535
-110.5267
-106.4277
-102.2275
-100.0856
-101.9178
-104.1612
-107.4225
-110.2398
-110.0617
-106.991
-103.7166
-101.4339
-100.7432
-103.2725
-108.0617
-78.19843
-74.13579
-70.73423
-71.39065
-73.82429
-78.12841
-84.86497
-94.35258
-105.1173
-119.9649
-135.081
-148.859
-160.7586
-173.4044
-185.2558
-192.8975
-197.9657
-198.3175
-192.9871
-182.5656
-169.2965
-161.2283
-158.4949
-157.3465
-167.6666
-181.5435
-178.8009
-168.5508
-167.9805
-170.6129
-167.6214
-166.0547
-171.314
-174.5601
-172.5258
-164.5265
-157.496
-152.9331
-150.7689
-148.9285
-146.4916
-144.1298
-144.2283
-146.4851
-141.3897
-143.4166
-147.0133
-147.4061
-146.0871
-170.7765
-117.1499
-100.8928
-84.41849
-73.98548
-65.49668
-58.4741
-52.49723
-47.15252
-42.48546
-38.32447
-34.54166
-31.11819
-27.90621
-24.87164
-22.03921
-19.41878
-17.00428
-14.67652
-12.45712
-10.34112
-8.328564
-6.412166
-4.623763
-2.861206
-1.143468
0.5335498
2.146117
3.653409
5.105168
6.535733
7.94792
9.336334
10.65362
11.91862
13.18457
14.41739
15.64463
16.84791
18.0392
19.20385
20.36555
21.47994
22.58552
23.66921
24.74704
25.80463
26.83856
27.87249
28.92793
29.98083
31.00047
32.00317
32.99854
34.02479
35.06831
36.08274
37.10061
38.13412
39.15871
40.19001
41.22569
42.26928
43.3383
44.44648
45.51899
46.59153
47.76192
48.74732
48.82237
48.0688
51.03132
62.60812
62.74201
62.57167
61.91742
61.02011
60.1639
59.32409
58.51717
57.78207
57.08011
56.319
55.54155
54.77781
54.05399
53.34581
52.63757
51.91515
51.18964
50.49437
49.80291
49.09321
48.38675
47.6924
46.977
46.28227
45.55984
44.8011
44.06933
43.35394
42.63527
41.88722
41.1096
40.35583
39.58043
38.76984
37.96661
37.16016
36.31211
35.45874
34.60593
33.73203
32.80322
31.83281
30.86758
29.91098
28.90646
27.85728
26.77626
25.63857
24.45993
23.24649
21.98628
20.72077
19.34158
17.88204
16.37819
14.7593
13.08632
11.2542
9.284673
7.203898
4.965548
2.454236
-0.3327455
-3.473713
-6.973688
-11.01268
-15.95342
-21.75875
-30.93944
-38.60143
61.84817
62.56236
62.51367
61.96783
61.11715
60.26811
59.41488
58.6034
57.87084
57.17213
56.40468
55.62895
54.86044
54.13281
53.42051
52.71219
51.98658
51.25416
50.55792
49.8635
49.14916
48.44117
47.74676
47.02426
46.33408
45.60868
44.84177
44.11176
43.3942
42.6744
41.92066
41.15454
40.38842
39.61292
38.79789
37.99477
37.18631
36.32921
35.47535
34.62447
33.75395
32.81881
31.83961
30.87441
29.92405
28.91346
27.86205
26.78297
25.63938
24.45701
23.23832
21.97366
20.72039
19.32893
17.86498
16.35996
14.72803
13.06484
11.2148
9.236229
7.151956
4.913847
2.385762
-0.4250782
-3.571837
-7.0936
-11.1633
-16.1213
-21.98643
-30.91151
-38.64355
-117.1325
-100.8612
-84.79317
-74.24374
-65.76773
-58.68445
-52.66897
-47.29533
-42.59155
-38.43
-34.62059
-31.18729
-27.97367
-24.92334
-22.07397
-19.4379
-17.03602
-14.70232
-12.4748
-10.34918
-8.333077
-6.406005
-4.625019
-2.857912
-1.13792
0.5455898
2.170556
3.673477
5.124513
6.561559
7.976389
9.367907
10.68846
11.94921
13.22178
14.45392
15.68719
16.89132
18.08745
19.27583
20.42288
21.53696
22.64707
23.73399
24.81619
25.87747
26.91102
27.94804
29.01143
30.07228
31.09049
32.09614
33.09238
34.12173
35.17567
36.19066
37.21236
38.25194
39.27586
40.30925
41.35045
42.39783
43.45845
44.56675
45.64534
46.71595
47.8731
48.77719
48.85165
48.66278
52.42911
-79.91431
-74.83742
-71.11075
-71.35213
-73.61109
-77.70283
-84.24442
-93.52564
-104.0384
-118.973
-134.1103
-148.1058
-159.9408
-172.8325
-184.9741
-192.641
-198.1627
-198.8545
-194.2519
-185.2122
-173.06
-163.4647
-158.4123
-156.1828
-166.3739
-182.6773
-180.305
-168.4311
-167.7535
-170.7829
-168.4709
-167.2397
-172.4263
-175.5243
-173.4817
-164.9852
-157.838
-152.8059
-150.4859
-148.7687
-146.4314
-144.1219
-144.3147
-146.4579
-141.6065
-143.9629
-147.2528
-147.0968
-147.3937
-162.974
4.655295
8.426941
11.57305
11.60787
9.108352
5.825039
2.597839
-0.3280014
-2.557078
-3.887137
-3.901956
-4.017403
-6.932311
-8.995149
-6.897414
-2.708701
-0.948788
-2.010806
-3.90522
-5.264028
-6.832774
-8.552794
-10.2195
-11.92905
-13.74805
-15.6825
-17.72418
-20.04306
-22.69696
-25.73311
-29.40636
-33.54364
-37.92064
-43.01004
-48.23508
-53.29434
-58.24833
-62.49685
-67.32459
-72.2176
-77.55389
-83.78534
-90.09085
-96.62574
-103.5022
-110.5695
-117.7653
-125.1987
-132.6343
-140.0381
-147.2612
-154.278
-160.7597
-166.8688
-172.3293
-177.336
-181.8158
-185.556
-188.6705
-191.1328
-193.005
-194.0964
-194.55
-194.3408
-193.504
-192.114
-190.0201
-187.2512
-184.1092
-180.4367
-176.3308
-172.1964
-168.0495
-164.3058
-161.2122
-159.0327
-156.1183
-149.8343
-140.4016
-130.4375
-130.2616
-147.3314
-153.5844
-137.5214
-119.2575
-110.0869
-106.0192
-101.8778
-100.0359
-102.1089
-104.5414
-107.8787
-110.5731
-110.1049
-106.7764
-103.4927
-101.2684
-101.1769
-103.9487
-105.4693
-65.98138
-53.03611
-55.66761
-62.8895
-59.48488
-49.02113
-51.17521
-51.24416
-50.02248
-49.13732
-49.07765
-49.5231
-50.0985
-50.791
-51.68734
-52.67109
-54.38186
-60.79114
-70.90965
-82.51051
-85.03788
-78.58634
-77.44482
-77.24175
-73.75738
-77.5593
-86.09294
-92.30447
-95.92715
-96.15557
-94.02804
-89.74177
-83.66936
-76.61208
-68.51558
-57.81683
-46.79669
-35.47529
-25.03918
-14.68254
-4.288343
5.089434
11.81426
16.74064
20.07486
22.30769
23.31736
22.7337
19.52292
16.49621
-61.07309
-53.32472
-55.65272
-63.54487
-60.88755
-49.46552
-50.84156
-51.21283
-50.20155
-49.22294
-49.13994
-49.53373
-50.1204
-50.79886
-51.68888
-52.51883
-54.11733
-60.8806
-71.70797
-83.34805
-85.48138
-78.53042
-77.59483
-78.31459
-76.9934
-81.04006
-88.6544
-93.78983
-96.88353
-96.83646
-94.22669
-89.78715
-83.57645
-76.25649
-68.31041
-57.33327
-46.06316
-34.61699
-24.30765
-13.93872
-3.496598
5.952727
12.3682
17.11004
20.41883
22.6735
23.42028
22.67278
19.62474
17.02864
7.700331
8.62301
11.33777
11.70678
9.445085
6.242285
2.935704
-0.2245176
-2.751843
-4.205862
-4.385898
-4.522434
-6.943698
-8.385951
-6.64515
-2.814065
-0.8748365
-1.780365
-3.793643
-5.145128
-6.7341
-8.463655
-10.12156
-11.82682
-13.64945
-15.58979
-17.62808
-19.95031
-22.57982
-25.601
-29.29782
-33.37519
-37.72609
-42.9437
-48.13684
-53.07064
-57.88157
-62.02234
-67.22374
-72.13332
-77.45483
-83.72208
-90.03278
-96.58091
-103.4485
-110.5324
-117.7303
-125.29
-132.7372
-140.1203
-147.3639
-154.4268
-160.8755
-167.0399
-172.4676
-177.5246
-182.0242
-185.7504
-188.8513
-191.2821
-193.1669
-194.2221
-194.6908
-194.4495
-193.5826
-192.1966
-190.1004
-187.2559
-184.1622
-180.4777
-176.3397
-172.2975
-168.2214
-164.4686
-161.2302
-158.6727
-155.2099
-148.9664
-140.3896
-132.4003
-133.1433
-148.0206
-151.8404
-135.2362
-118.2682
-110.0106
-106.0293
-101.7982
-100.2619
-102.4337
-104.9748
-108.4852
-111.1397
-110.2745
-106.5592
-103.2686
-101.0421
-101.4547
-104.0817
-103.1261
-81.68284
-75.89505
-71.71908
-71.41953
-73.37739
-77.19388
-83.66413
-92.6397
-102.8204
-117.8031
-132.9607
-147.0848
-158.9959
-172.4222
-184.8346
-192.4799
-198.8848
-199.8974
-195.8904
-188.1207
-177.3246
-166.741
-159.4316
-155.7941
-165.3182
-184.192
-182.3694
-168.7969
-167.6827
-171.0684
-169.5765
-169.2571
-174.4642
-177.2406
-175.0903
-165.6402
-158.3474
-152.5752
-150.0489
-148.4438
-146.3213
-144.1474
-144.4671
-146.3769
-141.7083
-145.021
-147.9917
-146.5668
-147.262
-154.5247
-116.8475
-100.5709
-85.0954
-74.46831
-66.08544
-58.90027
-52.82356
-47.43779
-42.7213
-38.55274
-34.68577
-31.26212
-28.05623
-24.97105
-22.10879
-19.47418
-17.09067
-14.72886
-12.48908
-10.34967
-8.340755
-6.409266
-4.632029
-2.862333
-1.140109
0.5613252
2.183333
3.677267
5.138747
6.577093
7.977558
9.371612
10.71349
11.96521
13.24466
14.47336
15.71675
16.92515
18.12397
19.29268
20.44649
21.56625
22.6866
23.7752
24.85602
25.91542
26.95607
27.99968
29.06105
30.11957
31.13737
32.15317
33.15046
34.18162
35.24762
36.26769
37.28794
38.32969
39.35956
40.40502
41.4544
42.50815
43.55585
44.67893
45.79048
46.85678
47.97379
48.78378
49.0081
49.59038
53.7471
60.95783
62.21709
62.36285
61.9673
61.20174
60.38079
59.50224
58.67698
57.94755
57.25541
56.46791
55.69083
54.9179
54.19351
53.47265
52.76143
52.03466
51.3
50.60842
49.90831
49.18681
48.47872
47.78464
47.05196
46.37105
45.63411
44.8599
44.13415
43.41804
42.7033
41.93982
41.15899
40.40069
39.62323
38.80487
38.01285
37.20984
36.34218
35.48659
34.63014
33.76537
32.83275
31.84537
30.8699
29.9292
28.91696
27.85845
26.78178
25.6377
24.45586
23.22949
21.94636
20.70994
19.30358
17.84926
16.34228
14.68404
13.04469
11.16934
9.192469
7.09198
4.853976
2.314598
-0.5152635
-3.668341
-7.213509
-11.31633
-16.27917
-22.17011
-30.72649
-38.51106
60.06235
61.71829
62.11701
61.89116
61.26215
60.53803
59.63982
58.78592
58.07845
57.42634
56.63535
55.82608
55.01825
54.3044
53.60186
52.8731
52.11583
51.3648
50.69804
49.99713
49.25881
48.557
47.86945
47.10686
46.48578
45.70863
44.9094
44.19668
43.45479
42.76674
41.99101
41.23391
40.49066
39.68009
38.8159
38.02834
37.23508
36.36835
35.5341
34.66756
33.76579
32.83595
31.88212
30.8949
29.9311
28.93597
27.87515
26.7643
25.62313
24.45671
23.25767
21.95511
20.70477
19.24147
17.82028
16.34256
14.61486
13.01915
11.07501
9.156532
7.042783
4.727734
2.177366
-0.6635218
-3.821061
-7.397129
-11.55899
-16.53623
-22.45667
-30.485
-38.33192
-116.2226
-100.2343
-85.6229
-74.86276
-66.61148
-59.09388
-53.0434
-47.70729
-42.96953
-38.65997
-34.73178
-31.40229
-28.16095
-25.011
-22.19722
-19.56191
-17.10428
-14.6995
-12.49716
-10.35661
-8.390667
-6.437822
-4.604516
-2.888011
-1.120632
0.5895286
2.153368
3.717148
5.191738
6.586867
7.974524
9.444124
10.83024
12.0054
13.30432
14.52692
15.79291
16.99687
18.18544
19.34688
20.53765
21.67703
22.78661
23.86939
24.93366
26.02684
27.08928
28.10134
29.13767
30.24766
31.3012
32.30199
33.29488
34.30451
35.41156
36.44741
37.41697
38.50663
39.56494
40.58913
41.63162
42.68546
43.71456
44.88713
46.0558
47.05772
48.10604
48.90113
49.52638
50.87305
54.7748
-83.6204
-77.36259
-72.58316
-71.73422
-73.23364
-76.7561
-83.01198
-91.60897
-101.5898
-116.386
-131.7327
-145.0268
-157.1937
-171.8431
-184.4799
-191.8541
-199.7854
-201.0421
-197.865
-191.4707
-182.2691
-171.0854
-162.4823
-156.6608
-165.0997
-186.7641
-185.5825
-169.4484
-167.6025
-171.3209
-171.1156
-172.5987
-178.0971
-180.2557
-178.1304
-166.754
-158.975
-152.1275
-149.3532
-147.802
-145.9565
-144.3072
-144.9049
-145.8471
-140.875
-146.0428
-148.2779
-145.7032
-145.4765
-146.3071
11.51908
10.82877
11.75817
12.00417
9.889839
6.84569
3.547001
0.2158768
-2.568617
-4.521948
-4.826198
-5.040617
-7.251864
-7.693
-6.210151
-3.01768
-0.9585582
-1.542939
-3.644058
-4.99086
-6.591089
-8.345368
-9.983485
-11.66183
-13.48043
-15.44481
-17.48783
-19.84196
-22.41333
-25.34819
-29.10117
-32.98528
-37.29821
-42.85322
-48.03495
-52.84665
-57.36388
-61.2871
-66.96317
-71.76361
-77.42004
-83.55162
-89.72601
-96.53878
-103.3543
-110.4536
-117.4537
-125.1504
-132.898
-140.2565
-147.4972
-154.6845
-161.0228
-167.2796
-172.564
-177.733
-182.2171
-185.9462
-189.1541
-191.5404
-193.4475
-194.3816
-194.9088
-194.6234
-193.733
-192.282
-190.2141
-187.3131
-184.2044
-180.5734
-176.4005
-172.3305
-168.3319
-164.6266
-161.2008
-158.1728
-154.2379
-148.2705
-140.5512
-134.4227
-135.7591
-146.9254
-146.9204
-131.5549
-117.238
-109.9442
-106.2113
-102.0609
-100.8781
-103.0533
-105.6692
-109.4039
-111.9854
-110.6068
-106.3619
-102.926
-100.6367
-101.4435
-103.1549
-101.382
-56.55174
-52.77378
-56.28772
-64.52814
-63.3243
-49.0819
-50.13011
-51.12644
-50.47103
-49.40981
-49.20973
-49.53281
-50.14105
-50.80995
-51.71308
-52.36393
-53.8658
-60.95967
-72.26762
-85.09587
-86.015
-79.13923
-77.71806
-79.97811
-81.22691
-84.85335
-91.4307
-95.45537
-97.94831
-97.25311
-94.42336
-89.88478
-83.53303
-75.62383
-68.25734
-56.6004
-44.65593
-33.34599
-23.50406
-13.18306
-2.639895
6.737502
12.93339
17.50278
20.78007
22.95309
23.4566
22.65864
19.91633
18.08231
-0.01135586
-0.0005785224
11.31488
12.66018
-43.04274
0.6414738
0.8254971
13.78114
5.770376
11.31867
17.67306
-80.55419
0.007292055
2.631286
-26.51641
14.43758
13.5546
3.020989
8.840217
-0.4628113
10.62836
8.586979
16.93484
8.823649
-0.03244705
12.82657
8.531248
12.28329
12.56805
2.053015
2.477833
3.484783
-26.40932
3.200816
9.805109
6.681548
12.53264
12.13654
8.982812
12.02039
11.20119
-0.02040396
-60.67085
-56.99485
5.117137
-104.0059
2.380416
-0.04656345
-0.4008291
11.14923
4.877593
-3.291585
4.434612
-2.140214
11.02718
10.18124
4.120347
2.505169
0.7069833
-0.02931082
-9.660902
7.50248
0.08097285
-4.914029
11.58256
-10.00343
0.09847638
19.13616
30.47219
9.607433
-27.79134
1.510168
10.14612
13.06627
7.755618
7.391317
7.187468
6.47551
-0.3890901
7.132876
-5.153753
5.577662
4.370504
0.0969886
0.1031304
-31.80239
16.12703
16.76762
2.324054
4.186824
14.95071
15.10299
13.65188
12.18925
1.995841
5.129418
14.14241
9.608715
2.132637
4.399026
0.8871981
-12.92565
8.704606
2.761396
12.10205
12.81778
10.70301
11.56879
12.84671
13.83857
10.33122
-160.6413
20.72781
10.07587
11.55405
-138.1368
0.3724099
-32.42638
10.36437
12.04458
3.442886
10.46544
1.906608
-79.39771
12.56635
7.972987
-0.3520235
-20.29037
-67.94424
5.133104
18.92542
14.43305
12.64766
11.87487
-19.09797
6.96442
4.345856
-14.67418
4.583758
11.7141
12.6217
11.54595
13.42269
1.92057
3.484768
-37.67682
9.312201
3.563711
-7.519938
-40.54253
-27.59878
-25.80298
2.125393
13.0068
9.235604
13.15318
-24.03716
12.89571
1.222406
5.418734
15.45002
13.27843
4.518017
14.91905
14.82382
6.460947
3.932596
14.06348
5.912517
13.57024
-4.910335
4.355212
20.9158
5.641247
2.517713
0.8182525
2.907076
4.59502
0.3422965
11.08747
0.9146353
13.68399
10.59198
11.47582
4.001143
11.54535
12.89318
12.48948
16.3251
5.549003
3.858559
12.49987
5.826711
16.43935
-1.644187
3.546862
8.457647
3.255224
9.358608
3.681453
-43.71423
5.142219
4.122848
12.19734
4.623919
11.23424
6.692976
11.2892
1.280751
5.548586
-36.93383
8.650576
-48.00296
11.91782
-6.228903
10.54162
6.183029
1.212757
12.35811
16.1856
11.00347
4.020978
12.60319
-0.06512125
22.79347
13.83082
7.594793
8.720344
12.53096
3.90225
-5.182684
5.678242
5.328584
11.56085
4.189796
-22.88577
12.5752
8.748408
-46.06856
-141.4273
12.09352
3.737215
-16.76632
3.99669
-2.692827
2.268459
10.6717
5.144891
4.185902
8.847436
8.87513
-39.85807
14.19978
4.753391
-3.445302
-2.204573
7.163032
12.42246
8.74649
4.621534
13.43628
1.458691
11.82872
-188.9489
11.29454
6.479452
-19.31026
-42.1693
12.57441
4.667571
12.16212
0.4531263
1.31243
-10.41212
14.66009
-47.11223
11.78386
-28.30181
7.659046
13.22622
4.929222
-2.9576
20.03632
6.743089
15.76728
-7.566003
5.263603
10.88296
10.59928
6.387031
3.261461
-68.44265
-3.630566
9.828521
14.46611
5.370083
1.733254
-118.5364
9.001729
6.544321
3.635144
8.336578
5.389944
21.68612
4.588744
3.891229
12.41368
9.717237
-18.80332
2.264582
14.29872
-24.61987
25.4744
16.38537
12.33081
11.80769
5.153148
9.472639
12.22219
10.06636
10.32073
7.680962
-23.31733
2.855262
16.4916
12.4804