/*--------------------------------*- C++ -*----------------------------------*\
| =========                 |                                                 |
| \\      /  F ield         | OpenFOAM: The Open Source CFD Toolbox           |
|  \\    /   O peration     | Version:  2406                                  |
|   \\  /    A nd           | Website:  www.openfoam.com                      |
|    \\/     M anipulation  |                                                 |
\*---------------------------------------------------------------------------*/
FoamFile
{
    version     2.0;
    format      ascii;
    arch        "LSB;label=32;scalar=64";
    class       volScalarField;
    location    "2.86";
    object      p;
}
// * * * * * * * * * * * * * * * * * * * * * * * * * * * * * * * * * * * * * //

dimensions      [0 2 -2 0 0 0 0];

internalField   nonuniform List<scalar> 
217010
(
-170.2095
-92.76314
-98.30015
-100.4384
-100.2546
-95.02494
-93.74608
-92.83031
-92.2591
-92.29973
-93.35051
-92.51079
-92.4487
-93.18564
-94.20774
-95.49562
-96.69166
-98.07734
-98.76064
-96.861
-92.071
-83.78311
-70.32016
-72.48044
-81.84179
-87.76787
-91.90701
-95.95688
-101.0625
-104.3972
-103.813
-105.6204
-110.9051
-106.0511
-92.49149
-94.24497
-116.9936
-145.9617
-163.7141
-165.449
-156.7403
-144.1025
-128.2062
-108.2479
-84.73984
-60.89754
-41.17832
-25.64958
-13.41526
0.4605536
0.7747155
2.873065
0.665939
-0.276337
0.1463791
2.514006
7.439753
14.06572
20.64585
24.31746
20.61347
15.72915
13.48143
12.36999
10.75218
12.08989
14.67241
14.54188
13.64332
13.88434
14.00984
15.56941
19.18725
23.54174
25.81813
26.85371
24.78915
18.88808
12.87578
5.65736
-7.316689
-29.23287
-53.27527
-53.88093
-18.36542
1.888589
-10.849
-20.57108
-27.42213
-38.64892
-58.98593
-73.36839
-66.45221
-56.20376
-57.3158
-60.50158
-63.21017
-66.27341
-69.28114
-71.86292
-73.98887
-75.65023
-76.88692
-77.72987
-78.22251
-78.42875
-78.31001
-77.84039
-77.06451
-76.04207
-74.81133
-73.34883
-71.77299
-69.9809
-67.90431
-65.69249
-63.47541
-61.0432
-58.59754
-56.06502
-53.42852
-50.82648
-48.31407
-45.91024
-43.59512
-41.44569
-39.52526
-37.87806
-36.5787
-35.79626
-35.54803
-35.83671
-36.61481
-38.33845
-40.83065
-43.5007
-47.1472
-51.14921
-55.54969
-59.93348
-64.15202
-68.0261
-71.12581
-73.07615
-73.55778
-72.16128
-68.44707
-64.67519
-50.40655
-75.40359
-33.18334
-28.62713
-24.5316
-26.58128
-30.90167
-36.46597
-41.67194
-45.71953
-49.14474
-52.1882
-54.9548
-57.56731
-60.46645
-63.22321
-68.76872
-74.40291
-79.02119
-81.71065
-81.85716
-79.48505
-74.60696
-67.58384
-59.90658
-53.85676
-50.33427
-50.44674
-53.27707
-55.09689
-56.0878
-55.06994
-52.06384
-47.20594
-40.94205
-35.25999
-37.85664
-43.54832
-46.42754
-49.80842
-51.11018
-50.11405
-48.77809
-47.42016
-46.19418
-47.1323
-45.32234
-46.43415
-48.52784
-50.00554
-43.96864
-99.31436
-27.78075
-18.08939
-6.930531
-0.3144736
5.338967
10.02517
14.08116
17.75561
20.96647
23.88885
26.55357
28.99987
31.30802
33.49534
35.55131
37.46228
39.25429
40.97928
42.63466
44.22229
45.74422
47.19106
48.56573
49.91828
51.24272
52.53994
53.78965
54.97202
56.1164
57.24734
58.36721
59.46588
60.51476
61.53761
62.55478
63.55457
64.54502
65.52344
66.5052
67.45275
68.41132
69.33306
70.24732
71.14974
72.04998
72.93518
73.80463
74.67782
75.56802
76.45819
77.32805
78.18295
79.03569
79.91446
80.80573
81.68365
82.56638
83.45784
84.34908
85.25107
86.15505
87.05751
87.99667
89.00433
89.99735
90.9472
91.99029
93.17023
94.28697
94.80175
97.27804
79.17269
81.94388
81.94998
81.89758
81.71557
81.26103
80.54361
79.69138
78.83832
78.01173
77.15606
76.2702
75.38523
74.52746
73.68297
72.83483
71.97266
71.10367
70.25081
69.40329
68.53575
67.66034
66.79199
65.90515
65.0192
64.11317
63.16989
62.22977
61.30353
60.36539
59.4013
58.37448
57.39796
56.36282
55.29077
54.21393
53.12648
51.99217
50.8319
49.66251
48.4583
47.18318
45.8448
44.49802
43.14575
41.73293
40.24576
38.70157
37.07564
35.37534
33.61679
31.78193
29.90431
27.88854
25.72923
23.4716
21.05574
18.5073
15.74494
12.7393
9.523145
6.045242
2.140104
-2.224415
-7.21373
-12.77227
-19.24013
-27.23596
-36.54166
-52.43687
-65.59908
81.26701
81.74673
81.9529
81.90246
81.74541
81.32024
80.62313
79.77794
78.9224
78.09275
77.2366
76.34928
75.46044
74.59781
73.74981
72.89902
72.03474
71.16265
70.30651
69.4564
68.5869
67.709
66.83819
65.94936
65.06123
64.1538
63.20884
62.26645
61.33762
60.39778
59.43249
58.40383
57.42575
56.38845
55.31457
54.23605
53.14704
52.01093
50.84913
49.67811
48.47243
47.19524
45.85478
44.50626
43.15243
41.73734
40.24824
38.70224
37.07375
35.37048
33.60874
31.77045
29.89046
27.86907
25.70465
23.44212
21.01915
18.46484
15.69257
12.67628
9.450213
5.959241
2.036924
-2.344893
-7.37309
-12.96374
-19.48258
-27.53871
-37.03609
-52.88794
-68.05955
-29.51098
-18.44354
-7.282721
-0.5330206
5.161437
9.884411
13.96251
17.66655
20.88992
23.82232
26.4977
28.95159
31.26631
33.46013
35.5225
37.43898
39.23452
40.96307
42.62202
44.21282
45.73761
47.18745
48.56393
49.91815
51.24444
52.54346
53.79532
54.97925
56.12514
57.25771
58.37928
59.47966
60.53017
61.55441
62.57333
63.57469
64.56696
65.54736
66.53154
67.48057
68.44098
69.36434
70.28047
71.18504
72.08718
72.9743
73.84597
74.72196
75.61486
76.50726
77.37894
78.23633
79.09257
79.97503
80.86956
81.75053
82.63693
83.53218
84.42759
85.33369
86.24184
87.15082
88.09909
89.11295
90.10875
91.06783
92.12918
93.313
94.3799
94.92469
96.7566
-35.23633
-29.12308
-24.64355
-26.29831
-30.43022
-35.94035
-41.20778
-45.35365
-48.88634
-52.01341
-54.78084
-57.41801
-60.32652
-63.02924
-68.49328
-74.13553
-78.81892
-81.62226
-81.89047
-79.60902
-74.81048
-67.8209
-60.11375
-53.98853
-50.36794
-50.41709
-53.23829
-55.08299
-56.09876
-55.08563
-52.09475
-47.24449
-40.98186
-35.25575
-37.85812
-43.57754
-46.46418
-49.84867
-51.12309
-50.10486
-48.75751
-47.38955
-46.1878
-47.12523
-45.32917
-46.49589
-48.62494
-49.9196
-45.27698
-89.34088
0.6729753
2.834974
0.8422659
-0.2801243
-0.1062256
2.004014
6.770952
13.36918
20.17615
24.26702
20.91637
16.04767
13.58662
12.4312
10.72581
11.93517
14.59854
14.57757
13.67449
13.88398
13.97174
15.43705
18.96106
23.36085
25.71158
26.86533
24.89689
19.06417
13.09847
5.987588
-6.810404
-28.63427
-53.12087
-54.58884
-19.19316
1.827704
-10.7333
-20.48881
-27.28389
-38.43863
-58.86215
-73.41909
-66.52946
-56.18862
-57.24919
-60.48181
-63.22491
-66.29836
-69.30418
-71.88047
-74.00303
-75.66239
-76.89711
-77.7383
-78.2283
-78.43176
-78.31035
-77.83585
-77.05179
-76.02223
-74.78621
-73.31774
-71.73502
-69.93501
-67.85019
-65.63258
-63.39817
-60.96485
-58.51169
-55.97116
-53.32832
-50.72298
-48.20867
-45.80407
-43.49023
-41.34578
-39.43394
-37.80054
-36.52189
-35.76681
-35.54765
-35.86587
-36.69039
-38.47396
-41.01103
-43.73454
-47.45118
-51.5037
-55.94766
-60.34505
-64.56318
-68.40983
-71.43937
-73.27746
-73.57159
-71.96036
-68.05071
-63.47097
-51.02564
-71.23406
-154.8566
-94.87253
-98.40485
-100.4683
-100.4047
-95.14769
-93.78092
-92.84849
-92.26176
-92.29276
-93.35124
-92.51472
-92.44384
-93.17692
-94.20207
-95.497
-96.69233
-98.08013
-98.77182
-96.87314
-92.02444
-83.71884
-70.34806
-72.63656
-82.0505
-87.97287
-92.09227
-96.11708
-101.1562
-104.4013
-103.8168
-105.788
-111.0549
-105.6721
-92.15596
-94.92342
-118.7382
-147.5408
-164.34
-165.0677
-155.7212
-142.7121
-126.4348
-106.0951
-82.4004
-58.66615
-39.27084
-24.10341
-11.97697
1.281342
-138.919
-95.6462
-98.60144
-100.4094
-100.5323
-95.31571
-93.84335
-92.87235
-92.26061
-92.28618
-93.3599
-92.5143
-92.43192
-93.1651
-94.20768
-95.51162
-96.69599
-98.0981
-98.82851
-96.95031
-92.04626
-83.79036
-70.5138
-72.94631
-82.35597
-88.1241
-92.3458
-96.40327
-101.2731
-104.5377
-103.8409
-105.9936
-111.2787
-105.3541
-91.85487
-95.91976
-121.6143
-150.0889
-165.5335
-165.6321
-155.7738
-142.5671
-126.0709
-105.4273
-81.46793
-57.5802
-38.38005
-23.31534
-11.15656
1.69508
0.6058147
2.819065
0.9562148
-0.2880478
-0.2824122
1.909485
6.533449
12.9836
19.76215
24.11553
21.03672
16.03297
13.50174
12.39869
10.72442
11.81273
14.51935
14.59839
13.64671
13.84911
13.8797
15.27623
18.80119
23.26107
25.68007
26.87833
24.9354
19.13963
13.2171
6.238634
-6.419098
-28.31766
-53.65833
-56.18106
-20.36632
2.207861
-10.511
-20.40415
-27.23916
-38.38252
-58.82764
-73.61662
-66.70805
-56.38904
-57.3588
-60.60071
-63.40034
-66.43525
-69.38921
-71.9317
-74.03802
-75.68956
-76.91939
-77.75864
-78.24523
-78.44677
-78.32994
-77.85194
-77.06515
-76.03061
-74.79564
-73.32148
-71.73702
-69.936
-67.84249
-65.61838
-63.41856
-60.95424
-58.49617
-55.95461
-53.30471
-50.69606
-48.17985
-45.77556
-43.45954
-41.31438
-39.40387
-37.7751
-36.50248
-35.76176
-35.55828
-35.90317
-36.75522
-38.57062
-41.13171
-43.88859
-47.62464
-51.67676
-56.12384
-60.51573
-64.72033
-68.52541
-71.4782
-73.22134
-73.49815
-71.77368
-67.75521
-62.92265
-51.14846
-67.43073
-35.49105
-29.51581
-24.81999
-26.15601
-30.17629
-35.68201
-41.06653
-45.20921
-48.72975
-51.92378
-54.72224
-57.33332
-60.27249
-62.94794
-68.39367
-74.08048
-78.84646
-81.73496
-82.03488
-79.76999
-75.05147
-68.1355
-60.36978
-54.09208
-50.32588
-50.35584
-53.21533
-55.08105
-56.12715
-55.11883
-52.16583
-47.31464
-41.07695
-35.26534
-37.86235
-43.63201
-46.52456
-49.88106
-51.15189
-50.1051
-48.74816
-47.37526
-46.19008
-47.13627
-45.36823
-46.5954
-48.67882
-49.80874
-45.75738
-78.68645
-29.32619
-18.66973
-7.442237
-0.6421597
5.078548
9.820692
13.91486
17.61419
20.85996
23.79468
26.47501
28.93163
31.24789
33.44474
35.50987
37.42958
39.22488
40.95487
42.61525
44.20757
45.73319
47.18522
48.56138
49.91647
51.24404
52.54405
53.79799
54.98195
56.12759
57.26056
58.38281
59.48491
60.53588
61.55911
62.57902
63.58064
64.57461
65.55562
66.53843
67.48752
68.44777
69.37261
70.28973
71.19411
72.09701
72.98473
73.85611
74.73182
75.62621
76.52055
77.39213
78.24963
79.10507
79.98873
80.88609
81.76709
82.65356
83.55099
84.44657
85.35347
86.26292
87.1732
88.12144
89.14003
90.13917
91.09736
92.16703
93.34713
94.38279
94.95438
96.409
82.03842
81.7041
81.9501
81.90937
81.74855
81.33949
80.65083
79.80435
78.94672
78.11766
77.2597
76.37053
75.47912
74.61563
73.76682
72.91603
72.05045
71.17625
70.32025
69.47045
68.59944
67.72105
66.85091
65.96004
65.07378
64.16588
63.21801
62.27523
61.34683
60.40705
59.43918
58.40978
57.4346
56.39846
55.32204
54.24304
53.154
52.01572
50.85367
49.6833
48.47813
47.19891
45.85633
44.50766
43.15468
41.738
40.24823
38.70171
37.0707
35.3658
33.60239
31.7625
29.88392
27.85848
25.69181
23.42889
21.00107
18.44699
15.66835
12.64772
9.418923
5.923022
1.99325
-2.416957
-7.439901
-13.05311
-19.59829
-27.69788
-37.26533
-53.18294
-67.7883
83.28008
81.82692
82.00541
81.94439
81.75899
81.36712
80.70444
79.87484
79.02541
78.1997
77.34117
76.45175
75.55875
74.69292
73.84158
72.98807
72.12018
71.24269
70.38523
69.53238
68.65794
67.77748
66.90538
66.01089
65.12426
64.21371
63.26156
62.3185
61.38794
60.44654
59.47572
58.45377
57.46373
56.43006
55.34976
54.26985
53.17994
52.0375
50.87468
49.70361
48.49763
47.21382
45.86788
44.51856
43.16585
41.74523
40.25384
38.70599
37.07034
35.36294
33.59671
31.7531
29.8761
27.84154
25.66967
23.40484
20.96659
18.41129
15.61907
12.58802
9.35182
5.844538
1.890136
-2.532052
-7.576953
-13.22889
-19.82291
-27.97086
-37.6967
-53.44032
-67.99354
-29.49073
-18.87007
-7.749905
-0.8352278
4.910981
9.690766
13.8114
17.52924
20.78426
23.73139
26.42318
28.88612
31.20808
33.41215
35.48359
37.41046
39.20724
40.94127
42.60525
44.20096
45.72869
47.18517
48.56077
49.91765
51.24782
52.54962
53.80774
54.99296
56.13935
57.27329
58.39706
59.50252
60.55598
61.57881
62.60114
63.60389
64.60123
65.58418
66.56534
67.53023
68.48359
69.40985
70.32961
71.23645
72.14114
73.03188
73.9058
74.78446
75.68136
76.57876
77.45258
78.31349
79.17253
80.05897
80.96091
81.84533
82.7356
83.637
84.53701
85.44778
86.36224
87.28013
88.23502
89.25673
90.26066
91.22957
92.31181
93.47062
94.42929
94.97444
95.90342
-36.67038
-30.06621
-25.0594
-25.95187
-29.70136
-34.9735
-40.4996
-44.93387
-48.54471
-51.81079
-54.62474
-57.2405
-60.22181
-62.87741
-68.24828
-73.90294
-78.68311
-81.627
-82.04285
-79.967
-75.36133
-68.57464
-60.79394
-54.2879
-50.30686
-50.2322
-53.16184
-55.07638
-56.16757
-55.16597
-52.2887
-47.4218
-41.24563
-35.30649
-37.87474
-43.72165
-46.64295
-49.97334
-51.21313
-50.11491
-48.73684
-47.35815
-46.2069
-47.11591
-45.42649
-46.766
-48.77673
-49.62282
-47.06392
-70.95115
0.546615
2.808378
1.334639
-0.3075098
-0.6220516
1.170479
5.779958
12.24397
19.15016
23.81119
21.11851
16.17038
13.36272
12.26336
10.72976
11.70865
14.43398
14.65371
13.64515
13.82931
13.77522
15.06508
18.55637
23.06903
25.64066
26.9828
25.03815
19.29371
13.44274
6.607589
-5.884101
-27.89413
-54.03388
-58.23432
-21.86413
2.167056
-10.11374
-20.2827
-27.35381
-38.4451
-58.43038
-72.99534
-66.83777
-57.09867
-57.84106
-60.88659
-63.65821
-66.60703
-69.49015
-71.99019
-74.07697
-75.71853
-76.9405
-77.7767
-78.24842
-78.44326
-78.32507
-77.84243
-77.04901
-76.00405
-74.7684
-73.28419
-71.69317
-69.8897
-67.78804
-65.55709
-63.30201
-60.86705
-58.40353
-55.85898
-53.20071
-50.58952
-48.07222
-45.67144
-43.35878
-41.22128
-39.32209
-37.71107
-36.45773
-35.74775
-35.57332
-35.96375
-36.85283
-38.7219
-41.33755
-44.14628
-47.95075
-52.04474
-56.55023
-60.95629
-65.16529
-68.95985
-71.87014
-73.57128
-73.57306
-71.60779
-67.45111
-62.17194
-51.13549
-63.57253
-128.1129
-97.6834
-98.56755
-100.1041
-100.6665
-95.59109
-93.9469
-92.90817
-92.25378
-92.27586
-93.37461
-92.51203
-92.40913
-93.15424
-94.22097
-95.53655
-96.70618
-98.14063
-98.94654
-97.11009
-92.05863
-83.94706
-70.87959
-73.52083
-82.86939
-88.39695
-92.74792
-96.87012
-101.3796
-104.4835
-103.7742
-106.3517
-111.9429
-105.1267
-91.7267
-98.05853
-125.709
-152.9743
-166.5147
-165.0884
-154.6631
-141.1284
-124.3412
-103.4264
-79.37131
-55.50873
-36.66605
-21.98585
-10.00106
2.26128
-120.5326
-99.65361
-98.26908
-99.42969
-100.8102
-96.01455
-94.10787
-92.96709
-92.23747
-92.27105
-93.40827
-92.5177
-92.37947
-93.15614
-94.23892
-95.5789
-96.72886
-98.22094
-99.18186
-97.46704
-92.18176
-84.24761
-71.48254
-74.42165
-83.6295
-88.73339
-93.2577
-97.47342
-101.3999
-104.1775
-103.4546
-106.918
-113.1782
-105.272
-92.41788
-102.5981
-131.3004
-156.522
-168.2959
-165.873
-154.2566
-140.3531
-123.1928
-101.813
-77.48611
-53.53573
-35.0834
-20.68749
-8.84023
2.727745
0.5173329
2.797616
1.699023
-0.2757768
-1.000278
0.8734698
5.078344
11.38451
18.34116
23.31395
21.05876
16.14997
13.09314
12.0132
10.7546
11.73462
14.37809
14.71435
13.59515
13.74257
13.56375
14.74332
18.20992
22.76759
25.6203
27.22122
25.25744
19.53481
13.7124
6.995947
-5.339
-27.50282
-54.56681
-60.63463
-23.91038
1.388452
-10.00747
-20.43521
-27.79465
-38.69605
-57.43575
-70.71727
-66.22574
-58.10144
-58.54309
-61.23253
-63.94464
-66.80386
-69.61959
-72.07451
-74.14134
-75.77319
-76.98808
-77.83171
-78.30423
-78.48962
-78.3688
-77.87798
-77.07788
-76.01896
-74.78909
-73.29019
-71.69071
-69.8868
-67.7746
-65.53181
-63.32274
-60.83219
-58.35693
-55.81194
-53.14063
-50.52356
-47.9999
-45.60217
-43.2896
-41.15409
-39.25969
-37.66494
-36.42789
-35.75059
-35.60521
-36.05194
-36.97567
-38.90512
-41.58606
-44.44214
-48.31659
-52.43132
-56.97872
-61.38458
-65.5867
-69.33043
-72.09933
-73.52267
-73.49085
-71.35722
-67.01421
-61.16197
-50.99833
-59.28625
-37.62274
-30.79558
-25.40749
-25.75827
-29.1458
-34.10904
-39.81506
-44.54894
-48.29921
-51.68484
-54.53621
-57.16323
-60.21482
-62.86349
-68.20033
-73.82674
-78.68773
-81.78667
-82.3959
-80.30425
-75.81042
-69.18871
-61.46911
-54.66619
-50.3121
-50.03407
-53.13881
-55.07539
-56.24013
-55.23719
-52.46288
-47.58789
-41.52924
-35.39315
-37.92141
-43.8722
-46.83905
-50.13718
-51.31682
-50.13064
-48.72608
-47.33734
-46.23527
-47.03151
-45.46055
-47.01527
-48.95475
-49.47201
-48.41321
-65.37371
-29.53099
-18.96241
-8.009904
-1.006805
4.757111
9.571652
13.71263
17.44364
20.72364
23.67504
26.37689
28.84435
31.16924
33.37924
35.45732
37.3933
39.18838
40.9249
42.5918
44.19096
45.72061
47.18323
48.5561
49.91439
51.24673
52.5493
53.81307
54.99841
56.14322
57.27791
58.40346
59.51339
60.56818
61.58826
62.61362
63.61677
64.61771
65.60082
66.57983
67.53761
68.50117
69.42886
70.3503
71.25695
72.16311
73.05594
73.93009
74.80833
75.70768
76.60937
77.48349
78.34562
79.20437
80.0936
81.0021
81.88678
82.77761
83.68468
84.58668
85.5001
86.4182
87.3411
88.29858
89.33098
90.34361
91.31152
92.40492
93.5542
94.45017
94.9404
95.32889
84.65231
82.14167
82.12908
82.02232
81.78589
81.39378
80.74877
79.92863
79.08223
78.2598
77.39794
76.50577
75.60678
74.73769
73.88417
73.02996
72.15912
71.27593
70.41898
69.56627
68.68839
67.80655
66.93549
66.03568
65.1531
64.2412
63.28236
62.33912
61.40777
60.46684
59.49297
58.46504
57.478
56.4491
55.36391
54.28366
53.19373
52.04636
50.88465
49.71537
48.51025
47.22
45.86958
44.52198
43.1721
41.74617
40.25413
38.70648
37.06457
35.35458
33.58571
31.73887
29.8686
27.82091
25.64347
23.37898
20.92907
18.37892
15.56953
12.52901
9.290415
5.776989
1.801761
-2.651412
-7.70653
-13.3921
-20.03061
-28.22362
-38.06668
-53.54531
-67.99883
85.93366
82.66507
82.30363
82.12952
81.83171
81.42392
80.79079
79.98678
79.1562
78.34694
77.48263
76.59321
75.69418
74.82535
73.96914
73.11515
72.24314
71.35262
70.49561
69.64045
68.7569
67.87323
67.00304
66.09486
65.21722
64.30318
63.33512
62.39333
61.45999
60.51804
59.53618
58.5249
57.52212
56.49337
55.40212
54.32246
53.22977
52.07075
50.90823
49.74137
48.54158
47.24198
45.8802
44.5328
43.19088
41.75662
40.26233
38.71717
37.06656
35.35143
33.57495
31.72142
29.86815
27.80338
25.61988
23.3522
20.8833
18.34723
15.51099
12.45636
9.211167
5.697622
1.695293
-2.795329
-7.861448
-13.5832
-20.27276
-28.49737
-38.43329
-53.51371
-67.97981
-29.56178
-18.95935
-8.265934
-1.184617
4.570963
9.424895
13.59124
17.34146
20.64762
23.59946
26.3182
28.7935
31.11945
33.33996
35.43036
37.37803
39.16449
40.90452
42.57721
44.18343
45.71616
47.18682
48.55424
49.91518
51.25044
52.55666
53.83075
55.0134
56.15698
57.29673
58.42475
59.53806
60.59448
61.61133
62.64211
63.64489
64.65055
65.6337
66.61644
67.59736
68.54816
69.47465
70.39973
71.3088
72.21887
73.11549
73.98909
74.86989
75.77593
76.68526
77.55833
78.42313
79.28311
80.17525
81.09313
81.97854
82.87335
83.78776
84.69007
85.60562
86.52945
87.46046
88.41689
89.45142
90.47241
91.44103
92.53929
93.64835
94.43855
94.80293
94.62666
-38.48614
-31.69489
-25.81621
-25.51333
-28.49862
-33.01222
-38.9724
-44.08366
-48.00343
-51.55197
-54.47077
-57.12269
-60.23165
-62.89435
-68.26831
-73.84712
-78.727
-81.94028
-82.63965
-80.7443
-76.42095
-70.01162
-62.41202
-55.33877
-50.45405
-49.89782
-53.25702
-55.15442
-56.42786
-55.37258
-52.71518
-47.83178
-41.91966
-35.50815
-38.04193
-44.17934
-47.16133
-50.51889
-51.48343
-50.14538
-48.72151
-47.30867
-46.25261
-46.85965
-45.41675
-47.37197
-49.09244
-49.24064
-49.24611
-60.05424
0.5848353
2.828649
2.177814
-0.1869544
-1.498305
-0.1198946
4.124734
10.25511
17.23964
22.53607
20.85772
16.02868
12.71954
11.63015
10.71575
11.80437
14.39649
14.83159
13.53286
13.63134
13.26183
14.28495
17.74718
22.36916
25.59681
27.59912
25.6486
19.91814
14.02202
7.363415
-4.777528
-27.00026
-54.9891
-63.04125
-26.83074
-0.7022027
-10.58732
-20.86723
-28.46613
-39.06067
-56.14018
-67.63027
-64.91079
-58.9211
-59.24832
-61.62479
-64.27923
-67.03304
-69.77816
-72.17735
-74.21714
-75.83363
-77.03218
-77.84519
-78.31654
-78.50265
-78.38921
-77.89096
-77.08172
-75.99754
-74.77912
-73.25399
-71.6447
-69.85386
-67.72841
-65.44998
-63.22543
-60.74987
-58.26004
-55.73038
-53.04022
-50.41222
-47.88676
-45.50774
-43.19858
-41.06527
-39.18196
-37.62079
-36.4018
-35.76761
-35.65358
-36.17626
-37.13259
-39.13888
-41.91322
-44.82074
-48.78525
-52.91583
-57.52785
-61.93387
-66.15201
-69.85536
-72.5266
-73.95364
-73.63981
-71.17472
-66.5247
-60.04757
-50.70067
-55.14164
-112.8388
-100.4532
-97.59267
-98.70404
-101.045
-96.66629
-94.38741
-93.08157
-92.25191
-92.2841
-93.48927
-92.54283
-92.35953
-93.18588
-94.26727
-95.64456
-96.75547
-98.34965
-99.64497
-98.16741
-92.46043
-84.82046
-72.40569
-75.62869
-84.72238
-89.23356
-93.92939
-98.16769
-101.2644
-103.4331
-102.6193
-107.7733
-115.2456
-106.4425
-95.38697
-110.0556
-138.2486
-160.436
-170.0073
-166.0733
-153.4411
-139.2226
-121.681
-99.80112
-75.24064
-51.19865
-33.11149
-19.16541
-7.570187
3.036124
-104.4814
-99.63268
-96.64576
-97.72644
-101.2969
-97.46341
-94.78141
-93.28016
-92.40784
-92.31845
-93.53756
-92.60956
-92.37636
-93.25387
-94.2925
-95.73898
-96.72012
-98.55259
-100.4859
-99.38907
-93.10848
-86.06968
-74.01709
-77.31994
-86.32994
-90.00857
-94.8344
-98.9712
-100.9794
-102.3523
-101.471
-109.227
-118.7306
-109.2753
-102.0873
-119.9589
-146.2113
-165.1251
-172.6162
-166.9786
-152.5922
-137.7924
-119.7866
-97.33074
-72.64569
-48.43194
-30.37721
-17.30473
-6.17854
3.207912
0.8196628
2.765105
2.649047
-0.02068594
-2.048265
-0.9152305
2.859395
8.71348
15.71398
21.24809
20.4558
15.7122
12.19246
11.08696
10.46242
11.79736
14.45079
15.01558
13.42412
13.45852
12.82538
13.63532
17.10792
21.86808
25.53678
27.98468
26.10646
20.28894
14.22878
7.77793
-3.869526
-26.20609
-54.97473
-64.77246
-30.66014
-4.468632
-12.1516
-21.58647
-29.23902
-39.43851
-54.81655
-64.90131
-63.61734
-59.56109
-59.95662
-62.10084
-64.69882
-67.33167
-70.00707
-72.33754
-74.34718
-75.95379
-77.14681
-77.98392
-78.40565
-78.57843
-78.47606
-77.95543
-77.13208
-76.01456
-74.82226
-73.2597
-71.66375
-69.89326
-67.73086
-65.39822
-63.23433
-60.69455
-58.19812
-55.69244
-52.9415
-50.3051
-47.79216
-45.43362
-43.10305
-40.97516
-39.11815
-37.60689
-36.37841
-35.80943
-35.73317
-36.37882
-37.38709
-39.47688
-42.37713
-45.44167
-49.45305
-53.51734
-58.2714
-62.65704
-66.91068
-70.54058
-73.01266
-74.1743
-73.70744
-70.94037
-65.97728
-58.90352
-50.29113
-51.83267
-39.55632
-32.75108
-26.31774
-25.27345
-27.90961
-31.76525
-37.9669
-43.5661
-47.61888
-51.38016
-54.44463
-57.1361
-60.37885
-62.99242
-68.4359
-74.05255
-78.94186
-82.25296
-83.21105
-81.46268
-77.31302
-71.13098
-63.67641
-56.4036
-50.88959
-50.065
-53.70078
-55.30157
-56.71724
-55.56434
-53.08656
-48.15713
-42.35267
-35.73535
-38.33996
-44.82309
-47.62375
-51.29397
-51.73805
-50.13963
-48.73658
-47.26132
-46.23919
-46.58914
-45.23453
-48.00651
-49.56074
-48.8997
-49.18681
-54.51134
-29.42285
-18.78296
-8.4711
-1.336925
4.356204
9.274022
13.48148
17.24089
20.55635
23.5121
26.2684
28.73951
31.05932
33.30336
35.40399
37.35098
39.12383
40.8831
42.5653
44.18186
45.71073
47.18431
48.5488
49.9109
51.24941
52.5674
53.84135
55.01718
56.16784
57.30916
58.42645
59.54195
60.61335
61.62457
62.66103
63.66123
64.67469
65.66031
66.64339
67.61608
68.57013
69.49968
70.43362
71.34419
72.25377
73.14903
74.02745
74.91539
75.82031
76.72778
77.59912
78.47323
79.33484
80.22965
81.15731
82.04624
82.94285
83.85864
84.76282
85.69003
86.62206
87.56359
88.51395
89.55814
90.60659
91.57799
92.67031
93.70517
94.34284
94.47823
93.79978
87.12111
83.50458
82.59618
82.26449
81.89773
81.46733
80.83039
80.03915
79.23254
78.44344
77.56392
76.66587
75.76145
74.89905
74.03747
73.17712
72.30316
71.40845
70.55921
69.6994
68.80614
67.92197
67.05326
66.13187
65.26558
64.33867
63.36136
62.42368
61.49162
60.55679
59.56161
58.52822
57.54316
56.51039
55.41272
54.34787
53.26213
52.09031
50.92577
49.75122
48.55904
47.26134
45.89077
44.52951
43.19863
41.76271
40.26015
38.71708
37.06548
35.3516
33.56492
31.68459
29.85315
27.7679
25.59953
23.32708
20.81967
18.31808
15.44428
12.39277
9.12101
5.605242
1.584194
-2.936268
-8.013944
-13.77539
-20.52068
-28.75713
-38.72848
-53.22551
-67.54531
88.07282
84.64432
83.20533
82.56129
82.06475
81.59845
80.92042
80.10775
79.33441
78.60477
77.73377
76.81449
75.86964
75.01825
74.18066
73.31035
72.40327
71.48352
70.66391
69.80859
68.89468
68.01676
67.16016
66.20073
65.40302
64.43885
63.42629
62.50777
61.54093
60.63915
59.62929
58.6348
57.658
56.58876
55.43035
54.37162
53.29602
52.12828
50.99169
49.80753
48.56375
47.26423
45.94451
44.57085
43.20258
41.79048
40.2902
38.69464
37.04645
35.35457
33.6082
31.70399
29.84703
27.67969
25.5597
23.32972
20.72024
18.2801
15.30346
12.34069
9.053464
5.41137
1.370722
-3.166072
-8.251258
-14.06395
-20.90702
-29.16968
-39.17746
-52.81848
-67.25219
-29.03642
-18.58121
-8.832375
-1.607697
3.993752
9.129664
13.32471
17.05072
20.38037
23.43042
26.23113
28.63866
30.98114
33.27027
35.33764
37.28366
39.10922
40.90295
42.5572
44.17415
45.67259
47.15954
48.56609
49.88958
51.26024
52.58712
53.8168
55.04371
56.20738
57.31486
58.42135
59.59605
60.70438
61.6557
62.70661
63.70238
64.7341
65.71756
66.69104
67.65389
68.64141
69.58966
70.51426
71.42001
72.3157
73.23806
74.1376
74.99955
75.88263
76.83135
77.73811
78.59971
79.45783
80.3355
81.29303
82.20511
83.05491
84.00837
84.94603
85.85647
86.78411
87.72911
88.66538
89.7452
90.8498
91.76297
92.7778
93.67678
94.1421
94.07328
93.00944
-41.00133
-34.23182
-27.0179
-25.34781
-27.41211
-30.37392
-36.76893
-42.73018
-47.00341
-51.10669
-54.4239
-57.12857
-60.91277
-63.24601
-68.78004
-74.55906
-79.49456
-82.73312
-83.84718
-82.40016
-78.68277
-72.7674
-65.32982
-57.96504
-51.93976
-50.8251
-54.83306
-55.59809
-57.21603
-55.88806
-53.64684
-48.53166
-43.08575
-36.57003
-38.99996
-45.74594
-48.28901
-52.64996
-52.13841
-50.10927
-48.77183
-47.17582
-46.2313
-46.18179
-44.71441
-48.90405
-49.77872
-48.36188
-48.071
-49.14047
1.056327
2.754295
3.100637
0.2738673
-2.676775
-2.169867
1.155771
6.708501
13.74553
19.21623
19.50247
15.3046
11.4282
10.36593
9.840184
11.52863
14.4034
15.27142
13.33446
13.06911
12.19807
12.71518
16.15761
21.12964
25.24386
28.23742
26.70026
20.76939
14.57204
8.585669
-2.252472
-24.7085
-53.60124
-64.62556
-34.28061
-9.374384
-14.60081
-22.33009
-30.04348
-39.91079
-53.29439
-62.40974
-62.59621
-60.12245
-60.63591
-62.55614
-65.22169
-67.70756
-70.27544
-72.5211
-74.49751
-76.0901
-77.21597
-78.05914
-78.48505
-78.64914
-78.55901
-77.99933
-77.1812
-76.04326
-74.85171
-73.27403
-71.68786
-69.83401
-67.62967
-65.30131
-63.16899
-60.571
-58.11768
-55.56995
-52.73402
-50.17687
-47.70638
-45.30526
-42.95034
-40.86456
-39.0925
-37.59561
-36.3433
-35.881
-35.89131
-36.7157
-37.81646
-39.9951
-43.02384
-46.4268
-50.42216
-54.42364
-59.53969
-63.82901
-68.08613
-71.5885
-73.75106
-74.66158
-73.92409
-70.62305
-65.25013
-57.62422
-49.60369
-49.38337
-96.64343
-96.71663
-95.97315
-98.20732
-102.8273
-99.27213
-95.10304
-93.56259
-92.53167
-92.38363
-93.73726
-92.69166
-92.43518
-93.37225
-94.46245
-95.91671
-96.49335
-98.74751
-101.8439
-101.5128
-94.86875
-88.2206
-77.03389
-80.39765
-88.33777
-90.76808
-95.83362
-99.74498
-100.5064
-100.9057
-100.1073
-111.2986
-122.4475
-114.0726
-113.0868
-131.9618
-155.1426
-170.2988
-175.3476
-167.6535
-150.4187
-134.7854
-117.0755
-94.42119
-69.85042
-45.24889
-27.52361
-15.69825
-4.907829
3.209122
5.137521
1.247593
43.45518
46.81523
58.13605
33.36031
25.11553
46.28089
47.25787
20.15411
45.52942
53.18933
2.028316
50.58331
89.3836
46.92452
50.64847
45.26936
48.4356
44.4896
44.05741
48.53329
21.24294
48.22554
14.05329
47.31554
48.27151
44.60109
46.1985
40.91485
47.52032
45.30982
40.71588
11.43147
48.86139
13.92622
20.84464
49.2518
14.88636
47.93114
49.74391
1.478507
-13.16346
57.19454
48.53671
14.54231
4.86279
1.767943
6.721057
50.14192
46.70401
35.27833
46.45508
48.813
48.26889
19.60064
46.87305
47.32103
46.35456
1.370731
68.16755
48.59324
30.17034
66.48802
50.35135
56.56817
25.36925
38.68264
44.0846
40.03527
44.97767
43.06973
49.08313
45.01663
48.10391
48.4604
47.76481
47.83012
7.878767
48.83004
42.14112
47.97876
44.32042
29.23012
55.18662
67.30415
50.18153
21.42434
42.89864
46.26357
48.39587
48.93381
47.3194
44.67983
-2.865669
47.18569
47.34244
48.35438
-6.605364
47.9754
43.5731
32.24889
51.55344
49.4661
43.2987
46.65068
46.12709
48.20267
45.03398
46.39709
19.91715
-41.24066
20.22956
40.66644
43.70468
16.51754
30.3192
25.29472
47.68112
44.00734
44.45379
42.79614
40.53955
93.30573
46.09213
44.64328
6.198932
55.37739
0.6048225
33.10129
53.10562
49.61235
46.75792
44.89376
95.7536
18.10732
46.67535
9.677027
42.99296
49.36058
46.83105
50.26947
46.83828
46.66441
11.76095
49.97346
48.96253
46.28262
48.20394
29.98353
42.76317
70.57629
41.04237
46.43079
52.62181
46.10481
64.9451
43.96167
20.36688
47.10732
44.4588
46.48898
46.75088
13.25213
49.24805
25.56084
48.79981
48.33572
25.96378
45.07412
61.86602
27.87468
19.98589
45.81074
42.26718
11.6082
43.29585
48.62559
32.74412
20.3364
46.78628
47.19997
42.85725
43.1464
45.55007
43.09471
48.03863
47.82041
48.70071
36.56334
46.75221
21.20715
48.13467
37.32786
18.2826
44.621
36.7818
14.29341
46.62993
44.85347
35.17918
47.90965
45.55383
52.20926
47.85042
42.75346
51.16567
44.66135
46.38764
48.24581
23.15819
48.10117
33.99456
47.9111
46.09015
19.0798
47.73166
37.6838
45.13494
47.94349
43.59799
46.5043
46.17918
54.11791
61.78784
32.1821
48.04541
18.99188
43.09827
45.00581
55.55191
47.00961
39.76589
48.09612
41.22205
42.6311
45.69292
48.29744
-21.7445
89.41924
43.34484
40.87472
63.99644
15.64614
59.51896
41.00754
42.92605
47.14523
47.70759
48.25009
48.23752
-182.5079
50.08179
46.59822
15.53016
50.14118
40.54302
45.07601
37.6228
46.66277
45.69653
9.943917
43.86703
54.86738
48.62316
47.46055
68.72234
52.5493
46.37642
49.17598
44.26303
40.47013
37.55074
61.40463
49.31296
-5.333431
47.97221
80.19879
46.24992
27.50535
47.4723
53.48623
44.1704
30.43777
49.17387
55.3651
46.8719
48.85922
49.3832
47.48119
47.59883
42.41529
9.29728
48.36842
48.44082
-6.376576
4.160248
-4.700416
48.26978
47.81407
45.28203
16.60024
47.66752
51.56458
46.80101
10.70514
43.55015
48.34223
49.78776
51.25477
45.41206
54.42936
22.60333
52.94574
44.22042
41.66928
48.04898
48.32117
44.07989
40.59067
41.18583
47.9468
98.10893
48.3823
47.2303
45.60517
47.2765
48.92518
48.43309
50.8321
47.54401
16.22253
44.63808
46.37167
48.0209
85.2652
45.75608
24.24868
54.57746
-197.3658
48.85716
35.20658
46.58973
46.98806
47.8114
48.35726
53.44775
5.630682
-60.24582
38.8583
42.71403
43.8793
7.239235
43.62693
14.39708
17.42799
69.30506
-30.85647
34.78027
46.02245
45.21839
44.08748
55.06373
44.65322
26.69748
49.05588
44.52902
42.20482
46.69135
48.22978