/*--------------------------------*- C++ -*----------------------------------*\
| =========                 |                                                 |
| \\      /  F ield         | OpenFOAM: The Open Source CFD Toolbox           |
|  \\    /   O peration     | Version:  2406                                  |
|   \\  /    A nd           | Website:  www.openfoam.com                      |
|    \\/     M anipulation  |                                                 |
\*---------------------------------------------------------------------------*/
FoamFile
{
    version     2.0;
    format      ascii;
    arch        "LSB;label=32;scalar=64";
    class       surfaceScalarField;
    location    "2.86";
    object      phi;
}
// * * * * * * * * * * * * * * * * * * * * * * * * * * * * * * * * * * * * * //

dimensions      [0 3 -1 0 0 0 0];

oriented        oriented;

internalField   nonuniform List<scalar> 
326221
(
-0.002764892
-0.006669602
0.009434494
-0.001956291
-0.0008086009
0.00118492
-0.003141211
0.001459688
-0.0002747678
-1.660116e-05
0.001476289
-0.0007121401
0.000695539
-0.0004332023
-0.0002789378
-0.0001271358
-0.0003060665
3.386597e-05
-0.0001610018
0.0001467472
-0.0001128812
8.026834e-05
6.647883e-05
1.596853e-05
6.429981e-05
0.0001319187
-0.0001159502
7.851319e-05
5.340553e-05
-0.0002454453
0.0003239585
-0.0004269861
0.0001815408
-0.0004088363
-1.814974e-05
-0.0006224461
0.0002136098
-0.001125919
0.0005034724
-0.001630002
0.0005040833
-0.001756625
0.0001266236
-0.001358747
-0.0003978785
0.000324227
-0.001682974
0.001877052
-0.001552825
0.002849256
-0.0009722036
0.002992074
-0.0001428179
0.001776041
0.001216033
0.0004540204
0.001322021
0.0001257062
0.0003283141
0.0001432408
-1.753455e-05
0.0004104967
-0.0002672559
0.00124798
-0.0008374831
0.001484862
-0.0002368819
0.001405936
7.892578e-05
0.001932678
-0.0005267424
0.0007392785
0.0011934
-0.002676952
0.00341623
-0.005679126
0.003002174
-0.006984803
0.001305677
-0.007201298
0.0002164955
-0.006950294
-0.0002510042
-0.006601733
-0.0003485606
-0.006153042
-0.000448691
-0.005576784
-0.0005762587
-0.004844687
-0.0007320969
-0.003962237
-0.0008824501
-0.003151604
-0.0008106325
-0.00206438
-0.001087224
-0.0009205649
-0.001143815
-0.0001065744
-0.0008139905
-0.0008251419
0.0007185675
7.312153e-05
-0.0008982634
0.0004824348
-0.0004093132
-0.00065938
0.001141815
-0.00160506
0.0009456798
-0.001753566
0.0001485058
-0.001527682
-0.0002258832
-0.001092389
-0.0004352935
-0.0002241371
-0.0008682519
0.001024857
-0.001248994
0.001838063
-0.0008132058
0.001714329
0.0001237337
0.0006280986
0.001086231
-0.0002858752
0.0009139737
-0.000441356
0.0001554809
1.503936e-05
-0.0004563954
0.0005351737
-0.0005201344
0.0006868334
-0.0001516596
0.0007792845
-9.245116e-05
0.0009677488
-0.0001884643
0.0006880848
0.000279664
0.00012825
0.0005598348
-0.0003853262
0.0005135762
-0.0008511466
0.0004658204
-0.001101473
0.0002503262
-0.0006647696
-0.0004367033
0.0002745768
-0.0009393464
0.001037313
-0.0007627363
0.001589174
-0.0005518606
0.002268723
-0.0006795497
0.003215015
-0.0009462915
0.004278806
-0.001063791
0.004065899
0.0002129074
0.0009908859
0.003075013
-0.001792885
0.002783771
-0.001097188
-0.0006956972
0.0003161662
-0.001413354
0.001110009
-0.0007938431
0.001823223
-0.000713214
0.002895696
-0.001072473
0.003372901
-0.0004772054
0.002243492
0.00112941
0.0009741165
0.001269375
0.0007392558
0.0002348607
0.0004404169
0.0002988389
-0.0004118383
0.0008522552
-0.00134765
0.0009358117
-0.002059913
0.0007122633
-0.002569586
0.0005096724
-0.002938011
0.0003684253
-0.003217892
0.0002798815
-0.003434633
0.0002167408
-0.003602424
0.0001677903
-0.003730425
0.0001280016
-0.003823305
9.28798e-05
-0.003889606
6.63009e-05
-0.003931035
4.142954e-05
-0.003946772
1.573628e-05
-0.003942922
-3.849431e-06
-0.003926426
-1.649667e-05
-0.003904052
-2.237393e-05
-0.003868282
-3.576999e-05
-0.003828103
-4.017837e-05
-0.003780278
-4.78256e-05
-0.003718614
-6.166382e-05
-0.003653303
-6.531088e-05
-0.003672384
1.908069e-05
-0.003595184
-7.719946e-05
-0.003508631
-8.655271e-05
-0.003413542
-9.508964e-05
-0.003301118
-0.0001124238
-0.003178495
-0.0001226227
-0.003045588
-0.0001329074
-0.002901565
-0.000144023
-0.00273792
-0.0001636453
-0.002554564
-0.0001833559
-0.002351285
-0.0002032783
-0.002127248
-0.0002240372
-0.001877668
-0.0002495801
-0.001613207
-0.0002644613
-0.001330557
-0.0002826495
-0.001033519
-0.000297038
-0.0006802004
-0.000353319
-0.0003486431
-0.0003315573
-4.961054e-05
-0.0002990326
0.0003377039
-0.0003873145
0.0006728489
-0.000335145
0.0009534353
-0.0002805864
0.001198837
-0.0002454019
0.001441899
-0.0002430618
0.001677193
-0.0002352937
0.001856166
-0.0001789734
0.001948572
-9.240576e-05
0.001936003
1.256877e-05
0.001772057
0.0001639459
0.001365389
0.0004066686
0.0006519842
0.0007134044
-0.000239659
0.0008916432
-0.0001046281
-0.0001350309
-0.002577116
0.002472488
-0.002566773
-1.034238e-05
-0.002191368
-0.0003754056
-0.001345503
-0.0008458647
-0.0004932632
-0.0008522398
0.0001166353
-0.0006098985
0.0004618229
-0.0003451876
0.0004628551
-1.03215e-06
0.0002450968
0.0002177582
-0.0004055053
0.0006506021
-0.00115149
0.0007459849
-0.001219314
6.782432e-05
-0.0007172845
-0.0005020299
-8.222178e-05
-0.0006350628
0.000688765
-0.0007709868
0.001284022
-0.0005952571
0.001630199
-0.0003461771
0.001738935
-0.000108736
0.001737769
1.166648e-06
0.001672624
6.514464e-05
0.00143371
0.0002389144
0.0008480474
0.0005856622
-8.958422e-05
0.0009376316
-0.001031528
0.0009419437
-0.001377673
0.0003461452
-0.001105927
-0.0002717465
-0.0007520808
-0.0003538459
-0.000757159
5.078251e-06
-0.0008351215
7.796251e-05
-0.0008894918
5.437031e-05
-0.001056085
0.0001665933
-0.001515066
0.0004589805
-0.001936551
0.000421485
-0.00185915
-7.74011e-05
-0.001065461
-0.0007936883
-0.0004997224
-0.0005657388
-0.0001530757
-0.0003466467
0.000265957
-0.0004190326
0.0002892205
-2.326353e-05
0.0001949186
9.430187e-05
0.0002268622
-3.194355e-05
0.0001618064
6.505577e-05
-2.069415e-06
0.0001638758
-0.0002399153
0.0002378459
-0.0004121875
0.0001722722
0.0002232733
-0.0006354608
0.000649132
-0.0004258588
-8.664266e-05
0.0007357747
0.001312569
-0.001399212
0.002103523
-0.0007909533
-0.00523905
0.007342572
-0.005496395
0.0002573453
-0.004710771
-0.0007856244
-0.004402342
-0.0003084291
-0.004101721
-0.0003006207
-0.003877388
-0.0002243328
-0.003674112
-0.0002032758
-0.003498236
-0.0001758765
-0.003261987
-0.0002362488
-0.003141267
-0.0001207201
-0.003040427
-0.0001008396
-0.002948101
-9.232675e-05
-0.002866324
-8.177642e-05
-0.002787743
-7.858111e-05
-0.002712687
-7.505593e-05
-0.002641005
-7.168186e-05
-0.002577399
-6.36062e-05
-0.00251969
-5.770946e-05
-0.002464332
-5.535764e-05
-0.002409381
-5.495074e-05
-0.002358068
-5.131348e-05
-0.002308817
-4.925035e-05
-0.002263317
-4.550029e-05
-0.002223194
-4.012289e-05
-0.002181619
-4.157541e-05
-0.002139499
-4.212011e-05
-0.002096843
-4.265609e-05
-0.002056219
-4.062327e-05
-0.002020769
-3.545021e-05
-0.001989084
-3.168516e-05
-0.001955329
-3.375506e-05
-0.001921497
-3.383197e-05
-0.001885564
-3.593262e-05
-0.001854816
-3.074797e-05
-0.00182637
-2.844645e-05
-0.001795982
-3.038831e-05
-0.001765113
-3.086884e-05
-0.001733098
-3.201423e-05
-0.001704413
-2.868575e-05
-0.001677765
-2.664816e-05
-0.001704713
2.694845e-05
-0.00168958
-1.513268e-05
-0.001669524
-2.005649e-05
-0.001649276
-2.024791e-05
-0.001631557
-1.771853e-05
-0.001612765
-1.879288e-05
-0.001595669
-1.709529e-05
-0.001580337
-1.533247e-05
-0.001565286
-1.505115e-05
-0.001546437
-1.884823e-05
-0.001526352
-2.008581e-05
-0.001509767
-1.658458e-05
-0.001495373
-1.439426e-05
-0.001483221
-1.215185e-05
-0.001466392
-1.682907e-05
-0.001445334
-2.105813e-05
-0.001427094
-1.823981e-05
-0.001410305
-1.678883e-05
-0.001391183
-1.91222e-05
-0.001375591
-1.559138e-05
-0.001359876
-1.57152e-05
-0.00134452
-1.535623e-05
-0.001332125
-1.239541e-05
-0.001322254
-9.870619e-06
-0.001298831
-2.342316e-05
-0.001270604
-2.822684e-05
-0.001254236
-1.636823e-05
-0.001222112
-3.212336e-05
-0.001133221
-8.889175e-05
-0.000750636
-0.0003825847
0.0003859305
-0.001136566
0.001445078
-0.001059148
0.000319179
0.001125899
-0.0001430619
0.0004622409
-3.798688e-05
-0.000105075
0.0001595638
-0.0001975507
0.000412072
-0.0002525082
0.0006581875
-0.0002461155
0.0008601338
-0.0002019463
0.001008062
-0.0001479279
0.00111841
-0.0001103481
0.00121496
-9.65499e-05
0.001295937
-8.097688e-05
0.001362508
-6.6571e-05
0.001414387
-5.187907e-05
0.001459392
-4.500524e-05
0.001499112
-3.972019e-05
0.001537741
-3.862852e-05
0.001572685
-3.494389e-05
0.001601736
-2.905161e-05
0.001628684
-2.6948e-05
0.001657814
-2.912953e-05
0.001684798
-2.698406e-05
0.001709849
-2.505119e-05
0.001737927
-2.807844e-05
0.001762744
-2.481672e-05
0.001792013
-2.926905e-05
0.001824512
-3.249859e-05
0.001853515
-2.900312e-05
0.001878944
-2.542881e-05
0.001906115
-2.717124e-05
0.00193563
-2.951492e-05
0.00196014
-2.450996e-05
0.001930235
2.990443e-05
0.001966678
-3.644254e-05
0.002009552
-4.287404e-05
0.002052817
-4.326541e-05
0.002096738
-4.392061e-05
0.002143566
-4.682856e-05
0.002188894
-4.532799e-05
0.002231466
-4.257113e-05
0.002277203
-4.57376e-05
0.002327591
-5.038797e-05
0.002381823
-5.423172e-05
0.002430869
-4.904649e-05
0.002478929
-4.805921e-05
0.002529916
-5.098757e-05
0.002584335
-5.441918e-05
0.002640287
-5.595175e-05
0.002701965
-6.167841e-05
0.002765948
-6.398243e-05
0.002830643
-6.469524e-05
0.002897902
-6.725924e-05
0.002962123
-6.422047e-05
0.003036725
-7.460233e-05
0.003114408
-7.76829e-05
0.003195598
-8.119016e-05
0.003282803
-8.720467e-05
0.00337303
-9.022741e-05
0.00347231
-9.927942e-05
0.003580479
-0.0001081695
0.003691837
-0.0001113575
0.003812696
-0.0001208589
0.003949826
-0.0001371301
0.00410764
-0.000157814
0.00440375
-0.0002961097
0.004628544
-0.000224794
0.004884702
-0.0002561588
0.005171138
-0.0002864353
0.005545449
-0.000374311
0.00590325
-0.000357801
0.006868248
-0.0009649978
0.0001986452
0.0007360457
-0.00153222
0.001922074
0.0001585249
0.001039762
0.0001617523
-0.0001083024
0.0006046111
-0.0006404094
0.00100827
-0.0006561673
0.001354334
-0.0005921794
0.001643012
-0.0004906241
0.001877337
-0.0003822525
0.002072694
-0.0003057059
0.002250475
-0.0002743303
0.002409695
-0.0002401968
0.002553192
-0.0002100686
0.002680026
-0.0001787127
0.00279772
-0.0001626994
0.002906549
-0.0001485496
0.003011772
-0.0001438515
0.003111058
-0.0001342296
0.003203797
-0.0001217903
0.003291728
-0.0001148796
0.003379037
-0.0001164379
0.003462629
-0.0001105768
0.003542397
-0.0001048186
0.003622873
-0.0001085541
0.003698572
-0.0001005159
0.003776122
-0.0001068193
0.003854015
-0.0001103913
0.003929683
-0.0001046717
0.00400066
-9.640595e-05
0.004072784
-9.929475e-05
0.004144405
-0.0001011364
0.00421445
-9.455453e-05
0.004190972
5.338216e-05
0.004272227
-0.0001176973
0.004356614
-0.000127261
0.004440818
-0.0001274693
0.004525228
-0.000128331
0.004610864
-0.0001324647
0.00469611
-0.0001305733
0.004778192
-0.0001246534
0.004863252
-0.0001307975
0.00494971
-0.0001368458
0.005040826
-0.0001453485
0.005127112
-0.0001353321
0.00521422
-0.0001351673
0.005302212
-0.0001389797
0.005393546
-0.0001457528
0.005485427
-0.0001478332
0.005582166
-0.0001584171
0.005681278
-0.0001630944
0.005781137
-0.000164554
0.005884547
-0.0001706692
0.005984879
-0.0001645525
0.006094676
-0.0001843992
0.006205405
-0.0001884127
0.006321282
-0.0001970668
0.006440567
-0.0002064898
0.00656438
-0.0002140406
0.006694392
-0.0002292907
0.006833233
-0.0002470105
0.006974551
-0.0002526757
0.007125218
-0.0002715263
0.007289311
-0.0003012232
0.007472573
-0.0003410753
0.007861531
-0.0006850684
0.008108136
-0.0004713983
0.008392468
-0.0005404912
0.008703521
-0.0005974884
0.009113359
-0.0007841495
0.00947759
-0.0007220311
0.01053626
-0.002023665
0.009827103
0.0009077991
-0.008690484
0.007991903
0.0009559258
-0.007802109
-0.001673999
-0.007505331
-0.000605207
-0.007173806
-0.0006321453
-0.006928232
-0.0004699073
-0.006699772
-0.0004317357
-0.006503874
-0.0003717741
-0.006187742
-0.0005523812
-0.006045421
-0.0002630414
-0.005920273
-0.0002259875
-0.005802229
-0.0002103708
-0.005693948
-0.0001900571
-0.005588124
-0.0001844057
-0.005487147
-0.0001760328
-0.005388284
-0.0001705445
-0.005297406
-0.0001544846
-0.005209613
-0.0001455019
-0.00512571
-0.0001392605
-0.005041306
-0.0001393552
-0.004961309
-0.0001313107
-0.004882221
-0.0001283379
-0.004806729
-0.0001209929
-0.004734853
-0.0001119988
-0.004662355
-0.0001140733
-0.004590469
-0.0001140056
-0.004518231
-0.0001148943
-0.004448453
-0.0001104017
-0.004381131
-0.0001027723
-0.004317212
-9.560429e-05
-0.004250321
-0.0001006455
-0.004185056
-9.909676e-05
-0.004117005
-0.0001039838
-0.004053269
-9.448374e-05
-0.003989516
-9.21994e-05
-0.003924604
-9.53002e-05
-0.003858707
-9.67662e-05
-0.003791883
-9.883841e-05
-0.003726926
-9.364286e-05
-0.003662059
-9.151505e-05
-0.003685163
5.005243e-05
-0.003630367
-6.992844e-05
-0.003574577
-7.584641e-05
-0.003517077
-7.77484e-05
-0.003461594
-7.320097e-05
-0.003403312
-7.707468e-05
-0.003345991
-7.44171e-05
-0.003287626
-7.369682e-05
-0.003228545
-7.413276e-05
-0.003165239
-8.215357e-05
-0.003100431
-8.489369e-05
-0.003036347
-8.06695e-05
-0.002971186
-7.955486e-05
-0.002905278
-7.806028e-05
-0.002833328
-8.877847e-05
-0.002757033
-9.735349e-05
-0.002679986
-9.528663e-05
-0.002601012
-9.576247e-05
-0.002515915
-0.0001042197
-0.002429699
-0.0001018077
-0.002336807
-0.0001086065
-0.002237723
-0.00011444
-0.002132439
-0.0001176796
-0.002020038
-0.0001222723
-0.001884705
-0.0001587561
-0.001733691
-0.0001792407
-0.001579053
-0.0001710056
-0.00139415
-0.0002170269
-0.001138758
-0.0003442835
-0.0006463957
-0.0008749471
0.0004139559
-0.002196918
-0.002177412
-0.004029263
0.003257807
0.0007611136
-0.003566003
-0.0008386658
-0.002462414
-0.001949453
-0.001486512
-0.001828142
-0.0006568785
-0.001439532
-0.0002185545
-0.0007835116
-0.0005981362
0.0003785495
-0.001472893
0.001092515
-0.002169376
0.001347085
-0.002208746
0.0007853549
-0.001649952
-0.0004909698
-0.0009396478
-0.001212334
-0.0001621963
-0.001412514
0.0008505909
-0.001783774
0.00165524
-0.001399906
0.002167006
-0.0008579436
0.002393766
-0.0003354961
0.002478916
-8.398334e-05
0.002512219
3.184213e-05
0.00246108
0.0002900535
0.002118902
0.0009278399
0.001077608
0.001978926
-0.000615791
0.002635343
-0.001913486
0.001643841
-0.002099846
-8.538719e-05
-0.001833623
-0.0006200689
-0.001730699
-9.784514e-05
-0.00169611
4.337331e-05
-0.001899784
0.0002580447
-0.002529076
0.0007958851
-0.003360878
0.001290782
-0.003492531
0.0005531384
-0.002708741
-0.000861191
-0.001414918
-0.002087512
-0.0006607477
-0.001319909
-0.0002193937
-0.0007880007
0.0003202986
-0.000958725
0.0003888012
-9.176615e-05
0.0003260599
0.0001570432
0.000437059
-0.0001429426
0.0004729673
2.914745e-05
0.0002474501
0.000389393
-0.0002873643
0.0007726603
-0.000443016
0.0003279238
0.0004608868
-0.001539364
0.001150215
-0.001115187
0.001192135
0.0006938548
0.002323208
-0.002530285
0.0006349906
0.0008972638
0.01596947
-0.0009026179
-1.185416e-05
0.00163304
-0.0002823321
-0.001518549
-0.0002854287
-0.0004062167
-0.001524522
0.002380908
-0.00226802
0.001689178
-0.002186185
6.667092e-05
-0.001896244
-0.0005158248
-0.001350996
-0.0009805408
-0.0002963148
-0.001922933
0.001214309
-0.002759618
0.002332521
-0.001931419
0.002877509
-0.0004212537
0.00200476
0.001958979
0.0002714726
0.002647261
-0.0004518141
0.0008787676
-4.305213e-05
-0.0008651574
0.0004891321
-0.001052319
0.0007777599
-0.0004402874
0.0009917776
-0.0003064688
0.001277889
-0.0004745761
0.001040582
0.0005169718
0.0004861513
0.001114265
-4.314918e-05
0.001042877
-0.0009106902
0.001333361
-0.001558242
0.0008978781
-0.001023211
-0.0009717342
8.368222e-05
-0.00204624
0.0008976639
-0.001576718
0.001451625
-0.001105821
0.002135095
-0.00136302
0.003164664
-0.00197586
0.004305335
-0.002204463
0.0050256
-0.0005073574
0.002711178
0.005389435
-0.001173288
0.006668236
-0.001775614
-9.337108e-05
-0.0009522887
-0.002236679
-0.0007311771
-0.001014955
-0.0002972588
-0.001147132
0.000533945
-0.001903676
0.002009611
-0.001952871
0.002611295
0.0005277254
0.001293609
0.002587062
-0.001156326
0.002684796
-0.00336066
0.002503172
-0.004881634
0.002373229
-0.005912896
0.001967074
-0.006509797
0.001309164
-0.006839845
0.0008397206
-0.007025164
0.0005537441
-0.007130782
0.0003854991
-0.007186072
0.0002720317
-0.007206727
0.0001884445
-0.007202476
0.0001237509
-0.00717766
6.806419e-05
-0.0071383
2.694038e-05
-0.007085149
-1.172107e-05
-0.007017373
-5.203995e-05
-0.006936731
-8.449165e-05
-0.006844089
-0.0001091383
-0.006742932
-0.0001235312
-0.006626772
-0.0001519295
-0.006503295
-0.0001636559
-0.006369333
-0.0001817878
-0.006219017
-0.0002119794
-0.006058235
-0.0002260926
-0.006018936
-2.021869e-05
-0.00584605
-0.0002500858
-0.005666345
-0.0002662573
-0.005473699
-0.0002877362
-0.005261324
-0.0003247982
-0.005035215
-0.0003487319
-0.004793984
-0.0003741389
-0.004536362
-0.0004016441
-0.004254642
-0.0004453658
-0.003949445
-0.000488553
-0.003620817
-0.0005319063
-0.003268553
-0.0005763015
-0.002888933
-0.0006291998
-0.002493107
-0.000660287
-0.002077209
-0.0006985479
-0.001648504
-0.0007257431
-0.001168504
-0.0008333181
-0.000715021
-0.0007850408
-0.0002977458
-0.0007163078
0.0002231652
-0.0009082254
0.0006668341
-0.0007788139
0.00105128
-0.0006650323
0.00139764
-0.000591762
0.001748888
-0.0005943094
0.002090408
-0.0005768144
0.002364152
-0.0004527174
0.002543923
-0.0002721768
0.002624253
-6.776085e-05
0.002591654
0.000196545
0.002413618
0.0005847044
0.001908135
0.001218888
0.0007273668
0.002072411
0.0002225566
0.0003697793
0.005952851
-0.0009025997
0.0201642
-0.002786451
0.00107525
-0.000476168
-0.005451493
0.0002714278
-0.001022364
-0.0007179987
0.002465715
-0.001289197
0.001266737
-0.0006573908
-0.0009107441
-0.0001584953
-0.0008049619
0.0001000901
-0.0004195872
0.0001624923
-0.0001752834
0.0001177201
0.0001112511
7.611696e-05
0.0001059029
4.590259e-05
-8.573583e-05
-0.0003719436
0.0004712517
-0.0008681647
0.0008201796
-0.000883141
0.0001965171
-0.0007908644
-0.0001104264
-0.001098971
0.0005217164
-0.001698094
0.001102595
-0.002214842
0.001020832
-0.002302605
0.0002143862
-0.001792811
-0.0009076721
0.0003367329
-0.003812518
0.002261132
-0.003477225
0.003403102
-0.002114174
0.004440484
-0.0011802
0.004032199
0.001624318
0.002089583
0.003264636
0.0007657531
0.001652144
0.0007396627
8.555804e-06
0.001611702
-0.001139295
0.002951676
-0.002177457
0.003231068
-0.0005162742
0.003106498
0.0002034959
0.002091103
0.0004886531
-0.002586267
0.005870769
-0.007623636
0.0084536
-0.009431104
0.004809642
-0.009496436
0.001371009
-0.009196181
-8.375893e-05
-0.008686654
-0.0007605319
-0.00808283
-0.000952384
-0.007347778
-0.001183743
-0.006449133
-0.001474904
-0.005379966
-0.001801264
-0.004201705
-0.00206071
-0.003209455
-0.001802883
-0.002060767
-0.002235913
-0.0006219543
-0.002582627
-0.001447799
0.001347071
-0.01233285
0.03114998
-0.003021715
0.005444036
-0.001581609
-0.0068916
-0.0007905641
-0.001813409
-0.001758639
0.00343379
-0.001869417
0.001377516
-0.001009808
-0.001770353
-0.0003681224
-0.001446647
2.834167e-06
-0.0007905438
0.0001790961
-0.0003515454
0.00017602
0.0001143272
7.798884e-05
0.0002039341
-0.0002761421
0.0002683951
-0.0009905347
0.001185644
-0.001289237
0.001118882
-0.001058607
-3.411309e-05
-0.0009354549
-0.0002335781
-0.001329935
0.0009161962
-0.002106364
0.001879025
-0.002821404
0.001735872
-0.002924546
0.0003175278
-0.00210942
-0.001722798
0.0004789413
-0.00640088
0.002732728
-0.005731011
0.003932362
-0.003313809
0.005156296
-0.002404134
0.005620849
0.001159766
0.004132692
0.004752793
0.002214572
0.003570265
0.001832818
0.0003903092
0.002923136
-0.002229613
0.004349259
-0.00360358
0.004641537
-0.0008085525
0.003893118
0.0009519154
-9.046577e-05
0.004472237
-0.006986448
0.01276675
-0.01070393
0.01217108
-0.01120502
0.005310725
-0.01123775
0.001403739
-0.01101428
-0.0003072224
-0.01041933
-0.00135548
-0.009729548
-0.001642169
-0.008869148
-0.002044144
-0.007776944
-0.002567107
-0.006442834
-0.003135374
-0.004938347
-0.003565198
-0.003632679
-0.00310855
-0.002254853
-0.003613739
-0.0006417476
-0.004195733
0.0001065175
-0.002196064
-0.00100791
0.002747467
-0.0008715252
-0.001654934
-0.001250588
-2.715436e-05
-0.002349235
0.003479556
-0.002947851
0.002287794
-0.002846797
-3.438307e-05
-0.002494042
-0.0008685806
-0.001759341
-0.001715242
-0.0004017304
-0.003280544
0.001539793
-0.004701142
0.002920536
-0.003312161
0.003739332
-0.00124005
0.00349743
0.002200881
0.001860366
0.004284325
0.0003767207
0.002362413
9.139362e-05
-0.0005798303
0.0004248009
-0.001385726
0.0008487721
-0.0008642586
0.001240468
-0.0006981644
0.001687712
-0.0009218205
0.001481709
0.0007229744
0.0009179388
0.001678036
0.0003967223
0.001564093
-0.000450868
0.002180952
-0.00138372
0.00183073
-0.0011074
-0.001248055
-0.0002237658
-0.002929874
0.0002401708
-0.002040655
0.0006136593
-0.00147931
0.00124078
-0.001990141
0.002476688
-0.003211768
0.003999202
-0.003726976
0.005005856
-0.001514012
0.00346297
0.006932321
-0.0002269387
0.01035814
-0.002742906
0.002422596
-0.003607257
-0.001372328
-0.004193225
-0.0004289861
-0.004034028
-0.00130633
-0.003017141
-0.002920563
-0.001242747
-0.003727266
-0.0002485247
-0.0004664965
-0.002489896
0.004828433
-0.005864757
0.006059657
-0.007813047
0.004451462
-0.008630117
0.0031903
-0.008936425
0.002273382
-0.009033073
0.001405811
-0.009064143
0.0008707906
-0.009067582
0.0005571836
-0.009057356
0.0003752729
-0.009034958
0.0002496335
-0.009002033
0.00015552
-0.008959941
8.165911e-05
-0.008906641
1.476416e-05
-0.008844275
-3.542641e-05
-0.008769653
-8.634221e-05
-0.008677722
-0.0001439714
-0.008570239
-0.0001919743
-0.008448537
-0.0002308407
-0.00831771
-0.000254358
-0.008169037
-0.000300603
-0.008012057
-0.0003206352
-0.00784279
-0.0003510549
-0.007654364
-0.0004004056
-0.007451407
-0.0004290496
-0.007404718
-6.69081e-05
-0.007189168
-0.0004656352
-0.00696676
-0.0004886656
-0.006729109
-0.0005253867
-0.00646695
-0.0005869575
-0.006188391
-0.000627291
-0.005890923
-0.0006716063
-0.005573112
-0.0007194551
-0.005225436
-0.000793042
-0.004849096
-0.0008648933
-0.004443737
-0.0009372648
-0.004009141
-0.001010898
-0.003540859
-0.001097482
-0.003053027
-0.001148119
-0.002538955
-0.001212621
-0.002007033
-0.001257664
-0.001415202
-0.00142515
-0.0008571071
-0.001343135
-0.0003316196
-0.001241795
0.0003105755
-0.001550421
0.0008511991
-0.001319437
0.001326811
-0.001140644
0.001755523
-0.001020474
0.002193667
-0.001032453
0.002615361
-0.0009985082
0.00294785
-0.0007852064
0.003155051
-0.0004793779
0.003227771
-0.0001404807
0.003145834
0.0002784816
0.002897468
0.0008330702
0.002451869
0.001664487
0.001357285
0.003166995
0.0001738793
0.001553185
-0.004193814
0.01032054
-0.005670348
0.002237648
-0.005144202
-0.001364812
-0.003963383
-0.003130272
-0.002865923
-0.002925603
-0.001973313
-0.002332142
-0.001762328
-0.0009944959
-0.002511496
0.001127717
-0.003243226
0.001824245
-0.003168988
0.001272847
-0.002529469
0.0001458363
-0.001800519
-0.00121992
-0.001005853
-0.002007001
-2.868714e-05
-0.00238968
0.001182304
-0.002994765
0.002187643
-0.002405245
0.002860228
-0.001530529
0.003168535
-0.0006438033
0.003267109
-0.0001825572
0.003269472
2.947872e-05
0.003180176
0.0003793496
0.002938046
0.00116997
0.002226396
0.002690576
0.0004860753
0.004375663
-0.001564845
0.003694761
-0.002568573
0.00091834
-0.002635931
-0.0005527109
-0.002739087
5.311605e-06
-0.003008579
0.0003128654
-0.003578647
0.0008281125
-0.004309868
0.001527106
-0.004741548
0.001722462
-0.004186561
-1.848189e-06
-0.002942694
-0.002105058
-0.001464607
-0.003565598
-0.0006264438
-0.002158072
-8.08403e-05
-0.001333604
0.0005682123
-0.001607778
0.0005941689
-0.0001177228
0.0004709345
0.0002802776
0.0006061171
-0.0002781251
0.0007057942
-7.052972e-05
0.0005737334
0.0005214539
-0.0001409191
0.001487313
-0.000294486
0.0004814907
0.0008753579
-0.002709207
0.001634253
-0.001874082
0.001933537
0.0003945708
0.00243424
-0.003030988
-0.00119436
0.004525864
-0.01012162
0.02489673
-0.01072318
0.001557482
-0.009836609
-0.00256057
-0.009460777
-0.0009810392
-0.009092604
-0.001000318
-0.008818652
-0.0007438601
-0.008566368
-0.0006840191
-0.008354543
-0.0005835995
-0.007990487
-0.0009164372
-0.007833949
-0.0004195786
-0.007691998
-0.0003679393
-0.007557313
-0.0003450556
-0.007432459
-0.0003149109
-0.007309527
-0.0003073374
-0.007191884
-0.0002936756
-0.007075646
-0.0002867825
-0.006967461
-0.0002626704
-0.006861283
-0.0002516793
-0.006759275
-0.0002412684
-0.006656048
-0.0002425823
-0.00655751
-0.0002298493
-0.006459149
-0.0002266986
-0.006364059
-0.0002160831
-0.006272192
-0.0002038658
-0.006179399
-0.0002068657
-0.006087556
-0.0002058487
-0.005995116
-0.0002073346
-0.005904982
-0.0002005357
-0.005816278
-0.0001914765
-0.005730767
-0.000181115
-0.005641273
-0.0001901398
-0.005554138
-0.0001862313
-0.005463211
-0.0001949116
-0.005376613
-0.0001810809
-0.005288915
-0.000179898
-0.005199741
-0.0001844742
-0.005109376
-0.0001871314
-0.005017449
-0.000190765
-0.004926111
-0.0001849813
-0.004832199
-0.0001854271
-0.004844692
6.254588e-05
-0.004758625
-0.0001559953
-0.004677773
-0.000156698
-0.00459367
-0.0001618521
-0.004511949
-0.0001549221
-0.00442634
-0.0001626838
-0.004341659
-0.0001590974
-0.004255154
-0.0001602023
-0.00416772
-0.0001615661
-0.00407539
-0.0001744841
-0.003981309
-0.0001789748
-0.003887665
-0.0001743126
-0.003791865
-0.0001753549
-0.003694789
-0.0001751366
-0.003590574
-0.0001929932
-0.003481123
-0.0002068046
-0.003370635
-0.0002057752
-0.003256956
-0.0002094411
-0.003134803
-0.000226373
-0.003010551
-0.0002260599
-0.002876901
-0.0002422558
-0.002734752
-0.000256589
-0.002582944
-0.0002694883
-0.00242025
-0.0002849656
-0.002225919
-0.0003530875
-0.00201085
-0.0003943091
-0.001790784
-0.0003910724
-0.001520794
-0.0004870168
-0.001152886
-0.000712191
-0.0005690358
-0.001458797
0.0005459018
-0.003311856
0.001917763
-0.003549273
0.001656567
0.002183269
0.0012787
0.001417629
0.001164033
6.364874e-06
0.001478514
-0.0009548905
0.001914714
-0.001092368
0.002305159
-0.0009826243
0.002625714
-0.0008111792
0.00288235
-0.0006388882
0.00309435
-0.0005177057
0.003288445
-0.0004684261
0.003464866
-0.0004166178
0.003627406
-0.0003726085
0.003773111
-0.0003244169
0.003910361
-0.0002999494
0.004038543
-0.0002767322
0.004164256
-0.0002695643
0.004284615
-0.0002545885
0.004398742
-0.0002359179
0.004508018
-0.0002241551
0.004617299
-0.0002257193
0.004723084
-0.0002163612
0.004824804
-0.0002065395
0.00492807
-0.0002118196
0.005025555
-0.0001980008
0.005125234
-0.0002064985
0.00522512
-0.0002102769
0.005323269
-0.000202821
0.005416259
-0.0001893957
0.005510765
-0.0001938013
0.005603831
-0.0001942024
0.005700742
-0.0001914658
0.005676532
7.759295e-05
0.005784113
-0.0002252786
0.005892781
-0.0002359293
0.005999879
-0.0002345667
0.006106569
-0.0002350212
0.006213956
-0.0002398516
0.006321041
-0.0002376581
0.006424248
-0.0002278612
0.006530413
-0.0002369625
0.006636649
-0.0002430816
0.006748246
-0.0002569451
0.006854296
-0.0002413822
0.006961708
-0.0002425796
0.007069292
-0.0002465635
0.007180276
-0.0002567367
0.007291099
-0.0002586564
0.007406829
-0.0002741471
0.007524767
-0.0002810326
0.007643203
-0.0002829899
0.007765943
-0.0002934086
0.007884449
-0.0002830592
0.008013289
-0.0003132392
0.008141785
-0.0003169086
0.008276026
-0.0003313077
0.008413201
-0.000343665
0.00855493
-0.0003557696
0.008702613
-0.0003769734
0.008859472
-0.0004038695
0.009018523
-0.0004117275
0.009187258
-0.0004402605
0.00937037
-0.0004843357
0.009572056
-0.0005427609
0.01002037
-0.001133383
0.01028816
-0.0007391842
0.01060302
-0.0008553564
0.0109537
-0.0009481713
0.01141458
-0.00124502
0.01189078
-0.001198234
0.01295234
-0.003085229
0.00152729
0.002472855
-0.002234861
0.001945275
0.002629111
0.001261373
0.002643193
-7.716871e-06
0.002801267
-0.001112965
0.003106193
-0.001397294
0.003432466
-0.001308897
0.003725103
-0.001103817
0.003972407
-0.0008861916
0.004185004
-0.0007303024
0.004386939
-0.0006703611
0.004574679
-0.0006043579
0.004751426
-0.0005493561
0.004912191
-0.0004851818
0.005065327
-0.0004530849
0.005209308
-0.0004207136
0.005351076
-0.0004113323
0.005487879
-0.0003913909
0.005617892
-0.0003659319
0.005743093
-0.0003493557
0.005868419
-0.0003510454
0.005990041
-0.0003379827
0.006107242
-0.0003237406
0.006226791
-0.0003313684
0.006339351
-0.0003105611
0.006454943
-0.0003220902
0.006570969
-0.0003263031
0.006684986
-0.0003168372
0.006793775
-0.0002981849
0.006904308
-0.0003043343
0.00701338
-0.0003032751
0.007128093
-0.0003061782
0.007095269
0.0001104172
0.007220422
-0.0003504322
0.007349643
-0.0003651501
0.007475744
-0.0003606677
0.007601474
-0.0003607513
0.007728133
-0.0003665106
0.007854199
-0.0003637242
0.007975799
-0.0003494613
0.00810072
-0.0003618831
0.008225602
-0.0003679634
0.008356729
-0.0003880727
0.008481184
-0.0003658371
0.00860733
-0.0003687251
0.008733727
-0.0003729603
0.008863741
-0.0003867512
0.00899346
-0.0003883751
0.009129064
-0.000409751
0.009266892
-0.0004188604
0.00940537
-0.0004214688
0.009549046
-0.0004370844
0.00968702
-0.0004210328
0.00983805
-0.0004642699
0.009987553
-0.0004664107
0.01014382
-0.0004875738
0.01030384
-0.0005036872
0.01046812
-0.0005200463
0.01064032
-0.000549178
0.01082242
-0.0005859691
0.01100694
-0.0005962425
0.01120287
-0.0006361982
0.0114163
-0.0006977615
0.01189495
-0.001021415
0.01218375
-0.001422183
0.01249493
-0.001050359
0.01286537
-0.001225797
0.01329
-0.001372803
0.01383575
-0.00179077
0.01448924
-0.001851724
0.01548653
-0.004082515
0.01519712
0.0018167
-0.01276756
0.01245504
0.001870009
-0.01193299
-0.003395147
-0.01141217
-0.001501861
-0.01097633
-0.00143615
-0.01064341
-0.00107678
-0.01034357
-0.0009838654
-0.01009494
-0.0008322258
-0.009863575
-0.001147802
-0.009475567
-0.0008075875
-0.009307854
-0.0005356523
-0.009148071
-0.0005048381
-0.008999964
-0.0004630183
-0.008853941
-0.0004533596
-0.008713863
-0.0004337545
-0.008575356
-0.0004252889
-0.008445736
-0.0003922907
-0.008318677
-0.000378738
-0.008196155
-0.0003637901
-0.008072074
-0.000366664
-0.007953341
-0.0003485815
-0.007834898