/*--------------------------------*- C++ -*----------------------------------*\
| =========                 |                                                 |
| \\      /  F ield         | OpenFOAM: The Open Source CFD Toolbox           |
|  \\    /   O peration     | Version:  2406                                  |
|   \\  /    A nd           | Website:  www.openfoam.com                      |
|    \\/     M anipulation  |                                                 |
\*---------------------------------------------------------------------------*/
FoamFile
{
    version     2.0;
    format      ascii;
    arch        "LSB;label=32;scalar=64";
    class       volScalarField;
    location    "4.22";
    object      p;
}
// * * * * * * * * * * * * * * * * * * * * * * * * * * * * * * * * * * * * * //

dimensions      [0 2 -2 0 0 0 0];

internalField   nonuniform List<scalar> 
15536
(
-21.63205
-23.74544
-24.51901
-20.79283
-19.39259
-26.41414
-44.15158
-51.93945
-39.34381
-29.48529
-21.9557
-20.52564
-19.23409
-15.18596
-7.933856
1.827597
8.992859
8.088261
10.53916
13.31506
3.419968
-10.61394
-27.86737
-53.74757
-93.79281
-130.2425
-113.2781
-28.67564
-6.436748
-30.64754
-49.08373
-73.23615
-114.4034
-145.8389
-129.6716
-99.1789
-98.75808
-104.2326
-110.7264
-116.8526
-121.0553
-123.5477
-124.4443
-124.1773
-123.2852
-121.4806
-118.8559
-115.2722
-111.2797
-107.0182
-102.0915
-96.60521
-90.50451
-84.06072
-77.20903
-70.01912
-62.85155
-55.61295
-48.03171
-40.29736
-32.71958
-25.31008
-17.94569
-10.67921
-3.654318
3.233398
9.811791
16.05307
21.85246
27.2166
32.10628
36.52627
40.43629
43.75972
46.46263
48.65267
50.20933
51.19382
51.66353
51.51266
50.55553
49.00541
46.89762
44.20279
40.9492
37.15754
32.88683
28.05831
22.82542
17.23623
11.15342
4.750213
-1.906862
-8.981766
-16.20998
-23.3976
-30.74596
-38.23862
-45.69109
-53.18775
-60.57103
-67.65624
-74.39965
-80.88149
-87.21684
-93.11072
-98.53494
-103.446
-107.8525
-111.8094
-115.0519
-117.4974
-119.1678
-120.0291
-119.8337
-118.1076
-114.8423
-111.0761
-111.9388
-117.271
-115.0616
-101.3148
-77.0955
-75.41454
-133.9223
-168.587
-143.7444
-94.46544
-64.20656
-54.26538
-49.59167
-42.35508
-31.21954
-26.49741
-29.22471
-35.80734
-45.11711
-53.24209
-59.12143
-63.78739
-66.14756
-64.63359
-62.26026
-62.85102
-64.73039
-67.2857
-68.91266
-68.38494
-65.45045
-59.97083
-51.91889
-42.43634
-33.45065
-26.94429
-22.99922
-21.40653
-21.31717
-21.62225
-23.75303
-24.5764
-20.88446
-19.43434
-26.50508
-44.20131
-52.03103
-39.39547
-29.51431
-21.97751
-20.53013
-19.21031
-15.17169
-7.939549
1.836968
9.050762
8.169228
10.56363
13.22994
3.339283
-10.60191
-27.70696
-53.46579
-93.44805
-130.2841
-113.6415
-28.86104
-6.473605
-30.81053
-49.22557
-73.2708
-114.4837
-145.7664
-129.4425
-99.0627
-98.63429
-103.9114
-110.0267
-115.7957
-119.701
-122.0403
-122.8652
-122.5493
-121.6357
-119.8214
-117.2086
-113.6446
-109.6757
-105.4539
-100.5698
-95.13441
-89.08697
-82.70302
-75.91877
-68.79782
-61.69945
-54.53508
-47.0336
-39.37442
-31.8722
-24.53905
-17.24999
-10.05621
-3.098345
3.718678
10.22772
16.4056
22.14668
27.45529
32.29509
36.67082
40.54158
43.83347
46.5092
48.67831
50.22036
51.19435
51.65921
51.50829
50.55706
49.02065
46.93137
44.26035
41.03634
37.28005
33.04969
28.26698
23.08678
17.55092
11.52649
5.189048
-1.403007
-8.411938
-15.57118
-22.68769
-29.96628
-37.38591
-44.76583
-52.1914
-59.50529
-66.52186
-73.20068
-79.62609
-85.90919
-91.7523
-97.13423
-102.0067
-106.3823
-110.3193
-113.55
-115.9998
-117.6902
-118.5985
-118.5143
-117.0292
-114.0943
-110.7201
-111.9131
-117.2617
-115.1743
-101.4454
-77.20927
-75.31044
-133.914
-168.6733
-143.6878
-94.34556
-64.07451
-54.19427
-49.60063
-42.42612
-31.27827
-26.48135
-29.15146
-35.76558
-45.12399
-53.25518
-59.1368
-63.79904
-66.16363
-64.64391
-62.25043
-62.83552
-64.71334
-67.2434
-68.84227
-68.28468
-65.30916
-59.84346
-51.84122
-42.41484
-33.46043
-26.96431
-23.00848
-21.38943
-21.27268
-21.65137
-23.65182
-24.47663
-20.91671
-19.46754
-27.01324
-44.79016
-52.5147
-39.57813
-29.60301
-22.03253
-20.56419
-19.22811
-15.20285
-8.026683
1.701776
9.017128
8.17853
10.48825
12.9846
3.131527
-10.63481
-27.56632
-53.27019
-93.48387
-131.5392
-115.9779
-29.68024
-6.153643
-30.7191
-49.26461
-73.39236
-114.803
-146.2308
-129.721
-99.45402
-98.43187
-103.4552
-109.2234
-114.7024
-118.5526
-120.9856
-121.8636
-121.5663
-120.6892
-118.9023
-116.324
-112.7788
-108.8243
-104.6356
-99.76855
-94.36358
-88.34251
-81.99596
-75.25503
-68.15193
-61.08472
-53.9666
-46.49355
-38.86733
-31.39972
-24.10866
-16.85992
-9.69751
-2.784659
4.001755
10.47489
16.61925
22.32841
27.60755
32.41729
36.76584
40.61204
43.88509
46.53929
48.69391
50.22489
51.18877
51.64787
51.49666
50.55181
49.02799
46.95265
44.29862
41.09553
37.3625
33.15894
28.40002
23.25056
17.7469
11.7504
5.447944
-1.107645
-8.087075
-15.20998
-22.2842
-29.52958
-36.91691
-44.25453
-51.65707
-58.93795
-65.92619
-72.57855
-78.96468
-85.22235
-91.03022
-96.38999
-101.2398
-105.5945
-109.5167
-112.7245
-115.1445
-116.8031
-117.6828
-117.5268
-116.0144
-113.2773
-110.2424
-111.4155
-116.5125
-114.6004
-101.0248
-76.91773
-75.19847
-134.7043
-169.5531
-144.0928
-94.42608
-63.95583
-54.13908
-49.64917
-42.53294
-31.43636
-26.45067
-29.10749
-35.78258
-45.19009
-53.30226
-59.18715
-63.86018
-66.22602
-64.64398
-62.21603
-62.7985
-64.7041
-67.24274
-68.81504
-68.23575
-65.29039
-59.79754
-51.80642
-42.42406
-33.50304
-27.0196
-23.04712
-21.39911
-21.29004
-21.66546
-23.39977
-24.0489
-20.7592
-19.40041
-28.13782
-46.08084
-53.29296
-39.94145
-29.79612
-22.14299
-20.65329
-19.28504
-15.26329
-8.193758
1.366846
8.785821
8.147116
10.37664
12.57277
2.825649
-10.67463
-27.40914
-53.11444
-93.84851
-133.2699
-120.1772
-31.5184
-5.573895
-30.2005
-49.10639
-73.34443
-114.3452
-145.5073
-129.7337
-100.5438
-98.48823
-102.8341
-108.0938
-113.1663
-116.7678
-118.992
-119.7774
-119.4223
-118.5558
-116.78
-114.2582
-110.7475
-106.8306
-102.7106
-97.92561
-92.60767
-86.66906
-80.40569
-73.75848
-66.75
-59.76944
-52.74901
-45.38679
-37.84629
-30.46572
-23.26873
-16.11258
-9.030427
-2.206037
4.503587
10.90061
16.98005
22.62402
27.84251
32.59865
36.90152
40.70747
43.95104
46.57258
48.70744
50.22388
51.17444
51.62624
51.47382
50.53572
49.02967
46.97349
44.34317
41.17112
37.47522
33.31735
28.60156
23.51153
18.06752
12.12937
5.904548
-0.5785005
-7.492933
-14.52374
-21.51116
-28.67959
-35.97526
-43.22172
-50.53876
-57.73099
-64.62249
-71.17961
-77.49262
-83.67556
-89.39787
-94.68844
-99.46299
-103.7621
-107.6487
-110.8162
-113.2054
-114.8669
-115.7956
-115.8148
-114.525
-112.1138
-109.4815
-110.3289
-114.4896
-112.4325
-99.61577
-76.58857
-75.87634
-136.0394
-170.7925
-144.7586
-94.63373
-63.92217
-54.05419
-49.63162
-42.59216
-31.56269
-26.28563
-29.01518
-35.85417
-45.32258
-53.3932
-59.28691
-63.98141
-66.32978
-64.67895
-62.20299
-62.7707
-64.71545
-67.25984
-68.79537
-68.17568
-65.17641
-59.74813
-51.79933
-42.47828
-33.59577
-27.12369
-23.12377
-21.4331
-21.30116
-21.67778
-23.10411
-23.54607
-20.39762
-19.17148
-29.79344
-48.09325
-54.50536
-40.58548
-30.15105
-22.32044
-20.8227
-19.41485
-15.40956
-8.476204
0.7921197
8.345108
8.150308
10.40686
12.12006
2.534194
-10.64004
-27.22632
-53.07304
-94.69162
-135.9181
-125.6777
-34.5271
-5.449855
-29.57999
-48.85
-72.80396
-111.609
-139.7698
-126.7858
-101.4217
-98.72073
-102.1401
-106.9243
-111.677
-115.1533
-117.4331
-118.3217
-117.9291
-117.0883
-115.2756
-112.7841
-109.2823
-105.3353
-101.2856
-96.50226
-91.23091
-85.31079
-79.10157
-72.52689
-65.54568
-58.61951
-51.69049
-44.39722
-36.90773
-29.59445
-22.48596
-15.40829
-8.38339
-1.644871
5.004514
11.33182
17.34719
22.92246
28.08558
32.7881
37.04359
40.80142
44.01297
46.59897
48.71133
50.21172
51.14601
51.58837
51.43193
50.50092
49.02136
46.99087
44.38765
41.24963
37.59148
33.48156
28.80798
23.78462
18.39696
12.50382
6.36346
-0.04600594
-6.923051
-13.87334
-20.77507
-27.88769
-35.11951
-42.27867
-49.54921
-56.68538
-63.51695
-70.02143
-76.27859
-82.43519
-88.10605
-93.37923
-98.12624
-102.4069
-106.3214
-109.4511
-111.8524
-113.5131
-114.4476
-114.3696
-113.1154
-110.9064
-108.5498
-108.9998
-112.0574
-109.8076
-98.3007
-77.31464
-78.4244
-137.4283
-171.9046
-145.5437
-94.98143
-64.03661
-53.98337
-49.48919
-42.45901
-31.49251
-25.90049
-28.7773
-35.94162
-45.51769
-53.55328
-59.4682
-64.19175
-66.4673
-64.78192
-62.26107
-62.78943
-64.75806
-67.30446
-68.8214
-68.17401
-65.14433
-59.74674
-51.85166
-42.61246
-33.77299
-27.2991
-23.25604
-21.51404
-21.34103
-21.70757
-22.83483
-23.02771
-19.89182
-18.74094
-31.75748
-50.92409
-56.33374
-41.83319
-30.63255
-22.59578
-21.10739
-19.645
-15.65463
-8.901706
-0.008037448
7.742797
8.461961
11.0097
11.81027
2.438187
-10.46948
-27.03358
-53.18181
-96.00254
-139.5084
-132.1693
-39.04588
-7.037772
-29.82705
-48.9084
-71.90263
-106.8634
-130.345
-120.7738
-101.2213
-98.59055
-101.1165
-105.3153
-109.6077
-112.7772
-114.8664
-115.5907
-115.0464
-114.2544
-112.5701
-110.2131
-106.7628
-102.8514
-98.96364
-94.26895
-89.13283
-83.3082
-77.19444
-70.7376
-63.84356
-57.0375
-50.24868
-43.05717
-35.65987
-28.46712
-21.47148
-14.50332
-7.560736
-0.9459574
5.624851
11.85209
17.76824
23.2674
28.37421
33.00867
37.20204
40.89233
44.0746
46.6167
48.69724
50.18241
51.09592
51.52524
51.36266
50.44481
48.99328
46.99741
44.42879
41.3327
37.7218
33.66384
29.03354
24.10617
18.79676
12.9395
6.899963
0.6209899
-6.201354
-13.05778
-19.82809
-26.84057
-33.98753
-41.03016
-48.20116
-55.23505
-61.96013
-68.34372
-74.50138
-80.58917
-86.13355
-91.32712
-95.96506
-100.1572
-103.988
-107.0421
-109.3437
-110.9319
-111.9689
-112.1238
-111.1004
-109.2325
-107.2209
-107.4342
-109.596
-107.2391
-97.36217
-79.6979
-82.5629
-138.5575
-171.9451
-145.997
-95.28976
-64.47107
-54.02034
-49.14237
-41.94103
-31.08542
-25.29451
-28.3617
-36.01409
-45.79182
-53.8289
-59.77474
-64.48101
-66.68751
-64.95494
-62.41871
-62.86885
-64.84883
-67.39522
-68.90603
-68.24032
-65.17693
-59.82293
-51.99242
-42.8616
-34.07349
-27.59094
-23.47849
-21.68305
-21.43863
-21.77911
-22.62117
-22.53631
-19.19549
-18.26425
-33.92171
-54.67968
-59.07056
-44.2414
-31.10713
-23.07462
-21.59882
-20.0269
-16.02923
-9.500556
-0.984538
7.116471
9.454104
12.58216
11.94748
2.573146
-10.05359
-26.62632
-53.41228
-97.45641
-144.1065
-138.851
-45.80634
-11.34991
-31.30429
-49.257
-70.95315
-101.6893
-121.206
-114.5153
-100.2316
-98.07201
-100.0155
-103.6628
-107.5801
-110.5283
-112.5789
-113.4778
-112.8496
-112.2037
-110.1947
-107.8889
-104.4475
-100.4726
-96.71659
-92.01759
-87.0176
-81.22115
-75.13162
-68.8249
-62.0677
-55.33282
-48.61461
-41.57881
-34.3276
-27.22264
-20.27903
-13.50628
-6.639405
-0.1745416
6.319527
12.40732
18.22617
23.71398
28.70459
33.23694
37.34531
40.97152
44.17529
46.62326
48.66365
50.13344
51.01741
51.43068
51.27252
50.37545
48.9156
46.94941
44.42766
41.38919
37.86154
33.87399
29.26554
24.43997
19.26064
13.48417
7.483912
1.308884
-5.352214
-12.13068
-18.80485
-25.69352
-32.67127
-39.67371
-46.76604
-53.63483
-60.29309
-66.53959
-72.60581
-78.66649
-84.0893
-89.26446
-93.80786
-97.99397
-101.8941
-104.8946
-107.2662
-109.0292
-109.9991
-110.0798
-109.1277
-107.507
-105.7309
-105.7184
-107.0586
-104.6271
-96.40505
-82.80681
-87.05348
-137.935
-168.8341
-143.9903
-94.59594
-65.25919
-54.33219
-48.64186
-41.05673
-30.31899
-24.55209
-27.8598
-36.07728
-46.21061
-54.29271
-60.26181
-64.83916
-66.76532
-65.11682
-62.64176
-63.00286
-64.99936
-67.56206
-69.11297
-68.44037
-65.2969
-59.97955
-52.23653
-43.25335
-34.52615
-28.08722
-23.88107
-21.93051
-21.61542
-21.91417
-22.46584
-22.2457
-18.65669
-17.88785
-36.67041
-59.29053
-62.85633
-47.28807
-32.17789
-23.66196
-22.49935
-20.6621
-16.55187
-10.30035
-2.073702
6.551476
11.17714
15.18512
12.67594
3.056084
-9.308975
-26.0485
-53.25642
-98.54528
-147.8737
-143.6413
-54.24016
-18.25331
-33.80706
-50.28873
-70.45261
-96.13386
-112.7002
-108.9626
-98.76493
-96.98754
-98.39044
-101.3305
-104.7969
-107.3688
-109.1341
-110.1394
-109.0645
-108.4425
-106.8146
-104.6349
-101.4758
-97.21105
-93.70531
-89.16533
-84.37833
-78.54818
-72.55304
-66.65849
-60.08686
-53.079
-46.56863
-39.97597
-32.90442
-25.60273
-18.80596
-12.47919
-5.579266
0.6475694
7.111456
12.93721
18.85862
24.33474
29.03665
33.4354
37.43081
41.05072
44.29693
46.57069
48.62313
50.05607
50.90429
51.31094
51.16891
50.25154
48.79116
46.82538
44.3618
41.38825
37.95831
34.14607
29.52312
24.76973
19.75311
14.27725
8.31729
1.907289
-4.451116
-10.89556
-17.70005
-24.51365
-31.04428
-37.90427
-45.28
-51.69398
-58.35858
-64.43193
-70.31658
-76.37537
-81.5426
-86.75696
-91.04606
-95.09473
-99.03472
-101.8718
-104.1088
-105.5428
-106.8276
-107.1564
-106.4073
-105.1071
-103.5902
-103.5661
-104.2393
-101.8278
-95.13157
-85.46863
-90.67832
-132.9623
-158.4605
-136.205
-91.31328
-65.94124
-54.78888
-48.08028
-40.01563
-29.72453
-24.05932
-27.48917
-36.14582
-46.7921
-55.02911
-61.06106
-65.35882
-66.54728
-65.07103
-62.79243
-63.1189
-65.26507
-67.90409
-69.46421
-68.76531
-65.40397
-60.24433
-52.69112
-43.90081
-35.21276
-28.84269
-24.51618
-22.1052
-21.82224
1.853607
1.300311
-40.83104
5.650992
10.47713
3.570608
1.853504
0.4859956
8.525401
-0.6514899
-0.2518884
0.7769867
0.3648089
0.8042046
1.045643
2.486683
1.082396
-2.138668
0.6679763
0.2765864
-21.33838
0.05362716
1.830961
-0.8054005
1.639695
1.45506
-0.1165804
-0.470129
-5.264475
0.631585
0.7360242
-21.33407
2.283482
0.4545574
0.9506863
-3.733879
-3.690147
0.1301377
-2.16063
-4.846986
-20.64408
2.16944
1.190622
3.467444
29.63922
1.515893
-0.1229043
1.787154
-29.48956
-0.3312786
-1.089035
-7.416494
-15.1202
0.6550706
0.1772247
18.92313
-2.000321
1.675464
-11.40044
-10.66976
-0.4623728
0.01647043
-7.137791
0.8930591
6.629482
1.460504
-35.05324
0.177216
1.571919
0.1828209
0.3583951
-1.143562
-7.300667
-92.7415
21.84782
0.3196276
3.984427
-1.831011
-15.65247
0.8284128
-9.946396
0.20872
2.974469
0.7710117
-9.219732
1.612787
2.093701
0.2258992
-6.907801
-0.205635
-14.29788
23.29364
-10.17302
0.4943514
1.503783
1.02892
-34.2343
5.76111
-52.46253
1.511866
0.7343421
0.2589708
1.067072
-83.72158
0.06295731
-18.69387
-0.3880859
1.356707
-4.757691
-23.35707
0.4060887
1.287561
2.010653
7.197376
-25.21669
-0.1938935
0.2646568
0.4584581
22.11014
1.168695
0.338507
0.4842526
0.241483
0.8547788
0.8016577
8.371503
0.9238881
-40.04777
1.311294
1.491126
0.2902568
-10.8165
0.9457224
1.198708
-0.03384794
-36.14805
0.1931854
4.902851
0.6921473
0.2983638
-40.25142
0.9420724
-63.00196
1.397504
-0.2443392
-6.303414
0.1229446
-39.62353
0.2669022
0.4552424
2.329358
-20.88829
-27.56522
-1.389748
-9.201239
-52.30612
0.6139605
0.7018669
0.8181566
-37.7468
1.318048
-42.9193
-18.03664
-0.5817194
0.5380785
-50.95375
-21.12671
1.982607
-36.19996
0.4357474
2.014604
-13.94652
1.100477
-45.20458
-4.57173
-13.63247
2.000747
1.583643
-4.547248
-6.544126
14.86117
0.6125323
0.4708603
1.06425
3.869541
-45.11119
0.3039591
0.3199212
-10.32468
0.8086947
0.7552524
0.5849873
-7.081962
-0.8826027
-1.257271
1.284644
-0.4299666
0.8377667
-3.354815
-32.87723
0.1134347
-12.40235
1.599307
11.54111
0.303027
-0.1909724
-6.533505
1.265158
-8.020711
-0.3966083
1.041478
0.1112608
-3.875455
-14.35606
0.9768659
-9.58933
-9.771558
0.3444473
7.876559
0.7121939
0.4622779
-10.94816
2.661449
-3.808079
-1.786521
-0.3120262
1.245655
7.700794
1.356297
17.11064
-3.468065
-16.33711
2.366911
0.1917144
-86.36487
0.7429442
23.13049
-12.93132
2.425693
0.6978056
1.10059
0.7461763
0.23738
-10.82832
0.7354534
-63.53676
1.239232
-49.41368
0.3399755
0.9784572
-32.42785
1.343033
0.06253844
0.3403677
2.823907
-25.30185
1.511631
0.4257338
-24.88268
-2.266843
-6.988822
0.1734771
-26.13264
-3.807948
0.4138094
2.029198
1.306859
0.2476936
-4.297186
-25.31879
0.5530248
0.8992539
12.10696
0.1900677
0.6057081
3.037633
1.375228
-28.87148
-28.22861
0.9355904
1.276751
1.290814
-3.266183
0.6969205
0.8860873
1.227905
37.22502
0.7180378
1.703351
0.5827429
0.84307
0.2215703
1.474397
1.357489
-44.22859
0.556518
9.947451
0.01034929
1.870939
0.5924116
-42.0848
0.1295503
-4.056894
-23.90261
0.3683509
0.1252645
0.5538197
1.199552
2.226022
1.473775
1.767267
-0.3038785
0.3785857
1.819784
0.4140774
-11.82175
33.86442
-57.30575
-18.10055
-79.27444
0.06217125
-0.5999302
-0.241295
-0.01656403
0.148769
-17.23747
0.5844436
-0.09615981
1.244065
-0.6383865
18.20126
-1.688184
-6.820392
-35.42426
1.373162
1.577442
1.184578
0.3667696
-3.234034
1.366431
-53.2403
1.239821
1.266497
0.457328
-12.35953
4.433601
-45.01632
0.653621
-10.12038
0.2182142
0.8986154
-3.705433
12.452
0.7555489
0.1133315
-19.54671
-50.73896
0.4403075
0.9312464
1.347812
1.363749
-11.41077
-7.383717
2.076743
0.3824496
1.763049
1.337745
1.527159
0.6826086
1.108521
-2.370235
11.70112
-37.46312
1.080132
1.789123
1.456334
1.395434
0.4116719
2.472921
0.7453583
1.121052
1.357341
0.1100553
-16.05287
0.058304
1.852291
1.865237
39.19861
2.030773
0.7682959
-3.038083
1.101427
2.539177
-52.17625
0.1039815
-0.05021815
1.358367
-8.690603
0.8669009
1.145114
1.860277
0.2237777
-28.30314
-8.644237
0.7183621
1.710849
-42.24446
-47.91949
1.532794
1.49911
0.9989367
0.5078846
0.6625161
0.5717936
1.720373
0.145069
2.403655
-10.56407
0.6807001
-23.74393
0.9411343
0.3023458
3.564296
0.4587201
0.6386389
-25.36401
0.7009896
0.7934594
-75.28544
-15.89323
-24.77231
1.053414
0.5386786
1.11676
1.655202
-0.4750569
0.3386458
-4.770651
0.3150046
0.2916791
-1.182844
0.5098554
-4.88399
0.9114079
-3.806125
1.068128
-1.822693
-6.884008
0.7113508
0.4536785
0.5319345
-25.44315
2.169218
-11.58882
0.860684
0.9331544
-2.788494
4.378032
1.180227
-18.38471
1.422225
-43.82089
-0.2024236
0.9083597
-1.691527
0.3383535
27.08466
0.8960056
3.095471
-0.8132899
-9.230002
-0.05093286
0.9073346
7.289055
-9.348588
-13.10604
-26.53181
-39.72991
0.838779
1.081391
-28.33302
1.097559
0.9006204
1.173613
1.635832
1.140489
-9.122221
15.79315
0.4806796
1.266236
-0.4231803
-23.55956
-1.332206
-1.282407
-17.91376
0.688588
1.261014
3.818181
1.431204
3.519429
0.9460905
1.281874
0.433076
-3.984334
2.320897
1.115401
0.4451069
-0.2136594
-18.47948
-17.06473
-21.81248
2.030783
11.30375
-1.280839
0.6979255
0.6990061
-2.531772
0.2692487
0.4317494
0.8426685
0.7046826
0.6528542
0.05823854
0.4799006
1.911136
0.4109266
0.2906199
-1.429999
0.5564254
0.6479157
-25.6529
-2.92964
-22.82977
0.3005175
3.88624
4.357251
3.309256
0.4197463
1.172079
0.5363035
4.496143
1.048875
0.925838
2.233508
-56.86067
2.378457
3.771701
0.7069436
-1.840217
7.900321
0.7645253
7.64217
0.3282119
-2.322382
-18.98285
0.6174158
0.3517779
-6.275646
15.33676
-9.233225
0.4497886
-0.695292
1.687173
1.900629
0.3416622
1.395457
0.824958
4.979822
28.53167
-12.13578
0.9835442
3.378529
1.957858
-58.74173
0.9564067
2.615065
1.937851
2.396969
1.042936
-3.912084
-5.584737
-1.233577
5.497973
0.06590571
0.5218691
-21.73674
1.580445
1.052416
-77.07734
-3.215525
0.1330361
-18.49309
1.470755
0.7439363
1.214182
0.4690805
0.694869
-62.61258
1.697667
1.156629
1.056772
-3.307727
0.2044037
0.2419353
2.344487
-17.96134
-8.799544
1.303749
-22.54343
2.233044
4.712835
0.3405211
-61.03599
1.503873
8.220277
2.720888
0.3250506
-1.221745
-25.74672
3.510161
3.26153
-6.874711
0.6639123
0.1253099
1.935726
17.41426
2.576493
0.6959547
0.4860573
-1.397349
5.277315
-81.15464
-13.93594
-6.703601
-44.79194
-7.817289
0.3542133
0.4557271
0.08536256
1.469535
1.044779
-8.898552
1.237509
-2.43485
-0.4034801
1.261219
1.505558
-58.0434
-0.092106
24.9335
3.81018
-36.99256
-1.074582
-4.354227
6.819743
-2.038204
-21.34371
1.099712
0.9850518
-16.92432
-0.05933153
0.1540257
0.9373987
1.521568
-13.43658
0.137825
-9.494474
1.65943
1.520134
-3.130147
1.224703
1.174203
-82.2118
-7.359376
0.992817
2.478233
-1.863034
-20.22241
0.650061
6.987925
13.94384
11.63372
2.060774
-21.94222
1.421006
-12.92014
0.7869579
-2.028508
2.610202
0.7742485
-25.20765
-4.544808
-44.71956
-11.23377
1.367934
1.985513
-45.97538
2.017856
0.5155899
-0.1627055
-0.0394715
-8.708355
-3.890943
-3.700882
4.087641
-17.74775
1.501038
0.9270473
-22.51553
-5.948841
1.372309
1.011705
0.04311005
0.5826494
-4.049392
0.7382505
1.016433
-46.20408
0.6343141
1.498278
1.118362
0.4747631
0.6795671
1.020556
0.04811977
0.5315273
1.283697
-25.09371
1.287466
1.098528
0.5506723
0.5828295
0.8030107
1.240485
0.6137995
1.777212
-0.7789965
3.408776
-50.57467
0.4556961
0.1266707
1.505689
1.263709
0.8680645
3.288237
0.2999262
-49.47553
2.334299
-1.44693
7.174074
-19.20296
-14.191
-2.88256
-25.9678
0.673583
3.462589
1.115057
-9.804372
-17.78608
-5.040976
-3.543119
-0.5248592
1.738457
13.07369
1.853944
2.005157
0.3669271
1.58943
0.6642669
0.894813
-8.743004
22.12345
-8.279667
1.674262
2.032143
0.4883929
0.6198376
0.4798105
-2.374712
1.395234
-1.013116
-0.6258185
1.47912
-1.954783
5.219282
0.8649488
1.567079
-1.885101
0.4937894
0.6147125
0.002768396
-9.559274
30.34676
-1.849937
0.5999322
1.165468
1.257295
0.3240077
0.4062309
-35.75013
1.041181
-77.11873
-6.491451
0.4180172
-6.551948
0.7776148
-7.673524
1.071107
1.512873
1.172088
1.500623
-9.867528
-58.43956
0.7399294
-0.3877078
-0.4960492
0.4699531
-0.1068906
1.933801
-12.00657
-2.353391
14.2735
1.065937
1.204548
0.5758666
0.4349691
2.144439
-0.2435429
0.4215323
0.1666677
-10.01235
1.492265
8.289412
-42.7667
1.347075
-3.338745
-11.8048
0.9054493
1.09205
0.8132398
-0.3429859
-0.3242002
0.8920714
2.634271
1.531236
1.931442
3.433086
0.3778958
-9.937423
31.21339
0.9644213
-1.281256
-12.97217
-72.41162
0.9596289
1.164242
1.425477
0.6230494
33.11186
0.494034
1.245352
-0.1812024
1.345153
-2.172403
0.732003
0.9724739
1.062789
-20.47133
-14.99984
1.017474
-1.49992
12.21956
0.4536507
0.3372923
1.318893
-10.5704
4.84804
30.46857
-10.9725
0.6277918
0.08737171
-0.2876061
-1.653462
9.101967
-0.7721065
0.9402709
-0.3799547
0.3138009
0.6095287
0.9311776
-19.94827
-6.593853
-10.58031
-27.79455
2.82705
-3.289534
0.6802499
-1.281313
-1.167219
2.005147
-12.11326
0.9170924
-0.6235525
9.835815
-11.39185
5.051515
1.486012
1.279489
-9.805442
25.7234
-2.697516
0.1984784
-1.901018
-52.78456
0.2474461
0.4053666
2.641867
1.173382
0.7042568
-26.56346
-3.127583
2.083311
-17.27617
-13.00624
0.2040035
-23.19934
-19.32802
-53.43376
2.672316
-43.0619
2.494399
0.4674131
-17.26367
1.284995
-0.7253689
-32.10235
0.01530495
0.8691611
2.102608
-2.331346
0.3983596
-23.70159
-49.80273
-2.681989
15.45833
1.049769
-0.2209717
-18.01496
18.97511
-30.6434
0.2145889
1.02215
1.567504
-3.926719
0.01886013
-3.940237
1.034714
1.421727
-0.09427635
-63.65169
-80.63392
1.922608
1.545537
2.518276
0.4593598
0.5589119
2.730173
1.037951
0.6186269
0.6872571
0.6728777
0.459566
-0.3615661
1.098923
-6.973572
1.196024
1.446217
-83.5819
1.659508
1.030696
-1.343668
-29.19444
2.109839
-1.892778
0.8764105
-13.31721
-37.91613
33.2459
47.01203
2.007182
1.751167
-11.81157
5.625855
1.643016
0.3200172
11.07874
-34.05079
1.826367
1.170347
-0.09695954
2.245789
1.357402
-2.190805
-1.072123
-23.66764
-55.07662
0.2379114
1.623051
1.828908
2.124786
1.835826
-62.6485
1.189539
1.07479
1.30127
-0.03318989
-1.288388
1.116551
-36.5788
-20.81942
1.673789
0.8493203
-2.089407
1.939385
-5.689292
1.790626
0.2884236
-46.83946
0.9567845
-84.3925
-41.96203
0.407204
0.003807845
-72.17049
-45.95206
0.3898451
-0.5192267
1.07593
0.8216687
-0.2634384
-5.176371
0.7696875
1.276179
0.9205595
2.337846
1.340852
-0.918591
0.7151307
-0.466911
0.4546488
0.5986968
0.4935395
0.11434
-0.282627
0.7147269
0.6112978
-7.417959
0.4158477
1.109354
3.529985
0.0528476
1.323903
5.472993
0.1647681
-5.926615
-23.08013
-20.44304
0.3937856
1.181454
0.3137256
0.4018581
-29.59449
-11.62917
-16.92289
-32.07089
23.28369
0.695178
3.11807
-12.22074
-20.89487
0.2829758
3.410581
-59.8928
0.6552423
1.04448
-5.346079
2.636833
5.19743
0.3847036
1.346468
-20.65908
-15.28761
-26.34675
1.41183
5.014777
35.9974
-11.72183
-6.65855
1.059348
1.966666
1.365301
7.856321
0.6188373
7.438072
-0.3026444
-5.162159
-7.719076
-6.520787
-1.914097
0.9520128
-20.86012
0.6846904
-45.27726
7.882973
0.9222426
13.12835
1.162824
30.08331
-13.10428
-3.043814
0.348882
0.5667754
14.68717
-20.54277
-8.077191
0.6303474
1.052276
0.9843446
1.135981
1.288718
-8.964841
-17.96528
0.5165514
-31.72449
1.948256
18.87211
-31.07286
2.209647
-14.3961
-14.90078
-3.254883
-40.20745
38.68794
0.4667773
1.23231
-38.91624
-0.6416006
0.6656287
-0.673327
-0.0221388
-20.35396
-79.71592
-5.099111
1.116661
-2.493506
1.85511
0.9671935
-0.6419268
1.388823
4.982747
3.079302
0.2852864
1.164184
1.153414
-17.43272
-13.45887
-9.027793
0.9212199
0.641726
-48.11484
0.1397319
1.14876
0.7358282
-0.5927181
-31.14817
1.891014
0.2564748
1.550391
1.127818
0.2711011
-23.52302
0.8734878
0.9372444
-54.34301
26.67391
-1.772754
1.341384
3.169051
-0.7521405
1.304219
0.9579701
0.5346082
0.7847931
-0.2634087
9.377177
0.7566105
-14.65008
1.264584
-1.484395
1.106753
2.05833
-0.02818291
0.9413027
-3.723379
-7.193661
-38.73522
-15.04613
0.6958015
-3.181031
0.1646375
-4.15262
1.018549
-21.63266
1.23905
0.995244
0.2627536
-8.008487
0.7858256
-10.17954
2.724881
-58.27307
0.2978696
-0.6872626
0.5970342
-71.7436
1.287351
-34.55371
0.846527
0.5797211
0.5650876
0.6064398
2.523868
-30.73155
-86.66964
0.6135564
0.8703667
6.753687
-2.9399
2.707803
2.431679
2.210618
-0.06067133
0.3385046
0.8515443
-19.87208
-0.04435178
-8.328185
0.9929643
1.77177
-0.2009641
0.8783005
1.233336
1.228398
-9.169768
0.7625669
0.9230375
9.150371
1.807002
-12.95603
1.146239
-0.8946681
-0.7028464
-24.61394
0.4456905
-0.166376
0.1250708
-17.30281
-54.42206
-68.40086
0.5995482
-22.49537
1.199302
-1.223394
-2.332495
0.4520663
16.16219
0.4856998
-60.21008
-71.05925
1.25172
0.6949685
-1.362986
1.042497
0.3514964
1.063424
-4.679191
-9.562767
1.166717
-13.21723
0.3574658
1.290932
-0.019966
-0.5610502
-0.5182069
1.201738
0.0454546
1.274684
0.9216646
-4.941009
0.1647964
2.205057
0.5044738
0.4996976
-32.56844
-20.47117
-1.37337
-3.020388
0.6867374
-14.55019
-10.37148
-4.449278
5.311069
1.755582
0.194962
11.18382
-55.95557
-16.50822
0.4911565
0.2399009
17.88081
-2.173094
1.101483
0.7594316
-1.105294
0.9200913
-46.4128
-31.1354
-19.4729
11.64298
8.338547
0.4192675
-53.94807
-46.35532
-69.91581
2.324592
-3.031755
-0.164681
4.322051
0.560768
0.2839003
0.9853895
0.7074989
0.9124169
0.9847894
0.9946367
0.8921224
-26.88723
1.171106
0.8400074
0.1457068
-57.40182
19.57454
0.2728288
-12.855
-35.10158
-9.550489
8.032184
-1.555837
-5.817387
-12.92689
-64.89785
0.3020177
-27.64108
1.372657
-54.70316
-23.01465
0.4232208
1.99902
10.51349
1.458556
14.21865
0.6643057
0.539189
2.429473
0.3073445
-0.6945716
0.9816183
0.8021656
0.5759878
1.524579
-42.71693
0.5226425
1.201702
-17.15566
1.290736
1.127706
-7.009047
-18.59535
-44.62727
0.106654
1.580359
24.08714
0.3569247
1.280467
-19.15724
-0.4343913
-40.36698
-1.236524
0.5029866
1.11336
1.212754
-7.759978
-3.04197
0.3397952
1.379225
0.5206109
0.9278427
0.3437148
19.39923
2.342276
-18.47877
5.160259
-12.12454
0.7496989
-76.2192
0.882801
0.8616608
3.035843
2.145297
1.108931
-54.36439
-51.2993
-49.27931
-0.0002533178
-12.1425
-83.25709
1.419703
-16.27982
1.286788
1.313873
-5.870715
-36.17752
1.728898
-68.91838
0.6935062
-3.296312
0.5832649
-11.52507
9.552472
0.6426822
0.2525655
1.537686
0.1503538
-0.1147815
15.71783
0.1045797
-46.66757
0.7796361
0.03369193
0.4187956
1.30135
-1.853339
-0.2067154
-1.755168
-6.398842
1.292144
0.1765451
-26.83327
1.764955
-5.590784
-4.705944
-3.641626
0.8764352
0.9298531
-5.528079
0.005675001
0.7760033
-68.99543
26.86122
-5.994503
1.175285
1.177355
-31.68431
0.3150839
1.261341
-8.556432
1.068619
0.3519117
0.9686749
1.103283
-6.018471
-0.2003044
20.89062
33.41299
1.711242
-6.286009
-4.722893
0.249104
1.261965
0.9456837
32.87905
-53.2468
0.302828
1.644412
1.384568
-9.795093
1.750357
-11.09169
3.477102
0.8285479
0.674723
-23.95635
1.223019
1.623283
-7.566533
11.12703
-13.103
-2.130914
0.2980163
-75.08503
29.33228
-24.28272
0.5291876
-8.152606
-3.114809
0.7871361
2.011564
32.08393
1.164892
-8.586786
-11.4531
0.3461184
0.3494029
7.711955
1.538303
-0.1716865
1.196682
1.052373
19.42637
-4.211289
0.372842
-6.57725
-1.759407
-1.846265
19.60292
3.050154
6.627979
-29.71492
-19.42055
1.037382
0.4072264
-34.9865
-5.42402
-40.87736
-2.412262
1.543577
0.7599901
0.570775
-10.24466
-13.7823
2.662742
-22.50087
-7.559531
0.6003216
1.003504
-0.7227804
-59.23622
-17.64243
-0.1998272
3.29999
0.09065802
0.3342215
-0.5775656
1.767863
1.255385
0.05127992
-68.80902
-6.307582
-1.717601
-1.104231
-58.22102
1.687404
1.873131
-10.4058
3.552569
1.987474
1.008333
36.07372
0.6551538
1.043499
0.6493887
0.7080814
-58.76493
-24.89385
-38.90229
13.58375
1.405758
1.1096
1.193609
1.283797
0.4048709
0.9765928
1.006577
1.555995
0.6012563
0.6267975
0.3452429
0.7580465
11.94758
8.073773
1.144897
-0.4604601
-1.212334
-0.8116707
0.02249784
-8.609478
6.599485
-44.6762
-68.19734
0.8756438
2.336989
-73.39928
42.18734
-86.14293
1.697433
1.517358
4.366704
-4.190804
8.891207
-23.1527
0.4424793
3.84179
0.4159597
2.822371
1.211221
-0.3165586
-0.03090844
-60.83018
1.481183
1.822855
-0.36606
1.520462
-34.29117
-19.30136
-18.63798
0.7531051
14.8546
-1.297205
1.021107
1.245268
0.6465007
-70.02612
0.948488
3.300242
29.82034
2.112701
1.5614
1.353764
25.18451
2.734226
-3.214271
2.95396
-17.29843
0.9967162
0.3596219
-79.84505
0.7976309
-47.81939
1.630813
2.497787
45.42673
-0.4840841
0.3883965
1.368613
3.105255
1.230866
-0.3328457
-44.87284
43.12492
2.438585
-1.252452
45.71621
0.6691239
0.5352786
0.3039233
-21.48629
0.7664489
-12.15369
-3.863661
1.030356
-10.58638
-81.62609
1.077211
1.112851
0.695755
1.463114
16.13454
1.043321
1.077586
1.566745
0.7571397
0.5344843
0.4082664
0.4520032
1.118732
1.329731
-0.1286945
-22.56831
-49.17313
-30.59284
-26.47483
-23.52571
-0.5980519
-1.683762
0.705311
0.9594461
3.799322
-76.54235
-7.779709
27.14243
-18.78436
1.298725
-0.02196424
-1.263119
-24.37688
-8.49186
2.024694
2.186087
-81.89539
-0.9912621
0.0618925
-0.02268726
1.363435
0.8865832
0.9720744
0.8417946
1.402783
0.1348996
1.485952
2.850276
-2.80168
0.5810313
-0.1353851
0.6039155
-33.50237
-11.8637
0.7796228
1.248078
0.9064369
-3.122329
-27.69982
2.524663
1.631552
0.296226
0.6810757
8.062871
16.00274
0.6428625
0.247133
1.531083
-7.114005
-73.87199
-59.32644
0.3520178