/*--------------------------------*- C++ -*----------------------------------*\
| =========                 |                                                 |
| \\      /  F ield         | OpenFOAM: The Open Source CFD Toolbox           |
|  \\    /   O peration     | Version:  2406                                  |
|   \\  /    A nd           | Website:  www.openfoam.com                      |
|    \\/     M anipulation  |                                                 |
\*---------------------------------------------------------------------------*/
FoamFile
{
    version     2.0;
    format      ascii;
    arch        "LSB;label=32;scalar=64";
    class       volVectorField;
    location    "4.22";
    object      U;
}
// * * * * * * * * * * * * * * * * * * * * * * * * * * * * * * * * * * * * * //

dimensions      [0 1 -1 0 0 0 0];

internalField   nonuniform List<vector> 
15536
(
(0.1052025 2.3499 -3.707997e-23)
(0.07366646 -1.342173 -4.080334e-19)
(-0.04033738 -0.5376903 -8.49218e-19)
(-0.2426589 0.7634042 -6.904997e-19)
(-0.9614803 4.924209 -1.092884e-20)
(-0.6329469 3.767055 3.139895e-21)
(1.228669 -3.439202 2.420191e-20)
(1.893955 -5.668814 -2.377146e-20)
(1.292199 -3.905795 5.002252e-18)
(0.5776127 -1.643255 3.965173e-18)
(-0.1451414 0.1168301 0)
(-0.7915812 1.529314 0)
(-1.162337 2.167993 -1.811761e-20)
(-1.236066 2.174748 4.106489e-18)
(-0.8967 1.579828 1.066873e-18)
(0.1092596 0.052526 5.061279e-19)
(1.458349 -1.77782 -1.212519e-18)
(2.644135 -2.979468 -9.564684e-21)
(2.853763 -3.03146 2.179693e-20)
(0.9597963 -1.1116 -1.236748e-20)
(-1.461388 1.196043 0)
(-3.257343 2.736135 1.366095e-18)
(-4.935191 3.900747 0)
(-6.964296 5.100806 6.414375e-18)
(-9.242162 6.280194 -6.482173e-20)
(-11.03791 7.18798 -1.06581e-19)
(-6.531192 4.463453 1.089934e-19)
(4.731873 -2.054956 -3.477352e-18)
(7.042468 -3.506903 -8.09126e-19)
(0.5641174 -0.5366858 0)
(-2.809519 0.7752974 -3.12651e-20)
(-5.758668 1.664625 -4.414526e-18)
(-8.428515 2.388933 6.708195e-18)
(-9.294086 2.517417 0)
(-5.171455 1.418322 -8.037447e-18)
(-0.5563897 0.1636364 -2.623124e-20)
(0.9378044 -0.1269287 3.314946e-18)
(6.30523 -0.1246596 -1.584503e-18)
(10.66178 0.1189908 1.598121e-21)
(12.83512 0.590188 -4.08441e-19)
(14.00687 1.179776 1.667004e-18)
(14.69888 1.843147 -2.641389e-20)
(15.12058 2.522976 2.621957e-20)
(15.35053 3.198344 0)
(15.4333 3.86208 -6.538794e-18)
(15.38167 4.50016 -6.472263e-18)
(15.19015 5.103679 0)
(14.92912 5.680284 -1.225744e-17)
(14.60152 6.225971 1.192006e-17)
(14.23416 6.745258 1.14818e-17)
(13.81544 7.223331 4.171099e-20)
(13.33938 7.656146 -1.038622e-17)
(12.81363 8.038606 0)
(12.24733 8.372754 0)
(11.6499 8.655062 8.373401e-18)
(11.01871 8.877453 7.679089e-18)
(10.37234 9.051324 5.10812e-20)
(9.717217 9.175038 6.065988e-18)
(9.039974 9.229738 1.066728e-17)
(8.35354 9.22403 4.540161e-18)
(7.665935 9.161013 3.688922e-18)
(6.990793 9.050328 -2.59835e-20)
(6.324843 8.882126 0)
(5.665558 8.649505 1.244703e-18)
(5.0266 8.369376 0)
(4.403606 8.028343 4.102894e-19)
(3.805751 7.632533 -2.876679e-20)
(3.243194 7.192834 -2.859402e-21)
(2.715246 6.706786 9.083495e-21)
(2.226168 6.178686 -3.388695e-18)
(1.78176 5.61722 -1.68904e-20)
(1.382611 5.019938 2.343692e-18)
(1.030285 4.388987 2.610475e-18)
(0.7301049 3.740265 0)
(0.4815698 3.078719 0)
(0.2874981 2.401265 3.235918e-18)
(0.145122 1.715808 -3.371816e-22)
(0.05772629 1.034164 8.868999e-19)
(0.02782653 0.3199981 1.647158e-21)
(0.04945866 -0.4743253 -6.934668e-21)
(0.1192293 -1.259579 -1.71857e-18)
(0.2468367 -1.99361 0)
(0.4296281 -2.695322 3.113095e-18)
(0.6648411 -3.373413 0)
(0.9513118 -4.026457 -2.645116e-18)
(1.286739 -4.651488 2.346825e-18)
(1.670546 -5.247004 1.735916e-20)
(2.09931 -5.811017 3.516394e-18)
(2.569811 -6.333666 9.671209e-21)
(3.077985 -6.812841 -2.139784e-18)
(3.621079 -7.250146 -1.379841e-18)
(4.196386 -7.63947 7.441166e-21)
(4.802081 -7.98321 2.313891e-19)
(5.430085 -8.276017 -1.059753e-18)
(6.073013 -8.514564 1.798017e-20)
(6.720976 -8.685814 6.546987e-21)
(7.379283 -8.804096 -3.533968e-18)
(8.043504 -8.869447 0)
(8.705177 -8.874219 1.023015e-17)
(9.366815 -8.829236 5.848607e-18)
(10.00886 -8.72066 1.032287e-19)
(10.62752 -8.550861 -7.483668e-18)
(11.21883 -8.323069 0)
(11.78168 -8.041635 0)
(12.31534 -7.714293 0)
(12.81087 -7.339329 0)
(13.25826 -6.918111 1.065537e-17)
(13.65431 -6.454595 1.12549e-17)
(13.99898 -5.953441 2.573496e-20)
(14.28685 -5.422114 -1.210287e-17)
(14.49918 -4.858267 -6.181024e-18)
(14.60808 -4.26168 -6.385562e-18)
(14.56745 -3.630586 4.999638e-20)
(14.33808 -2.969823 6.520194e-18)
(13.85413 -2.292517 3.355375e-18)
(12.94682 -1.635263 -2.597395e-20)
(11.09093 -1.009615 -6.315002e-21)
(7.408829 -0.4210156 4.256627e-19)
(1.258416 -0.02004706 -9.003369e-19)
(-2.842946 -0.1302679 -2.284843e-20)
(-3.042937 -0.302847 1.530084e-20)
(-2.188098 -0.0913662 3.391128e-18)
(2.334738 0.7475467 2.310133e-20)
(4.714461 1.070816 0)
(-3.805744 -1.592425 -8.080824e-18)
(-10.10215 -3.703248 -9.783801e-18)
(-9.726651 -3.680466 2.953301e-21)
(-7.162841 -2.909781 1.122217e-17)
(-4.57146 -2.06832 -8.08296e-18)
(-3.123754 -1.596888 0)
(-2.349867 -1.303121 0)
(-1.261965 -0.686476 -5.741235e-18)
(0.7519831 0.6141642 0)
(2.909667 2.131451 2.863008e-20)
(2.925439 2.216204 -3.877559e-18)
(1.282312 0.9884429 -4.82573e-18)
(0.3107357 0.2221926 5.35484e-20)
(0.2115268 0.2092748 -1.499251e-17)
(0.4920147 0.571843 -1.270806e-19)
(1.197801 1.371904 1.767131e-17)
(0.609934 0.6274742 9.095479e-18)
(-0.5589464 -0.7636343 9.043475e-18)
(-0.1822981 -0.1576626 8.671223e-18)
(0.1122628 0.2230182 0)
(-0.3623378 -0.78048 -3.64254e-20)
(-1.099909 -2.498497 -8.868404e-18)
(-1.597671 -3.895439 0)
(-1.73696 -4.60878 8.848512e-18)
(-1.651189 -4.870718 -6.51712e-20)
(-1.434197 -4.809245 3.141413e-20)
(-1.129175 -4.330419 3.362056e-18)
(-0.7678644 -3.347598 6.426767e-22)
(-0.4097902 -1.942058 0)
(-0.1012998 -0.3403312 9.170006e-19)
(0.0852694 1.204907 6.623804e-21)
(0.1573766 2.617189 1.382831e-21)
(0.1802088 3.829391 -1.549945e-21)
(0.1533774 4.832455 -1.423652e-19)
(0.1105591 1.625073 3.21227e-19)
(-0.2537499 1.401007 0)
(-0.6191135 1.740743 5.478461e-19)
(-1.285382 5.603024 0)
(-0.277876 3.871187 2.623188e-18)
(2.114432 -5.612688 1.843053e-20)
(1.67584 -5.272805 -1.96972e-20)
(0.9852281 -3.833927 -4.018311e-18)
(0.3355602 -1.515361 -3.206709e-18)
(-0.4300855 0.3673625 0)
(-1.073605 1.866113 1.698371e-20)
(-1.470578 2.573134 -2.30417e-21)
(-1.581229 2.650837 -1.67675e-18)
(-1.406841 2.374445 -1.730002e-18)
(-0.5745394 1.268811 -1.934562e-19)
(1.813991 -1.924769 9.474254e-19)
(3.733922 -4.2686 7.082994e-21)
(2.878308 -3.398553 0)
(0.3597903 -1.009257 0)
(-1.701575 1.068297 0)
(-3.286717 2.49988 1.106945e-18)
(-4.852299 3.496276 3.193134e-20)
(-6.772232 4.475113 -3.021411e-20)
(-8.972277 5.531203 7.972558e-20)
(-10.16469 6.268103 -8.142546e-20)
(-9.869819 6.877236 0)
(2.427731 -0.126929 0)
(7.6769 -3.972398 1.296767e-18)
(2.844353 -1.768582 3.103526e-20)
(1.368969 -0.8968715 -3.31948e-20)
(-0.253665 -0.3933019 3.893682e-18)
(-2.087873 0.1963684 5.994109e-18)
(-5.453981 1.532796 -5.555581e-20)
(-6.219372 1.69225 -6.365409e-18)
(2.861796 0.003432422 2.44344e-18)
(11.66637 -0.6480066 4.168934e-22)
(16.56778 -0.5967956 1.046814e-18)
(18.64416 -0.3672063 0)
(19.10944 0.1004111 3.031066e-19)
(19.27039 0.7293806 2.511874e-18)
(19.26844 1.434704 2.592372e-18)
(19.16332 2.145096 2.607055e-18)
(18.97474 2.859003 -8.082993e-20)
(18.72758 3.575945 5.255758e-18)
(18.42888 4.280484 -3.98969e-20)
(18.09309 4.96969 0)
(17.6891 5.623098 9.770004e-18)
(17.22914 6.245892 0)
(16.72796 6.835624 -6.904576e-20)
(16.17842 7.379185 6.925061e-20)
(15.57671 7.873468 8.291957e-18)
(14.92992 8.312059 -5.826291e-20)
(14.24513 8.695233 7.261227e-18)
(13.53008 9.019399 -6.734889e-18)
(12.78796 9.281629 0)
(12.02919 9.490936 4.03822e-20)
(11.26066 9.642874 -4.975522e-18)
(10.47767 9.724193 -8.496952e-18)
(9.684783 9.736688 0)
(8.894488 9.69102 -2.961227e-18)
(8.115915 9.588816 -1.514847e-20)
(7.349618 9.422495 1.609309e-18)
(6.596535 9.191064 4.850664e-21)
(5.863469 8.900488 -4.908647e-21)
(5.154223 8.547946 -3.328947e-19)
(4.472526 8.137241 9.766356e-19)
(3.829067 7.673678 0)
(3.224834 7.162777 0)
(2.664633 6.608309 -2.012654e-20)
(2.152753 6.012206 0)
(1.69214 5.376492 0)
(1.284525 4.705502 0)
(0.9346027 4.010987 -2.358828e-18)
(0.6410875 3.303088 1.900279e-20)
(0.4128585 2.576027 1.109832e-20)
(0.2409865 1.840258 -5.438429e-21)
(0.1328682 1.104446 -7.281059e-19)
(0.09820226 0.3337796 2.977826e-21)
(0.1261726 -0.5117775 -7.356651e-19)
(0.205303 -1.350579 1.40088e-18)
(0.3567728 -2.137553 1.068343e-20)
(0.5723661 -2.889616 -2.524841e-18)
(0.8472279 -3.616674 -3.706105e-20)
(1.181021 -4.317426 2.192111e-18)
(1.569725 -4.985148 -1.952358e-18)
(2.014101 -5.61934 0)
(2.506668 -6.219355 -5.743323e-18)
(3.045851 -6.77054 -1.596724e-20)
(3.628913 -7.275596 1.736302e-18)
(4.250105 -7.738001 1.125998e-18)
(4.906905 -8.144913 0)
(5.597708 -8.498797 0)
(6.314409 -8.803318 0)
(7.04815 -9.042896 1.407412e-20)
(7.794427 -9.213359 -1.398082e-20)
(8.552831 -9.325422 2.772934e-18)
(9.317844 -9.377553 5.29953e-21)
(10.08559 -9.366078 -4.140257e-18)
(10.85044 -9.296063 -7.101152e-20)
(11.60207 -9.162783 1.07062e-17)
(12.33234 -8.96345 5.952362e-18)
(13.03683 -8.701127 -4.843832e-20)
(13.71804 -8.382252 6.945865e-18)
(14.37086 -8.012247 5.672304e-20)
(14.98781 -7.585977 -6.442879e-20)
(15.56128 -7.109335 6.416444e-20)
(16.08749 -6.585185 7.057395e-20)
(16.56601 -6.020057 9.269559e-18)
(16.99244 -5.418377 -7.306612e-20)
(17.35341 -4.78317 0)
(17.66441 -4.12482 0)
(17.93913 -3.456141 0)
(18.16181 -2.789814 0)
(18.30928 -2.127573 1.959555e-20)
(18.34605 -1.50884 -1.944927e-20)
(18.13721 -1.01694 1.179329e-18)
(16.8606 -0.655409 4.52445e-21)
(12.25481 -0.2786123 0)
(6.878341 0.1519679 -1.422116e-18)
(3.782916 0.4729121 3.081944e-18)
(2.748557 0.7568282 -2.731462e-18)
(2.894343 0.9268339 3.188337e-20)
(2.590312 0.2138466 -3.942163e-18)
(-6.551114 -2.775543 2.087716e-20)
(-9.31672 -3.311469 0)
(-7.694814 -2.492677 1.380654e-17)
(-5.330286 -1.699905 -1.85132e-17)
(-3.148362 -1.110029 -6.589291e-18)
(-2.156602 -0.9377595 -6.243609e-21)
(-1.639413 -0.7856779 -8.569516e-20)
(-0.8675199 -0.2378761 3.967413e-20)
(0.6558631 0.8856914 0)
(3.140574 2.571483 2.803434e-18)
(3.613818 2.709512 3.073273e-18)
(1.188445 0.7351408 -6.777238e-21)
(0.1452468 0.01588311 -5.147881e-18)
(-0.02085976 0.00897715 1.246229e-17)
(0.1801688 0.3579206 6.745693e-18)
(0.8972276 1.135489 3.874621e-21)
(1.210222 1.295747 -7.287416e-18)
(0.3038523 0.2487746 -5.839218e-20)
(-0.2683316 -0.3218934 -7.196031e-18)
(-0.5106712 -0.9996003 5.612484e-20)
(-1.239108 -2.672416 3.964053e-22)
(-1.876628 -4.19268 -5.128756e-20)
(-2.079597 -4.857126 0)
(-2.018807 -5.052303 0)
(-1.861669 -5.133582 -6.929947e-18)
(-1.623952 -4.997884 0)
(-1.30021 -4.452947 -5.495794e-18)
(-0.9265075 -3.408641 2.272781e-18)
(-0.567617 -1.946153 -1.286128e-20)
(-0.257582 -0.2944911 1.306592e-20)
(-0.06002093 1.37442 6.371848e-19)
(-0.02777187 2.689724 -2.94029e-19)
(0.03054828 4.287328 -1.409593e-19)
(0.1856626 5.383172 1.14548e-19)
(0.1079861 4.554451 -2.498159e-19)
(-0.4221241 4.08182 7.92668e-21)
(-0.977208 3.472525 -4.429454e-19)
(-1.323672 5.643561 0)
(0.6004239 2.449143 -2.062054e-18)
(2.605382 -5.895979 -2.930887e-20)
(1.512261 -4.87217 2.329878e-18)
(0.6134345 -3.533892 3.247402e-18)
(0.05352906 -1.365892 2.598053e-18)
(-0.7268003 0.5164516 1.967273e-18)
(-1.312281 2.074324 -1.474741e-20)
(-1.683782 2.916593 0)
(-1.808379 3.14139 0)
(-1.58465 2.877742 6.954707e-19)
(-0.8825474 2.147246 -1.220135e-19)
(1.390896 -0.840753 -7.475643e-19)
(3.700992 -4.045536 -1.15915e-20)
(2.484443 -3.244841 0)
(-0.1722884 -0.9883687 -1.062503e-18)
(-1.609181 0.6549894 -2.565878e-19)
(-2.822955 1.880731 -9.12606e-19)
(-4.122285 2.696033 0)
(-5.696971 3.432225 4.192408e-18)
(-7.640488 4.44075 0)
(-8.56882 5.388697 -1.048008e-17)
(-8.816479 7.050124 0)
(-0.2910991 2.241021 -2.034989e-18)
(7.288989 -3.575238 -1.031395e-18)
(6.523371 -3.298545 0)
(6.815689 -2.89421 0)
(6.220661 -2.674056 1.758726e-21)
(4.483312 -2.021316 -4.670379e-18)
(0.7601082 -0.3764625 6.734881e-18)
(-0.264166 0.8265644 1.007974e-17)
(11.24409 -0.2763439 -1.658386e-18)
(17.85875 -0.6974588 1.565696e-18)
(18.81182 -0.4530718 -8.408921e-19)
(18.67154 -0.03360992 0)
(18.63631 0.5762338 0)
(18.69251 1.291424 -2.090572e-18)
(18.68887 2.03359 -2.174101e-18)
(18.61074 2.772314 -4.259508e-18)
(18.45544 3.499538 4.218507e-18)
(18.24112 4.215097 9.921776e-20)
(17.96661 4.899353 -6.576841e-20)
(17.62177 5.559427 0)
(17.21249 6.177937 0)
(16.7497 6.766696 7.652298e-18)
(16.24744 7.323835 -7.380086e-18)
(15.7005 7.831208 0)
(15.10372 8.289342 0)
(14.46521 8.690761 9.560043e-20)
(13.79006 9.038971 -6.053398e-18)
(13.08771 9.327731 0)
(12.36156 9.553693 -4.924683e-18)
(11.61959 9.729499 -4.443418e-18)
(10.87074 9.849018 -3.89079e-18)
(10.11128 9.897219 3.417644e-18)
(9.341765 9.879355 -4.120778e-20)
(8.575872 9.806619 2.380056e-18)
(7.822405 9.679856 0)
(7.083783 9.489698 -1.313273e-18)
(6.359846 9.236255 -7.577939e-21)
(5.65411 8.927672 8.412158e-21)
(4.978223 8.555633 -3.361012e-19)
(4.326521 8.129926 0)
(3.7123 7.653797 -1.364045e-18)
(3.135741 7.133135 -1.59992e-20)
(2.603797 6.570622 2.297408e-18)
(2.117355 5.969279 1.369178e-18)
(1.680817 5.33009 -1.569473e-18)
(1.294471 4.6576 -1.756593e-18)
(0.9625184 3.963089 1.92003e-18)
(0.6829502 3.257283 -2.073583e-18)
(0.4703383 2.532577 -1.071018e-18)
(0.3062621 1.801587 2.272679e-18)
(0.2040674 1.073077 1.191455e-18)
(0.1779846 0.3126202 2.430362e-21)
(0.2111475 -0.5132318 6.086692e-19)
(0.2824897 -1.339063 -9.115781e-21)
(0.4262473 -2.11627 0)
(0.6310239 -2.861631 -1.584699e-20)
(0.890328 -3.584272 -1.370002e-20)
(1.206069 -4.281839 -1.734324e-18)
(1.572536 -4.948351 3.206498e-18)
(1.99575 -5.582159 -1.412819e-18)
(2.462124 -6.185397 2.328908e-18)
(2.972897 -6.742134 1.6681e-20)
(3.529249 -7.254108 0)
(4.121023 -7.727325 9.652234e-19)
(4.747931 -8.147147 2.708668e-21)
(5.410574 -8.515344 6.608355e-20)
(6.097112 -8.838894 0)
(6.801193 -9.099318 1.155609e-18)
(7.521334 -9.291022 0)
(8.25429 -9.427317 -4.748573e-20)
(8.993841 -9.506624 2.763348e-18)
(9.740073 -9.522169 0)
(10.48297 -9.483181 -3.871619e-18)
(11.21481 -9.382736 -4.390424e-18)
(11.92767 -9.217288 -4.879149e-18)
(12.61684 -8.989263 0)
(13.28665 -8.703652 -1.160262e-17)
(13.93011 -8.368229 9.31152e-20)
(14.54047 -7.975546 0)
(15.11006 -7.532894 0)
(15.63528 -7.041451 0)
(16.11635 -6.506614 7.510514e-18)
(16.54533 -5.939283 -7.783332e-18)
(16.9147 -5.335092 0)
(17.21726 -4.69676 0)
(17.45837 -4.03067 4.092626e-18)
(17.63966 -3.342618 3.260676e-20)
(17.7525 -2.649264 0)
(17.81104 -1.961974 0)
(17.89342 -1.34987 -1.955543e-18)
(18.36256 -0.9398076 2.26837e-19)
(17.76243 -0.5277512 0)
(15.62366 0.1938726 9.770849e-19)
(13.34279 0.9723605 2.375376e-20)
(11.47198 1.572078 1.123304e-20)
(7.855863 1.509895 -2.868888e-20)
(1.463498 -0.530547 2.951109e-18)
(-5.504464 -2.965863 4.787323e-18)
(-5.738584 -2.339887 9.697054e-20)
(-5.076661 -1.379769 7.611322e-20)
(-2.754204 -0.3382804 7.728204e-18)
(-0.4985303 0.232407 5.656853e-18)
(0.09083372 0.2187385 0)
(-0.009294099 0.1505842 4.716851e-18)
(0.169102 0.5105458 0)
(0.7748143 1.230856 -3.885089e-20)
(2.60292 2.363795 -2.265442e-18)
(3.000969 2.055552 4.421471e-20)
(0.8915336 0.2196647 -4.484526e-20)
(0.1140669 -0.116185 4.265529e-18)
(-0.1685761 -0.1309109 -5.133268e-18)
(-0.09185333 0.1578734 -5.547808e-18)
(0.4239646 0.6884869 -6.058129e-18)
(1.300921 1.355625 -5.985347e-18)
(0.8856791 0.8744352 0)
(-0.2692271 -0.5576958 2.321568e-21)
(-0.88488 -1.925205 0)
(-1.512665 -3.479721 -5.56907e-18)
(-1.861381 -4.392896 5.723976e-18)
(-1.954593 -4.780365 0)
(-1.931136 -5.044166 0)
(-1.809977 -5.158159 1.145617e-17)
(-1.617996 -5.011285 -2.596065e-18)
(-1.362147 -4.446278 4.497266e-18)
(-1.044534 -3.376409 -1.293819e-20)
(-0.7188581 -1.884731 1.309816e-20)
(-0.4137575 -0.2338519 0)
(-0.2046437 1.359742 -5.128642e-19)
(-0.1251705 2.835993 4.679376e-19)
(-0.03579069 3.901352 1.171021e-19)
(0.06678029 5.185378 -1.92359e-19)
(0.03035137 5.737497 -6.379421e-21)
(-0.4846339 5.71536 6.661744e-21)
(-1.127487 4.566552 -1.075455e-20)
(-1.089121 5.172373 1.156834e-20)
(1.67015 0.8580344 8.255371e-19)
(2.889243 -5.335747 -2.42174e-20)
(1.346639 -4.69593 -1.909639e-18)
(0.2314394 -3.264964 4.862674e-20)
(-0.276325 -1.200491 -2.110755e-18)
(-1.052337 0.6433967 -1.895146e-20)
(-1.534512 2.172453 0)
(-1.830113 3.024371 0)
(-1.945954 3.321904 -1.140311e-18)
(-1.747795 3.251382 -5.962364e-19)
(-0.9973582 2.765917 1.831697e-19)
(0.7713818 0.6428192 6.000244e-19)
(3.156634 -3.138527 0)
(1.828546 -2.929688 0)
(-0.6759259 -0.987538 1.695932e-18)
(-1.270788 0.07238748 4.026191e-19)
(-2.048614 1.029497 2.14198e-20)
(-2.984959 1.591192 -6.502799e-20)
(-4.316147 2.114241 -6.967971e-18)
(-6.330769 3.200451 -5.93143e-18)
(-7.279033 4.429904 8.975258e-18)
(-6.342599 6.398621 6.567763e-18)
(-1.269745 3.868404 1.524332e-18)
(7.409798 -3.001008 4.137122e-19)
(9.881969 -4.395102 0)
(11.24185 -4.425342 -5.980278e-20)
(11.57346 -4.523814 -4.375505e-18)
(11.10151 -4.023182 2.665631e-20)
(9.757351 -2.307559 -3.147675e-20)
(10.72074 -0.3517277 -3.512066e-18)
(17.4359 -0.4120418 -1.219724e-18)
(19.00757 -0.7292126 -1.814768e-20)
(18.28678 -0.655957 -6.980292e-19)
(18.40713 -0.3557566 -3.779253e-19)
(18.63748 0.15179 -3.113944e-21)
(18.8 0.7911127 0)
(18.85431 1.488834 -2.713971e-20)
(18.80804 2.205734 1.789579e-18)
(18.67278 2.916347 -6.972939e-18)
(18.46772 3.636373 5.347543e-20)
(18.1973 4.332175 -3.417675e-18)
(17.85838 5.005118 -1.024309e-19)
(17.45499 5.637635 -6.422984e-18)
(16.99571 6.244735 -3.954152e-21)
(16.49584 6.825554 6.087281e-18)
(15.95222 7.353605 -5.718308e-18)
(15.35765 7.835152 0)
(14.72052 8.259359 7.728425e-20)
(14.04464 8.632881 -7.77838e-20)
(13.33962 8.948104 0)
(12.60864 9.201497 4.057132e-18)
(11.86065 9.404446 7.503273e-20)
(11.10442 9.551015 3.252758e-18)
(10.3375 9.624988 -2.748542e-18)
(9.561986 9.629256 -2.311814e-18)
(8.786179 9.580232 -1.924527e-18)
(8.023553 9.475528 -1.441564e-18)
(7.276183 9.30557 1.242676e-20)
(6.542257 9.071385 -1.254986e-20)
(5.825971 8.781447 0)
(5.139241 8.426734 2.756235e-19)
(4.476236 8.017136 -1.43722e-20)
(3.851532 7.55522 1.135144e-18)
(3.264775 7.047322 1.506851e-18)
(2.725076 6.495475 -1.875296e-18)
(2.230812 5.903712 -1.123923e-18)
(1.787052 5.272857 -4.845423e-21)
(1.393712 4.607617 1.44128e-18)
(1.057653 3.918406 2.539891e-20)
(0.7726291 3.217579 1.662116e-18)
(0.559208 2.495793 1.416029e-20)
(0.3930478 1.767416 -9.499782e-19)
(0.2904586 1.043815 -4.856344e-19)
(0.2718434 0.2914911 -6.057905e-23)
(0.3114378 -0.5118881 4.825957e-19)
(0.3773848 -1.325307 7.465383e-21)
(0.5178298 -2.094596 -9.043745e-19)
(0.7232573 -2.833151 1.712751e-18)
(0.983963 -3.548044 0)
(1.30229 -4.236721 -2.745462e-21)
(1.671559 -4.893691 -1.318711e-18)
(2.100313 -5.51727 1.190964e-18)
(2.570676 -6.110678 -2.001175e-18)
(3.089961 -6.65458 2.20623e-20)
(3.65656 -7.152984 -2.185841e-20)
(4.254135 -7.614271 -7.93261e-19)
(4.890324 -8.018771 0)
(5.566543 -8.368882 -6.064785e-20)
(6.260926 -8.67708 1.514196e-20)
(6.973833 -8.919442 -5.372279e-20)
(7.704291 -9.091175 -1.318134e-18)
(8.445852 -9.207834 -1.850439e-18)
(9.193236 -9.266392 -1.769718e-20)
(9.946941 -9.259872 2.646879e-18)
(10.6981 -9.196836 -4.497015e-20)
(11.4358 -9.072937 -3.495479e-18)
(12.15402 -8.882298 0)
(12.84951 -8.626753 4.274318e-18)
(13.52296 -8.316075 4.712113e-18)
(14.1669 -7.958227 4.893331e-18)
(14.77679 -7.542945 -5.214136e-18)
(15.34425 -7.079845 5.590806e-18)
(15.86681 -6.568295 0)
(16.34491 -6.01434 -1.22951e-17)
(16.77012 -5.43333 1.284882e-17)
(17.13459 -4.815672 -1.523105e-19)
(17.43376 -4.168808 -3.30724e-18)
(17.66774 -3.497772 -3.357414e-18)
(17.82888 -2.824686 0)
(17.9008 -2.157667 1.720217e-18)
(17.87876 -1.528685 -1.693037e-18)
(17.73676 -0.9883828 8.196682e-19)
(17.80487 -0.6669144 -1.970746e-19)
(18.32225 -0.3515609 -3.79227e-19)
(18.42087 0.3956314 1.189371e-20)
(17.7087 1.35095 -1.605467e-18)
(16.45439 1.987651 2.000054e-20)
(13.04071 1.765333 0)
(3.568502 -0.7841317 0)
(-2.432069 -2.593797 -1.479896e-19)
(-2.528927 -1.350385 1.727217e-19)
(-2.046075 -0.02186837 0)
(-0.1159077 1.12105 0)
(1.873759 1.547738 0)
(2.710311 1.553996 3.951441e-18)
(2.348996 1.392282 -7.485778e-18)
(1.833943 1.514523 3.168381e-18)
(1.406593 1.790311 -2.176774e-18)
(2.026575 2.04009 -6.417948e-20)
(2.1625 1.165513 2.078122e-18)
(0.8253777 -0.08948737 2.647843e-18)
(0.1197616 -0.2003501 5.990608e-20)
(-0.2880151 -0.2643324 8.663048e-21)
(-0.3897641 -0.09192286 -6.792906e-20)
(-0.1276498 0.2446771 -7.809066e-20)
(1.037623 1.082991 5.183511e-18)
(1.067844 0.9194311 0)
(-0.2396799 -0.8808271 4.689117e-18)
(-0.9440889 -2.383428 -4.546818e-18)
(-1.453983 -3.648982 4.550274e-18)
(-1.740876 -4.312768 0)
(-1.907728 -4.73423 0)
(-1.940451 -5.029431 -7.518598e-20)
(-1.84853 -5.147697 -4.722778e-18)
(-1.67064 -5.002714 2.20656e-18)
(-1.459949 -4.408466 -1.841719e-18)
(-1.189794 -3.281507 0)
(-0.8974594 -1.743074 0)
(-0.5990581 -0.1176194 0)
(-0.3896806 1.457417 -4.128559e-19)
(-0.2747596 2.92318 -1.970045e-19)
(-0.2007945 3.985313 -1.907668e-19)
(-0.07358144 5.067185 8.073648e-20)
(-0.06747531 5.831012 0)
(-0.433141 6.139913 -3.398827e-19)
(-1.085492 4.922442 0)
(-0.5621804 4.229561 -5.738028e-19)
(2.76307 -0.5621258 0)
(3.03282 -4.519714 0)
(1.213065 -4.56642 -1.623369e-18)
(-0.1739147 -3.083284 -2.234555e-18)
(-0.6221149 -1.151986 1.737854e-18)
(-1.39119 0.7267566 -1.285309e-18)
(-1.761618 2.264948 1.229672e-18)
(-1.944581 3.076003 0)
(-1.964714 3.346971 1.894952e-18)
(-1.756147 3.387006 4.901593e-19)
(-1.036488 3.194967 -6.999427e-20)
(0.257206 2.034014 7.785526e-21)
(2.259566 -1.645916 1.706879e-20)
(0.9811519 -2.30017 6.124855e-19)
(-1.052547 -0.9931823 -1.356717e-18)
(-0.7013347 -0.5769944 -1.603965e-19)
(-0.9949989 0.02173575 3.610534e-20)
(-1.59309 0.3112871 1.579568e-18)
(-3.072601 0.8073358 2.935491e-18)
(-5.080857 1.912282 4.95325e-18)
(-5.626837 3.356929 0)
(-3.744113 5.547051 2.715019e-19)
(-0.67952 4.683781 0)
(8.146307 -2.340875 2.944129e-19)
(12.22493 -4.828282 1.522664e-18)
(13.94499 -5.205003 2.545689e-18)
(15.10754 -5.582812 -9.60875e-20)
(16.34768 -5.362762 6.585161e-20)
(17.2502 -3.751543 -6.739779e-18)
(17.95492 -1.275046 0)
(19.275 -0.4640652 -9.870742e-19)
(18.19316 -0.6263207 -1.084645e-18)
(17.88075 -0.4683422 1.173266e-18)
(18.16604 -0.01966614 2.979667e-19)
(18.3559 0.5665539 0)
(18.49272 1.241876 6.860124e-19)
(18.53294 1.94987 0)
(18.48341 2.652049 0)
(18.34573 3.34749 2.913018e-18)
(18.14097 4.051141 -4.423484e-20)
(17.87423 4.720323 4.907503e-20)
(17.53854 5.363853 -2.689333e-18)
(17.14197 5.96211 5.393628e-18)
(16.68972 6.535631 -5.132699e-18)
(16.19972 7.085371 -4.93661e-18)
(15.67208 7.572597 2.292268e-19)
(15.09129 8.020759 -1.428748e-19)
(14.4717 8.409185 -1.254941e-19)
(13.81261 8.752551 -3.603078e-18)
(13.12681 9.039467 -3.659675e-18)
(12.41589 9.26474 -9.609255e-20)
(11.68569 9.445896 3.051042e-18)
(10.9521 9.570273 0)
(10.20954 9.622216 2.263335e-18)
(9.45248 9.611412 1.903162e-18)
(8.696098 9.549359 1.487121e-18)
(7.955232 9.433121 1.186166e-18)
(7.228659 9.254253 0)
(6.515637 9.011583 0)
(5.816805 8.718166 7.063859e-20)
(5.150374 8.359132 0)
(4.501897 7.949558 0)
(3.893352 7.4883 9.962495e-19)
(3.323571 6.981541 -1.713605e-20)
(2.794139 6.433922 -1.472243e-20)
(2.307943 5.846375 -3.096246e-20)
(1.872629 5.219643 2.157056e-18)
(1.488093 4.558222 0)
(1.161402 3.872339 0)
(0.8729727 3.178397 1.407748e-18)
(0.664174 2.45923 7.090921e-19)
(0.4975367 1.732494 7.665127e-19)
(0.3944108 1.013831 -3.976087e-19)
(0.3835176 0.2690204 0)
(0.4330963 -0.506734 -4.231948e-22)
(0.4935182 -1.307894 2.386462e-20)
(0.622141 -2.069988 7.175787e-19)
(0.8213188 -2.799683 -1.404079e-18)
(1.077525 -3.50499 -3.968748e-20)
(1.391652 -4.185026 1.21004e-18)
(1.756189 -4.834088 3.563109e-20)
(2.179766 -5.450927 1.918467e-18)
(2.636734 -6.04079 -1.210594e-20)
(3.142744 -6.581027 -1.371846e-18)
(3.700511 -7.07675 3.642871e-20)
(4.283752 -7.538827 0)
(4.899705 -7.946068 3.570097e-19)
(5.56191 -8.29858 0)
(6.24204 -8.611751 0)
(6.932792 -8.863836 -7.470637e-19)
(7.643707 -9.044901 2.166438e-18)
(8.368385 -9.171912 5.076578e-20)
(9.095371 -9.244576 -1.008729e-19)
(9.829293 -9.25346 -2.173525e-18)
(10.56029 -9.20992 -2.474903e-18)
(11.2781 -9.107223 2.974713e-18)
(11.97528 -8.941777 -3.236316e-18)
(12.64947 -8.71441 -6.948453e-20)
(13.30604 -8.429879 0)
(13.93238 -8.103446 -4.235733e-18)
(14.52681 -7.719223 8.932084e-18)
(15.07988 -7.290461 -4.75551e-18)
(15.58907 -6.814193 0)
(16.05742 -6.295151 8.596764e-20)
(16.47434 -5.748019 -5.147604e-18)
(16.83271 -5.160631 -8.222943e-20)
(17.12837 -4.540321 1.31096e-19)
(17.36026 -3.889876 -8.584595e-20)
(17.52222 -3.230924 0)
(17.60206 -2.565945 -2.742663e-18)
(17.59721 -1.912397 1.31782e-18)
(17.51393 -1.308488 6.503153e-19)
(17.42069 -0.8271135 -1.003851e-20)
(17.65387 -0.3602694 3.121641e-19)
(18.03967 0.4296227 6.315058e-19)
(17.8472 1.383958 0)
(17.30078 1.916946 1.153497e-18)
(16.09638 1.55109 -5.471719e-20)
(7.927484 -0.8222465 1.812905e-18)
(1.764214 -1.852098 0)
(1.05055 -0.2345814 0)
(1.620573 1.592481 0)
(3.011026 2.79455 6.58585e-20)
(4.482051 2.976079 3.449815e-18)
(5.239776 2.835491 -3.252376e-18)
(4.874537 2.655177 3.033076e-18)
(3.899169 2.617633 -5.028643e-18)
(2.555496 2.481963 1.824428e-18)
(1.76358 1.770841 0)
(1.620621 0.5084682 -1.719721e-18)
(0.9214757 -0.1944024 -2.155927e-18)
(0.1556952 -0.2841371 3.004707e-18)
(-0.3849293 -0.4200257 -1.011444e-19)
(-0.703304 -0.3878231 -1.221363e-19)
(-0.673082 -0.1710714 1.2111e-19)
(0.6468042 0.697934 0)
(1.004819 0.5916514 -4.018855e-18)
(-0.2051717 -1.286701 1.186066e-19)
(-0.8322636 -2.590102 7.269873e-18)
(-1.30728 -3.664141 -3.854932e-18)
(-1.631683 -4.292317 2.423688e-19)
(-1.839221 -4.756598 -4.163751e-18)
(-1.903262 -5.061434 0)
(-1.853789 -5.160373 -3.891196e-18)
(-1.723659 -4.97202 1.808166e-18)
(-1.572728 -4.308208 -9.375349e-20)
(-1.361127 -3.109353 1.31904e-18)
(-1.107663 -1.542999 -4.89293e-20)
(-0.8076796 0.02921603 1.413369e-20)
(-0.5897166 1.593204 3.40564e-19)
(-0.4518663 3.028809 -2.430057e-21)
(-0.3223006 4.171508 2.202833e-21)
(-0.2337505 5.186961 4.257971e-21)
(-0.149632 5.758164 1.31855e-19)
(-0.3405826 6.109588 2.777827e-19)
(-0.8779427 4.983651 -2.415319e-19)
(0.2200617 3.078475 4.581917e-19)
(3.684681 -1.518668 0)
(3.086866 -3.777021 1.054025e-18)
(1.021692 -4.33432 1.419404e-18)
(-0.6934716 -2.956025 1.822086e-18)
(-0.9416847 -1.184319 0)
(-1.765442 0.7459374 0)
(-1.997131 2.32636 -1.003092e-18)
(-2.04429 3.111212 -2.723669e-20)
(-1.965857 3.333867 -7.578706e-19)
(-1.677751 3.370632 -4.454323e-19)
(-0.9976428 3.427281 -2.069785e-20)
(0.01674864 2.969814 -3.297872e-19)
(1.197916 0.1851055 4.133088e-19)
(0.0468238 -1.392723 -5.002072e-19)
(-1.188715 -1.016184 5.418089e-19)
(0.06886684 -1.226617 0)
(0.2205129 -1.070835 0)
(-0.3625378 -0.9332905 -1.345503e-18)
(-1.922313 -0.5205376 0)
(-3.46436 0.3678201 -1.636385e-19)
(-3.331089 1.899986 -2.773296e-20)
(-1.2182 4.635267 -4.772849e-18)
(1.094557 4.909044 -9.310538e-20)
(9.315178 -1.571987 1.066472e-19)
(13.10704 -4.516402 -1.205864e-18)
(14.3129 -5.076771 7.796462e-21)
(15.7824 -5.634295 1.427772e-18)
(17.65405 -5.625578 -7.05609e-20)
(19.29767 -4.234197 2.757645e-18)
(19.69321 -1.837745 -6.800711e-20)
(18.79281 -0.6576133 3.443586e-18)
(17.78476 -0.7323278 2.868865e-20)
(17.95293 -0.5902758 -5.057858e-21)
(18.18214 -0.2221242 -5.055752e-19)
(18.38482 0.284873 -4.13777e-21)
(18.52205 0.9015864 -5.654258e-19)
(18.56453 1.576581 -3.58153e-20)
(18.51392 2.269059 -1.106429e-18)
(18.37387 2.958087 2.273105e-18)
(18.16976 3.666966 -2.250758e-18)
(17.91068 4.333924 4.317199e-18)
(17.57856 5.000255 2.354044e-18)
(17.18393 5.613937 0)
(16.73066 6.206114 0)
(16.24157 6.777381 4.002967e-18)
(15.71514 7.283741 3.817417e-18)
(15.1349 7.750042 0)
(14.51856 8.150199 -1.008592e-19)
(13.85974 8.508169 3.26733e-18)
(13.17126 8.81497 2.916269e-18)
(12.46151 9.052417 2.569437e-18)
(11.73751 9.239382 -6.87751e-20)
(11.0059 9.376769 -1.974644e-18)
(10.26054 9.445469 5.093628e-20)
(9.508232 9.440993 -5.142374e-20)
(8.760283 9.382997 -1.255259e-18)
(8.02228 9.276744 9.238154e-19)
(7.291759 9.113777 0)
(6.586776 8.875862 0)
(5.890428 8.593015 -8.729293e-20)
(5.232762 8.240353 -8.799762e-21)
(4.588763 7.839781 -8.438394e-21)
(3.995603 7.383217 -7.684118e-19)
(3.433704 6.883968 -2.076257e-18)
(2.896699 6.352943 1.211521e-18)
(2.412738 5.7767 -1.496209e-18)
(1.982078 5.159263 -8.442495e-19)
(1.606826 4.504259 -2.907603e-20)
(1.287862 3.820821 0)
(0.9914712 3.137757 -1.098905e-18)
(0.7942769 2.423616 -3.69134e-20)
(0.6232174 1.697472 -6.375655e-19)
(0.5193964 0.9845193 3.407888e-19)
(0.5170829 0.2460929 1.341053e-23)
(0.5762579 -0.4987923 -3.433012e-19)
(0.623089 -1.290898 2.950797e-20)
(0.74748 -2.041968 -6.251965e-19)
(0.9393668 -2.757046 1.150054e-18)
(1.190295 -3.45103 -1.112421e-18)
(1.500719 -4.122232 2.515104e-21)
(1.861057 -4.761857 9.253654e-19)
(2.288826 -5.367875 -1.527139e-18)
(2.736644 -5.95233 1.328377e-18)
(3.231499 -6.487343 1.026794e-18)
(3.789992 -6.974361 7.909294e-21)
(4.380391 -7.424249 8.338681e-21)
(4.988116 -7.825122 -2.793679e-19)
(5.633334 -8.179263 4.097417e-20)
(6.313285 -8.484247 1.308974e-20)
(7.002408 -8.726818 5.322534e-19)
(7.705078 -8.902017 -1.733798e-18)
(8.42171 -9.025632 1.146304e-18)
(9.153275 -9.081261 -5.127241e-20)
(9.884112 -9.080819 -1.746056e-18)
(10.60732 -9.033814 4.07181e-18)
(11.32501 -8.918506 7.578021e-20)
(12.019 -8.743355 2.510544e-18)
(12.69314 -8.500826 -2.935894e-18)
(13.35132 -8.200383 9.118726e-20)
(13.97637 -7.86158 -3.347054e-18)
(14.57121 -7.459438 -3.42806e-18)
(15.12339 -7.015317 1.182509e-19)
(15.63372 -6.516916 -3.949249e-18)
(16.10237 -5.97692 4.080915e-18)
(16.51892 -5.411353 0)
(16.87523 -4.807568 0)
(17.16721 -4.171676 2.216067e-18)
(17.39614 -3.523278 2.213503e-18)
(17.56018 -2.870033 0)
(17.64151 -2.228961 1.174418e-18)
(17.63294 -1.617744 1.068301e-18)
(17.54688 -1.080742 -5.460814e-19)
(17.44331 -0.6586969 1.257051e-19)