/*--------------------------------*- C++ -*----------------------------------*\
| =========                 |                                                 |
| \\      /  F ield         | OpenFOAM: The Open Source CFD Toolbox           |
|  \\    /   O peration     | Version:  2406                                  |
|   \\  /    A nd           | Website:  www.openfoam.com                      |
|    \\/     M anipulation  |                                                 |
\*---------------------------------------------------------------------------*/
FoamFile
{
    version     2.0;
    format      ascii;
    arch        "LSB;label=32;scalar=64";
    class       volScalarField;
    location    "1.88";
    object      p;
}
// * * * * * * * * * * * * * * * * * * * * * * * * * * * * * * * * * * * * * //

dimensions      [0 2 -2 0 0 0 0];

internalField   nonuniform List<scalar> 
217010
(
-160.7787
-103.2011
-110.4564
-111.788
-111.2261
-106.8276
-105.8326
-105.981
-104.8339
-102.8189
-102.5354
-102.3807
-101.4643
-100.7065
-99.8701
-99.1197
-98.49477
-98.13914
-98.10255
-98.30856
-98.35987
-98.58633
-98.52987
-98.51
-98.29714
-98.09247
-98.04464
-97.35266
-96.43174
-96.2016
-96.38118
-96.7853
-97.45419
-98.2344
-98.91352
-99.54749
-100.1205
-100.4987
-100.5817
-100.3161
-100.1145
-100.4482
-101.506
-103.1735
-104.8606
-106.3243
-107.8
-109.5813
-113.0564
-114.4481
-141.8566
-126.9494
-130.1792
-131.7953
-133.4532
-135.7487
-138.6728
-141.6372
-144.4373
-146.7684
-148.4521
-149.4964
-149.8157
-149.3016
-147.898
-145.6659
-142.7195
-139.0832
-134.87
-130.1666
-125.072
-119.7655
-114.4561
-109.1682
-103.9715
-99.0022
-94.10187
-89.47247
-85.0339
-81.04944
-77.39833
-74.03874
-71.0732
-68.2987
-65.70372
-63.38556
-61.22307
-59.2176
-57.23666
-55.43572
-53.96213
-52.39212
-50.96198
-51.60273
-53.06876
-50.38849
-44.81846
-40.69398
-37.75029
-34.16436
-28.63053
-39.12697
-56.95306
-52.389
-37.78625
-28.2981
-24.88586
-23.33704
-21.29104
-18.4353
-15.40025
-12.36417
-8.886578
-6.622656
-7.925429
-11.84165
-16.44657
-22.93893
-27.59047
-29.75562
-29.94405
-28.64813
-26.59212
-24.29806
-22.7677
-22.35495
-22.36219
-22.46283
-22.68444
-22.91636
-22.93264
-22.71241
-22.37438
-21.94184
-20.97923
-18.88039
-16.53124
-13.20737
-11.79538
-12.49095
-15.23647
-20.50131
-27.90344
-36.19791
-44.20803
-50.8682
-55.4569
-56.22445
-54.42742
-37.19231
-44.59481
-69.60268
-108.2592
-115.5417
-107.3885
-98.21169
-97.16635
-93.62612
-77.1276
-54.68787
-34.5223
-16.79628
-5.687688
-5.752166
-13.28918
-25.15933
-45.20352
-65.51449
-83.46752
-100.2733
-119.0821
-137.3171
-153.2861
-165.3344
-171.7297
-172.5454
-169.5208
-161.9464
-149.9359
-137.3619
-131.2572
-144.6444
-154.8887
-141.5836
-122.8834
-114.8617
-115.5916
-115.6388
-115.4147
-117.6183
-119.9707
-120.665
-118.9954
-117.5586
-115.1886
-115.6702
-118.2324
-120.6561
-112.6306
-182.7642
-90.01437
-79.22995
-65.37723
-57.38659
-50.5092
-44.86643
-40.01929
-35.6367
-31.84966
-28.42393
-25.32861
-22.50992
-19.86141
-17.37471
-15.05877
-12.92121
-10.92776
-9.021461
-7.209438
-5.487428
-3.845044
-2.291369
-0.8272802
0.6032446
1.995465
3.349894
4.639022
5.857528
7.027365
8.173222
9.301232
10.40572
11.45263
12.46308
13.46225
14.43893
15.40556
16.35866
17.3021
18.18503
19.11154
19.97958
20.83988
21.67837
22.50863
23.32082
24.12032
24.91836
25.72587
26.52453
27.30398
28.06692
28.82332
29.58844
30.353
31.10395
31.83355
32.54438
33.21494
33.83936
34.44924
35.11429
35.88493
36.71509
37.45656
37.97688
38.2721
38.42415
38.55432
38.65534
36.06768
53.31053
50.91491
50.20792
49.0683
47.88176
46.78734
45.70919
44.65448
43.67538
42.73306
41.74058
40.72751
39.7351
38.78464
37.8531
36.92034
35.97513
35.0283
34.10543
33.19124
32.26275
31.33242
30.41262
29.4793
28.55016
27.60764
26.62869
25.66436
24.71928
23.76555
22.7876
21.77363
20.78607
19.76693
18.71841
17.66491
16.60419
15.50827
14.39609
13.28103
12.14028
10.939
9.686059
8.435137
7.187201
5.888849
4.531737
3.133622
1.672102
0.1526555
-1.409752
-3.023725
-4.666055
-6.417622
-8.285452
-10.22811
-12.285
-14.43929
-16.7586
-19.27026
-21.94023
-24.80486
-27.99786
-31.54647
-35.5651
-40.02869
-45.19699
-51.53853
-58.94877
-71.3391
-82.2714
52.81419
51.04275
50.31399
49.21501
48.02407
46.91731
45.8308
44.76668
43.77723
42.82961
41.83522
40.81833
39.81957
38.86295
37.92699
36.99109
36.04295
35.09236
34.16567
33.24833
32.31723
31.38407
30.46157
29.52565
28.5944
27.64991
26.66887
25.70194
24.75424
23.79841
22.81879
21.80254
20.81391
19.79205
18.74163
17.68645
16.62408
15.52633
14.41252
13.29573
12.15347
10.95018
9.695264
8.442681
7.193196
5.892695
4.533816
3.134073
1.670218
0.1480446
-1.417138
-3.033948
-4.678298
-6.434656
-8.306913
-10.25367
-12.31623
-14.47527
-16.80264
-19.32309
-22.00081
-24.87565
-28.08224
-31.64472
-35.69396
-40.18238
-45.39044
-51.78018
-59.33583
-71.71362
-84.14271
-92.22396
-79.63063
-65.81322
-57.6503
-50.72352
-45.03455
-40.16006
-35.74158
-31.93958
-28.50124
-25.39282
-22.56522
-19.9087
-17.41414
-15.09084
-12.94702
-10.9495
-9.039025
-7.22292
-5.497449
-3.852047
-2.29502
-0.8290083
0.6032624
1.997323
3.353777
4.644947
5.864979
7.036313
8.183768
9.313382
10.41953
11.46798
12.47961
13.4804
14.45853
15.42689
16.38147
17.32655
18.21257
19.13964
20.00882
20.87066
21.71082
22.54256
23.35639
24.15779
24.95824
25.76779
26.568
27.34886
28.11354
28.87238
29.63984
30.40606
31.15792
31.88811
32.59842
33.26731
33.89126
34.50587
35.18368
35.96692
36.79815
37.52357
38.02009
38.29605
38.43721
38.56943
38.47819
38.09446
-36.58261
-65.33757
-107.0878
-116.6577
-108.5619
-98.80701
-97.43649
-94.49243
-78.67633
-56.46203
-36.05889
-17.90385
-6.000445
-5.642247
-12.92461
-24.54907
-44.36705
-64.6863
-82.79253
-99.66064
-118.4849
-136.7817
-152.849
-165.0807
-171.6545
-172.5748
-169.6724
-162.2211
-150.1856
-137.4387
-131.1361
-144.5781
-155.0854
-141.7263
-122.9124
-114.8554
-115.5922
-115.6396
-115.417
-117.6551
-120.0037
-120.6682
-118.9662
-117.5129
-115.1588
-115.7446
-118.3337
-120.6562
-114.4323
-169.6834
-139.1711
-127.7179
-129.9699
-131.5548
-133.1899
-135.4299
-138.3401
-141.3391
-144.1983
-146.6062
-148.365
-149.4718
-149.8565
-149.425
-148.086
-145.9024
-142.9911
-139.3806
-135.1841
-130.4914
-125.3968
-120.0751
-114.747
-109.44
-104.2178
-99.2304
-94.30665
-89.65484
-85.19153
-81.18428
-77.51462
-74.13636
-71.1603
-68.37442
-65.76588
-63.44113
-61.26953
-59.25864
-57.27125
-55.46653
-53.98042
-52.40333
-50.93957
-51.59085
-53.10764
-50.46342
-44.84892
-40.71246
-37.77305
-34.18219
-28.61299
-39.24204
-57.22583
-52.51034
-37.72348
-28.22928
-24.85019
-23.31666
-21.26703
-18.40165
-15.3632
-12.33083
-8.86303
-6.6276
-8.001352
-11.97579
-16.62845
-23.09601
-27.6979
-29.79232
-29.92994
-28.59604
-26.50633
-24.20818
-22.7206
-22.34782
-22.36612
-22.4714
-22.69746
-22.9236
-22.92749
-22.69122
-22.34722
-21.88961
-20.86836
-18.70469
-16.31701
-13.04574
-11.78593
-12.64519
-15.60059
-21.11435
-28.72087
-37.11401
-45.10391
-51.64758
-55.97848
-56.45668
-53.5788
-35.84211
-149.3381
-104.7079
-110.5808
-111.8352
-111.3979
-106.9354
-105.8319
-105.9974
-104.8858
-102.8484
-102.5537
-102.3896
-101.4728
-100.7093
-99.8747
-99.12017
-98.49358
-98.13719
-98.10203
-98.30917
-98.36066
-98.58907
-98.5302
-98.50959
-98.29345
-98.08995
-98.03827
-97.3362
-96.41984
-96.20283
-96.3924
-96.80604
-97.48945
-98.26775
-98.94515
-99.57647
-100.1443
-100.5107
-100.5776
-100.3067
-100.124
-100.5123
-101.6491
-103.3535
-105.031
-106.4785
-107.9815
-109.8961
-113.3328
-115.8315
-137.778
-105.3885
-110.5522
-111.7448
-111.7272
-107.0721
-105.7933
-106.0107
-104.9397
-102.8958
-102.5961
-102.4081
-101.4829
-100.7119
-99.87636
-99.11904
-98.48969
-98.13214
-98.09975
-98.31033
-98.36176
-98.59586
-98.53337
-98.51633
-98.29813
-98.09415
-98.04056
-97.32948
-96.41526
-96.20801
-96.40056
-96.81528
-97.49868
-98.2867
-98.95837
-99.59754
-100.1677
-100.5278
-100.5817
-100.3047
-100.1419
-100.5586
-101.7117
-103.3984
-105.051
-106.508
-108.0344
-110.0234
-113.5345
-116.0917
-137.107
-127.8714
-129.7908
-131.5843
-133.1399
-135.3632
-138.2285
-141.2033
-144.0562
-146.4803
-148.2785
-149.4198
-149.8144
-149.3812
-148.066
-145.9054
-143.0283
-139.4513
-135.2774
-130.5986
-125.5163
-120.2006
-114.8712
-109.5599
-104.3342
-99.33998
-94.41002
-89.74998
-85.27571
-81.25826
-77.57697
-74.18816
-71.20556
-68.40594
-65.79618
-63.466
-61.29503
-59.29642
-57.30808
-55.51389
-54.01559
-52.42962
-50.99515
-51.62811
-53.08512
-50.45831
-44.90138
-40.75244
-37.788
-34.15683
-28.54751
-39.55249
-57.80264
-52.73542
-37.69777
-28.16785
-24.82324
-23.31802
-21.26763
-18.39031
-15.3469
-12.32306
-8.869728
-6.644574
-8.021309
-12.10595
-16.86219
-23.32523
-27.85449
-29.88852
-29.97798
-28.58177
-26.46078
-24.1568
-22.68286
-22.33599
-22.36238
-22.47258
-22.70379
-22.92807
-22.92748
-22.695
-22.34393
-21.87606
-20.83434
-18.65305
-16.21902
-12.96087
-11.82024
-12.80332
-15.87917
-21.52219
-29.18012
-37.53455
-45.4237
-51.79735
-55.8887
-56.19329
-52.82489
-34.57877
-30.40725
-62.52382
-106.1263
-116.7129
-109.3175
-99.41901
-97.73632
-95.09871
-79.6191
-57.32169
-36.77687
-18.59649
-6.423388
-5.712957
-12.79031
-24.24544
-43.987
-64.38732
-82.5275
-99.42975
-118.3124
-136.6652
-152.9223
-165.2794
-171.7909
-172.7343
-169.9874
-162.8276
-150.9344
-137.7718
-131.1296
-144.6041
-155.5283
-142.0491
-123.0153
-114.8397
-115.5791
-115.6392
-115.4088
-117.6656
-120.0465
-120.6858
-118.9575
-117.4855
-115.1372
-115.718
-118.3005
-120.6721
-115.0724
-155.7509
-92.15251
-79.89968
-66.01607
-57.78591
-50.82689
-45.11282
-40.21943
-35.80412
-31.97628
-28.53501
-25.41996
-22.58949
-19.93075
-17.43224
-15.10576
-12.95832
-10.96099
-9.048574
-7.230675
-5.503629
-3.857438
-2.297703
-0.8319677
0.6012959
1.996495
3.354442
4.647298
5.86745
7.038822
8.186615
9.316693
10.42452
11.47377
12.48425
13.486
14.46437
15.43456
16.38998
17.33573
18.21465
19.14661
20.0171
20.87989
21.71987
22.55219
23.36617
24.16771
24.96807
25.77914
26.58047
27.3614
28.12617
28.88489
29.65355
30.42105
31.17422
31.90476
32.61625
33.28631
33.91207
34.52936
35.20814
35.99022
36.82311
37.54739
38.03654
38.30141
38.44474
38.55869
38.45422
38.84063
52.48527
51.07991
50.3271
49.24988
48.06295
46.95363
45.86049
44.79083
43.8018
42.85765
41.86093
40.84235
39.84008
38.88243
37.94567
37.00992
36.06011
35.10709
34.18058
33.26334
32.33069
31.39689
30.47484
29.53687
28.60723
27.66251
26.67775
25.71086
24.76355
23.80765
22.82558
21.8101
20.82152
19.802
18.74903
17.69336
16.63079
15.53105
14.41699
13.30095
12.15923
10.95389
9.69678
8.444294
7.195644
5.893589
4.534078
3.133898
1.667773
0.1440347
-1.422546
-3.040338
-4.683501
-6.443159
-8.31752
-10.2647
-12.33086
-14.48971
-16.82217
-19.34628
-22.02593
-24.90445
-28.11706
-31.70269
-35.74639
-40.25265
-45.48108
-51.90499
-59.51267
-71.95032
-83.84406
52.00548
51.10603
50.39197
49.3839
48.2137
47.09369
45.9903
44.91401
43.91681
42.96561
41.96445
40.94303
39.93548
38.97222
38.0306
37.09102
36.1381
35.18122
34.2517
33.33021
32.39394
31.45751
30.53275
29.59108
28.66012
27.71262
26.72349
25.75625
24.80598
23.84774
22.86281
21.85285
20.85079
19.83301
18.77605
17.71949
16.65566
15.55209
14.43689
13.31987
12.17722
10.96764
9.707283
8.454307
7.205615
5.899829
4.538805
3.137452
1.667266
0.1411754
-1.427986
-3.048599
-4.690709
-6.457942
-8.337068
-10.28618
-12.36039
-14.52049
-16.86372
-19.39687
-22.08225
-24.96953
-28.20181
-31.79596
-35.85804
-40.39434
-45.6605
-52.12248
-59.85063
-72.16393
-84.05091
-92.42139
-80.14102
-66.39807
-58.01991
-51.02925
-45.26685
-40.34173
-35.90505
-32.06444
-28.60821
-25.47872
-22.64147
-19.97566
-17.46832
-15.13483
-12.97922
-10.98041
-9.063171
-7.241203
-5.510641
-3.8626
-2.297643
-0.8325536
0.6026905
2.000111
3.360739
4.657216
5.878483
7.050632
8.199157
9.330547
10.44176
11.49375
12.503
13.50707
14.48626
15.45977
16.41598
17.35998
18.25817
19.17914
20.05073
20.91581
21.75732
22.59103
23.40727
24.2107
25.0124
25.82523
26.62864
27.41092
28.17708
28.93657
29.70604
30.47428
31.2273
31.95594
32.66531
33.33406
33.9618
34.58823
35.28204
36.07536
36.90357
37.6054
38.06421
38.31398
38.47234
38.60093
38.55605
40.01346
-26.84735
-60.74735
-106.463
-118.8507
-111.0409
-100.421
-98.11388
-95.8247
-81.08444
-59.06791
-38.33086
-19.821
-7.127636
-5.923364
-12.71846
-23.9362
-43.48304
-63.74555
-81.96732
-98.97641
-117.9137
-136.2564
-152.6093
-165.0579
-171.7347
-172.8286
-170.331
-163.5586
-152.1055
-138.8004
-131.506
-144.8957
-156.2314
-142.5508
-123.1566
-114.7872
-115.5423
-115.64
-115.4052
-117.708
-120.1336
-120.7264
-118.9495
-117.4302
-115.0883
-115.7504
-118.3491
-120.6
-116.8091
-145.9749
-135.3827
-128.3582
-129.4689
-131.1369
-132.964
-135.2028
-138.0217
-140.9927
-143.8773
-146.3553
-148.2092
-149.4216
-149.9223
-149.619
-148.3815
-146.2633
-143.3804
-139.8074
-135.6388
-130.9635
-125.8723
-120.5336
-115.1825
-109.8514
-104.5946
-99.58217
-94.62336
-89.94253
-85.43902
-81.40345
-77.7013
-74.29141
-71.30267
-68.48527
-65.86371
-63.52911
-61.35242
-59.35529
-57.35642
-55.58008
-54.07634
-52.50451
-51.15167
-51.63905
-52.82998
-50.3119
-44.97783
-40.86356
-37.84995
-34.14754
-28.66247
-40.09563
-58.47394
-52.97146
-37.70378
-28.13556
-24.80913
-23.30097
-21.23271
-18.34723
-15.29651
-12.27321
-8.83651
-6.611106
-8.020082
-12.33696
-17.25345
-23.66732
-28.06981
-30.00642
-30.03744
-28.53852
-26.33232
-24.05674
-22.63258
-22.32563
-22.36614
-22.48061
-22.71686
-22.93824
-22.92708
-22.67165
-22.30636
-21.8296
-20.75287
-18.5051
-16.06012
-12.87387
-11.89351
-13.04972
-16.32748
-22.22256
-30.06427
-38.50561
-46.39051
-52.68382
-56.60664
-56.62573
-52.27583
-34.02602
-129.8265
-106.9516
-110.1208
-111.2871
-112.1716
-107.3033
-105.7269
-106.0286
-105.0374
-102.9736
-102.6656
-102.438
-101.4964
-100.7152
-99.87891
-99.11599
-98.48178
-98.12233
-98.09485
-98.31215
-98.36398
-98.60883
-98.53964
-98.53127
-98.31731
-98.10917
-98.04079
-97.31995
-96.41428
-96.22061
-96.41665
-96.83577
-97.53813
-98.32273
-98.98732
-99.6272
-100.1984
-100.5517
-100.5901
-100.3082
-100.1738
-100.6446
-101.866
-103.5846
-105.2382
-106.6779
-108.2321
-110.3416
-113.8279
-117.0717
-123.9861
-108.5184
-109.5187
-110.6231
-112.7383
-107.5958
-105.6207
-106.0478
-105.1798
-103.0848
-102.7767
-102.4823
-101.5147
-100.7175
-99.88257
-99.11017
-98.46846
-98.10508
-98.08611
-98.31545
-98.36982
-98.63208
-98.55115
-98.55763
-98.35372
-98.13594
-98.02413
-97.2976
-96.41616
-96.24294
-96.437
-96.85669
-97.57333
-98.36263
-99.01449
-99.66357
-100.241
-100.5878
-100.6089
-100.3253
-100.2337
-100.7644
-102.0348
-103.7504
-105.3523
-106.7611
-108.3331
-110.5175
-114.1218
-117.6994
-133.4408
-128.5803
-129.1173
-130.7259
-132.6747
-134.9712
-137.7546
-140.7166
-143.6361
-146.1751
-148.0816
-149.3383
-149.8594
-149.541
-148.3396
-146.3046
-143.551
-140.052
-135.925
-131.2726
-126.1941
-120.8488
-115.4831
-110.1387
-104.8584
-99.83475
-94.85046
-90.15002
-85.61365
-81.56159
-77.83532
-74.40001
-71.41031
-68.56496
-65.93107
-63.59139
-61.40581
-59.4187
-57.40658
-55.65452
-54.14778
-52.59156
-51.33307
-51.55276
-52.26995
-49.98267
-45.06015
-41.04078
-37.99584
-34.33027
-29.20138
-40.86975
-59.08797
-53.1624
-37.76269
-28.18197
-24.8672
-23.31978
-21.19704
-18.29628
-15.23512
-12.18508
-8.738009
-6.484386
-7.945631
-12.71744
-17.87376
-24.14501
-28.3874
-30.20538
-30.14837
-28.4979
-26.19125
-23.932
-22.56694
-22.30697
-22.36344
-22.48657
-22.73316
-22.95475
-22.93332
-22.67846
-22.31476
-21.80405
-20.72176
-18.41097
-15.92388
-12.82313
-12.03292
-13.38452
-16.88727
-23.06296
-31.06013
-39.51872
-47.29279
-53.3228
-56.74956
-56.29163
-51.62042
-34.28696
-25.34099
-59.52267
-107.5638
-121.1893
-113.5483
-101.8605
-98.43252
-96.23151
-82.67213
-61.36932
-40.19762
-21.40169
-8.230384
-6.390585
-12.85611
-23.73881
-43.08946
-63.26473
-81.56344
-98.66959
-117.7278
-136.0446
-152.6356
-165.3719
-172.1323
-173.1786
-170.954
-164.5485
-153.6771
-140.7332
-132.8059
-145.678
-157.165
-143.1743
-123.2178
-114.6725
-115.4738
-115.6344
-115.4167
-117.8045
-120.2912
-120.7967
-118.9426
-117.3575
-115.0094
-115.7627
-118.402
-120.4495
-118.5844
-139.2134
-92.62827
-80.24978
-66.72662
-58.229
-51.21758
-45.4094
-40.45889
-36.008
-32.13565
-28.67504
-25.53211
-22.69063
-20.02075
-17.50533
-15.16437
-12.99829
-11.00202
-9.081244
-7.255763
-5.521486
-3.872025
-2.299699
-0.8378105
0.5991312
1.997918
3.361105
4.662608
5.883653
7.054671
8.203931
9.337018
10.45234
11.50656
12.51208
13.51942
14.49869
15.47636
16.43196
17.37225
18.26493
19.19621
20.06921
20.93593
21.77727
22.61232
23.4299
24.23368
25.03493
25.85112
26.65788
27.44065
28.20728
28.96674
29.73857
30.50942
31.26428
31.9929
32.70333
33.37398
34.00634
34.64115
35.3402
36.12905
36.9539
37.64319
38.08271
38.34035
38.54506
38.72039
38.85272
41.3461
51.46484
51.08207
50.43305
49.47536
48.31202
47.1912
46.07399
44.98441
43.98391
43.03733
42.03065
41.00538
39.98876
39.02228
38.07812
37.13781
36.18085
35.21838
34.28913
33.3671
32.42721
31.48888
30.5646
29.61759
28.68991
27.74134
26.74433
25.77737
24.82631
23.86831
22.88073
21.86147
20.86736
19.85226
18.78981
17.73306
16.66902
15.56152
14.44696
13.33127
12.18897
10.97369
9.709226
8.458209
7.2114
5.900685
4.539138
3.137921
1.662313
0.1337687
-1.437776
-3.060448
-4.697464
-6.475462
-8.359734
-10.30895
-12.39155
-14.54789
-16.90447
-19.44605
-22.1326
-25.02475
-28.27406
-31.89204
-35.96328
-40.52494
-45.82539
-52.32351
-60.13853
-72.26858
-84.02115
50.81089
50.98457
50.44755
49.57949
48.44996
47.33335
46.2023
45.10672
44.10673
43.16155
42.14669
41.12275
40.09796
39.12596
38.17631
37.23613
36.27505
35.30396
34.37254
33.44692
32.50178
31.56082
30.63631
29.68107
28.75684
27.80715
26.79899
25.83434
24.87974
23.91909
22.92581
21.9211
20.91036
19.89581
18.82676
17.76985
16.70209
15.58467
14.46894
13.35599
12.21792
10.9934
9.718177
8.46884
7.228289
5.909381
4.546031
3.146976
1.663475
0.1299467
-1.44839
-3.075065
-4.698437
-6.49052
-8.381221
-10.33378
-12.43009
-14.5761
-16.95362
-19.50855
-22.19886
-25.09121
-28.36291
-32.00961
-36.09063
-40.67955
-46.0194
-52.54294
-60.42664
-72.26499
-83.96309
-92.87574
-80.24984
-67.04866
-58.44285
-51.44388
-45.58268
-40.60016
-36.12892
-32.22355
-28.76293
-25.59727
-22.74913
-20.07767
-17.54798
-15.19361
-13.01478
-11.02949
-9.10313
-7.270744
-5.528606
-3.877179
-2.295222
-0.8395509
0.6005521
2.000593
3.371013
4.68094
5.898332
7.069437
8.223168
9.357301
10.47494
11.53357
12.53391
13.54669
14.52477
15.50861
16.46425
17.40661
18.32201
19.23643
20.10996
20.98057
21.82346
22.66096
23.4794
24.28347
25.08631
25.90782
26.7172
27.49794
28.26481
29.02252
29.79504
30.5658
31.32121
32.04629
32.75331
33.42691
34.06905
34.72016
35.43182
36.21388
37.02333
37.69152
38.1144
38.40299
38.6769
38.93964
39.36715
42.59186
-25.83778
-59.57763
-110.2587
-125.6081
-117.1324
-103.9912
-98.55752
-95.96552
-84.01191
-64.13435
-42.6448
-23.57795
-9.775635
-7.239732
-13.36744
-23.77143
-42.75507
-62.8659
-81.27185
-98.40924
-117.6223
-135.8761
-152.6855
-165.5764
-172.3312
-173.4884
-171.7249
-165.778
-155.6002
-143.4596
-135.4466
-146.9276
-157.8711
-143.604
-123.0356
-114.4566
-115.3682
-115.63
-115.3959
-118.0181
-120.5808
-120.9091
-118.9305
-117.2523
-114.8807
-115.7844
-118.5615
-120.17
-119.5878
-132.6869
-131.3827
-128.7618
-128.7277
-130.2642
-132.3221
-134.6897
-137.4551
-140.4157
-143.3851
-146.0147
-148.0117
-149.378
-150.0262
-149.8792
-148.8523
-146.7825
-143.9681
-140.4804
-136.363
-131.7161
-126.6383
-121.2681
-115.8725
-110.5068
-105.197
-100.1621
-95.1423
-90.4171
-85.82888
-81.75816
-78.00188
-74.52818
-71.54657
-68.66997
-66.02441
-63.67721
-61.47566
-59.50704
-57.4672
-55.75
-54.2427
-52.67814
-51.49374
-51.42837
-51.73776
-49.6531
-45.1615
-41.27099
-38.24843
-34.78298
-30.34253
-41.85003
-59.31643
-53.2627
-37.88016
-28.35586
-25.03505
-23.38305
-21.16183
-18.22831
-15.15098
-12.05629
-8.576301
-6.252137
-7.844976
-13.32318
-18.71243
-24.75803
-28.82265
-30.50194
-30.32979
-28.46371
-26.02911
-23.78577
-22.48564
-22.28389
-22.36049
-22.49321
-22.75136
-22.97281
-22.93985
-22.66444
-22.26051
-21.75817
-20.70135
-18.32244
-15.80666
-12.82333
-12.29279
-13.8683
-17.62704
-24.16209
-32.32247
-40.81047
-48.50711
-54.33884
-57.51683
-56.82086
-51.60413
-35.85848
-118.0446
-109.2447
-108.762
-110.0333
-113.519
-107.942
-105.4677
-106.0703
-105.3746
-103.2406
-102.9737
-102.5434
-101.5382
-100.7146
-99.88935
-99.09971
-98.44765
-98.0767
-98.07167
-98.32063
-98.38139
-98.66848
-98.56868
-98.59608
-98.40226
-98.15937
-97.95264
-97.23024
-96.40977
-96.27229
-96.45607
-96.87652
-97.62487
-98.41751
-99.04858
-99.71418
-100.3004
-100.6408
-100.646
-100.3646
-100.3216
-100.9292
-102.2585
-103.9942
-105.5471
-106.9308
-108.509
-110.8762
-114.4996
-118.2441
-111.6907
-108.7618
-108.0164
-109.6906
-114.4137
-108.5317
-105.2519
-106.0569
-105.6589
-103.5011
-103.3018
-102.612
-101.5522
-100.6976
-99.89917
-99.08414
-98.41578
-98.03167
-98.04999
-98.3309
-98.39232
-98.71523
-98.59893
-98.64433
-98.45771
-98.16502
-97.80103
-97.09703
-96.3805
-96.30439
-96.46893
-96.88736
-97.67922
-98.47681
-99.08423
-99.78882
-100.3327
-100.7277
-100.7171
-100.4391
-100.4322
-101.177
-102.573
-104.2861
-105.7219
-107.0748
-108.6535
-111.1663
-114.7649
-118.6742
-129.5562
-128.7916
-128.4968
-129.7455
-131.9049
-134.3505
-137.1115
-140.0693
-143.0946
-145.8143
-147.8628
-149.2846
-150.0172
-149.9374
-148.8777
-146.9895
-144.3561
-140.9553
-136.8932
-132.2622
-127.2125
-121.8187
-116.3963
-111.0174
-105.6716
-100.6144
-95.53754
-90.7796
-86.13701
-82.03968
-78.23685
-74.71841
-71.72208
-68.78682
-66.14626
-63.78891
-61.56603
-59.61199
-57.52224
-55.85557
-54.36133
-52.76558
-51.64316
-51.32662
-51.2684
-49.32147
-45.24043
-41.50432
-38.52424
-35.44692
-31.95579
-42.77777
-58.67163
-52.89392
-38.00627
-28.71958
-25.36884
-23.50091
-21.13786
-18.2107
-15.06286
-11.9197
-8.404509
-6.008568
-7.816943
-14.26282
-19.74571
-25.50766
-29.43169
-30.91242
-30.57758
-28.41627
-25.84111
-23.60646
-22.37375
-22.24898
-22.3515
-22.49927
-22.76965
-22.9954
-22.96141
-22.67945
-22.26756
-21.74591
-20.70824
-18.25611
-15.71687
-12.99241
-12.84682
-14.68743
-18.75836
-25.76986
-34.06881
-42.50039
-50.02296
-55.51346
-58.22403
-57.26763
-52.105
-39.15236
-29.03089
-62.39567
-115.1514
-132.2147
-122.6934
-107.4994
-98.36429
-94.84293
-84.87627
-67.34913
-45.91523
-26.86223
-11.94568
-8.598605
-14.44278
-24.51425
-42.52328
-62.13288
-80.83314
-98.03602
-117.2669
-135.6862
-152.9413
-166.0139
-172.9995
-174.1173
-172.956
-167.4693
-157.9318
-146.8061
-139.1869
-148.0882
-157.0129
-142.9195
-122.5793
-114.062
-115.2597
-115.6283
-115.3336
-118.3983
-121.0947
-121.0713
-118.8853
-117.1177
-114.6674
-116.1012
-119.0418
-119.9739
-119.547
-125.8102
-92.95082
-80.04717
-67.31402
-58.62829
-51.70947
-45.75877
-40.72638
-36.2487
-32.33186
-28.86456
-25.64954
-22.81237
-20.14714
-17.58618
-15.22265
-13.04547
-11.07509
-9.124282
-7.282001
-5.528446
-3.884943
-2.297876
-0.8447486
0.5961203
1.997402
3.38586
4.68999
5.901348
7.082103
8.234904
9.356625
10.478
11.55766
12.54579
13.56501
14.5393
15.53343
16.4898
17.42956
18.34178
19.25598
20.13579
21.01406
21.85712
22.69247
23.51011
24.32233
25.1267
25.94657
26.75508
27.54038
28.3121
29.06904
29.84253
30.61567
31.38
32.09532
32.79988
33.48418
34.13636
34.80022
35.51844
36.28385
37.08364
37.74392
38.15404
38.48256
38.81696
39.21437
40.14952
43.73825
50.02663
50.74501
50.39533
49.65329
48.58879
47.48896
46.32811
45.21491
44.21349
43.27348
42.23351
41.21099
40.17965
39.21115
38.2481
37.30512
36.34358
35.36984
34.44158
33.50865
32.55563
31.61258
30.68813
29.7216
28.80254
27.84511
26.82574
25.86712
24.91381
23.95683
22.95342
21.92635
20.92519
19.91231
18.83875
17.79584
16.73285
15.60451
14.48426
13.36481
12.23524
11.01189
9.726029
8.46605
7.235796
5.913922
4.543361
3.147395
1.662559
0.1290372
-1.45987
-3.107316
-4.711874
-6.519412
-8.40018
-10.35824
-12.4825
-14.60246
-17.00812
-19.56492
-22.27411
-25.16677
-28.45466
-32.12479
-36.21586
-40.83505
-46.21753
-52.75119
-60.65946
-72.05145
-83.53001
49.22588
50.35722
50.26294
49.66865
48.73767
47.72715
46.53056
45.3794
44.40407
43.5077
42.46444
41.39588
40.31786
39.36324
38.42203
37.45297
36.4539
35.46146
34.56097
33.62647
32.65466
31.71798
30.80042
29.80013
28.94706
27.94534
26.89445
25.95152
24.96715
24.03842
23.02379
22.02637
21.04276
19.98742
18.85502
17.81786
16.76426
15.64262
14.54733
13.41264
12.23864
11.01717
9.775283
8.501439
7.239193
5.93797
4.564849
3.1274
1.645505
0.1310377
-1.423243
-3.093635
-4.721616
-6.593664
-8.436487
-10.36387
-12.56565
-14.63922
-17.12291
-19.61323
-22.3378
-25.32758
-28.63099
-32.31493
-36.41256
-41.07214
-46.53013
-53.0839
-61.01316
-71.72784
-83.13898
-92.73235
-79.82827
-67.77391
-58.95668
-52.15009
-45.91413
-40.90778
-36.47465
-32.54016
-28.95161
-25.68518
-22.93211
-20.23595
-17.61726
-15.29793
-13.11971
-11.08574
-9.100899
-7.289552
-5.534931
-3.930813
-2.322609
-0.8219306
0.5710716
2.011674
3.409707
4.66108
5.933681
7.12358
8.239801
9.350764
10.53543
11.65205
12.57073
13.61033
14.57721
15.59391
16.5425
17.46951
18.37855
19.32385
20.21568
21.08742
21.9225
22.74498
23.58938
24.41395
25.19119
25.99512
26.84414
27.65034
28.40622
29.15456
29.91422
30.70825
31.47982
32.15921
32.89177
33.59974
34.24865
34.92102
35.64075
36.37822
37.18613
37.85406
38.23605
38.62014
39.05693
39.81543
41.32622
44.65884
-35.39605
-67.89331
-121.3582
-141.8116
-131.6624
-112.5708
-98.61058
-93.65879
-85.59141
-71.43123
-51.05483
-31.48964
-15.80356
-10.60593
-16.32702
-26.39851
-42.87681
-60.63491
-79.92561
-97.82834
-116.8515
-135.3936
-153.6823
-166.8204
-173.5753
-174.7364
-174.5385
-169.6136
-160.7825
-150.6335
-143.4508
-148.2788
-153.2723
-140.0115
-121.7103
-113.4993
-115.1813
-115.542
-115.9637
-119.4225
-122.016
-121.2644
-118.7748
-116.8116
-114.153
-116.5971
-119.433
-119.429
-118.3002
-119.2419
-127.9283
-128.3125
-128.1535
-129.1435
-131.3453
-133.8501
-136.6177
-139.6129
-142.7086
-145.562
-147.7385
-149.3874
-150.2155
-150.3181
-149.5485
-147.6325
-144.9998
-141.6214
-137.6619
-133.0794
-128.0638
-122.6469
-117.2196
-111.8454
-106.3698
-101.2768
-96.0788
-91.28598
-86.63959
-82.50724
-78.62126
-75.10703
-72.01609
-68.93954
-66.30212
-63.95498
-61.75155
-59.8027
-57.60477
-56.0436
-54.46959
-52.90651
-51.82922
-51.25268
-50.82659
-48.95666
-45.36274
-41.89235
-38.87228
-36.24766
-33.77343
-43.27738
-56.19365
-51.17193
-37.96485
-29.25104
-25.91298
-23.70685
-21.05248
-18.09043
-15.16828
-11.83775
-8.323233
-5.97216
-8.052027
-15.68791
-21.04131
-26.57583
-30.25003
-31.4209
-30.81272
-28.31315
-25.60588
-23.35214
-22.24427
-22.17576
-22.32962
-22.50921
-22.80993
-23.03443
-22.99824
-22.67966
-22.21218
-21.73579
-20.65145
-18.47853
-15.73491
-13.57582
-13.80939
-15.92916
-20.52825
-28.07937
-36.66552
-45.05302
-52.29941
-57.32425
-59.48565
-58.39645
-53.64595
-44.413
-105.7436
-106.6708
-107.54
-110.1388
-115.9423
-109.7583
-104.9641
-106.0138
-106.1632
-104.0133
-103.5949
-102.6491
-101.5485
-100.6961
-99.91162
-99.05498
-98.36407
-97.96159
-98.01973
-98.36575
-98.40483
-98.78723
-98.66904
-98.72432
-98.50241
-98.15443
-97.63206
-96.93051
-96.31622
-96.32364
-96.46857
-96.89494
-97.74428
-98.54817
-99.13309
-99.89366
-100.5077
-100.8934
-100.8553
-100.6091
-100.7246
-101.5583
-103.0676
-104.695
-105.9509
-107.2344
-108.9398
-111.5648
-115.0581
-119.0648
-0.1591949
-0.03675097
-4.619582
3.416929
-11.06391
-1.227832
0.1684175
3.36885
2.414189
1.132606
-294.58
-28.60128
-0.05696744
4.158823
-1.377772
4.137585
6.823945
1.109211
3.963889
-11.02468
-5.83016
3.97882
0.6057901
3.800005
-0.4558631
3.907233
3.769459
1.275425
2.837008
-1.194847
1.671054
-0.5784625
-28.82088
0.2320502
4.513801
1.737937
0.8857547
5.369557
0.566173
4.240797
5.539449
-0.04313933
-29.6265
-9.058742
-15.59198
-50.14904
0.160217
-0.04454588
-0.07516886
5.839361
3.937385
-0.7292178
1.36199
-2.548334
4.305898
1.148426
2.197271
1.374392
-0.3318843
-0.0330512
0.178927
3.753093
-1.113184
-7.667814
6.107506
-1.631005
-0.8868052
-12.06085
7.998677
-1.429191
-66.661
2.259629
4.768206
1.995886
3.468749
3.630169
3.088604
2.977412
-0.1569739
3.822043
1.817556
2.803252
-8.84948
-1.063791
-1.212139
-0.9661799
7.133932
0.6203415
-1.508532
0.7323266
5.433222
5.893272
4.158693
1.374907
-1.607054
3.265937
4.342755
4.07132
-94.16042
-25.69088
-2.639023
-21.7973
6.474561
-2.624382
-0.06722804
3.317631
-3.415826
4.368878
-19.18583
3.482307
1.083443
-133.935
0.4527717
-1.171857
-7.166457
0.01865052
-1.09758
-22.9402
-10.35017
0.5591628
-0.1432426
-4.487699
-1.276536
-0.1958176
2.741158
-0.1395052
-0.05765241
0.4395481
11.8778
1.764589
10.06347
6.233679
3.363639
-11.33178
-0.7047669
0.7104391
2.832494
-83.76538
3.013261
5.356381
3.420537
6.035696
3.678258
0.7100561
0.2727522
2.274542
4.476766
-1.485224
-0.4040529
-2.551106
-110.5484
-1.1641
-1.12594
3.183394
7.456213
2.953056
-0.7339781
-18.34538
0.4099195
2.245281
-84.45071
3.330082
2.565524
0.3405762
6.05454
0.983833
-8.374759
5.115048
0.1652376
2.385298
0.5283586
-3.248853
0.4409173
6.181259
-0.9282091
0.2251695
-0.6465722
-7.038199
-1.23656
13.2778
-3.696313
4.07065
-2.286326
-0.2754404
0.4795903
-1.551214
4.548294
4.257606
6.098484
1.170953
2.241393
0.9382077
2.97208
0.5756746
-74.24068
-0.02007134
-0.7814052
-28.79959
-7.615453
0.1302994
-9.274999
0.1024229
0.6503969
7.724739
-1.668835
-0.746036
0.2974464
-7.69055
0.2181848
-1.786155
0.1177808
4.804626
-0.1756694
4.19986
-0.09476367
0.852904
5.133542
-1.387225
1.824617
-137.3098
-4.291751
2.902055
2.830137
0.7745377
17.30462
16.93879
3.389074
1.323943
0.6459484
3.099184
-2.546219
2.174689
6.681601
4.277765
-162.5803
-3.474639
2.384768
3.838143
11.39933
-0.3082128
-0.09014975
-2.401409
-0.2947527
0.2404219
0.3744343
-15.44157
-4.938536
3.462925
2.164507
3.824133
3.820564
-134.0505
6.541667
1.665281
0.3095505
1.097192
-0.004470834
1.776246
-0.899489
1.784801
2.743246
-0.7172118
0.5871091
-13.91993
4.659003
2.701614
0.2396652
-39.33438
2.998598
-24.20517
-12.81474
0.2878914
-1.295058
0.07551876
6.057317
-28.46902
4.221437
-0.07353483
6.548215
1.028948
1.314129
-11.14517
-125.8519
-0.07494246
6.274059
-1.939366
4.570099
4.757696
5.111126
2.702435
-230.5028