/*--------------------------------*- C++ -*----------------------------------*\
| =========                 |                                                 |
| \\      /  F ield         | OpenFOAM: The Open Source CFD Toolbox           |
|  \\    /   O peration     | Version:  2406                                  |
|   \\  /    A nd           | Website:  www.openfoam.com                      |
|    \\/     M anipulation  |                                                 |
\*---------------------------------------------------------------------------*/
FoamFile
{
    version     2.0;
    format      ascii;
    arch        "LSB;label=32;scalar=64";
    class       surfaceScalarField;
    location    "1.48";
    object      phi;
}
// * * * * * * * * * * * * * * * * * * * * * * * * * * * * * * * * * * * * * //

dimensions      [0 3 -1 0 0 0 0];

oriented        oriented;

internalField   nonuniform List<scalar> 
326221
(
-0.002638777
-0.007003214
0.009641992
-0.001991957
-0.0006468207
0.001044077
-0.003036034
0.0004491444
0.000594933
-0.00162237
0.002071514
-0.0009844027
-0.0006379674
0.0001389886
-0.001123391
0.0001527352
-1.37466e-05
-0.0002488276
0.0004015628
-0.0004638127
0.0002149851
-0.0002838858
-0.0001799269
5.605381e-05
-0.0003399396
0.0001245222
-6.846843e-05
1.13451e-05
0.0001131771
-4.860994e-05
5.995504e-05
-6.260729e-05
1.399735e-05
-1.058252e-05
-5.202477e-05
0.0001842635
-0.000194846
0.0005165406
-0.0003322771
0.0007482857
-0.0002317451
0.0008335848
-8.529915e-05
0.0009513303
-0.0001177455
0.001480354
-0.0005290233
0.002499214
-0.001018861
0.002540718
-4.150359e-05
0.001147472
0.001393246
0.0002006851
0.0009467864
-0.0007174223
0.0009181074
-0.002843347
0.002125925
-0.004799042
0.001955695
-0.005655135
0.0008560936
-0.005819473
0.0001643378
-0.005660253
-0.0001592206
-0.00525794
-0.0004023122
-0.004752591
-0.0005053498
-0.004399474
-0.0003531169
-0.004025399
-0.0003740745
-0.003345861
-0.0006795387
-0.002492206
-0.0008536542
-0.001942098
-0.0005501083
-0.001177458
-0.0007646396
-0.0004920692
-0.0006853892
2.673678e-05
-0.000518806
0.0005207555
-0.0004940187
0.0009659635
-0.0004452081
0.001501213
-0.0005352495
0.002010417
-0.0005092043
0.002558707
-0.0005482896
0.003085606
-0.0005268986
0.003017021
6.858473e-05
-0.00189646
0.004913481
-0.001092814
-0.0008036459
-0.0003869118
-0.0007059024
-0.0003459558
-4.095602e-05
-0.000476585
0.0001306292
-3.371438e-05
-0.0004428706
0.000830794
-0.0008645084
0.001359639
-0.0005288446
0.001981324
-0.000621685
0.00287076
-0.0008894369
0.003867973
-0.000997213
0.004532166
-0.0006641922
0.004717599
-0.0001854332
0.004867554
-0.0001499556
0.005650529
-0.0007829747
0.00734536
-0.001694831
0.00829708
-0.0009517193
0.004265867
0.004031213
-0.002589772
0.006855639
-0.003848348
0.001258576
0.0002812011
-0.004129549
0.003525853
-0.003244652
0.004614155
-0.001088303
0.004102351
0.0005118039
0.002874903
0.001227448
0.001910122
0.0009647811
0.0002546024
0.00165552
-0.001975604
0.002230207
-0.003953102
0.001977497
-0.005366731
0.001413629
-0.006306219
0.0009394881
-0.006880222
0.000574003
-0.007169812
0.0002895901
-0.007105929
-6.388259e-05
-0.007104234
-1.695036e-06
-0.0070459
-5.83343e-05
-0.006967472
-7.842839e-05
-0.006878777
-8.869422e-05
-0.006774188
-0.0001045894
-0.006694361
-7.982683e-05
-0.006591752
-0.000102609
-0.006488867
-0.0001028853
-0.006431042
-5.782464e-05
-0.006366929
-6.411338e-05
-0.006313062
-5.386642e-05
-0.006240921
-7.21412e-05
-0.006172332
-6.85889e-05
-0.006137318
-3.501382e-05
-0.006067823
-6.949525e-05
-0.005961232
-0.0001065909
-0.0058156
-0.0001456322
-0.005647147
-0.0001684532
-0.005454092
-0.0001930545
-0.005263073
-0.0001910199
-0.005065388
-0.0001976845
-0.004887026
-0.0001783621
-0.004763942
-0.000123084
-0.004713667
-5.0275e-05
-0.004676762
-3.690505e-05
-0.004588326
-8.843598e-05
-0.004438259
-0.0001500671
-0.004264208
-0.0001740503
-0.004071934
-0.0001922744
-0.003901313
-0.0001706209
-0.003748712
-0.000152601
-0.003595484
-0.0001532284
-0.003522416
-7.30679e-05
-0.003388686
-0.0001337298
-0.003256397
-0.0001322889
-0.00313637
-0.0001200275
-0.003039847
-9.652299e-05
-0.002960333
-7.951316e-05
-0.002893756
-6.657792e-05
-0.002840849
-5.290612e-05
-0.002798874
-4.197571e-05
-0.002742424
-5.644986e-05
-0.002643362
-9.906139e-05
-0.00248744
-0.0001559229
-0.002294599
-0.0001928404
-0.002053715
-0.0002408845
-0.001786292
-0.0002674228
-0.001504809
-0.000281483
-0.00122217
-0.0002826391
-0.000971417
-0.0002507528
-0.0007757047
-0.0001957123
-0.0005972187
-0.000178486
-0.0003789187
-0.0002182999
-0.0001604712
-0.0002184476
6.16558e-05
-0.000222127
0.000267287
-0.0002056312
0.0004876099
-0.0002203229
0.0007237539
-0.000236144
0.0009392294
-0.0002154754
0.001021518
-8.228897e-05
0.0006565284
0.0003649899
8.841726e-05
0.0005681111
-0.0005119273
0.0006003445
-0.0006760226
0.0001640954
6.59402e-05
-0.0007419628
-0.001179579
0.001245519
-0.00124499
6.54105e-05
-0.001418399
0.0001734094
-0.001452885
3.448559e-05
-0.001305636
-0.0001472487
-0.001035186
-0.0002704503
-0.000701842
-0.0003333436
-0.0002843804
-0.0004174616
0.0002046237
-0.0004890041
0.0007659621
-0.0005613385
0.00133671
-0.0005707481
0.00187499
-0.0005382801
0.002341817
-0.0004668271
0.00302246
-0.0006806426
0.003688414
-0.0006659537
0.004140951
-0.000452537
0.00466568
-0.0005247289
0.005217912
-0.0005522325
0.005812737
-0.000594825
0.006333446
-0.0005207093
0.006695837
-0.0003623904
0.006837799
-0.000141962
0.006623123
0.0002146756
0.005538859
0.001084264
0.003351291
0.002187568
0.0001826445
0.003168647
-0.002084281
0.002266926
-0.002520878
0.0004365969
-0.001840939
-0.0006799389
-5.696898e-05
-0.00178397
0.00135186
-0.001408829
0.001100196
0.0002516645
-0.0003859528
0.001486148
-0.002481359
0.002095406
-0.003758603
0.001277244
-0.003697363
-6.124041e-05
-0.002550931
-0.001146432
-0.00116364
-0.001387292
0.0003445801
-0.00150822
0.001209401
-0.0008648208
0.001229741
-2.034008e-05
0.0006272069
0.000602534
0.0001364117
0.0004907952
-0.0001054965
0.0002419083
-0.0003119556
0.000206459
0.0001918802
-0.0005038358
0.0009744296
-0.0007825494
0.0004355878
0.0005388418
0.001461398
-0.00102581
0.002095784
-0.0006343857
-0.005305972
0.007401756
-0.005574458
0.0002684857
-0.004794031
-0.0007804272
-0.004485378
-0.0003086524
-0.004181185
-0.0003041931
-0.003952156
-0.0002290292
-0.003743684
-0.0002084722
-0.003563097
-0.0001805865
-0.003320387
-0.0002427102
-0.003195037
-0.0001253501
-0.00308896
-0.0001060773
-0.002991515
-9.744496e-05
-0.002904933
-8.658124e-05
-0.002821226
-8.370784e-05
-0.002741519
-7.970618e-05
-0.002665772
-7.574751e-05
-0.002598002
-6.776974e-05
-0.002535702
-6.230013e-05
-0.002475885
-5.981741e-05
-0.002417103
-5.878159e-05
-0.002362492
-5.46109e-05
-0.002309983
-5.250867e-05
-0.002260956
-4.90275e-05
-0.002217364
-4.359166e-05
-0.00217285
-4.45145e-05
-0.002127774
-4.507597e-05
-0.002082287
-4.548685e-05
-0.002040196
-4.209127e-05
-0.002002597
-3.759881e-05
-0.001968777
-3.381974e-05
-0.001933481
-3.529599e-05
-0.001898344
-3.513736e-05
-0.001860852
-3.749203e-05
-0.001828366
-3.24859e-05
-0.001798827
-2.953894e-05
-0.001767429
-3.13982e-05
-0.001735426
-3.200239e-05
-0.001702176
-3.325073e-05
-0.001672326
-2.984938e-05
-0.001644546
-2.778032e-05
-0.001671741
2.719466e-05
-0.001656826
-1.491504e-05
-0.001636619
-2.020652e-05
-0.001616139
-2.048007e-05
-0.001598379
-1.77604e-05
-0.001579887
-1.84919e-05
-0.001563227
-1.665975e-05
-0.001548114
-1.51132e-05
-0.001533463
-1.465039e-05
-0.001515258
-1.820546e-05
-0.001496475
-1.878314e-05
-0.001481551
-1.492356e-05
-0.001469854
-1.169732e-05
-0.001461459
-8.394884e-06
-0.001449723
-1.173555e-05
-0.001434246
-1.547708e-05
-0.001420025
-1.422123e-05
-0.001406765
-1.326016e-05
-0.001389842
-1.692279e-05
-0.001374652
-1.519061e-05
-0.001358947
-1.570455e-05
-0.001344015
-1.493174e-05
-0.001332605
-1.141071e-05
-0.001323192
-9.412035e-06
-0.001299472
-2.372095e-05
-0.001268072
-3.13993e-05
-0.00124073
-2.734234e-05
-0.001194
-4.672955e-05
-0.001093364
-0.0001006364
-0.0007348061
-0.0003585579
0.0002168052
-0.0009516113
0.001154117
-0.0009373123
0.0007615605
0.000392557
0.0007685041
-6.943535e-06
0.0009390757
-0.0001705717
0.001142036
-0.0002029602
0.001293332
-0.0001512957
0.001408918
-0.0001155863
0.001493429
-8.451141e-05
0.001548764
-5.533506e-05
0.001591901
-4.313705e-05
0.001638328
-4.642645e-05
0.001678974
-4.064573e-05
0.001712741
-3.376729e-05
0.001736124
-2.338284e-05
0.001755673
-1.954945e-05
0.001772837
-1.716379e-05
0.001791864
-1.902721e-05
0.001808277
-1.641296e-05
0.001820399
-1.212207e-05
0.001832726
-1.232646e-05
0.001848647
-1.592128e-05
0.001863945
-1.529761e-05
0.001879538
-1.559373e-05
0.001899236
-1.96978e-05
0.001916665
-1.742937e-05
0.001938996
-2.233051e-05
0.001965077
-2.608117e-05
0.001986826
-2.174905e-05
0.00200499
-1.816331e-05
0.002025199
-2.020927e-05
0.002048153
-2.29544e-05
0.002063542
-1.538868e-05
0.002026065
3.747653e-05
0.002056348
-3.028306e-05
0.002094341
-3.799237e-05
0.002133575
-3.923423e-05
0.002173632
-4.00574e-05
0.002216595
-4.296302e-05
0.002257913
-4.131756e-05
0.002296386
-3.84727e-05
0.002337951
-4.1565e-05
0.002384457
-4.650611e-05
0.002435382
-5.092544e-05
0.00248108
-4.569789e-05
0.002525445
-4.436509e-05
0.002573105
-4.765951e-05
0.002624541
-5.143661e-05
0.002677387
-5.28458e-05
0.002736174
-5.878686e-05
0.002797652
-6.147789e-05
0.002860088
-6.243561e-05
0.002925029
-6.494128e-05
0.002986946
-6.191696e-05
0.003059627
-7.26816e-05
0.003136046
-7.641896e-05
0.003216376
-8.032931e-05
0.003302864
-8.6488e-05
0.003392647
-8.978341e-05
0.003492161
-9.951393e-05
0.003601295
-0.0001091341
0.003714244
-0.0001129487
0.003837262
-0.0001230182
0.003977668
-0.0001404064
0.004140457
-0.0001627882
0.004442673
-0.0003022163
0.004676076
-0.0002334034
0.004943383
-0.0002673073
0.00524426
-0.0003008763
0.005641974
-0.0003977145
0.006019267
-0.0003772923
0.007101571
-0.001082304
9.835664e-05
0.001095077
-0.00114718
0.0004446596
0.001413498
-0.0003253647
0.001706827
-0.0004639004
0.001934473
-0.0004306064
0.002143741
-0.0003605634
0.002341673
-0.0003135179
0.002517242
-0.0002600809
0.002664412
-0.0002025048
0.002793614
-0.0001723391
0.00292068
-0.0001734922
0.003038924
-0.0001588896
0.003149818
-0.0001446614
0.003249023
-0.0001225878
0.003342373
-0.0001128994
0.003428848
-0.0001036391
0.003513869
-0.0001040482
0.003593452
-9.599595e-05
0.003667586
-8.625585e-05
0.003737989
-8.272949e-05
0.003808173
-8.610583e-05
0.003875128
-8.225203e-05
0.00393938
-7.984641e-05
0.004004828
-8.514496e-05
0.004066068
-7.866978e-05
0.004129574
-8.583609e-05
0.004193847
-9.035469e-05
0.004256007
-8.39091e-05
0.004313736
-7.589188e-05
0.004373087
-7.95605e-05
0.004432293
-8.216024e-05
0.004488938
-7.203392e-05
0.004449128
7.728605e-05
0.004518413
-9.956717e-05
0.004591253
-0.0001108325
0.004664456
-0.0001124372
0.004737893
-0.0001134949
0.004812491
-0.0001175606
0.004886703
-0.0001155302
0.004957727
-0.0001094968
0.005031665
-0.0001155022
0.00510705
-0.0001218911
0.005187642
-0.0001315176
0.005263647
-0.0001217029
0.005340581
-0.0001212994
0.005418873
-0.0001259516
0.0055011
-0.0001336636
0.005584096
-0.0001358419
0.005672431
-0.0001471213
0.005763754
-0.0001528011
0.005856358
-0.0001550399
0.005952861
-0.0001614443
0.006046603
-0.0001556589
0.006150278
-0.0001763568
0.006255551
-0.0001816912
0.006366467
-0.0001912453
0.006481075
-0.0002010958
0.006600587
-0.000209296
0.006726897
-0.0002258239
0.006862724
-0.0002449606
0.007001679
-0.0002519039
0.007150533
-0.0002718727
0.007313937
-0.0003038104
0.007497364
-0.0003462153
0.00788705
-0.0006919014
0.008137269
-0.0004836232
0.008427758
-0.0005577957
0.008748717
-0.0006218359
0.009174493
-0.0008234896
0.009566624
-0.000769424
0.01069015
-0.00220583
0.01011176
0.0006767469
-0.00883743
0.008094985
0.001010931
-0.00794906
-0.001668797
-0.007650807
-0.0006069061
-0.007314667
-0.0006403327
-0.007063496
-0.0004802
-0.006829067
-0.0004429015
-0.006627491
-0.0003821627
-0.006302554
-0.000567647
-0.006154661
-0.0002732432
-0.006024051
-0.0002366869
-0.005900674
-0.000220822
-0.005787452
-0.0001998031
-0.005676545
-0.0001946151
-0.005570959
-0.0001852919
-0.00546801
-0.0001786966
-0.005373186
-0.0001625943
-0.005281349
-0.0001541371
-0.005193772
-0.0001473936
-0.005106314
-0.00014624
-0.005023858
-0.0001370672
-0.004942565
-0.0001338014
-0.004864972
-0.0001266201
-0.004791308
-0.0001172559
-0.004717657
-0.0001181661
-0.004644829
-0.0001179035
-0.004571898
-0.0001184176
-0.004502559
-0.0001114303
-0.004435279
-0.0001048788
-0.004371609
-9.749001e-05
-0.004305408
-0.0001014972
-0.004241058
-9.948726e-05
-0.004173787
-0.0001047626
-0.004110752
-9.55208e-05
-0.004048112
-9.217906e-05
-0.003984364
-9.514685e-05
-0.003919526
-9.683966e-05
-0.003853751
-9.902633e-05
-0.003789979
-9.362072e-05
-0.003726711
-9.104882e-05
-0.003754745
5.522836e-05
-0.003702557
-6.710281e-05
-0.003648468
-7.429562e-05
-0.003592868
-7.607982e-05
-0.003539501
-7.11273e-05
-0.003483699
-7.42938e-05
-0.003429118
-7.124133e-05
-0.003373551
-7.068014e-05
-0.003317771
-7.042969e-05
-0.003258271
-7.770566e-05
-0.003197915
-7.913891e-05
-0.003138392
-7.444748e-05
-0.003078216
-7.187274e-05
-0.00301758
-6.903059e-05
-0.002951565
-7.775112e-05
-0.002881658
-8.538401e-05
-0.002810235
-8.564382e-05
-0.002737766
-8.572918e-05
-0.002659588
-9.510085e-05
-0.002580542
-9.423701e-05
-0.002495851
-0.0001003958
-0.002405863
-0.000104919
-0.00230957
-0.0001077044
-0.002204731
-0.0001142504
-0.00207668
-0.0001517727
-0.001931109
-0.0001769699
-0.001775256
-0.0001831951
-0.001584917
-0.0002370686
-0.001319608
-0.0003659458
-0.0008064655
-0.0008717001
0.0001735928
-0.00193167
-0.001910899
-0.00262978
0.001856259
0.0008389316
-0.002674107
0.0002177368
-0.002370376
-0.0002692462
-0.002047987
-0.0004696374
-0.001668024
-0.0006504129
-0.001208823
-0.0007925446
-0.0006584273
-0.0009678577
-2.265076e-05
-0.001124781
0.0007043905
-0.00128838
0.001453885
-0.001320243
0.002177262
-0.001261656
0.002807407
-0.001096972
0.003669702
-0.001542938
0.004550267
-0.001546519
0.005197438
-0.001099708
0.005899572
-0.001226863
0.006624253
-0.001276914
0.007399383
-0.001369956
0.0081113
-0.001232626
0.008659256
-0.0009103456
0.009005708
-0.0004884146
0.00928542
-6.503638e-05
0.009180062
0.001189622
0.008154482
0.003213148
0.004611829
0.0067113
-0.0005864797
0.007465234
-0.003442497
0.003292615
-0.002991624
-0.001130812
-0.0009571109
-0.003818484
0.0006760019
-0.003041942
0.0002785518
0.0006491147
-0.002583936
0.004348637
-0.005206794
0.004718264
-0.005385151
0.001455601
-0.004529654
-0.0009167368
-0.003126307
-0.002549779
-0.001360063
-0.003153536
0.0005356291
-0.003403912
0.001669933
-0.001999125
0.001876712
-0.0002271197
0.001215847
0.0012634
0.0004625807
0.001244061
-5.499118e-05
0.0007594802
-0.0002769014
0.0004283693
0.0004451627
-0.0012259
0.001516689
-0.001854076
0.001645141
0.0004103901
0.002475875
-0.001856544
0.0006696313
0.001171858
0.01616637
-0.001836661
-0.003273517
0.01002366
-0.00151525
-0.001125057
-0.0009781583
-0.001242994
-0.0004974459
-0.0005216685
-0.0008143518
0.0004475352
-0.0004689983
-0.0007882242
0.0005145364
-0.001848043
0.001084164
-0.001098473
0.001642026
-0.001179546
0.002538295
-0.001785706
0.003724175
-0.002183094
0.004677723
-0.00161774
0.005080179
-0.0005878894
0.005430841
-0.0005006177
0.006542545
-0.001894678
0.008513206
-0.003665492
0.01099269
-0.003431206
0.009288274
0.005735631
0.0006811494
0.01546276
-0.002740203
0.004679928
0.001253756
-0.008123508
0.003466905
-0.005457801
0.004738029
-0.002359426
0.004961564
0.0002882689
0.003089574
0.003099438
-0.001102794
0.005157149
-0.005599099
0.006151825
-0.008629794
0.005260902
-0.01019044
0.003538141
-0.01084394
0.002067129
-0.01104347
0.001139025
-0.01103388
0.0005644056
-0.01095927
0.0002149865
-0.01066151
-0.000361649
-0.01058136
-8.184576e-05
-0.01046132
-0.0001783712
-0.01034455
-0.0001951957
-0.0102425
-0.0001907444
-0.01014841
-0.0001986849
-0.01010754
-0.0001206947
-0.01007289
-0.0001372532
-0.01007056
-0.0001052174
-0.01016342
3.503488e-05
-0.01032354
9.599979e-05
-0.01058993
0.0002125283
-0.01091761
0.0002555432
-0.01123501
0.0002488064
-0.01142558
0.0001555537
-0.01133374
-0.0001613366
-0.01100061
-0.0004397172
-0.01055109
-0.0005951532
-0.01008805
-0.0006314903
-0.009638188
-0.0006429178
-0.009218597
-0.0006106104
-0.008810681
-0.0006056004
-0.00841944
-0.0005696036
-0.008056368
-0.0004861558
-0.00773546
-0.0003711837
-0.007439392
-0.0003329726
-0.007155692
-0.0003721357
-0.006885832
-0.0004199279
-0.006633944
-0.0004259376
-0.006370564
-0.0004556549
-0.006121006
-0.0004201791
-0.005882312
-0.000391295
-0.005641538
-0.0003940024
-0.00552702
-0.0001875856
-0.005327087
-0.0003336623
-0.005136975
-0.0003224012
-0.004969865
-0.0002871382
-0.004832837
-0.0002335503
-0.004714194
-0.0001981565
-0.004600671
-0.000180101
-0.0044809
-0.0001726772
-0.004343084
-0.0001797914
-0.004163492
-0.0002360417
-0.003924155
-0.0003383985
-0.003622803
-0.0004572746
-0.003285339
-0.0005303046
-0.002904906
-0.0006213171
-0.002505867
-0.0006664622
-0.002101164
-0.0006861863
-0.001705765
-0.0006780384
-0.001352747
-0.0006037703
-0.001057059
-0.0004913999
-0.0007740092
-0.0004615363
-0.0004497981
-0.0005425111
-0.0001329276
-0.0005353181
0.0001934096
-0.0005484642
0.0005005835
-0.0005128051
0.0008214077
-0.0005411471
0.001157226
-0.0005719621
0.001463866
-0.0005221158
0.001716778
-0.0003352013
0.001562809
0.0005189597
0.0004692767
0.001661643
-0.0008343088
0.00190393
-0.0006418938
-2.831963e-05
0.0002757362
-0.001659593
0.003377515
-0.0008747513
0.0206285
-0.002913123
0.001391551
0.0007363071
-0.006685464
7.830259e-05
0.001252937
-0.002527014
0.004676832
-0.001537273
-0.001627708
-0.0001644356
-0.002496229
-9.969473e-05
-7.848747e-05
-0.0007250186
0.001026887
-0.0008487068
0.0003386734
-0.0004822921
-0.0005463416
-1.78192e-05
-0.0008044125
0.000168459
-0.0002547467
-2.462276e-05
0.0003062589
-0.0002415948
0.0002769271
-0.0002767308
4.913333e-05
-0.0001687348
-0.0001600208
0.0001001846
-0.0004637654
0.0005009531
-0.0007330456
0.0009206847
-0.0006514767
0.001109134
-0.0002737484
0.001111647
-0.0001202588
0.001508997
-0.0009263726
0.002457732
-0.001967596
0.002886652
-0.0004704236
0.001862321
0.002417577
-0.0006944136
0.003503521
-0.004340745
0.004564439
-0.007235133
0.005020312
-0.008138584
0.002859147
-0.007964656
0.0006821654
-0.007679916
-0.000120402
-0.007309461
-0.0005296759
-0.006712953
-0.0009988206
-0.006015752
-0.00120255
-0.005468693
-0.0009001762
-0.004861314
-0.0009814533
-0.003923588
-0.001617265
-0.00284275
-0.001934492
-0.002091367
-0.001301491
-0.00112491
-0.001731097
-0.0003089053
-0.001501394
0.0003537852
-0.001181497
0.0009795093
-0.001119743
0.001555588
-0.001021287
0.002227823
-0.001207485
0.002854878
-0.001136259
0.003561216
-0.001254627
0.004017273
-0.0009829559
0.0008123401
0.001414381
-0.01257548
0.0317896
-0.003073542
0.005879474
2.123089e-05
-0.009780237
-0.0005644513
0.00183862
-0.003363893
0.007476273
-0.002172982
-0.002818619
-0.0009518737
-0.003717337
-0.000961732
-6.86292e-05
-0.001217221
0.001282376
-0.001138263
0.0002597144
-0.000683023
-0.001001581
-0.0001320748
-0.001355361
0.0001355335
-0.0005223549
-0.0001214442
0.0005632366
-0.0004655461
0.000621029
-0.0005123772
9.596447e-05
-0.0003979632
-0.0002744349
-0.0001614502
-0.0007002783
0.0001847979
-0.001079294
0.0007508274
-0.001217506
0.0009865682
-0.0005094892
0.0007932536
7.305578e-05
0.0006466306
-0.0007797496
0.0009466732
-0.002267639
0.001580565
-0.001104315
0.0007269134
0.003271229
-0.003364744
0.007595179
-0.008076728
0.009276423
-0.009683767
0.006627351
-0.009442063
0.002617443
-0.009171816
0.000411918
-0.008957713
-0.0003345045
-0.008500917
-0.0009864727
-0.007771661
-0.001728076
-0.00694883
-0.002025382
-0.006311692
-0.001537314
-0.005559141
-0.001734005
-0.004384103
-0.002792303
-0.00306551
-0.003253085
-0.002100832
-0.00226617
-0.0009114085
-0.00292052
-6.224968e-06
-0.002406578
0.000806611
-0.001994332
0.001554489
-0.00186762
0.002262501
-0.001729299
0.003084252
-0.002029236
0.003884823
-0.00193683
0.004718997
-0.002088802
0.005204344
-0.001468303
0.00387737
0.002139315
-0.001679167
0.0155802
-0.001990353
-0.0008138711
-0.001396417
-0.00183693
-0.0006757951
-0.00124229
-0.000939795
0.0007115351
-0.0007303321
-0.0009976871
-1.850474e-06
-0.002576525
0.0004523628
-0.001552686
0.000939674
-0.001666857
0.001928684
-0.002774716
0.003303144
-0.003557554
0.004481014
-0.002795609
0.00493607
-0.001042945
0.005068408
-0.0006329561
0.006044619
-0.00287089
0.008200734
-0.005821607
0.01109908
-0.006329551
0.01182328
0.005011434
0.005742276
0.02154376
0.000747483
0.009674721
0.001223102
-0.008599127
0.001273803
-0.005508502
0.001518531
-0.002604154
0.0006494072
0.001157392
-0.003066554
0.006815399
-0.008203889
0.01029448
-0.01175264
0.009700575
-0.01316608
0.006674344
-0.01352562
0.00389768
-0.01361406
0.002155574
-0.01364415
0.001169107
-0.01364157
0.0005618344
-0.01361948
0.0001928959
-0.01328724
-0.0006938892
-0.01321063
-0.0001584632
-0.01311218
-0.0002768157
-0.01302936
-0.0002780228
-0.01299036
-0.0002297361
-0.01299868
-0.0001903684
-0.01313729
1.791941e-05
-0.01337781
0.0001032659
-0.01374797
0.0002649439
-0.01426315
0.0005502141
-0.01475055
0.0005833989
-0.01509781
0.0005597858
-0.01518438
0.0003421165
-0.01499973
6.41489e-05
-0.01461138
-0.0002327917
-0.01406456
-0.0007081576
-0.01347528
-0.001029
-0.01288834
-0.001182088
-0.01232219
-0.001197641
-0.01176845
-0.001196656
-0.01125027
-0.00112879
-0.0107533
-0.00110257
-0.01028488
-0.001038024
-0.009850744
-0.0009202952
-0.00946052
-0.0007614075
-0.00909205
-0.0007014426
-0.008736527
-0.0007276591
-0.008402505
-0.0007539497
-0.008101444
-0.0007269983
-0.007793204
-0.0007638955
-0.007502018
-0.000711365
-0.007220744
-0.0006725694
-0.006935461
-0.0006792844
-0.006804338
-0.0003187088
-0.006564958
-0.0005730423
-0.006337563
-0.0005497967
-0.006134525
-0.0004901761
-0.005964101
-0.0004039741
-0.005812339
-0.0003499182
-0.005664161
-0.0003282791
-0.005505282
-0.000331556
-0.005321168
-0.0003639062
-0.005083426
-0.0004737835
-0.004775052
-0.0006467726
-0.00439682
-0.0008355059
-0.003983661
-0.0009434639
-0.00352448
-0.001080498
-0.003048002
-0.00114294
-0.002565681
-0.001168507
-0.002093673
-0.001150047
-0.001669976
-0.001027467
-0.001307985
-0.0008533912
-0.0009580686
-0.0008114522
-0.0005710079
-0.0009295717
-0.0001936213
-0.0009127047
0.0002059895
-0.000948075
0.0005866246
-0.0008934401
0.000987978
-0.0009425005
0.001401305
-0.0009852887
0.001787423
-0.0009082342
0.002069313
-0.0006170915
0.002083964
0.0005043089
0.0008573312
0.002888276
-0.001028718
0.003789979
-0.0008925903
-0.0001644475
-2.452176e-05
-0.002527661
-0.002520062
0.005873055
-0.00356162
0.001880489
-0.003454813
0.0001109298
-0.003067222
-0.0006568368
-0.002668168
-0.0008686909
-0.002193228
-0.001125353
-0.001636709
-0.001349063
-0.0009695947
-0.001634972
-0.0002088746
-0.001885501
0.0006813831
-0.002178637
0.001598918
-0.002237778
0.002492821
-0.002155559
0.003248897
-0.001853048
0.004271435
-0.002565476
0.005350827
-0.002625911
0.006146063
-0.001894944
0.00699309
-0.002073889
0.007849249
-0.002133073
0.008765768
-0.002286474
0.009605108
-0.002071966
0.01025839
-0.001563633
0.01064619
-0.0008762084
0.01085442
-0.0002732712
0.0107349
0.001309149
0.01064567
0.003302375
0.008907361
0.008449609
0.003666341
0.01270625
-0.002002416
0.008961371
-0.00374857
0.0006153423
-0.002331125
-0.005235928
-0.001144206
-0.004228862
-0.002261686
0.001766595
-0.005285257
0.007372208
-0.006874263
0.00630727
-0.00620834
0.0007896779
-0.005316291
-0.001808786
-0.00361905
-0.00424702
-0.001475083
-0.005297503
0.000690331
-0.005569326
0.002055926
-0.00336472
0.002438378
-0.0006095711
0.001721481
0.001980297
0.000792957
0.002172585
8.188902e-05
0.001470548
-0.0001143761
0.0006246343
0.000816562
-0.002156838
0.001927427
-0.002964941
0.002216928
0.0001208885
0.002550239
-0.002189855
-0.001136135
0.004858232
-0.01025301
0.02528325
-0.01092797
0.001685884
-0.01004301
-0.002553749
-0.009667873
-0.0009820463
-0.00929656
-0.001011646
-0.009018602
-0.0007581579
-0.008761953
-0.0006995504
-0.008546242
-0.0005978738
-0.008173638
-0.0009402512
-0.008013554
-0.000433327
-0.00786829
-0.0003819502
-0.007730445
-0.0003586675
-0.007602897
-0.000327351
-0.007477084
-0.000320428
-0.007357057
-0.0003053192
-0.007238869
-0.0002968845
-0.007128856
-0.0002726073
-0.007020651
-0.0002623423
-0.006916961
-0.0002510835
-0.006812485
-0.0002507155
-0.006713127
-0.0002364261
-0.006613999
-0.0002329285
-0.006518103
-0.0002225163
-0.006425501
-0.0002098583
-0.006332423
-0.0002112436
-0.006240335
-0.0002099916
-0.006147595
-0.0002111576
-0.006058118
-0.0002009074
-0.00596928
-0.000193717
-0.005883724
-0.0001830461
-0.005794424
-0.0001907976
-0.005707616
-0.0001862951
-0.005616802
-0.0001955762
-0.005530137
-0.0001821856
-0.005442666
-0.0001796504
-0.005353795
-0.0001840181
-0.005263687
-0.0001869478
-0.005172122
-0.0001905906
-0.005081241
-0.0001845021
-0.004988253
-0.0001840366
-0.005005566
7.254145e-05
-0.004920969
-0.0001517
-0.004841536
-0.0001537291
-0.004759024
-0.0001585918
-0.004679175
-0.0001509761
-0.004595767
-0.0001577016
-0.004513568
-0.0001534405
-0.004429483
-0.0001547649
-0.00434504
-0.0001548728
-0.004256224
-0.0001665218
-0.004166341
-0.0001690222
-0.004076693
-0.0001640948
-0.003985149
-0.0001634167
-0.003892412
-0.0001617676
-0.00379332
-0.0001768437
-0.003689838
-0.000188866
-0.003584564
-0.0001909174
-0.003477512
-0.0001927808
-0.003362707
-0.0002099061
-0.003246019
-0.0002109249
-0.003120998
-0.0002254176
-0.002988257
-0.0002376592
-0.00284588
-0.0002500814
-0.002692159
-0.0002679715
-0.002509771
-0.0003341611
-0.002308302
-0.0003784388
-0.002096874
-0.0003946229
-0.001836886
-0.0004970565
-0.001479382
-0.0007234504
-0.0008766332
-0.001474449
0.0001856383
-0.002993941
0.001450487
-0.003175748
0.001719766
0.0001753808
0.002064443
-0.0006700413
0.002385754
-0.0007852122
0.002655808
-0.0007006603
0.002902094
-0.000606849
0.003134565
-0.0005459886
0.003342267
-0.0004677838
0.003518015
-0.000378252
0.003672746
-0.0003270702
0.003826186
-0.0003269328
0.003970419
-0.0003031223
0.004108176
-0.0002824184
0.004233066
-0.0002474777
0.004352311
-0.0002321445
0.004464061
-0.000215389
0.004575158
-0.0002151451
0.004680971
-0.0002018093
0.004781135
-0.0001864194
0.004877264
-0.000178859
0.004973253
-0.0001820947
0.005065616
-0.000174615
0.005154451
-0.0001686808
0.005244767
-0.0001754611
0.005329417
-0.00016332
0.005416177
-0.0001725961
0.005503483
-0.0001776605
0.005588922
-0.0001693487
0.005669479
-0.0001564483
0.005751992
-0.0001620741
0.005832919
-0.0001630867
0.005919432
-0.0001585471
0.005885621
0.0001110971
0.00598169
-0.0001956363
0.006078612
-0.0002077546
0.006173937
-0.0002077616
0.006268855
-0.0002084129
0.006364507
-0.0002132132
0.006459986
-0.0002110084
0.006551676
-0.0002011877
0.006646179
-0.0002100052
0.006740639
-0.0002163504
0.006840857
-0.0002317353
0.006935772
-0.0002166179
0.007031995
-0.0002175231
0.007128725
-0.0002226818
0.007229271
-0.0002342087
0.007329727
-0.0002362985
0.007435445
-0.0002528394
0.007543937
-0.0002612929
0.007653472
-0.000264575
0.007767779
-0.0002757511
0.007878253
-0.0002661329
0.007999561
-0.0002976649
0.008121322
-0.0003034525
0.008249358
-0.0003192815
0.008380805
-0.0003325422
0.008517222
-0.0003457129
0.008660309
-0.000368911
0.008813323
-0.0003979744
0.008969324
-0.000407905
0.009135555
-0.0004381044
0.009317561
-0.0004858162
0.009518183
-0.0005468373
0.00996369
-0.001137408
0.01023438
-0.000754315
0.01055547
-0.000878885
0.01091687
-0.000983237
0.01139639
-0.001303007
0.0119081
-0.001281134
0.01303349
-0.003331219
0.001134752
0.002057892
-0.001575993
-0.0003065183
0.002606636
-0.001218786
0.003076997
-0.001255573
0.003406606
-0.001030269
0.003674575
-0.0008748177
0.003928288
-0.0007997022
0.004161159
-0.0007006549
0.004361673
-0.0005787651
0.004538549
-0.0005039465
0.004713952
-0.0005023358
0.004878655
-0.0004678257
0.005036973
-0.0004407364
0.005181245
-0.0003917497
0.00531928
-0.0003701789
0.005449068
-0.0003451777
0.005577968
-0.0003440446
0.005701628
-0.0003254694
0.005818558
-0.0003033497
0.005931448
-0.0002917494
0.006044043
-0.0002946897
0.006152697
-0.000283269
0.00625732
-0.0002733031
0.006364083
-0.0002822241
0.006463915
-0.000263152
0.006566515
-0.0002751967
0.006670139
-0.0002812842
0.006771278
-0.0002704878
0.006867647
-0.0002528169
0.006966092
-0.0002605193
0.007062872
-0.0002598669
0.007168307
-0.0002639821
0.007130382
0.0001490223
0.007243952
-0.0003092059
0.007361042
-0.0003248452
0.007475011
-0.0003217305
0.007588805
-0.0003222065
0.007703878
-0.0003282866
0.00781866
-0.0003257902
0.007929374
-0.0003119017
0.008043408
-0.0003240397
0.008157664
-0.0003306058
0.008278784
-0.000352856
0.008393707
-0.0003315407
0.008510248
-0.0003340642
0.008627687
-0.0003401208
0.008749232
-0.0003557537
0.008870595
-0.0003576615
0.008998286
-0.0003805305
0.009128816
-0.0003918224
0.009260557
-0.0003963164
0.009397944
-0.0004131379
0.009529961
-0.0003981496
0.009675593
-0.0004432977
0.009820623
-0.0004484823
0.009972868
-0.000471526
0.0101295
-0.0004891727
0.01029074
-0.0005069517
0.01046089
-0.0005390627
0.01064182
-0.0005789064
0.01082614
-0.0005922219
0.01102268
-0.0006346464
0.01123824
-0.000701381
0.01171604
-0.001024631
0.01200794
-0.001429312
0.01232747
-0.001073848
0.01271045
-0.001261862
0.0131542
-0.001426989
0.01372832
-0.00187712
0.01443676
-0.001989574
0.01550701
-0.004401468
0.01543791
0.001203854
-0.01302813
0.01262312
0.002090891
-0.01219967
-0.00338221
-0.01168262
-0.001499091
-0.01124468
-0.001449584
-0.01090865
-0.001094192
-0.01060503
-0.001003172
-0.01035328
-0.0008496256
-0.01011814
-0.001175383
-0.009722016
-0.0008294557
-0.009551091
-0.0005528757
-0.009388171
-0.0005215871
-0.00923736
-0.000478162
-0.009088224
-0.0004695643
-0.008945464
-0.0004480785
-0.00880464
-0.0004377092
-0.008672672
-0.0004045754
-0.008542814
-0.0003921999
-0.008417744
-0.0003761533
-0.008291469
-0.000376991
-0.00817089
-0.0003570045
-0.008050515
-0.0003533034
-0.007933204
-0.0003398273