/*--------------------------------*- C++ -*----------------------------------*\
| =========                 |                                                 |
| \\      /  F ield         | OpenFOAM: The Open Source CFD Toolbox           |
|  \\    /   O peration     | Version:  2406                                  |
|   \\  /    A nd           | Website:  www.openfoam.com                      |
|    \\/     M anipulation  |                                                 |
\*---------------------------------------------------------------------------*/
FoamFile
{
    version     2.0;
    format      ascii;
    arch        "LSB;label=32;scalar=64";
    class       surfaceScalarField;
    location    "0.74";
    object      phi;
}
// * * * * * * * * * * * * * * * * * * * * * * * * * * * * * * * * * * * * * //

dimensions      [0 3 -1 0 0 0 0];

oriented        oriented;

internalField   nonuniform List<scalar> 
23794
(
0.001712893
-0.004431924
0.002719031
-0.0008134498
0.002526343
-0.001871975
0.001058525
-0.0008580125
-0.001013962
-0.0004686294
-0.000389383
-0.001566204
0.001097575
-0.001649055
8.285129e-05
0.0003354627
-0.001984518
0.0008123704
-0.0004769078
-0.001550781
0.002363152
-0.003669223
0.002118441
-0.003379074
-0.0002901487
-0.001564556
-0.001814518
3.077346e-05
-0.00159533
0.0007189504
-0.0006881769
0.0004656466
0.0002533038
1.040301e-05
0.0004552436
0.000221442
-0.000211039
0.001759185
-0.001537743
0.003985569
-0.002226384
0.006007253
-0.002021684
0.007391651
-0.001384397
0.007751474
-0.000359824
0.005322057
0.002429417
-0.0008109285
0.006132986
-0.005273376
0.004462447
-0.002558263
-0.002715113
0.0008554732
-0.003413736
0.002474129
-0.001618655
0.003320513
-0.0008463843
0.005270971
-0.001950458
0.008754795
-0.003483825
0.01021764
-0.001462848
0.005575943
0.0046417
0.0001288824
0.005447061
-0.000782226
0.0009111085
-0.0005127734
-0.0002694526
-0.004542216
0.004029442
-0.009224483
0.004682268
-0.012233
0.003008513
-0.01381697
0.001583969
-0.01472033
0.0009033597
-0.01530105
0.000580728
-0.01569311
0.0003920592
-0.01596085
0.000267741
-0.01603837
7.752001e-05
-0.01602891
-9.465322e-06
-0.01597786
-5.10509e-05
-0.01588231
-9.554368e-05
-0.01577377
-0.0001085401
-0.01560682
-0.000166956
-0.01540046
-0.0002063575
-0.01513592
-0.0002645403
-0.01484895
-0.0002869706
-0.01454591
-0.0003030374
-0.01418846
-0.0003574556
-0.01381228
-0.0003761749
-0.01342959
-0.0003826909
-0.01298055
-0.0004490388
-0.012509
-0.0004715538
-0.01201221
-0.0004967905
-0.01150954
-0.0005026651
-0.01098565
-0.0005238949
-0.01041041
-0.0005752394
-0.00984383
-0.0005665775
-0.009235654
-0.0006081766
-0.00860836
-0.0006272935
-0.007977381
-0.0006309795
-0.007338764
-0.000638617
-0.006666928
-0.0006718352
-0.005994829
-0.000672099
-0.005316592
-0.0006782371
-0.004627001
-0.0006895913
-0.003943603
-0.0006833976
-0.003273969
-0.0006696339
-0.002562426
-0.0007115439
-0.001853614
-0.0007088121
-0.001124521
-0.0007290926
-0.0003177866
-0.0008067343
0.0004434586
-0.0007612452
0.001153564
-0.000710105
0.001857647
-0.0007040836
0.002551978
-0.0006943306
0.003230518
-0.0006785401
0.003907844
-0.0006773256
0.004564028
-0.0006561846
0.005229566
-0.0006655377
0.005872671
-0.0006431055
0.006479254
-0.0006065824
0.007086692
-0.0006074384
0.007678224
-0.0005915314
0.008244218
-0.0005659948
0.008802825
-0.0005586069
0.00934322
-0.0005403951
0.009828545
-0.000485325
0.01030471
-0.0004761685
0.01076145
-0.0004567366
0.01117506
-0.0004136142
0.01158367
-0.0004086013
0.01193778
-0.0003541157
0.01226057
-0.0003227845
0.01254097
-0.0002804085
0.01277519
-0.0002342199
0.01299692
-0.0002217288
0.01317612
-0.0001791982
0.01330932
-0.0001332023
0.01339278
-8.345273e-05
0.01342107
-2.82958e-05
0.01337671
4.436752e-05
0.01321024
0.0001664604
0.01294086
0.0002693878
0.01246637
0.0004744912
0.01155559
0.0009107733
0.009801187
0.001754405
0.006456111
0.003345076
0.001678582
0.004777529
-0.00231669
0.003995272
-0.004273411
0.001956721
-0.004321147
4.773602e-05
-0.001808486
-0.002512661
0.00256297
-0.004371456
0.004187701
-0.001624732
-0.003152077
0.007339778
-0.01000761
0.006855529
-0.01019788
0.0001902692
-0.006868983
-0.003328892
-0.004210397
-0.002658586
-0.002656086
-0.001554311
-0.001357158
-0.001298927
0.0006818083
-0.002038967
0.003110278
-0.00242847
0.003613042
-0.0005027637
0.002249597
0.001363445
0.0007592155
0.001490381
-0.0009191316
0.001678347
-0.002355885
0.001436753
-0.002496846
0.0001409611
-0.001662032
-0.0008348139
-0.0003677415
-0.001294291
0.0005799077
-0.0009476491
0.001271554
-0.0006916464
0.001844118
-0.0005725644
0.00239949
-0.0005553711
0.00301564
-0.0006161506
0.003643587
-0.0006279467
0.004364182
-0.0007205954
0.005105036
-0.0007408534
0.005892277
-0.0007872417
0.006726474
-0.0008341966
0.007509886
-0.0007834114
0.008215709
-0.0007058232
0.008807838
-0.000592129
0.009115008
-0.0003071707
0.008893665
0.0002213433
0.008031446
0.0008622195
0.00656738
0.001464066
0.002135455
0.008237413
-0.01172407
0.006205689
0.003085526
0.00767823
-0.001194836
0.005338887
-0.002189474
-1.932439e-05
-0.002143536
-0.0004353206
-0.003240888
0.002194926
-0.003136661
-2.137594e-05
-0.0007363663
-0.004384812
-0.0004591245
-0.0007541496
-0.003608307
0.005512335
-0.005222888
0.003733022
-0.004092281
-0.001420756
-0.001986075
-0.003920724
5.618575e-05
-0.00363759
0.00111612
-0.001748111
0.0009921184
0.0003773055
-0.0002045042
0.001651866
-0.0004262554
1.071221e-05
0.002134647
-0.004098645
0.00533824
-0.005429977
0.007898258
-0.004581702
0.009532114
-0.003018254
0.01016535
-0.0009930575
0.008745591
0.003849174
0.001168642
0.01370993
-0.006243978
0.01187507
-0.004658267
-0.004300823
-0.001590696
-0.006481308
-0.0009358032
-0.002273548
-0.0005837959
-0.001198392
0.001065624
-0.003599878
0.004313836
-0.006732037
0.007855337
-0.005004348
0.006566279
0.005930758
0.0003407567
0.01167258
-0.006768435
0.0080203
-0.01317703
0.006139142
-0.0183231
0.009175512
-0.02169733
0.008056503
-0.02283106
0.004142242
-0.02309482
0.001847728
-0.02314676
0.000955301
-0.02311641
0.0005503785
-0.02304269
0.0003183348
-0.02294369
0.0001687448
-0.02273894
-0.0001272348
-0.0225223
-0.000226105
-0.02229129
-0.0002820588
-0.02201293
-0.0003739064
-0.02172302
-0.0003984514
-0.0213724
-0.0005175715
-0.02098306
-0.0005957
-0.02053065
-0.0007169485
-0.02005468
-0.0007629448
-0.01956882
-0.0007888944
-0.0190243
-0.0009019769
-0.01845661
-0.0009438651
-0.01788691
-0.0009523868
-0.01724093
-0.001095019
-0.01657377
-0.001138717
-0.01587746
-0.001193095
-0.01517377
-0.001206357
-0.0144518
-0.001245867
-0.01366853
-0.001358511
-0.0128976
-0.001337501
-0.01208285
-0.001422929
-0.01124402
-0.001466121
-0.01040448
-0.001470521
-0.009560912
-0.001482189
-0.008677001
-0.001555746
-0.00779185
-0.00155725
-0.006902624
-0.001567463
-0.006000859
-0.001591356
-0.005108248
-0.001576009
-0.004230938
-0.001546944
-0.003307936
-0.001634546
-0.002383814
-0.001632934
-0.001434287
-0.00167862
-0.0004016647
-0.001839357
0.0005803561
-0.001743266
0.001504958
-0.001634707
0.002421276
-0.001620401
0.003324872
-0.001597927
0.00421227
-0.001565939
0.005099475
-0.001564531
0.005962675
-0.001519384
0.006836636
-0.001539499
0.007686101
-0.00149257
0.008491861
-0.001412343
0.009300654
-0.001416231
0.01009514
-0.001386013
0.01085835
-0.001329212
0.01161351
-0.001313766
0.01235272
-0.001279598
0.0130274
-0.001160013
0.01369543
-0.001144194
0.01434207
-0.001103378
0.01494061
-0.001012155
0.01553576
-0.001003745
0.01606762
-0.0008859837
0.0165716
-0.0008267623
0.01702877
-0.0007375794
0.01743571
-0.0006411575
0.01783596
-0.0006219827
0.01819184
-0.0005350733
0.0184991
-0.0004404595
0.01875574
-0.0003400949
0.01896391
-0.0002364697
0.01914987
-0.0001415928
0.019288
2.83308e-05
0.0194223
0.0001350894
0.01950967
0.0003871242
0.01943273
0.0009877114
0.01903677
0.002150367
0.01737476
0.005007082
0.01262626
0.009526029
0.005540258
0.01108128
0.0005119558
0.006985024
0.0003883829
0.000171309
0.001795223
-0.003919501
0.003649415
-0.006225649
0.001775613
0.0002490709
-0.007225963
0.01634135
-0.01196298
0.01159255
-0.0103528
-0.001419915
-0.006774756
-0.006906935
-0.003906627
-0.005526716
-0.002325762
-0.003135176
-0.001042651
-0.002582038
0.0009968094
-0.004078427
0.004063582
-0.005495243
0.005598159
-0.00203734
0.003802967
0.003158637
0.0003488313
0.004944517
-0.00236336
0.004390538
-0.003448694
0.002522087
-0.003091993
-0.0002157401
-0.00202393
-0.001902876
-0.0004136387
-0.002904582
0.0008084121
-0.0021697
0.00170382
-0.001587054
0.002461258
-0.001330002
0.003194882
-0.001288996
0.003989305
-0.001410573
0.004805887
-0.001444529
0.005728985
-0.001643694
0.006680388
-0.001692256
0.007687642
-0.001794496
0.008743839
-0.001890394
0.009741741
-0.001781313
0.0106787
-0.001642779
0.01154272
-0.001456148
0.0123242
-0.001088659
0.01304538
-0.0004998278
0.01349678
0.0004108113
0.01327856
0.001682292
0.003689942
0.01380869
-0.01595328
0.008350278
0.008764992
0.01272193
0.002050005
0.01205387
-0.002145182
0.004175863
-0.003263754
0.0006832514
-0.004485056
0.003416227
-0.004795908
0.0002894757
-0.003514836
-0.005665884
-0.003600161
-0.0006688242
-0.005597253
0.007509427
-0.006428256
0.004564025
-0.004915817
-0.002933196
-0.002403033
-0.006433507
8.821409e-06
-0.006049445
0.001285065
-0.003024355
0.001503851
0.000158519
0.0002765868
0.00287913
9.325326e-05
0.0001940458
0.003405724
-0.007411115
0.007152933
-0.009177187
0.009989301
-0.00741807
0.01160027
-0.00462922
0.01189649
-0.001289282
0.01044683
0.005298837
0.003354772
0.02080199
-0.005560831
0.02079067
-0.007244937
-0.002616718
-0.00668814
-0.007038104
-0.007670861
-0.001290826
-0.007946606
-0.0009226467
-0.00613558
-0.005410904
-0.00223514
-0.01063248
0.0005479873
-0.007787476
0.001948272
0.004530473
-0.00569271
0.01931357
-0.01774802
0.02007561
-0.02501467
0.01340579
-0.02708518
0.01124602
-0.02720926
0.008180585
-0.02698714
0.003920126
-0.02702467
0.001885257
-0.02710612
0.001036753
-0.02715954
0.0006037943
-0.02716594
0.0003247351
-0.02713715
0.000139958
-0.02694785
-0.0003165412
-0.02671176
-0.0004621872
-0.02645021
-0.0005436143
-0.02613281
-0.0006913052
-0.02580369
-0.0007275713
-0.02539856
-0.0009227008
-0.02494827
-0.001045995
-0.02442078
-0.001244435
-0.0238642
-0.001319527
-0.02329781
-0.001355279
-0.02265734
-0.001542449
-0.02198887
-0.001612332
-0.02131976
-0.0016215
-0.02055573
-0.001859046
-0.0197664
-0.00192805
-0.01894155
-0.002017947
-0.01810737
-0.00204054
-0.01725102
-0.002102209
-0.01631841
-0.002291121
-0.0154021
-0.002253819
-0.01443045
-0.002394574
-0.01342959
-0.00246698
-0.01242686
-0.002473248
-0.01141864
-0.002490415
-0.010361
-0.002613385
-0.009301469
-0.002616778
-0.00823606
-0.002632872
-0.007156108
-0.002671308
-0.006086367
-0.002645749
-0.005035964
-0.002597347
-0.003933802
-0.002736708
-0.002830764
-0.002735972
-0.001699348
-0.002810036
-0.0004776003
-0.003061104
0.0006895746
-0.002910441
0.001796454
-0.002741586
0.002894228
-0.002718175
0.003976176
-0.002679875
0.005038455
-0.002628218
0.006099447
-0.002625523
0.007131008
-0.002550945
0.008175164
-0.002583655
0.009189082
-0.002506488
0.01015046
-0.002373724
0.0111152
-0.002380969
0.01206168
-0.002332495
0.0129703
-0.002237827
0.01386949
-0.002212964
0.01474848
-0.002158586
0.0155491
-0.001960628
0.01634226
-0.001937362
0.01710906
-0.001870173
0.01781696
-0.001720056
0.01852261
-0.00170939
0.01915016
-0.001513541
0.01974538
-0.00142198
0.02028362
-0.001275814
0.02075996
-0.001117503
0.02122968
-0.001091702
0.02164507
-0.0009504662
0.02200314
-0.0007985246
0.02230052
-0.0006374737
0.02253749
-0.0004734401
0.02272556
-0.0003296646
0.02282761
-7.372418e-05
0.02290853
5.416856e-05
0.02292792
0.0003677392
0.0228307
0.001084927
0.02278201
0.002199065
0.02295717
0.004831921
0.02191468
0.01056852
0.01804829
0.01494766
0.01399332
0.01103999
0.01187811
0.002286519
0.009781756
-0.001823145
0.006367084
-0.002810977
-0.0002079872
0.006824142
-0.00813946
0.02427283
-0.01160908
0.01506217
-0.009949812
-0.003079187
-0.005554563
-0.01130218
-0.002326658
-0.008754621
-0.0008484279
-0.004613406
0.0001405003
-0.003570967
0.001699162
-0.005637088
0.004533856
-0.008329937
0.006216349
-0.003719834
0.004165077
0.005209909
-8.111271e-05
0.009190707
-0.003138787
0.007448212
-0.004068629
0.003451929
-0.003586235
-0.0006981336
-0.002314918
-0.003174193
-0.0003931167
-0.004826383
0.001102057
-0.003664874
0.002163521
-0.002648519
0.003047372
-0.002213852
0.003894059
-0.002135683
0.004808446
-0.00232496
0.005752072
-0.002388155
0.00682715
-0.002718772
0.00793719
-0.002802296
0.009119449
-0.002976754
0.01036513
-0.003136076
0.0115454
-0.002961583
0.01265543
-0.002752806
0.01369284
-0.002493557
0.01458691
-0.00198273
0.01529465
-0.001207568
0.015846
-0.0001405432
0.01625211
0.001276189
0.003988772
0.01795731
-0.01895056
0.009343521
0.01434405
0.01633519
0.007092878
0.01930505
-0.0005548122
0.01182355
-0.004080423
0.004208862
-0.005776539
0.005112344
-0.006552586
0.001065522
-0.005852847
-0.006365623
-0.006238447
-0.000283224
-0.007476947
0.008747928
-0.007672903
0.00475998
-0.005917635
-0.004688463
-0.002883541
-0.009467602
-3.342502e-05
-0.008899561
0.001483711
-0.004541491
0.002059489
-0.0004172581
0.001371698
0.003566921
0.001613361
-4.761703e-05
0.005343318
-0.01114107
0.009235856
-0.01306973
0.01207794
-0.01026015
0.01343338
-0.005984657
0.01335697
-0.001212876
0.01126817
0.00738764
0.004692414
0.02737775
-0.005090234
0.03057332
-0.01097313
0.003266182
-0.01371663
-0.00429461
-0.01621365
0.001206198
-0.01697716
-0.0001591348
-0.01554143
-0.006846633
-0.01157846
-0.01459545
-0.006714126
-0.01265181
-0.007263108
0.005079454
-0.01737485
0.0294253
-0.02892736
0.03162812
-0.03263628
0.01711471
-0.0324487
0.01105843
-0.03215918
0.007891068
-0.03236796
0.004128905
-0.03267827
0.002195567
-0.03286189
0.001220375
-0.03294594
0.0006878378
-0.0329431
0.0003218961
-0.03288901
8.586964e-05
-0.03262859
-0.0005769625
-0.03231818
-0.0007725931
-0.03197807
-0.0008837223
-0.03157151
-0.001097865
-0.03115383
-0.001145254
-0.03064831
-0.00142822
-0.03009018
-0.001604121
-0.02944068
-0.00189394
-0.0287568
-0.00200341
-0.02806224
-0.002049839
-0.02728172
-0.002322965
-0.02646775
-0.002426305
-0.02565345
-0.002435798
-0.02472953
-0.002782965
-0.02377309
-0.002884491
-0.02277524
-0.003015799
-0.02176764
-0.003048133
-0.02073466
-0.003135193
-0.01960889
-0.003416893
-0.01850489
-0.003357818
-0.01733332
-0.003566148
-0.0161282
-0.003672092
-0.01491946
-0.003681995
-0.01370477
-0.003705102
-0.01243073
-0.003887423
-0.01115414
-0.00389337
-0.009869768
-0.003917243
-0.008569367
-0.00397171
-0.007279162
-0.003935954
-0.006015677
-0.003860832
-0.00469178
-0.004060605
-0.003369638
-0.004058114
-0.002020466
-0.004159208
-0.0005742461
-0.004507323
0.0008145786
-0.004299266
0.002145298
-0.004072305
0.003467049
-0.004039927
0.004766786
-0.003979612
0.006041756
-0.003903187
0.007314505
-0.003898271
0.008551718
-0.003788158
0.009806021
-0.003837958
0.01102149
-0.003721954
0.01217633
-0.003528572
0.01333638
-0.003541014
0.01447271
-0.003468829
0.01556662
-0.003331732
0.01665077
-0.003297113
0.01770806
-0.003215873
0.01867477
-0.002927344
0.01963345
-0.002896038
0.02055947
-0.002796193
0.02141703
-0.002577617
0.02227244
-0.002564803
0.0230351
-0.002276198
0.02375908
-0.002145962
0.02441583
-0.001932567
0.02500191
-0.001703577
0.02557996
-0.001669749
0.02609313
-0.00146364
0.02654031
-0.001245703
0.0269159
-0.001013068
0.0272224
-0.0007799401
0.02747284
-0.0005800989
0.02761988
-0.0002207652
0.02773544
-6.139828e-05
0.02775651
0.0003466756
0.02754918
0.001292255
0.02717893
0.002569312
0.02712787
0.004882985
0.02775164
0.009944742
0.02768173
0.01501758
0.02624497
0.01247675
0.02412182
0.004409673
0.02042056
0.00187811
0.01226731
0.005342272
0.0006828207
0.01840863
-0.006884867
0.03184052
-0.00994082
0.01811812
-0.008577494
-0.004442512
-0.003618827
-0.01626085
8.804885e-05
-0.0124615
0.001921676
-0.006447033
0.002293832
-0.003943122
0.00305208
-0.006395336
0.0049706
-0.01024846
0.006098658
-0.004847892
0.003842857
0.00746571
-0.0004981369
0.0135317
-0.003713775
0.01066385
-0.004734684
0.004472838
-0.004221097
-0.00121172
-0.002756314
-0.004638977
-0.000429369
-0.007153328
0.001427814
-0.005522056
0.002696133
-0.003916838
0.00372793
-0.003245649
0.004704348
-0.003112101
0.005759751
-0.003380363
0.006851005
-0.003479409
0.008108379
-0.003976146
0.009401383
-0.0040953
0.0107838
-0.004359172
0.01224096
-0.00459324
0.01362177
-0.004342392
0.01493092
-0.004061954
0.01615975
-0.003722383
0.0172368
-0.00305978
0.0180985
-0.002069274
0.01866656
-0.0007086017
0.01897638
0.0009663686
0.004014598
0.02152873
-0.02206923
0.00988402
0.01936543
0.01849849
0.01308472
0.02558575
0.003101923
0.02180635
-0.003995326
0.01130611
-0.006969749
0.008086767
-0.008181096
0.00227687
-0.007795428
-0.006751291
-0.008327974
0.0002493218
-0.009136172
0.009556125
-0.008976129
0.004599937
-0.006979228
-0.006685363
-0.003396139
-0.01305069
-6.004652e-05
-0.01223565
0.001795769
-0.006397306
0.002572648
-0.001194137
0.002730653
0.003408916
0.003846876
-0.001163841
0.007647757
-0.01494195
0.01117604
-0.01659801
0.01367857
-0.01276268
0.01463831
-0.006944399
0.01421295
-0.0007875181
0.01135112
0.01024947
0.004871963
0.03385691
-0.005864703
0.04130998
-0.01621747
0.01361895
-0.02241519
0.001903115
-0.02623763
0.005028637
-0.02770022
0.001303453
-0.02746258
-0.007084277
-0.02548632
-0.01657171
-0.02289331
-0.01524483
-0.02543866
0.007624809
-0.03283615
0.03682279
-0.03798739
0.03677937
-0.03812795
0.01725527
-0.03794275
0.01087323
-0.03811517
0.008063489
-0.03849156
0.004505294
-0.0388337
0.002537712
-0.03905421
0.001440882
-0.03919196
0.0008255859
-0.03921171
0.0003416498
-0.03918438
5.854052e-05
-0.03889891
-0.0008624389
-0.03855589
-0.001115608
-0.03817577
-0.00126384
-0.03770157
-0.001572069
-0.03723192
-0.001614904
-0.03663844
-0.0020217
-0.03598881
-0.002253755
-0.03522145
-0.0026613
-0.0344139
-0.002810957
-0.03359721
-0.002866529
-0.03266862
-0.003251553
-0.03170047
-0.003394452
-0.030736
-0.00340027
-0.02963577
-0.003883197
-0.02849313
-0.004027132
-0.02730152
-0.004207409
-0.02610078
-0.004248871
-0.02486892
-0.004367049
-0.02351878
-0.004767042
-0.02220187
-0.004674728
-0.02079699
-0.004971019
-0.01935453
-0.005114558
-0.01790445
-0.005132072
-0.01644858
-0.005160973
-0.01491685
-0.005419149
-0.01338159
-0.005428639
-0.01183358
-0.005465251
-0.01026877
-0.005536522
-0.008712168
-0.005492551
-0.007191463
-0.005381537
-0.005597296
-0.005654772
-0.004009742
-0.005645669
-0.002402267
-0.005766683
-0.0006934216
-0.006216169
0.0009573558
-0.005950043
0.002560307
-0.005675256
0.004152824
-0.005632444
0.005711912
-0.0055387
0.007240531
-0.005431806
0.008767427
-0.005425168
0.01025005
-0.005270778
0.01175678
-0.005344688
0.01321035
-0.005175524
0.01459702
-0.004915245
0.01599239
-0.004936387
0.01735093
-0.00482737
0.01866331
-0.004644105
0.01996861
-0.004602421
0.02123273
-0.004479985
0.02239031
-0.004084924
0.02354025
-0.004045979
0.02464717
-0.003903111
0.02566896
-0.003599408
0.02669379
-0.003589638
0.02760141
-0.00318382
0.02846268
-0.003007223
0.02924205
-0.002711941
0.02993307
-0.002394597
0.03061752
-0.002354195
0.03121729
-0.00206341
0.03174255
-0.001770972
0.03217508
-0.001445595
0.03252415
-0.001129012
0.03280599
-0.0008619331
0.03295353
-0.0003683091
0.03306722
-0.0001750879
0.03305417
0.0003597233
0.03281579
0.001530634
0.03240738
0.002977729
0.03204745
0.005242909
0.03251135
0.00948084
0.03360836
0.01392058
0.03367544
0.01240966
0.0320365
0.006048613
0.02876579
0.005148824
0.01956003
0.01454804
0.005575682
0.03239298
-0.003474406
0.0408906
-0.006313395
0.02095711
-0.004888995
-0.005866912
9.794983e-05
-0.0212478
0.004037068
-0.01640061
0.005748862
-0.008158827
0.005647704
-0.003841965
0.005236049
-0.005983682
0.005560488
-0.0105729
0.005531458
-0.004818862
0.003091664
0.009905504
-0.001061345
0.01768471
-0.004373844
0.01397635
-0.005547732
0.005646725
-0.00506482
-0.001694633
-0.003434644
-0.006269152
-0.0006230373
-0.009964935
0.001657534
-0.007802627
0.00317359
-0.005432895
0.004387289
-0.004459348
0.005523079
-0.00424789
0.00674914
-0.004606425
0.007989669
-0.004719938
0.009429388
-0.005415865
0.01089432
-0.005560235
0.01247678
-0.005941629
0.01415418
-0.006270637
0.01574736
-0.005935575
0.01727887
-0.005593469
0.01872099
-0.005164499
0.01999592
-0.004334714
0.0210405
-0.003113846
0.02175502
-0.001423121
0.02211916
0.0006022269
0.004064523
0.02516834
-0.02555792
0.01027359
0.0240004
0.01966643
0.0194287
0.03015745
0.008863616
0.03237144
-0.002362821
0.02253255
-0.007963147
0.01368709
-0.009767118
0.004080841
-0.009386375
-0.007132034
-0.009848585
0.0007115316
-0.01061076
0.0103183
-0.01035772
0.004346897
-0.008047211
-0.008995873
-0.003883071
-0.01721483
-4.459527e-05
-0.01607413
0.002215533
-0.008657434
0.003030648
-0.002009253
0.003795239
0.002644326
0.005817143
-0.003185746
0.009443177
-0.01856799
0.01212759
-0.01928243
0.01416004
-0.01479513
0.01498233
-0.007766684
0.01453205
-0.0003372402
0.01101099
0.01377053
0.003766925
0.04110098
-0.00845042
0.05352733
-0.02258749
0.02775602
-0.031327
0.01064262
-0.03608131
0.00978295
-0.03849966
0.003721797
-0.04014166
-0.005442277
-0.041489
-0.01522436
-0.04325001
-0.01348382
-0.04614117
0.01051596
-0.04730314
0.03798475
-0.04572535
0.03520159
-0.04499762
0.01652754
-0.04568343
0.01155904
-0.04607266
0.008452722
-0.04654881
0.004981443
-0.04692722
0.002916121
-0.04715589
0.001669551
-0.04729404
0.0009637424
-0.04725161
0.0002992166
-0.04719336
2.933435e-07
-0.04682197
-0.001233833
-0.04639537
-0.001542209
-0.04591765
-0.001741557
-0.04531748
-0.002172244
-0.04475179
-0.002180586
-0.0440222
-0.00275129
-0.04323586
-0.003040101
-0.0423033
-0.003593857
-0.04132259
-0.003791665
-0.04033975
-0.003849367
-0.03921569
-0.004375615
-0.03804773
-0.004562413
-0.03689262
-0.004555381
-0.03556965
-0.005206168
-0.03419077
-0.005406014
-0.03276007
-0.005638103
-0.03131925
-0.005689695
-0.02984478
-0.005841517
-0.02821749
-0.006394337
-0.02664637
-0.006245842
-0.02495767
-0.006659719
-0.0232288
-0.006843436
-0.02149061
-0.006870259
-0.01974783
-0.006903755
-0.01790936
-0.007257618
-0.01606863
-0.007269363
-0.01420221
-0.007331677
-0.01231978
-0.00741895
-0.01043547
-0.007376859
-0.008606194
-0.007210816
-0.006685153
-0.007575813
-0.00477202
-0.007558802
-0.002857452
-0.007681251
-0.0008377822
-0.008235839
0.001123148
-0.007910973
0.003062619
-0.007614726
0.004975055
-0.00754488
0.006843851
-0.007407495
0.00867765
-0.007265606
0.01050809
-0.007255603
0.01228384
-0.007046527
0.01409773
-0.007158579
0.01583636
-0.006914154
0.01750541
-0.006584302
0.01919058
-0.006621553
0.02081528
-0.006452071
0.02239014
-0.006218959
0.02397149
-0.006183778
0.02548534
-0.005993832
0.02687166
-0.005471249
0.02825614
-0.005430457
0.02958624
-0.005233207
0.03080933
-0.004822495
0.03204497
-0.004825286
0.03313695
-0.004275795
0.03417408
-0.004044356
0.03511125
-0.003649109
0.03594728
-0.003230628
0.03678042
-0.00318734
0.03750324
-0.002786228
0.03814904
-0.002416766
0.03867538
-0.001971935
0.03910887
-0.001562506
0.0394597
-0.001212758
0.03966545
-0.0005740671
0.03982861
-0.0003382484
0.03988376
0.0003045781
0.03961664
0.001797749
0.03917784
0.003416531
0.03872218
0.005698567
0.03873931
0.009463716
0.03934851
0.01331138
0.03929533
0.01246284
0.03750545
0.007838498
0.03508343
0.007570842
0.02794066
0.0216908
0.01431427
0.04601937
0.003783808
0.05142106
0.0007930636
0.02394786
0.002021937
-0.007095785
0.006443251
-0.02566911
0.009686625
-0.01964399
0.01097909
-0.009451296
0.0102947
-0.003157572
0.008481616
-0.004170596
0.00665996
-0.00875124
0.004930943
-0.003089845
0.002059495
0.01277695
-0.001956944
0.02170115
-0.005220882
0.01724029
-0.006567162
0.006993005
-0.006207865
-0.002053929
-0.004419323
-0.008057695
-0.001092012
-0.01329225
0.001637552
-0.01053219
0.00346827
-0.007263612
0.004914842
-0.00590592
0.006234008
-0.005567057
0.007629201
-0.006001618
0.008956342
-0.006047078
0.01054722
-0.007006748
0.01217025
-0.007183264
0.01398347
-0.007754843
0.01592878
-0.008215954
0.0177913
-0.007798089
0.01962826
-0.007430431
0.0213605
-0.006896734
0.02289775
-0.005871965
0.02416019
-0.004376285
0.02503949
-0.002302425
0.025553
8.871324e-05
0.004059612
0.02906817
-0.02934596
0.01055139
0.02848302
0.02025158
0.02576749
0.03287298
0.01665582
0.04148311
0.002045895
0.03714247
-0.007700547
0.02343353
-0.01081253
0.007192828
-0.01047325
-0.007471319
-0.01083834
0.001076619
-0.01184289
0.01132286
-0.01172198
0.004225983
-0.00904422
-0.01167363
-0.004301249
-0.0219578
8.036277e-05
-0.02045574
0.002700492
-0.01127756
0.003551068
-0.002859829
0.004349787
0.001845607
0.006613598
-0.005449557
0.009651819
-0.02160621
0.01124565
-0.02087626
0.01330735
-0.01685683
0.01469377
-0.009153106
0.01445891
-0.0001023738
0.01011915
0.01811028
0.001189519
0.05003061
-0.01308421
0.06780106
-0.02956299
0.0442348
-0.03930016
0.02037979
-0.04432393
0.01480672
-0.04752648
0.00692435
-0.05066814
-0.002300622
-0.05444276
-0.01144973
-0.05919691
-0.008729664
-0.06182721
0.01314626
-0.05857127
0.03472881
-0.05414215
0.03077247
-0.05409582
0.01648121
-0.05490692
0.01237014
-0.05518867
0.008734466
-0.05569694
0.005489715
-0.05609484
0.003314023
-0.05636076
0.001935473
-0.05657533
0.001178314
-0.05652144
0.0002453236
-0.05653259
1.14391e-05
-0.05604418
-0.001722238
-0.05555949
-0.0020269
-0.05500792
-0.002293129
-0.05426868
-0.002911477
-0.05363218
-0.002817094
-0.05274368
-0.003639785
-0.05182118
-0.003962599
-0.05070503
-0.004710013
-0.04952348
-0.004973216
-0.048359
-0.005013845
-0.04701745
-0.005717165
-0.04561685
-0.005963011
-0.044232
-0.00594023
-0.04265697
-0.006781197
-0.04100675
-0.007056239
-0.03929476
-0.00735009
-0.03755037
-0.007434085
-0.03581219
-0.007579701
-0.03384208
-0.008364442
-0.03197537
-0.008112556
-0.02993842
-0.008696667
-0.02787151
-0.008910342
-0.02579557
-0.008946205
-0.0236818
-0.009017522
-0.02149767
-0.009441753
-0.01930206
-0.009464967
-0.01705984
-0.009573902
-0.01481419
-0.009664602
-0.01249795
-0.009693096
-0.01031891
-0.009389854
-0.007999177
-0.009895546
-0.005681209
-0.00987677
-0.003402875
-0.009959585
-0.001009145
-0.01062957
0.001321339
-0.01024146
0.003674926
-0.009968313
0.005950395
-0.009820349
0.008198488
-0.009655588
0.01040489
-0.009472005
0.01258932
-0.009440037
0.01471562
-0.009172823
0.01691781
-0.009360774
0.01900526
-0.009001603
0.02100367
-0.008582714
0.02302822
-0.008646104
0.0249917
-0.008415551
0.0268842
-0.008111456
0.0287717
-0.008071279
0.0305903
-0.007812427
0.03224536
-0.007126313
0.03390319
-0.007088285
0.03547859
-0.006808607
0.03695715
-0.006301053
0.03844025
-0.006308393
0.0397395
-0.005575041
0.04099318
-0.005298037
0.04210009
-0.004756021
0.04310079
-0.004231327
0.04410337
-0.004189919
0.04495092
-0.003633772
0.04573235
-0.003198201
0.04634426
-0.002583842
0.04686627
-0.002084519
0.04730425
-0.001650737
0.04752541
-0.0007952254
0.04771229
-0.0005251343
0.04772369
0.0002931793
0.04743485
0.002086593
0.04695771
0.003893671
0.04653911
0.006117162
0.04650429
0.009498536
0.04673484
0.01308083
0.04628173
0.01291595
0.04394834
0.01017189
0.04147
0.01004918
0.03741505
0.02574575
0.02745098
0.05598344
0.01688357
0.06198847
0.0115679
0.02926353
0.0125856
-0.008113483
0.01631733
-0.02940084
0.01783516
-0.02116182
0.01791515
-0.009531277
0.01627181
-0.001514241
0.01290801
-0.0008067872
0.008650362
-0.004493596
0.004663954
0.0008965622
0.0008919385
0.01654897
-0.003163656
0.02575674
-0.006248561
0.02032519
-0.007864506
0.00860895
-0.007701955
-0.00221648
-0.005773813
-0.009985837
-0.001979314
-0.01708674
0.001204946
-0.01371645
0.003462927
-0.009521593
0.005167943
-0.007610936
0.006622462
-0.007021575
0.0080808
-0.007459957
0.009387961
-0.007354239
0.01117905
-0.00879784
0.01301236
-0.009016566
0.01518482
-0.009927312
0.01754164
-0.01057277
0.01981878
-0.01007524
0.02214384
-0.009755491
0.02430654
-0.009059434
0.0261984
-0.007763819
0.02771279
-0.005890679
0.0287186
-0.003308232
0.02931313
-0.0005058118
0.004026774
0.0332699
-0.03358148
0.01086296
0.03300766
0.02051382
0.03195749
0.03392316
0.02653263
0.04690796
0.01260708
0.05106803
-0.00161386
0.03765447
-0.008169849
0.01374882
-0.01023743
-0.005403742
-0.01154435
0.002383544
-0.01258624
0.01236474
-0.01265238
0.004292123
-0.009768705
-0.0145573
-0.004611569
-0.02711494
0.0003572103
-0.02542452
0.003139618
-0.01405997
0.004376819
-0.00409703
0.004855138
0.001367288
0.005947957
-0.006542376
0.007700446
-0.0233587
0.008536462
-0.02171227
0.01176127
-0.02008164
0.01383691
-0.01122875
0.01302747
0.0007070696
0.00793512
0.02320263
-0.0031951
0.06116083
-0.02042544
0.0850314
-0.03829472
0.06210408
-0.04681504
0.02890011
-0.05199919
0.01999087
-0.05598334
0.0109085
-0.0599837
0.001699742
-0.06480266
-0.006630775
-0.07050357
-0.003028754
-0.07301283
0.01565551
-0.06907303
0.03078901
-0.06498749
0.02668693
-0.06550866
0.01700238
-0.06612923
0.01299072
-0.06644724
0.009052473
-0.06704585
0.006088324
-0.06748151
0.003749678
-0.06768614
0.002140106
-0.06801375
0.001505927
-0.06780413
3.570073e-05
-0.06778229
-1.0401e-05
-0.06726693
-0.002237601
-0.06664526
-0.002648561
-0.06604669
-0.002891702
-0.0650657
-0.003892466
-0.06434859
-0.003534212
-0.06326729
-0.004721083
-0.06218906
-0.005040822
-0.06082848
-0.006070594
-0.0593777
-0.006423995
-0.05800575
-0.006385801
-0.05643
-0.007292914
-0.05467999
-0.007713019
-0.05302771
-0.007592512
-0.05116843
-0.00864048
-0.04921003
-0.009014637
-0.04711417
-0.009445946
-0.04500215
-0.009546111
-0.04302074
-0.009561109
-0.04056849
-0.01081669
-0.03838561
-0.01029543
-0.03586614
-0.01121614
-0.03345589
-0.01132059
-0.03096223
-0.01143986
-0.02839019
-0.01158957
-0.02582435
-0.0120076
-0.02316817
-0.01212115
-0.02047495
-0.01226712
-0.0178326
-0.01230695
-0.01498183
-0.01254387
-0.01243716
-0.01193452
-0.009581072
-0.01275163
-0.006781596
-0.01267625
-0.004065614
-0.01267557
-0.001208384
-0.0134868
0.001612162
-0.013062
0.004376097
-0.01273225
0.007081682
-0.01252593
0.009807434
-0.01238134
0.01247581
-0.01214039
0.01510205
-0.01206627
0.01762915
-0.01169992
0.02034356
-0.01207518
0.02283093
-0.01148898
0.02523286
-0.01098464