/*--------------------------------*- C++ -*----------------------------------*\
| =========                 |                                                 |
| \\      /  F ield         | OpenFOAM: The Open Source CFD Toolbox           |
|  \\    /   O peration     | Version:  2406                                  |
|   \\  /    A nd           | Website:  www.openfoam.com                      |
|    \\/     M anipulation  |                                                 |
\*---------------------------------------------------------------------------*/
FoamFile
{
    version     2.0;
    format      ascii;
    arch        "LSB;label=32;scalar=64";
    class       volVectorField;
    location    "0.74";
    object      U;
}
// * * * * * * * * * * * * * * * * * * * * * * * * * * * * * * * * * * * * * //

dimensions      [0 1 -1 0 0 0 0];

internalField   nonuniform List<vector> 
15536
(
(0.02682916 3.359188 -2.394152e-22)
(0.04749306 0.4194971 -7.119479e-19)
(0.2004439 -2.012637 -1.261001e-18)
(0.1413041 -1.606341 -1.14345e-18)
(0.01307936 -0.246777 -1.969379e-20)
(0.2899423 -0.9959066 1.074566e-20)
(0.5504149 -1.956619 2.303815e-20)
(0.2147835 -0.9685502 -2.275639e-20)
(-0.5164403 1.463924 5.900182e-18)
(0.04096307 0.1754622 5.66856e-18)
(1.574924 -3.163408 0)
(1.827517 -3.610834 0)
(1.123991 -2.195937 -2.930402e-20)
(0.2715842 -0.583242 7.273788e-18)
(-0.3676289 0.5372828 3.654216e-18)
(-0.479429 0.7233956 -7.475167e-18)
(-0.1246169 0.1822696 3.963874e-18)
(0.1161098 -0.1600903 4.008998e-20)
(-0.5110112 0.5085259 -8.941755e-20)
(-2.069152 2.019918 4.841018e-20)
(-3.760797 3.469378 0)
(-5.205964 4.520987 1.150518e-17)
(-6.132134 4.994419 0)
(-5.915982 4.656755 1.201491e-17)
(-2.536231 2.18084 -8.16976e-20)
(3.957611 -2.190061 -1.863613e-20)
(4.92993 -2.922626 1.870223e-20)
(0.5603239 -0.4865996 -4.711588e-18)
(-2.113656 0.8514112 -7.35302e-18)
(-3.023564 1.21071 0)
(-4.123596 1.468309 -4.332565e-20)
(-6.590371 2.052413 -5.947609e-18)
(-9.317873 2.709393 8.702614e-18)
(-9.30169 2.664527 0)
(-3.355838 1.041279 -8.765815e-18)
(2.699582 -0.4578113 -2.990122e-20)
(-0.2128483 -0.2820214 4.111297e-18)
(1.325722 -0.09550913 -1.992325e-18)
(7.614444 0.1210769 1.846917e-21)
(11.58882 0.5919336 -4.58632e-19)
(13.65162 1.182945 1.849533e-18)
(14.72053 1.849803 -2.925385e-20)
(15.32753 2.560343 2.897625e-20)
(15.66093 3.269873 0)
(15.81208 3.966673 -7.231336e-18)
(15.81028 4.637082 -7.159074e-18)
(15.65184 5.269983 0)
(15.40245 5.871083 -1.361443e-17)
(15.08603 6.443668 1.326643e-17)
(14.72666 6.990286 1.281501e-17)
(14.31349 7.495708 4.682336e-20)
(13.8401 7.955635 -1.168847e-17)
(13.31471 8.364919 0)
(12.74631 8.725485 0)
(12.14392 9.033864 9.608845e-18)
(11.50504 9.281825 8.890594e-18)
(10.84943 9.480724 6.021507e-20)
(10.1832 9.628676 7.209253e-18)
(9.492231 9.705635 1.290594e-17)
(8.790039 9.720619 5.62716e-18)
(8.084957 9.676793 4.739463e-18)
(7.391022 9.583889 -3.405454e-20)
(6.704649 9.43128 0)
(6.023327 9.211739 2.158794e-18)
(5.361776 8.942788 0)
(4.715838 8.60965 -3.937546e-19)
(4.092379 8.220561 -2.887447e-20)
(3.503998 7.785548 -3.132919e-21)
(2.949949 7.302237 6.506466e-21)
(2.434456 6.774394 -2.833449e-18)
(1.963948 6.211588 -1.511947e-20)
(1.539163 5.611774 2.131605e-18)
(1.161804 4.977912 2.435589e-18)
(0.8374478 4.32663 0)
(0.5653323 3.660022 0)
(0.3477861 2.972415 3.173448e-18)
(0.182826 2.263981 -5.702114e-22)
(0.07501025 1.529321 8.923837e-19)
(0.0284405 0.7406791 1.669707e-21)
(0.03213763 -0.06679286 -7.239473e-21)
(0.08695286 -0.8156511 -1.817282e-18)
(0.1970199 -1.531947 0)
(0.3621803 -2.233016 3.384437e-18)
(0.5801866 -2.914882 0)
(0.8494701 -3.572206 -2.983684e-18)
(1.167333 -4.200784 2.716266e-18)
(1.5332 -4.79898 2.040975e-20)
(1.943197 -5.364393 4.396886e-18)
(2.393451 -5.886205 1.354797e-20)
(2.879842 -6.362418 -3.166542e-18)
(3.399487 -6.795399 -2.485564e-18)
(3.949313 -7.179214 1.62739e-20)
(4.526873 -7.515639 -1.034158e-18)
(5.124273 -7.799574 2.90656e-19)
(5.734511 -8.027626 6.411033e-21)
(6.346446 -8.188886 5.701041e-21)
(6.964889 -8.296675 -1.905717e-18)
(7.585479 -8.351168 0)
(8.19981 -8.34573 6.579123e-18)
(8.809281 -8.290199 3.924514e-18)
(9.395028 -8.171994 8.123492e-20)
(9.953194 -7.994008 -5.28834e-18)
(10.4795 -7.759632 0)
(10.972 -7.473355 0)
(11.4286 -7.143144 0)
(11.84018 -6.767776 0)
(12.19573 -6.348171 7.740463e-18)
(12.49241 -5.88979 8.144425e-18)
(12.71687 -5.394478 2.724719e-20)
(12.82472 -4.85468 -8.612234e-18)
(12.79682 -4.273267 -4.344053e-18)
(12.59879 -3.653658 -4.416441e-18)
(12.10554 -2.995333 3.431922e-20)
(11.06873 -2.316805 4.287698e-18)
(8.848418 -1.552641 2.138616e-18)
(4.607403 -0.6634954 -1.697182e-20)
(-1.269139 0.03495873 -4.64681e-21)
(-4.138677 -0.1034272 3.168514e-19)
(-5.045964 -0.2624612 -6.1159e-19)
(-3.351522 -0.0287226 -1.010945e-20)
(0.177734 0.3609758 5.837021e-21)
(6.290234 1.156151 6.041996e-19)
(0.8027567 -0.2337088 8.911643e-21)
(-8.392839 -2.523916 0)
(-10.45506 -3.102247 -6.085719e-18)
(-8.093573 -2.568131 -3.716406e-18)
(-5.30476 -1.887248 6.213741e-21)
(-3.333911 -1.337768 1.897727e-18)
(-1.983667 -0.8582955 -8.581776e-19)
(-0.4590595 -0.138336 0)
(1.738792 1.044737 0)
(3.438827 2.054089 9.195425e-19)
(2.802383 1.759315 0)
(1.282959 0.8674458 -1.056316e-22)
(-0.05392675 -0.1481705 -3.88257e-19)
(-1.443809 -1.391978 -1.376047e-18)
(-1.996252 -1.927349 1.525089e-20)
(-1.518211 -1.520823 -4.000728e-18)
(-0.727616 -0.7209705 -3.082004e-20)
(0.08277853 0.154263 4.070472e-18)
(0.5812993 0.7739383 2.070288e-18)
(0.9381355 1.313466 2.082936e-18)
(1.21125 1.826558 2.058132e-18)
(1.450987 2.379774 0)
(1.669929 2.984878 -1.206457e-20)
(1.86639 3.664094 -2.174601e-18)
(2.038222 4.414764 0)
(2.1681 5.219655 2.721652e-18)
(2.250609 6.074513 -2.475218e-20)
(2.274892 6.951446 1.318923e-20)
(2.223006 7.79696 2.141402e-18)
(2.084215 8.545521 1.176977e-20)
(1.866985 9.132676 0)
(1.540745 9.288519 1.519859e-18)
(1.113977 8.774125 1.236383e-20)
(0.6420654 7.616765 3.241027e-21)
(0.2383401 5.814465 -3.989639e-21)
(0.221973 9.037561 -2.944937e-19)
(0.09086882 5.214307 5.300998e-19)
(0.1917197 0.2034655 0)
(0.200603 -2.078593 9.557166e-19)
(0.2769419 -1.764386 0)
(0.6563674 -2.29633 4.516089e-18)
(0.7626092 -2.914496 1.874494e-20)
(0.2928048 -1.963981 -1.810572e-20)
(-0.2988267 0.5023228 -4.884686e-18)
(0.7849277 -1.147348 -4.486753e-18)
(2.247664 -4.458439 0)
(1.69337 -3.576728 2.819103e-20)
(1.068629 -2.426975 -4.434092e-21)
(0.1583653 -0.6744656 -2.926268e-18)
(-0.4603142 0.5259606 -6.046812e-18)
(-0.7156694 1.032915 3.049863e-18)
(-0.317136 0.5270908 -3.152557e-18)
(0.6126009 -0.7488493 -2.757283e-20)
(-0.4277016 0.1317397 0)
(-2.504396 2.091954 0)
(-4.355955 3.693418 0)
(-5.805369 4.737336 9.249756e-18)
(-6.688617 5.163252 7.847188e-20)
(-6.718915 5.140685 -7.668793e-20)
(-4.968248 4.255193 3.305068e-20)
(3.262191 -1.29216 -3.393208e-20)
(5.713429 -3.615256 0)
(1.947557 -1.530282 0)
(0.6161854 -0.5325173 1.201823e-17)
(0.4006662 -0.3069619 6.052049e-20)
(-0.05648707 -0.2613622 -5.907437e-20)
(-2.063501 0.1710404 5.235409e-18)
(-4.045347 0.7607229 7.597442e-18)
(-7.510176 2.106379 -5.970258e-20)
(-4.844114 1.632833 -6.687352e-18)
(3.884619 -0.3177409 2.704021e-18)
(9.336566 -0.7553886 1.764817e-21)
(13.3534 -0.3389924 1.284194e-18)
(17.86914 -0.03738085 0)
(19.40717 0.3229212 3.293571e-19)
(19.73529 0.8441889 2.749858e-18)
(19.78669 1.509147 2.850544e-18)
(19.70193 2.228058 2.873404e-18)
(19.52541 2.951254 -8.918237e-20)
(19.28568 3.684383 5.801492e-18)
(18.99158 4.407788 -4.412277e-20)
(18.65883 5.119594 0)
(18.26597 5.800899 1.085014e-17)
(17.81138 6.451586 0)
(17.31446 7.069743 -7.7276e-20)
(16.76677 7.641664 7.748081e-20)
(16.16436 8.164611 9.331482e-18)
(15.51455 8.632006 -6.618115e-20)
(14.82402 9.044039 8.27667e-18)
(14.10063 9.396353 -7.728778e-18)
(13.34873 9.684978 0)
(12.5783 9.920526 4.76904e-20)
(11.79616 10.09785 -5.912887e-18)
(10.99734 10.20274 -1.029625e-17)
(10.18626 10.23731 0)
(9.37605 10.21252 -3.804183e-18)
(8.576049 10.12969 -2.131234e-20)
(7.786709 9.980566 2.386282e-18)
(7.008972 9.764312 1.040357e-20)
(6.250159 9.486806 -1.052498e-20)
(5.51493 9.144241 3.194739e-19)
(4.805352 8.741667 3.702368e-19)
(4.133485 8.284259 0)
(3.500576 7.777749 0)
(2.911452 7.225527 -2.339323e-20)
(2.370661 6.629774 0)
(1.881549 5.993128 0)
(1.445857 5.320809 0)
(1.068386 4.624525 -2.246038e-18)
(0.7480938 3.912028 1.82343e-20)
(0.492682 3.175187 1.131617e-20)
(0.2944536 2.415999 -5.538452e-21)
(0.1627692 1.627146 -7.318739e-19)
(0.1068003 0.783429 3.04515e-21)
(0.1038431 -0.07584536 -7.644342e-19)
(0.1641448 -0.8800355 1.482739e-18)
(0.2948545 -1.649873 1.138068e-20)
(0.489288 -2.401726 -2.746639e-18)
(0.7439224 -3.133009 -4.100301e-20)
(1.057597 -3.838588 2.474412e-18)
(1.425902 -4.511071 -2.258308e-18)
(1.849714 -5.149284 0)
(2.321058 -5.752334 -7.179754e-18)
(2.837689 -6.305084 -2.226245e-20)
(3.39684 -6.809673 2.569543e-18)
(3.992561 -7.270302 2.025415e-18)
(4.621973 -7.674818 0)
(5.282917 -8.024995 0)
(5.967347 -8.324193 0)
(6.666599 -8.558106 4.759933e-21)
(7.375177 -8.723647 -4.731513e-21)
(8.092576 -8.830547 1.46695e-18)
(8.813354 -8.877673 4.547029e-21)
(9.533357 -8.862123 -2.659812e-18)
(10.24647 -8.788668 -6.276347e-20)
(10.94261 -8.653082 7.394069e-18)
(11.61385 -8.453662 4.18818e-18)
(12.25563 -8.19384 -3.437313e-20)
(12.8696 -7.87978 4.999299e-18)
(13.45095 -7.51566 4.099379e-20)
(13.99093 -7.099118 -4.669867e-20)
(14.48192 -6.63611 4.656197e-20)
(14.91838 -6.128868 5.075116e-20)
(15.3039 -5.587787 6.654463e-18)
(15.65226 -5.027382 -5.208395e-20)
(15.94132 -4.446792 0)
(16.16596 -3.858738 0)
(16.31753 -3.270423 0)
(16.32624 -2.744916 0)
(15.91754 -2.318956 1.149864e-20)
(13.72774 -1.820788 -1.153327e-20)
(7.754346 -0.9704109 7.867652e-19)
(1.193829 -0.1499318 3.696147e-21)
(-0.6373811 0.1545861 0)
(1.554997 0.4631585 -8.080616e-19)
(2.101234 0.7341001 8.766713e-19)
(5.346823 0.9097539 -5.089943e-19)
(-2.921365 -1.5247 2.914848e-20)
(-10.13667 -3.085811 -4.857911e-18)
(-8.806602 -2.303527 2.68905e-20)
(-6.892794 -1.748006 0)
(-4.295774 -1.193506 3.049582e-18)
(-2.607298 -0.8441906 -3.138394e-18)
(-1.469448 -0.4749189 -6.996312e-19)
(-0.2565094 0.1812708 -5.760874e-21)
(1.586547 1.281977 9.068352e-21)
(3.876816 2.524685 -5.842059e-21)
(4.107021 2.549701 0)
(1.660265 0.9150258 -3.293118e-19)
(-0.9027759 -1.011603 3.051459e-19)
(-2.138992 -2.031488 -4.794658e-21)
(-2.126034 -1.953078 -1.560669e-18)
(-1.628579 -1.486293 3.274093e-18)
(-0.8218011 -0.6483501 1.572721e-18)
(0.05975157 0.2624531 2.457757e-21)
(0.598084 0.918787 -1.680991e-18)
(0.9747112 1.507187 -1.322226e-20)
(1.255668 2.077538 -1.682192e-18)
(1.488662 2.686947 1.329681e-20)
(1.698975 3.348799 -4.789296e-21)
(1.873334 4.085832 -5.272694e-21)
(2.021457 4.894595 0)
(2.120736 5.760242 0)
(2.164904 6.671759 -2.517715e-18)
(2.143143 7.595171 0)
(2.040256 8.494171 -3.465916e-18)
(1.867151 9.343083 2.00614e-18)
(1.630008 10.07895 -1.841105e-20)
(1.370526 10.75839 1.824053e-20)
(1.106055 11.35665 1.286024e-18)
(0.8188611 11.59217 -6.569115e-19)
(0.506911 11.02271 -3.081091e-19)
(0.3765209 11.04766 2.277988e-19)
(0.2968833 8.692132 -3.962046e-19)
(0.2911859 3.886743 1.118769e-20)
(0.2259195 -0.7467995 -7.851157e-19)
(0.4099047 -2.298682 0)
(0.8356538 -2.710497 -3.669124e-18)
(0.880355 -3.310389 -3.076071e-20)
(0.5070146 -2.989178 1.851454e-18)
(0.6913838 -2.050728 3.890495e-18)
(1.5837 -2.556743 3.536466e-18)
(2.391458 -4.555787 3.535276e-18)
(1.623977 -3.641736 -2.675676e-20)
(0.9069767 -2.503304 0)
(0.03301085 -0.7987553 0)
(-0.5243502 0.4686146 2.425902e-18)
(-0.6646574 0.9790501 2.538146e-18)
(-0.5624381 1.001828 2.603375e-18)
(0.482479 -0.5679404 4.576026e-20)
(-1.010818 0.3984766 0)
(-3.11181 2.305281 4.507303e-18)
(-4.841544 3.860154 5.970375e-18)
(-6.056272 4.807722 -7.52137e-18)
(-6.638794 5.158102 0)
(-6.247265 5.01787 7.937916e-18)
(-4.931725 4.890534 0)
(1.482587 0.5111668 -1.713133e-18)
(5.521045 -3.467265 0)
(4.212555 -2.793855 -2.930881e-18)
(4.545549 -2.244833 -9.294519e-18)
(5.025133 -2.148506 0)
(4.59367 -2.062302 0)
(2.914053 -1.68037 8.138042e-21)
(0.7832775 -0.7385469 -6.536393e-18)
(-1.19615 0.7575042 7.92874e-18)
(-2.357949 1.517021 1.069069e-17)
(9.673637 -0.3817253 -1.858711e-18)
(16.81652 -0.9104339 1.957011e-18)
(18.85881 -0.3305208 -9.850916e-19)
(19.57673 0.1940501 0)
(19.22351 0.6924572 0)
(19.16249 1.352302 -2.288377e-18)
(19.15932 2.098244 -2.392082e-18)
(19.09577 2.852596 -4.699578e-18)
(18.9573 3.603485 4.661596e-18)
(18.75621 4.345545 1.096977e-19)
(18.49372 5.056606 -7.284267e-20)
(18.16089 5.742801 0)
(17.75972 6.387496 0)
(17.30299 7.002025 8.535651e-18)
(16.80451 7.586334 -8.255972e-18)
(16.25866 8.121803 0)
(15.6605 8.607739 0)
(15.0184 9.036877 1.087008e-19)
(14.33718 9.412576 -6.901977e-18)
(13.62632 9.728348 0)
(12.89015 9.979651 -5.721512e-18)
(12.13638 10.1802 -5.223514e-18)
(11.37404 10.32353 -4.640265e-18)
(10.59903 10.39358 4.147357e-18)
(9.811679 10.39593 -5.21846e-20)
(9.02645 10.34221 3.07887e-18)
(8.252311 10.23288 0)
(7.491629 10.05787 -1.948829e-18)
(6.744079 9.817557 -1.668907e-20)
(6.013372 9.520267 9.04996e-21)
(5.311479 9.157195 2.02513e-19)
(4.633502 8.737635 0)
(3.992338 8.265864 -9.118949e-19)
(3.388791 7.747878 -1.29759e-20)
(2.829938 7.185918 1.926275e-18)
(2.316422 6.583547 1.208147e-18)
(1.853429 5.9423 -1.431815e-18)
(1.441125 5.26779 -1.642324e-18)
(1.08384 4.5715 1.828752e-18)
(0.780729 3.861772 -2.007104e-18)
(0.5446787 3.129148 -1.050606e-18)
(0.3589036 2.378094 2.256798e-18)
(0.2387386 1.600894 1.197028e-18)
(0.1930893 0.7712977 2.461787e-21)
(0.1856795 -0.07068207 6.330637e-19)
(0.2401287 -0.8653379 -9.597027e-21)
(0.3669097 -1.627617 0)
(0.5529427 -2.373685 -1.7373e-20)
(0.7942121 -3.100469 -1.560477e-20)
(1.091521 -3.802493 -1.955625e-18)
(1.43894 -4.473369 3.708401e-18)
(1.842718 -5.110823 -1.684702e-18)
(2.288992 -5.716686 2.908637e-18)
(2.778221 -6.274572 2.143444e-20)
(3.311629 -6.785572 0)
(3.878955 -7.256405 1.693171e-18)
(4.479452 -7.67322 1.534231e-20)
(5.113081 -8.037111 -7.752848e-19)
(5.768182 -8.354685 0)
(6.438203 -8.609094 2.141881e-19)
(7.121616 -8.79498 0)
(7.814783 -8.92491 -4.220579e-20)
(8.511595 -8.997722 1.630311e-18)
(9.21138 -9.007823 0)
(9.904109 -8.963629 -2.588783e-18)
(10.58222 -8.85876 -3.026948e-18)
(11.23799 -8.690791 -3.433656e-18)
(11.86668 -8.462346 0)
(12.47119 -8.178486 -8.341474e-18)
(13.04531 -7.845386 6.719665e-20)
(13.58128 -7.458602 0)
(14.07118 -7.024335 0)
(14.50977 -6.546202 0)
(14.89583 -6.030259 5.373708e-18)
(15.22167 -5.483071 -5.515923e-18)
(15.48069 -4.901836 0)
(15.66938 -4.289794 0)
(15.79771 -3.670629 2.709074e-18)
(15.88003 -3.072384 2.102571e-20)
(16.05704 -2.608819 0)
(16.37706 -2.374271 0)
(14.57832 -1.886596 -1.143845e-18)
(10.71445 -0.9375026 1.696147e-19)
(8.925843 0.1051497 0)
(8.319858 0.8241138 5.892186e-19)
(6.462407 1.125156 9.576628e-21)
(3.807194 0.3051555 9.739392e-21)
(-4.27309 -2.397961 -1.047658e-20)
(-7.776938 -2.862963 3.975477e-18)
(-7.226995 -1.815935 4.226402e-18)
(-5.194537 -0.8956699 5.172082e-20)
(-2.627598 -0.3624061 1.464811e-20)
(-1.130653 -0.1249459 1.30489e-18)
(-0.3946324 0.1142364 5.864801e-19)
(0.3260416 0.6379378 0)
(1.461834 1.485068 -5.865881e-19)
(3.414396 2.375466 0)
(3.960035 2.284406 5.087065e-21)
(1.555264 0.4766879 2.57275e-19)
(-1.096385 -1.44847 9.082772e-21)
(-2.059899 -2.086812 -9.185922e-21)
(-2.056678 -1.885627 1.297415e-18)
(-1.628452 -1.364322 -1.342218e-18)
(-0.8747916 -0.5092227 -1.280759e-18)
(0.04149205 0.4010931 -1.373612e-18)
(0.5960128 1.036199 -1.368288e-18)
(0.9727274 1.596819 0)
(1.247745 2.137226 9.438758e-22)
(1.469274 2.717681 0)
(1.677421 3.347066 -1.399787e-18)
(1.844196 4.055948 1.453351e-18)
(1.995692 4.834936 0)
(2.101958 5.672374 0)
(2.15953 6.55783 4.118779e-18)
(2.16842 7.456163 -1.202253e-18)
(2.103773 8.333096 2.827355e-18)
(1.976538 9.161192 -1.361398e-20)
(1.784948 9.904991 1.351581e-20)
(1.520694 10.51349 0)
(1.175995 10.98232 -1.067572e-18)
(0.8332091 11.37894 1.064352e-18)
(0.5552323 11.60519 2.52718e-19)
(0.4670706 11.12004 -3.747175e-19)
(0.5438316 10.16095 -9.267851e-21)
(0.5502334 6.904845 9.596015e-21)
(0.3684506 1.739972 -1.875071e-20)
(0.5655127 -2.227966 2.027925e-20)
(0.9904989 -2.879245 1.498455e-18)
(0.9973259 -3.572173 -2.524506e-20)
(0.6234059 -3.590431 -1.511398e-18)
(1.117615 -3.234383 4.932908e-20)
(2.100863 -3.469808 -2.829612e-18)
(2.357597 -4.376712 -2.94776e-20)
(1.528816 -3.751253 0)
(0.694949 -2.575778 0)
(-0.1247086 -0.9334122 -1.939067e-18)
(-0.6040506 0.3950248 -2.018881e-18)
(-0.659096 0.9076279 -4.196739e-18)
(-0.7142165 1.328896 -2.126707e-18)
(-0.08503328 0.1089385 0)
(-1.829419 0.8897877 0)
(-3.705628 2.471605 -7.233981e-18)
(-5.149252 3.834624 -9.708711e-18)
(-6.02388 4.62059 1.025737e-19)
(-6.261665 4.839597 -2.144096e-19)
(-5.642145 4.719685 -1.316093e-17)
(-3.813368 4.810533 -4.259062e-18)
(0.4198271 2.042251 1.370589e-18)
(5.560261 -3.124108 9.978337e-19)
(6.732589 -3.939943 2.299672e-18)
(8.154913 -3.750455 3.710025e-18)
(9.025944 -3.754099 0)
(8.818129 -3.760894 -8.651524e-20)
(7.719604 -3.590483 -6.223456e-18)
(5.816014 -2.626965 4.452924e-20)
(2.958351 -0.6157738 7.007524e-20)
(4.258914 0.9794029 -3.954235e-18)
(15.68162 -0.3168595 -1.339373e-18)
(19.42808 -0.9211774 -2.993979e-20)
(19.18006 -0.5280497 -7.9807e-19)
(19.02941 -0.07157232 -4.130291e-19)
(19.00625 0.314158 -3.430957e-21)
(19.21434 0.8828127 0)
(19.30715 1.560029 -2.995406e-20)
(19.29717 2.277324 1.97538e-18)
(19.18624 3.006287 -7.708166e-18)
(19.00086 3.745876 5.92277e-20)
(18.74501 4.466562 -3.79367e-18)
(18.41685 5.165349 -1.139433e-19)
(18.02206 5.823465 -7.155278e-18)
(17.56892 6.455913 3.433049e-21)
(17.0727 7.063983 6.810078e-18)
(16.53046 7.619903 -6.427866e-18)
(15.93488 8.129656 0)
(15.29462 8.58184 8.800006e-20)
(14.61337 8.982617 -8.854105e-20)
(13.90041 9.324586 0)
(13.15906 9.604644 4.714107e-18)
(12.39899 9.833625 7.987885e-20)
(11.62868 10.00545 3.880295e-18)
(10.84547 10.10284 -3.351347e-18)
(10.05162 10.12855 -2.895849e-18)
(9.255616 10.09991 -2.490883e-18)
(8.471388 10.01395 -1.983338e-18)
(7.701022 9.86029 2.027281e-20)
(6.942544 9.640238 -2.046739e-20)
(6.200785 9.362082 0)
(5.487261 9.016826 -1.59984e-19)
(4.796655 8.614028 -8.379047e-21)
(4.14368 8.156901 7.57773e-19)
(3.5284 7.652077 1.178778e-18)
(2.960404 7.101011 -1.583396e-18)
(2.437765 6.508304 -9.919836e-19)
(1.966119 5.875431 -6.028716e-21)
(1.545292 5.208273 1.347937e-18)
(1.182646 4.517692 2.442074e-20)
(0.8736691 3.814004 1.60943e-18)
(0.6365156 3.086799 1.398882e-20)
(0.4496993 2.342873 -9.433795e-19)
(0.3321501 1.576809 -4.877867e-19)
(0.2948107 0.7617186 -6.167154e-23)
(0.2819889 -0.05996929 5.021716e-19)
(0.3325233 -0.847105 7.861893e-21)
(0.4570644 -1.604805 -9.696876e-19)
(0.6431438 -2.345574 1.862025e-18)
(0.885151 -3.065399 0)
(1.184397 -3.759439 -1.952576e-21)
(1.533872 -4.421712 -1.524181e-18)
(1.942399 -5.049789 1.421785e-18)
(2.391804 -5.646588 -2.487737e-18)
(2.888356 -6.192484 3.049531e-20)
(3.431098 -6.690666 -3.022754e-20)
(4.003613 -7.150311 -1.391655e-18)
(4.612619 -7.552742 0)
(5.258918 -7.899594 6.319607e-19)
(5.921463 -8.202625 -7.5195e-21)
(6.600192 -8.439706 -3.717341e-20)
(7.293627 -8.606579 -5.114984e-19)
(7.995004 -8.718008 -9.630631e-19)
(8.699348 -8.771288 -2.645624e-20)
(9.406278 -8.760707 1.665776e-18)
(10.10685 -8.694013 -2.915948e-20)
(10.79063 -8.567234 -2.386668e-18)
(11.45158 -8.375842 0)
(12.08634 -8.12204 3.027433e-18)
(12.69452 -7.81533 3.383751e-18)
(13.26855 -7.463608 3.520929e-18)
(13.80361 -7.058124 -3.760923e-18)
(14.29136 -6.607878 4.029939e-18)
(14.72781 -6.115448 0)
(15.11127 -5.588618 -8.789032e-18)
(15.4345 -5.036063 9.099739e-18)
(15.68729 -4.454276 -1.065704e-19)
(15.8626 -3.856789 -2.256243e-18)
(15.94332 -3.265361 -2.22257e-18)
(15.92271 -2.721592 0)
(15.7795 -2.295731 1.032026e-18)
(16.05467 -2.174813 -9.473221e-19)
(16.48737 -2.027047 4.654665e-19)
(15.85743 -1.231117 -1.347044e-19)
(14.96089 0.04958361 -2.786771e-19)
(13.70444 0.8647179 8.006068e-21)
(11.18601 1.100086 -5.406433e-19)
(4.504646 -0.2602913 -7.439547e-21)
(-3.520937 -2.882534 0)
(-4.97973 -2.475823 0)
(-5.329159 -1.140026 -9.151223e-20)
(-3.459493 0.0593238 8.662775e-20)
(-1.086617 0.4965374 0)
(0.5122552 0.6658875 0)
(1.013464 0.7956732 0)
(1.212316 1.179876 -4.346384e-20)
(1.511458 1.721366 9.584189e-19)
(2.73451 2.102193 -5.226001e-19)
(3.278144 1.624506 3.133558e-19)
(1.376676 -0.07412149 3.754904e-21)
(-0.9615953 -1.65736 2.306059e-19)
(-1.921073 -2.063241 7.80484e-19)
(-2.030376 -1.793669 1.723742e-20)
(-1.684894 -1.27487 -4.176266e-24)
(-0.9912359 -0.3992834 -1.685597e-20)
(-0.01902633 0.5265512 -1.75776e-20)
(0.5640808 1.140344 1.155395e-18)
(0.939299 1.675817 0)
(1.196388 2.19446 1.132557e-18)
(1.38964 2.754965 -1.124632e-18)
(1.576783 3.362658 1.143339e-18)
(1.714582 4.053337 0)
(1.843674 4.811133 0)
(1.926405 5.625189 -2.470267e-20)
(1.963824 6.483494 -1.690695e-18)
(1.956598 7.353818 1.017191e-18)
(1.872343 8.206212 -1.159138e-18)
(1.73022 9.013928 0)
(1.53373 9.740796 0)
(1.283048 10.34849 0)
(1.000105 10.80228 -8.560802e-19)
(0.7229907 11.06942 -4.568813e-19)
(0.5197759 11.20336 -4.206402e-19)
(0.525765 10.74363 1.563482e-19)
(0.7329028 10.40345 0)
(0.8898869 8.715037 -4.604281e-19)
(0.6856291 4.446602 0)
(0.7670478 -1.127379 -1.03079e-18)
(1.152683 -2.898803 0)
(1.072855 -3.570406 0)
(0.6615952 -3.797473 -1.227632e-18)
(1.306911 -3.657175 -2.531916e-18)
(2.298052 -3.811982 2.375373e-18)
(2.249874 -4.14777 -2.427194e-18)
(1.370283 -3.762171 2.203165e-18)
(0.4371389 -2.627256 0)
(-0.3247582 -1.063104 3.168383e-18)
(-0.6993017 0.3137673 1.651252e-18)
(-0.7149043 0.8867973 1.778652e-18)
(-0.7318401 1.392492 -5.319606e-20)
(-0.7692607 0.8816554 -7.223195e-20)
(-2.592149 1.361313 -2.187795e-18)
(-4.105011 2.4683 5.902394e-18)
(-5.129772 3.524706 4.001238e-18)
(-5.601678 4.138366 1.71836e-19)
(-5.541996 4.294496 5.880996e-18)
(-4.753506 4.312681 5.549432e-18)
(-2.417459 4.484139 3.526399e-18)
(0.3723703 3.010763 0)
(6.130394 -2.723204 -1.635912e-20)
(9.138248 -4.734345 0)
(11.14928 -4.821402 2.73383e-18)
(12.19027 -4.960839 3.284217e-18)
(12.34842 -5.130203 3.775176e-18)
(12.22129 -5.235105 -1.449095e-19)
(11.81595 -4.406696 9.408271e-20)
(10.82122 -1.947283 -8.950971e-18)
(12.81482 0.2961183 0)
(19.07109 -0.1119247 -1.069754e-18)
(18.96238 -0.7522334 -1.260851e-18)
(18.45162 -0.4285239 1.342949e-18)
(18.62972 0.142432 3.284049e-19)
(18.74224 0.6679641 0)
(18.90854 1.316154 7.573161e-19)
(18.97591 2.025671 0)
(18.95542 2.74693 0)
(18.84093 3.456545 3.221973e-18)
(18.65331 4.185674 -4.902789e-20)
(18.40113 4.878503 5.093684e-20)
(18.07645 5.548839 -2.993519e-18)
(17.68791 6.172958 6.009919e-18)
(17.24097 6.772879 -5.73294e-18)
(16.75416 7.35 -5.536971e-18)
(16.22813 7.863237 2.513557e-19)
(15.64633 8.337921 -1.610693e-19)
(15.02366 8.753003 -1.431198e-19)
(14.35926 9.12254 -4.126238e-18)
(13.66614 9.4345 -4.224508e-18)
(12.94588 9.684078 -1.126402e-19)
(12.20427 9.889553 3.59425e-18)
(11.4577 10.03732 0)
(10.70047 10.11034 2.760204e-18)
(9.926081 10.11934 2.384364e-18)
(9.150554 10.07618 1.945736e-18)
(8.389339 9.977257 1.632227e-18)
(7.641234 9.813164 0)
(6.904765 9.583427 0)
(6.181326 9.300831 4.477042e-19)
(5.489307 8.950077 0)
(4.814295 8.546111 0)
(4.178429 8.088408 6.883247e-19)
(3.581352 7.583276 -5.369266e-21)
(3.024896 7.034842 -1.734495e-20)
(2.510981 6.445022 -2.790065e-20)
(2.048389 5.815012 1.972641e-18)
(1.6369 5.150578 0)
(1.284143 4.462617 0)
(0.9730563 3.765363 1.364933e-18)
(0.7419196 3.042123 6.967153e-19)
(0.5575911 2.304326 7.616635e-19)
(0.4434347 1.550235 -3.993391e-19)
(0.4152347 0.7510266 0)
(0.3980723 -0.04449971 -4.149902e-22)
(0.4436021 -0.8253446 2.543926e-20)
(0.5601485 -1.579492 7.695898e-19)
(0.7418414 -2.313151 -1.526415e-18)
(0.9802098 -3.02469 -4.425018e-20)
(1.27583 -3.711106 1.362555e-18)
(1.620973 -4.365784 4.060486e-20)
(2.024622 -4.986928 2.281388e-18)
(2.461023 -5.579869 -9.855193e-21)
(2.944378 -6.122003 -1.807302e-18)
(3.478476 -6.617367 5.010009e-20)
(4.037084 -7.077633 0)
(4.626412 -7.482652 8.750949e-19)
(5.258744 -7.831939 0)
(5.907011 -8.139971 0)
(6.563835 -8.386771 -1.138889e-19)
(7.23776 -8.56317 8.22341e-19)
(7.922053 -8.685218 2.770543e-20)
(8.606031 -8.752789 -7.2202e-20)
(9.293335 -8.757811 -1.366765e-18)
(9.973722 -8.710934 -1.622429e-18)
(10.63761 -8.605711 2.031916e-18)
(11.27765 -8.439892 -2.246295e-18)
(11.89112 -8.214901 -6.098317e-20)
(12.48213 -7.935293 0)
(13.03888 -7.615064 -3.048339e-18)
(13.55884 -7.241063 6.432129e-18)
(14.03236 -6.826061 -3.428544e-18)
(14.45675 -6.367209 0)
(14.8324 -5.869633 7.366696e-20)
(15.15062 -5.338846 -3.642494e-18)
(15.39871 -4.778051 -5.7821e-20)
(15.57047 -4.193132 9.486695e-20)
(15.66046 -3.598317 -5.731526e-20)
(15.6674 -3.02601 0)
(15.57809 -2.519516 -1.657181e-18)
(15.54626 -2.196315 7.509935e-19)
(16.04902 -1.933651 3.757744e-19)
(16.54958 -1.147654 -6.273344e-21)
(16.27635 0.06500677 2.181554e-19)
(15.19809 0.7691929 3.444398e-19)
(13.60167 0.7213219 0)
(6.694878 -0.8953021 2.242717e-19)
(-1.343578 -3.078834 -6.419447e-20)
(-2.209682 -2.022335 3.152755e-18)
(-2.784373 -0.3407569 0)
(-1.27835 1.127555 0)
(0.5691665 1.42459 0)
(2.037443 1.448531 9.580759e-21)
(2.492624 1.464708 3.708918e-19)
(2.293036 1.716883 4.598247e-20)
(1.76523 1.940092 -4.003983e-19)
(2.087015 1.73959 8.775521e-19)
(2.494248 0.8720778 -2.631969e-19)
(1.196458 -0.6158123 0)
(-0.7943364 -1.84463 -1.937901e-19)
(-1.788648 -2.057926 -6.366403e-19)
(-2.010833 -1.725851 9.321013e-19)
(-1.801256 -1.223796 -2.79926e-20)
(-1.187338 -0.3159609 -2.746611e-20)
(-0.1603305 0.6052713 2.81784e-20)
(0.4635263 1.17957 0)
(0.8463094 1.687754 -9.471654e-19)
(1.097387 2.18477 2.910167e-20)
(1.271468 2.724752 1.819074e-18)
(1.445558 3.307329 -9.706341e-19)
(1.561393 3.959511 6.139383e-20)
(1.680568 4.670514 -1.085896e-18)
(1.750003 5.43856 0)
(1.7829 6.249555 -1.364547e-18)
(1.785345 7.074895 8.280765e-19)
(1.714955 7.888245 -5.90703e-20)
(1.601013 8.663363 1.151783e-18)
(1.442509 9.365751 -5.624711e-20)
(1.232743 9.959852 2.007014e-20)
(0.9924102 10.41916 7.191229e-19)
(0.7255871 10.71168 -5.656838e-21)
(0.5353569 10.80606 6.295352e-21)
(0.5635873 10.31394 7.762209e-21)
(0.8561058 10.15759 2.17863e-19)
(1.210612 9.486228 3.733226e-19)
(1.154084 6.724472 -3.54256e-19)
(1.107947 0.9366714 7.982619e-19)
(1.423932 -2.677535 0)
(1.17075 -3.430075 1.074155e-18)
(0.6178199 -3.766981 1.083758e-18)
(1.320427 -3.611437 2.084642e-18)
(2.31692 -3.752541 0)
(2.129464 -3.920419 0)
(1.15463 -3.674034 -1.806962e-18)
(0.146943 -2.640812 -4.221359e-20)
(-0.57037 -1.169839 -1.253359e-18)
(-0.8215817 0.2235977 -1.354203e-18)
(-0.7816474 0.8890472 -1.400189e-18)
(-0.6979684 1.27143 1.421817e-18)
(-1.24786 1.231286 -1.554093e-18)
(-3.066204 1.449668 1.713164e-18)
(-4.080578 2.116314 -2.379758e-18)
(-4.643808 2.847065 0)
(-4.819388 3.392112 0)
(-4.647669 3.628937 -5.099704e-18)
(-3.790309 3.90208 0)
(-1.093536 4.160479 -6.648333e-20)
(1.222021 3.460255 3.794562e-20)
(7.125497 -2.227119 -5.109455e-19)
(10.81923 -4.964255 -3.208283e-20)
(12.85609 -5.26515 -3.327981e-20)
(13.95766 -5.539298 -2.608065e-18)
(14.54523 -5.847322 1.014251e-20)
(15.44756 -6.224353 1.891338e-18)
(16.82063 -5.68397 -9.147872e-20)
(17.75288 -3.154299 3.487734e-18)
(18.58339 -0.3452932 -7.863437e-20)
(19.6248 -0.0729368 3.589783e-18)
(18.17532 -0.7399907 3.207295e-20)
(18.3748 -0.4818215 -7.31453e-21)
(18.62451 -0.008535454 -5.631678e-19)
(18.77532 0.426882 -4.606074e-21)
(18.94416 1.000654 -6.244598e-19)
(19.01758 1.657442 -3.965955e-20)
(18.99893 2.352459 -1.226479e-18)
(18.88084 3.054492 2.52136e-18)
(18.69362 3.781157 -2.50328e-18)
(18.44837 4.469592 4.802713e-18)
(18.12665 5.161423 2.620396e-18)
(17.74033 5.801135 0)
(17.2921 6.420517 0)
(16.80585 7.020638 4.490284e-18)
(16.28068 7.554769 4.29799e-18)
(15.69903 8.049166 0)
(15.07922 8.47723 -1.15233e-19)
(14.41486 8.862327 3.741623e-18)
(13.71833 9.195684 3.367301e-18)
(12.99822 9.459203 3.004768e-18)
(12.26225 9.671609 -8.194626e-20)
(11.51712 9.833597 -2.376672e-18)
(10.75638 9.924575 6.328456e-20)
(9.986245 9.940677 -6.387068e-20)
(9.218859 9.902242 -1.643907e-18)
(8.460213 9.814059 1.294952e-18)
(7.707696 9.666529 0)
(6.979012 9.441984 0)
(6.257838 9.170392 -6.939509e-19)
(5.574342 8.826403 -9.539578e-21)
(4.903901 8.431557 -9.208003e-21)
(4.283721 7.97848 -5.311055e-19)
(3.694174 7.480913 -1.641957e-18)
(3.12875 6.948717 1.026444e-18)
(2.616343 6.369138 -1.331115e-18)
(2.158412 5.746981 -7.726273e-19)
(1.757228 5.087159 -2.697445e-20)
(1.41239 4.400711 0)
(1.091796 3.713743 -1.065482e-18)
(0.8725207 2.995617 -3.579227e-20)
(0.6862179 2.262831 -6.337849e-19)
(0.575002 1.522201 3.422736e-19)
(0.5568548 0.7389494 6.347392e-23)
(0.5372976 -0.0259036 -3.575784e-19)
(0.5706213 -0.8038458 3.132964e-20)
(0.6873644 -1.551575 -6.700069e-19)
(0.8633561 -2.274145 1.249231e-18)
(1.096655 -2.976246 -1.227924e-18)
(1.387766 -3.654083 2.097549e-21)
(1.727085 -4.298764 1.065226e-18)
(2.133893 -4.908577 -1.814887e-18)
(2.560821 -5.49617 1.650047e-18)
(3.032853 -6.03343 1.351155e-18)
(3.567312 -6.520292 6.988873e-21)
(4.131829 -6.969059 7.386973e-21)
(4.712432 -7.368355 -6.919669e-19)
(5.328103 -7.719326 4.911652e-19)
(5.975636 -8.019642 -2.55609e-21)
(6.630317 -8.257591 3.561309e-20)
(7.296183 -8.428438 -6.205883e-19)
(7.972819 -8.54712 5.511787e-19)
(8.660953 -8.598705 -4.542172e-20)
(9.345263 -8.595037 -1.072975e-18)
(10.01872 -8.544474 2.655084e-18)
(10.68282 -8.427047 5.18136e-20)
(11.32064 -8.251307 1.743777e-18)
(11.93518 -8.010898 -2.070003e-18)
(12.52867 -7.715311 6.446182e-20)
(13.0855 -7.381808 -2.387253e-18)
(13.60704 -6.989442 -2.464542e-18)
(14.08163 -6.55649 8.450951e-20)
(14.50849 -6.074211 -2.815135e-18)
(14.88464 -5.555263 2.90449e-18)
(15.19976 -5.017921 0)
(15.44534 -4.457167 0)
(15.62071 -3.879877 1.511044e-18)
(15.71316 -3.316049 1.453286e-18)
(15.7091 -2.797523 0)
(15.62742 -2.362797 7.123676e-19)
(15.52922 -2.068361 6.248939e-19)
(15.66138 -1.777086 -3.226617e-19)
(15.97735 -1.060119 8.012503e-20)
(15.76377 -0.01735767 1.681723e-19)
(14.73119 0.5638719 -2.808886e-19)
(14.30964 0.1854592 0)