/*--------------------------------*- C++ -*----------------------------------*\
| =========                 |                                                 |
| \\      /  F ield         | OpenFOAM: The Open Source CFD Toolbox           |
|  \\    /   O peration     | Version:  2406                                  |
|   \\  /    A nd           | Website:  www.openfoam.com                      |
|    \\/     M anipulation  |                                                 |
\*---------------------------------------------------------------------------*/
FoamFile
{
    version     2.0;
    format      ascii;
    arch        "LSB;label=32;scalar=64";
    class       volScalarField;
    location    "0.02";
    object      p;
}
// * * * * * * * * * * * * * * * * * * * * * * * * * * * * * * * * * * * * * //

dimensions      [0 2 -2 0 0 0 0];

internalField   nonuniform List<scalar> 
4529
(
1.487098e-06
-3.913668e-06
-2.945845e-06
-9.556391e-06
-5.804653e-06
-8.348249e-06
-2.306928e-06
-4.159694e-06
-4.83005e-06
-1.933751e-06
6.847061e-06
6.894772e-09
6.628788e-08
6.094691e-08
-1.763557e-06
-4.980266e-07
-5.467741e-06
-1.050332e-06
1.722968e-06
-2.70254e-06
9.892687e-07
-1.395968e-06
-1.406148e-06
-2.847709e-06
9.020963e-07
-2.936626e-06
-3.61156e-06
-6.420985e-06
-5.40538e-06
-7.262808e-06
1.245768e-06
-1.453205e-06
-4.784432e-07
2.079626e-06
7.67666e-06
-3.802509e-06
-2.73431e-06
-6.927905e-07
-6.814125e-06
3.666923e-06
-1.566463e-06
-4.138543e-07
-1.874502e-06
1.440008e-06
1.429501e-06
4.788159e-06
-1.890576e-06
-3.64453e-06
1.682445e-06
-4.589565e-06
-1.383335e-05
-2.240377e-06
-1.454385e-05
3.099904e-06
-4.297467e-06
-4.890621e-06
-4.454117e-06
9.510626e-06
-1.0778e-05
-1.242691e-05
-3.988219e-06
4.215878e-06
7.101199e-08
-1.287375e-05
-2.634516e-06
2.7376e-06
-2.212244e-07
-1.331283e-06
-2.727874e-06
1.05545e-05
-2.526017e-06
-4.135511e-06
-7.282938e-06
-3.618562e-07
-1.440471e-05
-8.201806e-06
4.544197e-06
5.05505e-06
-1.048386e-05
-4.257674e-06
-6.454609e-06
-2.084711e-06
2.38235e-06
-1.841931e-06
-4.133448e-06
-5.25583e-07
1.537753e-06
3.83254e-06
5.035632e-06
6.49085e-07
-1.380445e-05
-7.703056e-07
2.198399e-06
-1.977027e-06
-1.073677e-06
3.653417e-07
-9.75054e-06
-4.048541e-06
-5.475886e-06
-3.7147e-06
-4.225018e-07
-6.788053e-06
-3.536355e-06
-3.753031e-06
-1.484313e-06
4.71717e-06
-5.467598e-06
5.462993e-06
3.856525e-06
1.488195e-06
5.386246e-07
-1.620687e-06
-8.330868e-06
-6.410617e-06
-7.670011e-06
-1.267646e-06
-1.453724e-06
-4.116544e-06
-2.28793e-06
4.289588e-07
-3.331192e-06
-2.677109e-06
2.056457e-06
-5.45567e-07
-1.375129e-06
-5.724338e-06
-3.531644e-06
3.193502e-06
-1.860824e-06
-7.65018e-06
-2.487867e-06
-5.156811e-06
-1.439979e-05
2.281624e-06
3.823188e-06
2.419101e-06
2.857831e-06
1.052872e-06
-1.791621e-08
-3.258048e-06
-2.717205e-06
-1.591435e-06
-4.225367e-07
-5.266934e-06
-9.715635e-06
-4.188838e-06
2.38736e-06
-7.649504e-06
-2.94519e-06
-2.559524e-06
-3.323496e-06
-6.006584e-06
-4.553951e-06
-4.209144e-07
-6.091483e-06
1.326627e-07
1.870292e-06
-4.476016e-06
-7.240033e-07
-2.953327e-06
8.080474e-06
5.981004e-07
-7.131256e-06
-2.472882e-06
1.072614e-06
1.525527e-06
1.231279e-06
-3.029867e-06
-1.717442e-06
-2.714483e-06
-9.697044e-06
-1.921227e-06
-1.456703e-05
2.469373e-06
4.751758e-06
-4.794055e-06
-9.017275e-07
-1.170231e-05
-1.525967e-05
7.896084e-06
2.548985e-06
-3.487e-06
-2.584558e-06
-2.142223e-06
1.10436e-05
-1.51541e-05
-3.414641e-06
4.120825e-07
-7.704929e-06
4.411223e-07
-4.518661e-06
-1.275965e-05
3.502109e-06
-5.180234e-06
-2.879544e-06
5.430253e-06
1.934196e-06
-1.029961e-05
1.008896e-05
1.126998e-06
-1.922179e-06
5.794337e-06
-1.727911e-06
-1.24111e-05
-1.12749e-06
-3.606609e-06
-7.876075e-06
-3.711538e-06
-4.912797e-06
-1.299444e-05
2.338304e-06
-5.265877e-06
1.425094e-06
-5.165111e-06
-3.1209e-06
-3.617829e-06
-2.0033e-06
-9.506559e-07
-3.553075e-06
1.592056e-05
-3.755478e-06
2.91189e-07
-2.405229e-06
7.421045e-07
3.158533e-07
6.786967e-06
-1.200694e-06
-4.290186e-06
-8.248864e-06
-2.920377e-07
-5.665997e-06
-1.267067e-05
-1.011192e-05
1.106006e-06
-5.050676e-06
-4.212749e-06
-8.451787e-07
-6.088828e-06
1.96399e-06
-3.464235e-06
-4.792533e-06
1.785417e-06
-2.906476e-07
-1.095755e-05
6.056253e-06
-5.13654e-06
-1.059766e-05
-1.359502e-06
-1.012888e-06
2.578348e-06
-3.38061e-06
3.789311e-06
-6.964692e-06
1.050176e-05
7.372845e-06
9.067391e-07
-6.743687e-06
-1.158357e-05
-8.049504e-06
-1.667119e-06
4.399617e-06
-5.736425e-07
-1.694545e-06
4.661121e-08
-2.680065e-06
-8.90321e-06
-2.764903e-06
-9.914097e-07
-4.234249e-06
-7.520534e-07
-2.865598e-06
5.299171e-07
2.533203e-06
-1.754527e-06
-1.16249e-05
8.44145e-07
1.073329e-06
1.606831e-06
-7.731254e-06
-1.001006e-05
-2.973957e-07
-1.813249e-06
2.024582e-06
-4.15841e-06
1.356613e-06
-2.828484e-06
-3.024879e-06
1.253785e-06
-4.631001e-06
-1.756921e-06
-4.616889e-06
2.69261e-06
7.086947e-07
-2.83541e-06
-4.013028e-06
1.923017e-06
-1.971551e-06
-3.624621e-06
-5.23459e-07
-1.724808e-06
-2.220758e-06
-2.824019e-06
-4.611045e-06
1.010221e-05
-7.838095e-08
-4.378513e-06
-3.89177e-06
-1.632113e-06
-5.169017e-06
-4.565826e-07
-7.680718e-07
-2.443535e-06
3.352338e-06
-2.82167e-06
-1.903872e-06
2.699422e-07
-2.246369e-06
-1.729313e-06
-1.134186e-05
5.661725e-06
1.898919e-06
7.257389e-06
-3.719802e-06
-6.353315e-06
-1.656013e-07
-4.738217e-06
-2.723726e-06
6.860711e-07
-3.309356e-08
9.067864e-07
9.097239e-07
3.451237e-07
1.644418e-08
-2.294725e-06
4.062851e-06
-8.101004e-06
-6.954018e-06
-4.081696e-06
2.247849e-07
-9.953567e-07
-1.376218e-06
-3.594423e-06
9.658457e-06
-6.766574e-06
-5.427132e-06
5.412437e-06
-3.226717e-06
-8.284876e-06
-7.267599e-06
-1.638932e-06
-1.292057e-06
6.422273e-06
-1.832895e-06
-2.025023e-06
4.601856e-06
-5.462201e-06
-6.799046e-06
1.102451e-05
-2.645404e-06
-2.095258e-06
-1.37947e-07
4.648724e-06
-3.812585e-06
-1.2791e-07
4.458502e-07
2.051456e-06
1.755149e-06
-5.199973e-06
-2.309101e-06
8.792602e-07
2.135414e-06
-1.148974e-07
-2.107693e-06
3.8461e-06
-2.154772e-06
3.096485e-07
3.325803e-06
-1.083242e-05
-1.427877e-05
-2.190954e-06
-9.26066e-07
3.547784e-06
2.57502e-06
1.554183e-06
5.438535e-06
1.367733e-06
-5.753936e-06
1.026957e-05
-5.256518e-06
1.230514e-06
-1.124067e-05
6.432538e-06
1.230292e-05
-3.489792e-06
2.322842e-06
-3.607337e-06
-3.103362e-06
-3.483528e-06
-3.195603e-06
-5.058811e-06
-1.993521e-06
6.417347e-06
-1.096562e-05
-1.015583e-05
-1.062777e-05
-5.498388e-07
-9.908279e-06
-2.331712e-07
6.877423e-06
-2.921398e-06
-4.993999e-06
-1.408312e-06
-7.663432e-06
-2.337279e-06
2.588756e-06
-3.345425e-07
-5.981839e-07
-4.559316e-06
9.618847e-07
4.103049e-06
-1.085163e-05
-1.448032e-06
-1.132663e-05
-5.812138e-06
-1.264552e-05
-1.327535e-05
-5.86879e-06
-2.663483e-06
3.898867e-06
-3.800848e-06
3.881202e-08
5.547397e-06
-1.302245e-05
-1.256478e-05
4.644087e-06
-1.351661e-06
2.978363e-06
1.931914e-06
-5.339526e-06
3.1556e-06
3.537146e-07
9.530863e-07
-4.945035e-06
-2.579125e-06
-1.878129e-06
-1.684207e-06
4.659599e-06
-2.093903e-06
-2.010688e-06
-4.095175e-06
-6.467204e-06
-2.244042e-06
-3.878429e-06
-7.819536e-07
-2.595556e-07
-3.929056e-06
-1.197039e-06
-4.978013e-06
3.989617e-06
-3.477254e-07
3.8004e-06
9.756377e-07
-2.337961e-06
1.00185e-05
-3.959646e-06
-5.732183e-06
-8.178869e-07
-3.023785e-07
1.834134e-06
2.446037e-07
2.146022e-06
8.500285e-06
-4.088904e-06
-2.452704e-06
-8.347941e-06
1.159984e-06
-6.185972e-06
-1.907374e-06
2.315771e-06
-1.201829e-06
8.255072e-06
3.719893e-06
3.561335e-06
3.917846e-07
-2.109936e-06
6.143792e-06
-4.568683e-06
3.152389e-06
-2.603121e-06
-4.569823e-06
-1.690718e-05
-3.404031e-06
-3.917847e-06
2.276622e-07
-2.025703e-06
-4.898525e-06
-5.135815e-06
-6.126647e-06
-2.644274e-06
-6.998262e-06
-4.323839e-06
-1.79234e-07
-3.14972e-06
1.298797e-06
2.69843e-06
-6.056791e-07
6.440501e-07
4.567073e-07
-1.395322e-07
-1.449188e-07
3.290613e-07
6.918458e-07
-4.588707e-06
4.793996e-06
-2.285433e-06
-4.936259e-06
-9.6999e-07
2.547649e-06
6.312113e-06
5.141955e-06
-1.657997e-06
2.157042e-06
-2.298566e-06
-1.715143e-06
-1.607509e-06
6.897819e-07
2.838279e-07
-4.068398e-06
3.880744e-06
1.70421e-06
-1.354686e-06
2.365648e-07
-5.774223e-08
-4.754284e-07
3.753805e-07
-6.624008e-06
2.326248e-06
1.82003e-06
1.856613e-06
8.280962e-06
-1.165839e-05
1.30718e-07
1.064234e-05
2.59248e-07
-4.044949e-06
1.248067e-06
-2.35549e-06
-5.045143e-06
-1.192898e-06
8.441425e-06
-4.069235e-06
-2.221341e-06
-3.002103e-06
-3.84286e-06
8.984982e-07
-2.039757e-07
-9.095422e-06
-5.330171e-06
6.838275e-06
-2.776203e-06
4.095456e-06
-1.495527e-06
-3.942972e-06
-9.539231e-06
-7.676103e-06
-1.405805e-06
-1.73481e-06
-6.448265e-06
-5.429035e-06
-7.117891e-06
1.817403e-06
4.372284e-06
3.266944e-06
-2.093162e-06
-3.618133e-06
-3.993885e-06
-3.808219e-06
-4.486777e-06
1.296039e-06
1.259096e-06
-2.875276e-06
-4.208393e-06
-2.53828e-06
3.426437e-07
-1.626397e-06
-4.358323e-06
8.538791e-07
-6.848954e-07
-3.538606e-06
6.402339e-06
7.988611e-06
-1.408911e-06
7.836998e-07
1.160984e-05
-4.900485e-06
-2.385503e-06
-4.159238e-06
-3.736174e-06
7.407155e-06
6.747679e-06
4.043702e-07
-3.471921e-06
4.113548e-06
3.220215e-06
3.441107e-06
3.423697e-06
3.349821e-06
-5.060103e-07
4.326378e-06
-2.353038e-06
-1.010328e-05
-1.138355e-06
-8.96228e-07
-4.561481e-07
1.715005e-06
9.114882e-06
2.3181e-06
1.963922e-06
-1.066907e-05
7.645855e-07
1.030073e-06
-6.826737e-06
-7.61748e-06
4.194089e-06
-3.834633e-06
1.381885e-07
4.684679e-06
-1.751004e-06
-1.554755e-06
-2.177933e-06
-5.617956e-06
-8.646777e-06
-7.694486e-06
-1.670581e-06
-8.185257e-07
4.079021e-06
2.674277e-06
-1.173805e-06
-2.950567e-06
-5.914177e-07
-8.702483e-07
5.459803e-07
8.319363e-06
1.182355e-05
-2.268883e-06
6.451596e-07
-3.930414e-06
-6.469084e-06
1.567321e-06
-2.079415e-07
2.112223e-06
-6.976458e-06
-9.156833e-07
-6.688736e-06
-1.524888e-06
-2.233571e-06
1.777798e-06
-8.65341e-06
-6.280011e-07
-1.627227e-05
-1.14451e-06
-3.162033e-06
-8.944456e-06
-1.568545e-06
-1.080701e-06
-5.685362e-06
-3.974878e-06
-2.370883e-06
-1.398157e-05
-2.990048e-06
-3.182353e-06
9.243291e-06
-1.817473e-06
9.629807e-07
-2.859404e-06
-2.355464e-06
-1.804665e-06
5.649836e-06
-4.723543e-06
-2.081386e-06
-1.085343e-06
-1.880422e-06
-2.79561e-06
-3.228158e-06
6.308553e-06
5.301692e-06
4.964013e-06
-1.245277e-06
-1.248469e-06
-5.473627e-06
-4.845066e-06
-2.521933e-06
-5.730025e-06
-5.323198e-06
-6.769513e-07
5.99449e-06
-2.851127e-07
-8.170412e-06
-9.345328e-06
-7.448335e-07
-6.804244e-07
-9.003891e-07
-1.512149e-05
-1.425918e-06
2.106457e-06
9.062125e-06
-3.254222e-06
-2.891648e-06
-2.489257e-06
-1.016003e-05
-8.208964e-06
-3.478779e-06
-4.088977e-06
-1.371994e-06
-2.358876e-06
-5.318664e-06
-1.792029e-06
-2.701271e-06
-3.490503e-06
-2.516124e-06
-8.6513e-06
-2.039639e-06
-3.679594e-06
-2.497232e-07
1.87533e-08
-5.892891e-06
1.032104e-05
5.079254e-06
1.115261e-05
-2.216723e-06
-2.37163e-06
3.032008e-06
-2.197775e-06
-5.501607e-07
-5.014901e-06
-3.200801e-06
-3.205452e-06
-1.092656e-05
2.780308e-07
-8.711423e-06
1.622693e-06
-1.027759e-05
-1.041829e-05
-9.808577e-06
-5.986527e-06
-2.175138e-06
-1.77114e-06
-1.830371e-06
-2.002503e-06
-1.551419e-05
-2.370914e-06
-3.146646e-06
-9.769607e-06
-2.64296e-06
-7.43413e-06
-5.252569e-06
-1.696954e-06
-1.580237e-05
-1.193436e-05
-1.324052e-05
-6.45961e-06
-7.799891e-06
6.390166e-06
-1.290286e-05
1.661403e-06
-8.390542e-06
-7.753477e-06
-2.241821e-06
-8.221757e-06
-2.085587e-06
1.260606e-06
-6.31202e-06
-1.127622e-05
2.089276e-07
-3.220852e-06
-1.273163e-06
2.953641e-06
-8.544221e-07
-5.924999e-06
-5.732025e-06
-1.562946e-05
-6.10202e-06
-1.414869e-06
-1.783062e-06
-1.231602e-06
-1.987999e-06
-8.884499e-06
-1.227012e-06
-2.628066e-06
6.921927e-07
-3.105364e-06
-8.774525e-08
-8.527634e-06
8.514487e-07
-2.17426e-06
-1.489052e-06
-1.350132e-06
-1.197716e-05
-3.351242e-06
-3.369793e-06
7.027832e-06
-1.447982e-06
-9.966023e-06
-1.292957e-05
-3.594378e-06
-3.108159e-06
-1.538791e-06
-3.562047e-06
-1.003221e-06
1.538422e-06
-1.733664e-06
-2.005994e-06
3.911923e-07
-2.000006e-06
-2.065918e-06
-2.920433e-06
-2.434043e-06
-7.760986e-07
-2.911831e-06
7.719643e-07
-1.369181e-06
-1.070818e-05
-1.56139e-05
1.441215e-06
3.660248e-06
2.030258e-06
-2.237844e-06
4.57908e-07
1.083286e-06
2.850975e-06
1.853997e-06
5.820346e-07
-6.903412e-07
-8.458976e-07
2.250567e-07
2.193343e-06
1.98461e-06
-6.18126e-06
1.436364e-06
-1.850054e-06
-1.718743e-06
-7.502597e-06
-3.145264e-06
-1.022136e-05
-6.891448e-06
-1.189925e-05
-1.094135e-05
-7.945666e-06
-6.569818e-06
3.78362e-06
3.706692e-06
4.710139e-06
-2.523315e-06
-2.951245e-06
-1.113476e-06
-7.599778e-07
-1.764527e-06
-1.954014e-06
-2.027819e-06
-2.51673e-06
-2.995725e-06
-2.627799e-06
1.269427e-07
-3.296978e-06
1.18664e-06
1.231852e-06
-1.004326e-05
-4.645088e-06
-4.901187e-06
-1.011641e-05
-8.356606e-06
9.005349e-07
-2.992411e-06
-1.230245e-05
-5.654007e-06
-6.242389e-06
2.737632e-06
-1.324022e-05
2.337454e-06
-1.208017e-06
5.074304e-06
-5.53786e-06
-1.478938e-06
-6.186837e-06
-9.090212e-06
-1.54795e-05
-5.078928e-06
-4.312498e-06
-4.183351e-06
-4.036989e-07
-8.156369e-07
7.547238e-08
-5.156169e-06
-5.264598e-06
-4.168594e-06
-1.050286e-05
-7.044185e-06
-8.160604e-06
-5.25976e-06
-1.33932e-05
-4.748491e-07
-2.140276e-06
2.529876e-07
1.961656e-06
-4.672372e-07
9.440989e-09
-5.104636e-06
-4.287356e-06
-9.258553e-06
-7.481264e-06
-7.028602e-06
-9.41572e-06
-7.031543e-06
-6.668924e-06
-6.733648e-06
-8.290637e-06
-7.084005e-06
1.308008e-06
1.249427e-06
-8.489721e-06
-8.208556e-06
-1.409386e-05
-1.04848e-05
-4.824329e-06
-5.192103e-06
-1.111414e-05
-1.138972e-05
-1.335269e-05
-3.432635e-06
2.668324e-06
-4.972256e-06
-4.960663e-06
-8.842577e-07
-7.708692e-07
-1.736137e-06
-1.06565e-05
-1.144907e-05
-8.222435e-06
-8.521519e-06
-9.132597e-06
-9.040477e-06
-1.156974e-05
-9.801634e-06
1.943997e-06
-7.454944e-06
-7.697465e-06
4.185674e-06
-6.523712e-06
-4.556957e-06
-4.965198e-06
-1.003432e-05
-3.092207e-06
2.751236e-06
-4.762759e-06
-1.2228e-05
-5.635482e-07
1.645485e-06
-1.236566e-05
5.049901e-06
-6.772221e-06
-1.337987e-06
-2.907335e-06
-6.894921e-06
-2.527351e-06
-2.473334e-07
1.861488e-07
-8.179606e-06
-7.012009e-06
-7.952086e-06
-9.722486e-06
-6.190335e-06
-6.563366e-06
-7.993861e-06
-9.37519e-06
8.481464e-07
3.862717e-07
8.921751e-07
-2.608615e-06
-7.022606e-06
-1.200138e-05
-1.259707e-05
1.821025e-06
1.000633e-07
-9.193945e-06
7.126326e-06
-8.771759e-06
-1.680339e-06
1.087881e-05
6.774089e-07
-4.597507e-06
-1.286087e-05
1.162841e-06
1.249357e-06
-8.877759e-07
-6.258337e-06
-1.035828e-05
-3.584329e-06
4.817547e-06
9.478087e-06
2.684729e-06
3.471593e-06
7.44996e-06
-3.100042e-06
2.895488e-06
-3.384046e-06
-2.457396e-06
-4.652497e-06
-7.310395e-07
-7.212074e-07
-5.318073e-06
-1.366615e-05
1.115205e-06
-1.30555e-05
-7.901261e-06
-8.229254e-06
-2.867732e-06
-1.10696e-06
-3.658617e-06
-3.104881e-06
-3.444768e-06
-3.569728e-06
-3.393584e-06
6.699343e-06
-1.407494e-05
-1.534033e-05
-1.084128e-05
-1.638239e-05
-1.441303e-05
-1.605567e-05
-1.649457e-05
-1.591871e-06
-1.051793e-05
2.62755e-06
4.265302e-06
4.307544e-07
1.668671e-06
-5.434269e-06
-4.524254e-06
-7.170008e-06
-2.938396e-06
-2.094017e-06
-1.641283e-06
1.380069e-06
-2.277393e-06
-4.382609e-07
2.983973e-06
1.96624e-06
3.585257e-06
3.467972e-06
3.440307e-06
-2.101765e-06
-6.84115e-07
2.292357e-06
2.979385e-06
7.286362e-06
-1.895603e-06
5.369572e-07
-3.342531e-06
-9.760634e-06
5.490533e-06
-9.705325e-06
-1.271152e-05
-1.058167e-05
-2.731203e-06
-2.617797e-06
-6.079401e-06
-4.841808e-06
-1.101801e-05
-6.422512e-06
-8.171709e-07
7.741647e-06
-3.574285e-06
-3.346875e-06
-1.007271e-06
-1.712013e-06
4.209745e-06
4.978498e-06
-1.562759e-06
-1.491948e-06
-1.269927e-06
5.036862e-07
1.729096e-06
9.642926e-07
9.599827e-07
-5.922523e-07
1.319188e-06
9.974591e-07
1.025539e-06
1.315e-06
1.135543e-06
1.176579e-06
-3.040175e-06
-2.38751e-06
-3.075274e-06
-1.099748e-05
-8.836566e-06
-5.542024e-06
-1.662911e-06
-1.227122e-05
-9.989226e-06
-1.171971e-05
-7.514666e-07
-1.724237e-06
-4.201486e-06
3.704555e-06
7.082347e-07
-2.51263e-06
-2.761237e-06
6.836191e-07
-1.841603e-06
-2.928699e-06
-3.701735e-06
9.951665e-07
-3.554157e-06
3.194037e-06
-1.695953e-07
-1.318194e-08
-1.1781e-06
-1.992038e-06
-1.172477e-06
-2.522203e-06
1.677127e-06
1.342431e-06
6.547057e-08
-1.815196e-06
-1.550641e-06
-2.394808e-06
-1.550319e-05
-1.616136e-05
-1.139909e-06
-1.349697e-05
1.447379e-06
1.591102e-06
1.489597e-06
1.045476e-06
1.686133e-06
1.890977e-06
-1.143238e-05
-1.07798e-05
5.609151e-06
-5.350567e-06
-5.702134e-06
-8.865981e-06
-2.249412e-06
-2.556179e-06
-2.287837e-06
-7.089318e-06
1.061432e-06
-1.204391e-05
-6.359815e-06
-2.087609e-06
8.585575e-07
-3.003746e-06
-2.535774e-06
-2.699169e-07
-6.450763e-07
-2.517399e-06
-6.979382e-07
-1.915436e-06
-3.331014e-06
-2.712598e-06
-2.873593e-06
1.892216e-06
-2.711762e-06
-2.801964e-06
-2.402791e-06
-1.163687e-06
-3.621443e-06
-4.031205e-06
-1.965207e-06
-8.69948e-07
-4.208846e-06
-2.903473e-07
-6.315757e-06
-2.612594e-06
-5.427175e-06
-4.933836e-06
6.795413e-07
-2.504168e-06
-3.430301e-06
-5.20128e-06
-2.322203e-06
4.722009e-06
-1.797695e-06
-9.771571e-06
-2.83662e-06
-2.649227e-06
8.189515e-07
5.124363e-06
-2.117868e-06
-2.023365e-06
4.406557e-06
-6.760367e-06
-1.040012e-05
-9.197415e-06
-1.734392e-06
3.060258e-06
3.038172e-06
-1.099333e-06
-3.761571e-07
-1.764898e-06
9.955248e-07
-2.739326e-06
4.322376e-06
-2.562211e-06
-4.622546e-06
-4.704504e-06
1.367365e-06
-3.530507e-06
-3.505344e-06
1.847274e-06
-2.674995e-06
-3.044784e-06
-6.003833e-06
-5.101951e-06
-4.706642e-06
1.655864e-06
6.785164e-06
2.203022e-06
-7.233883e-06
-7.475722e-06
-1.780533e-07
1.421611e-06
-1.693173e-06
3.843924e-06
-1.422562e-06
-1.566412e-06
2.913878e-06
3.659927e-06
1.27187e-06
2.178009e-06
5.185768e-07
-1.998324e-06
-1.775349e-06
-5.680868e-06
1.453903e-06
8.173796e-07
-4.272642e-06
1.469876e-06
-6.350294e-07
-4.58809e-07
-1.014458e-06
-3.924175e-06
-6.808832e-06
-2.327732e-06
-1.87209e-06
-1.846615e-06
1.368939e-06
-2.181469e-06
3.554341e-06
-5.91379e-06
-1.530177e-06
-3.14945e-07
-1.077533e-05
-1.10567e-05
-1.258251e-06
-6.136296e-06
-8.486962e-06
-1.190699e-05
-6.128293e-07
-9.252533e-07
-2.091684e-06
1.145229e-07
-4.779128e-06
-1.691848e-07
2.902579e-06
-3.084198e-06
-9.249322e-06
-6.935662e-07
3.300407e-06
-9.271349e-07
-8.646323e-07
-3.118884e-06
-8.467127e-08
-8.303018e-06
-9.917845e-06
-3.453584e-06
-6.723432e-06
2.538049e-06
7.002368e-06
2.154984e-07
-1.482985e-05
-1.035444e-06
-1.44947e-06
5.264049e-07
-6.026326e-07
1.073217e-05
-3.905741e-06
-6.127919e-06
4.958214e-07
-3.322683e-06
-3.343731e-06
6.166395e-06
6.099126e-06
9.877398e-07
-2.548965e-06
3.495886e-06
1.866953e-06
-2.242119e-06
-9.635411e-06
5.579326e-07
4.681943e-07
-1.767677e-07
-9.416092e-08
-2.988297e-07
-5.171758e-08
-3.620456e-07
2.941743e-07
1.115733e-07
-1.938982e-07
1.105945e-07
7.342786e-07
-3.951365e-06
3.855178e-07
3.835129e-06
4.087807e-06
6.045297e-06
2.25125e-06
2.91406e-06
2.913781e-06
3.488217e-06
2.771882e-06
-8.699824e-06
5.645357e-06
4.897518e-06
-4.155572e-07
-7.690457e-06
-5.054674e-06
-6.880996e-06
-1.122117e-06
-9.203605e-06
2.20333e-06
-4.620983e-07
5.867891e-06
1.524043e-06
1.222958e-06
-9.542677e-08
-2.573561e-06
-1.161516e-06
-3.481716e-06
-3.270627e-06
-1.298672e-05
-4.404794e-06
-5.104728e-06
-6.15384e-06
-6.091288e-06
-6.607772e-06
-7.308392e-06
-4.580999e-06
-4.696994e-06
-3.959929e-06
2.081751e-06
-4.350215e-06
-3.550572e-06
-1.721364e-06
2.502278e-06
-5.427499e-06
4.228864e-06
-2.24476e-06
6.983299e-07
-6.742199e-06
-5.861751e-06
-7.60757e-06
-1.205326e-05
-1.235053e-05
-3.804094e-06
-1.19527e-06
-1.194624e-06
-2.31792e-06
-2.239665e-06
-3.924549e-06
2.437906e-06
-1.066538e-05
-3.224396e-06
3.66835e-06
3.693143e-07
9.289134e-06
-6.76363e-06
-6.810193e-06
-3.737844e-06
-8.050279e-06
-7.942256e-06
-3.407616e-06
-3.966469e-06
2.842978e-06
-5.13422e-06
8.486058e-06
7.285591e-06
5.814072e-06
-4.982488e-06
-7.256766e-06
-9.93885e-06
-8.602588e-06
-5.363576e-06
-6.94549e-06
-8.705685e-06
-7.853847e-06
-5.866372e-06
-6.01727e-06
-1.319042e-06
-7.298789e-06
-1.288973e-06
-1.210323e-05
5.523574e-06
1.076902e-06
-6.682762e-06
2.642499e-06
2.673102e-06
8.822631e-06
-2.173257e-06
9.564615e-06
8.049139e-06
-2.839817e-06
-5.058845e-06
-1.14899e-05
3.563165e-06
2.993022e-06
2.975838e-06
1.481777e-08
-7.945811e-06
-8.317508e-06
-5.080106e-06
8.932964e-07
1.107979e-06
-1.15246e-05
-1.424987e-05
-1.320567e-05
-5.241232e-06
-3.668021e-06
-6.967705e-06
-8.47283e-06
-1.487865e-06
-3.159379e-06
-2.900658e-06
-5.068576e-06
-4.824416e-06
-3.602854e-07
-1.256606e-05
1.386594e-06
-2.568521e-06
5.810327e-06
9.685663e-07
-4.647624e-06
4.92317e-06
-4.109826e-06
2.292568e-06
-1.061268e-05
-1.549239e-06
-6.107378e-06
3.742739e-06
1.422793e-06
2.089284e-06
7.734139e-07
1.101199e-06
-4.418529e-06
-1.87966e-06
-3.259485e-06
-1.968735e-06
-1.466352e-06
-1.638654e-06
-2.439654e-06
-1.025908e-05
-2.798902e-06
2.138516e-06
-4.074388e-06
3.548456e-06
3.301246e-06
-3.449109e-06
1.147243e-06
-5.415022e-06
-2.450069e-06
-3.08594e-06
-1.607134e-06
-2.533574e-06
7.905874e-06
2.011046e-07
2.850047e-06
-6.519998e-06
1.17722e-05
2.023155e-07
5.977943e-07
2.413394e-07
4.327439e-07
2.225101e-07
-6.776917e-08
-1.724063e-06
8.561656e-10
-3.988639e-08
1.257338e-05
1.495221e-06
1.266062e-06
-6.647621e-07
-3.937273e-06
-5.001809e-06
-1.717959e-06
-5.488547e-07
2.295914e-06
2.40005e-06
2.846905e-06
-1.670101e-06
-1.584558e-06
1.11461e-05
1.019647e-05
3.646567e-06
2.290848e-06
-1.974565e-07
-1.964146e-06
-2.047423e-06
-3.212953e-06
-3.068143e-06
3.814766e-06
2.870754e-06
-9.607892e-06
-1.140172e-06
-9.433448e-07
3.387816e-06
3.385461e-06
-6.751236e-06
-2.86056e-06
-3.162971e-06
3.037734e-06
2.701097e-06
-1.410456e-05
-6.169957e-06
-6.400994e-06
-4.832127e-06
-2.746109e-07
-5.686127e-07
1.015856e-06
-8.332903e-07
-1.527005e-05
3.142142e-06
-8.291395e-06
7.230832e-06
-7.33093e-07
-8.878675e-07
-3.279594e-06
6.285114e-07
-5.845586e-09
-6.31478e-06
-9.551072e-07
3.480772e-06
3.919856e-06
-4.336659e-06
-1.320423e-05
2.581416e-06
3.61237e-07
-5.2234e-06
1.613164e-06
5.780758e-07
-7.388519e-06
-1.323682e-05
2.152534e-06
3.83465e-06
-3.628683e-06
-4.994142e-06
-8.064773e-06
-7.658044e-06
6.024461e-07
6.960281e-07
-5.168202e-06
-2.896216e-06
1.767091e-06
1.973744e-06
2.292123e-06
1.766992e-06
2.762308e-06
8.177293e-06
8.011763e-06
4.710535e-07
1.686643e-07
-7.296937e-07
-9.767806e-08
-5.498803e-06
9.341228e-06
-9.365396e-06
-2.832748e-06
-3.256379e-06
-4.039299e-06
5.409331e-06
-3.135788e-06
-2.783255e-06
-8.682163e-06
-8.677916e-06
1.56714e-06
-7.913586e-06
8.428124e-06
3.12912e-06
6.798272e-07
-2.51421e-07
-1.38199e-05
-1.314911e-05
7.979272e-07
-1.561858e-06
-3.265226e-06
-4.111194e-06
4.390354e-06
2.140035e-07
-3.850359e-06
-3.506376e-06
-2.316438e-06
1.001042e-05
1.099595e-05
1.133544e-06
1.042727e-06
-6.095173e-06
1.287151e-06
-1.708971e-06
-1.892681e-06
-7.30502e-06
-1.087303e-05
4.602455e-07
7.000959e-07
-1.868818e-06
-1.980312e-06
1.619501e-06
-7.633922e-06
1.939734e-06
-1.352722e-07
-8.107246e-06
-2.104887e-06
8.297794e-06
1.288183e-05
-1.523119e-06
-4.785712e-07
2.248772e-06
2.39854e-06
-7.790208e-07
8.180996e-06
9.764881e-06
3.206272e-06
3.159588e-06
7.195951e-07
1.266881e-06
1.128873e-05
6.655157e-06
-3.638538e-06
4.524234e-06
4.58803e-06
-3.364816e-06
-2.33939e-06
-3.906345e-06
-3.643412e-06
-1.727038e-06
-7.79195e-07
-3.359307e-06
-4.785828e-06
-3.692269e-06
-4.016325e-06
-5.464907e-06
-4.542972e-06
-5.16364e-06
-7.731819e-06
-3.62452e-06
-4.538765e-06
-4.517431e-06
-5.681163e-06
-5.503845e-06
-6.244209e-06
-4.029469e-06
-5.005036e-06
-5.166328e-06
-3.073196e-06
-2.656603e-06
8.814084e-07
-2.734396e-06
-2.531949e-06
-7.204136e-06
-7.070604e-06
5.167172e-06
5.399331e-06
-3.874838e-06
-7.924193e-06
2.024714e-06
-1.410353e-06
-3.991577e-06
-1.947573e-06
-8.833462e-07
-4.515319e-06
-3.51735e-06
-3.832285e-06
-4.331279e-06
7.763613e-08
-4.894052e-06
-4.845808e-06
-5.905883e-06
-4.177145e-06
-3.283238e-06
-3.724256e-06
4.001559e-07
1.852442e-06
1.576755e-06
5.728809e-06
2.326922e-06
-1.5112e-06
-1.471505e-06
1.763036e-06
7.695153e-07
-2.539044e-06
1.362454e-06
-9.44876e-06
-2.348269e-06
-3.632361e-06
4.418014e-06
3.022297e-06
5.653558e-06
3.884978e-06
3.990624e-06
-2.182541e-06
-2.183188e-06
-2.291506e-06
-8.377937e-06
-3.250219e-06
-2.996849e-06
-3.460886e-06
-1.386941e-06
2.099513e-06
8.259827e-06
2.46203e-06
2.811441e-06
-3.547261e-06
-2.022017e-06
2.372081e-06
-2.457007e-06
2.943909e-07
-1.79942e-06
-2.480174e-06
-2.350522e-06
1.346551e-06
-2.011524e-06
-1.191551e-05
5.757412e-06
7.24249e-06
6.837173e-06
5.30498e-06
1.74764e-06
-2.596512e-06
1.803128e-06
-1.129638e-06
-3.660121e-07
-4.465857e-06
2.840846e-06
2.650872e-06
-4.144588e-07
-2.575002e-06
-5.677598e-07
-2.680332e-06
-2.722934e-06
1.100585e-05
-1.167345e-05
-1.097879e-05
-1.645688e-06
-1.806992e-06
-3.893123e-06
-1.739401e-06
-4.085124e-06
-3.362863e-06
-5.620675e-06
2.173688e-06
-1.161876e-06
-2.823192e-07
-9.305694e-07
-9.918611e-07
-3.049528e-06
-4.569137e-06
-9.686002e-07
-1.158316e-06
3.367416e-07
1.937532e-06
-1.149963e-05
-8.832883e-06
-8.868088e-06
1.949852e-06
-3.74926e-06
1.960662e-06
4.815894e-06
6.005124e-06
-1.804497e-06
-4.094577e-07
-2.07039e-06
-2.478044e-06
-4.89869e-08
4.37517e-06
-8.860197e-06
-7.204473e-06
4.131437e-08
-1.074244e-07
-9.400262e-07
-7.238584e-06
-5.808543e-06
-9.178901e-06
2.570756e-06
3.148276e-06
-1.482943e-05
6.201562e-06
-5.288829e-06
-3.369272e-06
1.541981e-06
-1.926878e-06
-6.055044e-07
-4.374452e-07
-4.246911e-06
-4.89485e-06
4.133662e-06
-1.66069e-06
-1.887952e-06
6.297312e-06
-1.132905e-05
-7.534647e-06
-5.45617e-06
-2.267954e-06
-2.476405e-06
-1.589362e-06
-1.094971e-06
-4.494303e-06
-2.598868e-06
-2.50325e-06
-2.037724e-06
1.976233e-06
2.321749e-06
-1.259571e-05
-1.165152e-05
9.75914e-06
2.200126e-07
-7.222121e-08
1.497827e-06
1.765307e-06
-5.429418e-06
7.439785e-07
3.662672e-07
-1.540283e-06
-1.792525e-06
1.322369e-05
-2.169408e-06
5.899341e-06
5.023731e-06
-2.645641e-06
-7.554029e-06
1.889407e-06
1.541195e-06
-2.205031e-06
-2.103649e-06
-3.856554e-06
-5.746154e-06
-9.784788e-06
-3.147102e-06
-1.346131e-05
-1.337041e-05
8.191814e-07
-3.03518e-06
-1.27719e-06
-1.408781e-05
-4.338042e-06
-1.447885e-05
8.569116e-07
-2.16603e-06
4.315234e-06
4.717815e-06
3.166729e-06
3.461276e-06
6.542841e-06
2.995741e-06
-6.411651e-06
-2.969755e-06
-2.886628e-06
3.228079e-06
4.937286e-06
-1.34116e-05
1.687502e-06
1.299371e-06
-3.01936e-06
-3.475152e-06
-6.09953e-06
-5.602386e-06
-1.040202e-06
1.192753e-06
-2.908863e-07
-6.09863e-06
-9.046643e-06
-1.948703e-06
-9.127378e-06
-9.503119e-06
-8.66583e-06
-8.752469e-06
6.25998e-06
-5.241022e-06
8.213976e-07
-5.306078e-06
-5.881222e-06
-5.304032e-06
-1.150306e-05
-3.055215e-07
-2.495145e-06
-4.168095e-06
-4.129073e-06
-6.8287e-06
1.373407e-06
1.349535e-06
-1.693969e-06
6.257294e-07
-1.34276e-05
-1.558722e-05
-1.449635e-05
-2.743726e-06
-1.002837e-05
-1.395142e-05
-1.486203e-05
-1.511958e-06
-2.46974e-06
-2.472248e-06
-3.256733e-06
-3.051753e-06
-6.725277e-06
-6.103772e-06
7.267815e-06
-1.352899e-05
-3.657372e-06
7.323596e-06
6.432891e-06
-2.990661e-06
1.404135e-06
-7.063545e-06
2.194054e-06
-1.306017e-06
-1.429716e-06
4.564253e-07
-3.002939e-06
3.175534e-06
-3.017998e-06
-1.210166e-05
-4.509012e-06
-9.930459e-06
-1.266617e-05
-1.148318e-05
-8.26995e-07
-1.135366e-05
-7.769047e-06
-7.105113e-06
-3.148084e-06
-2.420388e-06
-2.356345e-06
4.041426e-07
4.404135e-07
-4.634512e-06
-1.413741e-06
-1.100518e-05
-7.345181e-06
-6.515983e-06
-6.548233e-06
1.941202e-06
-2.428908e-07
-6.98227e-07
1.00391e-05
-3.363348e-06
-5.844966e-06
-6.103206e-06
6.486497e-07
-2.269365e-07
-8.017038e-06
-4.011392e-06
-6.763033e-08
-6.204731e-06
-6.086907e-06
-4.800839e-06
-4.606762e-06
-5.290695e-06
-9.237315e-06
-1.310786e-06
-1.752528e-06
4.868724e-06
4.639895e-06
1.384959e-06
1.544362e-06
1.179623e-06
7.623174e-07
1.449189e-06
2.69561e-06
-2.307614e-06
-4.482249e-06
-6.298159e-06
9.679278e-08
-1.580586e-06
-1.192066e-06
-1.252311e-06
-2.314505e-06
3.875004e-06
-4.682505e-07
-1.295877e-06
-3.134248e-06
-2.04597e-06
-2.068266e-06
1.61973e-06
-1.643034e-07
-4.912935e-08
3.465135e-06
3.564313e-06
3.863561e-06
-1.24929e-05
-1.062097e-06
2.542888e-06
3.088936e-06
-1.84898e-07
-1.055233e-06
-2.043463e-06
-1.179827e-06
-9.852554e-07
6.002792e-06
6.674152e-06
-6.966658e-07
7.738746e-06
-9.257244e-06
-9.989512e-06
1.012721e-06
-3.577262e-06
6.027181e-07
-1.281298e-06
2.767456e-06
1.060735e-06
-1.629424e-06
-3.044184e-06
-6.877067e-06
-7.05377e-06
6.190273e-07
5.960405e-07
-1.080803e-05
-1.132422e-06
-8.263254e-06
2.10874e-06
-4.825842e-06
-4.039146e-06
1.339985e-06
1.709252e-06
-1.634049e-06
-1.283165e-06
-1.192961e-06
2.026007e-06
-2.806684e-06
-3.678377e-06
-3.257218e-06
-2.919898e-06
-1.848279e-06
-3.48923e-06
-1.660456e-06
-1.988574e-06
8.618567e-06
1.070261e-05
-2.66262e-06
4.104961e-06
3.445071e-06
-1.086761e-06
-1.287671e-06
-4.191572e-06
6.030786e-07
-3.210451e-06
4.000188e-06
2.82262e-06
-3.99826e-06
-1.2662e-05
-1.130358e-05
-8.71869e-06
-7.510993e-06
-2.126925e-06
-2.142518e-06
2.352407e-06
-1.402656e-05
-1.522116e-05
-1.505318e-05
-4.914365e-06
3.313431e-06
-8.153606e-07
-7.060786e-07
2.339358e-06
6.182804e-06
-7.770571e-07
5.896799e-06
-1.915789e-06
-1.151893e-06
-3.096522e-06
-2.152467e-06
-2.525429e-06
3.522167e-07
5.211543e-07
1.328868e-06
1.436868e-06
1.844302e-07
-2.198152e-07
4.18159e-06
4.375622e-06
-2.827198e-06
-2.292753e-06
5.489955e-06
-5.395999e-06
-8.852445e-06
-8.944072e-06
-8.731577e-06
-9.13528e-06
-9.332911e-06
-1.117923e-05
-9.593205e-06
-8.589979e-06
-1.17078e-05
-1.219091e-05
4.925905e-06
-3.33931e-06
-3.123044e-06
-7.435651e-06
-6.391087e-07
-5.640121e-08
-4.586169e-07
-7.830972e-09
1.508666e-06
1.730835e-06
4.652822e-07
2.707622e-06
-1.108559e-06
3.592245e-07
1.762051e-06
-1.196416e-05
-1.268678e-05
-2.369137e-06
-3.465439e-06
-3.71413e-06
-2.199185e-06
-3.624315e-07
-9.709802e-06
-7.919025e-06
-7.650277e-06
-7.453039e-06
3.561951e-06
4.172444e-06
-9.692356e-06
-5.970289e-06
-1.107108e-06
-1.06477e-06
-9.665842e-06
-3.81626e-06
-8.165905e-06
2.078868e-06
-1.842186e-06
-1.190697e-06
-2.627038e-06
-2.427496e-06
9.255419e-07
3.283008e-07