/*--------------------------------*- C++ -*----------------------------------*\
| =========                 |                                                 |
| \\      /  F ield         | OpenFOAM: The Open Source CFD Toolbox           |
|  \\    /   O peration     | Version:  2406                                  |
|   \\  /    A nd           | Website:  www.openfoam.com                      |
|    \\/     M anipulation  |                                                 |
\*---------------------------------------------------------------------------*/
FoamFile
{
    version     2.0;
    format      ascii;
    arch        "LSB;label=32;scalar=64";
    class       volVectorField;
    location    "0.02";
    object      U;
}
// * * * * * * * * * * * * * * * * * * * * * * * * * * * * * * * * * * * * * //

dimensions      [0 1 -1 0 0 0 0];

internalField   nonuniform List<vector> 
4529
(
(0.01002604 -0.0001318357 0)
(0.009924841 -3.173099e-05 1.712861e-24)
(0.009940526 1.15666e-05 -1.848482e-24)
(0.009833374 -7.052484e-05 -5.000482e-24)
(0.009892514 2.724317e-05 2.681573e-24)
(0.009884537 0.0001945349 0)
(0.00995282 4.65607e-05 0)
(0.009935728 0.0001459974 -2.371708e-25)
(0.009911486 -9.437892e-06 -1.98649e-24)
(0.009958033 -4.233471e-05 8.378933e-26)
(0.01008062 4.584969e-06 -6.132191e-25)
(0.009990695 -7.961063e-05 3.557207e-26)
(0.009989951 -4.290787e-05 -1.317719e-26)
(0.009990523 -7.538796e-05 5.531746e-26)
(0.009960804 -2.327285e-05 0)
(0.009979315 -3.470857e-05 2.982062e-25)
(0.009903032 -6.839637e-05 0)
(0.009971575 -5.260672e-05 4.054496e-25)
(0.01002369 -3.276171e-05 0)
(0.00995181 -9.288902e-05 -5.677585e-26)
(0.01000263 -3.196934e-05 1.03473e-26)
(0.009965213 -3.758646e-05 1.175713e-24)
(0.009965588 -8.370248e-06 -3.907759e-25)
(0.009943096 -2.682899e-05 0)
(0.01000133 -2.736345e-05 -4.519257e-25)
(0.009944937 -4.492338e-05 2.959357e-26)
(0.009969701 0.000204075 -3.013223e-25)
(0.009885398 6.69783e-05 -1.458186e-24)
(0.009913894 0.0001155299 1.704476e-24)
(0.009870865 1.430214e-05 -2.250402e-24)
(0.01000645 -5.701966e-05 -4.71134e-25)
(0.009964692 9.802206e-06 5.072431e-25)
(0.009980721 -2.737028e-05 0)
(0.01002227 -5.343638e-05 0)
(0.0101045 -0.0001041547 0)
(0.009928143 5.337817e-05 2.840286e-24)
(0.009944933 -2.499217e-05 -5.739709e-25)
(0.009984624 -9.774459e-05 0)
(0.009885787 -9.843748e-05 -3.320222e-24)
(0.01005882 -0.0001351336 -2.176742e-24)
(0.009963386 -1.506072e-05 -4.522404e-26)
(0.00998161 -2.516811e-05 -2.171132e-25)
(0.009958569 -1.313894e-05 -8.454833e-25)
(0.01000973 -4.52862e-05 0)
(0.01001034 -4.104071e-05 2.747299e-25)
(0.01007181 -0.0001033785 -5.06251e-24)
(0.009958309 5.898628e-06 0)
(0.009928467 -2.688892e-05 0)
(0.01002557 -2.580357e-05 8.534243e-27)
(0.009916186 1.034861e-05 -2.351023e-24)
(0.009738698 -4.137465e-05 1.018941e-23)
(0.009953704 -3.371891e-05 -4.403752e-25)
(0.009725971 6.22488e-05 0)
(0.01003921 -8.247503e-05 -4.916418e-26)
(0.009932342 -0.0001173402 2.862467e-25)
(0.009909789 -2.464955e-05 -1.244081e-24)
(0.009917457 -8.864758e-06 0)
(0.01007472 7.356722e-06 6.274373e-24)
(0.009815825 0.0001405301 8.874454e-24)
(0.009790364 -0.0001465936 -6.558781e-24)
(0.00993381 0.000100676 1.226611e-24)
(0.01006009 -7.927265e-05 0)
(0.009991147 -2.866065e-05 5.289963e-26)
(0.009783411 -0.0001717587 0)
(0.009943498 2.671448e-05 0)
(0.01003001 -7.594952e-05 5.984319e-26)
(0.009997148 -0.0001217829 6.554003e-26)
(0.009967677 -2.063273e-05 3.790031e-25)
(0.009945583 4.704775e-06 0)
(0.01012892 -9.082253e-05 0)
(0.009948513 -2.271308e-06 2.760193e-24)
(0.009920715 -2.359657e-05 2.167401e-24)
(0.009870349 -1.243418e-05 -1.955929e-24)
(0.009983965 -2.723313e-05 -2.338643e-25)
(0.009735582 5.280503e-05 -2.738147e-24)
(0.009864062 -0.0001128303 -4.406849e-24)
(0.01007392 -0.0001367456 -3.089908e-24)
(0.01002721 -6.337667e-05 0)
(0.009841754 -0.0002057291 5.220437e-24)
(0.009920684 1.858047e-05 4.827892e-25)
(0.009885133 -8.859853e-06 3.271828e-24)
(0.009954136 1.508946e-05 9.357754e-25)
(0.01003207 -4.135598e-05 -4.892269e-25)
(0.009959657 -4.185563e-05 -2.155147e-25)
(0.009925253 -6.322688e-05 -1.582704e-24)
(0.009979535 -4.021591e-05 6.421967e-25)
(0.01002034 -3.139542e-05 0)
(0.0100516 -5.961837e-05 0)
(0.01007609 -9.168565e-05 0)
(0.01002349 -0.0001602628 -3.622568e-25)
(0.00974947 -8.968387e-05 3.192313e-24)
(0.009974797 -2.040091e-05 0)
(0.01003286 -3.86352e-05 -2.749014e-25)
(0.009957136 3.054938e-05 -3.043519e-25)
(0.009971448 -1.807661e-05 0)
(0.009996991 -8.463094e-05 1.74559e-25)
(0.009827522 -3.539794e-05 -4.974337e-24)
(0.009943595 -0.0001382621 -2.431302e-25)
(0.009933191 0.0001884297 5.971415e-24)
(0.00993455 -6.305598e-05 -1.229172e-24)
(0.009982588 -3.53298e-05 0)
(0.009882257 -6.192285e-05 -8.981503e-26)
(0.009928997 2.951595e-05 1.633449e-24)
(0.009946457 -0.0001334937 -2.229544e-25)
(0.009964208 -2.943276e-05 -5.799827e-25)
(0.01007099 -0.000109006 -1.647633e-24)
(0.00996672 -0.0002540534 3.400541e-24)
(0.01008266 -0.0001072912 7.84732e-25)
(0.01005231 -5.891702e-05 -5.039546e-24)
(0.01001479 -8.947183e-05 3.021513e-26)
(0.009993806 -2.560088e-05 -1.365619e-25)
(0.009963156 2.07972e-05 4.060075e-25)
(0.009851911 7.776857e-05 0)
(0.009891041 9.166653e-05 7.796577e-24)
(0.009864135 -2.287024e-05 0)
(0.00996793 -2.406473e-05 -6.468121e-25)
(0.009983435 -0.0001390877 -1.504892e-24)
(0.009932456 0.0001052799 1.763699e-24)
(0.00995335 -4.017584e-05 -7.291867e-25)
(0.009995543 -4.947916e-05 0)
(0.009961516 -0.0001618207 0)
(0.00994299 2.207398e-05 -5.230884e-26)
(0.01003252 -0.0001300987 0)
(0.009990664 -0.0001150942 -3.161885e-25)
(0.009966285 -2.535923e-05 3.936045e-25)
(0.009898089 -7.054646e-05 0)
(0.009940235 0.0001015496 0)
(0.0100396 -6.324643e-05 -1.519771e-24)
(0.009958735 -2.519999e-05 0)
(0.00987532 -0.0001282234 -3.573685e-24)
(0.00994739 3.320793e-05 3.697537e-26)
(0.009929292 0.0001741939 4.571578e-24)
(0.00974016 -0.0001007394 -8.202188e-24)
(0.01002908 -0.0001064503 -4.522217e-25)
(0.01005981 -0.0001295388 0)
(0.01002719 -5.78185e-05 -1.031267e-24)
(0.01003511 -5.833594e-05 0)
(0.0100034 -4.423509e-05 3.124754e-25)
(0.009992842 -9.222725e-05 0)
(0.009942365 -7.139532e-05 0)
(0.009963986 -0.0001337145 1.272292e-24)
(0.00997112 -9.82549e-05 -1.490174e-24)
(0.009981462 -4.91796e-05 -1.547758e-25)
(0.009910295 -8.631803e-05 -3.179274e-24)
(0.009824652 2.974498e-06 6.82547e-25)
(0.009935772 0.0001368437 2.233406e-24)
(0.01003519 -0.0001260704 2.636002e-24)
(0.009861154 1.577913e-05 2.433171e-24)
(0.009945712 8.094854e-05 0)
(0.00994979 -4.026556e-05 6.022102e-25)
(0.009936679 -4.487097e-06 7.884708e-25)
(0.009896428 7.834749e-05 -8.923571e-25)
(0.009926145 -0.0001018063 2.006896e-24)
(0.009982671 -3.095741e-05 1.720914e-25)
(0.00992385 0.0002026216 5.957168e-24)
(0.009990758 -5.128625e-05 4.455959e-26)
(0.01001635 -6.757992e-05 0)
(0.009934912 -0.0001447455 0)
(0.009977011 -5.526301e-05 -3.862664e-25)
(0.009939763 1.345202e-05 1.723334e-24)
(0.0101221 -0.0001273994 0)
(0.009997197 -3.666778e-05 -4.199417e-25)
(0.009892572 -0.0001531435 -1.851712e-25)
(0.009984236 -0.000179662 8.471743e-25)
(0.01000511 -3.040351e-05 -4.664237e-25)
(0.01001902 -3.2568e-05 0)
(0.01000591 -4.37136e-05 -1.266351e-25)
(0.009946551 -8.124006e-05 0)
(0.01000518 -0.0002029731 0)
(0.009946694 5.020851e-05 -1.766107e-24)
(0.009839657 0.0001428605 0)
(0.009956689 1.410622e-05 0)
(0.009744299 -0.000152749 5.010865e-24)
(0.01003189 -4.419227e-05 -3.230391e-25)
(0.01008257 -0.000147639 0)
(0.009920284 9.330128e-05 -1.038509e-24)
(0.009985157 -0.0001124886 -7.160973e-25)
(0.00981839 -0.0002096137 -5.378126e-24)
(0.009723846 -0.0001258042 -3.10293e-25)
(0.01012774 -0.0001445252 0)
(0.01003274 -4.735021e-05 -1.248786e-24)
(0.009936479 -4.85877e-05 0)
(0.009947803 2.163129e-06 2.799903e-24)
(0.009954985 4.01068e-07 1.297115e-24)
(0.01014472 -0.0001048636 -2.997728e-24)
(0.00974276 -0.0002126081 -5.362425e-24)
(0.009945134 -0.0001159494 -1.531401e-24)
(0.009995676 -4.821315e-05 2.20339e-25)
(0.009864783 -4.72955e-06 8.972191e-25)
(0.009995638 -5.228039e-05 0)
(0.009925022 0.0001107236 6.519683e-25)
(0.009769796 -5.361604e-05 0)
(0.01004757 -5.788468e-05 0)
(0.009926675 0.0001588599 -1.048667e-25)
(0.009945803 -5.087748e-05 0)
(0.01008101 -9.783302e-05 1.394246e-24)
(0.01002023 -4.449892e-05 0)
(0.00981341 -3.53787e-05 0)
(0.01013731 -0.0001106111 6.515131e-24)
(0.01000578 -3.300237e-05 1.800787e-25)
(0.009957939 2.701141e-05 1.056177e-24)
(0.01006953 -5.915904e-05 2.612764e-24)
(0.009962005 4.112878e-06 -2.407073e-25)
(0.009773558 3.622111e-05 0)
(0.00996957 -2.442257e-05 0)
(0.009930206 -3.416518e-05 -1.811771e-24)
(0.009875121 -0.0001368011 0)
(0.009928117 -3.166337e-05 0)
(0.009909953 5.293171e-05 0)
(0.009776681 -0.0001484553 5.971377e-24)
(0.01002535 -6.081319e-05 -7.292533e-26)
(0.009902422 3.508613e-05 5.370583e-25)
(0.01001188 -7.580036e-05 0)
(0.009919807 -0.0001162203 2.214076e-24)
(0.009944185 -7.236994e-05 1.78484e-24)
(0.009936538 7.408719e-05 0)
(0.009959591 -6.794116e-05 0)
(0.009972843 -4.083616e-05 -1.032614e-24)
(0.009929469 2.438418e-05 0)
(0.01002306 -1.464141e-05 -7.393913e-24)
(0.009934996 -7.473043e-05 -1.854013e-24)
(0.009992673 -3.412485e-05 -2.765223e-26)
(0.009955103 -7.54801e-05 -6.453657e-25)
(0.009999435 -5.579984e-05 2.413245e-27)
(0.009997097 -8.934183e-05 2.632441e-25)
(0.01009038 -9.00928e-05 -5.995338e-25)
(0.009969286 -2.095173e-05 -1.165259e-24)
(0.00992058 -1.221644e-05 -1.169298e-24)
(0.0098834 -0.000196327 4.067491e-24)
(0.009986363 -2.60793e-05 2.729134e-25)
(0.009935929 0.0002107922 0)
(0.00977151 9.781731e-05 8.073514e-24)
(0.009891609 -0.0002900753 0)
(0.01000561 -6.981896e-05 4.446527e-25)
(0.009908594 -4.401875e-05 -1.293268e-24)
(0.009931274 9.671701e-05 1.833018e-24)
(0.009998353 -0.0001556441 8.145575e-27)
(0.009907075 -0.0001382392 -3.362027e-24)
(0.01002155 -4.372718e-05 6.848264e-25)
(0.009932438 1.57249e-05 1.049214e-24)
(0.009910033 3.253044e-05 0)
(0.01001876 -4.220743e-05 0)
(0.009983829 -4.021133e-05 2.46328e-25)
(0.009805452 -6.379373e-05 5.329885e-24)
(0.01003752 -2.80461e-05 2.782996e-25)
(0.009919455 -0.0001226327 -6.88866e-25)
(0.00984615 -0.0002328343 4.283293e-24)
(0.009966162 -4.213418e-05 0)
(0.00997639 -8.756394e-05 -3.033286e-25)
(0.01003621 -4.095777e-05 0)
(0.009980273 -0.0001986088 -1.679531e-25)
(0.01004972 -4.224383e-05 0)
(0.009875483 -3.401969e-05 -3.561722e-24)
(0.009981977 5.49542e-06 0)
(0.01012221 -0.0001467286 3.82817e-24)
(0.01000761 -9.923938e-05 -2.443918e-25)
(0.009880734 -2.789372e-06 0)
(0.009791529 0.0001074344 -2.619442e-24)
(0.009860315 -6.655388e-05 0)
(0.009961491 -4.30632e-05 6.271925e-25)
(0.01004129 -5.049681e-05 0)
(0.009976909 -2.207763e-05 -2.616141e-25)
(0.009962002 -2.082926e-05 -6.844863e-25)
(0.009989821 -6.1894e-05 -2.246131e-26)
(0.009943352 1.439081e-05 0)
(0.009848754 0.0001176927 4.469764e-24)
(0.009944064 -2.265953e-05 7.011912e-25)
(0.01002619 -0.0002129887 -9.580038e-26)
(0.009920618 -3.447037e-05 1.219564e-24)
(0.009974976 -3.673815e-05 3.041612e-25)
(0.00994727 -5.970221e-05 0)
(0.009997357 -4.292286e-05 2.990021e-25)
(0.01004118 -0.0001329528 0)
(0.010022 -0.0002348274 -1.073354e-24)
(0.009795563 0.000137364 1.502366e-24)
(0.01000009 -3.200557e-05 3.36793e-25)
(0.01000403 -4.118524e-05 0)
(0.01001266 -4.679027e-05 -3.654647e-25)
(0.009868668 -9.201488e-05 7.137061e-25)
(0.009892821 -0.0002796458 0)
(0.009986336 -8.161683e-05 8.981456e-26)
(0.009960086 2.310212e-05 6.523582e-25)
(0.01001887 -6.132405e-05 8.692513e-25)
(0.009945438 -0.0001564552 0)
(0.01001136 -3.447207e-05 9.233552e-25)
(0.009942583 1.043044e-05 -1.08887e-24)
(0.009943602 6.76553e-05 0)
(0.01000626 -4.547775e-05 7.800082e-25)
(0.009916511 -5.251822e-05 0)
(0.009962223 -7.493073e-05 -8.494859e-25)
(0.009977425 -0.0002516749 0)
(0.01003944 -0.000124465 -2.957718e-24)
(0.01000348 -9.656758e-05 -4.690903e-25)
(0.009943117 -8.33077e-06 1.000526e-24)
(0.009925516 1.455154e-05 7.000479e-26)
(0.01002376 -9.810918e-05 -9.097083e-25)
(0.009956746 6.225921e-06 0)
(0.0099411 -0.0001059933 0)
(0.009980268 -3.922769e-05 -1.152306e-25)
(0.009967432 -9.768618e-05 -1.654675e-24)
(0.009952035 -4.185761e-06 -6.101209e-25)
(0.009942863 -1.588886e-05 0)
(0.009913514 4.549245e-05 1.493119e-24)
(0.01012741 -6.855954e-05 0)
(0.009998008 -0.0001171312 -6.650788e-26)
(0.009926602 8.706175e-05 3.955998e-24)
(0.009970564 -0.0002077929 0)
(0.009961455 -3.197878e-05 1.170529e-24)
(0.009908408 -5.887021e-05 0)
(0.0099811 -5.624975e-05 2.114378e-26)
(0.009975364 -4.713868e-05 0)
(0.009950969 4.485573e-05 0)
(0.01004694 -4.216594e-05 -1.331161e-24)
(0.009945514 -4.094451e-05 0)
(0.009996702 -0.0001909534 0)
(0.01000472 -0.0001230763 0)
(0.009951337 2.734254e-05 1.221213e-24)
(0.009961442 2.605828e-05 0)
(0.00981838 0.0001945733 -2.36286e-24)
(0.01007816 -7.298606e-05 2.3188e-24)
(0.01002168 -8.864787e-05 0)
(0.01009079 -8.484488e-05 -4.982125e-24)
(0.009927079 2.461775e-05 0)
(0.009887237 -4.759375e-05 1.919833e-24)
(0.009989935 -8.753293e-05 -1.059034e-25)
(0.009913125 -1.559736e-05 -4.11455e-24)
(0.009972514 0.0001716007 1.108614e-24)
(0.009996983 -2.610781e-05 -7.836455e-25)
(0.009989103 -3.91466e-05 5.165294e-26)
(0.01000179 -2.932719e-05 -4.0328e-25)
(0.01000108 -3.623414e-05 -4.860596e-25)
(0.009993041 -3.232139e-05 0)
(0.009991061 -2.722024e-05 0)
(0.00995071 -2.700622e-06 -3.151447e-26)
(0.01006083 -8.967343e-05 0)
(0.009854013 4.101243e-05 0)
(0.009875228 6.209848e-05 -1.572476e-25)
(0.009927822 6.856374e-05 0)
(0.009991153 -2.477574e-05 -1.346949e-25)
(0.009970823 -3.031232e-05 4.735368e-25)
(0.009966956 -1.983546e-05 0)
(0.009947329 -0.0001241384 -2.177197e-24)
(0.01012636 -0.0001059899 -9.064297e-24)
(0.009893214 0.0001322437 -1.24908e-25)
(0.009930745 -0.0001765252 0)
(0.01007474 -7.001174e-05 -2.207833e-25)
(0.009933797 2.377185e-05 0)
(0.009871052 0.0001536093 7.739463e-26)
(0.00987148 6.828721e-05 -3.037432e-24)
(0.009963067 4.046667e-06 1.980148e-25)
(0.009967293 -3.995215e-05 -1.417048e-25)
(0.01006733 -5.359542e-05 1.38422e-24)
(0.009958728 1.70924e-05 6.059091e-25)
(0.009955177 1.946468e-05 -1.148468e-24)
(0.0100693 -0.0001129672 -1.292232e-24)
(0.009901814 -4.059791e-05 2.582002e-24)
(0.009894496 0.0001462031 -5.324357e-25)
(0.01012201 9.946933e-06 4.040597e-24)
(0.009947985 -3.668616e-05 0)
(0.009954856 -1.58652e-05 -2.022106e-24)
(0.009989213 -2.887391e-05 -9.260333e-26)
(0.01009409 -0.0001738225 -2.58077e-24)
(0.009928848 -9.000516e-06 0)
(0.009986624 -4.527874e-05 7.45821e-26)
(0.00999535 -6.890495e-05 7.685341e-26)
(0.01002137 -5.690129e-05 0)
(0.01001473 -7.176072e-05 7.99687e-25)
(0.009905486 -1.335418e-06 2.063862e-24)
(0.009952223 5.127898e-05 9.549553e-25)
(0.01004364 -0.0001944611 -6.967145e-25)
(0.01002005 -6.507429e-05 0)
(0.009986454 -5.118893e-05 -3.719578e-26)
(0.009960299 -8.918764e-05 0)
(0.01005452 -5.607745e-05 1.739299e-24)
(0.009957085 -6.109643e-05 4.53518e-25)
(0.009991617 -2.152838e-05 1.36903e-25)
(0.01003025 -2.245325e-05 0)
(0.009807711 -4.831006e-05 5.470437e-24)
(0.009738509 -2.373304e-05 -2.581145e-24)
(0.009960965 -0.000100632 -5.814838e-25)
(0.009973345 -5.524854e-05 4.858521e-25)
(0.0100468 -7.69553e-05 3.079249e-24)
(0.01003817 -4.092417e-05 -1.471705e-24)
(0.01001159 -4.87787e-05 -1.248493e-24)
(0.01010155 -0.0001666475 -2.63403e-24)
(0.01000808 -4.602936e-05 -2.863386e-25)
(0.00994991 -0.0002469543 -1.755795e-24)
(0.01012796 -9.702796e-05 0)
(0.009904494 9.364789e-06 -2.331833e-24)
(0.0100125 -2.640762e-05 0)
(0.00979751 6.395606e-05 1.930143e-25)
(0.01009547 -0.0001081532 1.084149e-24)
(0.01014318 -5.229755e-05 7.950422e-24)
(0.009931539 4.249535e-05 0)
(0.01005708 -0.000171591 0)
(0.009930744 4.826432e-05 2.001171e-24)
(0.009940833 5.188377e-05 8.029325e-25)
(0.009939805 8.161168e-05 -1.138172e-24)
(0.009938784 4.621407e-05 0)
(0.009906999 4.957685e-05 0)
(0.009956366 5.915292e-05 0)
(0.01008754 -8.601737e-05 -8.108745e-25)
(0.009801276 3.28055e-05 0)
(0.009817053 5.256366e-05 0)
(0.009807593 2.713125e-05 -4.693888e-24)
(0.009979586 -5.27971e-05 -1.521593e-25)
(0.009822914 6.838521e-05 -3.234051e-24)
(0.009986037 -3.21059e-05 -2.183942e-26)
(0.01010042 -0.0001105345 0)
(0.009941139 -2.197431e-05 -1.264299e-24)
(0.009909003 -3.500487e-06 1.964365e-24)
(0.00996503 -3.600302e-05 -7.832995e-25)
(0.009864137 6.931147e-05 2.995002e-24)
(0.009951971 -4.564073e-07 -1.038783e-24)
(0.01003394 -5.397299e-05 -1.293249e-24)
(0.009985043 -3.39382e-05 0)
(0.009978077 -4.698329e-05 5.100201e-25)
(0.009916608 -4.309544e-05 -1.956594e-24)
(0.01000228 -5.445505e-05 -9.030268e-25)
(0.01005504 -6.072085e-05 6.941824e-26)
(0.009822481 -0.0001586647 -3.708747e-24)
(0.01000257 -0.0001890993 0)
(0.009803128 -9.726928e-05 6.206056e-24)
(0.009903975 0.0001060932 0)
(0.009805663 -0.0002318903 -6.769548e-24)
(0.009756662 -3.327236e-05 -1.918972e-24)
(0.009924255 0.0001875065 0)
(0.009959851 -0.0001205569 1.250303e-24)
(0.01009652 -0.0001946577 5.631174e-25)
(0.009931498 -6.120849e-05 -5.783414e-25)
(0.009990806 -3.174189e-05 -1.979005e-26)
(0.01008875 -0.0001327446 -7.925857e-25)
(0.009791688 -0.0002105197 -5.627627e-24)
(0.009770365 5.53531e-05 6.349022e-24)
(0.01006397 -6.688431e-05 -2.785089e-24)
(0.00996637 -2.764364e-05 -8.248062e-25)
(0.01003902 -5.275773e-05 -1.122091e-24)
(0.01002006 -4.598885e-05 -8.975725e-25)
(0.009902325 -3.381827e-05 0)
(0.01003844 -6.389997e-05 -4.494654e-25)
(0.01002724 -0.0001838073 2.994438e-26)
(0.01000233 -5.73153e-05 -4.838165e-25)
(0.009959051 -0.0002195364 0)
(0.009947763 -2.54781e-05 0)
(0.009959476 4.194854e-05 3.85969e-26)
(0.009962647 4.100618e-05 0)
(0.01006614 -7.064636e-05 3.939793e-24)
(0.009955706 3.769889e-05 -2.785703e-25)
(0.00995597 2.737032e-05 -6.70603e-25)
(0.009921986 4.516663e-05 0)
(0.009895575 -0.0001371907 -2.284963e-24)
(0.009957997 -8.685083e-05 1.68623e-24)
(0.00993202 -8.07401e-05 1.244777e-24)
(0.009976304 -6.592093e-05 1.689395e-25)
(0.009986099 -7.731333e-05 -1.666227e-25)
(0.009981806 -0.0002324992 -1.489644e-24)
(0.009969583 -1.801258e-05 0)
(0.009929149 -0.0001439586 3.202112e-24)
(0.01007221 -0.0001509708 1.738216e-24)
(0.009982738 -4.681789e-05 3.882699e-25)
(0.01005454 -0.0001034478 2.790653e-24)
(0.01001966 -0.0001383572 -5.62178e-26)
(0.009951516 2.423588e-06 0)
(0.01013927 -0.0001134801 0)
(0.00993995 0.0001282572 2.780802e-25)
(0.009894908 4.599142e-05 -7.613765e-25)
(0.009973492 -2.207863e-05 0)
(0.009983208 -6.997667e-05 6.982594e-26)
(0.01001835 -8.309681e-05 -1.417247e-24)
(0.009991204 -2.643455e-05 -7.174276e-26)
(0.01002328 -5.555714e-05 0)
(0.01012506 -0.0001231484 5.344789e-24)
(0.009924513 5.772194e-05 0)
(0.009948956 -1.161854e-05 0)
(0.009850702 -1.600316e-05 0)
(0.01001069 -2.561156e-05 0)
(0.009888667 5.006271e-05 1.08287e-25)
(0.009956775 -6.773093e-06 -7.332751e-25)
(0.01002659 -5.604165e-05 -2.509623e-25)
(0.009968581 -2.489435e-05 -8.313936e-26)
(0.01013096 -0.0001391248 -5.654519e-24)
(0.01009073 -0.0001921652 -4.663003e-25)
(0.01008392 -0.000178572 0)
(0.009992305 -2.737613e-05 -2.498915e-25)
(0.009956326 -2.415226e-05 0)
(0.01009182 -0.0001192233 0)
(0.009913516 3.898949e-05 0)
(0.01004376 -5.065095e-05 -4.824736e-25)
(0.009951378 -6.725728e-05 1.085691e-24)
(0.009929976 0.0001320489 0)
(0.009717431 -0.0002613927 9.380962e-25)
(0.009936236 -6.067598e-07 -9.329268e-25)
(0.009927542 9.566484e-06 0)
(0.009991323 -2.238435e-05 -1.572906e-25)
(0.009956722 4.688096e-05 7.644966e-25)
(0.009908748 2.895555e-05 1.854917e-24)
(0.009906452 2.518941e-06 6.391893e-24)
(0.009889037 1.311982e-05 4.557689e-24)
(0.009945172 3.88767e-05 -9.392871e-25)
(0.009874637 5.126621e-05 -1.991455e-24)
(0.009918546 2.414209e-05 0)
(0.009988561 -2.514857e-05 -6.827435e-26)
(0.009944219 -7.509445e-05 -1.334264e-24)
(0.01006805 -0.0002129461 0)
(0.01005693 -0.0001613919 0)
(0.009977905 -3.007424e-05 1.352074e-25)
(0.009995992 -2.715892e-05 0)
(0.009992875 -2.685799e-05 2.239935e-25)
(0.009989007 -2.701699e-05 -5.08943e-27)
(0.009986281 -4.214643e-05 -9.163091e-26)
(0.009992061 -2.909084e-05 1.957976e-25)
(0.00999867 -3.579111e-05 2.586894e-25)
(0.009915703 -1.440068e-05 -2.75122e-24)
(0.01002773 -5.130711e-05 -2.435739e-24)
(0.009952314 -2.513491e-05 -1.369831e-24)
(0.009918793 -9.653314e-05 -9.688225e-25)
(0.009971401 -2.761924e-05 4.279442e-25)
(0.01004557 -0.0001406504 0)
(0.01009864 -0.0001329211 0)
(0.01008529 -0.0001398749 -5.566661e-24)
(0.009961932 7.348148e-06 0)
(0.01002424 -5.186009e-05 0)
(0.009952694 6.530695e-05 0)
(0.009960864 6.354221e-06 0)
(0.009963624 2.407944e-06 0)
(0.009996622 -2.939761e-05 -6.370266e-26)
(0.009995487 -8.669919e-05 -2.117034e-25)
(0.009922715 -1.584606e-05 0)
(0.01005203 -6.972772e-05 0)
(0.01002551 -2.985822e-05 -8.92381e-25)
(0.009967669 -6.060271e-05 -9.633847e-25)
(0.009992503 -6.364238e-05 -1.3859e-25)
(0.009987298 -5.423242e-05 1.246086e-26)
(0.009980245 -5.870258e-05 -3.324701e-25)
(0.009994956 -4.374687e-05 1.564579e-25)
(0.009882038 6.204782e-05 1.129488e-24)
(0.01003541 -3.99811e-05 0)
(0.01001971 -4.135014e-05 1.360595e-25)
(0.0100201 -4.340268e-05 -1.288428e-24)
(0.01010812 -0.0001026645 0)
(0.009843005 -0.0002618226 1.316793e-25)
(0.009991517 -3.862926e-05 -2.193161e-26)
(0.01015186 -0.000117532 -3.052246e-24)
(0.009993626 -4.438414e-05 6.301044e-26)
(0.009931927 8.396289e-05 1.158007e-24)
(0.01000822 -3.557384e-05 8.39583e-25)
(0.009952913 -4.751793e-05 -5.991169e-25)
(0.009908076 5.68736e-05 0)
(0.009970103 -7.495672e-05 -3.130876e-25)
(0.01011133 -0.0001058524 0)
(0.009923522 1.934805e-05 6.464015e-26)
(0.009952405 3.105071e-05 0)
(0.009943604 -4.795869e-05 0)
(0.009925861 -1.911203e-05 1.480815e-24)
(0.01000561 -9.109904e-05 -2.731123e-25)
(0.009993725 -0.000107074 0)
(0.009857067 0.0001720094 5.677195e-24)
(0.0099215 0.000147602 -2.708962e-24)
(0.010096 -0.0001011819 -4.078452e-24)
(0.009960537 -0.0001284668 0)
(0.01005771 -8.294562e-05 3.182043e-25)
(0.009965094 -2.315608e-05 -1.159565e-24)
(0.009935111 -9.512222e-05 5.244135e-25)
(0.009850829 -0.0001745939 1.449061e-25)
(0.00986085 2.093668e-05 7.788389e-24)
(0.009965377 -1.153587e-05 1.167653e-24)
(0.009960838 -1.135731e-06 -5.0288e-25)
(0.00990033 0.0001416583 0)
(0.009902058 1.605439e-05 -3.54469e-24)
(0.009918921 0.000235245 -4.737427e-24)
(0.01002092 -9.092593e-05 0)
(0.01004553 -4.631124e-05 -3.659416e-24)
(0.01004062 -6.434865e-05 5.216653e-25)
(0.00997044 -0.0001214192 7.307238e-26)
(0.009932124 -4.395917e-05 -1.5913e-25)
(0.009923966 2.213201e-05 -2.139822e-24)
(0.009924826 3.259661e-05 -2.165467e-25)
(0.009950335 0.0002005127 5.058982e-24)
(0.01000751 -4.299813e-05 -5.431131e-25)
(0.01001477 -2.446838e-05 0)
(0.009946652 8.724927e-05 0)
(0.009943455 -0.0001500397 0)
(0.00995354 -8.115936e-05 0)
(0.009994978 -7.301724e-05 -1.71946e-25)
(0.009963371 -1.952447e-05 -7.961977e-25)
(0.009923556 6.881698e-05 -4.200692e-25)
(0.0100032 -7.708086e-05 0)
(0.01002035 -0.0001983311 -1.711323e-25)
(0.009932236 1.214518e-05 -1.906257e-24)
(0.01010458 -0.0001401015 8.029764e-24)
(0.0101169 -0.0001197612 0)
(0.009996592 -0.0001684544 -4.991328e-25)
(0.01001003 -0.0001170285 3.648792e-25)
(0.01010351 -2.725936e-05 5.643665e-24)
(0.009916138 -8.093754e-05 2.380013e-24)
(0.009949199 -7.125454e-06 -8.052263e-25)
(0.009925522 -7.057665e-05 -2.901052e-24)
(0.009930856 3.268807e-06 1.920151e-24)
(0.01010399 -0.0001070654 -5.868626e-24)
(0.01008668 -7.89337e-05 0)
(0.00999211 -2.202837e-05 0)
(0.009934679 8.545648e-07 -1.057931e-24)
(0.01006024 -0.0001037442 0)
(0.01004673 -0.0001188474 1.478109e-24)
(0.01004727 -9.695779e-05 4.018593e-24)
(0.01004577 -8.954369e-05 -9.491821e-25)
(0.01004703 -5.27672e-05 0)
(0.009983167 -8.164396e-05 -2.8724e-25)
(0.01006469 -9.822867e-05 0)
(0.009951792 7.255968e-05 -1.446713e-25)
(0.009828824 -0.0001119444 3.342028e-24)
(0.009972876 -8.168047e-05 1.075573e-24)
(0.009977956 -8.457795e-05 0)
(0.009980948 -4.652408e-05 -2.407452e-25)
(0.01002255 -0.000110562 1.075822e-24)
(0.01009604 -3.912468e-05 -3.506545e-24)
(0.01004471 -2.081477e-05 3.3188e-25)
(0.01001924 -5.316288e-05 0)
(0.009806108 -1.634596e-05 6.369233e-24)
(0.01000111 -7.280751e-05 2.706514e-25)
(0.01000594 -8.363567e-05 0)
(0.009881983 -8.795149e-05 0)
(0.009867072 -7.931062e-05 2.652691e-24)
(0.01006469 -0.0001269746 1.070373e-24)
(0.009963303 -0.0001865488 4.165477e-25)
(0.009991361 -2.340544e-05 5.709483e-26)
(0.01006144 -5.765252e-05 0)
(0.009960912 -1.488747e-05 1.831971e-24)
(0.01003417 -0.0002544622 0)
(0.009954142 -3.155498e-05 8.633796e-25)
(0.009904491 8.363393e-05 0)
(0.009857186 -0.0001153175 8.786176e-24)
(0.009893522 -0.0001976412 -1.266904e-25)
(0.009961535 1.82423e-05 -2.551488e-25)
(0.009973481 -3.040457e-05 4.116959e-26)
(0.01005576 -6.502031e-05 2.155922e-24)
(0.01004467 -3.204041e-05 2.208717e-24)
(0.009968784 -3.760378e-05 -9.088932e-25)
(0.009942287 5.015209e-05 -1.592394e-24)
(0.00997909 -4.948462e-05 0)
(0.00997372 -3.85245e-05 1.171723e-25)
(0.009993909 -2.361474e-05 0)
(0.0101169 -0.0001137992 -1.711118e-24)
(0.01014329 -8.682149e-05 7.666735e-24)
(0.009959693 -9.698132e-05 0)
(0.0099971 -3.414584e-05 -7.59681e-25)
(0.009929379 6.494873e-05 8.670568e-26)
(0.009884765 -3.996976e-06 -3.130199e-24)
(0.01001169 -6.624422e-05 0)
(0.009995215 -0.0001140297 -2.506045e-26)
(0.01003412 -3.550305e-05 1.545177e-24)
(0.009877999 -6.407832e-05 1.307034e-24)
(0.01000849 -0.0001792897 -5.276108e-25)
(0.009919403 0.0002126165 -2.526617e-24)
(0.009963489 -3.839481e-05 0)
(0.009957009 -8.126148e-05 0)
(0.01001711 -4.612766e-05 0)
(0.009847408 8.621037e-05 0)
(0.009975963 -2.350961e-05 -1.566732e-25)
(0.009691577 -3.170761e-05 -2.151679e-24)
(0.009969533 -3.499574e-05 -5.862774e-25)
(0.009942119 7.559937e-05 -7.382143e-25)
(0.009842386 -3.994577e-05 -9.331112e-24)
(0.009964103 -2.141673e-05 0)
(0.01001878 -0.0002066862 2.408811e-25)
(0.009896934 -1.439161e-05 2.444615e-24)
(0.009927329 -5.034946e-05 1.852339e-24)
(0.009950802 3.944825e-06 3.020015e-25)
(0.009749505 0.0001134099 -1.643508e-25)
(0.009941739 -1.346134e-06 -5.798475e-25)
(0.009938971 -3.876218e-06 -6.659965e-25)
(0.01013691 -0.0001235621 8.236418e-25)
(0.009960186 4.605128e-05 -5.135836e-25)
(0.01000377 -2.519616e-05 0)
(0.009972379 -0.0001656484 0)
(0.009951178 6.025205e-05 -1.476088e-24)
(0.009960031 2.814921e-06 -1.102026e-24)
(0.01008342 -9.196873e-05 -1.738405e-24)
(0.009919398 8.31746e-05 -2.685098e-25)
(0.009954711 -2.882575e-06 -8.029178e-25)
(0.009970452 -3.836028e-05 -4.20543e-25)
(0.009957364 1.083211e-05 0)
(0.009943859 -6.559486e-06 -9.823024e-25)
(0.009937014 -8.353544e-06 8.331452e-25)
(0.01009528 -0.000115762 0)
(0.01008281 -0.000123057 -4.168883e-25)
(0.01006883 -6.912218e-05 -1.244879e-24)
(0.009976809 -0.0001022931 -3.428074e-25)
(0.009973087 -9.341777e-05 8.604756e-25)
(0.009937224 0.0001966938 -2.729057e-24)
(0.009910828 2.25546e-05 3.820573e-24)
(0.009950294 7.897221e-05 0)
(0.00990352 9.368863e-05 -3.072599e-25)
(0.009909723 8.408348e-05 -2.375583e-24)
(0.009976607 -3.853298e-05 -5.638407e-26)
(0.01009406 -0.0001258645 0)
(0.009984118 -4.150195e-05 -1.20381e-25)
(0.009858255 0.0001075457 -5.76077e-24)
(0.009839988 -0.0001022122 5.542627e-24)
(0.009974165 -2.249619e-05 -3.833861e-25)
(0.009975728 -2.731464e-05 2.52577e-26)
(0.009973105 -4.239925e-05 6.667371e-25)
(0.009724261 -9.862589e-05 0)
(0.00996549 -5.391263e-06 0)
(0.01002381 -4.706515e-05 0)
(0.01011021 -9.489905e-05 -2.420927e-24)
(0.009940657 6.884397e-05 7.215027e-25)
(0.009944333 -3.895815e-05 1.195364e-24)
(0.009949156 3.87315e-06 -2.855477e-25)
(0.009859284 0.0002493691 0)
(0.009898297 0.0002411249 1.832901e-25)
(0.009941593 0.000121602 -2.385504e-25)
(0.009944947 0.0001451141 -2.624736e-24)
(0.009966377 -4.741614e-05 1.463716e-25)
(0.009951667 5.458394e-05 0)
(0.00993782 -0.0001906561 2.943204e-24)
(0.009961036 -5.702931e-05 7.695644e-25)
(0.009949568 -6.559361e-05 1.724799e-24)
(0.009937504 -5.899009e-05 -5.453571e-26)
(0.009951387 -5.184231e-05 1.889904e-24)
(0.009845892 1.055164e-05 -4.287192e-24)
(0.009958339 -7.064666e-05 1.208877e-24)
(0.009934229 -6.679366e-05 0)
(0.009985246 -6.3333e-05 -2.142366e-25)
(0.009990135 -3.724476e-05 0)
(0.009893017 5.005029e-05 0)
(0.01014382 -0.000113578 8.466032e-25)
(0.01007149 -7.138223e-05 2.476506e-24)
(0.01013892 -7.752247e-05 0)
(0.009955333 -5.057715e-05 1.663691e-24)
(0.009953152 -4.996765e-05 0)
(0.01008343 -0.0001962069 -1.525577e-24)
(0.009955812 -5.307298e-05 -1.94198e-24)
(0.009988844 -0.0001120308 0)
(0.009909712 -5.017399e-05 2.479806e-24)
(0.009942793 -6.272162e-05 1.951267e-24)
(0.009940488 -5.565246e-05 -2.280066e-24)
(0.009804046 0.0001031929 2.575872e-24)
(0.01000818 -0.0001320223 0)
(0.009875695 -0.0002049036 -4.061594e-24)
(0.01001442 -8.201688e-05 1.583165e-24)
(0.009825159 -0.0001206293 -8.931338e-24)
(0.009819752 -9.016651e-05 2.483985e-24)
(0.009841405 -0.0001286459 0)
(0.009943404 -0.0002405818 -2.478338e-24)
(0.009957499 -7.550838e-05 1.25247e-24)
(0.009958789 1.177972e-05 0)
(0.009958282 1.459801e-05 0)
(0.009956715 -3.432153e-05 4.03308e-25)
(0.009707254 4.2498e-06 -3.856405e-24)
(0.00994882 1.20332e-05 8.420752e-25)
(0.009941155 -4.507915e-05 7.876196e-25)
(0.00982737 8.156206e-05 2.433144e-24)
(0.009948782 7.638964e-05 0)
(0.00988691 0.0001584654 -2.178633e-25)
(0.009905014 -5.090141e-05 2.250831e-24)
(0.00996006 -6.28783e-06 0)
(0.009727546 -0.0002004619 -1.804361e-24)
(0.009800368 -0.0001555501 -6.277998e-24)
(0.009780211 -0.0001858587 0)
(0.00989734 0.0001158262 -6.164265e-26)
(0.00986569 0.0001063931 3.244097e-24)
(0.01009947 -0.0001277791 3.198643e-24)
(0.009763102 8.645366e-05 -4.574169e-24)
(0.01002002 -0.0001023723 0)
(0.009855748 -8.467403e-05 -3.970761e-24)
(0.009881411 0.0001455924 -3.041586e-24)
(0.009953955 -2.260692e-05 8.543274e-25)
(0.009852446 5.25287e-05 0)
(0.01001505 -0.0002315348 1.04734e-24)
(0.01005176 -0.0001936323 4.534779e-25)
(0.009900496 -0.0001176622 -8.676082e-25)
(0.009800131 -4.537807e-05 -3.512077e-24)
(0.01001791 -0.0001629879 1.888488e-26)
(0.009935907 -2.303684e-05 -6.722681e-26)
(0.009968191 -2.283726e-05 7.16694e-25)
(0.01004017 -5.748051e-05 -3.188892e-27)
(0.009972189 -2.557958e-05 -5.682149e-25)