/*--------------------------------*- C++ -*----------------------------------*\
| =========                 |                                                 |
| \\      /  F ield         | OpenFOAM: The Open Source CFD Toolbox           |
|  \\    /   O peration     | Version:  2406                                  |
|   \\  /    A nd           | Website:  www.openfoam.com                      |
|    \\/     M anipulation  |                                                 |
\*---------------------------------------------------------------------------*/
FoamFile
{
    version     2.0;
    format      ascii;
    arch        "LSB;label=32;scalar=64";
    class       surfaceScalarField;
    location    "1.36";
    object      phi;
}
// * * * * * * * * * * * * * * * * * * * * * * * * * * * * * * * * * * * * * //

dimensions      [0 3 -1 0 0 0 0];

oriented        oriented;

internalField   nonuniform List<scalar> 
23794
(
0.006071233
-0.00604374
-2.749246e-05
0.005780152
0.0002910808
0.005114116
0.0006660364
0.003745081
0.001369035
0.001294639
0.002450441
-0.0007075462
0.002002186
-0.002293974
0.001586427
-0.004126124
0.001832151
-0.003728401
-0.0003977237
-0.001381181
-0.00234722
0.0009370911
-0.002318272
0.002904021
-0.00196693
0.004605045
-0.001701024
0.005812663
-0.001207618
0.006321171
-0.0005085078
0.00605383
0.0002673413
0.004502574
0.001551256
0.0009040351
0.003598539
-0.003339246
0.004243281
-0.005131096
0.00179185
-0.0027353
-0.002395796
0.0005262476
-0.003261547
0.002878904
-0.002352657
0.004328265
-0.00144936
0.004905493
-0.0005772279
0.004899918
5.574083e-06
0.005342785
-0.0004428662
0.007256882
-0.001914097
0.01029103
-0.003034149
0.01109412
-0.0008030941
0.005671661
0.005422464
-0.001330408
0.007002069
-0.002059048
0.0007286392
0.0004711832
-0.002530231
0.002028741
-0.001557558
0.0006539509
0.00137479
-0.003903457
0.004557408
-0.008763565
0.004860108
-0.01186162
0.003098057
-0.0134517
0.001590077
-0.01430154
0.0008498378
-0.01483041
0.000528874
-0.0151869
0.0003564851
-0.01542267
0.0002357739
-0.01557232
0.0001496485
-0.01556074
-1.157449e-05
-0.01549447
-6.627059e-05
-0.01540259
-9.188638e-05
-0.01527061
-0.0001319752
-0.01512907
-0.0001415407
-0.01493337
-0.000195702
-0.01470218
-0.0002311906
-0.01441569
-0.000286489
-0.01410925
-0.0003064341
-0.01378856
-0.0003206993
-0.01341651
-0.0003720416
-0.01302795
-0.000388567
-0.01263342
-0.000394528
-0.01217644
-0.000456975
-0.01169882
-0.0004776206
-0.01119815
-0.0005006761
-0.01069244
-0.0005057083
-0.01016677
-0.0005256651
-0.009593308
-0.0005734661
-0.009028984
-0.0005643235
-0.00842461
-0.0006043742
-0.007803413
-0.0006211972
-0.007177704
-0.0006257091
-0.006544974
-0.0006327302
-0.005881969
-0.0006630045
-0.005218236
-0.0006637327
-0.004547141
-0.0006710955
-0.003862871
-0.0006842703
-0.00318073
-0.0006821407
-0.002516856
-0.0006638739
-0.001816184
-0.0007006721
-0.001142335
-0.0006738485
-0.0005049555
-0.0006373799
0.0001463211
-0.0006512766
0.0009140835
-0.0007677624
0.00165664
-0.0007425565
0.002376536
-0.0007198958
0.003080441
-0.0007039051
0.003765718
-0.0006852767
0.004448049
-0.0006823315
0.00510806
-0.0006600115
0.005778473
-0.0006704125
0.006428016
-0.0006495435
0.00704143
-0.0006134136
0.007658068
-0.0006166378
0.00826139
-0.0006033218
0.008840862
-0.0005794725
0.009415461
-0.0005745989
0.009975133
-0.0005596718
0.01048078
-0.0005056446
0.01098065
-0.0004998697
0.01146409
-0.0004834471
0.01190634
-0.0004422489
0.01234725
-0.0004409041
0.0127351
-0.0003878526
0.01309467
-0.0003595694
0.01341401
-0.0003193389
0.01368913
-0.0002751237
0.01395697
-0.0002678348
0.01418546
-0.0002284966
0.01437237
-0.000186904
0.01451384
-0.0001414683
0.0146096
-9.576822e-05
0.01466914
-5.953455e-05
0.01465212
1.702116e-05
0.01457935
7.2768e-05
0.01439133
0.0001880191
0.01400338
0.0003879495
0.01339627
0.0006071157
0.01245909
0.00093718
0.01081075
0.001648331
0.007617175
0.003193579
0.00263776
0.004979415
-0.001782696
0.004420456
-0.00471805
0.002935353
-0.006682693
0.001964643
-0.005599153
-0.001083539
-0.001697969
-0.003901184
0.003299395
-0.004997363
0.004419465
-0.001120071
-0.004066028
0.008485493
-0.01165318
0.007587153
-0.01163258
-2.059866e-05
-0.008191337
-0.003441245
-0.005072388
-0.003118949
-0.002983021
-0.002089367
-0.0005852179
-0.002397803
0.002472856
-0.003058074
0.003584077
-0.001111221
0.002382059
0.001202018
0.001986517
0.0003955424
0.002025896
-3.937956e-05
0.0009800168
0.001045879
-0.0008594348
0.001839452
-0.00222693
0.001367496
-0.002121124
-0.0001058069
-0.0006671467
-0.001453977
0.001242229
-0.001909376
0.002559516
-0.001317287
0.004035767
-0.00147625
0.005336007
-0.00130024
0.005854044
-0.0005180377
0.004143202
0.001710842
0.00101838
0.003124822
-0.0004277399
0.00144612
0.0004825535
-0.0009102933
0.001874575
-0.001392022
0.003270529
-0.001395954
0.004370052
-0.001099522
0.005165434
-0.0007953826
0.005732325
-0.0005668909
-0.0003114152
0.007898678
-0.007661066
-0.0002651053
0.007941178
0.0002485808
0.007780203
0.0008270113
0.00721407
0.001935168
0.004856575
0.004807937
3.282376e-05
0.006825937
-0.004153533
0.005772784
-0.005370474
0.003049093
-0.004073731
-0.001694467
-0.001589824
-0.004831126
0.0008917542
-0.004799851
0.00314411
-0.004219286
0.005143549
-0.003700462
0.006697733
-0.002761802
0.007519012
-0.001329787
0.007621558
0.0001647947
0.006816469
0.002356345
0.003503701
0.006911307
-0.00334278
0.01108976
-0.007332427
0.005781496
-0.004200429
-0.005527794
-0.0003650751
-0.007096901
0.001877838
-0.00459557
0.003314188
-0.00288571
0.003809548
-0.001072588
0.00364196
0.0001731617
0.00382847
-0.0006293762
0.005446515
-0.003532143
0.008440875
-0.006028508
0.01095167
-0.003313886
0.008356688
0.008017443
0.001149498
0.01420926
-0.002776252
0.004654389
-0.0045977
-0.0007087834
-0.008017728
0.001862471
-0.01230475
0.005661811
-0.0174956
0.00974826
-0.02115428
0.008518784
-0.02232712
0.004270905
-0.02255977
0.001822723
-0.02257826
0.0008683227
-0.02252093
0.0004715495
-0.02242762
0.0002631736
-0.02230947
0.0001176246
-0.02217934
1.951484e-05
-0.02194748
-0.0002434324
-0.02169638
-0.0003173699
-0.02142544
-0.0003628241
-0.02111523
-0.00044219
-0.02079542
-0.0004613479
-0.0204191
-0.0005720185
-0.02000768
-0.0006426124
-0.01953597
-0.0007581984
-0.01904323
-0.000799171
-0.0185421
-0.0008218296
-0.01798539
-0.0009287537
-0.01740801
-0.0009659528
-0.0168289
-0.000973634
-0.01617793
-0.001107948
-0.01550762
-0.001147933
-0.01481057
-0.001197721
-0.01410706
-0.001209215
-0.01338626
-0.00124647
-0.0126084
-0.001351328
-0.01184264
-0.001330085
-0.01103536
-0.001411654
-0.0102063
-0.001450251
-0.009375223
-0.001456789
-0.008540192
-0.001467762
-0.007668145
-0.001535051
-0.006794226
-0.001537652
-0.005914308
-0.001551013
-0.005020009
-0.001578569
-0.004130452
-0.001571697
-0.003260682
-0.001533644
-0.002353505
-0.001607849
-0.001476985
-0.001550368
-0.0006409389
-0.001473426
0.0002125814
-0.001504797
0.001202468
-0.001757649
0.002165491
-0.00170558
0.003103238
-0.001657642
0.004020002
-0.001620669
0.004916878
-0.001582152
0.005811776
-0.00157723
0.006681052
-0.001529288
0.007562336
-0.001551696
0.008420538
-0.001507746
0.00923505
-0.001427926
0.01005549
-0.001437081
0.0108647
-0.001412533
0.01164431
-0.001359083
0.01241899
-0.001349279
0.0131812
-0.001321881
0.0138797
-0.001204145
0.01457584
-0.001196006
0.01525377
-0.001161375
0.01588575
-0.001074228
0.01651845
-0.001073604
0.01708915
-0.0009585581
0.01763553
-0.0009059464
0.01813714
-0.0008209467
0.01859043
-0.0007284161
0.01904271
-0.0007201139
0.01945353
-0.0006393169
0.01981935
-0.0005527238
0.02013937
-0.0004614839
0.02041256
-0.000368964
0.02065359
-0.0003005622
0.02083546
-0.0001648497
0.0210232
-0.000114973
0.02118361
2.760915e-05
0.0212448
0.0003267616
0.02123121
0.0006207087
0.02111982
0.001048565
0.02075176
0.002016391
0.01928265
0.004662688
0.01478324
0.009478823
0.006411674
0.01279203
-0.001588513
0.01093554
-0.002825044
0.003201174
8.813561e-05
-0.003996719
0.00136609
-0.005179139
0.003988888
-0.007620161
0.001209423
0.001659395
-0.009075841
0.01877076
-0.01411196
0.01262327
-0.01216529
-0.00196727
-0.008514687
-0.007091844
-0.00508773
-0.006545907
-0.002838759
-0.004338338
-0.0005229358
-0.004713626
0.003047324
-0.006628333
0.005133987
-0.003197885
0.003683451
0.002652554
0.002653827
0.001425166
0.002597624
1.682337e-05
0.001272734
0.002370769
-0.001714266
0.004826452
-0.003557489
0.003210719
-0.002870749
-0.0007925466
-0.0008074932
-0.003517233
0.001679097
-0.004395966
0.003328808
-0.002966998
0.005169112
-0.003316554
0.00660429
-0.002735417
0.007939206
-0.001852954
0.007927673
0.001722375
0.004619588
0.006432908
0.001339222
0.004726485
0.001357815
-0.0009288861
0.002802199
-0.002836406
0.004265619
-0.002859374
0.005487665
-0.002321569
0.006439517
-0.001747234
0.007181969
-0.001309343
-0.0007905122
0.00915149
-0.008949119
-0.0004674761
0.009062018
0.0003380532
0.008730472
0.001158557
0.008425931
0.002239709
0.007296671
0.005937196
0.001999121
0.01212349
-0.004085728
0.01185763
-0.005219797
0.004183162
-0.003195877
-0.003718387
-0.0009130639
-0.007113939
0.001211801
-0.006924716
0.003601462
-0.006608947
0.006037558
-0.006136559
0.008044779
-0.004769023
0.00913681
-0.002421818
0.009182829
0.0001187755
0.008066106
0.003473067
0.005435871
0.009541543
-0.00173161
0.01825724
-0.007812448
0.01186233
-0.005716904
-0.007623337
-0.002531734
-0.01028207
-0.0009972847
-0.006130019
-0.000255479
-0.003627516
-0.0002434879
-0.001084579
-0.001119454
0.001049128
-0.001677545
-7.128506e-05
0.0001723229
-0.00538201
0.0039317
-0.009787885
0.006768071
-0.006150257
0.005734459
0.009051054
0.0001417128
0.01980201
-0.00998269
0.01477879
-0.01793324
0.007241767
-0.02224847
0.006177704
-0.02504973
0.008463072
-0.02669911
0.01139763
-0.02677704
0.008596716
-0.02643092
0.00392479
-0.02640978
0.001801576
-0.02644852
0.0009070615
-0.02646132
0.0004843506
-0.02643813
0.0002399874
-0.02637633
5.58206e-05
-0.02628826
-6.85546e-05
-0.02604071
-0.0004909824
-0.02575224
-0.0006058351
-0.02544319
-0.0006718757
-0.02508513
-0.0008002492
-0.02471848
-0.000828001
-0.02428121
-0.001009289
-0.02380297
-0.00112085
-0.02325139
-0.001309777
-0.02267361
-0.001376952
-0.02208705
-0.001408392
-0.02143111
-0.00158469
-0.0207504
-0.001646668
-0.02006902
-0.001655015
-0.01929866
-0.001878307
-0.0185053
-0.001941293
-0.01767954
-0.002023483
-0.01684571
-0.002043044
-0.01599111
-0.002101063
-0.01506594
-0.002276504
-0.01415666
-0.002239365
-0.01319492
-0.002373385
-0.01220731
-0.002437865
-0.01121647
-0.002447628
-0.01022038
-0.00246385
-0.00917914
-0.002576294
-0.008135085
-0.002581707
-0.007082571
-0.002603527
-0.006012703
-0.002648437
-0.004946656
-0.002637744
-0.003902278
-0.002578022
-0.002813784
-0.002696344
-0.001759951
-0.002604201
-0.0007530015
-0.002480375
0.0002741584
-0.002531957
0.001455607
-0.002939098
0.002607589
-0.002857562
0.003730151
-0.002780204
0.004826292
-0.002716811
0.005898225
-0.002654085
0.006966985
-0.00264599
0.008004105
-0.002566408
0.009055268
-0.00260286
0.01007772
-0.002530193
0.01104762
-0.002397828
0.01202452
-0.002413982
0.01298688
-0.002374896
0.01391342
-0.00228562
0.01483422
-0.002270081
0.0157391
-0.002226764
0.0165668
-0.002031839
0.01739224
-0.002021444
0.01819501
-0.001964153
0.01894141
-0.001820624
0.01969046
-0.001822656
0.0203628
-0.001630896
0.021007
-0.001550145
0.02159644
-0.001410389
0.02212611
-0.001258087
0.02265593
-0.001249933
0.02313436
-0.001117751
0.02355973
-0.0009780929
0.02392929
-0.0008310437
0.02424275
-0.0006824222
0.02451714
-0.0005749566
0.02471212
-0.0003598243
0.02489085
-0.0002937079
0.02500735
-8.888883e-05
0.02499276
0.0003413488
0.02490178
0.0007116905
0.02478264
0.00116771
0.02470262
0.002096409
0.02483168
0.004533624
0.02405042
0.01026008
0.01933218
0.01751027
0.01282604
0.01744168
0.009660313
0.006366902
0.009630515
-0.003966921
0.008531758
-0.004080381
0.005579029
-0.004667433
-0.001334826
0.00857325
-0.01038767
0.0278236
-0.01406695
0.01630255
-0.01215243
-0.003881783
-0.007741979
-0.0115023
-0.003964016
-0.01032387
-0.001694658
-0.006607696
0.0001046015
-0.006512886
0.003311183
-0.009834915
0.005243771
-0.005130473
0.003654155
0.00424217
0.002970746
0.002108575
0.003012222
-2.465214e-05
0.001374867
0.004008125
-0.00216989
0.008371208
-0.004382046
0.005422875
-0.003548587
-0.001626005
-0.001075782
-0.005990039
0.001904758
-0.007376506
0.00396255
-0.005024791
0.006156853
-0.005510857
0.007924239
-0.004502803
0.009317506
-0.00324622
0.0101953
0.0008445841
0.008605384
0.00802282
0.00530091
0.008030959
0.004011177
0.000360846
0.004691879
-0.003517107
0.005712933
-0.003880428
0.006739441
-0.003348077
0.007650907
-0.002658699
0.008430823
-0.002089259
-0.001308808
0.01082203
-0.01063225
-0.000657252
0.01064475
0.0005153305
0.01011034
0.001692972
0.009358042
0.002992004
0.00888432
0.006410918
0.005061177
0.01594663
-0.001675944
0.01859475
-0.002946471
0.005453688
-8.993276e-05
-0.006574925
0.001209684
-0.008413557
0.002270947
-0.007985978
0.004409384
-0.008747385
0.00730692
-0.009034094
0.009824258
-0.007286361
0.01114783
-0.00374539
0.01109565
0.0001709524
0.00944632
0.005122402
0.006851303
0.01213656
0.0001164993
0.02499205
-0.007323295
0.01930213
-0.007706134
-0.007240499
-0.006438637
-0.01154957
-0.006302943
-0.006265713
-0.006741663
-0.003188796
-0.007843056
1.681381e-05
-0.009090565
0.002296636
-0.009119612
-4.223834e-05
-0.006798245
-0.007703377
-0.002684024
-0.01390211
-0.0003651384
-0.008469143
0.0005487016
0.008137214
-0.007341646
0.02769235
-0.02085341
0.02829055
-0.02970913
0.01609749
-0.03213971
0.008608285
-0.03278754
0.009110896
-0.03228122
0.01089131
-0.03163059
0.007946091
-0.03169106
0.003985259
-0.03194404
0.002054556
-0.03206646
0.001029479
-0.03209381
0.0005117004
-0.03205924
0.0002054129
-0.03195686
-4.655188e-05
-0.03182317
-0.0002022457
-0.03149671
-0.0008174486
-0.03112837
-0.0009741695
-0.03073284
-0.001067405
-0.03028144
-0.001251655
-0.02982234
-0.001287095
-0.02927988
-0.001551756
-0.02869009
-0.001710631
-0.02801314
-0.001986729
-0.02730573
-0.002084368
-0.02658923
-0.002124889
-0.02579135
-0.002382569
-0.024964
-0.002474015
-0.02413664
-0.002482375
-0.02320611
-0.002808836
-0.02224617
-0.00290124
-0.0212486
-0.003021049
-0.02024289
-0.003048752
-0.0192137
-0.003130259
-0.01809865
-0.003391548
-0.01700563
-0.003332386
-0.01584875
-0.003530272
-0.0146627
-0.003623915
-0.01347199
-0.003638332
-0.01227607
-0.003659772
-0.01102638
-0.003825987
-0.009773411
-0.003834673
-0.008509812
-0.003867125
-0.007226486
-0.003931764
-0.005944366
-0.003919864
-0.004687531
-0.003834857
-0.003374706
-0.004009168
-0.002099763
-0.003879145
-0.0008784163
-0.003701721
0.0003613866
-0.00377176
0.001773065
-0.004350776
0.003152294
-0.004236791
0.004499183
-0.004127093
0.005811845
-0.004029473
0.00709394
-0.00393618
0.00837181
-0.003923859
0.009611937
-0.003806534
0.01087179
-0.003862713
0.0120953
-0.003753706
0.01325903
-0.003561558
0.01443284
-0.003587785
0.01558756
-0.003529623
0.01670269
-0.003400745
0.01781283
-0.003380227
0.01890126
-0.003315186
0.01990072
-0.003031299
0.02089837
-0.003019098
0.02186783
-0.002933612
0.02277199
-0.002724786
0.02367998
-0.002730645
0.02449696
-0.002447871
0.02528034
-0.002333526
0.0259992
-0.002129252
0.02664991
-0.0019088
0.02730083
-0.001900849
0.02789033
-0.00170725
0.02841913
-0.001506893
0.02888037
-0.001292287
0.02927948
-0.001081528
0.02963227
-0.0009277509
0.02989187
-0.0006194268
0.03013638
-0.0005382109
0.03030216
-0.0002546704
0.03029231
0.0003511962
0.03015441
0.0008495903
0.02991436
0.001407762
0.02954992
0.002460847
0.02930669
0.004776857
0.029847
0.009719766
0.02968172
0.01767555
0.02768669
0.01943671
0.02536303
0.008690561
0.02335739
-0.001961279
0.01961663
-0.000339622
0.01057172
0.00437748
-0.001460984
0.02060595
-0.009438824
0.03580144
-0.01284495
0.01970868
-0.01126747
-0.005459271
-0.006271311
-0.01649845
-0.002057604
-0.01453758
0.0003331215
-0.008998421
0.001379149
-0.007558913
0.003492184
-0.01194795
0.004374886
-0.006013175
0.002840435
0.005776622
0.003101495
0.001847515
0.003270454
-0.0001936112
0.001334458
0.005944121
-0.002530852
0.01223652
-0.00508595
0.007977973
-0.004189483
-0.002522472
-0.001350712
-0.008828809
0.00202929
-0.01075651
0.004521212
-0.007516713
0.007067645
-0.00805729
0.009200545
-0.006635703
0.01076556
-0.004811235
0.01200707
-0.0003969219
0.01206246
0.007967423
0.01004054
0.01005288
0.008185736
0.002215653
0.007667177
-0.002998548
0.007806126
-0.004019377
0.008418916
-0.003960868
0.009238447
-0.00347823
0.01007166
-0.002922477
-0.001869398
0.01298491
-0.01279721
-0.0008449508
0.01268687
0.0008133658
0.01199916
0.002380685
0.01083618
0.004154982
0.01029056
0.006956536
0.008771867
0.01746533
0.004558998
0.02280762
0.002974312
0.007038375
0.004498927
-0.008099541
0.004803687
-0.008718317
0.004383073
-0.007565365
0.005683148
-0.01004746
0.008905149
-0.0122561
0.01197649
-0.01035771
0.01353422
-0.005303116
0.01329989
0.0004052822
0.01106067
0.007361622
0.007882444
0.01531478
0.001826215
0.03104828
-0.006534524
0.02766287
-0.01046428
-0.003310747
-0.01233164
-0.009682206
-0.01434232
-0.004255033
-0.01622327
-0.001307846
-0.0180392
0.00183275
-0.01925993
0.003517362
-0.0191798
-0.000122373
-0.01711661
-0.009766567
-0.01293082
-0.01808789
-0.008616231
-0.01278373
-0.01034792
0.0098689
-0.02024637
0.03759081
-0.03257621
0.04062039
-0.03755942
0.02108069
-0.03805815
0.009107015
-0.03826961
0.009322355
-0.03774517
0.01036688
-0.03745444
0.007655363
-0.0377008
0.004231621
-0.03796545
0.002319199
-0.03811272
0.001176748
-0.03818002
0.000579
-0.03817405
0.000199449
-0.03807165
-0.0001489558
-0.0379529
-0.0003209907
-0.03757658
-0.001193767
-0.0371613
-0.001389456
-0.03671087
-0.00151783
-0.03618011
-0.001782422
-0.03565669
-0.001810515
-0.0350171
-0.002191341
-0.03432708
-0.002400647
-0.03352457
-0.002789247
-0.03268627
-0.002922666
-0.03184058
-0.002970581
-0.03088926
-0.003333883
-0.02990329
-0.003459993
-0.02892087
-0.003464792
-0.02781095
-0.003918749
-0.02666238
-0.004049816
-0.02546967
-0.00421376
-0.02426957
-0.004248855
-0.02304083
-0.00435899
-0.02170274
-0.004729639
-0.02039834
-0.004636786
-0.01901128
-0.004917337
-0.01759269
-0.005042498
-0.01616636
-0.005064665
-0.0147363
-0.005089838
-0.01323843
-0.005323852
-0.01173722
-0.00533588
-0.01022123
-0.005383115
-0.008684635
-0.005468362
-0.007145496
-0.005459004
-0.005636225
-0.005344128
-0.00405169
-0.005593703
-0.002506207
-0.005424628
-0.001020591
-0.005187337
0.0004756604
-0.005268011
0.00216028
-0.006035396
0.003809424
-0.005885936
0.005421773
-0.005739442
0.0069866
-0.005594299
0.008514252
-0.005463832
0.01004043
-0.005450038
0.01152266
-0.005288767
0.01303459
-0.005374641
0.01449694
-0.005216056
0.01589388
-0.004958494
0.01730552
-0.004999432
0.01868565
-0.004909752
0.02002321
-0.004738303
0.02135961
-0.004716623
0.02266053
-0.004616109
0.023857
-0.004227774
0.02505347
-0.004215565
0.02621222
-0.004092359
0.02728962
-0.003802184
0.02837721
-0.00381824
0.02934976
-0.003420422
0.03028188
-0.00326564
0.03113524
-0.002982612
0.03190343
-0.002676989
0.03267502
-0.002672448
0.03336548
-0.002397708
0.03398809
-0.002129498
0.03452282
-0.001827021
0.03498194
-0.001540642
0.03539049
-0.001336308
0.03567041
-0.0008993469
0.03593943
-0.0008072288
0.03610809
-0.0004233267
0.03606321
0.0003960778
0.03588039
0.001032405
0.03558994
0.001698215
0.03519395
0.002856837
0.03469971
0.005271092
0.03490824
0.009511239
0.03631274
0.01627105
0.03725499
0.01849447
0.03597435
0.009971193
0.03325598
0.0007570979
0.02910871
0.003807647
0.01745203
0.01603415
0.001679988
0.03637799
-0.006409213
0.04389064
-0.009915366
0.02321483
-0.008269779
-0.007104858
-0.003265247
-0.02150299
0.001137809
-0.01894063
0.003403702
-0.01126431
0.003539424
-0.007694635
0.003695385
-0.01210391
0.003051325
-0.005369115
0.001936667
0.006891279
0.003124447
0.0006597354
0.003222263
-0.0002914279
0.0009425043
0.00822388
-0.003121119
0.01630014
-0.005816695
0.01067355
-0.004711143
-0.003628023
-0.001612596
-0.01192736
0.002002849
-0.01437195
0.004850017
-0.01036388
0.00770266
-0.01090993
0.01024697
-0.009180018
0.01226325
-0.006827515
0.01371454
-0.00184821
0.01474901
0.006932954
0.01394184
0.01086005
0.01214122
0.004016281
0.01083116
-0.001688495
0.01022981
-0.003418027
0.01047499
-0.00420604
0.01124483
-0.004248071
0.01217037
-0.003848016
-0.002496239
0.01559988
-0.01545135
-0.0009934742
0.01519932
0.00121392
0.01432746
0.003252551
0.01301102
0.005471419
0.01187899
0.008088568
0.01197053
0.01737378
0.01145407
0.02332408
0.01036013
0.008132315
0.009957691
-0.007697101
0.008986442
-0.007747068
0.007128385
-0.005707308
0.007417243
-0.01033632
0.01082821
-0.01566706
0.01441091
-0.0139404
0.01619283
-0.007085036
0.01577883
0.0008192759
0.01285805
0.01028241
0.008632109
0.01954072
0.002923623
0.03675676
-0.006266318
0.03685281
-0.01439411
0.004817043
-0.02011302
-0.003963292
-0.02452783
0.0001597815
-0.02772517
0.001889485
-0.03009035
0.004197935
-0.03143823
0.004865243
-0.03173662
0.0001760135
-0.03087989
-0.01062329
-0.02860257
-0.02036522
-0.02602094
-0.01536536
-0.02938168
0.01322963
-0.03748853
0.04569766
-0.04333454
0.0464664
-0.04398663
0.02173279
-0.04454395
0.00966433
-0.04535449
0.0101329
-0.04528563
0.01029802
-0.04529448
0.007664211
-0.04559191
0.004529056
-0.0458801
0.00260739
-0.04602294
0.001319589
-0.04604516
0.0006012164
-0.04601609
0.00017038
-0.04584348
-0.0003215692
-0.04567542
-0.0004890455
-0.04521147
-0.001657718
-0.04470078
-0.001900149
-0.04414141
-0.002077199
-0.0434767
-0.00244713
-0.04284987
-0.002437345
-0.04206558
-0.002975634
-0.04123306
-0.003233166
-0.04025983
-0.003762477
-0.03924372
-0.003938779
-0.03822721
-0.003987089
-0.03707649
-0.004484601
-0.03588823
-0.004648258
-0.03471141
-0.004641611
-0.03337647
-0.005253688
-0.0319904
-0.005435888
-0.03055798
-0.005646171
-0.02911682
-0.005690021
-0.0276449
-0.005830911
-0.02603113
-0.006343407
-0.02447351
-0.006194409
-0.02280498
-0.006585866
-0.02110383
-0.006743647
-0.0193938
-0.006774697
-0.01768353
-0.006800102
-0.01588971
-0.007117678
-0.0140958
-0.007129788
-0.01227657
-0.007202346
-0.0104385
-0.007306434
-0.008587647
-0.007309852
-0.006782096
-0.007149679
-0.004873865
-0.007501934
-0.002995596
-0.007302898
-0.001184767
-0.006998166
0.0006231401
-0.007075919
0.002632188
-0.008044444
0.004604326
-0.007858074
0.006520482
-0.007655597
0.008379029
-0.007452846
0.01020185
-0.007286657
0.0120299
-0.007278082
0.01380719
-0.007066063
0.01563025
-0.007197701
0.01737985
-0.006965651
0.0190616
-0.006640242
0.02076689
-0.00670472
0.02241757
-0.006560437
0.0240227
-0.006343435
0.02564199
-0.006335908
0.02720017
-0.006174291
0.02863367
-0.005661275
0.03007453
-0.005656425
0.03146719
-0.005485013
0.0327576
-0.005092597
0.0340689
-0.005129537
0.03523931
-0.004590831
0.036362
-0.004388335
0.03738804
-0.004008653
0.03831684
-0.003605784
0.03925534
-0.003610947
0.04008657
-0.003228941
0.0408503
-0.002893226
0.04149925
-0.002475971
0.04206614
-0.002107532
0.04257167
-0.001841841
0.04293007
-0.001257746
0.04326954
-0.001146697
0.0435058
-0.0006595906
0.04350575
0.0003961288
0.04331373
0.001224429
0.04299636
0.002015586
0.04255533
0.00329786
0.04199659
0.005829833
0.04175198
0.009755853
0.0426584
0.01536463
0.04378244
0.01737043
0.04267473
0.0110789
0.03965155
0.00378028
0.03648539
0.006973807
0.02628172
0.02623783
0.01033843
0.05232129
-0.0005365526
0.05476562
-0.003490361
0.02616864
-0.00121743
-0.009377789
0.002517157
-0.02523757
0.006344787
-0.02276826
0.007863538
-0.01278307
0.006839429
-0.006670526
0.004428086
-0.009692568
0.002205909
-0.003146938
0.001510184
0.007587004
0.002822877
-0.0006529576
0.002681604
-0.0001501549
1.755055e-05
0.01088793
-0.004272435
0.02059013
-0.006775181
0.0131763
-0.00518382
-0.005219384
-0.002005246
-0.01510593
0.001686716
-0.01806392
0.00469406
-0.01337122
0.007885241
-0.01410111
0.01105969
-0.01235447
0.01379517
-0.009562989
0.01551513
-0.003568171
0.01692344
0.005524647
0.01679877
0.01098472
0.01533233
0.00548272
0.01369321
-4.937685e-05
0.0127246
-0.002449422
0.01286589
-0.004347327
0.0137146
-0.00509678
0.01477809
-0.004911505
-0.003169504
0.01878945
-0.01866484
-0.001118085
0.01824608
0.001757289
0.01714421
0.004354422
0.01571558
0.006900047
0.01396518
0.009838965
0.01430232
0.01703665
0.01577534
0.02185106
0.01509063
0.008817032
0.01349502
-0.006101494
0.01185133
-0.006103379
0.009283505
-0.003139481
0.009204228
-0.01025704
0.01308543
-0.01954827
0.01701841
-0.01787337
0.01898253
-0.009049165
0.01854925
0.00125256
0.01490913
0.01392253
0.009196931
0.02525292
0.00280951
0.04314418
-0.007575116
0.04723744
-0.01975016
0.01699209
-0.02907521
0.00536176
-0.035369
0.006453572
-0.03957002
0.006090499
-0.04251837
0.007146284
-0.04421945
0.006566328
-0.04545096
0.001407524
-0.04668797
-0.009386287
-0.04798995
-0.01906323
-0.04949968
-0.01385562
-0.05286468
0.01659463
-0.05487644
0.04770942
-0.05308102
0.04467098
-0.05188963
0.0205414
-0.05333881
0.01111352
-0.05425298
0.01104706
-0.05427984
0.01032488
-0.05428858
0.007672954
-0.05453897
0.00477944
-0.05485443
0.002922853
-0.05501497
0.001480132
-0.05507057
0.0006568147
-0.05510301
0.0002028157
-0.05485618
-0.0005683967
-0.05474182
-0.0006034104
-0.05413071
-0.002268818
-0.05354558
-0.002485287
-0.05289282
-0.002729952
-0.05207875
-0.003261201
-0.05136441
-0.003151689
-0.05041068
-0.003929359
-0.04943224
-0.004211609
-0.04826605
-0.00492867
-0.04704117
-0.005163661
-0.04583596
-0.005192298
-0.04446154
-0.005859016
-0.04303634
-0.006073463
-0.04162391
-0.006054034
-0.04003397
-0.006843631
-0.03837425
-0.007095607
-0.03665934
-0.007361086
-0.03491268
-0.007436675
-0.03317524
-0.007568353
-0.03121987
-0.008298784
-0.02936622
-0.008048051
-0.02735148
-0.008600605
-0.02531452
-0.008780614
-0.02326965
-0.00881956
-0.0211909
-0.008878855
-0.01905971
-0.00924887
-0.01692223
-0.009267266
-0.01474295
-0.009381628
-0.0125626
-0.009486788
-0.01030379
-0.009568657
-0.008170442
-0.00928303
-0.005875224
-0.009797152
-0.003587515
-0.009590606
-0.001379068
-0.009206613
0.0008128134
-0.0092678
0.00320603
-0.01043766
0.005560225
-0.01021227
0.007808172
-0.009903544
0.01002814
-0.00967281
0.0122251
-0.009483625
0.01441585
-0.009468825
0.01654821
-0.009198428
0.0187625
-0.00941199
0.02085998
-0.009063135
0.02287318
-0.00865344
0.02492149
-0.008753028
0.02691513
-0.008554079
0.02884437
-0.008272669
0.03077767
-0.008269212
0.03264908
-0.008045698
0.03436153
-0.007373733
0.03608679
-0.007381684
0.03773624
-0.007134464
0.03929641
-0.006652759
0.04087021
-0.006703339
0.04226271
-0.005983335
0.04361981
-0.005745437
0.04483183
-0.005220673
0.04594345
-0.004717404
0.04707284
-0.004740331
0.04804818
-0.004204281
0.04897207
-0.003817119
0.04972656
-0.003230459
0.05040452
-0.002785492
0.05101514
-0.002452468
0.05141731
-0.001659916
0.05183264
-0.001562025
0.05209913
-0.0009260801
0.0520462
0.0004490608
0.05181519
0.001455443
0.05144356
0.00238721
0.05097745
0.003763975
0.05044926
0.006358019
0.05022437
0.009980741
0.05074224
0.01484676
0.0512533
0.01685938
0.049815
0.01251719
0.046275
0.007320284
0.04355813
0.009690674
0.03693536
0.0328606
0.02393362
0.06532302
0.01304232
0.06565691
0.006936511
0.03227445
0.008535398
-0.01097668
0.01209317
-0.02879535
0.01429431
-0.0249694
0.01429376
-0.01278251
0.01173578
-0.004112545
0.006804085
-0.004760874
0.002704359
0.0009527879
0.00141151
0.008879854
0.001830892
-0.00107234
0.001345358
0.0003353792
-0.001880748
0.01411404
-0.006163035
0.02487241
-0.008187409
0.01520067
-0.005878934
-0.007527859
-0.002814396
-0.01817047
0.0008010725
-0.02167938
0.003762623
-0.01633278
0.007515087
-0.01785358
0.01157357
-0.01641296
0.015097
-0.01308642
0.01728556
-0.005756728
0.01889104
0.003919163
0.0188879
0.01098786
0.01777894
0.006591681
0.01610183
0.001627732
0.01522588
-0.001573474
0.01561705
-0.004738499
0.01671046
-0.006190191
0.01796747
-0.006168506
-0.003866874
0.02273643
-0.02261927
-0.001235247
0.02204683
0.002446889
0.02063442
0.005766828
0.01893144
0.008603031
0.01684022
0.01193018
0.01648009
0.01739678
0.01751354
0.02081761
0.01634739
0.009983178
0.01424461
-0.003998704
0.01270519
-0.004563967
0.009841499
-0.0002757871
0.01041211
-0.01082766
0.01558359
-0.02471974
0.0196577
-0.02194748
0.02187417
-0.01126564
0.02160561
0.001521125
0.01762902
0.01789912
0.01096651
0.03191543
0.002384408
0.05172628
-0.01055806
0.0601799
-0.02621955
0.03265357
-0.03814164
0.01728386
-0.04526953
0.01358147
-0.05001165
0.01083261
-0.05359201
0.01072665
-0.05568327
0.008657584
-0.05809114
0.003815395
-0.06114055
-0.006336871
-0.06542009
-0.0147837
-0.07011514
-0.009160571
-0.07248919
0.01896868
-0.06922805
0.04444828
-0.06346983
0.03891276
-0.06261525
0.01968682
-0.06435018
0.01284844
-0.06513027
0.01182715
-0.06529643
0.01049104
-0.06538299
0.007759516
-0.06561902
0.005015467
-0.06596193
0.003265762
-0.06612324
0.00164145
-0.06607864
0.0006122083
-0.06616309
0.0002872669
-0.06580031
-0.0009311718
-0.06563851
-0.0007652111
-0.06496662
-0.002940709
-0.06422335
-0.003228554
-0.06350871
-0.003444596
-0.06243336
-0.004336556
-0.06162781
-0.003957236
-0.0604686
-0.005088573
-0.05932576
-0.005354441
-0.05790459
-0.006349845
-0.05640443
-0.006663821
-0.05498478
-0.006611946
-0.05336902
-0.007474774
-0.05159383
-0.007848655
-0.04990783
-0.007740038
-0.04803018
-0.008721278
-0.04605993
-0.009065863
-0.04396464
-0.009456374
-0.04184869
-0.009552626
-0.03986416
-0.009552881
-0.0374299
-0.01073304
-0.0352595
-0.01021846
-0.03276584
-0.01109426
-0.03038482
-0.01116164
-0.02793066
-0.01127372
-0.02539492
-0.0114146
-0.02288524
-0.01175855
-0.02029638
-0.01185613
-0.01767483
-0.01200318
-0.01511732
-0.0120443
-0.01235574
-0.01233024
-0.009883889
-0.01175488
-0.007080363
-0.01260068
-0.004315361
-0.01235561
-0.001625532
-0.01189644
0.00106137
-0.0119547
0.003941153
-0.01331744
0.006649115
-0.01292023
0.009291894
-0.01254632
0.01199267
-0.01237358
0.01467126
-0.01216221
0.01730967
-0.01210724
0.01983795
-0.0117267
0.02256217
-0.01213622
0.02505648
-0.01155744
0.02747878
-0.01107573
0.02992118
-0.01119544
0.03232055
-0.01095345
0.03466015
-0.01061227
0.03690784
-0.0105169
0.03914161