/*--------------------------------*- C++ -*----------------------------------*\
| =========                 |                                                 |
| \\      /  F ield         | OpenFOAM: The Open Source CFD Toolbox           |
|  \\    /   O peration     | Version:  2406                                  |
|   \\  /    A nd           | Website:  www.openfoam.com                      |
|    \\/     M anipulation  |                                                 |
\*---------------------------------------------------------------------------*/
FoamFile
{
    version     2.0;
    format      ascii;
    arch        "LSB;label=32;scalar=64";
    class       surfaceScalarField;
    location    "1.12";
    object      phi;
}
// * * * * * * * * * * * * * * * * * * * * * * * * * * * * * * * * * * * * * //

dimensions      [0 3 -1 0 0 0 0];

oriented        oriented;

internalField   nonuniform List<scalar> 
326221
(
-0.002004755
-0.004179745
0.006184499
-0.0009096963
-0.001095059
0.0002391103
-0.001148807
-0.0009444092
0.00118352
-0.0008963077
-4.810152e-05
-0.0003259007
-0.000570407
-0.0002053088
-0.0001205919
-9.68912e-05
-0.0001084176
-0.000122197
2.530584e-05
-5.645525e-05
-6.574179e-05
0.0001400865
-0.0001965418
0.0001307888
9.297729e-06
-0.0001352581
0.0002660469
-0.0003696202
0.0002343621
-0.0005266183
0.000156998
-0.0006951531
0.0001685348
-0.0007441934
4.90403e-05
-0.0004948188
-0.0002493745
-2.80556e-05
-0.0004667632
0.0003575299
-0.0003855855
0.0005874662
-0.0002299363
0.0003873346
0.0002001316
-0.0001934512
0.0005807857
-0.0002266493
3.319811e-05
0.0001375132
-0.0003641625
0.0001400349
-2.521619e-06
-0.0001256762
0.0002657111
-0.0001777019
5.202571e-05
-9.491262e-05
-8.278929e-05
-8.983932e-05
-5.073304e-06
-0.0001878967
9.805735e-05
-0.00049157
0.0003036733
-0.0009529185
0.0004613485
-0.001322769
0.0003698508
-0.001468157
0.0001453881
-0.001419038
-4.911942e-05
-0.00123671
-0.0001823275
-0.00086999
-0.0003667204
-0.0003716066
-0.0004983834
0.000267393
-0.0006389996
0.0009729717
-0.0007055787
0.001560844
-0.0005878721
0.002047783
-0.0004869389
0.002390776
-0.0003429934
0.002274132
0.0001166437
0.001318902
0.0009552308
0.0001239957
0.001194906
-0.0002474682
0.0003714638
7.640196e-05
-0.0003238701
0.001021197
-0.0009447954
0.001766778
-0.0007455808
0.002745095
-0.0009783174
0.003688263
-0.0009431673
0.003829061
-0.0001407983
0.001799508
0.002029553
-0.001341039
0.003140547
-0.002242181
0.0009011417
-0.0005769814
-0.0016652
0.0006355285
-0.00121251
0.001104523
-0.0004689944
0.001113182
-8.65888e-06
0.0008885549
0.0002246267
0.0009182785
-2.97236e-05
0.001453222
-0.0005349438
0.002314262
-0.0008610401
0.002363159
-4.889659e-05
0.0008740429
0.001489116
-0.0004161004
0.001290143
-7.7504e-05
-0.0003385964
0.0007803291
-0.0008578331
0.0008842524
-0.0001039233
0.0008028384
8.141404e-05
0.0006618375
0.0001410009
0.0005235148
0.0001383227
0.0003666513
0.0001568635
0.0001638904
0.0002027608
-9.258462e-05
0.0002564751
-0.0003815266
0.000288942
-0.0006709688
0.0002894422
-0.0009491019
0.0002781331
-0.001206692
0.0002575899
-0.001424627
0.000217935
-0.001599176
0.0001745495
-0.001680939
8.176291e-05
-0.001815342
0.0001344031
-0.001953701
0.0001383582
-0.002072282
0.0001185812
-0.002174133
0.0001018511
-0.002273009
9.88766e-05
-0.002354971
8.196127e-05
-0.002429834
7.486321e-05
-0.002501702
7.18678e-05
-0.00255823
5.652864e-05
-0.002605825
4.75949e-05
-0.002644297
3.847226e-05
-0.002679825
3.552793e-05
-0.002714444
3.461848e-05
-0.002734447
2.000292e-05
-0.002747145
1.269785e-05
-0.002751878
4.733593e-06
-0.002749651
-2.227569e-06
-0.00274354
-6.110691e-06
-0.002734293
-9.246882e-06
-0.002721606
-1.268681e-05
-0.002698803
-2.280286e-05
-0.002674051
-2.475198e-05
-0.002646551
-2.750023e-05
-0.002606995
-3.955667e-05
-0.002559369
-4.76253e-05
-0.002507665
-5.170424e-05
-0.002458688
-4.897685e-05
-0.002400519
-5.816904e-05
-0.002346783
-5.373608e-05
-0.002291123
-5.566022e-05
-0.002224721
-6.64021e-05
-0.00215944
-6.528073e-05
-0.002153287
-6.152669e-06
-0.002089217
-6.406987e-05
-0.002025888
-6.332997e-05
-0.001964086
-6.180111e-05
-0.001895352
-6.873458e-05
-0.001828036
-6.731624e-05
-0.001763364
-6.467168e-05
-0.001700965
-6.239933e-05
-0.001634049
-6.691521e-05
-0.001563157
-7.089215e-05
-0.001488586
-7.457095e-05
-0.001414604
-7.398188e-05
-0.001336832
-7.77724e-05
-0.001258759
-7.807342e-05
-0.001180051
-7.870719e-05
-0.001099253
-8.079827e-05
-0.001013284
-8.596902e-05
-0.0009318536
-8.143051e-05
-0.0008542629
-7.75907e-05
-0.0007734515
-8.081141e-05
-0.0006960867
-7.73648e-05
-0.0006193976
-7.668904e-05
-0.0005379075
-8.149016e-05
-0.0004535789
-8.432852e-05
-0.0003696414
-8.393757e-05
-0.0002820523
-8.758905e-05
-0.0002089741
-7.307819e-05
-0.0001421342
-6.683997e-05
-8.839299e-05
-5.374117e-05
-3.860848e-06
-8.453214e-05
0.0001705382
-0.000174399
0.0002712319
-0.0001006938
0.0006442428
-0.0003730108
0.0008893413
-0.0002450985
-0.0006362345
0.001525576
-0.0004940288
-0.0001422057
0.0002929257
-0.0007869544
0.000702542
-0.0004096163
0.0006313595
7.118254e-05
-0.000232342
0.0008637015
-0.001386842
0.0011545
-0.002004417
0.0006175757
-0.002008574
4.156675e-06
-0.001655948
-0.0003526264
-0.001214356
-0.0004415921
-0.0009079157
-0.0003064398
-0.0006485313
-0.0002593844
-0.0003002333
-0.000348298
-8.017415e-05
-0.0002200591
-0.0001396707
5.949659e-05
-0.0004210414
0.0002813706
-0.0009066417
0.0004856003
-0.0011252
0.0002185582
-0.0006322948
-0.0004929051
0.0003487713
-0.0009810661
0.0006603631
-0.0003115918
-0.0001120534
0.0007724165
-0.0008453845
0.000733331
-0.0009076513
6.226681e-05
-0.0003542967
-0.0005533546
0.0001627661
-0.0005170628
0.000433008
-0.0002702419
0.0003958102
3.719776e-05
0.0001865999
0.0002092103
7.78431e-05
0.0001087568
-0.0001044314
0.0001822745
-0.0002830741
0.0001786427
-0.0003907357
0.0001076616
-0.0002531559
-0.0001375798
-0.0001743112
-7.88447e-05
-0.0002716449
9.73337e-05
-0.0003495374
7.789245e-05
-0.0002491507
-0.0001003867
-0.0001123287
-0.000136822
-5.009057e-06
-0.0001073197
6.376057e-05
-6.876962e-05
0.0001071132
-4.335265e-05
0.000115867
-8.753771e-06
5.930476e-06
0.0001099365
0.0002733523
-0.0002674218
0.000280881
-7.528707e-06
0.001088411
-0.0008075295
0.001648486
-0.0005600751
-0.003710815
0.005359301
-0.00386914
0.0001583253
-0.003383884
-0.000485256
-0.003178408
-0.0002054768
-0.002985876
-0.0001925317
-0.002840908
-0.0001449678
-0.002709271
-0.0001316367
-0.00259497
-0.0001143015
-0.00242733
-0.0001676396
-0.002348706
-7.862468e-05
-0.002286417
-6.228892e-05
-0.002229224
-5.719296e-05
-0.002179211
-5.001222e-05
-0.002130665
-4.854637e-05
-0.002083772
-4.689334e-05
-0.00203839
-4.538217e-05
-0.001998784
-3.960521e-05
-0.001963241
-3.554289e-05
-0.001928691
-3.455073e-05
-0.00189363
-3.506045e-05
-0.001860846
-3.278466e-05
-0.001829133
-3.171247e-05
-0.001800165
-2.896817e-05
-0.001775291
-2.487416e-05
-0.00174852
-2.677086e-05
-0.001720922
-2.759806e-05
-0.001692056
-2.886547e-05
-0.001664408
-2.764842e-05
-0.001640862
-2.354599e-05
-0.001620211
-2.065104e-05
-0.001597438
-2.277334e-05
-0.001574139
-2.329842e-05
-0.001548682
-2.54574e-05
-0.001527425
-2.125709e-05
-0.001507928
-1.949657e-05
-0.00148638
-2.154839e-05
-0.001464023
-2.235652e-05
-0.001440224
-2.379879e-05
-0.001418879
-2.134499e-05
-0.001398737
-2.014211e-05
-0.001425209
2.647204e-05
-0.001415537
-9.672345e-06
-0.001401035
-1.450208e-05
-0.001386129
-1.49058e-05
-0.001373242
-1.288737e-05
-0.001359259
-1.398282e-05
-0.001346713
-1.254628e-05
-0.001335531
-1.118123e-05
-0.001324273
-1.125836e-05
-0.001309221
-1.505207e-05
-0.001292781
-1.64401e-05
-0.00127917
-1.361089e-05
-0.0012675
-1.167006e-05
-0.001257661
-9.839433e-06
-0.001243008
-1.465301e-05
-0.001223808
-1.919982e-05
-0.001206336
-1.747204e-05
-0.001189391
-1.694449e-05
-0.001169389
-2.000255e-05
-0.00115146
-1.792879e-05
-0.001132643
-1.881681e-05
-0.00111383
-1.881285e-05
-0.001098409
-1.542083e-05
-0.001087205
-1.120459e-05
-0.001066617
-2.058786e-05
-0.001046501
-2.011612e-05
-0.001043688
-2.812976e-06
-0.001032585
-1.110292e-05
-0.0009755186
-5.706625e-05
-0.0006455084
-0.0003300102
0.0003920073
-0.001037516
0.001458151
-0.001066143
0.0002469241
0.001211227
-0.0001422464
0.0003891705
-6.625212e-05
-7.599432e-05
-7.627573e-05
1.002361e-05
4.562473e-05
-0.0001219005
0.0002464418
-0.0002008171
0.0004654656
-0.0002190239
0.0006464608
-0.0001809952
0.0007847049
-0.0001382441
0.0008979806
-0.0001132758
0.000988921
-9.094034e-05
0.0010603
-7.137906e-05
0.00111456
-5.425947e-05
0.001159435
-4.48757e-05
0.001196746
-3.731028e-05
0.001230543
-3.379783e-05
0.001260604
-3.006084e-05
0.001284712
-2.41079e-05
0.001305701
-2.098904e-05
0.001328224
-2.252318e-05
0.001348666
-2.044122e-05
0.001366642
-1.797616e-05
0.001386937
-2.029532e-05
0.001404302
-1.736482e-05
0.001424978
-2.067654e-05
0.001447899
-2.292032e-05
0.00146803
-2.013135e-05
0.001484461
-1.64305e-05
0.001501797
-1.733691e-05
0.001520912
-1.911429e-05
0.001536005
-1.509368e-05
0.001504045
3.196031e-05
0.00152945
-2.540487e-05
0.001559604
-3.015405e-05
0.00158929
-2.968625e-05
0.001618882
-2.959151e-05
0.001650349
-3.146703e-05
0.001679965
-2.96157e-05
0.001706658
-2.669382e-05
0.001735192
-2.853329e-05
0.00176697
-3.177848e-05
0.001801483
-3.451311e-05
0.001830941
-2.94582e-05
0.001858647
-2.770569e-05
0.001888108
-2.946096e-05
0.001920099
-3.199059e-05
0.001952507
-3.240852e-05
0.001988742
-3.623484e-05
0.002026066
-3.732363e-05
0.002063043
-3.697775e-05
0.002100966
-3.792248e-05
0.002135593
-3.462673e-05
0.002177355
-4.176253e-05
0.002220612
-4.325646e-05
0.002265329
-4.471716e-05
0.00231319
-4.786117e-05
0.002362533
-4.934308e-05
0.002416983
-5.444966e-05
0.002476632
-5.96496e-05
0.002536722
-6.008996e-05
0.002601923
-6.520084e-05
0.002676537
-7.461407e-05
0.002767203
-9.066616e-05
0.002956224
-0.0001890211
0.003083913
-0.000127689
0.00322876
-0.0001448471
0.00338985
-0.0001610895
0.003595542
-0.0002056916
0.003800825
-0.0002052835
0.004296002
-0.0004951773
0.0001162578
0.0005822179
-0.001550991
0.00218
-1.500055e-05
0.000986389
-0.0001175741
2.657921e-05
9.501086e-05
-0.0002025613
0.0003826701
-0.0004095597
0.0007072235
-0.0005253705
0.001021962
-0.0005337621
0.00129213
-0.0004511632
0.001516463
-0.0003625769
0.001713466
-0.0003102796
0.001885067
-0.0002625409
0.002034845
-0.000221157
0.002164298
-0.0001837129
0.002281196
-0.0001617729
0.002386557
-0.0001426713
0.00248537
-0.0001326115
0.002577264
-0.0001219541
0.002661737
-0.0001085818
0.002740161
-9.941233e-05
0.002816965
-9.932705e-05
0.002889666
-9.314258e-05
0.002957949
-8.625942e-05
0.003026132
-8.847804e-05
0.003089591
-8.082348e-05
0.003154057
-8.514256e-05
0.003217965
-8.682834e-05
0.003279896
-8.206305e-05
0.003337103
-7.363716e-05
0.003394582
-7.481632e-05
0.003451351
-7.588329e-05
0.003505625
-6.936765e-05
0.003478251
5.933468e-05
0.003541762
-8.891608e-05
0.003607581
-9.597235e-05
0.00367289
-9.499549e-05
0.00373783
-9.453216e-05
0.003803164
-9.680054e-05
0.003867556
-9.400784e-05
0.00392863
-8.776749e-05
0.003991331
-9.123433e-05
0.004054335
-9.478227e-05
0.004120561
-0.0001007392
0.004181991
-9.08888e-05
0.004243195
-8.890919e-05
0.004304158
-9.042379e-05
0.004367239
-9.507158e-05
0.004429787
-9.495677e-05
0.004495289
-0.0001017368
0.004561793
-0.0001038275
0.004627929
-0.0001031142
0.004695743
-0.0001057368
0.004760193
-9.907623e-05
0.004830784
-0.0001123539
0.004900871
-0.0001133431
0.004973835
-0.0001176809
0.005047632
-0.0001216582
0.005124087
-0.0001257986
0.005203176
-0.0001335384
0.005287367
-0.0001438407
0.005371439
-0.0001441622
0.005460545
-0.0001543061
0.005556489
-0.0001705588
0.005666443
-0.0002006203
0.005933411
-0.0004559883
0.006081992
-0.0002762701
0.006251364
-0.000314219
0.006433018
-0.0003427442
0.006669189
-0.0004418621
0.006867816
-0.0004039106
0.007428022
-0.001055384
0.006579405
0.0009648753
-0.006662395
0.005894806
0.0009259142
-0.006106331
-0.00104132
-0.005914075
-0.0003977326
-0.00569438
-0.0004122272
-0.00553024
-0.0003091076
-0.005375895
-0.000285982
-0.005242468
-0.0002477279
-0.005005533
-0.0004045753
-0.004909515
-0.0001746419
-0.004827162
-0.0001446424
-0.004748612
-0.0001357427
-0.004676526
-0.0001220985
-0.004605227
-0.0001198452
-0.004536774
-0.0001153469
-0.004468783
-0.0001133725
-0.004406436
-0.0001019521
-0.004345611
-9.636852e-05
-0.004287155
-9.300649e-05
-0.004227392
-9.482313e-05
-0.004170574
-8.960314e-05
-0.004113782
-8.85042e-05
-0.004059459
-8.329177e-05
-0.004007533
-7.679955e-05
-0.003954401
-7.990342e-05
-0.003901362
-8.063643e-05
-0.003847291
-8.293693e-05
-0.003794818
-8.012126e-05
-0.00374394
-7.442397e-05
-0.003695528
-6.906341e-05
-0.003644109
-7.419164e-05
-0.003593633
-7.377426e-05
-0.003540357
-7.873369e-05
-0.0034904
-7.121378e-05
-0.003440033
-6.986396e-05
-0.003388254
-7.332758e-05
-0.003335196
-7.54143e-05
-0.003280959
-7.803585e-05
-0.003228091
-7.421278e-05
-0.003175094
-7.31398e-05
-0.003199815
5.119364e-05
-0.003155679
-5.380833e-05
-0.00310946
-6.072168e-05
-0.003061579
-6.278631e-05
-0.003015186
-5.928048e-05
-0.002966036
-6.313304e-05
-0.002917455
-6.112754e-05
-0.002867549
-6.108633e-05
-0.002816575
-6.223232e-05
-0.002761417
-7.021051e-05
-0.002704582
-7.327531e-05
-0.002647959
-7.02338e-05
-0.00259008
-6.954902e-05
-0.002531077
-6.884235e-05
-0.002465999
-7.973141e-05
-0.002396372
-8.882627e-05
-0.002325455
-8.83888e-05
-0.002252326
-9.007415e-05
-0.002173147
-9.918142e-05
-0.00209237
-9.870552e-05
-0.002005241
-0.0001059459
-0.001912323
-0.0001117312
-0.001814061
-0.000113683
-0.001710134
-0.0001151308
-0.001586332
-0.00014439
-0.001449683
-0.0001567659
-0.001311703
-0.0001407928
-0.001148785
-0.0001740205
-0.0009268522
-0.0002789992
-0.0005018433
-0.0007550191
0.0004504582
-0.001989817
-0.002166677
-0.0002524744
-0.00113718
0.00291523
-0.0003458454
-4.883471e-05
0.0005087436
-0.001641543
0.00102412
-0.000924993
0.0003398487
0.0007554541
-0.001344432
0.002547983
-0.002595313
0.002405381
-0.002789513
0.0008117754
-0.002566558
-0.0002187981
-0.002115293
-0.0008038916
-0.001546262
-0.001010624
-0.001133335
-0.0007193665
-0.0007707339
-0.0006219854
-0.0002900422
-0.0008289898
0.0001005809
-0.0006106822
-4.253094e-05
0.0002026084
-0.000801857
0.001040697
-0.001385116
0.00106886
-0.00122787
6.131215e-05
-0.0005259587
-0.001194817
0.0005473493
-0.002054374
0.0008334041
-0.0005976466
-0.0004773566
0.002083177
-0.001411081
0.001667056
-0.001227249
-0.0001215654
-0.0005304127
-0.001250191
0.0001899763
-0.001237452
0.0006469511
-0.0007272166
0.0007743034
-9.015455e-05
0.0005544693
0.0004290443
0.0001044593
0.0005587669
-0.0004094086
0.0006961424
-0.0005797763
0.0003490104
-0.0006196825
0.0001475678
-0.0004308057
-0.0003264565
-0.0003510019
-0.0001586486
-0.0004433838
0.0001897157
-0.0004678004
0.000102309
-0.0002801823
-0.0002880048
-6.044947e-05
-0.0003565548
0.0001336079
-0.000301377
0.0002632486
-0.0001984103
0.0003518181
-0.0001319222
0.0003665131
-2.344874e-05
0.0002316922
0.0002447574
0.000476481
-0.0005122106
0.0008551902
-0.0003862379
0.001727493
-0.001679832
0.0007802475
0.0003871702
0.01203435
0.001689468
-0.001013358
-0.001421691
0.002709397
-0.001998247
0.003758088
-0.001991858
0.004671858
-0.001054569
0.003923676
0.002777736
4.67298e-06
0.00705955
-0.002878096
0.003783911
-0.001425664
-0.003117632
-0.0003117581
-0.002326416
0.000176767
-0.0009575194
0.0004213606
-0.0002532526
0.0002669056
0.0003790818
-1.507899e-06
0.0002386899
0.0001748323
-0.0007112839
0.0008734181
-0.001559626
0.001829856
-0.001005335
0.00148512
0.001833852
0.0002510069
0.002524257
-0.000323372
0.0002357824
-0.0002378229
-0.0009433822
-0.0001520389
-0.0001897073
-0.000419101
0.0003484761
-0.0009690584
0.0006909583
-0.001623283
0.0007925469
-0.002273183
0.0008067638
-0.002881198
0.0008107756
-0.003445151
0.0008204289
-0.003949037
0.0007928273
-0.004374124
0.0007145293
-0.004721303
0.0006253126
-0.004999805
0.0005360917
-0.005209944
0.0004280743
-0.005357615
0.0003222204
-0.005342067
6.621507e-05
-0.005440493
0.0002328283
-0.0055419
0.0002397653
-0.005617964
0.0001946451
-0.005673708
0.000157595
-0.005719998
0.0001451675
-0.005748945
0.0001109082
-0.005767402
9.332033e-05
-0.005779078
8.354337e-05
-0.005776595
5.404513e-05
-0.005765287
3.628773e-05
-0.005744851
1.803615e-05
-0.005719125
9.80178e-06
-0.005689965
5.458339e-06
-0.005649407
-2.055549e-05
-0.005603655
-3.305347e-05
-0.005551188
-4.773376e-05
-0.005492243
-6.117256e-05
-0.00542786
-7.049392e-05
-0.005357789
-7.931735e-05
-0.005281974
-8.850164e-05
-0.005195421
-0.000109356
-0.005104367
-0.0001158061
-0.005008164
-0.0001237037
-0.004900539
-0.0001471815
-0.004785503
-0.0001626607
-0.004665803
-0.0001714049
-0.004546913
-0.0001678666
-0.004419518
-0.0001855646
-0.004295265
-0.0001779887
-0.004168886
-0.0001820394
-0.00403421
-0.0002010779
-0.003900709
-0.0001987817
-0.003856816
-5.004593e-05
-0.003730686
-0.0001901992
-0.003608525
-0.0001854918
-0.003487763
-0.0001825627
-0.003362145
-0.0001943521
-0.003238185
-0.0001912771
-0.003115359
-0.0001874972
-0.002992745
-0.0001850134
-0.00286469
-0.0001949701
-0.00273218
-0.0002034028
-0.002595367
-0.0002113831
-0.002457672
-0.0002116769
-0.002315258
-0.0002201872
-0.002171863
-0.0002214682
-0.002027269
-0.0002233014
-0.001881276
-0.000226791
-0.001732429
-0.0002348159
-0.001589403
-0.0002244567
-0.001450201
-0.0002167923
-0.001308793
-0.0002222198
-0.001170691
-0.0002154669
-0.001031446
-0.0002159335
-0.0008860131
-0.0002269234
-0.0007379699
-0.0002323717
-0.0005942808
-0.0002276267
-0.0004577134
-0.0002241565
-0.0003500322
-0.0001807593
-0.0002462434
-0.0001706287
-0.0001269039
-0.0001730808
5.784416e-05
-0.0002692802
0.0003118965
-0.0004284514
0.0005642496
-0.0003530469
0.0009536094
-0.0007623706
-0.0004286689
-0.0009963549
0.01376026
-0.001870071
-0.0002213425
-0.001111405
-0.001907473
-0.00167166
0.001743775
-0.001282596
-0.0004371652
-0.0005815611
-0.001271442
-0.000365268
-0.0003368849
-0.0001697833
-0.0003039024
-0.0001922393
4.776188e-05
-0.0002236046
-3.437652e-05
-0.0002001695
-0.0002199768
-0.0003633389
0.000172467
-0.0006333857
0.0005360938
-0.0007846698
0.0003856462
-0.0009149344
0.0002872626
-0.001075651
0.0003292513
-0.001067004
4.039341e-05
-0.0007259834
-0.0005903951
-9.407681e-05
-0.00109867
0.0004449632
-0.0009246256
0.0008826157
-0.0006675887
0.0009425671
0.0001401802
0.0001741086
0.001349244
-0.0004246962
0.000632003
-0.0004246746
-0.0003641842
-0.0004814147
5.42185e-05
-0.0005432078
0.0003275041
-0.0004032435
-8.793859e-05
-0.000303516
-0.0001825168
-0.0004935097
0.0001849204
-0.000964006
0.0005685537
-0.001588939
0.0009286064
-0.002046011
0.0009184207
-0.002191502
0.0005153416
-0.002120826
7.471185e-05
-0.001920253
-0.0002496919
-0.001590096
-0.0005124846
-0.001050704
-0.0009061131
-0.0003708614
-0.001178226
0.0004519445
-0.001461805
0.001333586
-0.00158722
0.002081852
-0.001336138
0.002722442
-0.001127528
0.003207339
-0.0008278905
0.003511225
-0.0001872432
0.003027058
0.001439399
0.001319182
0.002902782
-4.417189e-05
0.001734818
-5.694625e-06
-0.0003623474
-0.001963848
0.0005747718
-0.008583855
0.02176934
-0.002233106
0.002586536
-0.002050474
-0.002090106
-0.002296425
0.001989727
-0.001653571
-0.00108002
-0.000817263
-0.00210775
-0.0005172895
-0.0006368584
-0.0002831669
-0.000538025
-0.0003302073
9.480224e-05
-0.0005380984
0.0001735147
-0.0007295676
-2.850765e-05
-0.0009247391
0.0003676385
-0.001043552
0.0006549069
-0.001117648
0.0004597423
-0.001281839
0.000451453
-0.001465004
0.0005124169
-0.001451488
2.687677e-05
-0.001039863
-0.00100202
-0.000253818
-0.001884714
0.0004225038
-0.001600947
0.0008880443
-0.001133129
0.00117606
-0.0001478355
0.000551464
0.00197384
-0.0005348001
0.001718267
-0.000978369
7.938468e-05
-0.0009757841
5.163368e-05
-0.0007906187
0.0001423387
-0.000568629
-0.0003099282
-0.0006092821
-0.0001418637
-0.001079028
0.0006546659
-0.001820015
0.001309541
-0.002436189
0.00154478
-0.002684816
0.001167048
-0.002691254
0.0005217796
-0.00259939
-1.71518e-05
-0.002343692
-0.0005053907
-0.001912132
-0.0009440438
-0.001231689
-0.001586557
-0.0003743037
-0.002035611
0.0006515127
-0.002487622
0.001716778
-0.002652485
0.002621385
-0.002240745
0.003407091
-0.001913234
0.00396691
-0.001387709
0.004321515
-0.0005418483
0.004206451
0.001554462
0.002751237
0.004357996
0.0007269529
0.003759102
7.951205e-05
0.0002850934
0.001043848
-0.002928184
0.001736167
-0.00211401
0.002604849
-0.002866929
0.003667104
-0.003054113
0.004595823
-0.001983288
0.004823816
0.002549742
0.001519035
0.01036433
-0.002412336
0.007715282
-0.002348828
-0.00318114
-0.001889982
-0.002785262
-0.001745237
-0.001102264
-0.001876742
-0.0001217476
-0.002252553
0.0007548928
-0.002490567
0.0004767045
-0.002136732
-0.00106512
-0.001164769
-0.002531589
-1.959307e-05
-0.00215051
0.0007613682
0.001052891
-0.0003086296
0.003594254
-0.002355403
0.002282556
-0.003579469
0.000280684
-0.003963052
0.0001938753
-0.004399725
0.0007851495
-0.005009568
0.001300802
-0.005672041
0.00145502
-0.006252174
0.001386897
-0.006716544
0.001275146
-0.007074493
0.001178378
-0.007338038
0.001056372
-0.007519882
0.0008963739
-0.007639911
0.0007453419
-0.007717301
0.0006134813
-0.007761379
0.000472152
-0.007783688
0.0003445295
-0.00764282
-7.465263e-05
-0.007661804
0.000251812
-0.00767088
0.0002488413
-0.007667496
0.0001912616
-0.007653807
0.0001439054
-0.007638365
0.0001297261
-0.007611676
8.421844e-05
-0.0075806
6.224461e-05
-0.007547056
4.999979e-05
-0.007503764
1.075303e-05
-0.007457009
-1.046731e-05
-0.007404153
-3.481991e-05
-0.007347765
-4.658588e-05
-0.007289351
-5.295646e-05
-0.007219072
-9.083422e-05
-0.007143953
-0.0001081727
-0.007061286
-0.0001304003
-0.006971248
-0.000151211
-0.006875065
-0.0001666768
-0.006772118
-0.0001822643
-0.006662975
-0.0001976444
-0.006541768
-0.0002305636
-0.006415732
-0.0002418415
-0.006284235
-0.0002552009
-0.006140369
-0.0002910476
-0.005989491
-0.0003135386
-0.005833531
-0.0003273652
-0.005679534
-0.0003218627
-0.005515886
-0.0003492135
-0.00535682
-0.0003370539
-0.005195873
-0.0003429868
-0.005026304
-0.0003706465
-0.004857311
-0.0003677748
-0.004799509
-0.0001078483
-0.004639493
-0.0003502154
-0.004488575
-0.0003364091
-0.004339249
-0.0003318895
-0.004184226
-0.0003493746
-0.004031488
-0.0003440152
-0.003879215
-0.0003397705
-0.003726446
-0.000337782
-0.003566409
-0.0003550067
-0.003401042
-0.0003687702
-0.003230116
-0.0003823086
-0.003057975
-0.000383818
-0.002879732
-0.0003984307
-0.002700503
-0.0004006969
-0.002519636
-0.000404169
-0.00233759
-0.0004088363
-0.002152874
-0.0004195323
-0.001975805
-0.0004015259
-0.001803171
-0.0003894263
-0.001627715
-0.0003976753
-0.001456343
-0.0003868384
-0.001282373
-0.0003899042
-0.001099381
-0.0004099152
-0.000910249
-0.0004215035
-0.0007197428
-0.0004181329
-0.0005252215
-0.0004186778
-0.0003508091
-0.0003551717
-0.0001781934
-0.0003432445
7.742047e-06
-0.0003590162
0.0002328302
-0.0004943683
0.0005187518
-0.0007143729
0.0008434424
-0.0006777374
0.001285363
-0.001204292
0.001518846
-0.000662152
0.0001429629
0.004291114
-0.0002190879
0.000313216
0.0006602622
-0.002520893
0.001113091
-0.001377822
-0.0002323969
0.002100943
-0.002286297
0.004601883
-0.003243311
0.003362394
-0.003333001
0.0009014663
-0.003118006
-0.000433794
-0.002590178
-0.001331719
-0.001908763
-0.001692039
-0.001387961
-0.001240168
-0.0009190885
-0.001090858
-0.0003212591
-0.001426819
0.0001840013
-0.001115943
0.0002059403
0.0001806694
-0.0006244587
0.001871096
-0.001256542
0.001700943
-0.0009172192
-0.0002780105
-0.0002707537
-0.001841282
0.000593358
-0.002918486
0.0005581872
-0.0005624758
-0.000995346
0.00363671
-0.001849013
0.002520723
-0.001536169
-0.0004344098
-0.0007685865
-0.002017773
8.411978e-05
-0.002090158
0.0006922485
-0.001335345
0.0009661364
-0.0003640425
0.0007637762
0.0006314045
2.83723e-05
0.001294171
-0.0006067714
0.001331286
-0.0006644799
0.000406719
-0.0006876874
0.0001707753
-0.0004633204
-0.0005508236
-0.0003786267
-0.0002433423
-0.0004591913
0.0002702803
-0.0004662022
0.0001093199
-0.0002543708
-0.0004998362
-9.190935e-06
-0.0006017347
0.0002098855
-0.0005204534
0.0003783693
-0.0003668942
0.0005256646
-0.0002792175
0.0005948536
-9.263774e-05
0.0004834796
0.0003561314
0.000663155
-0.000691886
0.001307413
-0.001030496
0.00196337
-0.002335789
-0.0005722881
0.002922829
-0.007660332
0.0191224
-0.008465558
0.001731141
-0.007897535
-0.001609344
-0.007674317
-0.0006209499
-0.00743323
-0.0006533149
-0.007254083
-0.0004882545
-0.00708553
-0.0004545349
-0.00694316
-0.0003900978
-0.006667478
-0.000680257
-0.006562791
-0.0002793285
-0.006467301
-0.0002401325
-0.006375301
-0.0002277425
-0.006289307
-0.0002080928
-0.006203321
-0.0002058308
-0.006120407
-0.0001982618
-0.006037069
-0.0001967104
-0.005959198
-0.0001798232
-0.005881571
-0.0001739953
-0.005806536
-0.000168041
-0.005729464
-0.0001718957
-0.005655526
-0.0001635408
-0.005580816
-0.0001632139
-0.005508209
-0.0001558991
-0.005437472
-0.0001475365
-0.005365273
-0.0001521028
-0.005293519
-0.0001523898
-0.005220498
-0.0001559587
-0.005148943
-0.0001516758
-0.005077909
-0.0001454576
-0.005009097
-0.0001378762
-0.004936377
-0.0001469114
-0.004865308
-0.0001448427
-0.004790535
-0.0001535074
-0.004719022
-0.0001427263
-0.004646039
-0.0001428472
-0.004571425
-0.0001479413
-0.004495364
-0.0001514756
-0.0044176
-0.0001558002
-0.004339995
-0.0001518174
-0.004259966
-0.0001531691
-0.004273779
6.500663e-05
-0.004200101
-0.0001274863
-0.004130295
-0.0001305274
-0.004057336
-0.0001357447
-0.003986172
-0.0001304448
-0.003911241
-0.0001380637
-0.003836837
-0.0001355314
-0.003760331
-0.0001375931
-0.003682589
-0.0001399738
-0.003600108
-0.0001526921
-0.003515811
-0.0001575716
-0.003431426
-0.0001546194
-0.003344818
-0.0001561568
-0.003256633
-0.0001570268
-0.003161514
-0.0001748511
-0.003061315
-0.0001890251
-0.002959691
-0.0001900128
-0.002854898
-0.0001948676
-0.002742194
-0.0002118845
-0.002627149
-0.000213751
-0.00250338
-0.0002297151
-0.002371628
-0.0002434829
-0.002230844
-0.0002544666
-0.002079957
-0.0002660185
-0.001900075
-0.0003242717
-0.001700746
-0.0003560946
-0.001496104
-0.0003454354
-0.001245214
-0.0004249101
-0.0009056687
-0.0006185445
-0.0003865565
-0.001274131
0.0006146584
-0.002991032
0.001902888
-0.003454907
0.001392352
0.002690536
0.0006865199
0.001692221
0.0003507618
0.0003623373
0.0006382721
-0.0004900716
0.001061244
-0.0008325316
0.001481811
-0.000945937
0.001856004
-0.0009079557
0.002168618
-0.000763777
0.002424014
-0.0006179732
0.002646016
-0.0005322811
0.002839708
-0.0004562328
0.003010936
-0.0003923852
0.003160748
-0.0003335253
0.003298082
-0.0002991072
0.003423407
-0.0002679959
0.003542814
-0.0002520184
0.003655685
-0.0002348247
0.003761445
-0.0002143426
0.003861033
-0.0001990004
0.003959449
-0.0001977424
0.004053929
-0.0001876224
0.00414379
-0.0001761211
0.004234143
-0.0001788308
0.004318945
-0.0001656253
0.004404972
-0.0001711697
0.004490117
-0.0001719736
0.004573828
-0.0001657739
0.004652383
-0.0001521919
0.004731628
-0.0001540612
0.00480918
-0.0001534357
0.004889029
-0.0001492162
0.004862145
8.621781e-05
0.004950702
-0.0001774721
0.005039864
-0.0001851352
0.005127345
-0.0001824763
0.005213885
-0.0001810722
0.005300217
-0.0001831322
0.005385707
-0.0001794982
0.00546722
-0.0001692807
0.005550292
-0.0001743057
0.00563222
-0.0001767104
0.005717883
-0.0001864024
0.005798104
-0.0001711097
0.005878619
-0.000169424
0.005958023
-0.000169828
0.006039465
-0.0001765139
0.006119571
-0.0001750626
0.006202427
-0.000184593
0.006285993
-0.0001873935
0.006368826
-0.0001859471
0.006453889
-0.0001907999
0.006534551
-0.0001797376
0.006621668
-0.0001994708
0.006706876
-0.0001985511
0.006795336
-0.0002061412
0.00688366
-0.0002099823
0.006974565
-0.0002167032
0.007067104
-0.0002260783
0.007164623
-0.0002413593
0.007261274
-0.0002408132
0.007362546
-0.000255578
0.007470353
-0.0002783661
0.007588839
-0.0003191065
0.007900452
-0.0007676011
0.008057747
-0.0004335646
0.008241181
-0.0004976536
0.008439316
-0.0005408787
0.00870017
-0.0007027167
0.008935585
-0.0006393249
0.009513464
-0.001633262
0.001894484
0.002297195
-0.002264078
0.00265742
0.002075869
0.001913547
0.001774037
0.0006641702
0.001834558
-0.0005505929
0.002172159
-0.001170133
0.002577627
-0.001351405
0.002946749
-0.001277077
0.003254339
-0.001071367
0.003506907
-0.0008705413
0.003730042
-0.0007554156
0.003928225
-0.0006544165
0.004107178
-0.0005713376
0.004266376
-0.0004927237
0.004414599
-0.0004473302
0.004551347
-0.0004047432
0.004682829
-0.0003835012
0.004808507
-0.0003605019
0.004926939
-0.0003327746
0.005039362
-0.0003114243
0.005150911
-0.0003092911
0.005258446
-0.0002951568
0.005361091
-0.000278766
0.005464959
-0.0002826994
0.005562229
-0.0002628954
0.005661408
-0.0002703487
0.00575965
-0.0002702152
0.005856407
-0.0002625308
0.005947775
-0.0002435601
0.006040037
-0.000246323
0.006130437
-0.0002438363
0.006225281
-0.0002440596
0.006187299
0.0001241999
0.006290446
-0.0002806195
0.00639609
-0.0002907789
0.006498846
-0.0002852326
0.006600536
-0.0002827625
0.006701993
-0.0002845892
0.00680233
-0.0002798345
0.006898084
-0.0002650349
0.006995553
-0.0002717745
0.007091433
-0.0002725903
0.007191696
-0.0002866663
0.007285497
-0.0002649106
0.007379849
-0.0002637752
0.00747289
-0.0002628691
0.00756807
-0.000271694
0.007661548
-0.0002685409
0.007758342
-0.000281387
0.007855714
-0.0002847653
0.007952293
-0.0002825263
0.008051703
-0.0002902102
0.008145427
-0.0002734607
0.008247314
-0.0003013579
0.008346051
-0.0002972888
0.008448613
-0.0003087032
0.008551074
-0.0003124431
0.008655796
-0.0003214248
0.008762757
-0.000333039
0.008874866
-0.0003534687
0.00898567
-0.0003516171
0.009101552
-0.0003714598
0.009225418
-0.0004022326
0.009555891
-0.0006495795
0.009728034
-0.000939744
0.009905495
-0.0006110255
0.01011657
-0.0007087285
0.01035168
-0.0007759916
0.01065561
-0.001006644
0.01097804
-0.000961755
0.01150486
-0.002160083
0.01072062
0.002678722
-0.01013013
0.00950483
0.002356439
-0.009603558
-0.002135914
-0.009295332
-0.0009291759
-0.009013183
-0.0009354637
-0.00879829
-0.0007031471
-0.008600312
-0.0006525126
-0.008435922
-0.0005544882
-0.008279026
-0.0008371535
-0.007986311