/*--------------------------------*- C++ -*----------------------------------*\
| =========                 |                                                 |
| \\      /  F ield         | OpenFOAM: The Open Source CFD Toolbox           |
|  \\    /   O peration     | Version:  2406                                  |
|   \\  /    A nd           | Website:  www.openfoam.com                      |
|    \\/     M anipulation  |                                                 |
\*---------------------------------------------------------------------------*/
FoamFile
{
    version     2.0;
    format      ascii;
    arch        "LSB;label=32;scalar=64";
    class       surfaceScalarField;
    location    "1.28";
    object      phi;
}
// * * * * * * * * * * * * * * * * * * * * * * * * * * * * * * * * * * * * * //

dimensions      [0 3 -1 0 0 0 0];

oriented        oriented;

internalField   nonuniform List<scalar> 
326221
(
-0.00165731
-0.003219224
0.004876535
-0.0007632052
-0.0008941053
0.0003567415
-0.001119947
-0.0005982951
0.0009550366
-0.0007203844
0.0001220894
-0.0001857101
-0.0005346743
3.133029e-06
-0.0001888432
-0.0001100967
0.0001132297
-9.872916e-05
-1.136753e-05
7.797225e-05
-0.0001767014
-4.972446e-05
0.0001276967
-0.0005368958
0.0004871713
-0.0009581054
0.0004212096
-0.0009442209
-1.388444e-05
-0.0004333924
-0.0005108285
0.0004117328
-0.0008451252
0.001013357
-0.0006016244
0.001295955
-0.0002825976
0.0007128549
0.0005830999
-0.0001696005
0.0008824554
-0.0002802458
0.0001106452
-4.595975e-05
-0.000234286
-0.0002656223
0.0002196625
-0.0002385987
-2.702352e-05
-5.07576e-05
-0.0001878411
-1.105368e-05
-3.970393e-05
-1.808068e-05
7.026999e-06
-8.347969e-06
-9.732709e-06
6.040127e-05
-6.874924e-05
0.0001940765
-0.0001336752
0.0003189356
-0.0001248591
0.0004338359
-0.0001149004
0.0004980532
-6.421732e-05
0.0004877745
1.027878e-05
0.0005020513
-1.427684e-05
0.0005690657
-6.701443e-05
0.0006775703
-0.0001085046
0.000826834
-0.0001492637
0.001003007
-0.0001761729
0.001191589
-0.0001885822
0.001389456
-0.0001978669
0.001614028
-0.0002245718
0.001872947
-0.0002589188
0.002158587
-0.0002856408
0.002466137
-0.0003075498
0.002793727
-0.0003275898
0.003133399
-0.0003396723
0.0035532
-0.0004198002
0.004108086
-0.000554887
0.004316242
-0.0002081553
-0.002023652
0.006339894
-0.001543047
-0.0004806051
-0.001329756
-0.0002132909
-0.001736908
0.0004071518
-0.001690007
-4.690114e-05
-0.001315846
-0.0003741602
-0.0006909155
-0.0006249309
6.081002e-05
-0.0007517255
0.001140432
-0.001079622
0.001906812
-0.0007663796
0.002450412
-0.0005436
0.002826378
-0.0003759661
0.00298447
-0.0001580916
0.002959043
2.542665e-05
0.002884124
7.491855e-05
0.002852253
3.187153e-05
0.002858065
-5.812428e-06
0.002888158
-3.009266e-05
0.002912485
-2.432727e-05
0.002933165
-2.068002e-05
0.002976646
-4.348092e-05
0.003051333
-7.468714e-05
0.003154192
-0.0001028588
0.003281416
-0.0001272243
0.003413448
-0.0001320318
0.0035324
-0.0001189521
0.003630189
-9.778837e-05
0.003704269
-7.408043e-05
0.003761575
-5.730613e-05
0.003815591
-5.401632e-05
0.003861074
-4.548245e-05
0.003897623
-3.65488e-05
0.003917271
-1.964838e-05
0.003840253
7.701803e-05
0.003845496
-5.242857e-06
0.003854432
-8.936509e-06
0.003864992
-1.056005e-05
0.003887615
-2.262293e-05
0.003913032
-2.541646e-05
0.003944145
-3.111278e-05
0.003982879
-3.873451e-05
0.004014166
-3.128651e-05
0.00403954
-2.537466e-05
0.004058005
-1.846442e-05
0.00406108
-3.075211e-06
0.004046953
1.412662e-05
0.004010879
3.60747e-05
0.00396298
4.789828e-05
0.003900851
6.212898e-05
0.003816087
8.476445e-05
0.003708024
0.0001080632
0.003577941
0.0001300825
0.003425836
0.000152105
0.003252204
0.000173632
0.003058756
0.0001934484
0.002846464
0.0002122919
0.002616359
0.0002301052
0.002384727
0.0002316318
0.002149118
0.0002356086
0.001908759
0.0002403594
0.001657817
0.0002509415
0.001418135
0.0002396821
0.001175015
0.0002431201
0.0009312319
0.0002437834
0.0007092844
0.0002219475
0.0005012463
0.0002080381
0.0003369128
0.0001643335
0.0001598208
0.000177092
2.3676e-05
0.0001361448
-0.0001055375
0.0001292135
-0.0002093117
0.0001037742
-0.0003016396
9.23279e-05
-0.0003899803
8.834062e-05
-0.0004665529
7.657269e-05
-0.0005096155
4.30626e-05
-0.0005469153
3.729976e-05
-0.0005863221
3.940677e-05
-0.0006370032
5.06811e-05
-0.0006685663
3.15631e-05
-0.0006904489
2.188261e-05
-0.0007098003
1.93514e-05
-0.0007303056
2.050531e-05
-0.0007443985
1.409293e-05
-0.0007522478
7.849271e-06
-0.0007785713
2.63235e-05
-0.0008059195
2.734819e-05
-0.000820301
1.438153e-05
-0.0008380206
1.771964e-05
-0.0008108315
-2.71892e-05
-0.0006501528
-0.0001606786
-0.0003689177
-0.0002812352
-0.000383482
1.456438e-05
-0.001008389
0.0006249072
-0.001622163
0.0006137742
-0.001583159
-3.900465e-05
-0.001255586
-0.0003275723
-0.0008820674
-0.0003735191
0.0009774194
-0.001859487
0.002352863
-0.001375444
-0.003884323
0.006237187
-0.003799729
-8.459457e-05
-0.003168259
-0.0006314699
-0.002533272
-0.0006349871
-0.001988776
-0.0005444963
-0.001437707
-0.0005510685
-0.0008501412
-0.0005875658
-0.0001487663
-0.000701375
0.0006170239
-0.0007657901
0.0015131
-0.0008960765
0.002252918
-0.0007398177
0.002335974
-8.305571e-05
0.002078364
0.0002576097
0.002350555
-0.0002721905
0.002918718
-0.0005681632
0.00359063
-0.0006719118
0.004171686
-0.0005810564
0.004576293
-0.0004046073
0.004956682
-0.0003803891
0.005336801
-0.0003801187
0.005356684
-1.988271e-05
0.004344866
0.001011818
0.002063246
0.00228162
-0.0001330909
0.002196336
-0.001113321
0.0009802305
-0.001689196
0.0005758743
-0.001765893
7.669735e-05
-0.001300958
-0.0004649351
-0.00073195
-0.0005690079
-0.0002892963
-0.0004426537
-3.297154e-05
-0.0002563247
5.311974e-05
-8.609128e-05
1.273804e-06
5.184594e-05
-0.0001087153
0.0001099891
-0.0002521624
0.0001434471
-0.0003977389
0.0001455765
-0.0004280298
3.02909e-05
-0.0002764323
-0.0001515975
-5.078091e-05
-0.0002256514
-6.753892e-05
1.675801e-05
9.664399e-06
-7.720332e-05
0.0004686918
-0.0004590274
0.0007940547
-0.0003253628
0.000406771
0.0003872837
3.303493e-06
0.0004034675
-0.0003200874
0.0003233909
-0.001226109
0.0009060215
-0.0009324982
-0.0002936107
0.001928695
-0.002861193
0.002737957
-0.0008092625
-0.006717857
0.009455814
-0.006974229
0.0002563724
-0.005953555
-0.001020674
-0.005572029
-0.0003815257
-0.005182524
-0.0003895056
-0.004892807
-0.0002897164
-0.00462901
-0.0002637972
-0.004400508
-0.0002285024
-0.004101436
-0.000299072
-0.003943929
-0.0001575067
-0.003809058
-0.0001348711
-0.003685318
-0.0001237401
-0.003575142
-0.0001101756
-0.003469404
-0.0001057386
-0.003369063
-0.0001003406
-0.003273798
-9.526508e-05
-0.003188638
-8.515979e-05
-0.003110563
-7.807584e-05
-0.003035916
-7.464652e-05
-0.002962651
-7.32648e-05
-0.002894509
-6.814257e-05
-0.002829313
-6.519609e-05
-0.002768689
-6.062383e-05
-0.002714224
-5.446448e-05
-0.002658993
-5.523159e-05
-0.002604211
-5.478134e-05
-0.002549162
-5.504932e-05
-0.002497518
-5.164409e-05
-0.002451393
-4.612499e-05
-0.002409445
-4.194809e-05
-0.002365766
-4.367849e-05
-0.002322864
-4.290278e-05
-0.002277869
-4.499479e-05
-0.00223808
-3.978918e-05
-0.002200822
-3.725767e-05
-0.002161987
-3.883476e-05
-0.002122799
-3.918835e-05
-0.002082779
-4.002001e-05
-0.002046875
-3.590421e-05
-0.002014023
-3.285157e-05
-0.002046284
3.226088e-05
-0.0020279
-1.838381e-05
-0.00200316
-2.47397e-05
-0.001977903
-2.525781e-05
-0.00195518
-2.27221e-05
-0.001931298
-2.388262e-05
-0.00190948
-2.181777e-05
-0.001889164
-2.031612e-05
-0.001869925
-1.92394e-05
-0.001847884
-2.204037e-05
-0.001825724
-2.215971e-05
-0.001806629
-1.909558e-05
-0.001788773
-1.785564e-05
-0.001771659
-1.711395e-05
-0.001748485
-2.317425e-05
-0.001720039
-2.844632e-05
-0.001691045
-2.89941e-05
-0.001660784
-3.026025e-05
-0.001624826
-3.595822e-05
-0.001587526
-3.730006e-05
-0.001544812
-4.271415e-05
-0.001496612
-4.819988e-05
-0.001441569
-5.504286e-05
-0.001375443
-6.612606e-05
-0.001283141
-9.230222e-05
-0.001165635
-0.0001175064
-0.001013256
-0.0001523784
-0.0007684094
-0.0002448468
-0.0003831755
-0.0003852339
-2.292312e-05
-0.0003602524
-0.0003666908
0.0003437677
-0.001511396
0.001144705
-0.0004536753
-0.00105772
0.0006506648
-0.00110434
0.0009871764
-0.0003365116
0.001041162
-5.398554e-05
0.001058651
-1.748872e-05
0.001082382
-2.373111e-05
0.001097617
-1.523561e-05
0.001099381
-1.763942e-06
0.001103381
-3.999513e-06
0.001121804
-1.842278e-05
0.00114039
-1.858641e-05
0.00115659
-1.619995e-05
0.001167674
-1.108385e-05
0.00117827
-1.059649e-05
0.001188412
-1.014177e-05
0.001200732
-1.232037e-05
0.001211195
-1.046282e-05
0.001217475
-6.279504e-06
0.001224584
-7.109442e-06
0.001235308
-1.072344e-05
0.001244792
-9.484533e-06
0.001253392
-8.600089e-06
0.001264932
-1.153933e-05
0.001273741
-8.809117e-06
0.001287444
-1.370314e-05
0.001303989
-1.654528e-05
0.001314568
-1.057924e-05
0.001321621
-7.052805e-06
0.001330271
-8.649907e-06
0.001341345
-1.107342e-05
0.001346801
-5.456465e-06
0.001315489
3.131165e-05
0.001333167
-1.767754e-05
0.00135574
-2.257347e-05
0.001377605
-2.186442e-05
0.001398787
-2.118187e-05
0.001421516
-2.272958e-05
0.001441884
-2.036757e-05
0.001459175
-1.729163e-05
0.001478635
-1.945917e-05
0.00150158
-2.294539e-05
0.001526874
-2.529379e-05
0.001547015
-2.014078e-05
0.001565338
-1.832348e-05
0.001585685
-2.034711e-05
0.001608434
-2.274838e-05
0.001631809
-2.337517e-05
0.001658644
-2.68356e-05
0.001686278
-2.763395e-05
0.00171335
-2.707193e-05
0.001740635
-2.728473e-05
0.001765088
-2.445258e-05
0.001796316
-3.122834e-05
0.00182911
-3.279449e-05
0.001862683
-3.35731e-05
0.00189882
-3.613693e-05
0.001935896
-3.707571e-05
0.001977598
-4.170166e-05
0.002023878
-4.628013e-05
0.00206982
-4.594171e-05
0.002120094
-5.027477e-05
0.00217876
-5.866516e-05
0.002251929
-7.316932e-05
0.0024072
-0.0001552712
0.002509587
-0.0001023868
0.00262619
-0.0001166036
0.002756796
-0.0001306051
0.00292223
-0.0001654347
0.003095623
-0.0001733932
0.003473304
-0.0003776803
0.0002540793
-0.0005026179
0.001583592
-0.002138694
0.0005386221
-0.00214558
0.001007314
-0.0008052032
0.001245812
-0.0002924838
0.001422297
-0.0001939739
0.00158709
-0.0001885236
0.001727181
-0.0001553266
0.001840394
-0.0001149777
0.001939945
-0.0001035503
0.002040336
-0.0001188137
0.002132631
-0.000110881
0.002218152
-0.0001017211
0.00229429
-8.722234e-05
0.002365671
-8.197754e-05
0.002431273
-7.574398e-05
0.002495289
-7.63356e-05
0.002554875
-7.004871e-05
0.002609172
-6.057666e-05
0.002660471
-5.840842e-05
0.002712033
-6.228606e-05
0.002761064
-5.851531e-05
0.002807845
-5.5381e-05
0.002856013
-5.970708e-05
0.002900647
-5.344352e-05
0.002947844
-6.089984e-05
0.002995896
-6.459739e-05
0.003040686
-5.536964e-05
0.003081337
-4.770371e-05
0.003122551
-4.986389e-05
0.003163689
-5.221075e-05
0.003200767
-4.253458e-05
0.003166253
6.582536e-05
0.00321256
-6.398451e-05
0.003261507
-7.152029e-05
0.003310026
-7.038339e-05
0.003357882
-6.903811e-05
0.003406019
-7.086688e-05
0.003452915
-6.726318e-05
0.003496482
-6.085832e-05
0.003541659
-6.463701e-05
0.003587354
-6.864029e-05
0.003635916
-7.385578e-05
0.00367989
-6.411407e-05
0.003723512
-6.194595e-05
0.003767153
-6.398802e-05
0.003812765
-6.836075e-05
0.003858149
-6.87583e-05
0.003906359
-7.50465e-05
0.00395554
-7.681446e-05
0.004004492
-7.602358e-05
0.004054671
-7.746438e-05
0.004102136
-7.191686e-05
0.004155467
-8.455948e-05
0.004208738
-8.606553e-05
0.004264468
-8.930354e-05
0.00432102
-9.268877e-05
0.004379872
-9.592814e-05
0.004441315
-0.0001031444
0.004507435
-0.0001124004
0.004573153
-0.0001116597
0.004643417
-0.0001205389
0.004719832
-0.0001350795
0.004809581
-0.0001629187
0.005034159
-0.0003798486
0.00515654
-0.0002247681
0.005296421
-0.000256485
0.005446391
-0.000280575
0.005642729
-0.0003617723
0.005803226
-0.0003338908
0.006269954
-0.0008444079
0.005418974
0.001105059
-0.010594
0.009875095
0.0009752753
-0.009469709
-0.002144963
-0.009091809
-0.0007594263
-0.008672277
-0.0008090371
-0.008361972
-0.0006000218
-0.008074226
-0.0005515426
-0.007828382
-0.0004743464
-0.007441811
-0.0006856434
-0.007263011
-0.0003363067
-0.007104696
-0.0002931856
-0.006955978
-0.0002724582
-0.006820043
-0.0002461111
-0.006687769
-0.0002380125
-0.006562348
-0.0002257616
-0.006440493
-0.00021712
-0.006328816
-0.0001968368
-0.006221292
-0.0001855999
-0.006119124
-0.000176814
-0.006017309
-0.00017508
-0.005921523
-0.0001639286
-0.005827453
-0.0001592665
-0.005738027
-0.0001500498
-0.005653078
-0.0001394126
-0.005568238
-0.0001400721
-0.005484949
-0.0001380699
-0.005401437
-0.0001385623
-0.005321521
-0.0001315599
-0.005244044
-0.0001236017
-0.005170429
-0.0001155627
-0.005093675
-0.0001204333
-0.005019199
-0.0001173787
-0.00494144
-0.0001227535
-0.00486798
-0.000113249
-0.004794258
-0.0001109797
-0.004719459
-0.0001136337
-0.004643303
-0.0001153443
-0.004566036
-0.0001172867
-0.00449063
-0.0001113104
-0.004415414
-0.0001080673
-0.004446645
6.349108e-05
-0.004383331
-8.16973e-05
-0.004317757
-9.031414e-05
-0.004249634
-9.338074e-05
-0.004183294
-8.906166e-05
-0.00411349
-9.368685e-05
-0.004044611
-9.069724e-05
-0.003973884
-9.104274e-05
-0.003902621
-9.050255e-05
-0.003826995
-9.766643e-05
-0.003749933
-9.922119e-05
-0.003672729
-9.63003e-05
-0.003593733
-9.685079e-05
-0.003513186
-9.766133e-05
-0.003425774
-0.0001105858
-0.003333484
-0.000120737
-0.003238055
-0.0001244229
-0.003139544
-0.0001287714
-0.003032808
-0.0001426941
-0.002922293
-0.0001478153
-0.002802546
-0.000162461
-0.00267432
-0.0001764258
-0.002534949
-0.0001944132
-0.002380834
-0.0002202414
-0.002199157
-0.0002739789
-0.001993793
-0.0003228703
-0.001762897
-0.0003832749
-0.00148447
-0.0005232741
-0.001176299
-0.0006934044
-0.0009578318
-0.0005787197
-0.0009703413
0.0003562771
0.001757956
-0.004724777
0.004112523
0.0005276596
-0.004262976
-0.001093271
-0.003440295
-0.001457668
-0.002757369
-0.001227423
-0.002063496
-0.001244941
-0.001337705
-0.001313357
-0.0004968329
-0.001542247
0.0004286176
-0.001691241
0.001500798
-0.001968257
0.002494928
-0.001733947
0.003012275
-0.0006004032
0.003136806
0.0001330787
0.003540999
-0.0006763829
0.004085547
-0.001112711
0.004774573
-0.001360938
0.005455456
-0.00126194
0.00599437
-0.0009435214
0.006534228
-0.0009202468
0.007030841
-0.0008767316
0.007446707
-0.0004357483
0.007578307
0.0008802171
0.006181852
0.003678075
0.002693086
0.005685103
-0.0005390789
0.004212395
-0.001783924
0.001820719
-0.001600942
-0.0001062844
-0.001077448
-0.0009884287
-0.0004838738
-0.001162583
2.498189e-06
-0.0009290257
0.000370244
-0.0006240706
0.0005217855
-0.0002376327
0.0004590201
0.0001146113
0.0002299399
0.0003390694
-0.0001463827
0.0005197697
-0.0004431681
0.0004423619
-0.0004570289
4.415162e-05
-0.0002482624
-0.000360364
4.028272e-05
-0.0005141965
-3.397723e-05
9.101796e-05
6.030168e-05
-0.0001714822
0.0006985814
-0.001097307
0.00127692
-0.0009037012
0.000969616
0.0006945875
0.0001131053
0.001259978
-0.0003530365
0.0007895327
-5.43973e-05
0.0006073824
0.0008777651
-0.001225773
0.002852864
-0.004836292
0.0007932739
0.001250328
0.02012418
-0.00174466
-0.004677948
0.0127625
-0.001956256
-0.0002690093
-0.001984907
-0.0001846402
-0.002184619
0.0006068642
-0.00200663
-0.00022489
-0.001529496
-0.0008512943
-0.0007595535
-0.001394874
0.000109852
-0.001621131
0.00138214
-0.00235191
0.002386267
-0.001770506
0.003169393
-0.001326727
0.003799152
-0.001005725
0.004317222
-0.0006761613
0.004754642
-0.0004119937
0.005123743
-0.0002941823
0.005436975
-0.0002813601
0.005666591
-0.0002354286
0.00575303
-0.0001165315
0.005650696
7.800681e-05
0.005430002
0.0002000142
0.00522876
0.0001577607
0.005127598
2.647431e-05
0.005133417
-0.0001086772
0.005230941
-0.0002247486
0.005391573
-0.0002926635
0.00558738
-0.0003147595
0.005795486
-0.0003058936
0.005995154
-0.0002737494
0.006177098
-0.0002392496
0.006344083
-0.000221001
0.006490123
-0.0001915228
0.006613588
-0.0001600142
0.006730711
-0.0001367708
0.006710445
9.728437e-05
0.006814702
-0.0001095007
0.006911768
-0.000106002
0.007000789
-9.958165e-05
0.007089044
-0.0001108777
0.007168593
-0.0001049649
0.007242127
-0.0001046473
0.007313707
-0.0001103147
0.007375441
-9.302033e-05
0.007433159
-8.309259e-05
0.007491913
-7.721887e-05
0.007553696
-6.48575e-05
0.0076271
-5.927788e-05
0.007710518
-4.734333e-05
0.007803361
-4.494396e-05
0.00787998
-1.44902e-05
0.007900461
6.428363e-05
0.007840232
0.0001682919
0.007700718
0.0002695967
0.007508135
0.0003446874
0.00730018
0.0003815877
0.007104735
0.000388893
0.006927139
0.0003898874
0.006753087
0.0004041577
0.006571426
0.0004132926
0.006361824
0.0004452109
0.006112673
0.0004895105
0.005819828
0.0005437861
0.005499948
0.0005595626
0.005149812
0.0005932561
0.004786128
0.0006074674
0.004430624
0.0005774507
0.004106518
0.0005321447
0.003890002
0.0003808493
0.003563761
0.0005033333
0.003199005
0.0005009007
0.002776116
0.0005521018
0.002348088
0.0005318027
0.001961159
0.0004792566
0.001633122
0.0004163774
0.001367087
0.000342608
0.001159836
0.0002503139
0.0009653353
0.0002318004
0.0007639976
0.0002407444
0.0005649107
0.000249768
0.0004155696
0.0001809042
0.0002850742
0.000152378
0.0001551426
0.000149283
2.890059e-05
0.0001467473
-9.207133e-05
0.0001350649
-0.0002662993
0.0001820773
-0.0004830566
0.0002430808
-0.0006992942
0.0002435858
-0.0009180335
0.0002331208
-0.001091751
0.0001914376
-0.001153238
3.429703e-05
-0.001136903
-0.0001770132
-0.001157934
-0.0002602042
-0.001425731
0.0002823616
-0.001850655
0.001049831
-0.001725536
0.0004886551
-0.001058314
-0.0007062269
-0.0004895681
-0.0008963179
-0.00010486
-0.0007582272
0.00119107
-0.003155416
0.001990665
-0.002175039
0.01234037
-0.0008696725
0.01116518
-0.001553396
-0.0002103818
-0.0007545183
-0.001918824
-0.001293917
0.001494436
-0.001106345
-6.548268e-05
-0.0003843105
-0.001256709
3.587644e-05
-0.0006090301
-4.140989e-05
0.0001905161
-0.0002188661
0.0001660887
-0.0002811426
-0.0001144249
-0.0006961598
0.0005427139
-0.001297303
0.001088315
-0.00154559
0.0006694958
-0.001316255
-0.0002432187
-0.0006460491
-0.001181035
0.0004606378
-0.001951812
0.001252655
-0.001393642
0.001874483
-0.0009044252
0.00160899
0.000848592
0.0003101452
0.002181301
-0.000433965
0.0008547555
-0.0003472745
-0.0003209765
-0.00054313
0.000415518
-0.0003843041
-0.0001858494
-9.231057e-05
-0.0004798346
-6.472835e-06
-0.0001255417
2.000772e-05
-1.945355e-05
5.808661e-05
-4.78116e-05
0.0001522356
-0.0001628982
0.000320694
-0.0003021337
0.0005098445
-0.0003140095
0.0007510721
-0.0003561279
0.001003151
-0.0003162959
0.001175976
-0.0001625469
0.001298195
-0.0001364955
0.001388558
-0.0001573769
0.001484414
-0.0002043609
0.001624894
-0.000289744
0.001805855
-0.0003571334
0.002012005
-0.000394733
0.002239587
-0.000425448
0.002506196
-0.0004911812
0.002819476
-0.0005721985
0.003172317
-0.0006384821
0.003559242
-0.0006944746
0.003975346
-0.0007436939
0.00440011
-0.0007644366
0.004954799
-0.0009744888
0.005286945
-0.0008870335
0.0004008417
0.0004572596
-0.007269619
0.01797754
-0.001914046
0.002160924
-0.001649564
-0.002183306
-0.001872152
0.001717024
-0.001452828
-0.0004848074
-0.0006644042
-0.002045132
-8.16627e-05
-0.001191772
-8.821688e-05
0.0001970702
-0.0004258174
0.0005036892
-0.0007890929
0.0002488506
-0.001343816
0.001097437
-0.001831989
0.001576487
-0.001949539
0.000787046
-0.001654957
-0.0005378009
-0.0008771002
-0.001958891
0.0004352232
-0.003264136
0.001418097
-0.002376516
0.002176004
-0.001662332
0.00221246
0.0008121357
0.0009776564
0.003416104
-0.0002959534
0.002128365
-0.0005703213
-4.660866e-05
-0.0007500813
0.000595278
-0.0005037841
-0.0004321467
-0.000152011
-0.0008316077
-5.553427e-05
-0.0002220183
-3.980895e-05
-3.517888e-05
-3.074746e-07
-8.731308e-05
7.813593e-05
-0.0002413416
0.000245721
-0.0004697188
0.0004518868
-0.0005201753
0.0007285945
-0.0006328356
0.001052184
-0.0006398851
0.00133471
-0.0004450733
0.001600374
-0.0004021592
0.001833637
-0.0003906401
0.002030985
-0.0004017085
0.0022129
-0.0004716591
0.00238955
-0.0005337839
0.00257733
-0.0005825132
0.002801294
-0.0006494111
0.003098059
-0.0007879466
0.003477929
-0.0009520688
0.003925629
-0.001086182
0.004427061
-0.001195907
0.004964525
-0.001281158
0.005541218
-0.00134113
0.006192053
-0.001625323
0.006584828
-0.001279809
0.005392479
0.00159319
-0.001102988
0.01925797
-0.002268093
0.000896096
-0.002480541
2.780797e-05
-0.002835951
0.0009622741
-0.002712838
-0.0003480033
-0.00217194
-0.001392192
-0.001253689
-0.002313125
-0.0001581242
-0.002716695
0.00135851
-0.003868544
0.002651696
-0.003063693
0.003647939
-0.00232297
0.004446951
-0.001804737
0.005105899
-0.001335109
0.005666236
-0.0009723306
0.006156501
-0.0007844469
0.00660616
-0.00073102
0.007025287
-0.0006545552
0.007401904
-0.0004931488
0.007647494
-0.000167583
0.007695791
0.0001517168
0.007564254
0.0002892983
0.007332228
0.0002585001
0.007101592
0.0001219593
0.006964122
-8.727876e-05
0.006944021
-0.0002725632
0.007020028
-0.0003907656
0.007157388
-0.0004432537
0.00732009
-0.0004364516
0.007486809
-0.0004059687
0.007654264
-0.000388456
0.007809732
-0.0003469914
0.007946789
-0.000297071
0.008089428
-0.0002794098
0.008077711
0.0001090012
0.008214856
-0.0002466455
0.008344671
-0.000235817
0.008462955
-0.0002178659
0.008580248
-0.0002281702
0.008685658
-0.0002103752
0.008782864
-0.0002018527
0.008877401
-0.0002048525
0.00895989
-0.0001755089
0.009038109
-0.000161311
0.009118296
-0.0001574062
0.009202551
-0.0001491125
0.009300819
-0.0001575457
0.009412569
-0.0001590935
0.009549166
-0.0001815408
0.00971328
-0.0001786046
0.009892875
-0.0001153117
0.01005017
1.099575e-05
0.01013456
0.0001852073
0.01010945
0.0003698023
0.009973434
0.0005175997
0.009759528
0.0006027995
0.009517528
0.0006318866
0.009285611
0.0006360754
0.009089251
0.0006096525
0.008918434
0.0006160283
0.008756581
0.0006513626
0.008579662
0.0007207054
0.008384892
0.0007543325
0.008156071
0.0008220771
0.007895904
0.0008676349
0.007617339
0.0008560157
0.007339557
0.0008099265
0.007217588
0.0005028177
0.006936488
0.0007844333
0.006630003
0.0008073863
0.006280027
0.0009020778
0.005906334
0.0009054958
0.005520586
0.000865004
0.005122756
0.0008142077
0.004712907
0.0007524567
0.0042982
0.0006650215
0.003873103
0.0006568967
0.003456795
0.0006570528
0.003078788
0.0006277748
0.00276692
0.0004927726
0.002484764
0.0004345343
0.002208432
0.0004256151
0.001933262
0.0004219168
0.001648622
0.0004197052
0.001310807
0.0005198923
0.0009070556
0.0006468319
0.0004766132
0.0006740282
-9.410775e-06
0.0007191447
-0.0005136727
0.0006956995
-0.0009374265
0.0004580508
-0.001280925
0.0001664848
-0.001586088
4.495901e-05
-0.001883861
0.000580135
-0.001945907
0.001111877
-0.001445411
-1.184126e-05
-0.0006514827
-0.001500155
-6.79676e-05
-0.001479833
0.0004648901
-0.001291085
0.00183048
-0.004521007
0.001726321
-0.00207088
-0.004894595
0.01896129
-0.006268384
0.00190145
-0.00576865
-0.001593005
-0.004795297
-0.002431021
-0.003887341
-0.002135379
-0.003010721
-0.002121562
-0.002109654
-0.002214423
-0.001102375
-0.002549526
2.058291e-05
-0.002814199
0.001281781
-0.003229455
0.002559401
-0.003011568
0.003258535
-0.001299537
0.003424151
-3.253742e-05
0.003931166
-0.001183397
0.004588303
-0.001769848
0.005451239
-0.002223875
0.006327381
-0.002138081
0.007019364
-0.001635504
0.007687233
-0.001588116
0.008342681
-0.001532179
0.008744321
-0.0008373888
0.009082191
0.0005423469
0.009008018
0.003752248
0.00672706
0.007966061
0.003053413
0.007886042
0.0004721181
0.004402014
5.480347e-05
0.0003110302
0.0002364543
-0.00117008
0.0004878249
-0.001413953
0.0007150226
-0.001156223
0.0008829303
-0.0007919783
0.0009442511
-0.0002989535
0.0009029183
0.0001559441
0.0007432294
0.0004987582
0.0004000263
0.0008629729
4.252596e-05
0.0007998623
-9.752568e-05
0.0001842033
-3.406156e-05
-0.0004238281
0.000152369
-0.0007006271
5.922327e-05
0.0001841637
0.000204421
-0.00031668
0.0009952143
-0.0018881
0.001717245
-0.001625732
0.001473612
0.0009382197
0.0004360746
0.002297516
0.0003350873
0.0008905201
0.0008694708
7.29988e-05
0.001941688
-0.00229799
0.003031566
-0.00592617
-0.001473573
0.005755466
-0.01232724
0.03097785
-0.01292938
0.001577413
-0.0118043
-0.003270048
-0.01131042
-0.001253299
-0.01084129
-0.001278168
-0.0104922
-0.0009491177
-0.01017365
-0.0008700933
-0.009907871
-0.0007401228
-0.009465787
-0.001127727
-0.009270737
-0.000531357
-0.009095047
-0.0004688754
-0.008929685
-0.0004378201
-0.008777863
-0.0003979338
-0.008629453
-0.0003864224
-0.008488718
-0.0003664966
-0.008351043
-0.0003547946
-0.00822395
-0.0003239297
-0.00810009
-0.00030946
-0.007982034
-0.0002948698
-0.007863589
-0.0002935254
-0.007751523
-0.0002759944
-0.00764038
-0.0002704099
-0.007533541
-0.0002568886
-0.007430796
-0.0002421573
-0.007327723
-0.000243145
-0.007226517
-0.0002392761
-0.007124658
-0.0002404216
-0.007026292
-0.0002299253
-0.006929204
-0.0002206895
-0.00683587
-0.0002088967
-0.006738272
-0.0002180318
-0.006643782
-0.0002118688
-0.006544916
-0.0002216189
-0.006450477
-0.0002076887
-0.006354647
-0.0002068097
-0.006257423
-0.0002108578
-0.006158514
-0.000214253
-0.006057745
-0.000218056
-0.005957196
-0.0002118594
-0.005853899
-0.0002113644
-0.0058798
8.939266e-05
-0.005786334
-0.0001751631
-0.005697933
-0.0001787155
-0.005605505
-0.000185809
-0.005515622
-0.0001789439
-0.005421376
-0.0001879336
-0.005328439
-0.000183634
-0.005232995
-0.0001864868
-0.005137133
-0.0001863649
-0.005036411
-0.0001983881
-0.004934403
-0.0002012291
-0.004832336
-0.0001983676
-0.004728139
-0.0002010472
-0.004622656
-0.0002031443
-0.004510106
-0.0002231365
-0.004393063
-0.0002377793
-0.004273319
-0.0002441668
-0.004150654
-0.0002514363
-0.004018926
-0.000274423
-0.003883948
-0.0002827927
-0.003739017
-0.0003073917
-0.003585515
-0.0003299284
-0.003419807
-0.0003601206
-0.003238636
-0.0004014132
-0.003028857
-0.0004837582
-0.002797958
-0.0005537689
-0.002546706
-0.0006345273
-0.002265829
-0.0008041508
-0.002012663
-0.0009465704
-0.001854575
-0.0007368074
-0.001769751
0.0002714533
-0.001954483
0.001942687
-0.0006615359
-0.003431641
0.0004262681
-0.003233384
0.0009849007
-0.001363836
0.001339586
-0.0006471686
0.001601687
-0.0004560753
0.001840308
-0.0004271446
0.002045036
-0.0003600541
0.002213788
-0.0002837297
0.002362282
-0.0002520449
0.002510505
-0.0002670369
0.002647466
-0.0002478413
0.002776122
-0.0002303776
0.002892527
-0.0002036274
0.00300297
-0.0001924201
0.003105997
-0.0001787715
0.003206981
-0.000177319
0.00330289
-0.000165958
0.003392256
-0.0001499425
0.003477283
-0.0001434353
0.003561455
-0.0001464584
0.00364188
-0.0001389401
0.003718548
-0.0001320496
0.00379635
-0.0001375083
0.003868819
-0.0001259131
0.003943318
-0.0001353982
0.004018301
-0.0001395805
0.004090348
-0.0001274172
0.004158079
-0.0001154345
0.004226561
-0.0001183457
0.004293529
-0.0001191794
0.004363519
-0.0001125244
0.004342668
8.66763e-05
0.004418095
-0.0001394107
0.00449397
-0.0001473958
0.004567895
-0.0001443084
0.004640651
-0.000141794
0.004713176
-0.0001433915
0.004784686
-0.0001387738
0.004852282
-0.0001284544
0.004921162
-0.0001335169
0.004988826
-0.0001363045
0.005059621
-0.0001446506
0.005125279
-0.0001297713
0.005190898
-0.000127565
0.005255404
-0.0001284949
0.005321388
-0.0001343442
0.005386031
-0.0001334015
0.005452853
-0.0001418687
0.005520076
-0.0001440371
0.00558648
-0.0001424272
0.005654431
-0.0001454163
0.005718455
-0.0001359407
0.005788094
-0.0001541978
0.005856093
-0.0001540647
0.005926665
-0.0001598753
0.005996973
-0.000162997
0.006069331
-0.0001682861
0.006143056
-0.00017687
0.006221165
-0.0001905094
0.006298128
-0.0001886221
0.006379003
-0.0002014138
0.006465576
-0.0002216526
0.006560676
-0.0002580193
0.006822435
-0.000641607
0.006950705
-0.0003530383
0.007100609
-0.000406389
0.00726174
-0.0004417057
0.007476332
-0.0005763642
0.007658658
-0.0005162166
0.008142411
-0.001328161
0.001977851
-0.0008476798
0.002260027
-0.004843988
0.0002399405
-0.004321005
0.0009338787
-0.002057774
0.001417471
-0.001130761
0.001769283
-0.000807887
0.002079294
-0.0007371554
0.002342606
-0.0006233663
0.002559264
-0.0005003881
0.002748334
-0.0004411145
0.002935565
-0.0004542686
0.00310812
-0.0004203956
0.00327077
-0.0003930282
0.003418635
-0.0003514922
0.003558981
-0.0003327664
0.003690425
-0.0003102154
0.00381905
-0.0003059435
0.00394224
-0.000289148
0.004057415
-0.0002651178
0.004167819
-0.000253839
0.004276734
-0.0002553734
0.004381032
-0.0002432383
0.004480456
-0.0002314738
0.004581025
-0.0002380778
0.004674393
-0.0002192803
0.00476987
-0.0002308755
0.004865611
-0.000235321
0.004957294
-0.0002191005
0.005044433
-0.0002025735
0.005131954
-0.000205867
0.005217419
-0.000204644
0.005308911
-0.0002040166
0.005292046
0.0001035417
0.0053868
-0.000234165
0.005483378
-0.0002439739
0.005576551
-0.000237481
0.005668514
-0.0002337574
0.005760395
-0.0002352728
0.005851029
-0.0002294079
0.005937325
-0.0002147501
0.00602506
-0.0002212519
0.006111265
-0.0002225091
0.006201151
-0.0002345371
0.006285107
-0.0002137277
0.006369175
-0.0002116326
0.006452017
-0.0002113366
0.00653625
-0.0002185776
0.006618764
-0.0002159153
0.006703746
-0.0002268509
0.00678889
-0.0002291805
0.006873008
-0.0002265456
0.00695902
-0.0002314287
0.007039799
-0.0002167192
0.007127375
-0.0002417735
0.00721202
-0.0002387099
0.007299366
-0.0002472212
0.007386305
-0.0002499367
0.007474614
-0.0002565944
0.007564529
-0.0002667856
0.007658682
-0.0002846615
0.007750936
-0.000280877
0.007847211
-0.0002976878
0.007949726
-0.0003241685
0.008227617
-0.0005359102
0.00836804
-0.0007820302
0.008513439
-0.000498437
0.008686657
-0.0005796066
0.008878134
-0.0006331832
0.009128093
-0.0008263234
0.009379186
-0.0007673094
0.00982399
-0.001772965
0.009137055
0.002664786
-0.01538483
0.01513724
0.001825004
-0.01431228
-0.004342603
-0.01362768
-0.001937896
-0.01306839
-0.001837457
-0.01264108
-0.001376427
-0.01225994
-0.001251234
-0.01194548
-0.001054587
-0.01165617
-0.001417039
-0.0111844
-0.001003124
-0.01097642
-0.0006768524
-0.01078003
-0.0006342146
-0.01059996
-0.0005779998
-0.01042379
-0.0005625977
-0.01025638
-0.0005339008
-0.01009259
-0.0005185857
-0.009940676
-0.0004758456
-0.009792941
-0.000457195
-0.009651661
-0.00043615
-0.009509882
-0.0004353047
-0.009375508
-0.000410368
-0.009242465
-0.0004034528
-0.009113955
-0.0003853989
-0.008990906