/*--------------------------------*- C++ -*----------------------------------*\
| =========                 |                                                 |
| \\      /  F ield         | OpenFOAM: The Open Source CFD Toolbox           |
|  \\    /   O peration     | Version:  2406                                  |
|   \\  /    A nd           | Website:  www.openfoam.com                      |
|    \\/     M anipulation  |                                                 |
\*---------------------------------------------------------------------------*/
FoamFile
{
    version     2.0;
    format      ascii;
    arch        "LSB;label=32;scalar=64";
    class       surfaceScalarField;
    location    "2.82";
    object      phi;
}
// * * * * * * * * * * * * * * * * * * * * * * * * * * * * * * * * * * * * * //

dimensions      [0 3 -1 0 0 0 0];

oriented        oriented;

internalField   nonuniform List<scalar> 
23794
(
0.007040031
-0.006710179
-0.0003298517
0.007000763
3.92675e-05
0.006280724
0.0007200397
0.004423479
0.001857245
0.001212923
0.003210556
-0.001657118
0.002870042
-0.002358254
0.0007011353
-0.001078837
-0.001279417
-0.00176072
0.0006818836
-0.004732147
0.002971426
-0.005508299
0.0007761519
-0.004227264
-0.001281034
-0.002294696
-0.001932569
-0.001193726
-0.00110097
-0.0003044478
-0.0008892777
0.0007669967
-0.001071445
0.002573121
-0.001806125
0.004856112
-0.002282991
0.006535869
-0.001679757
0.006732901
-0.0001970327
0.00438141
0.002351491
-0.0002482662
0.004629676
-0.004634455
0.004386189
-0.004591213
-4.324206e-05
-0.001065532
-0.003525681
0.002046133
-0.003111664
0.003401659
-0.001355527
0.004140439
-0.0007387794
0.005629222
-0.001488783
0.008590679
-0.002961457
0.0113273
-0.002736622
0.008984759
0.002342542
0.00143692
0.007547839
-0.002356448
0.003793369
-0.0006575187
-0.00169893
0.001860073
-0.002517591
-5.374922e-05
0.001913822
-0.005778735
0.005724986
-0.0100915
0.004312769
-0.01249258
0.002401073
-0.01375144
0.001258865
-0.01450378
0.0007523351
-0.01500406
0.0005002871
-0.0153449
0.0003408318
-0.01557364
0.000228741
-0.01562159
4.795577e-05
-0.01559314
-2.845091e-05
-0.01552819
-6.495156e-05
-0.01541986
-0.0001083269
-0.01529841
-0.0001214566
-0.01512008
-0.0001783241
-0.0149034
-0.0002166838
-0.01462976
-0.0002736378
-0.01433419
-0.00029557
-0.01402336
-0.0003108347
-0.01365961
-0.0003637456
-0.01327795
-0.0003816587
-0.01288993
-0.0003880244
-0.01243829
-0.0004516407
-0.01196524
-0.000473042
-0.01146825
-0.0004969898
-0.0109661
-0.0005021551
-0.01044403
-0.000522067
-0.009872922
-0.00057111
-0.009311039
-0.0005618831
-0.008708924
-0.0006021151
-0.008089563
-0.0006193611
-0.007466387
-0.0006231767
-0.006836091
-0.0006302953
-0.006174905
-0.0006611862
-0.005513351
-0.0006615543
-0.004845447
-0.0006679039
-0.004166269
-0.0006791777
-0.003492923
-0.0006733457
-0.002839487
-0.0006534365
-0.002152766
-0.0006867207
-0.001484716
-0.0006680505
-0.0008250569
-0.0006596589
-9.278766e-05
-0.0007322692
0.0007023663
-0.000795154
0.001434513
-0.0007321471
0.002141774
-0.0007072603
0.002836871
-0.0006950973
0.00351407
-0.0006771991
0.004189778
-0.0006757082
0.004845466
-0.0006556873
0.005512419
-0.0006669532
0.006159027
-0.0006466083
0.006771013
-0.0006119857
0.007386449
-0.0006154357
0.007988536
-0.0006020871
0.008567398
-0.0005788626
0.009141889
-0.0005744912
0.009701004
-0.0005591145
0.0102068
-0.0005057996
0.01070647
-0.0004996639
0.01118979
-0.0004833233
0.01163176
-0.0004419666
0.01207253
-0.0004407684
0.01246114
-0.0003886159
0.01282118
-0.0003600393
0.01314129
-0.0003201042
0.01341758
-0.0002762982
0.01368649
-0.0002689076
0.01391646
-0.0002299701
0.01410515
-0.0001886936
0.01424915
-0.0001439934
0.01434781
-9.86624e-05
0.0144111
-6.328736e-05
0.01439933
1.176363e-05
0.01433102
6.831255e-05
0.01414553
0.0001854953
0.01375686
0.0003886662
0.01313435
0.0006225063
0.01213411
0.001000249
0.01029614
0.001837965
0.006790872
0.003505268
0.001850473
0.004940399
-0.002013741
0.003864214
-0.004571851
0.00255811
-0.006271881
0.001700031
-0.005001625
-0.001270257
-0.001430637
-0.003570987
0.003161116
-0.004591753
0.004958001
-0.001796886
-0.002552483
0.007510484
-0.01044671
0.007894225
-0.01101266
0.0005659543
-0.007822279
-0.003190382
-0.004798327
-0.003023952
-0.002787652
-0.002010675
-0.0009554559
-0.001832197
0.001524159
-0.002479615
0.002947606
-0.001423446
0.002221838
0.0007257676
0.001084101
0.001137737
0.000201511
0.0008825895
-0.0002618419
0.0004633529
-0.0002800417
1.819983e-05
8.217917e-06
-0.0002882596
0.0005124738
-0.0005042558
0.001742881
-0.001230408
0.002640059
-0.0008971776
0.003053759
-0.0004137002
0.002763414
0.0002903455
0.001840036
0.0009233774
0.0006703963
0.00116964
0.0003119361
0.0003584602
0.000817403
-0.0005054669
0.001286245
-0.0004688422
0.001754092
-0.0004678468
0.002512976
-0.0007588842
0.003455238
-0.0009422614
0.00443682
-0.0009815823
0.005338095
-0.000901275
0.006138755
-0.0008006602
-0.000571424
0.009080155
-0.008578261
-0.0008317449
0.009337053
-0.0002176306
0.009344232
0.0007128608
0.008644204
0.002557272
0.005816213
0.006038547
0.0008243317
0.007861923
-0.002851387
0.004376854
-0.003858344
-0.0002724592
-0.005159924
0.001983463
-0.007009084
0.004820586
-0.006545268
0.0003123365
-0.004783891
-0.003042412
-0.002785135
-0.003931324
-0.001892958
-0.001993148
-0.0009798999
-0.001802335
0.0007244388
-0.002775783
0.003369418
-0.004451104
0.006273495
-0.005187067
0.008355387
-0.00376165
0.009134988
-0.0009766331
0.007883955
0.003602524
0.002306686
0.01020695
-0.005113444
0.01180632
-0.006461038
0.001304352
-0.002339344
-0.007647375
0.0004558773
-0.005906886
0.001516897
-0.002416546
0.001923105
-0.001144987
0.003093535
-0.002659214
0.006275863
-0.006143786
0.009688425
-0.006149183
0.009851741
0.002179226
0.004264686
0.01313489
-0.001530037
0.009588092
-0.005070382
0.001841415
-0.009286659
0.001698685
-0.0140929
0.006720065
-0.01896457
0.01059665
-0.02168888
0.007037076
-0.0223882
0.003100392
-0.02256428
0.00143495
-0.02258247
0.0007705183
-0.02253574
0.0004535589
-0.02245073
0.0002558263
-0.02234303
0.0001210389
-0.02213209
-0.0001629874
-0.0219059
-0.0002546399
-0.02166185
-0.0003089957
-0.02137313
-0.0003970528
-0.02107216
-0.0004224272
-0.02071207
-0.0005384075
-0.02031422
-0.0006145421
-0.01985461
-0.0007332422
-0.01937187
-0.0007783145
-0.01888001
-0.0008026942
-0.01833097
-0.000912785
-0.01775976
-0.0009528684
-0.01718653
-0.0009612498
-0.01654012
-0.001098052
-0.01587366
-0.001139498
-0.0151795
-0.001191156
-0.01447873
-0.00120292
-0.01376083
-0.001239971
-0.0129845
-0.001347439
-0.01222051
-0.001325871
-0.01141465
-0.001407981
-0.01058661
-0.001447394
-0.009757463
-0.001452329
-0.008924468
-0.00146329
-0.008053743
-0.001531911
-0.007181665
-0.001533633
-0.006305065
-0.001544504
-0.005416313
-0.00156793
-0.004536664
-0.001552994
-0.003679254
-0.001510847
-0.002787492
-0.001578482
-0.001915053
-0.00154049
-0.001048508
-0.001526203
-0.0001003353
-0.001680442
0.0009199174
-0.001815407
0.001870743
-0.001682972
0.002792653
-0.00162917
0.003697354
-0.001599799
0.004583326
-0.00156317
0.00546891
-0.001561293
0.006331557
-0.001518334
0.007207231
-0.001542627
0.008060668
-0.001500045
0.008872387
-0.001423705
0.009690263
-0.001433312
0.01049685
-0.001408678
0.01127466
-0.001356665
0.01204792
-0.001347757
0.01280867
-0.001319865
0.01350627
-0.001203401
0.01420114
-0.001194534
0.01487788
-0.001160063
0.01550853
-0.001072608
0.01613997
-0.001072213
0.01671047
-0.0009591193
0.01725618
-0.0009057407
0.01775744
-0.0008213697
0.0182108
-0.0007296599
0.01866279
-0.0007208931
0.01907378
-0.0006409633
0.01944003
-0.0005549394
0.01976113
-0.0004650947
0.02003593
-0.0003734673
0.02027811
-0.0003054593
0.02046154
-0.0001716681
0.02065162
-0.000121773
0.02081561
2.15105e-05
0.02088339
0.0003208815
0.0208771
0.0006287996
0.02076819
0.001109161
0.02034318
0.002262975
0.01854984
0.005298605
0.01352672
0.009963515
0.005137366
0.01225357
-0.00184169
0.009537166
-0.002172227
0.002030568
0.0006097946
-0.004052278
0.00187328
-0.004834472
0.004372996
-0.007091469
0.002845586
-0.0002694755
-0.006983808
0.01733988
-0.01290907
0.01381949
-0.01157714
-0.0007659814
-0.008182286
-0.006585233
-0.004841175
-0.006365063
-0.002701268
-0.004150582
-0.0009233116
-0.003610153
0.00190339
-0.005306317
0.004277274
-0.00379733
0.003359613
0.001643429
0.001206311
0.003291039
-0.0001049885
0.002193889
-0.0006824986
0.001040863
-0.0006478514
-1.644727e-05
4.950041e-05
-0.0009856114
0.001038782
-0.001493538
0.002764144
-0.002955769
0.004156449
-0.002289482
0.004984272
-0.001241523
0.00501884
0.0002557772
0.004374029
0.001568189
0.003115351
0.002428318
0.001808541
0.00166527
0.001258958
4.411608e-05
0.001436336
-0.0006462199
0.002085837
-0.001117348
0.003123547
-0.001796595
0.004339631
-0.002158345
0.005586954
-0.002228905
0.006742596
-0.002056917
0.007785202
-0.001843266
-0.001364484
0.01099669
-0.01037588
-0.001452554
0.01123895
-0.0004598921
0.01107984
0.0008719653
0.01069546
0.002941652
0.009386543
0.007347467
0.005207596
0.01204087
-0.0005197074
0.01010416
-0.004683736
0.00389157
-0.006592821
0.003892548
-0.007815613
0.006043379
-0.007214386
-0.000288891
-0.005225136
-0.005031662
-0.002621354
-0.006535106
-0.001539496
-0.003075006
-0.0005798767
-0.002761955
0.001463584
-0.004819244
0.004582002
-0.007569522
0.007816528
-0.008421593
0.01014509
-0.006090215
0.01085471
-0.001686247
0.009772916
0.004684317
0.005176532
0.01480333
-0.003398206
0.02038106
-0.007153076
0.005059221
-0.004413397
-0.01038705
-0.002736766
-0.007583516
-0.002930503
-0.002222808
-0.003350032
-0.0007254585
-0.001903707
-0.00410554
0.001789596
-0.009837089
0.00555756
-0.009917147
0.006615542
0.001121244
0.002848055
0.01690238
-0.00711511
0.01955126
-0.01696265
0.01168896
-0.02286572
0.007601751
-0.02559302
0.009447368
-0.02659669
0.01160033
-0.02647067
0.006911053
-0.02633177
0.002961492
-0.02641301
0.001516186
-0.02647776
0.0008352682
-0.02651083
0.0004866341
-0.02649771
0.0002427002
-0.02645058
7.39138e-05
-0.02624403
-0.0003695357
-0.02599171
-0.0005069602
-0.02571431
-0.0005864019
-0.02538333
-0.0007280339
-0.0250398
-0.0007659506
-0.02462252
-0.0009556902
-0.02416129
-0.001075775
-0.0236243
-0.001270229
-0.02305948
-0.00134314
-0.02248462
-0.001377551
-0.02183824
-0.001559166
-0.02116523
-0.001625873
-0.02049132
-0.001635165
-0.01972663
-0.001862737
-0.01893804
-0.001928088
-0.01811577
-0.002013428
-0.01728518
-0.002033507
-0.01643393
-0.002091225
-0.01551017
-0.002271196
-0.01460265
-0.002233391
-0.01364208
-0.002368553
-0.01265484
-0.002434633
-0.01166525
-0.00244192
-0.01067028
-0.002458263
-0.009628921
-0.002573265
-0.008585095
-0.002577458
-0.007534248
-0.002595351
-0.006468418
-0.002633759
-0.005411484
-0.002609928
-0.004380085
-0.002542247
-0.003309226
-0.00264934
-0.002261841
-0.002587876
-0.001223308
-0.002564736
-9.669539e-05
-0.002807055
0.001111234
-0.003023336
0.002246505
-0.002818243
0.003349107
-0.002731772
0.004430223
-0.002680916
0.005489136
-0.002622083
0.006547
-0.002619158
0.007576719
-0.002548053
0.008621881
-0.002587789
0.009639558
-0.002517721
0.01060717
-0.002391315
0.01158199
-0.002408134
0.01254221
-0.002368899
0.01346756
-0.002282018
0.01438776
-0.00226795
0.01529171
-0.002223816
0.01611915
-0.002030844
0.01694385
-0.00201923
0.01774599
-0.001962208
0.01849156
-0.00181818
0.01923985
-0.001820496
0.01991277
-0.001632039
0.02055689
-0.00154986
0.0211467
-0.001411182
0.02167733
-0.001260289
0.02220791
-0.001251477
0.02268711
-0.001120161
0.02311398
-0.0009818078
0.02348576
-0.0008368734
0.02380217
-0.0006898825
0.02407961
-0.0005828979
0.02427899
-0.000371044
0.02446231
-0.0003050985
0.02458354
-9.972264e-05
0.02457555
0.000328872
0.02449494
0.0007094099
0.02439126
0.001212842
0.02437997
0.002274269
0.02454813
0.005130442
0.02337413
0.01113752
0.01816023
0.01746747
0.01210875
0.01558865
0.009774149
0.004365165
0.01021257
-0.004490695
0.00940561
-0.004027516
0.006786143
-0.004472003
0.000277096
0.006239572
-0.008544411
0.02616138
-0.01304178
0.01831686
-0.01162895
-0.002178812
-0.007526278
-0.01068791
-0.00378362
-0.01010772
-0.001625311
-0.00630889
-0.0001858366
-0.005049628
0.002168644
-0.007660798
0.004487602
-0.006116287
0.003370532
0.002760498
0.001071431
0.00559014
-0.000265633
0.003530953
-0.00105653
0.00183176
-0.001148667
7.569033e-05
-0.0003876954
-0.001746583
0.0007438388
-0.002625072
0.002708439
-0.00492037
0.004484715
-0.004065758
0.005790194
-0.002547002
0.006225873
-0.0001799018
0.006033345
0.001760717
0.005224746
0.003236917
0.003791636
0.00309838
0.002452168
0.001383584
0.001968538
-0.0001625893
0.002565446
-0.001714256
0.003828657
-0.003059807
0.005307134
-0.003636822
0.00680152
-0.003723292
0.008179164
-0.00343456
0.009425399
-0.003089501
-0.002314961
0.01338114
-0.01264452
-0.002189176
0.0136862
-0.0007649553
0.01344488
0.001113286
0.01272259
0.003663939
0.01194778
0.008122281
0.009517779
0.01447087
0.003596647
0.01602529
-0.003251143
0.01073936
-0.006876354
0.007517759
-0.008461751
0.007628776
-0.008052577
-0.0006980652
-0.005762767
-0.007321471
-0.002426684
-0.009871189
-0.0007078188
-0.004793872
0.0003963414
-0.003866115
0.002534164
-0.006957067
0.005947596
-0.01098295
0.009466672
-0.01194067
0.01197526
-0.008598807
0.01262163
-0.002332612
0.01124403
0.006061919
0.007488793
0.01855856
-0.0009488363
0.02881869
-0.00735719
0.01146758
-0.007517505
-0.01022674
-0.007931595
-0.007169427
-0.009289028
-0.000865375
-0.01011121
9.672529e-05
-0.008824446
-0.005392306
-0.005005022
-0.01365651
-0.001304645
-0.01361752
0.0005667425
-0.0007501437
-0.004084265
0.02155339
-0.01710393
0.03257092
-0.02816343
0.02274846
-0.03174773
0.01118605
-0.03230679
0.01000643
-0.03168505
0.01097858
-0.03139397
0.006619976
-0.03170363
0.003271153
-0.03196353
0.001776086
-0.03210176
0.0009734982
-0.03214985
0.0005347272
-0.03211874
0.0002115846
-0.03203973
-5.089861e-06
-0.03175979
-0.0006494756
-0.03143222
-0.0008345347
-0.03107448
-0.000944138
-0.03065276
-0.001149755
-0.03022003
-0.001198678
-0.02970099
-0.001474735
-0.02913087
-0.001645895
-0.02847087
-0.00193023
-0.02777808
-0.002035925
-0.02707501
-0.002080629
-0.02628825
-0.00234592
-0.0254698
-0.002444327
-0.02465093
-0.002454032
-0.02372701
-0.002786662
-0.0227725
-0.002882599
-0.02177882
-0.003007107
-0.02077664
-0.003035684
-0.01975104
-0.003116826
-0.01863719
-0.003385047
-0.01754547
-0.003325107
-0.01638906
-0.003524964
-0.0152023
-0.003621389
-0.01401165
-0.003632574
-0.01281526
-0.003654654
-0.01156318
-0.003825348
-0.01030768
-0.00383296
-0.00904257
-0.003860457
-0.007759908
-0.003916421
-0.006484073
-0.003885764
-0.005238968
-0.003787352
-0.003944939
-0.003943369
-0.002678961
-0.003853854
-0.001428564
-0.003815133
-8.817888e-05
-0.00414744
0.001342534
-0.004454049
0.002700798
-0.004176507
0.004024164
-0.004055138
0.005319652
-0.003976404
0.006587861
-0.003890292
0.007854904
-0.0038862
0.009088456
-0.003781606
0.01034311
-0.003842439
0.01156257
-0.003737183
0.01272475
-0.003553495
0.01389688
-0.003580268
0.01504968
-0.003521698
0.01616378
-0.003396122
0.01727335
-0.003377514
0.01836078
-0.003311249
0.01935993
-0.003029994
0.02035667
-0.003015972
0.02132527
-0.002930805
0.02222816
-0.002721068
0.02313505
-0.002727386
0.02395231
-0.002449303
0.02473519
-0.002332742
0.02545404
-0.002130032
0.02610527
-0.001911511
0.02675632
-0.001902528
0.02734612
-0.001709967
0.02787613
-0.001511816
0.02833933
-0.001300074
0.02874061
-0.001091159
0.02909665
-0.0009389434
0.02936021
-0.0006346042
0.02960917
-0.0005540527
0.02977971
-0.0002702621
0.02977786
0.0003307149
0.02964785
0.0008394231
0.02941642
0.001444269
0.02907468
0.00261601
0.02899992
0.005205203
0.02963043
0.01050701
0.02918997
0.01790794
0.02708505
0.01769356
0.02500893
0.006441282
0.02342506
-0.002906823
0.02032015
-0.0009226009
0.01230667
0.003541476
0.0005264124
0.01801983
-0.007775091
0.03446289
-0.01184014
0.02238191
-0.01082691
-0.003192042
-0.006170457
-0.01534436
-0.001929739
-0.01434844
0.0004443541
-0.008682984
0.001282913
-0.005888186
0.002659267
-0.009037152
0.004041737
-0.007498757
0.002827264
0.003974971
0.0009428287
0.007474576
-0.0004908029
0.004964585
-0.001655218
0.002996175
-0.001949001
0.0003694728
-0.001161933
-0.002533651
0.000199058
-0.003986063
0.002459732
-0.007181044
0.004584479
-0.006190505
0.006204602
-0.004167125
0.006917474
-0.0008927738
0.007076093
0.001602098
0.00673474
0.00357827
0.005579455
0.004253665
0.003927911
0.003035127
0.002940077
0.0008252452
0.003460474
-0.002234653
0.004967307
-0.004566639
0.006715187
-0.005384702
0.008452804
-0.005460909
0.01005391
-0.005035668
0.01152083
-0.004556415
-0.003438652
0.01638727
-0.01547831
-0.003098146
0.01676699
-0.00114467
0.01650017
0.001380104
0.01551342
0.004650685
0.01444783
0.009187873
0.01308457
0.01583413
0.008639749
0.02047011
0.0002188585
0.01916025
-0.00602142
0.01375804
-0.008637582
0.01024494
-0.008529456
-0.0008061916
-0.006178758
-0.009672169
-0.002362744
-0.0136872
0.0001337106
-0.007290326
0.0018414
-0.005573804
0.003971213
-0.00908688
0.007536274
-0.01454801
0.01135403
-0.01575842
0.01405192
-0.0112967
0.01453946
-0.002820156
0.01259248
0.008008902
0.009081313
0.02206973
0.0009946075
0.03690539
-0.00761623
0.02007841
-0.01184545
-0.005997521
-0.01507351
-0.003941369
-0.01779141
0.001852533
-0.01920049
0.001505801
-0.01855794
-0.006034854
-0.0154157
-0.01679875
-0.01074199
-0.01829124
-0.01003731
-0.001454818
-0.0174368
0.02895287
-0.02967881
0.04481293
-0.03639598
0.02946563
-0.03730943
0.0120995
-0.03762844
0.01032544
-0.03723502
0.01058516
-0.03728832
0.006673282
-0.03770338
0.003686211
-0.03798559
0.002058295
-0.03816328
0.001151188
-0.03826122
0.0006326741
-0.03824504
0.000195398
-0.03818807
-6.20618e-05
-0.0378767
-0.0009608465
-0.03751056
-0.001200673
-0.03710709
-0.001347603
-0.03661374
-0.001643109
-0.03612325
-0.001689166
-0.03551255
-0.002085437
-0.03484708
-0.002311366
-0.03406597
-0.002711333
-0.03324628
-0.002855616
-0.03241773
-0.002909184
-0.03148067
-0.003282978
-0.03050622
-0.003418776
-0.029535
-0.003425256
-0.02843396
-0.003887703
-0.0272929
-0.004023653
-0.02610578
-0.004194225
-0.02491089
-0.004230582
-0.02368754
-0.00434017
-0.02235175
-0.004720838
-0.02104973
-0.004627127
-0.01966378
-0.004910912
-0.01824457
-0.005040602
-0.01681815
-0.005058997
-0.01538669
-0.005086109
-0.01388451
-0.005327536
-0.01237798
-0.005339483
-0.01085664
-0.005381796
-0.009315987
-0.005457078
-0.007777952
-0.005423799
-0.006276438
-0.005288866
-0.004709944
-0.005509863
-0.003175243
-0.005388555
-0.001666423
-0.005323954
-7.307724e-05
-0.005740785
0.001618625
-0.006145751
0.003243193
-0.005801075
0.004830392
-0.005642336
0.006379194
-0.005525207
0.007895679
-0.005406777
0.009413808
-0.005404328
0.01089155
-0.005259344
0.01239902
-0.005349911
0.01385758
-0.005195748
0.01525329
-0.004949205
0.01666328
-0.004990257
0.01804145
-0.004899867
0.01937802
-0.00473269
0.02071402
-0.004713514
0.02201417
-0.004611399
0.02321057
-0.004226391
0.02440625
-0.004211655
0.0255643
-0.004088854
0.02664034
-0.003797113
0.02772694
-0.00381398
0.02870021
-0.003422578
0.02963203
-0.003264557
0.03048585
-0.002983849
0.03125519
-0.002680851
0.03202757
-0.002674908
0.03271911
-0.002401513
0.03334373
-0.002136437
0.03388152
-0.001837859
0.03434431
-0.00155395
0.03475731
-0.001351941
0.03504378
-0.0009210778
0.0353191
-0.0008293714
0.03549449
-0.0004456559
0.03545957
0.0003656424
0.035288
0.001010991
0.0350129
0.00171937
0.03463912
0.002989791
0.03424529
0.005599032
0.03470067
0.01005162
0.03618954
0.01641907
0.03688577
0.01699734
0.03549578
0.007831266
0.03300559
-0.0004166285
0.02941547
0.002667521
0.01921152
0.01374542
0.004377813
0.03285354
-0.004890039
0.04373074
-0.008906256
0.02639813
-0.007970306
-0.004127992
-0.003251015
-0.02006365
0.001258449
-0.0188579
0.003698236
-0.01112277
0.003859663
-0.006049613
0.003584448
-0.008761937
0.003323742
-0.007238051
0.002209501
0.005089212
0.0009047606
0.008779316
-0.0009385438
0.006807889
-0.00263926
0.004696891
-0.00322483
0.0009550424
-0.002334271
-0.00342421
-0.0005053003
-0.005815034
0.002433011
-0.01011936
0.004987085
-0.008744579
0.006760666
-0.005940706
0.007505079
-0.001637186
0.00786847
0.001238706
0.00788743
0.003559311
0.007138247
0.005002848
0.005573799
0.004599575
0.004412234
0.00198681
0.004950614
-0.002773032
0.0066558
-0.006271825
0.008600998
-0.0073299
0.01054837
-0.007408277
0.01238757
-0.006874874
0.01413009
-0.006298931
-0.004786869
0.02019181
-0.01905599
-0.004233973
0.02067086
-0.001623713
0.02038705
0.001663915
0.01926781
0.005769917
0.01770519
0.0107505
0.01635471
0.01718461
0.01342586
0.02339897
0.005333957
0.02725215
-0.003491227
0.02258322
-0.007998153
0.01475186
-0.008144516
-0.0006598283
-0.006053754
-0.01176293
-0.002212758
-0.0175282
0.0008788393
-0.01038192
0.003323284
-0.008018249
0.005659785
-0.01142338
0.009391196
-0.01827943
0.01362872
-0.01999594
0.01658728
-0.01425526
0.01681026
-0.00304314
0.01396153
0.01085764
0.00995456
0.02607669
0.002225681
0.04463427
-0.00873223
0.03103632
-0.01768893
0.002959176
-0.02391299
0.00228269
-0.02796136
0.00590091
-0.03023359
0.003778029
-0.03092982
-0.005338625
-0.02990183
-0.01782675
-0.0277846
-0.02040846
-0.02936862
0.0001292007
-0.03610278
0.03568703
-0.0423939
0.05110405
-0.04332151
0.03039324
-0.04371768
0.01249567
-0.04481601
0.01142377
-0.04483428
0.01060343
-0.04511225
0.006951247
-0.04557712
0.004151084
-0.04588469
0.002365868
-0.04606209
0.001328584
-0.04614498
0.000715567
-0.04606964
0.0001200608
-0.0459748
-0.0001569108
-0.04557879
-0.001356854
-0.04512634
-0.001653125
-0.04462193
-0.001852007
-0.04400074
-0.002264302
-0.04341179
-0.002278111
-0.04266192
-0.002835309
-0.04185773
-0.003115556
-0.04090952
-0.003659549
-0.03991507
-0.003850064
-0.03891864
-0.003905608
-0.03778483
-0.004416793
-0.03660997
-0.004593635
-0.03544655
-0.004588673
-0.03412256
-0.005211694
-0.03274578
-0.005400429
-0.03132045
-0.005619559
-0.02988614
-0.005664893
-0.02842171
-0.005804599
-0.02681164
-0.00633091
-0.02525814
-0.006180624
-0.02359228
-0.006576775
-0.02189177
-0.006741111
-0.020183
-0.006767762
-0.01847151
-0.006797606
-0.0166722
-0.007126841
-0.01487053
-0.007141152
-0.0130418
-0.007210532
-0.01119392
-0.007304957
-0.0093366
-0.007281117
-0.007531074
-0.007094391
-0.005636771
-0.007404166
-0.003769722
-0.007255604
-0.001945666
-0.00714801
-4.96733e-05
-0.007636778
0.001949384
-0.008144809
0.003896254
-0.007747945
0.005790828
-0.00753691
0.007640606
-0.007374985
0.009457344
-0.007223515
0.01127887
-0.007225858
0.01305103
-0.007031501
0.01486748
-0.007166359
0.01661208
-0.006940346
0.01829203
-0.006629155
0.0199949
-0.006693135
0.02164315
-0.006548118
0.02324706
-0.006336594
0.0248658
-0.006332257
0.02642308
-0.006168681
0.0278561
-0.005659408
0.02929576
-0.005651318
0.03068736
-0.005480452
0.03197544
-0.005085196
0.03328529
-0.005123828
0.03445624
-0.004593531
0.03557806
-0.004386371
0.03660434
-0.004010131
0.03753394
-0.003610455
0.03847285
-0.003613811
0.03930473
-0.003233394
0.04007014
-0.002901848
0.04072223
-0.002489951
0.04129256
-0.002124282
0.0418029
-0.001862283
0.04216748
-0.001285652
0.04251287
-0.001174767
0.04275633
-0.0006891127
0.04276835
0.0003536199
0.04259089
0.001188457
0.04229122
0.002019042
0.04188693
0.00339408
0.04140503
0.006080933
0.04135147
0.01010518
0.04244374
0.01532679
0.04341692
0.01602416
0.04212365
0.009124532
0.03922325
0.002483769
0.03637705
0.005513724
0.0274629
0.02265958
0.01222726
0.04808917
0.0007715453
0.05518645
-0.002697448
0.02986712
-0.001158401
-0.005667038
0.002356564
-0.02357862
0.00644152
-0.02294286
0.008386513
-0.01306776
0.007757335
-0.005420434
0.005467304
-0.006471906
0.003184947
-0.004955694
0.002018719
0.00625544
0.0008899751
0.00990806
-0.001721548
0.009419412
-0.00407603
0.007051374
-0.004866066
0.001745078
-0.003548199
-0.004742077
-0.0008112123
-0.00855202
0.00319628
-0.01412685
0.006277482
-0.01182578
0.008130735
-0.007793959
0.00863328
-0.002139731
0.008973356
0.0008986299
0.00915359
0.003379077
0.008703815
0.005452623
0.007418957
0.005884433
0.006406223
0.002999544
0.007057303
-0.003424112
0.008841518
-0.008056041
0.01088568
-0.009374066
0.0130662
-0.009588796
0.01525036
-0.00905903
0.01739876
-0.008447329
-0.006444099
0.02502957
-0.02361151
-0.005652034
0.02562938
-0.002223522
0.02531956
0.001973731
0.02407815
0.007011328
0.02215812
0.01267054
0.02021423
0.01912849
0.01796667
0.02564653
0.01184671
0.03337211
0.001719993
0.03270994
-0.00559082
0.02206268
-0.006202419
-4.822943e-05
-0.004804244
-0.01316111
-0.001466143
-0.0208663
0.001509635
-0.0133577
0.004291971
-0.01080059
0.007260276
-0.01439169
0.01156992
-0.02258907
0.01638824
-0.02481426
0.01961267
-0.01747968
0.01951583
-0.002946305
0.01535571
0.01501776
0.009843848
0.03158856
0.001746264
0.05273186
-0.01144593
0.04422852
-0.02485555
0.01636879
-0.03345217
0.01087931
-0.03855851
0.01100725
-0.04186623
0.00708575
-0.04443827
-0.002766592
-0.04651818
-0.01574683
-0.04882544
-0.01810121
-0.05253758
0.003841338
-0.05539322
0.03854267
-0.05372
0.04943084
-0.05121278
0.02788602
-0.05244081
0.0137237
-0.05370019
0.01268314
-0.0537614
0.01066465
-0.05404447
0.007234318
-0.05451435
0.004620958
-0.05485323
0.002704753
-0.05506419
0.001539546
-0.05522481
0.0008761829
-0.05512048
1.573554e-05
-0.05508701
-0.0001903816
-0.0545643
-0.001879563
-0.05404776
-0.002169668
-0.0534622
-0.002437569
-0.05269885
-0.003027649
-0.05203104
-0.002945925
-0.05111854
-0.003747806
-0.05017374
-0.004060357
-0.04903774
-0.00479555
-0.04783886
-0.005048941
-0.04665757
-0.005086901
-0.04530348
-0.005770879
-0.04389401
-0.006003106
-0.04249803
-0.005984658
-0.04092131
-0.006788413
-0.03927296
-0.007048781
-0.03756671
-0.007325809
-0.03582903
-0.00740257
-0.03410163
-0.007531995
-0.03215152
-0.008281024
-0.03030442
-0.008027722
-0.02829439
-0.008586808
-0.02626065
-0.008774847
-0.02421969
-0.008808722
-0.02214321
-0.008874087
-0.02000748
-0.009262568
-0.01786191
-0.009286721
-0.01567063
-0.009401817
-0.0134743
-0.009501282
-0.01120021
-0.009555209
-0.009054825
-0.009239779
-0.006765151
-0.00969384
-0.004485822
-0.009534934
-0.002279097
-0.009354735
-1.21243e-05
-0.00990375
0.002348728
-0.01050566
0.004684065
-0.01008328
0.006921692
-0.009774537
0.009143364
-0.009596656
0.01133382
-0.009413969
0.01351329
-0.009405332
0.01563702
-0.00915523
0.01784201
-0.009371353
0.01993474
-0.00903307
0.02194606
-0.008640475
0.02399165
-0.008738724
0.02598371
-0.008540184
0.02791162
-0.008264502
0.02984399
-0.008264624
0.03171512
-0.008039809
0.03342639
-0.007370676
0.03515046
-0.007375391
0.03679851
-0.007128508
0.03835582
-0.0066425
0.03992818
-0.00669619
0.04132177
-0.005987118
0.0426779
-0.005742505
0.04389062
-0.005222848
0.04500339
-0.004723225
0.04613365
-0.004744067
0.04711013
-0.004209884
0.04803645
-0.003828161
0.04879526
-0.003248766
0.0494777
-0.002806715
0.05009419
-0.00247878
0.05050474
-0.001696204
0.05092792
-0.001597946
0.05120658
-0.0009677692
0.05116742
0.0003927777
0.05095605
0.001399825
0.05060885
0.002366244
0.05019243
0.003810499
0.04975989
0.006513475
0.0496889
0.01017617
0.05034725
0.01466844
0.05074866
0.01562276
0.04917979
0.01069341
0.04580624
0.005857316
0.04319348
0.008126485
0.03718979
0.02866327
0.0248207
0.06045827
0.01385269
0.06615446
0.00726383
0.03645598
0.008186606
-0.006589814
0.01179122
-0.02718323
0.01446076
-0.02561239
0.01513797
-0.01374497
0.01336159
-0.003644058
0.009154358
-0.002264675
0.004666849
-0.0004681853
0.002599241
0.008323048
0.0007055477
0.01180175
-0.002937445
0.0130624
-0.00590956
0.01002349
-0.00662961
0.002465128
-0.004530229
-0.006841457
-0.0005172473
-0.012565
0.004792682
-0.01943678
0.008418934
-0.01545203
0.01046877
-0.00984379
0.01070909
-0.002380058
0.01095511
0.0006526088
0.01105415
0.003280043
0.01058301
0.005923755
0.009489248
0.0069782
0.008809271
0.003679521
0.009599574
-0.004214414
0.01132639
-0.009782857
0.01348649
-0.01153416
0.01608775
-0.01219006
0.01885996
-0.01183125
0.02158633
-0.01117369
-0.008469281
0.03112127
-0.02936233
-0.007410975
0.03186167
-0.002963917
0.03152612
0.00230928
0.03010396
0.008433484
0.02797809
0.01479641
0.02545292
0.02165366
0.02295884
0.0281406
0.01889555
0.0374354
0.01012568
0.04147981
0.0005821324
0.03160623
-0.001335164
0.001869067
-0.001605354
-0.01289092
0.0001452834
-0.02261694
0.002354556
-0.01556697
0.004528871
-0.0129749
0.008609533
-0.01847235
0.01398565
-0.02796519
0.01923119
-0.0300598
0.02246286
-0.02071136
0.02206828
-0.002551726
0.01682758
0.02025845
0.009441113
0.03897503
1.32302e-05
0.06215974
-0.01628683
0.06052858
-0.0331955
0.03327746
-0.0424552
0.02013901
-0.04819007
0.01674212
-0.05244184
0.01133752
-0.05663245
0.001424019
-0.06108089
-0.01129839
-0.06659862
-0.01258348
-0.07125069
0.008493407
-0.07072756
0.03801954
-0.06454002
0.0432433
-0.06161285
0.02495885
-0.0634483
0.01555915
-0.06451026
0.0137451
-0.0647273
0.01088169
-0.06506717
0.00757419
-0.06559853
0.005152312
-0.06596829
0.00307451
-0.06611477
0.001686031
-0.066366
0.001127416
-0.06611909
-0.0002311765
-0.06604889
-0.0002605824
-0.06549134
-0.002437114
-0.06483157
-0.002829438
-0.06419302
-0.00307612
-0.06318198
-0.004038685
-0.06242982
-0.003698086
-0.06131886
-0.004858767
-0.06021453
-0.005164686
-0.05882952
-0.006180565
-0.05735886
-0.0065196
-0.0559665
-0.00647926
-0.05437438
-0.007363002
-0.05261644
-0.007761037
-0.05095011
-0.007650995
-0.04908704
-0.008651479
-0.04712977
-0.009006056
-0.04504342
-0.009412151
-0.04293872
-0.00950727
-0.04096644
-0.009504276
-0.03853876
-0.01070871
-0.03637672
-0.01018976
-0.03388975
-0.01107379
-0.03151482
-0.01114978
-0.02906525
-0.01125829
-0.02653799
-0.01140134
-0.0240264
-0.01177416
-0.02143212
-0.011881
-0.01880102
-0.01203291
-0.01622428
-0.01207802
-0.01343934
-0.01234015
-0.01094069
-0.01173843
-0.008128677
-0.01250585
-0.00536454
-0.01229907
-0.002692052
-0.01202722
4.347832e-05
-0.01263928
0.002875222
-0.0133374
0.005582847
-0.01279091
0.008229447
-0.01242114
0.01093268
-0.01229989
0.01359354
-0.01207483
0.016215
-0.01202679
0.01873458
-0.01167481
0.02145029
-0.01208706
0.02394248
-0.01152526
0.02636232
-0.01106032
0.02880195
-0.01117835
0.03120202