/*--------------------------------*- C++ -*----------------------------------*\
| =========                 |                                                 |
| \\      /  F ield         | OpenFOAM: The Open Source CFD Toolbox           |
|  \\    /   O peration     | Version:  2406                                  |
|   \\  /    A nd           | Website:  www.openfoam.com                      |
|    \\/     M anipulation  |                                                 |
\*---------------------------------------------------------------------------*/
FoamFile
{
    version     2.0;
    format      ascii;
    arch        "LSB;label=32;scalar=64";
    class       volScalarField;
    location    "1.22";
    object      p;
}
// * * * * * * * * * * * * * * * * * * * * * * * * * * * * * * * * * * * * * //

dimensions      [0 2 -2 0 0 0 0];

internalField   nonuniform List<scalar> 
217010
(
-28.62733
-0.1268333
-6.130775
-5.713303
-3.84364
-2.477219
-2.315221
-2.939005
-3.1382
-2.994407
-2.805493
-2.694378
-2.704467
-2.888558
-3.04086
-3.893338
-6.063949
-10.09413
-14.78801
-16.55989
-13.14081
-7.541898
-9.030765
-9.62216
-7.61205
-8.072966
-9.994281
-12.47756
-14.54752
-14.58149
-13.62844
-13.85888
-14.56335
-15.16055
-15.63131
-17.43137
-19.50423
-21.69559
-24.29688
-27.60318
-31.50293
-35.3385
-38.71802
-41.29131
-42.47398
-41.29186
-40.24501
-43.45697
-40.7269
-37.31672
-37.0301
-39.00885
-40.74399
-43.6001
-47.2849
-50.98821
-51.81803
-47.85964
-43.67565
-44.85842
-46.83348
-48.28259
-49.74551
-51.06848
-52.24556
-53.23792
-54.46537
-56.81182
-60.85559
-65.02932
-64.86228
-61.16268
-61.25698
-63.62761
-65.31729
-66.83628
-68.2886
-70.05334
-72.63236
-75.60964
-77.36748
-77.99199
-79.1144
-80.98368
-83.05205
-85.09397
-87.1302
-89.28876
-91.58258
-93.87144
-96.43898
-99.114
-101.7664
-104.6301
-107.6063
-110.6669
-113.9354
-117.1224
-120.499
-124.0295
-127.6835
-131.3823
-135.0821
-138.8379
-142.5051
-146.1828
-149.7563
-153.0184
-156.1672
-159.2172
-162.0252
-164.4044
-166.5074
-168.3843
-169.9216
-171.2029
-172.2688
-173.0365
-173.5159
-173.773
-173.7901
-173.6185
-173.3026
-172.8362
-172.2087
-171.4717
-170.6649
-169.8271
-168.9623
-168.1487
-167.4002
-166.7026
-166.0546
-165.5058
-165.1043
-164.8473
-164.7748
-164.9086
-165.2115
-165.6953
-166.3632
-167.1763
-168.0552
-168.9477
-169.7589
-170.3441
-170.6995
-170.5549
-167.6527
-190.0158
-133.1429
-132.067
-127.1939
-126.7531
-127.1801
-128.4855
-130.3567
-132.4174
-133.5066
-134.9802
-135.1557
-134.5707
-133.2218
-131.3867
-129.1688
-127.1795
-125.8396
-124.9637
-124.9049
-125.6074
-126.3088
-127.4612
-128.7091
-129.4881
-129.7396
-129.6049
-129.2411
-128.7847
-128.3117
-127.919
-127.6664
-127.6416
-127.8835
-128.0963
-128.1928
-128.4141
-129.0468
-129.3714
-129.4788
-128.3547
-129.127
-131.7737
-133.7705
-133.513
-131.9595
-136.2205
-135.9776
-137.3615
-132.0094
-202.5878
-106.8205
-91.43228
-75.92526
-66.7631
-59.13615
-52.88311
-47.53718
-42.7509
-38.59165
-34.84934
-31.45982
-28.37161
-25.47455
-22.74237
-20.18749
-17.82761
-15.62681
-13.51569
-11.49712
-9.568689
-7.728697
-5.98631
-4.335697
-2.716871
-1.137219
0.4077365
1.890696
3.288594
4.639756
5.971325
7.284806
8.569939
9.796547
10.99057
12.17343
13.33322
14.47976
15.61089
16.74457
17.8364
18.93795
19.99346
21.03987
22.07239
23.10055
24.10917
25.09823
26.0901
27.09919
28.10594
29.08892
30.05465
31.01758
32.00745
33.00926
33.99761
34.99018
35.99132
36.99546
38.01207
39.02691
40.03856
41.1018
42.25978
43.42799
44.55678
45.75539
47.14378
48.61538
49.73593
50.99012
56.62899
55.00814
54.28195
53.62529
52.94922
52.27793
51.60265
50.96501
50.39882
49.86689
49.30604
48.73308
48.17944
47.65461
47.142
46.63014
46.114
45.60121
45.10629
44.61871
44.1231
43.6295
43.1459
42.65567
42.17229
41.67994
41.17028
40.67085
40.18654
39.7019
39.20765
38.67767
38.19178
37.67779
37.15088
36.6291
36.10992
35.57304
35.02872
34.48837
33.93946
33.36827
32.77574
32.18556
31.60146
31.00285
30.38139
29.7456
29.0885
28.41293
27.72571
27.01904
26.30969
25.56341
24.78035
23.98083
23.14344
22.27647
21.36081
20.38893
19.37716
18.31557
17.15855
15.94555
14.55518
13.09495
11.4894
9.573274
7.655203
4.039502
4.102344
56.48423
55.16322
54.3744
53.70735
53.03171
52.35692
51.67694
51.03124
50.45722
49.92143
49.3592
48.78386
48.2263
47.69771
47.18247
46.66863
46.15063
45.63551
45.13828
44.64883
44.1517
43.65642
43.17122
42.67945
42.19487
41.70151
41.19085
40.68986
40.20403
39.71824
39.22342
38.69116
38.20587
37.68998
37.16214
36.63942
36.11939
35.58157
35.03645
34.49525
33.94555
33.37338
32.77986
32.18887
31.60407
31.00448
30.38216
29.74563
29.08742
28.41066
27.72227
27.01433
26.30424
25.55586
24.77113
23.97016
23.13048
22.26175
21.34313
20.36817
19.35399
18.2891
17.12892
15.91192
14.50913
13.04465
11.42801
9.503136
7.538757
3.990057
3.286449
-109.0403
-91.91898
-76.40743
-67.05754
-59.37127
-53.06763
-47.69008
-42.86561
-38.68954
-34.93344
-31.52989
-28.43176
-25.52625
-22.78577
-20.22275
-17.85593
-15.65078
-13.53525
-11.51228
-9.579918
-7.736463
-5.99046
-4.337711
-2.71686
-1.135059
0.4120262
1.897548
3.29722
4.650137
5.98359
7.299048
8.586126
9.814606
11.01022
12.19506
13.35663
14.50523
15.63868
16.77522
17.86803
18.97181
20.02942
21.07816
22.11292
23.14312
24.15391
25.14545
26.14044
27.15248
28.16171
29.14679
30.11538
31.08227
32.07618
33.08166
34.07345
35.07006
36.07539
37.08417
38.10503
39.12446
40.14429
41.21965
42.38715
43.5605
44.69909
45.91924
47.32636
48.77719
49.9134
51.3843
-135.8419
-132.3502
-127.4891
-126.7563
-127.1076
-128.3413
-130.1785
-132.2701
-133.3932
-134.892
-135.154
-134.6168
-133.3143
-131.5021
-129.2826
-127.2656
-125.8882
-124.9794
-124.8959
-125.5845
-126.2768
-127.4266
-128.6849
-129.4782
-129.739
-129.6099
-129.2473
-128.7905
-128.3158
-127.9209
-127.6675
-127.6426
-127.8842
-128.0957
-128.1921
-128.4143
-129.05
-129.3748
-129.4778
-128.3577
-129.1575
-131.8338
-133.8119
-133.4836
-132.0052
-136.3303
-136.0091
-137.3204
-133.7837
-188.4698
-36.91606
-38.77522
-40.45637
-43.22067
-46.86439
-50.71628
-51.94889
-48.29856
-43.85007
-44.73597
-46.68533
-48.16263
-49.62837
-50.96602
-52.15615
-53.15048
-54.34289
-56.61604
-60.6221
-64.92739
-64.97175
-61.26927
-61.20424
-63.54001
-65.2408
-66.76953
-68.22044
-69.97224
-72.53905
-75.52356
-77.32889
-77.9581
-79.07013
-80.92915
-82.99531
-85.04251
-87.0806
-89.24041
-91.53767
-93.83053
-96.40104
-99.07724
-101.7358
-104.6019
-107.5813
-110.6468
-113.9194
-117.1096
-120.492
-124.0262
-127.6851
-131.3892
-135.0945
-138.8569
-142.5289
-146.2142
-149.7934
-153.0565
-156.2115
-159.2666
-162.0756
-164.452
-166.556
-168.43
-169.9612
-171.2379
-172.3021
-173.0584
-173.5327
-173.7828
-173.7921
-173.615
-173.2941
-172.8183
-172.181
-171.4368
-170.6244
-169.7819
-168.9134
-168.1003
-167.3521
-166.6543
-166.0083
-165.4664
-165.0742
-164.8281
-164.7706
-164.9191
-165.2414
-165.7424
-166.4312
-167.2606
-168.1508
-169.0462
-169.8492
-170.4147
-170.7201
-170.4044
-169.0146
-183.1746
-25.20521
-0.7195683
-6.030431
-5.781404
-3.915947
-2.500038
-2.314789
-2.933018
-3.138675
-2.996654
-2.806702
-2.694173
-2.70336
-2.887248
-3.037234
-3.890517
-6.065475
-10.11423
-14.84976
-16.64079
-13.16375
-7.524145
-9.043938
-9.624274
-7.61862
-8.111147
-10.05422
-12.55296
-14.60573
-14.57834
-13.60986
-13.87133
-14.59561
-15.18755
-15.68561
-17.53695
-19.62968
-21.84485
-24.49062
-27.86213
-31.81147
-35.65619
-39.02402
-41.55803
-42.57469
-41.23336
-40.351
-43.43561
-40.3604
-37.00668
-20.65801
-0.9825266
-5.88544
-5.837024
-3.984123
-2.526945
-2.320779
-2.936591
-3.145373
-2.999272
-2.807259
-2.693608
-2.702047
-2.886918
-3.032152
-3.889261
-6.072967
-10.15894
-14.94306
-16.81397
-13.38509
-7.641444
-9.120423
-9.689559
-7.664529
-8.174528
-10.11922
-12.61266
-14.65034
-14.58293
-13.60197
-13.87861
-14.60203
-15.20275
-15.73
-17.6065
-19.6906
-21.91688
-24.59746
-28.00834
-31.97079
-35.79758
-39.1258
-41.62179
-42.72691
-41.33132
-40.55165
-43.60116
-40.24848
-36.72366
-36.83446
-38.66524
-40.33179
-43.03654
-46.67854
-50.71449
-52.20058
-48.71308
-43.91636
-44.67143
-46.61639
-48.11244
-49.5855
-50.9291
-52.13403
-53.1259
-54.284
-56.5017
-60.50571
-64.97386
-65.17145
-61.34176
-61.15452
-63.47957
-65.21098
-66.74777
-68.20064
-69.94401
-72.49536
-75.50659
-77.32396
-77.93409
-79.03952
-80.91047
-82.98286
-85.02561
-87.06678
-89.22867
-91.52797
-93.81426
-96.38203
-99.06437
-101.7202
-104.5888
-107.5701
-110.6369
-113.914
-117.1022
-120.4905
-124.0258
-127.6894
-131.3978
-135.105
-138.8713
-142.5436
-146.2326
-149.8112
-153.0722
-156.2302
-159.2843
-162.0885
-164.4591
-166.563
-168.4342
-169.9641
-171.245
-172.3084
-173.0664
-173.5368
-173.7847
-173.7885
-173.6086
-173.2848
-172.8036
-172.1601
-171.4144
-170.6022
-169.76
-168.8909
-168.0816
-167.335
-166.6383
-165.9954
-165.459
-165.071
-164.8293
-164.7805
-164.9376
-165.2668
-165.7766
-166.4645
-167.2961
-168.1841
-169.0762
-169.8695
-170.413
-170.7011
-170.348
-169.2574
-178.1498
-136.6812
-132.7063
-127.7087
-126.789
-127.0777
-128.2774
-130.104
-132.2357
-133.3659
-134.9345
-135.2151
-134.6783
-133.3935
-131.5747
-129.3374
-127.2907
-125.9062
-124.9807
-124.8814
-125.5712
-126.2565
-127.4111
-128.6768
-129.4808
-129.745
-129.6172
-129.2532
-128.793
-128.3157
-127.9208
-127.6684
-127.6458
-127.8898
-128.0992
-128.1934
-128.4138
-129.0585
-129.3821
-129.4898
-128.368
-129.1988
-131.9037
-133.8699
-133.4397
-132.0386
-136.4775
-135.9545
-137.239
-134.4454
-173.9237
-108.6268
-92.23242
-76.63558
-67.21262
-59.48646
-53.15526
-47.75585
-42.93358
-38.72983
-34.97013
-31.55958
-28.45768
-25.54991
-22.80551
-20.2388
-17.86783
-15.66289
-13.54549
-11.5207
-9.586415
-7.741864
-5.993199
-4.340849
-2.718795
-1.135592
0.4126684
1.900726
3.300301
4.652952
5.986954
7.303216
8.592127
9.821077
11.01565
12.20157
13.36334
14.51383
15.64797
16.7823
17.8784
18.97936
20.03845
21.08827
22.12289
23.15406
24.1654
25.15647
26.15096
27.16474
28.17613
29.16092
30.12945
31.0951
32.09036
33.09874
34.09032
35.08679
36.09452
37.10354
38.12559
39.14641
40.1667
41.2408
42.41465
43.59165
44.72784
45.95386
47.36444
48.8172
49.98271
51.57377
56.32938
55.24129
54.40629
53.72546
53.05204
52.3781
51.69273
51.0436
50.47147
49.93829
49.37332
48.79578
48.23618
47.70759
47.19236
46.67886
46.15953
45.64299
45.14652
44.65737
44.159
43.66357
43.17875
42.68562
42.20253
41.70835
41.19545
40.69449
40.20909
39.72347
39.22673
38.69729
38.21039
37.69505
37.1659
36.64294
36.12299
35.58387
35.03865
34.49791
33.94836
33.37514
32.78053
32.18947
31.60524
31.005
30.3823
29.74549
29.08621
28.40884
27.71991
27.01148
26.30218
25.55222
24.76668
23.96607
23.12462
22.25632
21.33567
20.35966
19.3452
18.27961
17.11861
15.89051
14.49335
13.02391
11.40221
9.470687
7.495197
3.938185
3.105957
56.10953
55.31997
54.48882
53.79654
53.13059
52.46109
51.77272
51.11907
50.54111
50.00279
49.43432
48.85497
48.29267
47.76038
47.24207
46.72557
46.20405
45.68479
45.18643
44.6942
44.19324
43.69617
43.20956
42.71392
42.23049
41.73413
41.21857
40.71769
40.23078
39.74407
39.2449
38.71702
38.22501
37.7107
37.17926
36.65568
36.1353
35.59367
35.04808
34.50706
33.95696
33.38144
32.78513
32.19368
31.60986
31.00788
30.38433
29.74688
29.08568
28.40732
27.71728
27.00744
26.29906
25.54543
24.7579
23.95739
23.11199
22.24374
21.31853
20.33935
19.32335
18.25523
17.08936
15.85477
14.45644
12.97641
11.34374
9.406128
7.384815
3.892311
2.870849
-108.742
-92.51171
-77.04855
-67.47271
-59.70728
-53.3245
-47.89003
-43.04189
-38.82609
-35.04957
-31.62391
-28.51373
-25.59868
-22.84531
-20.27052
-17.89057
-15.68387
-13.56156
-11.53241
-9.593927
-7.746785
-5.992875
-4.341214
-2.716718
-1.130657
0.4197354
1.91291
3.313758
4.66726
6.0025
7.320639
8.613264
9.845034
11.03932
12.22807
13.3912
14.54575
15.68267
16.81475
17.92469
19.02129
20.08243
21.13514
22.17267
23.20583
24.22077
25.21474
26.21272
27.22932
28.24424
29.23179
30.20433
31.17439
32.1728
33.1865
34.18204
35.18332
36.19544
37.20986
38.23648
39.26451
40.29627
41.38247
42.5629
43.74618
44.89454
46.13767
47.53976
48.96331
50.17356
51.84628
-138.8828
-133.1966
-128.0491
-126.8392
-127.039
-128.1696
-129.9555
-132.1128
-133.2685
-134.8246
-135.1748
-134.7391
-133.4888
-131.6889
-129.4292
-127.3601
-125.9509
-124.9817
-124.858
-125.5456
-126.2171
-127.3857
-128.6711
-129.4861
-129.7582
-129.6302
-129.2628
-128.7977
-128.3172
-127.9194
-127.6689
-127.6516
-127.901
-128.1106
-128.2044
-128.4202
-129.0772
-129.3938
-129.511
-128.3904
-129.2615
-132.0262
-133.9783
-133.3647
-132.0648
-136.7204
-135.8468
-137.0773
-136.1474
-164.1962
-36.65923
-38.43595
-40.0695
-42.6897
-46.29362
-50.45546
-52.48291
-49.24527
-44.11209
-44.54485
-46.47106
-47.98247
-49.4598
-50.81261
-52.02741
-53.0393
-54.18293
-56.33611
-60.28996
-64.8802
-65.37716
-61.47548
-61.11185
-63.37099
-65.12081
-66.68424
-68.15758
-69.91139
-72.42492
-75.38538
-77.24811
-77.92481
-79.02693
-80.86638
-82.90882
-84.96411
-87.01787
-89.1744
-91.48107
-93.7738
-96.34022
-99.0279
-101.6902
-104.5603
-107.5458
-110.6178
-113.9011
-117.089
-120.4882
-124.024
-127.695
-131.4098
-135.1205
-138.8958
-142.5698
-146.2706
-149.8571
-153.1154
-156.2838
-159.3448
-162.1588
-164.5245
-166.6388
-168.5143
-170.0302
-171.3011
-172.3595
-173.1022
-173.5658
-173.8056
-173.7977
-173.6115
-173.2825
-172.7932
-172.1405
-171.3899
-170.5725
-169.7259
-168.8494
-168.0409
-167.2925
-166.593
-165.9484
-165.4179
-165.0367
-164.8002
-164.7684
-164.9433
-165.2853
-165.8112
-166.5184
-167.3743
-168.2854
-169.1878
-169.975
-170.5159
-170.7199
-170.2253
-169.9402
-175.3933
-16.41986
-1.575669
-5.640631
-5.9152
-4.114503
-2.571195
-2.331532
-2.943156
-3.151496
-3.002522
-2.807467
-2.693129
-2.699717
-2.887127
-3.024972
-3.887651
-6.08734
-10.23777
-15.09797
-17.08643
-13.84617
-8.016304
-9.312394
-9.807499
-7.76161
-8.262944
-10.19127
-12.69156
-14.7175
-14.60274
-13.6158
-13.90817
-14.6484
-15.24065
-15.79924
-17.7244
-19.81813
-22.07173
-24.7993
-28.28461
-32.30364
-36.14136
-39.47587
-42.01955
-43.02291
-41.70257
-40.98083
-43.74386
-39.95203
-36.2254
-13.17583
-2.132792
-5.351736
-6.050128
-4.30678
-2.652171
-2.356184
-2.953761
-3.164963
-3.009561
-2.812744
-2.694321
-2.69751
-2.890222
-3.015105
-3.885729
-6.115283
-10.37694
-15.36161
-17.48319
-14.53425
-8.764427
-9.663234
-9.953875
-7.881896
-8.34237
-10.25083
-12.74772
-14.75281
-14.60194
-13.66049
-13.96715
-14.69205
-15.29158
-15.89064
-17.86757
-19.94726
-22.22348
-25.01551
-28.59581
-32.67483
-36.49995
-39.81159
-42.2704
-43.38011
-42.29321
-41.69638
-43.76692
-39.50078
-35.6651
-36.48721
-38.22888
-39.82768
-42.34859
-45.91083
-50.28032
-52.83081
-49.99426
-44.45991
-44.41354
-46.31348
-47.85875
-49.36477
-50.71626
-51.96592
-52.99546
-54.11995
-56.18049
-60.04826
-64.81661
-65.56853
-61.72922
-61.15015
-63.32253
-65.06824
-66.63896
-68.1316
-69.9012
-72.35137
-75.18169
-77.03709
-77.8865
-79.03515
-80.84781
-82.87184
-84.92394
-86.98202
-89.1378
-91.45547
-93.73801
-96.29768
-98.99538
-101.6589
-104.5323
-107.5225
-110.5996
-113.8896
-117.0724
-120.4899
-124.0249
-127.705
-131.4282
-135.1421
-138.9299
-142.6011
-146.3159
-149.9063
-153.1542
-156.3377
-159.4044
-162.2131
-164.5589
-166.6724
-168.5272
-170.0363
-171.3089
-172.3886
-173.1167
-173.5784
-173.8173
-173.7973
-173.6069
-173.2737
-172.7751
-172.1106
-171.3549
-170.5321
-169.6816
-168.7967
-167.9934
-167.2448
-166.5447
-165.9018
-165.3824
-165.0104
-164.782
-164.7719
-164.9648
-165.3195
-165.8636
-166.591
-167.4648
-168.3826
-169.2796
-170.0479
-170.5458
-170.6744
-170.1167
-170.1966
-172.657
-140.5247
-133.8903
-128.4614
-126.9316
-127.0265
-128.0831
-129.8215
-132.0147
-133.2191
-134.8764
-135.322
-134.8607
-133.6416
-131.8468
-129.5429
-127.433
-125.992
-124.9693
-124.8092
-125.4785
-126.1553
-127.3452
-128.6712
-129.5017
-129.7838
-129.6527
-129.2778
-128.8028
-128.3116
-127.9131
-127.6661
-127.6587
-127.9193
-128.1326
-128.2376
-128.4417
-129.1126
-129.4123
-129.5548
-128.4353
-129.3756
-132.2303
-134.1625
-133.2391
-132.0528
-137.0762
-135.6731
-136.9188
-137.9441
-157.3052
-108.6214
-92.64436
-77.40061
-67.70636
-59.91333
-53.48263
-48.01991
-43.15194
-38.90439
-35.12202
-31.68257
-28.56614
-25.64713
-22.88621
-20.30259
-17.91117
-15.70677
-13.58132
-11.54852
-9.605659
-7.756115
-5.995027
-4.346795
-2.720194
-1.131976
0.4193702
1.919533
3.320085
4.671695
6.007983
7.328273
8.625694
9.858806
11.05018
12.24223
13.40561
14.56391
15.70069
16.8291
17.93827
19.04094
20.10296
21.15759
22.19476
23.22956
24.24658
25.24056
26.23777
27.25699
28.2763
29.2638
30.23742
31.20666
32.20821
33.2286
34.22388
35.22543
36.24333
37.25973
38.28914
39.32007
40.35458
41.44155
42.63763
43.83217
44.98138
46.23923
47.64355
49.06926
50.34593
52.09249
55.81921
55.35463
54.55639
53.84633
53.17889
52.51537
51.81937
51.15512
50.5753
50.04102
49.46828
48.88503
48.31723
47.78346
47.26449
46.74817
46.22412
45.70154
45.20458
44.7127
44.20933
43.71175
43.22577
42.72665
42.24655
41.74843
41.22833
40.72759
40.2404
39.75444
39.25287
38.72699
38.23201
37.7197
37.18551
36.66176
36.14173
35.5972
35.05229
34.51228
33.96234
33.38377
32.7853
32.19446
31.61229
31.00805
30.38405
29.74656
29.08281
28.40348
27.71246
27.00143
26.29608
25.53712
24.74756
23.94845
23.09848
22.23276
21.30178
20.3201
19.30452
18.23559
17.06572
15.81809
14.42331
12.93429
11.29215
9.348293
7.289593
3.884543
2.624754
55.43578
55.32024
54.61659
53.91195
53.24633
52.5941
51.89619
51.2301
50.65167
50.11844
49.53875
48.95504
48.3834
47.84618
47.324
46.80683
46.27945
45.75088
45.25317
44.75854
44.25076
43.75169
43.26524
42.76022
42.28371
41.78269
41.25652
40.75697
40.26823
39.78184
39.27483
38.75441
38.25433
37.74196
37.20423
36.68027
36.15905
35.60787
35.06279
34.52415
33.97617
33.39313
32.78923
32.19829
31.62009
31.01221
30.38694
29.75025
29.08285
28.40141
27.70749
26.99402
26.2959
25.52953
24.73761
23.93905
23.08131
22.22142
21.28082
20.29516
19.2788
18.21064
17.03422
15.77214
14.37992
12.88108
11.22623
9.277752
7.180567
3.880551
2.320386
-108.473
-92.61873
-77.73487
-67.94081
-60.15749
-53.67423
-48.17582
-43.28104
-39.00004
-35.21723
-31.75486
-28.62843
-25.70811
-22.93394
-20.33445
-17.92865
-15.73532
-13.60525
-11.56517
-9.613426
-7.76009
-5.989734
-4.348262
-2.717734
-1.126589
0.4293218
1.942108
3.338813
4.689164
6.031675
7.35495
8.655708
9.890715
11.07896
12.27717
13.44012
14.60366
15.74121
16.8747
18.00633
19.09715
20.15843
21.21718
22.25749
23.29698
24.31873
25.31208
26.31223
27.33942
28.36803
29.35516
30.33192
31.30301
32.30824
33.33943
34.33608
35.34331
36.37026
37.38872
38.42171
39.46274
40.51119
41.6044
42.81005
44.01411
45.16178
46.4237
47.80318
49.21212
50.54876
52.31357
-142.2517
-134.7437
-129.011
-127.0736
-127.0443
-128.0133
-129.6782
-131.9064
-133.166
-134.8648
-135.2677
-134.9699
-133.7984
-132.0242
-129.6815
-127.5133
-126.0346
-124.9432
-124.7253
-125.3751
-126.0734
-127.2863
-128.6754
-129.5362
-129.8305
-129.6918
-129.3018
-128.8079
-128.3029
-127.898
-127.6556
-127.6625
-127.9405
-128.1614
-128.3045
-128.4886
-129.1722
-129.4385
-129.625
-128.5103
-129.646
-132.5887
-134.4723
-133.0457
-131.9794
-137.612
-135.4606
-136.6119
-138.7823
-150.0731
-36.19799
-37.96853
-39.55049
-41.9596
-45.44508
-49.9736
-53.17431
-50.93224
-45.00246
-44.29438
-46.10262
-47.65302
-49.19248
-50.55631
-51.84306
-52.94546
-54.08398
-56.02715
-59.74768
-64.57338
-65.65452
-62.08724
-61.29465
-63.26998
-64.96931
-66.56621
-68.09038
-69.8882
-72.27148
-74.9297
-76.74917
-77.80265
-79.02458
-80.79267
-82.79252
-84.85081
-86.92223
-89.06874
-91.40969
-93.68395
-96.23914
-98.95882
-101.6172
-104.4982
-107.4979
-110.5827
-113.8847
-117.0482
-120.4922
-124.0262
-127.7227
-131.4543
-135.1719
-138.9799
-142.6472
-146.3842
-149.9838
-153.2113
-156.4118
-159.4887
-162.3177
-164.6376
-166.7711
-168.6374
-170.1296
-171.4222
-172.4762
-173.1812
-173.6315
-173.859
-173.816
-173.6195
-173.2797
-172.768
-172.0876
-171.3256
-170.4928
-169.636
-168.7377
-167.943
-167.1903
-166.4892
-165.8473
-165.3393
-164.9734
-164.7506
-164.767
-164.98
-165.3487
-165.916
-166.6676
-167.568
-168.5024
-169.4133
-170.174
-170.6428
-170.6738
-170.0247
-170.4232
-169.6265
-10.69022
-2.526211
-5.18928
-6.314238
-4.563008
-2.771878
-2.419701
-2.97304
-3.179473
-3.018019
-2.819032
-2.699393
-2.695642
-2.897898
-3.008051
-3.90286
-6.167327
-10.60886
-15.78704
-18.0636
-15.47734
-9.919721
-10.16686
-10.03108
-7.969057
-8.381568
-10.2897
-12.76342
-14.65644
-14.52901
-13.73011
-14.06916
-14.75596
-15.37604
-16.03458
-18.04961
-20.11537
-22.41266
-25.29536
-29.00429
-33.1609
-36.96698
-40.25973
-42.78951
-43.92633
-43.10628
-42.52666
-43.45159
-38.66283
-35.00739
-8.636236
-2.786259
-5.292859
-6.569008
-4.969208
-2.86954
-2.536645
-3.009693
-3.194204
-3.034503
-2.837074
-2.716376
-2.696079
-2.905029
-3.029557
-3.983272
-6.267799
-10.95196
-16.41084
-18.90204
-16.70805
-11.43987
-10.74256
-9.914549
-7.994334
-8.351351
-10.29832
-12.72486
-14.41024
-14.39008
-13.82414
-14.20169
-14.84011
-15.50978
-16.27777
-18.24761
-20.36018
-22.69591
-25.67967
-29.54617
-33.77208
-37.58226
-40.83881
-43.34965
-44.56206
-44.03974
-43.26276
-42.7081
-37.42451
-34.42305
-35.9218
-37.73518
-39.25368
-41.51124
-44.85078
-49.44524
-53.40124
-51.93601
-45.795
-44.30055
-45.94083
-47.47335
-49.11917
-50.40496
-51.73872
-52.91139
-54.07798
-55.89285
-59.34876
-64.06356
-65.46031
-62.42152
-61.54222
-63.26145
-64.9093
-66.50126
-68.04097
-69.86701
-72.17986
-74.66163
-76.49635
-77.70104
-78.98858
-80.75382
-82.72319
-84.79538
-86.8771
-89.00591
-91.38992
-93.62478
-96.17619
-98.93373
-101.5881
-104.4534
-107.4641
-110.555
-113.9303
-117.0389
-120.5086
-124.0226
-127.7518
-131.4923
-135.2094
-139.0427
-142.7001
-146.4777
-150.0951
-153.3007
-156.5161
-159.5751
-162.4314
-164.7257
-166.8748
-168.7419
-170.198
-171.424
-172.5369
-173.2185
-173.6702
-173.8958
-173.8254
-173.6287
-173.2811
-172.7511
-172.0503
-171.2889
-170.4478
-169.5824
-168.6589
-167.8831
-167.1231
-166.4194
-165.7759
-165.2882
-164.9271
-164.7064
-164.7595
-164.9959
-165.3807
-165.9778
-166.7591
-167.6891
-168.642
-169.5719
-170.3205
-170.7323
-170.6241
-169.9749
-170.4311
-167.0449
-143.9657
-135.9262
-129.8124
-127.3511
-127.1265
-127.983
-129.554
-131.8124
-133.1291
-134.9208
-135.5634
-135.1912
-134.0696
-132.3101
-129.8136
-127.5878
-126.1052
-124.8702
-124.5904
-125.2385
-125.9773
-127.2286
-128.6915
-129.6033
-129.9155
-129.7614
-129.3461
-128.8149
-128.277
-127.8646
-127.6294
-127.6561
-127.9594
-128.1885
-128.4079
-128.573
-129.2594
-129.4694
-129.69
-128.6474
-130.1521
-133.172
-134.9429
-132.7613
-132.0688
-138.1432
-135.4725
-136.0695
-138.17
-142.0887
-108.0335
-92.3463
-78.00261
-68.14522
-60.4431
-53.87186
-48.31585
-43.40946
-39.11605
-35.32711
-31.81489
-28.69507
-25.78184
-22.97808
-20.36563
-17.96078
-15.78389
-13.62965
-11.57841
-9.614022
-7.765856
-5.992306
-4.354339
-2.721606
-1.126989
0.4426966
1.955291
3.343455
4.702345
6.046705
7.357331
8.66035
9.912681
11.0948
12.2992
13.45917
14.6316
15.77344
16.90997
18.02239
19.12007
20.18558
21.2543
22.29619
23.33511
24.35484
25.35316
26.36154
27.38775
28.41349
29.39725
30.38435
31.35698
32.36586
33.40737
34.4068
35.41702
36.44346
37.46326
38.50967
39.55962
40.61823
41.70259
42.92308
44.15481
45.3121
46.60166
47.96258
49.37392
50.78364
52.46783
54.94604
55.16914
54.63334
53.97231
53.31638
52.67519
51.9615
51.28503
50.70753
50.17917
49.58241
48.99616
48.42153
47.887
47.35867
46.83949
46.31143
45.7811
45.28741
44.78884
44.27542
43.77674
43.2908
42.77773
42.30922
41.79892
41.26754
40.77105
40.28328
39.80134
39.28633
38.75903
38.26162
37.74848
37.20806
36.69141
36.17421
35.61515
35.06937
34.5275
33.98264
33.40072
32.79213
32.19469
31.62237
31.01364
30.38436
29.7485
29.08081
28.39981
27.70146
26.97749
26.28947
25.51399
24.72764
23.92989
23.05656
22.21053
21.25608
20.27181
19.24876
18.1815
17.00127
15.72842
14.33781
12.82924
11.16052
9.211923
7.085827
3.917816
1.994746
54.41114
54.88998
54.57583
54.00923
53.39949
52.80597
52.07176
51.37376
50.81334
50.3165
49.71305
49.10189
48.49873
47.97135
47.45678
46.92509
46.37243
45.82974
45.35544
44.8556
44.32825
43.8341
43.35244
42.81588
42.39136
41.85158
41.30135
40.81432
40.30768
39.84575
39.32093
38.81368
38.31904
37.78485
37.21427
36.70086
36.1905
35.63065
35.09894
34.55229
33.98242
33.40094
32.81402
32.20985
31.62262
31.02454
30.39518
29.73704
29.07116
28.39942
27.71657
26.9819
26.28647
25.47779
24.71064
23.9313
23.0185
22.1976
21.20642
20.253
19.22472
18.12066
16.93705
15.65801
14.26853
12.74795
11.05444
9.100124
6.940128
3.958153
1.654989
-107.132
-91.9864
-78.4703
-68.50287
-60.91627
-54.05124
-48.51452
-43.6528
-39.3395
-35.42481
-31.85952
-28.82028
-25.87576
-23.01692
-20.44546
-18.0404
-15.79703
-13.60381
-11.58663
-9.62144
-7.809609
-6.01886
-4.33008
-2.744983
-1.109181
0.4660105
1.928964
3.37923
4.750645
6.05583
7.354904
8.72763
10.01963
11.1342
12.35517
13.51013
14.70281
15.84165
16.96912
18.07411
19.20665
20.29319
21.35111
22.38816
23.41138
24.46288
25.48482
26.4638
27.46512
28.53767
29.56132
30.53546
31.50491
32.49483
33.57046
34.59386
35.55435
36.62447
37.68341
38.71327
39.76222
40.83047
41.90367
43.17818
44.48313
45.58827
46.83518
48.12611
49.56066
51.01574
52.48925
-145.885
-137.4815
-130.8414
-127.8426
-127.323
-128.064
-129.4437
-131.7307
-133.1402
-135.0152
-135.5261
-135.4396
-134.4704
-132.7214
-130.2347
-127.7065
-126.1318
-124.8577
-124.4378
-125.0346
-125.8882
-127.2108
-128.7874
-129.7481
-130.0819
-129.8804
-129.4151
-128.8254
-128.2364
-127.805
-127.5818
-127.6344
-127.981
-128.2004
-128.5423
-128.691
-129.3758
-129.5016
-129.6806
-128.9319
-130.4981
-134.122
-135.6511
-132.442
-132.5445
-139.388
-135.3345
-135.0507
-135.8859
-134.2293
-35.66843
-37.35004
-38.89884
-40.95302
-44.02026
-48.55817
-53.2134
-52.86982
-46.89206
-44.4901
-45.74756
-47.22236
-48.8113
-50.17777
-51.53699
-52.77127
-54.04721
-55.76203
-58.81919
-63.11845
-64.76521
-62.60487
-61.81026
-63.24076
-64.77256
-66.37838
-67.92506
-69.77137
-71.9896
-74.31067
-76.16709
-77.54442
-78.95885
-80.67989
-82.60513
-84.65602
-86.75627
-88.91028
-91.2176
-93.63169
-96.11284
-98.71525
-101.5972
-104.3974
-107.3893
-110.4889
-113.7167
-117.0211
-120.5673
-124.0235
-127.7817
-131.5652
-135.2503
-139.1174
-142.7186
-146.585
-150.1398
-153.4229
-156.7586
-159.808
-162.5763
-164.8419
-167.0647
-168.806
-170.3227
-171.6714
-172.701
-173.3024
-173.7728
-173.9783
-173.8519
-173.663
-173.3054
-172.7601
-172.0176
-171.2346
-170.3822
-169.529
-168.5534
-167.8022
-167.033
-166.338
-165.6772
-165.2084
-164.8592
-164.6457
-164.7521
-165.0077
-165.4373
-166.0901
-166.91
-167.9022
-168.8616
-169.7996
-170.523
-170.8529
-170.578
-169.6035
-169.7983
-165.2357
-6.924648
-2.701426
-5.838556
-7.506733
-5.925452
-2.973652
-2.527977
-3.027732
-3.212332
-3.053852
-2.874
-2.77793
-2.714063
-2.90749
-3.079759
-4.097497
-6.531844
-11.45542
-17.38803
-20.10511
-18.27651
-13.44617
-11.37351
-9.23063
-7.838145
-8.228533
-10.25463
-12.67404
-14.24492
-14.31028
-13.982
-14.37385
-14.96718
-15.72099
-16.59899
-18.46992
-20.70349
-23.21215
-26.25517
-30.30842
-34.62069
-38.51983
-41.81487
-44.24511
-45.3917
-45.0303
-43.69979
-41.56213
-36.04737
-34.01645
-0.1051391
-0.0245338
-0.6779844
7.733777
0.2929061
-0.8441176
0.06296519
8.573755
1.458311
0.3817218
4.025777
1.162402
-0.04430544
2.351771
-0.04904853
9.735829
10.79737
-1.418532
5.532969
-29.35243
1.73274
5.460553
0.2144639
5.283731
-0.2916752
8.243145
5.095475
5.706694
7.200842
-1.225597
2.496387
-1.805598
-156.4523
0.3788677
6.71287
0.6607528
0.3277946
8.8815
0.2884845
7.937102
8.444784
-0.02743012
-1.001309
0.5136285
-3.849055
-16.28024
0.1205977
-0.02777386
-0.04513295
8.664341
-7.639025
-0.3476391
-1.816963
-0.7871964
7.294203
0.4328157
-1.012109
2.330438
0.9475012
-0.01968638
-0.1557419
4.916654
-0.6773648
-4.663849
9.107823
-0.5421451
-0.5704533
5.687785
31.91867
2.142139
0.364018
1.241492
7.162735
6.815561
4.282413
4.651704
3.354867
3.015972
-0.08877145
5.130788
0.6004895
3.249941
-0.3098841
-0.6586749
-0.5889643
-0.3930049
12.91649
0.2192059
-1.410326
-2.152196
11.00689
11.40218
9.058852
5.754547
-1.523658
-6.660421
9.601481
6.09665
-51.68876
-0.1525186
-1.143967
-44.04979
7.793922
-0.6636684
3.603125
7.766856
2.148385
7.724569
2.300481
8.712624
0.4211554
-286.8331
0.1566362
2.55125
-0.2392822
0.02429663
-0.7277094
-26.13389
-12.82863
4.917442
-1.233678
1.593825
-1.207064
-0.1926391
7.122459
1.756559
-0.0347451
0.0649635
1.165953
0.8909285
16.40789
11.0641
7.680358
1.988425
-0.07202229
0.4689046
-3.996504
-111.7117
-14.40405
8.601624
7.707463
9.032024
8.511724
0.653063
0.3760297
1.11277
6.44055
-2.333246
-0.2457866
-46.82277
0.8773169
-0.4075535
-1.227137
7.799375
8.37315
7.720058
-0.3482163
1.387106
-0.008386947
0.8662333
3.828548
8.123921
-3.691034
0.1341393
11.263
0.7380101
-2.673199
10.06537
0.9861525
7.605917
-0.07110484
-0.9890424
0.1533749
-20.83878
-1.282209
-0.005071868
-1.290565
-3.597954
-0.7823687
7.256997
-1.171752
9.018964
-3.678791
3.964731
-1.222243
1.621811
8.785784
8.274463
12.67169
1.1611
-1.73608
0.334091
3.624747
0.1511117
-5.356615
-1.186889
1.801122
-0.3814937
-15.38576
-1.128303
-20.26258
-5.147555
-0.9069272
10.47239
-4.058745
3.473725
-0.02884853
-4.533751
0.4444875
-5.165237
0.05049969
-7.077657
0.03188849
7.833065
-0.1610939
0.3691425
-10.13662
-1.038301
6.232872
2.892822
-3.033828
-4.342268
7.219934
0.02207305
20.84773
4.460093
4.078499
0.5224485
4.694786
-8.65286
-0.6745359
1.179282
-87.97798
7.645305
2.048884
-17.69302
6.837598
5.304152
6.249767
-0.2282118
3.625038
-0.8733197
-0.2377436
0.5503683
-0.2162987
-2.947725
1.525939
-6.9345
2.807
5.331156
5.341058
-92.53976
11.07621
-0.6593321
-0.10557
-2.134988
1.522798
6.227801
1.906598
-1.344119
7.775912
-1.092974
4.886384
0.8858844
7.770101
2.381985
-0.03761289
1.262093
7.335267
-3.238418
1.51842
0.08959911
-1.042537
-0.1539021
11.13575
-9.579871
7.756835
-0.08242649
-6.120446
0.2605122
-5.121632
16.24141
4.50863
1.241206
12.19344
-0.5981852
-9.495885
7.584327
7.739396
2.326242
1.816168
0.02366984
-55.74023
6.302929
10.52222
9.201572
0.113287
-18.27569
5.484371
-12.90254
-1.635551
7.789628
-6.34687
19.37862
-3.853684
0.305419
4.548411
6.181781