/*--------------------------------*- C++ -*----------------------------------*\
| =========                 |                                                 |
| \\      /  F ield         | OpenFOAM: The Open Source CFD Toolbox           |
|  \\    /   O peration     | Version:  2406                                  |
|   \\  /    A nd           | Website:  www.openfoam.com                      |
|    \\/     M anipulation  |                                                 |
\*---------------------------------------------------------------------------*/
FoamFile
{
    version     2.0;
    format      ascii;
    arch        "LSB;label=32;scalar=64";
    class       surfaceScalarField;
    location    "0.18";
    object      phi;
}
// * * * * * * * * * * * * * * * * * * * * * * * * * * * * * * * * * * * * * //

dimensions      [0 3 -1 0 0 0 0];

oriented        oriented;

internalField   nonuniform List<scalar> 
326221
(
-0.002461555
-0.005609244
0.008070799
-0.001500676
-0.0009608794
0.001143171
-0.002643847
0.0003202522
0.0008229187
-0.001281568
0.00160182
-0.001176053
-0.0001055144
-0.0004306005
-0.0007454529
0.0006232736
-0.001053874
0.0006507295
-2.745585e-05
-0.000516132
0.001166861
-0.0002511626
-0.0002649694
0.0003435528
-0.0005947154
-0.000521953
0.0008655057
-0.00114212
0.0006201671
-0.0007626141
-0.000379506
-8.160064e-05
-0.0006810134
0.0006406335
-0.0007222341
0.001602781
-0.0009621471
0.002851786
-0.001249005
0.004236486
-0.0013847
0.005183172
-0.0009466866
0.004427676
0.0007554964
0.001867757
0.002559918
-0.0003524712
0.002220229
-0.00088099
0.0005285188
-0.000751771
-0.000129219
-0.0005536286
-0.0001981424
0.0002952908
-0.0008489194
0.001560241
-0.001264951
0.002051852
-0.0004916108
0.001301742
0.0007501105
-0.001506497
0.002808239
-0.004511885
0.003005388
-0.00605968
0.001547794
-0.006591461
0.0005317819
-0.006616705
2.524345e-05
-0.006453114
-0.000163591
-0.006190572
-0.0002625418
-0.005852492
-0.0003380799
-0.005422958
-0.0004295343
-0.00490659
-0.0005163674
-0.004368945
-0.000537646
-0.003802398
-0.0005665469
-0.003170248
-0.0006321499
-0.002475371
-0.0006948769
-0.001477228
-0.0009981424
-0.0005954931
-0.0008817354
-1.449686e-05
-0.0005809962
0.0006665777
-0.0006810745
0.0008078417
-0.000141264
-0.0009146706
0.001722512
-0.0009890292
7.435858e-05
-0.0005358309
-0.0004531983
8.828277e-05
-0.0006241137
0.000160676
-7.239324e-05
0.0001156058
4.507024e-05
0.000451343
-0.0003357372
0.0004773191
-2.597615e-05
0.0005727971
-9.547798e-05
0.0006426878
-6.989063e-05
0.0006616646
-1.897689e-05
0.0003544287
0.0003072359
3.713595e-05
0.0003172927
5.558298e-05
-1.844703e-05
3.597174e-05
1.961124e-05
-7.571568e-05
0.0001116874
8.570012e-06
-8.428569e-05
0.0002717921
-0.000263222
0.0004342825
-0.0001624904
0.0002418666
0.0001924158
-7.346716e-05
0.0003153338
-0.0002021687
0.0001287015
-0.0001601807
-4.198797e-05
-0.0001442751
-1.590562e-05
-0.0001985044
5.422935e-05
-0.0002845822
8.607779e-05
-0.0003727234
8.814119e-05
-0.0004492234
7.649995e-05
-0.0005084122
5.918887e-05
-0.0005518427
4.343043e-05
-0.000582652
3.080932e-05
-0.0006025239
1.987193e-05
-0.000609282
6.758132e-06
-0.0005899596
-1.932239e-05
-0.0005795433
-1.041634e-05
-0.0005651854
-1.435789e-05
-0.0005470141
-1.817132e-05
-0.0005236413
-2.337281e-05
-0.0004990328
-2.46085e-05
-0.0004731359
-2.589689e-05
-0.000438581
-3.455486e-05
-0.0004042097
-3.437129e-05
-0.0003708306
-3.337911e-05
-0.0003339985
-3.683218e-05
-0.0002964502
-3.754821e-05
-0.0002564559
-3.999437e-05
-0.0002202505
-3.620534e-05
-0.0001945353
-2.571525e-05
-0.0001714027
-2.313254e-05
-0.000131158
-4.024474e-05
-6.903093e-05
-6.212708e-05
-1.842712e-05
-5.060381e-05
2.307653e-05
-4.150366e-05
5.775271e-05
-3.467617e-05
9.485173e-05
-3.709902e-05
0.0001298504
-3.499868e-05
0.0001653185
-3.546814e-05
0.0001982387
-3.292016e-05
0.0002283273
-3.008862e-05
0.0002549811
-2.66538e-05
0.0002803665
-2.538534e-05
0.0003000834
-1.971694e-05
0.0003144675
-1.43841e-05
0.0003225914
-8.123912e-06
0.0003227944
-2.029868e-07
0.0003177649
5.029491e-06
0.0003127602
5.004694e-06
0.0002837886
2.897165e-05
0.0002396804
4.410818e-05
0.0001777488
6.193156e-05
0.0001005188
7.723007e-05
4.618133e-05
5.433742e-05
3.306719e-05
1.311414e-05
-5.322555e-05
8.629274e-05
-0.0002137756
0.00016055
-0.0001690335
-4.474205e-05
0.0002529733
-0.0004220068
0.0006230895
-0.0003701162
0.0003644507
0.0002586388
4.355232e-05
0.0003208983
-5.631172e-05
9.986404e-05
-1.244157e-05
-4.387014e-05
-1.748204e-05
5.040473e-06
-0.0001340929
0.0001166108
-0.0003218623
0.0001877694
-0.0003964008
7.453855e-05
-4.303476e-05
-0.0003533661
0.0004219905
-0.0004650253
0.0006144683
-0.0001924778
0.0005606651
5.380324e-05
0.0005254366
3.522852e-05
0.0004806371
4.479943e-05
-0.0001202507
0.0006008878
-0.0008085007
0.0006882499
-0.0009288165
0.0001203159
-0.0004059995
-0.0005228171
0.0004417763
-0.0008477758
0.000973187
-0.0005314107
0.002810164
-0.001836977
0.006756817
-0.003946653
-0.001242194
0.007999011
-0.002268328
0.001026134
-0.0008880067
-0.001380322
5.077044e-05
-0.0009387771
0.0003461973
-0.0002954269
-0.0003866863
0.0007328836
-0.001970998
0.001584312
-0.003088815
0.001117817
-0.003385033
0.0002962174
-0.003335049
-4.9984e-05
-0.002671985
-0.0006630634
-0.001192106
-0.00147988
0.0003937107
-0.001585816
0.001069965
-0.0006762539
6.775434e-05
0.00100221
-0.001472477
0.001540231
-0.002716918
0.001244441
-0.00338503
0.0006681121
-0.002304357
-0.001080673
-0.0004047523
-0.001899604
0.001139314
-0.001544067
0.002481662
-0.001342348
0.003400421
-0.0009187587
0.004118833
-0.0007184122
0.004489049
-0.0003702158
0.004609427
-0.0001203786
0.004468635
0.000140793
0.003910824
0.0005578105
0.002769354
0.00114147
0.001108928
0.001660426
-0.0004810885
0.001590016
-0.001313985
0.0008328964
-0.00107493
-0.0002390549
-0.0006391036
-0.0004358264
-0.0007960115
0.0001569079
-0.0009140335
0.000118022
-0.0005202035
-0.0003938301
-0.0001896271
-0.0003305763
-0.0005457818
0.0003561547
-0.001128997
0.0005832155
-0.0009387155
-0.0001902819
-0.0001758678
-0.0007628477
8.488917e-06
-0.0001843567
-9.798062e-05
0.0001064695
8.787732e-05
-0.0001858579
8.410811e-05
3.769209e-06
-0.0003120395
0.0003961476
0.001579142
-0.001891182
0.002465581
-0.0008864384
-0.005960821
0.008426402
-0.006213843
0.0002530222
-0.005364965
-0.0008488781
-0.005034302
-0.0003306633
-0.004701781
-0.0003325204
-0.004452155
-0.0002496259
-0.004224092
-0.0002280637
-0.004025855
-0.0001982372
-0.003758768
-0.0002670869
-0.003621888
-0.0001368799
-0.003505861
-0.0001160266
-0.003398767
-0.0001070937
-0.003303604
-9.516347e-05
-0.003211733
-9.187077e-05
-0.003124263
-8.746979e-05
-0.003041012
-8.325122e-05
-0.002966722
-7.429031e-05
-0.002898366
-6.835573e-05
-0.002832492
-6.587458e-05
-0.002767696
-6.479544e-05
-0.002707431
-6.026509e-05
-0.002649578
-5.785265e-05
-0.002595763
-5.381548e-05
-0.002547432
-4.833048e-05
-0.00249797
-4.946225e-05
-0.002448911
-4.905959e-05
-0.002399281
-4.962971e-05
-0.002353035
-4.624602e-05
-0.002311648
-4.138728e-05
-0.002273969
-3.767811e-05
-0.002234636
-3.933368e-05
-0.002196005
-3.863107e-05
-0.002155277
-4.072821e-05
-0.002119439
-3.583789e-05
-0.002086139
-3.329986e-05
-0.002051313
-3.482567e-05
-0.002016138
-3.517517e-05
-0.001980039
-3.609877e-05
-0.00194787
-3.216929e-05
-0.0019187
-2.916945e-05
-0.001951943
3.324309e-05
-0.001937122
-1.482191e-05
-0.001916242
-2.088004e-05
-0.001895231
-2.101022e-05
-0.001877143
-1.808872e-05
-0.00185833
-1.881222e-05
-0.001841697
-1.663344e-05
-0.001826809
-1.48884e-05
-0.00181284
-1.396835e-05
-0.001795617
-1.722363e-05
-0.00177819
-1.74261e-05
-0.001764571
-1.361948e-05
-0.001753586
-1.098519e-05
-0.001745319
-8.266454e-06
-0.001733426
-1.189321e-05
-0.001718616
-1.481019e-05
-0.001705955
-1.266043e-05
-0.001695817
-1.013819e-05
-0.001683277
-1.254073e-05
-0.001672664
-1.06127e-05
-0.001660196
-1.246829e-05
-0.0016463
-1.389515e-05
-0.001632967
-1.333381e-05
-0.001618283
-1.468341e-05
-0.001586933
-3.135011e-05
-0.001545449
-4.148417e-05
-0.001504983
-4.046595e-05
-0.001451549
-5.343367e-05
-0.001372423
-7.912633e-05
-0.001200358
-0.0001720645
-0.0009144299
-0.0002859285
-8.859771e-05
-0.0008258322
0.0008039917
-0.0008925894
0.001082873
-0.0002788815
0.001269149
-0.0001862759
0.00137012
-0.0001009705
0.001438547
-6.84273e-05
0.001497715
-5.916767e-05
0.001536454
-3.873968e-05
0.001551419
-1.496441e-05
0.001561453
-1.003398e-05
0.001582768
-2.131497e-05
0.001603121
-2.035343e-05
0.001619692
-1.65707e-05
0.001629624
-9.932519e-06
0.001639174
-9.55004e-06
0.00164911
-9.935347e-06
0.001662831
-1.372131e-05
0.001675692
-1.286132e-05
0.00168508
-9.387929e-06
0.001695245
-1.016474e-05
0.001709167
-1.392219e-05
0.001722052
-1.288518e-05
0.001734561
-1.250838e-05
0.001750759
-1.619789e-05
0.00176457
-1.381126e-05
0.00178376
-1.918979e-05
0.001806853
-2.309375e-05
0.001825693
-1.883936e-05
0.001841153
-1.546044e-05
0.00185885
-1.769703e-05
0.001879477
-2.06264e-05
0.00189291
-1.343324e-05
0.00185754
3.536999e-05
0.001885295
-2.775545e-05
0.001920172
-3.48771e-05
0.001955746
-3.557378e-05
0.001991744
-3.599795e-05
0.002030408
-3.866428e-05
0.00206711
-3.670112e-05
0.002100777
-3.366739e-05
0.002137255
-3.647815e-05
0.00217818
-4.092462e-05
0.002222706
-4.452618e-05
0.002261823
-3.911721e-05
0.002299321
-3.749823e-05
0.002339607
-4.028606e-05
0.002383139
-4.353119e-05
0.002427711
-4.457228e-05
0.002477409
-4.969787e-05
0.00252905
-5.164081e-05
0.002581044
-5.199421e-05
0.002634751
-5.370712e-05
0.002685191
-5.043995e-05
0.002745071
-5.987996e-05
0.002807679
-6.260776e-05
0.002872954
-6.527529e-05
0.002943087
-7.013292e-05
0.003015455
-7.23679e-05
0.003095577
-8.012227e-05
0.003183298
-8.772094e-05
0.003272985
-8.968692e-05
0.003370223
-9.723819e-05
0.00348107
-0.0001108467
0.003611467
-0.0001303977
0.003863562
-0.0002520942
0.00404854
-0.0001849785
0.004258288
-0.0002097475
0.004492067
-0.0002337796
0.004793926
-0.0003018591
0.005087572
-0.0002936459
0.005830037
-0.0007424648
0.000220793
0.0009856871
0.0001085785
-0.001986855
0.001432123
-0.0007253178
0.001742405
-0.0004965578
0.001989359
-0.0003479239
0.002184093
-0.0002631617
0.002355026
-0.0002301006
0.002499937
-0.000183651
0.002617294
-0.0001323208
0.002719958
-0.0001126987
0.002823439
-0.0001247956
0.002919416
-0.0001163302
0.00300885
-0.0001060051
0.003088522
-8.96048e-05
0.003164224
-8.52517e-05
0.003234852
-8.056288e-05
0.003305458
-8.432726e-05
0.003372489
-7.989305e-05
0.003435398
-7.229678e-05
0.003495824
-7.059037e-05
0.003557146
-7.524432e-05
0.003616152
-7.189148e-05
0.003673105
-6.946143e-05
0.003731878
-7.497032e-05
0.003787073
-6.900635e-05
0.003845216
-7.733301e-05
0.003904704
-8.258163e-05
0.003962331
-7.64661e-05
0.004016057
-6.918724e-05
0.004071649
-7.328849e-05
0.004127548
-7.652588e-05
0.004181128
-6.701299e-05
0.004144836
7.166224e-05
0.004210655
-9.357425e-05
0.004280135
-0.0001043576
0.004349983
-0.0001054213
0.004420067
-0.0001060826
0.004491364
-0.000109961
0.004562194
-0.0001075309
0.004629865
-0.0001013385
0.004700183
-0.0001067961
0.0047716
-0.0001123417
0.004847388
-0.0001203146
0.004918336
-0.0001100651
0.004989607
-0.0001087688
0.005061468
-0.0001121471
0.005136311
-0.0001183748
0.005211182
-0.0001194433
0.005290221
-0.0001287369
0.005371174
-0.0001325934
0.005452492
-0.0001333121
0.005536557
-0.0001377724
0.005617337
-0.0001312198
0.005706453
-0.0001489956
0.00579609
-0.0001522453
0.00589
-0.0001591851
0.005986281
-0.0001664135
0.006086269
-0.000172356
0.006191173
-0.0001850268
0.006303585
-0.0002001323
0.00641739
-0.0002034927
0.006538645
-0.0002184924
0.006670847
-0.0002430489
0.006819652
-0.0002792035
0.007154386
-0.0005868275
0.007356307
-0.0003868998
0.007588487
-0.0004419273
0.007840234
-0.0004855267
0.008172372
-0.0006339968
0.008454175
-0.0005754491
0.009297339
-0.001585629
0.008463446
0.001054686
-0.00973321
0.008910612
0.00107562
-0.008779144
-0.001802944
-0.008460643
-0.0006491648
-0.00809815
-0.0006950126
-0.007828439
-0.0005193377
-0.007576249
-0.0004802537
-0.007359573
-0.0004149131
-0.007007045
-0.0006196143
-0.006849013
-0.0002949122
-0.00670893
-0.0002561093
-0.006576323
-0.0002397007
-0.006454737
-0.0002167503
-0.00633564
-0.0002109672
-0.006222269
-0.000200841
-0.006111541
-0.0001939795
-0.006009743
-0.0001760874
-0.005911041
-0.0001670584
-0.005816746
-0.0001601696
-0.005722464
-0.000159077
-0.005633548
-0.0001491812
-0.005545868
-0.0001455324
-0.005462338
-0.0001373464
-0.005382755
-0.0001279129
-0.005303063
-0.0001291539
-0.005224949
-0.000127174
-0.005146538
-0.0001280406
-0.005071844
-0.0001209403
-0.004999421
-0.0001138096
-0.00493082
-0.00010628
-0.004859568
-0.0001105851
-0.004790851
-0.0001073483
-0.004719333
-0.0001122457
-0.004652283
-0.0001028888
-0.00458547
-0.0001001127
-0.004518038
-0.0001022579
-0.004449773
-0.0001034395
-0.004380885
-0.000104987
-0.004314406
-9.864873e-05
-0.004248829
-9.474573e-05
-0.004286784
7.119815e-05
-0.004234308
-6.72979e-05
-0.00418004
-7.514884e-05
-0.004124137
-7.691309e-05
-0.004070777
-7.144848e-05
-0.004014715
-7.487433e-05
-0.003960116
-7.123242e-05
-0.003904327
-7.067686e-05
-0.003848423
-6.987295e-05
-0.003788574
-7.707233e-05
-0.003727832
-7.816825e-05
-0.003667695
-7.375648e-05
-0.003606553
-7.212675e-05
-0.003544821
-6.999922e-05
-0.003477528
-7.918588e-05
-0.003406711
-8.562673e-05
-0.003334085
-8.528644e-05
-0.003260632
-8.359174e-05
-0.003181115
-9.205714e-05
-0.00310022
-9.150816e-05
-0.003012844
-9.984436e-05
-0.002920094
-0.0001066452
-0.002821525
-0.000111903
-0.002715976
-0.000120232
-0.00259079
-0.0001565359
-0.002451518
-0.0001807566
-0.002302008
-0.0001899762
-0.002123881
-0.0002315602
-0.001903342
-0.0002996655
-0.001605244
-0.0004701623
-0.001141915
-0.0007492573
-0.001859169
0.001203881
-0.007130019
0.01392515
0.0001084751
0.00212154
0.0009004916
-0.002172338
0.001796715
-0.001835001
0.002116967
-0.0006156782
0.001598451
0.0012514
-0.0006512319
0.003833994
-0.003927595
0.00439418
-0.005305018
0.001673641
-0.005029642
-0.0003253599
-0.004015903
-0.001676802
-0.00224764
-0.003248143
-0.0003417439
-0.003491712
0.0006314121
-0.00164941
-0.0002976316
0.001931254
-0.003127156
0.004369756
-0.005273215
0.0033905
-0.0049243
0.0003191964
-0.002730258
-0.003274715
-0.0005458733
-0.004083989
0.001265732
-0.003355672
0.002955086
-0.003031702
0.004191686
-0.002155358
0.005187128
-0.001713854
0.005771658
-0.0009547453
0.006053527
-0.0004022483
0.006131189
6.313089e-05
0.006007397
0.000681603
0.00543796
0.001710907
0.003971214
0.003127173
0.001637504
0.003923726
-0.0003327542
0.002803154
-0.001156319
0.0005845101
-0.001196162
-0.0003959838
-0.001426447
0.0003871933
-0.001679612
0.0003711867
-0.001528457
-0.0005449847
-0.00143673
-0.0004223038
-0.001607081
0.0005265056
-0.001537151
0.000513286
-0.000879125
-0.0008483082
-9.807051e-06
-0.001632166
0.0002295648
-0.0004237285
0.0001057508
0.0002302835
0.0003673287
-0.0004474359
0.0006595241
-0.0002884262
0.001006792
4.887981e-05
0.002587825
-0.003472215
0.0008831452
0.0008182412
0.01822016
-0.001137606
-0.0009355986
0.003795716
-0.001386296
0.0003230489
-0.0008860523
-0.0009534418
0.0001169148
-0.001627081
0.0004399002
-0.0003953786
0.0001029222
0.0003820482
0.0001406195
-0.0003734344
0.0002455722
-0.0001309289
0.000495374
-0.0003452798
0.000791204
-0.0003657206
0.0009994383
-0.0002272111
0.0007360991
0.0005705751
0.0001858621
0.0008675298
-0.0001293827
0.0002967977
-0.000426207
0.0003164355
-0.0004908416
0.000176322
-0.0002313826
-0.0003437447
0.0001392166
-0.0006338213
0.0004155712
-0.000438845
0.0003143503
0.0002936367
-0.0001479298
0.0007776139
-0.0005077031
0.0004884748
-0.0006032989
5.360781e-05
-0.0007522869
0.0001330824
-0.0009643622
0.0002663047
-0.00114789
0.0002696052
-0.001277908
0.0002181593
-0.001359632
0.0001582238
-0.001402605
0.0001021627
-0.001417206
5.803087e-05
-0.001411461
2.506422e-05
-0.001390119
-1.469509e-06
-0.001356185
-2.717623e-05
-0.001286264
-8.924381e-05
-0.001240452
-5.622801e-05
-0.001190044
-6.476539e-05
-0.001135721
-7.249513e-05
-0.001075908
-8.318584e-05
-0.001013478
-8.703792e-05
-0.0009486228
-9.075219e-05
-0.0008754406
-0.0001077371
-0.0008021964
-0.0001076155
-0.000728758
-0.0001068175
-0.0006517959
-0.0001137942
-0.0005761556
-0.0001131885
-0.0005023067
-0.0001138432
-0.0004374975
-0.0001010146
-0.000383894
-7.931873e-05
-0.0003253224
-8.170414e-05
-0.0002387034
-0.0001268637
-0.0001231232
-0.0001777073
-2.522756e-05
-0.0001484995
5.9819e-05
-0.0001265502
0.0001331112
-0.0001079684
0.0002093743
-0.0001133621
0.0002821321
-0.0001077564
0.0003555761
-0.0001089121
0.0004260867
-0.0001034308
0.0004935389
-9.754079e-05
0.0005569473
-9.006223e-05
0.0006188405
-8.72786e-05
0.0006752252
-7.610158e-05
0.0007255445
-6.470343e-05
0.0007678597
-5.043911e-05
0.0007992929
-3.163617e-05
0.0008213497
-1.702733e-05
0.0008474666
-2.111223e-05
0.0008304483
4.599003e-05
0.0007817634
9.2793e-05
0.0006864327
0.0001572623
0.0005250597
0.000238603
0.0002848098
0.0002945874
2.389872e-06
0.0002955341
-0.0002522001
0.0003408827
-0.0003987152
0.0003070651
-0.0002548832
-0.000188574
0.0002645155
-0.0009414056
0.000865457
-0.0009710576
0.0005056926
0.0006184032
-0.0001416613
0.0009682523
-0.0002784731
0.0002366758
-6.192413e-05
-0.0002604191
-0.0001067778
4.989419e-05
-0.0004885094
0.0004983424
-0.0007236671
0.0004229272
-0.0006183438
-3.078474e-05
-7.024942e-05
-0.0009014605
0.0005394444
-0.001074719
0.0008614917
-0.000514525
0.0009558288
-4.05339e-05
0.0009305118
6.054555e-05
0.000311092
0.0006642192
-0.0009070263
0.001819006
-0.001483033
0.001264257
-0.001209455
-0.000153263
-0.0004578682
-0.001274404
0.000455271
-0.001760915
0.001567868
-0.001644008
0.003502528
-0.003771637
-0.007574144
-0.00101014
0.01754439
-0.002390406
0.0004193866
-0.000127875
-0.004906378
-0.000905609
0.001600653
-0.002162449
0.00285866
-0.001567248
-0.0007007155
-0.0006607656
-0.001651936
0.0005891658
-0.002303806
0.001027722
-0.0004660119
0.000118969
0.002075614
-0.0001458158
-1.845535e-07
-0.0002839079
-0.0004566233
-0.001504807
0.002086405
-0.001835728
0.0009510879
-0.001131744
-0.001083491
-0.0002924719
-0.001520285
0.0006977408
-0.001712447
0.001883432
-0.002147838
0.003454335
-0.002819908
0.005080519
-0.003010884
0.006539972
-0.00240614
0.007253761
4.170824e-05
0.005433972
0.004379707
0.001936447
0.005717753
0.0001892529
0.002275713
0.0001570429
-9.700897e-05
0.0004282334
-0.0004693329
0.001523379
-0.001944065
0.003009766
-0.002751338
0.002625186
-0.0001070303
-0.001141384
0.00451668
-0.006237023
0.007903878
-0.00865976
0.005428125
-0.009046234
0.001934268
-0.008979817
0.0004653654
-0.008760552
-0.0001940217
-0.008444829
-0.0004793145
-0.008003565
-0.000703806
-0.007477264
-0.0008643801
-0.006846349
-0.001060449
-0.006122037
-0.00124068
-0.005372585
-0.001287097
-0.004583109
-0.001356023
-0.00371715
-0.001498109
-0.002768467
-0.00164356
-0.001549223
-0.002217387
-0.0004738471
-0.001957111
0.0003454506
-0.001400294
0.001068114
-0.001403738
-8.748492e-06
0.0010327
-0.01071504
0.02722673
-0.002738806
0.004190892
-0.002000844
-0.00564434
-0.002496336
0.002096145
-0.002939719
0.003302043
-0.002043492
-0.001596942
-0.000962255
-0.002733173
0.0004637849
-0.003729845
0.00129184
-0.001294067
0.0007478785
0.002619576
-6.508572e-05
0.0008127797
-0.001192289
0.0006705801
-0.002443739
0.003337855
-0.002476342
0.0009836911
-0.001657732
-0.001902101
-0.0006384636
-0.002539553
0.0005381395
-0.00288905
0.001904931
-0.00351463
0.003749523
-0.0046645
0.005781938
-0.005043299
0.007323151
-0.003947353
0.008481042
-0.001116182
0.008234384
0.004626366
0.005629834
0.008322302
0.003082951
0.004822596
0.001779806
0.001206136
0.001480459
-0.0001699858
0.00264461
-0.003108215
0.003726626
-0.003833355
0.0007950491
0.002824547
-0.005511767
0.0108235
-0.009833964
0.01222608
-0.01071686
0.006311022
-0.01082134
0.002038752
-0.0108982
0.0005422212
-0.01069141
-0.0004008127
-0.01033032
-0.0008404003
-0.009822304
-0.001211826
-0.009200501
-0.001486183
-0.008440492
-0.001820458
-0.00756001
-0.002121162
-0.006641575
-0.002205532
-0.005660761
-0.002336837
-0.004557823
-0.002601047
-0.003329348
-0.002872034
-0.001841163
-0.003705572
-0.0005963571
-0.003201916
0.0003395481
-0.002336199
0.001245019
-0.002309209
0.00109692
0.0001393501
-0.001209082
0.006101719
-0.001794397
0.0009083637
-0.001292686
-0.001455153
1.414404e-05
-0.002933911
0.0006642978
-0.001045532
0.0001061597
0.0009401862
-9.614098e-05
-0.0001711337
0.0001921907
-0.0004192606
0.0006364369
-0.0007895259
0.000996641
-0.0007259247
0.001279287
-0.0005098571
0.001029684
0.0008201778
0.0002808556
0.001616358
-0.0003291267
0.00090678
-0.000785867
0.0007731758
-0.0007686888
0.0001591439
-0.0004782496
-0.0006341838
-0.0001186666
-0.0009934043
0.0001755423
-0.000733054
0.0001571728
0.0003120063
-0.0003501062
0.001284893
-0.0009296182
0.001067987
-0.00130905
0.0004330393
-0.001607607
0.0004316398
-0.001815397
0.000474094
-0.001938272
0.0003924806
-0.001993423
0.0002733099
-0.00200587
0.0001706713
-0.001991173
8.746533e-05
-0.001959264
2.61219e-05
-0.001915906
-1.82938e-05
-0.001863335
-5.403997e-05
-0.001802748
-8.776291e-05
-0.001702029
-0.0001899628
-0.001633703
-0.0001245549
-0.001560621
-0.0001378473
-0.001484289
-0.0001488268
-0.001402143
-0.0001653318
-0.001316799
-0.0001723819
-0.001228835
-0.0001787166
-0.001131892
-0.0002046798
-0.0010348
-0.0002047072
-0.0009372962
-0.0002043217
-0.0008366258
-0.0002144646
-0.0007392064
-0.0002106079
-0.0006457421
-0.0002073075
-0.0005634343
-0.0001833224
-0.0004917924
-0.0001509606
-0.0004111327
-0.0001623639
-0.0002970204
-0.000240976
-0.0001496735
-0.0003250542
-2.386696e-05
-0.000274306
8.780969e-05
-0.0002382269
0.0001851922
-0.0002053509
0.0002855848
-0.0002137547
0.0003813807
-0.0002035523
0.0004778739
-0.0002054054
0.00057113
-0.0001966869
0.0006614457
-0.0001878564
0.0007475839
-0.0001762005
0.0008327229
-0.0001724176
0.000913434
-0.0001568127
0.0009894452
-0.0001407146
0.001058613
-0.0001196065
0.001118722
-9.174525e-05
0.001170098
-6.840406e-05
0.001235372
-8.638545e-05
0.001258067
2.329423e-05
0.001255113
9.574792e-05
0.001208183
0.0002041921
0.001081177
0.0003656091
0.0007880181
0.000587746
0.000261516
0.0008220361
-0.0002301259
0.0008325246
-0.000345488
0.0004224273
-0.0001566421
-0.00037742
0.0002365388
-0.001334587
0.0008527858
-0.001587305
0.0003343342
0.001136855
-0.0005142126
0.001816799
-0.0005689929
0.0002914561
-0.0002771186
-0.0005522934
-0.0003965097
0.0001692853
-0.0008547331
0.0009565658
-0.0009946045
0.0005627985
-0.0007703862
-0.000255003
-0.0001003112
-0.001571536
0.0006343051
-0.001809335
0.001017032
-0.000897252
0.001205906
-0.0002294076
0.0009813942
0.0002850571
-0.0003172207
0.001962834
-0.001725155
0.00322694
-0.001900097
0.001439199
-0.001358796
-0.0006945638
-0.0004095474
-0.002223652
0.0006948489
-0.002865311
0.002285331
-0.00323449
0.004859656
-0.006345962
0.007957085
-0.01067157
0.003761218
0.01812102
0.002630995
0.003251763
0.002662177
-0.00220352
0.003118501
-0.002291326
0.003306544
-0.0008037205
0.003062191
0.001495752
0.001351403
0.005544782
-0.002832321
0.008577905
-0.006289366
0.005130685
-0.006743195
0.0001284691
-0.005670981
-0.002749016
-0.003669038
-0.005250086
-0.001415993
-0.005744757
-0.0003195553
-0.002745848
-0.001557526
0.003169225
-0.004933319
0.007745548
-0.007083156
0.005540337
-0.005930118
-0.0008338417
-0.003284089
-0.005920744
-0.000795893
-0.006572185
0.001472196
-0.005623761
0.003536188
-0.005095694
0.005046812
-0.003665982
0.006269847
-0.00293689
0.007016931
-0.001701829
0.007394728
-0.0007800459
0.007456767
1.09221e-06
0.007252098
0.0008862725
0.006821595
0.00214141
0.005926414
0.004022354
0.004094478
0.005755662
0.001720075
0.005177557
-0.0001672808
0.002471866
-0.001195239
0.0006319741
-0.001779902
0.0009718562
-0.002243081
0.0008343661
-0.002235073
-0.0005529928
-0.002140181
-0.0005171956
-0.001961125
0.00034745
-0.001496857
4.901768e-05
-0.0005891964
-0.001755969
0.0004545933
-0.002675955
0.0006891025
-0.0006582377
0.0004715164
0.0004478696
0.000788462
-0.0007643815
0.001129847
-0.0006298111
0.001866596
-0.000687869
0.002803389
-0.004409009
-0.001156869
0.0047785
-0.01120328
0.02826657
-0.0119629
0.00183524
-0.01100242
-0.002763424
-0.01059431
-0.001057268
-0.01019012
-0.001099203
-0.00988816
-0.000821301
-0.009609275
-0.0007591394
-0.009375287
-0.0006489007
-0.008970394
-0.001024508
-0.008797299
-0.0004680073
-0.00863999
-0.0004134178
-0.008490585
-0.000389106
-0.008352673
-0.0003546624
-0.008216855
-0.0003467846
-0.008087478
-0.0003302184
-0.00796018
-0.0003212771
-0.007842177
-0.0002940913
-0.007726405
-0.0002828294
-0.007615587
-0.0002709881
-0.007504208
-0.0002704564
-0.007398669
-0.0002547194
-0.007293761
-0.0002504404
-0.007192873
-0.0002382351
-0.007095742
-0.0002250438
-0.006998259
-0.000226637
-0.006902835
-0.0002225974
-0.006806768
-0.0002241084
-0.006714407
-0.0002133005
-0.006623198
-0.0002050193
-0.006535712
-0.0001937659
-0.006444446
-0.0002018508
-0.006356416
-0.0001953784
-0.006264426
-0.0002042352
-0.006176889
-0.0001904265
-0.006088364
-0.0001886368
-0.005998788
-0.0001918346
-0.005907979
-0.0001942482
-0.005815746
-0.0001972203
-0.005724147
-0.0001902476
-0.005630391
-0.0001885018
-0.005660202
0.0001010095
-0.005576225
-0.0001512751
-0.005498103
-0.0001532711
-0.005416399
-0.0001586168
-0.005337615
-0.0001502323
-0.005254843
-0.0001576465
-0.005173482
-0.0001525937
-0.00508994
-0.0001542189
-0.005006105
-0.0001537078
-0.004917558
-0.0001656194
-0.004827956
-0.0001677698
-0.004738569
-0.0001631435
-0.004647217
-0.0001634791
-0.004554934
-0.0001622822
-0.004456344
-0.0001777755
-0.004354038
-0.0001879329
-0.004249937
-0.0001893874
-0.004144942
-0.0001885866
-0.004032689
-0.0002043107
-0.003919536
-0.0002046609
-0.003799263
-0.0002201178
-0.003673788
-0.00023212
-0.003541956
-0.0002437344
-0.003402761
-0.0002594272
-0.00324041
-0.0003188867
-0.003064045
-0.000357122
-0.00287975
-0.0003742717
-0.00266163
-0.0004496796
-0.002392918
-0.0005683776
-0.00201753
-0.0008455504
-0.001336291
-0.001430496
-0.0001410546
-0.003054405
0.001121364
-0.003249274
0.0017978
-0.001401754
0.00218326
-0.0008820179
0.002482744
-0.0006474079
0.002721815
-0.0005022329
0.002936292
-0.0004445772
0.003123157
-0.000370516
0.00327816
-0.0002873235
0.003414786
-0.0002493253
0.003553421
-0.0002634299
0.003683499
-0.0002464089
0.003807168
-0.0002296736
0.00391905
-0.0002014871
0.004026444
-0.0001926455
0.004127426
-0.000181545
0.004228415
-0.0001853162
0.004325474
-0.0001769525
0.004417654
-0.0001644761
0.00450673
-0.0001596665
0.004596591
-0.0001651052
0.004683747
-0.0001590476
0.004768079
-0.0001537937
0.004854664
-0.0001615548
0.004936226
-0.0001505691
0.005020611
-0.0001617178
0.005106029
-0.0001679994
0.005189811
-0.0001602483
0.005269245
-0.0001486211
0.005350737
-0.0001547807
0.005431029
-0.000156818
0.00551694
-0.0001529239
0.005490643
9.795914e-05
0.005585308
-0.0001882386
0.005680895
-0.0001999453
0.005774934
-0.0001994606
0.005868525
-0.000199673
0.005962835
-0.0002042707
0.006056839
-0.0002015354
0.006147075
-0.0001915749
0.006239819
-0.0001995394
0.0063322
-0.0002047224
0.00642951
-0.0002176249
0.006521399
-0.0002019544
0.006614047
-0.0002014167
0.006706456
-0.0002045564
0.006801691
-0.0002136095
0.006896063
-0.0002138147
0.006994366
-0.0002270399
0.007094225
-0.0002324528
0.007194015
-0.0002331017
0.007297158
-0.0002409158
0.007395743
-0.000229805
0.007503093
-0.000256346
0.007609509
-0.0002586613
0.007720474
-0.0002701498
0.007833095
-0.0002790339
0.007949188
-0.0002884497
0.008069538
-0.0003053765
0.008197398
-0.0003279918
0.008326128
-0.0003322229
0.00846213
-0.0003544943
0.008609609
-0.0003905287
0.00877068
-0.000440274
0.009153866
-0.000970013
0.009369486
-0.0006025198
0.009623252
-0.0006956942
0.009902802
-0.0007650767
0.0102725
-0.001003693
0.01063254
-0.0009354919
0.01148373
-0.002436822
0.001823381
0.001168724
0.0001702657
-0.004588264
0.002016368
-0.002249398
0.002493938
-0.001359588
0.002859145
-0.001012615
0.003157705
-0.0008007922
0.003425843
-0.0007127152
0.003658732
-0.0006034051
0.003854244
-0.0004828362
0.004027232
-0.0004223129
0.004201635
-0.0004378324
0.004364947
-0.0004097212
0.004520615
-0.0003853416
0.004662384
-0.0003432558
0.004798159
-0.0003284208
0.004926137
-0.000309523
0.005053133
-0.0003123125
0.005175714
-0.0002995336
0.005291674
-0.0002804356
0.005404104
-0.0002720971
0.005516804
-0.0002778045
0.005626158
-0.0002684016
0.0057319
-0.0002595364
0.005840372
-0.0002700267
0.005942291
-0.0002524878
0.006047559
-0.0002669859
0.006154091
-0.0002745313
0.006258084
-0.0002642413
0.006357553
-0.0002480901
0.006458927
-0.0002561544
0.006558836
-0.0002567267
0.006666739
-0.0002608276
0.006641065
0.0001236335
0.006755947
-0.0003031205
0.006874066
-0.0003180643
0.006988873
-0.0003142679
0.007103146
-0.0003139461
0.007218368
-0.0003194922
0.007332834
-0.0003160016
0.007442946
-0.0003016867
0.00755576
-0.0003123533
0.007668136
-0.0003170984
0.007786183
-0.000335672
0.00789774
-0.0003135114
0.00801015
-0.0003138265
0.008122465
-0.0003168715
0.008237702
-0.0003288466
0.008351847
-0.0003279597
0.008470753
-0.000345946
0.008591158
-0.0003528578
0.008711543
-0.0003534868
0.008836005
-0.0003653775
0.008954412
-0.0003482122
0.009083969
-0.0003859036
0.009211446
-0.0003861375
0.009344154
-0.000402858
0.009479175
-0.000414055
0.009617154
-0.0004264288
0.009761004
-0.0004492261
0.009912829
-0.0004798172
0.01006546
-0.0004848576
0.01022663
-0.0005156613
0.0104015
-0.0005653939
0.01081345
-0.0008522232
0.0110486
-0.001205164
0.01130159
-0.0008555185
0.01160284
-0.0009969417
0.01194503
-0.001107265
0.01238509
-0.001443757
0.01289249
-0.001442892
0.01368377
-0.0032281
0.01320887
0.002298288
-0.01424047
0.01377848
0.002297231
-0.01333548
-0.003668417
-0.01276635
-0.001626396
-0.01228593
-0.001579626
-0.01191709
-0.001190141
-0.01158413
-0.001092095
-0.01130813
-0.0009249081
-0.01105146
-0.001281168
-0.0106186
-0.0009008674
-0.01043251
-0.0005995134
-0.01025513
-0.0005664841
-0.01009167
-0.000518128
-0.009930587
-0.0005078627
-0.009776906
-0.0004839002
-0.00962574
-0.0004724423
-0.009485028
-0.0004348039
-0.00934736