/*--------------------------------*- C++ -*----------------------------------*\
| =========                 |                                                 |
| \\      /  F ield         | OpenFOAM: The Open Source CFD Toolbox           |
|  \\    /   O peration     | Version:  2406                                  |
|   \\  /    A nd           | Website:  www.openfoam.com                      |
|    \\/     M anipulation  |                                                 |
\*---------------------------------------------------------------------------*/
FoamFile
{
    version     2.0;
    format      ascii;
    arch        "LSB;label=32;scalar=64";
    class       volScalarField;
    location    "1.68";
    object      p;
}
// * * * * * * * * * * * * * * * * * * * * * * * * * * * * * * * * * * * * * //

dimensions      [0 2 -2 0 0 0 0];

internalField   nonuniform List<scalar> 
217010
(
-56.59223
-17.93869
-28.43047
-26.58592
-20.30177
-20.16015
-22.51039
-24.16821
-25.45553
-25.25591
-26.88508
-29.74092
-31.98587
-33.05693
-32.79227
-31.30252
-28.2475
-23.875
-19.00964
-21.84685
-23.25337
-21.68388
-31.85198
-34.11377
-24.21434
-23.15688
-25.74974
-30.38476
-36.77324
-48.22061
-60.0794
-65.60896
-67.16945
-70.13052
-75.15972
-81.19412
-78.89778
-69.40757
-57.52688
-58.27927
-64.51636
-66.24733
-64.05106
-59.63651
-59.60168
-62.42857
-64.51809
-63.68752
-60.30745
-68.87834
-43.59415
-43.01929
-41.12687
-41.38674
-42.21683
-43.85712
-46.27238
-49.23717
-50.811
-51.09335
-50.48703
-49.42912
-48.64673
-48.53876
-49.53792
-50.85639
-51.3742
-51.28709
-50.73638
-50.20895
-50.42512
-51.26962
-52.34946
-53.62546
-55.04622
-56.4715
-57.95794
-59.64257
-61.48641
-63.36774
-65.42492
-67.74848
-70.34661
-73.36381
-76.74977
-80.36929
-84.2274
-88.33721
-92.9198
-97.90044
-103.2701
-109.1084
-115.3977
-122.078
-129.1817
-136.6764
-144.5266
-152.8116
-161.3865
-170.0779
-178.7265
-187.2196
-195.1287
-202.423
-208.8243
-214.3103
-218.7109
-221.62
-222.7918
-221.9676
-218.7
-212.5468
-203.9386
-194.9626
-187.7078
-202.9079
-229.478
-220.442
-176.6184
-144.9157
-153.7317
-191.1781
-215.2856
-205.6896
-185.5707
-164.18
-153.1862
-150.4187
-148.2763
-146.5873
-153.0062
-161.4066
-163.7568
-158.5466
-150.3092
-150.2898
-155.745
-158.6713
-154.4937
-144.1485
-133.2015
-125.9537
-127.0735
-131.5604
-137.5003
-141.7552
-141.2475
-137.6797
-121.7626
-147.5031
-92.58547
-90.30595
-83.26698
-80.35219
-78.77742
-79.35337
-82.49679
-88.71921
-97.6047
-110.368
-125.4589
-144.2895
-165.3279
-187.5049
-204.8228
-213.825
-216.8944
-212.9605
-200.9721
-183.1683
-164.7486
-155.0019
-151.124
-153.5346
-166.0729
-175.1373
-170.3819
-166.0391
-163.4303
-156.2782
-149.7814
-151.2563
-156.4796
-159.896
-160.5387
-158.7561
-157.962
-157.4963
-156.6397
-155.3469
-155.5836
-157.6723
-159.3328
-158.9221
-156.4404
-161.5957
-161.6325
-163.0668
-156.475
-243.5168
-126.8961
-108.9149
-90.38734
-79.5462
-70.5046
-63.12162
-56.83496
-51.21734
-46.34638
-41.98154
-38.04393
-34.4694
-31.12149
-27.97616
-25.04729
-22.34975
-19.84086
-17.44115
-15.15662
-12.98229
-10.91235
-8.956857
-7.112775
-5.308526
-3.549767
-1.835308
-0.1989615
1.341492
2.824693
4.28141
5.716501
7.120042
8.454494
9.746711
11.02509
12.27573
13.51022
14.72571
15.94251
17.10674
18.28369
19.40653
20.51813
21.61131
22.69669
23.75944
24.80057
25.84214
26.89981
27.95196
28.97747
29.98331
30.98473
32.01318
33.05352
34.07837
35.10503
36.14097
37.17657
38.2199
39.26208
40.3066
41.3919
42.52896
43.63095
44.71774
45.96735
47.36612
48.3207
47.88375
46.24923
61.19669
59.37966
58.9766
58.05061
57.10381
56.28576
55.51172
54.7708
54.09347
53.4435
52.75299
52.04867
51.36752
50.72078
50.08797
49.45408
48.81281
48.17452
47.55852
46.95058
46.33146
45.71383
45.10747
44.49176
43.88311
43.26147
42.61667
41.98729
41.37668
40.76426
40.1351
39.47102
38.8425
38.18618
37.51586
36.84814
36.18008
35.4874
34.78498
34.08592
33.37371
32.62876
31.85335
31.07927
30.3124
29.52228
28.69794
27.85135
26.97265
26.06528
25.13779
24.18075
23.21566
22.19384
21.11416
20.00548
18.83641
17.62048
16.3255
14.94079
13.48824
11.95059
10.26023
8.440911
6.374569
4.159369
1.673564
-1.3173
-4.50609
-10.14451
-12.31478
60.77021
59.47056
59.0511
58.16737
57.21493
56.38142
55.59804
54.84882
54.16359
53.51011
52.81851
52.11137
51.42542
50.77422
50.13836
49.50224
48.85875
48.21754
47.59871
46.98856
46.36758
45.74792
45.13966
44.52208
43.91199
43.28907
42.64296
42.01156
41.39904
40.78523
40.15519
39.48885
38.8607
38.20215
37.53048
36.86161
36.19251
35.49861
34.79518
34.09504
33.38183
32.63559
31.85889
31.08375
30.31599
29.52456
28.69908
27.8515
26.97135
26.06237
25.13324
24.17446
23.20833
22.18362
21.10151
19.99073
18.81836
17.59989
16.30053
14.91127
13.45493
11.91222
10.2162
8.390313
6.307005
4.082466
1.578945
-1.429121
-4.686183
-10.27528
-13.37235
-129.6053
-109.4953
-90.96353
-79.89543
-70.78333
-63.33945
-57.01445
-51.35182
-46.46105
-42.07951
-38.12519
-34.53904
-31.18109
-28.02589
-25.0876
-22.38204
-19.86809
-17.46318
-15.17357
-12.99479
-10.92098
-8.961317
-7.114857
-5.308411
-3.547263
-1.830338
-0.191237
1.35112
2.836225
4.294973
5.732183
7.137829
8.47429
9.768103
11.0486
12.30109
13.53782
14.75581
15.97541
17.14052
18.32023
19.44492
20.55866
21.65437
22.74186
23.80682
24.85047
25.89517
26.95585
28.01049
29.03809
30.04683
31.05231
32.08498
33.12915
34.1575
35.1883
36.22845
37.26843
38.31586
39.36253
40.41377
41.50784
42.64891
43.75321
44.85398
46.12201
47.49774
48.32897
47.77678
47.97744
-95.15375
-90.80416
-83.84638
-80.59659
-78.83665
-79.21823
-82.12816
-88.1233
-96.79415
-109.3551
-124.3008
-142.9997
-163.9893
-186.293
-203.9749
-213.3936
-216.9203
-213.323
-201.7003
-183.9784
-165.3511
-155.2572
-151.1707
-153.4496
-165.926
-175.1403
-170.4826
-166.1781
-163.589
-156.4201
-149.8579
-151.2707
-156.4894
-159.9143
-160.5491
-158.7528
-157.9585
-157.4928
-156.6345
-155.3502
-155.6073
-157.7227
-159.3676
-158.8777
-156.4842
-161.7394
-161.677
-162.9973
-158.6701
-226.0431
-44.68568
-43.15197
-41.22745
-41.32794
-42.08313
-43.64353
-45.98797
-48.97832
-50.71811
-51.10862
-50.56001
-49.51698
-48.68934
-48.51536
-49.45965
-50.78758
-51.36892
-51.32163
-50.77838
-50.22144
-50.40366
-51.2246
-52.29139
-53.5605
-54.97931
-56.40641
-57.89124
-59.57182
-61.41485
-63.29686
-65.35178
-67.67154
-70.26455
-73.27663
-76.66428
-80.28201
-84.14163
-88.25154
-92.8356
-97.81756
-103.1899
-109.0325
-115.3267
-122.0125
-129.1236
-136.6261
-144.4848
-152.781
-161.3667
-170.0697
-178.7303
-187.2363
-195.1546
-202.4622
-208.8697
-214.3656
-218.7716
-221.6737
-222.8422
-222.0153
-218.7603
-212.639
-203.9761
-194.791
-187.7044
-203.2427
-229.7448
-219.8684
-176.3008
-145.2393
-154.7678
-192.6673
-215.8791
-205.3299
-184.7541
-163.4724
-152.8354
-150.3213
-148.2274
-146.7502
-153.4695
-161.8981
-163.8227
-158.0959
-150.0093
-150.4293
-156.1041
-158.6836
-153.8588
-143.2483
-132.4861
-125.7786
-127.348
-132.1056
-138.1148
-142.1448
-141.1632
-136.3375
-122.5106
-139.4608
-50.868
-18.6808
-28.19123
-26.82316
-20.4383
-20.15954
-22.47419
-24.13725
-25.45147
-25.23624
-26.85217
-29.71838
-31.98321
-33.06536
-32.80902
-31.32171
-28.26136
-23.8633
-19.01517
-21.8681
-23.24278
-21.73281
-31.97935
-34.15776
-24.23167
-23.20713
-25.85074
-30.54084
-37.04516
-48.7512
-60.50901
-65.73588
-67.26032
-70.33329
-75.49427
-81.48755
-78.79341
-68.82427
-57.03681
-58.47263
-64.81434
-66.24908
-63.7391
-59.50453
-59.72762
-62.70275
-64.63702
-63.45773
-60.64337
-66.5857
-44.00153
-18.9679
-27.94417
-27.01771
-20.64173
-20.19794
-22.4682
-24.14357
-25.47441
-25.24457
-26.8648
-29.72588
-31.99231
-33.08527
-32.83977
-31.36681
-28.2982
-23.85293
-19.04131
-21.91689
-23.25682
-21.80949
-32.287
-34.40482
-24.35059
-23.31607
-25.9858
-30.71521
-37.31509
-49.12011
-60.90253
-65.77135
-67.11619
-70.42963
-75.6651
-81.63213
-78.69979
-68.56547
-56.91367
-58.63873
-64.99283
-66.37014
-63.8541
-59.48077
-59.91934
-62.9497
-64.62724
-63.28806
-60.65525
-65.00952
-45.09431
-43.27797
-41.28718
-41.30543
-42.02619
-43.54943
-45.87854
-48.97002
-50.6922
-51.14736
-50.65131
-49.59165
-48.70552
-48.49195
-49.40457
-50.74853
-51.37975
-51.36153
-50.81538
-50.24178
-50.3977
-51.20006
-52.26317
-53.53025
-54.95243
-56.37777
-57.86083
-59.542
-61.38619
-63.26399
-65.31767
-67.63521
-70.22349
-73.24036
-76.6269
-80.24333
-84.10439
-88.20971
-92.79814
-97.78039
-103.1544
-109.0014
-115.3008
-121.9911
-129.1094
-136.6172
-144.4808
-152.7882
-161.3825
-170.0935
-178.7622
-187.2802
-195.1993
-202.516
-208.9185
-214.4163
-218.8186
-221.7172
-222.8981
-222.0872
-218.8999
-212.9933
-204.6195
-195.3866
-188.1771
-204.0423
-230.5605
-220.3184
-176.3824
-145.5389
-154.4666
-195.1951
-218.0693
-205.7711
-184.4379
-162.9589
-152.5365
-150.22
-148.2342
-146.9699
-153.8667
-162.0996
-163.9475
-157.7249
-149.7895
-150.6377
-156.8853
-159.1058
-153.856
-142.8554
-132.1285
-125.7441
-127.6899
-132.582
-138.4804
-142.1484
-140.9216
-135.7097
-122.1865
-134.4343
-95.6905
-91.25099
-84.21533
-80.81015
-78.93363
-79.1593
-81.92089
-87.79598
-96.33564
-108.848
-123.6844
-142.4026
-163.4129
-186.0209
-204.0177
-213.61
-217.3797
-213.9901
-202.9856
-185.7019
-166.5215
-155.4744
-151.2307
-153.4245
-165.8885
-175.1974
-170.7481
-166.537
-163.8263
-156.639
-150.0377
-151.3397
-156.5496
-159.97
-160.5836
-158.7591
-157.9622
-157.4989
-156.6417
-155.3668
-155.643
-157.7804
-159.4165
-158.8279
-156.5089
-161.9208
-161.6136
-162.8772
-159.4731
-208.1098
-129.1246
-109.8662
-91.23661
-80.07897
-70.91982
-63.4427
-57.09142
-51.4316
-46.50851
-42.12249
-38.15968
-34.56938
-31.20868
-28.04869
-25.10624
-22.39597
-19.88225
-17.47502
-15.18329
-13.0024
-10.92745
-8.964569
-7.118512
-5.310834
-3.548162
-1.829665
-0.1880532
1.354187
2.83914
4.29841
5.736394
7.144028
8.481218
9.773715
11.05536
12.30803
13.54691
14.76575
15.98268
17.15154
18.3275
19.45421
20.56919
21.66457
22.75291
23.81829
24.86154
25.9057
26.9682
28.02497
29.05229
30.06097
31.06523
32.09917
33.14616
34.17444
35.20486
36.24733
37.28771
38.33646
39.38508
40.43844
41.53333
42.67964
43.78794
44.89242
46.17533
47.55877
48.32801
47.72009
48.48517
60.46206
59.47971
59.04331
58.18946
57.24345
56.40691
55.61751
54.8647
54.18072
53.52969
52.83567
52.12665
51.43829
50.78658
50.15045
49.51456
48.86975
48.22685
47.60857
46.99857
46.37626
45.75632
45.14844
44.52933
43.921
43.29719
42.64826
42.01701
41.40498
40.79132
40.15883
39.49619
38.86524
38.20849
37.53507
36.86585
36.19683
35.50131
34.79779
34.09825
33.38536
32.6378
31.85967
31.08442
30.31746
29.52515
28.69919
27.8513
26.96977
26.05992
25.13
24.17056
23.20546
22.17862
21.09538
19.98495
18.8101
17.59219
16.2899
14.89902
13.44206
11.89805
10.20008
8.359209
6.283333
4.05006
1.538371
-1.481801
-4.758964
-10.37229
-13.41854
60.03203
59.46732
59.06033
58.27961
57.3578
56.51173
55.71094
54.95147
54.26125
53.60549
52.90798
52.19688
51.50484
50.84907
50.2096
49.57076
48.92343
48.27736
47.65702
47.0438
46.41859
45.79684
45.18706
44.56508
43.95637
43.33003
42.67792
42.04667
41.43266
40.8176
40.18256
39.52293
38.88391
38.22903
37.55258
36.88254
36.21294
35.51438
34.81037
34.11036
33.39681
32.64644
31.86612
31.09028
30.3238
29.52919
28.7021
27.8534
26.96937
26.05817
25.12669
24.16532
23.20137
22.1696
21.08362
19.973
18.79268
17.57471
16.26593
14.87043
13.4108
11.86266
10.15583
8.307856
6.227594
3.977961
1.448997
-1.583918
-4.925839
-10.45138
-13.56725
-129.2554
-110.1941
-91.73317
-80.38822
-71.18227
-63.64233
-57.24911
-51.55872
-46.62156
-42.21502
-38.23401
-34.63429
-31.2648
-28.09402
-25.1424
-22.42178
-19.90601
-17.49292
-15.19621
-13.01066
-10.93306
-8.964022
-7.118636
-5.308379
-3.542605
-1.821228
-0.1744236
1.369153
2.855153
4.315676
5.755579
7.167273
8.507798
9.799622
11.08435
12.33842
13.58189
14.80371
16.01751
17.20186
18.37263
19.50141
20.61945
21.71799
22.80831
23.87736
24.92352
25.97113
27.03653
28.09695
29.12699
30.13969
31.14832
32.18544
33.23796
34.26994
35.30454
36.35059
37.39493
38.44657
39.49981
40.55893
41.65614
42.8034
43.91659
45.03258
46.32193
47.65285
48.32433
47.90131
49.77231
-97.70949
-91.9179
-84.84738
-81.14077
-79.08917
-79.1122
-81.64832
-87.30367
-95.63697
-107.9748
-122.6402
-141.2937
-162.2235
-185.093
-203.3204
-213.1305
-217.2723
-214.5923
-204.363
-188.1371
-168.8705
-155.9596
-151.1948
-153.2405
-165.5398
-174.9946
-171.113
-167.0809
-164.1897
-156.9811
-150.3745
-151.5076
-156.6922
-160.0928
-160.6679
-158.7876
-157.9736
-157.5032
-156.6546
-155.396
-155.6972
-157.8838
-159.5142
-158.7532
-156.516
-162.2107
-161.4925
-162.6751
-161.5838
-196.2354
-45.82823
-43.44106
-41.39391
-41.2729
-41.93583
-43.38839
-45.63689
-48.6914
-50.60421
-51.18868
-50.78024
-49.72751
-48.75696
-48.45087
-49.27849
-50.65729
-51.40744
-51.43463
-50.88028
-50.27668
-50.39787
-51.16675
-52.21426
-53.47154
-54.89096
-56.31541
-57.79678
-59.47429
-61.31639
-63.19101
-65.24446
-67.55757
-70.13868
-73.15597
-76.54444
-80.15672
-84.01796
-88.11822
-92.71496
-97.69646
-103.0758
-108.9314
-115.2361
-121.9329
-129.064
-136.5801
-144.4499
-152.7743
-161.3829
-170.1099
-178.7928
-187.3321
-195.2517
-202.5876
-208.9852
-214.4976
-218.9125
-221.8173
-223.0008
-222.2089
-219.0968
-213.4339
-205.5921
-196.9511
-190.1125
-205.7081
-231.115
-219.9661
-175.6866
-144.7099
-153.2597
-198.6758
-221.7315
-206.4793
-183.9321
-162.0107
-152.0171
-150.0899
-148.3199
-147.3425
-154.4664
-162.7859
-164.2156
-157.364
-149.4695
-151.2432
-158.0087
-159.4884
-153.3986
-142.1974
-131.6852
-125.811
-128.1938
-133.3016
-139.1852
-142.6009
-140.851
-134.8258
-122.1736
-131.9223
-38.32942
-19.76461
-27.69348
-27.40684
-20.93226
-20.26943
-22.4565
-24.14366
-25.49894
-25.27707
-26.91758
-29.74788
-32.01957
-33.13206
-32.9077
-31.45591
-28.36965
-23.83983
-19.10152
-21.99182
-23.32363
-22.01264
-32.77669
-34.75201
-24.59142
-23.4992
-26.18663
-30.96969
-37.69025
-49.69385
-61.41742
-65.83156
-67.04407
-70.65147
-75.99328
-82.1115
-78.77145
-68.60432
-57.04221
-59.03872
-65.32531
-66.47175
-63.76905
-59.48433
-60.23498
-63.31439
-64.77035
-63.04489
-60.78948
-63.25896
-34.3575
-20.71257
-27.47082
-27.8443
-21.25586
-20.35813
-22.42852
-24.13059
-25.48192
-25.32782
-27.0042
-29.78025
-32.07669
-33.2262
-33.04331
-31.61439
-28.48723
-23.87058
-19.16836
-22.09943
-23.45897
-22.44784
-33.46903
-35.22936
-24.94932
-23.76873
-26.44394
-31.29346
-38.11651
-50.28945
-61.9224
-65.88374
-67.05316
-70.94754
-76.37036
-82.66606
-78.85449
-68.81504
-57.55575
-59.8446
-65.89405
-66.67983
-63.83782
-59.60334
-60.73113
-63.80838
-64.89137
-62.75847
-60.68248
-61.19379
-46.41771
-43.66476
-41.54756
-41.2716
-41.86463
-43.2453
-45.43002
-48.59556
-50.56674
-51.27472
-50.97346
-49.96293
-48.86191
-48.42071
-49.15489
-50.54589
-51.43933
-51.53239
-50.97594
-50.33608
-50.41526
-51.13849
-52.16627
-53.41569
-54.83593
-56.25787
-57.73606
-59.41171
-61.25424
-63.1211
-65.17436
-67.48282
-70.05135
-73.0763
-76.46921
-80.07883
-83.94153
-88.02872
-92.64091
-97.6161
-102.9993
-108.8767
-115.1908
-121.8907
-129.0416
-136.57
-144.4496
-152.7935
-161.4118
-170.1614
-178.8658
-187.4362
-195.3499
-202.7155
-209.0974
-214.6308
-219.0589
-221.9599
-223.1531
-222.3942
-219.3753
-213.9692
-206.6738
-198.9875
-193.5263
-207.9141
-230.3075
-217.9311
-173.8378
-142.4439
-150.8422
-203.2548
-227.0035
-207.6323
-183.3928
-160.6446
-151.1999
-150.0114
-148.5195
-147.9394
-155.2417
-163.4416
-164.5912
-157.0979
-149.4792
-152.6696
-159.6051
-160.1802
-153.225
-141.6596
-131.3579
-126.0789
-128.9431
-134.2562
-140.0736
-142.9281
-140.5709
-133.6735
-122.0465
-129.3162
-99.37956
-92.80499
-85.5869
-81.58937
-79.33746
-79.14079
-81.40396
-86.80844
-94.93422
-107.1076
-121.614
-140.3236
-161.1381
-184.4112
-203.0795
-213.2105
-218.1893
-215.5513
-205.9586
-191.1161
-172.5981
-157.3076
-151.1985
-152.8189
-164.7275
-174.3791
-171.4393
-167.6919
-164.6593
-157.4878
-150.9728
-151.8469
-156.9794
-160.3342
-160.8406
-158.8527
-157.9908
-157.496
-156.6609
-155.436
-155.7788
-158.0533
-159.6828
-158.6356
-156.4655
-162.6032
-161.2918
-162.5034
-163.8328
-187.9555
-129.15
-110.3442
-92.15635
-80.66602
-71.42752
-63.82873
-57.40196
-51.68793
-46.71401
-42.29999
-38.3021
-34.6957
-31.32119
-28.14099
-25.17945
-22.44568
-19.93257
-17.51544
-15.21448
-13.02408
-10.94417
-8.966666
-7.125031
-5.312637
-3.544692
-1.821327
-0.1675183
1.37568
2.859819
4.321411
5.763493
7.180357
8.522819
9.810889
11.09924
12.35341
13.6011
14.82263
16.03151
17.21683
18.39287
19.52248
20.64248
21.74056
22.83237
23.90336
24.94968
25.99623
27.06441
28.12924
29.15921
30.17299
31.18079
32.22099
33.28041
34.31262
35.34743
36.40007
37.44735
38.50259
39.561
40.62652
41.72681
42.88475
44.00917
45.13944
46.44671
47.72142
48.30021
48.12344
50.62289
59.53117
59.40306
59.05007
58.33339
57.42936
56.58085
55.76664
54.99709
54.30565
53.65386
52.95182
52.23714
51.53862
50.88047
50.23966
49.60065
48.9503
48.30008
47.68057
47.06723
46.43916
45.81646
45.20722
44.58113
43.97612
43.34779
42.69019
42.0591
41.44458
40.83022
40.19291
39.5316
38.8926
38.24029
37.5604
36.89015
36.22092
35.51899
34.81576
34.1169
33.40351
32.64955
31.86647
31.09143
30.32691
29.52937
28.70166
27.853
26.96569
26.05315
25.12034
24.15732
23.19728
22.15836
21.0696
19.96037
18.77389
17.55919
16.24226
14.84297
13.38336
11.83346
10.11907
8.255699
6.17626
3.91318
1.36907
-1.676099
-5.067631
-10.46609
-13.72453
58.91672
59.25684
59.00747
58.38544
57.52696
56.68594
55.85778
55.0821
54.39151
53.74136
53.03187
52.31761
51.61423
50.95232
50.30768
49.6684
49.01485
48.35805
47.73756
47.12133
46.48866
45.86445
45.25511
44.62244
44.02169
43.39036
42.72546
42.09597
41.47939
40.8641
40.22133
39.56999
38.92097
38.26802
37.58404
36.91374
36.24286
35.533
34.82948
34.13238
33.42149
32.6621
31.87189
31.09688
30.33736
29.53494
28.70553
27.85812
26.96606
26.05063
25.11384
24.14751
23.19701
22.14828
21.05628
19.94705
18.75021
17.54326
16.21296
14.80765
13.34624
11.79683
10.07169
8.190522
6.11024
3.83274
1.269258
-1.78478
-5.222146
-10.46016
-13.95755
-129.0234
-110.3092
-92.55863
-80.94484
-71.7186
-64.0542
-57.58507
-51.83911
-46.82646
-42.41121
-38.38508
-34.76815
-31.39177
-28.19506
-25.21573
-22.46568
-19.96548
-17.54226
-15.23284
-13.03244
-10.94891
-8.960389
-7.126187
-5.309702
-3.539136
-1.808929
-0.1424691
1.396267
2.879519
4.3478
5.792649
7.21289
8.558548
9.842396
11.13758
12.39111
13.64487
14.86734
16.08142
17.29026
18.45354
19.58253
20.70696
21.80846
22.90503
23.98054
25.02635
26.07575
27.15244
28.22675
29.25606
30.27288
31.28243
32.32619
33.39628
34.42945
35.46823
36.5274
37.57351
38.62945
39.69321
40.76392
41.8573
43.01727
44.15304
45.29019
46.59178
47.78544
48.34764
48.62547
51.70714
-101.0856
-93.9176
-86.52294
-82.18068
-79.70896
-79.30578
-81.22349
-86.33113
-94.1614
-106.1217
-120.4223
-139.2352
-159.9608
-183.702
-202.7799
-213.1036
-218.4738
-216.5053
-207.6581
-194.3634
-177.2944
-160.2573
-151.575
-152.33
-163.7014
-173.6855
-171.7689
-168.33
-165.2876
-158.2471
-152.0227
-152.565
-157.5206
-160.7762
-161.166
-158.972
-158.0081
-157.4352
-156.6547
-155.498
-155.9496
-158.3361
-159.9757
-158.4692
-156.3254
-163.2091
-161.0738
-162.112
-164.9488
-179.2946
-46.93726
-43.93095
-41.74988
-41.29556
-41.7927
-43.08097
-45.18921
-48.37353
-50.45017
-51.36748
-51.21981
-50.3159
-49.06593
-48.42066
-49.01943
-50.4249
-51.4843
-51.67851
-51.11931
-50.42938
-50.46538
-51.12153
-52.11567
-53.35259
-54.77365
-56.19069
-57.66317
-59.33435
-61.17813
-63.03374
-65.08857
-67.39661
-69.94738
-72.97507
-76.36969
-79.979
-83.8513
-87.91564
-92.55723
-97.52793
-102.8919
-108.8006
-115.1514
-121.8474
-129.0183
-136.5622
-144.4678
-152.8576
-161.4655
-170.2277
-178.9637
-187.5797
-195.4779
-202.898
-209.2507
-214.8262
-219.2683
-222.1632
-223.3789
-222.6738
-219.7752
-214.673
-207.9498
-201.2324
-197.3233
-209.4497
-226.6677
-212.4719
-171.3475
-139.6712
-149.0959
-209.295
-233.6021
-208.9449
-182.6288
-158.8072
-150.006
-149.8332
-148.8654
-148.7805
-156.3096
-164.3322
-165.1167
-157.1535
-150.2965
-155.2492
-161.7382
-160.9284
-153.0385
-141.1174
-131.1516
-126.6504
-130.0805
-135.5109
-141.2368
-143.4549
-140.2761
-132.4392
-121.9355
-126.324
-31.31914
-21.50736
-27.40724
-28.65945
-21.66989
-20.39391
-22.33743
-23.97827
-25.31036
-25.37172
-27.12596
-29.82526
-32.18793
-33.41614
-33.2995
-31.87822
-28.6649
-24.01088
-19.26961
-22.30414
-23.69392
-23.17426
-34.29226
-35.75573
-25.31466
-24.11179
-26.72789
-31.68776
-38.63426
-50.93891
-62.47671
-65.89719
-67.16251
-71.44323
-76.91803
-83.45798
-79.00264
-69.25095
-58.56934
-61.12924
-66.62753
-66.91655
-63.99848
-59.91788
-61.48851
-64.44938
-64.86518
-62.3874
-60.31729
-59.16923
-28.64907
-22.04432
-27.63531
-29.03237
-22.54182
-20.27596
-22.09103
-23.5522
-24.96499
-25.36998
-27.2641
-29.8803
-32.38414
-33.75078
-33.70245
-32.34895
-28.95772
-24.35011
-19.52058
-22.73295
-24.16613
-24.20594
-34.9419
-36.24015
-25.52271
-24.43006
-26.92829
-32.07734
-39.47435
-51.64232
-62.80216
-65.73026
-67.40775
-72.26271
-77.66123
-84.44361
-79.31306
-70.04417
-60.11993
-62.9061
-67.51647
-67.23098
-64.33773
-60.60323
-62.60603
-65.25535
-65.07366
-62.00551
-59.66503
-57.33843
-47.33443
-44.28567
-42.01837
-41.37708
-41.72736
-42.87955
-44.89684
-48.11208
-50.41116
-51.55497
-51.57689
-50.85379
-49.44628
-48.49608
-48.91743
-50.30925
-51.5595
-51.87332
-51.31785
-50.56484
-50.55456
-51.12507
-52.0652
-53.27538
-54.69706
-56.11188
-57.57668
-59.23607
-61.08473
-62.92898
-64.98505
-67.28489
-69.83425
-72.87986
-76.24888
-79.85609
-83.73022
-87.78887
-92.44931
-97.46995
-102.8294
-108.6791
-115.126
-121.8464
-129.0106
-136.5671
-144.4559
-152.9986
-161.6286
-170.3573
-179.1338
-187.8155
-195.6607
-203.1751
-209.4621
-215.1428
-219.6048
-222.507
-223.7594
-223.1115
-220.364
-215.5906
-209.5164
-203.674
-200.9293
-210.0806
-221.6497
-206.9725
-170.1029
-139.0041
-150.786
-216.4748
-240.1343
-210.068
-180.9224
-156.4924
-148.4523
-149.865
-149.4036
-149.6715
-157.8508
-165.6179
-166.0632
-157.9493
-152.4674
-159.0211
-164.3949
-161.7045
-152.7153
-140.5443
-131.1215
-127.6191
-131.8703
-137.2485
-142.7913
-144.1653
-139.9708
-131.2053
-121.896
-124.2517
-102.9376
-95.31814
-87.77403
-83.02313
-80.27934
-79.72501
-81.20705
-85.95645
-93.315
-104.9978
-118.9981
-137.3445
-158.5805
-183.28
-202.5878
-213.1532
-219.9863
-217.9727
-209.7569
-197.8111
-182.5518
-164.7933
-153.2509
-152.7161
-162.7717
-173.278
-172.3068
-169.0031
-166.107
-159.2896
-153.8097
-154.0471
-158.5441
-161.5524
-161.7246
-159.1616
-158.0387
-157.2908
-156.633
-155.6292
-156.2779
-158.7937
-160.4272
-158.246
-156.3746
-163.7193
-161.1107
-161.3958
-164.3143
-169.7324
-128.5697
-109.9818
-92.88308
-81.18901
-72.06129
-64.28661
-57.74955
-51.9903
-46.96398
-42.54031
-38.45309
-34.8465
-31.47806
-28.24476
-25.2517
-22.50323
-20.02166
-17.56938
-15.24743
-13.03271
-10.95664
-8.96365
-7.132881
-5.314672
-3.541451
-1.792323
-0.1290132
1.400431
2.894169
4.36383
5.793999
7.216745
8.58377
9.858723
11.16082
12.41073
13.67459
14.90167
16.11879
17.30583
18.47662
19.61019
20.74519
21.84833
22.94393
24.01646
25.06828
26.12557
27.20144
28.27228
29.29809
30.32564
31.3368
32.38414
33.46486
34.50272
35.54268
36.60267
37.65381
38.7241
39.79774
40.87712
41.95775
43.13265
44.30734
45.45359
46.7301
47.82879
48.47351
49.29124
52.59054
58.16727
58.96913
58.88962
58.39811
57.61433
56.79637
55.9409
55.14992
54.46148
53.81792
53.08917
52.37299
51.66531
51.00639
50.35411
49.71205
49.05707
48.39804
47.78191
47.16055
46.52104
45.89671
45.28771
44.64557
44.05346
43.41134
42.73986
42.11426
41.49879
40.88818
40.23582
39.56882
38.93312
38.27672
37.58919
36.92816
36.26202
35.54272
34.83789
34.13646
33.43002
32.67251
31.87567
31.09234
30.34067
29.53695
28.70204
27.85621
26.9638
26.04886
25.10598
24.12546
23.18837
22.12768
21.04323
19.93383
18.71625
17.52796
16.17849
14.77488
13.30285
11.75408
10.02231
8.127463
6.04547
3.753147
1.168711
-1.886673
-5.351265
-10.37885
-14.19108
57.38082
58.5405
58.68774
58.34605
57.68513
56.95612
56.07707
55.25536
54.5852
53.97833
53.24368
52.49745
51.75592
51.10592
50.47011
49.81294
49.12952
48.45519
47.86171
47.23959
46.58422
45.96541
45.36226
44.69287
44.1544
43.47591
42.7822
42.16806
41.5298
40.943
40.27957
39.63735
39.00886
38.32349
37.59744
36.94039
36.28283
35.56345
34.87667
34.1675
33.42983
32.67429
31.90494
31.11201
30.34148
29.5518
28.71546
27.84153
26.95154
26.04889
25.12704
24.13129
23.18397
22.07892
21.02055
19.93458
18.66342
17.50941
16.1085
14.74825
13.26689
11.66465
9.926797
8.023866
5.940394
3.628697
1.006282
-2.058146
-5.555572
-10.28523
-14.43753
-127.5824
-109.557
-93.44747
-81.61505
-72.6275
-64.49323
-57.98276
-52.27666
-47.22759
-42.65353
-38.50123
-34.99397
-31.58782
-28.28659
-25.34389
-22.59483
-20.0358
-17.53898
-15.25612
-13.04016
-11.00836
-8.99363
-7.104298
-5.341841
-3.522043
-1.76234
-0.1594452
1.441112
2.948541
4.37396
5.791023
7.290816
8.703717
9.900622
11.22228
12.46603
13.75285
14.97603
16.18336
17.36373
18.57072
19.72629
20.84984
21.94784
23.02645
24.13185
25.20956
26.23452
27.2852
28.40444
29.47176
30.48501
31.49259
32.51932
33.63541
34.69687
35.68181
36.78685
37.87165
38.92011
39.98645
41.06762
42.13013
43.35919
44.60591
45.69562
46.90095
47.94337
48.85541
50.20773
53.25134
-105.1963
-97.36638
-89.45629
-84.3275
-81.16658
-80.45283
-81.30789
-85.66737
-92.52745
-103.7786
-117.495
-134.2762
-156.3191
-183.091
-202.2706
-212.6383
-221.2442
-219.5312
-212.3363
-201.6446
-188.4953
-170.6109
-157.0749
-154.0533
-162.4641
-174.0475
-173.1509
-169.6462
-166.8585
-160.4317
-156.3951
-156.5895
-160.4473
-162.9257
-162.7861
-159.4795
-158.0697
-157.0425
-156.5717
-155.8396
-156.5595
-159.6675
-161.1984
-158.0337
-156.9011
-165.2703
-160.9734
-160.1925
-161.7049
-160.3643
-47.71043
-44.69254
-42.35433
-41.51437
-41.6872
-42.65447
-44.54096
-47.74687
-50.24202
-51.6031
-51.89806
-51.55552
-50.14081
-48.74732
-48.90172
-50.17828
-51.60805
-52.13315
-51.59017
-50.77233
-50.64508
-51.16172
-52.02684
-53.18743
-54.58153
-55.99738
-57.45556
-59.1021
-60.92283
-62.73248
-64.79948
-67.01833
-69.63968
-72.78162
-76.12294
-79.69135
-83.44853
-87.56213
-92.15595
-97.24303
-102.9211
-108.4863
-114.9329
-121.8949
-129.0174
-136.5619
-144.2094
-152.8972
-161.8946
-170.579
-179.3649
-188.2321
-195.9026
-203.5929
-209.6438
-215.5386
-220.0202
-222.9387
-224.3426
-223.721
-221.2506
-216.8797
-211.3386
-206.4824
-204.5298
-210.5358
-217.5446
-202.5082
-170.6897
-142.7509
-158.2616
-224.7574
-245.7497
-209.3336
-177.4883
-153.8705
-146.6799
-149.2026
-150.2603
-150.5196
-159.4158
-167.6625
-167.1147
-159.884
-156.8761
-164.1421
-167.3535
-162.4773
-152.425
-140.5435
-131.6572
-129.1689
-134.4737
-139.9676
-145.0742
-144.8689
-139.516
-129.9199
-121.6813
-123.6431
-26.31738
-22.03759
-28.24373
-30.58476
-23.7121
-19.95742
-21.60826
-22.95628
-24.45153
-25.28378
-27.4297
-30.01946
-32.72549
-34.39883
-34.86019
-33.31146
-29.69751
-24.82431
-20.11918
-23.44407
-25.08633
-25.51247
-34.86405
-35.82766
-25.21022
-24.4429
-26.89357
-32.32796
-40.54344
-52.00726
-62.48374
-65.22348
-67.79668
-73.4702
-79.73645
-85.63738
-79.55388
-71.06544
-62.12735
-65.01459
-68.39838
-67.59869
-64.78877
-61.79449
-64.09186
-66.2528
-64.80686
-61.31952
-58.58912
-55.64086
-0.1017127
-0.02268587
3.857092
8.082124
1.522563
-0.8296873
0.1770864
9.043899
2.63026
0.2947609
-27.65959
0.2698253
-0.03656663
0.2002784
-1.236905
9.962448
10.13042
2.494574
5.527907
-198.4678
0.02435598
5.34824
0.189743
5.448572
-0.2883241
8.449269
5.224259
6.703994
7.718605
-0.99995
-0.2039385
-1.094581
-37.11635
0.3192505
6.446593
0.5071234
0.2587596
8.530355
0.2303834
7.984983
7.850353
-0.02631216
-13.95909
1.438605
-61.12149
16.54152
0.09861697
-0.02627285
-0.04038194
7.890729
3.456403
-0.3463609
0.6322962
-1.133667
7.278744
0.3331835
1.909511
-0.1247885
-0.8878571
-0.01881631
-1.588223
4.469159
-0.7011137
0.9880228
8.313275
-0.5955014
-0.5678171
-113.4665
30.74205
2.636034
-1.015808
0.4658463
6.789762
7.791235
4.540119
4.351369
3.947028
3.454811
-0.08506924
4.185045
0.9659512
2.788927
-1.650955
-0.6746432
-0.5235482
-0.2432496
12.44689
0.1920935
-1.319095
-0.2221922
10.8803
11.16456
9.2472
6.655276
0.3320292
0.2668101
9.758289
6.136554
-36.29857
-2.686031
-1.564932
-127.0043
5.891819
-0.7647059
5.938623
8.161682
-2.664487
7.706123
-3.994111
9.142799
0.3225856
-406.4695
0.1585622
3.277449
3.304275
0.1536423
-0.7249022
-34.85868
3.908353
6.14958
-0.3625857
1.652551
-1.036221
0.2902998
7.669402
-0.3427237
-0.02562544
-0.3717113
-63.2623
0.5791617
15.65078
10.68812
8.044936
-1.865145
-2.864662
0.3618963
2.457266
-35.00667
5.174412
8.196519
8.051865
8.264853
8.842782
-0.07392163
0.3125173
0.6497756
6.058739
-2.378512
-0.1610057
19.04551
-3.493286
-0.3603354
-0.958353
8.258372
6.514453
8.282661
-0.1924401
-0.8293942
-0.02408641
2.30003
-20.43341
8.562709
1.805729
0.1300923
10.96709
0.5363281
-8.088052
9.982381
0.876437
8.467819
-3.400357
-0.7529102
0.1564912
8.756373
-0.8856136
-0.01369986
-0.7188308
-14.55921
-0.8015087
-259.7409
-1.937427
9.238582
3.401348
5.181571
0.07997661
4.814894
8.791055
8.345472
12.38907
0.6834265
1.986197
0.2626391
3.004317
0.153033
-267.7436
-0.2519698
1.990755
-2.663078
1.945503
-0.1199727
22.89177
-9.85997
0.3661434
9.172989
-7.652215
4.718228
-0.2179405
4.632506
-0.2070143
-27.18132
0.1747897
-57.40461
0.3202413
7.889635
-0.0626581
0.2886603
0.09653444
-1.000173
7.031252
-13.5409
3.806092
2.880791
7.744541
-1.249596
20.1181
-103.8614
4.391064
0.3980996
6.696662
4.413607
-0.9535854
2.377818
10.6885
7.659932
-17.90381
19.77594
7.500893
5.411111
-199.683
0.2430871
5.925892
-0.6617274
-0.06832954
0.4745884
-0.6039376
-110.5817
1.840459
0.8157498
1.537695
5.476206
5.494842
-62.6471
10.58804
1.344601
-0.05540036
-4.626005
0.7996259
7.068903
2.165511
1.287486
8.461431
0.3569785
5.928029
1.085988
7.621084
3.245738
-7.461166
-0.1832834
7.804586
-34.75045
-0.2894399
0.1999974
-0.9561262
-0.004826951
10.82659
-5.740364
7.800137
-3.569013
-39.00977
0.1737438
-3.991952
-8.22727
-47.0356
1.161789
11.8882
-0.7346819
3.878027
7.348387
7.248338
3.196335
-6.924529
0.3665436
-48.2083
6.322399
10.40563
-240.7912
0.09452252
-21.11941
5.609542
3.97637
-0.6608544