/*--------------------------------*- C++ -*----------------------------------*\
| =========                 |                                                 |
| \\      /  F ield         | OpenFOAM: The Open Source CFD Toolbox           |
|  \\    /   O peration     | Version:  2406                                  |
|   \\  /    A nd           | Website:  www.openfoam.com                      |
|    \\/     M anipulation  |                                                 |
\*---------------------------------------------------------------------------*/
FoamFile
{
    version     2.0;
    format      ascii;
    arch        "LSB;label=32;scalar=64";
    class       surfaceScalarField;
    location    "1.68";
    object      phi;
}
// * * * * * * * * * * * * * * * * * * * * * * * * * * * * * * * * * * * * * //

dimensions      [0 3 -1 0 0 0 0];

oriented        oriented;

internalField   nonuniform List<scalar> 
326221
(
-0.001747187
-0.003847488
0.005594675
-0.000877824
-0.0008693633
-0.0003169658
-0.0005608582
-0.001298704
0.0009817379
-0.0003534535
-0.0009452503
0.0005082205
-0.0008616739
0.0008103089
-0.0003020884
0.0008737389
-6.342999e-05
0.0006542818
0.000219457
0.0003579099
0.0002963719
-0.0001660639
0.0005239738
-0.0004934778
0.0003274139
-0.0006745112
0.0001810334
-0.0008017573
0.0001272461
-0.0007180614
-8.369595e-05
-0.0004168838
-0.0003011775
-0.0001840566
-0.0002328273
0.0001521538
-0.0003362104
0.0008779497
-0.0007257958
0.0007339085
0.0001440412
0.0005679489
0.0001659595
0.0001424632
0.0004254857
-0.001357596
0.00150006
-0.001767271
0.0004096745
-0.0003842957
-0.001382975
0.0006574892
-0.001041785
0.001446892
-0.0007894026
0.002326072
-0.0008791799
0.003431134
-0.001105062
0.003530229
-9.909537e-05
0.002123279
0.001406951
0.001202718
0.000920561
0.001604698
-0.0004019805
0.002291525
-0.000686827
0.002865824
-0.0005742991
0.002390302
0.0004755225
0.00124375
0.001146552
-0.0002376481
0.001481398
-0.0008393054
0.0006016573
-0.0005670465
-0.000272259
-0.001019008
0.0004519611
-0.002210028
0.001191021
-0.002653343
0.0004433149
-0.001774964
-0.0008783792
-0.0007946661
-0.000980298
-0.0003040608
-0.0004906053
-0.0002640663
-3.999452e-05
0.0001218796
-0.0003859459
4.50789e-05
7.680068e-05
-0.001652315
0.001697394
-0.0009775463
-0.0006747688
-0.0003428209
-0.0006347254
-0.0001345748
-0.0002082461
9.845851e-05
-0.0002330333
0.0004000085
-0.00030155
0.0007828151
-0.0003828066
0.001088309
-0.0003054935
0.001012544
7.576463e-05
0.0008317813
0.0001807627
0.0005702185
0.0002615628
0.0001183263
0.0004518922
-0.0003174726
0.0004357989
-0.0003644699
4.699729e-05
-6.173041e-05
-0.0003027395
0.0002280014
-0.0002897318
8.822408e-05
0.0001397773
-0.0004444756
0.0005326997
-0.0007679542
0.0003234786
-0.0006307891
-0.0001371651
-0.0002704064
-0.0003603827
7.693782e-05
-0.0003473442
0.0003336045
-0.0002566667
0.000510046
-0.0001764414
0.0006585012
-0.0001484553
0.0007685597
-0.0001100584
0.0008897637
-0.0001212041
0.001025028
-0.0001352641
0.001140348
-0.0001153202
0.001236141
-9.579336e-05
0.00135441
-0.0001182688
0.001495626
-0.0001412164
0.001653725
-0.0001580984
0.001838654
-0.000184929
0.00198064
-0.0001419861
0.002146508
-0.0001658677
0.002310908
-0.0001644004
0.00247801
-0.0001671022
0.002674949
-0.0001969385
0.002889741
-0.0002147925
0.003125391
-0.0002356502
0.003383638
-0.0002582467
0.003656868
-0.0002732298
0.003938817
-0.0002819491
0.00423107
-0.0002922528
0.004527418
-0.0002963486
0.004824812
-0.0002973936
0.005126482
-0.0003016698
0.005421196
-0.0002947143
0.00570292
-0.0002817242
0.005965566
-0.0002626461
0.006205929
-0.0002403623
0.006407038
-0.0002011091
0.006576115
-0.0001690768
0.006700487
-0.0001243725
0.006787598
-8.7111e-05
0.006829292
-4.16943e-05
0.006798434
3.085802e-05
0.006670038
0.0001283963
0.006413623
0.0002564149
0.005968018
0.0004456048
0.005199131
0.0007688875
0.003826501
0.00137263
0.001666336
0.002160165
-0.0003001928
0.001966528
-0.0009790966
0.0006789039
-0.002086418
0.001107322
-0.0040099
0.001923482
-0.004008076
-1.823939e-06
-0.00154371
-0.002464366
0.002150376
-0.003694086
0.002732605
-0.0005822287
-0.001134708
0.003867312
-0.003532781
0.002398073
-0.002342487
-0.001190294
-0.00127108
-0.001071407
-0.0005829992
-0.0006880809
-0.0005991229
1.612374e-05
-0.0008794626
0.0002803396
-0.0002951016
-0.000584361
0.0009934483
-0.00128855
0.001861504
-0.0008680562
0.001673716
0.000187788
0.0003170874
0.001356629
-0.0005772304
0.0008943178
0.000184316
-0.0007615464
-0.0002131336
0.0003974495
-0.002265975
0.002052842
-0.003655071
0.001389096
-0.003546856
-0.0001082155
-0.002685712
-0.0008611437
-0.001621749
-0.001063963
-0.0002668622
-0.001354887
0.0007997451
-0.001066607
0.001697897
-0.0008981517
0.002317226
-0.000619329
0.002330319
-1.30927e-05
0.001431705
0.0008986138
0.0006883381
0.0007433666
0.0009471599
-0.0002588218
-0.003443581
0.00439074
-0.003259596
-0.0001839849
-0.0025508
-0.0007087957
-0.001891449
-0.0006593509
-0.001274577
-0.0006168716
-0.0006217624
-0.000652815
0.0001090292
-0.0007307916
0.0008651052
-0.000756076
0.001576696
-0.0007115912
0.00241183
-0.0008351341
0.003135694
-0.000723864
0.004007312
-0.0008716172
0.004827272
-0.0008199606
0.00565552
-0.0008282475
0.006233094
-0.0005775745
0.006544192
-0.0003110974
0.00665279
-0.000108598
0.006216082
0.0004367077
0.004970314
0.001245768
0.002761211
0.002209103
-4.246741e-05
0.002803678
-0.002044192
0.002001725
-0.002076523
3.233098e-05
-0.001126264
-0.0009502592
0.0001840941
-0.001310358
0.0009878811
-0.000803787
0.0005669116
0.0004209695
-0.0007020343
0.001268946
-0.002350259
0.001648225
-0.002988463
0.0006382036
-0.002147881
-0.0008405821
-0.0007066897
-0.001441191
0.0001701315
-0.0008768212
0.0005334203
-0.0003632888
0.0004354693
9.795099e-05
0.0001861768
0.0002492924
-5.67854e-05
0.0002429622
-0.0003270986
0.0002703132
-0.0004437976
0.000116699
-0.0002537785
-0.0001900191
0.0002491311
-0.0005029096
0.0007865529
-0.0005374219
0.0009757647
-0.0001892118
0.0005758738
0.0003998909
0.000347453
0.0002284208
0.001071961
-0.0007245081
0.0006235281
0.000448433
-0.0002849792
0.0009085073
0.001831621
-0.0021166
0.002744741
-0.0009131201
-0.007136974
0.009881715
-0.00737444
0.000237466
-0.006266376
-0.001108065
-0.005867476
-0.0003988998
-0.005456791
-0.0004106844
-0.005152805
-0.0003039865
-0.00487615
-0.0002766545
-0.004636647
-0.0002395036
-0.004324014
-0.0003126332
-0.004159429
-0.0001645843
-0.004017998
-0.0001414309
-0.003888205
-0.000129793
-0.003772537
-0.0001156686
-0.003661529
-0.0001110081
-0.003556188
-0.0001053402
-0.003456137
-0.0001000511
-0.00336658
-8.9557e-05
-0.00328438
-8.219992e-05
-0.003205749
-7.863145e-05
-0.003128549
-7.720014e-05
-0.003056664
-7.188522e-05
-0.002987809
-6.885483e-05
-0.002923679
-6.413013e-05
-0.002865954
-5.772494e-05
-0.002807367
-5.858616e-05
-0.002749086
-5.828177e-05
-0.002690557
-5.852874e-05
-0.002635694
-5.48629e-05
-0.002586614
-4.908015e-05
-0.002541856
-4.475779e-05
-0.002495314
-4.654232e-05
-0.002449666
-4.564827e-05
-0.002401962
-4.770333e-05
-0.002359834
-4.212872e-05
-0.002320481
-3.935246e-05
-0.002279727
-4.075369e-05
-0.002238883
-4.08448e-05
-0.002197335
-4.154759e-05
-0.002160242
-3.709255e-05
-0.002126698
-3.354432e-05
-0.002160364
3.366636e-05
-0.002141886
-1.847841e-05
-0.002117444
-2.444178e-05
-0.002093014
-2.442986e-05
-0.002071709
-2.130494e-05
-0.002049715
-2.1994e-05
-0.002030168
-1.954714e-05
-0.002012375
-1.77937e-05
-0.001995409
-1.696565e-05
-0.001975077
-2.033243e-05
-0.001954587
-2.048937e-05
-0.001938388
-1.61992e-05
-0.001925377
-1.301139e-05
-0.001915986
-9.390186e-06
-0.001903805
-1.218158e-05
-0.001889681
-1.41237e-05
-0.001878098
-1.158274e-05
-0.001867699
-1.039921e-05
-0.00185241
-1.528957e-05
-0.001835333
-1.707708e-05
-0.001810963
-2.436998e-05
-0.001778472
-3.249057e-05
-0.001737069
-4.140293e-05
-0.001683195
-5.387383e-05
-0.001601304
-8.189152e-05
-0.001496414
-0.0001048895
-0.001373104
-0.0001233105
-0.001204219
-0.0001688844
-0.0009720476
-0.0002321717
-0.0007723586
-0.000199689
-0.0007727913
4.327505e-07
-0.001286453
0.0005136614
-0.000315477
-0.0009709757
0.0006802483
-0.0009957254
0.001032529
-0.0003522808
0.001117473
-8.494366e-05
0.001147019
-2.954565e-05
0.001174201
-2.718235e-05
0.001192565
-1.836402e-05
0.001200942
-8.377088e-06
0.001215203
-1.426058e-05
0.001244929
-2.972601e-05
0.001272862
-2.793363e-05
0.001294667
-2.180457e-05
0.001308357
-1.36906e-05
0.001319948
-1.159076e-05
0.001330697
-1.074869e-05
0.001344062
-1.336543e-05
0.001356058
-1.19955e-05
0.001364369
-8.311137e-06
0.001373676
-9.307083e-06
0.001386705
-1.302904e-05
0.001398415
-1.171027e-05
0.001409442
-1.102672e-05
0.001423758
-1.431574e-05
0.001435429
-1.167085e-05
0.001452586
-1.715692e-05
0.001472336
-1.975047e-05
0.001486726
-1.439e-05
0.001497641
-1.091537e-05
0.001510201
-1.25597e-05
0.001525547
-1.534558e-05
0.001534573
-9.026577e-06
0.001502574
3.199952e-05
0.001525285
-2.271111e-05
0.001553164
-2.78792e-05
0.0015809
-2.773571e-05
0.001608412
-2.751245e-05
0.001638049
-2.96364e-05
0.001665551
-2.750241e-05
0.001690066
-2.451481e-05
0.001716913
-2.684694e-05
0.001747042
-3.012894e-05
0.001779934
-3.289213e-05
0.001808167
-2.823339e-05
0.001834669
-2.650187e-05
0.001863052
-2.838249e-05
0.001894211
-3.11594e-05
0.001926166
-3.195552e-05
0.00196177
-3.560335e-05
0.001998473
-3.670341e-05
0.002035087
-3.661422e-05
0.002072768
-3.768076e-05
0.002107486
-3.471806e-05
0.002149379
-4.189224e-05
0.002192697
-4.331849e-05
0.002237203
-4.450574e-05
0.002285278
-4.807525e-05
0.002334716
-4.943841e-05
0.002389267
-5.455092e-05
0.002448674
-5.94069e-05
0.002508371
-5.969703e-05
0.002573163
-6.479196e-05
0.002646836
-7.367321e-05
0.002736468
-8.963185e-05
0.002921501
-0.0001850326
0.003046386
-0.0001248852
0.003186737
-0.000140351
0.003341743
-0.0001550064
0.003535848
-0.0001941046
0.003733337
-0.0001974893
0.004163461
-0.0004301236
0.000315973
-0.0002921056
0.001282936
-0.001961806
0.0007187094
-0.00200654
0.001235376
-0.0008689472
0.001497918
-0.0003474858
0.001678486
-0.0002101135
0.001837363
-0.0001860594
0.00196916
-0.0001501617
0.002074657
-0.0001138739
0.002169785
-0.0001093882
0.00227023
-0.0001301714
0.002366301
-0.0001240044
0.002457484
-0.0001129875
0.002540359
-9.656522e-05
0.002619287
-9.051951e-05
0.002692934
-8.43958e-05
0.002765582
-8.601261e-05
0.002834028
-8.044172e-05
0.002897541
-7.1824e-05
0.002958049
-6.981507e-05
0.003018613
-7.359289e-05
0.003076015
-6.911293e-05
0.003130519
-6.553086e-05
0.003185878
-6.967458e-05
0.003236982
-6.277494e-05
0.003290539
-7.071366e-05
0.003344289
-7.349996e-05
0.003395104
-6.520523e-05
0.003441655
-5.746655e-05
0.003488991
-5.989537e-05
0.003536426
-6.27806e-05
0.00358032
-5.292124e-05
0.003545378
6.69414e-05
0.003600167
-7.74995e-05
0.003657874
-8.558622e-05
0.003715615
-8.547675e-05
0.003773173
-8.507106e-05
0.003831558
-8.802134e-05
0.003889193
-8.513752e-05
0.003943761
-7.908279e-05
0.004000452
-8.353727e-05
0.004057562
-8.723942e-05
0.004118121
-9.345083e-05
0.004174467
-8.457919e-05
0.00423086
-8.289546e-05
0.004287258
-8.477979e-05
0.0043461
-9.000174e-05
0.004404838
-9.069348e-05
0.004466567
-9.733256e-05
0.004529493
-9.96297e-05
0.004592417
-9.953818e-05
0.004657298
-0.0001025618
0.004719249
-9.666837e-05
0.004787479
-0.0001101222
0.004855347
-0.0001111867
0.004926026
-0.0001151853
0.00499798
-0.000120029
0.005072611
-0.0001240695
0.005149993
-0.000131933
0.005232325
-0.0001417389
0.005314553
-0.0001419246
0.005401806
-0.000152045
0.005495611
-0.0001674788
0.005602566
-0.000196587
0.005862929
-0.0004453951
0.006007149
-0.0002691047
0.006170772
-0.0003039749
0.006344345
-0.0003285787
0.006570776
-0.0004205361
0.006747129
-0.0003738423
0.007296509
-0.0009795036
0.006341235
0.001271247
-0.01107643
0.01042127
0.0008926262
-0.009877755
-0.00230674
-0.009476216
-0.0008004387
-0.009035696
-0.000851204
-0.008710352
-0.0006293304
-0.008409213
-0.000577794
-0.008152225
-0.0004964916
-0.007749664
-0.0007151939
-0.007562825
-0.0003514237
-0.007396927
-0.0003073289
-0.007241013
-0.0002857068
-0.007098335
-0.000258347
-0.006959386
-0.0002499565
-0.006827453
-0.0002372735
-0.006699108
-0.0002283962
-0.006581178
-0.0002074866
-0.006467442
-0.0001959365
-0.006359072
-0.000187001
-0.006250921
-0.0001853517
-0.006148868
-0.0001739378
-0.00604846
-0.0001692629
-0.005952761
-0.0001598295
-0.005861702
-0.0001487834
-0.005770704
-0.0001495844
-0.005681269
-0.0001477168
-0.005591774
-0.0001480241
-0.005506313
-0.0001403235
-0.005423786
-0.0001316069
-0.00534565
-0.0001228936
-0.00526476
-0.0001274324
-0.005186813
-0.0001235955
-0.005106161
-0.0001283555
-0.005030783
-0.0001175071
-0.004956008
-0.0001141265
-0.00488103
-0.0001157319
-0.004805691
-0.000116184
-0.00473019
-0.0001170484
-0.00465772
-0.0001095625
-0.004586612
-0.0001046524
-0.004626622
7.367593e-05
-0.004570388
-7.471228e-05
-0.004513214
-8.16159e-05
-0.004454533
-8.311035e-05
-0.004398727
-7.711145e-05
-0.004340176
-8.054502e-05
-0.004283286
-7.643654e-05
-0.004225015
-7.606477e-05
-0.004166398
-7.558269e-05
-0.00410341
-8.33207e-05
-0.00403912
-8.477906e-05
-0.003975103
-8.021656e-05
-0.003909455
-7.865926e-05
-0.003842506
-7.633913e-05
-0.003768754
-8.593339e-05
-0.003690129
-9.274852e-05
-0.003607818
-9.389391e-05
-0.003521775
-9.644255e-05
-0.003426053
-0.0001110111
-0.003324816
-0.000118315
-0.003211956
-0.0001372296
-0.003088428
-0.0001560185
-0.002952706
-0.0001771248
-0.002802672
-0.0002039078
-0.002625233
-0.0002593307
-0.002427395
-0.000302727
-0.002217997
-0.0003327092
-0.001990318
-0.000396563
-0.001745007
-0.0004774823
-0.001435359
-0.0005093379
-0.001120977
-0.0003139483
0.0006756203
-0.004222448
0.003678631
0.0003598324
-0.003604415
-0.001326829
-0.002753458
-0.001510308
-0.001987748
-0.001382582
-0.001179089
-0.001461473
-0.0003044126
-0.001605468
0.0006605141
-0.001721003
0.001573471
-0.001624549
0.002622439
-0.001884102
0.003563545
-0.00166497
0.004664217
-0.001972289
0.005727892
-0.001883637
0.006820561
-0.001920916
0.007667334
-0.001424347
0.008188781
-0.0008325447
0.008600389
-0.0005202051
0.008846885
0.0001902114
0.008717868
0.001374785
0.007463424
0.003463547
0.003934498
0.006332604
-0.0008402158
0.006776439
-0.003108276
0.002300391
-0.002311115
-0.00174742
-0.0007562179
-0.002865256
5.656612e-05
-0.001616571
-0.0002659934
0.000743529
-0.002514786
0.003517738
-0.00435014
0.003483579
-0.003840835
0.0001288985
-0.002407668
-0.002273749
-0.0007746073
-0.003074251
0.000403433
-0.002054861
0.0008396023
-0.0007994582
0.0007088533
0.0002287001
0.0003230112
0.0006351345
-0.0001650413
0.0007310147
-0.0005923672
0.0006976392
-0.0006296885
0.0001540202
-0.0002786357
-0.0005410719
0.0003940571
-0.001175602
0.001085369
-0.001228733
0.001491468
-0.0005953113
0.001279138
0.0006122207
0.000965825
0.0005417342
0.001755576
-0.001514259
0.001599834
0.0006041746
0.001441616
0.001066726
0.003032412
-0.003707396
0.0006553157
0.001463976
0.0209583
-0.001559654
0.001966055
-0.001081171
-0.001001617
-0.001192762
-0.0006007116
-0.0006091514
-0.0002267046
-0.0006070403
0.0003265479
-0.0008548025
0.0009347419
-0.0009910005
0.001451181
-0.0008219331
0.001497913
2.903285e-05
0.001357008
0.0003216683
0.001180968
0.0004376022
0.0007197085
0.0009131519
-8.8241e-05
0.001243748
-0.0005586074
0.0005173637
-0.000371178
-0.0004901688
-0.0002136384
-0.0004472714
-0.0005385412
0.0004646801
-0.001142011
0.00113617
-0.001265106
0.000446573
-0.0009360021
-0.0004662687
-0.0004680056
-0.0008283791
3.022786e-06
-0.0008183726
0.0003831714
-0.0006368154
0.0006620804
-0.0004553503
0.0009021153
-0.0003884902
0.001091846
-0.0002997893
0.001289318
-0.0003186754
0.001508432
-0.0003543788
0.001715356
-0.0003222439
0.001896019
-0.0002764562
0.002086251
-0.000308501
0.002292773
-0.0003477384
0.002517015
-0.0003823406
0.002775877
-0.0004437911
0.002989456
-0.0003555646
0.003253654
-0.0004300657
0.003514344
-0.0004250906
0.003768892
-0.0004216498
0.004042264
-0.0004703105
0.004325187
-0.0004977159
0.004625211
-0.0005356744
0.004948588
-0.0005816235
0.00529205
-0.0006166918
0.005651902
-0.0006418009
0.006030828
-0.0006711789
0.006422974
-0.0006884946
0.006824615
-0.0006990344
0.007238265
-0.00071532
0.007651634
-0.0007080833
0.008057555
-0.0006876457
0.008448176
-0.0006532664
0.008819185
-0.0006113717
0.009151807
-0.0005337305
0.009452427
-0.0004696968
0.009706661
-0.000378607
0.00992145
-0.0003019003
0.01009221
-0.0002124577
0.01021751
-9.444111e-05
0.01030184
4.406915e-05
0.01033203
0.0002262216
0.01027562
0.0005020157
0.01004886
0.0009956461
0.009349463
0.002072031
0.00742587
0.004083758
0.003622127
0.005770272
-0.0008459389
0.005146969
-0.003837535
0.004098917
-0.004915727
0.003001674
-0.004372091
-0.0005454599
-0.002501076
-0.004335381
0.001871407
-0.008066569
0.002133997
-0.0008448188
-0.003315348
0.009316658
-0.005391197
0.004473922
-0.003330068
-0.003251423
-0.001334055
-0.003067419
-0.00062116
-0.001400976
-0.001231458
0.0006264217
-0.001362279
0.0004111603
-0.0004096116
-0.001537028
0.00112155
-0.002819711
0.002268917
-0.002015423
0.0025094
-5.269575e-05
0.001513315
0.002352715
0.000525478
0.001882155
-2.155401e-05
-0.0002145143
-0.002331713
0.002707608
-0.004805473
0.004526602
-0.005074188
0.00165781
-0.004259325
-0.0009230781
-0.003164288
-0.001956181
-0.001777959
-0.002450292
-0.0002170837
-0.002915762
0.001016151
-0.002299842
0.002097288
-0.001979289
0.002806562
-0.001328603
0.003186653
-0.000393184
0.002977667
0.0011076
0.001872917
0.001848116
0.00139034
0.0002237549
0.009459712
-0.000914541
0.01285045
-0.002274653
0.0004907483
-0.002025188
-0.000810323
-0.001909354
0.0008659046
-0.0005542595
-0.002300345
0.0004663091
-0.001882242
0.000987576
-0.0008233554
0.00124303
-0.0003188837
0.001000328
0.0004621583
0.0001468623
0.001149838
-0.0007024021
0.001373238
-0.0009251144
0.0005501263
-0.001066162
0.0003220809
-0.001155813
0.0002168969
-0.0009885791
-0.0002509295
-0.000585818
-0.0007039387
-0.000215655
-0.0006029902
0.0001905424
-0.0007424078
0.001246015
-0.001781268
0.001623
-0.0002329439
0.00102186
0.0007670996
-0.0004537659
0.001901112
-0.002225979
0.003272273
-0.002100871
0.0002845667
-0.0003382591
-0.003145588
0.0008867054
-0.002266749
0.001897232
-0.001799929
0.002904085
-0.001886033
0.004188231
-0.002389208
0.005171493
-0.001082358
0.004819159
0.001759285
0.003758215
0.001981505
0.003239324
0.0001169108
0.003235879
-0.0006833819
0.00370553
-0.00104395
0.00353302
0.0006480323
0.002591554
0.002088018
0.0004549744
0.003617978
-0.001375679
0.00243231
-0.002397207
0.0007492696
-0.003498117
0.001552871
-0.004031722
0.001724627
-0.003368836
-0.0002195719
-0.001982061
-0.002265154
-0.0009428044
-0.002019555
-0.000369695
-0.001063715
-0.00027754
-0.0001321495
0.0001020454
-0.0007655313
-0.0001298441
0.0003086902
0.003533605
0.0005462526
-0.008320298
0.0206245
-0.002467967
0.003504968
-0.002580606
-0.0006976843
-0.002346247
0.000631546
-0.0008487774
-0.003797815
0.0003371361
-0.003068156
0.0009870218
-0.001473241
0.001324943
-0.000656805
0.0008742455
0.000912856
-0.0003415751
0.002365659
-0.001071723
0.002103386
-0.0011579
0.0006363037
-0.001396341
0.000560522
-0.001530075
0.000350631
-0.00138507
-0.0003959347
-0.0009567761
-0.001132233
-0.0004914077
-0.001068359
4.083668e-05
-0.001274652
0.001231087
-0.002971519
0.002058473
-0.001060329
0.001203157
0.001622416
-0.0009514786
0.004055747
-0.002552171
0.004872966
-0.002035515
-0.0002320893
-0.0001797901
-0.005001313
0.001129894
-0.003576433
0.002202412
-0.002872448
0.003273586
-0.002957207
0.004547182
-0.003662804
0.005756017
-0.002291193
0.006203838
0.001311465
0.005714852
0.002470491
0.00490709
0.000924673
0.004267375
-4.366671e-05
0.004313085
-0.00108966
0.003870526
0.001090591
0.003019613
0.00293893
0.0007218083
0.005915783
-0.002139682
0.0052938
-0.004172363
0.002781951
-0.005187478
0.002567986
-0.004919618
0.001456766
-0.00374325
-0.00139594
-0.00212187
-0.003886534
-0.0008740673
-0.003267357
-0.0002090401
-0.001728742
-0.0001822131
-0.0001589766
4.244509e-05
-0.0009901894
-0.0004829936
0.0008341289
-0.002619583
0.005670194
-0.002334595
-0.001366158
-0.001617609
-0.001909749
-0.0008679216
-0.001358839
-0.0001650084
-0.001309953
0.0005375889
-0.0015574
0.00125323
-0.001706642
0.00197195
-0.001540653
0.002107623
-0.0001066408
0.001931188
0.0004981037
0.001694017
0.0006747729
0.001314747
0.001292422
0.0003839115
0.002174584
-0.0005045628
0.001405838
-0.0007268478
-0.0002678838
-0.0008732384
-0.0003008808
-0.001296186
0.000887628
-0.001665384
0.001505367
-0.001595527
0.0003767165
-0.001207515
-0.0008542806
-0.0006501667
-0.001385728
-6.500594e-05
-0.001403533
0.0003963223
-0.001098144
0.0007379529
-0.000796981
0.001029643
-0.0006801807
0.001258397
-0.0005285424
0.001494722
-0.0005550008
0.001759986
-0.0006196426
0.002014197
-0.0005764555
0.002233216
-0.0004954748
0.002458005
-0.0005332902
0.002698859
-0.0005885919
0.002959072
-0.0006425539
0.003265932
-0.0007506516
0.003523765
-0.0006133974
0.003842282
-0.0007485826
0.004156678
-0.0007394867
0.004459695
-0.0007246662
0.004781627
-0.0007922431
0.005110897
-0.0008269851
0.005459315
-0.000884093
0.005836742
-0.0009590505
0.006241698
-0.001021647
0.006670742
-0.001070845
0.007127052
-0.001127489
0.007602264
-0.001163706
0.008090638
-0.001187409
0.008594226
-0.001218908
0.00909709
-0.001210947
0.009590649
-0.001181205
0.01006521
-0.001127828
0.01051621
-0.001062376
0.01092076
-0.0009382766
0.01128808
-0.0008370174
0.01159986
-0.0006903883
0.01186654
-0.0005685748
0.01208084
-0.0004267571
0.01223199
-0.0002455946
0.0123235
-4.744099e-05
0.01235448
0.0001952424
0.01232427
0.0005322238
0.01224058
0.00107934
0.01212481
0.002187798
0.01157772
0.004630847
0.008962962
0.008385032
0.002890801
0.01121913
-0.002668618
0.009658336
-0.003948238
0.004281294
-0.003087233
-0.001406465
-0.002059987
-0.005362627
0.0008522547
-0.01097881
-0.00024555
0.0002529859
-0.005566459
0.01463757
-0.006900903
0.005808365
-0.0046996
-0.005452725
-0.002243379
-0.00552364
-0.001354695
-0.002289661
-0.001851636
0.001123363
-0.001740199
0.0002997237
-0.0006102624
-0.002666965
0.001223958
-0.004653931
0.002591021
-0.003382487
0.002980086
-0.0004417599
0.002321867
0.003010934
0.001188287
0.003015734
-0.001111937
0.00208571
-0.004798047
0.006393719
-0.006527908
0.006256464
-0.006098737
0.001228639
-0.005138293
-0.001883522
-0.003684657
-0.003409818
-0.001929455
-0.004205493
-6.54663e-05
-0.004779751
0.001426148
-0.003791457
0.002700698
-0.003253839
0.003529931
-0.002157835
0.003884253
-0.0007475065
0.003716613
0.001275241
0.002746508
0.002818221
0.001444183
0.00152608
-0.004305225
0.01520912
-0.005542872
0.001597479
-0.004884258
-0.001985442
-0.003857644
-0.002536923
-0.002860032
-0.002380194
-0.001850362
-0.002471143
-0.0007630639
-0.002692767
0.0004438092
-0.002927876
0.001572835
-0.002753574
0.002846678
-0.003157945
0.003990746
-0.002809037
0.005325403
-0.003306946
0.006620343
-0.003178576
0.007956289
-0.003256863
0.008982447
-0.002450505
0.009604432
-0.00145453
0.01002645
-0.0009422221
0.01014078
7.588324e-05
0.01013478
0.001380782
0.00993572
0.003662607
0.007964728
0.008303596
0.002614932
0.01212623
-0.002465332
0.007380656
-0.003521094
-0.0006916586
-0.002365083
-0.004021267
-0.001555229
-0.002426425
-0.002516214
0.001704514
-0.00464736
0.005648885
-0.005378159
0.004214377
-0.004144288
-0.001104973
-0.002538662
-0.003879374
-0.0005483716
-0.005064542
0.000892918
-0.003496151
0.001372633
-0.001279173
0.001159088
0.0004422453
0.0005881277
0.001206095
-0.0001084276
0.00142757
-0.000645632
0.001234844
-0.0006406421
0.0001490304
-0.0002004946
-0.0009812194
0.0005929696
-0.001969067
0.001403556
-0.00203932
0.001874172
-0.001065928
0.001710961
0.000775432
0.00141787
0.0008348249
0.002194567
-0.002290956
0.002158848
0.0006398936
0.002508213
0.0007173604
0.003139143
-0.004338326
-0.0016872
0.00629032
-0.01294795
0.03221905
-0.01347404
0.001418714
-0.01227883
-0.003501944
-0.01174841
-0.001330857
-0.01125286
-0.00134676
-0.010884
-0.0009981841
-0.0105482
-0.0009136026
-0.01026804
-0.0007766445
-0.009806185
-0.001177052
-0.009600169
-0.0005574387
-0.009414439
-0.0004930595
-0.009239494
-0.0004606512
-0.009078658
-0.000419184
-0.008921336
-0.0004072783
-0.008771876
-0.0003867333
-0.008625554
-0.0003747185
-0.008490135
-0.0003429049
-0.008358112
-0.0003279594
-0.008231972
-0.0003131412
-0.008105415
-0.0003119085
-0.007985457
-0.0002938965
-0.00786653
-0.0002881898
-0.007752148
-0.0002742111
-0.007642274
-0.000258658
-0.007532191
-0.0002596669
-0.007424168
-0.0002557396
-0.007315835
-0.0002563572
-0.007211603
-0.0002445562
-0.007109337
-0.0002338728
-0.007011496
-0.0002207345
-0.006909867
-0.0002290615
-0.006812103
-0.0002213589
-0.006710615
-0.000229844
-0.006614645
-0.0002134767
-0.006518258
-0.0002105136
-0.006421394
-0.0002125963
-0.006323945
-0.0002136327
-0.00622565
-0.0002153435
-0.00612872
-0.0002064921
-0.006030098
-0.0002032747
-0.006064129
0.0001077068
-0.005977404
-0.0001614372
-0.005897656
-0.0001613641
-0.005814577
-0.0001661888
-0.005735018
-0.0001566707
-0.005651624
-0.0001639395
-0.005570154
-0.0001579061
-0.005486635
-0.0001595838
-0.005402973
-0.0001592453
-0.005314539
-0.0001717547
-0.005224969
-0.0001743484
-0.005135629
-0.000169557
-0.005043882
-0.0001704057
-0.004950683
-0.0001695385
-0.004849976
-0.0001866398
-0.004744338
-0.0001983867
-0.004635316
-0.0002029166
-0.004522859
-0.0002088992
-0.004400113
-0.0002337569
-0.004273053
-0.0002453754
-0.004134448
-0.0002758345
-0.00398612
-0.0003043461
-0.00382555
-0.0003376951
-0.003650265
-0.0003791925
-0.003445036
-0.0004645596
-0.003219818
-0.0005279453
-0.002981815
-0.0005707117
-0.00271826
-0.0006601182
-0.00243258
-0.0007631626
-0.002101195
-0.0008407229
-0.001784971
-0.0006301721
-0.001614558
0.0005052065
-0.000335595
-0.003240769
0.0007551265
-0.003097262
0.001374615
-0.001488435
0.001741538
-0.0007144093
0.001998855
-0.0004674306
0.002226027
-0.0004132313
0.002419404
-0.0003435385
0.002577418
-0.0002718878
0.00271642
-0.0002483903
0.002857599
-0.0002713504
0.002991018
-0.0002574234
0.00311855
-0.0002405199
0.003235896
-0.0002139107
0.003348957
-0.0002035802
0.003455786
-0.0001912257
0.003561693
-0.0001919194
0.003663203
-0.0001819511
0.003759112
-0.0001677336
0.003851369
-0.0001620722
0.003943429
-0.0001656524
0.004031929
-0.0001576135
0.004116702
-0.0001503034
0.0042026
-0.0001555728
0.004282689
-0.0001428633
0.004364958
-0.0001529829
0.004447001
-0.0001555435
0.004526343
-0.0001445471
0.004600958
-0.0001320809
0.004676297
-0.0001352353
0.004750066
-0.000136549
0.004827611
-0.0001304664
0.004805239
8.931349e-05
0.004889384
-0.0001616444
0.004973745
-0.0001699476
0.00505631
-0.0001680417
0.00513789
-0.0001666508
0.005219593
-0.0001697245
0.005300592
-0.000166137
0.005377807
-0.0001562976
0.005456849
-0.0001625793
0.005534636
-0.0001650264
0.005616168
-0.0001749822
0.005692849
-0.0001612608
0.005769933
-0.0001599792
0.005846021
-0.0001608677
0.00592423
-0.0001682111
0.006001369
-0.0001678321
0.006081085
-0.0001770486
0.006161589
-0.0001801336
0.006241581
-0.0001795302
0.006323986
-0.0001849669
0.006402316
-0.0001749985
0.00648705
-0.0001948561
0.00657001
-0.0001941466
0.006655979
-0.0002011546
0.006742255
-0.0002063046
0.006830956
-0.0002127703
0.0069214
-0.0002223771
0.007016598
-0.0002369375
0.007110964
-0.0002362901
0.007209824
-0.0002509047
0.00731507
-0.0002727254
0.007428912
-0.0003104283
0.007729277
-0.0007457605
0.007880614
-0.0004204414
0.008056665
-0.0004800262
0.008245005
-0.0005169185
0.008494059
-0.0006695902
0.008704283
-0.0005840664
0.009272485
-0.001547705
0.002223434
-0.0004165881
0.001769297
-0.004593478
0.0006956068
-0.004209457
0.001418084
-0.002210913
0.001891853
-0.001188178
0.002231511
-0.0008070888
0.002530043
-0.0007117631
0.002787101
-0.0006005958
0.003000386
-0.0004851729
0.003186437
-0.0004344412
0.003370895
-0.0004558091
0.003542268
-0.0004287961
0.003704728
-0.0004029799
0.003853739
-0.0003629216
0.003996448
-0.0003462894
0.00413113
-0.0003259077
0.004263777
-0.000324566
0.004391317
-0.0003094916
0.004511479
-0.0002878955
0.004627404
-0.0002779972
0.004742551
-0.0002807987
0.004853381
-0.0002684441
0.004959649
-0.0002565708
0.005067477
-0.0002634012
0.005167916
-0.0002433027
0.005271197
-0.000256263
0.005374252
-0.0002585985
0.005473859
-0.0002441549
0.00556865
-0.000226872
0.005663981
-0.0002305658
0.005757358
-0.0002299258
0.005857416
-0.0002305251
0.005838502
0.0001082279
0.00594307
-0.0002662125
0.006049379
-0.0002762569
0.006152301
-0.0002709636
0.006254033
-0.0002683828
0.006355978
-0.0002716688
0.00645679
-0.0002669493
0.006553227
-0.0002527349
0.00665158
-0.0002609324
0.006748239
-0.0002616846
0.00684914
-0.0002758838
0.006944245
-0.0002563652
0.007039757
-0.0002554916
0.007134104
-0.0002552147
0.007230516
-0.0002646234
0.007325461
-0.0002627767
0.00742335
-0.0002749374
0.007521817
-0.0002786009
0.007619596
-0.0002773093
0.007720269
-0.0002856401
0.007815501
-0.0002702299
0.00791871
-0.0002980653
0.008018909
-0.0002943452
0.008122414
-0.0003046597
0.008226414
-0.000310305
0.008332229
-0.0003185849
0.008440474
-0.0003306224
0.008553479
-0.0003499425
0.008665184
-0.0003479949
0.008781848
-0.0003675693
0.008905828
-0.0003967047
0.009226995
-0.0006315956
0.009393313
-0.0009120785
0.009567143
-0.0005942714
0.009772718
-0.0006856012
0.009999724
-0.0007439247
0.0102923
-0.0009621631
0.01059168
-0.0008834509
0.01110563
-0.002061654
0.01034926
0.002979804
-0.01602691
0.01586525
0.001580374
-0.01488575
-0.004643111
-0.01415157
-0.002065032
-0.01355915
-0.001939182
-0.0131065
-0.001450831
-0.01270356
-0.001316546
-0.01237092
-0.00110929
-0.01206529
-0.001482676
-0.0115712
-0.001051526
-0.01135086
-0.0007134004
-0.01114274
-0.0006687738
-0.01095179
-0.0006101345
-0.01076497
-0.0005940954
-0.01058725
-0.0005644591
-0.01041335
-0.0005486138
-0.01025181
-0.0005044502
-0.01009477
-0.0004849927
-0.009944332
-0.0004635822
-0.009793393
-0.0004628469
-0.009650118
-0.0004371717
-0.0095083
-0.0004300083
-0.009371199
-0.0004113115
-0.009239979
-0.0003898781
-0.009108188
-0.0003914584
-0.008978821
-0.0003851064
-0.008849219
-0.0003859593
-0.008724027
-0.0003697477