/*--------------------------------*- C++ -*----------------------------------*\
| =========                 |                                                 |
| \\      /  F ield         | OpenFOAM: The Open Source CFD Toolbox           |
|  \\    /   O peration     | Version:  2406                                  |
|   \\  /    A nd           | Website:  www.openfoam.com                      |
|    \\/     M anipulation  |                                                 |
\*---------------------------------------------------------------------------*/
FoamFile
{
    version     2.0;
    format      ascii;
    arch        "LSB;label=32;scalar=64";
    class       surfaceScalarField;
    location    "4.78";
    object      phi;
}
// * * * * * * * * * * * * * * * * * * * * * * * * * * * * * * * * * * * * * //

dimensions      [0 3 -1 0 0 0 0];

oriented        oriented;

internalField   nonuniform List<scalar> 
23794
(
0.0009663678
-0.0001851864
-0.0007811814
0.001680749
-0.0007143809
0.002287628
-0.0006068793
0.002865599
-0.0005779707
0.003160488
-0.0002948895
0.002975243
0.000185245
0.002414804
0.0005604397
0.001967299
0.0004475048
0.002268461
-0.0003011617
0.002676029
-0.0004075688
0.001370218
0.001305811
-0.0002334451
0.001603663
-0.001341063
0.001107618
-0.00215595
0.0008148872
-0.002126118
-2.983149e-05
-0.00185015
-0.0002759684
-0.001615808
-0.0002343421
-0.001716073
0.0001002652
-0.001270477
-0.0004455963
0.0004885053
-0.001758982
0.002599243
-0.002110738
0.004511021
-0.001911777
0.006153952
-0.001642931
0.006750434
-0.000596482
0.006118424
0.0006320093
0.00250268
0.003615745
-0.003904854
0.006407533
-0.004324055
0.0004192012
-0.001167277
-0.003156778
0.001092455
-0.002259732
0.002087758
-0.0009953026
0.003588342
-0.001500584
0.006498329
-0.002909987
0.008954249
-0.00245592
0.006507891
0.002446358
0.001076099
0.005431792
-0.0007707596
0.001846859
-0.001070847
0.0003000871
-0.004675238
0.003604392
-0.009052281
0.004377043
-0.01183549
0.00278321
-0.01326894
0.001433451
-0.01405178
0.0007828357
-0.01452606
0.0004742785
-0.01483295
0.0003068913
-0.01493551
0.0001025571
-0.01493805
2.549663e-06
-0.01489067
-4.738763e-05
-0.01479846
-9.220814e-05
-0.01468981
-0.0001086533
-0.01452334
-0.0001664624
-0.01431753
-0.0002058164
-0.01405437
-0.000263156
-0.013768
-0.0002863659
-0.01346471
-0.0003032945
-0.01310866
-0.0003560492
-0.01273408
-0.0003745764
-0.01235138
-0.0003827059
-0.01190566
-0.0004457205
-0.01143799
-0.0004676658
-0.01094625
-0.0004917428
-0.01044805
-0.0004982041
-0.009928989
-0.0005190564
-0.009361895
-0.0005670938
-0.008802714
-0.0005591811
-0.00820298
-0.0005997339
-0.007585949
-0.0006170318
-0.006963249
-0.0006226994
-0.006332543
-0.0006307067
-0.005671608
-0.0006609344
-0.005008934
-0.000662674
-0.004338004
-0.0006709306
-0.003653026
-0.0006849771
-0.002967458
-0.0006855686
-0.002300258
-0.0006672003
-0.001592548
-0.0007077092
-0.0009114521
-0.0006810964
-0.0002675265
-0.0006439255
0.0003658995
-0.000633426
0.001123109
-0.0007572093
0.001863809
-0.0007407001
0.002584905
-0.0007210964
0.0032906
-0.0007056943
0.003978053
-0.0006874533
0.00466237
-0.0006843172
0.005324108
-0.0006617379
0.005996436
-0.0006723285
0.00664796
-0.0006515234
0.007263233
-0.0006152736
0.007882049
-0.0006188158
0.008487842
-0.0006057932
0.009069682
-0.0005818401
0.00964706
-0.0005773774
0.01021046
-0.0005633995
0.01071896
-0.0005085048
0.01122269
-0.0005037238
0.01171036
-0.0004876767
0.01215684
-0.0004464735
0.01260246
-0.0004456223
0.01299511
-0.0003926537
0.01335989
-0.0003647802
0.01368478
-0.0003248833
0.01396579
-0.0002810089
0.01424044
-0.0002746568
0.01447654
-0.0002360958
0.01467167
-0.000195131
0.01482227
-0.0001506005
0.014928
-0.0001057247
0.01500138
-7.338015e-05
0.01500459
-3.215896e-06
0.01495963
4.496081e-05
0.01480646
0.0001531689
0.01446539
0.0003410691
0.0139373
0.0005280947
0.01316505
0.000772243
0.01191566
0.001249391
0.009562233
0.002353431
0.005331752
0.004230482
0.0001523549
0.005179397
-0.003571392
0.003723747
-0.006033361
0.002461969
-0.006398127
0.0003647664
-0.003848153
-0.002549974
0.001380283
-0.005228436
0.00595209
-0.004571807
-0.000185004
0.006137094
-0.01003459
0.009849585
-0.0126174
0.002582808
-0.009753307
-0.00286409
-0.006319789
-0.003433518
-0.003867414
-0.002452375
-0.002228941
-0.001638473
0.0001596602
-0.002388602
0.003127637
-0.002967977
0.004055688
-0.0009280508
0.003186875
0.0008688129
0.001884118
0.001302757
-0.0002857219
0.00216984
-0.002558094
0.002272372
-0.003070525
0.0005124306
-0.001635946
-0.001434579
0.0001935377
-0.001829483
0.001786621
-0.001593084
0.003267482
-0.001480861
0.003350159
-8.267633e-05
0.001134535
0.002215624
-0.001123498
0.002258032
-0.002865454
0.001741956
-0.002631397
-0.000234057
1.524177e-05
-0.002646638
0.002025859
-0.002010617
0.002815845
-0.0007899866
0.001894118
0.0009217276
0.0007255782
0.00116854
-0.0001165481
0.0008421263
-0.0003561735
0.0002396254
-0.0005413599
0.00101226
-2.392833e-05
-0.001769513
0.001957869
-0.001659989
0.002771143
-0.001420154
0.003549871
-0.001356699
0.004023353
-0.0007683714
0.003964613
0.0002439851
0.003313226
0.001211826
0.002583495
0.001177236
0.002693093
-0.0004107602
0.003517787
-0.001232262
0.002669845
0.002153753
-3.578558e-05
0.004309294
-0.002335472
0.003407304
-0.002906518
0.001385933
-0.002640483
-0.0002958663
-0.00276169
-0.0001547621
-0.003335662
0.00033963
-0.003596526
0.0003611298
-0.002045528
-0.001996595
0.0009233184
-0.004727828
0.003621861
-0.00480928
0.005882324
-0.00417224
0.007789283
-0.003549891
0.008528196
-0.001335395
0.008223415
0.0009367904
0.004989981
0.006849178
-0.003591558
0.01498907
-0.006488281
0.003315924
-0.003574864
-0.006070194
-0.002043171
-0.003791425
-0.001796106
-0.001242368
-0.0006599098
-0.00263678
0.001871556
-0.005441452
0.005273817
-0.005858182
0.005656089
0.002064087
0.001298735
0.009789145
-0.005738614
0.008884208
-0.01244119
0.007002663
-0.01752875
0.008691949
-0.02053497
0.007383261
-0.02146668
0.003714922
-0.02162277
0.001589543
-0.02162216
0.0007822278
-0.02155688
0.0004089987
-0.02146264
0.000212649
-0.02126473
-9.535469e-05
-0.02105551
-0.000206671
-0.02083163
-0.0002712652
-0.02056025
-0.0003635922
-0.02027389
-0.0003950047
-0.01992771
-0.0005126447
-0.01954284
-0.0005906842
-0.01909601
-0.0007099873
-0.01862485
-0.0007575325
-0.01814259
-0.0007855506
-0.01760336
-0.0008952815
-0.01704143
-0.0009365009
-0.01647542
-0.0009487146
-0.01583706
-0.001084081
-0.01517797
-0.001126764
-0.01449105
-0.001178661
-0.01379615
-0.001193101
-0.01308288
-0.001232331
-0.01231241
-0.001337562
-0.01155261
-0.001318976
-0.01075071
-0.001401635
-0.009926592
-0.001441152
-0.009099107
-0.001450184
-0.008266456
-0.001463358
-0.007396906
-0.001530485
-0.006524379
-0.001535201
-0.005644686
-0.001550623
-0.004749619
-0.001580045
-0.003856225
-0.001578962
-0.0029821
-0.001541326
-0.002066446
-0.001623363
-0.001180598
-0.001566945
-0.000335912
-0.001488611
0.0004971869
-0.001466525
0.001472139
-0.001732162
0.002432352
-0.001700913
0.003371058
-0.001659802
0.004289788
-0.001624425
0.005189376
-0.001587041
0.006086952
-0.001581893
0.006958583
-0.001533369
0.007842566
-0.001556311
0.008703479
-0.001512437
0.009520453
-0.001432248
0.01034386
-0.001442219
0.01115641
-0.00141835
0.01193923
-0.001364656
0.01271787
-0.001356017
0.01348445
-0.001329981
0.01418681
-0.001210866
0.01488786
-0.001204772
0.01557115
-0.00117097
0.01620852
-0.001083844
0.01684721
-0.001084307
0.01742389
-0.0009693407
0.01797679
-0.0009176774
0.01848521
-0.0008333059
0.01894568
-0.0007414733
0.01940616
-0.0007351377
0.01982594
-0.0006558809
0.0202013
-0.0005704817
0.02053152
-0.0004808249
0.02081625
-0.0003904563
0.02106875
-0.0003258767
0.02125917
-0.0001936408
0.02145613
-0.0001519921
0.02162815
-1.885226e-05
0.02170504
0.0002641784
0.02171624
0.0005168894
0.02165685
0.0008316391
0.0214418
0.001464436
0.02066151
0.003133724
0.01789202
0.006999965
0.01119629
0.01187513
0.002002839
0.0129172
-0.002756147
0.007220955
-0.001338053
-0.001053328
0.0007306613
-0.004618688
0.00304577
-0.007543544
0.004578725
-0.006104761
-0.003935243
0.01465106
-0.01339611
0.01931045
-0.0135917
0.002778396
-0.01020888
-0.00624691
-0.006329538
-0.00731286
-0.003670646
-0.005111267
-0.001957051
-0.003352067
0.0004264612
-0.004772114
0.004064038
-0.006605553
0.006106277
-0.002970289
0.005053248
0.001921841
0.002524122
0.003831883
-0.0008533541
0.005547316
-0.00359532
0.005014339
-0.003858438
0.0007755486
-0.00197071
-0.003322307
0.0003432435
-0.004143437
0.002357685
-0.003607525
0.004063724
-0.0031869
0.004862952
-0.0008819043
0.002869536
0.004209039
-0.001373356
0.006500925
-0.003859528
0.004228128
-0.00266517
-0.001428415
0.0001912266
-0.005503035
0.002191036
-0.004010426
0.003386274
-0.001985225
0.003048629
0.001259372
0.001014635
0.003202534
-0.0009085465
0.002765308
-0.0008984242
0.0002295032
-0.001463712
0.001090767
0.0001436957
-0.003003976
0.002208584
-0.002777806
0.003182131
-0.0023937
0.004135739
-0.002310306
0.004806726
-0.001439359
0.004793915
0.0002567955
0.003960499
0.002045242
0.003031759
0.002105977
0.003026352
-0.0004053529
0.003809878
-0.002015789
0.003194068
0.002769563
-8.843553e-06
0.007512206
-0.002916103
0.006314564
-0.003413738
0.001883568
-0.00314861
-0.0005609943
-0.003412302
0.0001089297
-0.004331061
0.001258389
-0.004337107
0.0003671763
-0.001848691
-0.004485011
0.001746388
-0.008322907
0.004651939
-0.007714832
0.007072803
-0.006593104
0.009094133
-0.005571221
0.009775037
-0.002016299
0.008990565
0.001721263
0.006376103
0.00946364
-0.002260809
0.02362598
-0.007987149
0.009042264
-0.00780812
-0.006249223
-0.008317285
-0.00328226
-0.008978996
-0.0005806568
-0.008201563
-0.003414213
-0.005329864
-0.008313151
-0.001975745
-0.0092123
0.0009558043
-0.000867463
-0.003902923
0.01464787
-0.0155782
0.02055948
-0.02338612
0.01481058
-0.02553642
0.01084225
-0.02557341
0.007420246
-0.02532913
0.00347064
-0.02534597
0.001606387
-0.02540703
0.000843288
-0.02542422
0.0004261906
-0.02540288
0.000191306
-0.02522518
-0.0002730568
-0.02499856
-0.0004332844
-0.02474203
-0.0005277966
-0.02443031
-0.0006753126
-0.02410248
-0.000722832
-0.02370038
-0.0009147459
-0.0232533
-0.001037767
-0.02273056
-0.001232729
-0.02217842
-0.001309672
-0.02161393
-0.001350042
-0.02097843
-0.001530783
-0.0203158
-0.001599128
-0.01964961
-0.0016149
-0.01889399
-0.001839705
-0.01811368
-0.001907072
-0.01729968
-0.001992663
-0.01647577
-0.002017007
-0.0156298
-0.002078303
-0.01471316
-0.002254207
-0.01381063
-0.002221503
-0.01285501
-0.002357257
-0.01187298
-0.00242318
-0.01088616
-0.002436997
-0.009892691
-0.002456831
-0.008854388
-0.002568788
-0.007812086
-0.002577502
-0.006760098
-0.002602612
-0.005689843
-0.002650299
-0.004620137
-0.002648669
-0.00357171
-0.002589752
-0.002475134
-0.00271994
-0.001411909
-0.002630169
-0.0003949268
-0.002505593
0.0006110098
-0.002472462
0.001775732
-0.002896884
0.002925169
-0.002850349
0.00404935
-0.002783983
0.005148138
-0.002723213
0.006223567
-0.00266247
0.007295778
-0.002654104
0.008335835
-0.002573426
0.009390285
-0.002610761
0.01041587
-0.002538026
0.01138851
-0.002404882
0.01236868
-0.002422393
0.01333471
-0.002384382
0.01426469
-0.002294634
0.01518962
-0.002280943
0.0160994
-0.002239758
0.01693134
-0.002042815
0.01776228
-0.002035712
0.01857105
-0.001979737
0.01932343
-0.001836226
0.02007917
-0.001840047
0.02075816
-0.001648325
0.02140962
-0.001569146
0.02200655
-0.001430234
0.02254399
-0.001278915
0.02308321
-0.001274349
0.02357159
-0.001144264
0.02400762
-0.001006513
0.0243886
-0.0008618018
0.02471459
-0.0007164514
0.02500325
-0.0006145332
0.02521348
-0.0004038713
0.02541072
-0.0003492375
0.02554545
-0.0001535835
0.02554932
0.0002603162
0.02547802
0.0005881841
0.02537356
0.0009361056
0.02525895
0.001579041
0.02527478
0.003117889
0.02525134
0.007023409
0.0227755
0.01435097
0.01638976
0.01930294
0.01111942
0.0124913
0.009760615
0.0003054798
0.009584421
-0.004442494
0.006984124
-0.004943247
0.002201911
-0.001322549
-0.00688318
0.02373615
-0.01392758
0.02635485
-0.01339188
0.002242694
-0.009616503
-0.01002228
-0.005179448
-0.01174991
-0.002353374
-0.007937341
-0.0007012316
-0.005004209
0.001224862
-0.006698208
0.004688352
-0.01006904
0.00675524
-0.005037178
0.005221248
0.003455833
0.002232408
0.006820723
-0.001103373
0.008883097
-0.003971114
0.00788208
-0.004477591
0.001282026
-0.00216654
-0.005633359
0.0006991303
-0.007009107
0.00299604
-0.005904435
0.005053617
-0.005244477
0.006124761
-0.001953048
0.004533087
0.005800713
-0.0008828868
0.0119169
-0.004548353
0.007893594
-0.003015894
-0.002960874
-9.015615e-05
-0.008428773
0.001745571
-0.005846153
0.002927246
-0.003166901
0.002839371
0.001347248
0.0003087191
0.005733186
-0.001713713
0.00478774
-0.001145408
-0.0003388019
-0.002465425
0.001076074
0.0004162507
-0.004496301
0.002412324
-0.004114056
0.003537443
-0.00351882
0.004652632
-0.003425495
0.005565606
-0.002352332
0.005751111
7.129027e-05
0.004893867
0.002902487
0.003723334
0.00327651
0.003334486
-1.650516e-05
0.003821469
-0.002502772
0.003190264
0.003400768
-0.0004456864
0.01114816
-0.003601703
0.009470581
-0.004037958
0.002319823
-0.003784929
-0.0008140231
-0.003914615
0.0002386151
-0.004753339
0.002097114
-0.004503818
0.0001176557
-0.001404998
-0.007583831
0.002520964
-0.01224887
0.005471754
-0.01066562
0.007930369
-0.009051719
0.009963301
-0.007604152
0.01045068
-0.00250368
0.009245232
0.002926712
0.006855846
0.01185303
-0.001607727
0.03208956
-0.01012826
0.0175628
-0.01371685
-0.002660633
-0.01647087
-0.0005282447
-0.01791102
0.0008595026
-0.01759231
-0.003732925
-0.01513264
-0.01077282
-0.01081324
-0.0135317
-0.009524813
-0.002155887
-0.01642354
0.0215466
-0.02669286
0.03082881
-0.0307443
0.01886202
-0.03051337
0.01061132
-0.03023659
0.007143471
-0.03040222
0.003636271
-0.03064835
0.001852517
-0.03077952
0.0009744506
-0.0308
0.0004466752
-0.03076184
0.000153144
-0.03051921
-0.0005156847
-0.03022202
-0.000730478
-0.02989064
-0.0008591756
-0.02949259
-0.001073356
-0.02907967
-0.001135761
-0.02857975
-0.001414659
-0.02802749
-0.001590025
-0.02738536
-0.001874867
-0.02670869
-0.001986339
-0.02601897
-0.002039758
-0.02524591
-0.00230385
-0.02444059
-0.002404449
-0.02363184
-0.002423643
-0.02271926
-0.002752288
-0.0217753
-0.002851033
-0.02079216
-0.002975801
-0.01979863
-0.003010543
-0.01878002
-0.003096912
-0.01767535
-0.003358871
-0.01659058
-0.003306274
-0.01544107
-0.003506771
-0.01426167
-0.003602577
-0.01307574
-0.003622924
-0.0118828
-0.003649771
-0.01063646
-0.003815134
-0.009385533
-0.003828426
-0.008122711
-0.003865434
-0.00683958
-0.00393343
-0.005554307
-0.003933941
-0.004294303
-0.003849756
-0.002974639
-0.004039604
-0.001692033
-0.003912776
-0.0004601339
-0.003737492
0.000759223
-0.003691818
0.002154622
-0.004292283
0.003532142
-0.004227869
0.004882038
-0.00413388
0.006198872
-0.004040047
0.007485939
-0.003949537
0.008768312
-0.003936477
0.01001193
-0.003817045
0.01127549
-0.003874322
0.01250237
-0.003764906
0.01366904
-0.003571551
0.01484646
-0.003599814
0.01600528
-0.003543199
0.01712432
-0.003413678
0.01823945
-0.003396068
0.01933371
-0.003334021
0.02033822
-0.00304732
0.02134254
-0.003040033
0.02231923
-0.002956431
0.02323071
-0.002747698
0.02414692
-0.002756259
0.02497212
-0.002473528
0.02576447
-0.002361492
0.02649264
-0.002158411
0.02715315
-0.001939418
0.02781561
-0.001936816
0.02841727
-0.001745916
0.02895915
-0.001548396
0.02943435
-0.001337
0.02984868
-0.001130786
0.03021893
-0.0009847762
0.03049671
-0.0006816535
0.03076337
-0.0006159015
0.03095367
-0.000343886
0.03097001
0.0002439782
0.03087316
0.0006850375
0.03068044
0.00112882
0.03038061
0.00187888
0.0299706
0.003527894
0.03011022
0.00688379
0.03063306
0.01382812
0.02954691
0.0203891
0.02709669
0.01494151
0.02488204
0.002520125
0.02224473
-0.001805179
0.01490599
0.002395487
0.003508083
0.01007536
-0.006935085
0.03417932
-0.0127867
0.03220646
-0.0125165
0.001972496
-0.008156288
-0.0143825
-0.003173223
-0.01673298
-0.0002145794
-0.01089598
0.001370142
-0.00658893
0.00262056
-0.007948627
0.005169207
-0.01261769
0.006459215
-0.006327186
0.004353218
0.00556183
0.001371122
0.009802819
-0.00172981
0.01198403
-0.004873157
0.01102543
-0.005372079
0.001780949
-0.002416916
-0.008588522
0.0009518841
-0.01037791
0.003706345
-0.008658896
0.006261386
-0.007799518
0.007433995
-0.003125657
0.006323294
0.006911414
0.0003768062
0.01786339
-0.004699464
0.01296986
-0.003391581
-0.004268757
-0.0006270178
-0.01119334
0.0004109304
-0.006884101
0.001191651
-0.003947621
0.0009502771
0.001588622
-0.001641454
0.008324917
-0.00261593
0.005762216
-0.001490366
-0.001464366
-0.003539541
0.0009883515
0.0008152793
-0.006299931
0.002632703
-0.005758408
0.003913229
-0.004799345
0.005153636
-0.004665902
0.006305465
-0.003504162
0.006757578
-0.0003808227
0.006004064
0.003656001
0.004537161
0.004743412
0.003476174
0.001044482
0.003434268
-0.002460865
0.002494606
0.004340429
-0.001522091
0.01516485
-0.004567067
0.01251556
-0.004808479
0.002561235
-0.004462202
-0.0011603
-0.004260315
3.672762e-05
-0.004643209
0.002480008
-0.004150353
-0.0003752002
-0.0008475919
-0.01088659
0.002949567
-0.01604603
0.005693562
-0.01340962
0.008116587
-0.01147474
0.01021747
-0.009705031
0.01058479
-0.002871001
0.009068483
0.004443016
0.006312806
0.0146087
-0.00253352
0.04093588
-0.01363031
0.02865959
-0.02128921
0.004998259
-0.02590946
0.004092008
-0.02811852
0.003068562
-0.02884394
-0.003007503
-0.02839094
-0.01122582
-0.02706862
-0.01485402
-0.02808792
-0.001136587
-0.03248056
0.02593923
-0.03615622
0.03450447
-0.03613221
0.01883801
-0.03570387
0.01018299
-0.03590575
0.00734535
-0.03619871
0.003929228
-0.03646877
0.002122578
-0.03663696
0.001142635
-0.03668722
0.0004969367
-0.0366733
0.0001392314
-0.03640576
-0.000783225
-0.03607558
-0.001060661
-0.03570205
-0.001232704
-0.03523633
-0.001539076
-0.0347679
-0.00160419
-0.03417911
-0.002003456
-0.03353383
-0.002235303
-0.03277316
-0.002635531
-0.03197177
-0.002787737
-0.03115795
-0.002853572
-0.03023634
-0.003225459
-0.02927681
-0.003363984
-0.02831655
-0.003383897
-0.02722819
-0.003840651
-0.02609885
-0.003980372
-0.02492359
-0.004151057
-0.02373809
-0.004196047
-0.02252211
-0.004312891
-0.02119665
-0.004684331
-0.0199022
-0.00460073
-0.01852407
-0.004884892
-0.01711345
-0.005013202
-0.01569288
-0.005043492
-0.01426621
-0.005076438
-0.01277209
-0.00530926
-0.01127287
-0.005327642
-0.009757266
-0.005381041
-0.008220816
-0.005469881
-0.006678741
-0.005476016
-0.005167588
-0.005360909
-0.003577958
-0.005629234
-0.002027882
-0.005462852
-0.0005320395
-0.005233335
0.0009458112
-0.005169669
0.00261718
-0.005963652
0.004266269
-0.005876958
0.00588416
-0.00575177
0.007455023
-0.005610911
0.008988318
-0.005482832
0.01051864
-0.005466803
0.0120036
-0.005301997
0.01351871
-0.005389433
0.01498395
-0.005230152
0.01638369
-0.00497129
0.01779916
-0.005015285
0.01918376
-0.004927793
0.02052575
-0.004755666
0.02186806
-0.004738386
0.02317577
-0.004641723
0.02437813
-0.004249687
0.02558267
-0.004244567
0.02675008
-0.004123843
0.02783625
-0.003833866
0.02893362
-0.003853635
0.02991608
-0.003455983
0.03085879
-0.003304202
0.0317232
-0.003022824
0.03250297
-0.002719189
0.03328822
-0.002722062
0.03399309
-0.002450788
0.03463128
-0.002186591
0.03518254
-0.001888252
0.03565974
-0.001607988
0.03608867
-0.001413707
0.03639102
-0.0009840061
0.03668695
-0.0009118322
0.03688407
-0.000541004
0.03687462
0.000253428
0.03672972
0.0008299383
0.03649014
0.001368399
0.03614694
0.002222082
0.03564841
0.004026426
0.03535133
0.007180868
0.03622029
0.01295916
0.03773457
0.01887483
0.03753689
0.01513919
0.03530716
0.00474985
0.03213354
0.00136844
0.02366287
0.01086616
0.00831463
0.0254236
-0.003797904
0.04629186
-0.009014013
0.03742257
-0.009281554
0.002240037
-0.004743818
-0.01892023
0.0002983863
-0.02177518
0.003692724
-0.01429032
0.004615666
-0.007511871
0.004754584
-0.008087544
0.005517793
-0.0133809
0.005344904
-0.006154297
0.002879716
0.008027018
-0.0001160145
0.01279855
-0.003615243
0.01548326
-0.00672344
0.01413362
-0.00661993
0.001677439
-0.002897951
-0.0123105
0.001047069
-0.01432293
0.004438835
-0.01205066
0.007593017
-0.0109537
0.008901133
-0.004433773
0.008307505
0.007505042
0.002705957
0.02346493
-0.003517699
0.01919352
-0.00320582
-0.004580636
-0.001517882
-0.01288127
-0.001643244
-0.006758739
-0.002081579
-0.003509286
-0.003069912
0.002576954
-0.004184278
0.009439284
-0.003654473
0.005232412
-0.002182223
-0.002936617
-0.004906484
0.0006415219
0.001588502
-0.008529955
0.002811313
-0.007928199
0.004357713
-0.006345746
0.005690896
-0.005999084
0.007053347
-0.004866613
0.00777577
-0.001103246
0.007164295
0.004267476
0.005337262
0.006570445
0.003338204
0.003043539
0.002211831
-0.001334491
0.0006244451
0.005927815
-0.003467312
0.01925661
-0.005789548
0.01483779
-0.005758063
0.002529749
-0.005244687
-0.001673676
-0.004600557
-0.000607402
-0.004189309
0.002068759
-0.003399711
-0.001164798
-0.0005541036
-0.0137322
0.00235036
-0.01895049
0.00470427
-0.01576353
0.007329962
-0.01410044
0.009919732
-0.0122948
0.01047423
-0.003425498
0.008524873
0.006392372
0.004623844
0.01850973
-0.005255987
0.05081571
-0.01832473
0.04172833
-0.02898367
0.0156572
-0.03456998
0.009678316
-0.03746217
0.005960758
-0.03946989
-0.0009997909
-0.04137083
-0.009324877
-0.04350922
-0.01271564
-0.04594094
0.001295139
-0.04625702
0.02625531
-0.04395947
0.03220692
-0.04260993
0.01748847
-0.04300524
0.01057829
-0.04339019
0.0077303
-0.04373228
0.004271322
-0.04401767
0.002407967
-0.04420446
0.001329425
-0.04419052
0.0004829981
-0.04415135
0.0001000595
-0.04380283
-0.001131745
-0.0433947
-0.001468792
-0.04292764
-0.001699761
-0.04234115
-0.002125565
-0.04177946
-0.002165887
-0.04105677
-0.002726143
-0.04027758
-0.003014491
-0.03935465
-0.003558467
-0.03838294
-0.003759443
-0.0374047
-0.003831815
-0.03628981
-0.004340346
-0.03513357
-0.004520228
-0.03398332
-0.004534143
-0.0326745
-0.005149476
-0.03131191
-0.005342953
-0.02990089
-0.005562078
-0.02847751
-0.005619432
-0.02702136
-0.005769037
-0.02542336
-0.006282329
-0.02387814
-0.006145954
-0.02222092
-0.006542115
-0.02052975
-0.006704371
-0.01882711
-0.006746135
-0.01712123
-0.006782314
-0.01533245
-0.007098042
-0.01354113
-0.007118963
-0.01172199
-0.007200179
-0.009883501
-0.007308368
-0.008028684
-0.007330833
-0.006222599
-0.007166994
-0.004311331
-0.007540502
-0.002432471
-0.007341712
-0.0006122208
-0.007053585
0.001179874
-0.006961764
0.003181687
-0.007965465
0.005156495
-0.007851766
0.007080992
-0.007676267
0.008945224
-0.007475142
0.01077178
-0.007309386
0.01260201
-0.007297036
0.01438088
-0.007080866
0.01620709
-0.007215647
0.01795956
-0.006982616
0.01964483
-0.006656564
0.02135518
-0.006725639
0.02301155
-0.00658416
0.02462218
-0.00636629
0.02624903
-0.006365242
0.02781567
-0.006208358
0.02925647
-0.005690494
0.03070744
-0.005695536
0.03211065
-0.005527051
0.03341193
-0.00513515
0.03473502
-0.005176726
0.03591753
-0.004638488
0.03705302
-0.004439699
0.03809233
-0.004062132
0.03903508
-0.003661936
0.03999012
-0.003677104
0.04083862
-0.003299282
0.04162118
-0.002969152
0.04228983
-0.002556908
0.04287852
-0.002196678
0.04340947
-0.001944652
0.04379373
-0.001368263
0.04416506
-0.001283168
0.0444339
-0.0008098396
0.04446826
0.0002190656
0.04432922
0.0009689812
0.04407293
0.001624681
0.04368677
0.002608247
0.04314045
0.004572745
0.04263522
0.0076861
0.04287938
0.012715
0.04416895
0.01758526
0.04427783
0.01503031
0.04191054
0.007117135
0.03904407
0.004234911
0.03239463
0.0175156
0.01672237
0.04109586
0.00324374
0.05977049
-0.001631989
0.0422983
-0.00146644
0.002074488
0.001708386
-0.02209506
0.006292861
-0.02635966
0.009045709
-0.01704317
0.009259946
-0.007726108
0.007908727
-0.006736326
0.006054986
-0.01152716
0.004025536
-0.004124847
0.001183574
0.01086898
-0.002441729
0.01642385
-0.00664708
0.01968861
-0.009145818
0.01663236
-0.008327553
0.000859173
-0.003782563
-0.01685549
0.001024304
-0.01912979
0.005211673
-0.01623803
0.009043407
-0.01478543
0.01062992
-0.006020282
0.01058911
0.007545848
0.005983629
0.02807041
-0.0007250935
0.02590224
-0.001980034
-0.003325696
-0.002481254
-0.01238005
-0.004252512
-0.00498748
-0.005976369
-0.001785429
-0.007138994
0.003739579
-0.006543962
0.008844252
-0.004882861
0.003571311
-0.003358725
-0.004460753
-0.006676707
-0.0001331286
0.002960238
-0.01135706
0.002694257
-0.01075558
0.00483178
-0.008483269
0.006323456
-0.00749076
0.007878364
-0.00642152
0.008819395
-0.002044277
0.008339655
0.004747216
0.006174085
0.008736015
0.002898148
0.006319477
-0.0001480518
0.001711708
-0.002944911
0.008724675
-0.006078437
0.02239014
-0.007128774
0.01588813
-0.006960332
0.002361307
-0.006243258
-0.002390749
-0.005205035
-0.001645625
-0.003982728
0.0008464526
-0.002980222
-0.002167305
-0.001313469
-0.01539895
2.170497e-05
-0.02028567
0.002160622
-0.01790244
0.005525919
-0.01746573
0.009087139
-0.01585602
0.01007879
-0.004417145
0.007144376
0.009326783
0.001145559
0.02450855
-0.01016365
0.06212492
-0.0244117
0.05597638
-0.03621515
0.02746065
-0.04171793
0.0151811
-0.04495381
0.009196638
-0.04786124
0.001907639
-0.0511257
-0.006060415
-0.05516525
-0.008676089
-0.05814207
0.004271954
-0.05631396
0.02442721
-0.05204565
0.02793861
-0.05114233
0.01658515
-0.05175049
0.01118644
-0.0520076
0.007987415
-0.05236044
0.004624166
-0.05265562
0.002703144
-0.05290607
0.001579877
-0.05288416
0.0004610853
-0.05291147
0.0001273705
-0.05245322
-0.00158999
-0.05198561
-0.00193641
-0.05144208
-0.002243291
-0.05072052
-0.002847118
-0.05008311
-0.002803304
-0.04920294
-0.003606306
-0.04828732
-0.003930116
-0.04718116
-0.004664623
-0.04600936
-0.004931242
-0.04484929
-0.004991892
-0.04351733
-0.005672304
-0.04213021
-0.005907342
-0.04074938
-0.00591498
-0.03919028
-0.006708573
-0.03755846
-0.006974769
-0.03586908
-0.007251467
-0.03414382
-0.007344687
-0.03242503
-0.007487825
-0.03048896
-0.008218404
-0.02865037
-0.00798454
-0.02664993
-0.008542559
-0.02462551
-0.00872879
-0.0225903
-0.008781342
-0.02051704
-0.008855579
-0.01839269
-0.009222392
-0.01625907
-0.009252577
-0.01408031
-0.009378945
-0.0119001
-0.009488574
-0.009635681
-0.009595252
-0.007502115
-0.00930056
-0.005205439
-0.009837179
-0.002922031
-0.00962512
-0.0007036806
-0.009271935
0.00147359
-0.009139035
0.003868621
-0.0103605
0.006229144
-0.01021229
0.008484642
-0.009931765
0.01070541
-0.009695909
0.01290375
-0.009507725
0.01509586
-0.009489153
0.01723034
-0.009215341
0.01944946
-0.009434773
0.0215507
-0.009083855
0.02356938
-0.008675243
0.02562432
-0.008780575
0.02762495
-0.008584793
0.02956105
-0.008302392
0.03150382
-0.008308004
0.03338553
-0.008090068
0.03510704
-0.007412012
0.03684461
-0.007433101
0.0385064
-0.007188837
0.04007976
-0.006708519
0.04166773
-0.006764689
0.0430743
-0.006045056
0.04444688
-0.005812281
0.04567436
-0.005289613
0.04680262
-0.004790193
0.04795185
-0.004826338
0.0489474
-0.004294832
0.04989412
-0.003915877
0.05067133
-0.00333411
0.05137528
-0.00290063
0.05201537
-0.002584743
0.05244752
-0.001800413
0.05289787
-0.001733521
0.05321069
-0.001122656
0.05320271
0.0002270485
0.05302409
0.0011476
0.05271183
0.001936937
0.05228849
0.003031592
0.05172564
0.005135593
0.05130191
0.008109827
0.05137725
0.01263966
0.05208271
0.0168798
0.05170473
0.01540829
0.04893799
0.009883876
0.04577101
0.007401894
0.04150589
0.02178073
0.02962432
0.05297742
0.01685728
0.07253752
0.009246259
0.04990933
0.008703965
0.002616781
0.01234464
-0.02573573
0.01552439
-0.0295394
0.01678965
-0.01830844
0.01566844
-0.006604889
0.0124137
-0.003481594
0.007486451
-0.006599905
0.003378742
-1.713774e-05
-0.0002611222
0.01450884
-0.005173881
0.02133661
-0.009927844
0.02444257
-0.01198493
0.01868944
-0.01070764
-0.0004181123
-0.005130141
-0.02243299
0.0008416907
-0.02510163
0.005999572
-0.02139591
0.0105935
-0.01937936
0.01258422
-0.008011004
0.01309779
0.007032277
0.01020028
0.03096793
0.003968439
0.03213408
0.0003042629
0.0003384798
-0.003175714
-0.008900077
-0.006605274
-0.001557921
-0.009120275
0.0007295717
-0.01023839
0.004857698
-0.008916107
0.007521965
-0.006962133
0.001617336
-0.005245782
-0.006177104
-0.00896225
-0.001409505
0.004989679
-0.01493724
0.001947828
-0.01411292
0.005042353
-0.01157779
0.007017711
-0.009466118
0.008746445
-0.008150254
0.009807515
-0.003105347
0.00956632
0.004988411
0.007150181
0.01115215
0.002008437
0.01146122
-0.002909572
0.006629717
-0.006981341
0.01279644
-0.008773969
0.02418276
-0.008452375
0.01556654
-0.00839672
0.002305652
-0.007499139
-0.00328833
-0.006183686
-0.002961077
-0.004496581
-0.0008406525
-0.0040372
-0.002626686
-0.003847461
-0.01558869
-0.004035987
-0.02009714
-0.001931054
-0.02000738
0.002414331
-0.02181112
0.006769001
-0.02021069
0.008265914
-0.005914057
0.003572798
0.0140199
-0.005130434
0.03321178
-0.01804979
0.07504428
-0.03274263
0.07066922
-0.04385662
0.03857465
-0.04887165
0.02019612
-0.05275966
0.01308465
-0.05637308
0.005521051
-0.06002252
-0.002410969
-0.06455707
-0.004141544
-0.06767745
0.007392336
-0.06596176
0.02271152
-0.06230971
0.02428656
-0.06191629
0.01619173
-0.062335
0.01160515
-0.06262254
0.008274958
-0.06302812
0.005029747
-0.06325792
0.002932942
-0.06361695
0.001938908
-0.06345176
0.0002958989
-0.06344419
0.0001197956
-0.06295392
-0.002080254
-0.06235634
-0.002533989
-0.06176856
-0.002831074
-0.06080977
-0.00380591
-0.06009294
-0.003520132
-0.05902173
-0.004677514
-0.05795267
-0.004999185
-0.05660434
-0.006012944
-0.05516862
-0.006366966
-0.05380182
-0.00635869
-0.05223608
-0.007238048
-0.0505074
-0.007636023
-0.04885933
-0.00756305
-0.04701719
-0.008550708
-0.04507996
-0.008912002
-0.04301559
-0.009315838
-0.0409257
-0.009434578
-0.03896143
-0.009452093
-0.036551
-0.01062883
-0.03439802
-0.01013752
-0.03192218
-0.0110184
-0.02955564
-0.01109532
-0.02711448
-0.01122251
-0.02458771
-0.01138235
-0.0220853
-0.01172481
-0.01950258
-0.0118353
-0.01688103
-0.01200049
-0.01432548
-0.01204412
-0.01156056
-0.01236017
-0.009084569
-0.01177655
-0.006281817
-0.01263993
-0.003525533
-0.0123814
-0.0008211246
-0.01197634
0.00184891
-0.01180907
0.004740489
-0.01325208
0.007453092
-0.01292489
0.01009756
-0.01257624
0.01279532
-0.01239366
0.01547895
-0.01219136
0.01812036