/*--------------------------------*- C++ -*----------------------------------*\
| =========                 |                                                 |
| \\      /  F ield         | OpenFOAM: The Open Source CFD Toolbox           |
|  \\    /   O peration     | Version:  2406                                  |
|   \\  /    A nd           | Website:  www.openfoam.com                      |
|    \\/     M anipulation  |                                                 |
\*---------------------------------------------------------------------------*/
FoamFile
{
    version     2.0;
    format      ascii;
    arch        "LSB;label=32;scalar=64";
    class       surfaceScalarField;
    location    "3.02";
    object      phi;
}
// * * * * * * * * * * * * * * * * * * * * * * * * * * * * * * * * * * * * * //

dimensions      [0 3 -1 0 0 0 0];

oriented        oriented;

internalField   nonuniform List<scalar> 
23794
(
-0.007038303
0.007638756
-0.0006004536
-0.006164243
-0.0008740598
-0.00507943
-0.001084813
-0.003825734
-0.001253696
-0.002580816
-0.001244918
-0.001355213
-0.001225603
-0.00023201
-0.001123203
0.0006416739
-0.0008736839
0.001131358
-0.0004896843
0.001023024
0.0001083344
0.0006398418
0.0003831821
0.0002288636
0.0004109783
0.0005126638
-0.0002838002
0.001315175
-0.000802511
0.001175938
0.000139237
-0.0003908014
0.001566739
-0.001569048
0.001178247
-0.0004930013
-0.001076046
0.001310997
-0.001803999
0.002424673
-0.001113676
0.002470577
-4.590388e-05
0.001063343
0.001407234
-0.001278038
0.002341381
-0.00348414
0.002206102
-0.003354403
-0.0001297373
-0.0008648423
-0.00248956
0.001173816
-0.002038658
0.00217298
-0.0009991645
0.003215648
-0.001042668
0.005391523
-0.002175875
0.008664239
-0.003272715
0.01046476
-0.001800524
0.00703254
0.003432223
-0.0001973617
0.007229901
-0.002839706
0.002642344
8.32574e-05
-0.002922963
0.002302948
-0.002219691
0.002449487
-0.0001465388
0.0001102877
0.0023392
-0.00511292
0.005223208
-0.009341622
0.004228702
-0.01171154
0.002369918
-0.01291798
0.001206442
-0.01359845
0.0006804703
-0.01403059
0.0004321424
-0.01422985
0.0001992506
-0.01430521
7.53628e-05
-0.0143049
-3.116275e-07
-0.01424341
-6.148269e-05
-0.01416326
-8.015461e-05
-0.01402282
-0.0001404361
-0.01384039
-0.000182435
-0.01359944
-0.000240949
-0.0133332
-0.0002662413
-0.01304803
-0.0002851717
-0.01270923
-0.0003387976
-0.01235003
-0.0003591956
-0.01198109
-0.000368946
-0.01154916
-0.0004319285
-0.0110941
-0.0004550602
-0.01061387
-0.0004802265
-0.01012601
-0.0004878591
-0.009616407
-0.0005096054
-0.009059025
-0.0005573817
-0.008507833
-0.000551192
-0.007915886
-0.0005919473
-0.007306505
-0.0006093809
-0.006689986
-0.0006165186
-0.006064477
-0.0006255098
-0.005409
-0.0006554767
-0.004750611
-0.0006583887
-0.004082995
-0.000667616
-0.00340034
-0.0006826551
-0.00271393
-0.0006864102
-0.002046785
-0.0006671446
-0.00133525
-0.0007115354
-0.0006510038
-0.000684246
-5.461794e-06
-0.000645542
0.0006246598
-0.0006301216
0.00137145
-0.0007467905
0.002107811
-0.0007363609
0.002829972
-0.0007221607
0.003537667
-0.0007076954
0.004227281
-0.0006896137
0.004914729
-0.0006874478
0.005579766
-0.0006650367
0.006255677
-0.0006759114
0.006911156
-0.0006554791
0.007531012
-0.0006198555
0.008154925
-0.0006239139
0.008766326
-0.0006114001
0.00935464
-0.000588314
0.00993997
-0.0005853308
0.01051196
-0.000571987
0.01102915
-0.0005171882
0.01154305
-0.0005139035
0.0120422
-0.0004991512
0.01250042
-0.000458224
0.01295983
-0.0004594069
0.01336695
-0.0004071152
0.01374737
-0.0003804264
0.01408913
-0.0003417585
0.01438843
-0.000299303
0.01468416
-0.0002957241
0.01494323
-0.0002590765
0.0151638
-0.0002205631
0.01534255
-0.0001787555
0.01548007
-0.0001375156
0.01558882
-0.0001087529
0.01563691
-4.808426e-05
0.01566171
-2.480707e-05
0.01560623
5.548754e-05
0.01538253
0.0002236952
0.0150211
0.0003614326
0.01451895
0.0005021445
0.01380029
0.0007186614
0.01263648
0.001163817
0.01050918
0.002127295
0.006566479
0.0039427
0.001087162
0.005479318
-0.002984698
0.004071859
-0.003960724
0.0009760265
-0.002392829
-0.001567895
0.00192768
-0.004320509
0.002940839
-0.001013159
-0.005264834
0.008205673
-0.01243724
0.007172401
-0.01206724
-0.0003699989
-0.008481351
-0.003585886
-0.005638134
-0.002843216
-0.004010747
-0.001627387
-0.002631293
-0.001379454
0.0004191702
-0.003050463
0.003752172
-0.003333002
0.003521921
0.0002302504
0.0004457916
0.00307613
-0.003014802
0.003460594
-0.005224066
0.002209264
-0.005427859
0.0002037927
-0.004125159
-0.0013027
-0.002198681
-0.001926478
0.0001924786
-0.002391159
0.003668375
-0.003475896
0.004901002
-0.001232628
0.002406033
0.002494969
0.001301454
0.001104579
0.003595394
-0.00229394
0.00684739
-0.003251996
0.007425648
-0.0005782579
0.002975552
0.004450096
-9.313681e-05
0.003068689
3.601536e-05
-0.0001291522
-0.001321774
0.001357789
-0.005015489
0.003693715
-0.007188012
0.002172523
-0.007805408
0.0006173957
-0.0001666513
-0.008916523
0.009749069
-0.001433
-0.007758819
-0.002031764
-0.006366511
-0.002477121
-0.004784256
-0.002835951
-0.003211876
-0.002817298
-0.001665933
-0.002771546
-0.0002376674
-0.002551469
0.0009093133
-0.002020665
0.001553807
-0.001134178
0.001417525
0.0002446159
0.0008131808
0.0009875264
0.0001140415
0.001110118
0.0005006611
-0.0006704199
0.001659524
-0.001961374
0.0007629656
0.001035795
-0.001870147
0.004199852
-0.002311939
0.001620039
-0.0003040954
-0.00308389
0.001665933
-0.003774027
0.003091749
-0.002539492
0.003422511
-0.0003766655
0.00225744
0.002572306
-0.0009482838
0.005547105
-0.004774845
0.006032663
-0.00465715
-0.0002474331
-0.001583154
-0.005563555
0.0002816817
-0.003903494
0.001132791
-0.001850274
0.002032606
-0.001942483
0.00424472
-0.004387989
0.007924322
-0.006952318
0.01069555
-0.004571752
0.009357842
0.004769931
0.002319223
0.01426852
-0.002082184
0.007043751
-0.002470444
-0.002534703
-0.004044951
-0.0006451837
-0.007154489
0.002963
-0.01211938
0.007304087
-0.01725522
0.01035905
-0.01997606
0.006949544
-0.0206201
0.003013958
-0.02075085
0.001337185
-0.02074464
0.0006742626
-0.02068476
0.0003722638
-0.02051394
2.843001e-05
-0.02032498
-0.0001135945
-0.02013219
-0.0001931087
-0.01989554
-0.0002981253
-0.01963856
-0.0003371341
-0.01932047
-0.0004585265
-0.01896111
-0.0005417967
-0.01853892
-0.0006631392
-0.01809038
-0.0007147804
-0.01762856
-0.0007469949
-0.01710894
-0.0008584182
-0.01656475
-0.0009033884
-0.01601459
-0.0009190974
-0.01539226
-0.001054265
-0.01474789
-0.001099432
-0.01407449
-0.001153626
-0.0133918
-0.001170543
-0.01268972
-0.001211683
-0.01193044
-0.001316664
-0.01118037
-0.001301268
-0.01038764
-0.00138467
-0.009572541
-0.001424482
-0.008752365
-0.001436695
-0.007925726
-0.001452149
-0.007062513
-0.00151869
-0.00619502
-0.001525881
-0.005319048
-0.001543589
-0.004426551
-0.001575151
-0.003532201
-0.001580761
-0.002657517
-0.001541828
-0.001737172
-0.00163188
-0.0008468009
-0.001574617
8.546448e-07
-0.001493198
0.0008312218
-0.001460489
0.001792268
-0.001707837
0.00274636
-0.001690453
0.003685083
-0.001660883
0.004605362
-0.001627974
0.005507101
-0.001591353
0.00640812
-0.001588467
0.00728341
-0.001540327
0.008171599
-0.0015641
0.009037069
-0.001520949
0.009859164
-0.001441951
0.01068848
-0.001453234
0.01150764
-0.001430557
0.01229796
-0.001378632
0.01308559
-0.001372964
0.0138621
-0.001348496
0.01457432
-0.00122941
0.01528702
-0.001226602
0.01598335
-0.001195479
0.01663405
-0.00110893
0.01728829
-0.001113645
0.01788113
-0.000999954
0.01845153
-0.0009508291
0.01897859
-0.000868818
0.01945909
-0.0007798034
0.0199426
-0.0007792261
0.02038712
-0.0007036023
0.02078944
-0.000622882
0.02114914
-0.0005384591
0.02146621
-0.0004545782
0.02175574
-0.0003982838
0.02198299
-0.0002753346
0.02220899
-0.0002508096
0.02241234
-0.0001478576
0.02252654
0.0001094879
0.02259617
0.0002918084
0.02263169
0.0004666251
0.02260941
0.0007409412
0.02243187
0.001341357
0.02183487
0.002724296
0.01959992
0.00617765
0.01420275
0.01087648
0.007631384
0.01064322
0.003357387
0.005250023
0.001837159
-4.766674e-05
0.002330953
-0.004814303
-0.0008410632
0.002158857
-0.009709995
0.0170746
-0.0137406
0.011203
-0.01127997
-0.002830623
-0.007581853
-0.007284003
-0.004759458
-0.005665611
-0.003364755
-0.00302209
-0.002214412
-0.002529797
0.0007904266
-0.006055302
0.004873115
-0.00741569
0.003761141
0.001342225
-0.001602997
0.008440268
-0.005721719
0.007579315
-0.007034354
0.003521899
-0.006749054
-8.150691e-05
-0.005191199
-0.002860555
-0.002895587
-0.00422209
-7.090334e-05
-0.005215843
0.003726032
-0.007272832
0.006449012
-0.003955607
0.006174511
0.00276947
0.005472807
0.001806283
0.006904003
-0.003725137
0.009409395
-0.005757388
0.01065902
-0.001827879
0.007451014
0.007658097
0.002640872
0.007878831
-0.001314408
0.003826128
-0.006477613
0.006520994
-0.009838449
0.007054552
-0.01048566
0.002819737
-0.01022055
0.000352283
-0.0006381329
-0.010645
0.01164476
-0.002432758
-0.00926429
-0.003412476
-0.007599975
-0.004141435
-0.005706636
-0.00472929
-0.003822216
-0.004701718
-0.001966735
-0.004627027
-0.0002405677
-0.004277636
0.001195996
-0.003457229
0.002103385
-0.002041566
0.002005509
0.0003424922
0.001115198
0.001877837
0.0001837002
0.002041616
0.0005689732
-0.001055693
0.001137663
-0.002530064
-0.0009612622
0.003134721
-0.003453591
0.00669218
-0.002650982
0.0008174304
-0.0001465282
-0.005588344
0.002086862
-0.006007417
0.003840756
-0.004293386
0.004204828
-0.0007407372
0.002980001
0.003797133
-9.960574e-05
0.008626711
-0.004445258
0.01037832
-0.005105351
0.0004126599
-0.002649689
-0.008019217
-0.001493053
-0.00506013
-0.001465933
-0.001877394
-0.0008838453
-0.002524571
0.001667321
-0.006939155
0.005839692
-0.01112469
0.008655876
-0.007387936
0.008032099
0.005393708
0.002805001
0.01949562
-0.005440562
0.01528931
-0.01257997
0.004604703
-0.01739493
0.004169781
-0.02044002
0.006008091
-0.02326888
0.01013294
-0.02455879
0.01164897
-0.0244523
0.006843051
-0.02427594
0.002837599
-0.02435454
0.001415783
-0.02441374
0.000733467
-0.0244386
0.0003971201
-0.02431261
-9.756178e-05
-0.02413365
-0.0002925479
-0.02392068
-0.0004060786
-0.02364712
-0.00057169
-0.02335364
-0.0006306142
-0.02298388
-0.0008282862
-0.02256625
-0.0009594279
-0.02207215
-0.001157242
-0.02154626
-0.001240662
-0.02100546
-0.001287796
-0.02039278
-0.001471103
-0.01975075
-0.00154542
-0.01910293
-0.001566911
-0.01836598
-0.001791219
-0.01760282
-0.001862593
-0.01680454
-0.001951904
-0.01599481
-0.001980273
-0.01516184
-0.002044657
-0.01425822
-0.002220278
-0.01336669
-0.002192802
-0.01242162
-0.002329739
-0.01144994
-0.002396164
-0.01047141
-0.002415218
-0.009484684
-0.002438878
-0.008453622
-0.002549752
-0.007417075
-0.002562428
-0.00636935
-0.002591314
-0.005302136
-0.002642366
-0.004231463
-0.002651433
-0.003182493
-0.002590798
-0.002081395
-0.002732979
-0.001013855
-0.002642157
8.782592e-06
-0.002515835
0.001011672
-0.002463379
0.00216036
-0.002856524
0.003302562
-0.002832655
0.004426518
-0.002784839
0.005526941
-0.002728397
0.006604814
-0.002669226
0.007681084
-0.002664737
0.008725403
-0.002584646
0.009784784
-0.002623481
0.01081559
-0.002551755
0.01179405
-0.002420411
0.01278098
-0.002440167
0.01375452
-0.002404094
0.01469297
-0.002317085
0.01562829
-0.002308283
0.01654955
-0.002269752
0.01739284
-0.002072699
0.0182373
-0.002071063
0.01906123
-0.002019413
0.01982906
-0.001876756
0.020603
-0.001887589
0.02130081
-0.001697764
0.02197272
-0.001622739
0.02259146
-0.00148756
0.02315229
-0.001340627
0.02371842
-0.001345354
0.02423571
-0.001220895
0.02470325
-0.001090426
0.02511854
-0.0009537436
0.02548271
-0.0008187544
0.02581383
-0.0007294038
0.02607035
-0.000531854
0.02632167
-0.0005021304
0.02651679
-0.0003429768
0.02657275
5.352989e-05
0.02656586
0.000298695
0.02652334
0.0005091478
0.02645413
0.0008101502
0.02634729
0.001448195
0.02638016
0.002691428
0.0265543
0.006003516
0.02542128
0.01200951
0.02210408
0.01396042
0.01841495
0.008939148
0.01418676
0.004180531
0.007268292
0.00210416
-0.001671416
0.01109857
-0.009091086
0.02449427
-0.01172839
0.0138403
-0.009209878
-0.005349132
-0.004701999
-0.01179188
-0.001737863
-0.008629747
-0.0007872872
-0.003972666
-0.0001354216
-0.003181662
0.001494067
-0.00768479
0.004481248
-0.01040287
0.001869805
0.003953668
-0.003795084
0.01410516
-0.006947935
0.01073217
-0.008372413
0.004946377
-0.008280155
-0.0001737653
-0.006504795
-0.004635914
-0.003951385
-0.0067755
-0.0009264858
-0.008240743
0.003416212
-0.01161553
0.006920932
-0.007460328
0.007695726
0.001994676
0.007626613
0.001875396
0.008603748
-0.004702271
0.01063745
-0.007791091
0.01188066
-0.003071086
0.009422466
0.01011629
0.003625863
0.01367543
-0.004068451
0.01152044
-0.01045652
0.01290906
-0.01212813
0.008726167
-0.01218235
0.002873956
-0.01214927
0.0003192014
-0.001142645
-0.01279635
0.01398939
-0.0036258
-0.01113666
-0.005072166
-0.009141894
-0.006136199
-0.00687221
-0.006998974
-0.004614788
-0.006959139
-0.002391127
-0.006850688
-0.0003170444
-0.006351719
0.001400739
-0.005175012
0.0026259
-0.003266727
0.002771145
0.0001972466
0.001758947
0.002890036
0.0004874866
0.003313076
0.0003360146
-0.0009042209
-0.000461406
-0.001732643
-0.003386031
0.006059345
-0.004730686
0.008036836
-0.00288092
-0.001032335
-0.0001407153
-0.008328549
0.002613626
-0.008761759
0.004718648
-0.006398407
0.005139008
-0.001161097
0.003619205
0.005316936
0.0007773824
0.01146853
-0.003482618
0.01463832
-0.005382266
0.002312308
-0.004549911
-0.008851572
-0.004745773
-0.004864268
-0.005514519
-0.001108647
-0.005249494
-0.002789596
-0.002631275
-0.009557373
0.001429954
-0.01518592
0.004823215
-0.0107812
0.004282392
0.005934531
-0.0004480158
0.02422603
-0.01269499
0.02753629
-0.02359799
0.01550771
-0.02808861
0.008660402
-0.02962973
0.007549206
-0.03004419
0.0105474
-0.02934101
0.01094579
-0.02896774
0.006469787
-0.02921704
0.003086899
-0.02946038
0.001659121
-0.02957225
0.0008453377
-0.02960053
0.0004253942
-0.02942473
-0.0002733541
-0.02918259
-0.000534689
-0.02890271
-0.0006859641
-0.02855134
-0.0009230609
-0.02817843
-0.001003525
-0.02771759
-0.001289119
-0.02720088
-0.001476137
-0.02659339
-0.001764733
-0.02594856
-0.001885497
-0.02528751
-0.001948843
-0.02454219
-0.00221643
-0.02376193
-0.002325679
-0.02297553
-0.002353311
-0.02208561
-0.002681139
-0.02116255
-0.002785647
-0.02019855
-0.00291591
-0.01922223
-0.002956594
-0.0182194
-0.003047488
-0.01713063
-0.003309044
-0.01605927
-0.003264161
-0.0149225
-0.003466511
-0.01375556
-0.003563106
-0.01257956
-0.003591214
-0.01139449
-0.00362395
-0.01015653
-0.003787709
-0.008912171
-0.003806789
-0.00765418
-0.003849305
-0.006374797
-0.003921749
-0.005088854
-0.003937376
-0.003828773
-0.003850879
-0.002505231
-0.004056521
-0.001220044
-0.003927344
1.80086e-05
-0.003753887
0.001234543
-0.003679913
0.002613056
-0.004235037
0.003982756
-0.004202355
0.005333171
-0.004135255
0.006652926
-0.004048152
0.007943865
-0.003960165
0.009231739
-0.003952611
0.0104807
-0.003833603
0.01175016
-0.003892945
0.01298306
-0.003784658
0.01415655
-0.003593904
0.01534184
-0.003625447
0.0165094
-0.003571662
0.01763855
-0.003446229
0.01876615
-0.003435881
0.01987406
-0.00337767
0.02089227
-0.003090905
0.02191293
-0.003091718
0.02290794
-0.003014424
0.02383811
-0.002806934
0.0247764
-0.002825875
0.02562441
-0.002545777
0.0264415
-0.00243982
0.02719603
-0.002242099
0.02788475
-0.002029346
0.02857972
-0.002040319
0.02921615
-0.001857325
0.02979606
-0.001670337
0.03031238
-0.00147006
0.03077102
-0.001277394
0.03119293
-0.00115132
0.03152535
-0.0008642671
0.0318539
-0.0008306867
0.03211927
-0.0006083439
0.03221214
-3.934244e-05
0.03221344
0.0002973931
0.03215466
0.0005679307
0.03201643
0.0009483793
0.03174236
0.001722269
0.03137786
0.003055923
0.03144995
0.005931426
0.0321782
0.01128126
0.03212656
0.01401206
0.03056575
0.01049996
0.02687648
0.007869802
0.01630682
0.01267381
0.001898013
0.02550738
-0.005494822
0.03188711
-0.007422423
0.0157679
-0.005033155
-0.0077384
-0.0003411213
-0.01648392
0.0031105
-0.01208137
0.003953595
-0.004815761
0.003141356
-0.002369423
0.002888401
-0.007431835
0.003198741
-0.01071321
-0.0005923748
0.007744784
-0.005304633
0.01881741
-0.008047583
0.01347512
-0.01014999
0.00704878
-0.01018995
-0.0001338011
-0.008184084
-0.00664178
-0.005347198
-0.009612386
-0.002103826
-0.01148411
0.002758096
-0.01647745
0.0069373
-0.01163953
0.008004595
0.0009273816
0.008208329
0.001671662
0.008710969
-0.005204911
0.009919917
-0.009000039
0.01091162
-0.004062789
0.009035114
0.0119928
0.002193213
0.02051733
-0.007876862
0.02159052
-0.0134544
0.0184866
-0.01420552
0.009477284
-0.01457928
0.00324772
-0.0145969
0.0003368139
-0.001750152
-0.01538386
0.01683052
-0.005072455
-0.01337889
-0.007077138
-0.01098196
-0.008533129
-0.008258273
-0.009722662
-0.005561522
-0.00965589
-0.002903497
-0.009508714
-0.0004127277
-0.008842488
0.001591016
-0.007178756
0.003094523
-0.004770234
0.003601536
-0.0003097664
0.002717348
0.003774224
0.0009931223
0.005037302
-0.000337024
0.0004259254
-0.00262145
0.0005517829
-0.005710527
0.009148422
-0.00570616
0.008032469
-0.003153689
-0.003584806
-0.0001876542
-0.01129458
0.003202692
-0.0121521
0.005697706
-0.008893422
0.006212329
-0.00167572
0.00430642
0.007222845
0.001469856
0.0143051
-0.002584122
0.01869229
-0.005938234
0.00566642
-0.007577864
-0.007211942
-0.009632182
-0.002809949
-0.01140143
0.0006606014
-0.01164784
-0.002543183
-0.009441653
-0.01176356
-0.00525858
-0.01936899
-0.002088154
-0.01395162
-0.002765581
0.006611959
-0.01000992
0.03147037
-0.02280722
0.04033359
-0.03225723
0.02495771
-0.03452465
0.01092783
-0.03521122
0.008235775
-0.03511283
0.01044901
-0.03446813
0.01030109
-0.03445107
0.006452721
-0.03480047
0.003436302
-0.03506821
0.00192686
-0.03520897
0.0009861017
-0.03528056
0.0004969867
-0.03509309
-0.0004608253
-0.03483084
-0.0007969409
-0.03451988
-0.0009969202
-0.03410934
-0.001333606
-0.03368938
-0.001423488
-0.03314721
-0.001831288
-0.03254432
-0.002079026
-0.03182514
-0.002483914
-0.03106187
-0.002648767
-0.03028232
-0.002728387
-0.02939401
-0.003104741
-0.02846446
-0.00325523
-0.0275309
-0.003286871
-0.02646971
-0.003742333
-0.02536559
-0.003889762
-0.02421333
-0.004068176
-0.02304847
-0.004121445
-0.02185146
-0.004244501
-0.02054519
-0.004615316
-0.01926688
-0.004542473
-0.01790413
-0.00482926
-0.01650858
-0.004958658
-0.01510011
-0.004999681
-0.0136829
-0.005041157
-0.0121988
-0.00527181
-0.01070702
-0.005298568
-0.009196424
-0.005359902
-0.007663828
-0.005454345
-0.006120992
-0.005480212
-0.004610676
-0.005361195
-0.003018104
-0.005649093
-0.001468203
-0.005477246
3.200596e-05
-0.005254096
0.001507024
-0.005154931
0.003162826
-0.005890839
0.004804684
-0.005844212
0.006425866
-0.005756438
0.008002182
-0.005624468
0.009540654
-0.005498637
0.01107704
-0.005489
0.01256729
-0.005323844
0.01408837
-0.005414026
0.01555971
-0.005256003
0.01696699
-0.005001184
0.01839127
-0.005049722
0.0197858
-0.004966199
0.0211397
-0.004800127
0.02249694
-0.004793124
0.02382074
-0.004701462
0.02503949
-0.004309663
0.02626365
-0.00431587
0.02745302
-0.004203798
0.0285614
-0.003915315
0.02968537
-0.003949847
0.03069508
-0.003555483
0.03166729
-0.003412034
0.03256318
-0.003137984
0.03337667
-0.002842835
0.03420086
-0.002864516
0.03494718
-0.00260364
0.03563093
-0.002354091
0.03623113
-0.002070257
0.03676215
-0.001808416
0.03725235
-0.001641521
0.03762085
-0.001232762
0.03799433
-0.001204169
0.03828055
-0.0008945631
0.03836241
-0.0001212047
0.03833489
0.0003249133
0.03822968
0.0006731393
0.03805055
0.001127513
0.03773258
0.002040238
0.03731105
0.003477454
0.03703091
0.006211562
0.03755892
0.01075325
0.03819402
0.01337695
0.03766183
0.01103215
0.03586878
0.009662848
0.02725312
0.02128948
0.01158066
0.04117984
0.0007423008
0.04272547
0.0002804959
0.01622971
0.002452201
-0.009910105
0.006991903
-0.02102362
0.01008138
-0.01517085
0.0104611
-0.005195482
0.008390263
-0.0002985831
0.00542162
-0.004463193
0.002123619
-0.007415211
-0.002430066
0.01229847
-0.006228147
0.0226155
-0.009559108
0.01680608
-0.01240722
0.009896894
-0.01256443
2.340406e-05
-0.01030008
-0.008906123
-0.007101305
-0.01281117
-0.003605454
-0.01497997
0.001418363
-0.02150127
0.006195626
-0.01641679
0.007590851
-0.0004678435
0.007581064
0.001681448
0.006460019
-0.004083866
0.005914914
-0.008454934
0.007196936
-0.005344811
0.006280484
0.01290925
-0.001986942
0.02878476
-0.01257626
0.03217983
-0.01625873
0.02216908
-0.01688583
0.01010438
-0.01760351
0.003965396
-0.01757704
0.0003103508
-0.002496679
-0.0185149
0.02027177
-0.006829325
-0.01607445
-0.009517585
-0.01318041
-0.01142717
-0.009878299
-0.01302477
-0.006658066
-0.01287612
-0.003494633
-0.01267215
-0.0004957367
-0.01184138
0.001829352
-0.009503845
0.003584776
-0.006525658
0.004486939
-0.001211929
0.003919262
0.0043419
0.00167962
0.007276943
-0.001217055
0.0033226
-0.004816019
0.004150748
-0.007559598
0.011892
-0.006602143
0.007075014
-0.00365319
-0.006533759
-0.0001486661
-0.01479911
0.004002209
-0.01630298
0.006849897
-0.01174111
0.007436825
-0.002262648
0.005036807
0.009622864
0.001716236
0.01762567
-0.002391665
0.0228002
-0.007454528
0.01072928
-0.01219011
-0.002476356
-0.01652202
0.001521958
-0.01944294
0.003581521
-0.02051506
-0.001471063
-0.01935307
-0.01292555
-0.01618861
-0.02253346
-0.0126381
-0.01750213
-0.01501377
0.008987628
-0.0240075
0.0404641
-0.03441283
0.05073891
-0.039168
0.02971288
-0.04010552
0.01186535
-0.04130497
0.009435222
-0.04164037
0.01078441
-0.04146834
0.01012906
-0.04165851
0.00664289
-0.04202252
0.003800312
-0.04232601
0.002230349
-0.04244359
0.001103682
-0.04249365
0.0005470442
-0.04222612
-0.0007283526
-0.04189919
-0.001123868
-0.04150835
-0.001387763
-0.04098888
-0.001853081
-0.04048365
-0.001928716
-0.03981793
-0.002497004
-0.0390892
-0.002807763
-0.0382161
-0.00335701
-0.03729024
-0.003574622
-0.03635294
-0.003665688
-0.0352782
-0.004179484
-0.03415785
-0.004375577
-0.03303959
-0.004405137
-0.03176347
-0.005018446
-0.03043144
-0.005221798
-0.02904806
-0.005451557
-0.02764966
-0.005519844
-0.0262165
-0.005677655
-0.02464194
-0.006189884
-0.02311631
-0.006068098
-0.02147784
-0.006467729
-0.01980512
-0.006631384
-0.0181173
-0.006687502
-0.01642319
-0.006735262
-0.01464742
-0.007047577
-0.01286565
-0.007080344
-0.01105251
-0.007173036
-0.009217846
-0.007289012
-0.007360937
-0.007337121
-0.005556663
-0.00716547
-0.003643473
-0.007562282
-0.001767665
-0.007353054
5.261372e-05
-0.007074374
0.00184154
-0.006943857
0.003832789
-0.007882089
0.005803057
-0.00781448
0.007735546
-0.007688927
0.009606286
-0.007495208
0.01143643
-0.007328776
0.01327125
-0.007323823
0.01505449
-0.00710709
0.01688682
-0.007246354
0.01864562
-0.007014803
0.0203402
-0.006695767
0.02206153
-0.006771053
0.02372998
-0.006634645
0.02535517
-0.006425318
0.02700084
-0.006438789
0.02858695
-0.006287577
0.03004782
-0.005770533
0.03152279
-0.005790838
0.03295282
-0.005633831
0.03428068
-0.005243172
0.03563614
-0.005305306
0.03685151
-0.004770853
0.03802243
-0.004582953
0.03909951
-0.004215066
0.04008272
-0.003826052
0.04108468
-0.003866468
0.04198258
-0.00350154
0.04282002
-0.003191534
0.04354728
-0.002797518
0.04420036
-0.002461488
0.04480578
-0.002246948
0.04526847
-0.001695449
0.04573482
-0.001670523
0.04609462
-0.001254359
0.04623309
-0.0002596707
0.04623657
0.0003214311
0.04615289
0.0007568164
0.04597364
0.00130676
0.04561211
0.002401772
0.04515094
0.003938625
0.04470834
0.006654163
0.04472052
0.01074107
0.04479726
0.01330021
0.04373767
0.01209174
0.04257724
0.01082328
0.03843805
0.02542867
0.02651095
0.05310693
0.01484859
0.05438783
0.0104746
0.02060369
0.01391724
-0.01335275
0.0179482
-0.02505457
0.0198099
-0.01703254
0.01922272
-0.00460831
0.01583094
0.003093206
0.009834562
0.001533181
0.002541749
-0.0001223979
-0.003072741
0.01791296
-0.00679543
0.02633818
-0.01151871
0.02152935
-0.01511099
0.01348918
-0.01550969
0.0004220998
-0.01297811
-0.0114377
-0.009262067
-0.01652721
-0.005684912
-0.01855712
-0.001149989
-0.02603619
0.004142817
-0.0217096
0.006320893
-0.00264592
0.004641037
0.003361304
0.0001638319
0.0003933389
-0.001486153
-0.006804949
0.000284637
-0.007115601
-0.0002494144
0.0134433
-0.00975458
0.03828992
-0.01779511
0.04022036
-0.01946902
0.02384299
-0.02044976
0.01108512
-0.02127881
0.004794449
-0.02115435
0.0001858853
-0.00337926
-0.02230177
0.02444257
-0.008970126
-0.01932314
-0.01249622
-0.0158438
-0.01490651
-0.01175793
-0.01711064
-0.007889338
-0.01674471
-0.004123854
-0.01643763
-0.0005028266
-0.01546241
0.002216619
-0.01222329
0.004281505
-0.008590544
0.005537595
-0.002468019
0.005358006
0.00452149
0.00267047
0.009964479
-0.001827314
0.007820384
-0.006496569
0.008820003
-0.008890577
0.01428601
-0.007560331
0.005744767
-0.004289037
-0.009805052
0.0002015157
-0.01928966
0.005243038
-0.0213445
0.008408275
-0.01490635
0.009009585
-0.002863958
0.005860249
0.0127722
0.001383864
0.02210205
-0.003591347
0.02777541
-0.01070891
0.01784684
-0.01870098
0.005515716
-0.02528131
0.008102291
-0.0293228
0.007623009
-0.03156511
0.0007712485
-0.03229716
-0.0121935
-0.03197181
-0.02285881
-0.03136066
-0.01811328
-0.03526951
0.01289648
-0.04230983
0.04750442
-0.04620987
0.05463895
-0.04633221
0.02983522
-0.04757046
0.0131036
-0.0493228
0.01118756
-0.04980585
0.01126747
-0.04977692
0.01010013
-0.04995295
0.006818918
-0.05029441
0.004141765
-0.05066942
0.002605363
-0.05076938
0.001203644
-0.05090648
0.0006841433
-0.0505754
-0.001059431
-0.05019756
-0.001501714
-0.04974315
-0.001842169
-0.04910064
-0.002495594
-0.04853068
-0.002498678
-0.04771867
-0.003309005
-0.04686251
-0.003663924
-0.04581617
-0.004403352
-0.04469969
-0.004691101
-0.0435881
-0.004777278
-0.04230396
-0.005463625
-0.04095979
-0.005719747
-0.03961738
-0.005747547
-0.038097
-0.006538822
-0.03650161
-0.00681719
-0.03484512
-0.007108051
-0.0331501
-0.007214863
-0.03145811
-0.007369643
-0.02955041
-0.008097579
-0.02773524
-0.007883276
-0.02575782
-0.008445144
-0.02375601
-0.008633197
-0.02173901
-0.008704504
-0.01968018
-0.008794087
-0.0175718
-0.009155956
-0.01545096
-0.009201191
-0.01328065
-0.009343344
-0.01110634
-0.009463321
-0.00883925
-0.009604208
-0.006706687
-0.009298034
-0.004408719
-0.00986025
-0.002130985
-0.009630788
8.187876e-05
-0.009287238
0.002254462
-0.00911644
0.004648634
-0.01027626
0.007010741
-0.01017659
0.009276044
-0.00995423
0.01149834
-0.009717507
0.01369605
-0.009526483
0.01589156
-0.009519328
0.018031
-0.009246538
0.02025822
-0.009473568
0.02236733
-0.009123916
0.02439876
-0.008727194
0.02646748
-0.008839778
0.02848325
-0.008650408
0.03043731
-0.00837938
0.0324034
-0.008404882
0.03430881
-0.008192988
0.03605466
-0.007516384
0.037821
-0.007557178
0.03951462
-0.007327452
0.04111991
-0.006848464
0.0427467
-0.006932091
0.04419214
-0.006216293
0.04560726
-0.005998077
0.04687917
-0.005486972
0.04805573
-0.005002608
0.04926126
-0.005072002
0.05031513
-0.004555408
0.05132814
-0.004204542
0.05217402
-0.003643405
0.05295478
-0.003242249
0.05368317
-0.00297533
0.05420723
-0.002219514
0.0547633
-0.002226589
0.05520727
-0.001698338
0.0553372
-0.0003895985
0.05531214
0.0003464965
0.05517964
0.0008893109
0.05495887
0.001527532
0.05454299
0.002817656
0.05408348
0.004398132
0.05367523
0.007062412
0.05359257
0.01082372
0.05340473
0.01348806
0.05191677
0.0135797
0.0499986
0.01274146
0.04930974
0.02611754
0.04543921
0.05697746
0.0371376
0.06268944
0.03117059
0.0265707
0.03185292
-0.01403507
0.03273991
-0.02594157
0.03220109
-0.01649372
0.03010974
-0.002516961
0.02541734
0.007785605
0.01682947
0.01012105
0.005485009
0.01122206
-0.002198308
0.02559628
-0.007016988
0.03115686
-0.01366312
0.02817548
-0.01819337
0.01801944
-0.01909464
0.001323363
-0.01638897
-0.01414336
-0.01195863
-0.02095755
-0.008558989
-0.02195676
-0.004767244
-0.02982794
6.364724e-06
-0.02648321
0.002476445
-0.005116
-0.003127969
0.008965717
-0.0093125
0.00657787
-0.01028159
-0.005835864
-0.01061084
-0.006786344
-0.01429718
0.01712964
-0.02028036
0.04427311
-0.02317352
0.04311352
-0.02351946
0.02418894
-0.02495975
0.01252541
-0.02573786
0.005572551
-0.0255393
-1.266916e-05
-0.004475989
-0.0269167
0.02959401
-0.01164743
-0.02321282
-0.0162001
-0.0190367
-0.01908263
-0.01402749
-0.02211985
-0.009255076
-0.02151713
-0.004694604
-0.0209981
-0.0003201608
-0.01983686
0.002912733
-0.01545618
0.005382479
-0.01106029
0.006906381
-0.003991922
0.007069885
0.004357986
0.004145157
0.01288921
-0.002132684
0.01409822
-0.007917031
0.01460435
-0.009949615
0.01631859
-0.008575935
0.004371086
-0.004905318
-0.01347567
0.0007917664
-0.02498674
0.006970552
-0.02752329
0.01050483
-0.01844063
0.01104233
-0.003401457
0.007175316
0.01663921
0.001468867
0.0278085
-0.005521452
0.03476573
-0.01591025
0.02823564
-0.02694407
0.01654954
-0.03514642
0.01630464
-0.03991239
0.01238898
-0.043605
0.004463859
-0.0467608
-0.009037695
-0.05051973
-0.01909989
-0.05486011
-0.0137729
-0.05962105
0.01765743
-0.06128667
0.04917005
-0.05763301
0.05098528
-0.05539522
0.02759744
-0.0575027
0.01521107
-0.05924919
0.01293405
-0.05977702
0.0117953
-0.05992462
0.01024773
-0.06016619
0.007060494
-0.06046634
0.004441915
-0.06096036
0.003099376
-0.06095007
0.001193364
-0.06107101
0.0008050828
-0.06069322
-0.001437225
-0.06021471
-0.001980221
-0.05972929
-0.002327592
-0.05887549
-0.003349393
-0.05823403
-0.003140135
-0.05724527
-0.004297767
-0.05624561
-0.004663584
-0.05497012
-0.00567884
-0.05360099
-0.006060235
-0.05229105
-0.006087219
-0.05078112
-0.00697355
-0.04910678
-0.007394089
-0.04750357
-0.007350762
-0.04570642
-0.008335969
-0.04381188
-0.008711729
-0.04178933
-0.009130605
-0.03973495
-0.009269236
-0.0377996
-0.009304991
-0.03542476
-0.01047242
-0.03329818
-0.01000986
-0.03085112
-0.0108922
-0.02850894
-0.01097538
-0.02609353
-0.01111992
-0.02358512
-0.0113025
-0.02109914
-0.01164194
-0.01853407
-0.01176626
-0.01592185
-0.01195556
-0.01337794
-0.01200723
-0.01061547
-0.01236668
-0.008133289
-0.01178021
-0.005332676
-0.01266086
-0.00258344
-0.01238002
0.0001163465
-0.01198703
0.00277607
-0.01177616
0.005677566
-0.01317776
0.008395273
-0.01289429
0.01104356
-0.01260251
0.01373445
-0.0124084
0.0164186
-0.01221064
0.01906622
-0.01216695
0.02160474
-0.01178505
0.02434928
-0.01221811
0.02685919
-0.01163383
0.02930706
-0.01117506
0.0317682