/*--------------------------------*- C++ -*----------------------------------*\
| =========                 |                                                 |
| \\      /  F ield         | OpenFOAM: The Open Source CFD Toolbox           |
|  \\    /   O peration     | Version:  2406                                  |
|   \\  /    A nd           | Website:  www.openfoam.com                      |
|    \\/     M anipulation  |                                                 |
\*---------------------------------------------------------------------------*/
FoamFile
{
    version     2.0;
    format      ascii;
    arch        "LSB;label=32;scalar=64";
    class       volScalarField;
    location    "2.06";
    object      p;
}
// * * * * * * * * * * * * * * * * * * * * * * * * * * * * * * * * * * * * * //

dimensions      [0 2 -2 0 0 0 0];

internalField   nonuniform List<scalar> 
217010
(
-152.4346
-91.30641
-100.1111
-101.258
-96.57801
-88.9859
-90.27382
-90.65311
-90.27637
-89.39996
-88.67367
-88.96543
-89.68542
-90.55338
-92.154
-95.72755
-102.2707
-107.8234
-107.5265
-103.2604
-102.1815
-102.9857
-105.2144
-113.5099
-120.9656
-121.6534
-115.4874
-103.9504
-90.19643
-79.7031
-76.19596
-77.56327
-81.86409
-86.63872
-89.34379
-91.70407
-96.57904
-94.51314
-91.13311
-90.89799
-88.19821
-83.92741
-83.86044
-92.36669
-102.9534
-108.7004
-112.7205
-125.6272
-144.4836
-184.1035
-68.69162
-69.92521
-61.83521
-56.54569
-50.00297
-42.80209
-34.61518
-25.45974
-16.28456
-8.36379
-1.466651
4.559932
8.187575
10.96374
13.80951
13.67726
11.03404
12.37358
15.61275
18.75656
21.80262
18.82285
14.2551
9.319492
5.449454
5.923153
11.74691
20.36713
23.02045
22.97497
22.13191
18.06827
13.67552
9.893715
5.929347
-0.03055026
-12.0146
-30.39771
-42.74689
-24.2603
-2.548847
-7.483895
-13.94763
-18.32079
-23.42295
-30.11432
-34.10801
-33.40056
-32.98308
-34.65888
-37.05547
-39.73304
-42.3652
-44.87753
-47.25034
-49.50096
-51.54015
-53.31362
-54.8992
-56.29481
-57.49512
-58.49198
-59.43466
-60.22989
-60.93682
-61.70297
-62.58438
-63.49134
-64.75724
-66.41389
-68.13723
-70.87429
-74.12499
-77.97002
-82.83906
-88.4862
-94.76933
-101.6772
-109.5254
-118.0153
-126.3794
-133.8372
-140.1932
-145.5251
-149.6926
-152.3999
-153.3877
-152.4678
-149.4823
-144.3211
-137.772
-131.7606
-119.2218
-115.8096
-131.0819
-128.235
-112.9164
-104.428
-101.871
-110.5173
-92.90998
-102.3632
-110.0606
-124.5093
-140.9805
-158.1562
-174.466
-189.6866
-202.352
-210.4339
-212.4185
-207.3169
-194.0868
-172.8519
-145.4593
-122.773
-120.0753
-120.9053
-114.0047
-117.8947
-128.4254
-127.7238
-119.1494
-111.2833
-102.5258
-91.22408
-87.79046
-107.2435
-132.1109
-152.2371
-166.478
-177.873
-184.7454
-184.2407
-175.9463
-161.9057
-155.5656
-155.5307
-150.6335
-144.7056
-142.3318
-140.5804
-139.7813
-140.2436
-136.4127
-138.5612
-141.2007
-142.8935
-135.6626
-210.4078
-112.1638
-98.08307
-82.60316
-73.51049
-65.82257
-59.49876
-54.06986
-49.18413
-44.93501
-41.09975
-37.62264
-34.4519
-31.47233
-28.66293
-26.03732
-23.61138
-21.34733
-19.17532
-17.10154
-15.12272
-13.23459
-11.44671
-9.755207
-8.097209
-6.480129
-4.900676
-3.388828
-1.96245
-0.5860328
0.7680208
2.103334
3.410612
4.655883
5.864377
7.061224
8.233371
9.391476
10.53321
11.67694
12.77262
13.88316
14.94328
15.99365
17.02765
18.05527
19.0627
20.05103
21.04086
22.04679
23.04866
24.02664
24.98678
25.94334
26.92607
27.92074
28.90157
29.88483
30.8779
31.87335
32.87999
33.88656
34.8935
35.94782
37.07804
38.19951
39.29964
40.52731
41.93991
43.21823
43.76371
44.2124
52.21282
50.32861
49.59228
48.53822
47.4521
46.46985
45.52683
44.62839
43.81118
43.02906
42.19882
41.34805
40.52098
39.73391
38.96307
38.18863
37.40194
36.61506
35.85115
35.09334
34.31911
33.54293
32.77582
31.99401
31.21632
30.42009
29.59098
28.77547
27.97854
27.17367
26.3427
25.46849
24.62646
23.74562
22.84044
21.93198
21.01599
20.0616
19.08877
18.11243
17.111
16.05433
14.94586
13.83153
12.71971
11.56255
10.34473
9.084493
7.763649
6.385559
4.962607
3.481736
1.973299
0.3586807
-1.369277
-3.170502
-5.091854
-7.112139
-9.296699
-11.66864
-14.19986
-16.92639
-19.97695
-23.37518
-27.25061
-31.55551
-36.54733
-42.69941
-49.8098
-61.96326
-71.60205
52.03914
50.46528
49.69873
48.67059
47.58048
46.58343
45.63072
44.72228
43.89575
43.10952
42.27816
41.42432
40.59169
39.79926
39.02477
38.24777
37.45861
36.66843
35.9013
35.14095
34.36461
33.58611
32.81681
32.03284
31.2535
30.45566
29.62503
28.80719
28.00787
27.20144
26.36941
25.49289
24.65048
23.76733
22.86042
21.95052
21.0332
20.07724
19.1031
18.12534
17.12265
16.06424
14.95399
13.83819
12.72514
11.56609
10.34663
9.084956
7.762028
6.381484
4.955948
3.472341
1.962136
0.3429928
-1.389072
-3.194096
-5.121037
-7.145837
-9.338198
-11.71848
-14.25731
-16.99376
-20.05721
-23.46909
-27.37465
-31.70382
-36.73447
-42.93209
-50.18791
-62.30403
-73.49939
-114.4486
-98.55445
-83.08685
-73.80609
-66.06095
-59.68644
-54.22613
-49.30126
-45.03528
-41.18617
-37.69465
-34.51385
-31.52556
-28.70754
-26.07358
-23.64053
-21.37202
-19.19539
-17.11704
-15.1342
-13.24255
-11.4509
-9.757219
-8.097164
-6.477904
-4.896203
-3.38179
-1.953628
-0.5754268
0.7805267
2.117826
3.427077
4.674246
5.884273
7.083107
8.257012
9.417215
10.56127
11.70784
12.80429
13.91733
14.9793
16.0319
17.06818
18.09783
19.10739
20.09817
21.09101
22.09984
23.10413
24.08416
25.04708
26.0075
26.99421
27.99253
28.97675
29.96409
30.96143
31.96152
32.97248
33.98373
34.99813
36.06226
37.19938
38.32536
39.4383
40.68972
42.10419
43.31979
43.8448
45.01095
-93.23661
-101.4949
-108.8422
-122.8369
-139.2119
-156.4772
-172.9242
-188.3524
-201.3409
-209.8516
-212.3616
-207.7867
-195.118
-174.3697
-146.9898
-123.5193
-120.1438
-121.1195
-114.0949
-117.7871
-128.2529
-127.8386
-119.3481
-111.5423
-102.8345
-91.42994
-87.86807
-107.0976
-131.9471
-152.1214
-166.4294
-177.8728
-184.8028
-184.3948
-176.1236
-161.9183
-155.5411
-155.5316
-150.6021
-144.649
-142.2955
-140.561
-139.7763
-140.2201
-136.4324
-138.6547
-141.3157
-142.8144
-137.4823
-196.0329
-73.51071
-70.15799
-62.76631
-57.36345
-50.89764
-43.73694
-35.60238
-26.4368
-17.14463
-9.075769
-2.077888
4.151102
7.933351
10.73895
13.71057
13.74257
11.09692
12.22484
15.38422
18.56539
21.76702
18.98206
14.47899
9.527873
5.536587
5.783449
11.44462
20.09889
22.9535
22.9709
22.16908
18.15718
13.77227
9.991496
6.049323
0.1637709
-11.74298
-30.26614
-43.06758
-24.66953
-2.652183
-7.463213
-13.92339
-18.29236
-23.39435
-30.12819
-34.13145
-33.40111
-32.98009
-34.66685
-37.0742
-39.75
-42.38153
-44.89288
-47.26671
-49.51946
-51.56122
-53.33427
-54.92012
-56.3153
-57.51655
-58.51026
-59.45384
-60.24795
-60.95423
-61.72209
-62.60849
-63.52095
-64.79946
-66.46864
-68.20859
-70.98158
-74.26098
-78.14605
-83.0684
-88.76462
-95.09584
-102.0609
-109.984
-118.529
-126.8975
-134.3244
-140.6378
-145.9154
-150.0059
-152.6085
-153.4757
-152.4334
-149.3357
-143.9719
-137.1806
-130.7779
-118.5139
-116.5189
-131.6867
-127.1398
-111.8495
-103.9986
-102.3254
-108.8876
-140.6868
-92.87041
-100.2157
-101.3795
-96.86867
-89.09218
-90.25578
-90.66321
-90.29711
-89.41653
-88.68017
-88.96965
-89.6875
-90.54823
-92.14041
-95.71592
-102.3128
-107.9124
-107.5531
-103.2308
-102.184
-103.0333
-105.3212
-113.7213
-121.1371
-121.622
-115.2883
-103.6634
-89.93896
-79.58776
-76.20334
-77.68946
-82.10072
-86.89694
-89.52944
-91.91382
-96.62653
-94.38976
-91.06905
-90.81785
-87.93093
-83.77009
-84.27943
-93.37474
-103.7807
-109.2299
-113.688
-127.2619
-148.2767
-170.523
-128.4701
-93.55319
-100.1635
-101.3786
-97.29164
-89.24907
-90.22793
-90.68588
-90.32667
-89.4376
-88.6944
-88.98841
-89.70727
-90.55354
-92.13056
-95.71128
-102.3995
-108.109
-107.6221
-103.0908
-102.1617
-103.141
-105.6624
-114.3027
-121.522
-121.8277
-115.3382
-103.6181
-89.86562
-79.59259
-76.27354
-77.84824
-82.3006
-87.12478
-89.81027
-92.18856
-96.73769
-94.39381
-91.08717
-90.81708
-87.75536
-83.68792
-84.71073
-94.33037
-104.5839
-109.7172
-114.582
-128.8071
-148.3444
-157.5993
-74.90793
-70.43283
-62.88448
-57.51012
-51.09425
-44.02151
-35.96916
-26.86175
-17.53406
-9.347632
-2.283193
3.943016
7.785072
10.56952
13.57708
13.7518
11.01534
12.04507
15.14801
18.34876
21.66861
19.05393
14.57651
9.582379
5.419259
5.528631
11.01137
19.76323
22.8602
22.91945
22.13348
18.17564
13.80251
10.02996
6.13151
0.332029
-11.56102
-30.32933
-43.86174
-25.5012
-2.77605
-7.39067
-13.88289
-18.29354
-23.40958
-30.06862
-34.09715
-33.45154
-33.06126
-34.7453
-37.13565
-39.78255
-42.39737
-44.90674
-47.27907
-49.5318
-51.5758
-53.347
-54.93124
-56.32408
-57.52637
-58.51767
-59.46117
-60.25758
-60.96419
-61.7322
-62.62328
-63.53997
-64.82579
-66.50335
-68.25955
-71.05124
-74.34731
-78.25064
-83.19965
-88.91604
-95.26963
-102.2651
-110.2192
-118.7571
-127.0886
-134.4675
-140.7376
-145.9772
-150.0284
-152.5779
-153.3732
-152.3063
-149.2399
-143.9098
-137.0476
-130.2221
-117.9979
-116.5966
-132.6985
-127.1945
-111.2347
-103.775
-102.5563
-107.8429
-93.51377
-101.0038
-108.2397
-122.0596
-138.3911
-155.8175
-172.4077
-188.0342
-201.3009
-210.1407
-212.8903
-208.5152
-196.2839
-176.1975
-149.0365
-124.491
-120.1895
-121.4303
-114.3669
-117.8053
-128.302
-128.0783
-119.6838
-111.9331
-103.1828
-91.81317
-88.18975
-107.0652
-131.9611
-152.1556
-166.5054
-178.009
-184.9676
-184.7003
-176.6697
-162.3444
-155.7361
-155.6483
-150.6445
-144.5953
-142.2564
-140.5451
-139.7783
-140.2303
-136.5053
-138.794
-141.3592
-142.6714
-138.1428
-180.9113
-114.1498
-98.85969
-83.31368
-73.95975
-66.17663
-59.77469
-54.29236
-49.37101
-45.07623
-41.22375
-37.72503
-34.5406
-31.55003
-28.72785
-26.09017
-23.6529
-21.3847
-19.20602
-17.12577
-15.14099
-13.2483
-11.45378
-9.760519
-8.099254
-6.478607
-4.895513
-3.378691
-1.950624
-0.5725806
0.7838551
2.121899
3.433038
4.680887
5.889685
7.089607
8.263713
9.425963
10.5708
11.71501
12.81516
13.92455
14.98841
16.04218
17.07829
18.10879
19.11879
20.10924
21.1016
22.11219
23.1185
24.09826
25.06111
26.02034
27.00836
28.00955
28.99385
29.98082
30.98042
31.98066
32.9926
34.00527
35.02089
36.08552
37.2288
38.35927
39.47427
40.73456
42.15122
43.34608
43.88075
45.21556
51.87115
50.53423
49.72003
48.7006
47.61507
46.61613
45.65603
44.74198
43.91556
43.13219
42.29852
41.44265
40.60707
39.81402
39.03926
38.26266
37.47203
36.67985
35.91329
35.15318
34.3754
33.59659
32.82779
32.04203
31.26467
30.46618
29.63227
28.81445
28.01573
27.20942
26.3746
25.50058
24.6569
23.7759
22.8668
21.95647
21.03917
20.08121
19.10688
18.12974
17.12756
16.06748
14.95528
13.83926
12.72721
11.56684
10.34667
9.084656
7.759714
6.377795
4.950891
3.466055
1.957222
0.3348107
-1.399179
-3.204368
-5.135168
-7.159605
-9.357054
-11.74073
-14.28158
-17.02153
-20.09053
-23.5255
-27.42542
-31.7723
-36.82278
-43.05298
-50.361
-62.52719
-73.32875
51.63043
50.60353
49.78644
48.80422
47.74159
46.73735
45.76597
44.84449
44.01184
43.22377
42.38661
41.52864
40.68894
39.89107
39.11228
38.33213
37.53865
36.74287
35.97394
35.21008
34.429
33.64807
32.87701
32.08793
31.31003
30.50871
29.67092
28.85301
28.05197
27.24393
26.40635
25.53727
24.68197
23.80318
22.89048
21.97926
21.06121
20.09955
19.12451
18.14666
17.14378
16.08004
14.9648
13.84804
12.73653
11.57287
10.35107
9.088108
7.759496
6.375478
4.946205
3.458331
1.951051
0.3212667
-1.417077
-3.223611
-5.162718
-7.187919
-9.396129
-11.78804
-14.33464
-17.08301
-20.17096
-23.61554
-27.5316
-31.9087
-36.99639
-43.26264
-50.69318
-62.72123
-73.51921
-114.2876
-99.1301
-83.73272
-74.22161
-66.40125
-59.94696
-54.42889
-49.48243
-45.17498
-41.30543
-37.79101
-34.59834
-31.60022
-28.76858
-26.12271
-23.67619
-21.40633
-19.22239
-17.13762
-15.14859
-13.25343
-11.45333
-9.760795
-8.097039
-6.473579
-4.887958
-3.366196
-1.93689
-0.5578961
0.799687
2.139559
3.454511
4.705456
5.913628
7.116424
8.291851
9.458405
10.60598
11.74727
12.86187
13.96641
15.03234
16.08903
17.12804
18.16046
19.174
20.16729
21.16293
22.17633
23.18618
24.16866
25.13543
26.09886
27.08995
28.09651
29.08468
30.07628
31.0801
32.0854
33.10131
34.11997
35.14364
36.21399
37.36084
38.49803
39.62689
40.90126
42.28831
43.43138
44.08179
45.80153
-93.94947
-100.4073
-107.2773
-120.6243
-136.7417
-154.2313
-170.9201
-186.7542
-200.318
-209.4874
-212.6741
-209.1276
-197.528
-178.3647
-152.0356
-126.3802
-120.6522
-122.0435
-114.8693
-117.7899
-128.1457
-128.3139
-120.2814
-112.5876
-103.7707
-92.49594
-88.84225
-107.1744
-132.1127
-152.2541
-166.6596
-178.2615
-185.2414
-185.1322
-177.511
-163.3395
-156.3156
-155.757
-150.6296
-144.5033
-142.1943
-140.5293
-139.7882
-140.2136
-136.5869
-139.0295
-141.4137
-142.4173
-139.9188
-170.5979
-77.66174
-70.83857
-64.00782
-58.51956
-52.14106
-45.05043
-37.03493
-27.91538
-18.45588
-10.08816
-2.993999
3.529628
7.569263
10.3141
13.37272
13.79788
11.15079
11.84689
14.76593
17.98819
21.50115
19.11674
14.71691
9.698176
5.407913
5.238878
10.41888
19.21181
22.63875
22.8713
22.09293
18.22954
13.88486
10.12546
6.265484
0.5477287
-11.35029
-30.3822
-44.88992
-26.66083
-3.135816
-7.29953
-13.84043
-18.34035
-23.44888
-29.84238
-33.69241
-33.39831
-33.215
-34.86458
-37.20757
-39.82502
-42.42531
-44.93269
-47.30382
-49.558
-51.60783
-53.37589
-54.95931
-56.34971
-57.55725
-58.53868
-59.48469
-60.28103
-60.98474
-61.75071
-62.65184
-63.57111
-64.86776
-66.55886
-68.33953
-71.16678
-74.49199
-78.42804
-83.43741
-89.20661
-95.61176
-102.661
-110.7016
-119.3047
-127.6637
-135.03
-141.277
-146.4739
-150.453
-152.9017
-153.5927
-152.4273
-149.2
-143.9806
-137.1524
-129.7467
-117.3301
-117.1876
-133.6358
-126.3118
-110.3098
-103.5089
-102.8573
-107.0842
-120.0107
-95.16519
-99.6587
-101.1302
-97.88233
-89.48128
-90.16601
-90.71767
-90.37348
-89.46927
-88.71486
-89.01796
-89.74256
-90.56559
-92.11706
-95.70546
-102.5312
-108.4064
-107.7278
-102.893
-102.1525
-103.3854
-106.475
-115.2068
-122.0065
-121.9843
-115.3777
-103.6033
-89.89121
-79.7252
-76.41978
-78.0979
-82.62501
-87.58909
-90.26506
-92.5932
-96.68747
-94.23195
-91.20512
-90.9118
-87.44993
-83.60618
-85.48957
-95.81987
-105.7832
-110.552
-115.8926
-130.5734
-150.9697
-147.3911
-114.0461
-96.77098
-98.93796
-100.7238
-98.67795
-89.76619
-90.06213
-90.75779
-90.44738
-89.51751
-88.73813
-89.06206
-89.80403
-90.59806
-92.10546
-95.7009
-102.7279
-108.8335
-107.8899
-102.6843
-102.2149
-103.8906
-107.915
-116.4833
-122.7673
-122.4279
-115.6117
-103.7815
-90.14247
-80.05686
-76.73081
-78.4847
-83.06168
-88.08543
-90.84409
-93.04573
-96.2916
-93.72112
-91.51015
-91.16593
-87.04087
-83.74138
-87.14684
-98.23124
-107.4748
-111.8259
-117.6896
-132.5162
-149.4735
-136.053
-78.40537
-70.91816
-64.22107
-58.9483
-52.78853
-45.86549
-37.99521
-28.95703
-19.38563
-10.77232
-3.486554
3.178773
7.427949
10.00806
13.06684
13.90108
11.57498
11.7155
14.20643
17.44198
21.2071
19.10674
14.81785
9.747064
5.211023
4.781995
9.620747
18.31055
22.20967
22.88118
22.09672
18.33131
14.01356
10.23859
6.395423
0.7209901
-11.18091
-30.48392
-46.07532
-28.04668
-4.072653
-7.442167
-13.93083
-18.45211
-23.5181
-29.51779
-33.08585
-33.20992
-33.35891
-34.99309
-37.28948
-39.87885
-42.46249
-44.96885
-47.3376
-49.59205
-51.64977
-53.40991
-54.99079
-56.37507
-57.59026
-58.55765
-59.50753
-60.30739
-61.00702
-61.76844
-62.68514
-63.60563
-64.91525
-66.62296
-68.42978
-71.2981
-74.65726
-78.63113
-83.69892
-89.51491
-95.97408
-103.0921
-111.2201
-119.8586
-128.1899
-135.4728
-141.6391
-146.7655
-150.6722
-153.0183
-153.5632
-152.2175
-149.1191
-144.0024
-137.1956
-129.3404
-117.2042
-118.5195
-134.7068
-125.5529
-109.24
-103.2537
-103.0572
-106.0144
-94.50389
-99.91972
-106.3962
-119.2613
-135.1977
-152.8858
-169.6945
-185.8195
-199.8511
-209.6315
-213.6297
-210.3496
-199.2795
-181.1
-156.2347
-130.0133
-121.8902
-122.7991
-115.4854
-117.5273
-127.5879
-128.3537
-121.1503
-113.5431
-104.6553
-93.56968
-89.9308
-107.6561
-132.5726
-152.5302
-166.9938
-178.7599
-185.7538
-185.8136
-178.6452
-164.7442
-157.366
-155.6765
-150.4136
-144.3283
-142.1271
-140.529
-139.8222
-140.1741
-136.6534
-139.3386
-141.5387
-142.2307
-141.8091
-163.4662
-114.28
-99.25054
-84.09142
-74.45664
-66.61087
-60.10763
-54.5611
-49.59553
-45.25548
-41.38024
-37.85131
-34.65275
-31.65051
-28.8107
-26.15594
-23.69762
-21.43037
-19.24282
-17.15423
-15.16078
-13.26342
-11.45568
-9.766713
-8.100769
-6.475368
-4.888116
-3.359676
-1.930726
-0.5534314
0.8051768
2.147144
3.466902
4.719636
5.924397
7.13061
8.306184
9.476724
10.62408
11.76098
12.87707
13.98609
15.05297
16.11159
17.1503
18.18426
19.19972
20.19315
21.18787
22.20405
23.21816
24.20059
25.1683
26.13095
27.12502
28.1382
29.12656
30.11809
31.12789
32.13545
33.15427
34.17699
35.20587
36.27949
37.44056
38.59044
39.72731
41.01559
42.3762
43.48449
44.26222
46.22334
51.31984
50.62915
49.83272
48.87253
47.8248
46.82243
45.83696
44.9017
44.06531
43.28122
42.43914
41.57718
40.72964
39.92892
39.14862
38.36848
37.57167
36.77108
36.00314
35.23923
34.45501
33.67304
32.9027
32.10885
31.33516
30.53203
29.68772
28.86995
28.06834
27.26098
26.42079
25.54694
24.69475
23.81909
22.902
21.9905
21.07267
20.10682
19.13269
18.15622
17.15389
16.08529
14.96607
13.85049
12.74167
11.57366
10.3509
9.088314
7.754816
6.368616
4.937161
3.446607
1.945102
0.3046906
-1.438309
-3.244323
-5.19265
-7.213548
-9.43533
-11.83471
-14.3831
-17.13581
-20.23995
-23.70853
-27.63236
-32.03529
-37.15688
-43.45697
-50.9789
-62.79933
-73.56923
50.91103
50.58152
49.86315
48.95055
47.93482
46.94437
45.94714
45.0046
44.16906
43.38777
42.53819
41.67723
40.82401
40.01872
39.23374
38.45319
37.65268
36.84433
36.0751
35.30771
34.51829
33.73453
32.96401
32.16253
31.39345
30.58747
29.73423
28.91827
28.11435
27.3056
26.45903
25.59765
24.73253
23.85656
22.93447
22.02315
21.10297
20.12709
19.15227
18.17782
17.17963
16.10383
14.97453
13.85894
12.75726
11.58223
10.35689
9.09677
7.756349
6.365767
4.928067
3.432059
1.944853
0.2904493
-1.457797
-3.266066
-5.229461
-7.238992
-9.482114
-11.89274
-14.44627
-17.19856
-20.32376
-23.82136
-27.75407
-32.18457
-37.34536
-43.66941
-51.26523
-62.77897
-73.60603
-114.275
-99.22968
-84.4374
-74.69556
-66.86134
-60.303
-54.72076
-49.72844
-45.35403
-41.47864
-37.9253
-34.7173
-31.71367
-28.85946
-26.18871
-23.71572
-21.46028
-19.26732
-17.17113
-15.16858
-13.2678
-11.45012
-9.768122
-8.09806
-6.470272
-4.877088
-3.336738
-1.911879
-0.5353559
0.8294289
2.173952
3.496828
4.752537
5.953448
7.165992
8.340972
9.517197
10.66542
11.80727
12.94468
14.04193
15.10836
16.17132
17.21323
18.2517
19.27125
20.26439
21.2621
22.2864
23.30918
24.29102
25.26191
26.22634
27.22414
28.2478
29.23792
30.23451
31.25223
32.26068
33.28183
34.312
35.34937
36.42074
37.58738
38.74939
39.88942
41.17541
42.48642
43.58747
44.55847
46.66525
-95.18309
-99.57513
-105.4991
-117.7651
-133.2867
-151.2126
-168.1554
-184.5727
-199.1041
-209.4526
-213.8661
-211.5407
-201.2931
-184.3105
-161.3852
-135.5571
-124.2642
-123.7925
-115.8487
-116.7026
-126.1957
-127.9183
-122.1939
-114.7617
-105.8306
-94.97684
-91.65041
-108.694
-133.5234
-153.0787
-167.5552
-179.5775
-186.5883
-186.8393
-180.1175
-166.4224
-158.8339
-155.2381
-149.759
-144.0005
-141.9998
-140.5551
-139.91
-140.129
-136.7716
-139.748
-141.6208
-141.8802
-142.9039
-156.3251
-79.3641
-71.26502
-65.52243
-60.14238
-53.97486
-47.04465
-39.2726
-30.3171
-20.6417
-11.71979
-4.312514
2.681746
7.140116
9.656679
12.66933
14.08237
12.37424
11.7186
13.46633
16.62446
20.71755
18.96912
14.8742
9.742847
4.892611
4.137786
8.609995
17.03014
21.54829
22.98735
22.19877
18.52285
14.23514
10.38055
6.484996
0.8126603
-11.05362
-30.48181
-47.06649
-29.46471
-5.861907
-7.956399
-14.10289
-18.61007
-23.61047
-29.18824
-32.60802
-33.01832
-33.4902
-35.13677
-37.39122
-39.95373
-42.51824
-45.02549
-47.38962
-49.6401
-51.70912
-53.45645
-55.03922
-56.41255
-57.64327
-58.58594
-59.54331
-60.34364
-61.03673
-61.7899
-62.73029
-63.64772
-64.97191
-66.70554
-68.54031
-71.46269
-74.86567
-78.8742
-84.0257
-89.89087
-96.42154
-103.642
-111.9015
-120.5732
-128.9083
-136.157
-142.2755
-147.3425
-151.1809
-153.4004
-153.7976
-152.4826
-149.2149
-144.0968
-137.235
-129.1973
-118.0931
-120.6065
-135.768
-124.4482
-107.8534
-102.9065
-103.1429
-104.6627
-108.1658
-97.5975
-98.09169
-100.5699
-99.97716
-90.18178
-89.88427
-90.80172
-90.56665
-89.59569
-88.78379
-89.13163
-89.90509
-90.65536
-92.11436
-95.70421
-103.0099
-109.4108
-108.152
-102.5788
-102.4011
-104.9524
-110.0358
-118.1586
-123.8404
-123.1369
-116.0928
-104.2298
-90.6769
-80.69748
-77.34462
-79.12345
-83.66335
-88.72957
-91.52066
-93.41683
-95.39893
-92.69727
-92.09135
-91.6167
-86.79036
-84.54376
-90.22313
-101.6752
-109.8037
-113.7103
-119.9621
-134.1526
-145.9161
-122.7007
-101.8784
-97.30116
-97.37932
-100.6874
-100.686
-90.93343
-89.57524
-90.84713
-90.77441
-89.74592
-88.9106
-89.23798
-90.04572
-90.72633
-92.20858
-95.77094
-103.3991
-110.0945
-108.4864
-102.788
-103.0005
-106.8707
-112.8916
-120.2836
-125.4084
-124.3187
-117.041
-105.1065
-91.52487
-81.82641
-78.37892
-80.11746
-84.47815
-89.47711
-92.23275
-93.69867
-94.18579
-91.46178
-93.20496
-92.59606
-87.107
-86.85833
-94.94072
-106.1301
-112.9039
-116.1931
-122.2001
-133.7402
-138.7005
-108.6659
-77.72206
-70.38326
-65.6795
-60.91016
-55.09442
-48.35248
-40.81505
-32.04241
-22.34187
-13.01209
-5.491055
2.062993
7.339449
9.295972
12.21298
14.23621
13.38878
11.82172
12.57248
15.45542
19.95943
18.66504
14.83431
9.645201
4.382802
3.185716
7.346783
15.39432
20.6831
23.16752
22.48601
18.85469
14.53882
10.48714
6.522302
0.9039332
-10.88618
-30.2589
-47.11
-30.88649
-8.252377
-8.932464
-14.41363
-18.83563
-23.68789
-28.82148
-32.13848
-32.86758
-33.63374
-35.304
-37.51477
-40.05559
-42.59369
-45.10397
-47.45761
-49.69731
-51.78971
-53.52525
-55.11217
-56.45911
-57.721
-58.62374
-59.58575
-60.38989
-61.08248
-61.81557
-62.79018
-63.71236
-65.03865
-66.81988
-68.74735
-71.71959
-75.15129
-79.12584
-84.4786
-90.42417
-97.0444
-104.284
-112.8287
-121.5022
-129.7893
-136.9481
-142.9962
-147.9404
-151.6949
-153.7889
-154.0144
-152.5074
-149.3184
-144.2804
-137.4125
-129.5248
-120.0366
-123.378
-136.4686
-122.4021
-105.9379
-102.2909
-102.9305
-103.3032
-95.94125
-99.40567
-104.6487
-116.1122
-130.8276
-148.8061
-166.2984
-183.241
-198.4087
-209.5084
-214.8815
-213.529
-203.9598
-188.2924
-167.2765
-142.5033
-128.2732
-124.9901
-115.8123
-115.4209
-124.0351
-126.9391
-123.3348
-116.2157
-107.3839
-96.83648
-94.15192
-110.5458
-135.084
-153.9809
-168.3557
-180.6619
-187.7399
-188.3079
-181.9302
-168.1565
-160.6283
-154.5491
-148.6945
-143.5011
-141.7408
-140.5846
-140.1377
-140.1112
-136.9491
-140.532
-142.0992
-141.3019
-142.6316
-148.5794
-114.0176
-98.97238
-84.71755
-74.90388
-67.1547
-60.50378
-54.86475
-49.86097
-45.47431
-41.59292
-37.98667
-34.787
-31.79065
-28.90449
-26.2213
-23.74956
-21.51132
-19.29234
-17.18465
-15.16907
-13.27476
-11.4531
-9.774544
-8.102341
-6.471925
-4.862278
-3.324304
-1.907867
-0.5216916
0.8443524
2.175378
3.500847
4.776385
5.968984
7.188036
8.359735
9.545528
10.698
11.84276
12.96117
14.06459
15.13592
16.20872
17.2522
18.28963
19.30682
20.30615
21.31091
22.33408
23.3538
24.33337
25.31415
26.27995
27.28085
28.3144
29.30922
30.30657
31.32454
32.33674
33.37138
34.41124
35.45876
36.52022
37.70363
38.90293
40.0519
41.3355
42.59184
43.72711
44.92186
47.02131
50.36587
50.417
49.8455
49.01602
48.04818
47.07648
46.05109
45.0902
44.25494
43.48038
42.60828
41.7449
40.88633
40.08493
39.29092
38.50703
37.70531
36.89469
36.13077
35.35732
34.56013
33.77625
33.00606
32.19366
31.43428
30.61635
29.75483
28.94349
28.14125
27.33796
26.48061
25.60113
24.74821
23.8692
22.94284
22.04404
21.12994
20.14269
19.16586
18.18483
17.19335
16.1204
14.98206
13.85464
12.76372
11.5869
10.35343
9.09623
7.75518
6.365252
4.918799
3.400869
1.932827
0.2615074
-1.47526
-3.286965
-5.280929
-7.262671
-9.535775
-11.94435
-14.51886
-17.27148
-20.4112
-23.93225
-27.87432
-32.335
-37.53855
-43.87172
-51.49836
-62.5694
-73.33399
49.74037
50.11544
49.75214
49.04709
48.17475
47.2811
46.22275
45.22366
44.40734
43.67527
42.79827
41.90084
41.00056
40.20952
39.4356
38.63393
37.79768
36.96885
36.23177
35.45765
34.64216
33.86493
33.10196
32.25698
31.56156
30.70215
29.8121
29.0156
28.18458
27.40998
26.53981
25.68894
24.84957
23.93493
22.95689
22.06298
21.159
20.174
19.22094
18.22924
17.19547
16.12475
15.0255
13.88564
12.76703
11.60963
10.37454
9.077253
7.739324
6.367181
4.952847
3.413303
1.927672
0.1898045
-1.508766
-3.286426
-5.361824
-7.293235
-9.648326
-11.9872
-14.57635
-17.42477
-20.57946
-24.11389
-28.06225
-32.56246
-37.84141
-44.19543
-51.85508
-62.2865
-73.25159
-113.4314
-98.67264
-85.20614
-75.26995
-67.64046
-60.68531
-55.06976
-50.11167
-45.70494
-41.69348
-38.0313
-34.9176
-31.88844
-28.94302
-26.30435
-23.83209
-21.52464
-19.26563
-17.19285
-15.17623
-13.32171
-11.48048
-9.74901
-8.127292
-6.453665
-4.836524
-3.352766
-1.870518
-0.4720842
0.8533508
2.172267
3.569572
4.886731
6.007224
7.244696
8.410646
9.61799
10.76662
11.90186
13.01332
14.15216
15.2433
16.30583
17.34415
18.36578
19.41475
20.43735
21.41198
22.41145
23.47851
24.49626
25.46353
26.4262
27.40804
28.47648
29.49482
30.44074
31.5033
32.55122
33.56655
34.60171
35.65423
36.70042
37.93893
39.21136
40.30095
41.52745
42.71154
43.94293
45.32026
47.20213
-96.70735
-99.32504
-104.0783
-114.6173
-128.4103
-145.5769
-163.9702
-181.8111
-197.6077
-209.5787
-215.8852
-215.9989
-207.2687
-192.9925
-174.2882
-151.1293
-134.4053
-126.8801
-116.0424
-113.9164
-121.3575
-125.9771
-124.6688
-118.1459
-109.48
-100.3366
-97.41042
-113.7983
-137.249
-155.4303
-169.6799
-182.1653
-189.2237
-190.3135
-184.5145
-169.9463
-162.5871
-153.7168
-147.3445
-142.6483
-141.2002
-140.7678
-140.6966
-139.8968
-136.4269
-141.7526
-142.3803
-140.4678
-140.8385
-141.0318
-76.71859
-70.1348
-66.66221
-62.37727
-56.87547
-50.36107
-43.0756
-34.4862
-24.80467
-15.21282
-7.309978
1.275281
6.425088
9.007615
11.90746
14.26918
14.50143
11.98548
11.62341
13.68177
18.85632
18.22406
14.48537
9.256779
3.546818
1.800922
5.710188
13.29387
19.37717
23.4679
23.1958
19.41196
14.76716
10.65944
6.641865
1.20542
-10.70623
-28.97044
-45.68063
-31.45946
-10.75664
-10.3817
-14.87677
-19.03898
-23.71041
-28.36762
-31.69106
-32.75763
-33.78326
-35.49496
-37.66134
-40.18337
-42.68187
-45.19338
-47.53904
-49.77068
-51.9521
-53.6888
-55.22649
-56.49927
-57.83306
-58.67137
-59.62021
-60.48354
-61.18984
-61.84159
-62.89143
-63.82623
-65.13175
-66.99124
-69.10838
-72.10746
-75.55409
-79.53399
-85.17064
-91.26871
-98.0067
-105.1226
-114.134
-122.9062
-131.046
-138.0197
-144.1101
-149.0682
-152.608
-154.4599
-154.4391
-152.786
-149.433
-144.4116
-137.6152
-130.1719
-122.6063
-126.3244
-135.2108
-118.4447
-103.2769
-101.3112
-102.2205
-102.0349
-95.96942
-95.50126
-97.11288
-101.4243
-103.669
-91.30581
-89.04295
-90.87059
-91.10102
-90.07453
-88.98071
-89.30768
-90.18001
-90.87066
-92.39192
-95.96595
-103.6439
-110.926
-109.0237
-103.4783
-104.4594
-109.9127
-116.7681
-123.0722
-127.8684
-126.239
-118.8139
-106.5777
-93.21555
-83.79916
-79.75779
-81.21831
-85.63999
-90.3895
-92.83648
-93.97326
-92.81173
-90.40437
-95.6059
-94.21623
-89.06815
-92.23815
-101.5423
-111.5944
-116.7607
-118.9792
-123.3916
-129.1447
-126.6905
-95.97903
-0.3018613
-0.07018334
2.401874
3.782384
-65.7536
-2.210209
1.254861
4.495395
0.231703
3.469171
-11.77399
-11.49604
-0.1118346
-3.340393
1.128679
5.110654
5.459753
-2.063439
2.064055
-24.19543
-6.378776
1.90561
1.963533
2.043894
-0.8580772
4.074985
1.870597
2.646704
3.475037
-2.239126
-3.13692
-1.454399
-2.848776
-0.7046993
2.700012
4.725254
2.548511
4.221966
1.035624
3.775755
3.732972
-0.08241118
-2.637935
-80.29933
1.772612
-16.8807
0.07444027
-0.09052174
-0.1777143
3.764941
0.9864266
-1.601666
-0.3350349
-5.438208
3.298108
3.110374
-0.7358039
-2.956221
-3.800554
-0.06648103
1.195249
1.149554
-2.043464
-40.11243
4.092401
-4.03346
-1.638685
-31.64427
13.43793
-2.420648
-0.8148787
-13.89071
2.945423
3.694264
1.391159
1.088682
1.069249
0.5670808
-0.3285927
0.8301345
-30.98492
-0.2281591
-104.3238
-1.956049
-6.938416
-2.52201
7.016575
2.005453
-2.471871
-0.5517831
5.801862
6.036943
4.64565
2.526797
-27.55556
1.525817
4.996377
2.511245
-11.9636
-77.95947
-4.290443
-52.33782
2.026304
-17.21246
3.137603
3.837174
-9.415304
3.593656
-7.885798
4.561562
2.847852
-71.5659
1.611713
-1.430303
0.4417347
0.5924962
-2.000077
-34.40808
9.538909
2.2416
-1.349918
-3.872993
-2.323034
-0.1440454
3.431988
-10.39808
-0.134968
2.90488
-13.16949
-0.5335827
9.584859
5.775837
3.751884
-7.197906
0.886614
0.4005462
-0.06068428
11.07104
-1.149152
3.983559
3.760992
4.053229
4.348162
-2.888435
-0.6036211
-157.6771
2.395425
-1.657946
-1.11076
-12.72925
4.400398
-3.506932
-2.176964
3.909618
2.503444
3.938748
-1.935585
-7.094869
0.09834969
0.03939893
-11.2675
4.141552
0.1209428
1.028015
5.935778
-0.780541
-3.239174
5.199658
-2.494084
4.177731
2.438557
-26.22704
1.578718
1.987524
-1.986824
0.07261407
-1.744832
-0.1730305
-2.241414
-166.2767
-6.117444
4.63606
4.799542
1.142849
-0.8856393
2.7436
4.352683
4.027977
6.766966
-6.044768
-0.8534642
2.780507
-0.0752754
2.670338
-24.96716
-1.264571
-3.026821
-39.0415
10.61566
-1.159237
-4.665998
1.623339
-0.8086602
4.806007
0.3546555
0.6484075
0.3737888
5.1848
-3.284064
2.513616
1.06779
3.978456
1.150471
3.707269
-0.558814
1.964207
3.269982
-2.446568
2.872498
-4.369031
4.403802
-0.4057107
3.496066
3.269022
14.3799
-37.46828
1.293867
3.318941
3.541558
-1.005088
-6.496759
0.1921129
-0.3642163
3.555891
1.912045
1.796133
3.290793
2.001944
-99.44749
-0.5102358
3.084294
-17.73918
-0.9994157
-1.20253
0.8755204
1.723499
-3.349992
1.544166
-1.400685
2.059338
2.074812
-144.7319
5.743624
-0.2663879
-0.09761408
-7.523553
-7.76085
2.931209
-2.878778
-0.2417455
4.110157
-23.38326
1.820286
-41.03978
3.549879
0.654616
2.175551
-5.909639
3.550194
-0.2934109
-5.379174
2.170685
-2.333664
-0.3824125
5.846501
-13.73801
3.647602
1.422639
-3.227946
3.791673
1.173231
-4.198101
-15.22127
-3.079358
6.528825
-4.765392
1.705318
3.35929
3.281101
0.5912974
3.976004
1.299956
-1.08406
2.639295
5.492917
-59.36188
-0.02247934
-45.13711
2.150925
3.764705
-1.23231
-168.4557
2.091307
10.84451
0.2742213
-0.1895918
3.31443
2.571145
2.715162
-14.85101
4.753948
-12.10559