/*--------------------------------*- C++ -*----------------------------------*\
| =========                 |                                                 |
| \\      /  F ield         | OpenFOAM: The Open Source CFD Toolbox           |
|  \\    /   O peration     | Version:  2406                                  |
|   \\  /    A nd           | Website:  www.openfoam.com                      |
|    \\/     M anipulation  |                                                 |
\*---------------------------------------------------------------------------*/
FoamFile
{
    version     2.0;
    format      ascii;
    arch        "LSB;label=32;scalar=64";
    class       surfaceScalarField;
    location    "2.06";
    object      phi;
}
// * * * * * * * * * * * * * * * * * * * * * * * * * * * * * * * * * * * * * //

dimensions      [0 3 -1 0 0 0 0];

oriented        oriented;

internalField   nonuniform List<scalar> 
326221
(
-0.002382375
-0.005787806
0.008170181
-0.001593633
-0.0007887422
0.001058963
-0.002652596
0.0003388909
0.0007200722
-0.001059946
0.001398837
-0.0002454212
-0.0008145246
0.0001755158
-0.000420937
-0.0003202133
0.0004957291
-0.0004970205
0.0001768072
-0.0002956282
-0.0002013923
8.5135e-05
-0.0003807632
0.0004987989
-0.0004136639
0.0008808998
-0.0003821008
0.001248561
-0.0003676611
0.001687448
-0.0004388876
0.002207204
-0.0005197552
0.002312421
-0.0001052173
0.001444559
0.0008678615
0.0003063523
0.001138207
0.0003183112
-1.195891e-05
0.001046359
-0.000728048
0.000941513
0.0001048462
-0.0004259336
0.001367447
-0.002322353
0.00189642
-0.003321569
0.0009992151
-0.00336068
3.911125e-05
-0.002925454
-0.0004352262
-0.002234282
-0.0006911715
-0.001111808
-0.001122474
0.0002095576
-0.001321366
0.001279595
-0.001070037
0.002195217
-0.0009156224
0.002660144
-0.0004649275
0.00196271
0.0006974341
0.0007342884
0.001228422
-0.000172004
0.0009062925
-0.0005097377
0.0003377337
0.0001696123
-0.00067935
0.0009874775
-0.0008178652
0.001091234
-0.0001037562
0.001281749
-0.0001905148
0.001594106
-0.0003123573
0.0009383233
0.0006557826
-0.0006096078
0.001547931
-0.001480413
0.0008708048
-0.00105608
-0.0004243326
7.720583e-05
-0.001133286
0.002167423
-0.002090217
0.002695196
-0.0005277726
-0.004787751
0.007482947
-0.004287773
-0.0004999785
-0.003968726
-0.0003190473
-0.004067175
9.844919e-05
-0.004045384
-2.179084e-05
-0.003912748
-0.0001326356
-0.00367513
-0.0002376182
-0.003361028
-0.0003141018
-0.002974798
-0.0003862304
-0.002575374
-0.000399424
-0.002287772
-0.0002876016
-0.002129643
-0.0001581296
-0.001801795
-0.0003278482
-0.001398641
-0.0004031538
-0.001063654
-0.0003349868
-0.0003940323
-0.0006696217
0.0003662179
-0.0007602502
0.0003648421
1.375762e-06
-0.0005450365
0.0009098787
-0.001283636
0.0007385992
-0.001060176
-0.0002234597
-2.889799e-05
-0.001031278
0.0007776178
-0.0008065158
0.001323312
-0.0005456945
0.001753995
-0.0004306824
0.001789924
-3.592873e-05
0.001244175
0.0005457486
0.0001178087
0.001126366
-0.0009620372
0.001079846
-0.001327566
0.0003655292
-0.001047328
-0.0002802387
-0.0001555435
-0.0008917842
0.0005799805
-0.000735524
0.00104821
-0.0004682291
0.001377562
-0.000329353
0.001727244
-0.0003496813
0.002318808
-0.0005915642
0.003233067
-0.0009142587
0.003690895
-0.0004578283
0.001896977
0.001793918
-0.000713705
0.002610682
-0.001174479
0.0004607742
-0.0001871227
-0.0009873565
0.0005823732
-0.0007694958
0.001047723
-0.0004653494
0.001600273
-0.000552551
0.001773564
-0.0001732909
0.001326756
0.0004468079
0.0007942109
0.0005325455
0.0002109841
0.0005832269
-0.0004861635
0.0006971475
-0.0009815845
0.000495421
-0.001171085
0.0001895003
-0.001165246
-5.838987e-06
-0.001087892
-7.735408e-05
-0.000990751
-9.714071e-05
-0.0009046029
-8.61481e-05
-0.0008285315
-7.607142e-05
-0.0007448049
-8.37266e-05
-0.0006788571
-6.594778e-05
-0.0006297985
-4.905861e-05
-0.0006005796
-2.921895e-05
-0.0005538372
-4.674236e-05
-0.0005357116
-1.812563e-05
-0.0005021488
-3.356274e-05
-0.0004373311
-6.48177e-05
-0.0003625874
-7.474372e-05
-0.0003031398
-5.944758e-05
-0.0001687639
-0.0001343759
-2.131807e-05
-0.0001474458
0.0001387048
-0.0001600229
0.0003998589
-0.0002611541
0.0006443493
-0.0002444903
0.0009310056
-0.0002866564
0.001236023
-0.0003050173
0.001530044
-0.0002940215
0.001824772
-0.0002947278
0.002140648
-0.0003158754
0.002502074
-0.0003614264
0.00285212
-0.0003500459
0.00312917
-0.0002770505
0.003311642
-0.0001824713
0.003433219
-0.0001215775
0.003520358
-8.713925e-05
0.003593837
-7.347876e-05
0.003665045
-7.120827e-05
0.003731289
-6.624355e-05
0.00374857
-1.728151e-05
0.003519373
0.0002291976
0.00269996
0.0008194123
0.001057091
0.001642869
-0.0007222537
0.001779345
-0.001592899
0.0008706449
-0.0001940017
-0.001398897
-0.0004213209
0.0002273192
-0.002993992
0.002572671
-0.003432322
0.0004383304
-0.00176281
-0.001669512
0.0001644406
-0.001927251
0.001067438
-0.0009029977
-0.001235145
0.002302584
-0.0003653034
-0.000869842
0.001215208
-0.001580512
0.002146451
-0.000931243
0.002773092
-0.0006266412
0.003454992
-0.0006818996
0.004040053
-0.000585061
0.004541709
-0.0005016561
0.00494318
-0.0004014712
0.005208219
-0.000265039
0.00528456
-7.634078e-05
0.005085613
0.0001989471
0.004479886
0.0006057275
0.003317204
0.001162682
0.001252272
0.002064931
-0.001218795
0.002471068
-0.002603959
0.001385164
-0.002827592
0.0002236323
-0.002720955
-0.000106637
-0.001450239
-0.001270716
-0.0001209528
-0.001329286
0.00019281
-0.0003137628
-0.0002950145
0.0004878245
-0.001226736
0.0009317218
-0.002580458
0.001353721
-0.003314697
0.000734239
-0.00215638
-0.001158316
7.830364e-05
-0.002234684
0.00167712
-0.001598816
0.002382581
-0.0007054615
0.002886858
-0.0005042768
0.003474875
-0.0005880171
0.003945943
-0.0004710679
0.004061166
-0.000115223
0.003283176
0.0007779905
0.001275485
0.00200769
-0.0006362153
0.001911701
-0.001550512
0.0009142966
-0.001889779
0.0003392672
-0.001672874
-0.0002169051
-0.001210245
-0.000462629
-0.001035371
-0.0001748738
-0.0008288698
-0.0002065013
-0.0006205229
-0.0002083469
-0.0004709863
-0.0001495366
0.0005606872
-0.001031674
0.0007459117
-0.0001852244
-0.0002149822
0.0009608938
0.001611572
-0.001826554
0.002555353
-0.0009437813
-0.006460984
0.009016337
-0.006687365
0.0002263818
-0.005718908
-0.0009684578
-0.005357575
-0.0003613321
-0.00499134
-0.0003662351
-0.004718593
-0.0002727477
-0.004470189
-0.0002484036
-0.004254708
-0.000215481
-0.003969012
-0.0002856956
-0.003820683
-0.0001483297
-0.003694446
-0.0001262369
-0.003578396
-0.0001160495
-0.00347516
-0.0001032366
-0.003375958
-9.920151e-05
-0.00328159
-9.436861e-05
-0.003191747
-8.984317e-05
-0.003111611
-8.013557e-05
-0.003038274
-7.333649e-05
-0.002967944
-7.033012e-05
-0.002898655
-6.928923e-05
-0.002834137
-6.451831e-05
-0.002772339
-6.179756e-05
-0.002714964
-5.737556e-05
-0.00266358
-5.138385e-05
-0.00261107
-5.250972e-05
-0.002558798
-5.227221e-05
-0.002506061
-5.273729e-05
-0.002456488
-4.957217e-05
-0.002412453
-4.403595e-05
-0.002372475
-3.997736e-05
-0.002330611
-4.186447e-05
-0.002289369
-4.124179e-05
-0.002246013
-4.335621e-05
-0.00220796
-3.805287e-05
-0.002172477
-3.548298e-05
-0.002135395
-3.708231e-05
-0.002097996
-3.739862e-05
-0.002059683
-3.83133e-05
-0.002025466
-3.421663e-05
-0.001994355
-3.111113e-05
-0.002027621
3.32666e-05
-0.002011288
-1.633308e-05
-0.001988897
-2.239153e-05
-0.00196644
-2.245656e-05
-0.001946967
-1.94735e-05
-0.001926836
-2.013099e-05
-0.001909145
-1.769049e-05
-0.001893332
-1.581336e-05
-0.001878472
-1.486023e-05
-0.001860433
-1.803893e-05
-0.001842254
-1.817828e-05
-0.001828106
-1.414804e-05
-0.001816728
-1.137872e-05
-0.001808221
-8.506948e-06
-0.001796055
-1.216557e-05
-0.001781149
-1.490671e-05
-0.001768634
-1.251489e-05
-0.001758055
-1.057909e-05
-0.001744555
-1.350001e-05
-0.001732366
-1.218886e-05
-0.00171719
-1.517602e-05
-0.001699249
-1.794065e-05
-0.001679496
-1.975256e-05
-0.001654495
-2.500101e-05
-0.00160794
-4.655541e-05
-0.001546119
-6.182072e-05
-0.001479463
-6.665669e-05
-0.001392022
-8.74404e-05
-0.001263093
-0.0001289297
-0.00107135
-0.000191743
-0.000873027
-0.0001983225
-0.0008043472
-6.867979e-05
-1.628194e-05
-0.0007880653
0.0007023936
-0.0007186756
0.001019057
-0.0003166635
0.001141312
-0.0001222547
0.001214237
-7.292553e-05
0.00128094
-6.670282e-05
0.001328829
-4.788851e-05
0.001354469
-2.56401e-05
0.001375677
-2.120853e-05
0.001407519
-3.184213e-05
0.001436741
-2.922197e-05
0.001460788
-2.404678e-05
0.001477423
-1.663527e-05
0.001492758
-1.533432e-05
0.001507707
-1.49489e-05
0.001525706
-1.799948e-05
0.00154239
-1.668339e-05
0.00155518
-1.27907e-05
0.00156867
-1.348983e-05
0.00158571
-1.703996e-05
0.001601354
-1.564404e-05
0.001616325
-1.497091e-05
0.001634855
-1.853027e-05
0.001650751
-1.58958e-05
0.001672301
-2.155029e-05
0.001697334
-2.503259e-05
0.001717369
-2.003505e-05
0.001734004
-1.663477e-05
0.001752753
-1.874949e-05
0.001774486
-2.173253e-05
0.001789554
-1.50678e-05
0.001758135
3.141849e-05
0.001786599
-2.846395e-05
0.001821586
-3.498691e-05
0.001857063
-3.54771e-05
0.001893009
-3.59456e-05
0.00193178
-3.877124e-05
0.001968703
-3.692261e-05
0.002002753
-3.405082e-05
0.002039539
-3.678591e-05
0.002080669
-4.112939e-05
0.00212559
-4.492168e-05
0.002165526
-3.993541e-05
0.002203741
-3.821521e-05
0.002244788
-4.104689e-05
0.002289305
-4.451764e-05
0.002334928
-4.562261e-05
0.002385608
-5.067965e-05
0.002438422
-5.281402e-05
0.002491849
-5.342699e-05
0.002547256
-5.540743e-05
0.00259949
-5.223335e-05
0.002661254
-6.176405e-05
0.002726055
-6.480188e-05
0.002793711
-6.765575e-05
0.002866685
-7.297338e-05
0.002942112
-7.542705e-05
0.003025748
-8.363676e-05
0.003117274
-9.15252e-05
0.003211363
-9.408968e-05
0.003313579
-0.0001022161
0.003430108
-0.0001165289
0.003566665
-0.0001365568
0.003824477
-0.0002578116
0.004018636
-0.0001941593
0.004239936
-0.0002213003
0.004488076
-0.0002481402
0.004811384
-0.0003233081
0.005125498
-0.0003141135
0.005956672
-0.0008311736
0.0001688653
9.359645e-05
0.0007879546
-0.001669616
0.0008408664
-0.001465946
0.001327057
-0.0008028538
0.001612554
-0.0004077516
0.001817283
-0.0002776545
0.001998599
-0.000248019
0.002153036
-0.0002023253
0.002278424
-0.000151028
0.002388816
-0.0001316007
0.002500284
-0.0001433109
0.002604003
-0.0001329407
0.00270087
-0.0001209136
0.002788036
-0.0001038012
0.002870936
-9.82341e-05
0.002948519
-9.253201e-05
0.003025525
-9.500552e-05
0.003098566
-8.972465e-05
0.003166868
-8.109251e-05
0.003232416
-7.903801e-05
0.003298435
-8.305929e-05
0.00336162
-7.882878e-05
0.003422255
-7.560618e-05
0.003484359
-8.063392e-05
0.00354244
-7.397657e-05
0.003603461
-8.257094e-05
0.003665433
-8.700522e-05
0.003724919
-7.952101e-05
0.003780335
-7.205109e-05
0.003837263
-7.567672e-05
0.003894463
-7.89333e-05
0.003949543
-7.014781e-05
0.003919369
6.159297e-05
0.003985742
-9.483719e-05
0.004055469
-0.0001047136
0.004125411
-0.0001054188
0.004195617
-0.0001061521
0.004267193
-0.0001103471
0.004338361
-0.000108091
0.00440657
-0.0001022594
0.004477399
-0.0001076146
0.004549404
-0.000113135
0.004625898
-0.0001214156
0.004697998
-0.0001120357
0.004770397
-0.0001106133
0.004843592
-0.0001142419
0.004920007
-0.000120933
0.004996655
-0.0001222709
0.005077536
-0.0001315603
0.005160586
-0.0001358643
0.00524431
-0.0001371506
0.00533108
-0.0001421778
0.005414801
-0.0001359546
0.005507034
-0.000153997
0.005600211
-0.0001579784
0.005697851
-0.000165296
0.005798427
-0.0001735494
0.005902955
-0.0001799546
0.006012982
-0.0001936644
0.006130869
-0.0002094116
0.006250825
-0.0002140455
0.006378835
-0.0002302264
0.006518615
-0.0002563089
0.006675692
-0.0002936343
0.007016243
-0.0005983625
0.007229115
-0.0004070309
0.007474615
-0.0004668005
0.007742886
-0.0005164109
0.008097189
-0.0006776107
0.008409096
-0.0006260208
0.009320838
-0.001742916
0.008616609
0.0008730948
-0.0102707
0.0095476
0.0009494834
-0.00921112
-0.002028039
-0.008854382
-0.0007180704
-0.008459008
-0.0007616092
-0.008165912
-0.0005658432
-0.007893645
-0.0005206705
-0.007660499
-0.0004486277
-0.007287839
-0.0006583551
-0.007118362
-0.0003178063
-0.006968614
-0.0002759852
-0.006827478
-0.0002571853
-0.00669829
-0.0002324249
-0.00657226
-0.0002252316
-0.006452431
-0.0002141973
-0.006335553
-0.0002067215
-0.006228307
-0.0001873818
-0.006124789
-0.0001768541
-0.006026093
-0.0001690264
-0.005927323
-0.0001680592
-0.005834131
-0.00015771
-0.00574234
-0.0001535887
-0.005654934
-0.0001447811
-0.00557178
-0.0001345383
-0.005488442
-0.0001358477
-0.005406525
-0.0001341894
-0.005324341
-0.0001349211
-0.005245706
-0.0001282072
-0.005169749
-0.0001199933
-0.005097808
-0.0001119182
-0.00502296
-0.0001167117
-0.004950637
-0.0001135656
-0.004875447
-0.0001185454
-0.004805039
-0.0001084614
-0.004734862
-0.0001056601
-0.00466408
-0.0001078639
-0.004592534
-0.0001089445
-0.004520436
-0.000110412
-0.004450912
-0.0001037404
-0.004382404
-9.96188e-05
-0.004420567
7.142934e-05
-0.004365956
-7.094359e-05
-0.004309821
-7.852699e-05
-0.004252201
-8.007689e-05
-0.00419736
-7.431354e-05
-0.004139959
-7.753274e-05
-0.004084332
-7.331733e-05
-0.00402766
-7.248488e-05
-0.003970974
-7.154663e-05
-0.003910434
-7.857901e-05
-0.003849094
-7.951804e-05
-0.003788584
-7.465844e-05
-0.003727183
-7.277902e-05
-0.00366529
-7.04007e-05
-0.00359767
-7.978489e-05
-0.003526472
-8.610549e-05
-0.003453372
-8.561409e-05
-0.003378754
-8.519771e-05
-0.003297414
-9.483943e-05
-0.003213938
-9.566499e-05
-0.003122771
-0.0001063434
-0.003025051
-0.0001156602
-0.002919783
-0.000125021
-0.002804698
-0.000140086
-0.002665906
-0.0001853468
-0.002509398
-0.0002183293
-0.002343377
-0.000232678
-0.00215496
-0.0002758571
-0.00191983
-0.0003640599
-0.00156526
-0.0005463127
-0.001113021
-0.0006505615
-0.0003937462
-0.0007634468
0.001367253
-0.001473648
0.000704144
-0.003048102
0.001911833
-0.002138932
0.002972557
-0.001687365
0.003934496
-0.001643839
0.004725266
-0.001375831
0.005428833
-0.001205223
0.006043501
-0.001016139
0.006527459
-0.0007489975
0.006839427
-0.0003883092
0.006973905
6.446991e-05
0.006873749
0.0007058828
0.006395331
0.0016411
0.004764268
0.003695995
0.0008222808
0.006413054
-0.003291825
0.00549927
-0.004637066
0.001568873
-0.004166313
-0.0005773893
-0.002530041
-0.002906988
-0.0008513212
-0.003008006
-0.0003880931
-0.0007769909
-0.001274169
0.001373901
-0.003302388
0.002959941
-0.00507034
0.003121673
-0.004593862
0.0002577609
-0.002392414
-0.003359764
0.0001424792
-0.004769577
0.002027835
-0.003484172
0.002966807
-0.001644434
0.003675029
-0.001212499
0.004479517
-0.001392505
0.00512297
-0.001114521
0.005556455
-0.0005487076
0.005569713
0.0007647324
0.004058195
0.003519208
0.000829049
0.005140846
-0.001908942
0.003652287
-0.002604658
0.001034984
-0.002152989
-0.0006685741
-0.001614151
-0.001001468
-0.001373387
-0.0004156378
-0.001095916
-0.0004839718
-0.000789405
-0.0005148582
-0.0003710449
-0.0005678967
0.0008942515
-0.00229697
0.001410381
-0.0007013536
0.001281957
0.001089317
0.002739506
-0.003284103
0.0007302285
0.001065496
0.01929416
-0.005569834
0.005539126
-0.0004692707
-0.005530535
-0.0003583456
-0.005398997
-3.308893e-05
-0.005234326
-0.0001864617
-0.004988716
-0.0003782464
-0.004628851
-0.0005974828
-0.004181722
-0.0007612307
-0.003662174
-0.0009057784
-0.003182174
-0.0008794239
-0.002961245
-0.0005085305
-0.002998283
-0.000121092
-0.002765725
-0.0005604058
-0.002303776
-0.0008651026
-0.001907257
-0.0007315065
-0.001197525
-0.001379353
-0.0003081526
-0.001649623
7.582709e-05
-0.000382604
-0.001129991
0.002115697
-0.002119402
0.00172801
-0.001504114
-0.0008387479
-0.0002043097
-0.002331082
0.0008007482
-0.001811574
0.001544064
-0.00128901
0.002145063
-0.001031682
0.00240388
-0.0002947454
0.002223677
0.0007259518
0.001027366
0.002322677
-0.001047283
0.003154496
-0.002215238
0.001533484
-0.001691432
-0.0008040448
-0.0005164719
-0.002066744
0.0002628338
-0.00151483
0.0007890972
-0.0009944924
0.001185322
-0.0007255783
0.001586003
-0.0007503621
0.002216912
-0.001222473
0.003207079
-0.001904425
0.004285666
-0.001536416
0.003335906
0.002743678
0.0001278497
0.005818738
-0.001680247
0.002268871
-0.001293279
-0.001374324
-0.001054195
-0.00100858
-0.0007698043
-0.0007497398
-0.0002605063
-0.001061849
0.0007104673
-0.001144264
0.0008991512
0.000258124
-0.0003824622
0.001814159
-0.001787608
0.001988373
-0.002520969
0.001430508
-0.002691201
0.0006656537
-0.002586186
8.448556e-05
-0.002414425
-0.0001776
-0.002240104
-0.0002516753
-0.002066524
-0.0002707211
-0.001915276
-0.0002373955
-0.001784252
-0.0002070963
-0.001659511
-0.0002084669
-0.001560562
-0.000164897
-0.001479723
-0.0001298976
-0.001415912
-9.303011e-05
-0.001331924
-0.0001307307
-0.001265526
-8.452289e-05
-0.00117395
-0.0001251393
-0.00104873
-0.0001900377
-0.0009042421
-0.0002192314
-0.0007706818
-0.0001930078
-0.0005408186
-0.0003642392
-0.0002939205
-0.000394344
-2.057153e-05
-0.0004333718
0.0003593211
-0.0006410468
0.0007183767
-0.0006035459
0.001122147
-0.0006904269
0.001547735
-0.0007306047
0.001957551
-0.0007038377
0.002369149
-0.0007063261
0.002805656
-0.0007523821
0.00329356
-0.0008493306
0.003768987
-0.0008254727
0.004165253
-0.0006733167
0.004459104
-0.0004763225
0.004680758
-0.0003432311
0.00485287
-0.0002592514
0.004994061
-0.0002146696
0.005123986
-0.0002011337
0.005241303
-0.0001835606
0.005357104
-0.0001330826
0.005473322
0.0001129802
0.005322388
0.000970346
0.004207587
0.00275767
0.001910445
0.004076487
-1.835527e-05
0.002799445
-0.00122175
-0.0001955023
-0.002593751
0.00159932
-0.004141424
0.004120345
-0.003246846
-0.0004562483
-0.001335645
-0.003580713
0.0002290248
-0.00349192
0.0009085253
-0.001582498
0.004578362
-0.0009101718
0.01769696
-0.002477775
0.0007788613
0.0001747879
-0.00530516
-0.0004042213
0.001299081
-0.001678971
0.002673587
-0.0004236852
-0.002069811
-0.0001490038
-0.0006956183
-0.0007125474
0.001059273
-0.0007714082
0.000235668
-0.000427697
-0.0005451035
7.888555e-05
-0.0008873458
0.0006186401
-0.0009534185
0.001117931
-0.0008813917
0.001630281
-0.0008800109
0.002251079
-0.001059686
0.002951066
-0.001219742
0.00342857
-0.0005827212
0.002987178
0.001309254
0.001930414
0.002194971
0.001677462
0.000240993
0.001872196
-0.0009227823
0.0004472243
0.001529818
-0.002551919
0.004366589
-0.004498871
0.003843372
-0.004755578
0.001255923
-0.004448486
-0.0002679808
-0.003838391
-0.001045322
-0.002896698
-0.001632864
-0.001464173
-0.002554999
0.0002118197
-0.002997358
0.001623527
-0.002481744
0.00271207
-0.002004166
0.003656262
-0.00140912
0.003796317
0.0005573791
0.002276487
0.002748253
0.0003337297
0.002849049
-4.383306e-05
0.0007152964
0.0009289222
-0.001652105
0.001861167
-0.00175011
0.002118739
-0.0003613289
0.00255591
-0.000627685
0.002253175
-9.623127e-06
-0.0002099636
0.003118921
-0.002495533
0.0038335
-0.002794549
0.001169821
-0.001999629
-0.001219253
-0.0005592766
-0.002573638
0.0009955984
-0.003645092
0.00043555
3.227585e-05
0.01345762
0.001157307
-0.01085153
0.02739119
-0.002754662
0.00469083
-0.001736313
-0.006323508
-0.002049934
0.001612702
-0.002296057
0.002919711
-0.0007439959
-0.003621872
-0.0004978803
-0.000941734
-0.0009385356
0.001499928
-0.0009006428
0.0001977753
-0.000530666
-0.0009150804
1.802676e-05
-0.001436038
0.0005890406
-0.001524432
0.001133809
-0.001426161
0.001741796
-0.001487998
0.002491442
-0.001809331
0.003366469
-0.002094769
0.004000205
-0.001216458
0.003821072
0.001488387
0.002998139
0.003017904
0.002589418
0.0006497144
0.001804003
-0.000137368
-0.00122777
0.004561592
-0.004640864
0.007779683
-0.005819447
0.005021955
-0.005869762
0.001306238
-0.005605464
-0.0005322783
-0.004850735
-0.001800051
-0.003728234
-0.002755365
-0.002009853
-0.00427338
2.571592e-06
-0.005009783
0.001785209
-0.004264381
0.003139576
-0.003358533
0.004210898
-0.002480442
0.00487674
-0.0001084623
0.003931766
0.003693227
0.001793624
0.004987191
0.0009525033
0.001556418
0.00210415
-0.002803752
0.003042317
-0.002688276
0.003287137
-0.0006061492
0.0034174
-0.0007579478
0.001507404
0.001900373
-0.002213337
0.006839662
-0.004145369
0.005765533
-0.004019602
0.001044054
-0.003109805
-0.00212905
-0.001493437
-0.004190006
-0.000234521
-0.004904009
-0.0009689843
0.0007667391
-0.006570727
0.01905937
-0.006931099
-0.0001088987
-0.006873533
-0.0004159115
-0.006741393
-0.0001652297
-0.006532127
-0.0003957271
-0.006235884
-0.0006744894
-0.005822674
-0.001010693
-0.005298336
-0.001285568
-0.004642208
-0.001561906
-0.003948638
-0.001572994
-0.003532689
-0.00092448
-0.003562312
-9.146863e-05
-0.003507742
-0.000614976
-0.003222674
-0.00115017
-0.002900051
-0.00105413
-0.00218769
-0.002091714
-0.001135982
-0.002701331
-0.0006934813
-0.0008251046
-0.001948916
0.003371131
-0.002790404
0.002569499
-0.001947299
-0.001681853
-0.0004476437
-0.003830738
0.0008318517
-0.003091069
0.001757823
-0.002214982
0.002484497
-0.001758356
0.002761459
-0.0005717074
0.002661008
0.0008264036
0.001860838
0.003122846
-0.00053534
0.005550674
-0.002588665
0.003586808
-0.002269361
-0.001123349
-0.001112191
-0.003223913
-0.0004248221
-0.002202199
-2.662955e-05
-0.001392685
0.0002740288
-0.001026237
0.0006198732
-0.001096206
0.001347958
-0.001950558
0.002674807
-0.003231275
0.003907317
-0.002768926
0.003468437
0.003182558
0.0006814724
0.008605703
-0.002136801
0.005087145
-0.003136732
-0.0003743939
-0.003535364
-0.0006099484
-0.003401873
-0.000883231
-0.002938979
-0.001524743
-0.002389248
-0.001693996
-0.002387055
0.0002559311
-0.00314055
0.002567655
-0.003782849
0.002630671
-0.003742458
0.001390118
-0.003466872
0.0003900675
-0.003214819
-0.0001675671
-0.002985427
-0.0004069923
-0.002764159
-0.0004729431
-0.002552936
-0.0004819449
-0.002370653
-0.0004196777
-0.00221481
-0.0003629394
-0.002069108
-0.0003541691
-0.001956097
-0.0002779078
-0.001862777
-0.0002232175
-0.001788272
-0.0001675357
-0.001687405
-0.0002315976
-0.001603205
-0.0001687226
-0.001485668
-0.0002426762
-0.001328354
-0.0003473519
-0.001145157
-0.0004024283
-0.0009710485
-0.0003671163
-0.0006828139
-0.0006524737
-0.0003754113
-0.0007017466
-3.383082e-05
-0.0007749523
0.0004326829
-0.001107561
0.0008713894
-0.001042252
0.001360901
-0.001179938
0.001878737
-0.001248441
0.002374257
-0.001199357
0.002875331
-0.0012074
0.003411602
-0.001288653
0.004010896
-0.001448625
0.004592423
-0.001406999
0.005076719
-0.001157612
0.005435264
-0.0008348678
0.005704113
-0.00061208
0.005910828
-0.0004659661
0.006077653
-0.000381495
0.006224153
-0.0003476341
0.006358435
-0.0003178425
0.00647444
-0.0002490872
0.006549009
3.841144e-05
0.006567588
0.0009517663
0.006269752
0.003055507
0.004837055
0.005509184
0.002015689
0.005620812
-0.001222815
0.003043001
-0.003504755
0.00388126
-0.004321752
0.004937341
-0.00295851
-0.001819491
-0.001036222
-0.005503
0.0005511477
-0.00507929
0.0007184236
-0.001749774
-0.00179024
0.007087025
-0.001219874
-0.002044014
0.000533303
-0.00480128
0.002185406
-0.003791035
0.003601936
-0.003103895
0.004794673
-0.002836576
0.005746209
-0.002327366
0.00658899
-0.002048005
0.007325617
-0.001752766
0.007902872
-0.001326252
0.008251147
-0.0007365848
0.008339809
-2.419139e-05
0.008153075
0.0008926161
0.007767511
0.002026664
0.00696467
0.004498836
0.003817815
0.009559909
-0.001999545
0.01131663
-0.005680167
0.005249495
-0.005716068
-0.0005414888
-0.003952504
-0.004670552
-0.002090318
-0.004870192
-0.001562766
-0.001304544
-0.002966181
0.002777316
-0.005486224
0.005479985
-0.00670627
0.004341718
-0.005295501
-0.001153008
-0.00269151
-0.005963755
0.0002222171
-0.007683305
0.002530625
-0.005792579
0.003687327
-0.002801137
0.00456514
-0.002090311
0.005532074
-0.002359439
0.00631973
-0.001902177
0.006747791
-0.0009767684
0.006841076
0.000671447
0.006085659
0.004274626
0.003240839
0.007985665
-0.0007895083
0.007682635
-0.002543404
0.00278888
-0.002188364
-0.001023615
-0.001523462
-0.001666369
-0.001135862
-0.0008032376
-0.0007521649
-0.0008676692
-0.0005746232
-0.0006923999
-0.000138651
-0.001003869
0.001263972
-0.003699593
0.001983218
-0.0014206
0.002329789
0.0007427468
0.002940203
-0.003894517
-0.00142928
0.005434979
-0.01193911
0.029804
-0.01257942
0.001589793
-0.01152052
-0.003086936
-0.0110604
-0.001178194
-0.0106193
-0.001202712
-0.01029094
-0.0008942019
-0.009990087
-0.0008215216
-0.009738467
-0.0007002483
-0.009311486
-0.001085336
-0.009126393
-0.0005028996
-0.008959185
-0.0004431927
-0.008801074
-0.0004152965
-0.008655381
-0.0003781177
-0.008512415
-0.0003681976
-0.008376311
-0.0003503019
-0.008242506
-0.0003405263
-0.008118612
-0.0003112755
-0.007997438
-0.000298028
-0.007881509
-0.0002849562
-0.007764781
-0.0002847873
-0.007654022
-0.0002684683
-0.007543935
-0.000263676
-0.007437977
-0.0002507389
-0.007335984
-0.0002365317
-0.007233492
-0.0002383398
-0.007132861
-0.0002348199
-0.00703165
-0.0002361325
-0.006933954
-0.0002259024
-0.00683785
-0.0002160972
-0.006745686
-0.0002040826
-0.006649541
-0.0002128564
-0.006556788
-0.0002063187
-0.006460117
-0.0002152165
-0.00636838
-0.0002001984
-0.00627579
-0.0001982505
-0.006182355
-0.000201299
-0.006087958
-0.0002033414
-0.00599239
-0.0002059803
-0.005897812
-0.0001983184
-0.005801347
-0.000196083
-0.005832647
0.0001027291
-0.005747241
-0.0001563494
-0.005668227
-0.0001575417
-0.005585979
-0.0001623247
-0.005507129
-0.0001531632
-0.00542463
-0.0001600322
-0.005344092
-0.0001538554
-0.005261735
-0.0001548417
-0.005179441
-0.000153841
-0.005092792
-0.0001652272
-0.005005432
-0.0001668784
-0.004918803
-0.000161287
-0.004830548
-0.0001610341
-0.004741734
-0.0001592149
-0.004646627
-0.0001748917
-0.004547965
-0.0001847682
-0.004447643
-0.0001859362
-0.004345918
-0.0001869221
-0.004236532
-0.0002042252
-0.004125789
-0.0002064085
-0.004006928
-0.0002252045
-0.003881955
-0.0002406332
-0.003749063
-0.0002579129
-0.00360605
-0.0002830989
-0.003436642
-0.0003547545
-0.003250559
-0.0004044124
-0.003055882
-0.0004273555
-0.002830069
-0.0005016697
-0.002544896
-0.0006492326
-0.002146446
-0.0009447628
-0.001636077
-0.001160931
-0.001006386
-0.001023437
0.0001879362
-0.002863939
0.001053912
-0.002331921
0.00163784
-0.001386782
0.002008186
-0.0007780981
0.002269135
-0.0005386031
0.002497634
-0.0004765184
0.002695524
-0.0004002147
0.002859785
-0.0003152891
0.003004941
-0.0002767568
0.003152009
-0.0002903793
0.003290306
-0.0002712377
0.003421876
-0.0002524836
0.003541988
-0.0002239126
0.003657423
-0.0002136695
0.003766409
-0.0002015176
0.003874866
-0.0002034623
0.003979086
-0.0001939455
0.004077784
-0.00017979
0.004173077
-0.0001743308
0.004268653
-0.0001786354
0.004360956
-0.0001711324
0.00444984
-0.0001644904
0.004540514
-0.0001713072
0.004625552
-0.0001590152
0.004713288
-0.0001703061
0.004801642
-0.0001753601
0.004887597
-0.000165476
0.004968937
-0.0001533907
0.005051786
-0.0001585261
0.005133458
-0.0001606046
0.005220153
-0.0001568435
0.005199769
8.19771e-05
0.005294508
-0.0001895755
0.005389943
-0.0002001494
0.005483786
-0.0001992614
0.005577158
-0.0001995245
0.005671365
-0.000204554
0.005765254
-0.0002019802
0.005855565
-0.0001925695
0.005948328
-0.000200378
0.006040819
-0.0002056265
0.00613829
-0.0002188862
0.006230805
-0.0002045509
0.006324037
-0.0002038448
0.006417285
-0.0002074906
0.006513624
-0.0002172715
0.006609374
-0.0002180212
0.006709185
-0.0002313714
0.006810877
-0.0002375563
0.006912875
-0.0002391485
0.0070186
-0.0002479024
0.00712012
-0.0002374751
0.007230686
-0.0002645629
0.007340887
-0.0002681789
0.007455894
-0.000280303
0.007573286
-0.0002909419
0.00769447
-0.0003011384
0.007820681
-0.0003198752
0.007954856
-0.0003435871
0.008090732
-0.0003499216
0.008234637
-0.0003741314
0.008390997
-0.0004126688
0.008562195
-0.0004648325
0.008952191
-0.0009883582
0.009181124
-0.0006359636
0.009450865
-0.0007365421
0.009750387
-0.0008159324
0.0101464
-0.001073622
0.01054679
-0.001026414
0.01146328
-0.002659406
0.001484841
0.0002024885
0.001102212
-0.004168639
0.001181655
-0.003311088
0.001846884
-0.00205201
0.002297203
-0.001228417
0.002623201
-0.000864601
0.002908114
-0.0007614324
0.003155891
-0.0006479913
0.003363841
-0.0005232387
0.003547292
-0.0004602079
0.003731683
-0.0004747704
0.003904435
-0.0004439901
0.004069207
-0.0004172551
0.004220295
-0.0003750009
0.004365263
-0.0003586376
0.004502313
-0.0003385671
0.004637905
-0.0003390549
0.004768717
-0.0003247575
0.004892236
-0.0003033091
0.005011872
-0.0002939663
0.005131257
-0.0002980203
0.005246612
-0.0002864875
0.005357666
-0.000275544
0.005470937
-0.0002845785
0.005576853
-0.0002649311
0.005686065
-0.0002795189
0.005795957
-0.0002852518
0.005902442
-0.0002719613
0.006004094
-0.0002550426
0.006107003
-0.0002614344
0.00620844
-0.0002620425
0.006316927
-0.0002653301
0.00629824
0.0001006644
0.006413107
-0.0003044423
0.006530934
-0.0003179772
0.006645438
-0.0003137651
0.006759353
-0.00031344
0.006874336
-0.0003195362
0.006988531
-0.0003161755
0.007098577
-0.0003026155
0.007211243
-0.0003130435
0.007323526
-0.0003179097
0.007441528
-0.0003368881
0.007553555
-0.0003165778
0.007666343
-0.0003166333
0.007779314
-0.000320461
0.00789551
-0.0003334675
0.0080109
-0.0003334111
0.008131192
-0.0003516638
0.008253361
-0.0003597258
0.008375941
-0.0003617283
0.008503045
-0.0003750065
0.008624509
-0.0003589391
0.008757485
-0.0003975383
0.008889072
-0.000399766
0.009026215
-0.0004174466
0.009166579
-0.0004313051
0.009310295
-0.0004448546
0.009460857
-0.0004704374
0.009619953
-0.0005026831
0.009780907
-0.0005108753
0.00995134
-0.0005445646
0.01013669
-0.0005980144
0.01055549
-0.0008836409
0.01080424
-0.001237107
0.01107343
-0.000905148
0.01139405
-0.001057162
0.01176072
-0.001182602
0.01223272
-0.001545624
0.01279144
-0.001585137
0.01365299
-0.003520957
0.0133593
0.001778535
-0.01496895
0.01465054
0.001908197
-0.01396505
-0.004090835
-0.01332743
-0.001815817
-0.01280243
-0.001727703
-0.01240134
-0.001295295
-0.01204211
-0.001180754
-0.01174521
-0.0009971509
-0.01147078
-0.001359763
-0.01101512
-0.0009585561
-0.01081742
-0.0006408943
-0.01062982
-0.0006028953
-0.01045718
-0.0005507647
-0.01028763
-0.0005377475
-0.01012591
-0.0005120174
-0.009966905
-0.0004995317
-0.009818987
-0.000459194
-0.009674636
-0.0004423794
-0.009536067
-0.0004235253
-0.009396485
-0.0004243687
-0.009263775
-0.0004011784
-0.009132007
-0.0003954437
-0.009004448
-0.0003782982
-0.008882055
-0.0003589244
-0.008758732
-0.0003616631