/*--------------------------------*- C++ -*----------------------------------*\
| =========                 |                                                 |
| \\      /  F ield         | OpenFOAM: The Open Source CFD Toolbox           |
|  \\    /   O peration     | Version:  2406                                  |
|   \\  /    A nd           | Website:  www.openfoam.com                      |
|    \\/     M anipulation  |                                                 |
\*---------------------------------------------------------------------------*/
FoamFile
{
    version     2.0;
    format      ascii;
    arch        "LSB;label=32;scalar=64";
    class       surfaceScalarField;
    location    "1.46";
    object      phi;
}
// * * * * * * * * * * * * * * * * * * * * * * * * * * * * * * * * * * * * * //

dimensions      [0 3 -1 0 0 0 0];

oriented        oriented;

internalField   nonuniform List<scalar> 
326221
(
-0.002630271
-0.007119376
0.009749648
-0.002044783
-0.0005854888
0.00106228
-0.003107063
0.0005545171
0.0005077628
-0.001703196
0.002257713
-0.001164615
-0.000538581
0.0001216359
-0.001286251
0.0001819876
-6.03517e-05
-0.0001349587
0.0003169463
-0.0004675847
0.000332626
-0.0005923509
0.0001247662
-0.0003046919
-0.000287659
-8.415834e-06
-0.0002962761
-4.713066e-05
3.871482e-05
-0.0001040472
5.691658e-05
-0.0001404864
3.643913e-05
-0.0001260268
-1.445959e-05
6.501775e-05
-0.0001910445
0.0003525516
-0.0002875338
0.0005119439
-0.0001593923
0.0003097142
0.0002022297
-0.0001647216
0.0004744358
-0.0005550932
0.0003903716
-0.0006898313
0.0001347382
-0.0006644399
-2.539142e-05
-0.0005957818
-6.865812e-05
-0.0005104923
-8.528953e-05
-0.0004958641
-1.462813e-05
-0.000736448
0.0002405839
-0.001401593
0.0006651446
-0.002475444
0.001073851
-0.00345443
0.0009789863
-0.003887761
0.0004333304
-0.003813054
-7.470656e-05
-0.003504736
-0.0003083183
-0.003108063
-0.0003966727
-0.003013771
-9.429178e-05
-0.00261887
-0.0003949015
-0.001754145
-0.0008647242
-0.001185502
-0.0005686431
-0.0005397724
-0.00064573
5.961036e-05
-0.0005993828
0.0005886142
-0.0005290038
0.001113254
-0.0005246396
0.00158865
-0.0004753958
0.002148544
-0.0005598949
0.002688597
-0.0005400528
0.003293747
-0.0006051502
0.003990238
-0.000696491
0.00409683
-0.0001065914
-0.002288531
0.006385361
-0.0007973962
-0.001491135
0.001370904
-0.0021683
0.002282344
-0.0009114406
0.003071657
-0.0007893122
0.003440758
-0.0003691015
0.001652814
0.001787944
-0.0009843637
0.002637178
-0.001053314
6.895044e-05
0.001250728
-0.002304042
0.002879537
-0.001628809
0.003267099
-0.0003875629
0.002376888
0.0008902112
0.001660215
0.0007166737
0.001616171
4.404351e-05
0.001213043
0.0004031282
0.0005412984
0.0006717444
-0.0002240513
0.0007653497
-0.0009993061
0.0007752549
-0.001803264
0.0008039582
-0.002638781
0.0008355162
-0.003458134
0.0008193536
-0.004197002
0.0007388678
-0.004822594
0.000625592
-0.005330148
0.0005075542
-0.005719886
0.0003897378
-0.005993958
0.0002740724
-0.006157902
0.0001639437
-0.006225584
6.768148e-05
-0.0061834
-4.218372e-05
-0.006027881
-0.0001555189
-0.005808452
-0.0002194284
-0.005553746
-0.0002547064
-0.005164685
-0.0003890612
-0.004962751
-0.000201934
-0.004838692
-0.0001240589
-0.004837297
-1.395005e-06
-0.004866506
2.920923e-05
-0.004860763
-5.743592e-06
-0.004895862
3.509897e-05
-0.004859419
-3.644224e-05
-0.00477961
-7.980956e-05
-0.004678316
-0.000101294
-0.004504412
-0.0001739036
-0.004319998
-0.0001844141
-0.004185056
-0.0001349422
-0.004191269
6.21315e-06
-0.004362614
0.0001713449
-0.004515101
0.0001524866
-0.004513798
-1.303005e-06
-0.004378579
-0.0001352181
-0.004213866
-0.0001647131
-0.004034031
-0.0001798357
-0.003796893
-0.0002371375
-0.003464346
-0.0003325472
-0.003047156
-0.0004171904
-0.002583233
-0.0004639229
-0.002123226
-0.0004600072
-0.00176625
-0.0003569753
-0.001593535
-0.0001727157
-0.001574038
-1.949668e-05
-0.001603627
2.958892e-05
-0.001623956
2.032877e-05
-0.001616952
-7.003927e-06
-0.00161558
-1.371241e-06
-0.00166767
5.208977e-05
-0.001977046
0.0003093763
-0.002559577
0.0005825303
-0.00329247
0.0007328937
-0.003853158
0.0005606877
-0.0040626
0.0002094416
-0.003974592
-8.80075e-05
-0.003749249
-0.0002253436
-0.003489348
-0.0002599002
-0.003222382
-0.0002669665
-0.002924594
-0.0002977878
-0.002606229
-0.0003183652
-0.002278998
-0.0003272307
-0.001985046
-0.0002939522
-0.001729633
-0.0002554135
-0.001528519
-0.0002011134
-0.001366409
-0.0001621103
-0.001198868
-0.0001675407
-0.0009623095
-0.0002365587
-0.00063685
-0.0003254595
-0.0001181283
-0.0005187217
0.0002571831
-0.0003753114
0.000704547
-0.0004473639
0.001144079
-0.0004395319
0.00156985
-0.0004257711
0.002009693
-0.0004398432
0.00239585
-0.0003861563
0.002687569
-0.0002917199
0.002850228
-0.0001626589
0.002758925
9.130324e-05
0.00228598
0.0004729447
0.001416186
0.0008697944
0.0003372697
0.001078916
-0.0003407739
0.0006780436
0.0001130246
-0.0004537985
0.0007344307
-0.0006214061
-0.0004762555
0.001210686
-0.002205608
0.001729352
-0.003118832
0.0009132239
-0.003261991
0.0001431587
-0.003057794
-0.0002041968
-0.0027168
-0.0003409934
-0.002352078
-0.0003647223
-0.00194206
-0.000410018
-0.001488729
-0.0004533306
-0.001006207
-0.0004825226
-0.0004714982
-0.0005347086
0.0001682205
-0.0006397187
0.0007277967
-0.0005595761
0.001078977
-0.0003511805
0.001712727
-0.0006337499
0.00204646
-0.0003337333
0.002373738
-0.0003272777
0.002815085
-0.0004413471
0.003477633
-0.000662548
0.004172393
-0.0006947595
0.00486875
-0.0006963577
0.005322716
-0.0004539661
0.00566304
-0.0003403234
0.005815463
-0.0001524236
0.005813736
1.727208e-06
0.005533153
0.0002805831
0.004812804
0.0007203489
0.003408675
0.00140413
0.001165574
0.002243101
-0.0008471815
0.002012755
-0.00171361
0.000866429
-0.002335988
0.0006223776
-0.002146419
-0.0001895691
-0.0001382962
-0.002008123
0.0001799358
-0.000318232
-0.001676067
0.001856003
-0.002311186
0.0006351189
-0.001744746
-0.0005664399
-0.001296346
-0.0004484002
-0.0003946476
-0.0009016983
-1.010599e-05
-0.0003845417
-0.0001017775
9.167149e-05
-0.0004134064
0.000311629
0.0002223391
-0.0006357456
0.000806761
-0.0005844219
-9.537823e-05
0.0009021393
0.001339114
-0.001434493
0.002194951
-0.0008558362
-0.005368071
0.007563021
-0.005640144
0.0002720731
-0.004856911
-0.0007832332
-0.004543367
-0.0003135437
-0.0042341
-0.0003092672
-0.004001033
-0.000233067
-0.003788634
-0.0002123987
-0.003604573
-0.0001840606
-0.003357904
-0.000246669
-0.003230013
-0.0001278917
-0.003121299
-0.0001087133
-0.003021352
-9.994769e-05
-0.002932445
-8.890643e-05
-0.002846471
-8.597471e-05
-0.002764579
-8.189185e-05
-0.002686735
-7.784359e-05
-0.002617001
-6.973408e-05
-0.002552808
-6.419353e-05
-0.002491108
-6.169929e-05
-0.002430473
-6.063474e-05
-0.002374078
-5.639568e-05
-0.00231982
-5.425734e-05
-0.002269055
-5.076509e-05
-0.002223737
-4.531856e-05
-0.002177455
-4.628226e-05
-0.0021306
-4.685408e-05
-0.002083343
-4.725716e-05
-0.002039597
-4.374605e-05
-0.002000302
-3.929576e-05
-0.001964733
-3.556805e-05
-0.001927689
-3.704441e-05
-0.001890869
-3.682023e-05
-0.001851726
-3.914327e-05
-0.001817665
-3.40603e-05
-0.001786673
-3.099247e-05
-0.001754033
-3.263997e-05
-0.001721014
-3.301854e-05
-0.001686908
-3.410613e-05
-0.001656178
-3.072973e-05
-0.001627223
-2.895494e-05
-0.001653354
2.613047e-05
-0.001637406
-1.59478e-05
-0.001616948
-2.045827e-05
-0.001596335
-2.061327e-05
-0.001578521
-1.781377e-05
-0.001560098
-1.842266e-05
-0.001543685
-1.641365e-05
-0.00152904
-1.464416e-05
-0.001515232
-1.380879e-05
-0.001498206
-1.702597e-05
-0.001480737
-1.746822e-05
-0.001466656
-1.408098e-05
-0.001454735
-1.19212e-05
-0.001444859
-9.87658e-06
-0.001431138
-1.372114e-05
-0.001414805
-1.633237e-05
-0.001402617
-1.218845e-05
-0.001395416
-7.200538e-06
-0.001387036
-8.38018e-06
-0.001379687
-7.34925e-06
-0.001368043
-1.164414e-05
-0.001351388
-1.665458e-05
-0.001332169
-1.921895e-05
-0.001310461
-2.170836e-05
-0.001273382
-3.707824e-05
-0.00123148
-4.190199e-05
-0.00119955
-3.193086e-05
-0.0011565
-4.304982e-05
-0.001066198
-9.030197e-05
-0.0007345408
-0.000331657
0.0001077613
-0.0008423021
0.0009812955
-0.0008735343
0.0008498019
0.0001314936
0.0009723054
-0.0001225034
0.001157021
-0.0001847161
0.001320223
-0.0001632018
0.00144083
-0.0001206071
0.001538146
-9.731598e-05
0.001607754
-6.960792e-05
0.001648096
-4.034179e-05
0.001676188
-2.809163e-05
0.001708865
-3.267709e-05
0.001736411
-2.754626e-05
0.001756976
-2.056527e-05
0.001767416
-1.043978e-05
0.001775104
-7.688346e-06
0.001782604
-7.49947e-06
0.001795203
-1.259951e-05
0.001809159
-1.39553e-05
0.001821877
-1.27178e-05
0.001836329
-1.445253e-05
0.00185446
-1.813125e-05
0.001870939
-1.647894e-05
0.001886127
-1.518771e-05
0.001904069
-1.794244e-05
0.001918973
-1.490391e-05
0.001938587
-1.961371e-05
0.001962404
-2.381647e-05
0.001982658
-2.025422e-05
0.002000094
-1.743645e-05
0.002020265
-2.017093e-05
0.002043612
-2.334649e-05
0.002059823
-1.621157e-05
0.002023496
3.632681e-05
0.002053758
-3.026118e-05
0.002091853
-3.809553e-05
0.002131148
-3.929524e-05
0.002171305
-4.015698e-05
0.002214362
-4.305688e-05
0.002255772
-4.140938e-05
0.002294257
-3.848507e-05
0.002335768
-4.151144e-05
0.002382245
-4.647646e-05
0.002432928
-5.068374e-05
0.002478104
-4.517546e-05
0.002521903
-4.3799e-05
0.002569019
-4.711619e-05
0.0026198
-5.078133e-05
0.002671978
-5.217802e-05
0.002730187
-5.820905e-05
0.002791104
-6.091643e-05
0.002852968
-6.186424e-05
0.002917278
-6.430971e-05
0.002978564
-6.128595e-05
0.003050804
-7.224079e-05
0.003127028
-7.622364e-05
0.003207289
-8.026124e-05
0.003293778
-8.648891e-05
0.003383645
-8.986685e-05
0.003483535
-9.989021e-05
0.003593339
-0.0001098035
0.003707125
-0.0001137866
0.003831214
-0.0001240888
0.003973214
-0.0001419997
0.004137929
-0.0001647153
0.004442324
-0.0003043949
0.004679027
-0.0002367026
0.004950749
-0.0002717222
0.005257339
-0.0003065897
0.005664351
-0.0004070121
0.006049458
-0.000385107
0.007177615
-0.001128157
5.823853e-05
0.001088236
-0.0009534078
-3.334935e-06
0.001494489
-0.000528756
0.001839687
-0.0005299145
0.002087015
-0.0004105298
0.002296604
-0.0003301954
0.002490762
-0.0002914745
0.00265999
-0.000238836
0.002797915
-0.0001782668
0.002916658
-0.0001468342
0.003032677
-0.0001486965
0.003139437
-0.0001343065
0.003238395
-0.0001195229
0.00332569
-9.773507e-05
0.003407446
-8.944367e-05
0.003482825
-8.287855e-05
0.003557509
-8.728429e-05
0.003628117
-8.456291e-05
0.003694516
-7.911665e-05
0.003757949
-7.788612e-05
0.003821608
-8.179019e-05
0.003882081
-7.695132e-05
0.003939502
-7.260858e-05
0.003997665
-7.61061e-05
0.004051263
-6.850158e-05
0.004106891
-7.524187e-05
0.004163593
-8.051872e-05
0.00421867
-7.533044e-05
0.004270255
-6.902195e-05
0.004324621
-7.453669e-05
0.004380121
-7.884705e-05
0.004434771
-7.086113e-05
0.004395798
7.529941e-05
0.004465253
-9.971549e-05
0.004539371
-0.0001122138
0.004614654
-0.0001145787
0.004690874
-0.0001163767
0.004768759
-0.0001209413
0.004846589
-0.0001192396
0.004921366
-0.0001132619
0.004999037
-0.0001191828
0.005078089
-0.0001255289
0.005161973
-0.0001345677
0.005240762
-0.0001239637
0.005320008
-0.0001230452
0.005400129
-0.0001272376
0.005483546
-0.0001341981
0.005567166
-0.0001357979
0.005655634
-0.0001466771
0.005746603
-0.000151885
0.005838408
-0.0001536693
0.005933696
-0.0001595983
0.006025913
-0.0001535028
0.006127946
-0.0001742742
0.006231598
-0.0001798754
0.006340896
-0.0001895592
0.006453944
-0.0001995369
0.006571989
-0.0002079114
0.006697161
-0.0002250621
0.006832212
-0.0002448546
0.006970703
-0.0002522776
0.007119485
-0.0002728716
0.007283477
-0.0003059915
0.007468117
-0.0003493549
0.007858936
-0.0006952139
0.008111976
-0.000489743
0.008406584
-0.0005663301
0.008733539
-0.0006335444
0.00916776
-0.0008412338
0.009574574
-0.00079192
0.01072468
-0.002278261
0.01022264
0.0005602739
-0.00892341
0.008171271
0.001024212
-0.008026305
-0.001680339
-0.007721961
-0.0006178869
-0.007378854
-0.0006523744
-0.007122129
-0.0004897921
-0.006882337
-0.0004521907
-0.006675981
-0.000390417
-0.006345388
-0.0005772618
-0.00619342
-0.0002798598
-0.006058933
-0.0002431999
-0.005931772
-0.0002271087
-0.00581493
-0.0002057492
-0.005700432
-0.0002004727
-0.005591294
-0.0001910295
-0.005484842
-0.0001842956
-0.005386596
-0.0001679798
-0.005291367
-0.0001594226
-0.005200353
-0.0001527134
-0.005109422
-0.000151566
-0.00502349
-0.0001423272
-0.004938696
-0.0001390521
-0.004857561
-0.0001318999
-0.00478034
-0.0001225394
-0.004703066
-0.0001235558
-0.004626576
-0.0001233442
-0.004550005
-0.0001238287
-0.004477191
-0.0001165595
-0.004406608
-0.0001098788
-0.004339851
-0.0001023252
-0.004270875
-0.0001060203
-0.004204158
-0.000103537
-0.004135028
-0.0001082734
-0.004070809
-9.827933e-05
-0.004007806
-9.399519e-05
-0.003944503
-9.59439e-05
-0.003880962
-9.655936e-05
-0.003817314
-9.77537e-05
-0.003756485
-9.155915e-05
-0.003696908
-8.853216e-05
-0.003730011
5.923402e-05
-0.003683469
-6.249024e-05
-0.00363492
-6.900701e-05
-0.003585111
-7.042201e-05
-0.003537542
-6.538279e-05
-0.003487441
-6.852399e-05
-0.003438316
-6.553823e-05
-0.003387798
-6.516219e-05
-0.003336569
-6.503792e-05
-0.003281004
-7.25907e-05
-0.003223877
-7.459598e-05
-0.003166693
-7.126429e-05
-0.003107976
-7.063894e-05
-0.003048082
-6.977039e-05
-0.002982501
-7.9302e-05
-0.002913158
-8.567483e-05
-0.002842426
-8.292094e-05
-0.002770833
-7.879376e-05
-0.002692759
-8.645355e-05
-0.002612122
-8.798689e-05
-0.002523869
-9.989656e-05
-0.00242866
-0.0001118642
-0.002326382
-0.0001214965
-0.002216325
-0.0001317652
-0.002085592
-0.0001678119
-0.00194102
-0.0001864731
-0.001789943
-0.0001830082
-0.001609848
-0.0002231453
-0.001358429
-0.0003417209
-0.0008668504
-0.0008232354
4.525758e-05
-0.00175441
-0.001781684
-0.000343249
-0.0006605788
0.0003824216
-0.002871217
0.003738654
-0.004682413
0.003540549
-0.005145417
0.001376228
-0.005048244
4.598494e-05
-0.004713689
-0.0005387512
-0.004232143
-0.0008225397
-0.003700975
-0.0008958902
-0.003103596
-0.001007397
-0.00244094
-0.001115987
-0.001733289
-0.001190174
-0.0009785822
-0.001289415
-0.0001196731
-0.001498628
0.0006182927
-0.001297542
0.001156257
-0.0008891445
0.002008925
-0.001486419
0.002522329
-0.0008471373
0.002989441
-0.0007943892
0.00356025
-0.001012156
0.004381031
-0.001483329
0.005271452
-0.001585181
0.006180076
-0.001604982
0.006832797
-0.001106686
0.007396664
-0.0009041903
0.007737608
-0.0004933682
0.007963756
-0.0002244207
0.008062913
0.0001814267
0.007931113
0.0008521487
0.007256429
0.002078814
0.005079727
0.004419803
0.0009481675
0.006144314
-0.002381515
0.004196111
-0.003439778
0.001680641
-0.00325651
-0.0003728371
-0.001989604
-0.003275029
-0.001984621
-0.0003232147
-0.003208499
0.003079881
-0.003064906
0.0004915259
-0.002113266
-0.00151808
-0.001541406
-0.00102026
-0.0004217917
-0.002021312
5.497641e-05
-0.0008613098
-0.0001465258
0.0002931737
-0.0004966552
0.0006617583
0.0002962751
-0.001428676
0.001322065
-0.001610211
0.001283765
0.0009404387
0.002369747
-0.002520474
0.0007196307
0.0007942797
0.01645392
-0.00179968
-0.004341014
0.01252605
-0.000965725
-0.00232509
0.0004195173
-0.003553542
0.001187677
-0.0016796
0.002235619
-0.001837255
0.003630509
-0.001763991
0.003181254
0.002237199
-6.307738e-05
0.005881509
-0.00121999
0.001225863
0.001078366
-0.004602398
0.002331633
-0.002882076
0.003387305
-0.001443235
0.003486561
0.0007909551
0.002079461
0.002123773
-0.0003810525
0.002504557
-0.002655878
0.002677953
-0.004252017
0.002267884
-0.005494017
0.002007349
-0.006532017
0.001813255
-0.00742421
0.001696151
-0.008186921
0.001598227
-0.008798437
0.00143087
-0.009237783
0.001178214
-0.0095149
0.0009027089
-0.009656213
0.0006488671
-0.009681909
0.0004154332
-0.009612032
0.000204196
-0.009470143
2.20549e-05
-0.009292806
-0.0001096561
-0.00907057
-0.0002644193
-0.008765312
-0.0004607769
-0.00840725
-0.0005774901
-0.008045736
-0.0006162214
-0.007524227
-0.0009105697
-0.007308229
-0.0004179318
-0.007300936
-0.0001313524
-0.007592616
0.0002902857
-0.008136256
0.0005728492
-0.00880022
0.0006582205
-0.009421177
0.0006560552
-0.009655038
0.0001974195
-0.009486229
-0.0002486191
-0.009121572
-0.0004659509
-0.008730413
-0.0005650629
-0.008395362
-0.0005194644
-0.008087076
-0.000443229
-0.007799436
-0.0002814261
-0.00753187
-9.622097e-05
-0.007245649
-0.0001337345
-0.006983195
-0.0002637569
-0.006733129
-0.0003852848
-0.006443396
-0.0004544463
-0.006079115
-0.0005441164
-0.005629467
-0.0006867854
-0.005081015
-0.0008809989
-0.004463146
-0.00103506
-0.003828405
-0.001098664
-0.003240981
-0.001047431
-0.002817733
-0.0007802235
-0.002648365
-0.0003420834
-0.002700281
3.241924e-05
-0.002863293
0.0001926007
-0.003113691
0.0002707269
-0.003535384
0.0004146897
-0.004181653
0.0006448968
-0.004907041
0.0007774787
-0.005701346
0.00110368
-0.006241186
0.00112237
-0.006489792
0.0009815002
-0.006385767
0.0004566622
-0.006059784
-0.0001165413
-0.005683195
-0.0004645963
-0.005270983
-0.0006375551
-0.004821249
-0.0007096343
-0.004387824
-0.0007003918
-0.00394764
-0.0007379715
-0.00350024
-0.0007657657
-0.003046301
-0.0007811691
-0.002624925
-0.0007153291
-0.002247936
-0.0006324024
-0.001946487
-0.0005025622
-0.001709306
-0.0003992909
-0.001476201
-0.000400646
-0.00115993
-0.0005528291
-0.0007114575
-0.0007739324
-4.966359e-05
-0.001180516
0.00045976
-0.000884735
0.001049268
-0.001036872
0.001613808
-0.001004072
0.002166557
-0.0009785201
0.002731779
-0.001005065
0.003236381
-0.0008907587
0.003644077
-0.0006994155
0.003937859
-0.0004564408
0.004075018
-4.585635e-05
0.003982422
0.0005655406
0.003516829
0.001335387
0.002603961
0.001991784
0.001535438
0.001746566
0.0004210612
-0.0007938645
0.02076615
-0.002938669
0.001559316
0.0007579132
-0.006803645
0.0002398502
0.001025826
-0.002546854
0.005044418
-0.001668014
-0.001417421
-0.0002310645
-0.002723201
-0.0002135579
-7.78583e-05
-0.0006639726
0.000767361
-0.0009951447
0.0006637981
-0.0009466438
7.626522e-05
-0.0004708645
-0.0007634383
1.705103e-05
-0.0007841915
-3.21542e-05
8.792005e-05
-0.0002903471
0.0003151095
-0.0004261384
0.0001722304
-0.0003751829
-6.541502e-05
-0.0001343853
-0.0004318421
0.0001685497
-0.0005904689
0.000437948
-0.0004287907
4.808245e-05
0.0005920953
-0.0008495403
0.001372059
-0.001311504
0.0008523353
-0.001440025
0.0002632587
-0.001504602
3.918644e-05
-0.001588404
1.514297e-05
-0.00176665
9.295715e-05
-0.002254504
0.0004732259
-0.003144049
0.001130128
-0.004248505
0.001769601
-0.005174219
0.001999566
-0.005538063
0.00134283
-0.005418012
0.0003132798
-0.005113659
-0.0003790594
-0.004675508
-0.0007464695
-0.00408303
-0.0009891509
-0.003780068
-0.0003972538
-0.003115615
-0.001059354
-0.00202082
-0.00195952
-0.001260894
-0.001328569
-0.0004221136
-0.00148451
0.0003268952
-0.001348392
0.0009850146
-0.001187123
0.001649095
-0.00118872
0.002261944
-0.001088246
0.002962101
-0.001260051
0.003617663
-0.001195615
0.00439106
-0.001378547
0.004913334
-0.001218765
0.0004657282
0.001489926
-0.0126892
0.03196543
-0.003071094
0.006120336
0.0002575607
-0.0101323
-0.0002333629
0.001516749
-0.003351523
0.008162578
-0.002198619
-0.002570324
-0.0006841036
-0.004237716
-0.0007705293
8.567438e-06
-0.001162121
0.001158952
-0.001362202
0.0008638792
-0.001234197
-5.173933e-05
-0.0006736627
-0.001323973
-1.678867e-05
-0.001441066
-7.48801e-05
0.0001460115
-0.000496006
0.0007362354
-0.0006968193
0.0003730436
-0.000657061
-0.0001051733
-0.000511911
-0.0005769921
-0.0003267306
-0.0007756493
-0.0002783045
-0.0004772168
-0.0008140747
0.001127865
-0.001505174
0.002063158
-0.00173858
0.001085742
-0.001854573
0.0003792512
-0.002038097
0.0002227111
-0.002350428
0.0003274736
-0.002902431
0.0006449599
-0.003879766
0.001450561
-0.005083009
0.002333371
-0.006074688
0.00276128
-0.006558368
0.002483246
-0.006592235
0.001376696
-0.006418898
0.0001399433
-0.006042122
-0.000755836
-0.005459386
-0.001329205
-0.004731513
-0.001717024
-0.004345135
-0.0007836319
-0.003463789
-0.0019407
-0.002155814
-0.003267495
-0.001211911
-0.002272472
-0.0001450775
-0.002551344
0.0007583104
-0.002251779
0.001556848
-0.00198566
0.002366482
-0.001998354
0.003133475
-0.001855239
0.003996092
-0.002122668
0.00483982
-0.002039343
0.005748057
-0.002286785
0.006346558
-0.001817265
0.005106763
0.001705523
-0.001468801
0.01910162
-0.001612956
-0.002180934
-0.0003190055
-0.004847493
0.000658744
-0.00265735
0.002213954
-0.003392464
0.00379365
-0.003343687
0.003916176
0.002114673
0.0008399535
0.008957731
-0.00114668
0.003212496
3.497386e-05
-0.005784052
0.00070754
-0.003554642
0.002084927
-0.002820621
0.002092625
0.0007832569
-0.00101368
0.005230078
-0.005047881
0.006538758
-0.007543156
0.005173229
-0.008901534
0.003626262
-0.009769254
0.002875069
-0.01039433
0.00243833
-0.01085526
0.002157078
-0.0111947
0.001937672
-0.01143933
0.001675497
-0.01160885
0.001347737
-0.01172164
0.001015499
-0.0117893
0.0007165276
-0.01181051
0.0004366392
-0.01178857
0.0001822544
-0.01172333
-4.317792e-05
-0.01163235
-0.0002006349
-0.01149111
-0.0004056584
-0.01125852
-0.0006933707
-0.01096292
-0.0008730882
-0.01064766
-0.0009314842
-0.01007806
-0.001480166
-0.00989813
-0.0005978653
-0.0100878
5.832191e-05
-0.01077924
0.0009817173
-0.0117411
0.001534715
-0.01246105
0.001378169
-0.01264507
0.0008400764
-0.01222871
-0.0002189402
-0.0116018
-0.0008755285
-0.01107395
-0.0009938038
-0.01063355
-0.001005463
-0.01024626
-0.0009067577
-0.009867149
-0.0008223374
-0.009511936
-0.000636639
-0.009212826
-0.0003953311
-0.008928125
-0.0004184355
-0.00865817
-0.0005337117
-0.008366198
-0.0006772568
-0.008019216
-0.0008014283
-0.007582054
-0.0009812785
-0.007040041
-0.001228798
-0.00638739
-0.00153365
-0.005665687
-0.001756762
-0.00493797
-0.001826382
-0.004277853
-0.001707548
-0.003817936
-0.00124014
-0.003667747
-0.0004922725
-0.003849985
0.0002146572
-0.004338482
0.0006810974
-0.005122368
0.001054613
-0.006091917
0.001384239
-0.007034287
0.001587267
-0.007727772
0.001470964
-0.008264042
0.00163995
-0.008300996
0.001159324
-0.008038564
0.0007190682
-0.007637511
5.560914e-05
-0.007234053
-0.0005199994
-0.00679704
-0.000901609
-0.006307067
-0.001127528
-0.00580763
-0.001209072
-0.005338982
-0.001169039
-0.004854159
-0.001222794
-0.004346338
-0.001273587
-0.003808046
-0.001319461
-0.003276255
-0.00124712
-0.0027549
-0.001153758
-0.002292421
-0.0009650415
-0.001927519
-0.0007641933
-0.001652609
-0.0006755558
-0.001349713
-0.0008557247
-0.0008604549
-0.001263191
-6.32577e-05
-0.001977713
0.0005765175
-0.00152451
0.001309913
-0.001770267
0.002010572
-0.001704731
0.002705277
-0.001673225
0.003409793
-0.001709581
0.004035865
-0.00151683
0.004540273
-0.001203824
0.004877917
-0.0007940848
0.004999536
-0.0001674754
0.004860666
0.0007044112
0.004491485
0.001704568
0.003746057
0.002737212
0.002357522
0.003135101
0.0004501768
0.002328406
-0.00209068
0.002923279
-0.00518131
0.006829284
-0.006615364
0.004974603
-0.006963949
0.001724814
-0.006754687
-0.0001632772
-0.006180362
-0.001113076
-0.005439243
-0.001563659
-0.00466605
-0.001669084
-0.003849351
-0.001824095
-0.002989315
-0.001976022
-0.002102135
-0.002077355
-0.001186137
-0.002205413
-0.0001518285
-0.002532936
0.0007532526
-0.002202623
0.001366544
-0.001502436
0.002360605
-0.00248048
0.002995427
-0.001481959
0.00354549
-0.001344452
0.004190303
-0.001656968
0.005144128
-0.002437155
0.006209154
-0.002650206
0.007316872
-0.0027127
0.008117917
-0.001907731
0.008806441
-0.001592715
0.00922664
-0.0009135674
0.009482507
-0.0004802874
0.009541685
0.0001222485
0.009393653
0.001000181
0.009112792
0.002359675
0.008058413
0.005474182
0.004112003
0.01009072
-0.001449736
0.009757851
-0.004258183
0.004489088
-0.004590672
-4.034869e-05
-0.003888965
-0.003976736
-0.003764918
-0.0004472614
-0.003997182
0.003312144
-0.003396523
-0.0001091331
-0.002387746
-0.002526857
-0.001580056
-0.00182795
-0.0002854399
-0.003315929
0.0002491673
-0.001395917
-4.839178e-05
0.0005907329
-0.0004000943
0.001013461
0.0004652726
-0.002294043
0.001780061
-0.002924999
0.002232693
0.000487806
0.002608104
-0.002895885
-0.001136194
0.004538577
-0.01036271
0.02568044
-0.0110469
0.001708402
-0.01014972
-0.002577526
-0.009765988
-0.001001615
-0.009386426
-0.001031936
-0.009101636
-0.0007745817
-0.008838623
-0.000715204
-0.008617214
-0.0006118264
-0.008237352
-0.0009571231
-0.008072407
-0.0004448054
-0.00792301
-0.0003925966
-0.007781138
-0.0003689803
-0.007649834
-0.0003370529
-0.007520359
-0.000329948
-0.007396791
-0.0003145981
-0.007275201
-0.0003058849
-0.00716201
-0.0002811713
-0.007050796
-0.0002706363
-0.006944217
-0.0002592921
-0.006836978
-0.0002588051
-0.00673506
-0.0002442454
-0.00663357
-0.0002405419
-0.006535516
-0.000229954
-0.006441021
-0.0002170343
-0.00634625
-0.0002183272
-0.006252697
-0.0002168969
-0.006158768
-0.0002177578
-0.00606857
-0.0002067577
-0.005979435
-0.0001990134
-0.005894059
-0.0001877017
-0.005805382
-0.0001946967
-0.005719702
-0.0001892176
-0.00563049
-0.000197485
-0.005545983
-0.0001827863
-0.005461229
-0.0001787494
-0.005375516
-0.0001816575
-0.005288915
-0.0001831595
-0.005201155
-0.0001855138
-0.005114343
-0.0001783716
-0.005025794
-0.0001770815
-0.005049649
8.308919e-05
-0.00496998
-0.0001421587
-0.004894508
-0.0001444791
-0.004815709
-0.000149221
-0.004739177
-0.0001419154
-0.004658665
-0.0001490351
-0.004578953
-0.0001452507
-0.004496826
-0.0001472886
-0.004413925
-0.0001479391
-0.004326238
-0.0001602777
-0.004237172
-0.0001636624
-0.004147982
-0.0001604546
-0.004056729
-0.0001618915
-0.003964272
-0.000162227
-0.003865652
-0.0001779222
-0.003762912
-0.0001884155
-0.003658157
-0.0001876751
-0.003551663
-0.0001852881
-0.003436976
-0.0002011401
-0.003320017
-0.000204946
-0.003194941
-0.0002249729
-0.00306308
-0.0002437254
-0.002923217
-0.000261359
-0.002774199
-0.0002807837
-0.002599616
-0.0003423951
-0.002408299
-0.0003777901
-0.002207425
-0.0003838817
-0.001960209
-0.0004703612
-0.001614822
-0.0006871081
-0.001018975
-0.001419082
4.034325e-06
-0.00277742
0.00122168
-0.00299933
0.001679145
-0.0004607999
0.002120039
-0.0009696502
0.002494001
-0.0009038767
0.00278523
-0.0007017585
0.00302895
-0.0005739158
0.003253608
-0.0005161317
0.003451641
-0.0004368695
0.00361579
-0.0003424154
0.00375817
-0.0002892142
0.003899549
-0.0002900754
0.004031729
-0.000266487
0.004157487
-0.0002452806
0.004270803
-0.0002110511
0.004379184
-0.0001978251
0.004480537
-0.0001842316
0.004581543
-0.0001882896
0.004678028
-0.0001810479
0.004769538
-0.0001706269
0.004857516
-0.000165864
0.004945902
-0.0001701768
0.005031146
-0.0001621955
0.005113121
-0.0001545835
0.005196808
-0.0001597928
0.005274901
-0.0001465943
0.005355136
-0.000155477
0.005436134
-0.0001615173
0.005515437
-0.0001546327
0.005590389
-0.0001439746
0.005667956
-0.0001521028
0.005744872
-0.0001557635
0.005828515
-0.0001545044
0.005794949
0.0001088654
0.005890215
-0.0001949815
0.005987659
-0.0002096572
0.006084545
-0.0002114648
0.006181991
-0.000213823
0.006280946
-0.0002198958
0.006380283
-0.0002185767
0.006476202
-0.0002091809
0.006575137
-0.0002181184
0.006674245
-0.000224637
0.006778948
-0.0002392708
0.006878026
-0.0002230413
0.006978082
-0.0002231009
0.007078317
-0.000227473
0.007181805
-0.0002376857
0.007284681
-0.0002386741
0.007392307
-0.0002543037
0.007502149
-0.0002617269
0.007612479
-0.0002639986
0.007727026
-0.0002741461
0.007837256
-0.0002637324
0.007958011
-0.0002950293
0.00807906
-0.000300924
0.008206206
-0.0003167056
0.008336695
-0.000330026
0.008472114
-0.0003433305
0.008614456
-0.0003674041
0.00876703
-0.0003974282
0.008922887
-0.0004081348
0.009089372
-0.0004393564
0.009272344
-0.0004889632
0.009474662
-0.0005516729
0.009921632
-0.001142184
0.010196
-0.0007641118
0.01052231
-0.0008926421
0.0108912
-0.001002437
0.01138132
-0.001331347
0.01191211
-0.001322707
0.01306559
-0.003431742
0.0009366592
0.001969627
-0.001308207
-0.00112222
0.002614932
-0.001614956
0.003119011
-0.001407956
0.003464459
-0.001047207
0.003730381
-0.0008398375
0.003975444
-0.0007611945
0.004197055
-0.0006584811
0.004384261
-0.0005296213
0.004547459
-0.0004524114
0.004710035
-0.0004526523
0.004862452
-0.0004189035
0.005008809
-0.0003916379
0.005141975
-0.0003442165
0.005269799
-0.0003256497
0.005390224
-0.0003046558
0.005510105
-0.0003081708
0.005625687
-0.0002966301
0.005735161
-0.000280101
0.005841214
-0.0002719166
0.005947742
-0.0002767054
0.006051201
-0.0002656543
0.006151361
-0.0002547434
0.00625445
-0.000262882
0.006351279
-0.0002434231
0.006451377
-0.0002555755
0.006553189
-0.0002633285
0.006652879
-0.0002543235
0.006748438
-0.0002395328
0.006846609
-0.0002502743
0.006943893
-0.000253047
0.007050249
-0.0002608605
0.007016369
0.0001427449
0.00713202
-0.0003106328
0.007252127
-0.0003297641
0.007369569
-0.0003289067
0.00748728
-0.0003315338
0.007606509
-0.0003391244
0.007725503
-0.0003375709
0.007840332
-0.0003240098
0.007958305
-0.0003360917
0.008076451
-0.0003427834
0.008201035
-0.0003638547
0.008318881
-0.0003408867
0.008437913
-0.0003421331
0.008557501
-0.0003470612
0.00868065
-0.0003608347
0.0088032
-0.0003612236
0.008931738
-0.0003828421
0.00906274
-0.0003927292
0.009194626
-0.0003958845
0.009331827
-0.0004113471
0.009463407
-0.0003953123
0.009608573
-0.0004401948
0.00975324
-0.0004455911
0.009905157
-0.0004686227
0.01006161
-0.0004864797
0.01022278
-0.0005045027
0.01039333
-0.0005379489
0.01057509
-0.0005791952
0.01076063
-0.0005936753
0.01095889
-0.0006376162
0.01117701
-0.000707083
0.01165704
-0.001031702
0.01195324
-0.001438377
0.01227845
-0.001089321
0.01266886
-0.001283058
0.01312274
-0.001456314
0.01371071
-0.00191932
0.01444367
-0.002055661
0.01554581
-0.004533881
0.01556649
0.0009159715
-0.01319117
0.01277874
0.002120829
-0.01234976
-0.003418931
-0.01182391
-0.001527473
-0.01137771
-0.001478137
-0.01103507
-0.001117221
-0.01072542
-0.001024852
-0.0104685
-0.0008687457
-0.0102281
-0.001197527
-0.009825562
-0.000847339
-0.009651312
-0.0005668463
-0.00948533
-0.0005349621
-0.009331813
-0.0004905704
-0.009180137
-0.0004816238
-0.00903506
-0.0004596754
-0.008892119
-0.0004488261
-0.008758353
-0.0004149365
-0.008626912
-0.0004020774
-0.008500466
-0.0003857381
-0.008372971
-0.0003863003
-0.00825143
-0.0003657862
-0.008130297
-0.0003616749
-0.008012429
-0.000347822
-0.007898872
-0.000330592