/*--------------------------------*- C++ -*----------------------------------*\
| =========                 |                                                 |
| \\      /  F ield         | OpenFOAM: The Open Source CFD Toolbox           |
|  \\    /   O peration     | Version:  2406                                  |
|   \\  /    A nd           | Website:  www.openfoam.com                      |
|    \\/     M anipulation  |                                                 |
\*---------------------------------------------------------------------------*/
FoamFile
{
    version     2.0;
    format      ascii;
    arch        "LSB;label=32;scalar=64";
    class       surfaceScalarField;
    location    "0.22";
    object      phi;
}
// * * * * * * * * * * * * * * * * * * * * * * * * * * * * * * * * * * * * * //

dimensions      [0 3 -1 0 0 0 0];

oriented        oriented;

internalField   nonuniform List<scalar> 
23794
(
0.0009047794
-0.0006187232
-0.0002860562
0.001152497
-0.0002477174
0.001510766
-0.0003582688
0.001933946
-0.0004231805
0.002368679
-0.0004347328
0.002721739
-0.0003530604
0.00263589
8.584925e-05
0.001551358
0.001084532
9.278179e-06
0.00154208
0.0003346068
-0.0003253286
0.0008935457
-0.0005589389
-0.001474502
0.002368048
-0.002353523
0.0008790207
-0.0009681375
-0.001385386
0.0008334649
-0.001801602
0.002473521
-0.001640056
0.002384108
8.941291e-05
0.0005281188
0.00185599
-0.001749606
0.002277725
-0.002359626
0.0006100201
-0.0005565707
-0.001803055
0.002171456
-0.002728027
0.004414946
-0.00224349
0.007298717
-0.002883771
0.01091011
-0.003611392
0.01242478
-0.001514667
0.006273502
0.006151275
-0.003544601
0.009818103
-0.004967667
0.001423065
-0.0001323973
-0.004835269
0.004254049
-0.004386446
0.007589118
-0.003335069
0.008523057
-0.000933939
0.005323805
0.003199251
0.00213284
0.003190965
-0.0007803871
0.002913227
-0.005529094
0.004748706
-0.00968572
0.004156626
-0.01204366
0.002357937
-0.01331677
0.001273116
-0.01410024
0.0007834667
-0.01464095
0.0005407116
-0.01502777
0.0003868154
-0.01529614
0.0002683751
-0.01546934
0.0001731966
-0.01547455
5.213505e-06
-0.01541785
-5.670092e-05
-0.01533311
-8.473815e-05
-0.01520512
-0.0001279958
-0.01506542
-0.0001396979
-0.01487049
-0.0001949284
-0.01463853
-0.000231957
-0.0143503
-0.0002882294
-0.01404178
-0.0003085262
-0.01371866
-0.00032312
-0.01334366
-0.0003750017
-0.01295152
-0.0003921398
-0.0125538
-0.000397715
-0.0120941
-0.0004596985
-0.01161368
-0.0004804185
-0.01111008
-0.0005036088
-0.01060239
-0.0005076879
-0.0100754
-0.0005269834
-0.00950136
-0.0005740441
-0.008936666
-0.0005646935
-0.008332822
-0.000603844
-0.007713232
-0.0006195906
-0.007089443
-0.0006237884
-0.006459739
-0.0006297044
-0.005800845
-0.0006588942
-0.005141934
-0.0006589108
-0.004476894
-0.0006650399
-0.00380049
-0.000676404
-0.003128205
-0.0006722852
-0.002478629
-0.0006495762
-0.001797399
-0.0006812303
-0.001141807
-0.0006555913
-0.000514976
-0.0006268314
0.0001543827
-0.0006693587
0.0009313305
-0.0007769478
0.001668252
-0.0007369212
0.002381228
-0.0007129759
0.003079372
-0.0006981443
0.003759296
-0.000679924
0.004438679
-0.0006793834
0.005099784
-0.0006611048
0.005775104
-0.0006753205
0.006433125
-0.0006580202
0.007059787
-0.0006266629
0.007693725
-0.0006339377
0.008318371
-0.0006246457
0.008924194
-0.0006058229
0.009529693
-0.0006054996
0.01012344
-0.0005937441
0.01066611
-0.000542673
0.01120641
-0.0005402968
0.01173299
-0.0005265844
0.01221945
-0.0004864557
0.01270844
-0.0004889892
0.01314567
-0.0004372378
0.01355583
-0.0004101592
0.01392653
-0.000370695
0.01425314
-0.0003266152
0.01457522
-0.0003220717
0.01485922
-0.0002840039
0.01510283
-0.0002436134
0.01530326
-0.0002004233
0.01546013
-0.0001568788
0.01558754
-0.0001274025
0.01565171
-6.417313e-05
0.01569523
-4.352454e-05
0.01566297
3.226935e-05
0.01546575
0.0001972168
0.01513981
0.0003259417
0.01470151
0.0004383011
0.0141208
0.0005807046
0.01329625
0.0008245499
0.01204459
0.001251666
0.009831574
0.002213012
0.005913818
0.003917755
0.001049613
0.004864206
-0.002114448
0.003164061
-0.005077827
0.002963379
-0.008347614
0.003269787
-0.007870527
-0.0004770871
-0.004664944
-0.003205583
-0.000290297
-0.004374647
0.004630795
-0.004921092
0.003868478
0.000762317
-0.006071788
0.009940266
-0.01234278
0.006270995
-0.0111515
-0.001191278
-0.007417434
-0.00373407
-0.004575693
-0.002841741
-0.002170939
-0.002404754
0.000733702
-0.002904641
0.002540502
-0.0018068
0.001857497
0.0006830049
-0.0004614347
0.002318932
-0.002158169
0.001696734
-0.001846293
-0.0003118757
-6.249407e-05
-0.001783799
0.001611127
-0.001673621
0.001068748
0.0005423788
-0.001237225
0.002305973
-0.001335887
9.866252e-05
-0.0008155448
-0.0005203425
-0.001817213
0.001001668
-0.00284921
0.001031997
-0.002847876
-1.333452e-06
-0.002407297
-0.0004405796
-0.001935892
-0.0004714051
-0.001364644
-0.0005712472
-0.000709228
-0.0006554165
-0.0001065804
-0.0006026475
0.0003156985
-0.0004222789
-0.0003030247
0.001200145
-0.0008241913
-0.00066201
0.001541919
-0.000589491
0.002016399
-0.000832749
0.00257349
-0.000980271
0.003165698
-0.001026941
0.003648594
-0.0008359559
0.00401324
-0.000278797
0.00359319
0.001504583
0.001774144
0.003361125
0.0003705394
0.001078276
-0.0004594683
0.0002710688
-0.002625998
0.004534578
-0.00300399
0.001257013
-0.00113811
-0.003251266
0.001001167
-0.003940879
0.002911853
-0.003550743
0.003458095
-0.0004568295
0.002197675
0.003116409
-0.001196331
0.005671731
-0.002679662
0.00209335
-0.0001312729
-0.004351444
0.002869186
-0.005728485
0.005055631
-0.004429936
0.008056137
-0.005884277
0.01184336
-0.00739862
0.01481852
-0.004489823
0.01109813
0.009871664
-0.0004887569
0.02140499
-0.005939373
0.006873681
-0.002573242
-0.0082014
-0.0003793994
-0.006580289
0.00162505
-0.005339518
0.004709758
-0.004018647
0.005096727
0.002812282
-0.001984058
0.01027175
-0.01200221
0.01293137
-0.01848508
0.01123158
-0.02124367
0.006915217
-0.02206148
0.003175746
-0.02231268
0.001524315
-0.02237678
0.0008475734
-0.02235237
0.0005162941
-0.02228089
0.0003153402
-0.02217939
0.0001668776
-0.02205859
5.239308e-05
-0.02183744
-0.0002159345
-0.02159524
-0.000298906
-0.02133154
-0.0003484366
-0.02102555
-0.0004339812
-0.02070794
-0.0004573062
-0.02033286
-0.0005700149
-0.01992108
-0.0006437378
-0.01944807
-0.0007612363
-0.01895371
-0.0008028897
-0.01845048
-0.0008263434
-0.01789115
-0.0009343334
-0.01731052
-0.0009727751
-0.01672848
-0.0009797521
-0.01607509
-0.001113087
-0.01540229
-0.001153222
-0.01470256
-0.001203332
-0.01399738
-0.001212872
-0.01327551
-0.001248848
-0.01249719
-0.001352368
-0.01173167
-0.001330214
-0.01092532
-0.001410193
-0.01009836
-0.001446556
-0.009269732
-0.001452412
-0.00843831
-0.001461126
-0.007571139
-0.001526065
-0.006703006
-0.001527044
-0.005830332
-0.001537714
-0.004945466
-0.00156127
-0.004067792
-0.001549959
-0.003215059
-0.00150231
-0.00233047
-0.001565819
-0.001474683
-0.001511378
-0.0006494829
-0.001452032
0.0002232978
-0.001542139
0.001222037
-0.001775687
0.002177085
-0.001691969
0.003105208
-0.001641099
0.00401332
-0.001606256
0.0049024
-0.001569004
0.005792214
-0.001569198
0.006660925
-0.001529816
0.00754604
-0.001560435
0.008412218
-0.001524198
0.009240168
-0.001454612
0.01007876
-0.001472529
0.01091074
-0.001456627
0.01171874
-0.001413823
0.01252687
-0.001413632
0.01332659
-0.001393465
0.01406607
-0.001282146
0.01480699
-0.001281215
0.01553297
-0.001252573
0.01621444
-0.001167917
0.01690103
-0.001175588
0.01752724
-0.00106344
0.01813068
-0.001013605
0.01869025
-0.0009302604
0.01920183
-0.0008381941
0.01971537
-0.0008356175
0.02018894
-0.000757576
0.0206184
-0.0006730661
0.02100399
-0.0005860181
0.02134489
-0.0004977799
0.02165753
-0.0004400396
0.02190651
-0.000313155
0.0221511
-0.0002881111
0.02237027
-0.0001868995
0.02250254
6.494045e-05
0.02259264
0.0002358447
0.02265369
0.0003772504
0.02267008
0.0005643154
0.0225774
0.0009172313
0.02230107
0.001528
0.02150834
0.003005734
0.01897904
0.006447063
0.01299019
0.01085305
0.003269124
0.01288512
-0.004492665
0.01072517
-0.004840365
0.003617486
-0.001946905
-0.003370546
3.475464e-05
-0.005187243
0.002043231
-0.006383123
0.005434836
-0.008312697
0.0006843514
0.005512802
-0.01101715
0.02164176
-0.01482004
0.01007389
-0.01208678
-0.003924544
-0.008204625
-0.00761622
-0.005279155
-0.005767211
-0.002918143
-0.004765766
0.0003835364
-0.00620632
0.002822318
-0.004245581
0.001000927
0.002504396
-0.002290927
0.005610785
-0.003303981
0.002709788
-0.00238071
-0.001235146
-0.0003206964
-0.003843812
0.001691049
-0.003685366
0.001668943
0.0005644849
-0.000545124
0.00452004
-0.00179831
0.001351848
-0.002692631
0.000373979
-0.004124348
0.002433385
-0.004278936
0.001186585
-0.0036795
-0.0006007689
-0.003110128
-0.001009952
-0.002466884
-0.001114649
-0.001712968
-0.001325163
-0.0008674478
-0.001500937
-9.973949e-05
-0.001370356
0.000436966
-0.0009589845
-0.0006902499
0.001518725
-0.00108844
-0.001092296
0.001914349
-0.0009851141
0.002479473
-0.001397874
0.003146412
-0.00164721
0.003848263
-0.001728792
0.00442781
-0.001415503
0.004795755
-0.0006467423
0.004842063
0.001458275
0.003543375
0.004659813
0.0009294851
0.003692166
-0.001180798
0.002381352
-0.003292402
0.006646182
-0.003189039
0.00115365
-0.001094363
-0.005345942
0.001298564
-0.006333806
0.003500353
-0.005752532
0.003988934
-0.0009454102
0.003475279
0.003630064
0.0008496283
0.008297382
-0.001035701
0.003978679
0.0008560675
-0.006243212
0.003090555
-0.007962973
0.004667841
-0.006007222
0.007615033
-0.008831469
0.01186171
-0.0116453
0.01466044
-0.007288553
0.01214465
0.01238746
0.002046889
0.03150275
-0.006268991
0.01518956
-0.008516747
-0.005953644
-0.009785917
-0.005311119
-0.007868649
-0.007256786
-0.004689667
-0.007197629
-0.006087981
0.004210596
-0.01490051
0.01908428
-0.0234301
0.02146096
-0.02599783
0.01379931
-0.02604171
0.006959096
-0.02600946
0.003143496
-0.02612083
0.00163568
-0.02620313
0.0009298728
-0.02624696
0.0005601308
-0.02624748
0.0003158554
-0.02620852
0.000127925
-0.02613563
-2.049782e-05
-0.02590403
-0.0004475417
-0.02562708
-0.0005758561
-0.02532731
-0.000648205
-0.02497475
-0.000786541
-0.02461123
-0.0008208215
-0.02417578
-0.001005466
-0.02369758
-0.00112194
-0.02314473
-0.001314082
-0.02256493
-0.001382691
-0.02197604
-0.001415239
-0.02131709
-0.001593282
-0.02063249
-0.001657372
-0.01994763
-0.001664616
-0.01917429
-0.001886427
-0.01837779
-0.001949717
-0.01754859
-0.002032541
-0.01671249
-0.002048966
-0.01585635
-0.002104994
-0.01493008
-0.00227863
-0.01402033
-0.002239967
-0.01305906
-0.002371466
-0.01207323
-0.002432387
-0.01108454
-0.002441103
-0.01009195
-0.002453716
-0.009055588
-0.002562424
-0.008017352
-0.00256528
-0.006972173
-0.002582893
-0.005911956
-0.002621488
-0.00485818
-0.002603735
-0.003832199
-0.00252829
-0.002768694
-0.002629325
-0.001738587
-0.002541485
-0.0007454264
-0.002445192
0.0002954352
-0.002583001
0.001479306
-0.002959558
0.002617664
-0.002830327
0.003726203
-0.002749637
0.004810381
-0.002690434
0.005872358
-0.00263098
0.006934906
-0.002631747
0.00797154
-0.00256645
0.009027685
-0.00261658
0.0100602
-0.002556711
0.01104679
-0.002441204
0.01204594
-0.002471676
0.01303601
-0.0024467
0.01399697
-0.002374783
0.01495837
-0.002375034
0.01590854
-0.002343636
0.01678542
-0.002159027
0.01766454
-0.002160334
0.01852492
-0.002112947
0.0193305
-0.001973497
0.02014402
-0.001989112
0.02088266
-0.001802086
0.0215949
-0.001725835
0.02225326
-0.001588626
0.02285223
-0.001437167
0.02345581
-0.001439194
0.02400739
-0.001309154
0.02450825
-0.001173933
0.02495481
-0.001032577
0.02534779
-0.0008907607
0.02570753
-0.0007997792
0.02598977
-0.0005953921
0.02626664
-0.0005649807
0.02648613
-0.0004063878
0.02656547
-1.439854e-05
0.02658245
0.0002188579
0.02657009
0.0003896182
0.0265276
0.0006068013
0.02643561
0.001009218
0.02632336
0.001640253
0.02631608
0.003013017
0.02627998
0.006483161
0.02422453
0.0129085
0.01667306
0.02043659
0.007765821
0.01963241
0.005247638
0.006135669
0.007723653
-0.005846562
0.009576392
-0.007039982
0.008190278
-0.004997008
0.005865459
-0.005987878
-0.001983877
0.01336214
-0.01215897
0.03181685
-0.01463705
0.01255198
-0.0120697
-0.006491897
-0.007710568
-0.01197535
-0.004926412
-0.008551367
-0.003222633
-0.006469546
-0.0007267463
-0.008702206
0.0008778156
-0.005850142
-0.001393624
0.004775835
-0.003756515
0.007973677
-0.004092805
0.003046077
-0.003106317
-0.002221634
-0.0006694413
-0.006280687
0.001522759
-0.005877567
0.001853185
0.0002340591
-5.012128e-05
0.006423347
-0.002529843
0.00383157
-0.004524581
0.002368717
-0.005464101
0.003372906
-0.004986763
0.0007092466
-0.00431152
-0.001276012
-0.003641397
-0.001680076
-0.002852257
-0.001903788
-0.001944701
-0.002232719
-0.0009249357
-0.002520702
-1.349816e-05
-0.002281793
0.0006348848
-0.001607367
-0.001143805
0.002053174
-0.001509571
-0.001635899
0.002529145
-0.001461084
0.003191075
-0.002059804
0.003965649
-0.002421783
0.0047839
-0.002547043
0.005479444
-0.002111047
0.005809794
-0.0009770918
0.005916656
0.001351413
0.005086576
0.005489894
0.001880861
0.00689788
-0.0014161
0.005678313
-0.003754361
0.008984443
-0.003279099
0.0006783881
-0.0008968733
-0.007728168
0.001828748
-0.009059427
0.004395538
-0.008319322
0.004600383
-0.001150255
0.004230641
0.003999807
0.002948681
0.009579341
0.001462718
0.005464642
0.001844895
-0.006625389
0.00236148
-0.008479558
0.003109681
-0.006755423
0.006215306
-0.01193709
0.01097806
-0.01640805
0.01389314
-0.01020363
0.01167401
0.01460659
0.003152409
0.04002435
-0.008889179
0.02723115
-0.01737716
0.002534332
-0.02165169
-0.001036586
-0.02197388
-0.006934598
-0.02199789
-0.007173618
-0.02440111
0.006613814
-0.02889257
0.02357574
-0.03133186
0.02390025
-0.03095518
0.01342263
-0.03088951
0.006893428
-0.03127808
0.003532062
-0.03159055
0.001948153
-0.03176523
0.001104554
-0.03183121
0.0006261102
-0.03182958
0.0003142179
-0.03175896
5.731173e-05
-0.03164463
-0.0001348277
-0.03133694
-0.0007552343
-0.03098219
-0.0009306039
-0.03059748
-0.001032916
-0.03015289
-0.001231137
-0.02969756
-0.001276148
-0.0291575
-0.001545521
-0.02856797
-0.001711473
-0.02789004
-0.001992013
-0.02718078
-0.002091945
-0.02646185
-0.002134172
-0.02566092
-0.002394217
-0.02482941
-0.002488875
-0.02399827
-0.002495763
-0.02306461
-0.002820087
-0.02210135
-0.002912972
-0.02109992
-0.003033974
-0.02009162
-0.003057259
-0.01906065
-0.003135973
-0.01794435
-0.003394926
-0.01685056
-0.00333376
-0.01569376
-0.00352826
-0.01450927
-0.003616876
-0.01332039
-0.003629983
-0.01212778
-0.003646335
-0.01088296
-0.003807242
-0.009635797
-0.00381244
-0.008379604
-0.003839086
-0.007106175
-0.003894916
-0.005836719
-0.003873192
-0.004599683
-0.003765327
-0.003314498
-0.00391451
-0.002066355
-0.003789627
-0.0008627564
-0.003648792
0.0003832388
-0.003828996
0.001787953
-0.004364273
0.003146648
-0.004189022
0.004475119
-0.004078108
0.005773329
-0.003988645
0.0070446
-0.003902252
0.00831665
-0.003903797
0.00955789
-0.00380769
0.01082518
-0.003883868
0.0120619
-0.003793433
0.01324659
-0.003625891
0.01444767
-0.003672759
0.01563613
-0.003635157
0.01679303
-0.003531686
0.01795213
-0.003534129
0.01909501
-0.003486523
0.02015376
-0.003217769
0.0212161
-0.003222683
0.02225486
-0.003151701
0.02323015
-0.002948793
0.02421579
-0.002974747
0.02511238
-0.002698674
0.02597756
-0.002591015
0.02677927
-0.002390339
0.02751323
-0.00217113
0.02825226
-0.002178219
0.02892982
-0.001986715
0.02955001
-0.001794118
0.0301042
-0.001586769
0.03059765
-0.001384209
0.03105264
-0.001254771
0.03141788
-0.0009606298
0.03177681
-0.0009239109
0.03207194
-0.0007015169
0.03219764
-0.0001400988
0.03223449
0.0001819993
0.03221923
0.0004048849
0.03214706
0.0006789739
0.03194795
0.001208327
0.03163727
0.001950925
0.03123931
0.00341098
0.03119545
0.00652702
0.03163888
0.01246508
0.02990572
0.02216975
0.02581447
0.02372366
0.0230447
0.008905443
0.02248198
-0.005283842
0.02197971
-0.006537716
0.01763051
-0.000647804
0.008882575
0.002760052
-0.0030857
0.02533041
-0.01169044
0.04042159
-0.01374554
0.01460708
-0.01112428
-0.009113159
-0.006202416
-0.01689722
-0.003400669
-0.01135311
-0.002632585
-0.00723763
-0.002029552
-0.009305239
-0.001955671
-0.005924024
-0.003683088
0.006503253
-0.004779066
0.009069655
-0.004982384
0.003249395
-0.003972811
-0.003231208
-0.001169585
-0.009083913
0.001171436
-0.008218589
0.00160104
-0.0001955447
-0.00031255
0.008336937
-0.003583202
0.007102222
-0.006123328
0.004908843
-0.006596486
0.003846064
-0.005965318
7.807851e-05
-0.005256758
-0.001984572
-0.004380666
-0.002556168
-0.003422363
-0.002862091
-0.002301495
-0.003353587
-0.001038887
-0.00378331
0.0001003479
-0.003421029
0.0009121308
-0.00241915
-0.001741245
0.002715609
-0.002016428
-0.002335081
0.003302259
-0.002047734
0.004078632
-0.002836177
0.004979615
-0.003322767
0.005957167
-0.003524595
0.006795793
-0.002949673
0.007217088
-0.001398387
0.00722537
0.001343131
0.006607258
0.006108006
0.003233917
0.01027122
-0.001117938
0.01003017
-0.00382766
0.01169417
-0.003086865
-6.240731e-05
-0.0005024241
-0.01031261
0.002661998
-0.01222385
0.005703584
-0.01136091
0.005640424
-0.001087095
0.004747883
0.004892347
0.004078729
0.0102485
0.003172527
0.006370844
0.001939605
-0.005392467
0.0003128209
-0.006852773
0.0005035389
-0.006946141
0.003592918
-0.01502647
0.008412567
-0.0212277
0.01169492
-0.01348598
0.009251896
0.01704961
0.001502484
0.04777376
-0.01390809
0.04264173
-0.02677347
0.01539971
-0.03245125
0.004641192
-0.03481213
-0.004573713
-0.03724651
-0.004739244
-0.0390538
0.008421111
-0.03872467
0.02324661
-0.03704662
0.0222222
-0.03632033
0.01269635
-0.03669893
0.007272025
-0.03716985
0.004002982
-0.03753143
0.002309737
-0.03774637
0.00131949
-0.03785907
0.0007388151
-0.03789479
0.0003499365
-0.03783221
-5.270915e-06
-0.03773694
-0.0002300998
-0.03738588
-0.001106294
-0.03698706
-0.001329425
-0.03655076
-0.001469214
-0.0360284
-0.001753495
-0.03550993
-0.001794615
-0.03487355
-0.002181903
-0.03418411
-0.002400918
-0.03338042
-0.002795701
-0.0325401
-0.002932263
-0.03169192
-0.002982354
-0.03073736
-0.00334878
-0.02974664
-0.003479592
-0.02876022
-0.00348218
-0.0276471
-0.003933207
-0.02649541
-0.004064667
-0.02529869
-0.004230687
-0.02409634
-0.004259611
-0.02286643
-0.004365889
-0.02152757
-0.004733778
-0.02022298
-0.004638352
-0.01883644
-0.004914804
-0.01742
-0.005033317
-0.01599566
-0.005054319
-0.01456911
-0.005072886
-0.01307642
-0.005299926
-0.01158116
-0.005307706
-0.01007271
-0.005347537
-0.008546285
-0.005421338
-0.007020188
-0.005399289
-0.005532456
-0.005253059
-0.003979152
-0.005467814
-0.002464414
-0.005304365
-0.00100153
-0.005111675
0.0004922528
-0.005322779
0.002159234
-0.006031254
0.003780881
-0.00581067
0.005372225
-0.005669452
0.006922326
-0.005538746
0.008440144
-0.005420069
0.009961979
-0.005425632
0.01144716
-0.005292876
0.01296863
-0.005405331
0.01444689
-0.005271691
0.01586915
-0.00504816
0.01731352
-0.005117127
0.01873408
-0.005055714
0.020122
-0.004919611
0.02151744
-0.004929563
0.02288383
-0.004852912
0.02415168
-0.004485619
0.02542598
-0.004496991
0.02666797
-0.004393688
0.02783045
-0.004111274
0.02901155
-0.00415585
0.03007966
-0.003766784
0.03111004
-0.003621394
0.03206294
-0.003343236
0.03293104
-0.003039229
0.03380905
-0.003056227
0.0346052
-0.002782865
0.0353376
-0.002526518
0.03598336
-0.002232533
0.03655582
-0.001956664
0.03708689
-0.001785844
0.03749435
-0.001368091
0.03790388
-0.001333442
0.03822903
-0.001026668
0.03834626
-0.0002573299
0.03836014
0.0001681219
0.03830789
0.0004571398
0.03819095
0.0007959149
0.03794421
0.001455061
0.03758437
0.00231077
0.0371067
0.00388865
0.03666481
0.006968905
0.03717465
0.01195524
0.03881048
0.02053392
0.03948592
0.02304822
0.03793359
0.01045778
0.03538771
-0.002737966
0.03290942
-0.004059422
0.02732461
0.004937003
0.01435575
0.01572891
-0.001284958
0.04097112
-0.009153727
0.04829036
-0.01135124
0.01680459
-0.008455563
-0.01200884
-0.003372068
-0.02198071
-0.0007092555
-0.01401593
-0.0007569387
-0.007189947
-0.002479587
-0.00758259
-0.003844719
-0.004558892
-0.005008209
0.007666742
-0.005590077
0.009651523
-0.006132244
0.003791562
-0.005092218
-0.004271234
-0.002043427
-0.0121327
0.0003510937
-0.01061311
0.0008841901
-0.0007286411
-0.001290975
0.0105121
-0.005061243
0.01087249
-0.007774596
0.007622196
-0.007956314
0.004027782
-0.007291405
-0.0005868306
-0.00644037
-0.002835606
-0.005347429
-0.003649109
-0.004187378
-0.004022141
-0.002817136
-0.00472383
-0.001244199
-0.005356246
0.0002090609
-0.004874289
0.001244025
-0.003454115
-0.002513647
0.003370254
-0.002505723
-0.003199612
0.004085356
-0.002762836
0.005040916
-0.003791737
0.006147997
-0.004429848
0.007389493
-0.004766091
0.00846164
-0.00402182
0.009099424
-0.002036171
0.008995021
0.001447534
0.008385986
0.006717041
0.005096606
0.0135606
-0.000229297
0.01535607
-0.003063778
0.01452865
-0.00208318
-0.001043005
0.000252338
-0.01264813
0.004005194
-0.01597671
0.007676294
-0.01503201
0.007234689
-0.0006454898
0.005378006
0.00674903
0.004226272
0.01140023
0.003425945
0.007171171
0.0003375031
-0.002304025
-0.003454368
-0.003060903
-0.004337102
-0.006063407
-0.001425907
-0.01793767
0.002544681
-0.02519829
0.006322883
-0.01726418
0.003672425
0.01970007
-0.004982548
0.05642873
-0.02139714
0.05905632
-0.03475467
0.02875724
-0.03962319
0.009509715
-0.04288758
-0.001309322
-0.04651868
-0.001108142
-0.04794906
0.009851485
-0.04594192
0.02123947
-0.04386188
0.02014215
-0.04385819
0.01269266
-0.04442338
0.007837216
-0.04494771
0.004527314
-0.04536528
0.002727308
-0.04558911
0.00154332
-0.04567862
0.0008283309
-0.04569
0.0003613163
-0.04556687
-0.0001284037
-0.04542351
-0.0003734626
-0.04498897
-0.001540837
-0.04449692
-0.001821467
-0.04395379
-0.002012352
-0.04329865
-0.002408628
-0.04267633
-0.002416939
-0.04189579
-0.002962444
-0.04106342
-0.003233286
-0.04008838
-0.003770738
-0.03906943
-0.003951216
-0.03804955
-0.00400223
-0.03689487
-0.004503467
-0.0357004
-0.004674055
-0.03451883
-0.004663753
-0.03318013
-0.005271909
-0.03179065
-0.005454151
-0.03035344
-0.005667894
-0.02891028
-0.005702767
-0.02743793
-0.005838245
-0.02582441
-0.00634729
-0.02426803
-0.006194734
-0.02260163
-0.006581202
-0.02090475
-0.006730203
-0.01919807
-0.006760994
-0.01749266
-0.006778298
-0.01570527
-0.007087317
-0.01391797
-0.00709501
-0.0121067
-0.0071588
-0.0102789
-0.007249138
-0.008440936
-0.007237257
-0.006658405
-0.00703559
-0.004785734
-0.007340484
-0.002943935
-0.007146165
-0.001163279
-0.006892331
0.0006314632
-0.007117521
0.002612342
-0.008012133
0.004551972
-0.0077503
0.006447878
-0.007565357
0.008293446
-0.007384314
0.01010684
-0.007233467
0.01192978
-0.007248566
0.01370943
-0.007072529
0.01554223
-0.007238128
0.01730982
-0.00703928
0.01902202
-0.00676036
0.02076641
-0.006861517
0.02246532
-0.006754624
0.02413088
-0.006585176
0.02582122
-0.006619903
0.02745745
-0.00648914
0.02897608
-0.006004252
0.0305101
-0.006031006
0.03200246
-0.005886051
0.03339385
-0.005502659
0.03481762
-0.005579624
0.03610256
-0.005051727
0.03734296
-0.004861794
0.03848808
-0.004488352
0.03953617
-0.004087316
0.04060253
-0.004122592
0.04155912
-0.003739452
0.04245454
-0.003421936
0.04323597
-0.003013969
0.04393815
-0.00265884
0.04459231
-0.002440008
0.04510082
-0.001876592
0.04561058
-0.001843206
0.04601055
-0.001426638
0.04619488
-0.0004416621
0.0462412
0.000121803
0.04622476
0.0004735829
0.04612588
0.0008947932
0.0458521
0.001728839
0.04544507
0.0027178
0.04489757
0.004436149
0.04429964
0.007566835
0.04412406
0.01213082
0.04578251
0.01887548
0.04781619
0.02101454
0.0468149
0.01145907
0.04330475
0.0007721837
0.03999868
-0.0007533602
0.0353581
0.009577585
0.02240156
0.02868546
0.00586065
0.05751203
-0.00308262
0.05723363
-0.005354201
0.01907617
-0.002259023
-0.01510401
0.001928825
-0.02616856
0.004076171
-0.01616327
0.002781563
-0.005895339
-0.001271521
-0.003529507
-0.004269758
-0.001560655
-0.005425662
0.008822647
-0.006368143
0.010594
-0.007573374
0.004996793
-0.006834231
-0.005010377
-0.003712526
-0.01525441
-0.0009795967
-0.01334604
-0.0004168171
-0.001291421
-0.002875168
0.01297045
-0.007129231
0.01512655
-0.009769621
0.01026259
-0.009693035
0.003951196
-0.008920836
-0.001359029
-0.007829158
-0.003927285
-0.006529754
-0.004948513
-0.005155062
-0.005396833
-0.003531689
-0.006347204
-0.001611344
-0.00727659
0.000227566
-0.006713199
0.001548134
-0.004774683
-0.003471236
0.003882306
-0.002822345
-0.004259573
0.004762827
-0.003643357
0.006035781
-0.00506469
0.007486023
-0.00588009
0.009152334
-0.006432402
0.01059428
-0.005463768
0.0115528
-0.002994693
0.01144842
0.001551915
0.01075627
0.007409194
0.007747047
0.01656982
0.002060411
0.02104271
-0.0009267971
0.01751586
0.0003665771
-0.002336379
0.001799503
-0.01408105
0.006182468
-0.02035967
0.01059967
-0.01944921
0.009491797
0.0004623846
0.006320035
0.009920792
0.003479242
0.01424102
0.001645423
0.00900499
-0.003694416
0.003035814
-0.009510888
0.00275557
-0.01134758
-0.004226715
-0.009819587
-0.01946566
-0.006536299
-0.02848158
-0.003703578
-0.0200969
-0.007290227
0.02328672
-0.01678087
0.06591938
-0.03176437
0.07403982
-0.04242839
0.03942126
-0.04609967
0.013181
-0.0499569
0.002547901
-0.05402511
0.002960077
-0.05564158
0.01146795
-0.05407181
0.01966971
-0.05262523
0.01869557
-0.05278611
0.01285353
-0.05324356
0.008294665
-0.05376197
0.005045728
-0.05423027
0.003195608
-0.0544969
0.001809949
-0.05462216
0.0009535896
-0.05471118
0.0004503359
-0.05453106
-0.0003085235
-0.05444251
-0.0004620062
-0.05386397
-0.002119382
-0.05329958
-0.002385859
-0.05266565
-0.002646284
-0.05186141
-0.003212867
-0.05115187
-0.003126477
-0.05020135
-0.003912958
-0.04922184
-0.004212801
-0.04805257
-0.00494001
-0.04682359
-0.005180194
-0.04561363
-0.005212191
-0.04423391
-0.005883185
-0.0428007
-0.006107262
-0.04138254
-0.006081914
-0.03978788
-0.006866574
-0.03812436
-0.007117671
-0.03640359
-0.007388658
-0.03465495
-0.007451411
-0.03291725
-0.007575943
-0.03096279
-0.008301756
-0.0291118
-0.008045716
-0.02710157
-0.00859144
-0.02507269
-0.008759079
-0.02303447
-0.008799217
-0.02096509
-0.008847673
-0.01884315
-0.009209259
-0.01671479
-0.009223373
-0.01454522
-0.00932837
-0.01237567
-0.009418682
-0.01013043
-0.009482502
-0.008018662
-0.009147357
-0.00576331
-0.009595836
-0.003519355
-0.00939012
-0.001351353
-0.009060334
0.0008117566
-0.009280631
0.00316775
-0.01036813
0.005489173
-0.01007172
0.007718693
-0.009794878
0.009924978
-0.009590599
0.01210748
-0.009415965
0.01428715
-0.009428237
0.01641948
-0.009204865
0.01864451
-0.009463159
0.02076448
-0.009159245
0.0228149
-0.008810786
0.02490929
-0.008955904
0.02696147
-0.008806806
0.0289627
-0.008586406
0.03097944
-0.008636638
0.0329452
-0.008454907
0.03475921
-0.007818262
0.03659674
-0.00786853
0.03836466
-0.007653972
0.04004771
-0.007185712
0.0417572
-0.007289118
0.0432876
-0.00658212
0.04478718
-0.006361378
0.04614143
-0.005842604
0.04739617
-0.005342051
0.04868024
-0.005406669
0.04980417
-0.004863381
0.05088788
-0.00450564
0.05179896
-0.003925052
0.05263798
-0.00349786
0.05342535
-0.003227379
0.05400349
-0.002454732
0.05461078
-0.002450493
0.05510802
-0.001923884
0.05528912
-0.0006227559
0.05532696
8.395848e-05
0.05525212
0.0005484279
0.0551144
0.001032509
0.05477151
0.002071732
0.05433113
0.003158182
0.05376861
0.004998664
0.05325501
0.008080434
0.05298889
0.01239694
0.05405367
0.0178107
0.05553866
0.01952955
0.05432648
0.01267125
0.05046856
0.004630107
0.04657481
0.003140383
0.04300197
0.01315043
0.03323144
0.03845598
0.01821855
0.07252492
0.008149091
0.06730309
0.004862572
0.02236269
0.007189135
-0.01743058
0.01060355
-0.02958298
0.01104511
-0.01660483
0.008732479
-0.003582708
0.002339534
0.002863439
-0.002815152
0.003594032
-0.00484925
0.01085674
-0.007115384
0.01286014
-0.009494051
0.00737546
-0.009716181
-0.004788247
-0.006706371
-0.01826422
-0.003568204
-0.01648421
-0.002767244
-0.002092381
-0.005459673
0.01566288
-0.0100106
0.01967747
-0.01227865
0.01253064
-0.01183235
0.003504893
-0.01085013
-0.002341244
-0.00946112
-0.005316297
-0.007943637
-0.006465996
-0.0063492
-0.00699127
-0.004485462
-0.008210942
-0.002225866
-0.009536186
-1.828147e-05
-0.008920784
0.001649356
-0.006442321
-0.004644224
0.004167612
-0.002841266
-0.005585919
0.005351914
-0.004827658
0.007099725
-0.006812502
0.009065535
-0.007845899
0.01131954
-0.008686412
0.01323929
-0.00738351
0.01457989
-0.0043353
0.01472991
0.001401905
0.01407617
0.008062926
0.01133548
0.01931052
0.005212753
0.02716543
0.002331101
0.02039751
0.003628505
-0.003633783
0.004676125
-0.01512867
0.009538113
-0.02522166
0.01455173
-0.02446282
0.01236111
0.002652996
0.008565046
0.01371686
0.003783442
0.01902263
-0.001303228
0.01409166
-0.01051628
0.01224886
-0.01822961
0.0104689
-0.02163473
-0.000821599
-0.02253024
-0.01857015
-0.02175678
-0.02925504
-0.01953539
-0.0223183
-0.02605276
0.02980409
-0.0356995
0.07556611
-0.04602864
0.08436896
-0.05147815
0.04487076
-0.05483073
0.01653357
-0.05941812
0.007135294
-0.06355548
0.00709744
-0.0655586
0.01347107
-0.06463201
0.01874311
-0.06354506
0.01760863
-0.06369747
0.01300594
-0.06417239
0.008769587
-0.0647013
0.005574632
-0.06522604
0.003720353
-0.065507
0.00209091
-0.06556796
0.001014545
-0.06569177
0.000574151
-0.06540821
-0.0005920915
-0.06526457
-0.000605639
-0.06464606
-0.002737892
-0.06392869
-0.003103236
-0.06322872
-0.003346253
-0.0621709
-0.00427068
-0.06136676
-0.00393062
-0.06020971
-0.005070004
-0.05906382
-0.005358698
-0.05763772
-0.006366103
-0.05612998
-0.006687941
-0.05470301
-0.006639161
-0.05307851
-0.007507684
-0.05129481
-0.007890955
-0.04959958
-0.007777148
-0.04771498
-0.008751177
-0.04573887
-0.009093775
-0.04363902
-0.009488512
-0.0415199
-0.009570531
-0.03953525
-0.009560597
-0.03710296
-0.01073405
-0.03493505
-0.01021363
-0.03244845
-0.01107804
-0.03007648
-0.01113104
-0.02763603
-0.01123967
-0.02511594
-0.01136776
-0.02262049
-0.01170471
-0.02004766
-0.01179621
-0.0174392
-0.01193683
-0.01489782
-0.01196006
-0.01215384
-0.01222648
-0.009695682
-0.01160551
-0.006936739
-0.01235478
-0.004222448
-0.01210441
-0.001583516
-0.01169926
0.001052416
-0.01191656
0.003884759
-0.01320047
0.00656403
-0.01275099
0.009185433
-0.01241628
0.01186247
-0.01226764
0.01451591
-0.01206941
0.01713612