/*--------------------------------*- C++ -*----------------------------------*\
| =========                 |                                                 |
| \\      /  F ield         | OpenFOAM: The Open Source CFD Toolbox           |
|  \\    /   O peration     | Version:  2406                                  |
|   \\  /    A nd           | Website:  www.openfoam.com                      |
|    \\/     M anipulation  |                                                 |
\*---------------------------------------------------------------------------*/
FoamFile
{
    version     2.0;
    format      ascii;
    arch        "LSB;label=32;scalar=64";
    class       volVectorField;
    location    "0.22";
    object      U;
}
// * * * * * * * * * * * * * * * * * * * * * * * * * * * * * * * * * * * * * //

dimensions      [0 1 -1 0 0 0 0];

internalField   nonuniform List<vector> 
15536
(
(-0.01821205 0.7929398 -6.949153e-24)
(-0.05983739 1.054662 -4.088796e-19)
(-0.1313627 1.348713 -8.09089e-19)
(-0.2363502 1.732059 -7.974784e-19)
(-0.3790977 2.170778 -1.2575e-20)
(-0.5451119 2.564202 7.302792e-21)
(-0.6966154 2.83803 1.237537e-20)
(-0.6355539 2.425654 -1.233118e-20)
(-0.1844062 0.763681 3.051019e-18)
(0.2113039 -0.7169344 2.999246e-18)
(-0.7312569 1.437499 0)
(0.1888698 -0.1065323 0)
(1.385116 -2.389684 -2.952564e-20)
(0.8427256 -1.50778 7.102705e-18)
(-0.01786086 -0.1147854 2.796606e-18)
(-1.020739 1.350936 -4.310695e-18)
(-1.765989 2.373314 1.824171e-18)
(-1.246561 1.724862 4.705451e-21)
(0.5907895 -0.4782567 -5.188317e-21)
(2.118956 -2.070592 4.721182e-22)
(1.357112 -1.334559 0)
(-0.8050778 0.5372149 5.41911e-19)
(-2.734126 2.055511 0)
(-4.929205 3.512695 3.951366e-18)
(-7.657639 5.089317 -4.389426e-20)
(-10.25308 6.459403 -1.084043e-19)
(-9.947183 6.214065 1.087469e-19)
(-1.819383 1.565911 -9.871897e-18)
(7.178006 -3.325283 -2.709119e-18)
(2.991705 -1.622895 0)
(-2.733247 0.6432179 -3.178783e-20)
(-5.796518 1.63804 -4.602516e-18)
(-8.226272 2.356669 6.623477e-18)
(-7.80929 2.253062 0)
(-3.944615 1.116719 -7.061695e-18)
(-1.093779 0.1644467 -2.472955e-20)
(3.152372 -0.1915187 3.076684e-18)
(8.483791 -0.2203695 -1.501992e-18)
(11.62185 0.08084224 1.533094e-21)
(13.24188 0.5757585 -3.929898e-19)
(14.17994 1.178535 1.597463e-18)
(14.76658 1.836256 -2.516907e-20)
(15.12849 2.506827 2.501246e-20)
(15.31837 3.171994 0)
(15.37074 3.824827 -6.201105e-18)
(15.29317 4.451389 -6.12626e-18)
(15.08045 5.044053 0)
(14.80891 5.612182 -1.155998e-17)
(14.4706 6.147645 1.122028e-17)
(14.09412 6.656346 1.078783e-17)
(13.66749 7.123697 3.907898e-20)
(13.18477 7.545667 -9.722045e-18)
(12.65352 7.917144 0)
(12.0832 8.23991 0)
(11.4833 8.510458 7.782402e-18)
(10.85072 8.721334 7.114768e-18)
(10.20423 8.883899 4.707594e-20)
(9.550163 8.996675 5.577693e-18)
(8.875091 9.040968 9.757024e-18)
(8.191822 9.025219 4.124308e-18)
(7.50845 8.952861 3.318916e-18)
(6.838398 8.833545 -2.323114e-20)
(6.178274 8.657588 0)
(5.525193 8.418624 1.015466e-18)
(4.892758 8.133208 0)
(4.278628 7.786828 5.303379e-19)
(3.690076 7.386682 -2.621063e-20)
(3.137153 6.943528 -2.640801e-21)
(2.619312 6.455454 9.010728e-21)
(2.140749 5.926673 -3.282647e-18)
(1.706827 5.365364 -1.615853e-20)
(1.318199 4.769357 2.233492e-18)
(0.9763422 4.140762 2.4731e-18)
(0.686447 3.49565 0)
(0.448002 2.839805 0)
(0.2637373 2.170828 3.026225e-18)
(0.1306008 1.50084 -2.536591e-22)
(0.05109117 0.8536439 8.238068e-19)
(0.02499191 0.2014982 1.523725e-21)
(0.05071754 -0.5450629 -6.399109e-21)
(0.1235899 -1.322853 -1.587993e-18)
(0.2543698 -2.062978 0)
(0.4405694 -2.769719 2.883972e-18)
(0.679164 -3.449814 0)
(0.9690801 -4.104026 -2.459327e-18)
(1.308416 -4.730975 2.186668e-18)
(1.69696 -5.330065 1.620046e-20)
(2.131665 -5.899829 3.294451e-18)
(2.609635 -6.430498 9.106582e-21)
(3.127193 -6.920012 -2.020903e-18)
(3.682091 -7.370235 -1.312308e-18)
(4.272167 -7.775188 7.11525e-21)
(4.895783 -8.136763 2.039951e-19)
(5.545074 -8.448519 -9.896238e-19)
(6.213441 -8.706514 1.699162e-20)
(6.889581 -8.898076 6.286112e-21)
(7.578999 -9.036665 -3.359677e-18)
(8.277218 -9.121563 0)
(8.975573 -9.14454 9.783073e-18)
(9.676673 -9.116391 5.607247e-18)
(10.36015 -9.022282 1.012804e-19)
(11.02186 -8.864299 -7.211126e-18)
(11.65716 -8.645175 0)
(12.26452 -8.369012 0)
(12.84378 -8.04332 0)
(13.38534 -7.666566 0)
(13.87856 -7.240352 1.035366e-17)
(14.32004 -6.768573 1.095039e-17)
(14.71061 -6.256144 2.885149e-20)
(15.0454 -5.710804 -1.180533e-17)
(15.30582 -5.128742 -6.036678e-18)
(15.4936 -4.519712 -6.247962e-18)
(15.55255 -3.878356 4.891554e-20)
(15.46145 -3.209233 6.396174e-18)
(15.21783 -2.525543 3.299012e-18)
(14.80823 -1.840191 -2.549663e-20)
(14.17311 -1.173275 -6.237177e-21)
(13.21274 -0.5627487 4.065479e-19)
(11.64571 -0.05873329 -7.749291e-19)
(8.741757 0.2546756 -1.769664e-20)
(3.66928 0.2306059 1.235618e-20)
(-1.049899 -0.1412481 3.117099e-18)
(-3.776734 -1.052329 2.53459e-20)
(-7.498586 -2.215432 0)
(-8.426896 -2.455828 -6.774031e-18)
(-6.100963 -1.755 -4.904136e-18)
(-3.092279 -0.769535 -1.076695e-20)
(2.362361 1.375262 3.555574e-18)
(7.240999 3.404261 -2.734131e-18)
(-1.405326 -1.349689 0)
(-9.89194 -6.191887 0)
(-10.35212 -6.54204 -1.276629e-17)
(-7.808103 -5.188131 0)
(-5.04953 -3.609191 2.384977e-20)
(-2.81284 -2.111755 -2.051043e-18)
(-0.7165107 -0.4553646 -6.637653e-19)
(1.516825 1.484924 2.164211e-21)
(2.218888 2.175181 -6.207664e-19)
(0.6200478 0.501246 -1.266989e-20)
(-1.177974 -1.634778 3.265803e-18)
(-1.478377 -1.967362 2.463897e-18)
(-0.6124526 -0.7529647 3.173581e-18)
(0.3835058 0.7199938 4.161457e-18)
(1.113986 1.769447 0)
(0.1520626 0.02064307 -1.568642e-20)
(-1.010069 -1.966084 -3.996627e-18)
(-0.3786946 -0.6663095 0)
(-0.3505007 -0.9877561 3.847268e-18)
(-0.8106381 -2.612212 -2.872479e-20)
(-0.8747729 -3.01721 1.41582e-20)
(-0.6668919 -2.605119 1.758574e-18)
(-0.4770701 -2.196678 6.809642e-22)
(-0.3051382 -1.674058 0)
(-0.1611644 -1.045842 8.153981e-19)
(-0.05833863 -0.3893323 6.458609e-21)
(-0.005962915 0.1442696 1.622755e-21)
(0.002871683 0.4948646 -1.613427e-21)
(-0.05867084 0.870669 -1.723867e-19)
(-0.1097963 1.164121 3.39845e-19)
(-0.2062896 1.490821 0)
(-0.3388294 1.909642 6.599141e-19)
(-0.5124942 2.385151 0)
(-0.71279 2.846836 2.644438e-18)
(-0.8765255 3.135301 1.014812e-20)
(-0.9882086 3.469741 -9.932522e-21)
(-0.6860891 2.515706 -2.408869e-18)
(-0.2011833 0.5543627 -2.431539e-18)
(-0.1000541 0.1779019 0)
(0.833587 -1.034769 2.440602e-20)
(1.572482 -2.690259 -7.523513e-22)
(0.7079537 -1.541977 -2.869589e-18)
(-0.1443537 -0.2070062 -4.574515e-18)
(-1.17579 1.278915 1.736655e-18)
(-1.78244 2.218677 -1.468945e-18)
(-1.943747 2.583254 -8.937799e-21)
(-0.3908942 0.8776116 0)
(2.19529 -2.129144 0)
(0.9220427 -1.263045 0)
(-1.343021 0.6499618 4.461616e-19)
(-2.84993 1.875392 1.880357e-20)
(-4.749282 2.999157 -1.786945e-20)
(-7.201372 4.256153 6.466154e-20)
(-9.403747 5.410287 -6.328127e-20)
(-10.99749 6.816839 0)
(-5.807584 4.346171 0)
(6.721866 -2.827375 4.292807e-18)
(3.393176 -2.062757 2.981933e-20)
(0.9331623 -0.8915192 -3.135981e-20)
(-0.7463839 -0.1648749 4.102226e-18)
(-1.476864 0.1442976 5.921043e-18)
(-5.588565 1.4735 -4.821642e-20)
(-3.97157 1.080046 -5.506948e-18)
(6.972305 -0.4683815 2.233243e-18)
(14.03905 -0.8641014 5.64902e-22)
(17.69717 -0.835482 1.028118e-18)
(18.75012 -0.5061461 0)
(19.0667 0.0400817 2.963383e-19)
(19.16333 0.7056621 2.431406e-18)
(19.13366 1.41506 2.493884e-18)
(19.00905 2.124316 2.497435e-18)
(18.8077 2.834892 -7.719446e-20)
(18.55178 3.546302 5.005171e-18)
(18.24655 4.244253 -3.793814e-20)
(17.90579 4.92531 0)
(17.4919 5.567156 9.240543e-18)
(17.02484 6.17817 0)
(16.51723 6.756052 -6.499481e-20)
(15.96272 7.287182 6.518605e-20)
(15.35732 7.768631 7.780389e-18)
(14.70832 8.193696 -5.44939e-20)
(14.0227 8.563247 6.783315e-18)
(13.30744 8.874849 -6.272936e-18)
(12.5662 9.124575 0)
(11.80957 9.321589 3.729824e-20)
(11.04439 9.461579 -4.583978e-18)
(10.26585 9.531367 -7.787431e-18)
(9.478443 9.532825 0)
(8.694734 9.476712 -2.669072e-18)
(7.923737 9.364781 -1.331419e-20)
(7.165967 9.189431 1.392027e-18)
(6.42193 8.950147 3.620867e-21)
(5.698111 8.653315 -3.66193e-21)
(4.999684 8.294887 -4.30975e-19)
(4.329273 7.879128 1.030944e-18)
(3.697493 7.41154 0)
(3.105319 6.897967 0)
(2.5576 6.341958 -1.738643e-20)
(2.058153 5.745359 0)
(1.609988 5.110263 0)
(1.214781 4.440925 0)
(0.8770485 3.749539 -2.225869e-18)
(0.595454 3.046837 1.788557e-20)
(0.3789852 2.327823 1.025706e-20)
(0.218186 1.607397 -5.018775e-21)
(0.1194375 0.9061751 -6.774197e-19)
(0.08900836 0.1973322 2.75797e-21)
(0.1268886 -0.6026329 -6.792546e-19)
(0.2126386 -1.432899 1.295064e-18)
(0.3686337 -2.224814 9.88765e-21)
(0.5886742 -2.981052 -2.340384e-18)
(0.8679297 -3.709426 -3.441615e-20)
(1.205998 -4.410724 2.039565e-18)
(1.599387 -5.079556 -1.820749e-18)
(2.049227 -5.71631 0)
(2.548378 -6.320851 -5.385459e-18)
(3.09561 -6.878543 -1.505237e-20)
(3.688648 -7.392147 1.641131e-18)
(4.322162 -7.865421 1.071714e-18)
(4.994137 -8.285503 0)
(5.703149 -8.65441 0)
(6.441311 -8.974967 0)
(7.20011 -9.231059 1.329446e-20)
(7.974233 -9.41884 -1.320795e-20)
(8.763536 -9.547959 2.636173e-18)
(9.562387 -9.61603 5.137231e-21)
(10.36678 -9.619171 -3.963471e-18)
(11.1709 -9.562094 -7.051298e-20)
(11.96391 -9.439452 1.03017e-17)
(12.73715 -9.248042 5.73951e-18)
(13.48555 -8.990406 -4.675771e-20)
(14.21143 -8.672816 6.723719e-18)
(14.90889 -8.302244 5.495827e-20)
(15.57131 -7.871092 -6.264489e-20)
(16.19027 -7.385876 6.237142e-20)
(16.76165 -6.849502 6.881431e-20)
(17.28556 -6.268534 9.046373e-18)
(17.75734 -5.648679 -7.131499e-20)
(18.16507 -4.99162 0)
(18.50651 -4.301308 0)
(18.81551 -3.594174 0)
(19.07721 -2.880154 0)
(19.27314 -2.162101 1.958607e-20)
(19.38761 -1.444953 -1.954723e-20)
(19.40328 -0.7285 1.217681e-18)
(19.28411 -0.05199005 4.716354e-21)
(18.93896 0.5150439 0)
(17.95223 0.8785518 -1.076557e-18)
(14.61994 0.9356149 2.065479e-18)
(7.991828 0.5904917 -2.195824e-18)
(-2.692962 -0.8284534 4.54588e-20)
(-5.799879 -1.491262 -6.587094e-18)
(-1.710847 -0.2474785 4.12223e-20)
(-0.9564061 0.09151154 0)
(0.6793473 0.7890234 5.464262e-18)
(2.74525 1.803276 -5.573215e-18)
(6.632766 2.87771 -2.136656e-18)
(-5.459581 -4.186618 3.725784e-20)
(-11.11065 -6.894748 -1.578329e-19)
(-9.465138 -5.485785 8.812036e-20)
(-7.332778 -4.329941 0)
(-4.898305 -3.113034 3.360629e-18)
(-2.957213 -1.929708 1.621929e-18)
(-1.323846 -0.5904573 5.71698e-21)
(1.170471 1.498802 -1.980129e-19)
(2.11308 2.022319 5.086776e-19)
(-0.5502998 -1.053873 5.213151e-19)
(-1.910778 -2.509211 2.572122e-21)
(-1.616339 -1.939577 -1.996538e-18)
(-0.8874427 -0.8509636 -1.781055e-20)
(0.1584792 0.6399677 -3.375628e-18)
(1.018639 1.600805 3.169368e-20)
(0.6992625 0.6947475 2.128368e-21)
(-0.6926901 -1.50061 -2.800768e-20)
(-0.6964641 -1.512413 0)
(-1.023919 -2.950208 0)
(-1.250456 -3.756523 -2.960463e-18)
(-1.048558 -3.189095 0)
(-0.8277559 -2.790645 -2.887623e-18)
(-0.6006716 -2.322284 1.41625e-18)
(-0.4040656 -1.747558 -1.061485e-20)
(-0.240876 -1.070328 1.068717e-20)
(-0.118194 -0.373614 6.813527e-19)
(-0.04522525 0.1891269 -3.502592e-19)
(-0.03037385 0.5511788 -1.68163e-19)
(-0.08685617 0.9324389 1.397751e-19)
(-0.1322734 1.20503 -2.778359e-19)
(-0.2376829 1.524448 8.556913e-21)
(-0.372843 1.940944 -5.51106e-19)
(-0.5418619 2.415037 0)
(-0.7161477 2.866904 -2.174931e-18)
(-0.8542983 3.171089 -1.675236e-20)
(-0.9119472 3.404457 1.053929e-18)
(-0.8296773 3.311899 1.945213e-18)
(-0.4860343 1.732832 1.948507e-18)
(0.179167 -0.1965819 2.0296e-18)
(1.217198 -1.445638 -1.692926e-20)
(1.422995 -2.383926 0)
(0.4463672 -1.405639 0)
(-0.3530285 -0.2059221 1.82467e-18)
(-1.321512 1.218437 1.435711e-18)
(-1.760211 2.199207 1.243583e-18)
(-1.731078 2.468336 1.476418e-20)
(-1.150059 2.054097 0)
(0.9555865 -0.6577198 -3.634267e-20)
(-0.0830164 -0.5460354 3.000055e-20)
(-1.618087 0.6185295 -3.616375e-19)
(-2.400959 1.329341 0)
(-3.809832 2.045384 2.576258e-18)
(-5.982417 3.096116 0)
(-8.018878 4.376169 -8.62008e-18)
(-8.36575 5.672769 0)
(-6.468062 5.547989 -5.784041e-18)
(3.959432 -0.9007779 -3.244492e-18)
(5.19852 -2.785977 0)
(6.537686 -2.896674 0)
(6.187756 -2.58761 -5.452886e-21)
(5.027699 -2.051244 -4.59209e-18)
(1.953935 -0.4133381 5.461693e-18)
(5.675769 0.002480625 8.003301e-18)
(15.2388 -0.833946 -1.532172e-18)
(18.43653 -0.9116462 1.544854e-18)
(18.63631 -0.626109 -8.462212e-19)
(18.48434 -0.1208772 0)
(18.54454 0.5456677 0)
(18.58553 1.271379 -2.022723e-18)
(18.56877 2.011189 -2.090106e-18)
(18.47483 2.746563 -4.078373e-18)
(18.30796 3.465311 4.027461e-18)
(18.08382 4.171912 9.44207e-20)
(17.79996 4.846549 -6.250942e-20)
(17.44558 5.496389 0)
(17.02806 6.10487 0)
(16.55767 6.684112 7.224657e-18)
(16.04968 7.229568 -6.954027e-18)
(15.49838 7.724976 0)
(14.89842 8.171031 0)
(14.25811 8.559691 8.941932e-20)
(13.58238 8.894912 -5.654092e-18)
(12.88006 9.171694 0)
(12.15506 9.385964 -4.574287e-18)
(11.41541 9.550375 -4.112609e-18)
(10.66999 9.658926 -3.58583e-18)
(9.914938 9.696622 3.13232e-18)
(9.150809 9.668806 -3.735271e-20)
(8.391265 9.586785 2.145346e-18)
(7.645018 9.451571 0)
(6.914567 9.253649 -1.135895e-18)
(6.199719 8.99326 -5.598774e-21)
(5.503933 8.678793 7.862695e-21)
(4.838094 8.302288 -4.113671e-19)
(4.196969 7.872975 0)
(3.593739 7.394265 -1.366248e-18)
(3.028304 6.872525 -1.560412e-20)
(2.507922 6.310021 2.227709e-18)
(2.03298 5.709637 1.314849e-18)
(1.607857 5.072381 -1.496757e-18)
(1.232773 4.402556 -1.665835e-18)
(0.9116549 3.711697 1.812479e-18)
(0.6423146 3.010914 -1.949053e-18)
(0.4393502 2.293085 -1.003344e-18)
(0.2835245 1.574576 2.12256e-18)
(0.1870721 0.8763348 1.109655e-18)
(0.1620581 0.1728166 2.255509e-21)
(0.2100411 -0.6118572 5.625253e-19)
(0.290187 -1.429028 -8.429597e-21)
(0.4380329 -2.21003 0)
(0.6463597 -2.958285 -1.470357e-20)
(0.9093461 -3.681244 -1.274907e-20)
(1.228778 -4.378657 -1.614695e-18)
(1.599559 -5.045756 2.991883e-18)
(2.028038 -5.681646 -1.321754e-18)
(2.500797 -6.288994 2.184777e-18)
(3.01936 -6.8519 1.56784e-20)
(3.585493 -7.372048 0)
(4.189357 -7.855781 9.19607e-19)
(4.831091 -8.288498 2.729923e-21)
(5.51137 -8.67161 5.057752e-20)
(6.218429 -9.011402 0)
(6.945908 -9.289147 1.086445e-18)
(7.69267 -9.498666 0)
(8.455236 -9.652666 -4.652487e-20)
(9.22717 -9.748839 2.63426e-18)
(10.00852 -9.780151 0)
(10.7889 -9.755688 -3.714277e-18)
(11.56029 -9.667692 -4.22278e-18)
(12.31416 -9.512352 -4.703762e-18)
(13.04515 -9.291542 0)
(13.75787 -9.009892 -1.122707e-17)
(14.44418 -8.676724 9.018724e-20)
(15.09812 -8.281956 0)
(15.71135 -7.833913 0)
(16.27981 -7.333804 0)
(16.80443 -6.787093 7.320849e-18)
(17.27814 -6.203167 -7.597516e-18)
(17.69151 -5.580362 0)
(18.04074 -4.920408 0)
(18.32436 -4.232479 4.024773e-18)
(18.54894 -3.518729 3.215692e-20)
(18.70892 -2.784789 0)
(18.79609 -2.035737 0)
(18.81222 -1.285048 -2.029744e-18)
(18.76961 -0.5436401 2.445558e-19)
(18.7015 0.1411053 0)
(18.80018 0.6741188 8.482352e-19)
(18.66186 0.9882016 3.258299e-20)
(16.08046 0.9841695 -2.256268e-21)
(7.477476 0.256951 -2.800786e-20)
(2.578788 0.403873 5.232735e-18)
(4.956967 1.956134 4.658557e-18)
(6.1213 2.565218 6.075775e-20)
(6.429169 2.84441 2.520163e-20)
(4.85291 2.655002 2.267296e-18)
(3.804973 0.9527106 1.672011e-18)
(-6.275746 -5.477173 0)
(-8.456427 -5.736488 9.9146e-18)
(-8.060367 -4.45917 0)
(-6.034023 -3.096575 -5.960672e-20)
(-3.943107 -2.162451 -2.716286e-18)
(-2.516106 -1.37584 1.402161e-20)
(-1.688978 -0.6127859 -1.402244e-20)
(0.1029972 0.6946618 1.664113e-19)
(0.6353399 0.259712 -2.07067e-19)
(-1.362468 -2.267997 -4.174416e-19)
(-1.823063 -2.516274 -1.092061e-18)
(-1.770228 -2.075915 -1.632555e-18)
(-1.120083 -0.8811695 0)
(-0.118696 0.5210162 -1.460411e-20)
(0.7839761 1.245101 0)
(0.9400221 0.816663 -3.129652e-18)
(-0.3379242 -1.119066 2.688313e-18)
(-0.9872328 -2.474617 0)
(-1.235669 -3.75227 0)
(-1.191989 -3.641223 4.911084e-18)
(-1.008314 -3.08583 -1.207651e-18)
(-0.8199462 -2.729878 2.377561e-18)
(-0.6129276 -2.233212 -8.948828e-21)
(-0.4407641 -1.657658 9.002251e-21)
(-0.2966934 -0.9791773 0)
(-0.1720813 -0.2825207 -5.557293e-19)
(-0.0810325 0.2739005 5.632528e-19)
(-0.05738421 0.6235651 1.406461e-19)
(-0.124608 1.060954 -2.297165e-19)
(-0.1745367 1.336135 -7.1215e-21)
(-0.3013311 1.644693 7.037734e-21)
(-0.4504022 2.042781 -1.394456e-20)
(-0.627615 2.496921 1.386369e-20)
(-0.7989155 2.929513 8.93273e-19)
(-0.9412911 3.249141 -1.379007e-20)
(-0.9274514 3.324814 -8.729143e-19)
(-0.8136049 3.483051 2.553692e-20)
(-0.5740008 2.552279 -1.527982e-18)
(0.3155094 0.01519725 -2.630411e-20)
(1.411681 -1.476715 0)
(1.220319 -2.081703 0)
(0.1504711 -1.247701 -1.948755e-18)
(-0.6116784 -0.1619425 -1.534119e-18)
(-1.55515 1.228094 -2.336646e-18)
(-1.839725 2.230623 -1.021051e-18)
(-1.506201 2.244583 0)
(-1.254392 2.415265 0)
(-0.2921674 0.8617173 8.153953e-20)
(-1.039566 0.295789 -2.94053e-20)
(-1.451939 0.3627064 1.051137e-20)
(-1.437284 0.480095 -3.666376e-20)
(-2.559961 0.8688445 -4.277001e-18)
(-4.672023 1.795085 -4.166406e-18)
(-6.362399 3.09635 7.364469e-18)
(-6.145464 4.635145 8.828286e-18)
(-5.19049 5.756053 4.545114e-18)
(2.612881 0.5890167 1.309764e-18)
(8.436595 -3.597568 0)
(11.46617 -4.404639 -6.280662e-20)
(12.37092 -4.504163 -4.621989e-18)
(12.7762 -4.007422 3.173619e-20)
(12.75224 -2.33656 -4.180724e-20)
(15.09467 -0.9950087 -2.897335e-18)
(18.81275 -0.9778323 -1.180936e-18)
(18.45333 -1.031104 -2.270672e-20)
(18.13964 -0.86724 -7.003045e-19)
(18.3613 -0.4770302 -3.74184e-19)
(18.58088 0.1002206 -3.049381e-21)
(18.70792 0.7620065 0)
(18.73522 1.467205 -2.604751e-20)
(18.66851 2.179667 1.713934e-18)
(18.51819 2.886397 -6.658938e-18)
(18.30135 3.599104 5.084104e-20)
(18.0218 4.283975 -3.246493e-18)
(17.67402 4.947877 -9.700167e-20)
(17.26266 5.570331 -6.077272e-18)
(16.79641 6.168117 -1.765175e-21)
(16.29138 6.737512 5.736035e-18)
(15.74353 7.253803 -5.379714e-18)
(15.14578 7.72361 0)
(14.50653 8.136073 7.231374e-20)
(13.82961 8.497812 -7.277239e-20)
(13.12497 8.800814 0)
(12.39552 9.042132 3.768714e-18)
(11.65016 9.233408 6.848174e-20)
(10.89765 9.368781 2.997904e-18)
(10.13557 9.431908 -2.520446e-18)
(9.365788 9.425984 -2.104914e-18)
(8.596737 9.367407 -1.73479e-18)
(7.841609 9.254117 -1.279497e-18)
(7.102614 9.076378 1.045866e-20)
(6.377698 8.835529 -1.055863e-20)
(5.671323 8.540017 0)
(4.995272 8.180777 3.363446e-19)
(4.343365 7.767714 -1.461626e-20)
(3.730188 7.303526 1.137432e-18)
(3.155024 6.795132 1.476823e-18)
(2.627518 6.244082 -1.815612e-18)
(2.145286 5.654361 -1.079591e-18)
(1.713485 5.026745 -4.077354e-21)
(1.331871 4.365545 1.367132e-18)
(1.006795 3.681217 2.393631e-20)
(0.7319571 2.986057 1.562609e-18)
(0.5278598 2.270662 1.325332e-20)
(0.3687407 1.552168 -8.875652e-19)
(0.2694211 0.8534757 -4.525866e-19)
(0.248754 0.1504548 -5.623435e-23)
(0.3083077 -0.6169073 4.463699e-19)
(0.3855533 -1.42073 6.90709e-21)
(0.5306599 -2.191652 -8.380151e-19)
(0.7397197 -2.931138 1.589435e-18)
(1.004378 -3.644856 0)
(1.326646 -4.332172 -2.699485e-21)
(1.700603 -4.98866 -1.231025e-18)
(2.135038 -5.613336 1.114725e-18)
(2.612174 -6.209969 -1.878692e-18)
(3.139621 -6.759237 2.082208e-20)
(3.71636 -7.265054 -2.063962e-20)
(4.326377 -7.736141 -7.559512e-19)
(4.977756 -8.152841 0)
(5.671873 -8.517217 -4.754944e-20)
(6.387068 -8.840924 1.405331e-20)
(7.124119 -9.099507 -5.197592e-20)
(7.881837 -9.287982 -1.245216e-18)
(8.653443 -9.421339 -1.757875e-18)
(9.433648 -9.495651 -1.858098e-20)
(10.22293 -9.503639 2.529035e-18)
(11.01206 -9.453719 -4.304189e-20)
(11.7898 -9.340722 -3.358015e-18)
(12.54952 -9.158511 0)
(13.2874 -8.908229 4.124441e-18)
(14.00422 -8.599436 4.55815e-18)
(14.69224 -8.240256 4.73891e-18)
(15.34648 -7.820014 -5.057656e-18)
(15.95805 -7.349021 5.43111e-18)
(16.52429 -6.826135 0)
(17.04598 -6.25714 -1.197876e-17)
(17.51586 -5.656053 1.253546e-17)
(17.92481 -5.016094 -1.487397e-19)
(18.26833 -4.344311 -3.233829e-18)
(18.54988 -3.64419 -3.298611e-18)
(18.76421 -2.930649 0)
(18.90308 -2.213305 1.70626e-18)
(18.96005 -1.489272 -1.696838e-18)
(18.92479 -0.7815316 8.401672e-19)
(18.79128 -0.1056523 -2.088147e-19)
(18.56978 0.4907726 -3.934856e-19)
(18.33529 0.9146303 1.143559e-20)
(18.52673 1.120321 -1.303289e-18)
(19.04463 1.136215 -3.029078e-21)
(16.12365 1.167212 0)
(13.44967 2.299021 0)
(13.14489 3.953228 -9.045363e-20)
(12.65227 4.548463 9.03683e-20)
(11.64787 4.434088 0)
(8.520752 3.615049 0)
(2.54937 -0.465503 0)
(-5.11956 -5.749408 4.67781e-18)
(-6.110064 -4.616481 -1.712059e-17)
(-6.405159 -3.18916 7.579476e-18)
(-4.629855 -1.708558 -4.158844e-18)
(-2.667914 -0.9825464 -8.017065e-20)
(-1.563604 -0.5332557 1.146442e-18)
(-1.612606 -0.4298463 3.820116e-19)
(-1.047439 -0.3705746 2.132671e-21)
(-0.6457953 -1.318173 1.929461e-21)
(-1.490356 -2.624651 -3.871244e-21)
(-1.758613 -2.468454 -1.754016e-20)
(-1.915968 -2.128975 1.374089e-18)
(-1.377552 -0.8901648 0)
(-0.4130703 0.3829372 2.250831e-18)
(0.5365188 0.8793785 -2.914871e-18)
(0.9317384 0.4979669 2.596233e-18)
(-0.1333308 -1.191557 0)
(-1.080962 -3.117552 0)
(-1.258069 -3.908047 -3.123515e-20)
(-1.213613 -3.479949 -2.04361e-18)
(-1.114941 -3.141223 1.024148e-18)
(-0.8874621 -2.704431 -9.767812e-19)
(-0.6859437 -2.216831 0)
(-0.5175452 -1.62797 0)
(-0.3793055 -0.9354322 0)
(-0.242065 -0.2194853 -4.495415e-19)
(-0.1292694 0.3484079 -2.384935e-19)
(-0.0922738 0.7259683 -2.31184e-19)
(-0.1744843 1.166702 9.426092e-20)
(-0.2218021 1.459709 0)
(-0.3675706 1.757046 -3.686119e-19)
(-0.5253693 2.136389 0)
(-0.7073729 2.575625 -7.290038e-19)
(-0.8715427 3.009174 0)
(-0.9705134 3.33612 0)
(-0.9510718 3.432276 -7.119133e-19)
(-0.7559234 3.472047 -1.323371e-18)
(-0.5227776 3.088309 1.249912e-18)
(0.386883 0.5712921 -1.294613e-18)
(1.502939 -1.246502 1.684404e-18)
(0.9260161 -1.644806 0)
(-0.1774673 -1.096696 3.22739e-18)
(-0.918873 -0.0941592 1.252e-18)
(-1.863078 1.294479 9.818981e-19)
(-1.93005 2.352844 -2.925852e-20)
(-1.442168 2.23816 -8.840555e-21)
(-0.9813799 2.222143 -6.79727e-20)
(-0.8410329 1.5519 -1.167651e-19)
(-1.399613 0.6917322 3.942956e-21)
(-0.7664085 -0.1438881 1.771572e-20)
(-0.1751469 -0.5146801 8.622514e-19)
(-1.243217 -0.3858802 1.807578e-18)
(-3.145696 0.3240266 3.504578e-18)
(-4.285477 1.527603 0)
(-4.026007 3.584361 1.930391e-19)
(-2.841045 5.249059 0)
(3.305801 1.353751 1.106681e-18)
(11.21866 -3.880494 1.357023e-18)
(14.21595 -5.055869 2.597354e-18)
(15.63108 -5.467114 -8.759967e-20)
(17.21054 -5.14604 6.733698e-20)
(18.32318 -3.486977 -5.620963e-18)
(18.93853 -1.596027 0)
(18.75278 -0.9695193 -9.761991e-19)
(17.74819 -0.9119637 -1.099578e-18)
(17.87269 -0.6063018 1.167147e-18)
(18.10796 -0.1023924 2.941553e-19)
(18.29583 0.5295985 0)
(18.40252 1.217317 6.635358e-19)
(18.42181 1.926585 0)
(18.35361 2.623991 0)
(18.20175 3.313579 2.781042e-18)
(17.98638 4.008971 -4.2143e-20)
(17.70913 4.669588 4.555039e-20)
(17.36425 5.303393 -2.549833e-18)
(16.95995 5.891086 5.101596e-18)
(16.50107 6.453669 -4.846259e-18)
(16.00554 6.992722 -4.653646e-18)
(15.47348 7.468708 2.138487e-19)
(14.88943 7.905299 -1.342722e-19)
(14.26771 8.281849 -1.174362e-19)
(13.60739 8.613641 -3.368101e-18)
(12.92152 8.889035 -3.411722e-18)
(12.21162 9.102943 -8.915161e-20)
(11.48351 9.273098 2.824771e-18)
(10.75314 9.386877 0)
(10.01499 9.428463 2.075372e-18)
(9.263183 9.407983 1.732762e-18)
(8.513046 9.336915 1.34027e-18)
(7.779292 9.212546 1.052811e-18)
(7.06092 9.026168 0)
(6.356617 8.777188 0)
(5.667316 8.478674 4.083062e-21)
(5.011044 8.115681 0)
(4.373253 7.703171 0)
(3.775715 7.240243 9.926262e-19)
(3.216942 6.733794 -1.897626e-20)
(2.699409 6.187914 -1.273394e-20)
(2.22494 5.603685 -2.962749e-20)
(1.801389 4.981901 2.056691e-18)
(1.428441 4.326609 0)
(1.112508 3.647921 0)
(0.8338933 2.961772 1.323211e-18)
(0.6336429 2.2501 6.643415e-19)
(0.4723048 1.532077 7.162154e-19)
(0.3696241 0.8332274 -3.70724e-19)
(0.3531916 0.1280799 0)
(0.4274671 -0.6182105 -3.561642e-22)
(0.5017887 -1.408557 2.209956e-20)
(0.635664 -2.169853 6.651959e-19)
(0.837947 -2.898378 -1.303518e-18)
(1.097553 -3.600793 -3.693208e-20)
(1.414972 -4.278161 1.127611e-18)
(1.783621 -4.925815 3.325491e-20)
(2.212541 -5.54312 1.796876e-18)
(2.676026 -6.135846 -1.169406e-20)
(3.189925 -6.681234 -1.2932e-18)
(3.75765 -7.184233 3.441496e-20)
(4.353265 -7.655998 0)
(4.984404 -8.075318 3.459977e-19)
(5.664405 -8.442066 0)
(6.3652 -8.770678 0)
(7.079709 -9.039043 -7.011761e-19)
(7.817388 -9.237 2.045429e-18)
(8.571486 -9.380958 4.825958e-20)
(9.330627 -9.469621 -9.74724e-20)
(10.09942 -9.49337 -2.07657e-18)
(10.86757 -9.46352 -2.369529e-18)
(11.62456 -9.372441 2.857585e-18)
(12.36221 -9.216491 -3.113893e-18)
(13.07761 -8.995723 -6.928658e-20)
(13.77661 -8.714298 0)
(14.44558 -8.388891 -4.101707e-18)
(15.083 -8.002103 8.659831e-18)
(15.67896 -7.567819 -4.618817e-18)
(16.23063 -7.082517 0)
(16.74186 -6.550195 8.722567e-20)
(17.2017 -5.988811 -5.019025e-18)
(17.60336 -5.383082 -8.018856e-20)
(17.94349 -4.742719 1.301542e-19)
(18.22233 -4.065912 -8.403974e-20)
(18.43597 -3.371879 0)
(18.57722 -2.664747 -2.718204e-18)
(18.63704 -1.952011 1.320624e-18)
(18.61137 -1.236126 6.589185e-19)
(18.49828 -0.529473 -1.039873e-20)
(18.30466 0.1194871 3.169198e-19)
(18.06601 0.6445132 5.882327e-19)
(17.88075 0.9889717 0)
(18.69733 1.108979 1.022333e-18)
(19.12712 1.666069 -7.411057e-20)
(18.59943 3.385429 2.730074e-18)
(17.51481 5.082164 0)
(15.91808 5.52023 0)
(14.42512 5.113536 0)
(11.48953 3.968081 1.964751e-20)
(3.462563 -1.118605 1.101692e-18)
(-2.815834 -5.276815 -4.193724e-18)
(-3.83507 -3.468982 7.644757e-18)
(-4.316224 -1.67226 -1.275203e-17)
(-2.977942 -0.1934795 3.540772e-18)
(-1.27247 0.2882798 0)
(-0.3071294 0.4553546 -9.652289e-19)
(-1.038334 -0.005843728 -3.149072e-19)
(-1.517494 -0.8791843 4.956227e-20)
(-1.144423 -1.973273 -2.522385e-21)
(-1.287903 -2.485034 -1.575346e-20)
(-1.772602 -2.520703 1.644988e-20)
(-2.02559 -2.135503 0)
(-1.696376 -0.946871 -1.400167e-18)
(-0.7642329 0.1464398 6.407279e-20)
(0.2400133 0.4621537 4.786367e-18)
(0.8497711 -0.002750748 -2.196143e-18)
(-0.02730349 -1.566439 1.134865e-19)
(-1.06148 -3.563001 -1.717864e-18)
(-1.224733 -3.894562 0)
(-1.255398 -3.488466 -1.68649e-18)
(-1.17615 -3.19228 8.387303e-19)
(-0.9650401 -2.717615 -4.998486e-20)
(-0.7684611 -2.231051 8.34666e-19)
(-0.6142794 -1.638985 -3.601709e-20)
(-0.4839657 -0.9340393 1.182083e-20)
(-0.3347136 -0.1899986 3.741647e-19)
(-0.1998526 0.4125074 -2.967879e-21)
(-0.1455612 0.8092758 2.885394e-21)
(-0.2343794 1.196021 4.828597e-21)
(-0.2730258 1.497862 1.490342e-19)
(-0.431024 1.790942 3.023198e-19)
(-0.6017627 2.174484 -2.993846e-19)
(-0.7953376 2.626238 5.97278e-19)
(-0.9562669 3.086852 0)
(-1.038948 3.438668 5.643705e-19)
(-1.00552 3.618709 6.224796e-19)
(-0.7285302 3.504075 1.09117e-18)
(-0.3979245 3.455648 0)
(0.4491961 1.34012 0)
(1.486786 -0.8075817 -1.393361e-18)
(0.4721989 -0.8988694 -4.816103e-20)
(-0.5563436 -0.8551582 -1.295288e-18)
(-1.304316 0.02784539 -1.065234e-18)
(-2.242421 1.453883 -8.010002e-19)
(-2.092708 2.555311 7.283851e-19)
(-1.452865 2.382214 -3.922811e-19)
(-0.6744632 1.917145 5.681319e-20)
(-0.7739565 1.504396 6.121646e-20)
(-1.135222 0.635094 0)
(0.4884317 -0.9138037 0)
(1.17417 -1.557474 -7.130992e-19)
(0.1891914 -1.747536 0)
(-1.195596 -1.405677 -1.30006e-19)
(-1.761626 -0.4300915 -5.855453e-20)
(-1.464074 2.44011 -6.404033e-18)
(0.4652933 4.254224 -1.447171e-19)
(5.596996 1.607847 1.865775e-19)
(13.06579 -3.567692 -1.033833e-18)
(14.55883 -4.753879 2.884713e-20)
(15.83261 -5.327197 1.515967e-18)
(17.70325 -5.15611 -6.730917e-20)
(18.95301 -3.727235 2.375002e-18)
(18.94948 -1.888113 -6.128992e-20)
(18.03904 -1.101292 3.412275e-18)
(17.67246 -1.023891 2.821223e-20)
(17.91486 -0.7580153 -5.810045e-21)
(18.12976 -0.3384416 -4.970096e-19)
(18.32359 0.2253074 -4.040997e-21)
(18.43146 0.862153 -5.468182e-19)
(18.45075 1.546439 -3.437854e-20)
(18.38128 2.240209 -1.060381e-18)
(18.22809 2.923094 2.170135e-18)
(18.01311 3.627033 -2.142604e-18)
(17.74493 4.285484 4.101364e-18)
(17.4043 4.942661 2.231728e-18)
(17.00181 5.546425 0)
(16.5419 6.128299 0)
(16.04755 6.688365 3.772785e-18)
(15.51676 7.183432 3.591184e-18)
(14.93316 7.638434 0)
(14.31468 8.026777 -9.441089e-20)
(13.6547 8.373014 3.053931e-18)
(12.96619 8.668112 2.718209e-18)
(12.25741 8.894068 2.388836e-18)
(11.53548 9.069877 -6.35801e-20)
(10.80721 9.196379 -1.821275e-18)
(10.0661 9.254656 4.657537e-20)
(9.318847 9.240429 -4.700836e-20)
(8.577025 9.173252 -1.131054e-18)
(7.846086 9.058674 8.191229e-19)
(7.123532 8.88817 0)
(6.427108 8.643863 0)
(5.740239 8.355877 1.717464e-20)
(5.092686 7.99925 -8.209872e-21)
(4.459251 7.595813 -7.851479e-21)
(3.877059 7.137554 -7.656822e-19)
(3.326375 6.63854 -2.030438e-18)
(2.801279 6.109449 1.172337e-18)
(2.328936 5.536989 -1.434635e-18)
(1.909855 4.925502 -8.049785e-19)
(1.546069 4.27838 -2.762575e-20)
(1.238238 3.60453 0)
(0.9522194 2.932001 -1.033105e-18)
(0.7635782 2.227742 -3.467839e-20)
(0.5969217 1.510846 -5.957584e-19)
(0.491215 0.8139231 3.177851e-19)
(0.4798525 0.1048476 9.805966e-24)
(0.568323 -0.618027 -3.178275e-19)
(0.6314951 -1.397866 2.733159e-20)
(0.760826 -2.145689 -5.797847e-19)
(0.955463 -2.857014 1.068179e-18)
(1.209606 -3.545935 -1.035131e-18)
(1.523272 -4.213199 2.306653e-21)
(1.887962 -4.850664 8.647526e-19)
(2.32138 -5.456727 -1.430656e-18)
(2.776155 -6.043758 1.248106e-18)
(3.279468 -6.583567 9.680423e-19)
(3.848504 -7.077431 7.362833e-21)
(4.451578 -7.536549 7.800358e-21)
(5.074886 -7.948992 -2.709034e-19)
(5.738237 -8.31681 4.702475e-20)
(6.439045 -8.636401 1.217214e-20)
(7.151972 -8.894488 4.972885e-19)
(7.881416 -9.085852 -1.634541e-18)
(8.62729 -9.225813 1.085355e-18)
(9.391137 -9.296325 -5.036303e-20)
(10.15662 -9.310178 -1.66518e-18)
(10.91671 -9.276313 3.896265e-18)
(11.67345 -9.171869 7.28006e-20)
(12.40754 -9.005724 2.415532e-18)
(13.12258 -8.769015 -2.830507e-18)
(13.82302 -8.470715 8.794494e-20)
(14.49036 -8.132151 -3.236014e-18)
(15.12805 -7.725945 -3.322225e-18)
(15.7228 -7.275217 1.148053e-19)
(16.27524 -6.766407 -3.834364e-18)
(16.78643 -6.21204 3.970484e-18)
(17.24552 -5.630439 0)
(17.64492 -5.006334 0)
(17.98005 -4.345544 2.164561e-18)
(18.25256 -3.665193 2.163201e-18)
(18.46407 -2.972327 0)
(18.6043 -2.274748 1.163359e-18)
(18.66627 -1.569322 1.064186e-18)