/*--------------------------------*- C++ -*----------------------------------*\
| =========                 |                                                 |
| \\      /  F ield         | OpenFOAM: The Open Source CFD Toolbox           |
|  \\    /   O peration     | Version:  2406                                  |
|   \\  /    A nd           | Website:  www.openfoam.com                      |
|    \\/     M anipulation  |                                                 |
\*---------------------------------------------------------------------------*/
FoamFile
{
    version     2.0;
    format      ascii;
    arch        "LSB;label=32;scalar=64";
    class       volVectorField;
    location    "0.18";
    object      U;
}
// * * * * * * * * * * * * * * * * * * * * * * * * * * * * * * * * * * * * * //

dimensions      [0 1 -1 0 0 0 0];

internalField   nonuniform List<vector> 
4531
(
(3.69838e-05 7.439156e-07 0)
(1.400138e-05 -1.360102e-07 1.054083e-28)
(1.769112e-05 2.544916e-08 0)
(1.42217e-05 1.588841e-08 0)
(1.438862e-05 -7.611313e-09 0)
(1.364701e-05 1.894189e-08 0)
(1.287736e-05 -8.277127e-09 0)
(1.315828e-05 7.444143e-09 -1.714853e-28)
(1.21782e-05 9.188118e-09 0)
(1.202482e-05 -5.144552e-09 0)
(1.208981e-05 6.394113e-09 -1.126101e-27)
(1.174958e-05 1.844778e-10 2.095002e-27)
(1.12439e-05 1.032678e-08 1.678992e-27)
(1.136381e-05 -4.562291e-09 -1.685256e-27)
(1.19048e-05 7.016318e-10 0)
(1.169927e-05 1.6855e-09 0)
(1.160659e-05 2.467642e-09 0)
(1.151081e-05 5.53227e-09 0)
(1.220277e-05 -1.202431e-08 0)
(1.228599e-05 1.522858e-08 0)
(1.259146e-05 -3.863237e-09 -5.304795e-31)
(1.277488e-05 4.269621e-08 0)
(1.56434e-05 -1.561301e-07 -5.672351e-27)
(7.806785e-06 8.63396e-07 6.891617e-27)
(3.077933e-05 -1.315489e-06 0)
(1.180571e-06 -1.957919e-05 -1.279956e-24)
(-9.97937e-07 5.041195e-06 -4.97935e-27)
(1.040441e-07 -3.534731e-06 1.073307e-25)
(-6.349673e-08 -1.152792e-06 -1.09328e-25)
(-2.073845e-08 -1.219986e-06 -4.414318e-26)
(-1.490353e-08 -9.230754e-07 8.586741e-26)
(-9.4603e-09 -7.145586e-07 -4.17218e-26)
(-1.047045e-08 -4.341617e-07 0)
(-9.942304e-09 -4.302326e-07 -3.612223e-26)
(-1.780094e-09 -4.217846e-07 3.61281e-26)
(-4.549093e-09 -2.582144e-07 0)
(-2.933251e-09 -2.374498e-07 0)
(-2.462268e-09 -2.071526e-07 -1.626406e-26)
(-1.00423e-09 -1.536748e-07 1.626548e-26)
(-1.692522e-09 -1.070645e-07 0)
(-9.990408e-10 -1.032367e-07 1.543839e-26)
(-6.488173e-10 -8.144341e-08 -3.053388e-26)
(-4.805787e-10 -7.090864e-08 3.73608e-27)
(-7.332414e-11 -4.853837e-08 3.688661e-27)
(-7.803619e-11 -1.694567e-08 -1.917151e-27)
(-3.178091e-10 -1.317525e-08 -9.21537e-27)
(2.490307e-10 -7.358732e-10 4.593625e-27)
(-1.911149e-10 1.773418e-08 -2.733935e-27)
(-2.812246e-11 1.186852e-08 1.367949e-27)
(-1.036615e-10 1.240788e-08 4.587385e-28)
(-6.405958e-11 9.096517e-09 -2.733826e-27)
(-1.06638e-10 6.315775e-09 9.101157e-28)
(-7.48224e-11 1.126984e-08 -3.669018e-27)
(-2.416335e-10 1.134835e-08 3.662313e-27)
(-1.131514e-10 2.284803e-08 5.565075e-27)
(-6.773906e-10 2.461468e-08 -7.388463e-27)
(-1.60708e-10 3.388313e-08 -7.527765e-27)
(-5.171517e-10 8.087636e-08 7.569963e-27)
(-1.345076e-09 7.798209e-08 0)
(-5.979798e-10 1.285038e-07 0)
(-2.165973e-09 1.5792e-07 -1.623824e-26)
(-2.798853e-09 1.469042e-07 1.623682e-26)
(-4.014407e-09 1.542038e-07 0)
(-3.393558e-09 2.029306e-07 0)
(-5.705038e-09 2.730919e-07 -3.653522e-26)
(-5.273411e-09 3.788342e-07 3.652928e-26)
(-1.208112e-08 4.25204e-07 0)
(-6.5464e-09 6.901283e-07 4.174269e-26)
(-2.117884e-08 8.142499e-07 -4.173202e-26)
(-9.159726e-09 1.246799e-06 0)
(-8.414281e-08 9.540874e-07 -1.106415e-25)
(1.375534e-07 3.657571e-06 1.124999e-25)
(-1.024096e-06 -5.009269e-06 -2.328815e-25)
(1.169049e-06 1.896458e-05 1.497826e-24)
(3.124086e-05 1.329929e-06 7.734528e-25)
(8.218369e-06 -8.577267e-07 6.137133e-27)
(1.554859e-05 1.653154e-07 2.012596e-27)
(1.278773e-05 -5.146845e-08 -5.44572e-27)
(1.259089e-05 1.173088e-08 -1.483554e-30)
(1.191003e-05 -1.616888e-08 0)
(1.19511e-05 5.33337e-09 0)
(1.180322e-05 -8.248257e-09 0)
(1.162176e-05 7.243844e-09 -2.421465e-27)
(1.115946e-05 -9.550338e-09 5.701723e-27)
(1.167711e-05 -1.00799e-09 -3.280293e-27)
(1.138811e-05 -2.068143e-09 0)
(1.16746e-05 -7.058167e-09 0)
(1.190803e-05 5.081566e-09 7.683691e-28)
(1.198751e-05 -6.451735e-09 0)
(1.213669e-05 2.158496e-09 3.145897e-28)
(1.246037e-05 -1.171857e-08 -3.148192e-28)
(1.306004e-05 -8.86859e-10 -1.470876e-28)
(1.352542e-05 -8.393141e-09 2.121844e-27)
(1.365672e-05 8.053424e-09 2.335941e-27)
(1.361513e-05 -3.701797e-09 -6.886589e-27)
(1.449868e-05 -1.292671e-08 3.792552e-27)
(1.827428e-05 -4.856266e-08 -6.684058e-27)
(1.460925e-05 1.605988e-07 2.83781e-26)
(3.555557e-05 -7.214705e-07 1.392569e-25)
(2.643786e-05 -2.541376e-05 0)
(9.670605e-06 -9.860387e-06 3.105289e-24)
(1.20006e-05 -1.19493e-05 -4.896377e-24)
(9.973249e-06 -9.982737e-06 3.027915e-26)
(9.483638e-06 -9.466209e-06 -3.935931e-24)
(8.853055e-06 -8.847481e-06 3.702528e-24)
(8.862898e-06 -8.865137e-06 3.424129e-24)
(8.501707e-06 -8.486713e-06 3.629697e-24)
(7.853176e-06 -7.846648e-06 -3.387268e-24)
(8.07991e-06 -8.090165e-06 3.148161e-24)
(7.810178e-06 -7.792435e-06 -3.673279e-24)
(7.264037e-06 -7.25386e-06 2.757464e-26)
(6.964706e-06 -6.963554e-06 -2.541001e-26)
(7.171714e-06 -7.179735e-06 2.54351e-26)
(7.183843e-06 -7.178753e-06 0)
(6.789333e-06 -6.782402e-06 0)
(6.615341e-06 -6.611437e-06 -3.350578e-24)
(6.631654e-06 -6.633585e-06 5.028273e-29)
(6.505805e-06 -6.508856e-06 -3.449911e-24)
(6.500996e-06 -6.489447e-06 2.672438e-26)
(6.530849e-06 -6.542085e-06 0)
(6.483549e-06 -6.477563e-06 2.772342e-26)
(6.575265e-06 -6.585204e-06 -2.735223e-26)
(6.633574e-06 -6.63436e-06 0)
(6.411856e-06 -6.40989e-06 0)
(6.407441e-06 -6.412428e-06 -1.733697e-27)
(6.362349e-06 -6.368176e-06 0)
(6.381829e-06 -6.383873e-06 -1.611664e-27)
(6.582163e-06 -6.603604e-06 4.005426e-24)
(6.661244e-06 -6.671835e-06 -1.633116e-26)
(6.672852e-06 -6.691066e-06 4.369264e-24)
(6.752329e-06 -6.78765e-06 -1.917131e-26)
(6.808842e-06 -6.831394e-06 1.917196e-26)
(7.573053e-06 -7.73533e-06 0)
(7.317802e-06 -7.470168e-06 6.626519e-24)
(7.176584e-06 7.312742e-06 6.789667e-24)
(7.561094e-06 7.735681e-06 -6.305887e-27)
(6.749665e-06 6.76951e-06 1.93563e-26)
(6.713117e-06 6.748876e-06 -4.767748e-24)
(6.634054e-06 6.652143e-06 4.390235e-24)
(6.620834e-06 6.631096e-06 -4.346568e-24)
(6.553498e-06 6.574259e-06 -1.636738e-26)
(6.364963e-06 6.367188e-06 1.573251e-27)
(6.348055e-06 6.353516e-06 0)
(6.403011e-06 6.407808e-06 0)
(6.418302e-06 6.416046e-06 0)
(6.655632e-06 6.656271e-06 0)
(6.604286e-06 6.614218e-06 0)
(6.523891e-06 6.51741e-06 0)
(6.596079e-06 6.607249e-06 0)
(6.571103e-06 6.559552e-06 0)
(6.601589e-06 6.604076e-06 3.429646e-24)
(6.724575e-06 6.727822e-06 3.333345e-24)
(6.674813e-06 6.671298e-06 0)
(6.831993e-06 6.825655e-06 3.495895e-24)
(7.207818e-06 7.203004e-06 -3.394855e-24)
(7.189554e-06 7.197604e-06 0)
(6.983533e-06 6.98227e-06 2.686393e-26)
(7.287761e-06 7.277482e-06 3.425835e-24)
(7.833153e-06 7.815484e-06 2.653976e-26)
(8.097949e-06 8.108338e-06 -2.623245e-26)
(7.860468e-06 7.854182e-06 -3.387354e-24)
(8.49667e-06 8.482323e-06 5.98042e-27)
(8.797192e-06 8.801425e-06 -6.854192e-24)
(8.770764e-06 8.765354e-06 5.755154e-26)
(9.335374e-06 9.322578e-06 -3.909355e-24)
(9.723786e-06 9.736306e-06 0)
(1.244408e-05 1.235153e-05 0)
(9.606363e-06 9.853525e-06 1.251062e-26)
(2.583914e-05 2.479691e-05 1.266013e-23)
(2.249382e-05 2.129641e-05 -2.406788e-23)
(2.378616e-05 2.406412e-05 0)
(2.159991e-05 2.170385e-05 0)
(2.140984e-05 2.146006e-05 3.097425e-26)
(2.11928e-05 2.12171e-05 -7.683195e-24)
(2.115293e-05 2.114918e-05 1.511605e-23)
(2.094643e-05 2.102291e-05 6.987335e-24)
(2.036731e-05 2.038623e-05 -1.382364e-23)
(2.030072e-05 2.030021e-05 -6.751949e-24)
(2.047305e-05 2.04694e-05 0)
(2.054498e-05 2.049514e-05 0)
(2.127174e-05 2.12339e-05 -4.899666e-26)
(2.112516e-05 2.116982e-05 6.037726e-24)
(2.087412e-05 2.084198e-05 -4.828732e-26)
(2.109744e-05 2.112743e-05 0)
(2.106459e-05 2.100215e-05 5.984554e-24)
(2.111233e-05 2.109772e-05 -5.905427e-24)
(2.152072e-05 2.153095e-05 0)
(2.140268e-05 2.137769e-05 0)
(2.190737e-05 2.182769e-05 -6.112868e-24)
(2.30067e-05 2.29405e-05 -5.835112e-24)
(2.299459e-05 2.304297e-05 -4.365795e-26)
(2.244441e-05 2.243285e-05 8.97887e-26)
(2.343459e-05 2.328761e-05 -6.005175e-24)
(2.506916e-05 2.489636e-05 4.77757e-26)
(2.588732e-05 2.592085e-05 0)
(2.530885e-05 2.521289e-05 5.762602e-24)
(2.729973e-05 2.712184e-05 1.248861e-23)
(2.822358e-05 2.819189e-05 5.874919e-24)
(2.825104e-05 2.812505e-05 0)
(3.006044e-05 2.987099e-05 6.696001e-24)
(3.175959e-05 3.13844e-05 0)
(3.956333e-05 3.92319e-05 0)
(3.415222e-05 3.280134e-05 -8.05143e-24)
(7.988154e-05 7.470757e-05 -2.193254e-23)
(8.151305e-05 -7.657888e-05 1.973715e-23)
(3.445597e-05 -3.279023e-05 5.36537e-26)
(3.832461e-05 -3.811972e-05 5.123923e-27)
(3.250986e-05 -3.219632e-05 -5.835851e-26)
(3.064188e-05 -3.043397e-05 0)
(2.851832e-05 -2.837776e-05 2.195715e-26)
(2.842946e-05 -2.838144e-05 5.882338e-24)
(2.732395e-05 -2.71344e-05 0)
(2.528942e-05 -2.518932e-05 -5.811682e-24)
(2.583284e-05 -2.586371e-05 -8.946328e-26)
(2.499819e-05 -2.482432e-05 -2.101972e-27)
(2.336032e-05 -2.321415e-05 4.730034e-26)
(2.2384e-05 -2.237344e-05 0)
(2.293711e-05 -2.298458e-05 0)
(2.293067e-05 -2.286013e-05 0)
(2.177459e-05 -2.168819e-05 4.671463e-26)
(2.1216e-05 -2.11833e-05 5.766726e-24)
(2.123234e-05 -2.123419e-05 4.514359e-26)
(2.081032e-05 -2.080169e-05 5.802925e-24)
(2.083992e-05 -2.078183e-05 0)
(2.089223e-05 -2.092766e-05 -4.680777e-26)
(2.07451e-05 -2.071966e-05 6.35666e-24)
(2.103269e-05 -2.108e-05 -9.486684e-26)
(2.120234e-05 -2.116867e-05 9.840857e-26)
(2.052454e-05 -2.047936e-05 -4.980581e-26)
(2.048752e-05 -2.048736e-05 6.470675e-24)
(2.034595e-05 -2.034802e-05 0)
(2.042212e-05 -2.044273e-05 6.856288e-24)
(2.103842e-05 -2.112015e-05 -5.352098e-26)
(2.128118e-05 -2.127844e-05 7.462716e-24)
(2.131668e-05 -2.134112e-05 -7.525551e-24)
(2.153772e-05 -2.159034e-05 8.149344e-24)
(2.178396e-05 -2.188822e-05 8.876525e-24)
(2.384779e-05 -2.412156e-05 -3.420683e-26)
(2.291574e-05 -2.17884e-05 -3.534184e-23)
(9.536837e-05 5.063755e-06 -3.853513e-24)
(3.2547e-05 3.467255e-08 -2.112434e-27)
(4.872622e-05 5.968327e-08 -2.489024e-26)
(4.168131e-05 1.232466e-07 1.768768e-26)
(4.054244e-05 1.311474e-07 -1.673803e-29)
(3.834165e-05 1.706624e-08 0)
(3.83533e-05 3.675164e-08 5.398385e-27)
(3.79036e-05 3.303187e-09 1.407769e-27)
(3.733676e-05 7.695197e-08 -1.515089e-26)
(3.587634e-05 -1.761266e-08 8.32037e-27)
(3.738053e-05 -2.242764e-08 0)
(3.655246e-05 -1.335666e-08 -6.350896e-27)
(3.738457e-05 -5.468094e-08 1.010624e-26)
(3.814107e-05 2.660649e-09 -4.600859e-27)
(3.84686e-05 -3.351009e-08 3.288833e-27)
(3.896425e-05 -1.933289e-08 0)
(3.994264e-05 -1.021297e-07 7.248702e-28)
(4.18351e-05 -7.450868e-08 6.896171e-28)
(4.334359e-05 -7.75503e-08 -6.002838e-27)
(4.384517e-05 7.401868e-09 5.774744e-27)
(4.385272e-05 -1.045381e-07 1.299532e-26)
(4.696718e-05 -3.711365e-07 -1.294749e-26)
(5.801257e-05 -1.500922e-07 0)
(4.981897e-05 -9.083725e-07 7.058795e-26)
(0.0001085182 -3.447329e-06 -3.445604e-25)
(6.005639e-06 -6.010496e-05 2.265331e-24)
(4.099246e-09 8.579737e-06 -2.411105e-25)
(-1.443947e-07 -1.035906e-05 1.7919e-25)
(1.06051e-07 -4.525892e-06 0)
(2.688062e-08 -4.200887e-06 -6.1427e-28)
(3.654152e-08 -3.208636e-06 0)
(4.075679e-08 -2.497076e-06 -1.36705e-25)
(2.592229e-08 -1.593649e-06 1.367812e-25)
(-8.234147e-09 -1.494986e-06 -4.889307e-28)
(1.95227e-08 -1.438359e-06 6.055508e-26)
(1.235151e-08 -9.282517e-07 -6.034537e-26)
(5.074595e-09 -8.341853e-07 0)
(5.226967e-09 -7.247139e-07 0)
(9.64442e-09 -5.458099e-07 0)
(3.289609e-09 -3.937915e-07 0)
(2.040861e-09 -3.670046e-07 -2.656625e-26)
(2.541289e-09 -2.923599e-07 1.63309e-28)
(2.523427e-09 -2.530391e-07 6.432711e-27)
(4.661922e-09 -1.765532e-07 1.915306e-26)
(3.33943e-09 -7.608323e-08 -9.607037e-27)
(6.860614e-10 -5.679029e-08 9.469468e-27)
(3.428497e-09 -1.471535e-08 -2.052865e-26)
(5.141399e-10 4.583108e-08 7.871994e-27)
(-1.854764e-10 3.432481e-08 -7.828393e-28)
(-4.191998e-10 3.931565e-08 6.398441e-30)
(-4.248144e-10 3.299593e-08 7.796908e-28)
(5.112891e-11 2.789665e-08 7.845734e-27)
(5.824949e-10 4.72966e-08 3.149995e-27)
(6.729821e-10 5.252617e-08 0)
(1.601672e-09 9.119372e-08 9.53941e-27)
(1.070893e-10 1.038806e-07 0)
(5.363723e-09 1.385915e-07 0)
(3.399664e-09 2.864112e-07 -2.632413e-26)
(2.892719e-09 2.929853e-07 5.352606e-26)
(8.141748e-09 4.573725e-07 2.789831e-26)
(-2.223403e-10 5.538157e-07 -5.487092e-26)
(-2.163315e-10 5.349599e-07 5.749001e-26)
(2.812646e-09 5.77197e-07 -5.725301e-26)
(1.127676e-08 7.414776e-07 -2.343146e-28)
(1.128791e-08 9.868993e-07 4.807234e-28)
(1.578879e-08 1.334621e-06 0)
(1.664504e-08 1.548342e-06 1.370639e-25)
(4.380971e-08 2.405379e-06 6.115003e-27)
(2.424874e-08 2.887565e-06 -1.441333e-25)
(4.812021e-08 4.235127e-06 0)
(6.477934e-08 3.968212e-06 0)
(-4.749073e-08 1.069384e-05 -3.379748e-27)
(-1.446526e-07 -8.590911e-06 7.650986e-27)
(6.033664e-06 5.825595e-05 2.071233e-24)
(0.000112817 3.464556e-06 7.393819e-26)
(4.814449e-05 1.135182e-06 -7.620632e-26)
(5.655151e-05 8.023939e-08 3.469409e-26)
(4.620719e-05 2.883997e-07 -4.327305e-27)
(4.615221e-05 3.68569e-08 -1.750882e-26)
(4.384701e-05 1.782392e-07 1.07055e-26)
(4.139615e-05 1.505025e-08 -7.141218e-27)
(4.20715e-05 7.599206e-08 1.221152e-27)
(3.911916e-05 1.060006e-07 1.392003e-28)
(3.8516e-05 -1.277427e-08 8.36363e-28)
(3.871249e-05 3.789625e-08 -3.859802e-27)
(3.765202e-05 4.63536e-08 5.497898e-27)
(3.613504e-05 4.706481e-08 -3.917068e-27)
(3.653593e-05 -5.435498e-08 -4.375624e-27)
(3.813745e-05 -1.374204e-08 4.405297e-27)
(3.751363e-05 1.955227e-08 -7.787219e-27)
(3.718716e-05 1.71242e-08 7.844557e-27)
(3.702638e-05 -4.123977e-08 -5.219668e-27)
(3.916254e-05 -9.216661e-08 5.216637e-27)
(3.949851e-05 4.051208e-09 0)
(4.054047e-05 -8.840836e-08 9.104544e-31)
(4.162026e-05 -1.503108e-07 0)
(4.898505e-05 -6.497378e-10 3.991179e-27)
(3.121801e-05 -1.666473e-09 -2.852618e-26)
(9.400092e-05 -5.08148e-06 0)
(0.0001981288 9.82412e-06 0)
(9.318585e-05 4.228452e-06 3.379979e-27)
(0.0001033208 4.369843e-07 -2.191169e-26)
(8.552722e-05 9.459746e-07 0)
(8.451559e-05 2.095109e-07 -1.32552e-26)
(8.040131e-05 5.698949e-07 5.858014e-27)
(7.592541e-05 1.068923e-07 2.466927e-27)
(7.679589e-05 2.582192e-07 2.962446e-28)
(7.169582e-05 3.498153e-07 -1.652084e-28)
(7.039903e-05 -1.67552e-08 -9.92624e-28)
(7.075829e-05 1.12481e-07 -4.55456e-27)
(6.88694e-05 1.717888e-07 5.947319e-28)
(6.627203e-05 1.240861e-07 -2.157246e-27)
(6.703851e-05 -1.535516e-07 6.822126e-27)
(6.975692e-05 -5.536227e-08 1.066682e-26)
(6.867248e-05 7.211343e-08 -1.073277e-26)
(6.802793e-05 4.732925e-08 0)
(6.7988e-05 -1.645826e-07 -2.688644e-28)
(7.178821e-05 -2.86383e-07 0)
(7.253001e-05 -4.65641e-08 -7.348421e-27)
(7.459206e-05 -3.160866e-07 7.338697e-27)
(7.727208e-05 -5.594283e-07 0)
(8.839472e-05 3.055771e-08 -4.718828e-27)
(6.621963e-05 -1.985067e-06 2.800745e-25)
(0.0001642374 -1.390211e-05 -3.20292e-25)
(1.747376e-05 -0.0001060335 9.754537e-24)
(2.293674e-06 4.025323e-06 4.86814e-25)
(-3.473536e-07 -1.821654e-05 0)
(3.996147e-07 -9.649969e-06 -3.879255e-25)
(1.56135e-07 -8.280793e-06 3.891629e-25)
(1.545403e-07 -6.337036e-06 0)
(1.569097e-07 -4.951922e-06 -2.600723e-27)
(1.068536e-07 -3.283381e-06 -2.477229e-27)
(-2.814766e-09 -2.955562e-06 5.795536e-28)
(6.654326e-08 -2.794975e-06 -1.145034e-27)
(5.134216e-08 -1.878924e-06 -2.750937e-28)
(2.314729e-08 -1.661395e-06 0)
(2.364877e-08 -1.438268e-06 0)
(3.484726e-08 -1.095639e-06 0)
(1.542176e-08 -8.120999e-07 6.393134e-26)
(9.783166e-09 -7.380155e-07 -8.781585e-28)
(1.016572e-08 -5.918822e-07 -4.055378e-28)
(1.048185e-08 -5.103582e-07 -1.526993e-26)
(1.689855e-08 -3.613296e-07 -3.02633e-26)
(1.223765e-08 -1.782099e-07 6.044577e-26)
(4.165824e-09 -1.306132e-07 -3.016066e-26)
(1.160676e-08 -4.952677e-08 1.493825e-26)
(3.210844e-09 6.432153e-08 -1.495687e-26)
(7.899536e-11 5.593806e-08 1.862511e-27)
(-5.937952e-10 7.115748e-08 1.845399e-27)
(-8.029832e-10 6.732686e-08 -1.11698e-26)
(1.011193e-09 6.478929e-08 -7.396748e-30)
(2.738934e-09 1.06973e-07 -3.737984e-27)
(3.404276e-09 1.253004e-07 0)
(6.192555e-09 1.99795e-07 -7.547065e-27)
(2.758927e-09 2.354254e-07 -1.514499e-26)
(1.886713e-08 3.073167e-07 -3.06169e-26)
(1.347411e-08 5.747267e-07 1.866017e-25)
(1.38767e-08 6.137555e-07 1.074649e-27)
(2.833129e-08 9.203271e-07 -6.402955e-26)
(3.995885e-09 1.101994e-06 -1.023744e-27)
(4.393145e-09 1.096811e-06 -1.311502e-27)
(1.719038e-08 1.207285e-06 0)
(4.402888e-08 1.523292e-06 1.455762e-25)
(5.012582e-08 2.010352e-06 -1.446816e-25)
(6.396576e-08 2.667979e-06 1.547081e-25)
(8.375311e-08 3.171434e-06 -1.546026e-25)
(1.579154e-07 4.765538e-06 6.570334e-28)
(1.279426e-07 5.790484e-06 -2.029502e-27)
(1.993675e-07 8.264047e-06 0)
(3.152463e-07 8.754243e-06 0)
(-1.264801e-07 1.87172e-05 -4.314999e-25)
(1.890409e-06 -4.199772e-06 1.295344e-24)
(1.755927e-05 0.0001029065 -6.112136e-24)
(0.000166515 1.381159e-05 3.221813e-25)
(6.866328e-05 2.089265e-06 0)
(8.797747e-05 1.448927e-07 2.523421e-26)
(7.742643e-05 4.933932e-07 -1.880313e-26)
(7.461186e-05 4.469984e-07 -1.006829e-27)
(7.048245e-05 1.230219e-07 1.01153e-26)
(7.029643e-05 1.099308e-07 -1.01747e-26)
(6.950213e-05 3.958787e-08 -8.05557e-27)
(6.848784e-05 2.385385e-07 1.778061e-26)
(6.58278e-05 -2.953904e-08 3.405485e-27)
(6.832531e-05 -6.981602e-08 -1.327482e-26)
(6.695822e-05 -5.515904e-08 1.941264e-26)
(6.83351e-05 -1.668798e-07 -1.194225e-26)
(6.972605e-05 -2.112234e-08 0)
(7.045105e-05 -1.00963e-07 -4.42268e-27)
(7.138544e-05 -8.765632e-08 4.431104e-27)
(7.306439e-05 -3.241527e-07 1.1162e-28)
(7.6484e-05 -2.749775e-07 -5.732896e-27)
(7.928335e-05 -2.626864e-07 2.69211e-27)
(8.034406e-05 -2.218795e-08 9.931419e-27)
(8.058655e-05 -3.986865e-07 -1.242387e-26)
(8.701051e-05 -1.253344e-06 0)
(0.0001056049 -5.621016e-07 4.970409e-26)
(9.582593e-05 -3.562774e-06 0)
(0.0001907876 -9.816802e-06 -1.146496e-24)
(0.0001458853 -0.0001316782 -4.519244e-23)
(6.820719e-05 -6.204655e-05 -2.332366e-25)
(7.018832e-05 -6.934204e-05 0)
(6.038855e-05 -5.919726e-05 0)
(5.645842e-05 -5.577047e-05 -7.963582e-24)
(5.242885e-05 -5.190899e-05 -1.480627e-23)
(5.205119e-05 -5.184958e-05 -7.262309e-24)
(5.012759e-05 -4.949853e-05 1.137772e-25)
(4.646122e-05 -4.610564e-05 6.950322e-24)
(4.714016e-05 -4.718973e-05 0)
(4.568148e-05 -4.511319e-05 0)
(4.286215e-05 -4.237248e-05 0)
(4.103741e-05 -4.09996e-05 0)
(4.187001e-05 -4.19826e-05 1.049032e-25)
(4.177524e-05 -4.154287e-05 6.891135e-24)
(3.984764e-05 -3.957156e-05 0)
(3.882984e-05 -3.871453e-05 0)
(3.879063e-05 -3.878675e-05 0)
(3.798215e-05 -3.794659e-05 0)
(3.814121e-05 -3.796083e-05 -1.076198e-25)
(3.812756e-05 -3.82177e-05 2.204935e-25)
(3.788527e-05 -3.782004e-05 -7.539451e-24)
(3.839026e-05 -3.852014e-05 -6.974238e-24)
(3.867845e-05 -3.856976e-05 0)
(3.750004e-05 -3.73425e-05 7.49358e-24)
(3.737866e-05 -3.73742e-05 -1.215025e-25)
(3.712865e-05 -3.713291e-05 -7.979624e-24)
(3.729469e-05 -3.737368e-05 6.101498e-26)
(3.83557e-05 -3.85963e-05 8.277246e-24)
(3.879194e-05 -3.877933e-05 -1.770674e-23)
(3.883698e-05 -3.889561e-05 7.233043e-26)
(3.914527e-05 -3.93018e-05 -9.652029e-24)
(3.968566e-05 -3.999519e-05 -6.163925e-26)
(4.247289e-05 -4.290874e-05 4.061542e-26)
(4.025799e-05 -3.610741e-05 2.858498e-23)
(3.955627e-05 3.520797e-05 1.460844e-23)
(4.230981e-05 4.273087e-05 1.084377e-23)
(3.935987e-05 3.966987e-05 -1.048112e-23)
(3.890727e-05 3.905522e-05 -1.533735e-25)
(3.86114e-05 3.866893e-05 9.06472e-24)
(3.856005e-05 3.854403e-05 -8.860934e-24)
(3.8188e-05 3.841214e-05 -8.352211e-24)
(3.719313e-05 3.726497e-05 8.161613e-24)
(3.704732e-05 3.704312e-05 8.070215e-24)
(3.735186e-05 3.733551e-05 7.793248e-24)
(3.753728e-05 3.736384e-05 -7.593802e-24)
(3.88033e-05 3.868015e-05 1.163719e-25)
(3.855836e-05 3.867843e-05 -1.433325e-23)
(3.812089e-05 3.803356e-05 1.145939e-25)
(3.849606e-05 3.85671e-05 -6.916304e-24)
(3.855212e-05 3.835515e-05 -1.313464e-25)
(3.852629e-05 3.847253e-05 2.146854e-27)
(3.930008e-05 3.932209e-05 1.076273e-25)
(3.916314e-05 3.907467e-05 0)
(4.008231e-05 3.982888e-05 -7.064054e-24)
(4.191197e-05 4.169449e-05 6.767327e-24)
(4.197516e-05 4.209117e-05 1.045357e-25)
(4.11478e-05 4.110705e-05 -1.093372e-25)
(4.299491e-05 4.250292e-05 1.411109e-23)
(4.580659e-05 4.524194e-05 -1.079721e-25)
(4.723386e-05 4.729273e-05 -6.284623e-24)
(4.648946e-05 4.61484e-05 -7.006084e-24)
(5.006959e-05 4.94799e-05 -7.255987e-24)
(5.168044e-05 5.153193e-05 1.127959e-25)
(5.19279e-05 5.146642e-05 -7.610768e-24)
(5.541049e-05 5.474569e-05 8.039938e-24)
(5.922986e-05 5.785277e-05 -8.014205e-24)
(7.218928e-05 7.103351e-05 -1.494295e-25)
(6.746901e-05 6.217712e-05 9.729762e-24)
(0.000143353 0.0001284366 -2.318079e-23)
(5.861069e-05 4.817114e-05 1.745985e-23)
(6.324633e-05 6.357317e-05 -1.283637e-23)
(6.044613e-05 6.106838e-05 1.247931e-23)
(5.97005e-05 6.005417e-05 1.155943e-23)
(5.942433e-05 5.954788e-05 -1.058971e-23)
(5.940644e-05 5.936792e-05 0)
(5.883952e-05 5.934043e-05 0)
(5.740262e-05 5.759115e-05 -9.652939e-24)
(5.714747e-05 5.714315e-05 -1.474044e-25)
(5.759584e-05 5.755763e-05 -9.051402e-24)
(5.797811e-05 5.756105e-05 1.789907e-23)
(5.984753e-05 5.95542e-05 -1.375169e-25)
(5.949295e-05 5.97441e-05 1.180011e-25)
(5.884968e-05 5.866297e-05 0)
(5.937251e-05 5.950476e-05 -1.432696e-25)
(5.967095e-05 5.921066e-05 -1.654017e-23)
(5.942888e-05 5.930088e-05 0)
(6.06755e-05 6.070676e-05 8.061911e-24)
(6.059263e-05 6.0372e-05 1.28742e-25)
(6.200654e-05 6.14332e-05 8.34682e-24)
(6.453181e-05 6.401748e-05 0)
(6.479434e-05 6.499128e-05 -7.336758e-24)
(6.379333e-05 6.368457e-05 -1.222152e-25)
(6.671304e-05 6.555637e-05 -8.252206e-24)
(7.077992e-05 6.945262e-05 -1.27131e-25)
(7.288235e-05 7.293785e-05 1.341297e-25)
(7.223518e-05 7.13821e-05 1.301595e-25)
(7.770449e-05 7.63078e-05 -8.73821e-24)
(8.006006e-05 7.964262e-05 0)
(8.077538e-05 7.959927e-05 5.282921e-26)
(8.647714e-05 8.483146e-05 -9.363245e-24)
(9.361496e-05 9.01911e-05 -9.201431e-26)
(0.0001117306 0.0001086039 -1.227986e-23)
(0.0001121626 9.919156e-05 -5.493915e-24)
(0.0002175371 0.0001853248 2.719209e-23)
(0.0002208059 -0.0001901505 2.624977e-23)
(0.000113574 -9.877457e-05 -2.594896e-25)
(0.0001090941 -0.0001065618 1.622868e-25)
(9.483921e-05 -9.184434e-05 -1.534549e-26)
(8.791003e-05 -8.625253e-05 -9.449038e-26)
(8.157012e-05 -8.025279e-05 1.897301e-25)
(8.0624e-05 -8.008145e-05 -8.406611e-24)
(7.781624e-05 -7.632684e-05 -1.32307e-25)
(7.220449e-05 -7.131586e-05 2.541835e-25)
(7.274797e-05 -7.278071e-05 -2.495094e-25)
(7.059467e-05 -6.925851e-05 -5.360231e-27)
(6.651323e-05 -6.536132e-05 8.373804e-24)
(6.362325e-05 -6.352057e-05 1.225871e-25)
(6.463245e-05 -6.482057e-05 -2.464462e-25)
(6.432547e-05 -6.377544e-05 -8.140804e-24)
(6.165892e-05 -6.103134e-05 8.361429e-24)
(6.009268e-05 -5.980741e-05 8.227298e-24)
(5.99185e-05 -5.989092e-05 -1.267113e-25)
(5.860041e-05 -5.851317e-05 1.277895e-25)
(5.903558e-05 -5.86173e-05 8.147239e-24)
(5.881404e-05 -5.899298e-05 -2.362572e-27)
(5.848627e-05 -5.83513e-05 -1.812305e-27)
(5.923492e-05 -5.951054e-05 8.363997e-24)
(5.965749e-05 -5.939944e-05 -1.400297e-25)
(5.792071e-05 -5.754183e-05 -8.840272e-24)
(5.763787e-05 -5.762797e-05 1.395156e-25)
(5.727094e-05 -5.728679e-05 9.260512e-24)
(5.756139e-05 -5.776892e-05 -3.146572e-27)
(5.909758e-05 -5.963626e-05 -9.537262e-24)
(5.976085e-05 -5.973035e-05 1.061083e-23)
(5.977153e-05 -5.989936e-05 -1.628322e-25)
(6.007451e-05 -6.044862e-05 -1.145341e-23)
(6.093701e-05 -6.156256e-05 -1.225415e-23)
(6.356864e-05 -6.39578e-05 -1.297041e-23)
(5.957882e-05 -4.955983e-05 1.70225e-23)
(0.0002444081 2.882428e-05 3.232638e-24)
(0.0001192205 6.625875e-06 1.512653e-25)
(0.0001351744 7.353169e-07 -4.303208e-26)
(0.00012171 1.199771e-06 4.335751e-26)
(0.0001163254 1.114251e-06 -9.943922e-29)
(0.0001096498 3.816355e-07 0)
(0.0001090179 2.57538e-07 0)
(0.0001078256 1.23329e-07 1.391649e-27)
(0.0001063012 5.435447e-07 7.615102e-28)
(0.0001021641 -2.7556e-08 -1.559784e-26)
(0.0001056246 -1.548371e-07 1.511123e-26)
(0.0001037304 -1.454457e-07 -1.408701e-26)
(0.0001056271 -3.767204e-07 8.917892e-27)
(0.0001077822 -9.055902e-08 -1.630537e-26)
(0.0001091232 -2.354696e-07 0)
(0.0001106131 -2.347767e-07 -2.478789e-27)
(0.0001130027 -7.503214e-07 1.994934e-27)
(0.0001182387 -6.869241e-07 -6.463768e-27)
(0.0001226577 -6.456051e-07 -6.769249e-27)
(0.0001245429 -1.247304e-07 2.760583e-26)
(0.0001252759 -1.057674e-06 -4.991682e-26)
(0.0001364278 -2.937885e-06 8.252343e-26)
(0.0001627341 -1.667549e-06 -1.059949e-25)
(0.0001552747 -8.713509e-06 -2.060033e-27)
(0.0002827994 -2.107839e-05 1.357125e-24)
(3.767553e-05 -0.0001573391 -1.08015e-23)
(7.547796e-06 -1.121879e-05 -1.455364e-24)
(-1.503796e-07 -2.846886e-05 -1.408106e-25)
(9.47716e-07 -1.725048e-05 4.596484e-25)
(4.668469e-07 -1.39969e-05 -8.868156e-25)
(4.068781e-07 -1.067356e-05 4.26814e-25)
(3.945271e-07 -8.366989e-06 3.801869e-25)
(2.773104e-07 -5.744571e-06 -3.807667e-25)
(2.561525e-08 -4.988027e-06 0)
(1.589371e-07 -4.63181e-06 1.350519e-27)
(1.316106e-07 -3.229218e-06 0)
(6.301202e-08 -2.818782e-06 0)
(6.329944e-08 -2.432213e-06 1.56738e-25)
(8.599606e-08 -1.87095e-06 -1.56813e-25)
(4.212551e-08 -1.4213e-06 0)
(2.76329e-08 -1.263803e-06 -7.448195e-26)
(2.633122e-08 -1.018906e-06 9.439337e-28)
(2.788847e-08 -8.765776e-07 7.262888e-26)
(4.213203e-08 -6.286184e-07 -3.588674e-26)
(3.095517e-08 -3.451081e-07 0)
(1.281455e-08 -2.507063e-07 3.540073e-26)
(2.829379e-08 -1.176732e-07 -3.546416e-26)
(1.013755e-08 6.528744e-08 -1.758225e-26)
(1.964602e-09 7.409677e-08 1.31992e-26)
(2.24473e-10 1.088565e-07 -4.529566e-27)
(-4.291939e-10 1.167206e-07 -1.540031e-26)
(4.041745e-09 1.247305e-07 2.198189e-26)
(8.164899e-09 2.026578e-07 0)
(9.913336e-09 2.462837e-07 -5.330059e-26)
(1.646858e-08 3.691503e-07 3.550036e-26)
(1.005782e-08 4.460605e-07 1.788931e-26)
(4.616297e-08 5.71121e-07 1.088694e-25)
(3.508702e-08 9.832607e-07 -2.194353e-25)
(3.858911e-08 1.089118e-06 -7.563588e-26)
(6.839619e-08 1.576734e-06 7.798186e-26)
(1.510415e-08 1.869544e-06 -1.209599e-27)
(1.721738e-08 1.913184e-06 -1.240379e-27)
(4.936656e-08 2.141977e-06 -1.653173e-25)
(1.118235e-07 2.659831e-06 -1.114851e-27)
(1.322265e-07 3.484139e-06 1.701443e-25)
(1.671069e-07 4.549542e-06 0)
(2.301708e-07 5.521514e-06 0)
(3.899056e-07 8.055414e-06 0)
(3.555869e-07 9.885346e-06 3.184263e-27)
(5.463045e-07 1.3852e-05 0)
(7.988244e-07 1.605533e-05 -3.6684e-27)
(2.548419e-07 2.904074e-05 5.285951e-25)
(6.702313e-06 1.076216e-05 -1.475559e-24)
(3.787911e-05 0.000152968 1.107155e-23)
(0.0002932091 2.102225e-05 0)
(0.0001518314 1.015994e-05 -3.983697e-27)
(0.0001595571 1.475771e-06 2.417126e-26)
(0.0001337111 2.212358e-06 0)
(0.0001309401 6.286467e-07 -1.339303e-26)
(0.0001247197 1.331801e-06 8.806805e-27)
(0.0001177729 3.361437e-07 5.772894e-27)
(0.000118544 6.266277e-07 -7.408067e-27)
(0.0001111199 8.274831e-07 0)
(0.0001087762 -2.918016e-09 0)
(0.0001093744 2.526965e-07 -1.070003e-26)
(0.0001065316 4.194847e-07 1.066644e-26)
(0.0001028084 2.508724e-07 0)
(0.0001040517 -3.224286e-07 -2.0442e-26)
(0.0001079211 -1.347018e-07 0)
(0.000106328 1.815926e-07 -2.168895e-26)
(0.0001052425 9.188867e-08 2.167228e-26)
(0.000105614 -4.276264e-07 1.593168e-27)
(0.0001113609 -6.626428e-07 -1.47888e-26)
(0.000112727 -1.89468e-07 3.222757e-26)
(0.0001162447 -8.141748e-07 -1.742705e-26)
(0.0001213849 -1.330084e-06 0)
(0.0001357718 -3.368043e-07 1.824321e-26)
(0.0001154169 -6.391733e-06 -3.964194e-25)
(0.0002412566 -2.906227e-05 5.978754e-24)
(0.0003982351 3.834243e-05 -1.20122e-24)
(0.0002270881 1.997383e-05 9.396969e-26)
(0.0002274475 3.874745e-06 -1.029509e-25)
(0.0001928037 4.363918e-06 -8.841015e-26)
(0.0001872478 1.418119e-06 4.68409e-26)
(0.0001785569 2.69633e-06 0)
(0.0001685385 7.99198e-07 0)
(0.0001688058 1.252196e-06 -3.642771e-27)
(0.0001588755 1.696245e-06 4.511873e-27)
(0.0001549639 6.962132e-08 -1.79679e-26)
(0.000155976 4.800499e-07 1.254556e-26)
(0.0001520259 7.968118e-07 0)
(0.0001471692 4.592668e-07 -2.510926e-26)
(0.0001490375 -6.137674e-07 5.270291e-26)
(0.0001540634 -2.221265e-07 -2.894946e-26)
(0.0001519009 3.916756e-07 0)
(0.0001501846 1.350714e-07 0)
(0.0001514175 -9.456774e-07 -1.494697e-27)
(0.0001595008 -1.358635e-06 -1.679731e-27)
(0.0001617953 -4.889156e-07 2.081091e-26)
(0.0001674378 -1.828874e-06 -2.146675e-26)
(0.0001760837 -2.611242e-06 -7.687409e-26)
(0.0001937366 -1.825334e-06 3.853551e-26)
(0.0001813614 -1.475078e-05 7.236157e-25)
(0.0003245393 -5.191873e-05 -1.506667e-24)
(6.890705e-05 -0.0002135788 -1.171081e-23)
(1.791282e-05 -3.986493e-05 0)
(1.406683e-06 -4.338727e-05 4.89432e-25)
(1.974878e-06 -2.845984e-05 1.080962e-24)
(1.142699e-06 -2.218275e-05 -1.084833e-24)
(9.086012e-07 -1.67668e-05 4.560802e-25)
(8.326381e-07 -1.316607e-05 -4.792621e-25)
(6.156607e-07 -9.332421e-06 4.250246e-25)
(1.12664e-07 -7.854999e-06 -4.127243e-25)
(3.31836e-07 -7.156389e-06 0)
(2.821869e-07 -5.150137e-06 0)
(1.444199e-07 -4.452275e-06 0)
(1.403109e-07 -3.830807e-06 -5.789183e-27)
(1.803656e-07 -2.969942e-06 0)
(9.482753e-08 -2.307753e-06 -5.577706e-27)
(6.487025e-08 -2.014024e-06 -1.746121e-25)
(5.766103e-08 -1.629859e-06 5.167813e-25)
(6.167563e-08 -1.401548e-06 0)
(8.842837e-08 -1.015967e-06 -4.176433e-26)
(6.619462e-08 -6.086146e-07 1.260175e-25)
(3.040486e-08 -4.409629e-07 0)
(5.912896e-08 -2.381204e-07 -2.077154e-26)
(2.510829e-08 3.686185e-08 0)
(8.119873e-09 8.464843e-08 1.546105e-26)
(3.951032e-09 1.535801e-07 -1.014633e-26)
(2.451547e-09 1.879206e-07 5.15529e-27)
(1.174268e-08 2.189325e-07 -3.106455e-26)
(2.025405e-08 3.528079e-07 4.133671e-26)
(2.388305e-08 4.400276e-07 1.042839e-25)
(3.688876e-08 6.29662e-07 -1.67252e-25)
(2.630462e-08 7.755103e-07 -8.857455e-28)
(9.587171e-08 9.750602e-07 8.429822e-26)
(7.660144e-08 1.567341e-06 -1.72814e-25)
(8.874076e-08 1.790268e-06 1.744275e-25)
(1.42161e-07 2.514163e-06 1.775575e-25)
(3.955863e-08 2.9556e-06 -1.774176e-25)
(4.963421e-08 3.103538e-06 2.904754e-27)
(1.158037e-07 3.524938e-06 0)
(2.421652e-07 4.314366e-06 3.931691e-25)