/*--------------------------------*- C++ -*----------------------------------*\
| =========                 |                                                 |
| \\      /  F ield         | OpenFOAM: The Open Source CFD Toolbox           |
|  \\    /   O peration     | Version:  2406                                  |
|   \\  /    A nd           | Website:  www.openfoam.com                      |
|    \\/     M anipulation  |                                                 |
\*---------------------------------------------------------------------------*/
FoamFile
{
    version     2.0;
    format      ascii;
    arch        "LSB;label=32;scalar=64";
    class       volScalarField;
    location    "2.28";
    object      p;
}
// * * * * * * * * * * * * * * * * * * * * * * * * * * * * * * * * * * * * * //

dimensions      [0 2 -2 0 0 0 0];

internalField   nonuniform List<scalar> 
217010
(
-188.6996
-125.3409
-130.3269
-130.9295
-130.2946
-125.9152
-124.9226
-124.5481
-124.1362
-124.0438
-124.095
-124.3988
-124.9387
-125.5303
-125.8639
-125.4836
-124.4039
-123.0811
-122.7735
-124.208
-126.1466
-127.5168
-128.3258
-129.2242
-130.2465
-131.4265
-128.949
-122.1042
-111.3355
-101.2319
-94.84117
-92.6367
-95.70952
-101.7473
-110.8893
-121.4384
-124.6678
-118.2644
-112.5631
-112.0248
-110.3789
-111.231
-121.5479
-135.8151
-145.3734
-150.0474
-151.4099
-151.3945
-152.8575
-162.382
-150.4648
-156.2742
-155.463
-155.3513
-155.4607
-155.0455
-153.8142
-151.8169
-149.2835
-146.3181
-142.7537
-138.503
-133.9194
-129.2122
-124.4629
-119.9778
-115.6074
-111.3483
-107.1511
-103.1131
-99.33912
-95.73641
-92.38588
-89.248
-86.27595
-83.43729
-80.72877
-78.1489
-75.62982
-73.32693
-71.17854
-69.14427
-67.30327
-65.55843
-63.92866
-62.52535
-61.27684
-60.22525
-59.2123
-58.41176
-57.79945
-57.13038
-56.55241
-56.047
-55.48266
-54.86414
-54.17836
-53.48789
-52.72566
-51.87567
-51.04693
-50.42925
-50.03237
-49.0217
-46.63571
-43.54543
-43.83941
-50.73214
-52.01635
-43.93416
-36.14077
-32.87521
-32.37817
-31.59601
-28.816
-24.48902
-19.30805
-13.15153
-13.23144
-27.89749
-39.62421
-36.09352
-24.80828
-15.00584
-9.218149
-5.412104
-2.363186
0.9297849
3.788042
5.633325
6.575683
6.523912
4.806722
3.095007
2.555065
3.348434
4.074858
4.523271
5.743753
5.80342
4.883617
5.022971
5.699592
4.213488
0.4786034
-6.001814
-11.89823
-14.27163
-8.850118
-13.08816
5.509505
4.268588
4.692028
2.281397
-0.9247966
-6.167367
-15.05772
-27.56383
-43.64472
-63.63317
-86.52612
-111.3863
-135.8079
-159.0875
-179.2945
-193.7349
-203.7773
-208.2659
-204.1247
-189.768
-165.0773
-134.9455
-119.0564
-123.3832
-122.524
-103.86
-104.4881
-125.0533
-129.1095
-125.0099
-125.759
-119.2033
-99.7024
-79.85249
-77.29113
-81.91873
-96.26058
-109.2867
-111.9841
-109.5025
-107.0727
-106.0688
-106.2537
-106.2569
-104.8646
-105.1109
-107.6365
-110.5821
-102.5117
-167.9225
-82.72304
-72.96469
-60.20815
-52.82828
-46.44916
-41.1963
-36.6661
-32.55747
-29.00235
-25.77479
-22.85138
-20.18335
-17.67259
-15.31084
-13.10716
-11.07004
-9.167278
-7.344882
-5.609825
-3.958936
-2.382563
-0.8894085
0.5196909
1.898159
3.240887
4.548198
5.794085
6.973034
8.106098
9.217062
10.31194
11.38497
12.40266
13.38575
14.35864
15.31041
16.25299
17.18311
18.10511
18.96997
19.87621
20.72578
21.56875
22.39196
23.20877
24.00801
24.79313
25.57694
26.37114
27.15797
27.926
28.67846
29.42641
30.19082
30.96296
31.72786
32.4905
33.25835
34.02145
34.78339
35.52692
36.21402
36.82636
37.42085
38.0931
38.91653
39.83944
40.70887
41.27944
41.20831
40.03984
52.13496
49.75939
48.71662
47.37307
46.03101
44.80886
43.6303
42.49664
41.45067
40.44521
39.38708
38.30692
37.25105
36.24276
35.25697
34.26958
33.2681
32.26511
31.28793
30.31896
29.33367
28.34609
27.36893
26.37642
25.38747
24.38157
23.33668
22.30716
21.2985
20.27968
19.23283
18.14555
17.08576
15.98958
14.86191
13.72811
12.58509
11.4014
10.19871
8.991621
7.755867
6.452644
5.090011
3.726643
2.366784
0.9505639
-0.5340219
-2.065673
-3.669131
-5.3393
-7.059715
-8.841369
-10.6555
-12.59409
-14.66551
-16.82321
-19.1142
-21.51763
-24.11154
-26.92548
-29.92387
-33.14761
-36.74895
-40.76755
-45.32469
-50.40122
-56.29807
-63.55211
-72.07825
-86.34119
-99.40376
51.83759
49.91298
48.85442
47.5408
46.19057
44.95229
43.76243
42.61762
41.56052
40.54933
39.48912
38.40481
37.34196
36.32669
35.33588
34.34497
33.34031
32.33327
31.35202
30.37971
29.39166
28.40111
27.4211
26.42587
25.43477
24.42684
23.37956
22.34738
21.33595
20.31491
19.26626
18.17677
17.11567
16.0167
14.88696
13.75135
12.60658
11.42094
10.21653
9.007607
7.770261
6.464876
5.100089
3.734914
2.373428
0.9548656
-0.5316728
-2.065081
-3.671063
-5.344216
-7.067723
-8.852568
-10.6689
-12.61281
-14.68916
-16.85144
-19.14885
-21.55761
-24.16061
-26.98442
-29.99171
-33.22701
-36.84391
-40.87831
-45.46999
-50.57551
-56.51789
-63.82765
-72.52166
-86.76343
-101.4507
-84.73037
-73.32523
-60.60916
-53.07196
-46.64801
-41.35291
-36.79792
-32.65559
-29.0866
-25.8476
-22.912
-20.23565
-17.7174
-15.34828
-13.13764
-11.09461
-9.188021
-7.36168
-5.622732
-3.968544
-2.389294
-0.8929334
0.5180054
1.898153
3.242653
4.551915
5.799773
6.980198
8.114718
9.227237
10.32368
11.39832
12.41751
13.40175
14.37623
15.32942
16.27371
17.20529
18.12888
18.99665
19.90362
20.75429
21.5988
22.42369
23.24196
24.04278
24.82974
25.61596
26.41221
27.20059
27.9701
28.72447
29.47545
30.24291
31.01757
31.78483
32.55044
33.32079
34.08624
34.84937
35.59129
36.27401
36.88371
37.48361
38.17452
39.01963
39.94888
40.79189
41.30592
41.1207
41.43416
4.689811
4.312293
4.759796
2.553566
-0.521618
-5.539868
-14.14644
-26.38877
-42.2408
-62.03654
-84.82737
-109.7131
-134.2439
-157.7209
-178.2038
-192.9339
-203.3098
-208.2158
-204.4681
-190.6333
-166.3017
-135.8158
-119.236
-123.3613
-122.8746
-104.1028
-104.4958
-124.9764
-129.1375
-125.1355
-126.1039
-119.5507
-99.92707
-79.93473
-77.36914
-82.05074
-96.42265
-109.4419
-112.0208
-109.4838
-107.0479
-106.0643
-106.2523
-106.2444
-104.8438
-105.1644
-107.7388
-110.5565
-104.129
-156.0424
-150.6981
-155.9184
-155.5177
-155.4052
-155.5459
-155.1934
-154.0424
-152.0931
-149.5946
-146.6717
-143.1545
-138.9209
-134.3295
-129.6112
-124.829
-120.3139
-115.9207
-111.6426
-107.4233
-103.3568
-99.55848
-95.93229
-92.55967
-89.40315
-86.41626
-83.56392
-80.8427
-78.25223
-75.7201
-73.40604
-71.24811
-69.20362
-67.35612
-65.60314
-63.96387
-62.55459
-61.29979
-60.24527
-59.22562
-58.42332
-57.80991
-57.13689
-56.55998
-56.05465
-55.48903
-54.87044
-54.18415
-53.49583
-52.73405
-51.88245
-51.05138
-50.43254
-50.03102
-49.01592
-46.61716
-43.52615
-43.86441
-50.80026
-52.00916
-43.86441
-36.05494
-32.82609
-32.35598
-31.56344
-28.74054
-24.39518
-19.21415
-13.10991
-13.47638
-28.35558
-39.85126
-35.86235
-24.42939
-14.70157
-9.010646
-5.249202
-2.206004
1.078324
3.902602
5.708574
6.600807
6.463543
4.68534
3.028495
2.569325
3.4099
4.131029
4.591471
5.776187
5.746245
4.825147
5.038346
5.655209
3.9336
-0.06464247
-6.762766
-12.53353
-14.20298
-8.861257
-10.84157
-175.2443
-127.0888
-130.5527
-131.0162
-130.4558
-126.015
-124.9338
-124.559
-124.1435
-124.0458
-124.0918
-124.3933
-124.9337
-125.5278
-125.8674
-125.4887
-124.4058
-123.0804
-122.7799
-124.2227
-126.1682
-127.5314
-128.3354
-129.2321
-130.2652
-131.4352
-128.8659
-121.8455
-111.0834
-100.9833
-94.67924
-92.63493
-95.91761
-102.1366
-111.391
-121.7537
-124.5455
-117.9862
-112.4398
-111.9943
-110.3655
-111.7569
-122.7757
-136.9237
-146.0529
-150.3166
-151.4708
-151.4547
-153.5669
-161.8384
-161.8155
-127.9115
-130.7924
-131.083
-130.7893
-126.1769
-124.9381
-124.5642
-124.1534
-124.0488
-124.0859
-124.3861
-124.9298
-125.5299
-125.8771
-125.5006
-124.4109
-123.0804
-122.7935
-124.2436
-126.1858
-127.5476
-128.3484
-129.2455
-130.2954
-131.4909
-128.8654
-121.7907
-110.993
-100.8338
-94.58677
-92.61104
-96.01671
-102.4039
-111.7902
-122.1171
-124.6551
-117.8712
-112.4021
-112.0116
-110.2526
-112.1683
-123.8259
-137.9716
-146.6772
-150.6222
-151.6279
-151.5804
-153.9102
-161.1293
-150.7867
-155.7017
-155.5416
-155.5158
-155.634
-155.2362
-154.048
-152.12
-149.6308
-146.718
-143.2345
-139.047
-134.4733
-129.766
-124.9809
-120.4474
-116.0427
-111.7599
-107.5376
-103.4636
-99.65609
-96.0184
-92.63889
-89.47606
-86.48245
-83.62284
-80.89677
-78.30235
-75.76623
-73.44897
-71.28643
-69.23723
-67.38762
-65.6271
-63.98654
-62.57393
-61.31518
-60.26105
-59.23292
-58.43362
-57.82137
-57.14114
-56.56862
-56.06424
-55.49698
-54.87939
-54.19399
-53.51525
-52.76
-51.91385
-51.088
-50.45717
-50.00793
-48.95933
-46.59687
-43.52213
-43.92208
-50.90399
-52.11694
-43.82459
-36.02455
-32.84389
-32.36891
-31.55395
-28.71022
-24.33236
-19.11473
-13.03017
-13.68506
-29.10036
-40.39126
-35.94368
-24.22114
-14.4769
-8.876847
-5.169809
-2.152314
1.142619
3.963527
5.7599
6.637365
6.452147
4.588421
2.938442
2.523707
3.411638
4.134811
4.619829
5.790211
5.687603
4.80537
5.082604
5.621449
3.722898
-0.4661606
-7.158483
-12.57735
-14.02701
-8.595143
-9.568992
4.425141
4.279791
4.797956
2.701748
-0.3034529
-5.173465
-13.64705
-25.76181
-41.50091
-61.26598
-84.0522
-109.0602
-133.7063
-157.4083
-178.1559
-193.0123
-203.6306
-208.6867
-205.1423
-192.0392
-168.739
-137.9775
-119.8232
-123.3368
-123.4286
-104.6594
-104.6637
-125.121
-129.4253
-125.8255
-127.1092
-120.1694
-100.3561
-80.17964
-77.57092
-82.34071
-96.68728
-109.6598
-112.0868
-109.4783
-107.0293
-106.0696
-106.2597
-106.2445
-104.8287
-105.1832
-107.7401
-110.5267
-104.7078
-143.2043
-84.66964
-73.56835
-60.79515
-53.19716
-46.7439
-41.4259
-36.85354
-32.7145
-29.12098
-25.87945
-22.93771
-20.25865
-17.73837
-15.36554
-13.15188
-11.10539
-9.199013
-7.37084
-5.630166
-3.974451
-2.394451
-0.8954941
0.5151651
1.896266
3.241878
4.55258
5.802086
6.98264
8.117206
9.230037
10.32693
11.40325
12.42326
13.40637
14.38178
15.3352
16.28128
17.2137
18.13795
18.99962
19.9106
20.76256
21.60804
22.43277
23.25168
24.05278
24.83982
25.62586
26.42366
27.21339
27.98298
28.73748
29.48792
30.25641
31.03286
31.80095
32.56634
33.33804
34.10417
34.86862
35.61191
36.29529
36.90596
37.51222
38.20719
39.04666
39.97707
40.83086
41.32188
41.11269
41.88927
51.6107
49.97202
48.8782
47.57983
46.23297
44.99098
43.79284
42.64048
41.58338
40.57652
39.51383
38.42777
37.36135
36.34562
35.35448
34.3641
33.35775
32.34822
31.3673
30.39515
29.40549
28.41434
27.43486
26.4375
25.44821
24.43992
23.38891
22.35665
21.34567
20.3246
19.27333
18.18441
17.1237
16.02723
14.89483
13.75872
12.61379
11.42595
10.22123
9.013002
7.776313
6.468834
5.10166
3.736439
2.375928
0.9556911
-0.5316069
-2.065411
-3.673847
-5.348708
-7.073832
-8.859944
-10.6749
-12.62255
-14.70121
-16.86397
-19.16553
-21.57412
-24.18293
-27.01089
-30.02059
-33.26019
-36.88412
-40.94423
-45.53104
-50.65703
-56.6232
-63.97322
-72.72808
-87.03527
-101.0933
51.27911
50.02414
48.9586
47.72616
46.40122
45.14889
43.93834
42.77808
41.71204
40.69702
39.62978
38.54036
37.46786
36.44494
35.44767
34.45233
33.44221
32.42824
31.44394
30.46708
29.47347
28.47948
27.49706
26.49577
25.50516
24.49384
23.43809
22.4054
21.3914
20.36792
19.31355
18.23096
17.15529
16.06086
14.9242
13.78709
12.6409
11.4489
10.24302
9.033706
7.79612
6.484105
5.11331
3.747443
2.387075
0.9627602
-0.5263335
-2.061304
-3.674202
-5.351669
-7.079629
-8.869053
-10.68265
-12.63878
-14.72267
-16.88755
-19.19824
-21.60817
-24.22919
-27.06716
-30.08358
-33.33313
-36.97975
-41.04946
-45.65749
-50.81775
-56.82746
-64.22222
-73.11362
-87.28189
-101.2606
-84.89955
-73.78563
-61.14546
-53.41307
-46.93147
-41.5694
-36.9676
-32.80923
-29.20352
-25.94833
-22.99318
-20.30774
-17.78093
-15.39983
-13.17952
-11.12526
-9.217588
-7.384878
-5.640318
-3.981224
-2.399466
-0.8954943
0.5145123
1.897507
3.245267
4.558539
5.811567
6.993184
8.128489
9.242022
10.34021
11.41988
12.44258
13.42449
14.40219
15.35646
16.30582
17.23907
18.16159
19.04083
19.94221
20.79539
21.64316
22.46948
23.28981
24.09337
24.88238
25.66995
26.46968
27.26197
28.03347
28.79043
29.54299
30.31351
31.09335
31.86368
32.63034
33.40318
34.16943
34.93119
35.66946
36.34665
36.95539
37.5767
38.29916
39.16362
40.09049
40.91754
41.37648
41.28111
42.81869
3.593192
4.211496
4.819705
2.907613
0.02392513
-4.636269
-12.85845
-24.70837
-40.21916
-59.82933
-82.50033
-107.5364
-132.2273
-156.1648
-177.1523
-192.1626
-203.08
-208.5288
-205.7109
-193.5028
-171.8266
-141.9115
-121.6463
-123.6966
-124.4511
-105.6706
-104.772
-124.7793
-129.7991
-127.4315
-128.7734
-121.1193
-101.1511
-80.68828
-77.97645
-82.89512
-97.17079
-110.096
-112.2362
-109.5023
-107.0188
-106.0889
-106.2766
-106.2239
-104.7971
-105.2226
-107.839
-110.4059
-106.2637
-134.0701
-150.6792
-155.0295
-155.4977
-155.6897
-155.7913
-155.4604
-154.4045
-152.5212
-150.057
-147.1878
-143.7486
-139.5267
-134.9142
-130.1987
-125.3688
-120.8083
-116.3772
-112.0728
-107.8251
-103.7185
-99.88765
-96.22265
-92.82051
-89.63907
-86.63024
-83.75537
-81.01609
-78.4125
-75.85968
-73.53496
-71.36221
-69.30143
-67.44844
-65.67499
-64.02656
-62.60802
-61.34148
-60.28843
-59.24417
-58.45058
-57.83983
-57.14614
-56.58185
-56.07852
-55.50788
-54.89116
-54.20475
-53.5392
-52.79069
-51.95205
-51.13729
-50.49144
-49.96368
-48.88195
-46.64377
-43.74881
-44.22672
-50.92145
-51.98488
-43.77133
-36.08152
-32.92479
-32.38946
-31.4495
-28.55187
-24.18135
-18.93085
-12.87353
-13.99338
-30.08425
-41.04877
-35.8796
-23.90175
-14.14746
-8.642667
-4.983346
-2.004245
1.260716
4.075942
5.870145
6.684068
6.412071
4.46112
2.834988
2.52309
3.441794
4.16859
4.695442
5.823723
5.646109
4.820083
5.111597
5.522806
3.3659
-1.139002
-8.013675
-13.4366
-14.01053
-8.514524
-8.962227
-153.0163
-129.6854
-130.6972
-130.6215
-131.1264
-126.4599
-124.9362
-124.5774
-124.1679
-124.0526
-124.0764
-124.3758
-124.9254
-125.5349
-125.8955
-125.524
-124.4266
-123.0862
-122.82
-124.2795
-126.2162
-127.5729
-128.3672
-129.2659
-130.3462
-131.584
-128.8876
-121.6148
-110.884
-100.6536
-94.50219
-92.62191
-96.37352
-102.9923
-112.3659
-122.4766
-124.5548
-117.6681
-112.436
-112.1155
-110.2782
-113.042
-125.4453
-139.3719
-147.4482
-150.9603
-151.8423
-151.822
-154.504
-159.756
-146.7461
-131.4157
-130.2638
-129.8653
-131.4216
-126.8553
-124.9187
-124.594
-124.1871
-124.0568
-124.0613
-124.3604
-124.9192
-125.5422
-125.9262
-125.567
-124.4653
-123.1091
-122.8684
-124.3358
-126.2544
-127.6066
-128.3933
-129.3053
-130.4507
-131.7696
-129.033
-121.6254
-110.8656
-100.5244
-94.49471
-92.70469
-96.84061
-103.8573
-113.1008
-122.655
-124.0989
-117.2668
-112.5759
-112.343
-110.5439
-114.7346
-128.039
-141.1943
-148.4967
-151.446
-152.1983
-152.1579
-154.8423
-157.4278
-150.2804
-154.2484
-155.3207
-155.8306
-155.9299
-155.52
-154.4009
-152.5842
-150.1518
-147.2957
-143.9867
-139.8883
-135.2862
-130.5954
-125.7362
-121.1365
-116.6742
-112.3581
-108.0965
-103.964
-100.1119
-96.41824
-92.99869
-89.80321
-86.78024
-83.88879
-81.1374
-78.52591
-75.95557
-73.62754
-71.4446
-69.37074
-67.51917
-65.72812
-64.07177
-62.648
-61.37167
-60.32471
-59.25527
-58.47434
-57.86674
-57.15112
-56.60214
-56.09999
-55.52455
-54.90983
-54.22025
-53.57352
-52.82941
-51.99611
-51.18874
-50.52323
-49.915
-48.81604
-46.76274
-44.22705
-44.73841
-50.60046
-51.34263
-43.61783
-36.27698
-33.21276
-32.44586
-31.30906
-28.38267
-24.05082
-18.77049
-12.80029
-14.63317
-31.32247
-41.90846
-35.96109
-23.57626
-13.78474
-8.40888
-4.832561
-1.863575
1.421958
4.233173
6.024434
6.743943
6.35059
4.276012
2.669315
2.407434
3.406967
4.163839
4.752668
5.881203
5.636882
4.88622
5.129857
5.355022
2.922441
-1.973122
-8.991893
-13.88265
-13.86352
-8.310989
-8.308297
2.938217
4.039625
4.80037
3.099291
0.3309253
-4.112443
-12.04916
-23.62928
-38.92725
-58.42628
-81.02702
-106.2514
-131.0158
-155.296
-176.7215
-191.9219
-203.4459
-209.5713
-206.8831
-195.5076
-175.5918
-147.4972
-125.8204
-124.6637
-125.7436
-106.8052
-104.0987
-123.2523
-129.79
-129.8711
-131.0556
-122.4997
-102.4926
-81.60046
-78.77488
-83.88367
-98.04846
-110.8741
-112.4977
-109.5602
-107.0196
-106.1202
-106.302
-106.2227
-104.7516
-105.2646
-107.9672
-110.2531
-107.8464
-127.7453
-85.0763
-73.87922
-61.44698
-53.60585
-47.10606
-41.70242
-37.07704
-32.90594
-29.27026
-26.01138
-23.04372
-20.35426
-17.82375
-15.43508
-13.20765
-11.14343
-9.238256
-7.402212
-5.654264
-3.991571
-2.408464
-0.8974281
0.5094887
1.894116
3.243225
4.558982
5.816912
6.998296
8.132565
9.246856
10.34668
11.43035
12.45525
13.43354
14.41438
15.36871
16.32208
17.25474
18.17349
19.05014
19.95945
20.81382
21.66325
22.48949
23.31116
24.11629
24.90547
25.69247
26.49538
27.29123
28.0631
28.82068
29.57292
30.34573
31.1302
31.90205
32.66899
33.44535
34.2128
34.97502
35.71358
36.39055
37.00204
37.64473
38.38939
39.24403
40.17285
40.99299
41.42025
41.49414
43.60046
50.87204
50.0321
49.01541
47.82766
46.51103
45.25594
44.02766
42.84908
41.77773
40.76836
39.69532
38.60169
37.51968
36.49414
35.49506
34.49968
33.48564
32.46598
31.4823
30.50503
29.50774
28.51195
27.53015
26.52328
25.53648
24.52389
23.45996
22.42744
21.41268
20.38949
19.33228
18.23991
17.17252
16.08125
14.93889
13.80152
12.65514
11.45874
10.25361
9.045705
7.808789
6.490683
5.115216
3.751277
2.393378
0.9636579
-0.5262685
-2.060833
-3.67969
-5.359887
-7.090487
-8.88253
-10.69008
-12.65832
-14.74789
-16.91292
-19.23333
-21.63897
-24.27524
-27.12258
-30.14096
-33.39583
-37.06202
-41.15841
-45.77772
-50.96731
-57.01683
-64.45372
-73.44473
-87.40175
-101.1897
50.34373
49.97307
49.05697
47.94706
46.66558
45.41894
44.17626
42.98896
41.91724
40.90864
39.82693
38.73393
37.64257
36.60989
35.60405
34.60755
33.58831
32.55898
31.57276
30.59117
29.58808
28.58951
27.60728
26.59171
25.60868
24.5944
23.51895
22.48866
21.47052
20.4446
19.38096
18.30403
17.21909
16.12818
14.97917
13.84181
12.69163
11.48422
10.27772
9.072315
7.840449
6.512797
5.125317
3.762503
2.412065
0.9735119
-0.5188949
-2.05064
-3.678067
-5.363715
-7.101851
-8.899227
-10.69109
-12.67504
-14.77138
-16.94018
-19.27645
-21.67014
-24.33016
-27.19201
-30.21584
-33.47048
-37.16196
-41.2909
-45.92215
-51.14321
-57.23809
-64.70476
-73.77296
-87.3979
-101.0889
-85.29437
-73.87389
-61.74283
-53.8034
-47.3159
-41.8641
-37.20915
-33.01945
-29.35259
-26.09419
-23.10538
-20.4096
-17.8778
-15.47579
-13.23561
-11.15929
-9.26462
-7.42335
-5.668801
-3.998556
-2.413624
-0.8934193
0.5075531
1.895177
3.245562
4.568294
5.834258
7.012111
8.146578
9.265164
10.36583
11.45185
12.48125
13.45457
14.44071
15.39396
16.35336
17.28623
18.20712
19.10369
19.99871
20.85361
21.70706
22.53504
23.35934
24.16606
24.95563
25.74454
26.55326
27.35333
28.12426
28.88392
29.63617
30.41125
31.20093
31.97419
32.73999
33.51507
34.27871
35.03699
35.77152
36.44692
37.06267
37.73936
38.52356
39.38106
40.29163
41.07119
41.51429
41.89533
44.39926
2.115095
3.750061
4.713714
3.285962
0.6492508
-3.512679
-11.1626
-22.39573
-37.44565
-56.78625
-79.23684
-104.7735
-129.6369
-154.2629
-176.0786
-191.3321
-203.4417
-209.7724
-208.0136
-197.8
-179.8374
-154.2851
-132.5257
-126.9794
-126.4679
-107.2397
-102.0089
-119.547
-129.033
-132.8334
-133.9168
-124.3064
-104.3226
-83.01096
-80.28002
-85.63205
-99.58478
-112.2018
-112.9078
-109.6854
-107.0638
-106.1632
-106.3246
-106.2136
-104.6837
-105.3552
-108.2551
-110.0723
-108.7807
-121.7275
-149.5454
-153.3027
-155.0245
-155.9426
-156.149
-155.8694
-154.9689
-153.1596
-150.7277
-147.9033
-144.6251
-140.484
-135.8021
-131.1418
-126.222
-121.5728
-117.0768
-112.7511
-108.4612
-104.2831
-100.408
-96.67166
-93.22391
-90.00854
-86.97027
-84.05799
-81.29192
-78.67261
-76.07308
-73.74303
-71.5473
-69.4533
-67.60897
-65.79554
-64.13176
-62.70093
-61.40866
-60.37386
-59.26393
-58.50931
-57.90583
-57.15444
-56.6319
-56.1281
-55.5465
-54.93539
-54.2372
-53.61751
-52.8761
-52.04907
-51.2473
-50.56242
-49.87815
-48.77354
-46.89867
-44.74903
-45.17293
-49.76578
-50.09508
-43.35797
-36.57841
-33.56798
-32.53137
-31.13715
-28.17972
-23.95652
-18.75229
-13.05963
-15.8545
-32.7823
-42.86618
-36.04077
-23.18776
-13.38744
-8.145298
-4.563163
-1.596015
1.676244
4.446642
6.245529
6.818621
6.27447
4.024004
2.462808
2.273034
3.367088
4.156962
4.835886
5.971668
5.594377
4.929748
5.122874
5.073173
2.251025
-3.099577
-10.30053
-14.85349
-13.86385
-8.17306
-7.59355
-140.086
-131.9857
-129.4108
-128.9977
-131.8265
-127.367
-124.9153
-124.6142
-124.211
-124.0595
-124.0365
-124.3355
-124.9078
-125.5472
-125.9739
-125.6407
-124.5372
-123.1726
-122.9555
-124.405
-126.2806
-127.638
-128.4266
-129.3903
-130.6344
-132.0897
-129.3787
-121.8809
-111.0477
-100.4887
-94.63268
-92.91698
-97.4928
-104.903
-113.8381
-122.3995
-122.8989
-116.5567
-112.8912
-112.8203
-111.5027
-117.6679
-131.4528
-143.2953
-149.6269
-152.0276
-152.679
-152.4893
-154.8121
-154.5516
-132.7356
-131.0315
-128.3333
-128.1866
-132.3218
-128.0381
-124.9673
-124.6239
-124.2408
-124.0707
-123.9979
-124.2957
-124.8885
-125.5531
-126.0549
-125.7682
-124.6894
-123.3065
-123.081
-124.4352
-126.2064
-127.6161
-128.4487
-129.568
-130.9336
-132.6082
-130.1011
-122.5895
-111.5772
-100.6531
-94.99331
-93.45412
-98.48444
-106.1389
-114.623
-121.99
-121.2844
-115.7882
-113.6426
-114.0023
-113.6362
-121.9597
-135.3557
-145.5749
-150.9383
-152.6415
-153.1186
-152.5678
-154.1228
-151.622
-148.6166
-152.2041
-154.5765
-155.9665
-156.3131
-156.0177
-155.0373
-153.3847
-151.0106
-148.1823
-145.0856
-141.1219
-136.4025
-131.8008
-126.8169
-122.1036
-117.5632
-113.2051
-108.9203
-104.6879
-100.7986
-97.00024
-93.52373
-90.2917
-87.22964
-84.28153
-81.49353
-78.86595
-76.22959
-73.90045
-71.68656
-69.57132
-67.72649
-65.87209
-64.21167
-62.77257
-61.46214
-60.4423
-59.26271
-58.56427
-57.96048
-57.15502
-56.68416
-56.16644
-55.57808
-54.97304
-54.26102
-53.68507
-52.93201
-52.11491
-51.31954
-50.61927
-49.85996
-48.75792
-47.04698
-45.21993
-45.46846
-48.83264
-48.81144
-43.09547
-36.93943
-33.94701
-32.62192
-30.96339
-27.97907
-23.96811
-19.03037
-13.95316
-17.74969
-34.34347
-43.64584
-35.89329
-22.67549
-13.03244
-7.924234
-4.410301
-1.380149
1.997488
4.657119
6.478412
6.905463
6.187061
3.696814
2.155694
2.064458
3.298016
4.140956
4.940925
6.043959
5.490457
4.954672
5.004349
4.528628
1.138367
-4.748261
-12.10055
-16.02818
-13.92018
-8.212145
-7.256542
1.133482
3.223006
4.510832
3.438014
1.005914
-2.713456
-10.26004
-21.02217
-35.72694
-54.85228
-77.06567
-102.6239
-127.9212
-153.4042
-175.5407
-190.7739
-204.0447
-211.3666
-209.8861
-200.9189
-184.8713
-161.9141
-141.0089
-131.1005
-126.0253
-106.5306
-98.78963
-114.7436
-127.8795
-136.0657
-137.1755
-126.4329
-106.3565
-85.05523
-82.71483
-88.50349
-101.8816
-114.2938
-113.5404
-109.9715
-107.202
-106.2135
-106.3063
-106.2124
-104.5402
-105.6782
-108.8853
-110.0337
-108.8242
-115.4468
-85.36091
-73.68131
-61.98456
-53.97343
-47.56119
-42.02814
-37.32753
-33.13181
-29.45407
-26.19004
-23.15525
-20.46942
-17.9436
-15.51229
-13.26337
-11.18858
-9.308083
-7.443709
-5.679674
-3.998399
-2.421083
-0.8960231
0.5027037
1.890893
3.242833
4.582734
5.84302
7.01532
8.159146
9.27672
10.36527
11.45544
12.50543
13.46659
14.45898
15.40863
16.37808
17.31199
18.2309
19.1242
20.01902
20.87976
21.7407
22.56892
23.39099
24.1976
24.99467
25.78518
26.59207
27.39175
28.16627
28.93184
29.68401
30.45999
31.25689
32.03855
32.79749
33.57391
34.34396
35.10216
35.83211
36.50627
37.12189
37.8369
38.66728
39.51434
40.40433
41.145
41.68878
42.47513
45.11645
49.67277
49.79107
49.05081
48.05196
46.82561
45.59234
44.31409
43.10266
42.02676
41.0238
39.91492
38.82302
37.72501
36.69674
35.67761
34.67831
33.65887
32.62713
31.64518
30.65584
29.64435
28.64405
27.66186
26.63429
25.65819
24.63407
23.5472
22.52286
21.50644
20.48496
19.41035
18.3099
17.23609
16.14543
14.99137
13.86918
12.72476
11.50548
10.29481
9.081605
7.858871
6.533184
5.134515
3.759121
2.420261
0.9788603
-0.5222038
-2.050323
-3.679065
-5.364441
-7.113511
-8.935078
-10.70602
-12.70796
-14.79219
-16.96686
-19.33567
-21.69954
-24.39197
-27.25414
-30.30119
-33.55661
-37.26625
-41.42186
-46.06533
-51.3216
-57.46616
-64.94538
-74.03974
-87.15607
-100.6039
48.9451
49.46012
48.9697
48.11703
47.01298
45.86918
44.54644
43.28749
42.23598
41.2794
40.16683
39.02649
37.87661
36.8621
35.86632
34.83939
33.77815
32.72581
31.77352
30.78232
29.75053
28.75685
27.78231
26.71821
25.8131
24.74236
23.62082
22.61389
21.56361
20.57286
19.48576
18.41677
17.36192
16.22751
15.00982
13.89354
12.75904
11.54662
10.3629
9.134446
7.862838
6.538679
5.187852
3.798185
2.424361
1.005253
-0.4978017
-2.072282
-3.69793
-5.362481
-7.073355
-8.91927
-10.71515
-12.7913
-14.83288
-16.97107
-19.42915
-21.74004
-24.52244
-27.3083
-30.37089
-33.73819
-37.46633
-41.63712
-46.28841
-51.59102
-57.82287
-65.32644
-74.44382
-86.7744
-100.039
-85.16227
-73.48232
-62.40355
-54.27461
-47.96714
-42.17334
-37.49758
-33.34331
-29.64908
-26.27174
-23.18998
-20.58235
-18.02757
-15.54241
-13.33526
-11.25955
-9.318268
-7.422303
-5.687439
-4.005063
-2.465474
-0.9202553
0.5244731
1.865789
3.256764
4.604555
5.814319
7.046304
8.198312
9.280894
10.35884
11.51105
12.59609
13.48997
14.50237
15.44484
16.43609
17.36255
18.26897
19.15939
20.08613
20.95755
21.81246
22.63348
23.44308
24.2779
25.08699
25.85148
26.6425
27.48463
28.28153
29.03352
29.78015
30.54099
31.36748
32.1577
32.87624
33.68559
34.46767
35.20211
35.92098
36.60173
37.22811
38.018
38.92116
39.70246
40.54224
41.26964
42.0418
43.1969
45.62065
-0.07896435
2.413469
4.138437
3.42588
1.290291
-1.920725
-9.302919
-19.51978
-33.62178
-52.67407
-74.71298
-99.16612
-124.8702
-152.5379
-174.9826
-189.4019
-204.7167
-212.5574
-211.9728
-204.5451
-191.0152
-170.4125
-150.662
-137.3817
-125.8771
-105.4893
-95.64487
-109.3747
-126.8408
-139.5239
-141.0478
-129.037
-109.5101
-88.48685
-85.81646
-92.24437
-104.8194
-117.0808
-114.3603
-110.4033
-107.4011
-106.2132
-106.188
-105.908
-104.1327
-105.9712
-109.2114
-109.5669
-107.7827
-109.4675
-147.5198
-150.9474
-153.9719
-155.9284
-156.5874
-156.4511
-155.7483
-154.1472
-151.7841
-148.8515
-146.0409
-142.1702
-137.4442
-132.7136
-127.7388
-123.0301
-118.3714
-113.8191
-109.5324
-105.2714
-101.3467
-97.47083
-93.98305
-90.7527
-87.62818
-84.61136
-81.78163
-79.14444
-76.49001
-74.16776
-71.91846
-69.81192
-67.92705
-65.97639
-64.31644
-62.88064
-61.57083
-60.57853
-59.24956
-58.66397
-58.03953
-57.13696
-56.78846
-56.22484
-55.62843
-55.02624
-54.29035
-53.81352
-53.00019
-52.1886
-51.3991
-50.69196
-49.856
-48.77053
-47.22433
-45.65826
-45.76696
-48.07636
-47.62687
-42.71419
-37.27578
-34.36239
-32.66038
-30.88566
-27.86538
-23.91011
-19.43678
-15.53961
-20.01387
-35.61102
-43.92353
-35.16345
-21.87944
-12.7487
-7.740215
-3.880586
-1.023688
2.365369
4.944459
6.719174
6.97275
6.006843
3.027287
1.584584
1.612044
2.985701
4.121758
5.122748
6.100578
5.287915
4.861917
4.804714
3.674934
-0.5623044
-7.282905
-14.66556
-17.56156
-13.9606
-8.457981
-7.505982
-125.8556
-128.1202
-127.4551
-128.4503
-133.5784
-129.7271
-124.8439
-124.5885
-124.2797
-124.1028
-123.9474
-124.2365
-124.858
-125.5702
-126.2054
-125.9571
-124.9127
-123.4518
-123.1281
-124.2847
-125.9209
-127.5048
-128.4197
-129.9411
-131.4616
-133.4668
-131.5295
-124.2204
-113.1531
-101.663
-95.6727
-94.59959
-100.1909
-107.8349
-115.5899
-122.0925
-119.668
-115.017
-114.9237
-116.1796
-117.4325
-127.8514
-139.5913
-148.0175
-152.3523
-153.1849
-153.3951
-152.2585
-152.1778
-148.8312
-0.3423463
-0.07971081
3.998554
3.435338
-4.845341
-2.186374
2.788172
3.008001
1.395518
-27.69206
-18.77553
-13.38606
-0.1244394
4.697796
4.986332
3.339392
5.83657
-0.6484849
3.125601
-9.805183
2.314194
3.123833
-4.442665
2.976563
-0.9810812
3.661622
2.921085
2.611378
3.20324
-1.698542
1.298708
-0.6325667
16.6955
-1.675514
3.695914
-11.28269
-12.88411
4.565926
-5.590496
3.785282
4.680194
-0.1022113
-3.20051
-4.544792
2.019515
-58.5177
-1.314147
-0.1184135
-0.2910321
4.96714
0.7856296
-2.835258
0.3644512
-8.462354
3.678101
-20.98401
0.5780201
0.8483716
-1.477306
-0.08629974
-11.51823
2.885096
-2.254163
-5.379339
5.219122
-10.86169
-1.797414
-20.51516
3.2614
1.106505
-19.25212
-4.081915
3.944727
2.348365
2.576652
2.745704
2.175217
1.999474
-0.490416
3.013561
-6.769843
1.886807
-21.18511
-2.150143
-53.08272
-8.731909
5.824017
-4.686268
-1.716944
0.0944514
4.408476
4.811839
3.699609
2.699738
-11.0121
0.8274691
3.686666
3.298025
-48.99106
-6.449708
-3.893126
-30.87834
6.007625
-58.36789
1.345316
3.372033
-3.812941
3.798522
3.73385
3.07449
-18.06246
-72.51719
-1.631776
1.435876
5.380695
1.802086
-2.077059
-21.89444
9.706544
2.421618
-0.5948412
2.68013
-1.815513
-0.6774105
3.16434
-2.069938
-0.2259972
12.69986
-18.31922
-5.306744
8.472081
5.239058
3.413083
3.371573
4.02459
-5.887151
0.5614742
-62.76242
0.7372839
4.535223
3.439123
5.14964
3.433373
-0.4302101
-1.967474
-4.294602
3.636792
-0.6357808
-2.387129
-13.3138
-46.81161
-44.12184
-1.630158
3.261641
7.133013
3.067688
-5.599187
8.665028
0.2076194
1.180376
-5.902802
3.254991
0.5847209
-2.031101
5.023877
-5.47414
-0.1332527
4.339156
-1.948258
2.050536
-7.150066
-30.16222
-1.528271
1.428432
-1.350432
0.1317012
-1.046485
0.9469873
-2.351345
-33.95423
-5.284824
3.627385
1.924892
2.2993
-0.09980402
2.038202
4.024695
3.838386
4.58847
-3.318276
0.4117229
-15.10218
2.089766
5.417987
-14.45349
-0.5019874
-0.03077463
-3.272392
6.883912
-0.3845136
-28.60304
1.024645
0.004805879
6.896789
0.627797
2.231618
1.327292
6.786367
-1.110092
1.551955
2.59463
1.570354
4.151318
3.749937
-1.114926
-10.72999
1.184159
-2.181715
2.838069
-25.99573
3.866662
0.434391
3.19338
-5.313943
16.47313
-36.47105
2.48772
-18.97002
0.411637
0.3930447
-16.09961
1.235361
3.21866
3.743191
-258.5727
-30.2064
3.00818
3.003138
-148.0075
-2.564872
1.453648
-39.85979
-2.394237
-1.812735
-26.20783
1.603838
3.063383
0.8374493
1.358911
3.000314
3.000133
-101.7985
5.536332
0.6343968
0.1762963
2.337286
-1.459524
2.786771
0.2340291
0.5839954
2.693105
-12.94931
2.47588
-7.617696
3.957364
1.760908
5.177625
-16.49882
3.267828
1.80763
5.939203
6.606221
-2.049035
-0.6019712
5.053029
-157.7501
3.743116
3.996474
-0.5984258
-13.2715
0.7448116
-9.077741
-21.71013
-1.465949
5.009449
-12.05541
0.9353767
3.990331
4.273965
1.741339
-117.2115
4.984855
-112.1888
3.372891
4.432598
-32.54836
-0.9999036
-55.10053
3.059217
1.176771
-0.4556094
-34.65024
1.025522
7.068949
0.533221