/*--------------------------------*- C++ -*----------------------------------*\
| =========                 |                                                 |
| \\      /  F ield         | OpenFOAM: The Open Source CFD Toolbox           |
|  \\    /   O peration     | Version:  2406                                  |
|   \\  /    A nd           | Website:  www.openfoam.com                      |
|    \\/     M anipulation  |                                                 |
\*---------------------------------------------------------------------------*/
FoamFile
{
    version     2.0;
    format      ascii;
    arch        "LSB;label=32;scalar=64";
    class       surfaceScalarField;
    location    "0.46";
    object      phi;
}
// * * * * * * * * * * * * * * * * * * * * * * * * * * * * * * * * * * * * * //

dimensions      [0 3 -1 0 0 0 0];

oriented        oriented;

internalField   nonuniform List<scalar> 
326221
(
-0.002059703
-0.004441251
0.006500953
-0.00119605
-0.0008636531
0.0005572283
-0.001753278
0.0005898772
-3.264895e-05
0.0008389216
-0.0002490444
0.001028582
-0.0001896608
0.0009420939
8.648853e-05
0.0007701367
0.0001719572
-0.0005111212
0.001281258
-0.002155423
0.001644302
-0.002834838
0.0006794157
-0.002315935
-0.0005189034
-0.001133548
-0.001182387
-0.0001325011
-0.001001047
0.001485251
-0.001617752
0.002859433
-0.001374182
0.002691333
0.0001681002
0.001205413
0.00148592
-0.0001907509
0.001396164
-0.0007790469
0.000588296
-8.433205e-05
-0.0006947148
0.001174487
-0.001258819
0.002086303
-0.0009118161
0.001769348
0.0003169544
0.001254366
0.0005149826
0.001114393
0.0001399732
0.0008302133
0.0002841792
0.0001707366
0.0006594767
-0.0007677326
0.0009384693
-0.001899794
0.001132062
-0.002721972
0.0008221777
-0.003056557
0.0003345849
-0.003157327
0.0001007697
-0.003209034
5.170768e-05
-0.003147879
-6.115504e-05
-0.002919804
-0.0002280755
-0.002600739
-0.0003190649
-0.002228666
-0.0003720728
-0.001851612
-0.000377054
-0.001404312
-0.0004473005
-0.0009738312
-0.0004304805
-0.0003883243
-0.0005855069
0.0001893922
-0.0005777165
0.0007458236
-0.0005564314
0.001312807
-0.0005669833
0.001537704
-0.0002248969
0.0009482567
0.0005894472
6.277072e-05
0.0008854859
0.0001892665
-0.0001264958
0.0009377693
-0.0007485028
0.001445637
-0.0005078679
0.001796277
-0.00035064
0.001268902
0.0005273754
0.0009985603
0.0002703416
0.0007584761
0.0002400842
0.0004692194
0.0002892566
0.0001946635
0.000274556
-3.646449e-05
0.0002311279
-0.000235008
0.0001985435
-0.00042835
0.000193342
-0.00063563
0.00020728
-0.000854696
0.000219066
-0.001049318
0.0001946216
-0.001206773
0.0001574556
-0.001329007
0.0001222338
-0.001418716
8.970896e-05
-0.001481704
6.298771e-05
-0.001524455
4.275121e-05
-0.001550161
2.570571e-05
-0.001560869
1.070869e-05
-0.001556266
-4.603146e-06
-0.001540774
-1.549247e-05
-0.001515898
-2.487542e-05
-0.001482878
-3.302014e-05
-0.001442342
-4.053636e-05
-0.00139574
-4.660155e-05
-0.001342202
-5.353826e-05
-0.001284731
-5.747076e-05
-0.001225319
-5.94126e-05
-0.001162428
-6.289057e-05
-0.001096084
-6.634443e-05
-0.001028023
-6.806083e-05
-0.0009576159
-7.040682e-05
-0.0008665547
-9.106121e-05
-0.0007978229
-6.873181e-05
-0.0007276673
-7.015554e-05
-0.0006585643
-6.910306e-05
-0.0005898137
-6.875055e-05
-0.000519029
-7.078476e-05
-0.0004483516
-7.067736e-05
-0.0003754267
-7.292487e-05
-0.0003030854
-7.234131e-05
-0.0002352819
-6.78035e-05
-0.0001730534
-6.222848e-05
-0.0001073639
-6.568954e-05
-3.93159e-05
-6.8048e-05
2.792716e-05
-6.724306e-05
8.0349e-05
-5.242184e-05
0.0001435742
-6.322516e-05
0.000222605
-7.903089e-05
0.0003050078
-8.240274e-05
0.0003785786
-7.357077e-05
0.0004453438
-6.676526e-05
0.0004976253
-5.228151e-05
0.000542116
-4.449063e-05
0.0005770029
-3.488695e-05
0.0006025043
-2.550139e-05
0.0006219273
-1.942303e-05
0.0006367777
-1.485035e-05
0.0006473761
-1.059845e-05
0.0006588672
-1.149105e-05
0.0006673074
-8.440184e-06
0.0006754172
-8.109828e-06
0.0006823521
-6.934874e-06
0.000685569
-3.21692e-06
0.0006901731
-4.604167e-06
0.0007168983
-2.672518e-05
0.0007171386
-2.402482e-07
0.0007112446
5.893993e-06
0.0007028206
8.423952e-06
0.0006882512
1.45694e-05
0.0006660831
2.216809e-05
0.0006350564
3.102675e-05
0.0005943259
4.073047e-05
0.000534265
6.006092e-05
0.0004502256
8.403942e-05
0.0003330139
0.0001172117
0.0001820705
0.0001509433
5.637937e-06
0.0001764326
-0.0001328544
0.0001384924
-0.000177241
4.438659e-05
-0.0003129091
0.0001356681
-0.000551005
0.0002380959
-0.0005268711
-2.413389e-05
0.0004628729
-0.000989744
0.001329742
-0.0008668689
0.0002221474
0.001107595
-0.001419246
0.001641394
-0.001790056
0.0003708093
-0.0009604624
-0.0008295933
-0.0002540763
-0.000706386
0.0002018167
-0.0004558931
0.0004151592
-0.0002133424
0.0005493737
-0.0001342145
0.000645509
-9.613525e-05
0.0006028593
4.264967e-05
0.0005163103
8.654903e-05
0.000362222
0.0001540883
0.002042142
-0.00167992
0.004687608
-0.002645467
-0.002987787
0.007675395
-0.003907654
0.0009198673
-0.003200268
-0.0007073862
-0.00198115
-0.001219118
-0.001243231
-0.0007379196
-0.001092755
-0.0001504752
-0.001491841
0.0003990858
-0.002039911
0.0005480694
-0.002217893
0.0001779823
-0.002016033
-0.0002018602
-0.001650417
-0.0003656155
-0.00136761
-0.0002828068
-0.001613834
0.0002462239
-0.001489661
-0.0001241732
-0.0004015097
-0.001088151
0.0005802368
-0.0009817465
0.0005632787
1.695809e-05
-0.0001238705
0.0006871492
-0.001100044
0.0009761738
-0.00236284
0.001262796
-0.002991079
0.0006282396
-0.002265309
-0.0007257702
-0.001024262
-0.001241047
9.120622e-05
-0.001115468
0.001550348
-0.001459141
0.002690306
-0.001139958
0.003560262
-0.0008699555
0.004139019
-0.0005787573
0.00442349
-0.0002844708
0.004376632
4.685776e-05
0.003891383
0.0004852495
0.002702136
0.001189247
0.0006332597
0.002068876
-0.001048449
0.001681709
-0.001593291
0.0005448419
-0.0006970683
-0.0008962224
0.0007396423
-0.001436711
-0.000190841
0.0009304833
-0.002676065
0.002485224
-0.003234664
0.0005585991
-0.001639181
-0.001595483
-0.0004033547
-0.001235826
0.0001342937
-0.0005376484
0.000323093
-0.0001887992
0.0001264615
0.0001966315
-0.0005570534
0.0006835149
-0.0005884906
3.143715e-05
0.001409856
-0.001998346
0.002254918
-0.0008450618
-0.004687568
0.006942485
-0.005012372
0.0003248043
-0.004473641
-0.0005387308
-0.004228348
-0.0002452933
-0.003986015
-0.0002423331
-0.003799065
-0.0001869504
-0.003626058
-0.0001730069
-0.003474154
-0.0001519037
-0.003255062
-0.000219092
-0.003149007
-0.0001060547
-0.003060916
-8.809102e-05
-0.00297915
-8.17662e-05
-0.002906485
-7.266521e-05
-0.002835559
-7.092563e-05
-0.002767684
-6.787558e-05
-0.002702652
-6.50311e-05
-0.002644708
-5.794461e-05
-0.00259121
-5.349799e-05
-0.002539477
-5.173267e-05
-0.00248808
-5.139694e-05
-0.002440332
-4.774781e-05
-0.002394166
-4.616662e-05
-0.002351096
-4.307032e-05
-0.002312654
-3.844177e-05
-0.002272939
-3.971476e-05
-0.002233022
-3.991727e-05
-0.002192115
-4.090628e-05
-0.002154058
-3.805731e-05
-0.002120029
-3.402871e-05
-0.002089254
-3.077566e-05
-0.002056668
-3.258533e-05
-0.002024276
-3.239246e-05
-0.001989425
-3.485053e-05
-0.001958956
-3.04699e-05
-0.001930819
-2.813671e-05
-0.001900906
-2.991286e-05
-0.001870318
-3.058821e-05
-0.001838547
-3.177116e-05
-0.001810217
-2.832966e-05
-0.001784468
-2.574921e-05
-0.001818112
3.364393e-05
-0.001806391
-1.172034e-05
-0.001788487
-1.790391e-05
-0.001770263
-1.822466e-05
-0.001754633
-1.562941e-05
-0.001738354
-1.627896e-05
-0.001724179
-1.417517e-05
-0.001711447
-1.273267e-05
-0.001699488
-1.195861e-05
-0.001684513
-1.497514e-05
-0.001669447
-1.506575e-05
-0.001657864
-1.158299e-05
-0.001648828
-9.036013e-06
-0.001642427
-6.400639e-06
-0.001632681
-9.74597e-06
-0.001620424
-1.225696e-05
-0.00161043
-9.994777e-06
-0.001603149
-7.280937e-06
-0.001594231
-8.917375e-06
-0.001587998
-6.233152e-06
-0.001580973
-7.025022e-06
-0.001573576
-7.397175e-06
-0.001567403
-6.173462e-06
-0.001559639
-7.764061e-06
-0.001534801
-2.48373e-05
-0.001498944
-3.585765e-05
-0.001463297
-3.564642e-05
-0.001415036
-4.826113e-05
-0.001338312
-7.672404e-05
-0.00116266
-0.0001756524
-0.0008856476
-0.0002770121
-0.000224073
-0.0006615745
0.0006168079
-0.000840881
0.0009081319
-0.000291324
0.00110563
-0.0001974978
0.001213612
-0.0001079822
0.001284156
-7.054374e-05
0.001343524
-5.936851e-05
0.001381977
-3.845265e-05
0.001396971
-1.499431e-05
0.00140705
-1.007906e-05
0.001427874
-2.082349e-05
0.00144743
-1.95564e-05
0.001462697
-1.526693e-05
0.001471149
-8.452361e-06
0.00147892
-7.770633e-06
0.001487017
-8.09681e-06
0.001498649
-1.163205e-05
0.001509447
-1.079778e-05
0.001516933
-7.486777e-06
0.001525344
-8.410881e-06
0.001537419
-1.207444e-05
0.001548354
-1.09349e-05
0.001558732
-1.037867e-05
0.001572437
-1.370426e-05
0.00158364
-1.120343e-05
0.001599824
-1.618412e-05
0.001619422
-1.959747e-05
0.001634662
-1.524053e-05
0.001646461
-1.179889e-05
0.001660169
-1.370757e-05
0.001676532
-1.636342e-05
0.001686206
-9.674347e-06
0.001651383
3.482308e-05
0.001674715
-2.333132e-05
0.001704207
-2.949289e-05
0.001733974
-2.97665e-05
0.001763775
-2.980097e-05
0.001795777
-3.200223e-05
0.001825688
-2.991119e-05
0.001852551
-2.686285e-05
0.001881692
-2.914114e-05
0.001914622
-3.292926e-05
0.001950744
-3.612231e-05
0.001981621
-3.087699e-05
0.002010487
-2.886622e-05
0.002041624
-3.113718e-05
0.002075657
-3.403249e-05
0.002110218
-3.456075e-05
0.002148983
-3.876534e-05
0.002189139
-4.015564e-05
0.00222918
-4.004148e-05
0.002270184
-4.10045e-05
0.002307789
-3.76041e-05
0.002353368
-4.557955e-05
0.002400944
-4.757586e-05
0.002450145
-4.920107e-05
0.002502839
-5.269433e-05
0.002556921
-5.408198e-05
0.002616952
-6.003019e-05
0.002682814
-6.586269e-05
0.002749264
-6.645006e-05
0.002821061
-7.179685e-05
0.002903258
-8.219671e-05
0.003002987
-9.972925e-05
0.003205915
-0.0002029275
0.003346132
-0.0001402178
0.003504399
-0.0001582667
0.003680254
-0.0001758547
0.003904107
-0.0002238536
0.004129478
-0.0002253707
0.004658758
-0.0005292802
0.0002175076
0.0007627229
0.0002621671
-0.001865771
0.001200025
-0.0007286259
0.001521391
-0.0005188637
0.001772523
-0.0003591145
0.001966134
-0.0002641545
0.002133753
-0.0002269879
0.002275282
-0.0001799811
0.002389724
-0.0001294363
0.002489696
-0.0001100514
0.002590204
-0.0001213318
0.002683313
-0.0001126655
0.002769789
-0.0001017424
0.002846649
-8.53125e-05
0.002919342
-8.046397e-05
0.002986878
-7.563296e-05
0.003053921
-7.867446e-05
0.003117126
-7.400331e-05
0.003175964
-6.632396e-05
0.003232083
-6.453047e-05
0.003288666
-6.865729e-05
0.003342605
-6.487377e-05
0.003394161
-6.193527e-05
0.003447008
-6.655114e-05
0.003496057
-6.025171e-05
0.003547551
-6.767866e-05
0.003599943
-7.198979e-05
0.003650194
-6.549132e-05
0.003696476
-5.808026e-05
0.003744157
-6.138847e-05
0.003792113
-6.431943e-05
0.003837063
-5.46248e-05
0.003798547
7.333923e-05
0.003855211
-7.999514e-05
0.003915325
-8.960705e-05
0.003975793
-9.023507e-05
0.004036368
-9.037584e-05
0.004097944
-9.357768e-05
0.004158968
-9.093571e-05
0.004216953
-8.484762e-05
0.004277162
-8.934976e-05
0.004338127
-9.389449e-05
0.004403021
-0.0001010165
0.004463323
-9.117865e-05
0.004523592
-8.913529e-05
0.004584107
-9.165277e-05
0.004647216
-9.714102e-05
0.004709992
-9.733674e-05
0.004776159
-0.0001049319
0.004843732
-0.0001077296
0.004911278
-0.0001075866
0.004980806
-0.0001105326
0.005046981
-0.0001037792
0.005120049
-0.0001186473
0.005193038
-0.0001205654
0.005269243
-0.0001254061
0.005346658
-0.0001301097
0.005426843
-0.0001342664
0.005510332
-0.0001435196
0.005599572
-0.0001551029
0.005688948
-0.0001558253
0.005783651
-0.0001665001
0.005886236
-0.0001847815
0.006002955
-0.0002164487
0.006283309
-0.0004832815
0.006441777
-0.0002986861
0.00662273
-0.0003392198
0.006816723
-0.0003698471
0.007071361
-0.0004784917
0.007279604
-0.0004336139
0.007909218
-0.001158894
0.007017209
0.001109517
-0.008393122
0.007335096
0.00138283
-0.007719817
-0.001212035
-0.007501482
-0.0004636291
-0.007229058
-0.0005147568
-0.007024366
-0.0003916423
-0.006829116
-0.0003682565
-0.006659698
-0.0003213217
-0.006360964
-0.0005178266
-0.006237122
-0.0002298964
-0.006128003
-0.0001972099
-0.006023764
-0.0001860052
-0.005927741
-0.0001686885
-0.005832632
-0.0001660343
-0.005741714
-0.0001587936
-0.005652038
-0.0001547072
-0.005569382
-0.000140601
-0.005488386
-0.0001344939
-0.005410835
-0.0001292831
-0.00533244
-0.0001297927
-0.005258312
-0.0001218754
-0.005184506
-0.0001199725
-0.005113781
-0.0001137959
-0.005046022
-0.0001062007
-0.004977743
-0.0001079931
-0.004910267
-0.0001073942
-0.004841935
-0.0001092381
-0.004776609
-0.0001033831
-0.004712696
-9.794191e-05
-0.004651957
-9.151395e-05
-0.004588306
-9.623681e-05
-0.004526564
-9.4134e-05
-0.004461702
-9.971297e-05
-0.004400726
-9.144554e-05
-0.004339762
-8.910112e-05
-0.00427793
-9.174513e-05
-0.004215039
-9.347868e-05
-0.004151386
-9.542445e-05
-0.00408992
-8.979603e-05
-0.004029337
-8.633164e-05
-0.004067911
7.221762e-05
-0.00402013
-5.950104e-05
-0.003970097
-6.793721e-05
-0.003918589
-6.973211e-05
-0.003869521
-6.469735e-05
-0.003818038
-6.776244e-05
-0.003768113
-6.410035e-05
-0.003717091
-6.375467e-05
-0.003666178
-6.287152e-05
-0.003611911
-6.924215e-05
-0.003557245
-6.973182e-05
-0.003503484
-6.534422e-05
-0.003449253
-6.326605e-05
-0.003394936
-6.07184e-05
-0.003335814
-6.886764e-05
-0.00327389
-7.418059e-05
-0.003210533
-7.335254e-05
-0.003146584
-7.12293e-05
-0.003077025
-7.847686e-05
-0.003006113
-7.714529e-05
-0.002928769
-8.436869e-05
-0.002845947
-9.02196e-05
-0.002756994
-9.512562e-05
-0.002660331
-0.0001044278
-0.002543576
-0.0001415917
-0.002412
-0.0001674338
-0.002270425
-0.0001772214
-0.002103517
-0.0002151694
-0.001892582
-0.0002876589
-0.001589325
-0.0004789093
-0.001133988
-0.0007323491
-0.001533395
-0.002388298
-0.004941216
0.01500491
-0.003986857
0.002518426
-0.002874188
-0.001820055
-0.001624365
-0.00246894
-0.0006980084
-0.001664276
-0.0002958697
-0.0005526139
-0.0006873764
0.0007905925
-0.002078186
0.001938879
-0.003363427
0.001463223
-0.003607305
4.20185e-05
-0.003214542
-0.0007583788
-0.002749547
-0.0007478018
-0.002746263
0.0002429393
-0.002391136
-0.0004792999
-0.001107784
-0.002371503
-1.512398e-05
-0.002074406
0.0003318952
-0.0003300611
-0.0008064402
0.001825485
-0.002959619
0.003129353
-0.004433121
0.002736297
-0.004026232
0.0002213508
-0.002719708
-0.002032295
-0.001327568
-0.002633187
0.0001233661
-0.002566402
0.001975393
-0.003311169
0.003450117
-0.002614682
0.004604593
-0.002024432
0.005416601
-0.001390765
0.005879358
-0.0007472277
0.006043652
-0.0001174363
0.00593437
0.0005945313
0.005339357
0.001784259
0.003260061
0.004148173
-0.0002443016
0.005186071
-0.002277285
0.002577825
-0.001662028
-0.001511479
-0.0009574475
-0.002141291
-0.002555684
0.00252872
-0.004520861
0.0044504
-0.003865066
-9.719527e-05
-0.001725608
-0.003734941
-0.00035076
-0.002610674
0.0003848999
-0.001273308
0.0006437702
-0.0004476696
0.0005767048
0.0002636969
0.0003496334
0.0009105864
0.0006230072
-0.0002419367
0.00221814
-0.003593479
0.001145831
0.0002272464
0.01542341
0.001362086
-0.001027418
-0.0008425358
0.002108537
-0.001097091
0.001743482
0.0008924304
0.000689122
0.001324701
-0.0004310521
0.001360258
-0.00120429
0.001062495
-0.001731354
0.0008016196
-0.002105272
0.0006050461
-0.002396803
0.0004900746
-0.002645163
0.0004417015
-0.00286679
0.0004289075
-0.003060406
0.0004126818
-0.003202958
0.0003371734
-0.003292374
0.0002468716
-0.003340637
0.0001704969
-0.003355158
0.0001042295
-0.00334304
5.086962e-05
-0.00331121
1.092164e-05
-0.003264173
-2.133084e-05
-0.003205647
-4.781788e-05
-0.003135153
-7.509665e-05
-0.003055335
-9.531134e-05
-0.002966427
-0.0001137827
-0.002869765
-0.0001296824
-0.002766047
-0.0001442546
-0.00265685
-0.0001557985
-0.002541513
-0.000168875
-0.002422404
-0.0001765802
-0.002300988
-0.0001808284
-0.002176268
-0.0001876108
-0.002048495
-0.0001941165
-0.00191916
-0.0001973965
-0.001788737
-0.0002008292
-0.001624305
-0.0002554937
-0.001496918
-0.000196119
-0.001367361
-0.0001997126
-0.001238527
-0.0001979365
-0.001109714
-0.0001975637
-0.0009788946
-0.0002016043
-0.0008483238
-0.0002012482
-0.0007171107
-0.000204138
-0.0005878175
-0.0002016345
-0.0004630148
-0.0001926061
-0.0003434397
-0.0001818036
-0.0002185092
-0.00019062
-9.052764e-05
-0.0001960296
3.623909e-05
-0.0001940098
0.0001420801
-0.0001582629
0.000260524
-0.0001816691
0.000398875
-0.0002173818
0.00054454
-0.0002280678
0.0006831333
-0.0002121641
0.0008158262
-0.0001994581
0.0009331495
-0.0001696049
0.00104057
-0.0001519109
0.001135473
-0.0001297904
0.00121752
-0.0001075484
0.001289263
-9.116557e-05
0.001351727
-7.731406e-05
0.001405026
-6.389815e-05
0.001453802
-6.026647e-05
0.001496193
-5.083161e-05
0.001535704
-4.762092e-05
0.001572763
-4.399361e-05
0.001606451
-3.690508e-05
0.001640391
-3.854426e-05
0.001715484
-0.000101818
0.00175184
-3.65962e-05
0.001784934
-2.719958e-05
0.001815246
-2.188804e-05
0.001839576
-9.761564e-06
0.001855793
5.951255e-06
0.001861146
2.567444e-05
0.001851811
5.006557e-05
0.001817222
9.464933e-05
0.001746572
0.0001546899
0.001620547
0.0002432366
0.001409473
0.0003620174
0.001053752
0.0005321535
0.0004906286
0.0007016156
-0.0002099241
0.0007449392
-0.0007255475
0.0006512915
-0.0008788041
0.0003913524
-0.0006202737
-0.0002826643
0.0005019238
-0.002111941
0.001521264
-0.00188621
-0.000205123
0.002833982
-0.002061189
0.003497459
-0.001853212
0.0001628324
-0.0009096339
-0.001773171
-0.0003154096
-0.00130061
-3.367814e-05
-0.0007376245
0.0001725293
-0.0004195499
0.0002708717
-0.0002325569
0.0003236801
-0.0001489437
0.0003457643
2.056547e-05
0.0007073358
-0.0002750226
0.001712032
-0.0008506077
0.003188228
-0.003156116
-0.004398455
-0.0009234608
0.01444162
-0.001953331
0.0001662173
-0.0007943989
-0.00291221
-0.0005194333
-0.0003076146
0.0006117507
-0.001380228
0.001472105
-0.001050015
0.001172345
0.0003862489
-2.933185e-05
0.001373634
-0.002203909
0.003455835
-0.00381666
0.003257053
-0.003933436
0.000796191
-0.003069497
-0.001382842
-0.001604846
-0.002647039
-0.0002632527
-0.00234264
0.001610811
-0.003491816
0.003456768
-0.003220139
0.004410359
-0.0007854906
0.002905025
0.002991254
0.0003450788
0.00395611
-0.000520518
0.001453893
0.0003093062
-0.001524539
0.001736992
-0.002686504
0.003013438
-0.002188263
0.003281262
4.91301e-05
0.002801683
0.0009945626
0.001856936
0.001084719
0.0003703744
0.001770741
-0.00151435
0.002544201
-0.003134373
0.002558492
-0.003933787
0.001931476
-0.003991958
0.000880349
-0.003897387
0.000240014
-0.003952695
0.0001560773
-0.003986182
8.519515e-05
-0.003836
-0.0002113369
-0.003507934
-0.0005561415
-0.003083112
-0.0007438869
-0.002591752
-0.0008634334
-0.002077999
-0.0008908066
-0.001477476
-0.001047824
-0.0008782154
-0.001029741
-0.0001302503
-0.001333472
0.0006206425
-0.001328609
0.001347684
-0.001283473
0.002052799
-0.001272098
0.002743523
-0.0009156211
0.002671955
0.0006610146
0.001581899
0.001975542
0.0007766517
0.0006787517
-0.0009992692
0.0006932897
-0.00905579
0.02280412
-0.002304895
0.003164402
-0.00176312
-0.003453985
-0.001473508
-0.000597227
-0.0001120445
-0.002741691
0.001153523
-0.002315583
0.0005578682
0.0009819041
-0.001397121
0.003328623
-0.00366458
0.005723294
-0.004869256
0.004461729
-0.004871928
0.0007988633
-0.003923965
-0.002330805
-0.002190153
-0.00438085
-0.0005544375
-0.003978356
0.001794054
-0.005840307
0.003836649
-0.005262734
0.005332726
-0.002281568
0.00442056
0.00390342
0.00157581
0.00680086
0.0002688951
0.002760808
0.001081147
-0.002336791
0.002545304
-0.004150661
0.003807599
-0.003450558
0.004168063
-0.0003113335
0.003589631
0.001572994
0.00180826
0.00286609
-0.0007326887
0.00431169
-0.003250753
0.005062266
-0.004557283
0.003865022
-0.004619345
0.001993538
-0.00438658
0.0006475843
-0.004442635
0.000296069
-0.004588853
0.0003022946
-0.004643153
0.000139495
-0.004546698
-0.0003077916
-0.004247681
-0.0008551588
-0.003817868
-0.0011737
-0.003265634
-0.001415667
-0.002661865
-0.001494575
-0.001943103
-0.001766586
-0.001218457
-0.001754386
-0.0002919893
-0.00225994
0.0006220731
-0.002242672
0.001531683
-0.002193083
0.00238242
-0.002122835
0.003282475
-0.001815676
0.003910803
3.268626e-05
0.003438498
0.002447847
0.002112838
0.002004412
0.001737887
-0.000624318
0.001693001
-0.0007976496
0.001831289
-0.001235379
0.0009125749
0.001811144
-0.0008696776
0.003106954
-0.002351516
0.002842096
-0.003206875
0.001917855
-0.003700568
0.001295313
-0.004009629
0.0009141069
-0.00421767
0.0006981149
-0.004355599
0.0005796314
-0.004439102
0.0005124105
-0.004485621
0.0004592007
-0.004496496
0.0003480479
-0.00448209
0.0002324658
-0.004451641
0.0001400478
-0.004405344
5.793285e-05
-0.00434564
-8.83425e-06
-0.004274563
-6.015566e-05
-0.004191704
-0.0001041899
-0.004097886
-0.000141636
-0.003991848
-0.0001811343
-0.00387665
-0.0002105093
-0.0037525
-0.0002379327
-0.003620736
-0.000261447
-0.003481927
-0.0002830629
-0.003337911
-0.0002998144
-0.003187773
-0.0003190138
-0.003033902
-0.0003304512
-0.002877817
-0.000336913
-0.00271851
-0.0003469178
-0.002556264
-0.0003563629
-0.002392963
-0.0003606975
-0.002229662
-0.0003641297
-0.00202543
-0.0004597259
-0.00186537
-0.0003561789
-0.001702654
-0.000362429
-0.001541106
-0.0003594842
-0.001379857
-0.0003588129
-0.001216591
-0.0003648702
-0.001054025
-0.0003638135
-0.0008916258
-0.0003665377
-0.0007319741
-0.0003612862
-0.0005771926
-0.0003473877
-0.000428449
-0.0003305472
-0.0002730163
-0.0003460526
-0.0001121665
-0.0003568794
5.333194e-05
-0.0003595083
0.0001933597
-0.0002982906
0.0003414213
-0.0003297307
0.0005098167
-0.0003857772
0.0006879939
-0.000406245
0.0008604152
-0.0003845854
0.001028286
-0.0003673293
0.001180271
-0.0003215899
0.001322471
-0.0002941108
0.001451306
-0.0002586252
0.001566351
-0.0002225929
0.001669966
-0.0001947811
0.00176288
-0.0001702281
0.001844461
-0.0001454788
0.001919355
-0.0001351609
0.001985205
-0.0001166809
0.002046227
-0.0001086432
0.002102994
-0.0001007605
0.002155684
-8.959553e-05
0.002207131
-8.999066e-05
0.002309881
-0.0002045683
0.002365419
-9.213433e-05
0.002420357
-8.213791e-05
0.002474464
-7.599488e-05
0.002524718
-6.001563e-05
0.002571403
-4.073327e-05
0.002613482
-1.640494e-05
0.002649201
1.434687e-05
0.002671367
7.248294e-05
0.002675123
0.0001509347
0.002646242
0.0002721173
0.002557453
0.0004508062
0.002328333
0.000761274
0.001787485
0.001242463
0.0007744046
0.00175802
-0.0002677036
0.0016934
-0.0005357773
0.0006594261
-0.000201114
-0.0006173276
0.0004753767
-0.002788432
0.0009950116
-0.002405844
-0.0008489443
0.004677938
-0.002125497
0.004774012
-0.001390557
-0.0005721078
-0.0003843417
-0.002779386
0.0001472951
-0.001832247
0.0001966316
-0.000786961
0.0003192236
-0.0005421419
0.0004393327
-0.000352666
0.000505994
-0.0002156049
0.0006903899
-0.0001638305
0.001438596
-0.001023228
0.00296791
-0.002379922
0.004765576
-0.004953782
0.00590307
-0.005535948
-0.001099637
0.02200762
-0.003907007
0.005325796
-0.002891667
-0.002835395
-0.00159148
-0.003769128
-0.0005511151
-0.002704641
4.02165e-05
-0.001143946
5.720028e-05
0.0007736087
-0.001122873
0.003118952
-0.00330873
0.003649081
-0.004503106
0.001236394
-0.004365895
-0.0008955896
-0.003817397
-0.0012963
-0.00381862
0.000244163
-0.003551332
-0.0007465886
-0.002202664
-0.003720171
-0.0007623424
-0.003514728
-0.0004186506
-0.000673753
-0.002066713
0.003473547
-0.004691753
0.005754392
-0.005645884
0.003690428
-0.004641579
-0.0007829539
-0.003198658
-0.003475216
-0.001528565
-0.00430328
0.0002699195
-0.004364887
0.002498131
-0.00553938
0.004281302
-0.004397853
0.005681835
-0.003424965
0.006673508
-0.002382438
0.007250627
-0.001324347
0.007432432
-0.0002992412
0.007234262
0.0007927015
0.006811248
0.002207272
0.005537413
0.005422008
0.001940674
0.00878281
-0.001826853
0.006345353
-0.002881068
-0.000457265
-0.00333884
-0.001683519
-0.004755189
0.003945069
-0.005230975
0.004926186
-0.00394179
-0.00138638
-0.00167153
-0.006005201
-0.0001156328
-0.004166572
0.0007640192
-0.00215296
0.001012732
-0.0006963826
0.001000734
0.0002756955
0.000998179
0.0009131409
0.001630641
-0.0008743986
0.002605714
-0.004568552
-0.0005802858
0.003413246
-0.009435548
0.02427868
-0.01049727
0.002444553
-0.009800957
-0.001908349
-0.009532894
-0.0007316922
-0.009232788
-0.0008148624
-0.009007795
-0.0006166357
-0.008794877
-0.0005811739
-0.008615119
-0.0005010803
-0.008271439
-0.0008615065
-0.008137962
-0.0003633733
-0.008015418
-0.0003197537
-0.007897731
-0.0003036924
-0.007788141
-0.000278278
-0.007678698
-0.0002754779
-0.007573796
-0.0002636949
-0.007469204
-0.0002593001
-0.007371632
-0.0002381722
-0.007274489
-0.000231637
-0.007181113
-0.0002226592
-0.007086035
-0.0002248704
-0.006995446
-0.0002124649
-0.006904326
-0.0002110922
-0.006815985
-0.0002021376
-0.006730166
-0.0001920193
-0.006643501
-0.0001946581
-0.006557986
-0.0001929088
-0.006471211
-0.0001960139
-0.006387367
-0.0001872263
-0.006303741
-0.0001815685
-0.006223193
-0.0001720621
-0.006138677
-0.0001807519
-0.006056849
-0.0001759626
-0.005970892
-0.0001856701
-0.005888888
-0.000173449
-0.005805793
-0.0001721961
-0.005721581
-0.000175958
-0.005636083
-0.0001789758
-0.005549222
-0.0001822858
-0.005462939
-0.0001760793
-0.00537471
-0.0001745602
-0.005404783
0.0001022907
-0.005326101
-0.0001381833
-0.005252953
-0.0001410855
-0.00517656
-0.0001461245
-0.005103116
-0.0001381423
-0.005026167
-0.0001447112
-0.004950875
-0.0001393922
-0.004873657
-0.0001409722
-0.004796566
-0.0001399627
-0.004715548
-0.0001502606
-0.004634109
-0.0001511701
-0.004553242
-0.0001462113
-0.00447103
-0.0001454786
-0.004388413
-0.0001433349
-0.004300248
-0.0001570333
-0.004209059
-0.0001653689
-0.004116287
-0.0001661254
-0.004022728
-0.000164788
-0.003922224
-0.0001789809
-0.003820656
-0.0001787129
-0.003711864
-0.0001931612
-0.003597677
-0.0002044066
-0.003476862
-0.0002159406
-0.0033482
-0.0002330898
-0.003196483
-0.0002933087
-0.003030681
-0.000333236
-0.002857348
-0.0003505541
-0.002652658
-0.0004198595
-0.00239424
-0.0005460771
-0.002020663
-0.0008524862
-0.001384454
-0.001368558
-0.000333143
-0.002584706
0.0008738558
-0.00307277
0.001529027
-0.001383797
0.001918925
-0.0009087618
0.002222097
-0.0006622866
0.002459681
-0.0005017381
0.002669635
-0.0004369418
0.002851696
-0.0003620429
0.003002744
-0.0002804842
0.003135964
-0.0002432711
0.003270947
-0.000256315
0.003397826
-0.0002395447
0.003518492
-0.0002224077
0.003627949
-0.00019477
0.003732931
-0.0001854455
0.003831599
-0.0001743013
0.003929784
-0.0001768592
0.004023765
-0.0001679842
0.004112586
-0.0001551448
0.004197929
-0.0001498742
0.004283425
-0.0001541533
0.004365764
-0.0001472119
0.00444483
-0.0001410018
0.004525435
-0.000147156
0.004600721
-0.0001355382
0.004678157
-0.000145114
0.004755987
-0.0001498202
0.004831847
-0.0001413513
0.0049032
-0.0001294327
0.004976033
-0.0001342216
0.005047426
-0.0001357128
0.005123529
-0.000130728
0.005094794
0.0001020743
0.005178645
-0.0001638462
0.005263257
-0.0001742191
0.005346364
-0.0001733414
0.005428893
-0.0001729051
0.005511903
-0.0001765877
0.005594549
-0.0001735823
0.005673606
-0.0001639042
0.005754766
-0.0001705097
0.005835222
-0.0001743504
0.005920143
-0.0001859374
0.006000014
-0.0001710503
0.006080375
-0.0001694955
0.006160187
-0.0001714648
0.006242476
-0.0001794308
0.006323628
-0.0001784878
0.006407955
-0.0001892596
0.006493413
-0.0001931875
0.006578495
-0.0001926685
0.006666216
-0.0001982535
0.006749505
-0.0001870687
0.006840002
-0.0002091436
0.006929059
-0.0002096225
0.00702165
-0.0002179971
0.00711468
-0.0002231395
0.007210321
-0.0002299074
0.007308408
-0.0002416067
0.007412146
-0.0002588413
0.007515421
-0.0002590999
0.007623615
-0.0002746944
0.007739766
-0.0003009326
0.007865694
-0.0003423763
0.008189047
-0.0008066349
0.008357196
-0.0004668349
0.008554007
-0.0005360309
0.008767074
-0.0005829143
0.009049631
-0.0007610481
0.009303728
-0.000687711
0.009952013
-0.001807179
0.002005739
0.0009042138
0.0003938236
-0.004370807
0.001726673
-0.002206256
0.002202262
-0.001384351
0.002568288
-0.001028312
0.002862376
-0.0007958267
0.003122714
-0.0006972794
0.00334779
-0.0005871189
0.003536653
-0.0004693475
0.003703845
-0.0004104632
0.003872417
-0.0004248872
0.004030535
-0.0003976621
0.00418142
-0.0003732928
0.004319256
-0.0003326066
0.004451434
-0.0003176233
0.004576134
-0.0002990011
0.004699531
-0.0003002559
0.004818311
-0.0002867642
0.00493034
-0.0002671738
0.005038491
-0.0002580259
0.005146263
-0.0002619251
0.005250198
-0.0002511465
0.005350048
-0.000240852
0.005451821
-0.0002489294
0.005546748
-0.0002304647
0.005644255
-0.0002426216
0.005742268
-0.0002478325
0.005837453
-0.000236537
0.005927934
-0.0002199138
0.006019691
-0.0002259779
0.006109625
-0.0002256467
0.006207033
-0.0002281363
0.006179134
0.0001299732
0.006282164
-0.0002668764
0.006387704
-0.0002797585
0.006490057
-0.0002756946
0.006591658
-0.0002745058
0.006693848
-0.000278778
0.006795221
-0.0002749554
0.006892406
-0.0002610892
0.006991781
-0.0002698845
0.007090198
-0.0002727671
0.007193713
-0.0002894523
0.007291159
-0.0002684964
0.007389124
-0.0002674608
0.007486555
-0.0002688961
0.007586502
-0.000279378
0.007684969
-0.0002769547
0.007787248
-0.0002915382
0.00789054
-0.0002964794
0.007993418
-0.000295547
0.008099536
-0.0003043707
0.008199826
-0.0002873593
0.008309267
-0.0003185844
0.008416134
-0.0003164894
0.008527033
-0.000328896
0.00863873
-0.0003348366
0.008752524
-0.0003437015
0.008869817
-0.0003589001
0.008992999
-0.0003820228
0.009115401
-0.0003815021
0.009243419
-0.0004027128
0.009380825
-0.0004383382
0.009727809
-0.0006893607
0.009912444
-0.0009912696
0.01010762
-0.0006620136
0.01033943
-0.0007678343
0.01059841
-0.0008418972
0.01093277
-0.001095409
0.01129345
-0.001048394
0.01188877
-0.002402496
0.01120706
0.002687453
-0.01252611
0.0116935
0.003277171
-0.01188503
-0.002549437
-0.01150352
-0.001113203
-0.01114985
-0.001168526
-0.01087676
-0.0008897226
-0.01062446
-0.0008334797
-0.01041466
-0.000710876
-0.01021547
-0.001060703
-0.009848114
-0.0007307256
-0.009703574
-0.0004642943
-0.009564114
-0.0004431524
-0.009434276
-0.0004081156
-0.009304388
-0.0004053655
-0.009179571
-0.0003885123
-0.00905504
-0.0003838314
-0.008938205
-0.0003550067
-0.008822063
-0.0003477791
-0.008709991
-0.0003347318