/*--------------------------------*- C++ -*----------------------------------*\
| =========                 |                                                 |
| \\      /  F ield         | OpenFOAM: The Open Source CFD Toolbox           |
|  \\    /   O peration     | Version:  2406                                  |
|   \\  /    A nd           | Website:  www.openfoam.com                      |
|    \\/     M anipulation  |                                                 |
\*---------------------------------------------------------------------------*/
FoamFile
{
    version     2.0;
    format      ascii;
    arch        "LSB;label=32;scalar=64";
    class       volScalarField;
    location    "0.12";
    object      p;
}
// * * * * * * * * * * * * * * * * * * * * * * * * * * * * * * * * * * * * * //

dimensions      [0 2 -2 0 0 0 0];

internalField   nonuniform List<scalar> 
4531
(
-0.0005657741
-4.050607e-05
-0.0001417645
-0.0001049061
-7.316516e-05
-9.611517e-05
-5.295037e-05
-6.907845e-05
-6.576878e-05
-4.744299e-05
-6.397717e-05
-4.793502e-05
-5.745449e-05
-2.407659e-05
-3.488129e-05
-2.568921e-05
-2.596266e-05
-2.328967e-05
-6.537071e-06
-2.274851e-05
9.643877e-06
-9.621748e-07
7.773842e-05
-0.0001426284
0.000798037
-0.001286249
-0.0002549228
-0.0004127037
-0.0003320394
-0.0003102857
-0.0002900809
-0.000276884
-0.0002631104
-0.000246366
-0.0002437594
-0.0002339795
-0.0002284188
-0.0002220433
-0.0002188224
-0.0002137464
-0.0002104292
-0.0002077784
-0.0002051371
-0.0002033995
-0.0002017356
-0.0001996692
-0.0001992784
-0.0001976186
-0.0001973603
-0.0001970036
-0.0001972836
-0.000197683
-0.000198598
-0.0001995829
-0.0002013832
-0.0002026276
-0.0002057257
-0.0002077088
-0.0002101127
-0.0002148122
-0.0002173219
-0.0002227782
-0.0002283288
-0.0002364363
-0.0002425229
-0.0002533057
-0.0002607182
-0.0002804141
-0.0002867818
-0.0003180185
-0.0003210817
-0.0004325848
-0.0002288928
-0.001303541
0.0007986644
-0.0001439264
8.989401e-05
-2.512358e-06
1.650238e-05
-1.796552e-05
-4.923473e-06
-2.647371e-05
-1.653257e-05
-3.852907e-05
-3.986097e-05
-3.570157e-05
-5.515567e-05
-3.685217e-05
-5.692798e-05
-5.122844e-05
-7.459063e-05
-5.866915e-05
-7.589076e-05
-6.247307e-05
-9.387822e-05
-0.000102577
-0.0001660829
-4.511955e-06
-0.0005575403
0.0006706846
0.0001664155
0.0002570774
0.0002065774
0.0002076005
0.0001954523
0.0001842607
0.000191609
0.0001806057
0.0001664413
0.0001898242
0.0001829491
0.0001782589
0.0001626834
0.0001817553
0.000184861
0.0001784143
0.000177659
0.000178962
0.0001841454
0.0001746307
0.0001891846
0.0001794942
0.0001945443
0.000192288
0.0001975098
0.0002018358
0.0002072136
0.0002084196
0.0002238274
0.000228696
0.0002440669
0.0002645674
0.0002713249
0.0003894217
0.0003982677
0.0002717598
0.0002671667
0.0002461341
0.0002308892
0.0002260173
0.0002111657
0.0002095294
0.0002044231
0.0002000367
0.0001948167
0.0001969898
0.0001815956
0.0001914454
0.0001764913
0.0001851937
0.0001806549
0.0001771913
0.0001781809
0.0001840756
0.0001810698
0.0001621071
0.000177777
0.0001823562
0.0001888997
0.0001653407
0.0001791818
0.0001900329
0.0001822661
0.0001965742
0.0002069376
0.0002120211
0.0002854726
0.0001256517
0.000702664
0.0004020188
0.0002767967
0.0002682572
0.0002475274
0.0002315263
0.0002264982
0.0002118937
0.0002097045
0.0002046199
0.000200217
0.0001946078
0.0001970786
0.0001818073
0.0001913448
0.0001767496
0.0001847611
0.0001807073
0.0001772724
0.0001779665
0.0001838041
0.0001808833
0.000162172
0.0001777508
0.0001817528
0.0001881642
0.0001654362
0.0001787608
0.0001893514
0.000182138
0.0001960599
0.000206184
0.0002113204
0.0002825434
0.0001270794
0.0006720799
0.0006402406
0.0001667227
0.0002551398
0.0002055847
0.0002069925
0.0001948028
0.0001840521
0.000190884
0.0001801683
0.0001665263
0.0001890847
0.0001823485
0.000178236
0.0001627444
0.0001815512
0.0001845599
0.0001781675
0.0001776954
0.0001790247
0.0001837325
0.0001748991
0.0001891079
0.0001797152
0.0001946442
0.0001920968
0.0001977031
0.0002020475
0.000207393
0.0002091709
0.0002243271
0.0002293385
0.0002454561
0.0002657183
0.0002760946
0.0003936699
0.0007369892
-0.0001161337
8.456191e-05
-1.11177e-06
1.601626e-05
-1.768472e-05
-5.004318e-06
-2.634812e-05
-1.679947e-05
-3.820322e-05
-3.982952e-05
-3.539232e-05
-5.491708e-05
-3.682476e-05
-5.669697e-05
-5.106329e-05
-7.402304e-05
-5.822344e-05
-7.541119e-05
-6.250998e-05
-9.335055e-05
-0.0001009328
-0.0001638729
-5.328662e-06
-0.0005287357
-0.001227537
-0.0002893404
-0.0004101715
-0.0003347717
-0.0003112176
-0.0002907137
-0.0002772725
-0.0002636122
-0.0002467712
-0.0002438635
-0.0002341507
-0.0002285547
-0.0002221297
-0.0002188568
-0.0002138069
-0.0002104629
-0.0002078005
-0.0002051426
-0.0002033836
-0.0002017259
-0.0001996664
-0.0001992573
-0.0001976111
-0.0001973548
-0.0001969997
-0.0001972802
-0.0001976782
-0.0001985928
-0.0001995825
-0.0002013808
-0.0002026438
-0.0002057209
-0.0002077165
-0.0002101505
-0.0002148349
-0.0002174085
-0.0002229168
-0.0002285067
-0.0002365952
-0.0002427504
-0.000253559
-0.0002611905
-0.0002807657
-0.000287597
-0.000318619
-0.0003244042
-0.0004290719
-0.000263952
-0.00124619
-0.0005358212
-4.065677e-05
-0.0001399535
-0.000103973
-7.274837e-05
-9.519912e-05
-5.284677e-05
-6.859715e-05
-6.517122e-05
-4.748009e-05
-6.37723e-05
-4.763408e-05
-5.715694e-05
-2.406759e-05
-3.504077e-05
-2.547874e-05
-2.586068e-05
-2.324948e-05
-7.065561e-06
-2.246629e-05
9.555324e-06
1.495211e-07
7.272935e-05
-0.0001142923
0.000736975
-0.0004993165
-3.985814e-05
-0.0001369284
-0.0001028086
-7.194439e-05
-9.405338e-05
-5.256683e-05
-6.793781e-05
-6.441883e-05
-4.747042e-05
-6.352444e-05
-4.721239e-05
-5.684979e-05
-2.400035e-05
-3.526725e-05
-2.520949e-05
-2.575305e-05
-2.326715e-05
-7.712265e-06
-2.224816e-05
9.382466e-06
1.200105e-06
6.766521e-05
-8.545635e-05
0.0006661248
-0.001156433
-0.0003252008
-0.0004081857
-0.0003378456
-0.0003123002
-0.0002914219
-0.0002776959
-0.000264187
-0.0002472257
-0.0002439845
-0.0002343381
-0.0002287066
-0.0002222205
-0.0002188888
-0.0002138694
-0.0002104954
-0.0002078223
-0.0002051419
-0.0002033577
-0.0002017086
-0.0001996564
-0.0001992284
-0.0001975967
-0.0001973445
-0.0001969918
-0.0001972731
-0.0001976689
-0.0001985828
-0.0001995779
-0.0002013735
-0.0002026564
-0.0002057096
-0.0002077185
-0.0002101851
-0.0002148571
-0.0002175037
-0.0002230757
-0.0002287093
-0.0002367741
-0.0002430026
-0.0002538441
-0.0002617152
-0.000281169
-0.0002885017
-0.0003193487
-0.0003281054
-0.0004260441
-0.0003005537
-0.001176608
0.0006655208
-8.799153e-05
7.910272e-05
2.536625e-07
1.536438e-05
-1.748287e-05
-5.113818e-06
-2.62725e-05
-1.710315e-05
-3.786725e-05
-3.980601e-05
-3.499833e-05
-5.461851e-05
-3.672454e-05
-5.6427e-05
-5.07822e-05
-7.331944e-05
-5.759962e-05
-7.473624e-05
-6.24242e-05
-9.240592e-05
-9.908101e-05
-0.0001604458
-5.306367e-06
-0.0004933855
0.0006029013
0.0001660294
0.0002522628
0.0002040297
0.0002062257
0.0001938364
0.0001836776
0.0001899527
0.0001795534
0.0001665259
0.0001881384
0.0001815751
0.0001781832
0.0001627387
0.0001812836
0.0001841923
0.0001778414
0.0001777193
0.0001790894
0.0001832295
0.0001751888
0.0001890267
0.0001799574
0.0001947609
0.000191851
0.0001979391
0.0002023011
0.000207649
0.0002100793
0.000224955
0.0002301557
0.0002471579
0.000267142
0.0002820222
0.0003957737
0.0004035357
0.0002829987
0.0002696197
0.0002492307
0.0002323361
0.0002271024
0.0002127728
0.0002099524
0.0002048543
0.0002004354
0.0001943382
0.0001971793
0.0001820356
0.0001912326
0.0001770233
0.0001842291
0.0001807607
0.0001773509
0.0001776844
0.0001834759
0.0001806392
0.0001621722
0.0001776947
0.0001809767
0.0001872234
0.0001654502
0.0001781685
0.0001884768
0.0001818675
0.0001952379
0.0002053147
0.0002099547
0.0002785921
0.0001276168
0.0006346225
0.000401205
0.0002898702
0.0002710898
0.0002510957
0.0002332868
0.0002277781
0.0002137616
0.0002102837
0.0002051253
0.0002006736
0.0001940487
0.0001972444
0.0001823002
0.0001911137
0.0001772817
0.0001836382
0.0001808322
0.0001774037
0.0001773445
0.0001831537
0.0001803608
0.0001620634
0.0001775759
0.0001801657
0.0001862048
0.000165332
0.0001774257
0.0001874831
0.0001814901
0.0001941545
0.0002043462
0.0002082937
0.0002730942
0.0001291288
0.0005920173
0.0005606954
0.0001663861
0.0002478564
0.0002022051
0.0002052561
0.0001926684
0.0001831822
0.0001889013
0.000178783
0.0001663908
0.0001871126
0.0001807657
0.0001780664
0.0001626222
0.0001809792
0.0001838261
0.000177454
0.0001777143
0.00017917
0.0001826711
0.000175467
0.0001889408
0.0001802393
0.0001948453
0.0001915885
0.000198197
0.0002025943
0.0002079911
0.0002111007
0.0002256571
0.0002311168
0.0002490212
0.0002686782
0.0002886296
0.0003941047
0.0005872825
-6.090917e-05
7.290253e-05
1.875958e-06
1.446437e-05
-1.735755e-05
-5.272298e-06
-2.618924e-05
-1.744706e-05
-3.756151e-05
-3.978418e-05
-3.451274e-05
-5.434252e-05
-3.657534e-05
-5.604637e-05
-5.04952e-05
-7.253423e-05
-5.683323e-05
-7.393711e-05
-6.219682e-05
-9.097713e-05
-9.756268e-05
-0.0001550468
-6.303299e-06
-0.0004530939
-0.001074501
-0.0003605054
-0.0004059211
-0.0003413032
-0.0003134448
-0.0002921743
-0.0002781623
-0.0002648037
-0.0002476916
-0.0002441125
-0.0002345443
-0.0002288614
-0.0002223134
-0.0002189193
-0.0002139314
-0.0002105221
-0.0002078422
-0.0002051345
-0.0002033251
-0.0002016842
-0.0001996395
-0.0001991929
-0.000197575
-0.0001973267
-0.0001969785
-0.0001972603
-0.000197654
-0.0001985665
-0.0001995685
-0.0002013604
-0.0002026635
-0.0002056942
-0.0002077144
-0.0002102134
-0.0002148786
-0.0002176024
-0.0002232408
-0.0002289273
-0.0002369643
-0.0002432748
-0.0002541384
-0.0002622778
-0.0002815939
-0.0002894728
-0.000320097
-0.0003322213
-0.000422664
-0.0003366644
-0.001096188
-0.0004579338
-4.010927e-05
-0.0001322731
-0.0001017169
-7.085711e-05
-9.272863e-05
-5.212074e-05
-6.719706e-05
-6.355193e-05
-4.736518e-05
-6.325271e-05
-4.684113e-05
-5.65249e-05
-2.388884e-05
-3.544864e-05
-2.490276e-05
-2.568244e-05
-2.334177e-05
-8.495065e-06
-2.208355e-05
9.020827e-06
2.517522e-06
6.195796e-05
-5.747798e-05
0.0005882406
-0.0004106349
-4.166129e-05
-0.0001256621
-0.0001008502
-6.990353e-05
-9.088278e-05
-5.154065e-05
-6.662942e-05
-6.222034e-05
-4.696369e-05
-6.304283e-05
-4.689872e-05
-5.595082e-05
-2.396275e-05
-3.526569e-05
-2.442738e-05
-2.569823e-05
-2.363694e-05
-9.775889e-06
-2.176827e-05
8.229353e-06
4.516537e-06
5.560726e-05
-3.085721e-05
0.0005015112
-0.0009792832
-0.0003942933
-0.0004035921
-0.0003452948
-0.0003147215
-0.0002930096
-0.0002787686
-0.0002654495
-0.0002482026
-0.0002442219
-0.0002347775
-0.0002290269
-0.0002224166
-0.0002189552
-0.0002139995
-0.000210543
-0.0002078607
-0.0002051214
-0.0002032864
-0.0002016525
-0.0001996198
-0.0001991475
-0.0001975437
-0.0001972988
-0.0001969574
-0.0001972406
-0.0001976301
-0.0001985405
-0.0001995488
-0.0002013447
-0.0002026687
-0.0002056773
-0.0002077054
-0.0002102312
-0.0002148921
-0.0002177251
-0.0002234266
-0.0002291781
-0.0002371769
-0.0002435876
-0.0002544543
-0.0002628944
-0.0002820085
-0.0002905784
-0.0003208484
-0.0003368835
-0.0004188731
-0.0003713112
-0.001002722
0.0005012947
-3.601206e-05
6.565731e-05
4.202842e-06
1.295456e-05
-1.729852e-05
-5.431968e-06
-2.570844e-05
-1.822147e-05
-3.721218e-05
-3.959874e-05
-3.360205e-05
-5.437313e-05
-3.642427e-05
-5.511659e-05
-5.06501e-05
-7.156584e-05
-5.560184e-05
-7.338824e-05
-6.196461e-05
-8.909465e-05
-9.645957e-05
-0.0001473196
-8.895129e-06
-0.0004070043
0.0005130401
0.0001685654
0.00024148
0.00020008
0.0002039863
0.0001913818
0.0001828185
0.0001875357
0.0001777621
0.000166092
0.0001861317
0.0001799677
0.0001778864
0.0001623668
0.0001806368
0.0001834632
0.0001769423
0.0001776827
0.0001792596
0.0001820004
0.0001757806
0.0001889355
0.0001807674
0.0001947227
0.0001912317
0.0001984718
0.0002029812
0.0002085505
0.0002123976
0.0002262981
0.000232211
0.0002509635
0.000270593
0.0002956375
0.0003878785
0.0003942238
0.000297126
0.0002729313
0.0002530401
0.0002343671
0.0002283892
0.0002150209
0.0002108295
0.0002054857
0.0002009265
0.0001936617
0.0001970994
0.0001828076
0.0001910746
0.0001775744
0.0001829417
0.0001809177
0.0001774264
0.0001768768
0.000182838
0.0001800445
0.0001618175
0.0001773957
0.0001793679
0.0001852335
0.0001650539
0.0001764398
0.000186167
0.0001812623
0.0001929275
0.00020301
0.0002065049
0.000265474
0.0001323091
0.0005432163
0.0003822716
0.0003038122
0.0002755626
0.0002549657
0.0002355612
0.0002286814
0.000216589
0.000211752
0.0002060377
0.0002012066
0.0001930824
0.0001965684
0.0001837692
0.000191335
0.0001780711
0.0001820801
0.0001808796
0.0001773852
0.0001762002
0.0001826797
0.0001797308
0.0001612535
0.000177184
0.0001787821
0.0001844898
0.0001644634
0.0001750935
0.0001843748
0.0001814619
0.0001916404
0.0002011195
0.0002048117
0.0002557513
0.0001371002
0.0004882175
0.0004587197
0.0001726317
0.0002329479
0.0001974942
0.0002024011
0.0001900803
0.000182851
0.0001857203
0.0001763728
0.0001654749
0.000185375
0.0001793785
0.0001776725
0.0001617929
0.0001803013
0.0001832549
0.0001762359
0.000177596
0.0001792186
0.0001811465
0.0001762964
0.0001892248
0.0001817489
0.0001942152
0.0001906837
0.0001987755
0.0002035649
0.0002094905
0.0002140051
0.0002266246
0.0002334232
0.0002528881
0.0002733061
0.0003021114
0.0003767726
0.0004070124
-1.585511e-05
5.742576e-05
7.669843e-06
1.05486e-05
-1.729098e-05
-5.565671e-06
-2.403732e-05
-1.999516e-05
-3.661644e-05
-3.907052e-05
-3.185247e-05
-5.488262e-05
-3.628921e-05
-5.298616e-05
-5.188343e-05
-7.033436e-05
-5.359318e-05
-7.35261e-05
-6.192009e-05
-8.682824e-05
-9.604809e-05
-0.0001370958
-1.303514e-05
-0.0003550425
-0.0008669397
-0.0004234858
-0.0004018157
-0.0003498579
-0.0003162336
-0.0002939823
-0.0002796332
-0.0002660959
-0.0002488441
-0.0002442765
-0.0002350362
-0.0002292164
-0.0002225382
-0.0002190054
-0.0002140802
-0.0002105553
-0.0002078804
-0.000205102
-0.000203239
-0.0002016147
-0.0001996007
-0.0001990857
-0.0001974948
-0.000197255
-0.000196924
-0.0001972139
-0.0001975903
-0.0001984964
-0.0001995078
-0.00020133
-0.0002026771
-0.0002056641
-0.0002076897
-0.0002102322
-0.0002148899
-0.0002179087
-0.0002236618
-0.0002294938
-0.0002374331
-0.0002439634
-0.0002548134
-0.0002635787
-0.0002823931
-0.000291944
-0.0003215965
-0.0003421972
-0.00041504
-0.0004009413
-0.0008925308
-0.0003566648
-4.39579e-05
-0.0001167502
-0.0001003298
-6.948883e-05
-8.8154e-05
-5.086655e-05
-6.631938e-05
-6.003828e-05
-4.604688e-05
-6.302767e-05
-4.773146e-05
-5.483002e-05
-2.444921e-05
-3.435057e-05
-2.356835e-05
-2.586504e-05
-2.437264e-05
-1.185234e-05
-2.099805e-05
6.860609e-06
7.371376e-06
4.875237e-05
-7.652083e-06
0.0004050217
-0.0002929758
-4.937598e-05
-0.000104317
-9.868533e-05
-6.603053e-05
-8.66811e-05
-4.940791e-05
-6.361214e-05
-5.936316e-05
-4.566788e-05
-6.272658e-05
-4.688712e-05
-5.464305e-05
-2.33586e-05
-3.46536e-05
-2.296752e-05
-2.603691e-05
-2.461715e-05
-1.220535e-05
-2.145252e-05
7.044779e-06
7.293708e-06
3.894812e-05
8.131909e-06
0.0002942334
-0.0007244657
-0.0004431447
-0.0003985664
-0.0003531852
-0.000317971
-0.0002948514
-0.0002802643
-0.0002670145
-0.000249504
-0.0002444309
-0.0002353324
-0.0002294017
-0.000222628
-0.0002190355
-0.0002141295
-0.0002105277
-0.0002078949
-0.0002050442
-0.0002031517
-0.0002015584
-0.0001995233
-0.0001990015
-0.0001974046
-0.0001971725
-0.0001968634
-0.0001971617
-0.0001975269
-0.0001984166
-0.0001994498
-0.0002012687
-0.0002026464
-0.0002056432
-0.0002076294
-0.0002102218
-0.0002149286
-0.0002180469
-0.0002238935
-0.0002298525
-0.0002377313
-0.0002443303
-0.0002551733
-0.0002643691
-0.0002831229
-0.0002933056
-0.000322741
-0.0003469593
-0.0004110897
-0.0004189631
-0.0007510402
0.0002932454
-1.817034e-07
4.851784e-05
8.916198e-06
1.000819e-05
-1.777341e-05
-6.218094e-06
-2.282723e-05
-2.034345e-05
-3.60855e-05
-3.937393e-05
-3.137138e-05
-5.348512e-05
-3.561552e-05
-5.187003e-05
-5.152964e-05
-6.959565e-05
-5.301261e-05
-7.135571e-05
-6.064742e-05
-8.375258e-05
-9.617605e-05
-0.000126189
-1.715387e-05
-0.0002955064
0.0003904229
0.0001769466
0.0002220198
0.0001943758
0.0002001992
0.0001881806
0.0001809939
0.0001850062
0.0001748663
0.0001637649
0.0001841101
0.0001794134
0.0001771784
0.0001601659
0.0001801084
0.0001838503
0.0001756527
0.0001771944
0.000178738
0.0001804111
0.0001768719
0.000189646
0.0001817284
0.0001945394
0.0001905013
0.0001992009
0.0002042827
0.0002101849
0.0002144866
0.0002276304
0.0002350596
0.000255234
0.0002763032
0.0003053847
0.0003638603
0.0003684265
0.0003072211
0.0002784552
0.0002572998
0.0002371689
0.0002296401
0.00021705
0.0002124223
0.0002067199
0.0002016076
0.0001928722
0.0001968699
0.0001837332
0.0001917417
0.0001786079
0.0001812799
0.0001803979
0.0001770726
0.0001756627
0.0001833484
0.000179563
0.0001596411
0.0001767008
0.0001788264
0.0001832351
0.0001627792
0.0001736198
0.0001836666
0.0001798251
0.0001895791
0.0001984736
0.000203482
0.0002451042
0.0001415746
0.0004275525
0.0003634257
0.0003021155
0.0002773336
0.0002619896
0.0002398768
0.0002376623
0.0002117246
0.0002097516
0.0002065639
0.0002022161
0.0001955485
0.0002033934
0.0001760673
0.0001900192
0.0001764792
0.0001820568
0.000179701
0.0001760384
0.0001769902
0.0001855306
0.0001795305
0.0001559702
0.000174553
0.0001791496
0.0001775827
0.0001583012
0.0001733215
0.0001901392
0.0001660088
0.000183805
0.0001944393
0.0002010295
0.0002341888
0.0001387297
0.0003597662
0.0002951521
0.000175664
0.0002074428
0.0001907236
0.0001955242
0.0001828674
0.0001669877
0.0001913103
0.0001746083
0.0001592913
0.0001784702
0.0001797198
0.0001749898
0.0001564469
0.0001799811
0.000185868
0.0001767062
0.0001758276
0.0001780792
0.0001816559
0.0001748849
0.0001879702
0.0001741324
0.0002011081
0.0001932177
0.0001998394
0.0002041639
0.0002075538
0.0002091388
0.0002357536
0.0002378226
0.0002599853
0.0002753325
0.0003003193
0.0003598679
0.0001317205
2.048756e-05
3.975153e-05
-9.324683e-06
2.296943e-05
-2.148498e-05
-8.994697e-06
-3.616134e-05
-5.701675e-06
-3.922427e-05
-4.562849e-05
-4.25798e-05
-4.138644e-05
-3.21656e-05
-6.504092e-05
-3.452982e-05
-7.255493e-05
-6.312311e-05
-5.29782e-05
-5.106963e-05
-7.75076e-05
-9.287179e-05
-0.0001198397
-1.545862e-05
-0.0002206481
-0.0005472716
-0.0004467005
-0.0003832008
-0.0003466527
-0.0003190543
-0.0002939441
-0.0002778451
-0.0002695127
-0.0002487102
-0.0002454356
-0.0002357192
-0.0002293508
-0.0002224087
-0.0002188357
-0.0002139231
-0.0002103503
-0.0002078341
-0.0002048234
-0.0002029272
-0.0002014072
-0.0001991377
-0.0001989192
-0.0001972383
-0.0001969955
-0.0001967467
-0.0001969989
-0.0001974512
-0.0001982941
-0.000199468
-0.0002009467
-0.000202365
-0.0002055164
-0.0002073795
-0.0002102183
-0.0002152496
-0.0002173972
-0.0002236686
-0.0002298819
-0.0002378606
-0.0002442025
-0.0002551304
-0.0002651564
-0.0002854991
-0.0002919
-0.0003258915
-0.0003431359
-0.0004051813
-0.0004183118
-0.0005670264
-0.0002133296
-7.102657e-05
-8.549303e-05
-8.9776e-05
-4.391703e-05
-9.640475e-05
-4.374409e-05
-4.934472e-05
-7.08778e-05
-5.046885e-05
-5.968863e-05
-3.392689e-05
-6.325136e-05
-1.183472e-05
-4.586196e-05
-2.646874e-05
-2.53832e-05
-1.994876e-05
-7.31004e-07
-3.269105e-05
1.753137e-05
-1.125198e-05
1.82307e-05
9.113401e-06
0.0001640534
-2.000713e-05
1.174817e-05
-1.025797e-05
-5.205416e-05
-0.0001359187
-3.628923e-05
-0.0002188772
-0.0002098102
-1.552219e-05
-0.0001934181
-2.200687e-05
-2.72294e-05
-9.976482e-06
-2.94056e-05
-2.389313e-05
-0.0001904241
-0.0002327152
9.263584e-05
7.221748e-05
3.520174e-05
-0.0001919833
-0.0001934685
-0.0001796231
0.0001210683
0.0001627034
-1.222116e-05
1.325028e-05
0.0001530029
0.000103696
-2.422837e-05
0.0001395728
-1.54701e-05
0.0001721458
0.0001744955
-5.691379e-05
-1.155248e-05
0.0001882739
-1.431545e-05
0.0001933776
9.309098e-05
-2.277122e-05
0.0001688418
1.181875e-06
-7.212468e-05
-2.024699e-05
-7.624859e-05
-0.0002122228
0.0001504079
-0.0001217781
-2.451691e-05
6.025108e-05
-9.540835e-05
-5.321167e-05
-3.346239e-05
8.127428e-05
-2.627683e-05
-1.911078e-05
0.0001043259
0.0001480439
-5.445512e-05
-3.55072e-05
-4.463415e-05
-7.883744e-06
9.259412e-05
-3.149286e-05
-5.421043e-05
-0.0001796184
-2.202902e-05
-2.465524e-05
-0.0001790786
-0.0001558887
0.0001272987
-7.953581e-05
-5.247275e-06
-0.0002343513
-3.528881e-05
-0.0001952054
-4.702278e-05
-0.0002472087
-0.0001103536
9.278841e-05
-2.853246e-05
-1.618962e-05
-8.064835e-06
-5.167275e-05
-0.0001948565
-1.595468e-05
-1.397774e-05
-1.229588e-06
-1.355116e-05
-1.244565e-05
-4.449054e-05
-1.358539e-05
-1.056673e-05
-1.578086e-05
-0.0001588312
-0.0001057917
-4.4713e-05
-1.362672e-05
-4.797159e-05
-2.409616e-05
0.0001492713
-5.450662e-06
-2.322241e-05
-8.343333e-05
-5.878537e-05
-1.791066e-05
0.0001222612
-1.274004e-05
-6.320139e-05
-2.575756e-05
-0.0001190247
-7.173466e-05
-4.626138e-05
-4.473321e-05
0.0001189305
-0.0002144798
-1.782944e-05
-4.835043e-05
0.0001875415
0.0002155926
-7.790592e-06
-8.531335e-05
-1.740704e-05
-1.552855e-05
-3.4196e-05
0.0001364837
-2.786852e-05
-1.201672e-05
-3.553822e-05
-1.216217e-05
0.0001776171
-1.13101e-05
-3.319409e-05
-6.253714e-05
0.0001046047
-3.277129e-05
-1.156447e-05
-3.834735e-05
0.0001422143
-8.00657e-05
0.0002315611
-2.17612e-05
-2.723169e-05
-1.24349e-05
-5.434326e-05
-0.0001505269
0.0001125394
-3.249001e-05
-1.883579e-05
-2.601559e-05
-2.123842e-06
-1.027286e-05
2.131285e-05
0.0001690934
-5.805601e-05
0.0002407966
-3.423646e-05
-5.685745e-05
-2.307943e-05
0.000186998
1.30131e-05
-7.069072e-05
1.090974e-05
-1.509867e-05
-4.360621e-05
7.840898e-05
-0.0001717141
-3.10615e-05
-4.255104e-05
-1.661383e-05
-0.0001111319
0.0001370447
-2.882833e-05
6.806872e-05
7.239859e-05
-3.461353e-05
-0.0001224628
-4.936308e-05
-0.0001005662
-3.538466e-05
-0.0001029984
0.0001581277
-1.30237e-05
-0.000202939
-0.0002177121
-2.14831e-05
-7.133761e-05
0.0001466275
-1.585893e-05
0.0001435823
-1.46191e-05
2.622335e-05
0.0001283762
-0.000126656
-2.125429e-05
-1.371046e-05
0.0001649313
0.000196962
-2.526525e-05
-2.130656e-05
-9.47655e-06
0.0001399295
-1.469553e-05
-1.650977e-05
-0.0001980728
-2.600763e-05
-7.787065e-05
-5.419563e-05
-2.806385e-05
0.0001022409
-1.350573e-05
-0.0001296752
3.458145e-05
3.235857e-05
-0.0001489337
-0.0001576767
4.971408e-05
0.0001694037
-9.94429e-06
-5.680637e-05
-0.0001949766
-1.805367e-05
-3.138402e-05
-5.983434e-05
-0.0001992819
0.000151073
4.139386e-05
-0.000144721
0.0001664723
-0.0002008158
-9.586276e-05
-0.0002307216
-0.0002567834
-4.464291e-05
-0.000201552
-2.139746e-05
-0.000216599
9.084492e-05
0.0001549778
0.0001035568
-7.278596e-05
-2.518026e-05
-2.870363e-05
1.098025e-05
-5.724657e-05
-2.797677e-05
-4.399612e-05
6.275132e-06
-7.96865e-06
-0.0001721761
9.096868e-06
-2.493736e-05
0.0001075706
-3.833578e-05
0.0002552987
-4.402921e-05
-1.41463e-05
-4.107542e-05
0.0001091555
-3.266022e-05
-1.400105e-05
0.000162029
-0.0002407743
-4.153908e-05
-2.456436e-05
-4.448089e-05
0.0001235092
0.0001487243
8.218881e-05
0.0001392655
-9.023482e-05
1.176393e-05
-0.0001897278
-4.513962e-05
-4.083201e-05
0.0002128165
-0.0002030704
-1.698018e-05
-0.0001858014
-0.0001174951
-3.591226e-05
-0.0002289026
-2.945947e-05
-1.771244e-05
-1.93557e-05
0.0001548279
-1.787255e-05
-8.953983e-05
5.216653e-06
0.0002203072
0.0001036858
-0.0001653908
-2.977332e-05
-0.0001519327
-1.297059e-05
-3.520157e-05
-4.219469e-05
-9.207017e-05
-0.0001877379
0.000202446
-2.480138e-05
-3.206151e-05
5.697462e-05
-1.885883e-05
-0.0001329995
-8.030049e-05
-0.0001207888
-4.069829e-05
-2.689463e-05
-2.208731e-05
0.0001550229
0.0001842441
0.0001728397
-0.00017219
-1.122549e-05
-2.187456e-05
8.000461e-06
-8.653779e-05
-5.375062e-05
-0.0001875361
1.050819e-05
0.0001323496
-4.795176e-05
1.948997e-06
-3.649624e-05
-0.0001345932
3.94202e-05
-0.0002471162
0.0001462902
-1.597836e-05
-0.0001856143
-1.433898e-05
-1.220871e-05
-1.141594e-05
-1.274089e-05
-1.575636e-05
-6.947717e-05
-4.331717e-05
-2.987918e-05
0.0001649732
-4.542798e-05
0.000119263
8.949567e-05
-6.585627e-06
-2.03897e-05
0.0001619235
0.0001338081
0.0001381054
0.0001245854
0.0001719201
-2.270614e-05
-3.708895e-05
-4.186405e-05
-9.859409e-05
-0.0001132804
0.0001932651
0.0001786091
0.0001786881
0.0001963371
-7.027675e-05
-0.0002156213
-0.0001757767
-2.461666e-05
-6.37345e-05
7.990204e-05
-2.768661e-05
-2.990462e-05
-3.628323e-05
-1.777435e-05
-1.646934e-05
3.549388e-05
-4.353402e-05
-5.297528e-05
-4.217596e-05
-2.921721e-05
-4.114516e-05
0.0002220475
-5.915433e-05
-1.515565e-05
-3.518874e-05
-3.452601e-05
-1.142205e-05
-4.213579e-06
0.0001528181
-3.330193e-05
-3.439121e-05
0.0001804297
0.0001625781
-0.0001970974
0.0001545086
2.404128e-05
-1.872444e-05
-2.767897e-05
0.0001606618
-2.278428e-05
-1.165731e-05
-0.0001336299
-1.338902e-05
-1.545879e-05
-1.293657e-05
3.118275e-05
9.161531e-06
0.000165117
0.0002137542
-2.925788e-05
7.471336e-05
-1.138489e-05
-0.0002002971
-0.0001917789
-0.0001727849
0.0001599226
-1.335519e-05
-0.0001982625
-1.159332e-05
0.0001208705
-2.717613e-05
-5.160795e-05
-2.924973e-05
-2.396229e-05
-2.373817e-05
-1.524457e-05
0.0001671819
9.533649e-05
-6.85491e-05
-3.513327e-05
-3.385415e-05
-2.005904e-05
-2.678168e-05
4.92308e-05
-2.50266e-05
-7.162932e-05
-9.200848e-05
-6.546141e-05
7.025561e-05
-0.0001924934
-3.361593e-05
-4.331497e-05
-1.968602e-05
-2.380709e-05
-2.856073e-05
-4.948033e-05
-7.843605e-05
0.000165225
-1.318853e-05
-1.851599e-06
-3.652681e-05
-4.317763e-05
-3.332572e-05
-1.495095e-05
-7.388432e-05
0.0001830281
1.81967e-05
-3.569145e-05
-4.021009e-05
-3.405587e-05
-2.201013e-05
-1.692203e-05
-2.303273e-05
-2.721114e-05
-1.386831e-05
-7.360717e-05
-1.514208e-05
9.216447e-05
-4.721067e-05
-8.190886e-05
-2.490414e-05
-5.194003e-05
-4.906522e-05
-1.161102e-05
0.0001771425
-2.327056e-05
-1.792814e-05
-0.0001769761
0.0001873796
-0.0001915008
-0.0001908972
-1.275937e-05
-2.121196e-05
0.0001083766
-1.316314e-05
-1.40902e-05
0.0001242586
-4.009352e-05
0.000180174
0.0001886108
-0.0001883294
0.0001337356
0.0001732895
0.0001510683
-0.0001777896
0.0001544286
-1.803517e-05
0.0001264972
-2.549906e-05
-8.481845e-05
-1.70752e-05
-3.658113e-05
0.0001464117
6.434287e-06
-2.20324e-05
-0.0001100414
7.984831e-05
-0.0001427904
-3.110859e-05
0.0001472439
0.0001684397
-6.704276e-05
8.844466e-05
0.0001133996
-8.982781e-05
4.433027e-06
-2.435535e-05
-1.492367e-05
-1.378696e-05
-7.453745e-05
-3.830563e-05
4.220606e-05
0.0002180531
-2.52779e-05
-4.784998e-05
0.0002156091
0.000147939
-2.701019e-05
0.0001017295
-0.0001302748
-3.718571e-05
-5.610954e-05
-0.000136394
-2.565703e-06
0.0001760539
0.0001853329
0.0001776903
-9.120153e-05
-3.443582e-05
-4.386006e-05
-2.482803e-05
-2.493552e-05
-1.976565e-05
-1.632187e-05
-1.657062e-05
-1.721384e-05
-1.463515e-05
-1.296692e-05
-5.908197e-05
-0.0002000078
-0.0002902095
-0.0001020841
6.968175e-05
-2.432032e-05
-2.742856e-05
-2.7211e-05
0.0002298885
-1.066468e-05
-2.264183e-05
-1.214431e-05
-1.081599e-05
-1.036783e-05
1.668102e-05
-0.0002511423
-8.641109e-05
-1.340313e-06
-5.573447e-05
-5.744364e-05
3.290128e-05
9.215586e-05
-5.778646e-05
-6.330358e-05
-0.0001053558
0.0001582528
-3.878189e-05
-2.023317e-05
-1.418891e-05
-3.452652e-05
-0.00021094
-2.942053e-05
0.0001458807
0.0001538781
-1.101538e-05
-6.059948e-05
-5.945643e-05
2.341182e-05
2.895401e-06
-2.970725e-05
0.0001592343
-1.639131e-05
9.169319e-05
-9.093784e-06
0.0001123643
0.000143771
2.288511e-05
6.370873e-06
4.136947e-06
-0.0001377764
9.038078e-05
0.0001349249
-3.104057e-05
0.0001190976
-1.085472e-05
-1.948421e-05
-0.0001920631
4.435229e-05
-0.0001321983
-3.659737e-05
-2.025463e-05
-0.0002168725
7.998371e-05
0.0002098328
-0.0002411474
-1.332481e-05
-2.350473e-05
-6.655617e-05
3.492139e-05
-3.301937e-05
-1.95207e-05
-1.847719e-05
-3.197752e-05
-0.0001892541
-0.0001028958
-0.0001489592
-0.000194724
-0.0001872241
-2.302661e-05
5.683192e-05
5.037522e-05
1.312341e-06
0.0001066762
0.0002304738
0.0001347335
-1.685437e-05
-1.966295e-05
-1.142799e-05
-1.199063e-05
-1.486237e-05
-1.053008e-05
-1.549059e-05
0.0001381508
-2.369765e-05
0.0002233648
-1.040372e-05
-2.848474e-05
-4.131787e-05
0.0001033966
-3.262313e-05
-3.513497e-05
-0.0002214475
-0.0001476239
-0.0002274734
-0.0001602955
0.000100069
-0.0003053411
-3.127457e-05
-2.863911e-05
-6.496465e-05
-4.093979e-05
-0.0001478082
-0.0001826788
-0.000124982
0.0001220054
-0.0001995083
-3.893305e-05
-4.17146e-05
3.455529e-06
-3.368525e-05
0.0001351819
-4.779787e-05
-3.898943e-05
-0.0002096774
-2.270225e-05
-3.042524e-05
-0.0001247053
-4.233276e-05
-1.700713e-05
-0.0001319011
-2.137249e-05
9.184964e-05
-2.57701e-05
-2.8603e-05
-2.213636e-05
0.0001828779
-0.0001523178
-1.115544e-05
-1.040443e-05
4.472899e-05
-0.0001287348
-0.0001416752
-9.417737e-06
-4.291647e-05
9.38333e-05
-1.939767e-05
-0.0001779833
-2.48415e-05
-2.557366e-05
-6.766805e-05
-0.0002252093
-0.0002279973
0.0001505117
-4.459756e-05
-3.30072e-05
0.0001604406
-0.0001181069
0.000120919
-4.199223e-05
-6.916669e-05
0.0001461248
-0.0001957709
-2.1455e-05
6.062295e-06
-2.078493e-05
-0.0002026874
-1.142193e-05
-1.006065e-05
0.0001620362
0.0001260374
0.0001423646
0.0001440915
0.0001620498
0.0001869716
-1.179567e-05
1.702659e-05
-4.175776e-06
-3.346017e-05
-3.006624e-05
-3.481824e-05
-3.144108e-05
-0.0001917012
-1.27621e-05
-1.177893e-05
-2.501423e-05
-3.270887e-05
0.0002099312
0.0001967703
0.0001455368
0.0001575885
-3.273901e-05
-5.68211e-05
-2.427638e-05
-2.347407e-05
9.23826e-05
-2.29072e-05
-5.585167e-06
-1.515166e-06
-4.652662e-05
0.0001449011
0.0001811743
-1.541164e-05
-1.240104e-05
5.077138e-05
-5.739913e-05
-0.0001614983
-2.367841e-05
9.184694e-05
-9.716249e-06
-3.626386e-05
-1.793187e-05
-7.960096e-05
-1.407917e-05
7.83237e-05
-0.0001652864
0.0002130033
-2.980992e-05
9.111516e-05
4.184585e-05
4.761855e-05
-0.0001940704
-4.229159e-05
-0.0002230079
4.377261e-06
-3.14563e-05
-0.0001099293
-5.45085e-05
-1.575968e-05
-1.043385e-05
-2.556677e-05
-1.741312e-05
-2.220218e-05
5.581383e-05
0.0001066153
-6.082329e-05
-9.336628e-05
-2.532713e-05
4.769517e-05
-8.209477e-05
-0.0002007415
-4.106138e-05
-1.477056e-05
-0.0001733174
4.723149e-05
-1.147494e-05
2.62192e-06
-2.525997e-05
-4.361525e-05
0.0002176264
0.000191563
0.0002131512
0.0001781919
-0.0001994204
-1.412392e-05
2.306516e-05
-4.414867e-05
-0.0001463449
-1.505617e-05
-4.27839e-05