/*--------------------------------*- C++ -*----------------------------------*\
| =========                 |                                                 |
| \\      /  F ield         | OpenFOAM: The Open Source CFD Toolbox           |
|  \\    /   O peration     | Version:  2406                                  |
|   \\  /    A nd           | Website:  www.openfoam.com                      |
|    \\/     M anipulation  |                                                 |
\*---------------------------------------------------------------------------*/
FoamFile
{
    version     2.0;
    format      ascii;
    arch        "LSB;label=32;scalar=64";
    class       surfaceScalarField;
    location    "4.76";
    object      phi;
}
// * * * * * * * * * * * * * * * * * * * * * * * * * * * * * * * * * * * * * //

dimensions      [0 3 -1 0 0 0 0];

oriented        oriented;

internalField   nonuniform List<scalar> 
23794
(
-0.002323515
0.002930757
-0.0006072417
-0.001655154
-0.0006683609
-0.0009514603
-0.0007036941
-0.0002224256
-0.0007290348
0.0002070335
-0.0004294591
0.0004350631
-0.0002280296
0.0004809345
-4.587137e-05
0.0007931198
-0.0003121853
0.001664269
-0.000871149
0.002142845
-0.0004785759
0.001566487
0.0005763577
0.0001758556
0.001390631
-0.001239938
0.001415794
-0.001408882
0.0001689433
-0.0004108102
-0.0009980715
0.0005257231
-0.0009365333
0.001041581
-0.0005158581
0.0007784274
0.0002631538
-0.0004525821
0.00123101
-0.001983057
0.001530475
-0.003110807
0.001127749
-0.003195043
8.423597e-05
-0.001688061
-0.001506981
0.0005108254
-0.002198887
0.002121949
-0.001611124
0.00342427
-0.001302321
0.00549821
-0.002073939
0.008687817
-0.003189608
0.01120895
-0.002521137
0.009160913
0.002048041
0.0005734892
0.008587424
-0.005546944
0.006120433
-0.002486541
-0.003060403
0.001911718
-0.004398259
0.004949505
-0.003037788
0.005795473
-0.0008459677
0.003898885
0.001896588
0.001447336
0.002451549
-0.002565827
0.004013163
-0.007545993
0.004980166
-0.01094764
0.003401647
-0.01268804
0.001740405
-0.01359976
0.0009117145
-0.01413928
0.0005395191
-0.01448724
0.0003479573
-0.01462461
0.0001373759
-0.01465442
2.980451e-05
-0.01462495
-2.946359e-05
-0.01454452
-8.043321e-05
-0.01444669
-9.783281e-05
-0.01429005
-0.0001566353
-0.01409308
-0.0001969687
-0.01383812
-0.0002549621
-0.0135594
-0.0002787218
-0.01326282
-0.0002965769
-0.01291307
-0.0003497554
-0.01254393
-0.0003691394
-0.01216622
-0.0003777047
-0.01172545
-0.0004407683
-0.0112622
-0.0004632581
-0.01077436
-0.0004878351
-0.01027977
-0.0004945939
-0.009763756
-0.0005160106
-0.009200086
-0.0005636699
-0.008643348
-0.0005567385
-0.008046143
-0.0005972043
-0.007431677
-0.0006144666
-0.006810642
-0.0006210346
-0.006181621
-0.0006290211
-0.005522483
-0.0006591381
-0.004861213
-0.0006612703
-0.004191381
-0.0006698317
-0.00350704
-0.0006843414
-0.002820614
-0.0006864255
-0.00215267
-0.0006679442
-0.001441351
-0.0007113185
-0.0007575714
-0.00068378
-0.000111291
-0.0006462804
0.0005186088
-0.0006298998
0.001267993
-0.0007493837
0.002005604
-0.0007376119
0.00272716
-0.0007215557
0.003433854
-0.0007066934
0.004122587
-0.0006887332
0.004808651
-0.0006860642
0.005472029
-0.0006633783
0.006146083
-0.0006740537
0.006799477
-0.0006533944
0.007416735
-0.0006172574
0.00803748
-0.0006207456
0.008645298
-0.0006078181
0.009229822
-0.0005845233
0.009810335
-0.000580513
0.01037662
-0.0005662895
0.01088844
-0.0005118176
0.01139599
-0.0005075436
0.01188793
-0.0004919397
0.01233869
-0.0004507602
0.01278966
-0.0004509723
0.01318745
-0.0003977955
0.01355792
-0.0003704701
0.01388891
-0.0003309831
0.0141765
-0.0002875886
0.01445891
-0.0002824113
0.01470335
-0.0002444466
0.01490774
-0.0002043897
0.01506852
-0.0001607759
0.01518587
-0.0001173482
0.01527155
-8.568323e-05
0.01529252
-2.096536e-05
0.01527519
1.732561e-05
0.01515737
0.0001178207
0.01485785
0.0002995222
0.01438831
0.0004695359
0.01371367
0.0006746375
0.01267149
0.001042187
0.01082517
0.001846318
0.007444731
0.003380438
0.002498436
0.004946295
-0.0008252884
0.003323724
0.0006659562
-0.001491245
0.00193
-0.001264043
-0.002898456
0.004828455
-0.01002293
0.007124477
-0.01085059
0.0008276566
-0.007242527
-0.003608063
-0.004468056
-0.00277447
-0.003081029
-0.001387028
-0.001815483
-0.001265546
0.0009641845
-0.002779667
0.003963454
-0.00299927
0.003071203
0.0008922518
-0.001276562
0.004347765
-0.005345949
0.004069386
-0.0067214
0.001375452
-0.005800844
-0.0009205567
-0.003090677
-0.002710166
-0.0002671854
-0.002823492
0.0006288414
-0.0008960268
0.0002593349
0.0003695065
0.0003590038
-9.966891e-05
0.001227755
-0.0008687511
0.00338636
-0.002158605
0.005497642
-0.002111282
0.006174369
-0.0006767263
0.004687619
0.001486749
0.001167874
0.003519745
-0.002038715
0.003206589
-0.003550842
0.001512126
-0.002803056
-0.0007477856
-0.000222221
-0.002580835
0.001512896
-0.001735117
0.00168629
-0.000173394
0.0002851824
0.001401107
-0.001938974
0.002224156
-0.003076649
0.001137675
-0.0001458919
-0.003096572
0.003852745
-0.001363414
-0.002193142
-0.001571791
-0.001293318
-0.001603518
-0.000415926
-0.001606427
2.529036e-05
-0.0008706754
0.0001749954
-0.0003777347
0.0002314923
-0.0001023682
0.0006536159
-0.0007343089
0.001594694
-0.001812227
0.002366775
-0.001250656
0.00188616
0.001056973
-0.0005697361
0.003846527
-0.002408136
0.003254194
-0.001906465
-0.0003327278
-0.0005099123
-0.002394624
0.0006960152
-0.002142461
0.001252787
-0.00107263
0.0008810524
0.0006348881
-0.0006590763
0.002771138
-0.003135104
0.004006503
-0.004980046
0.002972691
-0.004447759
-0.0004480507
-0.001858416
-0.004096324
0.0007940686
-0.004851372
0.002380432
-0.003197487
0.003680678
-0.002602566
0.005825244
-0.004218505
0.00927183
-0.006636194
0.01209107
-0.005340375
0.01197936
0.002159752
0.003959402
0.01660738
-0.004703577
0.01478341
-0.004384587
-0.003379393
-0.002155018
-0.006627827
-0.0009255053
-0.0042673
0.001717803
-0.003489276
0.0007621626
0.002852229
-0.00674828
0.009961992
-0.01471573
0.01198061
-0.01934252
0.009606957
-0.02087251
0.00493164
-0.02117354
0.00204143
-0.02121819
0.0009563679
-0.02117741
0.0004987365
-0.02109777
0.0002683256
-0.02091221
-4.81916e-05
-0.02071208
-0.0001703259
-0.02050118
-0.0002403598
-0.02024372
-0.0003378894
-0.01996909
-0.0003724678
-0.01963409
-0.0004916365
-0.01925938
-0.0005716785
-0.01882206
-0.0006922796
-0.01835998
-0.0007407994
-0.01788566
-0.000770901
-0.01735396
-0.0008814497
-0.01679871
-0.0009243892
-0.0162388
-0.0009376212
-0.01560655
-0.001073019
-0.01495294
-0.001116865
-0.01427092
-0.001169858
-0.01358059
-0.001184923
-0.01287116
-0.001225441
-0.01210471
-0.001330116
-0.01134837
-0.001313082
-0.01054967
-0.001395902
-0.009728774
-0.001435364
-0.008903499
-0.00144631
-0.008072956
-0.001459564
-0.007205673
-0.001526421
-0.006334978
-0.001531966
-0.005456633
-0.001548176
-0.004562353
-0.001578621
-0.003668028
-0.001580751
-0.002792779
-0.001543194
-0.001872985
-0.001631112
-0.0009835866
-0.001573178
-0.0001357469
-0.00149412
0.000693254
-0.001458901
0.001658071
-0.0017142
0.002614196
-0.001693738
0.003552987
-0.001660346
0.004472761
-0.001626467
0.005373928
-0.0015899
0.006273722
-0.001585859
0.007147447
-0.001537102
0.008033717
-0.001560324
0.008897015
-0.001516692
0.009716395
-0.001436638
0.01054225
-0.001446604
0.01135741
-0.001422976
0.01214339
-0.001370505
0.01292557
-0.001362686
0.0136958
-0.001336524
0.01440189
-0.001217913
0.01510734
-0.001212992
0.01579546
-0.00118006
0.01643765
-0.001092947
0.01708228
-0.001095604
0.01766463
-0.0009801421
0.01822381
-0.0009296495
0.01873886
-0.0008460343
0.01920638
-0.0007551128
0.01967523
-0.0007512586
0.02010386
-0.0006730798
0.02048886
-0.0005893845
0.02082961
-0.0005015273
0.02112586
-0.0004135975
0.02139178
-0.0003516062
0.02159386
-0.0002230458
0.02179917
-0.0001879853
0.02198281
-6.581206e-05
0.02207551
0.000206818
0.02211177
0.0004332749
0.02209586
0.0006905481
0.02197128
0.00116677
0.02151883
0.00229877
0.0198636
0.005035667
0.01582657
0.008983321
0.0107883
0.008361995
0.005602944
0.003694113
0.0005925396
0.003746361
-0.005892731
0.01131373
-0.009878614
0.01111036
-0.00823108
-0.0008198772
-0.004489108
-0.007350036
-0.001591084
-0.005672494
-0.0005952068
-0.002382905
0.0001965901
-0.002057343
0.00251261
-0.005095687
0.005500077
-0.005986738
0.002204407
0.004187922
-0.00455624
0.01110841
-0.00836035
0.007873495
-0.008962932
0.001978034
-0.007666598
-0.002216891
-0.004451126
-0.005925638
-0.0005552072
-0.00671941
0.001712158
-0.003163392
0.001548026
0.0005336381
0.0007928356
0.0006555217
0.001385702
-0.001461618
0.004055212
-0.004828115
0.006665757
-0.004721828
0.008020551
-0.00203152
0.007839697
0.001667604
0.00440349
0.006955953
-0.001311964
0.008922043
-0.004145739
0.004345902
-0.002556124
-0.002337402
0.0001565093
-0.005293468
0.001770069
-0.003348677
0.001352161
0.0002445141
-0.001668533
0.004421802
-0.004353575
0.004909198
-0.004493568
0.001277668
-0.0007867149
-0.003710197
0.004680828
-0.002334046
-0.002601891
-0.002680096
-0.00145905
-0.002746359
-0.000331579
-0.002733898
0.0002419669
-0.001444221
0.000329585
-0.0004653528
0.000238035
-1.081819e-05
0.000530953
-0.001027227
0.00124799
-0.002529264
0.0019538
-0.001956466
0.001074101
0.001936672
-0.001840542
0.00676117
-0.003021775
0.004435426
-0.001985659
-0.001368844
-0.000446994
-0.003933289
0.001117526
-0.003706981
0.001972746
-0.00192785
0.001513604
0.001094031
-0.0003410186
0.004625761
-0.003163479
0.006828963
-0.005201017
0.005010229
-0.004454809
-0.001194259
-0.00166538
-0.006885752
0.0006137011
-0.007130453
0.001656879
-0.004240665
0.002617356
-0.003563044
0.00464177
-0.006242919
0.008459489
-0.01045391
0.01175244
-0.008633331
0.01203437
0.001877821
0.005793869
0.02284789
-0.003261185
0.02383847
-0.008410445
0.001769868
-0.01085214
-0.004186134
-0.01117789
-0.00394155
-0.01097749
-0.003689673
-0.01377623
0.005650962
-0.01972967
0.01591544
-0.02430543
0.01655637
-0.02511263
0.01041416
-0.02484436
0.004663365
-0.0248406
0.002037665
-0.02491933
0.001035106
-0.02495995
0.000539353
-0.02495688
0.0002652554
-0.02480102
-0.0002040463
-0.02459392
-0.0003774322
-0.02435486
-0.0004794216
-0.02405832
-0.0006344297
-0.02374397
-0.0006868139
-0.02335462
-0.000880985
-0.02291901
-0.001007292
-0.02240754
-0.001203751
-0.02186545
-0.001282882
-0.02131002
-0.001326335
-0.0206832
-0.001508271
-0.0200282
-0.001579388
-0.01936903
-0.00159679
-0.01862044
-0.001821612
-0.01784648
-0.001890824
-0.01703814
-0.001978201
-0.01621956
-0.002003503
-0.01537808
-0.002066918
-0.01446607
-0.00224213
-0.01356728
-0.002211868
-0.01261531
-0.002347869
-0.01163697
-0.002413708
-0.01065261
-0.002430668
-0.009661508
-0.002450667
-0.0086258
-0.002562128
-0.007585615
-0.002572151
-0.006535218
-0.002598574
-0.00546596
-0.002647879
-0.004395312
-0.002651398
-0.003345784
-0.002592722
-0.002245273
-0.002731622
-0.001178945
-0.002639507
-0.0001587465
-0.002514318
0.0008428005
-0.002460448
0.00199643
-0.00286783
0.003141622
-0.00283893
0.00426627
-0.002784993
0.005366609
-0.002726806
0.00644418
-0.002667472
0.00751927
-0.002660949
0.008561958
-0.002579791
0.00961925
-0.002617615
0.01064767
-0.002545116
0.0116231
-0.002412066
0.01260612
-0.002429626
0.0135751
-0.00239195
0.01450867
-0.002304075
0.01543778
-0.002291795
0.01635169
-0.002250437
0.01718782
-0.002054039
0.0180238
-0.002048977
0.01883814
-0.001994395
0.01959601
-0.00185082
0.02035873
-0.001858329
0.02104423
-0.001665636
0.02170302
-0.001588442
0.02230772
-0.001450736
0.02285352
-0.001300905
0.02340233
-0.001300077
0.02390107
-0.001171816
0.02434833
-0.001036649
0.0247415
-0.0008946961
0.02508125
-0.0007533417
0.02538487
-0.0006552334
0.02561147
-0.0004496426
0.02582795
-0.0004044651
0.02598419
-0.0002220502
0.02600749
0.0001835128
0.02595993
0.0004808364
0.02587824
0.0007722388
0.02578194
0.001263075
0.02575659
0.002324117
0.02593446
0.004857798
0.02542572
0.009492059
0.02298299
0.01080473
0.01643097
0.01024613
0.005730091
0.01444724
-0.003750284
0.0207941
-0.006125017
0.01348509
-0.00372554
-0.003219355
0.0002764081
-0.01135198
0.003661971
-0.009058057
0.004713577
-0.00343451
0.004311015
-0.001654781
0.004938454
-0.005723126
0.00583109
-0.006879373
0.0002680382
0.009750975
-0.006844515
0.01822097
-0.01017435
0.01120333
-0.01084545
0.002649132
-0.00944055
-0.003621788
-0.005850955
-0.009515234
-0.001349864
-0.0112205
0.00182682
-0.006340076
0.001995822
0.0003646369
0.0008846532
0.00176669
0.001604928
-0.002181892
0.004784138
-0.008007325
0.00793491
-0.0078726
0.009412489
-0.003509099
0.009439815
0.001640277
0.00713179
0.009263977
0.0015483
0.01450553
-0.002485244
0.008379445
-0.00167768
-0.003144966
1.827664e-05
-0.006989424
9.298372e-05
-0.003423384
-0.001505867
0.001843365
-0.004531299
0.007447234
-0.005838563
0.006216462
-0.005313936
0.0007530411
-0.001419823
-0.004663743
0.005853377
-0.003523681
-0.003311563
-0.004032276
-0.001879165
-0.004178758
-0.0003912801
-0.004221782
0.0005040386
-0.00233954
0.0007078522
-0.0006691664
0.0004086465
0.0002883875
0.0002966167
-0.0009151971
0.0003990827
-0.00263173
0.0004452931
-0.002002677
-0.0009877083
0.003369674
-0.003391835
0.009165297
-0.003657226
0.004700817
-0.002365894
-0.002660176
-0.0005728734
-0.005726309
0.001296477
-0.005576331
0.002530555
-0.003161928
0.00239785
0.001226735
0.0004216616
0.006601949
-0.002442675
0.0096933
-0.004533292
0.007100847
-0.003927889
-0.001799662
-0.001696462
-0.009117179
-0.0004643389
-0.008362576
-0.0004218153
-0.004283188
0.0002161923
-0.004201051
0.002262179
-0.008288905
0.006797447
-0.01498918
0.01073422
-0.0125701
0.01051646
0.002095583
0.005056935
0.02830741
-0.004862317
0.03375772
-0.0159326
0.01284015
-0.02273263
0.002613896
-0.0250144
-0.001659782
-0.02650432
-0.002199753
-0.02847554
0.007622188
-0.03020579
0.01764569
-0.03032371
0.01667429
-0.02963797
0.009728412
-0.02969667
0.00472207
-0.02999858
0.002339572
-0.03017929
0.001215813
-0.03023633
0.0005963979
-0.03022464
0.0002535667
-0.03000971
-0.0004189801
-0.02973492
-0.0006522237
-0.0294244
-0.0007899368
-0.02904457
-0.001014267
-0.02864761
-0.001083773
-0.02816313
-0.001365466
-0.02762459
-0.001545825
-0.02699608
-0.001832267
-0.02633189
-0.001947064
-0.02565306
-0.002005164
-0.02489062
-0.002270716
-0.02409462
-0.002375386
-0.02329436
-0.002397053
-0.02239034
-0.002725633
-0.02145415
-0.002827016
-0.02047786
-0.002954486
-0.01949077
-0.002990596
-0.0184776
-0.003080081
-0.01737874
-0.003340996
-0.0162986
-0.003292005
-0.01515353
-0.003492936
-0.01397867
-0.003588572
-0.0127957
-0.003613635
-0.01160556
-0.003640813
-0.01036228
-0.003805403
-0.009113827
-0.003820605
-0.007852926
-0.003859475
-0.006571202
-0.003929603
-0.005285206
-0.003937394
-0.004024365
-0.003853564
-0.0027011
-0.004054887
-0.001416626
-0.003923981
-0.0001823326
-0.003748611
0.001032849
-0.003675629
0.002417249
-0.00425223
0.003790746
-0.004212427
0.005141998
-0.004136245
0.006461427
-0.004046236
0.007751668
-0.003957713
0.009037821
-0.003947101
0.01028466
-0.003826632
0.01155154
-0.003884497
0.01278162
-0.003775188
0.01395149
-0.003581945
0.01513214
-0.003610269
0.01629434
-0.003554149
0.01741769
-0.003427424
0.01853775
-0.003411857
0.01963688
-0.003349569
0.02064661
-0.003063771
0.02165707
-0.003059433
0.02264058
-0.002977912
0.02355888
-0.002769121
0.02448361
-0.00278305
0.02531684
-0.002498871
0.02611818
-0.002389781
0.02685587
-0.002188427
0.02752658
-0.001971617
0.02820081
-0.001974303
0.02881519
-0.0017862
0.0293709
-0.001592358
0.02986096
-0.001384758
0.03029121
-0.001183592
0.03068026
-0.001044283
0.03097751
-0.0007468903
0.03126638
-0.0006933353
0.03148411
-0.0004397765
0.03152908
0.0001385409
0.0314699
0.0005400193
0.03132819
0.000913948
0.03109453
0.001496729
0.03072717
0.002691476
0.03063016
0.004954811
0.03103277
0.00908945
0.03084101
0.01099649
0.02699954
0.0140876
0.01528651
0.02616026
0.003260361
0.03282025
0.0006252988
0.01612016
0.003102229
-0.005696285
0.007447946
-0.0156977
0.01064176
-0.01225187
0.01135381
-0.00414656
0.01005237
-0.000353336
0.008443818
-0.004114578
0.006167615
-0.004603171
-0.00107066
0.01698925
-0.008352937
0.02550324
-0.01171823
0.01456863
-0.01252017
0.003451072
-0.01100073
-0.005141232
-0.007179102
-0.01333686
-0.002558404
-0.0158412
0.001075706
-0.009974186
0.001433904
6.439305e-06
0.0004637519
0.002736842
0.001892938
-0.003611078
0.005620942
-0.01173533
0.009296393
-0.01154805
0.01106248
-0.005275184
0.01096126
0.001741499
0.009219053
0.01100618
0.005017838
0.01870675
0.0007231072
0.01267418
-0.0002239389
-0.002197919
-0.0007620673
-0.006451296
-0.002667409
-0.001518042
-0.005421953
0.004597909
-0.007242689
0.00926797
-0.007180785
0.006154559
-0.006527344
9.959949e-05
-0.002093789
-0.005946926
0.007338985
-0.004915739
-0.004333849
-0.005645353
-0.002592283
-0.005920324
-0.0006682169
-0.006145848
0.0006216232
-0.00362938
0.001118314
-0.001165857
0.0006577475
0.0007489541
-0.0001784271
-7.902245e-05
-0.0009022348
-0.001907923
-0.001908363
-0.0009965482
-0.003707297
0.005168607
-0.00487918
0.01033718
-0.004409556
0.004231193
-0.002985012
-0.00408472
-0.0007021413
-0.00800918
0.001475389
-0.007753862
0.00293442
-0.004620959
0.00316033
0.001000825
0.001472964
0.008289316
-0.001274418
0.01244068
-0.003551122
0.009377551
-0.003417608
-0.001933176
-0.002480458
-0.01005433
-0.00293147
-0.007911564
-0.004220306
-0.002994352
-0.004286275
-0.004135083
-0.001594425
-0.01098075
0.003362046
-0.01994565
0.007472934
-0.01668099
0.00671573
0.002852786
0.00183628
0.03318686
-0.009627067
0.04522107
-0.02403256
0.02724564
-0.03189885
0.01048019
-0.03467995
0.001121314
-0.03690913
2.942795e-05
-0.03790922
0.008622275
-0.03691048
0.01664695
-0.03545645
0.01522026
-0.03505491
0.00932688
-0.03538146
0.005048612
-0.03569854
0.002656654
-0.03591832
0.001435595
-0.03600871
0.0006867915
-0.03602792
0.0002727695
-0.03579355
-0.0006533426
-0.03549098
-0.0009547932
-0.03514301
-0.001137913
-0.03469894
-0.00145834
-0.03424986
-0.001532848
-0.03367951
-0.001935817
-0.03305077
-0.002174561
-0.03230626
-0.00257678
-0.03151978
-0.002733549
-0.03071913
-0.002805809
-0.02981033
-0.00317952
-0.02886186
-0.003323852
-0.02791188
-0.003347033
-0.02683378
-0.003803737
-0.02571392
-0.003946871
-0.02454684
-0.004121571
-0.02336917
-0.004168259
-0.02215972
-0.004289533
-0.02084121
-0.004659508
-0.01955234
-0.004580878
-0.01817952
-0.004865757
-0.01677444
-0.004993646
-0.0153574
-0.005030681
-0.01393415
-0.005064056
-0.01244372
-0.005295835
-0.01094726
-0.005317061
-0.00943373
-0.00537301
-0.007898867
-0.005464466
-0.006356331
-0.005479931
-0.004845081
-0.005364814
-0.003252318
-0.005647649
-0.001702036
-0.005474263
-0.0002054641
-0.005245183
0.001269019
-0.005150112
0.002930976
-0.005914187
0.004576866
-0.005858316
0.006197928
-0.005757308
0.007772801
-0.005621108
0.009309908
-0.00549482
0.01084412
-0.005481317
0.012332
-0.005314506
0.01385024
-0.005402738
0.01531855
-0.005243498
0.01672165
-0.00498505
0.01814047
-0.005029087
0.0195287
-0.004942376
0.02087575
-0.004774478
0.0222238
-0.004759903
0.02353706
-0.004662835
0.02474567
-0.004272376
0.02595739
-0.004271154
0.02713281
-0.00415333
0.02822687
-0.003863178
0.02933456
-0.003890748
0.03032629
-0.003490599
0.0312797
-0.00334319
0.0321553
-0.003064025
0.032947
-0.00276332
0.03374625
-0.002773553
0.03446603
-0.002505979
0.03512054
-0.002246863
0.03568911
-0.001953337
0.03618555
-0.001680027
0.03663645
-0.001495179
0.03696173
-0.001072174
0.03728551
-0.001017117
0.03751438
-0.0006686454
0.03754041
0.0001125153
0.0374343
0.0006461278
0.03724803
0.001100218
0.03697274
0.001772019
0.03654687
0.003117342
0.0361912
0.005310485
0.03618286
0.00909779
0.03610163
0.01107772
0.03522489
0.01496434
0.02795361
0.03343154
0.01651962
0.04425424
0.01110895
0.02153083
0.01333635
-0.007923685
0.01767822
-0.02003957
0.019952
-0.01452565
0.01986337
-0.00405793
0.01746047
0.002049563
0.01326789
7.800189e-05
0.007235979
0.001428741
-0.001936245
0.02616147
-0.009172947
0.03273994
-0.01285283
0.01824851
-0.01386469
0.004462927
-0.01240244
-0.006603482
-0.008459435
-0.01727986
-0.004199387
-0.02010125
-0.0006710679
-0.01350251
-0.0001278889
-0.0005367397
-0.0004452011
0.003054154
0.002265177
-0.006321457
0.006565658
-0.01603581
0.01076304
-0.01574543
0.0128488
-0.007360945
0.01267824
0.001912063
0.01091479
0.01276963
0.007894773
0.02172676
0.003849926
0.01671902
0.0007126304
0.0009393761
-0.002345152
-0.003393513
-0.006117451
0.002254257
-0.008975159
0.007455617
-0.009522231
0.009815042
-0.008819408
0.005451736
-0.00821736
-0.0005024478
-0.002972165
-0.007598226
0.009244862
-0.006562376
-0.005716899
-0.00752668
-0.003696304
-0.007940919
-0.001243434
-0.008598718
0.0005383363
-0.00541115
0.001454351
-0.002081872
0.000950965
0.00125234
-0.0007363006
0.001608243
-0.002437474
-0.0002067496
-0.004414721
0.0009806996
-0.006072929
0.006826815
-0.006205879
0.01047013
-0.005255542
0.003280856
-0.003570691
-0.005769571
-0.0007004061
-0.01087947
0.001845115
-0.01029938
0.003480229
-0.006256072
0.00381532
0.0006657345
0.002389461
0.009715175
-0.0001348203
0.01496496
-0.002762911
0.01200564
-0.003619727
-0.00107636
-0.004724765
-0.008949291
-0.0073752
-0.005261129
-0.009924146
-0.0004454055
-0.01025722
-0.003802005
-0.007786412
-0.01345157
-0.00296341
-0.02476866
-0.0001290174
-0.01951538
-0.0004253986
0.003149168
-0.005922792
0.03868425
-0.01805548
0.05735375
-0.03236035
0.04155051
-0.03853665
0.01665649
-0.04100206
0.003586722
-0.04361019
0.00263756
-0.04446491
0.009477001
-0.04331751
0.01549954
-0.04233566
0.01423841
-0.04239465
0.009385861
-0.04276868
0.005422648
-0.0431003
0.002988275
-0.04334731
0.001682607
-0.04339064
0.0007301154
-0.04338248
0.0002646115
-0.04306942
-0.0009664013
-0.04269441
-0.001329808
-0.04225821
-0.00157411
-0.04169778
-0.002018766
-0.0411583
-0.002072327
-0.04045829
-0.002635832
-0.03969863
-0.002934225
-0.03879504
-0.003480363
-0.03784123
-0.003687359
-0.03687851
-0.003768536
-0.03577897
-0.004279051
-0.03463565
-0.004467172
-0.03349785
-0.004484839
-0.03220122
-0.005100364
-0.03085003
-0.005298064
-0.02944858
-0.005523019
-0.02803491
-0.005581935
-0.0265865
-0.005737934
-0.02499696
-0.006249048
-0.02345846
-0.006119377
-0.02180759
-0.00651663
-0.02012322
-0.006678018
-0.01842456
-0.006729343
-0.01672305
-0.006765568
-0.01493898
-0.007079899
-0.01315111
-0.007104936
-0.01133447
-0.007189644
-0.009497529
-0.007301411
-0.007642195
-0.007335264
-0.005837145
-0.007169864
-0.003923449
-0.007561345
-0.002045964
-0.007351749
-0.0002275827
-0.007063565
0.001562275
-0.00693997
0.003558476
-0.007910389
0.005531734
-0.007831574
0.007461907
-0.007687481
0.009330274
-0.007489475
0.01115946
-0.007324009
0.01299253
-0.007314387
0.01477359
-0.007095566
0.01660292
-0.007232068
0.0183585
-0.006999072
0.02004799
-0.006674542
0.02176252
-0.006743617
0.02342319
-0.006603043
0.02504016
-0.006391454
0.02667447
-0.00639421
0.02824765
-0.006236013
0.02969638
-0.00572111
0.03115629
-0.005731064
0.0325696
-0.005566632
0.03388033
-0.005173915
0.03521649
-0.005226906
0.03641032
-0.004684424
0.03755895
-0.004491828
0.03861199
-0.004117058
0.0395695
-0.003720833
0.04054171
-0.003745768
0.04140834
-0.003372607
0.04221095
-0.00304947
0.04290084
-0.002643224
0.04351291
-0.002292097
0.0440707
-0.002052967
0.04448336
-0.001484842
0.04488893
-0.001422679
0.04518942
-0.0009691379
0.04526431
3.762351e-05
0.04518153
0.0007289125
0.04498799
0.001293751
0.04468712
0.002072888
0.04420186
0.003602607
0.04371029
0.005802057
0.04336891
0.009439168
0.04242928
0.01201735
0.04232543
0.01506819
0.04124796
0.03450901
0.035498
0.0500042
0.03029607
0.02673275
0.0296301
-0.007257711
0.03101375
-0.02142322
0.03108681
-0.01459871
0.02962078
-0.002591903
0.02604164
0.005628704
0.01950546
0.006614179
0.009524579
0.01140962
-0.001766863
0.03745292
-0.009149116
0.0401222
-0.01361315
0.02271255
-0.01530929
0.006159061
-0.01407485
-0.007837913
-0.009787156
-0.02156756
-0.005946969
-0.02394143
-0.00355638
-0.01589309
-0.002719074
-0.001374046
-0.000959706
0.001294787
0.002835358
-0.01011652
0.007629852
-0.0208303
0.01229385
-0.02040943
0.01458074
-0.00964784
0.01449471
0.001998092
0.01237421
0.01489014
0.009688348
0.02441262
0.005707587
0.02069978
0.0008435617
0.005803402
-0.004488588
0.001938636
-0.009434416
0.007200084
-0.01187514
0.009896345
-0.01176585
0.009705745
-0.01099464
0.004680532
-0.01034518
-0.001151909
-0.004072485
-0.009768753
0.01184673
-0.008640349
-0.007481307
-0.009814125
-0.005270421
-0.0101518
-0.002291841
-0.0115773
0.0001532723
-0.007856264
0.001657061
-0.003585661
0.001392392
0.001517009
-0.0008689373
0.003869572
-0.003606861
0.002531174
-0.006312373
0.003686211
-0.007781191
0.008295632
-0.007452992
0.01014193
-0.006229837
0.002057702
-0.004039306
-0.007960102
-0.0005203387
-0.01439843
0.00246529
-0.01328501
0.004310047
-0.008100829
0.004622963
0.0003528191
0.003050911
0.01128723
0.0005980782
0.0174178
-0.002703201
0.01530692
-0.005172179
0.001392619
-0.009038969
-0.005082502
-0.01410032
-0.0001997824
-0.0178013
0.003255583
-0.01856731
-0.003036003
-0.01719249
-0.01482638
-0.01360159
-0.02835956
-0.01017161
-0.02294536
-0.01127661
0.004254168
-0.01915728
0.04656492
-0.03067833
0.0688748
-0.0413817
0.05225389
-0.04522571
0.0205005
-0.04797004
0.00633105
-0.05094296
0.005610474
-0.05209438
0.01062843
-0.05150157
0.01490673
-0.05086794
0.01360478
-0.05092316
0.009441089
-0.05123262
0.005732099
-0.05156628
0.003321942
-0.05188287
0.001999197
-0.05191033
0.0007575769
-0.05198766
0.0003419345
-0.05157773
-0.001376332
-0.05114717
-0.001760366
-0.05064019
-0.002081086
-0.04994919
-0.002709768
-0.04933922
-0.002682302
-0.04848573
-0.003489319
-0.04759311
-0.003826841
-0.04651028
-0.004563197
-0.04536034
-0.004837296
-0.04421852
-0.004910355
-0.04290482
-0.005592749
-0.04153337
-0.005838628
-0.04016767
-0.005850536
-0.0386228
-0.006645236
-0.0370046
-0.006916262
-0.03532653
-0.007201087
-0.03361327
-0.007295201
-0.03190314
-0.007448063
-0.02997742
-0.008174763
-0.02814685
-0.007949954
-0.02615426
-0.008509215
-0.0241382
-0.008694083
-0.02210758
-0.008759959
-0.02003952
-0.008833627
-0.01792044
-0.009198976
-0.0157913
-0.009234081
-0.01361583
-0.009365113
-0.01143785
-0.009479387
-0.00917323
-0.009599886
-0.007041123
-0.009301971
-0.004743026
-0.009859442
-0.002462248
-0.009632527
-0.0002485787
-0.009277234
0.001926926
-0.009115474
0.004322841
-0.0103063
0.006684717
-0.01019345
0.00894636
-0.009949124
0.01116792
-0.009711036
0.01336658
-0.009522673
0.01556101
-0.009508809
0.017698
-0.009232565
0.0199213
-0.009455364
0.0220263
-0.009104071
0.02405085
-0.008699092
0.02611117
-0.008803939
0.02811692
-0.008608791
0.03006082
-0.008335354
0.03201322
-0.008346614
0.03390256
-0.008125346
0.03563386
-0.007452413
0.03738207
-0.007479274
0.03905613
-0.007240694
0.04064077
-0.006758555
0.04224427
-0.006830409
0.04366426
-0.006104415
0.04505243
-0.005879994
0.04629593
-0.005360561
0.04744173
-0.00486663
0.04861125
-0.004915285
0.04962812
-0.004389479
0.05059857
-0.004019924
0.05140064
-0.003445293
0.05213221
-0.003023663
0.05280402
-0.002724783
0.05326835
-0.001949165
0.05375657
-0.001910906
0.05411748
-0.001330042
0.05416076
-5.663624e-06
0.05403386
0.0008558127
0.05378822
0.001539401
0.05344272
0.002418386
0.05292176
0.004123564
0.05241941
0.006304411
0.05208901
0.009769566
0.05096633
0.01314003
0.05016038
0.01587414
0.0530544
0.03161499
0.05480793
0.04825067
0.05232126
0.02921943
0.04817902
-0.003115475
0.04526817
-0.01851237
0.04242469
-0.01175523
0.03927059
0.0005621996
0.03467467
0.01022462
0.02654881
0.01474004
0.0134866
0.02447184
-0.0001712379
0.05111075
-0.008143953
0.04809491
-0.0143195
0.02888809
-0.01756189
0.009401452
-0.01656021
-0.008839589
-0.01134084
-0.02678693
-0.007427056
-0.02785522
-0.005948122
-0.01737203
-0.004253194
-0.003068975
-0.000691119
-0.002267288
0.003772367
-0.01458001
0.008769549
-0.02582748
0.01375171
-0.0253916
0.01602029
-0.01191641
0.01609281
0.001925572
0.01349786
0.01748508
0.01038289
0.0275276
0.00590842
0.02517425
-0.0002432381
0.01195506
-0.007315774
0.009011172
-0.01259911
0.01248342
-0.01467461
0.01197185
-0.01463418
0.009665319
-0.01407786
0.004124207
-0.01322484
-0.00200493
-0.005450596
-0.01293617
0.01573293
-0.01143711
-0.009764827
-0.01298546
-0.00730288
-0.01261375
-0.003973441
-0.01490674
-0.0006042227
-0.01122548
0.001587464
-0.005777347
0.001799177
0.001305296
-0.0009838331
0.006652582
-0.004675826
0.006223167
-0.007778097
0.006788483
-0.009017451
0.009534986
-0.008634629
0.009759109
-0.007159138
0.0005822108
-0.004356158
-0.01076308
-0.0001519435
-0.01860265
0.003397804
-0.01683476
0.005534281
-0.01023731
0.00580953
7.75701e-05
0.003581963
0.01351479
0.0009650271
0.02003473
-0.003021041
0.01929299
-0.007962132
0.00633371
-0.01568782
0.002643185
-0.02309153
0.007203925
-0.02808254
0.008246599
-0.0298631
-0.001255448
-0.03068289
-0.01400659
-0.02968865
-0.0293538
-0.02844095
-0.02419306
-0.03124971
0.007062929
-0.0398928
0.05520801
-0.04752386
0.07650587
-0.05196237
0.0566924
-0.05394624
0.02248437
-0.05745514
0.009839949
-0.0606028
0.008758134
-0.06205308
0.0120787
-0.0618199
0.01467355
-0.06128468
0.01306957
-0.06136635
0.009522759
-0.06170164
0.006067386
-0.0619757
0.003595998
-0.0623965
0.002420003
-0.06231175
0.0006728267
-0.06233165
0.0003618314
-0.06190099
-0.001806994
-0.06135353
-0.002307817
-0.06080471
-0.002629907
-0.05989051
-0.003623967
-0.05920126
-0.003371557
-0.05816346
-0.004527123
-0.0571212
-0.004869096
-0.05580149
-0.00588291
-0.05439169
-0.006247089
-0.05304648
-0.006255569
-0.05150176
-0.007137468
-0.04979416
-0.007546232
-0.0481622
-0.007482497
-0.04633728
-0.008470152
-0.04441577
-0.00883777
-0.04236715
-0.009249705
-0.04028997
-0.009372381
-0.038335
-0.009403041
-0.03593801
-0.01057175
-0.03379377
-0.01009419
-0.03132819
-0.0109748
-0.02896982
-0.01105245
-0.02653792
-0.01119186
-0.02401518
-0.01135636
-0.0215183
-0.01169586
-0.0189416
-0.01181078
-0.01632254
-0.01198417
-0.01377241
-0.01202951
-0.01100874
-0.01236356
-0.00853173
-0.01177898
-0.005730506
-0.01266067
-0.002977472
-0.01238556
-0.0002766102
-0.0119781
0.002389297
-0.01178138
0.005288298
-0.0132053
0.008004328
-0.01290948
0.01065004
-0.01259484
0.01334454
-0.01240553
0.01602956