/*--------------------------------*- C++ -*----------------------------------*\
| =========                 |                                                 |
| \\      /  F ield         | OpenFOAM: The Open Source CFD Toolbox           |
|  \\    /   O peration     | Version:  2406                                  |
|   \\  /    A nd           | Website:  www.openfoam.com                      |
|    \\/     M anipulation  |                                                 |
\*---------------------------------------------------------------------------*/
FoamFile
{
    version     2.0;
    format      ascii;
    arch        "LSB;label=32;scalar=64";
    class       volVectorField;
    location    "2.26";
    object      U;
}
// * * * * * * * * * * * * * * * * * * * * * * * * * * * * * * * * * * * * * //

dimensions      [0 1 -1 0 0 0 0];

internalField   nonuniform List<vector> 
15536
(
(0.1586332 -5.52858 -5.057375e-22)
(0.2682996 -4.246723 -3.610526e-19)
(0.3084699 -3.145467 -6.000643e-19)
(0.2129911 -1.847377 -4.850984e-19)
(-0.04634483 -0.2084001 -7.402608e-21)
(-0.3364231 1.365973 2.810294e-21)
(-0.3374647 1.59946 7.251044e-21)
(0.09441367 -0.0372613 -7.208411e-21)
(0.8249845 -2.090988 9.947669e-19)
(1.385864 -3.26075 6.131165e-19)
(1.014401 -2.366667 0)
(-0.003905677 -0.2901371 0)
(-1.117512 1.901382 5.224075e-22)
(-1.842899 3.09553 8.287885e-19)
(-2.169179 3.450499 1.010021e-18)
(-1.65338 2.539537 -2.459488e-18)
(-0.5946543 0.848329 1.225363e-18)
(-0.1241905 0.129837 1.775963e-20)
(0.02852269 -0.008846459 -4.405228e-20)
(-0.733256 0.6917222 2.521488e-20)
(-2.786664 2.484377 0)
(-4.444406 3.847694 6.973302e-18)
(-5.046692 4.158518 0)
(-3.872208 3.148131 5.83766e-18)
(-0.415103 0.6083641 -3.166084e-20)
(3.707052 -2.170721 1.325465e-20)
(3.321987 -2.010012 -1.330239e-20)
(-0.1537593 -0.08480133 -8.574074e-19)
(-2.328101 0.9792798 -3.022346e-18)
(-3.332468 1.339048 0)
(-4.759854 1.699149 -3.040337e-20)
(-7.496692 2.357052 -4.600824e-18)
(-10.29995 3.060707 7.703413e-18)
(-8.696317 2.606711 0)
(-1.685836 0.6805498 -6.348944e-18)
(3.25439 -0.6296221 -2.232836e-20)
(-0.5739062 -0.2856444 3.188031e-18)
(-0.3534952 -0.06052189 -1.643722e-18)
(5.884176 0.1007652 1.530204e-21)
(10.13242 0.5254478 -3.791095e-19)
(12.40392 1.079685 1.54636e-18)
(13.60236 1.704556 -2.48329e-20)
(14.29144 2.381963 2.455756e-20)
(14.68324 3.062251 0)
(14.88051 3.731036 -6.214244e-18)
(14.91844 4.374157 -6.173704e-18)
(14.79645 4.979994 0)
(14.57456 5.552828 -1.176137e-17)
(14.28228 6.097038 1.146224e-17)
(13.94561 6.615677 1.105762e-17)
(13.55465 7.09395 4.022265e-20)
(13.10377 7.52755 -1.001381e-17)
(12.60112 7.911513 0)
(12.05594 8.247761 0)
(11.47756 8.532856 8.053663e-18)
(10.86385 8.758513 7.370726e-18)
(10.23332 8.935762 4.875596e-20)
(9.592559 9.062984 5.77201e-18)
(8.928611 9.121522 1.008051e-17)
(8.254326 9.119772 4.246077e-18)
(7.577791 9.060746 3.390608e-18)
(6.912627 8.953939 -2.364221e-20)
(6.255757 8.789626 0)
(5.604785 8.560885 9.317538e-19)
(4.973329 8.284353 0)
(4.357408 7.946789 7.416153e-19)
(3.765614 7.554634 -3.042374e-20)
(3.208492 7.118277 -2.88583e-21)
(2.685387 6.635183 1.049179e-20)
(2.200623 6.109643 -3.764051e-18)
(1.760039 5.550176 -1.841557e-20)
(1.364249 4.954109 2.544747e-18)
(1.014881 4.323261 2.815562e-18)
(0.7173142 3.673012 0)
(0.4711839 3.008377 0)
(0.2795835 2.325875 3.451679e-18)
(0.1397884 1.632045 -3.108708e-22)
(0.05540941 0.9391555 9.426427e-19)
(0.02842681 0.2139783 1.746412e-21)
(0.05315246 -0.5809245 -7.309127e-21)
(0.1251365 -1.357008 -1.809512e-18)
(0.2548291 -2.077403 0)
(0.4389126 -2.765598 3.269709e-18)
(0.6749225 -3.433114 0)
(0.9619742 -4.078223 -2.773032e-18)
(1.297881 -4.697283 2.458481e-18)
(1.682076 -5.288211 1.817599e-20)
(2.111206 -5.848611 3.67966e-18)
(2.582148 -6.368513 1.011877e-20)
(3.090872 -6.845715 -2.238265e-18)
(3.634643 -7.281622 -1.444041e-18)
(4.210722 -7.669913 7.794467e-21)
(4.817346 -8.012894 2.370917e-19)
(5.445998 -8.305863 -1.100457e-18)
(6.090146 -8.544803 1.871143e-20)
(6.739642 -8.716475 6.826169e-21)
(7.399797 -8.835372 -3.678514e-18)
(8.066248 -8.901616 0)
(8.730521 -8.907401 1.065225e-17)
(9.395256 -8.863635 6.090939e-18)
(10.04093 -8.756426 1.071814e-19)
(10.66374 -8.588068 -7.79744e-18)
(11.25978 -8.36177 0)
(11.82812 -8.081805 0)
(12.36804 -7.756049 0)
(12.87069 -7.38265 0)
(13.32625 -6.962907 1.112995e-17)
(13.73155 -6.50068 1.176554e-17)
(14.0871 -6.00076 2.63863e-20)
(14.38666 -5.469943 -1.267709e-17)
(14.61608 -4.907242 -6.482593e-18)
(14.75326 -4.313859 -6.707212e-18)
(14.74735 -3.686421 5.25412e-20)
(14.56202 -3.029371 6.869668e-18)
(14.14214 -2.353141 3.542316e-18)
(13.33321 -1.688265 -2.744128e-20)
(11.65003 -1.063039 -6.695971e-21)
(8.162563 -0.4731367 4.505408e-19)
(2.235186 -0.0336884 -9.536234e-19)
(-2.613892 -0.1754481 -2.487389e-20)
(-4.048505 -0.5825341 1.652964e-20)
(-4.112616 -0.6306303 4.046475e-18)
(-2.217357 -0.1455924 2.937717e-20)
(2.692115 0.9681966 0)
(5.680764 1.574135 -4.673077e-18)
(-2.816506 -1.449479 -8.24111e-18)
(-9.854868 -4.119386 -9.429271e-21)
(-10.03259 -4.268785 1.824827e-17)
(-7.504878 -3.409267 -1.282678e-17)
(-4.917769 -2.464551 0)
(-3.357622 -1.881953 0)
(-2.56904 -1.583039 -7.587855e-18)
(-1.718044 -1.102891 0)
(-0.240879 -0.08235093 3.975457e-20)
(1.691209 1.384356 -4.54726e-18)
(2.617517 2.200909 -4.267068e-18)
(1.905197 1.68307 3.772414e-20)
(0.8551879 0.7643634 -1.054214e-17)
(-0.1501395 -0.2895903 -1.013914e-19)
(-1.054502 -1.371307 1.503313e-17)
(-1.346523 -1.77353 8.04331e-18)
(-1.091551 -1.527088 8.132476e-18)
(-0.7032547 -1.044698 7.886318e-18)
(-0.3383314 -0.5644262 0)
(-0.206527 -0.3966883 -2.845514e-20)
(-0.312245 -0.6533745 -7.002306e-18)
(-0.4387467 -0.980651 0)
(-0.4075061 -0.9763272 6.463598e-18)
(-0.345431 -0.9877638 -5.018744e-20)
(-0.4585494 -1.68236 2.464772e-20)
(-0.6612638 -2.898137 3.219637e-18)
(-0.7690916 -3.834987 2.129235e-21)
(-0.7355332 -4.108282 0)
(-0.6037768 -4.18199 1.517272e-18)
(-0.4162752 -4.873178 1.141946e-20)
(-0.2038041 -6.154488 2.227372e-21)
(-0.01351424 -6.617122 -3.01042e-21)
(-0.08936694 -5.207208 -1.771948e-19)
(0.09255729 -4.298365 2.962764e-19)
(0.1867172 -3.358877 0)
(0.1048517 -2.076629 3.954954e-19)
(-0.1528896 -0.4745518 0)
(-0.3638811 1.013565 1.71942e-18)
(-0.3512607 1.752143 5.936023e-21)
(0.1686866 0.268358 -5.733524e-21)
(1.40971 -3.360107 -7.893354e-19)
(1.561816 -3.855821 -5.000187e-19)
(0.854292 -2.393447 0)
(-0.1401121 -0.5047858 -5.27175e-21)
(-1.259555 1.803473 4.906082e-21)
(-1.996953 3.103336 -3.329459e-19)
(-2.378932 3.625436 -1.678299e-18)
(-2.394249 3.641309 9.703652e-19)
(-1.504193 2.251719 -9.423939e-19)
(0.1467661 -0.03179099 -9.235155e-21)
(0.6017543 -0.748869 0)
(-1.224786 0.8497838 0)
(-3.430639 2.715186 0)
(-5.062866 4.128983 5.607326e-18)
(-5.662241 4.514789 4.257387e-20)
(-5.127081 4.132544 -4.096495e-20)
(-2.475439 2.381447 1.270492e-21)
(3.617295 -1.872606 -1.325408e-21)
(4.034934 -2.675427 0)
(1.102953 -1.005054 0)
(-0.01699065 -0.2070102 5.078162e-18)
(-0.2967417 -0.04440603 3.348904e-20)
(-1.262013 0.1253036 -3.175498e-20)
(-3.791594 0.6782661 3.981089e-18)
(-5.773992 1.36171 6.699323e-18)
(-8.564553 2.519225 -4.492274e-20)
(-4.199462 1.507568 -4.77192e-18)
(3.681839 -0.411018 1.942541e-18)
(7.762489 -0.73909 2.542433e-21)
(11.34342 -0.2575358 1.059047e-18)
(16.09305 0.06183937 0)
(18.12848 0.3894684 2.683039e-19)
(18.61593 0.8543911 2.273738e-18)
(18.73362 1.461412 2.387781e-18)
(18.68715 2.139109 2.430198e-18)
(18.5386 2.821504 -7.593997e-20)
(18.3218 3.514064 4.970749e-18)
(18.04774 4.199049 -3.786624e-20)
(17.73193 4.87381 0)
(17.36092 5.521157 9.360712e-18)
(16.9295 6.139498 0)
(16.45456 6.725592 -6.641898e-20)
(15.92902 7.2666 6.659874e-20)
(15.34946 7.759498 7.985975e-18)
(14.72319 8.197844 -5.607295e-20)
(14.05722 8.581863 6.983876e-18)
(13.35973 8.907085 -6.471899e-18)
(12.634 9.170778 0)
(11.89024 9.38194 3.847108e-20)
(11.13542 9.53607 -4.730939e-18)
(10.36514 9.62005 -8.016276e-18)
(9.584015 9.635574 0)
(8.804469 9.593052 -2.720075e-18)
(8.035675 9.494072 -1.322328e-20)
(7.278314 9.331137 1.358307e-18)
(6.533432 9.103173 2.845693e-21)
(5.80787 8.816047 -2.88035e-21)
(5.10566 8.466853 -6.013587e-19)
(4.430235 8.059692 1.25381e-18)
(3.792432 7.599587 0)
(3.193277 7.09183 0)
(2.637584 6.540207 -2.039233e-20)
(2.129759 5.946522 0)
(1.67269 5.312537 0)
(1.268173 4.642233 0)
(0.9210435 3.946887 -2.530024e-18)
(0.6300271 3.236624 2.035183e-20)
(0.4043743 2.505166 1.174821e-20)
(0.2352276 1.76171 -5.756674e-21)
(0.1303796 1.015441 -7.732874e-19)
(0.09865473 0.2350189 3.149274e-21)
(0.1300453 -0.6099633 -7.757964e-19)
(0.2113008 -1.44023 1.474937e-18)
(0.365182 -2.214196 1.123897e-20)
(0.5822525 -2.953236 -2.651444e-18)
(0.8579405 -3.67012 -3.888144e-20)
(1.192385 -4.363243 2.297441e-18)
(1.581676 -5.025211 -2.044588e-18)
(2.026535 -5.655028 0)
(2.519601 -6.25162 -6.007332e-18)
(3.059389 -6.800142 -1.669759e-20)
(3.643149 -7.303265 1.815284e-18)
(4.265176 -7.764257 1.177738e-18)
(4.922913 -8.170029 0)
(5.614791 -8.523053 0)
(6.332515 -8.82734 0)
(7.067805 -9.066739 1.463957e-20)
(7.815883 -9.237059 -1.453741e-20)
(8.576339 -9.349133 2.884811e-18)
(9.343731 -9.401454 5.525705e-21)
(10.11417 -9.390261 -4.308089e-18)
(10.88213 -9.32059 -7.355324e-20)
(11.63728 -9.187771 1.114427e-17)
(12.37151 -8.988868 6.197861e-18)
(13.08042 -8.726891 -5.043793e-20)
(13.76662 -8.408344 7.237233e-18)
(14.42518 -8.038408 5.911063e-20)
(15.04846 -7.612147 -6.723122e-20)
(15.62898 -7.135337 6.69405e-20)
(16.16313 -6.610754 7.375812e-20)
(16.65042 -6.04477 9.690355e-18)
(17.08729 -5.442209 -7.641887e-20)
(17.45788 -4.804387 0)
(17.77446 -4.140982 0)
(18.05711 -3.465834 0)
(18.29006 -2.790697 0)
(18.45285 -2.123093 2.074355e-20)
(18.5182 -1.486036 -2.05903e-20)
(18.39025 -0.976639 1.25376e-18)
(17.35861 -0.6193253 4.792396e-21)
(13.1634 -0.2794466 0)
(6.809924 0.0654099 -1.499464e-18)
(2.199075 0.2934661 3.496033e-18)
(1.26583 0.4305036 -3.489074e-18)
(2.51277 0.9222442 3.708989e-20)
(3.505507 1.254993 -3.988816e-18)
(4.175116 0.8196863 3.842983e-20)
(-6.073674 -3.006542 0)
(-9.878336 -4.074887 1.660668e-17)
(-8.39577 -3.160526 -3.032158e-17)
(-6.241867 -2.382394 -1.027737e-17)
(-4.120418 -1.74135 -1.893529e-20)
(-2.890733 -1.443764 -1.086356e-19)
(-2.292617 -1.299484 5.129745e-20)
(-1.670038 -0.9059325 0)
(-0.4975628 0.01870233 4.514573e-18)
(1.485924 1.549087 3.581143e-18)
(3.071191 2.704749 -3.769832e-24)
(2.370252 2.006868 -3.598845e-18)
(0.8595353 0.611518 8.525545e-18)
(-0.2632743 -0.5382449 5.300251e-18)
(-1.113655 -1.505178 4.053481e-21)
(-1.313416 -1.674201 -6.627914e-18)
(-1.094713 -1.423019 -5.215998e-20)
(-0.6953902 -0.8865124 -6.486642e-18)
(-0.2580647 -0.3036349 4.864303e-20)
(0.09643502 0.1965989 -1.807231e-21)
(0.07955438 0.03296303 -4.690113e-20)
(-0.2938616 -0.7596165 0)
(-0.5270949 -1.332442 0)
(-0.6495816 -2.003782 -5.130834e-18)
(-0.8459572 -3.137564 0)
(-1.008091 -4.191175 -5.138008e-18)
(-1.028547 -4.770737 2.57641e-18)
(-0.9674538 -5.451927 -1.944098e-20)
(-0.855374 -6.733274 1.893428e-20)
(-0.6596677 -7.869878 1.114559e-18)
(-0.4487844 -7.868358 -5.074208e-19)
(-0.2830809 -6.558272 -2.06935e-19)
(-0.1581214 -4.41164 1.442122e-19)
(0.006278218 -3.788472 -2.43466e-19)
(0.07752406 -3.162719 5.634362e-21)
(-0.02032576 -2.146798 -3.27586e-19)
(-0.2618641 -0.7955378 0)
(-0.3858713 0.5398227 -1.419606e-18)
(-0.1190581 1.218095 -9.9191e-21)
(0.4780208 0.104045 4.84853e-19)
(1.770354 -3.802966 6.32297e-19)
(1.520224 -3.817869 4.134408e-19)
(0.7592775 -2.635654 -1.613866e-19)
(-0.3815693 -0.6497243 3.429936e-21)
(-1.419313 1.672351 0)
(-2.026308 2.994299 0)
(-2.27603 3.477645 6.816733e-19)
(-2.30499 3.652734 8.024503e-19)
(-1.835196 3.003364 7.615711e-19)
(0.03132416 0.3887847 1.476947e-20)
(0.5630713 -0.7862672 0)
(-1.941646 1.144578 2.342356e-18)
(-4.010242 2.8863 3.194936e-18)
(-5.390594 4.250903 -4.539408e-18)
(-5.792671 4.725786 0)
(-4.951047 4.286952 3.729579e-18)
(-2.969898 3.269556 0)
(2.247531 -0.5565209 1.074581e-18)
(4.116243 -2.768781 0)
(3.158261 -2.136989 -5.53191e-19)
(3.373724 -1.696589 -3.935411e-18)
(3.532407 -1.61123 0)
(2.465397 -1.418061 0)
(0.3558801 -0.916518 1.074302e-20)
(-1.719199 0.1005591 -5.865924e-18)
(-3.487794 1.572885 6.161915e-18)
(-2.389569 1.606818 7.547543e-18)
(8.901648 -0.4743169 -1.333384e-18)
(15.24052 -0.9024997 1.56029e-18)
(17.45727 -0.282748 -7.993913e-19)
(18.48403 0.2663783 0)
(18.25399 0.7046445 0)
(18.15425 1.294125 -1.888875e-18)
(18.16186 1.991448 -2.003069e-18)
(18.11453 2.707418 -3.971902e-18)
(17.99739 3.417568 3.96404e-18)
(17.81681 4.125228 9.387637e-20)
(17.57537 4.803416 -6.24865e-20)
(17.26616 5.456049 0)
(16.88794 6.069249 0)
(16.4542 6.652695 7.34198e-18)
(15.97773 7.206418 -7.091915e-18)
(15.45399 7.712467 0)
(14.87875 8.169756 0)
(14.26018 8.571378 9.198631e-20)
(13.60347 8.920687 -5.823209e-18)
(12.9183 9.210837 0)
(12.20811 9.438512 -4.714756e-18)
(11.4808 9.61624 -4.238572e-18)
(10.74536 9.737964 -3.692724e-18)
(9.998333 9.788822 3.222454e-18)
(9.240389 9.773901 -3.810192e-20)
(8.48512 9.704181 2.17704e-18)
(7.741363 9.580491 0)
(7.011634 9.393593 -1.108107e-18)
(6.295893 9.143522 -4.269868e-21)
(5.597647 8.838369 8.467132e-21)
(4.928567 8.469924 -5.612143e-19)
(4.283291 8.047898 0)
(3.674952 7.575475 -1.59987e-18)
(3.103814 7.058352 -1.790755e-20)
(2.576721 6.499344 2.548633e-18)
(2.094768 5.901357 1.49806e-18)
(1.66222 5.265162 -1.701722e-18)
(1.279433 4.594994 -1.892252e-18)
(0.9508061 3.901641 2.058701e-18)
(0.6740778 3.19583 -2.21529e-18)
(0.4642337 2.469356 -1.140963e-18)
(0.3028786 1.733483 2.415957e-18)
(0.203377 0.9968835 1.26448e-18)
(0.1789053 0.2281728 2.574127e-21)
(0.2140249 -0.5964443 6.418248e-19)
(0.2856243 -1.41425 -9.606252e-21)
(0.4308316 -2.179685 0)
(0.6368792 -2.91386 -1.663765e-20)
(0.8970529 -3.628379 -1.435851e-20)
(1.2137 -4.320262 -1.817633e-18)
(1.581068 -4.982714 3.357686e-18)
(2.005056 -5.6136 -1.478332e-18)
(2.472175 -6.21461 2.435632e-18)
(2.983785 -6.769611 1.743911e-20)
(3.541018 -7.280399 0)
(4.133736 -7.752813 1.009135e-18)
(4.761633 -8.171991 2.863081e-21)
(5.425407 -8.539686 6.640114e-20)
(6.113458 -8.862961 0)
(6.819112 -9.123453 1.201475e-18)
(7.540973 -9.315287 0)
(8.275847 -9.451858 -4.918364e-20)
(9.017585 -9.531647 2.875198e-18)
(9.766325 -9.547744 0)
(10.51214 -9.509375 -4.029116e-18)
(11.24727 -9.409717 -4.569988e-18)
(11.96384 -9.245047 -5.080174e-18)
(12.65717 -9.017784 0)
(13.33173 -8.732878 -1.208963e-17)
(13.98063 -8.398015 9.703546e-20)
(14.59703 -8.005941 0)
(15.17337 -7.56385 0)
(15.7061 -7.072833 0)
(16.19569 -6.538213 7.852915e-18)
(16.63447 -5.970459 -8.146994e-18)
(17.01442 -5.365747 0)
(17.32955 -4.726162 0)
(17.58189 -4.059993 4.306877e-18)
(17.77477 -3.370249 3.434642e-20)
(17.89782 -2.672064 0)
(17.96262 -1.976455 0)
(18.02442 -1.342893 -2.084569e-18)
(18.48105 -0.9069621 2.417938e-19)
(18.18309 -0.5526218 0)
(15.65496 0.03292898 1.018178e-18)
(12.68055 0.7695195 3.135571e-20)
(11.14286 1.59203 2.066292e-20)
(10.11987 2.153757 -3.513224e-20)
(7.084079 1.888698 3.16923e-18)
(2.351271 -0.2193169 2.763003e-18)
(-5.626849 -3.439426 5.743013e-20)
(-6.566581 -3.098505 1.050108e-19)
(-6.022382 -2.032631 1.279458e-17)
(-3.924185 -1.039907 8.6795e-18)
(-1.91989 -0.4717771 0)
(-1.226731 -0.4586639 5.738653e-18)
(-1.132677 -0.5571117 0)
(-0.9748519 -0.3443653 -6.691866e-20)
(-0.4882159 0.2431142 -3.62343e-18)
(0.8724845 1.333895 4.467567e-20)
(2.412445 2.17597 -4.714078e-20)
(1.951707 1.433382 2.977508e-18)
(0.8119101 0.3315905 -3.471147e-18)
(-0.125506 -0.5929339 -4.318082e-18)
(-0.9710805 -1.503074 -5.088965e-18)
(-1.315734 -1.704054 -5.450668e-18)
(-1.125907 -1.398188 0)
(-0.7405668 -0.832593 -3.400542e-21)
(-0.3080472 -0.2663683 0)
(0.07064336 0.2263327 -5.073585e-18)
(0.3182012 0.4176383 4.803133e-18)
(0.02827469 -0.2680688 0)
(-0.3796491 -1.187334 0)
(-0.6143062 -2.207185 8.343297e-18)
(-0.8182518 -3.435355 -2.062537e-18)
(-0.9267073 -4.32025 4.200404e-18)
(-0.9345191 -4.955508 -1.630437e-20)
(-0.9027518 -5.927849 1.600801e-20)
(-0.8174049 -7.202024 0)
(-0.6335279 -7.761758 -9.164851e-19)
(-0.4332569 -6.935044 8.307601e-19)
(-0.3050721 -5.483505 1.727545e-19)
(-0.2861972 -3.714594 -2.400084e-19)
(-0.09430971 -3.264599 -5.73878e-21)
(-0.02397037 -2.880375 5.774773e-21)
(-0.1263628 -2.192111 -7.810151e-21)
(-0.3511311 -1.218827 7.847045e-21)
(-0.3702957 -0.1625624 5.833723e-19)
(0.03438276 0.6708118 -8.387459e-21)
(0.9875352 -0.5005335 -3.845746e-19)
(2.074524 -4.049141 1.00912e-20)
(1.435086 -3.786319 -3.525968e-19)
(0.6195189 -2.818596 1.520434e-20)
(-0.69056 -0.7794365 0)
(-1.622902 1.53491 0)
(-2.083965 2.877495 -2.394703e-19)
(-2.259899 3.366141 -5.767436e-19)
(-2.121846 3.462394 -1.334362e-18)
(-1.836397 3.335214 -6.173543e-19)
(-0.2812804 1.131799 0)
(0.1488168 -0.5183408 0)
(-2.644667 1.29148 -3.734645e-18)
(-4.426519 2.860174 -5.175509e-18)
(-5.486718 4.150128 6.102952e-20)
(-5.686325 4.683742 -1.226679e-19)
(-4.664922 4.344074 -6.110372e-18)
(-2.51798 3.585349 -1.159034e-18)
(1.279099 0.6734812 -8.606922e-19)
(4.465889 -2.752638 -9.682314e-19)
(5.426232 -3.184733 4.305469e-19)
(6.456902 -3.004721 1.571882e-18)
(6.893045 -3.016569 0)
(6.131305 -2.988256 -6.281013e-20)
(4.642109 -2.666022 -5.127049e-18)
(2.798703 -1.553395 3.924363e-20)
(0.774437 0.4341496 8.438634e-20)
(2.683958 1.370371 -2.855691e-18)
(14.34964 -0.3763907 -9.597057e-19)
(18.04298 -0.9135097 -2.658788e-20)
(18.16515 -0.4638344 -6.380076e-19)
(18.04232 0.03836189 -3.296491e-19)
(17.94427 0.3769624 -2.764729e-21)
(18.15319 0.8801515 0)
(18.27234 1.506924 -2.515802e-20)
(18.2895 2.178449 1.668564e-18)
(18.20413 2.868822 -6.550068e-18)
(18.04213 3.568548 5.066743e-20)
(17.80909 4.252642 -3.252172e-18)
(17.50276 4.917079 -9.794593e-20)
(17.13024 5.542135 -6.147746e-18)
(16.69942 6.142221 -7.555002e-21)
(16.22475 6.718182 5.849967e-18)
(15.70406 7.243632 -5.497014e-18)
(15.1309 7.723439 0)
(14.51366 8.146874 7.430042e-20)
(13.85636 8.520172 -7.476944e-20)
(13.16836 8.83606 0)
(12.45308 9.090759 3.884207e-18)
(11.71956 9.295161 7.563681e-20)
(10.97657 9.443453 3.087015e-18)
(10.22188 9.519645 -2.584065e-18)
(9.457718 9.526407 -2.147102e-18)
(8.692383 9.479894 -1.759959e-18)
(7.939336 9.377727 -1.273898e-18)
(7.200729 9.2105 9.761266e-21)
(6.474953 8.979086 -9.859166e-21)
(5.766189 8.691897 0)
(5.086357 8.34009 4.577934e-19)
(4.429741 7.933574 -1.733382e-20)
(3.810969 7.474796 1.33179e-18)
(3.229792 6.969904 1.703061e-18)
(2.695099 6.421175 -2.076941e-18)
(2.205585 5.832566 -1.229605e-18)
(1.766202 5.204823 -4.870318e-21)
(1.376947 4.542486 1.55238e-18)
(1.044877 3.855582 2.716872e-20)
(0.7632529 3.156573 1.775278e-18)
(0.5532719 2.435441 1.505945e-20)
(0.3905001 1.705248 -1.009457e-18)
(0.2908688 0.9766294 -5.151307e-19)
(0.2729977 0.2182198 -6.407659e-23)
(0.3135337 -0.5830824 5.088988e-19)
(0.3783866 -1.389265 7.867608e-21)
(0.5201847 -2.14862 -9.5106e-19)
(0.7274384 -2.878392 1.798843e-18)
(0.9895481 -3.587454 0)
(1.309252 -4.272289 -2.927496e-21)
(1.679803 -4.926528 -1.380682e-18)
(2.109582 -5.548099 1.245962e-18)
(2.580853 -6.139816 -2.09251e-18)
(3.101135 -6.682234 2.306262e-20)
(3.668709 -7.179539 -2.283985e-20)
(4.267225 -7.640018 -8.292203e-19)
(4.904358 -8.043803 0)
(5.581768 -8.393242 -6.116876e-20)
(6.277496 -8.701152 1.571625e-20)
(6.991744 -8.943593 -5.56741e-20)
(7.723842 -9.115322 -1.371071e-18)
(8.46733 -9.232069 -1.924869e-18)
(9.216896 -9.290931 -1.809282e-20)
(9.973101 -9.284782 2.754503e-18)
(10.72721 -9.222141 -4.679506e-20)
(11.46823 -9.098827 -3.638898e-18)
(12.19019 -8.90874 0)
(12.88985 -8.653686 4.45252e-18)
(13.56805 -8.343428 4.909753e-18)
(14.21731 -7.986107 5.101678e-18)
(14.83318 -7.571146 -5.43934e-18)
(15.40736 -7.108146 5.836211e-18)
(15.93742 -6.59641 0)
(16.42394 -6.041862 -1.285554e-17)
(16.85882 -5.459264 1.344914e-17)
(17.23385 -4.839517 -1.595907e-19)
(17.54441 -4.190787 -3.470989e-18)
(17.79177 -3.515208 -3.533668e-18)
(17.96713 -2.836552 0)
(18.05653 -2.15984 1.818829e-18)
(18.0519 -1.518206 -1.79584e-18)
(17.9286 -0.9597457 8.727391e-19)
(17.92407 -0.6136782 -2.102267e-19)
(18.51063 -0.3809192 -3.990772e-19)
(18.69859 0.1965808 1.23655e-20)
(18.06743 1.189059 -1.775371e-18)
(17.00876 2.269805 3.955451e-20)
(15.66261 2.808089 0)
(12.03312 2.353785 0)
(3.32732 -0.7059742 -9.80792e-20)
(-3.103808 -3.180694 9.767982e-20)
(-3.623821 -2.120042 0)
(-3.346461 -0.6883562 0)
(-1.545845 0.4341111 0)
(0.4897701 0.9757242 5.358102e-18)
(1.386482 0.9964022 -9.384133e-18)
(0.9531809 0.6583679 4.505186e-18)
(0.4818822 0.6314183 -3.89197e-18)
(0.1424683 0.8118303 -9.648886e-20)
(0.4754089 1.219358 2.425224e-18)
(1.590549 1.512087 2.470021e-18)
(1.510298 0.8386876 4.12593e-20)
(0.8226734 0.1164712 8.008073e-21)
(-0.06103837 -0.7485147 -4.995274e-20)
(-0.9456784 -1.654211 -6.651006e-20)
(-1.373856 -1.77585 4.629334e-18)
(-1.202131 -1.404245 0)
(-0.8289172 -0.7893241 4.347932e-18)
(-0.3750851 -0.2109582 -4.283106e-18)
(-0.001892071 0.2392967 4.16071e-18)
(0.3586401 0.464211 0)
(0.2864679 0.06293753 0)
(-0.1338057 -0.9168933 -5.521203e-20)
(-0.4494526 -2.168006 -3.399143e-18)
(-0.6990645 -3.495174 1.736059e-18)
(-0.8473926 -4.363914 -1.723109e-18)
(-0.8544658 -4.951868 0)
(-0.7634873 -5.747583 0)
(-0.6764138 -6.677222 0)
(-0.6104037 -6.82198 -7.558456e-19)
(-0.5536519 -5.846819 -3.564796e-19)
(-0.4780808 -4.578973 -2.860776e-19)
(-0.3650973 -3.32302 9.964261e-20)
(-0.1567584 -2.944576 0)
(-0.09327495 -2.631492 -2.747715e-19)
(-0.210233 -2.241937 0)
(-0.4102252 -1.710052 -3.882739e-19)
(-0.2790153 -1.049881 0)
(0.440947 -0.435472 0)
(1.682065 -1.589835 -3.235504e-19)
(2.31849 -4.220485 -4.596772e-19)
(1.336443 -3.782381 2.891187e-19)
(0.4117909 -2.907155 9.045233e-20)
(-1.063409 -0.8781342 -4.173806e-19)
(-1.860804 1.399357 0)
(-2.16525 2.767837 4.068632e-19)
(-2.220909 3.275875 4.759667e-19)
(-1.97058 3.306765 5.717257e-19)
(-1.691511 3.41614 -1.632704e-20)
(-0.6707539 1.988105 -2.908814e-20)
(-0.6825474 0.2854188 -1.19937e-18)
(-3.251085 1.36575 3.023342e-18)
(-4.600323 2.60764 2.12433e-18)
(-5.301862 3.814987 1.021514e-19)
(-5.253559 4.42747 3.501775e-18)
(-4.142005 4.27601 2.560952e-18)
(-1.68937 3.629777 9.468152e-19)
(1.097037 1.528222 0)
(5.232078 -2.67532 -2.698572e-20)
(7.600654 -3.974918 0)
(9.145664 -4.023033 1.149679e-18)
(9.804736 -4.203786 1.657445e-18)
(9.545581 -4.413341 2.324346e-18)
(8.936472 -4.36628 -1.207447e-19)
(7.834242 -3.185677 8.645549e-20)
(6.44758 -0.5792306 -7.690848e-18)
(9.937378 0.9689785 0)
(17.59566 -0.08402751 -7.794264e-19)
(17.72943 -0.733755 -9.833259e-19)
(17.46374 -0.3817193 1.0703e-18)
(17.59242 0.2004608 2.628901e-19)
(17.69219 0.676439 0)
(17.87882 1.267691 6.23419e-19)
(17.96945 1.930856 0)
(17.9734 2.612487 0)
(17.88352 3.28642 2.735403e-18)
(17.7193 3.978575 -4.16996e-20)
(17.48916 4.637171 4.881913e-20)
(17.18702 5.274425 -2.565824e-18)
(16.82089 5.866905 5.163342e-18)
(16.39656 6.435311 -4.922517e-18)
(15.93155 6.980689 -4.738175e-18)
(15.42687 7.464984 2.237948e-19)
(14.86746 7.911116 -1.373226e-19)
(14.26758 8.298949 -1.205731e-19)
(13.62695 8.642214 -3.457927e-18)
(12.9582 8.929613 -3.506354e-18)
(12.26304 9.155969 -9.168839e-20)
(11.54734 9.338406 2.907066e-18)
(10.82686 9.464443 0)
(10.09635 9.518599 2.127848e-18)
(9.350558 9.510191 1.767507e-18)
(8.604519 9.45054 1.350567e-18)
(7.872984 9.336759 1.048148e-18)
(7.15486 9.160556 0)
(6.449678 8.920553 0)
(5.758043 8.629693 -7.61721e-20)
(5.09818 8.273313 0)
(4.455828 7.866445 0)
(3.852925 7.407894 1.160652e-18)
(3.288381 6.903648 -2.202234e-20)
(2.763594 6.35859 -1.485108e-20)
(2.281949 5.773526 -3.368377e-20)
(1.850864 5.149266 2.337509e-18)
(1.470348 4.490325 0)
(1.147782 3.806765 0)
(0.8629746 3.115498 1.503229e-18)
(0.658076 2.398719 7.549243e-19)
(0.4953024 1.672786 8.142421e-19)
(0.3955242 0.9523947 -4.216109e-19)
(0.3846719 0.204482 0)
(0.4346519 -0.5681881 -4.315751e-22)
(0.4931092 -1.363522 2.511865e-20)
(0.6227064 -2.118041 7.54568e-19)
(0.8239522 -2.841475 -1.474502e-18)
(1.082016 -3.542902 -4.161784e-20)
(1.397968 -4.220269 1.267858e-18)
(1.76414 -4.867164 3.730961e-20)
(2.188918 -5.48215 2.006829e-18)
(2.646846 -6.070213 -1.267153e-20)
(3.153901 -6.608729 -1.433763e-18)
(3.712678 -7.103103 3.805908e-20)
(4.296899 -7.564138 0)
(4.913766 -7.970477 3.735283e-19)
(5.577116 -8.322165 0)
(6.258723 -8.634832 0)
(6.950926 -8.886796 -7.767276e-19)
(7.663552 -9.067674 2.253515e-18)
(8.390231 -9.194632 5.282775e-20)
(9.119528 -9.267435 -1.047049e-19)
(9.855932 -9.276641 -2.261822e-18)
(10.58994 -9.233382 -2.576137e-18)
(11.31113 -9.13116 3.096754e-18)
(12.01209 -8.966145 -3.370432e-18)
(12.69054 -8.739108 -7.196789e-20)
(13.35192 -8.454872 0)
(13.98366 -8.12873 -4.416205e-18)
(14.58418 -7.744528 9.31847e-18)
(15.14404 -7.315621 -4.964285e-18)
(15.66078 -6.838946 0)
(16.13759 -6.319089 8.923127e-20)
(16.56391 -5.771276 -5.388425e-18)
(16.93279 -5.182542 -8.611592e-20)
(17.24001 -4.561658 1.371139e-19)
(17.48453 -3.909603 -9.027668e-20)
(17.66124 -3.24267 0)
(17.75655 -2.57646 -2.900644e-18)
(17.76574 -1.916588 1.39811e-18)
(17.70011 -1.302382 6.919713e-19)
(17.59397 -0.8028835 -1.069535e-20)
(17.82186 -0.3957618 3.291954e-19)
(18.37846 0.2767692 6.662704e-19)
(18.59804 1.336881 0)
(17.96375 2.386275 1.414272e-18)
(17.08478 2.801584 -6.53439e-20)
(15.18078 2.236877 1.830007e-18)
(6.591632 -0.8447945 0)
(0.6705107 -2.477203 0)
(-0.3611724 -1.068366 0)
(-0.08420199 0.8821683 1.249502e-19)
(1.320769 2.134986 5.869239e-18)
(2.867398 2.45922 -4.32664e-18)
(3.85136 2.386207 3.805775e-18)
(3.560913 2.079862 -6.889534e-18)
(2.593017 1.87732 3.175802e-18)
(1.445516 1.687903 0)
(0.585653 1.361928 -2.005666e-18)
(1.094792 1.094387 -2.023029e-18)
(1.32337 0.5356691 2.089852e-18)
(0.8538922 -0.05651713 -6.848586e-20)
(-0.02874061 -0.9739701 -9.755115e-20)
(-0.9251758 -1.843906 9.765384e-20)
(-1.434171 -1.839684 0)
(-1.314785 -1.414137 -3.730596e-18)
(-0.9666135 -0.7580766 1.088268e-19)
(-0.4551714 -0.1826911 6.904056e-18)
(-0.06105457 0.277684 -3.514387e-18)
(0.3334035 0.4074057 2.044317e-19)
(0.4275123 0.1586504 -3.151665e-18)
(0.1162951 -0.7390842 0)
(-0.2513701 -2.188437 -2.762936e-18)
(-0.5600243 -3.597294 1.419453e-18)
(-0.7498821 -4.400082 -8.799853e-20)
(-0.7326364 -4.793358 1.512716e-18)
(-0.5760794 -5.188882 -6.484668e-20)
(-0.4884371 -5.621621 2.117522e-20)
(-0.5441926 -5.530667 6.524047e-19)
(-0.6073842 -4.753487 -4.105395e-21)
(-0.580263 -3.902966 4.185567e-21)
(-0.4275663 -3.150162 4.707262e-21)
(-0.2033783 -2.792999 1.339499e-19)
(-0.1355874 -2.487041 2.272505e-19)
(-0.2631237 -2.314476 -1.817846e-19)
(-0.4044392 -2.215588 3.181055e-19)
(-0.04204021 -2.11363 0)
(1.093457 -2.048693 3.830247e-19)
(2.378347 -2.854862 2.80159e-19)
(2.449589 -4.325681 3.780345e-19)
(1.221162 -3.875739 0)
(0.09605669 -2.963392 0)
(-1.516812 -0.9619497 3.377751e-19)
(-2.111634 1.279203 -3.065976e-22)
(-2.251796 2.675813 -1.722096e-19)
(-2.193966 3.20971 -4.084246e-19)
(-1.850519 3.210908 -4.684169e-19)
(-1.487007 3.31406 4.225265e-19)
(-1.020695 2.673099 -5.218389e-19)
(-1.674648 1.376217 9.316706e-19)
(-3.712654 1.432749 -1.201736e-18)
(-4.594152 2.217013 0)
(-4.965793 3.363639 0)
(-4.629942 4.054178 -2.996e-18)
(-3.361199 4.098505 0)
(-0.7081676 3.565605 -6.465446e-21)
(1.652676 2.022746 2.293089e-20)
(6.283864 -2.452418 5.916793e-19)
(9.310905 -4.333133 6.32917e-21)
(11.02719 -4.594288 -2.074594e-20)
(11.88362 -4.957307 -1.331211e-18)
(12.22293 -5.381595 1.447908e-20)
(12.81701 -5.657426 1.513982e-18)
(13.54183 -4.612019 -8.413993e-20)
(13.89404 -1.64848 2.972092e-18)
(15.9823 0.53256 -6.287121e-20)
(18.35189 0.09768888 2.57225e-18)
(16.9554 -0.6727533 2.404295e-20)
(17.31531 -0.3980453 -7.511692e-21)
(17.55917 0.08268386 -4.498629e-19)
(17.71922 0.4794738 -3.710203e-21)
(17.906 0.9987401 -5.141772e-19)
(18.00367 1.605867 -3.318098e-20)
(18.01121 2.256784 -1.029959e-18)
(17.91835 2.916055 2.130924e-18)
(17.7535 3.604084 -2.127033e-18)
(17.52973 4.25697 4.104301e-18)
(17.22973 4.913668 2.245837e-18)
(16.86548 5.521517 0)
(16.43976 6.108711 0)
(15.97506 6.676242 3.84243e-18)
(15.47108 7.180258 3.667563e-18)
(14.91194 7.644674 0)
(14.31494 8.044397 -9.679826e-20)
(13.67441 8.402242 3.135912e-18)
(13.00287 8.709392 2.794084e-18)
(12.30873 8.947923 2.450925e-18)
(11.59903 9.136228 -6.520663e-20)
(10.88042 9.27521 -1.864393e-18)
(10.14725 9.345841 4.744425e-20)
(9.40624 9.343678 -4.789943e-20)
(8.668582 9.288036 -1.139452e-18)
(7.939907 9.184118 8.05787e-19)
(7.218042 9.023529 0)
(6.52093 8.788152 0)
(5.83181 8.507678 1.504473e-19)
(5.180667 8.157509 -8.86014e-21)
(4.542724 7.759448 -8.500006e-21)
(3.954989 7.305398 -8.950613e-19)
(3.398173 6.808352 -2.340646e-18)
(2.865964 6.279382 1.340592e-18)
(2.386503 5.705071 -1.633817e-18)
(1.959855 5.089378 -9.146903e-19)
(1.58812 4.436013 -3.13957e-20)
(1.272941 3.753907 0)
(0.9804639 3.073001 -1.173464e-18)
(0.7874738 2.361961 -3.938889e-20)
(0.6207534 1.638261 -6.771828e-19)
(0.5208197 0.9262964 3.613045e-19)
(0.5182067 0.1883505 3.743358e-24)
(0.5769507 -0.5525119 -3.620093e-19)
(0.6212454 -1.340792 3.107277e-20)
(0.7465876 -2.086588 -6.574947e-19)
(0.9408792 -2.797403 1.207767e-18)
(1.194066 -3.488655 -1.166803e-18)
(1.506591 -4.157519 2.651573e-21)
(1.868715 -4.794889 9.687214e-19)
(2.297653 -5.398795 -1.597342e-18)
(2.746283 -5.981172 1.388747e-18)
(3.242029 -6.514291 1.07308e-18)
(3.801427 -6.999925 8.258104e-21)
(4.392899 -7.448729 8.699489e-21)
(5.001512 -7.848714 -2.923035e-19)
(5.64765 -8.20214 4.370793e-20)
(6.329044 -8.506679 1.360604e-20)
(7.019571 -8.749225 5.536348e-19)
(7.72379 -8.9244 -1.803805e-18)
(8.442237 -9.04818 1.192912e-18)
(9.176062 -9.104056 -5.308935e-20)
(9.909374 -9.103994 -1.817571e-18)
(10.63539 -9.057522 4.23875e-18)
(11.35636 -8.942857 7.892829e-20)
(12.05398 -8.768365 2.614671e-18)
(12.73217 -8.526454 -3.05878e-18)
(13.39505 -8.226474 9.501727e-20)
(14.02531 -7.888265 -3.490756e-18)
(14.62603 -7.486456 -3.576706e-18)
(15.1847 -7.042736 1.235436e-19)
(15.7023 -6.544375 -4.127316e-18)
(16.17927 -6.003967 4.267989e-18)
(16.60499 -5.438095 0)
(16.97168 -4.833135 0)
(17.27515 -4.194783 2.326429e-18)
(17.51547 -3.541874 2.329292e-18)
(17.69294 -2.883294 0)