/*--------------------------------*- C++ -*----------------------------------*\
| =========                 |                                                 |
| \\      /  F ield         | OpenFOAM: The Open Source CFD Toolbox           |
|  \\    /   O peration     | Version:  2406                                  |
|   \\  /    A nd           | Website:  www.openfoam.com                      |
|    \\/     M anipulation  |                                                 |
\*---------------------------------------------------------------------------*/
FoamFile
{
    version     2.0;
    format      ascii;
    arch        "LSB;label=32;scalar=64";
    class       volVectorField;
    location    "0.2";
    object      U;
}
// * * * * * * * * * * * * * * * * * * * * * * * * * * * * * * * * * * * * * //

dimensions      [0 1 -1 0 0 0 0];

internalField   nonuniform List<vector> 
4562
(
(0.01001674 0.0001225599 -2.340466e-26)
(0.009999982 1.213241e-05 0)
(0.01001055 5.672346e-05 0)
(0.009998337 1.486633e-05 2.426726e-26)
(0.0102316 7.198781e-05 0)
(0.01000608 2.44484e-05 -3.758914e-27)
(0.009879548 0.0001008153 1.869892e-26)
(0.009951258 5.424256e-05 -1.234257e-26)
(0.009958733 2.262923e-05 -1.433799e-25)
(0.009998671 1.635947e-05 1.576372e-26)
(0.009921843 0.0002168594 -3.513246e-25)
(0.01002963 8.58858e-05 5.186477e-26)
(0.009966782 9.830205e-05 0)
(0.009998349 5.544672e-05 0)
(0.01045483 0.000360488 2.465931e-24)
(0.01001851 1.192924e-05 -8.358481e-27)
(0.009916409 3.671307e-05 1.768781e-25)
(0.01005044 6.33384e-05 -1.124041e-25)
(0.009839497 8.285591e-05 4.540714e-25)
(0.01001553 6.909297e-05 0)
(0.009982763 0.0006837613 1.381684e-24)
(0.009980978 5.829444e-05 0)
(0.009905149 0.0001800059 0)
(0.01001051 1.532228e-05 4.398624e-27)
(0.01001094 2.379148e-05 0)
(0.009979899 0.0001425011 1.520336e-25)
(0.009948707 4.264731e-05 0)
(0.009972367 6.334205e-05 -2.176247e-25)
(0.009812995 0.0003777017 0)
(0.01015081 0.0003512849 0)
(0.01000428 0.0001143787 4.385526e-26)
(0.01001338 1.755902e-05 -3.251039e-27)
(0.01000078 4.652447e-05 3.788239e-26)
(0.009901183 0.0001014198 3.525219e-25)
(0.01007526 0.0001371413 3.059445e-25)
(0.01004316 2.840166e-05 -2.226585e-26)
(0.009853301 0.0004503273 -7.06182e-25)
(0.00997255 2.332572e-05 0)
(0.01001741 1.537969e-05 1.86821e-26)
(0.0100322 4.556919e-05 2.574839e-26)
(0.009925198 3.116957e-05 0)
(0.009988986 8.483486e-06 -3.753855e-28)
(0.00991779 6.177093e-05 -3.298576e-25)
(0.009996509 2.509124e-05 -2.042363e-26)
(0.01000915 1.461334e-05 8.223716e-27)
(0.009928979 5.746942e-05 -6.741609e-25)
(0.0100093 2.375666e-05 0)
(0.009991832 9.155809e-06 0)
(0.009989191 1.778172e-05 0)
(0.0100392 0.0001711694 2.246297e-27)
(0.009990083 2.201298e-05 0)
(0.009997079 0.0001108561 3.915135e-26)
(0.01006407 3.337425e-05 2.842423e-25)
(0.009883427 0.0001102964 0)
(0.01002111 2.558259e-05 -3.602875e-26)
(0.01038613 0.0004392848 0)
(0.009887947 0.0001019771 2.366418e-25)
(0.009846393 0.0001436155 8.515012e-25)
(0.009900779 8.774134e-05 -7.768542e-25)
(0.01034114 0.0003225005 0)
(0.01000409 3.475156e-05 1.015297e-27)
(0.009874438 0.0003266279 -5.353772e-25)
(0.009935283 9.426076e-05 -3.009031e-25)
(0.0100326 0.0001232025 -9.758828e-26)
(0.009934838 2.862368e-05 4.325181e-26)
(0.01019209 0.0004543345 -8.424326e-26)
(0.009981331 9.347662e-05 -1.323331e-25)
(0.009981081 0.0001348042 1.871942e-26)
(0.01003824 0.0001613993 0)
(0.009991469 5.630204e-05 0)
(0.009858354 0.0001672994 0)
(0.009977275 3.271424e-05 -8.095638e-26)
(0.01012608 0.0002210143 0)
(0.009959914 2.69869e-05 -6.572477e-26)
(0.009924191 7.136375e-05 2.576313e-25)
(0.01018793 0.0002403959 2.412713e-25)
(0.01001393 0.0001034943 1.043598e-26)
(0.009964941 4.268022e-05 -2.037723e-25)
(0.01001363 0.0001659101 0)
(0.0103815 0.0002246375 1.088116e-24)
(0.01035316 8.182702e-05 2.736879e-24)
(0.01011093 0.0001019528 -2.778823e-25)
(0.01013268 0.000598257 2.372375e-25)
(0.009991472 3.276815e-05 0)
(0.009904886 0.0001052165 0)
(0.009984613 1.520971e-05 -3.592646e-26)
(0.01001483 1.397534e-05 9.772998e-27)
(0.009982352 5.297681e-05 -7.746564e-26)
(0.009957607 4.577877e-05 0)
(0.009986685 9.118382e-05 -7.381009e-26)
(0.009976638 3.009202e-05 0)
(0.01001201 1.07997e-05 0)
(0.009964627 5.667084e-05 -7.683849e-26)
(0.01000309 4.881441e-05 -1.860354e-26)
(0.01002264 0.0002560429 0)
(0.009940784 0.0002725613 0)
(0.01001331 1.264588e-05 0)
(0.009968479 1.993562e-05 1.734152e-26)
(0.009815823 0.00024679 0)
(0.009891854 0.0001240308 2.179464e-26)
(0.009995314 6.623246e-05 4.105646e-26)
(0.009843812 0.0002369968 3.31538e-25)
(0.009995752 3.403898e-05 6.618704e-26)
(0.01001928 0.0007286736 0)
(0.01000219 0.0001022836 2.462332e-26)
(0.009992249 0.0003263408 0)
(0.009955694 4.825449e-05 -9.801382e-26)
(0.01000015 6.390959e-05 0)
(0.009998864 3.127318e-05 1.244589e-26)
(0.01002366 1.82123e-05 0)
(0.009963304 0.0001335144 1.141126e-25)
(0.01006527 0.0002378272 4.239364e-26)
(0.01000549 9.747245e-05 -2.251396e-26)
(0.009855374 8.781617e-05 0)
(0.0102038 0.0004793441 0)
(0.009989358 8.263541e-06 9.572412e-27)
(0.01031189 0.0001973588 -1.183881e-24)
(0.00995963 6.322708e-05 2.020517e-25)
(0.009838651 0.0003200112 -4.355528e-25)
(0.00997777 7.682912e-05 -2.221398e-25)
(0.01008652 0.0001393393 -6.679353e-25)
(0.009944762 2.83991e-05 2.015871e-25)
(0.009985837 1.841886e-05 -2.956666e-26)
(0.009997216 2.81698e-05 -9.518591e-27)
(0.009930837 0.0001237241 2.319358e-25)
(0.009998611 4.456277e-05 -4.343785e-26)
(0.009983237 4.346895e-05 -4.184746e-26)
(0.01000019 3.523029e-05 8.789083e-27)
(0.0100285 0.0002503857 -2.38578e-26)
(0.01002927 0.0001858906 4.074748e-26)
(0.01003742 9.877045e-05 -4.722669e-27)
(0.009987702 2.120603e-05 -3.071553e-26)
(0.00999485 0.0003190722 -8.434974e-26)
(0.01000047 1.057127e-05 -6.232816e-28)
(0.010008 0.0001024468 -1.223254e-26)
(0.01032307 0.0004519772 -9.459193e-25)
(0.009867117 0.0001501233 0)
(0.009986566 4.360932e-05 -8.611409e-26)
(0.01009904 5.498411e-05 0)
(0.01000409 1.422025e-05 -8.524366e-29)
(0.01012848 0.0005208196 0)
(0.01013013 0.0001233373 -2.625295e-25)
(0.01001607 2.584464e-05 -1.620929e-26)
(0.01035625 0.0005239505 -2.711427e-25)
(0.009981388 0.0001738063 0)
(0.0100016 5.977298e-05 0)
(0.009908484 0.0001345305 0)
(0.009985311 3.190187e-05 -2.882043e-26)
(0.01004001 0.0001259471 7.370313e-26)
(0.01007305 4.393639e-05 -5.603601e-25)
(0.009999191 2.426197e-05 0)
(0.009899683 0.0003100248 0)
(0.009994962 5.594157e-05 0)
(0.01003656 7.444784e-05 9.475828e-26)
(0.0100039 2.332867e-05 0)
(0.01008016 0.0001274753 2.026225e-25)
(0.009980205 2.186386e-05 0)
(0.01027138 0.0005374167 -2.087557e-26)
(0.01000776 7.75284e-05 -1.099805e-26)
(0.00999107 2.014632e-05 -5.273342e-26)
(0.009973079 0.0001336484 -3.913634e-25)
(0.01018953 0.0002287891 -3.275734e-25)
(0.01016475 0.0003814005 0)
(0.009987891 9.62568e-06 6.722486e-27)
(0.009982353 2.927126e-05 -5.696214e-26)
(0.01039871 0.0004346345 2.882245e-25)
(0.01001418 4.268468e-05 -1.875947e-26)
(0.01001032 1.84686e-05 -1.207664e-26)
(0.009894303 0.0001754034 -2.760552e-25)
(0.01009037 0.000158714 1.628626e-25)
(0.0100149 0.000682813 -2.530593e-24)
(0.01002444 5.692098e-05 -3.252626e-27)
(0.01006263 0.0002748661 2.293111e-27)
(0.01001032 4.966683e-05 0)
(0.009986482 0.0002873076 -2.751285e-25)
(0.01000966 7.525807e-05 1.215326e-26)
(0.009988584 1.24013e-05 8.191621e-27)
(0.009984848 1.892814e-05 6.695485e-26)
(0.00995533 0.0001158175 1.00232e-26)
(0.009969949 2.899527e-05 0)
(0.01000453 1.63196e-05 0)
(0.00992104 9.594551e-05 4.38772e-25)
(0.009905643 0.000130221 4.313448e-25)
(0.01045461 0.0003393401 -1.788175e-25)
(0.01003347 0.0002647856 0)
(0.01000194 8.413039e-05 -1.874189e-26)
(0.009996786 0.0003825714 -4.123482e-25)
(0.01001987 0.0001120301 1.303843e-27)
(0.009974309 2.120443e-05 -1.325012e-26)
(0.0101066 0.0003887919 0)
(0.009983237 0.0004359699 0)
(0.01008433 0.0004292199 4.262124e-25)
(0.01007853 0.0001457611 0)
(0.01000593 4.337673e-05 2.064752e-27)
(0.01002343 0.0002839977 0)
(0.009968934 2.974657e-05 -1.890882e-25)
(0.009881937 5.87936e-05 2.058767e-25)
(0.009897125 0.0001248744 4.57283e-25)
(0.01008654 0.0001641487 -4.727107e-26)
(0.009996112 1.862469e-05 9.662393e-27)
(0.009986368 2.882068e-05 7.502749e-26)
(0.009945811 0.0001358951 0)
(0.01001654 9.555888e-05 0)
(0.01007488 0.00032755 8.406654e-26)
(0.009885588 0.0002677635 -2.428019e-25)
(0.01000952 3.842193e-05 0)
(0.01024395 0.0003469545 -4.060628e-25)
(0.01029238 0.0004567189 -3.483307e-25)
(0.01006217 0.0001444574 2.361293e-25)
(0.00995568 3.50419e-05 1.538264e-25)
(0.01001103 1.639965e-05 -3.467316e-27)
(0.009936521 0.0003171246 0)
(0.009985906 1.47297e-05 -3.174404e-26)
(0.01001305 2.655697e-05 -8.188305e-27)
(0.01014201 0.0003386105 0)
(0.01027887 0.0004520889 -1.709661e-25)
(0.009998381 3.342811e-05 0)
(0.009997913 1.153154e-05 4.83796e-28)
(0.01001328 0.0001150541 0)
(0.01030126 0.0005532294 -8.715216e-26)
(0.01000216 3.343994e-05 -1.509179e-26)
(0.01023565 0.000637786 9.454821e-25)
(0.01008591 0.0001946159 0)
(0.01001983 2.524552e-05 2.139087e-26)
(0.009916631 0.000187121 0)
(0.009922875 0.0001184458 -9.425901e-26)
(0.009956863 0.0002812669 -1.543461e-25)
(0.009938883 0.0002003934 7.516862e-26)
(0.01015229 0.0004995294 0)
(0.009939285 4.452531e-05 0)
(0.01000023 1.264248e-05 4.779063e-28)
(0.009923293 0.0001271993 1.969193e-25)
(0.01004791 9.282588e-05 1.327181e-25)
(0.009943963 0.0001569594 3.560057e-25)
(0.00997115 1.956169e-05 6.892206e-26)
(0.00986509 0.0001435131 0)
(0.009880741 8.943609e-05 -1.929367e-25)
(0.01022811 0.0005150862 -6.888946e-26)
(0.0100579 0.0001392934 0)
(0.009950847 2.563909e-05 0)
(0.009942889 2.737565e-05 -3.867502e-25)
(0.009970462 6.181405e-05 -1.315655e-25)
(0.0100428 0.0003028146 0)
(0.009992595 8.137096e-05 9.732736e-26)
(0.01001878 7.61505e-05 -1.35138e-26)
(0.01034297 0.0003735588 -3.323978e-25)
(0.009969974 4.345942e-05 6.39126e-26)
(0.009892645 0.0002349562 -3.175468e-25)
(0.01001348 0.0001114528 1.028099e-27)
(0.009986504 1.413302e-05 -5.429951e-27)
(0.01000128 1.364577e-05 1.057629e-26)
(0.009989458 5.373026e-05 -1.273243e-25)
(0.009995942 4.327532e-05 3.175749e-26)
(0.009990239 3.09958e-05 3.206015e-26)
(0.01001557 3.410116e-05 4.3523e-26)
(0.01001999 5.284835e-05 -3.163879e-26)
(0.01000256 2.484474e-05 0)
(0.009930927 8.365676e-05 -7.042045e-25)
(0.009941042 2.846442e-05 2.273909e-25)
(0.009891151 0.000361207 -6.400162e-25)
(0.01003671 0.0004305124 -2.79678e-25)
(0.009966484 2.599847e-05 6.492837e-27)
(0.0100429 9.600155e-05 8.849731e-26)
(0.01000758 4.786208e-05 4.582605e-27)
(0.01016934 0.0002686434 -9.475495e-26)
(0.01000812 9.883665e-05 2.01562e-26)
(0.01000602 1.185119e-05 0)
(0.01003347 0.0001299994 5.935158e-26)
(0.01001719 2.430923e-05 2.408198e-26)
(0.01001398 1.192903e-05 -2.764383e-27)
(0.009992219 1.203938e-05 0)
(0.009981839 5.041184e-05 9.814683e-26)
(0.009956072 8.606294e-05 1.277875e-25)
(0.01010951 0.0001141618 -2.699922e-25)
(0.01019554 0.0001442787 -3.062692e-26)
(0.009996773 1.388822e-05 0)
(0.01000981 2.116791e-05 -1.563717e-27)
(0.01000027 2.228199e-05 -2.486256e-26)
(0.01001859 6.506827e-05 4.591887e-26)
(0.01029022 0.0002826686 -4.725689e-25)
(0.009979526 0.000107631 1.081188e-25)
(0.0100155 1.18377e-05 -3.443648e-27)
(0.00995322 5.749436e-05 0)
(0.009973019 5.882984e-05 -5.792293e-26)
(0.01007065 0.0005381362 2.839923e-25)
(0.01002244 3.754421e-05 -2.033601e-26)
(0.01001426 3.559576e-05 5.110483e-26)
(0.009995997 2.34308e-05 3.067519e-26)
(0.01000007 2.779022e-05 4.167303e-26)
(0.00985122 0.0001651012 0)
(0.009991246 0.0001509159 0)
(0.009995005 5.25588e-05 0)
(0.009928189 0.0002041631 -1.428847e-25)
(0.01004283 0.0002849069 0)
(0.009991119 2.810685e-05 -3.626627e-26)
(0.009920827 0.0002279322 3.482473e-25)
(0.009950045 0.0002365528 3.278099e-25)
(0.01000029 4.476847e-05 4.173413e-26)
(0.009858542 0.0003660255 1.953046e-25)
(0.01013472 7.725793e-05 -2.394698e-25)
(0.01002998 5.937491e-05 8.118447e-26)
(0.009973645 7.450682e-05 8.832568e-26)
(0.01002055 0.0001505039 -2.58997e-26)
(0.01017828 0.0004052845 0)
(0.01008109 4.461994e-05 2.472167e-27)
(0.009909337 0.0004033348 -4.020663e-25)
(0.009868988 0.0004392188 9.338075e-25)
(0.01001427 3.089376e-05 0)
(0.009953784 0.0001049873 0)
(0.009940625 0.0001109102 2.053068e-25)
(0.009960351 2.450584e-05 -1.931662e-25)
(0.0100731 0.0001069826 -1.659681e-25)
(0.01024716 0.0004876361 0)
(0.009832368 0.0002201762 8.71987e-25)
(0.009968871 0.0001151419 -2.087372e-25)
(0.01002688 7.568254e-05 -3.022822e-26)
(0.009989195 1.532839e-05 6.177512e-26)
(0.01001664 1.569072e-05 0)
(0.01008063 0.0002146087 1.743701e-26)
(0.009985002 1.193331e-05 2.760214e-26)
(0.009983687 1.631774e-05 5.554813e-26)
(0.01043965 0.0003335691 -2.918544e-24)
(0.01000245 2.041711e-05 1.89407e-27)
(0.009992497 2.625388e-05 0)
(0.009914701 0.0004534715 0)
(0.009962053 6.44599e-05 -2.756181e-27)
(0.009912443 0.0001977625 0)
(0.009954918 0.0001877473 -2.901111e-25)
(0.00997964 2.296718e-05 2.571744e-26)
(0.009915541 0.0002729187 4.998624e-25)
(0.010016 4.960491e-05 2.653353e-26)
(0.01004272 4.958928e-05 0)
(0.01001124 6.252877e-05 5.107483e-28)
(0.01001958 5.845252e-05 -5.305322e-26)
(0.009827063 0.0001471715 6.520984e-25)
(0.009833993 0.0001430843 -1.060345e-24)
(0.01000868 1.882598e-05 -2.898413e-30)
(0.01002553 0.0003498036 3.400351e-25)
(0.01020582 0.0004629191 0)
(0.01016145 0.0005309491 0)
(0.01008573 0.0003214603 6.368731e-27)
(0.01010575 0.0002384965 0)
(0.01008777 0.000417908 -2.857339e-25)
(0.009980811 8.557752e-05 -9.34348e-26)
(0.009988105 1.421672e-05 0)
(0.01000206 1.658801e-05 -6.708276e-27)
(0.009998068 1.064344e-05 -6.367771e-28)
(0.009955877 9.900736e-05 -3.609781e-26)
(0.009864238 0.0002235934 1.290755e-25)
(0.009966632 3.315034e-05 0)
(0.01012182 0.0003489031 -9.605751e-26)
(0.009985281 9.863764e-05 -1.005758e-25)
(0.01001207 2.517621e-05 3.11234e-27)
(0.009976207 2.042768e-05 1.343046e-25)
(0.01001134 1.074036e-05 0)
(0.009964915 4.455856e-05 1.048854e-25)
(0.009982816 3.241919e-05 0)
(0.009986248 6.057008e-05 0)
(0.009931355 4.625549e-05 -1.870397e-25)
(0.009979582 2.084493e-05 -5.67138e-27)
(0.009981291 2.205591e-05 0)
(0.009998848 1.758545e-05 0)
(0.01000917 1.519011e-05 -2.45701e-28)
(0.01003765 5.026845e-05 4.38634e-26)
(0.009981587 4.238353e-05 8.979554e-26)
(0.009940828 5.507711e-05 4.852971e-25)
(0.009954838 2.70252e-05 0)
(0.009943903 7.206801e-05 1.647843e-25)
(0.009955414 6.318312e-05 1.508391e-26)
(0.009974391 4.701185e-05 -6.455564e-26)
(0.009919496 4.245852e-05 0)
(0.009904701 5.348042e-05 8.322302e-25)
(0.009914158 4.760433e-05 7.590433e-25)
(0.009919622 0.0003331941 0)
(0.01005055 0.0002401922 6.081928e-26)
(0.0100099 1.234216e-05 0)
(0.009897316 6.974865e-05 0)
(0.009977699 0.0006354753 0)
(0.009983633 7.762382e-05 0)
(0.009992137 6.205727e-05 0)
(0.0100042 3.24663e-05 2.312928e-26)
(0.01002537 0.0001414724 0)
(0.009951478 0.0002609077 0)
(0.01001135 1.45831e-05 3.962073e-27)
(0.01005703 0.0001723894 1.037657e-25)
(0.009939196 0.0002649205 1.951487e-25)
(0.01004215 0.000472533 -1.167334e-24)
(0.01000867 1.110343e-05 -6.638692e-29)
(0.009990808 3.68106e-05 1.158435e-26)
(0.009975412 4.20972e-05 5.622277e-26)
(0.009979654 4.480876e-05 5.199074e-27)
(0.009980631 3.422512e-05 -1.302393e-26)
(0.00999146 1.029491e-05 0)
(0.01005199 0.0001993601 3.321067e-26)
(0.01023829 0.0001308205 2.051619e-24)
(0.01017671 0.0001726772 8.812845e-25)
(0.009875289 9.169488e-05 -7.221404e-25)
(0.009828929 0.0002097722 8.220432e-25)
(0.009995515 2.202934e-05 3.045461e-26)
(0.009854682 6.138471e-05 1.5031e-25)
(0.01004289 0.0004440996 -2.688556e-26)
(0.009988008 0.0007765656 1.634201e-24)
(0.009903362 5.743977e-05 -6.222373e-25)
(0.01002397 9.398881e-05 5.270997e-26)
(0.01038832 0.0003210482 0)
(0.01002857 0.0001552782 0)
(0.01013425 0.0007355587 0)
(0.009827895 0.0001563941 6.435535e-25)
(0.009936949 0.0006550111 0)
(0.009999013 3.614541e-05 0)
(0.01000322 0.0001459015 0)
(0.01000547 5.085583e-05 0)
(0.01001208 7.382626e-06 0)
(0.009987398 0.0001243554 3.225645e-27)
(0.009999176 0.0001537777 -7.569563e-27)
(0.01000332 1.905702e-05 0)
(0.009890279 6.090404e-05 -6.331468e-27)
(0.009993741 4.771529e-05 3.594786e-26)
(0.01000834 4.949643e-05 1.613819e-27)
(0.00999151 5.809198e-05 -6.152711e-26)
(0.009975923 3.469457e-05 0)
(0.009965462 2.119537e-05 -1.734574e-26)
(0.009897644 5.161892e-05 0)
(0.009930587 7.577718e-05 -1.216058e-26)
(0.009995221 9.547273e-06 3.469866e-26)
(0.009996284 7.729308e-05 -2.369156e-26)
(0.01000413 2.260263e-05 -1.042125e-29)
(0.009925471 5.889847e-05 9.495945e-26)
(0.009936359 3.903635e-05 -7.911417e-26)
(0.009966267 3.433261e-05 0)
(0.009971747 2.454581e-05 0)
(0.009950307 7.165877e-05 0)
(0.009893697 6.780852e-05 -1.164924e-25)
(0.009935333 3.379914e-05 0)
(0.009942497 3.737593e-05 0)
(0.01003484 3.203514e-05 1.065653e-25)
(0.01001432 2.095761e-05 1.68871e-26)
(0.009992769 3.094439e-05 1.738456e-26)
(0.009842152 0.0001331232 0)
(0.00994269 0.0001275948 9.529371e-26)
(0.01000734 5.83263e-05 0)
(0.01001002 3.107972e-05 -1.053711e-26)
(0.00985007 0.0002436816 0)
(0.009984669 0.0002221704 1.279234e-25)
(0.01042089 0.0003833707 0)
(0.009985673 1.755268e-05 4.609666e-27)
(0.01016664 0.0005632875 0)
(0.01000108 1.495739e-05 0)
(0.009955075 3.353353e-05 -1.784375e-25)
(0.00999555 3.274723e-05 1.833385e-26)
(0.009944396 8.323015e-05 0)
(0.01001713 9.592791e-06 0)
(0.01001421 0.0002537743 -1.915673e-26)
(0.01007275 0.0002264212 -1.420578e-25)
(0.01001056 2.995888e-05 5.222158e-27)
(0.00997773 1.972908e-05 -6.283739e-26)
(0.01033573 0.0005542933 1.138753e-25)
(0.0099132 7.643282e-05 -7.101319e-26)
(0.009891614 0.0006792099 8.488451e-25)
(0.01004328 7.114161e-05 8.455663e-26)
(0.01028087 0.0003770586 -9.774765e-25)
(0.01000488 3.178142e-05 -3.154838e-26)
(0.009966116 4.825916e-05 1.386609e-25)
(0.009848904 0.0001799965 -6.246671e-25)
(0.009841943 0.0001552694 0)
(0.009989732 1.422318e-05 0)
(0.009996996 1.257193e-05 -2.579313e-27)
(0.009999862 3.371891e-05 2.69311e-26)
(0.01027379 0.0004376122 -4.468958e-26)
(0.009950116 3.345001e-05 0)
(0.009985881 3.641139e-05 -1.17512e-25)
(0.009968815 0.0007056744 0)
(0.009966498 2.068689e-05 1.498001e-25)
(0.009972613 1.756601e-05 0)
(0.01024604 0.0002088807 -1.021141e-24)
(0.00995755 6.441315e-05 -1.464231e-26)
(0.009976345 8.060076e-05 0)
(0.009968786 9.665582e-05 0)
(0.009944503 0.0001162798 2.625833e-25)
(0.009962433 0.000125993 1.056388e-25)
(0.01001023 8.98027e-05 -2.243307e-26)
(0.01000206 0.000286227 1.778508e-25)
(0.009955012 0.0001297949 -2.858467e-25)
(0.01033233 0.0002393741 0)
(0.01003267 0.0001903391 -3.890439e-26)
(0.01013078 0.0001812112 -5.030484e-25)
(0.0101452 0.0002387727 2.345029e-26)
(0.009964226 4.769625e-05 -6.671075e-26)
(0.009951122 5.622521e-05 0)
(0.01001602 5.313643e-05 -2.346516e-26)
(0.01000731 1.225108e-05 -1.665039e-27)
(0.01000124 1.10913e-05 1.204822e-27)
(0.01001134 6.63636e-05 5.28211e-27)
(0.009929432 8.702242e-05 -5.792176e-25)
(0.009936874 0.000427263 0)
(0.01002531 6.875498e-05 -6.477686e-26)
(0.009998786 0.0001231962 -6.474256e-26)
(0.009988312 1.178537e-05 1.749965e-27)
(0.01019285 0.0004411872 9.375069e-26)
(0.01015249 0.0003671477 0)
(0.01016072 0.0003420959 -1.466367e-25)
(0.01010906 0.0002606766 0)
(0.01010489 0.0003215005 1.675698e-26)
(0.0100406 0.0003101981 1.620148e-26)
(0.0100019 0.0003724579 7.167034e-25)
(0.01006803 0.000430383 -1.136169e-25)
(0.01022317 0.0003518584 0)
(0.010095 0.0004403026 -1.159136e-25)
(0.01020466 0.0004258178 -6.888542e-27)
(0.010291 0.0005078032 -1.918717e-25)
(0.01014278 0.000317642 0)
(0.01008676 0.0003147511 -3.783057e-27)
(0.01007349 0.0002790532 0)
(0.01006982 0.0002983229 1.174676e-25)
(0.009965121 2.950363e-05 9.802013e-27)
(0.01005687 0.0002180171 -2.194298e-26)
(0.01019617 0.0001281092 -4.861527e-25)
(0.009969195 2.541843e-05 0)
(0.0102028 0.00022382 0)
(0.01002459 4.436656e-05 0)
(0.01001805 1.404227e-05 1.349886e-26)
(0.009958397 0.0003178374 0)
(0.01006529 0.000231161 -2.875312e-26)
(0.009956421 0.0001975666 2.035307e-25)
(0.01002284 6.879976e-05 0)
(0.009927116 9.214816e-05 0)
(0.01021837 0.0005734304 -4.689458e-26)
(0.01005619 3.93933e-05 0)
(0.0100152 3.18791e-05 0)
(0.009903626 4.676496e-05 0)
(0.009847389 5.462065e-05 2.508953e-25)
(0.009898105 0.000433445 4.425045e-26)
(0.009931129 3.715105e-05 -1.560278e-25)
(0.009952644 0.0002969273 -3.28515e-25)
(0.009999856 2.161108e-05 2.999059e-28)
(0.009967708 0.0001470565 0)
(0.009961943 7.814117e-05 2.25927e-25)
(0.01005459 0.0002453479 -6.06251e-26)
(0.009968525 0.0002212458 -2.738985e-25)
(0.009996856 0.0001735385 1.021244e-25)
(0.01022749 0.0001605931 1.029666e-24)
(0.009959064 3.398914e-05 0)
(0.00995318 3.313537e-05 0)
(0.01000293 2.641828e-05 9.169051e-27)
(0.01002443 2.353925e-05 -4.327399e-26)
(0.009972052 4.124001e-05 4.615443e-26)
(0.00991541 3.333444e-05 -1.511376e-25)
(0.009939338 0.0001522992 -3.809451e-25)
(0.009935387 0.0001238214 -8.883436e-25)
(0.009851401 7.851366e-05 0)
(0.009860298 6.064224e-05 9.671124e-25)
(0.009842195 0.0001115859 -1.727153e-25)
(0.009962683 0.0001155129 -8.73396e-26)
(0.009885059 9.271373e-05 2.290372e-25)
(0.009973969 0.0001009351 -6.362418e-26)
(0.009896646 0.0002127861 4.818093e-25)
(0.009963389 2.763647e-05 0)
(0.01001646 1.418721e-05 1.853087e-26)
(0.01010039 0.0002256031 0)
(0.01003035 0.0001140194 6.79299e-26)
(0.009955366 0.0001382648 2.036676e-25)
(0.01001472 7.365949e-05 8.850624e-27)
(0.00996646 0.0001021114 0)
(0.01000861 1.072884e-05 -3.657072e-28)
(0.01000553 1.451326e-05 3.539803e-27)
(0.01002664 0.0001144658 0)
(0.00998618 2.198697e-05 1.179845e-26)
(0.009977766 3.144287e-05 7.687207e-26)
(0.009978456 4.229837e-05 -9.710228e-26)
(0.01005392 0.0001928207 4.231983e-26)
(0.01028799 0.0003871731 1.163541e-25)
(0.01022233 0.0005912552 0)
(0.009995174 2.941374e-05 0)
(0.009887797 0.0001386356 1.105135e-24)
(0.01001537 2.094159e-06 -8.124596e-26)
(0.01002617 0.0002053926 4.890266e-28)
(0.01003058 0.000167302 -7.181839e-26)
(0.01002392 0.000125289 -1.082037e-26)
(0.009982925 4.516993e-05 -1.129658e-25)
(0.009986441 4.949221e-05 5.705558e-26)
(0.009992509 0.000120398 5.8082e-26)
(0.009965256 0.0001297168 -1.060828e-25)
(0.009999165 1.888445e-05 0)
(0.009961282 1.814515e-05 0)
(0.009974977 0.0001817851 0)
(0.009992026 1.621892e-05 1.706779e-26)
(0.01000423 1.520498e-05 0)
(0.009913798 4.438954e-05 -2.774447e-25)
(0.01000469 7.728721e-05 -1.976247e-26)
(0.009951365 0.0001147507 -3.245911e-25)
(0.009906609 0.0002391267 -3.270793e-26)
(0.01034189 0.0001403808 0)
(0.00987257 0.0002002288 -1.479938e-24)
(0.009905032 0.000325992 8.639496e-25)
(0.0101029 0.0006717653 -8.088557e-25)
(0.01004421 0.0005066139 -1.709239e-24)
(0.01013752 0.0004438538 -1.951804e-25)
(0.01001188 3.91343e-05 1.041937e-26)
(0.01001099 0.0001913933 -3.226412e-25)
(0.009999559 1.819129e-05 0)
(0.009883648 0.0002978505 1.010969e-25)
(0.009865897 0.0003012747 1.234865e-24)
(0.009976959 3.481102e-05 0)
(0.01000651 0.0002171031 -1.438835e-25)
(0.01004673 2.051252e-05 0)
(0.009941918 0.0001633013 -1.917422e-25)
(0.009943881 6.084036e-05 0)
(0.01001208 1.102991e-05 6.042959e-28)
(0.0100068 3.260381e-05 0)
(0.01012773 0.0001991267 -8.180569e-26)
(0.009969933 5.21551e-05 1.957747e-26)
(0.01003701 0.0001222594 2.751941e-26)
(0.01031848 0.0003742529 2.258514e-26)
(0.01033003 0.0003669489 0)
(0.009994059 0.0001070949 0)
(0.009894036 0.0006080694 1.128037e-24)
(0.009957918 0.0001259059 -1.26215e-25)
(0.01016398 0.0001476472 1.356134e-24)
(0.009995024 0.0001238885 0)
(0.01002286 4.115894e-05 0)
(0.0100337 8.326034e-05 0)
(0.01000732 1.804082e-05 2.417614e-27)
(0.01000521 2.555885e-05 2.768992e-27)
(0.01001115 2.775213e-05 -1.76481e-26)
(0.01001406 4.707941e-05 -6.497716e-27)
(0.01002699 1.885442e-05 0)
(0.01001791 1.001838e-05 0)
(0.01001576 1.467271e-05 0)
(0.0100559 0.0001501745 1.278079e-25)
(0.009918768 0.0001994203 8.028336e-25)
(0.009895707 8.072609e-05 -3.606402e-25)
(0.009883509 0.0004107001 0)
(0.009998701 2.271346e-05 -1.891827e-26)
(0.00992952 2.890917e-05 -2.347129e-25)
(0.009977618 4.718224e-05 -6.123104e-26)
(0.0098798 0.0002616822 0)
(0.01004974 0.0001894195 1.442002e-26)
(0.009909692 8.33414e-05 -7.089383e-25)
(0.009998689 0.0004082452 -6.265166e-25)
(0.01000356 0.0004700084 4.985484e-25)
(0.01001227 2.915667e-05 3.677646e-27)
(0.01001888 3.101238e-05 0)
(0.009976833 0.0004198429 6.247819e-25)
(0.009967638 0.00039645 2.554862e-26)
(0.01002176 4.043523e-05 -9.943036e-27)
(0.01001791 4.742505e-05 0)
(0.009985188 9.355415e-05 1.703488e-25)
(0.009990121 1.579297e-05 -5.695595e-26)
(0.009986345 1.703869e-05 -1.668893e-26)
(0.00998652 1.065147e-05 0)
(0.009910067 8.761306e-05 4.217142e-25)
(0.009898009 6.279752e-05 2.040455e-25)
(0.009906131 9.485042e-05 -3.333426e-25)
(0.009904607 8.060973e-05 -1.216633e-26)
(0.009989247 7.081435e-05 0)
(0.01014954 0.0004543726 0)
(0.009956165 4.463542e-05 0)
(0.009998425 2.656306e-05 -7.248098e-27)
(0.009987535 1.713117e-05 -3.172873e-26)
(0.009999247 7.126176e-05 -4.605012e-26)
(0.009901425 0.0001637094 1.41183e-25)
(0.01001351 0.0001537185 1.644073e-26)
(0.01000986 1.161988e-05 -2.855325e-27)
(0.01001403 1.235588e-05 -1.950504e-27)
(0.01001642 6.048077e-05 0)
(0.01001784 4.321236e-05 2.390977e-28)
(0.01002208 3.096346e-05 0)
(0.0100058 1.766765e-05 0)
(0.01038361 0.0002468755 1.631537e-24)
(0.009984332 2.745932e-05 0)
(0.009880859 0.0001202193 -2.39099e-25)
(0.01000816 3.877416e-05 -1.223315e-26)
(0.01000998 3.716866e-05 2.089303e-27)
(0.01002507 2.252707e-05 0)
(0.009984583 0.0001557253 -2.173982e-27)
(0.009861261 5.645306e-05 -9.187196e-25)
(0.009993461 9.479343e-06 4.632742e-27)
(0.009992333 9.802338e-06 0)
(0.0102402 0.0002708763 -6.329291e-26)
(0.01022435 0.0003099726 4.207481e-25)
(0.009990176 3.93434e-05 7.700114e-26)
(0.00997919 1.721999e-05 -3.996217e-26)
(0.01001352 5.869481e-05 -3.787701e-27)
(0.01001254 0.0001766482 -4.631756e-26)
(0.01000827 6.036384e-05 -1.229749e-26)
(0.00999391 1.978839e-05 -1.532579e-26)
(0.01028945 0.000525843 2.664682e-25)
(0.009966189 5.353966e-05 -1.519604e-25)
(0.01000587 4.76451e-05 -1.733054e-27)
(0.01000002 4.981653e-05 0)
(0.009995188 5.068365e-05 -5.66064e-27)
(0.009990289 4.144359e-05 -2.788862e-26)
(0.01001183 1.677365e-05 -1.861576e-27)
(0.01016739 0.0003084142 2.949895e-25)
(0.00992436 0.0002626949 -5.324847e-25)
(0.01004645 0.0001801507 -7.033532e-26)
(0.01005497 0.0001583227 -1.307581e-25)
(0.009959044 8.763651e-05 -2.099754e-25)
(0.01000187 1.046325e-05 -1.642997e-27)
(0.01018242 0.0003175589 2.80629e-25)
(0.009868527 0.0001920636 -1.502406e-26)
(0.01002721 8.552245e-05 -9.04136e-26)
(0.01003349 8.894189e-05 1.403326e-25)
(0.009997082 1.107325e-05 2.859844e-29)
(0.01000087 1.733994e-05 0)
(0.009957736 3.534663e-05 -1.546862e-25)
(0.01000983 1.442325e-05 -5.058393e-27)
(0.01002252 5.445e-05 -3.327542e-26)
(0.01000781 1.196112e-05 4.378587e-28)
(0.01002168 6.656451e-05 -3.501654e-26)
(0.009854568 0.0004681984 7.790466e-25)
(0.00989823 0.0003820136 -3.46703e-25)
(0.01007779 0.0005109493 -5.804364e-25)
(0.009957984 2.655131e-05 0)
(0.009940899 0.0001068717 -2.378577e-25)
(0.009979847 3.873567e-05 3.828929e-26)
(0.009819797 0.0006266748 0)
(0.009995 1.231537e-05 0)
(0.01003435 7.479897e-05 -7.339122e-27)
(0.01006022 0.0001891812 2.511843e-25)
(0.009957688 8.064399e-05 -2.187022e-25)
(0.009962515 9.305863e-05 -1.290172e-26)
(0.009947339 8.072983e-05 -5.545186e-26)
(0.009834514 0.0003329086 0)
(0.01005537 0.0001430977 -4.788715e-26)
(0.01001135 2.664543e-05 3.658142e-27)
(0.01006412 0.0001921685 -1.41693e-25)
(0.01001975 0.0002086995 -5.128129e-26)
(0.01024902 0.0003988753 0)
(0.01032668 0.0002880969 0)
(0.01013596 0.0002124906 4.419462e-25)
(0.0100111 1.211831e-05 0)
(0.009983098 0.0001613768 -1.384275e-25)
(0.01001088 0.0001579989 -1.741765e-26)
(0.009857688 0.0001256895 4.843863e-25)
(0.01035755 0.0001863224 9.688044e-25)
(0.009853801 0.0003577326 0)
(0.009985427 9.801637e-06 6.711141e-27)
(0.01008916 5.63942e-05 5.078178e-25)
(0.01030725 0.0004455508 0)
(0.01030971 0.0002487963 0)
(0.009986025 1.104554e-05 -1.529052e-27)
(0.009920723 4.912476e-05 0)
(0.01000602 1.491643e-05 -1.233923e-27)
(0.009983953 1.853426e-05 5.305883e-27)
(0.01018711 0.0002750056 0)
(0.009898685 0.0003209821 -8.82629e-25)
(0.01011039 0.0001747355 -1.413644e-25)
(0.009967705 2.090073e-05 0)
(0.01016593 0.0002053327 2.509362e-25)
(0.01001285 3.434348e-05 0)
(0.01021175 0.0002927445 8.168071e-25)
(0.009970358 4.155674e-05 -7.872982e-26)
(0.009950686 2.775832e-05 -9.48441e-26)
(0.010019 4.007012e-05 1.567343e-26)
(0.01002303 0.000109963 0)
(0.009962008 2.876702e-05 2.361989e-28)
(0.009944012 9.399718e-05 -2.821971e-26)
(0.009986182 9.994339e-06 -1.00875e-26)
(0.009971596 2.690767e-05 6.558991e-28)
(0.01001205 1.865952e-05 0)
(0.009966025 2.372129e-05 0)
(0.009937976 6.04795e-05 -2.596929e-25)
(0.009944246 3.634769e-05 0)
(0.009946133 4.735919e-05 1.214884e-25)
(0.01001716 2.735246e-05 5.940988e-26)
(0.00988429 0.0001161612 6.837594e-25)
(0.01001455 3.643374e-05 -2.881588e-26)
(0.009908909 0.000149252 -4.02487e-25)
(0.01001451 2.337548e-05 1.702935e-26)
(0.01013021 5.774423e-05 0)
(0.009950956 0.0002231321 0)
(0.00998047 3.167343e-05 0)
(0.01000144 2.762724e-05 0)
(0.009978624 0.0002717583 -3.617668e-25)
(0.01014522 0.0004692499 0)
(0.01022476 0.0005337207 1.971782e-26)
(0.01015669 0.0004822381 -8.783749e-26)
(0.01009904 0.0004669202 0)
(0.009980099 0.0005120422 -9.651323e-25)
(0.01013437 0.0001096229 -1.830079e-25)
(0.01012185 9.819612e-05 6.49145e-25)
(0.009904249 0.0001692076 -2.58404e-25)
(0.01000715 1.070193e-05 1.343783e-28)
(0.01004222 0.0001468905 -3.963019e-26)
(0.01001671 9.039878e-05 1.070085e-26)
(0.009991095 3.53747e-05 7.061421e-26)
(0.009990421 0.0001351849 1.14999e-25)
(0.01000536 6.54719e-05 -6.125191e-27)
(0.01003511 0.0001457149 1.354943e-26)
(0.01000311 2.356893e-05 0)
(0.0101611 0.0006979439 5.796417e-25)
(0.0100104 6.055237e-05 -2.837073e-27)
(0.01001155 5.870077e-05 4.014218e-27)
(0.01000158 5.392063e-05 0)
(0.01001032 5.300484e-05 0)
(0.009986165 7.817349e-05 -2.88897e-27)
(0.0101199 0.0001473062 -6.810564e-25)
(0.01013872 0.0001875675 0)
(0.0100206 5.98214e-05 6.425199e-26)