/*--------------------------------*- C++ -*----------------------------------*\
| =========                 |                                                 |
| \\      /  F ield         | OpenFOAM: The Open Source CFD Toolbox           |
|  \\    /   O peration     | Version:  2406                                  |
|   \\  /    A nd           | Website:  www.openfoam.com                      |
|    \\/     M anipulation  |                                                 |
\*---------------------------------------------------------------------------*/
FoamFile
{
    version     2.0;
    format      ascii;
    arch        "LSB;label=32;scalar=64";
    class       volScalarField;
    location    "0.06";
    object      p;
}
// * * * * * * * * * * * * * * * * * * * * * * * * * * * * * * * * * * * * * //

dimensions      [0 2 -2 0 0 0 0];

internalField   nonuniform List<scalar> 
4541
(
3.449108e-05
3.029139e-05
2.823217e-05
1.859726e-05
3.598551e-05
5.440617e-05
3.88899e-05
3.696209e-05
5.654439e-05
1.176575e-05
5.481845e-05
3.854542e-05
2.29321e-05
4.312517e-05
2.222209e-05
4.760774e-06
-3.994993e-06
-7.189539e-06
-7.560861e-06
3.444342e-05
-2.577757e-06
3.437531e-05
4.972122e-06
6.823361e-05
3.652286e-05
3.76055e-05
4.281378e-05
3.719516e-05
5.654042e-05
2.311827e-05
4.004972e-05
4.299805e-05
1.218643e-05
5.104516e-05
3.25093e-05
2.245399e-05
2.899563e-05
2.316181e-05
4.523984e-05
-8.991091e-06
2.166551e-05
5.885409e-05
2.71675e-05
1.11488e-05
2.095211e-05
1.198765e-05
2.278537e-05
-1.809762e-05
3.402335e-05
4.04206e-05
4.627765e-05
6.934036e-06
-1.45274e-06
4.188976e-05
-6.936515e-07
4.832505e-05
3.741811e-05
5.238453e-05
-2.314986e-07
3.134371e-05
4.523461e-05
2.910809e-05
-6.992857e-06
9.015716e-05
5.732644e-05
3.691783e-05
4.833773e-05
1.873156e-05
5.502862e-06
-1.202693e-05
-3.92004e-06
4.632057e-06
3.969057e-05
1.1533e-05
5.336989e-05
9.913376e-06
-3.326119e-06
-1.290646e-05
2.176345e-05
5.048169e-05
-3.1945e-06
2.381626e-05
4.801845e-05
1.699983e-05
4.007651e-05
3.560065e-05
3.106131e-05
-1.013289e-05
-4.474905e-06
4.980688e-06
3.436357e-05
-1.386831e-05
-9.908787e-06
-3.745061e-06
4.220991e-05
-1.447607e-05
3.914798e-05
2.855039e-05
3.363395e-05
3.693503e-05
4.300897e-05
2.581013e-05
5.131036e-05
5.951383e-06
1.0099e-05
4.652647e-05
-9.730637e-06
2.127252e-05
2.786244e-05
1.732089e-05
3.369399e-05
4.518253e-05
1.187693e-05
4.14462e-06
4.846525e-05
4.768101e-05
4.277896e-05
-3.764921e-06
4.47665e-05
5.975205e-05
8.657754e-06
5.477488e-06
2.27504e-05
3.272154e-06
-5.571784e-07
2.768868e-05
7.164208e-05
7.938034e-05
3.172361e-05
5.804265e-05
5.3203e-05
3.791042e-05
4.162287e-05
2.693621e-05
3.548501e-05
8.916816e-05
1.184246e-05
3.832834e-05
1.943426e-05
1.999841e-05
4.02118e-05
-5.180425e-06
5.64752e-05
-2.043297e-06
2.803779e-05
5.852332e-05
5.909539e-05
4.482271e-05
6.934697e-06
4.952993e-05
1.127122e-06
2.116049e-05
4.343006e-05
3.474845e-05
3.612595e-05
5.612515e-05
5.589839e-05
-9.276178e-06
4.935325e-05
2.041623e-05
4.314432e-05
3.663256e-05
6.163677e-05
-5.590592e-06
1.440296e-05
5.969852e-06
5.690415e-05
3.254332e-05
3.990035e-05
5.02983e-05
5.142748e-05
2.602017e-06
-8.050722e-06
3.100652e-06
-5.125994e-07
2.28555e-05
-1.0758e-05
3.949444e-05
3.205065e-05
5.346743e-05
-3.035131e-07
7.196635e-05
1.23745e-05
3.597485e-05
3.913889e-05
6.457818e-06
2.076276e-05
4.78148e-05
1.36452e-05
5.157845e-05
3.486293e-05
1.221043e-05
4.250479e-06
7.819161e-06
-2.261419e-06
1.803933e-05
4.24829e-05
-1.344496e-05
-1.318222e-05
-1.218949e-06
1.586904e-05
8.191497e-05
3.853472e-05
3.777313e-06
1.037702e-05
2.587323e-06
1.855847e-05
-1.182296e-06
4.239131e-05
2.608832e-05
4.153665e-05
-6.788696e-06
2.839211e-05
4.266086e-05
6.540633e-05
3.734939e-05
4.309539e-06
2.902904e-05
7.509258e-05
6.400804e-05
9.944731e-05
6.440035e-06
5.071523e-05
4.518919e-05
1.092402e-05
4.356337e-05
6.064158e-06
6.595882e-06
-2.879641e-06
4.944867e-05
3.594113e-05
3.545074e-05
7.214247e-06
5.254425e-05
7.765522e-05
-1.972961e-05
1.998672e-05
2.214186e-05
4.284267e-05
4.730253e-05
3.563589e-05
-2.187262e-07
4.052515e-05
4.956155e-05
4.868384e-05
3.629328e-05
3.562786e-05
3.096083e-05
-5.598107e-06
3.416652e-05
4.316273e-05
5.972611e-05
1.316917e-06
8.626646e-06
5.580317e-05
3.170456e-05
5.156588e-05
5.273741e-07
-2.379939e-06
3.229263e-06
5.25363e-05
3.77747e-05
9.124233e-06
8.297528e-05
3.925905e-05
-1.27052e-05
3.768226e-05
-1.420061e-05
1.666012e-05
-4.965693e-06
-8.261959e-06
2.548375e-05
5.652097e-05
4.63586e-05
8.337573e-06
5.036346e-06
6.649264e-05
-4.886838e-06
3.093517e-05
3.514788e-05
4.541704e-05
-4.592006e-06
3.378698e-05
2.414826e-05
4.093179e-07
9.981664e-06
2.360689e-05
-6.88945e-06
-6.892078e-06
-1.115605e-05
4.066448e-05
3.860806e-05
5.523622e-05
-9.912289e-06
-9.74993e-06
3.807645e-05
4.678578e-05
3.743307e-05
-7.559972e-06
1.683435e-05
4.239162e-07
4.997792e-05
3.488388e-05
2.06024e-05
1.999058e-05
6.47179e-05
6.179519e-05
-7.155816e-06
1.335416e-07
-9.439007e-07
2.585906e-05
1.216142e-05
4.478256e-05
9.036276e-06
6.066502e-05
5.006205e-05
-1.310557e-07
5.84136e-05
4.672819e-06
8.921418e-05
1.25509e-05
4.171165e-06
8.472227e-06
3.068743e-05
5.219261e-05
4.113076e-05
1.800763e-05
3.585663e-05
3.411849e-05
4.905037e-05
3.334744e-05
2.750149e-06
2.186926e-06
4.005822e-05
3.705846e-05
4.277606e-05
5.703072e-05
5.363788e-05
7.310359e-06
1.307033e-05
3.867055e-05
3.489401e-05
5.025752e-05
3.441576e-05
8.338778e-05
2.322247e-05
1.055563e-05
3.328487e-05
1.311987e-06
3.351302e-05
2.120327e-06
1.566046e-05
1.170772e-06
4.272339e-05
-1.15623e-06
3.351805e-05
-6.087354e-06
-1.622274e-06
3.929599e-05
4.456159e-06
-3.902728e-06
9.610605e-06
1.936008e-05
3.842086e-05
8.00805e-06
-1.000377e-05
2.684869e-05
4.352518e-05
2.705463e-05
1.137846e-06
-8.378248e-07
9.179267e-05
-6.896549e-06
-5.527681e-06
3.039013e-05
4.199793e-05
3.532195e-05
4.156211e-05
1.664707e-05
3.734135e-05
4.642665e-05
-3.365982e-06
-8.643236e-06
6.060103e-06
-8.274746e-06
6.968277e-05
-1.579906e-06
2.346078e-05
5.100356e-05
4.718477e-05
1.519215e-05
1.523075e-05
-1.016319e-05
5.14183e-05
3.41424e-05
5.102567e-05
4.966954e-05
-3.557412e-06
2.037496e-05
3.345846e-05
1.68371e-05
1.652048e-05
4.24386e-05
4.276543e-05
5.458386e-05
-8.585086e-07
-4.242183e-06
1.772738e-05
2.343789e-06
3.075602e-05
1.995715e-05
-9.049488e-06
2.857434e-05
5.802606e-05
5.108418e-05
2.061431e-05
8.176204e-06
1.636718e-05
8.693017e-06
2.303378e-05
6.355882e-05
7.18871e-05
5.749717e-06
5.284111e-05
4.727045e-05
1.845092e-05
2.010981e-05
1.671576e-05
4.337137e-05
5.276311e-05
8.403303e-06
5.295914e-05
3.354818e-05
7.826921e-07
1.239234e-05
4.427556e-05
7.884074e-06
6.523906e-05
3.106595e-05
2.55846e-05
-3.23551e-06
5.206544e-05
3.543498e-05
-1.369447e-05
3.753049e-05
4.000502e-05
2.036873e-05
7.188578e-05
4.055238e-05
1.326109e-05
1.594204e-05
3.866797e-05
-3.809442e-06
3.226757e-06
7.688008e-06
4.41215e-05
4.693699e-05
3.628287e-05
5.162933e-05
4.66745e-05
-4.615437e-06
6.453949e-06
4.33584e-05
-1.083623e-06
2.638258e-05
-4.237912e-06
2.316171e-06
2.823542e-05
1.021138e-05
3.918599e-05
1.514715e-05
7.424728e-06
9.874409e-06
6.180798e-05
3.175514e-05
5.440035e-06
-1.632374e-05
3.979876e-05
3.367553e-05
3.572473e-05
5.62297e-06
-1.434615e-05
3.62483e-05
5.781747e-05
1.36558e-05
5.174573e-05
4.516372e-05
4.032003e-05
5.136991e-05
5.277576e-05
3.372832e-05
8.327173e-06
1.87238e-05
1.181859e-05
2.928076e-05
7.65689e-05
3.949091e-05
5.125052e-05
2.342059e-05
2.683886e-05
4.303967e-05
3.482765e-05
3.997189e-05
6.49147e-05
3.157033e-06
3.239449e-05
4.994502e-05
2.772699e-05
3.986708e-05
3.009642e-05
-4.743327e-06
1.278141e-05
1.38246e-06
3.968025e-05
4.03496e-05
-9.007194e-06
5.759208e-06
3.900665e-05
3.520232e-06
4.586428e-05
4.177654e-05
5.178708e-06
5.98527e-05
6.000745e-05
4.814075e-05
5.229591e-05
4.975179e-05
3.499693e-05
3.891727e-05
3.839119e-05
3.99572e-05
0.0001064306
3.293082e-05
1.621361e-05
5.958769e-06
4.502561e-05
1.57539e-05
3.804048e-05
3.776807e-05
7.290318e-05
6.030313e-06
2.939434e-05
3.79666e-05
5.615496e-05
7.201798e-05
4.358255e-05
-9.136459e-07
3.745341e-05
9.83028e-05
7.108906e-05
2.573411e-05
3.694064e-05
2.985583e-05
5.309773e-05
8.09053e-06
4.395171e-05
4.858595e-05
3.987596e-06
2.485596e-05
5.069152e-05
1.878648e-05
4.537353e-05
2.953852e-05
6.807802e-05
3.301907e-05
-9.766312e-06
5.945172e-06
1.351965e-06
2.664519e-05
-3.474793e-06
2.809757e-07
6.521806e-06
7.13762e-05
3.77224e-05
5.340758e-06
1.739696e-07
2.050421e-06
8.467171e-07
1.213579e-06
2.165807e-05
2.203057e-05
3.895351e-05
1.176129e-05
1.18764e-05
3.854644e-05
1.111312e-05
-3.667847e-06
6.091059e-05
3.009081e-05
4.274239e-05
4.176223e-05
-3.11737e-06
-2.957728e-07
4.325808e-05
4.783421e-05
3.185901e-05
7.553468e-06
5.742384e-05
1.882142e-05
4.045309e-05
4.07621e-05
6.817617e-06
2.560548e-05
-1.266215e-06
-2.658213e-06
6.64385e-06
2.839629e-05
3.458101e-05
4.220008e-05
-4.382238e-06
4.938074e-05
4.159224e-05
-1.441615e-05
8.289116e-06
3.957911e-05
3.786293e-05
4.533496e-05
4.659289e-06
6.45108e-06
5.080676e-05
6.070392e-05
1.838668e-06
4.34749e-05
5.175666e-05
4.74928e-05
6.290236e-06
-9.042728e-06
6.942463e-05
4.779572e-05
5.440852e-05
7.174903e-07
1.78515e-07
2.453163e-05
5.949733e-05
8.625723e-06
2.814139e-05
-1.061368e-05
2.885688e-05
6.732755e-06
3.983446e-05
-1.001315e-05
4.592382e-05
4.47891e-05
4.933341e-06
5.50354e-06
3.525428e-05
3.647708e-05
5.389001e-05
5.178953e-05
3.367581e-05
3.299661e-06
2.485883e-05
-1.897555e-06
3.032461e-05
7.927841e-06
3.449841e-05
5.422979e-05
3.662807e-06
4.495158e-05
2.790861e-05
3.048528e-06
1.578548e-05
-3.231813e-06
2.215822e-05
4.622011e-05
3.657495e-05
7.357813e-06
9.197852e-06
5.10969e-05
5.281139e-05
3.506625e-05
1.651096e-05
1.721449e-05
1.225923e-05
1.294825e-05
1.943208e-05
1.402107e-05
1.581589e-05
5.030446e-05
5.563098e-05
9.2236e-06
4.803029e-05
-4.392296e-06
3.909294e-06
4.358156e-05
4.448635e-05
3.559871e-05
4.725416e-05
4.023478e-05
5.280168e-05
5.272029e-05
-1.058062e-05
-1.938876e-05
-3.22904e-06
-3.791143e-06
-1.643024e-06
3.35066e-06
2.951219e-06
-3.53966e-06
4.619472e-05
3.75631e-05
3.909552e-05
4.045217e-05
1.204787e-05
-1.075435e-06
3.871785e-05
3.421105e-05
3.451046e-05
4.693473e-05
2.365597e-05
1.759119e-05
3.886092e-05
-4.04851e-06
5.042558e-05
-2.190703e-06
-2.365993e-06
2.639423e-05
3.251975e-05
6.382313e-05
4.592888e-05
7.032461e-06
9.312217e-06
1.001623e-05
9.587512e-06
6.934236e-06
4.938043e-06
4.412605e-06
3.090014e-05
5.810648e-06
9.865461e-06
4.845455e-05
4.329376e-05
4.378972e-05
2.461349e-05
2.865745e-05
1.493768e-05
1.46711e-05
2.750568e-05
2.783563e-05
4.217859e-05
9.056633e-05
3.192541e-05
3.299783e-05
3.444798e-05
3.20333e-05
3.791674e-06
3.627122e-05
3.685428e-05
4.070598e-05
-1.379415e-06
-6.2823e-07
-3.79217e-06
3.901784e-05
2.336249e-06
1.299172e-06
2.427732e-05
2.819912e-05
2.99457e-05
4.783905e-06
1.52604e-05
3.255471e-05
3.077809e-05
1.927326e-06
4.960818e-05
5.106501e-05
8.52108e-05
4.516173e-06
3.924635e-05
3.466189e-06
1.049494e-06
5.286941e-05
3.68927e-05
7.581027e-05
3.725355e-06
4.849835e-05
-7.631409e-06
3.210651e-05
1.612365e-05
2.519171e-05
-4.278492e-06
-7.044743e-06
3.808323e-05
4.338168e-05
4.460712e-05
2.209372e-05
5.548494e-05
7.742292e-06
3.783593e-05
4.532889e-05
1.706695e-05
4.866443e-05
3.509631e-05
3.609843e-05
1.056896e-05
3.473459e-05
3.689362e-05
4.034077e-05
6.899223e-05
3.376291e-05
2.995273e-05
1.280746e-05
3.392949e-05
3.511511e-05
4.183224e-05
3.340828e-05
5.586726e-05
5.098165e-05
5.175625e-05
3.46011e-06
-1.086881e-05
3.553716e-05
5.405233e-06
2.05679e-05
2.032405e-05
2.490776e-05
3.700769e-05
2.606803e-05
3.511141e-05
2.941482e-06
4.093711e-05
5.219855e-05
5.018814e-05
3.548589e-05
7.659228e-06
1.195856e-05
9.178323e-06
8.954826e-06
3.416454e-05
2.102526e-05
5.288147e-06
-1.794633e-05
5.492057e-05
5.501196e-05
5.46083e-05
5.539124e-05
3.697329e-05
7.705027e-05
6.112826e-05
3.344175e-05
4.50502e-05
1.82436e-05
8.450925e-07
4.748881e-06
3.5651e-05
1.645753e-05
1.862582e-05
-2.890045e-06
3.279714e-06
-1.814727e-05
7.119216e-05
2.450225e-05
3.479692e-05
-5.849415e-06
-1.918447e-05
3.165222e-05
7.254885e-05
4.032816e-05
7.821734e-08
5.172323e-05
-2.898893e-06
2.997255e-05
-9.013665e-06
4.781073e-05
2.631663e-06
1.518053e-05
8.071142e-05
3.084361e-05
7.27108e-05
-1.027587e-06
-2.232073e-06
5.411882e-06
1.152478e-05
4.722168e-06
2.407456e-06
3.645902e-05
-4.638931e-06
4.597717e-05
4.25515e-05
8.339153e-05
-1.402934e-05
-1.751873e-05
4.248346e-05
1.2854e-05
4.656851e-05
4.699078e-05
3.22868e-05
4.8856e-05
1.682676e-05
-6.397323e-06
1.396185e-05
2.291004e-05
2.597864e-05
2.831564e-05
6.127526e-06
5.521521e-06
4.490685e-06
4.806416e-06
-8.69478e-06
4.716128e-05
4.547312e-05
2.921418e-05
2.158937e-05
4.610033e-05
3.002635e-05
4.128227e-05
2.276275e-05
6.003519e-06
3.689702e-05
3.243513e-05
3.232897e-05
3.751868e-05
1.724183e-05
5.613937e-05
5.939569e-06
3.522773e-05
3.8503e-05
5.928617e-06
-8.012044e-07
6.986191e-05
2.780884e-05
4.933963e-06
4.559358e-05
3.668662e-06
9.028275e-06
-5.842637e-06
6.753793e-06
4.492782e-06
5.41228e-06
2.507206e-05
1.74017e-05
4.895091e-05
-7.484973e-07
1.485587e-07
-1.353201e-06
-1.205521e-06
2.991189e-05
-5.569677e-06
-5.268452e-06
5.60291e-05
4.098062e-05
5.319803e-05
7.350275e-07
-1.840765e-06
-3.449994e-06
4.780903e-05
1.075516e-05
5.034793e-05
1.278888e-05
3.581029e-06
3.489165e-05
4.685976e-05
4.487095e-05
4.64534e-05
4.632119e-05
3.524129e-06
5.11358e-05
3.932633e-05
5.097109e-05
1.679552e-05
1.814709e-05
1.532855e-05
2.998804e-05
2.940313e-05
3.002309e-05
3.101203e-05
8.358012e-06
-2.042412e-06
-1.530626e-06
5.142156e-05
5.104103e-05
2.391078e-06
3.520681e-05
-9.474579e-07
2.298157e-05
3.808621e-05
5.00405e-05
4.405513e-05
5.151623e-05
3.279708e-05
3.584183e-05
4.125139e-05
4.947646e-05
4.988695e-05
3.806867e-05
5.961149e-07
6.507349e-06
-8.848166e-06
-1.574022e-05
4.173191e-06
5.688482e-05
-2.320766e-06
-8.952033e-07
-2.968244e-06
4.188864e-05
1.614507e-05
1.823579e-05
3.395379e-05
4.169024e-05
4.111651e-05
-4.58947e-06
-1.012554e-05
3.536207e-05
4.296917e-05
1.838605e-05
6.709686e-05
5.077014e-05
5.468779e-05
7.059434e-07
1.043723e-05
1.727226e-05
3.913975e-05
5.288687e-05
1.569909e-05
8.770274e-06
-9.156218e-06
-1.290302e-05
2.587969e-05
6.55383e-05
-5.344082e-07
9.974353e-06
6.628891e-06
1.025551e-05
9.145212e-06
2.126621e-06
2.485814e-05
-5.760719e-06
4.821666e-05
2.340718e-05
-6.997356e-06
2.5862e-05
5.667326e-05
5.76287e-05
3.09805e-05
2.455972e-06
2.322511e-05
3.588719e-06
1.182922e-05
2.527856e-05
2.429106e-05
6.996394e-05
6.486864e-05
1.501117e-05
8.719006e-05
1.961616e-05
6.033947e-05
-1.201454e-05
6.411803e-06
6.177827e-06
5.621055e-06
5.286086e-06
4.479054e-06
7.812478e-06
8.931624e-06
3.33473e-05
4.42265e-05
9.812046e-06
1.596266e-05
9.425875e-06
1.173328e-05
6.274837e-06
-7.124265e-06
-8.201264e-06
3.56677e-05
7.150809e-06
3.733035e-05
5.795893e-06
2.910218e-05
2.754712e-05
2.421565e-05
-6.466107e-08
7.903708e-06
5.232426e-05
4.772307e-05
4.969143e-05
4.099081e-05
5.192393e-05
5.762541e-05
-7.007215e-06
-5.369889e-06
4.373489e-05
4.344249e-05
4.545232e-05
3.373955e-05
1.163653e-06
1.538687e-05
2.095092e-05
2.424822e-05
1.660833e-05
3.23345e-05
3.444956e-05
1.292145e-05
1.907729e-05
2.474668e-05
-2.615572e-06
1.069962e-05
1.259759e-05
1.5888e-05
1.928455e-05
-4.282093e-06
-2.221826e-05
-1.157199e-06
-2.835105e-08
3.872522e-05
3.664318e-06
2.327196e-05
2.676701e-05
5.312427e-05
9.353757e-06
6.265302e-05
5.796761e-05
3.328909e-05
1.242646e-05
7.671443e-06
-3.346758e-06
4.021213e-05
4.302166e-05
2.168359e-05
4.07637e-05
4.209718e-05
-1.841205e-05
-4.997324e-06
-2.015384e-05
-1.412689e-05
-5.275937e-06
-1.404793e-05
-1.933471e-05
2.133681e-05
2.092072e-05
4.03603e-05
-8.243088e-06
-7.755636e-06
-1.21655e-05
3.592992e-05
3.060203e-05
1.696891e-05
1.19076e-05
4.879964e-05
1.719255e-05
3.556507e-05
3.768332e-05
1.080986e-05
1.276816e-05
1.196972e-05
6.111325e-05
4.950773e-05
-1.188727e-05
-1.111261e-05
2.987678e-05
4.841056e-05
5.016753e-05
8.443515e-06
4.774255e-05
4.794516e-05
4.92887e-05
2.079823e-05
6.511816e-05
5.216016e-05
2.41741e-05
7.826157e-05
2.873395e-05
3.208257e-05
2.023506e-05
1.195824e-06
3.35899e-05
5.197403e-05
6.275145e-06
5.776051e-06
1.957332e-05
6.032105e-05
5.059649e-05
3.57927e-05
4.010948e-05
1.304176e-06
-1.247573e-08
-9.124696e-06
-6.070046e-06
1.009962e-05
6.963551e-06
2.626004e-05
2.602245e-05
3.033175e-05
2.836428e-05
4.964208e-05
-5.585017e-06
3.691514e-05
3.749467e-05
4.556739e-05
4.861882e-05
6.413312e-06
1.269993e-05
3.69654e-05
4.39455e-05
4.001564e-06
5.08131e-05
5.512465e-05
5.187379e-05
4.270994e-05
5.803912e-05
4.791391e-05
4.826258e-05
1.972641e-05
2.773561e-06
4.505328e-06
3.753709e-06
5.16282e-06
3.709209e-05
3.933342e-05
5.792863e-06
5.558664e-05
-5.202965e-06
8.100873e-05
5.294928e-05
4.460475e-05
4.078852e-05
3.852108e-05
3.592178e-05
-4.094732e-06
2.486723e-05
5.254297e-05
1.215179e-05
1.29047e-05
2.055189e-05
3.928126e-06
-7.424561e-06
3.983109e-05
4.35317e-05
4.249478e-05
2.849423e-05
2.711561e-05
9.53529e-06
3.852761e-05
5.526918e-06
7.320828e-05
3.443442e-05
4.324155e-05
3.671789e-05
4.18814e-05
3.828927e-05
3.851568e-05
5.206635e-05
-5.347985e-06
9.97141e-05
9.795559e-05
3.505321e-05
3.870329e-05
3.990996e-05
5.110919e-05
3.662497e-05
4.70323e-06
3.851318e-05
5.013647e-05
3.691555e-05
4.904225e-05
-7.987715e-06
-9.258969e-06
6.403033e-05
2.743483e-05
8.51077e-06
8.006734e-06
8.964912e-06
5.427803e-05
5.313921e-05
3.131295e-06
3.752479e-06
3.521751e-05
1.526649e-05
1.651664e-05
2.363431e-05
1.473749e-05
1.487344e-05
5.995031e-05
4.825133e-05
4.328594e-05
5.168708e-05
4.91102e-05
4.521744e-05
5.70764e-05
5.487277e-05
4.403617e-05
3.831895e-05
3.453768e-05
3.861628e-05
3.025388e-05
2.10849e-05
2.490721e-05
1.382602e-05
-4.11943e-06
3.920838e-07
6.223436e-06
3.270689e-05
3.394851e-05
-6.569953e-06
5.255057e-05
4.86732e-05
5.469475e-05
3.257052e-05
8.335273e-05
7.372388e-05
2.705259e-05
3.154587e-05
1.558729e-05
4.864275e-05
5.701668e-05
3.450231e-05
3.051756e-05
4.237832e-05
4.064267e-05
6.138279e-05
4.53345e-05
4.258614e-05
4.301932e-05
5.232322e-05
5.125516e-05
3.601032e-06
2.709473e-05
4.816601e-05
7.268567e-06
6.295508e-06
5.160821e-06
2.383888e-05
6.671934e-05
1.503964e-05
4.964188e-05
2.959077e-05
4.785101e-05
4.834047e-05
8.046409e-06
1.644522e-05
5.828077e-05
5.987737e-06
4.0083e-05
5.444408e-05
2.988817e-05
1.155875e-05
-1.912253e-06
1.964539e-06
2.493298e-07
4.012809e-05
2.117207e-05
7.665586e-06
-9.972684e-07
3.474219e-05
5.880704e-05
6.034179e-05
5.390716e-05
5.281036e-05
6.454794e-05
3.522163e-05
1.81457e-05
4.092067e-05
2.706879e-05
3.728591e-05
4.508783e-05
4.376387e-05
4.285913e-05
3.082968e-05
1.977634e-05
-4.611649e-06
2.870255e-05
1.646643e-05
9.13966e-05
9.083496e-05
0.0001030922
1.735992e-05
5.117512e-06
1.87741e-05
4.716196e-06
3.489788e-05
5.41506e-05
1.002288e-05
7.711753e-06
2.046457e-05
6.530783e-06
3.894707e-05
3.398991e-06
3.863247e-05
2.307715e-05
3.138448e-05
4.021549e-05
4.126035e-05
5.300811e-06
3.767962e-07
3.818667e-05
2.912973e-05
4.835767e-05
1.743996e-05
1.952314e-05
-6.550449e-06
-9.555972e-06
-1.334537e-05
4.111469e-05
-1.776005e-05
6.74831e-06
2.625743e-05
-9.929436e-06
2.453016e-05
5.847963e-05
5.840958e-05
5.171265e-05
9.171908e-05
4.458326e-05
-8.819426e-06
2.496033e-05
-1.006044e-05
3.910797e-05
2.787759e-05
2.63285e-05
4.727848e-05
4.132582e-05
4.218485e-05
6.670938e-05
3.14939e-05
3.404044e-05
4.661084e-05
4.603176e-05
4.462923e-05
2.591446e-05
-9.43552e-08
1.118845e-05
-6.610211e-06
1.002475e-06
-1.394284e-06
-1.847099e-06
-5.426935e-06
4.876356e-05
4.21602e-05
1.345924e-05
5.246587e-06
5.349324e-05
3.838438e-05
-4.432953e-06
1.31638e-05
1.563057e-09
-9.164753e-07
2.617178e-05
1.431071e-05
4.858736e-05
1.289103e-05
3.426999e-05
3.075082e-05
1.45399e-05
1.424577e-05
4.331748e-05
2.892113e-05
3.912191e-05
4.016417e-05
3.676571e-05
2.659216e-05
4.108763e-05
-1.079539e-06
1.107408e-07
-7.963993e-06
-8.383349e-07
1.633553e-06
2.058425e-05
1.711899e-05
-1.478757e-05
-1.239885e-05
-2.976506e-06
4.599274e-05
4.609722e-05
4.956429e-05
5.099383e-05
3.289551e-05
3.129817e-05
4.198567e-05
2.715995e-05
3.772126e-05
4.374345e-05
3.806768e-05
3.721144e-05
3.983739e-05
-1.113038e-05
-9.483224e-06
5.363574e-06
7.653027e-06
9.12678e-06
7.524673e-05
1.871796e-05
1.837795e-05
2.054486e-05
4.434241e-05
6.055353e-05
2.590005e-06
3.054539e-07
3.982056e-05
4.458647e-05
3.022913e-05
3.101972e-05
2.600042e-05
7.631144e-06
3.593928e-05
1.369587e-05
1.78108e-05
1.444107e-05
1.280654e-05
2.596706e-06
2.270643e-06
3.380687e-06
-3.493842e-06
4.49022e-06
3.541056e-05
3.497174e-05
1.389459e-05
1.346927e-05
4.277178e-05
4.432042e-05
7.150387e-05
5.600886e-05
2.666055e-05
3.954405e-05
3.734791e-05
7.997809e-05
3.18298e-05
3.343911e-05
4.245805e-05
4.280899e-05
1.676514e-05
1.608617e-05
1.557815e-05
1.968929e-05
4.715636e-05
4.838874e-05
-1.181397e-05
-1.250541e-05
-1.11224e-05
3.573418e-05
1.168217e-05
1.171438e-05
1.9586e-05
1.772449e-05
2.067538e-05
2.090183e-05
3.986141e-05
5.100993e-05
3.874386e-05
2.246941e-07
9.294689e-07
1.167947e-05
5.20818e-05
4.976441e-05
5.013822e-05
7.318132e-06
5.150788e-06
3.841861e-06
4.086601e-08
2.124268e-06
3.853375e-06
7.619944e-05
9.841447e-05
1.083582e-05
-5.289625e-07
8.637695e-07
-3.101778e-06
-4.768619e-06
3.882457e-07
2.068693e-05
1.887431e-05
1.355831e-05
-6.474199e-06
1.339348e-05
-1.624009e-06
4.542426e-05
4.502504e-05
2.118136e-05
3.803472e-05
9.639786e-05
5.431505e-05
5.968064e-05
5.950495e-05
5.26863e-05
3.400281e-05
9.362688e-06
1.075648e-05
4.140909e-05
1.487277e-05
2.638216e-05
4.383138e-05
6.364289e-05
2.558581e-05
2.603129e-05
5.284225e-05
3.637039e-05
3.596108e-05
-9.467353e-06
-1.13708e-05
-1.062253e-05
-1.076896e-05
-6.464065e-07
2.022742e-05
1.864456e-05
4.955199e-05
8.185583e-06
5.079065e-05
4.924799e-05
4.941023e-05
4.79252e-05
4.827591e-05
4.928799e-05
3.808402e-05
2.77756e-05
9.403517e-07
1.677886e-05
1.867389e-05
3.5927e-05
4.84295e-05
3.453818e-05
-6.338024e-06
1.318036e-06
1.419411e-05
1.441998e-05
3.956407e-05
3.959701e-05
3.668032e-05
2.483616e-05
2.388774e-05
2.485599e-05
2.505878e-05
3.307531e-05
2.289251e-05
2.191486e-05
2.550504e-05
4.27368e-05
1.940935e-05
6.432968e-05
3.102301e-05
2.905179e-05
4.220724e-05
-6.242027e-06
8.933521e-06
3.115554e-05
4.65789e-05
3.255668e-05
-4.486325e-07
5.682157e-05
5.44307e-05
6.860512e-06
8.62885e-05
2.523259e-05
4.553498e-05
-8.954026e-07
6.435974e-05
6.739458e-05
5.82773e-06
4.703107e-05
4.040902e-05
2.294014e-05
1.074517e-05
8.270534e-06
3.066938e-06
1.722997e-05
1.959511e-05
1.530619e-05
3.343407e-05
7.344278e-05
3.061718e-05
1.060671e-05
1.03483e-05
-3.3032e-06
8.031886e-06
1.868518e-05
3.556024e-05
3.00877e-05
3.025606e-05
3.626408e-05
4.486219e-05
4.490771e-05
3.840469e-05
5.140158e-05
3.236263e-05
2.286235e-05
6.470402e-05
6.515172e-05
6.719698e-06
-8.413445e-06
2.955888e-05
3.919466e-05
3.898365e-05
8.941965e-05
4.905171e-05
4.896675e-05
4.470253e-05
4.328616e-05
5.418819e-05
-4.656304e-07
4.00633e-05
6.13006e-06
7.425947e-06
8.443069e-06
3.468451e-05
1.52666e-05
5.198019e-05
4.590003e-05
4.869637e-05
1.556741e-05
1.372721e-05
1.440503e-05
1.128576e-05
1.221393e-05
1.538018e-05
1.254503e-06
-7.425198e-06
4.100937e-06
4.103086e-05
8.415462e-06
3.957447e-05
4.623748e-05
9.201633e-06
4.281365e-05
4.354205e-05
4.369062e-05
-1.473153e-05
3.539499e-05
-4.146378e-06
3.486858e-05
2.207745e-05
4.492804e-05
3.708284e-05
3.816987e-05
3.778433e-05
4.743301e-05
4.685817e-05
-1.263477e-05
4.119102e-05
3.736265e-05
3.049254e-05
4.109699e-05
5.100298e-05
3.051505e-05
3.659298e-05
2.290115e-05
-1.830339e-05
-1.897216e-05
-1.474236e-05
-1.909208e-05
-1.178303e-05
-1.140638e-05
3.77086e-05
9.487702e-06
1.463131e-05
4.35845e-05
1.797632e-05
4.718667e-07
2.034187e-05
-4.675967e-06
2.277353e-06
4.015563e-06
4.934297e-05
9.81586e-06
1.132148e-05
4.453322e-05
1.811254e-05
3.28758e-05
4.512745e-05
4.917688e-06
4.461191e-05
-7.799011e-06
-6.81209e-06
2.72208e-05
4.300186e-06
3.567848e-05
3.319228e-05
1.445646e-06
3.94607e-05
-7.03225e-06
2.370559e-07
5.474758e-05
4.1718e-06
3.078103e-06
2.968214e-05
2.211278e-05
3.555463e-05
3.479938e-05
1.185458e-05
-2.382387e-06
-9.477041e-07
2.020245e-05
4.11382e-05
8.411292e-05
-6.031183e-10
6.097308e-05
-7.120119e-06
-9.758227e-06
2.459718e-06
2.626307e-06
2.782378e-05
2.899357e-05
3.645809e-05
1.427668e-05
1.854124e-05
4.717164e-05
4.453287e-05
4.066457e-05
3.486616e-05
5.784667e-05
-1.755795e-05
4.226116e-05
2.384811e-05
3.711e-05
2.934432e-05
5.719543e-05
5.682681e-05
3.707272e-05
-2.357867e-06
-2.474986e-06
2.607771e-05
2.623704e-05
3.510804e-05
3.440707e-05
3.425628e-05
-2.188224e-06
-3.416165e-06
5.160852e-05
5.068205e-05
4.193802e-05
5.584187e-05
5.055086e-05
1.997184e-05
2.180978e-05
2.716e-05
8.370246e-05
8.159182e-05
7.966246e-05
5.492448e-05
5.640391e-05
1.007573e-05
5.448895e-05
5.587654e-05
-3.35182e-06
3.568275e-05
3.491862e-05
3.209495e-05
1.485256e-07
1.11551e-05
5.878699e-05
9.661025e-06
6.544938e-06
1.097763e-05
1.036151e-05
8.541617e-06
7.585771e-06
6.2297e-06
1.001303e-05
4.677159e-05
2.734544e-05
2.740774e-05
4.457876e-05
-9.914219e-07
3.188315e-07
2.912905e-05
-2.168261e-06
-2.248947e-06
1.356148e-05
5.202519e-05
3.583252e-05
3.545707e-05
5.743113e-05
-6.157008e-07
3.639872e-05
3.650372e-05
5.076228e-05
6.673153e-05
2.407695e-06
-1.491938e-05
5.511391e-05
5.687082e-05
1.740137e-05
5.84741e-05
5.52628e-05
6.344498e-05
5.448519e-05
5.637665e-05
5.139629e-05
5.837639e-05
5.50214e-05
3.487935e-05
3.539887e-05
-1.130662e-05
-1.202884e-05
4.070516e-05
4.183088e-05
1.412467e-05
3.853636e-06
8.725955e-07
1.424635e-06
5.425694e-05
8.142239e-07
2.85091e-06
4.930468e-05
3.468006e-05
3.143861e-05
8.492213e-06
2.243373e-05
6.543193e-05
4.168667e-05
4.075936e-05
1.046124e-05
3.111353e-05
3.16292e-05
3.448661e-05
3.750695e-05
3.36251e-05
3.454624e-05
3.440589e-05
3.299633e-05
3.406208e-05
-8.545032e-07
5.987471e-06
1.894781e-06
2.906693e-05
-4.729198e-06
3.185627e-05
2.956571e-05
2.74354e-05
2.706265e-05
2.254562e-05
1.283812e-06
1.575316e-06
5.674534e-05
3.8363e-05
3.877642e-05
4.563241e-05
4.522622e-05
4.729242e-05
-7.892552e-06
-7.163917e-06
1.196635e-05
4.891296e-05
4.924151e-05
2.647318e-05
5.242318e-05
2.656565e-06
5.450416e-05
5.09864e-05
5.174045e-05
5.662644e-06
4.278529e-05
3.752007e-05
-5.117463e-06
1.352553e-05
5.176447e-05
5.27484e-05
4.655177e-05
4.621875e-05
3.623617e-05
8.984398e-06
-2.795764e-07
-1.483053e-06
2.76855e-05
-4.725923e-06
3.14889e-05
3.103112e-05
-1.364437e-05
6.349454e-05
6.414392e-05
2.485228e-05
2.701133e-05
3.942991e-05
3.959787e-05
3.919834e-06
1.326882e-06
4.406636e-05
4.361821e-05
-4.487988e-08
3.341434e-05
3.249074e-05
6.230915e-05
3.875277e-05
3.588845e-05
4.656576e-05
1.624604e-05
3.871681e-05
2.98318e-05
2.0923e-05
1.56564e-06
1.317879e-06
3.179884e-05
4.04103e-05
2.024917e-06
1.470052e-05
3.699247e-06
4.7083e-05
4.575524e-05
1.939431e-05
3.869939e-05
3.699308e-05
3.146796e-05
3.18841e-05
3.454776e-05
3.432825e-05
5.61482e-05
4.613915e-05
7.466448e-05
3.130859e-05
3.39525e-05
3.346642e-05
1.824509e-05
1.619681e-05
6.930222e-05
7.007609e-05
2.782005e-06
5.813417e-05
5.956819e-06
9.246676e-06
3.946617e-05
3.784438e-06
3.235516e-05
3.179633e-05
4.220831e-05
8.28659e-05
5.374779e-05
3.095084e-05
3.147507e-05
5.540895e-05
-4.453859e-06
3.552296e-05
3.647967e-05
1.415336e-05
1.458759e-05
6.673005e-06
7.789307e-06
4.775254e-05
4.726007e-05
6.802301e-05
6.774549e-06
5.23383e-05
5.276692e-05
1.146586e-05
1.366031e-05
5.521573e-05
3.826153e-05
3.754596e-05
4.086323e-06
5.819985e-06
3.720435e-05
4.693264e-05
4.326296e-05
1.327219e-05
-2.571411e-06
5.02696e-06
5.146851e-06
3.786507e-05
3.494827e-05
3.439759e-05
-4.587507e-06
-1.696155e-06
1.015407e-05
1.025528e-05
3.189564e-05
-1.267702e-05
2.355091e-05
4.246357e-06
7.904632e-05
2.626694e-05
2.713017e-05
1.155879e-05
5.093342e-05
-4.636035e-06
-5.13475e-06
-4.364776e-06
-5.504075e-06
5.907147e-05
7.077106e-05
7.109033e-05
4.959104e-05
4.947056e-05
1.451694e-05
-4.240721e-06
2.192993e-05
3.184124e-05
3.291888e-05
-2.599351e-06
3.61042e-06
3.307552e-06
5.250121e-05
-6.9679e-07
2.724623e-05
8.130646e-06
4.161729e-05
3.622602e-05
3.644755e-05
3.129227e-05
3.145589e-05
3.702557e-05
-1.396468e-06
1.656883e-06
3.825089e-05
3.982591e-05
4.176427e-05
4.051946e-05
2.149299e-05
9.838165e-07
7.631408e-07
3.266327e-05
5.358204e-05
5.430598e-05
9.910311e-06
5.983866e-05
6.214608e-05
4.902117e-05
4.870862e-05
4.413905e-05
1.325258e-05
3.591176e-05
5.271352e-05
5.303724e-05
6.389907e-07
5.646118e-05
5.847979e-05
6.040599e-05
1.412577e-07
8.679295e-07
-8.160659e-06
3.425129e-05
5.112648e-05
6.758963e-05
7.182909e-05
7.074222e-05
6.829644e-05
6.948598e-06
5.098455e-06
1.911744e-05
1.809273e-05
1.394432e-05
3.923911e-05
4.285267e-05
4.252275e-05
1.802509e-05
1.762899e-05
2.771564e-05
4.62379e-05
4.543758e-05
1.657005e-05
1.597252e-05
4.715442e-05
4.610628e-05
4.069862e-05
-5.883998e-06
-2.027561e-05
7.85541e-05
-3.196796e-06
-4.63517e-07
4.35617e-05
5.619533e-05
1.610586e-05
8.140303e-06
-1.813715e-05
1.527256e-05
4.715248e-06
-2.663198e-06
3.628442e-05
7.436688e-06
1.797858e-05
-8.401454e-06
1.593112e-05
1.481511e-05
7.128395e-06
1.363225e-05
1.453888e-05
1.132324e-06
1.782254e-05
9.518029e-05
9.244673e-05
2.790439e-05
3.285955e-05
4.062297e-05
3.89623e-05
4.54455e-06
2.622317e-05
3.614354e-05
3.995283e-05
9.314531e-06
1.013953e-05
9.358138e-06
4.058175e-05
2.131151e-05
1.382125e-05
3.908801e-05
2.932829e-05
2.862251e-05
5.416785e-05
3.663386e-05
3.610319e-05
-7.272569e-06
-8.262147e-06
2.581768e-05
1.319122e-05
1.457947e-05
2.786221e-05
4.758244e-05
4.715295e-05
-6.292153e-06
-2.421755e-06
-3.423844e-06
4.004131e-05
4.846477e-06
-1.970609e-06
5.33176e-05
-3.796961e-06
-1.621982e-06
1.419318e-05
1.233026e-05
2.874931e-05
2.820221e-05
3.881521e-06
1.765219e-05
3.238912e-05
4.155323e-05
4.388847e-05
4.436562e-05
7.129431e-05
7.893206e-05
7.626571e-05
6.837254e-05
7.689934e-05
7.541373e-05
3.188107e-05
3.183703e-05
-1.115181e-05
4.014199e-05
3.94389e-05
1.597957e-05
3.954982e-05
4.001361e-05
4.164118e-05
-1.296845e-06
-1.598017e-06
1.052492e-05
3.098221e-05
2.197292e-05
2.057964e-05
8.656989e-06
1.054526e-05
4.37174e-05