/*--------------------------------*- C++ -*----------------------------------*\
| =========                 |                                                 |
| \\      /  F ield         | OpenFOAM: The Open Source CFD Toolbox           |
|  \\    /   O peration     | Version:  2406                                  |
|   \\  /    A nd           | Website:  www.openfoam.com                      |
|    \\/     M anipulation  |                                                 |
\*---------------------------------------------------------------------------*/
FoamFile
{
    version     2.0;
    format      ascii;
    arch        "LSB;label=32;scalar=64";
    class       volScalarField;
    location    "4.72";
    object      p;
}
// * * * * * * * * * * * * * * * * * * * * * * * * * * * * * * * * * * * * * //

dimensions      [0 2 -2 0 0 0 0];

internalField   nonuniform List<scalar> 
15536
(
-42.32853
-38.45725
-33.67478
-28.85327
-25.14137
-22.85307
-21.99963
-21.9298
-22.36502
-23.46016
-25.08946
-26.27423
-26.75909
-26.98273
-25.47168
-22.56944
-19.02749
-15.99016
-15.2897
-15.3946
-14.16126
-15.64921
-23.63629
-35.18367
-50.56395
-68.44413
-90.18062
-93.94435
-61.73442
-9.036175
-19.31313
-36.78437
-47.18769
-59.5309
-88.54807
-126.6291
-126.543
-91.80507
-83.05614
-88.4584
-91.88269
-96.67174
-99.94725
-101.4804
-101.8875
-101.1779
-99.51485
-96.86362
-93.70819
-90.19641
-85.99976
-81.22522
-75.83802
-70.08063
-63.9016
-57.37513
-50.82758
-44.17847
-37.19523
-30.05937
-23.05036
-16.18041
-9.347396
-2.61065
3.900132
10.27109
16.3424
22.08889
27.40656
32.29629
36.71773
40.67263
44.12676
47.00746
49.27546
51.03166
52.14708
52.66872
52.63442
52.11943
50.8462
48.90915
46.38941
43.28811
39.62621
35.42415
30.7521
25.52182
19.89849
13.92893
7.460009
0.6824072
-6.336804
-13.7816
-21.37105
-28.8983
-36.59089
-44.42789
-52.21705
-60.04315
-67.73831
-75.11565
-82.13005
-88.87045
-95.4618
-101.5837
-107.214
-112.3029
-116.8675
-120.9747
-124.3355
-126.8629
-128.6097
-129.5567
-129.5573
-128.2669
-125.3744
-120.7228
-114.9415
-113.4103
-117.3903
-108.523
-85.63842
-74.68826
-126.911
-170.8463
-145.0631
-87.49251
-51.92614
-38.57734
-30.01153
-16.14209
-1.657509
-1.710278
-16.16425
-40.29889
-60.26258
-66.44566
-59.26948
-45.20521
-34.16577
-27.01063
-24.03598
-23.10462
-24.68385
-28.5253
-29.02407
-25.72428
-21.43682
-23.94743
-35.54714
-36.69323
-29.86611
-32.97214
-39.55134
-43.55114
-44.37313
-42.00839
-38.1951
-33.48279
-28.72379
-25.06343
-22.8099
-21.98083
-21.92752
-22.37059
-23.46665
-25.10027
-26.28366
-26.7637
-26.96964
-25.43046
-22.53485
-19.0127
-15.96581
-15.25036
-15.35804
-14.12093
-15.66044
-23.66604
-35.18747
-50.52835
-68.354
-90.12279
-94.14994
-62.03522
-8.899432
-19.44503
-36.88803
-47.24455
-59.53333
-88.57122
-126.6197
-126.4896
-91.63763
-82.99036
-88.28248
-91.43561
-95.90664
-98.89099
-100.2232
-100.5455
-99.80354
-98.1281
-95.47627
-92.32935
-88.84473
-84.6802
-79.94564
-74.60179
-68.89506
-62.77388
-56.30736
-49.82063
-43.23726
-36.32502
-29.2565
-22.31544
-15.51432
-8.748172
-2.07547
4.371491
10.67823
16.68734
22.37699
27.64258
32.48342
36.86133
40.77799
44.1988
47.05367
49.30002
51.04082
52.14738
52.66567
52.6319
52.12028
50.85666
48.93787
46.44225
43.37051
39.74392
35.58328
30.95743
25.77901
20.21456
14.30373
7.898971
1.193346
-5.756291
-13.13399
-20.64504
-28.09529
-35.71274
-43.47087
-51.18187
-58.9311
-66.5513
-73.85443
-80.7986
-87.47766
-94.0133
-100.0791
-105.6616
-110.7065
-115.2352
-119.3173
-122.6594
-125.1827
-126.9424
-127.9207
-127.9781
-126.8005
-124.1388
-119.8399
-114.4836
-113.3595
-117.437
-108.6267
-85.72624
-74.56259
-126.7481
-170.9345
-145.0102
-87.32827
-51.77461
-38.51416
-30.06229
-16.25637
-1.770919
-1.638751
-16.17406
-40.29657
-60.22519
-66.30147
-59.24397
-45.23363
-34.207
-27.00311
-24.0063
-23.05417
-24.62309
-28.4688
-29.01348
-25.74143
-21.42584
-24.06694
-35.61342
-36.62972
-29.84309
-32.93857
-39.43478
-43.33947
-44.05678
-41.88113
-38.05937
-33.37159
-28.63558
-25.00552
-22.76981
-21.95903
-21.92282
-22.37075
-23.46359
-25.07221
-26.27529
-26.81982
-26.99497
-25.42655
-22.52584
-19.00197
-15.9063
-15.17076
-15.32707
-14.12366
-15.72894
-23.74804
-35.21704
-50.51948
-68.34832
-90.37493
-95.20684
-63.55775
-8.717178
-19.40275
-36.85762
-47.23372
-59.60835
-88.76874
-127.242
-126.8144
-91.97509
-82.83884
-87.84253
-90.89851
-95.09955
-97.95521
-99.32607
-99.71125
-98.99398
-97.35565
-94.7224
-91.58725
-88.13058
-83.97746
-79.26778
-73.94719
-68.27153
-62.18742
-55.7362
-49.27717
-42.73482
-35.84839
-28.80974
-21.90047
-15.13797
-8.409102
-1.765295
4.642367
10.9208
16.89667
22.55581
27.79226
32.6059
36.95667
40.8489
44.24767
47.08635
49.31429
51.04347
52.14262
52.65727
52.62442
52.11627
50.85986
48.95591
46.47755
43.42598
39.82317
35.68853
31.09249
25.93995
20.40867
14.53267
8.157726
1.48947
-5.421013
-12.76516
-20.23807
-27.64392
-35.2266
-42.95066
-50.61667
-58.34222
-65.92697
-73.20043
-80.11659
-86.75189
-93.25534
-99.28676
-104.8462
-109.8667
-114.3727
-118.4381
-121.7559
-124.251
-125.9778
-126.9274
-126.9498
-125.6918
-122.9912
-118.8631
-113.9375
-112.8535
-116.2228
-107.8878
-85.25426
-74.4237
-127.2538
-171.8909
-145.5182
-87.45013
-51.71531
-38.47895
-30.12746
-16.3945
-1.853757
-1.551042
-16.49957
-40.68069
-60.40434
-66.38131
-59.35086
-45.35163
-34.33787
-27.02733
-23.98206
-22.96899
-24.54621
-28.47549
-29.11708
-25.89016
-21.23949
-24.12333
-35.8923
-36.75136
-30.00532
-33.15734
-39.5122
-43.23138
-43.96601
-41.62138
-37.85656
-33.23379
-28.53834
-24.94831
-22.72982
-21.938
-21.91959
-22.36512
-23.44266
-24.95174
-26.22655
-26.9044
-27.03785
-25.42929
-22.52882
-18.99628
-15.83747
-15.0975
-15.29742
-14.131
-15.87434
-23.85022
-35.25295
-50.54159
-68.4477
-90.9784
-97.10348
-66.44304
-8.793324
-18.97785
-36.49072
-47.07761
-59.69918
-88.84343
-126.9384
-126.7196
-93.14418
-83.13883
-87.30959
-90.12428
-93.95172
-96.54733
-97.68765
-97.94123
-97.18556
-95.57022
-92.96215
-89.85173
-86.44124
-82.35995
-77.72563
-72.47717
-66.87527
-60.87402
-54.50685
-48.12535
-41.67081
-34.88337
-27.92188
-21.09099
-14.4134
-7.76808
-1.19709
5.13015
11.34004
17.24766
22.84899
28.02759
32.78786
37.09202
40.94475
44.30893
47.12363
49.32514
51.03975
52.13011
52.64067
52.60945
52.10468
50.85492
48.97189
46.51804
43.49598
39.9302
35.8395
31.29633
26.19291
20.72857
14.91885
8.608157
2.025292
-4.805887
-12.0803
-19.45356
-26.76581
-34.26515
-41.88969
-49.45806
-57.09031
-64.57953
-71.74854
-78.56137
-85.11863
-91.54374
-97.48221
-102.9652
-107.9028
-112.3476
-116.3734
-119.6431
-122.0968
-123.8135
-124.7814
-124.8601
-123.7744
-121.3067
-117.4862
-113.0904
-111.7424
-113.8017
-106.1056
-84.92425
-75.30227
-128.4093
-173.0028
-146.1697
-87.6949
-51.75863
-38.43598
-30.08895
-16.37752
-1.659817
-1.327667
-17.22083
-41.36149
-60.74527
-66.62876
-59.63171
-45.59602
-34.58141
-27.10337
-23.96943
-22.86353
-24.4661
-28.51054
-29.27328
-26.04582
-20.74298
-24.00715
-36.29083
-37.07518
-30.55913
-33.71346
-39.6441
-43.04278
-43.63687
-41.41595
-37.67004
-33.11886
-28.45925
-24.90488
-22.69737
-21.92226
-21.92026
-22.35386
-23.41022
-24.81205
-26.17041
-27.00404
-27.1138
-25.46649
-22.5526
-19.00417
-15.79183
-15.04629
-15.24647
-14.12152
-16.06246
-23.97051
-35.27726
-50.61702
-68.75609
-92.0844
-99.94681
-70.61947
-9.524962
-18.22554
-35.75352
-46.77703
-59.67259
-87.93528
-123.6852
-123.8642
-93.90308
-83.95369
-86.8077
-89.27773
-92.8065
-95.25746
-96.34056
-96.70147
-95.93868
-94.34922
-91.73625
-88.58145
-85.22394
-81.13055
-76.5288
-71.29028
-65.73271
-59.79319
-53.44829
-47.11446
-40.74136
-34.01565
-27.1003
-20.33086
-13.73365
-7.158981
-0.6403868
5.608419
11.76309
17.60681
23.15012
28.26661
32.97738
37.234
41.04469
44.36628
47.1539
49.32594
51.02339
52.10462
52.61086
52.58196
52.07852
50.83267
48.97933
46.55805
43.56949
40.04332
35.99656
31.50812
26.45142
21.06022
15.31156
9.049271
2.557684
-4.195191
-11.43033
-18.71692
-25.93786
-33.37841
-40.93501
-48.41127
-55.99458
-63.42393
-70.52992
-77.28675
-83.78381
-90.17948
-96.06087
-101.5245
-106.4305
-110.8525
-114.9038
-118.1283
-120.5943
-122.3111
-123.2968
-123.3571
-122.1619
-119.7222
-116.0945
-112.0859
-110.4076
-111.2414
-104.3907
-85.75854
-78.1352
-129.9677
-173.644
-146.7286
-88.12768
-52.02146
-38.43822
-29.8174
-16.01786
-1.050607
-0.9412661
-18.21139
-42.23606
-61.36941
-67.16572
-60.18257
-46.00897
-34.94863
-27.19562
-23.91913
-22.72216
-24.40219
-28.63263
-29.49495
-26.14256
-20.03525
-23.63814
-36.40522
-37.38797
-31.54464
-34.52241
-39.84263
-42.96027
-43.49243
-41.20381
-37.47896
-33.03111
-28.39329
-24.88239
-22.68413
-21.92238
-21.9298
-22.33833
-23.3731
-24.67079
-26.15244
-27.1337
-27.23895
-25.54853
-22.6128
-19.04159
-15.81448
-14.99168
-15.05567
-13.97203
-16.25034
-24.05843
-35.24473
-50.74583
-69.44194
-93.77927
-103.7402
-75.98782
-11.6953
-17.95725
-35.27456
-46.52072
-59.5191
-85.68789
-116.2893
-116.8267
-93.0282
-84.50417
-86.07334
-88.12567
-91.22038
-93.40444
-94.19334
-94.39818
-93.55666
-92.07333
-89.51471
-86.39713
-83.17961
-79.17077
-74.68745
-69.53386
-64.06126
-58.2251
-51.95668
-45.73065
-39.48313
-32.84754
-26.01522
-19.35528
-12.86023
-6.383534
0.06036704
6.197276
12.28121
18.03482
23.48924
28.53724
33.19856
37.3956
41.15262
44.41556
47.17905
49.31375
50.98571
52.05914
52.56004
52.53329
52.02981
50.7901
48.96967
46.59273
43.64778
40.17
36.17735
31.74907
26.74038
21.45563
15.79309
9.570537
3.188952
-3.423335
-10.59958
-17.78315
-24.86351
-32.19713
-39.66105
-47.01313
-54.48874
-61.80679
-68.79827
-75.42385
-81.81349
-88.13436
-93.87913
-99.25689
-104.0436
-108.3705
-112.3338
-115.476
-117.8352
-119.4281
-120.4439
-120.6389
-119.6462
-117.4612
-114.1575
-110.629
-108.8265
-108.7412
-102.8241
-87.70508
-82.57552
-130.9209
-172.29
-145.8792
-88.19036
-52.63782
-38.59249
-29.33276
-15.22504
-0.1217669
-0.6403689
-19.39909
-43.31311
-62.46173
-68.17352
-61.13751
-46.61889
-35.47411
-27.20256
-23.78703
-22.55294
-24.35692
-28.90436
-29.83978
-26.25201
-19.32337
-23.00701
-35.81245
-37.31973
-32.74267
-35.46999
-40.06859
-42.85275
-43.29289
-41.03288
-37.34234
-33.01279
-28.32113
-24.90933
-22.71727
-21.95478
-21.95868
-22.33271
-23.36386
-24.5416
-26.18606
-27.31089
-27.4287
-25.69049
-22.74196
-19.13982
-15.92559
-14.8699
-14.57055
-13.47665
-16.30234
-23.95245
-34.99665
-50.84076
-70.41507
-96.06012
-108.1541
-82.06175
-16.12075
-18.91105
-35.31174
-46.49124
-59.38804
-82.89855
-107.9842
-108.6728
-91.06292
-84.47127
-85.1859
-86.91921
-89.60818
-91.65992
-92.2545
-92.63698
-91.68964
-90.18032
-87.57534
-84.36622
-81.24939
-77.21757
-72.84324
-67.7088
-62.25435
-56.54733
-50.39901
-44.23798
-38.05272
-31.55566
-24.85572
-18.27708
-11.82927
-5.529144
0.8448392
6.8456
12.86018
18.4885
23.85423
28.89419
33.44937
37.55537
41.23821
44.44454
47.23104
49.28489
50.92548
51.98895
52.47918
52.45519
51.96786
50.74595
48.91657
46.57386
43.68715
40.27531
36.37599
32.02845
27.04394
21.87366
16.3517
10.21508
3.878551
-2.622534
-9.628086
-16.72307
-23.70312
-30.90487
-38.18717
-45.4967
-52.88942
-60.03027
-66.95114
-73.42949
-79.72192
-86.01346
-91.62693
-96.98388
-101.6642
-105.9807
-110.0118
-113.0831
-115.4947
-117.3032
-118.3161
-118.3977
-117.3516
-115.2734
-112.1851
-109.0526
-107.1236
-106.2538
-101.0827
-89.61645
-86.88869
-128.9286
-165.0409
-140.3315
-86.6826
-53.5732
-39.09605
-28.85461
-14.40011
0.6184061
-0.9948468
-20.93255
-44.74413
-64.31416
-69.89495
-62.64438
-47.45935
-36.16175
-27.04569
-23.61352
-22.38066
-24.2224
-29.3132
-30.3604
-26.45296
-18.88627
-22.25739
-34.63159
-36.87335
-33.95783
-36.52738
-40.42142
-42.8327
-43.15573
-41.0449
-37.41365
-33.12448
-28.36884
-25.05928
-22.82869
-22.01332
-22.0111
-22.33859
-23.39217
-24.4372
-26.33111
-27.55152
-27.69977
-25.94697
-22.97342
-19.32196
-16.16696
-14.68646
-13.73297
-12.51336
-15.8926
-23.3963
-34.31589
-51.0865
-70.86953
-98.92414
-113.0672
-88.54578
-22.25248
-21.60043
-36.22828
-46.68698
-59.11898
-79.58732
-100.1229
-101.459
-88.92545
-83.71588
-83.87073
-85.24391
-87.38374
-89.3597
-89.35942
-89.5831
-88.71617
-87.33791
-84.97898
-81.54715
-78.62815
-74.73248
-70.5393
-65.37192
-59.99831
-54.65505
-48.67197
-42.2676
-36.26245
-30.16441
-23.62961
-16.87641
-10.55625
-4.660014
1.743372
7.526996
13.51585
18.90413
24.35665
29.39683
33.69315
37.68086
41.26301
44.45309
47.28073
49.19327
50.85104
51.88716
52.36141
52.35229
51.9018
50.66178
48.82161
46.47114
43.65567
40.32121
36.53702
32.38567
27.38642
22.29893
16.94683
11.13765
4.858965
-1.899085
-8.589938
-15.31127
-22.43628
-29.5594
-36.36838
-43.5163
-51.21539
-57.86998
-64.7977
-71.08733
-77.18665
-83.47396
-88.81204
-94.21028
-98.61206
-102.7807
-106.856
-109.7474
-112.0286
-113.4515
-114.5797
-114.9582
-114.0397
-112.2179
-109.4123
-106.8313
-104.953
-103.5696
-99.05121
-90.66965
-89.79253
-122.7842
-150.1117
-128.3413
-82.58185
-54.3529
-39.75856
-28.5987
-14.1134
0.1768679
-2.705746
-23.02278
-46.69091
-67.29841
-72.71035
-64.9342
-48.7196
-36.6883
-26.55964
-23.21072
-22.13825
-24.39738
-29.88429
-31.08392
-26.84897
-19.24166
-21.9382
-33.40015
-36.50782
-35.21103
-37.64806
-40.93004
-42.92519
-43.17523
2.463177
1.869465
-33.77602
-23.06029
12.1168
-19.25397
2.461574
1.798782
11.00468
-0.8498392
-0.6547079
1.924714
0.2772787
1.473469
1.448814
3.614215
-17.13524
-2.31661
1.34748
1.460097
-72.42731
-1.744543
2.924955
-1.022114
2.300313
2.956781
1.419009
-0.4289931
-6.448407
1.904407
2.562544
-19.84742
-7.29088
3.148829
1.710885
-4.042534
3.150313
0.4004146
3.122787
-5.136776
-20.90127
2.927448
1.722155
4.145519
33.70689
2.285515
-0.1533592
2.723859
-12.56207
-0.5038966
-3.920328
-11.0273
-32.872
1.240086
0.3996021
22.85441
-4.112546
-0.2510896
-12.35895
-20.77194
-0.3491631
0.0463886
-15.69451
2.52664
-6.164019
3.557786
-29.69651
1.226553
2.766174
3.373418
0.5329769
-0.3640254
6.471688
-53.00552
22.92791
1.26299
4.891996
-1.77048
-0.7953195
1.44196
-21.42781
0.4735269
3.997281
2.15355
-10.06198
1.740892
-3.421815
1.361128
-39.55853
3.863184
-16.41923
23.44534
-3.97043
1.468772
2.206661
2.195857
-16.31636
6.628622
-44.57158
2.261336
2.04134
1.413383
1.744911
-87.084
0.5334341
-16.70008
-1.564189
1.96358
-3.353062
-10.28623
1.543463
1.765036
2.381938
8.181269
-20.41591
-0.201247
0.5686225
2.384076
21.67
1.796819
3.537935
0.9506675
0.5240801
2.681309
4.196649
-7.597372
0.926427
-36.14438
2.201748
2.291297
0.5910745
-8.084873
1.521982
1.301117
2.919179
-20.84148
0.38426
7.088252
2.193418
0.6943607
-35.23312
1.418446
-64.41761
1.981664
4.209695
1.728438
1.079219
-43.37517
1.366105
0.6320133
-8.634229
-18.07591
-48.81482
2.836095
-9.394938
-47.70315
1.956709
1.69318
1.439849
-28.82999
1.280045
-22.40273
-4.657866
0.5092731
3.633541
-21.57011
-21.43019
2.723977
-30.49127
4.206796
2.397318
5.942118
3.688949
-39.91941
-6.528527
-3.900462
3.104946
2.23992
-28.42718
-3.81843
16.42935
1.798959
2.644029
1.827919
4.493963
-45.79921
2.8589
1.119709
-10.0442
2.272842
1.072219
1.992445
-8.291185
-1.500331
-1.578334
1.775144
4.046169
1.279755
-3.944205
-32.84958
1.240619
-0.9484245
2.205393
-42.6789
2.010979
-3.073396
-6.678787
2.678992
-8.495777
2.638406
2.471563
-1.756154
-8.493074
-6.722976
1.874894
-5.85136
-11.223
1.524467
5.668791
1.378311
3.289255
-12.14663
3.69447
-7.860971
-2.593472
-0.445351
2.700555
8.712534
2.858913
19.34093
-2.944499
-23.20138
3.91236
2.610964
-82.13282
1.558873
26.85392
2.386854
3.214886
1.114432
1.210213
2.328549
3.305477
-10.03067
1.796374
-24.3093
2.484022
-41.70213
0.8615607
1.44061
-31.85617
1.918045
1.200917
1.547213
3.783715
-26.22218
2.084693
0.8480145
-4.854376
-4.497579
-3.500679
0.3934835
-9.60217
-14.98
0.7693932
3.085168
1.693922
1.285449
2.042232
-25.48453
1.242349
1.490999
13.3646
0.03598196
-1.901535
4.084183
2.43714
-26.00857
-43.88937
1.447776
2.681576
1.855323
1.972345
2.830691
3.284056
1.671543
36.92746
0.9472381
2.742786
2.596113
2.11612
2.197758
2.10211
2.588429
-36.60789
0.573016
-19.48112
2.615367
1.586392
0.9876263
-41.94196
3.240906
3.857014
-40.3209
0.7170675
0.9027157
2.774633
2.371044
-10.2717
-8.947906
3.185889
1.008723
2.855214
2.558427
0.7709445
-11.8608
35.31596
-50.34376
-29.05899
-65.73479
0.3594249
-0.6784553
0.9654721
0.9588198
0.1787152
1.807577
2.081294
0.135166
2.2248
0.7580007
19.11742
-6.270892
-7.132786
-60.22974
2.706196
2.663529
2.920317
5.943047
-3.074483
0.8636856
-44.72519
0.9141246
1.773099
1.127894
-12.82001
5.202046
-25.67391
0.9195288
-10.52406
0.2798099
2.979653
-6.776485
14.01149
1.412249
0.5274423
-33.60136
-52.63843
6.48843
2.042292
4.421355
2.773471
2.44391
-9.871908
3.018742
1.607831
2.81607
2.445378
1.825294
2.326826
2.197518
-2.280119
13.2743
-37.39629
2.199922
2.81397
2.064493
0.8141541
3.344168
1.548012
1.868403
3.274423
2.418499
0.8418323
-11.47177
1.001922
2.460373
2.71655
38.8641
2.925419
0.3641952
-5.450614
1.57467
3.213611
-56.43756
1.427038
0.009233271
1.896255
-3.536718
2.975283
2.097018
2.82501
1.382788
-28.42736
-7.82404
0.199823
-10.49749
-35.61498
-50.99624
2.675967
1.421237
1.5058
0.990807
4.445459
1.74212
2.736204
0.2853962
2.993302
-10.23995
1.366094
-13.01413
1.309014
1.338453
4.79074
2.686216
0.8777846
-25.8808
1.551305
1.922206
-30.74765
1.342775
-0.7060228
-1.050585
-0.4967234
1.572455
1.890018
3.581547
2.229688
-5.187633
1.205117
1.467063
1.457669
3.262595
3.210655
1.887995
-3.783671
2.502969
-3.953585
-7.701683
-5.397038
0.833207
1.775084
-39.45585
0.9414129
-7.964898
2.44857
3.375728
-9.1837
5.479393
2.08429
-19.60737
1.594221
-36.11844
0.9065153
2.670822
3.369754
2.86051
27.38071
1.789703
4.338334
-0.7825705
-10.26699
-0.3974433
2.236087
8.491063
-9.055836
-6.710216
-6.149219
-34.07452
5.833712
1.587689
-14.37502
2.264246
2.945022
1.923095
2.430886
2.60607
-7.225712
17.21634
0.5176021
2.394302
2.878427
-23.69731
-0.4323834
-2.526807
-19.10675
2.256128
1.495969
4.724247
2.640965
4.498412
2.484139
1.994926
1.488599
-4.263053
3.092784
2.198374
1.708784
0.3006803
-2.254423
-1.872927
-23.99845
4.047764
15.523
-1.107142
3.480523
2.979995
3.513583
3.202582
5.802617
1.550473
2.375299
1.666088
-8.033105
-3.802498
2.429709
0.3842595
0.8835259
4.436973
1.308711
1.882133
-25.99099
-0.9210681
-24.41412
0.6714319
4.897409
5.262706
4.200113
1.098136
2.984278
1.028811
5.35009
2.679614
1.382512
1.826417
-46.4607
3.390318
4.626164
-1.7143
-5.381599
8.782993
2.933945
7.304162
-5.055419
-3.011371
-3.851664
3.973871
1.501087
11.64025
16.68395
-4.037686
1.446765
-3.407401
0.6145626
0.685603
0.7839737
1.575536
1.934877
8.21878
31.87257
-6.615718
2.383398
5.44742
2.68418
-61.84343
1.641961
3.605935
2.3877
3.521314
2.602898
2.148992
0.7881562
3.188261
6.617288
0.5021647
-6.104274
-22.04968
1.153017
1.814933
-79.3938
-3.223829
-0.1297965
-18.80676
4.197995
0.05263616
1.989824
1.185254
2.319358
-52.32586
0.3199104
2.52904
2.378078
1.495353
1.434061
1.336187
1.791759
-16.80315
-7.622137
1.978127
-19.62336
2.353645
5.568631
2.781354
-40.37679
1.036881
9.486487
-13.99758
0.6340835
0.5510795
-2.440604
4.700037
3.194084
-11.34953
1.972579
3.389957
2.444738
18.72736
3.414382
1.336028
2.857823
-1.76543
1.559325
-33.02713
-13.90212
-9.59383
-37.61182
-7.679228
-14.45348
1.732693
0.3752781
2.105031
2.270462
-2.632472
1.157846
-4.018284
3.725486
1.768024
2.506548
-55.28144
2.884379
26.38906
4.938125
-28.85893
4.161803
6.174348
7.847907
-2.097298
-21.05542
1.564492
2.110858
-14.12566
1.045113
1.372509
1.413367
2.118466
-0.3715494
0.2698199
-13.18533
2.920153
2.046674
-2.187116
1.629744
1.396002
-82.76872
2.884936
1.544505
4.920629
-41.30082
0.7216699
1.054568
7.245245
14.93176
11.05486
2.909973
-7.597471
1.837905
1.894187
2.361857
-1.906128
3.566847
3.041814
-19.5375
-1.373117
-48.20432
-9.102052
2.829478
2.594045
-36.72593
2.726731
1.691765
0.9589592
2.753696
-9.828826
0.9069861
-2.94836
4.924487
-11.12813
2.616781
2.215916
-19.7912
-5.099903
1.927848
1.501221
3.559606
1.099248
-2.191317
1.080194
2.130524
-39.8453
2.865403
2.822065
2.078427
1.100376
1.150236
2.100192
3.561122
1.605548
1.973418
-25.98954
1.999474
1.933247
1.67722
1.736712
2.472554
2.087985
2.984577
2.319159
3.019362
4.65545
-29.53357
1.586276
0.9158167
1.997228
1.170032
1.590113
3.809846
3.010698
-51.77784
3.38428
-0.7005036
9.222264
2.679286
-11.64358
-9.368488
-18.89399
0.7423413
-6.481513
0.1686077
-8.503403
-15.15137
-4.870486
-3.633932
0.3267421
2.809417
13.89393
2.435993
1.672101
-53.18195
2.44795
2.188895
2.116335
-9.226901
23.76755
-1.718552
-0.7169045
3.096512
1.626731
2.193413
1.34775
-1.683679
2.904897
4.066161
-0.3657228
1.202356
0.3646239
5.761535
1.973768
0.0774576
-8.343874
3.437591
1.134353
0.1571976
12.74121
31.78439
-7.305459
1.402944
1.540021
2.173356
1.981007
1.781254
-60.98599
1.544338
-67.17408
-6.08048
0.4162862
-5.779959
1.530189
-3.579741
1.579943
-0.09167623
1.386383
1.235146
-5.011292
-48.88282
2.875527
-0.2103475
0.7176979
1.835962
-0.03607405
3.041294
-17.06634
-2.910402
16.25071
2.289029
1.888131
0.8046097
0.8069435
2.85673
0.8336746
3.58207
1.308908
-16.15523
2.128898
9.294167
-28.64327
2.766251
-10.3722
-8.833021
0.9339427
1.890925
2.960546
-0.183829
0.7977548
2.735221
3.831232
2.627762
3.164138
4.455797
0.3343084
-7.056673
31.39176
1.882904
-1.807493
3.9571
-60.79793
2.176314
1.968193
1.95389
2.045084
33.5981
0.5530028
2.457726
0.5973744
1.925206
-0.1521367
2.333518
1.670798
1.737268
-19.01526
-15.05711
1.528871
-0.5458023
-13.00788
1.096958
0.8741586
1.148471
-12.41173
5.952529
30.50643
-4.115586
2.062953
0.3616845
1.234025
-1.082342
11.37179
-0.7480572
2.08643
2.681129
0.4614087
1.786789
1.809909
-10.19426
-5.358536
-15.72103
-24.17833
3.886006
0.6251189
2.517791
3.83167
3.053153
5.612671
-6.5605
5.899048
2.434565
10.17508
-22.66848
6.532481
2.196688
1.829592
-9.100325
28.88974
-1.137766
1.334114
-1.954517
-40.55724
1.800291
1.055207
4.14247
1.686473
1.126287
-24.67294
-1.986369
2.842186
-3.262011
0.9079729
0.4581899
-35.98603
-17.88687
-44.12849
3.740489
-43.10165
1.643266
0.3616568
-15.37303
1.903011
-0.5390279
-31.09502
0.1152063
1.522386
-11.24613
3.672218
1.90764
-33.28846
-43.30541
3.45816
17.75395
1.537111
-0.2265862
-17.28304
17.58293
-29.17589
0.4714039
1.317571
3.143624
2.5629
3.562128
-2.676603
2.604784
2.115811
0.9975607
-61.17996
-76.8329
2.399537
3.139527
3.514577
1.551658
1.857041
3.683387
1.639892
1.277014
2.298111
2.207533
1.008825
5.210677
1.804233
-18.05618
1.700063
1.479752
-17.96405
2.314192
1.819769
-0.3254302
-29.08133
4.107451
-2.091744
3.341413
-9.796046
-32.96707
35.78262
48.86215
2.601422
1.349391
-4.656516
6.934445
2.300749
0.5998651
11.82643
-33.79486
2.465434
2.348902
0.1082617
3.133345
2.068342
0.5215647
-0.726407
-19.61235
-59.50707
2.147036
2.655713
2.392582
2.858795
2.869325
-5.632465
1.359862
2.012675
1.59703
1.137664
2.502187
2.747023
-32.28783
-19.50735
2.344433
3.410515
1.711253
2.561078
-5.440436
2.480423
0.6878331
-42.00475
1.429265
-31.71806
-42.2429
0.7753102
0.2753404
-64.89358
-85.94153
1.593712
4.631331
3.961898
1.564893
1.024022
-4.324579
2.011942
2.148454
2.286204
-13.68757
1.276827
-0.8991501
1.140605
3.639125
1.614334
1.217898
1.057297
1.268221
0.7936371
1.308268
2.040401
-1.443028
1.534519
1.912278
4.617738
0.1207277
2.453849
1.17547
0.3284975
-14.24575
-22.61199
-18.0483
2.678764
2.158723
0.6124056
2.45369
-29.62497
-11.55522
-7.056427
-32.46177
24.32543
3.039721
3.845315
-9.789099
-22.04595
0.6057967
4.332468
-71.95057
-2.942936
1.513179
-8.567626
1.17218
6.858964
1.516505
2.724558
4.32664
-0.4687783
-27.4338
2.471766
-7.988603
35.99448
-12.34593
-6.734557
2.095546
3.020183
3.98262
8.947099
3.462541
8.353624
0.7553002
2.613311
-5.606987
2.084184
-1.990478
1.929405
-15.9415
2.295229
-85.54755
9.094535
3.230374
18.04864
2.507675
30.36007
-6.979484
0.2690605
2.831595
0.7214979
15.38076
-38.07712
-8.646695
2.650716
1.621995
1.613336
1.744049
2.999968
-7.546564
-1.78265
1.305746
-28.20364
-1.717772
17.70923
-27.06242
2.859505
-45.01681
-13.003
-1.764023
-26.19852
38.91175
0.86973
2.471791
-39.49523
2.918565
2.378483
0.2017494
0.3192664
-15.64006
-79.5299
-6.429204
1.611179
3.298627
1.831653
1.595086
3.7644
2.549169
8.769943
4.270667
1.494112
1.43922
1.48162
-7.914619
-15.75122
-14.09982
2.033963
2.131562
-39.62851
0.1267689
1.780025
1.385997
-0.2122297
-28.17982
2.627766
2.486534
2.598739
1.640159
3.232512
-0.07612535
1.586723
3.101073
-44.49523
24.9342
-1.641835
0.8564448
4.286219
-0.8337828
1.538019
1.274296
2.346957
0.8431926
3.92488
-15.05721
1.701266
-16.49625
1.544262
-1.223154
1.577639
1.80126
-0.1864951
0.9583832
-6.553533
-25.06489
-29.18741
-14.0001
1.733593
-7.607234
-0.09027867
-10.69839
1.177532
-25.74051
2.359904
1.730863
1.469869
-5.731698
1.424581
-7.875642
3.471874
-49.07125
1.875684
2.405502
2.630711
-59.76763
2.844947
-35.22455
2.398468
2.765143
1.025597
0.9178626
3.625393
-33.60245
-21.4428
1.277456
1.441778
-12.78717
-5.045741
3.805609
3.378571
2.78965
1.133729
2.096846
1.978563
-39.13873
-11.43905
-4.426615
1.092182
1.722647
-0.3841101
1.334122
2.660366
1.571165
-8.152587
0.699999
2.36789
9.396986
1.869682
-12.94854
1.975784
2.522402
-0.8196219
-20.87041
1.684962
0.9213767
0.2635717
-19.06836
-0.1561521
-14.28652
2.560696
-1.640749
2.289201
-10.54242
-2.640838
1.582007
17.34176
1.856087
2.772991
-76.50185
1.210579
-0.2348907
-1.169795
0.5793693
-0.8449806
0.3908426
2.104504
3.717759
1.614416
-16.99549
0.3020491
2.618931
1.714297
3.737855
-0.3349607
1.495583
3.652278
2.520785
1.3714
-23.2315
1.281608
3.346791
1.667291
3.26516
-18.22981
-4.87347
-1.355288
1.934911
2.743858
1.555973
-27.81474
-2.208637
2.090544
4.126597
1.347775
12.86427
-57.04747
-14.1767
0.3657561
0.5561069
20.60895
-1.870601
1.748615
2.691468
-0.04273548
2.752872
-39.61082
-31.23254
-19.63491
11.53564
8.825642
2.742634
-48.32585
-47.6841
-72.31782
3.213977
-2.719557
0.806698
1.696894
1.334947
2.192789
1.508694
3.874323
2.586576
3.31354
2.639282
1.455619
-27.65118
1.458482
1.99188
0.4583795
-23.1308
20.75997
0.6230812
-16.31456
-36.74249
-8.462956
6.887873
-4.67067
-4.75576
-13.18518
-65.12724
0.8884246
-28.99616
1.955123
-44.60391
-16.86852
3.60179
2.342786
-22.25492
1.611602
15.3252
1.29897
1.82745
3.427316
1.575125
-3.808398
2.077614
1.354496
1.854232
2.153173
-38.71778
1.066708
1.606431
2.700607
2.301387
2.598591
-22.90862
-3.332809
-36.38749
1.227509
2.673869
22.29356
2.572614
1.834947
-15.60224
0.6185119
-89.5216
2.169155
2.112883
2.255937
2.115016
-20.62557
-2.335115
3.361041
-1.04318
1.119072
2.559763
2.69546
23.95506
2.94825
-12.55848
3.969666
-18.61986
2.304857
-81.46303
2.386808
2.592704
4.129014
3.039259
-2.676653
-56.23983
-41.74482
-60.03999
1.253377
-10.88902
-31.94806
2.487815
-11.34479
1.245482
1.832067
-11.97051
-36.83794
1.435145
-57.22995
1.108144
0.3083562
1.137541
-29.36963
10.4509
1.246134
1.37827
2.365675
-0.4606593
-0.06120779
16.03734
1.214409
-14.53299
1.631585
2.936748
1.080995
1.591558
-1.739487
0.04055217
2.381379
-9.294055
2.404723
1.185799
-1.530647
2.53735
-7.664706
-6.42986
-4.07524
2.287035
1.963135
1.710328
0.07170804
2.316013
-73.29189
27.66093
-4.33636
1.989385
1.077514
-31.60542
1.760312
2.404841
2.076842
4.48013
0.3717173
1.449185
1.890225
-18.95806
0.0237296
22.12776
36.75105
2.29389
-3.075442
1.498555
3.386548
1.795819
6.313598
34.54711
-45.84494
3.121487
4.430402
2.806717
-15.38991
2.705002
-17.94121
2.590239
1.265952
3.486195
4.2946
1.787709
2.64465
2.489949
-19.73711
-13.08265
-2.281684
0.6434447
-79.429
27.86763
-2.067225
0.9177193
-6.493693
-1.824596
1.406246
3.147911
33.19581
2.260779
-2.340558
-20.85411
1.492589
0.7329742
-36.18407
2.242989
5.371823
1.522974
2.03968
20.5081
-5.686649
3.161998
2.79627
-7.258407
-24.31676
20.36469
3.867007
6.982949
-45.7615
-18.70143
1.502578
0.9403177
-37.2955
2.113676
-38.38555
2.373309
1.251859
1.201948
1.698917
-15.36924
-15.29065
1.23658
-9.066367
-2.290279
0.953667
1.818795
0.222224
-58.83487
-18.39589
0.1106056
4.324894
0.211988
2.198024
3.433576
-0.2850252
1.431974
0.4126814
-73.05474
-9.602558
-1.7667
-1.26833
-90.61934
2.778456
2.910664
-10.3011
4.37381
4.199592
2.628319
36.70979
3.416211
2.011265
2.150376
2.383995
-25.19958
-20.32975
-32.60751
15.24117
1.943069
2.362984
1.655441
1.849475
0.9486051
1.443638
1.741916
1.939123
1.001639
1.031994
1.71386
1.917086
13.05149
8.917439
-2.231277
3.603948
-1.070456
-0.6775535
3.458182
-6.487613
11.69353
-48.29831
-35.33788
2.401642
2.528788
-76.39506
43.91608
-91.14133
2.773353
2.076167
5.394708
-19.26877
10.2714
-23.61889
1.282252
4.864294
0.7755037
3.484016
2.019718
3.154749
0.2769837
-59.24192
2.988957
-1.250841
-0.4250306
2.150328
-46.4262
-17.08234
-23.09219
2.718144
16.3426
2.874325
2.956453
2.939445
1.057248
-71.25293
1.607835
4.176846
33.23845
2.48092
2.175875
2.478438
28.17764
6.779286
2.797577
3.790982
-9.050605
1.944436
1.512338
-66.29097
1.551857
-83.19309
1.771335
1.262534
46.32076
1.141432
1.634408
2.64827
3.800116
0.08360057
3.59103
-28.37508
42.92155
3.065488
-1.588838
46.89002
1.15053
3.878094
2.052489
-22.41766
2.15768
-0.7361339
-3.617009
1.464002
-9.267298
-48.84602
2.301866
2.304974
1.97564
2.081684
19.25495
2.186499
1.614726
2.21651
1.426972
0.6768245
0.7566566
0.8327417
1.470081
1.531638
4.938781
-21.20017
-68.57533
-24.51668
-24.07847
-16.40627
-0.2984852
3.618899
1.123183
1.640216
4.721631
-11.38774
-3.809225
28.27407
-20.25056
1.853175
-4.572585
3.615633
-4.415396
-10.70144
-18.85869
2.894464
-67.72448
3.882474
0.2420054
1.086775
1.882789
2.694156
2.283048
1.497691
1.98842
0.7858166
2.352596
3.68894
-5.584968
0.9836593
0.9173539
1.798079
-28.57322
-12.14941
2.056378
1.826804
1.584355
-11.76357
-30.42941
1.858772
2.050533
1.881817
2.193616
9.412775
17.60438
1.574987
3.663363
2.398786
7.996855
-69.35495
-51.54756
1.734634
-8.048107
-0.09799823
-15.90809
12.48121
1.691682
-3.376722
1.783561
-2.210932
-2.893127
-5.727543
1.491543
-1.918738
1.168836
29.56716
2.780291
-8.012171
2.727027
2.362096
2.17471
-20.95338
2.831057
3.304271
-19.85157
2.749898
2.218123
-13.07353
1.769107
6.210101
9.302716
0.8368747
-32.01253
1.95279
39.00354
3.857895
8.30596
1.674703
-9.893313
2.508298
2.559624
0.4944254
21.85373
3.738245
3.316225
2.67711
3.552387
-22.68581
-0.4664158
-5.209695
-16.22
-2.600621
0.039122
39.70263
-53.69181
1.686924
2.232492