/*--------------------------------*- C++ -*----------------------------------*\
| =========                 |                                                 |
| \\      /  F ield         | OpenFOAM: The Open Source CFD Toolbox           |
|  \\    /   O peration     | Version:  2406                                  |
|   \\  /    A nd           | Website:  www.openfoam.com                      |
|    \\/     M anipulation  |                                                 |
\*---------------------------------------------------------------------------*/
FoamFile
{
    version     2.0;
    format      ascii;
    arch        "LSB;label=32;scalar=64";
    class       volScalarField;
    location    "0.68";
    object      p;
}
// * * * * * * * * * * * * * * * * * * * * * * * * * * * * * * * * * * * * * //

dimensions      [0 2 -2 0 0 0 0];

internalField   nonuniform List<scalar> 
217010
(
-59.09485
-23.71749
-30.9934
-31.08628
-28.25801
-26.98819
-26.77644
-26.39768
-26.50675
-26.17672
-25.99577
-25.91017
-25.90983
-26.42473
-26.89869
-27.99961
-29.27831
-30.3427
-30.85004
-30.65762
-30.26716
-31.02965
-31.78137
-32.45602
-33.37209
-34.46666
-35.55176
-36.65993
-37.70025
-38.7874
-39.96157
-41.12671
-42.1829
-43.09964
-43.77586
-45.09275
-46.91378
-50.39276
-54.08794
-56.82914
-60.63442
-66.12736
-74.11407
-84.96679
-96.76898
-105.086
-104.9033
-97.47115
-79.06468
-92.84094
-62.7897
-62.3234
-58.77479
-56.78604
-54.81795
-53.04802
-51.32171
-49.64429
-47.97948
-46.28058
-44.55391
-42.855
-41.17041
-39.42707
-37.68215
-35.95978
-34.21176
-32.44147
-30.71372
-29.03134
-27.38666
-25.78442
-24.26192
-22.82792
-21.49646
-20.29081
-19.22626
-18.31858
-17.58998
-17.06011
-16.74626
-16.54732
-16.4271
-16.44001
-16.69668
-17.07595
-17.56078
-18.14838
-18.84641
-19.67851
-20.59204
-21.5452
-22.51487
-23.53382
-24.61421
-25.73343
-26.89372
-28.08825
-29.33193
-30.61084
-31.89927
-33.20503
-34.50183
-35.80996
-37.10724
-38.41977
-39.74038
-41.02827
-42.34015
-43.68426
-45.03218
-46.34467
-47.63656
-48.94176
-50.21937
-51.46638
-52.72033
-53.98035
-55.13164
-56.25471
-57.33477
-58.3644
-59.3655
-60.32608
-61.20757
-62.028
-62.80844
-63.56737
-64.24814
-64.85196
-65.40485
-65.90028
-66.32077
-66.6792
-66.98918
-67.23679
-67.41821
-67.54137
-67.60336
-67.6113
-67.57439
-67.49468
-67.37826
-67.2325
-67.08265
-66.89077
-66.77832
-66.59607
-68.07712
-62.99402
-85.55933
-68.69807
-78.82104
-82.49938
-74.50427
-75.93631
-83.05592
-84.55677
-80.589
-72.17387
-61.85248
-51.31477
-42.95252
-39.29099
-37.65652
-38.77014
-39.46783
-39.92529
-39.88644
-39.22752
-39.42551
-41.23544
-42.8066
-43.94073
-44.57857
-44.76934
-44.71642
-44.47811
-44.42258
-45.3351
-46.18269
-45.43033
-45.18922
-45.91314
-46.30974
-46.05982
-44.57418
-42.28691
-40.63435
-40.42176
-40.33793
-40.24311
-40.236
-40.1557
-40.24819
-40.7831
-40.2425
-42.98864
-39.58371
-77.89447
-30.37028
-27.27428
-20.88504
-17.27671
-13.96718
-11.18602
-8.721394
-6.421819
-4.415708
-2.536549
-0.8032573
0.806605
2.346084
3.816768
5.209713
6.515948
7.755715
8.960789
10.1232
11.24352
12.32603
13.36269
14.35441
15.33658
16.303
17.25472
18.1708
19.04693
19.89966
20.74479
21.58484
22.41489
23.21082
23.98829
24.76399
25.52832
26.28916
27.04649
27.80911
28.5367
29.29385
30.01382
30.73289
31.44366
32.15335
32.85307
33.54519
34.24193
34.95304
35.66393
36.36267
37.05226
37.74308
38.45632
39.18177
39.90088
40.62345
41.35737
42.09721
42.84933
43.60487
44.36319
45.16027
46.02161
46.88709
47.74228
48.68316
49.75135
50.77839
51.43959
52.27492
56.86755
55.1249
54.10688
53.1392
52.16897
51.23557
50.32061
49.45749
48.68255
47.94762
47.17229
46.38029
45.6132
44.88769
44.18186
43.4765
42.76384
42.05496
41.3705
40.69598
40.01168
39.32973
38.65982
37.98218
37.31244
36.63361
35.93271
35.24573
34.57874
33.91086
33.22788
32.51151
31.83119
31.12648
30.40872
29.6941
28.98009
28.24348
27.499
26.75917
26.00948
25.22831
24.41617
23.60784
22.81156
21.99394
21.14278
20.27421
19.37723
18.45308
17.51133
16.54491
15.57607
14.55605
13.4809
12.37867
11.22567
10.03325
8.769533
7.422643
6.014101
4.534262
2.918255
1.186042
-0.7716015
-2.861322
-5.193972
-7.98852
-10.95131
-16.21691
-18.09902
56.78597
55.29023
54.23056
53.25788
52.28456
51.34278
50.41969
49.54642
48.76181
48.02236
47.24558
46.4505
45.67803
44.94726
44.23775
43.52977
42.8146
42.10252
41.41493
40.73784
40.05142
39.36721
38.69514
38.01541
37.34408
36.6637
35.96091
35.27207
34.60311
33.93367
33.24924
32.53059
31.85088
31.14346
30.42427
29.7084
28.99323
28.25532
27.50974
26.76869
26.01796
25.23542
24.42191
23.61246
22.81526
21.99625
21.1439
20.27436
19.37593
18.45011
17.50669
16.53857
15.56878
14.54596
13.46837
12.36408
11.20802
10.01325
8.74542
7.394149
5.982071
4.497824
2.876816
1.138532
-0.8349773
-2.932943
-5.281578
-8.091331
-11.11786
-16.32227
-19.06977
-31.46294
-27.41951
-21.08759
-17.4006
-14.07251
-11.27093
-8.795864
-6.476813
-4.46366
-2.579692
-0.8398663
0.7743999
2.317996
3.79291
5.190045
6.499818
7.741794
8.949322
10.11425
11.23672
12.32119
13.36002
14.35299
15.33641
16.30409
17.25726
18.17487
19.05213
19.90603
20.75239
21.59374
22.4251
23.22234
24.00086
24.77791
25.54347
26.30579
27.06468
27.82977
28.55717
29.31655
30.03797
30.75877
31.47112
32.18236
32.88372
33.57774
34.27671
34.99
35.70278
36.40321
37.095
37.78878
38.50511
39.23339
39.9552
40.681
41.41842
42.1621
42.91782
43.67722
44.44158
45.24668
46.1142
46.98418
47.84911
48.80618
49.8811
50.87964
51.54958
52.67449
-84.56562
-69.20336
-78.19272
-82.64911
-74.83032
-75.52621
-82.95387
-84.93868
-81.27308
-72.94277
-62.60634
-51.93247
-43.30516
-39.44102
-37.68451
-38.743
-39.44127
-39.92515
-39.89729
-39.22824
-39.39444
-41.18826
-42.7777
-43.92885
-44.57464
-44.77199
-44.72185
-44.48203
-44.42273
-45.33417
-46.19067
-45.42907
-45.18218
-45.91508
-46.32312
-46.07464
-44.57638
-42.27748
-40.62132
-40.41704
-40.33729
-40.24413
-40.2373
-40.15752
-40.25947
-40.78243
-40.29293
-42.97339
-40.49908
-71.73061
-63.96546
-62.52424
-59.12292
-57.03068
-55.04496
-53.255
-51.51666
-49.8287
-48.15833
-46.45516
-44.72033
-43.01229
-41.32473
-39.57659
-37.82298
-36.09507
-34.34266
-32.56404
-30.82718
-29.13658
-27.48421
-25.87255
-24.34077
-22.89786
-21.55691
-20.34164
-19.26762
-18.35042
-17.61287
-17.0741
-16.75434
-16.55231
-16.42899
-16.43793
-16.69049
-17.06753
-17.55085
-18.13719
-18.83409
-19.66582
-20.57969
-21.53381
-22.50433
-23.5244
-24.60603
-25.72649
-26.88827
-28.08413
-29.3296
-30.61014
-31.90006
-33.20771
-34.50628
-35.81668
-37.11552
-38.43073
-39.75353
-41.04265
-42.35764
-43.70483
-45.0555
-46.36956
-47.66378
-48.97223
-50.25077
-51.49835
-52.75384
-54.02189
-55.17164
-56.29648
-57.37692
-58.40702
-59.4092
-60.36939
-61.2495
-62.06941
-62.85036
-63.60875
-64.28665
-64.88829
-65.43943
-65.93186
-66.34852
-66.70386
-67.01058
-67.25357
-67.43001
-67.54791
-67.60484
-67.60783
-67.56611
-67.48169
-67.36099
-67.21269
-67.05972
-66.86868
-66.75768
-66.69229
-67.80311
-63.81128
-53.97986
-24.44517
-30.83202
-31.18726
-28.34304
-27.00684
-26.78282
-26.40199
-26.50881
-26.18074
-25.99733
-25.91061
-25.90767
-26.42251
-26.89619
-27.99967
-29.28183
-30.35228
-30.85999
-30.65479
-30.26312
-31.0357
-31.78973
-32.47012
-33.39102
-34.48979
-35.57763
-36.68926
-37.73158
-38.82503
-40.00507
-41.173
-42.2297
-43.13962
-43.81956
-45.17721
-47.07015
-50.68595
-54.31442
-57.04866
-60.95374
-66.64099
-74.89386
-86.01629
-97.88148
-105.869
-104.8934
-96.06791
-78.78933
-87.16147
-47.65575
-24.73273
-30.6065
-31.27879
-28.44101
-27.02397
-26.78827
-26.40812
-26.51247
-26.18457
-25.99923
-25.91198
-25.90475
-26.42226
-26.89686
-28.00651
-29.29195
-30.37147
-30.88543
-30.66601
-30.2653
-31.03946
-31.79706
-32.48587
-33.40776
-34.50397
-35.59335
-36.70512
-37.74548
-38.84228
-40.02552
-41.19476
-42.24996
-43.15129
-43.84478
-45.24639
-47.17791
-50.79869
-54.43509
-57.0481
-61.14364
-66.95921
-75.40121
-86.65113
-98.3612
-105.9406
-104.7379
-95.14266
-78.22938
-83.20114
-63.97671
-62.66574
-59.25388
-57.12358
-55.11734
-53.31559
-51.5698
-49.87637
-48.20372
-46.50231
-44.76667
-43.05274
-41.36489
-39.619
-37.86508
-36.13622
-34.38672
-32.60935
-30.87091
-29.17857
-27.52506
-25.9107
-24.37497
-22.92869
-21.58459
-20.36616
-19.28899
-18.3679
-17.62697
-17.08332
-16.75996
-16.55665
-16.43188
-16.43738
-16.68754
-17.06331
-17.54581
-18.13152
-18.82777
-19.66049
-20.57494
-21.52974
-22.5
-23.521
-24.60364
-25.72455
-26.88736
-28.08366
-29.33069
-30.61217
-31.90276
-33.21208
-34.51097
-35.82283
-37.12131
-38.43844
-39.76194
-41.05007
-42.36716
-43.71554
-45.06681
-46.38015
-47.67494
-48.98455
-50.26152
-51.50931
-52.77511
-54.03108
-55.18326
-56.30865
-57.38703
-58.41793
-59.42224
-60.38296
-61.26213
-62.08172
-62.86427
-63.62672
-64.30154
-64.90224
-65.45414
-65.94548
-66.35979
-66.71494
-67.02202
-67.2632
-67.43748
-67.55328
-67.60739
-67.60845
-67.56523
-67.4786
-67.35568
-67.20665
-67.05224
-66.86174
-66.77225
-66.67838
-67.66599
-64.15846
-83.20593
-69.62532
-77.89614
-83.0452
-75.11135
-75.40808
-83.01379
-85.17541
-81.46899
-73.34037
-63.09055
-52.43661
-43.64924
-39.61195
-37.74505
-38.75726
-39.46224
-39.94308
-39.89757
-39.21489
-39.38296
-41.18162
-42.78644
-43.93156
-44.57735
-44.77907
-44.73199
-44.49158
-44.42814
-45.34429
-46.21039
-45.44206
-45.20232
-45.95566
-46.37149
-46.11684
-44.60002
-42.27869
-40.60296
-40.41078
-40.34046
-40.25009
-40.24475
-40.16465
-40.25921
-40.77886
-40.31097
-43.0042
-40.83847
-64.37277
-31.54504
-27.52715
-21.17485
-17.4609
-14.12082
-11.30862
-8.824628
-6.510974
-4.481555
-2.597383
-0.8545441
0.7610457
2.305424
3.782484
5.18137
6.49331
7.734735
8.94343
10.10941
11.23289
12.31783
13.35837
14.35095
15.33507
16.30353
17.25779
18.17677
19.054
19.90788
20.75448
21.59628
22.42899
23.22687
24.00446
24.78224
25.54801
26.31184
27.07122
27.83499
28.56605
29.32158
30.04448
30.76626
31.47866
32.19054
32.89219
33.58614
34.28486
34.99957
35.71378
36.4142
37.10602
37.79897
38.51634
39.2469
39.96913
40.69458
41.43376
42.1776
42.93403
43.6945
44.45951
45.2645
46.13713
47.01107
47.87703
48.83995
49.91447
50.90676
51.59758
52.81784
56.68078
55.38012
54.2752
53.29023
52.31767
51.37585
50.44615
49.56649
48.78137
48.04457
47.26563
46.46847
45.69295
44.96142
44.25155
43.54383
42.8272
42.11316
41.426
40.74908
40.06127
39.37671
38.70501
38.02359
37.35381
36.67277
35.9673
35.27828
34.60974
33.94023
33.25345
32.53925
31.85556
31.15033
30.42936
29.71305
28.99789
28.25833
27.51255
26.77201
26.02172
25.23786
24.42272
23.61313
22.81682
21.99685
21.14389
20.27419
19.37436
18.44759
17.50332
16.53454
15.56585
14.54099
13.46215
12.35806
11.19981
10.00553
8.734898
7.381938
5.969189
4.483926
2.861085
1.108553
-0.858468
-2.964232
-5.320536
-8.14159
-11.18738
-16.40483
-19.17024
56.52095
55.48101
54.37828
53.39118
52.42889
51.48783
50.55022
49.66298
48.87119
48.12939
47.34677
46.54727
45.7677
45.03154
44.31773
43.60642
42.88694
42.16946
41.47992
40.79933
40.10835
39.42165
38.74767
38.06316
37.39252
36.70896
35.99992
35.3106
34.63997
33.96886
33.27933
32.56644
31.87599
31.1726
30.44831
29.73098
29.01506
28.27243
27.52597
26.78475
26.0339
25.24709
24.42947
23.61928
22.82354
22.00107
21.14675
20.27648
19.37412
18.44584
17.49995
16.52925
15.56183
14.53226
13.45056
12.34606
11.18295
9.988568
8.711918
7.354424
5.939048
4.450475
2.819317
1.059989
-0.9105956
-3.031082
-5.403081
-8.235392
-11.33981
-16.47482
-19.33028
-31.71218
-27.62293
-21.35582
-17.57102
-14.22106
-11.38709
-8.886926
-6.566539
-4.528796
-2.638433
-0.8883439
0.7306563
2.278499
3.760534
5.16347
6.480324
7.722125
8.933913
10.10245
11.22826
12.31451
13.35852
14.35043
15.33605
16.30607
17.2623
18.18419
19.06216
19.91677
20.76396
21.60696
22.44232
23.24254
24.01948
24.79924
25.56597
26.33293
27.0941
27.85583
28.59598
29.349
30.07374
30.79771
31.51221
32.2256
32.92992
33.62604
34.32706
35.0439
35.76088
36.46359
37.1585
37.8546
38.57435
39.30913
40.03459
40.76372
41.50651
42.25482
43.01481
43.78042
44.55223
45.36241
46.23889
47.11924
47.9958
48.96959
50.02783
50.99583
51.75593
53.07658
-81.17626
-69.94883
-77.5785
-83.52914
-75.64036
-75.74297
-83.47041
-85.78779
-82.30301
-74.1981
-63.92928
-53.21224
-44.15773
-39.87532
-37.85609
-38.79661
-39.46678
-39.97386
-39.91094
-39.19071
-39.32635
-41.1892
-42.82221
-43.94126
-44.58701
-44.7924
-44.74865
-44.5103
-44.44169
-45.36408
-46.23857
-45.48657
-45.29139
-46.05587
-46.44009
-46.16631
-44.63209
-42.28419
-40.5769
-40.40071
-40.34364
-40.25876
-40.2568
-40.17932
-40.26903
-40.7715
-40.34558
-43.03501
-41.74767
-58.58237
-64.6445
-62.88647
-59.59596
-57.38261
-55.36559
-53.55033
-51.79561
-50.09146
-48.41553
-46.71187
-44.96452
-43.23477
-41.55006
-39.79516
-38.02483
-36.28841
-34.53353
-32.74283
-30.99248
-29.29037
-27.62881
-26.00318
-24.45701
-23.00113
-21.64665
-20.41802
-19.33132
-18.40021
-17.65154
-17.09851
-16.7695
-16.56405
-16.43707
-16.43829
-16.68495
-17.05839
-17.53909
-18.12325
-18.81767
-19.65114
-20.56642
-21.52192
-22.4911
-23.51378
-24.59814
-25.71965
-26.88392
-28.0807
-29.33076
-30.61409
-31.90575
-33.21781
-34.51687
-35.83176
-37.12996
-38.45136
-39.77715
-41.06439
-42.38655
-43.73862
-45.09309
-46.40688
-47.7046
-49.01955
-50.29655
-51.54528
-52.81763
-54.07272
-55.22957
-56.36086
-57.43878
-58.47059
-59.47906
-60.44222
-61.31774
-62.13434
-62.91749
-63.67933
-64.34864
-64.94697
-65.49777
-65.98527
-66.39448
-66.7478
-67.0535
-67.29003
-67.45969
-67.57082
-67.61937
-67.61666
-67.5686
-67.4745
-67.34304
-67.18693
-67.0226
-66.83124
-66.73978
-66.66597
-67.37639
-64.4892
-42.46147
-25.43286
-30.27885
-31.44114
-28.60706
-27.04525
-26.79798
-26.41704
-26.51469
-26.18966
-26.00269
-25.91448
-25.89894
-26.42288
-26.90045
-28.0205
-29.31046
-30.40029
-30.92651
-30.70049
-30.28713
-31.04428
-31.81081
-32.5059
-33.42835
-34.52642
-35.62029
-36.73561
-37.77682
-38.88144
-40.07331
-41.24749
-42.30375
-43.20216
-43.89809
-45.36318
-47.34487
-51.07047
-54.60433
-57.16623
-61.45501
-67.42923
-76.20127
-87.78176
-99.59402
-106.9923
-104.8632
-94.4783
-77.46127
-80.70048
-38.85317
-26.12721
-29.95209
-31.72486
-28.83232
-27.07389
-26.81421
-26.42785
-26.51261
-26.19538
-26.00879
-25.91808
-25.89037
-26.42706
-26.91046
-28.04555
-29.34167
-30.4439
-30.98634
-30.76418
-30.34267
-31.04484
-31.82903
-32.53543
-33.45126
-34.55076
-35.65036
-36.76597
-37.80532
-38.92035
-40.12328
-41.3014
-42.35296
-43.23501
-43.96313
-45.5157
-47.53662
-51.34116
-54.77298
-57.27114
-61.81171
-67.93952
-77.12014
-89.09215
-100.9304
-107.5943
-104.9237
-93.58502
-76.70717
-78.62301
-65.16937
-63.08999
-59.86874
-57.58751
-55.53607
-53.69965
-51.93118
-50.21285
-48.52907
-46.8279
-45.08051
-43.33516
-41.65204
-39.90682
-38.13285
-36.39659
-34.64977
-32.85645
-31.10015
-29.392
-27.72622
-26.09075
-24.53421
-23.07006
-21.70702
-20.47004
-19.37581
-18.43501
-17.67915
-17.11561
-16.78063
-16.5739
-16.44545
-16.4416
-16.68457
-17.05554
-17.53496
-18.11662
-18.80961
-19.64387
-20.55949
-21.51773
-22.48468
-23.50896
-24.59579
-25.71798
-26.88439
-28.08017
-29.33354
-30.61933
-31.91229
-33.22813
-34.52638
-35.84572
-37.14181
-38.46894
-39.7965
-41.07975
-42.40792
-43.76405
-45.12268
-46.43389
-47.73289
-49.0531
-50.32516
-51.5724
-52.85985
-54.10928
-55.26433
-56.39871
-57.46972
-58.50057
-59.51175
-60.47172
-61.34053
-62.15776
-62.94231
-63.70698
-64.375
-64.97435
-65.52797
-66.01381
-66.41883
-66.77257
-67.07855
-67.31029
-67.4759
-67.58309
-67.62639
-67.62071
-67.56752
-67.46495
-67.32457
-67.16197
-66.98917
-66.7979
-66.70552
-66.61571
-67.13196
-64.59903
-78.14775
-69.89221
-77.29518
-84.20198
-76.64597
-76.54697
-84.15403
-86.3976
-83.10764
-75.18512
-64.91577
-54.18634
-44.83655
-40.27514
-38.04657
-38.88588
-39.49921
-40.03748
-39.95945
-39.18792
-39.29323
-41.21496
-42.88152
-43.95986
-44.60957
-44.81379
-44.77367
-44.54391
-44.47127
-45.34516
-46.19029
-45.56237
-45.47971
-46.2064
-46.51539
-46.22637
-44.67985
-42.29695
-40.53838
-40.38999
-40.35045
-40.27285
-40.27511
-40.20434
-40.28772
-40.76406
-40.41063
-43.09755
-42.69211
-54.68619
-31.91159
-27.65063
-21.51329
-17.66821
-14.31341
-11.45897
-8.946456
-6.622426
-4.566477
-2.675452
-0.9186802
0.7022027
2.251539
3.73793
5.145141
6.468278
7.70789
8.921951
10.0926
11.22073
12.30798
13.35676
14.34622
15.33322
16.30403
17.26201
18.18767
19.06533
19.91914
20.7669
21.61125
22.44978
23.25162
24.02597
24.8081
25.57495
26.34486
27.10586
27.86467
28.60947
29.36198
30.08783
30.81332
31.52788
32.24249
32.94815
33.64452
34.34498
35.06428
35.78439
36.48736
37.18298
37.8786
38.60069
39.34051
40.06661
40.79559
41.54304
42.29309
43.05505
43.82369
44.59929
45.41186
46.30008
47.19075
48.07155
49.05391
50.09796
51.05629
51.89492
53.29114
56.29455
55.54408
54.46796
53.46866
52.50644
51.56963
50.62135
49.72015
48.92318
48.18432
47.39713
46.5938
45.80645
45.06707
44.35148
43.63992
42.91721
42.19507
41.50605
40.8252
40.13132
39.44347
38.76991
38.0811
37.41362
36.72856
36.01389
35.32435
34.65321
33.98242
33.29068
32.57761
31.88541
31.18454
30.45665
29.73907
29.02337
28.27743
27.5316
26.79133
26.04098
25.25049
24.42968
23.62033
22.82683
22.00115
21.14588
20.27612
19.37043
18.44062
17.49331
16.52099
15.55765
14.52128
13.43654
12.33298
11.16452
9.973163
8.688979
7.3275
5.911842
4.422449
2.784171
1.010289
-0.9594363
-3.092226
-5.478143
-8.321045
-11.47264
-16.48659
-19.49516
55.97917
55.54724
54.55479
53.56399
52.60767
51.68175
50.72624
49.81797
49.02053
48.28354
47.48883
46.68587
45.89299
45.1493
44.42897
43.71651
42.99029
42.26103
41.57047
40.88608
40.18735
39.4976
38.82347
38.12788
37.46362
36.77612
36.05375
35.36526
34.69204
34.01976
33.32221
32.61622
31.91694
31.21524
30.4828
29.76498
29.0472
28.2932
27.54664
26.80767
26.06042
25.26434
24.43563
23.62623
22.83818
22.00726
21.1497
20.28187
19.37129
18.43825
17.48683
16.51113
15.55751
14.5119
13.42351
12.31926
11.1417
9.957479
8.661058
7.29329
5.875373
4.387725
2.739395
0.9484668
-1.021835
-3.167629
-5.571041
-8.421429
-11.61585
-16.47871
-19.72392
-32.19674
-27.6471
-21.67746
-17.77364
-14.42863
-11.54891
-9.021827
-6.689379
-4.614825
-2.725746
-0.9568351
0.6674968
2.217041
3.71151
5.126689
6.457706
7.689883
8.907429
10.08237
11.21555
12.30444
13.35956
14.34458
15.33428
16.30587
17.26895
18.20109
19.07617
19.93018
20.78168
21.62737
22.46789
23.27279
24.04407
24.83054
25.59708
26.37138
27.13304
27.8948
28.65159
29.39818
30.12451
30.85348
31.57056
32.28839
32.99651
33.69332
34.39631
35.12176
35.84751
36.55039
37.24882
37.94588
38.6711
39.41869
40.14723
40.8801
41.63352
42.38505
43.14974
43.92478
44.70737
45.51841
46.41215
47.31358
48.19588
49.17786
50.19255
51.1473
52.07424
53.48401
-74.55001
-69.40916
-76.72934
-84.92594
-78.29041
-77.89353
-85.20663
-87.41419
-84.30939
-76.49
-66.1745
-55.47726
-45.6914
-40.86901
-38.42383
-39.06694
-39.55269
-40.13649
-40.06117
-39.2412
-39.31233
-41.28164
-42.97136
-43.99314
-44.6449
-44.83507
-44.81069
-44.59834
-44.51293
-45.21292
-45.95184
-45.59897
-45.72444
-46.38208
-46.59133
-46.31404
-44.77536
-42.33379
-40.48898
-40.3803
-40.36186
-40.29387
-40.30482
-40.24727
-40.33061
-40.73988
-40.55924
-43.20737
-43.32353
-51.55153
-65.68793
-63.50102
-60.26382
-57.90927
-55.83849
-53.98927
-52.21189
-50.47906
-48.79038
-47.08909
-45.33266
-43.55853
-41.87986
-40.12573
-38.32835
-36.57626
-34.82879
-33.02295
-31.2514
-29.53009
-27.85761
-26.20749
-24.63521
-23.15833
-21.78291
-20.53432
-19.43083
-18.47598
-17.71225
-17.1367
-16.79439
-16.58771
-16.45898
-16.4502
-16.68875
-17.05552
-17.53294
-18.11116
-18.80443
-19.64166
-20.55255
-21.51494
-22.48067
-23.50569
-24.59457
-25.71751
-26.88934
-28.08434
-29.33951
-30.62612
-31.92105
-33.2423
-34.53837
-35.86534
-37.15724
-38.49413
-39.82372
-41.10076
-42.43584
-43.79444
-45.16192
-46.47195
-47.77293
-49.10358
-50.37091
-51.61321
-52.91847
-54.16612
-55.32066
-56.46594
-57.53136
-58.56379
-59.58431
-60.54954
-61.41154
-62.22884
-63.01938
-63.79916
-64.45165
-65.04666
-65.593
-66.06979
-66.46515
-66.81857
-67.12364
-67.34719
-67.50662
-67.60731
-67.64235
-67.63222
-67.57084
-67.45634
-67.30476
-67.13405
-66.95011
-66.75446
-66.64656
-66.53113
-66.87079
-64.53724
-35.98978
-26.6166
-29.78338
-32.18018
-29.10296
-27.10628
-26.84652
-26.44588
-26.50697
-26.20155
-26.01479
-25.9221
-25.87587
-26.43905
-26.94137
-28.09369
-29.39475
-30.5085
-31.06888
-30.86152
-30.4427
-31.03558
-31.85725
-32.58201
-33.47702
-34.5804
-35.68729
-36.80992
-37.85368
-38.97024
-40.18594
-41.37232
-42.4217
-43.30098
-44.05865
-45.72169
-47.76283
-51.63047
-54.94403
-57.36708
-62.23902
-68.58547
-78.35188
-90.81886
-102.7144
-108.8973
-105.1123
-92.49348
-76.25
-76.83605
-33.35175
-26.89357
-29.94388
-32.68339
-29.59663
-27.08635
-26.87628
-26.4873
-26.50575
-26.20334
-26.01739
-25.92743
-25.84965
-26.45597
-27.01696
-28.1824
-29.48007
-30.5973
-31.17355
-30.99135
-30.58316
-31.0345
-31.90446
-32.64979
-33.48583
-34.61087
-35.73333
-36.8639
-37.86344
-39.02115
-40.25949
-41.46055
-42.51167
-43.36902
-44.20848
-45.97192
-48.11913
-51.93154
-55.00592
-57.47416
-62.67682
-69.63859
-80.40201
-93.38785
-105.2055
-110.5169
-105.369
-91.50801
-76.28536
-75.90509
-66.20915
-63.77159
-60.63233
-58.20162
-56.09426
-54.22478
-52.4394
-50.68612
-48.98432
-47.28571
-45.54736
-43.72318
-42.04803
-40.32696
-38.50682
-36.74752
-35.02933
-33.21183
-31.42694
-29.69084
-28.01589
-26.34471
-24.75071
-23.26061
-21.87554
-20.61419
-19.50225
-18.52877
-17.7613
-17.1702
-16.81617
-16.60995
-16.4817
-16.47093
-16.69989
-17.0571
-17.52512
-18.10827
-18.7904
-19.65022
-20.55818
-21.50966
-22.48045
-23.51013
-24.59597
-25.71878
-26.89366
-28.09893
-29.36094
-30.64027
-31.93738
-33.26573
-34.55432
-35.89322
-37.17486
-38.53144
-39.85839
-41.13386
-42.48386
-43.8343
-45.20446
-46.51694
-47.82358
-49.15888
-50.43169
-51.67483
-52.97964
-54.22217
-55.38051
-56.53379
-57.59107
-58.62539
-59.64486
-60.61093
-61.46608
-62.27979
-63.06293
-63.85291
-64.48272
-65.07706
-65.63039
-66.11988
-66.50418
-66.85959
-67.1642
-67.37895
-67.53482
-67.62855
-67.65385
-67.64117
-67.57065
-67.44185
-67.27826
-67.09935
-66.90074
-66.69362
-66.5586
-66.40949
-66.56786
-64.49718
-71.30542
-68.89127
-75.17857
-84.91412
-80.53044
-79.91833
-86.66741
-88.80039
-85.93757
-78.30028
-68.01818
-57.53373
-46.8357
-41.66226
-39.16634
-39.44721
-39.66592
-40.27041
-40.22567
-39.3913
-39.42268
-41.41426
-43.09671
-44.05102
-44.71553
-44.90739
-44.87139
-44.67431
-44.5585
-44.95363
-45.52614
-45.54836
-45.9687
-46.5793
-46.68103
-46.46984
-44.96903
-42.43041
-40.49645
-40.37149
-40.35286
-40.31852
-40.35842
-40.31828
-40.39403
-40.66532
-40.58418
-43.30871
-43.52912
-48.59318
-32.47148
-27.56264
-21.81476
-17.86351
-14.56213
-11.63914
-9.090922
-6.755637
-4.674884
-2.78511
-0.9894147
0.6292234
2.1744
3.686665
5.107026
6.43704
7.658704
8.891642
10.07347
11.2141
12.29831
13.35651
14.33921
15.33016
16.30259
17.278
18.20657
19.07691
19.93789
20.78953
21.62605
22.46896
23.28866
24.05265
24.84377
25.60811
26.38949
27.15333
27.9157
28.66765
29.41301
30.14327
30.87906
31.59734
32.31413
33.0209
33.72355
34.43042
35.15489
35.87863
36.58205
37.28735
37.98527
38.71232
39.46721
40.20146
40.93264
41.687
42.44306
43.21713
43.99919
44.78944
45.59276
46.50085
47.43258
48.31905
49.30184
50.28272
51.25146
52.2752
53.60855
55.55744
55.4461
54.61187
53.66483
52.72122
51.80659
50.82829
49.90284
49.10412
48.37237
47.55663
46.75018
45.95123
45.21092
44.4824
43.7659
43.03787
42.30621
41.62014
40.93001
40.22405
39.53379
38.8596
38.15421
37.49755
36.80018
36.07048
35.38542
34.71345
34.04542
33.33862
32.61742
31.92916
31.22509
30.48851
29.7803
29.0672
28.30418
27.55569
26.81155
26.0696
25.27555
24.43945
23.62149
22.84173
22.00915
21.14538
20.28026
19.36915
18.43627
17.4787
16.48879
15.54858
14.4919
13.41028
12.30526
11.10898
9.941961
8.628336
7.261301
5.832653
4.346952
2.692411
0.8883719
-1.08306
-3.242159
-5.664659
-8.515612
-11.7354
-16.40197
-19.94017
55.07613
55.21751
54.60242
53.75579
52.86643
52.00621
50.99518
50.03287
49.24887
48.55467
47.73389
46.89674
46.05693
45.32487
44.61372
43.88189
43.12176
42.37297
41.70986
41.01904
40.29683
39.6115
38.94335
38.20951
37.60486
36.87441
36.11915
35.44638
34.75009
34.10511
33.3881
32.69248
32.00842
31.27679
30.49913
29.79474
29.08902
28.3281
27.59685
26.8448
26.07117
25.27837
24.46985
23.64332
22.844
22.02435
21.15908
20.26664
19.3575
18.43646
17.49923
16.49552
15.54474
14.44502
13.38679
12.30445
11.05898
9.922375
8.561817
7.233662
5.798424
4.262715
2.601594
0.7901624
-1.181468
-3.357607
-5.814453
-8.672883
-11.92285
-16.31161
-20.13931
-32.67648
-27.52275
-22.05114
-18.02625
-14.78457
-11.72265
-9.192334
-6.879772
-4.789468
-2.836593
-1.013365
0.5587963
2.120397
3.665472
5.058922
6.389605
7.649669
8.904612
10.06773
11.20881
12.26742
13.33892
14.35312
15.31216
16.31247
17.2932
18.18564
19.09945
19.96723
20.79314
21.62163
22.51239
23.35925
24.07422
24.87919
25.63952
26.43637
27.19661
27.95176
28.69926
29.47167
30.21379
30.94401
31.65842
32.3648
33.09497
33.81256
34.49834
35.2074
35.96707
36.69611
37.39178
38.0877
38.80126
39.58439
40.33536
41.02846
41.81884
42.60088
43.36075
44.13996
44.93533
45.72765
46.68026
47.66858
48.50449
49.44744
50.37076
51.37925
52.46357
53.60715
-68.78415
-66.12577
-72.21797
-83.06786
-82.24134
-82.30587
-88.59306
-90.69859
-88.20544
-80.88447
-70.77196
-60.5273
-48.98763
-42.6591
-40.1754
-40.1384
-39.94391
-40.52799
-40.49584
-39.70177
-39.67215
-41.65459
-43.29142
-44.14533
-44.81024
-44.96478
-44.90058
-44.75174
-44.59779
-44.64507
-45.05408
-45.44848
-46.19245
-46.78308
-46.75234
-46.65507
-45.19796
-42.61431
-40.63335
-40.38079
-40.30618
-40.33152
-40.42027
-40.36335
-40.36734
-40.88595
-39.89678
-42.81174
-43.0642
-45.86534
-66.95398
-64.32015
-61.15023
-58.7031
-56.56199
-54.67804
-52.87759
-51.08214
-49.36293
-47.66818
-45.94295
-44.00724
-42.41929
-40.64577
-38.81204
-37.04896
-35.34034
-33.46789
-31.67926
-29.9322
-28.25692
-26.56029
-24.94396
-23.43795
-22.02728
-20.73621
-19.60583
-18.61336
-17.84533
-17.22035
-16.85134
-16.64125
-16.5154
-16.50806
-16.7215
-17.06777
-17.52018
-18.11273
-18.7473
-19.64912
-20.59893
-21.49513
-22.45889
-23.52604
-24.60085
-25.71847
-26.85974
-28.07747
-29.3979
-30.66514
-31.959
-33.31006
-34.57262
-35.93439
-37.17706
-38.57754
-39.87495
-41.1489
-42.57609
-43.92374
-45.27153
-46.55601
-47.9172
-49.19865
-50.47128
-51.80385
-53.11665
-54.28961
-55.49488
-56.63509
-57.66331
-58.75011
-59.76473
-60.70505
-61.53982
-62.4015
-63.18534
-63.97575
-64.57619
-65.19875
-65.73996
-66.20878
-66.57838
-66.94676
-67.23688
-67.4289
-67.58435
-67.66705
-67.67549
-67.65608
-67.57075
-67.41975
-67.2386
-67.04977
-66.83065
-66.59974
-66.42611
-66.25108
-66.24622
-64.66341
-31.02864
-26.77818
-30.57458
-33.69468
-30.6829
-26.90158
-26.88159
-26.54191
-26.51258
-26.20608
-26.021
-25.93702
-25.82801
-26.47834
-27.09512
-28.27796
-29.56083
-30.68977
-31.28928
-31.14437
-30.71923
-30.94082
-31.90387
-32.6782
-33.57222
-34.64494
-35.79085
-36.92953
-38.00282
-39.11741
-40.37497
-41.58462
-42.61186
-43.51284
-44.46035
-46.25634
-48.74308
-52.24171
-55.03791
-57.73248
-63.26596
-71.39572
-83.69787
-97.29502
-108.8217
-112.7834
-105.3801
-90.59884
-76.73825
-75.79305
-0.03011216
-0.005433493
-4.147803
3.534268
0.6900082
-0.2615096
0.03456253
3.440431
-0.1539299
0.09623643
1.474976
0.7817385
-0.0103479
12.73511
0.05873666
4.543804
8.037238
-14.90031
2.944886
9.147447
-0.5325957
2.905807
0.0544286
2.713103
-0.07586295
4.119642
2.578002
1.173575
2.897683
-0.4751576
1.030789
-0.8030153
-113.1438
-0.02818238
4.015586
0.1358321
0.07173521
5.767661
0.03285442
4.302874
5.845105
-0.005209235
1.220648
0.6606305
0.1375733
5.658473
0.002325457
-0.00688262
-0.004483131
6.330991
-3.506701
-0.04117357
-1.399949
-0.08463498
4.07221
0.08937753
-3.358508
-0.734361
-10.3892
-0.005694041
0.1494267
2.363912
-0.1838404
0.6505885
6.788463
-0.01232692
-0.1567158
2.612739
23.27515
-0.5805005
1.112974
0.1209072
4.477259
1.50245
1.911408
2.089136
1.281217
0.6707627
-0.01246852
2.6778
0.3943339
0.2585942
0.2883066
-0.1805943
0.2215302
0.02567908
8.872199
0.05683154
-0.5120017
-1.214025
6.412851
7.051301
4.544389
1.389097
0.4601622
-1.957021
4.830414
3.319172
-91.87868
0.4148301
-0.2577363
14.99775
8.980679
0.2395631
-2.211801
3.439506
0.1428597
4.321014
-0.02772615
3.601804
0.08118535
-89.83884
0.04501182
-0.5073514
-2.937105
0.01805461
-0.2144152
-18.04891
-6.497444
0.3835922
-0.7088896
-0.9715001
-0.4516408
0.06743381
2.794657
-0.08630314
-0.001737938
0.09864463
0.695588
0.1077584
13.09005
7.378864
3.472818
-0.2749452
0.05922972
0.02040924
-3.756041
-121.6262
-13.84366
5.659256
3.531925
6.670073
3.90692
-6.068904
-0.02300018
0.3661457
3.86744
-0.7648633
-0.001687767
6.750873
1.241084
0.1178964
-0.4883946
3.285679
11.26636
2.973167
0.01562223
-0.7053484
0.003112154
-0.5735014
1.103007
3.456952
-2.79554
0.02937836
7.212308
0.0180676
-0.339445
5.847032
-0.1349719
1.782099
0.1441392
0.2991095
0.04445943
-4.292452
-0.5598054
0.002568238
-0.6272642
-0.3429194
-0.223783
3.52069
-0.1997187
4.431863
-8.458199
-0.1064816
-0.8510127
-3.394993
4.900122
4.451788
7.580447
-0.0238761
-4.299239
0.07817614
0.7229789
0.07450645
6.894876
-0.7199886
-0.3903366
0.5303281
-11.20296
-0.7214258
8.449248
-0.7637408
-0.758992
9.632968
-0.7413225
-0.4218094
0.0181546
-5.546195
-9.614352
-0.2861892
0.02951566
0.827085
0.03288901
4.223975
0.008622529
0.060141
-1.257712
-0.3381658
1.829295
1.308664
-6.374533
-5.183368
2.889625
0.1423955
22.73942
2.827049
1.747811
0.09841846
-2.077544
-10.68727
-0.01520156
-0.05160174
-7.190051
4.206639
1.636093
8.082034
2.398006
2.741239
3.953391
0.06825082
-2.083586
0.271009
0.01625667
-0.05514613
0.1893869
0.9866963
-1.120791
-2.090528
-0.675765
2.752253
2.75642
-76.26354
7.745643
-1.103634
0.02039182
15.35005
-0.2071194
1.733063
-0.4251037
-1.557409
2.559627
0.4274876
0.6621693
0.7013078
4.607898
0.6360271
0.1083302
0.8235974
3.070775
0.07630071
-0.8258349
0.05982595
-0.3596455
0.02247294
7.187315
4.785594
4.208662
0.09525576
1.679361
0.1044662
-1.200322
-39.67673
1.967762
-0.2075595
7.678406
-0.0162975
-2.986635
4.630378
5.092232
0.5259288
1.273329
0.03922766
-40.67469
3.465207
6.180977
3.991732
-0.001776362
6.787659
2.865653