/*--------------------------------*- C++ -*----------------------------------*\
| =========                 |                                                 |
| \\      /  F ield         | OpenFOAM: The Open Source CFD Toolbox           |
|  \\    /   O peration     | Version:  2406                                  |
|   \\  /    A nd           | Website:  www.openfoam.com                      |
|    \\/     M anipulation  |                                                 |
\*---------------------------------------------------------------------------*/
FoamFile
{
    version     2.0;
    format      ascii;
    arch        "LSB;label=32;scalar=64";
    class       volScalarField;
    location    "0.04";
    object      p;
}
// * * * * * * * * * * * * * * * * * * * * * * * * * * * * * * * * * * * * * //

dimensions      [0 2 -2 0 0 0 0];

internalField   nonuniform List<scalar> 
4529
(
-3.830025e-07
-9.37514e-08
2.409002e-07
1.240945e-07
-9.10448e-07
-4.969398e-08
-1.675557e-06
1.482738e-07
-1.121211e-06
-2.360234e-08
-5.741243e-07
-4.052769e-08
-5.049576e-08
-5.864428e-08
-1.660294e-07
-3.278861e-07
2.657453e-07
-1.347633e-06
-3.128396e-07
6.697539e-07
-1.063492e-06
-3.20291e-07
-6.154485e-07
-3.857765e-07
-1.066845e-07
2.813465e-07
2.016406e-09
-6.668892e-07
1.035723e-07
-5.234266e-08
-6.92393e-07
-4.054631e-07
3.692086e-08
5.378382e-08
-3.56424e-07
-1.12425e-06
-5.650733e-08
-1.944512e-07
2.350318e-08
6.253573e-08
-1.938441e-08
-7.510588e-08
-2.244817e-07
-4.610026e-07
-6.898086e-08
-2.975289e-08
-2.23965e-07
-2.277658e-07
-4.251246e-07
-1.219488e-06
-1.973793e-07
-2.035614e-08
-2.679656e-07
1.824481e-07
1.670289e-07
5.828511e-07
-1.944317e-08
-5.734572e-07
-8.337205e-07
-7.696529e-07
1.626721e-07
-2.060555e-07
-1.532302e-06
-5.37194e-07
2.425884e-08
-2.138832e-07
4.86061e-08
-1.12903e-07
-1.73191e-07
-1.173102e-06
-6.90247e-07
3.459212e-08
-2.109691e-07
5.170449e-08
-3.166072e-07
7.51843e-08
7.207338e-08
-2.260424e-07
-1.984322e-07
2.665429e-07
-7.116031e-07
5.952043e-08
-7.772422e-07
-2.160328e-08
-9.996836e-07
-1.54119e-06
-6.330938e-07
-5.485939e-07
6.910012e-08
1.118791e-07
-2.519299e-07
-5.778409e-07
-2.211583e-07
-2.940796e-07
-1.052054e-06
-1.95904e-06
-1.250743e-06
-8.933349e-07
-3.532355e-07
-5.554064e-07
-2.31873e-07
-1.123117e-07
2.106096e-08
-7.864444e-07
-5.802679e-07
-9.118025e-08
-2.392358e-07
1.11489e-07
-2.092592e-07
-5.282067e-07
1.672518e-08
-2.832441e-07
-1.402667e-06
-5.979322e-07
2.52206e-07
-4.950179e-08
-2.803563e-07
-4.916162e-07
-1.399639e-06
-1.523117e-07
-1.025538e-07
2.170668e-08
-5.110475e-08
-2.46891e-07
1.116969e-07
-1.607332e-06
-2.953577e-08
-4.681957e-08
-5.478813e-08
-1.255003e-07
-6.720412e-08
-2.629473e-07
-2.271306e-07
-5.746686e-07
-7.275652e-07
4.925188e-08
-3.255951e-08
-1.519263e-06
-1.12248e-07
4.63605e-08
2.745779e-08
3.434799e-08
-6.626631e-07
9.972841e-08
2.415557e-08
4.233378e-07
-1.006953e-06
-1.355311e-06
-1.931302e-07
-1.410041e-06
-4.119651e-09
-1.177768e-07
6.555721e-08
-1.374577e-07
-1.541952e-06
-1.027064e-06
2.836904e-08
-7.619599e-08
3.475362e-07
9.155556e-09
-1.467525e-09
-4.892793e-08
-4.654337e-07
-2.678938e-07
-1.073786e-07
-4.621621e-07
-1.359526e-06
3.040805e-07
-7.73412e-07
1.922459e-07
-5.42715e-08
-6.336282e-07
-1.831876e-06
-8.805941e-08
-4.782019e-07
-7.8834e-07
1.094405e-07
-2.85583e-07
-9.737964e-08
-1.391185e-06
-2.337066e-08
-3.737953e-07
-2.882849e-07
1.517933e-07
-2.17994e-07
4.177881e-07
5.390583e-07
-2.362602e-07
-1.929038e-07
-1.26354e-06
-1.603066e-07
-2.018133e-07
1.080932e-07
-3.33796e-07
-3.4599e-07
-2.774865e-07
-6.625088e-07
9.013281e-09
-2.275218e-07
-3.369162e-07
-2.096044e-07
-2.185012e-07
-2.11167e-07
-4.478662e-07
2.133627e-07
-3.438301e-07
-2.647851e-07
-1.628892e-07
7.670929e-08
-1.660798e-06
-1.500374e-06
-8.480576e-08
-4.154575e-07
-9.798859e-07
-9.97164e-08
-9.957082e-08
-1.325208e-06
-6.286543e-07
-1.65574e-06
-1.024543e-06
-4.90876e-09
-8.607784e-07
-1.006682e-07
2.091421e-07
-8.465139e-07
-5.494106e-07
-4.301289e-07
-6.209395e-07
-2.444738e-07
-3.036859e-07
-1.769884e-06
-2.05462e-07
8.191039e-08
-5.248762e-07
-1.774784e-07
-1.578782e-07
1.775776e-08
-1.078212e-07
-4.59196e-07
-5.342948e-08
2.090026e-08
-5.526818e-07
-8.796169e-10
-5.281329e-07
-5.398027e-07
-6.203771e-07
-4.436877e-07
-1.705757e-06
-1.155235e-07
-1.220276e-07
-2.842216e-07
-2.688177e-07
-1.331127e-06
7.000284e-08
-7.420263e-07
2.568964e-08
-1.774775e-08
-1.546247e-07
-5.659124e-08
-9.373856e-07
-3.499571e-07
-1.697056e-07
-6.298062e-07
8.851886e-09
8.069187e-08
1.083253e-08
-8.429946e-09
-2.367522e-07
-2.178109e-07
-6.395459e-08
-7.484586e-07
-6.205045e-07
-1.488879e-07
-4.919947e-07
8.206456e-08
-9.811909e-07
-4.108876e-07
-2.587847e-08
-4.615504e-07
1.253725e-07
1.117426e-07
6.769363e-08
8.041177e-08
-8.650652e-09
3.101059e-07
-1.025755e-06
-4.445147e-08
-3.505838e-07
-4.319698e-07
8.594717e-07
-1.283632e-06
1.153805e-06
-6.21403e-08
1.466131e-07
-3.948183e-08
-4.325288e-07
-3.658085e-07
-1.656197e-08
-1.550962e-06
-1.298672e-06
-3.03634e-08
-6.372981e-07
-6.624076e-07
-6.495437e-07
-4.11186e-07
6.981332e-07
-9.500751e-08
-1.73565e-06
-7.498604e-07
-1.505425e-07
2.713584e-07
-9.576339e-08
-1.140229e-06
-3.736404e-07
-3.615138e-07
-8.270847e-08
-1.611744e-09
-7.830376e-07
-1.080021e-06
2.460768e-07
-4.20202e-08
1.345932e-07
-1.991641e-07
-2.119186e-07
-6.851859e-08
-1.640008e-08
-6.782654e-07
-2.165037e-07
-2.113593e-07
-3.11092e-07
-3.199629e-07
2.648339e-08
-3.243541e-08
-5.004957e-07
-2.014889e-08
-4.917204e-08
1.350857e-07
-1.403176e-07
-4.104496e-07
-3.210452e-08
-1.012462e-07
-1.722868e-06
-1.34648e-06
-3.092765e-07
-4.640477e-07
-2.232612e-07
-3.293123e-08
-4.844203e-08
-1.209797e-06
1.321023e-07
1.178304e-07
9.579315e-08
-1.812927e-06
-8.751625e-08
1.546028e-08
1.14527e-06
-3.806942e-08
-1.358052e-07
8.26893e-08
-1.66072e-07
1.795779e-07
-5.631575e-07
-3.368852e-07
-1.043325e-06
-7.153301e-07
-1.337477e-07
-9.034485e-08
-3.816173e-07
1.49856e-07
-1.075324e-06
-3.679971e-07
-1.067072e-06
-3.459223e-07
1.790271e-07
2.655723e-07
-8.018416e-07
-5.111473e-07
1.358075e-07
9.982551e-08
-2.131074e-07
-2.694131e-07
9.822291e-07
1.522864e-07
-1.356987e-08
-1.588315e-07
-2.67292e-08
2.210331e-09
-1.564093e-07
-6.783347e-07
2.496751e-07
-1.061959e-06
-2.257888e-07
-3.098939e-07
3.44426e-08
3.11306e-07
-1.203916e-07
4.443445e-07
-1.172273e-07
-6.572463e-08
-1.046958e-08
-1.233488e-07
7.466906e-11
-2.205464e-07
-1.33391e-07
-1.686047e-06
2.759487e-07
7.110881e-09
-3.217305e-07
8.883336e-08
-6.928184e-07
-1.249913e-07
-4.393664e-07
-9.231236e-07
3.110239e-07
-2.451782e-07
-1.085487e-07
8.832448e-08
-8.679982e-08
1.267229e-06
-1.490696e-07
-1.185165e-07
-6.758496e-08
-3.449864e-08
5.427932e-08
-8.677145e-08
3.23127e-07
-1.590418e-06
4.531845e-07
-1.388264e-06
-1.365532e-06
-1.133312e-07
-8.077867e-07
1.304604e-08
-6.693219e-07
1.544386e-07
-6.840843e-08
-7.496869e-07
-2.190727e-07
-2.362376e-07
1.150985e-07
4.553246e-08
-3.949472e-08
-6.506063e-08
-3.98775e-08
-3.607552e-07
-2.3515e-08
-1.143635e-06
-1.074764e-06
-4.363057e-08
-1.363365e-07
-2.048734e-07
-2.347477e-07
-1.110965e-07
-1.407677e-07
-9.077945e-08
-2.962505e-07
-2.567663e-07
-1.327054e-07
-1.193086e-07
-2.829496e-07
-6.133873e-08
-2.180943e-07
-2.080816e-07
-1.139755e-07
-7.989604e-07
-3.112357e-07
-1.283546e-06
1.846512e-07
-2.671011e-08
9.032772e-08
-2.411455e-07
-2.55332e-08
-2.584052e-08
2.653235e-07
-3.330203e-07
-9.619589e-07
-1.183418e-06
-1.337595e-06
8.225365e-08
2.157012e-07
-3.266169e-07
6.051399e-08
6.921237e-08
-6.880247e-07
3.380919e-08
-1.489841e-06
-2.568673e-07
-1.720781e-07
-1.610781e-06
-3.72653e-08
-1.082448e-07
1.413855e-07
1.091677e-07
-4.38164e-07
-5.819661e-07
-8.102934e-07
-8.721226e-07
-1.084593e-06
3.3152e-08
3.202855e-08
-2.488037e-07
-1.405027e-06
-1.010618e-07
-7.597521e-09
-9.316155e-09
9.007389e-08
-2.090789e-07
-1.905652e-07
-3.398393e-08
-1.405012e-06
-2.969725e-07
-1.176884e-07
-1.834084e-07
-4.855766e-07
-4.123369e-07
-9.775252e-07
-2.407897e-07
-1.457805e-07
-2.248986e-07
-7.507278e-07
9.961637e-07
-8.982852e-07
-3.368513e-07
1.372017e-06
2.887669e-07
1.229725e-07
2.646315e-07
-4.358751e-07
-4.216304e-07
-3.825411e-07
-9.000528e-07
-1.010672e-06
-9.471838e-07
-1.123566e-07
-5.384932e-08
8.021031e-08
-1.128946e-08
-8.546797e-08
-1.212765e-07
-6.875917e-08
6.027987e-08
-1.437086e-07
-2.807991e-07
-5.517354e-08
5.411567e-08
2.800395e-07
-7.273539e-08
-2.722923e-07
-8.827499e-07
-4.802734e-07
-3.940564e-07
-4.450597e-07
-3.797585e-07
-3.576134e-07
1.488086e-07
1.296984e-07
-5.158705e-07
-1.441232e-06
-6.549405e-07
-5.680863e-07
-2.744292e-08
-8.289675e-08
-3.464812e-07
-6.683629e-07
-5.943738e-08
-3.624388e-07
-3.218068e-07
-3.036229e-07
-2.431867e-07
6.579891e-08
-3.337175e-07
-3.212773e-07
-7.829255e-08
-9.495925e-07
2.240325e-07
-4.841319e-07
-1.756755e-07
-1.467249e-06
7.664212e-07
-3.249229e-07
-7.383886e-08
-3.307238e-08
-8.862979e-07
-2.013304e-07
-8.071347e-07
-6.813615e-09
4.339396e-08
3.487395e-08
-1.251387e-06
-1.455214e-07
-2.260719e-08
2.601404e-08
-4.198902e-08
-1.130048e-07
-1.378958e-07
-1.383797e-07
2.277716e-07
1.742942e-07
3.956295e-07
-1.19097e-06
-1.085591e-06
-2.505195e-08
4.829921e-07
-4.768909e-07
2.244685e-07
4.011411e-09
2.223649e-08
3.316542e-07
-1.905192e-07
2.43953e-07
-2.036307e-07
4.179002e-07
-1.740723e-06
-5.525658e-07
6.368413e-08
-7.941025e-07
-8.821075e-09
-2.273522e-08
-1.476363e-07
8.091069e-07
-9.470592e-08
-1.136039e-06
-6.860405e-07
-4.461235e-07
-5.695905e-07
-4.386031e-07
-3.510714e-07
5.360584e-07
5.372605e-08
-2.942697e-07
6.63477e-07
-9.581551e-08
-4.272696e-07
-2.298007e-07
7.253004e-08
-1.547898e-07
-8.386165e-08
-1.741234e-07
-3.512706e-07
-1.982322e-07
-2.455301e-07
1.382551e-07
2.210028e-07
9.571782e-07
-8.888732e-07
1.076406e-07
-1.649117e-07
-9.516114e-07
1.054075e-07
7.619731e-08
2.019223e-07
-9.309796e-07
-4.592615e-07
-4.077135e-07
-4.41086e-07
-9.265999e-07
-8.846018e-08
2.136901e-08
2.063544e-08
-8.062931e-07
-8.948544e-07
-3.017985e-07
-8.913385e-07
-8.911745e-07
-8.600862e-07
5.801463e-08
-1.647975e-06
1.87798e-07
-1.470125e-07
-8.068722e-08
-1.491418e-07
-1.081372e-06
-4.645594e-07
4.989453e-08
-9.256309e-08
1.667743e-07
3.609773e-09
6.632772e-08
6.158266e-08
4.557846e-08
-9.241943e-07
-1.560151e-07
-4.736768e-07
-1.763882e-07
-1.690383e-07
-1.504192e-07
-4.481219e-07
-1.404648e-08
7.583007e-08
-1.208704e-06
1.239692e-07
2.640042e-07
1.001629e-07
7.401109e-08
1.278142e-07
-2.757644e-07
2.366608e-08
-1.79815e-07
-4.455743e-07
-1.788203e-07
-3.883915e-07
-2.166706e-07
-5.59315e-07
-1.182815e-07
-5.480743e-07
4.000371e-07
-2.635803e-07
-4.444672e-07
1.57009e-08
-7.666939e-07
-5.614709e-07
-5.059136e-07
-2.705765e-07
-2.694709e-07
-6.215262e-07
-6.185223e-07
-3.133508e-07
-1.169142e-07
-6.827107e-08
-5.191933e-07
-3.917666e-07
-9.305034e-08
-3.07654e-07
-1.276499e-06
-3.966864e-07
-1.507554e-06
-2.745028e-07
-1.078852e-08
1.85155e-08
-1.041077e-07
-1.548671e-07
-1.331246e-07
-1.42016e-07
-1.619825e-07
6.885133e-07
-7.749236e-07
-3.157342e-07
-1.117717e-06
1.686097e-07
4.738377e-08
1.021694e-07
1.013374e-07
-1.431997e-07
-1.716615e-07
2.899574e-07
2.391711e-07
-1.126674e-07
1.44035e-08
-7.168315e-07
-7.820771e-07
-7.081842e-07
2.801102e-08
1.863777e-07
-4.3336e-09
3.231652e-09
5.136862e-08
-8.889963e-08
-1.217853e-07
-7.773478e-08
-1.044486e-07
-1.687153e-07
1.162934e-07
-4.989832e-07
-6.25428e-09
8.041796e-08
-9.577461e-07
-5.217153e-07
-3.993354e-07
2.585784e-08
4.549527e-08
2.93798e-08
1.672141e-07
-2.963572e-08
-1.622011e-08
-6.731458e-08
-1.131892e-07
3.222429e-07
-7.01655e-07
-8.369195e-07
-1.587493e-06
-1.305145e-06
-1.705427e-07
-5.868169e-07
-6.634345e-07
-5.793763e-07
-4.355962e-07
-1.434808e-06
-1.060746e-06
-1.414381e-06
-1.264692e-06
-1.521743e-06
-1.816034e-06
-7.525712e-07
-7.820906e-07
-8.092713e-07
-6.778871e-07
-5.419702e-08
-5.957314e-08
-5.086714e-08
-1.114626e-07
-1.076056e-08
-1.124007e-06
-1.088463e-06
-5.503279e-08
-1.011988e-07
-6.403932e-08
-1.073692e-07
-7.15947e-07
-4.541285e-08
-5.325274e-08
-1.986795e-08
-2.155479e-07
1.202714e-08
-7.890682e-07
-5.862405e-07
-8.718341e-08
-7.176615e-08
-7.109106e-07
-7.262272e-07
-5.421221e-07
-6.110702e-07
-5.07253e-07
1.902144e-07
6.614263e-08
-5.152053e-07
-3.255499e-07
3.932809e-07
-4.20901e-07
-6.797444e-08
1.251913e-07
-4.094964e-07
6.162638e-07
-1.247276e-08
-3.767701e-08
-1.634896e-06
4.781534e-08
1.200759e-07
-5.678169e-08
5.126927e-07
3.946901e-08
-5.717429e-07
5.540791e-08
-1.494893e-06
-7.773354e-08
-8.842455e-08
6.756183e-07
-1.548365e-07
-2.129126e-07
-3.52927e-07
-4.230512e-07
-6.880704e-07
-6.457441e-07
-1.823679e-09
-6.892618e-07
-3.642965e-07
-1.521941e-06
7.782122e-08
-1.137785e-07
-2.105595e-07
-9.94334e-07
-7.027622e-07
-6.874115e-07
-8.639481e-07
-8.013303e-08
-6.193265e-09
-3.352142e-09
-1.085425e-06
3.643967e-07
5.472378e-08
1.700375e-07
-4.005505e-07
-4.664816e-07
-8.461918e-07
-7.517253e-08
-1.225589e-06
-9.466608e-07
-2.535063e-07
-1.810314e-06
-6.786862e-07
-7.348187e-07
8.040584e-08
-8.022961e-07
-1.436234e-06
-5.799452e-07
2.71777e-09
-2.652028e-07
7.931954e-08
-2.973286e-07
-7.199672e-07
-5.769787e-07
-6.091632e-07
-6.152692e-07
-6.92598e-08
-7.09833e-07
-4.771988e-07
1.886001e-08
-5.451882e-07
5.048317e-08
-5.642615e-07
-6.761919e-08
-3.51539e-07
2.074295e-08
-1.61122e-07
-1.750499e-07
-2.401652e-07
9.577423e-08
-3.0689e-08
-1.942438e-07
-1.288089e-06
1.274901e-07
-3.612393e-07
-7.711862e-08
-3.98526e-07
-4.312362e-07
-8.529208e-07
4.193326e-07
-1.261836e-07
-1.303861e-07
-1.767401e-07
-1.455502e-07
-1.25884e-06
5.500337e-09
-3.108809e-08
7.607069e-09
2.469898e-08
-4.676007e-07
-2.074438e-07
-2.834884e-07
-6.511578e-07
2.750998e-08
1.929255e-07
-8.126413e-07
-8.918518e-07
-1.865124e-07
-1.41572e-07
-1.524928e-07
-1.27028e-07
-1.719221e-07
-7.879496e-07
-1.494935e-06
-2.379649e-07
-3.29382e-08
-4.19472e-08
3.735656e-08
-9.117994e-07
-1.045737e-06
-8.959312e-07
-9.696935e-07
-1.167836e-06
-1.148919e-06
-6.544573e-07
-1.117129e-06
-9.887116e-07
-1.22537e-06
-8.448606e-07
-2.195852e-07
-1.482487e-07
-1.919012e-07
5.749734e-07
3.564453e-07
-6.33069e-07
-6.045257e-07
-3.567393e-07
-1.044022e-06
1.555447e-07
-5.544293e-07
-5.095607e-07
-4.60281e-07
-1.364815e-06
-7.380816e-07
3.330095e-09
7.469104e-09
2.76694e-09
-2.486847e-08
8.985196e-08
-1.088777e-07
1.921324e-07
-5.896762e-07
-5.175618e-08
-4.638208e-08
-8.775423e-09
-9.508372e-09
-5.639734e-08
-1.453821e-07
-2.173356e-07
-1.091233e-07
-1.386817e-07
-2.703183e-08
-2.825143e-08
-8.262599e-08
-9.201327e-07
-7.599863e-07
-4.868572e-07
-5.334222e-07
-2.169225e-07
3.952001e-07
3.209894e-07
-1.70542e-06
3.2274e-08
-2.469282e-07
-5.442312e-07
-5.68635e-07
-3.086423e-07
-4.032527e-07
-3.207343e-07
6.069287e-08
-8.778375e-08
-8.328363e-07
-2.90047e-07
-2.964459e-07
-3.651396e-07
6.426969e-07
7.484774e-08
-1.44535e-07
-1.729323e-07
1.235269e-07
-6.143717e-08
-3.608812e-07
-3.533464e-07
6.144204e-07
-1.916015e-06
8.757253e-08
-2.575136e-07
-2.406552e-07
5.4992e-08
-1.064305e-06
3.328461e-07
-8.039399e-07
-1.730987e-07
-9.91822e-07
-6.0622e-07
-4.01731e-07
-8.146951e-08
-6.196423e-08
5.582455e-08
-5.280773e-07
-4.063314e-07
-4.499272e-07
-5.84684e-07
-6.263466e-08
-1.208537e-06
-8.312046e-07
-9.348727e-07
1.776838e-08
-1.452867e-08
-3.996352e-07
-3.364376e-07
-5.710028e-07
2.872164e-08
9.709093e-09
-3.144634e-07
6.987422e-07
-4.737823e-07
3.154286e-07
-3.503433e-08
-2.149391e-08
-6.960745e-08
-1.088611e-07
-4.010258e-07
-3.163175e-07
1.986799e-07
-2.976281e-07
-2.944445e-07
-2.082453e-07
-8.763891e-08
-4.768278e-08
-2.823663e-08
5.029069e-07
-1.608837e-06
-6.85518e-09
-2.130449e-08
-6.192632e-08
-2.225757e-08
-9.548368e-07
-4.611228e-07
-2.970272e-07
3.081932e-07
-1.571096e-07
-1.70913e-07
-1.42457e-07
-2.892719e-08
-8.900749e-08
-6.603259e-08
-1.679242e-06
-1.54986e-06
-1.442463e-06
-1.412477e-06
-1.260535e-06
-1.275247e-06
-1.601333e-06
1.878735e-07
1.160277e-07
-7.187944e-07
5.343132e-07
5.660395e-07
-4.378664e-07
-8.043035e-07
7.742244e-08
-4.024639e-07
-3.429397e-07
-4.349532e-07
-4.38155e-07
-4.792001e-07
-4.691023e-07
3.384042e-07
2.008743e-07
3.899947e-07
-1.235729e-06
-3.918417e-07
-4.913762e-07
-4.05788e-07
-3.321163e-07
-4.631994e-07
-9.014627e-07
-9.808506e-07
6.1468e-08
1.34203e-07
1.332655e-07
-3.727414e-07
-3.850612e-07
-4.039637e-07
-4.095963e-07
-2.205675e-07
-2.865954e-08
-1.722567e-06
-2.788167e-07
-2.855595e-07
9.461778e-08
-5.421157e-07
-6.438173e-07
-5.696778e-07
-4.487019e-08
-7.448075e-08
-4.038761e-08
-1.669264e-07
5.291623e-07
-5.046626e-08
2.528602e-07
2.332959e-07
-1.982649e-07
-8.505423e-07
-9.138268e-07
-6.63112e-07
-7.174974e-07
-8.594514e-07
-3.394916e-07
-1.74183e-07
-1.042701e-07
6.930475e-08
-2.825792e-07
-2.390589e-07
-7.794492e-07
-1.01044e-06
-5.593998e-07
-6.292782e-08
7.539229e-08
-1.750298e-06
7.84286e-08
1.0366e-07
1.308009e-07
1.179253e-07
-6.489541e-07
-2.323092e-07
-2.818515e-09
-3.241682e-07
-8.592414e-08
-2.142976e-07
-4.933929e-07
-1.356204e-07
-9.763187e-08
-4.730625e-08
-5.449172e-08
4.90564e-07
-1.227032e-06
-1.173921e-06
6.319401e-08
4.893734e-07
-1.319692e-06
5.76018e-08
-5.652758e-08
-6.556761e-09
-1.275402e-07
-3.683067e-07
-4.553981e-07
2.414305e-07
-2.651599e-07
-2.517294e-07
-3.415825e-08
-1.888943e-07
-1.87355e-06
-1.970652e-06
-4.744228e-07
-3.672029e-07
4.358179e-08
2.933823e-07
3.059985e-07
1.247974e-06
-1.224586e-06
-5.155964e-07
8.729227e-09
-5.798333e-07
2.527158e-08
-8.413396e-07
9.164814e-08
-1.296625e-07
-1.254091e-07
-5.550103e-08
-1.773267e-06
1.403904e-07
-1.38388e-06
1.618143e-08
5.904833e-08
3.39412e-08
-2.443655e-07
3.468225e-07
-1.324989e-06
-1.311284e-06
-1.002533e-06
-4.287968e-07
-3.879214e-07
-3.064917e-08
-4.591035e-08
-4.390997e-08
-2.412279e-07
-1.854716e-07
-6.595513e-08
2.165031e-07
2.664301e-07
-3.656235e-07
-1.909449e-07
-1.249784e-08
-3.181612e-07
-5.262956e-08
4.655917e-07
-2.156171e-07
-2.764877e-07
-2.41115e-07
-7.591632e-09
-6.720205e-08
-3.188084e-07
-2.895444e-07
-1.08993e-06
6.181143e-07
6.26738e-07
-1.074444e-06
-1.569428e-06
3.709442e-07
-6.556583e-07
-2.189387e-07
-1.150443e-07
-2.589725e-08
-5.442245e-07
-4.816892e-07
-2.646294e-07
-1.508733e-07
3.223347e-07
8.929033e-08
-1.226944e-06
-7.861279e-08
-1.119892e-07
-1.091786e-06
4.256458e-07
-1.970985e-07
-1.112298e-07
3.8858e-07
-1.339374e-06
-1.472484e-06
-1.428677e-06
-3.218868e-07
-1.110171e-07
-1.312331e-07
-2.544957e-07
-2.058048e-07
3.039366e-07
-1.407106e-07
-1.209825e-06
-5.819146e-07
-1.716961e-06
-3.036177e-07
5.259913e-07
-8.530774e-07
2.166514e-07
-4.891902e-07
-4.817508e-07
1.631809e-07
1.414316e-07
-5.853627e-08
-5.48349e-08
-1.906275e-06
8.493572e-07
-1.085327e-06
-1.798089e-06
-1.12377e-09
-9.802526e-08
-3.964458e-07
6.007088e-08
-1.039395e-06
-4.206567e-08
-4.119077e-08
-3.245494e-07
-6.321831e-07
1.492e-07
-7.220221e-08
2.715535e-08
-1.185768e-07
-1.115371e-07
-2.635755e-07
-7.644391e-07
-6.539748e-07
-1.163664e-07
-1.315063e-07
-5.843724e-08
3.913487e-08
-3.331705e-10
-8.571421e-07
-8.554424e-07
-5.136884e-07
-5.334812e-07
-5.435239e-07
-8.271048e-07
-1.40883e-07
-1.433955e-07
-1.919068e-06
-1.295493e-07
1.072239e-07
-8.896346e-07
-7.251375e-08
-4.304623e-07
-3.329479e-07
-2.939716e-07
-2.008204e-07
-1.783732e-07
-5.385391e-07
6.624872e-08
-8.423298e-07
-1.646775e-06
5.797168e-09
-6.191049e-07
-6.903272e-07
-6.466324e-08
-1.535991e-06
1.889048e-07
5.116191e-07
-4.817114e-08
-2.64083e-07
7.942475e-09
-4.160702e-07
-2.443894e-07
-2.758203e-08
-1.08887e-07
-5.376182e-08
-5.038019e-08
-1.903749e-06
-8.629742e-07
-3.469029e-07
-4.914191e-08
-8.821568e-08
-1.623758e-07
-5.551627e-08
-5.463048e-08
-6.664174e-07
-3.64674e-07
4.329605e-07
3.719082e-09
-3.490107e-08
-1.272807e-07
5.382739e-08
-4.987651e-08
3.467358e-08
-5.639878e-07
-1.189212e-06
-2.620086e-08
-2.833155e-07
-6.102037e-07
-2.368574e-07
7.772605e-08
-6.075187e-07
-5.193711e-07
-4.43998e-07
-4.716189e-07
-2.3939e-07
-1.250198e-07
-8.422601e-08
-9.226389e-10
9.822865e-07
6.848656e-09
6.996152e-07
7.502116e-07
5.9841e-08
-1.002913e-07
-1.462528e-07
-1.159194e-07
-1.721481e-08
-2.035546e-09
-2.664233e-07
-3.763969e-07
-1.657726e-07
-2.613296e-10
-5.824371e-07
4.390334e-08
-1.323265e-07
-5.880115e-08
-6.49623e-07
-2.132498e-07
1.555021e-07
-1.344462e-06
-1.105382e-06
-6.821586e-08
-3.31524e-08
-7.289549e-07
-8.380884e-07
-1.043298e-06
-1.689034e-06
-1.870872e-07
4.076005e-08
-1.408211e-08
-2.415928e-08
-9.464235e-08
6.540921e-08
1.610928e-07
1.478488e-07
9.437055e-08
1.028724e-07
-1.332088e-07
-5.215667e-08
1.459352e-07
2.215598e-07
-3.538601e-08
-1.154546e-07
-2.616651e-07
-1.087761e-07
-7.016417e-08
-8.114325e-08
-1.204624e-07
-3.297056e-07
-1.445539e-06
-3.696229e-08
-2.900171e-08
-1.153565e-09
-3.066419e-07
5.680563e-07
-1.005057e-06
-1.007751e-06
-2.453202e-08
1.264464e-08
3.022887e-09
-1.509746e-08
-7.838238e-08
-7.365234e-08
-7.994527e-07
2.417279e-08
-1.023416e-07
-1.42054e-07
-2.260201e-07
-2.210059e-07
-1.930433e-07
-2.353542e-07
-2.019609e-07
-1.822316e-07
-8.172076e-08
-7.907657e-08
-8.775181e-09
8.301483e-08
1.184101e-07
3.135313e-07
-8.23044e-08
-1.125035e-07
-1.201307e-07
-1.433974e-07
4.300849e-08
-1.952e-07
-2.971678e-07
-1.692745e-07
-1.393206e-06
-9.923929e-08
-2.632331e-08
-9.148131e-07
-3.879194e-07
-3.322893e-07
-3.432138e-08
-3.098493e-08
-5.739286e-07
-5.887208e-07
1.235487e-06
-2.928698e-07
1.591298e-07
7.670045e-08
-4.177305e-07
3.556617e-09
1.489129e-08
3.70868e-09
-1.679131e-08
-7.897639e-07
-7.519244e-07
-2.647779e-07
-1.106533e-06
-3.775202e-07
-8.289968e-07
9.027536e-07
8.659982e-07
-2.416112e-07
-1.442899e-07
-1.731926e-06
9.135784e-08
8.295344e-08
-3.509159e-07
-3.065551e-07
1.019754e-07
6.341843e-08
-3.915271e-08
1.071729e-07
1.302087e-07
-8.580506e-08
-3.147529e-07
-6.201491e-07
-1.067289e-06
2.598701e-07
2.383686e-07
2.713874e-07
2.115657e-07
1.17523e-07
1.480595e-07
-5.012434e-07
-6.079276e-07
-6.825827e-07
-8.014012e-07
1.195308e-08
6.672181e-07
-2.632352e-07
-2.826184e-07
1.166581e-07
-4.646714e-08
-1.991979e-08
-1.52683e-07
-1.493212e-07
-8.552314e-08
-9.208431e-08
-2.129808e-07
-1.759511e-07
-1.652097e-07
-1.809969e-07
-1.487378e-08
3.274231e-07
-4.171e-07
2.36838e-07
5.787872e-08
6.303241e-08
5.045018e-08
5.88513e-08
-1.882618e-06
-1.779833e-06
8.797459e-08
-3.889148e-07
-4.025207e-07
2.768644e-07
2.037624e-07
-1.921743e-07
-3.824941e-07
1.166726e-07
-4.484649e-07
-5.880148e-08
-3.246734e-07
-4.829621e-07
-6.499498e-07
-6.785411e-07
6.15285e-07
2.196977e-07
-2.969463e-07
-2.627496e-07
-4.74694e-08
1.726456e-07
-5.051862e-07
-8.127168e-08
-6.734129e-08
-1.939528e-07
1.214151e-07
-1.933638e-07
-1.439888e-06
5.20016e-08
8.152474e-08
4.189759e-08
4.269641e-09
-4.249678e-07
-5.075342e-07
-4.515359e-07
-3.2826e-07
-3.509822e-07
-1.049643e-06
1.474688e-07
-1.079473e-07
-6.445507e-08
-8.713886e-08
-7.527743e-08
-6.642427e-08
-8.834495e-08
-1.675584e-07
-1.94593e-07
-2.013475e-07
-1.708207e-07
-1.406327e-07
-1.742279e-07
-1.802294e-07
-1.502369e-07
-1.758288e-07
-1.57072e-07
-1.957086e-07
-6.938909e-08
-1.45075e-07
-3.438982e-08
-1.539111e-07
-1.35504e-07
-5.328534e-08
-1.039876e-07
-1.436554e-07
-1.738868e-07
-1.583372e-07
-2.048832e-07
-1.706544e-06
-9.684491e-07
-1.738324e-06
4.82202e-08
-6.096866e-07
1.36788e-07
-3.194739e-07
8.168559e-08
4.278937e-07
5.843466e-07
7.03222e-07
-3.184258e-07
7.805256e-07
3.775593e-07
1.512226e-07
-8.481185e-08
-1.472065e-07
-1.08353e-07
-1.391722e-07
-6.421132e-08
-7.002203e-08
-9.093178e-08
-1.734907e-07
-1.198695e-07
3.623544e-07
2.617636e-07
3.232714e-07
1.974524e-07
4.073339e-07
3.653085e-07
-7.099738e-07
-6.904208e-07
-1.596586e-06
-1.556659e-06
-1.315462e-06
-5.450016e-08
-1.213199e-06
-4.308999e-08
-1.230452e-06
-7.529653e-07
-8.938423e-07
-7.581214e-07
-8.532565e-07
-7.362038e-07
9.001755e-08
3.656172e-08
-7.443072e-07
-1.443977e-06
-1.314709e-06
-7.084687e-07
-1.386768e-06
-1.384376e-06
-1.617904e-06
-1.585736e-06
-1.235892e-06
9.670648e-08
-2.551833e-07
-1.498594e-06
-5.975467e-07
-2.019243e-07
-1.310894e-06
-6.35967e-07
-1.761887e-06
-1.847512e-06
6.611307e-07
9.195689e-08
-3.05788e-07
-2.724201e-07
-3.00246e-07
-3.360399e-07
1.823618e-08
-1.393458e-06
-1.125118e-06
-1.278446e-06
-1.270733e-07
-9.947557e-08
-1.29187e-07
7.58519e-08
2.376709e-07
-7.853304e-08
-8.148859e-07
-8.185541e-07
-1.12759e-06
-2.595403e-07
-2.392281e-07
-3.168681e-08
-2.008201e-08
-2.22259e-08
2.454262e-08
-4.178252e-09
-2.820784e-07
-3.493247e-07
-3.863908e-07
-2.952975e-07
4.445996e-07
6.743751e-08
4.714211e-08
2.189791e-08
-1.912293e-07
-1.765078e-07
1.299668e-07
6.83543e-08
-7.323878e-08
-6.510549e-08
-3.04972e-07
-1.283157e-07
1.953691e-07
-5.173453e-08
7.065758e-08
2.537285e-07
-5.098492e-07
3.799584e-07
-3.458466e-07
1.87314e-07
2.582889e-07
-1.209669e-06
9.959656e-07
3.346548e-08
6.994308e-08
2.336873e-08
2.696171e-07
-2.357862e-07
-1.220042e-07
-9.277022e-08
-4.705822e-08
-3.926682e-08
8.618563e-08
1.856702e-07
-3.268467e-08
-4.241695e-07
-1.769714e-07
-1.853739e-07
-1.395644e-07
9.623052e-07
-1.218771e-06
7.137939e-08
6.85898e-08
-3.514835e-08
-4.639725e-08
-4.402045e-08
-5.903303e-08
-5.577815e-08
-1.17017e-06
-1.221098e-06
-3.878516e-08
-4.67632e-08
-2.693971e-07
-2.534911e-07
-1.329153e-07
8.31348e-08
-4.70754e-08
-1.495665e-06
-1.411581e-06
-1.323972e-06
-2.127469e-07
-1.076063e-06
-3.470009e-07
-1.865524e-07
-2.195775e-07
-1.775261e-07
-1.18393e-07
-9.609152e-08
-1.625058e-07
-1.37166e-07
-1.37087e-07
-1.644696e-07
-8.544886e-08
-1.087177e-07
-1.228439e-07
-1.479346e-07
-4.582336e-08
-6.68564e-08
-2.032027e-07
-1.564326e-07
-1.879017e-07
-2.731453e-07
-3.160291e-07
-7.486995e-08
-9.403312e-08
-9.475893e-08
-7.255326e-08
-1.903352e-07
-1.625075e-07
-1.670695e-07
-1.947212e-07
-1.665675e-07
-1.423288e-07
-1.572684e-07
-1.83644e-07
-4.940447e-07
-3.281379e-07
-1.109982e-07
-1.353425e-07
-1.285918e-07
-1.046604e-07
-4.460779e-08
-9.034502e-08
-1.380576e-07
-1.114196e-07
-3.350039e-08
1.694049e-08
8.43022e-08
-2.253561e-07
-2.454008e-07
1.217165e-07
-8.603923e-07
-8.714418e-07
-1.488485e-06
-4.898395e-07
-6.165136e-07
-2.53489e-07
-1.831949e-07
-8.367001e-07
-4.747474e-07
-4.450234e-07
-1.163073e-07
-2.346404e-08
5.072457e-09
-7.021646e-08
-1.532766e-07
-1.878481e-07
-1.69028e-07
-2.153012e-07
-2.006145e-07
-8.371792e-08
-2.660161e-07
-2.230864e-07
-7.084338e-07
-1.187503e-07
-3.899043e-08
-3.516524e-08
-2.203706e-07
-2.669599e-07
-2.446473e-08
-5.58568e-07
-6.389657e-07
-4.769674e-07
-1.340114e-07
1.755337e-07
1.338499e-07
-1.1874e-06
-1.27866e-06
1.680706e-07
-7.4209e-09
-2.811588e-08
-1.846471e-08
-1.992679e-06
-3.437146e-07
-4.181544e-07
-7.388604e-07
1.323673e-07
-3.291164e-07
-7.563644e-07
-5.449553e-07
-1.171346e-07
-3.378419e-07
-8.35313e-07
-2.470961e-07
9.095208e-08
-5.758621e-07
-3.968822e-07
1.72007e-07
-4.515844e-07
-4.622261e-07
-3.291115e-08
-6.461434e-07
-1.084423e-06
-1.127059e-06
-1.124243e-06
-1.160937e-07
-1.841996e-07
-2.521407e-07
-2.976657e-07
-1.502465e-07
-1.14833e-07
-1.39354e-06
-2.958568e-07
-4.279971e-07
4.550509e-08
6.59073e-07
-2.385603e-07
-6.116311e-07
-6.953903e-07
6.805505e-09
-7.00786e-08
-7.679336e-07
-1.67547e-07
-3.531772e-08
-2.689056e-08
-1.170211e-07
-9.613042e-08
-7.562895e-08
-9.782902e-08
7.670531e-07
-7.059863e-08
1.453012e-08
-1.735383e-08
-4.129352e-07
-3.484652e-07
-6.930894e-07
-2.090395e-07
-1.388307e-07
-1.228179e-07
3.626911e-07
-1.212472e-07
-1.109959e-07
-1.185101e-07
-1.544925e-07
-1.568756e-07
-1.894574e-07
-1.549632e-07
-1.257007e-07
-1.056456e-07
-1.568816e-08
-5.891137e-08
-7.265476e-08
6.179168e-08
-3.222331e-07
-3.89361e-07
-1.750371e-07
-1.64184e-08
7.674436e-07
1.081538e-07
-6.726093e-09
-1.50905e-07
-6.79272e-08
-7.936212e-08
1.321703e-07
-1.621142e-06
-3.701343e-08
2.624498e-07
-6.469263e-07
-8.210604e-08
-1.665759e-07
1.764058e-08
-1.029831e-06
-3.876162e-07
-1.683129e-06
-1.652153e-06
-1.487094e-06
-1.46018e-06
2.718486e-08
1.938607e-08
-2.741236e-07
3.400294e-08
-7.529036e-07
-7.315557e-07
-8.816537e-07
-8.734563e-07
5.790152e-08
5.320541e-08
4.856772e-08
6.669418e-08
6.553893e-08
2.217727e-07
1.986599e-07
1.538747e-07
-2.633047e-07
-1.352417e-07
-4.314208e-07
-4.696701e-07
7.391337e-08
-1.345618e-07
-1.673599e-07
8.437593e-09
-1.85349e-08
-1.727679e-08
-2.454441e-08
3.210399e-07
-5.389624e-07
-5.209214e-07
-5.669392e-07
-1.923911e-07
-1.817176e-07
-1.294402e-08
9.360195e-08
-8.136412e-07
-5.882815e-07
-4.624217e-07
-3.41741e-07
3.979333e-08
8.483852e-08
4.143786e-08
-2.48031e-08
-2.746095e-07
-5.503429e-07
-5.691712e-08
-4.681991e-08
-1.760061e-07
-9.821219e-07
-2.415002e-07
-2.040021e-07
-1.171021e-06
1.593531e-07
-4.977208e-08
-6.40456e-08
-1.733236e-07
-2.003404e-07
-7.363744e-08
-1.635491e-07
-1.391712e-07
-1.012652e-07
-1.000895e-07
-3.727414e-07
1.041471e-07
1.263691e-07
-6.694349e-07
-6.769313e-07
-9.165797e-08
-9.079008e-08
-1.366837e-06
-3.002838e-07
-2.69656e-07
-1.694632e-06
-1.549176e-06
-1.387496e-06
-1.293157e-06
-8.38711e-07
-7.890747e-07
-7.378517e-07
-6.909269e-07
-5.536783e-07
-5.90308e-07
-7.577271e-07
-8.083165e-07
-1.692351e-06
-1.751321e-06
-1.274369e-06
-1.322115e-06
-1.339183e-06
-1.39108e-06
-1.347431e-06
-1.393569e-06
-3.404788e-07
-5.970567e-07
-6.459618e-07
-6.076636e-07
-4.579297e-07
-1.353373e-06
-1.450865e-06
-6.916008e-07
-6.460658e-07
-7.034064e-07
-2.917381e-07
-6.952137e-07
-3.151227e-07
-2.847485e-07
-3.4635e-07
6.388039e-08
-9.015098e-08
-8.819423e-08
5.586024e-07
-8.080199e-07
-8.031017e-07
-7.983758e-08
-6.959154e-08
-7.332812e-08
-1.073196e-07
-9.175231e-08
-4.312591e-07
-2.143702e-07
-1.186044e-06
-1.138569e-06
-1.434062e-08
5.163637e-08
-6.487773e-08
-7.085934e-08
-7.682706e-08
-1.297709e-06
-4.297108e-07
-3.089572e-07
-5.379305e-07
-3.873571e-07
-7.419044e-08
7.750478e-08
7.36531e-08
-6.54237e-08
-5.730111e-08
-2.191845e-07
-5.696404e-08
-6.408116e-08
-2.042008e-09
-3.57356e-09
-1.190673e-07
-1.025325e-07
-4.024763e-08
-4.92221e-08
-1.818334e-07
3.869722e-08
-1.077821e-07
-1.210868e-07
2.012697e-07
-1.220826e-07
-1.368349e-07
-1.77288e-08
-1.950363e-08
-7.697258e-07
5.144505e-08
4.491869e-07
-2.309444e-07
1.493847e-07
3.065926e-07
-3.20349e-07
-4.349808e-07
-2.083442e-07
7.1443e-08
-6.192512e-07
-7.075269e-07
-6.117015e-08
-7.333299e-08
-1.868049e-06
-1.803934e-06
-4.789598e-07
-6.913773e-08