/*--------------------------------*- C++ -*----------------------------------*\
| =========                 |                                                 |
| \\      /  F ield         | OpenFOAM: The Open Source CFD Toolbox           |
|  \\    /   O peration     | Version:  2406                                  |
|   \\  /    A nd           | Website:  www.openfoam.com                      |
|    \\/     M anipulation  |                                                 |
\*---------------------------------------------------------------------------*/
FoamFile
{
    version     2.0;
    format      ascii;
    arch        "LSB;label=32;scalar=64";
    class       surfaceScalarField;
    location    "0.04";
    object      phi;
}
// * * * * * * * * * * * * * * * * * * * * * * * * * * * * * * * * * * * * * //

dimensions      [0 3 -1 0 0 0 0];

oriented        oriented;

internalField   nonuniform List<scalar> 
6709
(
-1.796165e-09
1.006765e-09
7.894e-10
1.597002e-09
-5.45929e-10
-1.051073e-09
-1.621216e-09
-5.907806e-11
1.680294e-09
3.691829e-09
2.611271e-10
-3.952956e-09
1.200049e-09
4.43245e-10
-1.643294e-09
1.137388e-09
-2.029773e-09
8.923845e-10
1.677651e-09
-8.376762e-10
3.253983e-09
-2.963226e-09
-2.907576e-10
1.591414e-09
-1.211503e-09
-3.799111e-10
-2.047347e-09
7.549643e-10
1.292383e-09
-9.216169e-10
-8.136929e-10
1.73531e-09
5.676698e-10
1.134268e-09
-1.701938e-09
-1.923954e-09
7.500231e-10
1.173931e-09
-3.67804e-10
-1.076299e-09
1.444103e-09
-1.327819e-09
1.543636e-10
1.173455e-09
1.646599e-09
-1.042741e-09
-6.03858e-10
-3.727347e-09
7.75654e-10
2.951693e-09
-1.086241e-09
1.912714e-09
-8.264733e-10
-1.209822e-09
9.623289e-10
2.474933e-10
9.279754e-10
1.096918e-09
-2.024893e-09
-1.210144e-09
-3.467272e-10
1.556872e-09
1.703112e-09
-7.768461e-11
-1.625428e-09
-7.901803e-10
1.326249e-09
-5.360685e-10
8.506318e-10
1.058042e-09
-1.908674e-09
-2.283518e-09
1.54778e-09
7.357372e-10
6.387441e-10
7.061694e-10
-1.344913e-09
1.025552e-09
-1.794535e-09
7.689823e-10
-2.737119e-10
-1.384782e-09
1.658494e-09
-9.443501e-11
-1.748441e-09
1.842876e-09
1.61131e-09
-7.799423e-10
-8.313679e-10
1.578062e-09
-6.424546e-10
-9.356071e-10
-9.807444e-10
-1.087986e-09
2.068731e-09
1.518477e-09
-1.574226e-09
5.574883e-11
-1.714264e-09
8.053804e-10
9.088833e-10
1.34462e-09
3.019793e-10
-1.096599e-09
1.795367e-09
1.302756e-09
-4.272604e-10
-8.75496e-10
-4.768511e-10
-1.196666e-09
1.673517e-09
-1.950016e-09
7.114659e-10
1.238551e-09
6.88613e-10
1.166004e-09
-1.854617e-09
-1.650445e-09
6.000897e-10
1.050356e-09
-6.00848e-10
1.687012e-09
-1.086164e-09
-1.086721e-09
-1.310686e-10
1.21779e-09
1.408538e-09
1.234309e-10
-1.531969e-09
1.235859e-09
-2.333738e-09
1.097879e-09
-8.746998e-10
1.562731e-09
-6.880315e-10
1.151377e-09
-7.981713e-10
-3.532054e-10
1.23285e-09
-1.452983e-09
2.201323e-10
-1.400247e-09
7.973677e-11
1.320511e-09
1.194848e-09
3.576775e-10
-1.552526e-09
-1.40219e-09
1.49307e-09
-9.08796e-11
-8.081673e-10
-7.854166e-10
1.593584e-09
-1.241165e-09
3.067331e-11
1.210492e-09
1.357914e-09
-1.633851e-09
2.759368e-10
-1.997575e-09
9.38925e-10
1.05865e-09
-1.549335e-09
1.506377e-09
4.295819e-11
8.648955e-10
-1.639505e-09
7.746096e-10
1.941338e-09
-8.135562e-10
-1.127782e-09
1.75796e-09
-8.93196e-10
-8.64764e-10
-2.697611e-10
-1.175013e-09
1.444774e-09
8.268878e-11
-1.469674e-09
1.386985e-09
-1.008357e-09
-6.525816e-10
1.660938e-09
6.928221e-10
9.791031e-10
-1.671925e-09
-1.140438e-09
-8.515899e-10
1.992028e-09
1.599302e-09
-1.550653e-09
-4.864882e-11
-1.714535e-09
7.061786e-10
-7.796087e-10
1.546047e-09
-7.664386e-10
-1.061305e-09
-1.326776e-09
2.388081e-09
3.729693e-10
1.17428e-09
-1.54725e-09
-1.810495e-09
1.156503e-09
6.539916e-10
1.824831e-09
-1.044703e-09
-7.801279e-10
-7.875813e-10
-6.047881e-10
1.392369e-09
7.68104e-10
1.069531e-09
-1.837635e-09
-6.728316e-09
8.439457e-09
-1.711141e-09
7.346966e-10
-1.777438e-09
-1.720703e-10
1.21234e-09
-1.04027e-09
1.861807e-09
-2.224815e-09
3.630081e-10
1.152165e-09
-1.15291e-09
7.45346e-13
6.344537e-10
-1.41629e-09
7.818365e-10
3.424802e-09
-3.363838e-09
-6.096348e-11
1.801866e-09
-8.747266e-10
1.307966e-09
5.127387e-10
-1.820705e-09
-1.577896e-09
2.003568e-09
-4.256722e-10
-1.998433e-09
1.00416e-09
9.942727e-10
1.660272e-09
-6.341906e-10
-1.026081e-09
-1.632552e-09
1.06465e-09
5.679019e-10
2.086574e-09
-1.086052e-09
-1.000523e-09
-1.448304e-09
9.544424e-10
4.938612e-10
-2.0353e-09
3.852018e-10
1.650098e-09
6.832166e-10
9.573149e-10
-1.640532e-09
1.776101e-10
1.183341e-09
-1.360951e-09
1.613271e-09
-6.717684e-10
-9.415024e-10
1.248925e-09
1.998198e-10
-1.448745e-09
1.048651e-09
2.631577e-10
1.244311e-09
4.847609e-10
-1.729071e-09
-1.257169e-09
1.823848e-09
-5.666789e-10
-5.485234e-10
1.871867e-09
-1.323344e-09
-1.010927e-09
1.683648e-09
-6.727214e-10
9.993324e-10
-1.879428e-09
8.800954e-10
-8.840416e-10
1.59955e-09
-7.155081e-10
-1.037619e-09
-3.506136e-10
1.388232e-09
4.016358e-10
-1.337952e-09
9.363166e-10
1.915502e-09
-9.745513e-10
-9.40951e-10
-1.519377e-09
4.811342e-10
1.038243e-09
8.343408e-10
6.789031e-10
-1.513244e-09
5.931337e-10
1.003868e-09
-2.725227e-10
1.714486e-09
-1.441963e-09
4.068525e-10
-1.664058e-09
1.257206e-09
-1.099309e-09
1.920233e-09
-8.209248e-10
-1.576519e-09
7.474685e-10
8.290502e-10
1.148095e-09
-1.936678e-09
7.885827e-10
-1.415562e-09
-5.655333e-10
1.981096e-09
-1.5267e-09
1.934541e-09
-4.078406e-10
1.241831e-09
-1.142386e-09
-9.944506e-11
7.569676e-10
-2.009982e-09
1.253015e-09
1.175042e-09
8.432639e-10
-2.018305e-09
7.756086e-10
-1.528486e-09
7.528771e-10
1.654272e-10
1.298025e-09
-1.463452e-09
7.710052e-10
1.085241e-09
-1.856246e-09
-1.789222e-09
1.017542e-09
7.7168e-10
7.53835e-10
-1.874136e-09
1.120301e-09
1.927792e-09
-1.192117e-09
-7.356757e-10
1.303138e-09
-2.086589e-09
7.834515e-10
-1.466822e-09
2.336613e-10
1.233161e-09
1.325716e-09
1.529247e-10
-1.478641e-09
1.868805e-10
-5.104721e-10
1.233426e-09
-7.229543e-10
-2.142469e-09
1.217466e-09
9.250028e-10
-5.898205e-10
1.68995e-09
-1.100129e-09
-4.612498e-10
1.73895e-09
-1.2777e-09
2.097791e-09
-1.008071e-09
-1.089719e-09
-7.822916e-10
1.064734e-09
-2.824421e-10
4.899212e-10
1.2188e-09
-1.708721e-09
6.475421e-10
5.942891e-10
1.087556e-09
-3.130573e-10
-7.744983e-10
-1.527276e-09
1.406887e-10
1.386587e-09
8.50873e-10
9.541879e-10
-1.805061e-09
-5.637553e-10
1.450718e-09
-8.869629e-10
1.09841e-09
-1.894819e-09
7.964093e-10
-5.935211e-10
-1.010205e-09
1.603726e-09
-5.556916e-10
-1.962716e-09
1.220008e-09
7.427082e-10
1.089268e-09
-1.915715e-09
8.264476e-10
-9.27174e-10
-1.079873e-09
2.007047e-09
1.348897e-09
-1.167271e-09
-1.816262e-10
1.851848e-09
-1.728234e-09
-1.236136e-10
1.456667e-09
-3.577277e-10
-1.09894e-09
1.537979e-09
-3.237851e-10
-1.214194e-09
-9.165257e-10
-8.480382e-10
1.764564e-09
8.742232e-10
7.639824e-10
-1.638206e-09
-8.097669e-10
1.934606e-09
-1.124839e-09
-1.277313e-09
-5.576891e-11
1.333082e-09
-2.697761e-10
2.054391e-09
-1.784615e-09
-1.131582e-09
1.9799e-09
-8.483172e-10
-1.08593e-09
1.911927e-09
-8.259969e-10
-9.570109e-10
1.77209e-09
-8.150787e-10
-1.543019e-09
-1.172836e-10
1.660302e-09
-3.759399e-10
1.700639e-09
-1.3247e-09
1.672175e-09
-1.8261e-09
1.539253e-10
-3.106496e-11
1.590868e-09
-1.559803e-09
5.544641e-10
-1.900236e-09
1.345772e-09
6.816169e-10
-1.69995e-09
1.018333e-09
-5.507842e-10
1.805989e-09
-1.255205e-09
4.852835e-10
1.051475e-09
-1.536759e-09
2.189795e-09
-1.483688e-09
-7.061072e-10
-4.876853e-10
-1.123234e-09
1.610919e-09
1.043498e-09
-1.124633e-09
8.113449e-11
-2.000201e-11
-1.640125e-09
1.660127e-09
-4.596225e-10
-1.176632e-09
1.636254e-09
-2.381302e-10
1.596044e-09
-5.140795e-10
-1.393795e-09
1.907875e-09
1.903435e-09
-8.26921e-10
-1.076514e-09
9.808313e-10
1.202659e-09
-2.18349e-09
9.887505e-10
-2.086381e-09
1.097631e-09
8.563114e-10
1.178606e-09
-2.034918e-09
-1.733791e-09
1.309005e-09
4.247867e-10
-7.019431e-10
1.38516e-09
-3.67371e-10
-1.359006e-09
1.726377e-09
-1.798309e-09
6.875842e-10
1.110724e-09
8.260862e-10
-1.912327e-09
4.143776e-10
-1.713842e-09
1.299464e-09
-1.098497e-09
-1.039308e-09
2.137805e-09
-9.883359e-10
1.959096e-09
-9.707601e-10
-2.896472e-10
-1.220773e-09
1.510421e-09
1.449007e-09
-2.000825e-10
1.464755e-09
3.923115e-09
-5.38787e-09
2.128483e-09
-1.131072e-09
-9.974108e-10
1.622118e-09
-1.991231e-10
-1.422995e-09
1.413496e-09
-1.449728e-09
3.623167e-11
-1.318045e-09
7.695217e-10
-1.212684e-09
1.980788e-09
7.864591e-10
1.340643e-09
-2.127102e-09
-1.306974e-09
1.341163e-09
-3.418942e-11
-1.75638e-09
1.427346e-09
3.29034e-10
7.070052e-10
1.292574e-09
-1.99958e-09
-1.704903e-09
9.445275e-10
7.603753e-10
9.538016e-10
8.710292e-10
-1.036135e-09
-2.553343e-10
1.291469e-09
-4.324758e-10
1.58464e-09
6.544987e-10
-1.419603e-09
7.651045e-10
-1.826605e-09
2.670389e-10
1.559566e-09
-1.331904e-09
3.668884e-10
9.650158e-10
2.122461e-09
-1.387423e-09
-7.350376e-10
9.217037e-10
-1.721575e-09
7.998709e-10
-9.235326e-10
1.6805e-09
-1.00263e-09
-8.040394e-10
1.806669e-09
-1.363948e-09
-6.156239e-10
1.979572e-09
1.463528e-09
-1.612784e-09
1.013372e-09
5.994122e-10
-1.086227e-09
1.911492e-09
-8.252648e-10
-8.250814e-10
-7.881261e-10
1.613208e-09
-8.139065e-10
1.732037e-09
-9.181307e-10
2.115439e-10
1.339156e-09
-1.5507e-09
-1.361955e-09
-3.753258e-10
1.737281e-09
1.097207e-09
-2.108557e-09
1.011349e-09
-3.844213e-10
-1.538883e-09
1.923305e-09
1.8874e-09
-9.449866e-10
-9.424132e-10
9.127579e-10
-1.874849e-09
9.620909e-10
-2.011007e-09
1.285499e-09
7.25508e-10
1.678821e-09
-4.34511e-10
-7.598359e-10
-8.550451e-10
-6.634276e-10
1.692063e-09
-1.028635e-09
-1.317722e-09
1.740849e-09
-4.231272e-10
-1.529149e-09
-2.092204e-10
1.738369e-09
-3.262811e-10
1.571373e-09
-1.245092e-09
-1.969179e-10
1.532253e-09
-1.335335e-09
-1.392557e-09
-5.14175e-10
1.906733e-09
1.871341e-09
-9.585832e-10
-2.122137e-09
1.146886e-09
9.752506e-10
8.112218e-10
9.413593e-10
-1.752581e-09
1.692679e-09
-6.55489e-10
-1.03719e-09
-7.157478e-10
-9.99311e-10
1.715059e-09
9.975068e-10
6.18699e-10
-1.616206e-09
-5.444342e-10
2.221184e-09
-1.67675e-09
1.164074e-09
-1.828436e-09
6.643616e-10
1.489871e-09
-1.918114e-09
4.282429e-10
-5.83941e-10
1.732036e-09
-9.562602e-10
1.943319e-09
-9.870584e-10
-1.512539e-09
1.345872e-09
1.666676e-10
-1.280912e-09
-7.4884e-10
2.029752e-09
-1.055855e-09
1.863317e-09
-8.07462e-10
8.008994e-10
-8.57844e-10
-7.570357e-10
-8.123268e-10
-1.141347e-09
1.953674e-09
1.781287e-09
-9.803877e-10
-5.852797e-10
1.838838e-09
-1.753758e-09
8.57086e-10
8.966722e-10
-7.42241e-10
1.927146e-09
-1.184905e-09
4.626718e-10
-1.658966e-09
1.196294e-09
1.799121e-09
-1.302511e-09
-4.966107e-10
-1.56631e-09
8.36609e-10
7.297013e-10
3.347247e-10
-1.781863e-09
1.447139e-09
1.557178e-09
-2.830578e-10
-1.27412e-09
1.958215e-09
-9.640823e-11
-1.574353e-09
2.817058e-10
1.292647e-09
7.963093e-10
1.032427e-09
-1.828736e-09
1.61768e-09
-8.458884e-10
-7.717914e-10
2.461241e-10
-1.688139e-09
1.442015e-09
-2.29066e-09
5.570827e-10
1.733577e-09
6.581678e-10
8.512556e-10
-1.509423e-09
-2.136581e-09
1.563764e-09
5.728171e-10
4.366919e-10
-1.749852e-09
1.31316e-09
-8.481306e-10
1.847685e-09
-9.995543e-10
-6.854366e-10
1.758916e-09
-1.073479e-09
4.5053e-10
-1.220742e-09
7.70212e-10
-3.748026e-10
1.42462e-09
-1.049818e-09
-1.962467e-09
1.222581e-09
7.398857e-10
-1.269169e-09
-3.855957e-10
1.654765e-09
6.07805e-10
1.014313e-09
1.530184e-09
-7.76349e-10
-1.58568e-09
6.32032e-10
9.536483e-10
-1.932481e-09
8.515127e-10
1.080968e-09
-1.008312e-09
-4.308533e-10
1.439165e-09
9.378021e-11
1.669153e-09
-1.762933e-09
2.452172e-10
1.359774e-09
-1.604991e-09
-1.112739e-09
1.891706e-09
-7.789676e-10
9.379629e-10
-2.230329e-09
1.292366e-09
7.70724e-10
8.096801e-10
-1.580404e-09
-1.16797e-09
-5.857885e-10
9.599693e-10
-1.729454e-09
7.694845e-10
3.687538e-10
-1.675727e-09
1.612497e-09
3.45718e-10
-3.128464e-11
-1.378532e-09
1.409817e-09
-6.947706e-10
-9.199731e-10
1.376035e-10
-1.451659e-09
1.314056e-09
9.572315e-10
8.146293e-10
-1.771861e-09
-6.302195e-10
1.54505e-09
-9.148308e-10
7.538858e-10
1.05035e-09
-1.804236e-09
-1.377733e-09
1.29949e-09
7.824306e-11
3.710632e-09
6.144103e-10
-4.325042e-09
9.332893e-10
9.541105e-10
3.894475e-09
-5.186731e-09
1.292256e-09
-1.036279e-09
-7.2978e-10
1.766059e-09
1.941961e-09
-2.872695e-10
-1.654692e-09
-1.049472e-09
-6.077504e-10
1.657222e-09
-9.680337e-10
1.283791e-09
-3.157573e-10
1.637247e-09
-1.083774e-09
-5.534735e-10
8.537994e-10
7.598645e-10
-1.613664e-09
-1.863412e-09
1.299656e-09
8.263269e-10
1.086387e-09
-7.527539e-10
-9.91076e-10
1.74383e-09
-9.288207e-10
1.789875e-09
-8.61054e-10
-1.915709e-09
8.432131e-10
1.072496e-09
-1.824796e-09
9.766652e-10
1.035541e-09
-2.016286e-09
3.514487e-09
-6.548378e-09
3.033891e-09
1.586555e-09
-7.020717e-10
-8.844835e-10
-1.843158e-09
1.051356e-09
7.918017e-10
-1.558208e-09
1.288447e-09
-2.015577e-09
1.330864e-09
6.847126e-10
1.621077e-09
-1.483473e-09
-1.103182e-09
1.928897e-09
-8.257153e-10
4.989047e-10
9.354388e-10
-1.434344e-09
1.845703e-09
-1.606577e-09
-2.391256e-10
-1.385769e-09
1.566799e-09
-1.810298e-10
4.613426e-10
1.068841e-09
7.891209e-10
1.070693e-09
-1.859814e-09
1.286322e-09
-1.512723e-09
2.264018e-10
1.23764e-09
5.060757e-10
-1.743716e-09
8.978328e-10
2.526969e-09
1.67566e-09
-5.835049e-10
-1.092155e-09
2.100301e-09
-3.247293e-09
1.146991e-09
-1.200005e-09
-5.073419e-10
1.707347e-09
-1.494748e-09
1.039843e-09
4.549047e-10
-4.955651e-10
1.635724e-09
-1.140159e-09
1.280865e-09
-2.087004e-09
8.061389e-10
-1.067592e-09
-7.572042e-10
4.403157e-10
-1.808383e-09
1.368067e-09
-1.668903e-09
4.688984e-10
-7.901308e-10
-1.033845e-09
1.823976e-09
-7.760079e-10
1.776326e-09
-1.000318e-09
-1.037468e-09
1.450969e-09
-4.135014e-10
1.07555e-09
6.001094e-10
-1.406204e-09
4.477599e-10
9.584445e-10
8.97539e-10
7.665391e-10
-1.664078e-09
-1.817998e-09
9.432977e-10
1.510944e-09
-1.428255e-09
-4.792019e-10
1.768684e-09
-1.289482e-09
-6.522799e-10
-9.502881e-10
1.602568e-09
-1.95966e-09
1.449188e-09
-1.579786e-09
1.844154e-09
-2.643674e-10
-6.256256e-10
-8.195817e-10
1.835991e-09
-1.01641e-09
1.411776e-09
-2.039986e-09
6.282097e-10
8.638422e-10
9.667652e-10
-1.830607e-09
-6.340949e-10
-1.172184e-09
1.806279e-09
-9.411257e-10
-6.703573e-10
1.611483e-09
1.814111e-09
-7.739971e-10
-1.040114e-09
6.407823e-10
8.704555e-10
-1.511238e-09
1.496294e-09
-1.480574e-09
-1.571972e-11
1.740656e-09
-2.290114e-09
5.494579e-10
2.876479e-10
-1.847279e-09
1.559631e-09
1.502401e-09
-8.144545e-10
-6.87946e-10
-1.83649e-09
7.333075e-10
-7.758694e-10
-1.058725e-09
1.834594e-09
5.724431e-09
-1.829957e-09
-2.109148e-09
1.105279e-09
1.003868e-09
-9.602808e-10
-1.223032e-09
2.183313e-09
-1.189051e-09
-6.858154e-10
1.244188e-09
7.983504e-10
-2.042539e-09
1.158715e-09
-1.439252e-09
2.805368e-10
-1.577701e-09
8.648475e-10
7.128537e-10
6.991589e-11
1.351429e-09
-1.421345e-09
1.609701e-09
-1.448042e-09
-1.616585e-10
1.006462e-09
-6.099051e-11
-9.454715e-10
-3.756813e-10
-1.313427e-09
1.689108e-09
-1.817863e-09
5.429647e-10
1.274899e-09
1.840969e-09
-9.541557e-10
-8.86813e-10
-1.712571e-09
5.518832e-09
-3.806261e-09
1.279536e-10
-1.677769e-09
-1.752437e-09
-3.841439e-10
-1.648216e-09
6.912049e-10
-1.349408e-09
1.419324e-09
5.897021e-11
1.099745e-09
-2.05508e-10
-1.867918e-09
2.073426e-09
8.818811e-10
8.760789e-10
9.28155e-10
9.829449e-10
-1.9111e-09
1.259095e-09
-1.032973e-09
-2.261221e-10
1.024896e-10
-1.492384e-09
1.389894e-09
1.384927e-09
3.50689e-10
-1.735616e-09
1.783259e-09
-1.26183e-09
-5.214283e-10
-4.719772e-09
3.032786e-09
1.686986e-09
-1.50716e-09
1.404513e-09
1.026473e-10
-7.851568e-10
-1.17731e-09
-1.738733e-09
1.164111e-09
5.746221e-10
-8.84935e-11
1.420977e-09
-1.332483e-09
2.392699e-10
-1.528914e-09
1.289644e-09
-1.460662e-09
1.030006e-09
4.306561e-10
1.265943e-09
1.152297e-09
8.188029e-10
-1.9711e-09
8.152243e-10
-1.712575e-09
8.97351e-10
1.677441e-09
-1.18752e-09
9.041194e-10
-1.690897e-09
7.867773e-10
8.291049e-10
-1.645643e-09
8.165382e-10
-2.451081e-09
9.621442e-10
1.488937e-09
2.15859e-09
-5.975093e-10
-1.561081e-09
3.29269e-09
-3.806949e-09
5.142587e-10
-3.443074e-10
-1.057824e-09
1.402131e-09
6.71148e-10
-1.707427e-09
-8.027868e-10
-5.382613e-10
1.341048e-09
1.077456e-09
-1.556658e-09
-1.90751e-09
1.090092e-09
8.174185e-10
-1.359514e-09
-3.543438e-10
1.713858e-09
-2.248364e-09
1.240053e-09
-6.52666e-10
-7.338044e-10
1.38647e-09
-3.027078e-09
5.337287e-10
2.493349e-09
-4.00208e-10
-1.549808e-09
1.892375e-09
-8.02742e-10
-1.456203e-09
3.849634e-10
1.071239e-09
-2.133613e-09
8.268079e-10
1.306805e-09
1.523738e-09
-1.673109e-09
1.493712e-10
7.924021e-10
-1.701156e-09
6.902295e-10
8.221807e-09
1.468825e-10
-8.368689e-09
-1.238858e-09
1.289038e-09
-5.01803e-11
2.086176e-09
-9.88777e-10
-1.097399e-09
1.82606e-09
-2.016214e-10
-1.624439e-09
-2.086288e-09
1.325458e-09
7.608306e-10
-1.127983e-09
-4.058748e-09
1.67723e-09
-8.730329e-10
-8.041974e-10
2.086376e-09
-9.883057e-10
-1.09807e-09
-1.699844e-09
1.185765e-09
2.08678e-09
-9.889554e-10
-1.097825e-09
-5.388306e-10
-1.187749e-09
1.72658e-09
-1.777571e-09
7.907055e-10
9.868656e-10
1.668373e-09
3.802123e-12
8.255636e-10
-1.911494e-09
1.920959e-09
-1.233801e-09
-6.871574e-10
1.912812e-09
-1.038589e-09
-1.086579e-09
1.912665e-09
-1.48342e-09
2.015378e-09
-5.31958e-10
3.544686e-10
-1.529482e-09
1.895702e-09
-1.370199e-09
-5.255032e-10
2.797165e-10
1.335397e-09
-1.615114e-09
3.283528e-10
1.369042e-09
-1.697394e-09
-1.68484e-09
1.189275e-09
3.86556e-10
1.066762e-09
-1.670701e-09
9.549532e-10
-2.060789e-10
-1.06309e-09
-1.49176e-09
1.489428e-09
2.332522e-12
-7.638668e-10
2.071833e-09
-8.661111e-10
-1.286533e-09
2.152644e-09
-7.544586e-10
2.029817e-09
-1.275359e-09
1.737633e-09
-1.498363e-09
7.631414e-10
-1.5954e-09
8.322589e-10
5.671355e-10
6.662909e-10
-1.354208e-09
-1.011547e-10
1.455363e-09
-3.46461e-10
-1.333126e-09
1.679587e-09
-8.060101e-10
5.016229e-10
1.092072e-09
-1.593695e-09
-1.184604e-09
1.291574e-09
-1.069709e-10
-2.004852e-11
1.396652e-09
-1.376604e-09
1.097892e-09
9.884834e-10
2.086184e-09
-9.883673e-10
-1.097816e-09
-1.097477e-09
-9.888115e-10
7.701117e-10
-1.703926e-09
9.338139e-10
-7.225888e-10
1.768233e-09
-1.045644e-09
9.885322e-10
1.097652e-09
-2.086087e-09
1.347785e-09
7.383023e-10
1.911503e-09
-1.141391e-09
7.544444e-10
-2.035356e-09
-2.049105e-10
-1.024742e-09
1.229652e-09
-1.750777e-09
1.076926e-09
6.73851e-10
-1.097555e-09
-9.88656e-10
2.086211e-09
-4.232413e-10
-1.31055e-09
-1.227676e-09
1.10048e-09
1.271959e-10
3.208734e-10
1.236305e-09
1.07877e-09
-2.002303e-09
-4.764136e-10
-1.202595e-09
1.679009e-09
-1.699333e-09
5.896441e-10
1.109689e-09
-6.997478e-10
1.961558e-09
-1.26181e-09
1.706374e-09
-1.418571e-09
1.915097e-09
-1.152128e-09
-7.62969e-10
-7.179026e-10
1.8702e-09
9.882658e-10
8.365196e-10
-1.824785e-09
-1.126582e-09
1.591032e-09
-4.644505e-10
-9.638307e-10
-8.020871e-10
1.765918e-09
-1.912599e-09
1.085712e-09
8.268863e-10
-1.885129e-09
3.263753e-11
1.852491e-09
-1.896954e-09
1.550818e-09
3.461355e-10
1.310091e-09
-3.856351e-10
-9.244561e-10
3.303088e-10
1.530805e-09
-1.861113e-09
1.52879e-09
-1.798566e-09
1.893702e-09
-7.49126e-10
-1.144576e-09
5.512466e-10
1.316266e-09
-1.867513e-09
1.866041e-09
-1.216103e-09
-6.499382e-10
1.648446e-10
-1.403702e-09
-1.792688e-09
1.21699e-09
5.756977e-10
8.568653e-10
8.207858e-10
1.363889e-09
-1.947394e-09
-1.883343e-09
6.271205e-10
1.256222e-09
2.508367e-09
7.456159e-10
8.901771e-10
-2.185041e-09
1.294864e-09
-1.410935e-09
-2.523306e-10
1.663266e-09
-8.098412e-10
1.707479e-09
-8.976374e-10
-1.633246e-09
1.189893e-09
4.433525e-10
-8.240205e-10
-4.808721e-10
1.304893e-09
1.092041e-09
4.993724e-10
-1.684102e-09
8.965207e-10
7.215905e-10
8.565059e-10
-1.578096e-09
1.758293e-09
-5.309869e-10
-1.227306e-09
-1.912301e-09
8.257217e-10
-1.049235e-09
1.606281e-09
-5.57046e-10
1.107066e-09
-1.792503e-09
8.803032e-10
7.238416e-10
-1.604145e-09
4.31063e-10
-1.652693e-09
1.22163e-09
-1.002183e-09
-4.000072e-10
7.756992e-10
-1.248962e-09
4.732633e-10
9.362593e-10
9.846418e-10
-1.920901e-09
-8.321562e-10
1.340195e-09
-5.080387e-10
3.890002e-10
9.624486e-10
-1.351449e-09
-1.84313e-09
1.228076e-09
6.150536e-10
1.956091e-09
-1.381379e-09
-5.747116e-10
8.46489e-10
-1.726335e-09
-1.576018e-09
9.355328e-10
6.404849e-10
1.132251e-09
9.075547e-10
-2.039805e-09
4.030035e-10
-1.762518e-09
-1.617675e-09
1.132916e-09
4.847586e-10
8.314771e-10
7.383776e-10
-1.569855e-09
-1.140671e-09
-4.336824e-10
-5.135545e-09
2.09615e-09
3.039396e-09
-1.875938e-09
3.31464e-10
1.544474e-09
1.753829e-09
-7.544968e-10
3.012819e-09
1.500071e-09
-2.019241e-09
-1.344597e-09
4.257407e-11
-2.564472e-09
2.521898e-09
-6.252799e-10
-7.570877e-09
8.196157e-09
-1.355049e-09
-3.451917e-11
1.389569e-09
-7.675375e-11
-1.438214e-09
1.514967e-09
-2.133041e-09
5.076612e-10
1.62538e-09
-7.464809e-10
1.630135e-09
-8.83654e-10
-1.964964e-09
8.522255e-10
1.567375e-09
-7.245029e-10
-8.428722e-10
9.355717e-10
-1.680949e-09
7.453775e-10
1.681469e-09
-6.985331e-10
-9.829364e-10
-6.903377e-10
1.555532e-09
-8.651939e-10
-8.424616e-10
-5.829741e-10
1.425436e-09
7.601598e-10
1.275251e-09
-2.03541e-09
-5.495806e-10
-1.101343e-09
1.650924e-09
1.614173e-09
-3.126848e-10
-1.301489e-09
1.729867e-10
-1.611254e-09
1.438268e-09
-1.533338e-09
4.920492e-10
1.041289e-09
1.242124e-09
2.480762e-10
-1.4902e-09
1.280906e-09
-2.029746e-09
-8.566539e-10
1.686695e-09
-8.300409e-10
3.85693e-09
-2.959097e-09
-7.776027e-10
-1.151693e-09
1.929295e-09
-8.043372e-10
-1.011773e-09
1.816111e-09
-1.229437e-09
1.753615e-09
-5.241781e-10
1.06707e-09
-1.554755e-09
-6.60526e-10
-1.135639e-09
-9.546832e-10
-2.518384e-10
1.206522e-09
-6.349791e-10
1.418071e-09
-7.830917e-10
1.77713e-09
-1.013989e-09
1.542331e-09
-1.761691e-09
2.193599e-10
1.557005e-09
-1.594558e-09
3.755258e-11
1.917792e-09
-1.179765e-09
-7.380266e-10
-2.029115e-09
5.024142e-10
-2.246084e-09
6.38361e-10
1.607723e-09
-5.69797e-10
1.404138e-09
2.063252e-09
-9.579722e-10
7.714281e-10
-2.052183e-09
1.280755e-09
9.28318e-10
-1.52866e-09
6.003418e-10
6.933139e-10
1.200389e-09
-2.0629e-09
1.695096e-09
6.420173e-10
-1.934435e-09
1.292417e-09
6.105182e-10
-1.873235e-09
1.262717e-09
7.224054e-10
1.119391e-09
-1.841796e-09
8.662946e-10
5.521037e-10
-1.418398e-09
-1.820696e-09
1.227175e-09
-1.429725e-09
-5.806851e-11
1.487794e-09
3.704531e-10
-1.345887e-09
9.754344e-10
9.293443e-10
8.183792e-10
-1.747724e-09
9.932474e-10
8.984591e-10
2.9172e-10
-1.820869e-09
-1.259239e-09
1.384951e-09
-1.25712e-10
-5.747987e-10
1.956199e-09
-1.3814e-09
-1.370505e-09
-5.64041e-10
1.934546e-09
2.81747e-09
-2.021001e-09
-7.964692e-10
-1.60535e-09
6.577267e-10
9.476232e-10
-1.01102e-09
1.768345e-09
-7.57325e-10
-7.488391e-10
-1.249594e-09
-4.06502e-10
1.606551e-09
-6.701486e-10
1.997465e-09
-1.327317e-09
-1.676463e-09
1.276502e-09
3.99961e-10
-1.701083e-09
1.324432e-09
3.76651e-10
-4.915897e-10
-2.400397e-09
2.891987e-09
-9.625115e-10
9.842782e-10
-1.854492e-09
8.702134e-10
-1.098328e-09
-9.880407e-10
2.086369e-09
-4.484706e-10
1.7946e-09
-1.34613e-09
-1.574484e-09
9.395012e-10
6.349832e-10
1.546438e-09
2.24092e-11
-1.568847e-09
-8.653558e-10
-1.413069e-09
2.278425e-09
-1.381493e-09
1.738958e-09
-3.574653e-10
-1.738813e-09
1.363131e-09
-1.922927e-09
2.214647e-09
1.618303e-09
-1.139252e-09
-4.790504e-10
5.614136e-10
-1.824712e-09
1.263298e-09
-1.0868e-09
1.771199e-09
-6.843988e-10
-1.089463e-09
-6.401621e-10
1.729625e-09
7.380595e-10
8.083785e-10
3.298777e-09
1.009339e-09
-4.308116e-09
6.602112e-10
-1.781216e-09
1.121005e-09
-1.313093e-09
1.951837e-09
-1.803478e-09
1.008554e-09
7.949242e-10
9.248828e-10
9.906195e-10
-3.232585e-09
8.81131e-10
-1.937436e-09
1.056305e-09
-4.179706e-10
-1.504956e-09
9.721562e-10
7.092341e-10
1.488292e-09
-2.197526e-09
-1.333535e-09
1.173684e-09
1.598511e-10
-1.15213e-09
-4.243888e-10
-2.11839e-09
2.312438e-09
-1.940475e-10
-4.498237e-10
-1.325545e-09
1.775369e-09
-7.009296e-10
2.22819e-09
-1.527261e-09
1.308074e-09
-1.285664e-09
1.680868e-09
-9.322158e-10
-7.486518e-10
3.806744e-09
-3.070861e-10
-3.499658e-09
9.82773e-10
6.037823e-10
-7.883321e-10
1.553155e-09
-7.648225e-10
7.342744e-10
-8.282297e-12
-1.441669e-09
1.449951e-09
1.043474e-09
-7.961986e-11
1.488158e-09
1.327662e-09
5.180409e-10
-4.846337e-11
3.56295e-09
-7.652307e-10
-8.515856e-10
-7.550884e-10
7.38243e-10
3.068501e-09
-1.073291e-09
-7.042802e-10
1.345989e-09
-1.425609e-09
-7.620226e-10
-5.698816e-10
-1.110049e-09
-1.974714e-10
1.30752e-09
1.856604e-10
-1.803335e-09
-1.073294e-09
1.833453e-09
-1.440657e-09
3.090743e-10
1.930486e-09
-9.43001e-10
-1.82834e-09
5.745178e-10
1.253822e-09
-3.006377e-10
-1.415453e-09
1.71609e-09
1.529972e-09
4.11989e-10
-1.218723e-09
2.037526e-09
5.672197e-10
5.157212e-09
-1.290239e-09
8.875939e-10
4.026451e-10
-7.782762e-10
1.796251e-09
-1.017975e-09
-1.390447e-09
2.142251e-09
-7.518038e-10
-4.25335e-10
-1.563511e-09
1.516056e-09
4.745463e-11
-2.241367e-10
1.59929e-09
-1.375153e-09
-1.643077e-09
1.433856e-09
9.71902e-10
-1.718383e-09
6.883962e-10
1.068219e-09
-1.756615e-09
8.987915e-10
1.124882e-09
-2.023674e-09
1.96174e-09
-8.717566e-10
-1.089983e-09
1.182478e-09
3.848972e-10
1.713328e-09
-1.020025e-09
-6.933033e-10
1.859912e-09
-1.063602e-09
9.23964e-10
-1.699833e-09
-1.795107e-09
9.687678e-10
8.263391e-10
9.813206e-10
-1.387823e-09
-1.917187e-09
9.288507e-10
-1.63007e-09
8.941085e-10
7.359614e-10
1.599526e-09
-7.956872e-10
-8.038389e-10
7.063302e-10
-5.065099e-10
-1.838936e-09
1.229058e-09
6.09878e-10
1.195011e-09
-1.737358e-09
5.423471e-10
-2.679482e-10
1.757819e-09
-1.82145e-09
8.603335e-10
9.611165e-10
3.666895e-10
1.103363e-09
-1.470052e-09
-1.852147e-09
6.95015e-10
1.157132e-09
1.256268e-10
-1.531182e-09
1.405556e-09
1.886421e-09
-1.335174e-09
1.401408e-09
1.481004e-09
-1.078384e-10
-1.373166e-09
-2.024626e-09
4.957127e-10
-1.829741e-09
1.257333e-09
5.724072e-10
-1.171236e-09
1.712715e-09
-5.414795e-10
1.020976e-09
-1.800585e-09
4.567994e-10
-1.720633e-09
1.263834e-09
-1.205146e-09
2.894829e-10
9.15663e-10
1.129187e-09
-1.679972e-09
9.735293e-10
-1.717332e-09
7.438023e-10
6.567943e-10
-2.047242e-09
-1.312349e-09
1.558473e-09
1.895204e-09
-1.234993e-09
-7.173678e-10
9.940853e-10
5.738266e-10
-1.567912e-09
7.752684e-10
-3.038795e-10
-1.030932e-09
1.334812e-09
3.302702e-10
2.009018e-09
-2.339288e-09
-1.223466e-09
-6.719681e-10
1.895434e-09
-1.005673e-09
1.205898e-09
-1.524441e-09
3.185429e-10
-1.736071e-09
9.317339e-10
-8.753967e-10
-7.400797e-10
-1.21932e-09
-3.052081e-10
1.524528e-09
8.653714e-11
-1.430452e-09
1.343915e-09
-6.735621e-10
1.821265e-09
-1.147702e-09
-1.0975e-09
1.354801e-09
-5.475717e-10
-8.072298e-10
-7.190285e-10
-9.827303e-10
1.701759e-09
-1.213591e-09
8.692832e-10
-1.991956e-09
1.140366e-09
1.937836e-09
4.058176e-10
-2.343654e-09
-1.120175e-09
-4.022755e-10
1.52245e-09
-1.576855e-09
6.774938e-10
8.993614e-10
-8.468508e-10
1.932166e-09
-1.085315e-09
-1.213586e-09
1.20284e-09
1.074594e-11
-1.658277e-09
9.392489e-10
-1.254162e-09
2.182317e-09
1.176941e-09
7.821546e-10
1.188914e-09
-1.301392e-09
-8.693618e-10
2.170753e-09
-1.911704e-09
8.433237e-10
1.06838e-09
-9.278415e-10
-7.76084e-10
2.086252e-09
-1.097719e-09
-1.790746e-10
1.679574e-09
-1.500499e-09
7.756818e-10
1.216347e-09
-9.268936e-10
1.825685e-09
1.21901e-09
6.369992e-10
-1.85601e-09
-3.678057e-10
-1.576934e-09
1.94474e-09
1.913016e-09
-1.086689e-09
-1.195455e-09
1.874462e-09
-6.790074e-10
-8.021355e-11
1.778687e-09
-1.698473e-09
1.158476e-09
-1.691983e-09
5.335073e-10
-1.492365e-09
7.380403e-10
7.543247e-10
-1.256814e-09
-6.314449e-10
1.888258e-09
-2.101785e-09
7.840633e-10
1.175733e-09
9.665182e-10
2.748204e-10
9.746158e-10
-1.249436e-09
9.338171e-10
-1.829782e-09
8.959649e-10
-1.317276e-09
1.97407e-09
-4.182366e-09
1.65647e-09
2.525896e-09
-1.669329e-09
1.209707e-09
-1.690801e-09
9.006704e-10
1.556605e-09
-1.484999e-09
-7.160669e-11
1.395287e-09
-1.633417e-09
8.817078e-10
2.810121e-09
1.11416e-09
2.270034e-10
-1.267084e-09
7.521653e-10
5.14919e-10
-1.441495e-09
5.447626e-10
8.967327e-10
-3.021028e-10
-1.025716e-09
1.157441e-09
-1.446041e-09
2.885998e-10
-1.44776e-09
1.415781e-09
3.197882e-11
-1.639114e-09
-1.46739e-09
7.045266e-10
7.628631e-10
1.309218e-09
-3.498065e-10
-9.594117e-10
2.168203e-09
1.089088e-09
8.264609e-10
-1.915549e-09
-6.505204e-10
1.290261e-09
1.155394e-09
-2.445655e-09
-6.266448e-10
-7.608035e-10
1.850895e-09
6.870253e-10
-1.553523e-09
8.664978e-10
-9.762256e-10
-9.088952e-10
1.885121e-09
-1.699959e-09
3.663002e-10
1.333659e-09
-1.891588e-09
9.405733e-10
9.51015e-10
-1.449906e-09
4.006715e-10
-1.290585e-09
-3.975546e-10
-1.273468e-09
1.375958e-09
1.644239e-09
-7.914606e-10
-8.527789e-10
-1.592905e-09
-2.105731e-10
-1.34497e-09
1.776033e-09
-1.34627e-09
2.196882e-10
-1.001984e-09
1.643111e-09
-6.411269e-10
2.179529e-09
-1.20248e-09
-9.770492e-10
1.587069e-09
-8.87051e-10
-7.000181e-10
-1.597988e-09
6.953786e-10
9.026098e-10
-1.10621e-09
-1.505088e-09
1.525131e-09
-2.004306e-11
4.592379e-10
1.03739e-09
-1.496628e-09
5.557242e-10
-1.551222e-09
9.954975e-10
1.275328e-09
-2.029787e-09
1.041807e-09
1.099389e-09
-2.141196e-09
-1.25852e-09
-1.192561e-09
-1.693591e-09
1.192167e-09
5.014244e-10
-1.088777e-09
1.084378e-09
-1.911578e-09
8.272e-10
1.099795e-09
8.130341e-10
-1.912829e-09
-8.320862e-10
1.805616e-09
9.943693e-10
-1.915986e-09
-2.01836e-09
1.089539e-09
1.82571e-09
-8.313409e-10
1.698407e-09
1.713181e-09
-1.22842e-09
-4.847608e-10
-9.56785e-10
1.772009e-09
8.881987e-10
-1.70778e-09
1.819041e-09
-7.192459e-10
9.056896e-10
-1.730771e-09
-5.549152e-10
-7.786195e-10
-1.844847e-09
8.264895e-10
1.018357e-09
-1.63055e-09
4.539185e-10
-1.55277e-09
-1.151729e-09
-1.138931e-09
-1.585386e-09
-9.017036e-10
1.711226e-09
-8.095225e-10
1.293235e-09
-7.638834e-10
1.617683e-09
1.148903e-09
1.174431e-10
-1.266346e-09
1.616657e-09
-1.488704e-09
1.128114e-09
-6.487017e-10
1.941936e-09
8.129117e-10
9.593642e-10
-1.772276e-09
2.167613e-09
-8.491978e-10
-1.318415e-09
-8.62588e-10
-1.271025e-09
8.502722e-10
1.179479e-09
-9.888972e-10
-1.097692e-09
1.065917e-09
8.491805e-10
-1.231508e-09
1.887986e-09
-6.564781e-10
1.915423e-09
-6.75687e-10
-1.239736e-09
-8.522415e-10
-7.254597e-10
1.107949e-09
-1.49237e-09
1.134119e-09
-1.680048e-09
1.682173e-09
-1.554413e-09
-1.277607e-10
-2.584201e-10
1.940593e-09
5.640173e-10
-1.408993e-09