/*--------------------------------*- C++ -*----------------------------------*\
| =========                 |                                                 |
| \\      /  F ield         | OpenFOAM: The Open Source CFD Toolbox           |
|  \\    /   O peration     | Version:  2406                                  |
|   \\  /    A nd           | Website:  www.openfoam.com                      |
|    \\/     M anipulation  |                                                 |
\*---------------------------------------------------------------------------*/
FoamFile
{
    version     2.0;
    format      ascii;
    arch        "LSB;label=32;scalar=64";
    class       volVectorField;
    location    "0.54";
    object      U;
}
// * * * * * * * * * * * * * * * * * * * * * * * * * * * * * * * * * * * * * //

dimensions      [0 1 -1 0 0 0 0];

internalField   nonuniform List<vector> 
4529
(
(0.01050009 -0.001017649 0)
(0.008860833 -0.000439278 1.153961e-24)
(0.009031425 0.0001918105 -9.953501e-25)
(0.007797279 -0.0005932765 -3.096653e-24)
(0.008390576 0.0003217752 1.456976e-24)
(0.008656823 0.001272339 0)
(0.009299615 0.0006569444 0)
(0.00927989 0.001217101 -2.135679e-25)
(0.008596221 -0.0001177601 -1.075291e-24)
(0.009410496 -0.0006362759 6.289078e-26)
(0.01073595 -0.0002143258 -1.322187e-25)
(0.01002515 -0.0009177881 -6.205791e-25)
(0.009889358 -0.0005964967 3.2258e-25)
(0.01001303 -0.0008900021 -5.981741e-25)
(0.009379462 -0.0003780814 0)
(0.009731278 -0.0005317553 2.948586e-25)
(0.008647199 -0.0007747682 0)
(0.009677528 -0.0007518683 5.864186e-25)
(0.01018678 -0.0004234541 0)
(0.009458339 -0.001030361 -7.20699e-26)
(0.01006549 -0.0004776812 -1.910891e-27)
(0.009525459 -0.0005760434 9.043393e-25)
(0.00944677 -0.0001303662 -2.491923e-25)
(0.009110058 -0.000401663 0)
(0.0100436 -0.0004318573 2.094798e-26)
(0.009163082 -0.0006238956 -3.314155e-26)
(0.00970167 0.001291106 -4.355479e-25)
(0.008405857 0.0007100211 -9.388438e-25)
(0.008887746 0.001084447 1.327376e-24)
(0.0081081 0.0001601146 -1.341113e-24)
(0.01017782 -0.0007055656 2.366136e-25)
(0.009428493 0.0001382185 3.44487e-25)
(0.009733498 -0.0004402845 0)
(0.01030654 -0.0006310077 0)
(0.01108599 -0.0005645858 0)
(0.008947784 0.0006924666 1.730645e-24)
(0.009132401 -0.0003805561 -3.46484e-25)
(0.009964074 -0.001035512 0)
(0.008510172 -0.000937575 -2.497498e-24)
(0.01079533 -0.0008893296 1.027022e-24)
(0.009407754 -0.0002421591 -2.013997e-26)
(0.009744262 -0.0004009783 -3.352595e-25)
(0.009332417 -0.0002140844 -5.700077e-25)
(0.01017231 -0.0005677279 0)
(0.0101574 -0.0005252891 -3.872787e-27)
(0.01082831 -0.0007572874 4.043792e-25)
(0.009306904 9.349571e-05 0)
(0.008907039 -0.0003821661 0)
(0.01017557 -0.0003749214 -5.463285e-27)
(0.008643286 0.0001355177 -1.277267e-24)
(0.007004602 -0.0002677292 5.853126e-24)
(0.009292514 -0.0005098121 -3.145676e-25)
(0.006950009 0.0003682678 0)
(0.01056803 -0.0007904981 3.171536e-26)
(0.00919612 -0.001124878 2.38873e-25)
(0.008613706 -0.0003214958 -9.284821e-25)
(0.008673603 -0.0001136968 0)
(0.01084647 -0.0001187609 1.571856e-24)
(0.007838018 0.0009747614 6.371885e-24)
(0.007581472 -0.0009224075 -4.534073e-24)
(0.009149166 0.00104513 1.126031e-24)
(0.01070011 -0.0007149059 0)
(0.009871393 -0.0004367029 -3.355477e-25)
(0.007576912 -0.001001605 0)
(0.009149096 0.0004110025 0)
(0.01048195 -0.0007792175 -6.428911e-28)
(0.01014738 -0.001097014 1.00372e-24)
(0.009492174 -0.0003364648 3.084875e-25)
(0.00909044 9.579506e-05 0)
(0.01121919 -0.0003847437 0)
(0.009146397 -1.887766e-05 1.99144e-24)
(0.008774864 -0.0003190987 1.17427e-24)
(0.008082607 -0.000129024 -1.070514e-24)
(0.00976199 -0.0004307538 -4.255988e-25)
(0.007002958 0.00032495 -1.72901e-24)
(0.008273969 -0.000960768 -3.429034e-24)
(0.01090711 -0.0008249617 9.183131e-25)
(0.01058444 -0.0002914877 0)
(0.008218712 -0.001226311 4.166274e-24)
(0.008731205 0.000247455 2.80268e-25)
(0.008254564 -0.0001014421 2.138197e-24)
(0.009275591 0.0002590712 6.80506e-25)
(0.010304 -0.0004824843 -1.887015e-26)
(0.009442419 -0.0006344739 -1.778223e-25)
(0.008939017 -0.0007870835 -7.701897e-25)
(0.009752118 -0.0005963372 9.300965e-25)
(0.01016269 -0.0004272134 0)
(0.01056906 -0.0006075941 0)
(0.01082624 -0.0007059541 0)
(0.01042807 -0.001092827 1.504907e-24)
(0.007143163 -0.0005656627 2.135319e-24)
(0.009643662 -0.0003406307 0)
(0.01026598 -0.0004309357 -2.958155e-26)
(0.009323581 0.0004560187 -2.254567e-25)
(0.009558235 -0.0003091509 0)
(0.01012208 -0.0009335658 -6.984537e-25)
(0.007680166 -0.0003008662 -3.187643e-24)
(0.009387628 -0.001200799 -2.490601e-25)
(0.009264795 0.001300081 7.604912e-24)
(0.009070073 -0.0008010998 -1.107383e-24)
(0.009769332 -0.0005308116 0)
(0.008351728 -0.0006604719 -1.525857e-25)
(0.008932194 0.0004205499 1.021044e-24)
(0.009427119 -0.00119169 -2.485753e-25)
(0.009474448 -0.0004622191 -4.932359e-25)
(0.01084201 -0.0007747423 1.567414e-25)
(0.00957472 -0.001320527 4.629336e-24)
(0.01091187 -0.0007221411 -4.429181e-26)
(0.01055001 -0.0005817989 -4.362514e-25)
(0.01034399 -0.000907451 4.198437e-26)
(0.00996612 -0.0004103152 3.937967e-26)
(0.009395557 0.000328701 2.910436e-25)
(0.008052141 0.0007103678 0)
(0.008535323 0.000901768 6.277608e-24)
(0.008021617 -0.0002298529 0)
(0.009515841 -0.0003888899 -5.018012e-25)
(0.009944475 -0.001176105 -1.892106e-24)
(0.009138704 0.001064773 1.662146e-24)
(0.00930471 -0.0005937664 -4.904062e-25)
(0.009995149 -0.0006613327 0)
(0.009627859 -0.001251197 0)
(0.009133027 0.0003529227 -1.17894e-25)
(0.01056892 -0.0009865741 0)
(0.01005919 -0.001092315 -1.271872e-24)
(0.009490106 -0.0004067213 2.485621e-25)
(0.008587296 -0.000775985 0)
(0.009271894 0.001061447 0)
(0.01048913 -0.0006498753 1.906717e-26)
(0.009351077 -0.0004025347 0)
(0.008457226 -0.00106413 -2.570807e-24)
(0.009203713 0.0004916062 5.929776e-26)
(0.009211223 0.001278242 4.658383e-24)
(0.007097425 -0.0006079728 -5.29976e-24)
(0.0105174 -0.0009262466 2.831489e-25)
(0.01080461 -0.0008701149 0)
(0.01036189 -0.0006433971 -8.022371e-26)
(0.01041565 -0.000618842 0)
(0.01009906 -0.0005741895 -7.508506e-26)
(0.01007648 -0.0009896067 0)
(0.009215939 -0.000879097 0)
(0.009680338 -0.001188739 1.837777e-24)
(0.009772128 -0.001055139 -3.005481e-24)
(0.00981485 -0.0007005906 -4.552761e-25)
(0.008799177 -0.0009224044 -2.391542e-24)
(0.007644346 3.277445e-05 3.274336e-25)
(0.009266216 0.001188815 1.844412e-24)
(0.01059565 -0.0009643929 -1.232648e-24)
(0.00800497 0.0001683739 1.355628e-24)
(0.009318519 0.0009646612 0)
(0.009233904 -0.0005814769 4.608351e-25)
(0.008943086 -8.692985e-05 4.652365e-25)
(0.008567033 0.0008239343 -5.931949e-25)
(0.009064246 -0.001044462 1.682678e-24)
(0.009755942 -0.0004834155 3.572e-25)
(0.009136961 0.001316459 5.397142e-24)
(0.009940757 -0.000699742 -4.305086e-25)
(0.01032243 -0.0007540786 0)
(0.009268318 -0.00121522 0)
(0.009773227 -0.000769085 -7.197215e-25)
(0.00903081 0.0002203291 1.060919e-24)
(0.01119098 -0.0005696806 0)
(0.00999738 -0.0005223008 2.868618e-25)
(0.008729589 -0.001190252 -1.545198e-25)
(0.009911177 -0.001241773 1.433555e-24)
(0.01008019 -0.0004595226 8.943754e-26)
(0.01016173 -0.0004382623 0)
(0.01012967 -0.0005614109 3.856499e-26)
(0.009324387 -0.0009580464 0)
(0.01011536 -0.00121446 0)
(0.009220549 0.0006981702 -1.481557e-24)
(0.008073637 0.001035522 0)
(0.009311648 0.0002356472 0)
(0.007225663 -0.0008473494 3.344838e-24)
(0.01033788 -0.0005372011 3.697037e-26)
(0.01095885 -0.0008107634 0)
(0.008912098 0.0009753998 -8.95779e-25)
(0.009979176 -0.001096079 -2.051558e-24)
(0.00798217 -0.001186443 -4.221075e-24)
(0.00703035 -0.0006963526 -2.645224e-25)
(0.01121755 -0.000580391 0)
(0.01035602 -0.0005621679 -1.094207e-25)
(0.00904983 -0.000658477 0)
(0.00912472 5.966009e-05 1.680861e-24)
(0.009251967 1.41662e-05 1.001435e-24)
(0.01130539 -0.0003646828 -3.820064e-25)
(0.00732691 -0.001042592 -3.794442e-24)
(0.009386572 -0.001131036 -1.35758e-24)
(0.009990739 -0.000645668 -5.058324e-25)
(0.00802426 -4.443893e-05 6.325377e-25)
(0.01001068 -0.0006937689 0)
(0.009033549 0.001075755 4.747023e-25)
(0.0072348 -0.0003793259 0)
(0.01049354 -0.0005739653 0)
(0.009161777 0.001240029 -8.775796e-26)
(0.009193714 -0.0006928816 0)
(0.01087286 -0.0007032784 -8.973994e-26)
(0.01024747 -0.0005455119 0)
(0.007558233 -0.0002888777 0)
(0.01127276 -0.0004250403 8.949157e-25)
(0.01009359 -0.0004797691 -1.398016e-26)
(0.009329559 0.000412615 7.335576e-25)
(0.01079802 -0.000547078 3.271414e-25)
(0.009361958 5.390623e-05 -2.125962e-25)
(0.007252175 0.0002631246 0)
(0.009556312 -0.0003971905 0)
(0.00894143 -0.0004788473 -1.085865e-24)
(0.008478694 -0.001099683 0)
(0.008909903 -0.0004444609 0)
(0.008687662 0.0006335539 0)
(0.007468465 -0.0008991036 4.127948e-24)
(0.01036802 -0.0006689582 3.852423e-27)
(0.008541942 0.0004225594 3.317218e-25)
(0.01028742 -0.0008305352 0)
(0.009006794 -0.001102394 2.633339e-24)
(0.009250401 -0.0008889844 1.647172e-24)
(0.009114767 0.000891797 0)
(0.009512587 -0.0008725286 0)
(0.009656584 -0.0006156011 -1.112045e-24)
(0.008914539 0.0003508308 0)
(0.01105015 -8.194319e-06 -2.321391e-24)
(0.00911573 -0.0008950657 -1.204878e-24)
(0.009922228 -0.0004950626 7.16838e-26)
(0.009453731 -0.0009230663 -8.622353e-25)
(0.01008043 -0.000716695 -2.139035e-27)
(0.01013216 -0.0009618509 -1.817862e-24)
(0.01095286 -0.0005810995 -1.025103e-26)
(0.009526305 -0.0003442049 -8.662091e-25)
(0.008728602 -0.0001643849 -4.847221e-25)
(0.008678013 -0.001274104 3.495671e-24)
(0.009783188 -0.0004072015 8.998132e-25)
(0.009281294 0.001320642 0)
(0.007350842 0.0006547862 5.717003e-24)
(0.008745823 -0.001374901 0)
(0.01019835 -0.0008078324 -3.059567e-25)
(0.008644363 -0.0005677183 -8.068077e-25)
(0.009088368 0.001017422 1.530471e-24)
(0.01013293 -0.001171519 2.124779e-25)
(0.008885867 -0.001165792 -2.380947e-24)
(0.01025075 -0.0005319614 -1.624396e-26)
(0.0089084 0.0002294813 5.216791e-25)
(0.008637886 0.0004060224 0)
(0.0102182 -0.0005126543 0)
(0.009804359 -0.0005838588 5.83441e-25)
(0.007529433 -0.0004952926 3.105325e-24)
(0.01070823 -0.0003399999 6.073023e-26)
(0.009013907 -0.001127145 -3.413548e-25)
(0.008290759 -0.001280742 3.670327e-24)
(0.009554512 -0.0006391698 0)
(0.009838106 -0.0009915618 -5.809819e-25)
(0.01033775 -0.0004790567 0)
(0.00983134 -0.001268959 -3.126986e-25)
(0.01048599 -0.0004402999 0)
(0.008172271 -0.0003717916 -2.087514e-24)
(0.01088544 -2.555503e-05 0)
(0.01119051 -0.0006130701 -3.638967e-25)
(0.0102799 -0.0009764467 6.047724e-25)
(0.008201172 -2.637005e-05 0)
(0.007540586 0.0007554073 -1.558663e-24)
(0.008083708 -0.0006287541 0)
(0.009478885 -0.0006516095 5.18552e-25)
(0.01051161 -0.0002517015 0)
(0.009697518 -0.0003572858 -3.287229e-25)
(0.009391634 -0.0003405255 -4.79074e-25)
(0.009967155 -0.0007976656 4.729446e-25)
(0.009105744 0.0002472426 0)
(0.008115194 0.0009401466 3.358521e-24)
(0.009116472 -0.000350957 3.689096e-25)
(0.01031595 -0.001157116 -6.795036e-26)
(0.008800981 -0.0004693073 9.525503e-25)
(0.009679487 -0.0005600991 2.622371e-25)
(0.009249551 -0.0007855101 0)
(0.009995095 -0.0005807697 -3.181417e-25)
(0.01064919 -0.0009574797 0)
(0.01019298 -0.001195021 -3.025216e-24)
(0.007647666 0.0009141265 1.049201e-24)
(0.01003987 -0.0004823567 -1.545965e-25)
(0.01010161 -0.0005465244 0)
(0.01020385 -0.0005816973 4.351109e-26)
(0.00827183 -0.0008474327 5.411617e-25)
(0.008770449 -0.001366663 0)
(0.00996758 -0.0009406101 4.735146e-25)
(0.009353899 0.0003625987 5.312365e-25)
(0.01032036 -0.0006982078 -9.833871e-26)
(0.009416343 -0.001247902 0)
(0.01013339 -0.0004749022 -4.881007e-26)
(0.009063482 0.000181584 -6.490629e-25)
(0.009226855 0.0008634946 0)
(0.01013892 -0.0005773191 -2.162884e-25)
(0.00878298 -0.0006730494 0)
(0.009589172 -0.0009211247 -5.767137e-25)
(0.009683236 -0.00130638 0)
(0.01063609 -0.0009408338 1.307051e-24)
(0.01022617 -0.0009791012 8.888563e-25)
(0.009068379 -0.0001459817 5.456517e-25)
(0.008785829 0.0001968643 2.797708e-26)
(0.01045065 -0.0009154477 5.494082e-25)
(0.009282526 0.0001057529 0)
(0.009311527 -0.001088294 0)
(0.009758956 -0.0005818206 -7.07448e-26)
(0.009718115 -0.001053637 -1.991733e-24)
(0.009218766 -5.702872e-05 -2.674079e-25)
(0.009085408 -0.0002625527 0)
(0.008726354 0.0005668904 9.35529e-25)
(0.01109108 -0.0003545885 0)
(0.01016225 -0.001077852 -9.721588e-25)
(0.008986938 0.0009514788 3.497524e-24)
(0.009688074 -0.001292846 0)
(0.00943847 -0.0004983194 6.297769e-25)
(0.008690552 -0.0007118545 0)
(0.009836355 -0.0007699986 5.248718e-26)
(0.009717703 -0.0006898781 0)
(0.009266413 0.0006366995 0)
(0.0104504 -0.0004782363 -1.035758e-25)
(0.00916248 -0.0005782754 0)
(0.01004367 -0.001224075 0)
(0.01025015 -0.001076112 0)
(0.00924869 0.0004189705 8.131012e-25)
(0.009374193 0.0004006118 0)
(0.007966428 0.001161648 -1.765323e-24)
(0.01082267 -0.0006082227 1.98715e-25)
(0.01041602 -0.0008788839 0)
(0.01096099 -0.0005303881 -6.272554e-25)
(0.00887245 0.0003466885 0)
(0.008364819 -0.000547622 1.165986e-24)
(0.01002935 -0.0009692648 -1.5331e-24)
(0.008635038 -0.0001987434 -2.585853e-24)
(0.009786757 0.001248401 1.985991e-24)
(0.01000265 -0.0004161851 3.730155e-25)
(0.009861169 -0.0005512854 3.505731e-25)
(0.01005232 -0.0004542465 2.3643e-25)
(0.01005438 -0.000516001 5.649108e-26)
(0.009938118 -0.0004808955 0)
(0.009851996 -0.0004195285 0)
(0.009186794 -2.721073e-05 -3.259368e-26)
(0.01072909 -0.0007550499 0)
(0.007981724 0.0004098244 0)
(0.00827472 0.0006460146 -9.024653e-26)
(0.008964708 0.0008265672 0)
(0.009897741 -0.0003958833 2.578454e-25)
(0.009605205 -0.0004805922 4.312042e-25)
(0.009475482 -0.0003229419 0)
(0.009432958 -0.001164452 -2.67542e-24)
(0.01122304 -0.0004529145 -1.149004e-24)
(0.008657722 0.001110808 -9.242358e-26)
(0.009230259 -0.001279888 0)
(0.01079337 -0.0006116367 2.055042e-26)
(0.008988781 0.0003552954 0)
(0.008430531 0.001142477 6.732625e-26)
(0.008247482 0.0006881195 -2.042491e-24)
(0.009378336 5.093496e-05 1.748869e-25)
(0.009566221 -0.0006077357 -1.642585e-25)
(0.01082061 -0.0005063077 3.351158e-25)
(0.009338657 0.0002787602 3.921128e-25)
(0.009290982 0.0003188948 -7.465883e-25)
(0.01084342 -0.0007910668 1.13518e-25)
(0.008540042 -0.0005146943 1.615378e-24)
(0.008703173 0.001164655 -4.351218e-25)
(0.01095254 -0.0001035844 1.15207e-24)
(0.009195171 -0.0005317198 0)
(0.009266209 -0.0002597798 -1.269412e-24)
(0.009816691 -0.0004407737 -4.278322e-25)
(0.01099008 -0.0008117937 1.048907e-24)
(0.008838963 -0.0001401711 0)
(0.009862144 -0.0006396785 3.866804e-25)
(0.01005994 -0.0008340518 -2.182496e-25)
(0.01031553 -0.0006574548 0)
(0.010314 -0.000790337 -3.877825e-25)
(0.008505001 -1.306972e-05 1.117371e-24)
(0.009313827 0.0007102 7.469004e-25)
(0.01054171 -0.001073488 3.252618e-24)
(0.0103502 -0.0007207461 0)
(0.009887452 -0.0007103393 -4.573326e-25)
(0.009596657 -0.001011953 0)
(0.010544 -0.0005423499 5.802565e-26)
(0.009437979 -0.000816061 4.230068e-25)
(0.009915778 -0.0003510294 -1.204351e-25)
(0.01039221 -0.0002517397 0)
(0.007525086 -0.0003844104 3.689547e-24)
(0.006993323 -0.0001583247 -1.73377e-24)
(0.009624113 -0.00107162 -6.002584e-25)
(0.00971591 -0.0007737684 5.562851e-25)
(0.01061104 -0.0007424125 -3.580414e-25)
(0.01032436 -0.0004518882 -1.181394e-25)
(0.01020298 -0.0006071448 2.14941e-25)
(0.0110555 -0.000755389 6.354894e-25)
(0.01016009 -0.0005789652 1.02043e-25)
(0.00939549 -0.001339175 -1.95407e-24)
(0.01122817 -0.0004034132 0)
(0.008495017 0.0001207454 -1.335364e-24)
(0.01010383 -0.000407546 0)
(0.007491612 0.0004941416 1.162336e-25)
(0.01100528 -0.0006557525 -1.990491e-26)
(0.01115865 -0.0002398271 1.92495e-24)
(0.008991214 0.0005882013 0)
(0.010714 -0.000983866 0)
(0.008982834 0.000650186 1.295508e-24)
(0.009135709 0.0007090376 6.174583e-25)
(0.009195559 0.0009519352 -1.027597e-24)
(0.009096677 0.0006448321 0)
(0.008641832 0.0005921023 0)
(0.009431015 0.0007972629 0)
(0.01091659 -0.0005946021 -3.810075e-26)
(0.007467747 0.0002696108 0)
(0.007639463 0.00044541 0)
(0.007513708 0.0002302515 -2.89179e-24)
(0.009803365 -0.0007420172 -2.815844e-25)
(0.007733145 0.0005778712 -2.225532e-24)
(0.009791572 -0.0004876329 -2.228541e-26)
(0.0110467 -0.0006331781 0)
(0.009075753 -0.0003405619 -7.392406e-25)
(0.008552626 -4.04185e-05 1.120494e-24)
(0.009517843 -0.0005535808 -5.744287e-25)
(0.008166043 0.0006785894 2.013952e-24)
(0.009200917 1.018932e-05 -7.616767e-25)
(0.01038523 -0.0005981429 5.174739e-26)
(0.009787967 -0.0005093481 0)
(0.009757749 -0.0006840087 5.627797e-25)
(0.008756791 -0.0005718857 -1.217079e-24)
(0.01011576 -0.0006933152 5.058069e-25)
(0.01061884 -0.0006304835 1.590403e-27)
(0.007920156 -0.00105033 -2.592562e-24)
(0.01011969 -0.001204145 0)
(0.007578962 -0.0007093014 3.937718e-24)
(0.008728716 0.00101347 0)
(0.007890928 -0.001208686 -5.224914e-24)
(0.007120617 -0.0002310965 -1.161485e-24)
(0.009149804 0.001296461 0)
(0.009618159 -0.001151766 1.662749e-24)
(0.01094718 -0.0008434423 -4.081299e-25)
(0.009019523 -0.0007810574 -4.161297e-25)
(0.009863741 -0.0004696397 2.058222e-25)
(0.0110049 -0.0007449429 1.312168e-25)
(0.007727945 -0.001133841 -4.099074e-24)
(0.007255681 0.0003895735 3.9901e-24)
(0.01070134 -0.0006453507 -1.491219e-25)
(0.009506084 -0.0004385322 -7.207788e-25)
(0.01041461 -0.0005732958 -1.245519e-25)
(0.01025639 -0.0005672831 4.391248e-26)
(0.008527611 -0.0004366089 0)
(0.01049207 -0.0006616075 3.143591e-26)
(0.01041224 -0.001117959 -2.136966e-25)
(0.0101258 -0.000721451 3.180966e-25)
(0.009543289 -0.001314932 0)
(0.009172532 -0.000388906 0)
(0.009381032 0.0005978718 -6.813805e-26)
(0.009429366 0.0005870031 0)
(0.01072213 -0.0006571075 2.562626e-25)
(0.009314313 0.0005459987 -2.335635e-25)
(0.009305195 0.0004177845 -4.610457e-25)
(0.008850741 0.0005887716 0)
(0.008731521 -0.001143889 -1.773707e-24)
(0.009550168 -0.0009997062 1.941541e-24)
(0.009090312 -0.0009299147 7.105485e-25)
(0.009797931 -0.000851094 3.865412e-25)
(0.009956886 -0.0009131102 -1.083667e-24)
(0.009778725 -0.001294338 -2.315889e-24)
(0.009522387 -0.0003014546 0)
(0.009190248 -0.001208967 3.259492e-24)
(0.01087758 -0.000869686 -7.403168e-25)
(0.009821487 -0.0006709541 1.077432e-24)
(0.01071766 -0.0008191129 -3.133556e-25)
(0.01042115 -0.00105984 1.007927e-25)
(0.009187774 6.1478e-05 0)
(0.01127979 -0.0004308796 0)
(0.009322014 0.001167024 3.018229e-25)
(0.008475076 0.0005307064 -4.979402e-25)
(0.009632257 -0.000365668 0)
(0.009902011 -0.0008688833 2.613542e-25)
(0.01037254 -0.0008596661 5.659629e-25)
(0.009902582 -0.0004168706 9.319769e-26)
(0.01032303 -0.0006423242 0)
(0.0112057 -0.0005413702 5.252148e-25)
(0.00889941 0.0007218319 0)
(0.009173478 -0.0001916178 0)
(0.007881798 -0.0001470085 0)
(0.01009186 -0.0004002648 0)
(0.00840901 0.0005613992 6.912845e-26)
(0.009309801 -0.0001095338 -4.371192e-25)
(0.01034848 -0.0006346386 -6.556203e-27)
(0.009536211 -0.0004022359 -6.373417e-26)
(0.01123323 -0.0005534031 7.683487e-26)
(0.01091499 -0.0008659159 3.379661e-25)
(0.0109072 -0.0008685685 0)
(0.009940013 -0.0004324419 2.562634e-25)
(0.009307055 -0.0003847133 0)
(0.01100393 -0.0007055663 0)
(0.008711548 0.0004929891 0)
(0.01044565 -0.0005447857 -1.208708e-26)
(0.009351995 -0.0008572722 7.768926e-25)
(0.009170536 0.001168735 0)
(0.007223827 -0.001114605 7.051269e-25)
(0.008925393 -2.459021e-05 -5.862491e-25)
(0.008798651 0.0001270353 0)
(0.009897455 -0.0003646544 2.385172e-25)
(0.009359946 0.0006573984 5.496946e-25)
(0.008605469 0.0003602394 1.148658e-24)
(0.008514976 3.65082e-05 3.524839e-24)
(0.008314088 0.0001576422 2.393242e-24)
(0.009177165 0.0005627545 -7.320691e-25)
(0.008242931 0.000548156 -1.454124e-24)
(0.008726634 0.0003176796 0)
(0.009804898 -0.0003916163 -2.580075e-25)
(0.009263841 -0.0009083291 -1.231358e-24)
(0.01067974 -0.001000309 0)
(0.01073478 -0.0009622248 0)
(0.009706577 -0.0004815882 2.075992e-25)
(0.009993173 -0.0004327457 0)
(0.009951895 -0.000427127 -2.297031e-25)
(0.009809796 -0.0004178749 -1.775141e-26)
(0.009841392 -0.0005985233 -4.447895e-25)
(0.009926622 -0.0004490815 -2.240565e-25)
(0.01002137 -0.0005153632 -2.176565e-25)
(0.008668233 -0.0001859643 -1.460778e-24)
(0.01057693 -0.0003641335 -3.925425e-25)
(0.009240825 -0.0003909224 -6.672865e-25)
(0.008945168 -0.00100041 -7.002822e-25)
(0.009612284 -0.0004465463 4.886844e-25)
(0.01067982 -0.0009579892 0)
(0.0110632 -0.0006990418 0)
(0.01098344 -0.0007770993 1.047117e-24)
(0.009371929 0.0001047869 0)
(0.01031324 -0.0006148468 0)
(0.009397742 0.0008592906 0)
(0.009350426 9.144281e-05 0)
(0.009385945 2.643154e-05 0)
(0.00999998 -0.0004583687 2.561748e-26)
(0.01010451 -0.0009506269 8.727723e-25)
(0.008774548 -0.0002178514 0)
(0.0106251 -0.0006951347 0)
(0.01018663 -0.0003990906 2.261731e-26)
(0.009640192 -0.0008207499 -1.037382e-24)
(0.01000865 -0.0008033675 6.80553e-25)
(0.009910363 -0.000738451 -1.189765e-25)
(0.009831233 -0.0007918837 -6.570991e-25)
(0.009958627 -0.0005939291 -2.865734e-25)
(0.008355663 0.0006612442 7.272226e-25)
(0.01029215 -0.0004387476 0)
(0.01021671 -0.0004998907 1.142554e-26)
(0.01023729 -0.0005277687 1.399566e-25)
(0.01111847 -0.0005291311 0)
(0.008274433 -0.001316646 -1.880451e-25)
(0.009896768 -0.0005397983 6.439963e-26)
(0.01132512 -0.0003902059 -3.148639e-25)
(0.009943167 -0.0006057784 -2.875176e-25)
(0.009063384 0.0009475925 8.79944e-25)
(0.0101199 -0.0004911285 -1.149231e-25)
(0.00931545 -0.0006757396 -4.189742e-25)
(0.008669157 0.0006687379 0)
(0.009724537 -0.0009181072 -4.420774e-25)
(0.01113557 -0.0005313926 0)
(0.008778788 0.0002625776 3.951024e-26)
(0.009264827 0.000463468 0)
(0.009150338 -0.000656915 0)
(0.00883907 -0.0002715782 8.056913e-25)
(0.01024435 -0.0009445387 4.513278e-25)
(0.01010175 -0.001054618 0)
(0.008305771 0.001170606 3.539602e-24)
(0.009077409 0.001209774 -2.594034e-24)
(0.01100494 -0.0006153987 -2.629982e-25)
(0.009631948 -0.001175428 0)
(0.01069509 -0.0007364346 -3.265833e-26)
(0.00945556 -0.0003748295 -9.625418e-25)
(0.009185165 -0.001022402 4.681259e-25)
(0.008267784 -0.001168438 1.125403e-25)
(0.008011435 0.0002216345 4.17514e-24)
(0.00944295 -0.0001821346 5.843893e-25)
(0.009353488 -2.712157e-05 -3.330237e-25)
(0.008769438 0.001159943 0)
(0.008478103 0.0001997741 -2.294151e-24)
(0.009059315 0.0013423 -4.477135e-24)
(0.01041155 -0.0008950899 0)
(0.01054963 -0.0004305669 -5.78258e-25)
(0.01051744 -0.0006694295 -2.116514e-26)
(0.009770066 -0.001148732 1.505892e-25)
(0.00897899 -0.0006022231 -2.130313e-26)
(0.008802356 0.0003026576 -1.308094e-24)
(0.008872918 0.0004483438 -1.286889e-25)
(0.00946523 0.001306166 5.571268e-24)
(0.01014293 -0.0005508383 8.124331e-26)
(0.01010715 -0.0003848769 0)
(0.00935877 0.001000621 0)
(0.009388871 -0.001231817 0)
(0.009451824 -0.000959413 0)
(0.01006637 -0.0008636953 4.5682e-25)
(0.009411303 -0.000318253 -7.212439e-25)
(0.008902961 0.000816405 -3.646205e-25)
(0.01018458 -0.0008659628 0)
(0.01030188 -0.00116068 -1.687812e-24)
(0.008882249 0.0001729409 -1.179935e-24)
(0.0111005 -0.0006846531 -1.019347e-24)
(0.01116098 -0.000569765 0)
(0.01009525 -0.001194609 -1.405944e-24)
(0.0103211 -0.001036272 -8.384842e-25)
(0.01102011 -0.0001717405 1.480433e-24)
(0.00886637 -0.0008990424 1.869157e-24)
(0.009176213 -0.0001090802 -4.31165e-25)
(0.008965318 -0.0008471928 -1.793145e-24)
(0.008839451 3.525828e-05 1.114925e-24)
(0.01107676 -0.0005878591 -2.732248e-25)
(0.01091812 -0.0005462228 0)
(0.009935591 -0.0003555525 0)
(0.008898129 -1.500896e-06 -5.439115e-25)
(0.01075596 -0.0008005822 0)
(0.01069636 -0.0008937187 -5.422448e-25)
(0.01065175 -0.0008216847 -6.762088e-25)
(0.01062905 -0.0008001292 2.296037e-26)
(0.01047526 -0.0005421689 0)
(0.009923945 -0.0009463604 -8.995976e-25)
(0.01077032 -0.000769138 0)
(0.009415435 0.0009187914 -1.352807e-25)
(0.007862294 -0.0008560296 2.091462e-24)
(0.009780462 -0.0009574341 1.473117e-24)
(0.009857718 -0.0009709095 0)
(0.009796848 -0.0006721173 -6.384301e-25)
(0.0104597 -0.0009665392 -8.966136e-25)
(0.01095164 -0.0003138934 -9.319441e-25)
(0.01027152 -0.0002889557 4.572199e-26)
(0.01028335 -0.0006372004 0)
(0.007484542 -0.0001290239 4.060482e-24)
(0.01014789 -0.0008423217 -4.005984e-25)
(0.01023345 -0.0009003378 0)
(0.008431707 -0.0008588161 0)
(0.008209011 -0.000751491 1.675432e-24)
(0.01084003 -0.0008417147 -2.516925e-25)
(0.009631011 -0.001282168 5.904696e-25)
(0.009877483 -0.0003766837 -2.000982e-25)
(0.01068458 -0.0005887213 0)
(0.009367677 -0.0002418904 1.321932e-24)
(0.01023147 -0.001174985 0)
(0.009292721 -0.0004808483 5.138216e-25)
(0.008678544 0.0008792767 0)
(0.008196862 -0.0009546581 6.679106e-24)
(0.008793206 -0.001288506 -2.710938e-25)
(0.009375611 0.0002903978 -1.405077e-25)
(0.009648895 -0.0004861352 3.919678e-26)
(0.01063784 -0.0006606912 2.78313e-26)
(0.01031557 -0.0003520342 4.459056e-25)
(0.009583682 -0.0005734249 -8.80607e-25)
(0.00915357 0.0006933417 -9.286846e-25)
(0.009783364 -0.0007091562 0)
(0.009664827 -0.0005835452 1.375797e-25)
(0.00996466 -0.0003784661 0)
(0.01116268 -0.0005417328 3.996178e-26)
(0.01126553 -0.0003173415 1.67727e-24)
(0.009601633 -0.001054031 0)
(0.01000046 -0.0005017449 3.195041e-25)
(0.008982616 0.0008008324 7.665573e-26)
(0.008248082 -4.309136e-05 -1.772686e-24)
(0.01026551 -0.000760907 0)
(0.01012297 -0.001075454 -8.022969e-25)
(0.01025827 -0.0004075577 -3.019895e-26)
(0.008300648 -0.0006647508 1.129906e-24)
(0.01022158 -0.001176164 -2.657231e-24)
(0.00907755 0.001325555 -2.459199e-24)
(0.009499852 -0.0005890309 0)
(0.009513991 -0.0009614148 0)
(0.01023501 -0.0005699773 0)
(0.008027775 0.000757918 0)
(0.009686667 -0.0003829951 -2.784494e-25)
(0.006715803 -0.0001821824 -1.281521e-24)
(0.009591759 -0.0005385516 -6.730843e-25)
(0.009221611 0.0009189381 -6.282836e-25)
(0.007823352 -0.0003569664 -5.711164e-24)
(0.009429561 -0.0003481138 0)
(0.01025988 -0.001174093 1.244566e-24)
(0.008413394 -0.0001806188 1.383275e-24)
(0.008928108 -0.0006698836 1.200397e-24)
(0.009178112 8.831592e-05 1.890722e-25)
(0.007210253 0.0006917257 -1.116878e-25)
(0.009020441 -2.54783e-05 -3.726032e-25)
(0.008979106 -7.571414e-05 -3.929645e-25)
(0.01126318 -0.0004821941 3.335556e-26)
(0.009413292 0.0006457406 -4.680893e-25)
(0.01005288 -0.0003968296 0)
(0.009768597 -0.00124406 0)
(0.009340011 0.0008097233 -8.416583e-25)
(0.009329872 3.623712e-05 -7.261666e-25)
(0.01087942 -0.0006680941 6.036123e-26)
(0.008873452 0.0009101638 -1.860097e-25)
(0.009261079 -4.13548e-05 -4.816459e-25)
(0.009612421 -0.0005829244 -5.177553e-25)
(0.009315416 0.0001787606 0)
(0.009075268 -0.0001131486 -5.357135e-25)
(0.008964919 -0.0001482741 3.826577e-25)
(0.01101975 -0.0006801241 0)
(0.01095681 -0.0007534667 4.604732e-26)
(0.01073946 -0.0006388435 -7.45016e-26)
(0.00985448 -0.001069427 -7.161372e-25)
(0.009795385 -0.001029225 1.175523e-24)
(0.009313027 0.001311587 -3.432096e-24)
(0.008608343 0.0002850541 2.30716e-24)
(0.009411645 0.0009596877 0)
(0.00868957 0.0009419454 -2.161562e-25)
(0.008746333 0.0008946275 -1.811499e-24)
(0.009707414 -0.0005807418 -7.279926e-26)
(0.01102976 -0.0007093482 0)
(0.009813389 -0.0005983701 -2.908688e-25)
(0.008192959 0.0009130576 -3.45946e-24)
(0.007955275 -0.0008296263 3.780883e-24)
(0.009650964 -0.0003706961 -2.925569e-25)
(0.009680637 -0.0004464088 -1.65786e-26)
(0.009664098 -0.0006353397 6.245122e-25)
(0.006986469 -0.0005707475 0)
(0.009438944 -8.356907e-05 0)
(0.01028953 -0.0005753642 0)
(0.01113318 -0.0004694814 -2.228431e-25)
(0.009173623 0.0008649485 5.917261e-25)
(0.009140827 -0.000552999 8.433074e-25)
(0.009150354 8.885631e-05 -1.787703e-25)
(0.008426354 0.001321993 0)
(0.008833435 0.001343126 1.632727e-25)
(0.009337825 0.001143002 -2.589039e-25)
(0.009421346 0.001217274 -4.475473e-24)
(0.009574063 -0.0007027161 1.172063e-25)
(0.009323114 0.0007477984 0)
(0.009313507 -0.001300951 3.267252e-24)
(0.009504308 -0.0007886083 6.314406e-25)
(0.009312737 -0.0008413479 1.40467e-24)
(0.009097602 -0.0007669693 1.033876e-25)
(0.009295962 -0.0007152687 1.418926e-24)
(0.007845494 0.0001064088 -2.551729e-24)
(0.009497628 -0.0008915143 7.522059e-25)
(0.009078395 -0.000832046 0)
(0.009913194 -0.0008174697 -1.316966e-24)
(0.009868725 -0.000527371 0)
(0.008461508 0.00056954 0)
(0.01129765 -0.0004100758 8.40823e-26)
(0.01076321 -0.0006346465 5.166771e-27)
(0.01119058 -0.0003348921 0)
(0.009374256 -0.000714963 1.407056e-24)
(0.009327251 -0.0007018662 0)
(0.01084817 -0.0009098001 1.520277e-24)
(0.009391518 -0.0007411085 -1.630119e-24)
(0.0100306 -0.001086171 0)
(0.008679939 -0.0006347605 1.433806e-24)
(0.009189546 -0.0008069993 1.490153e-24)
(0.009127138 -0.0007367375 -1.50441e-24)
(0.007644346 0.0007585158 1.532724e-24)
(0.01028912 -0.001087641 0)
(0.008595506 -0.001278332 -3.490657e-24)
(0.01032701 -0.0008646351 -4.354342e-25)
(0.007847007 -0.0008950692 -5.707835e-24)
(0.007714245 -0.0007026898 1.557589e-24)
(0.008047562 -0.0009805897 0)
(0.009332961 -0.001342101 -2.670229e-24)
(0.009500799 -0.000924285 1.284919e-24)
(0.009340148 0.0001882986 0)
(0.009334655 0.0002385309 0)
(0.009356861 -0.0005271129 2.87486e-25)
(0.006795094 1.535339e-05 -2.305477e-24)
(0.009184762 0.000219551 5.870361e-25)
(0.009105971 -0.0006215068 5.350145e-25)
(0.00781078 0.0006763066 1.965665e-24)
(0.009367817 0.0009408165 0)
(0.008632587 0.001187768 -1.761882e-25)
(0.00861585 -0.0006296704 1.495627e-24)
(0.009359985 -0.0001028771 0)
(0.007193289 -0.000979303 -1.259815e-24)
(0.00769317 -0.0009822615 -4.490305e-24)
(0.00757922 -0.001040478 0)
(0.008669596 0.001045466 7.633423e-25)
(0.008271388 0.0009249224 1.820447e-24)
(0.01106345 -0.0006874957 -1.384084e-25)
(0.007259861 0.0005740901 -2.843994e-24)
(0.01042075 -0.0009466781 0)
(0.008085885 -0.0007577677 -2.299882e-24)
(0.00854232 0.001137012 -2.958523e-24)
(0.009261345 -0.0003591969 6.340518e-25)
(0.007992356 0.0005118189 0)
(0.01013065 -0.001212728 2.951658e-24)
(0.01061309 -0.001040339 -1.539896e-24)
(0.008748999 -0.001074971 -7.222668e-25)
(0.007459266 -0.0003539713 -2.672946e-24)
(0.01036171 -0.001118096 7.022293e-26)
(0.00900629 -0.0003483685 -7.658644e-26)
(0.009513936 -0.0003712426 5.552147e-25)
(0.01044422 -0.0005951327 -1.390627e-25)
(0.009623378 -0.0004191789 -4.2662e-25)
(0.008452603 -0.0005302096 0)
(0.008562725 -0.0006697794 -2.881742e-24)
(0.006946394 -0.0006141287 0)
(0.008455621 -0.0006803757 1.813072e-24)
(0.009444154 -0.0001679421 -5.210484e-25)