/*--------------------------------*- C++ -*----------------------------------*\
| =========                 |                                                 |
| \\      /  F ield         | OpenFOAM: The Open Source CFD Toolbox           |
|  \\    /   O peration     | Version:  2406                                  |
|   \\  /    A nd           | Website:  www.openfoam.com                      |
|    \\/     M anipulation  |                                                 |
\*---------------------------------------------------------------------------*/
FoamFile
{
    version     2.0;
    format      ascii;
    arch        "LSB;label=32;scalar=64";
    class       volVectorField;
    location    "1.32";
    object      U;
}
// * * * * * * * * * * * * * * * * * * * * * * * * * * * * * * * * * * * * * //

dimensions      [0 1 -1 0 0 0 0];

internalField   nonuniform List<vector> 
15536
(
(-0.02881761 5.394847 -7.605905e-22)
(-0.3173983 4.990729 -8.832087e-19)
(-0.5194096 5.182472 -1.911321e-18)
(-0.7031661 5.37186 -2.028335e-18)
(-0.8660094 5.28013 -3.33487e-20)
(-0.955179 4.872855 2.02017e-20)
(-0.9019653 3.94878 3.405024e-20)
(-0.6532564 2.471555 -3.46741e-20)
(-0.3114258 1.000969 8.696848e-18)
(-0.09029622 0.2023775 8.637163e-18)
(-0.07150763 0.09712609 0)
(-0.1862085 0.3302088 0)
(-0.2301155 0.4210615 -6.249194e-20)
(-0.09042345 0.194334 1.57304e-17)
(0.2731863 -0.3518526 7.210478e-18)
(0.7363714 -0.9710505 -1.32397e-17)
(1.137181 -1.421167 6.087037e-18)
(1.318187 -1.559175 4.559511e-20)
(1.153267 -1.281954 -9.388697e-20)
(0.7196629 -0.7417019 4.887303e-20)
(0.04608259 -0.05833829 0)
(-0.7744613 0.654099 8.118482e-18)
(-1.53896 1.213323 0)
(-2.412336 1.734752 9.238149e-18)
(-3.906743 2.550154 -7.492685e-20)
(-6.33879 3.810367 -1.224042e-19)
(-8.541263 4.873414 1.192497e-19)
(-8.848453 4.917352 -1.961665e-17)
(-2.977617 1.944855 -1.577818e-17)
(5.772745 -2.234802 0)
(5.105626 -2.08976 -3.492194e-20)
(0.3651041 -0.3448792 -5.241615e-18)
(-2.08731 0.3931438 6.22132e-18)
(-4.019061 0.7987812 0)
(-5.903714 1.233914 -8.581283e-18)
(-5.54766 1.163701 -3.456065e-20)
(-2.679591 0.5623919 4.433121e-18)
(-0.4256213 -0.01479561 -2.016121e-18)
(3.891388 0.05162664 1.823554e-21)
(9.22602 0.5198505 -4.37461e-19)
(12.24457 1.094425 1.72868e-18)
(13.62298 1.7067 -2.707664e-20)
(14.28591 2.367012 2.680539e-20)
(14.60726 3.026788 0)
(14.7331 3.669921 -6.607535e-18)
(14.70773 4.285834 -6.50598e-18)
(14.53426 4.865788 0)
(14.28546 5.417781 -1.223232e-17)
(13.97271 5.940488 1.184793e-17)
(13.62063 6.437223 1.137239e-17)
(13.21834 6.893973 4.111634e-20)
(12.76006 7.306764 -1.022616e-17)
(12.25323 7.670624 0)
(11.7066 7.987049 0)
(11.12967 8.252232 8.165432e-18)
(10.51977 8.459002 7.457945e-18)
(9.895197 8.618303 4.929047e-20)
(9.261917 8.72818 5.840059e-18)
(8.606865 8.770241 1.020398e-17)
(7.942899 8.752937 4.307669e-18)
(7.278154 8.679575 3.462468e-18)
(6.625444 8.5589 -2.419276e-20)
(5.981454 8.381295 0)
(5.343815 8.140905 1.030044e-18)
(4.725899 7.853769 0)
(4.125647 7.505346 6.035077e-19)
(3.550207 7.102483 -2.637511e-20)
(3.009574 6.655536 -2.80527e-21)
(2.503505 6.162688 9.744211e-21)
(2.036413 5.628274 -3.535237e-18)
(1.613664 5.060383 -1.738648e-20)
(1.236166 4.457002 2.404149e-18)
(0.9055109 3.819809 2.662427e-18)
(0.6268047 3.163619 0)
(0.3995219 2.492705 0)
(0.2271919 1.80089 3.264564e-18)
(0.1062235 1.099132 -1.705837e-22)
(0.0404646 0.4213454 8.898868e-19)
(0.02255981 -0.2249715 1.633155e-21)
(0.05831351 -0.9274688 -6.780984e-21)
(0.1454364 -1.678178 -1.680702e-18)
(0.2903032 -2.419258 0)
(0.4912856 -3.134433 3.030894e-18)
(0.7452118 -3.821577 0)
(1.05046 -4.479991 -2.558646e-18)
(1.404844 -5.107686 2.259026e-18)
(1.807408 -5.702918 1.66655e-20)
(2.254819 -6.264615 3.340813e-18)
(2.743767 -6.783353 8.994805e-21)
(3.269791 -7.256747 -1.971601e-18)
(3.830326 -7.686974 -1.217875e-18)
(4.4228 -8.0683 6.208499e-21)
(5.045077 -8.402686 3.763986e-19)
(5.687155 -8.686141 -1.192048e-18)
(6.344786 -8.914459 1.883047e-20)
(7.007423 -9.074693 6.419329e-21)
(7.679997 -9.181338 -3.617708e-18)
(8.358214 -9.234547 0)
(9.03325 -9.226512 1.03129e-17)
(9.707304 -9.167841 5.864984e-18)
(10.36064 -9.044462 1.068582e-19)
(10.98984 -8.8594 -7.447493e-18)
(11.59088 -8.615806 0)
(12.16226 -8.317877 0)
(12.70282 -7.974004 0)
(13.20383 -7.582195 0)
(13.65515 -7.143519 1.042643e-17)
(14.05334 -6.661862 1.097235e-17)
(14.39846 -6.142202 3.103687e-20)
(14.68529 -5.592922 -1.170285e-17)
(14.89063 -5.009467 -5.947818e-18)
(14.9912 -4.393593 -6.112151e-18)
(14.94534 -3.744319 4.771217e-20)
(14.72156 -3.068358 6.15978e-18)
(14.28488 -2.379379 3.143395e-18)
(13.54397 -1.697869 -2.417447e-20)
(12.23949 -1.076231 -5.645208e-21)
(9.72031 -0.5283134 3.684681e-19)
(4.91505 -0.1225755 -7.161238e-19)
(-0.1545629 -0.005159766 -1.823059e-20)
(-3.125563 -0.6277918 1.21087e-20)
(-7.29277 -1.571447 3.757694e-18)
(-8.851657 -1.844297 2.836367e-20)
(-6.426294 -1.326808 0)
(-3.345388 -0.6186032 -3.192706e-18)
(1.289148 0.7668671 -1.673271e-18)
(7.74059 3.010812 4.154312e-21)
(2.152339 0.4172842 6.323403e-18)
(-8.299888 -4.510042 -1.370552e-17)
(-10.93707 -5.841261 0)
(-8.724842 -4.886231 0)
(-5.87531 -3.532381 -4.527097e-18)
(-3.477945 -2.239745 0)
(-1.698417 -1.142182 -3.542151e-21)
(-0.063733 0.05839897 1.09935e-18)
(1.890786 1.65283 2.040819e-18)
(3.014878 2.7117 -1.801101e-20)
(2.889721 2.836151 4.520547e-18)
(2.666337 2.895068 3.362538e-20)
(1.614555 1.754499 -3.559508e-18)
(-1.21996 -1.984565 1.890543e-19)
(-3.460171 -5.346116 1.986245e-18)
(-4.093348 -6.489635 2.330151e-18)
(-3.152351 -5.244784 0)
(-1.691859 -2.825986 7.761342e-21)
(0.05473972 0.6014945 9.652722e-19)
(1.621548 3.688396 0)
(1.669001 3.756459 2.249151e-18)
(0.2929979 0.578914 -1.644977e-20)
(-0.1676709 -0.5298371 8.175084e-21)
(0.1205346 0.5245806 1.076998e-18)
(0.3324911 1.547998 -6.939046e-24)
(0.4662646 2.619747 0)
(0.533701 3.782573 7.545502e-19)
(0.5547155 5.190714 6.448051e-21)
(0.5000173 6.545756 2.418721e-21)
(0.2933219 6.41214 -3.23764e-21)
(-0.08186308 7.857055 -3.199348e-19)
(-0.3803737 7.149543 7.064701e-19)
(-0.6277723 6.221276 0)
(-0.8422459 5.654198 1.67734e-18)
(-1.041535 5.472628 0)
(-1.221704 5.466961 7.183572e-18)
(-1.315331 5.294936 2.721744e-20)
(-1.216487 4.48129 -2.723368e-20)
(-0.9141513 3.056313 -6.813855e-18)
(-0.5877316 1.698404 -6.868015e-18)
(-0.3642745 0.8467706 0)
(-0.2254804 0.4356542 5.31254e-20)
(-0.06672315 0.1644427 -1.662966e-21)
(0.1882029 -0.1938096 -6.445619e-18)
(0.5893821 -0.7287993 -1.185343e-17)
(1.066632 -1.343143 5.343686e-18)
(1.467588 -1.804645 -4.849187e-18)
(1.653323 -1.978655 -3.790201e-20)
(1.472324 -1.725247 0)
(0.8841426 -1.058714 0)
(-0.08592149 -0.126552 0)
(-1.111732 0.7708967 6.58943e-18)
(-1.900451 1.359569 5.730949e-20)
(-2.733554 1.79275 -5.578079e-20)
(-4.147063 2.421149 7.619826e-20)
(-6.256545 3.353229 -7.121977e-20)
(-8.213592 4.344796 0)
(-8.994751 4.934607 0)
(-5.977892 3.90826 2.314223e-17)
(5.041418 -1.523266 4.703978e-20)
(5.856708 -2.563732 -4.912811e-20)
(3.280632 -1.455111 4.113253e-18)
(2.609111 -0.9779424 4.990026e-18)
(2.150171 -0.8212889 -5.156839e-20)
(0.908448 -0.463601 -7.468632e-18)
(-3.32499 0.5215838 4.094539e-18)
(-0.4333705 0.2590119 -2.658668e-21)
(8.539534 -0.07491944 1.362354e-18)
(14.54785 0.1971253 0)
(17.77624 0.5232116 3.060089e-19)
(18.44442 0.9033352 2.547358e-18)
(18.47723 1.446269 2.643758e-18)
(18.37732 2.098037 2.658042e-18)
(18.1914 2.764435 -8.211823e-20)
(17.94991 3.444452 5.312953e-18)
(17.65839 4.114975 -4.028281e-20)
(17.33188 4.772614 0)
(16.94257 5.396948 9.760299e-18)
(16.4975 5.991181 0)
(16.01273 6.553553 -6.842334e-20)
(15.48096 7.070762 6.862203e-20)
(14.89867 7.540037 8.172708e-18)
(14.27279 7.95477 -5.719627e-20)
(13.61028 8.314726 7.118106e-18)
(12.91773 8.6179 -6.574332e-18)
(12.19888 8.8606 0)
(11.46413 9.051558 3.904841e-20)
(10.71998 9.186029 -4.795235e-18)
(9.961665 9.251113 -8.141429e-18)
(9.193972 9.248829 0)
(8.429293 9.189541 -2.782367e-18)
(7.676309 9.074315 -1.380559e-20)
(6.935516 8.895617 1.438512e-18)
(6.207768 8.653208 3.576194e-21)
(5.499563 8.35323 -3.618693e-21)
(4.816064 7.99138 -4.901184e-19)
(4.159926 7.571659 1.12634e-18)
(3.541744 7.099348 0)
(2.962683 6.580141 0)
(2.42783 6.017615 -1.669859e-20)
(1.941132 5.413724 0)
(1.505771 4.770504 0)
(1.123579 4.091599 0)
(0.7991051 3.388222 -2.39506e-18)
(0.5309402 2.669449 1.92665e-20)
(0.329838 1.9266 1.083368e-20)
(0.1840975 1.174468 -5.254466e-21)
(0.1036225 0.4434548 -7.313747e-19)
(0.08423957 -0.2577425 2.950772e-21)
(0.1389622 -1.012522 -7.196777e-19)
(0.2459164 -1.81549 1.369015e-18)
(0.4199244 -2.608144 1.043056e-20)
(0.6582832 -3.37274 -2.456168e-18)
(0.9564756 -4.108357 -3.595311e-20)
(1.313219 -4.814521 2.118702e-18)
(1.724902 -5.484708 -1.879874e-18)
(2.192013 -6.118466 0)
(2.707086 -6.715814 -5.455858e-18)
(3.268372 -7.262272 -1.48859e-20)
(3.872967 -7.760681 1.598849e-18)
(4.515138 -8.215073 9.936327e-19)
(5.192446 -8.612639 0)
(5.903021 -8.955835 0)
(6.63781 -9.249028 0)
(7.390105 -9.47563 1.47091e-20)
(8.154721 -9.632518 -1.461261e-20)
(8.930832 -9.730373 2.831288e-18)
(9.713079 -9.767527 5.167287e-21)
(10.49733 -9.740529 -4.169025e-18)
(11.27756 -9.653963 -7.553094e-20)
(12.04355 -9.503045 1.067506e-17)
(12.78728 -9.285595 5.909877e-18)
(13.50429 -9.004613 -4.801771e-20)
(14.19709 -8.66617 6.849254e-18)
(14.86076 -8.274944 5.585571e-20)
(15.48685 -7.827379 -6.301324e-20)
(16.0678 -7.329079 6.276126e-20)
(16.59971 -6.782872 6.850786e-20)
(17.08245 -6.195118 8.986391e-18)
(17.51105 -5.570221 -7.064217e-20)
(17.87473 -4.913016 0)
(18.18584 -4.232048 0)
(18.45598 -3.539806 0)
(18.66882 -2.847171 0)
(18.79943 -2.156238 1.825674e-20)
(18.8177 -1.475724 -1.818501e-20)
(18.64519 -0.8806439 1.087431e-18)
(18.02302 -0.4447817 4.097551e-21)
(15.33919 -0.1665398 0)
(9.295233 0.0009330143 -1.021935e-18)
(-1.670267 -0.557711 2.522911e-18)
(-6.066257 -1.129108 -3.205827e-18)
(-2.005462 -0.2329399 4.132483e-20)
(-1.200573 0.1268968 -4.364143e-18)
(0.7635248 0.708514 1.937501e-20)
(2.674507 1.528667 0)
(7.848613 3.085425 9.892443e-19)
(-1.208567 -1.729294 -9.248893e-18)
(-10.7187 -5.901965 -1.018748e-17)
(-9.853845 -4.888129 -1.53761e-20)
(-8.13517 -4.048543 -1.152699e-19)
(-5.36793 -2.804927 4.423319e-20)
(-3.101913 -1.71531 0)
(-1.554039 -0.8298298 1.546576e-19)
(-0.251409 0.1917417 -8.723515e-19)
(1.392119 1.602282 4.135049e-21)
(3.265277 3.254575 1.895961e-18)
(4.045366 4.101967 -3.671833e-18)
(3.560144 3.698201 -1.846118e-18)
(0.6728388 0.08974774 1.493172e-20)
(-3.101588 -4.83298 -1.344815e-19)
(-4.532723 -6.756458 -6.606523e-21)
(-4.36601 -6.514341 -1.891844e-18)
(-3.499597 -5.290965 2.407341e-21)
(-1.99182 -2.771201 9.313248e-21)
(-0.2512008 0.7289577 -1.924344e-20)
(1.323088 3.405384 0)
(2.202062 4.885946 0)
(0.8068646 1.396358 -1.622771e-18)
(-0.3611976 -1.223801 0)
(-0.0646368 0.342087 -1.746959e-18)
(0.1901041 1.470631 9.651991e-19)
(0.3041439 2.519526 -9.219715e-21)
(0.3266306 3.590425 8.964686e-21)
(0.2719117 4.738193 7.483695e-19)
(0.1938798 6.155422 -4.639708e-19)
(0.1330709 7.56627 -2.71892e-19)
(-0.07698286 7.335811 2.611611e-19)
(-0.316259 7.034501 -5.773655e-19)
(-0.5036489 6.165774 2.05492e-20)
(-0.70124 5.592121 -1.406833e-18)
(-0.9171733 5.42999 0)
(-1.094374 5.361019 -5.954512e-18)
(-1.190986 5.17759 -4.495399e-20)
(-1.181516 4.699606 2.84823e-18)
(-1.02846 3.739841 5.497505e-18)
(-0.7874542 2.519842 5.518522e-18)
(-0.5179251 1.416575 5.639273e-18)
(-0.2235679 0.5789774 -4.437653e-20)
(0.07950363 0.02230082 0)
(0.3964855 -0.4121829 0)
(0.8049339 -0.9200857 4.747594e-18)
(1.203035 -1.421176 4.413352e-18)
(1.507829 -1.790843 4.053182e-18)
(1.546032 -1.865255 6.279925e-20)
(1.161273 -1.495817 0)
(0.4227677 -0.7527655 4.369014e-18)
(-0.5809179 0.1545825 4.860382e-18)
(-1.43784 0.9166209 -5.348977e-18)
(-1.945558 1.313996 0)
(-2.462708 1.489049 6.127524e-18)
(-3.465782 1.770176 0)
(-5.045489 2.325624 -8.612441e-18)
(-6.781631 3.421425 0)
(-6.89284 4.072746 -1.362012e-17)
(-5.723216 4.50306 -1.814651e-17)
(2.983232 -0.01386156 0)
(6.886618 -2.819885 0)
(8.215384 -2.938393 -1.458975e-20)
(8.968072 -2.720702 -3.733714e-18)
(8.993891 -2.577701 4.308034e-18)
(7.924693 -2.021916 1.078526e-17)
(6.424352 -0.8133338 -2.986445e-18)
(9.561573 -0.05210726 2.334729e-18)
(16.22225 0.1160572 -9.72032e-19)
(18.42809 0.4534434 0)
(18.32693 0.8110077 0)
(17.97435 1.304813 -2.11593e-18)
(17.92866 1.961337 -2.218149e-18)
(17.84859 2.653863 -4.346297e-18)
(17.70367 3.348507 4.291444e-18)
(17.49804 4.035488 1.003312e-19)
(17.23334 4.691467 -6.643275e-20)
(16.90031 5.323695 0)
(16.50394 5.915384 0)
(16.05531 6.478862 7.62865e-18)
(15.56881 7.010587 -7.331221e-18)
(15.0391 7.49366 0)
(14.46123 7.92889 0)
(13.84316 8.308552 9.38788e-20)
(13.18977 8.635423 -5.932916e-18)
(12.50939 8.90484 0)
(11.80604 9.113092 -4.797006e-18)
(11.08768 9.272355 -4.310604e-18)
(10.36276 9.376146 -3.755549e-18)
(9.627468 9.409884 3.275235e-18)
(8.882737 9.379078 -3.899802e-20)
(8.141971 9.294596 2.239809e-18)
(7.413645 9.156718 0)
(6.700053 8.95616 -1.173434e-18)
(6.001316 8.693513 -5.521276e-21)
(5.321213 8.376721 8.309856e-21)
(4.670242 7.997715 -4.598106e-19)
(4.0434 7.56546 0)
(3.453738 7.083135 -1.473157e-18)
(2.901256 6.556992 -1.677081e-20)
(2.393426 5.989388 2.3945e-18)
(1.930856 5.383346 1.411898e-18)
(1.517925 4.739819 -1.607291e-18)
(1.155045 4.062492 -1.789353e-18)
(0.8464169 3.361848 1.948348e-18)
(0.5895125 2.647465 -2.096383e-18)
(0.4007847 1.908736 -1.079943e-18)
(0.256892 1.162748 2.286747e-18)
(0.1742474 0.4390461 1.19641e-18)
(0.1535783 -0.2566781 2.416449e-21)
(0.2176345 -1.006404 5.960387e-19)
(0.3191699 -1.803942 -8.912539e-21)
(0.4839502 -2.590622 0)
(0.7093724 -3.35047 -1.540078e-20)
(0.9901679 -4.08309 -1.322615e-20)
(1.32692 -4.787482 -1.677818e-18)
(1.714419 -5.457651 3.08826e-18)
(2.158777 -6.091939 -1.35448e-18)
(2.646071 -6.693242 2.213756e-18)
(3.177115 -7.245954 1.579024e-20)
(3.753551 -7.7518 0)
(4.364986 -8.217519 8.628608e-19)
(5.010978 -8.628628 1.235613e-21)
(5.692079 -8.986734 1.55422e-19)
(6.397024 -9.298553 0)
(7.118856 -9.54657 1.223893e-18)
(7.856247 -9.72566 0)
(8.605834 -9.848822 -5.118234e-20)
(9.361682 -9.914168 2.794212e-18)
(10.12351 -9.915404 0)
(10.88091 -9.861101 -3.876215e-18)
(11.62643 -9.744181 -4.376508e-18)
(12.35214 -9.561845 -4.845408e-18)
(13.05325 -9.316314 0)
(13.73399 -9.012302 -1.143824e-17)
(14.38763 -8.657097 9.1665e-20)
(15.00659 -8.244778 0)
(15.58314 -7.78215 0)
(16.11358 -7.269987 0)
(16.59767 -6.715361 7.270159e-18)
(17.02803 -6.127967 -7.502174e-18)
(17.39712 -5.502767 0)
(17.69665 -4.843883 0)
(17.93365 -4.156466 3.878201e-18)
(18.10954 -3.447361 3.082504e-20)
(18.21194 -2.730091 0)
(18.24042 -2.010346 0)
(18.21133 -1.322621 -1.808372e-18)
(18.30902 -0.7695003 2.060989e-19)
(18.40978 -0.4379762 0)
(16.53943 -0.2620378 6.950997e-19)
(7.892697 -0.3888525 4.846817e-20)
(1.614522 -0.05711704 1.204028e-20)
(4.363296 1.389163 -3.995756e-20)
(5.9441 2.032255 3.211868e-18)
(6.583134 2.343022 1.971188e-18)
(5.93651 2.617877 2.337707e-20)
(6.313458 2.167496 2.12549e-20)
(-3.443563 -3.569913 3.602535e-18)
(-8.826409 -5.544896 8.352011e-18)
(-8.753308 -4.321504 0)
(-7.043608 -3.113893 5.994856e-18)
(-4.413445 -1.877335 0)
(-2.281726 -0.9378499 -1.021444e-20)
(-1.07233 -0.3278355 -1.170482e-19)
(-0.2270745 0.4066172 -1.619578e-20)
(0.8711771 1.440401 1.562246e-20)
(2.729701 2.949239 -1.560261e-18)
(3.800974 3.846528 1.536885e-18)
(2.986718 2.629408 1.493096e-18)
(-0.6607611 -2.289592 1.045482e-18)
(-3.446054 -5.834686 -1.675027e-19)
(-4.310933 -6.709894 0)
(-4.401272 -6.629126 -9.982152e-21)
(-3.713202 -5.227711 0)
(-2.333571 -2.67971 2.216833e-19)
(-0.6762897 0.8108992 -5.782008e-19)
(1.077178 3.414464 0)
(2.325294 4.878622 0)
(1.248351 1.741987 2.58248e-18)
(-0.302809 -1.354602 -6.905954e-19)
(-0.2658685 0.161576 1.424596e-18)
(0.022299 1.193248 -6.670158e-21)
(0.1168667 2.011957 6.536368e-21)
(0.1320101 2.853365 0)
(0.1118066 3.84868 -6.158174e-19)
(0.08212756 5.047335 7.504058e-19)
(0.08070628 6.464692 2.296523e-19)
(-0.1226834 6.186932 -4.420622e-19)
(-0.22834 6.108877 -1.567469e-20)
(-0.3996063 5.644692 1.573959e-20)
(-0.7039912 5.412644 -3.663198e-20)
(-0.9800964 5.385309 3.693525e-20)
(-1.126197 5.321368 2.460696e-18)
(-1.135746 5.058285 -3.714117e-20)
(-1.050785 4.527358 -2.347834e-18)
(-0.902056 3.709642 7.17416e-20)
(-0.7278172 2.699477 -4.424186e-18)
(-0.4950626 1.65652 -7.085174e-20)
(-0.1630859 0.6857013 0)
(0.1736582 0.01324635 0)
(0.4794406 -0.4125564 -4.324783e-18)
(0.8822855 -0.89865 -3.962105e-18)
(1.240147 -1.36254 -7.249557e-18)
(1.494832 -1.723503 -3.341915e-18)
(1.408591 -1.771913 0)
(0.8703681 -1.350635 0)
(0.06879527 -0.5986723 -7.165446e-18)
(-0.8217996 0.1786746 -7.966915e-18)
(-1.278966 0.662933 7.200535e-20)
(-1.329032 0.7808093 -1.524282e-19)
(-1.370142 0.6216287 -1.030985e-17)
(-1.858619 0.5357115 -5.80523e-18)
(-3.416055 0.9805263 7.350705e-18)
(-5.182573 2.319379 1.039152e-17)
(-5.089431 3.244838 1.123282e-17)
(-3.781719 4.336503 7.672468e-18)
(2.464887 1.045727 0)
(9.346769 -3.142269 -7.20208e-20)
(12.88175 -4.021216 -5.008743e-18)
(14.17824 -3.978955 3.404049e-20)
(14.95622 -3.845282 1.852651e-20)
(15.39984 -3.213323 -3.96159e-18)
(15.66087 -1.746276 -2.053024e-18)
(17.03583 -0.3594444 -5.104383e-20)
(18.86582 0.110688 -7.637458e-19)
(18.2945 0.2685613 -3.873228e-19)
(17.86282 0.4943376 -3.2213e-21)
(17.95735 0.8998727 0)
(18.04064 1.485521 -2.776365e-20)
(18.01508 2.1354 1.828405e-18)
(17.89403 2.809196 -7.100747e-18)
(17.70094 3.493966 5.410203e-20)
(17.4416 4.157899 -3.451855e-18)
(17.11414 4.801139 -1.027734e-19)
(16.72381 5.405108 -6.434069e-18)
(16.27893 5.985353 3.830089e-21)
(15.79512 6.539227 6.047726e-18)
(15.26882 7.041549 -5.668855e-18)
(14.69311 7.498868 0)
(14.07619 7.900398 7.599656e-20)
(13.42147 8.252447 -7.648215e-20)
(12.7387 8.546799 0)
(12.03086 8.780852 3.952287e-18)
(11.3067 8.965859 6.858065e-20)
(10.57478 9.095283 3.139745e-18)
(9.832619 9.153222 -2.639943e-18)
(9.082201 9.143325 -2.202969e-18)
(8.332049 9.081327 -1.811054e-18)
(7.595138 8.964378 -1.333697e-18)
(6.873405 8.783035 1.076113e-20)
(6.165039 8.539099 -1.086804e-20)
(5.474813 8.240627 0)
(4.814374 7.878265 3.75658e-19)
(4.177513 7.461839 -1.57759e-20)
(3.578791 6.993772 1.226124e-18)
(3.01783 6.480734 1.585562e-18)
(2.504307 5.924452 -1.947715e-18)
(2.035783 5.329285 -1.158796e-18)
(1.617708 4.695959 -3.667891e-21)
(1.250004 4.028322 1.467709e-18)
(0.9393058 3.335853 2.57003e-20)
(0.6787365 2.629235 1.679498e-18)
(0.4913842 1.895147 1.424409e-20)
(0.3449117 1.152784 -9.552458e-19)
(0.2589122 0.4336816 -4.874824e-19)
(0.2369402 -0.2617351 -6.017228e-23)
(0.3128977 -1.008585 4.729756e-19)
(0.4156845 -1.801005 7.299331e-21)
(0.5806832 -2.581684 -8.823341e-19)
(0.8089321 -3.334692 1.667167e-18)
(1.093188 -4.058695 0)
(1.433864 -4.752615 -3.586743e-21)
(1.825315 -5.41094 -1.270417e-18)
(2.276269 -6.032303 1.141511e-18)
(2.768484 -6.621085 -1.907961e-18)
(3.309049 -7.158402 2.067154e-20)
(3.896672 -7.648264 -2.04833e-20)
(4.514737 -8.099819 -7.091637e-19)
(5.170834 -8.493502 0)
(5.866195 -8.831608 -1.33955e-19)
(6.578917 -9.126749 1.708779e-20)
(7.309882 -9.355235 -5.847988e-20)
(8.057958 -9.512841 -1.360328e-18)
(8.816527 -9.614786 -1.887719e-18)
(9.580872 -9.657602 -2.169482e-20)
(10.3505 -9.635272 2.656085e-18)
(11.11665 -9.555209 -4.5041e-20)
(11.86846 -9.413192 -3.476156e-18)
(12.59988 -9.204073 0)
(13.30773 -8.929382 4.22041e-18)
(13.99224 -8.599153 4.643148e-18)
(14.64575 -8.221589 4.800113e-18)
(15.26395 -7.785937 -5.097535e-18)
(15.83818 -7.301781 5.447012e-18)
(16.36606 -6.768498 0)
(16.8474 -6.19366 -1.189356e-17)
(17.27387 -5.591918 1.237584e-17)
(17.63799 -4.952658 -1.460519e-19)
(17.93501 -4.282275 -3.150196e-18)
(18.16448 -3.588183 -3.180501e-18)
(18.3185 -2.891717 0)
(18.38413 -2.194947 1.603217e-18)
(18.34358 -1.521327 -1.564703e-18)
(18.18956 -0.9110076 7.520624e-19)
(17.96046 -0.4521723 -1.782274e-19)
(18.02654 -0.2590586 -3.192202e-19)
(18.80636 -0.3482198 8.920997e-21)
(15.94394 -0.2610722 -1.287228e-18)
(12.63041 0.9003214 4.37172e-20)
(12.61068 2.711963 0)
(12.48126 3.504229 0)
(11.70692 3.566879 -3.66611e-20)
(9.612179 3.42941 3.856338e-20)
(5.550066 1.143232 0)
(-3.60058 -4.588887 0)
(-6.438117 -4.89633 0)
(-7.435418 -3.508354 8.329746e-18)
(-5.898801 -2.047123 -9.882113e-18)
(-3.450094 -0.8862641 2.515296e-18)
(-1.347234 -0.06120525 -9.681686e-19)
(-0.3699542 0.3118801 -5.212267e-21)
(0.02559473 0.762188 -5.533138e-19)
(0.5696908 1.472725 -1.074992e-18)
(2.144671 2.705805 -1.979238e-20)
(3.130014 3.114556 4.465036e-22)
(1.841833 0.6645076 1.838335e-20)
(-1.331118 -3.957812 4.739273e-21)
(-3.203177 -6.012183 1.258226e-19)
(-4.237397 -6.752682 0)
(-4.521823 -6.652958 1.285315e-18)
(-3.965638 -5.142681 -6.201314e-19)
(-2.71176 -2.563968 -1.154864e-19)
(-1.162881 0.9109311 0)
(0.8046273 3.470127 0)
(2.403081 4.747245 -1.806663e-20)
(1.715235 1.941095 -1.033699e-18)
(-0.1679434 -1.29141 5.781128e-19)
(-0.4644974 0.01565273 -5.84213e-19)
(-0.1631445 0.8214124 0)
(-0.09182528 1.368206 0)
(-0.1014076 1.980464 0)
(-0.132336 2.775251 -5.050874e-19)
(-0.1866179 3.918714 -3.203621e-19)
(-0.1231915 5.301736 -3.813414e-19)
(-0.153401 4.688443 1.866338e-19)
(-0.137505 4.897013 0)
(-0.3105967 5.094439 -8.764576e-19)
(-0.6716773 5.320171 0)
(-0.9412449 5.398526 -1.996013e-18)
(-1.060174 5.29397 0)
(-1.038938 4.996127 0)
(-0.9097703 4.411016 -1.90583e-18)
(-0.7187593 3.561951 -3.70899e-18)
(-0.5557242 2.626413 3.684857e-18)
(-0.3627011 1.696236 -3.712622e-18)
(-0.05847334 0.7576485 3.754917e-18)
(0.241297 0.08592609 0)
(0.5152156 -0.3114902 7.112666e-18)
(0.910691 -0.7787004 3.257066e-18)
(1.248839 -1.243718 3.071665e-18)
(1.478368 -1.642554 -8.968977e-20)
(1.323412 -1.751434 -8.378298e-20)
(0.696635 -1.375851 -2.565872e-18)
(-0.0805854 -0.6722284 5.86534e-18)
(-0.623514 -0.1653261 3.305867e-18)
(-0.4138199 -0.0953348 1.222635e-19)
(0.1387787 -0.2992964 4.007433e-18)
(0.5968427 -0.7560599 4.343446e-18)
(0.08329865 -0.9423324 4.875117e-18)
(-1.777207 -0.4753923 0)
(-3.344265 1.072741 8.299551e-20)
(-2.942776 2.285837 0)
(-1.104697 3.719337 6.588505e-18)
(3.578596 1.598298 3.143914e-18)
(11.51106 -3.054886 3.070474e-18)
(14.91151 -4.298256 -1.122311e-19)
(15.95167 -4.401007 6.608905e-20)
(17.08602 -4.348956 -5.1966e-18)
(18.25159 -3.783046 0)
(19.04062 -2.289916 -1.47611e-18)
(19.10408 -0.6482222 -1.43372e-18)
(18.45975 0.07062926 1.285618e-18)
(17.64891 0.3321526 3.105215e-19)
(17.61521 0.7380722 0)
(17.71017 1.26563 7.072702e-19)
(17.75251 1.89564 0)
(17.71728 2.554396 0)
(17.59318 3.208846 2.967647e-18)
(17.39905 3.883052 -4.501798e-20)
(17.14256 4.522332 4.539893e-20)
(16.81791 5.137757 -2.707781e-18)
(16.43393 5.708789 5.401814e-18)
(15.99568 6.256439 -5.122928e-18)
(15.52108 6.780927 -4.9158e-18)
(15.01002 7.244186 2.211256e-19)
(14.4475 7.669547 -1.414722e-19)
(13.84766 8.036326 -1.235085e-19)
(13.20935 8.358971 -3.542913e-18)
(12.545 8.626268 -3.586141e-18)
(11.85621 8.833651 -9.358663e-20)
(11.14905 8.997967 2.96358e-18)
(10.43899 9.106076 0)
(9.720108 9.143005 2.173678e-18)
(8.987209 9.118831 1.813384e-18)
(8.255564 9.044524 1.403068e-18)
(7.539655 8.916508 1.097325e-18)
(6.837867 8.726647 0)
(6.14943 8.474705 0)
(5.475863 8.173165 -8.119738e-21)
(4.834638 7.807143 0)
(4.21156 7.39133 0)
(3.628158 6.92477 1.065677e-18)
(3.083151 6.414173 -2.22239e-20)
(2.578833 5.863816 -1.200341e-20)
(2.117514 5.274829 -3.174891e-20)
(1.707298 4.648185 2.205013e-18)
(1.348382 3.987582 0)
(1.04761 3.302479 0)
(0.7834464 2.607996 1.420566e-18)
(0.6015514 1.880546 7.134503e-19)
(0.4518093 1.141578 7.69998e-19)
(0.3611668 0.4268436 -3.989602e-19)
(0.3383883 -0.2714407 0)
(0.4304489 -1.012436 -2.945887e-22)
(0.5349131 -1.798486 2.331026e-20)
(0.6903563 -2.572551 6.998801e-19)
(0.9112837 -3.315093 -1.36643e-18)
(1.189637 -4.026349 -3.847961e-20)
(1.524075 -4.707958 1.171252e-18)
(1.908469 -5.355228 3.444532e-20)
(2.3524 -5.967538 1.843975e-18)
(2.829591 -6.551547 -1.438508e-20)
(3.355267 -7.084669 -1.299125e-18)
(3.932468 -7.571747 3.424751e-20)
(4.534619 -8.02447 0)
(5.169147 -8.421537 2.981557e-19)
(5.849138 -8.762903 0)
(6.546394 -9.063959 0)
(7.254407 -9.302989 -7.903098e-19)
(7.982277 -9.470881 2.233756e-18)
(8.723113 -9.584396 5.141649e-20)
(9.46621 -9.642717 -1.052317e-19)
(10.21538 -9.637277 -2.181625e-18)
(10.96034 -9.578608 -2.468385e-18)
(11.69148 -9.459559 2.958498e-18)
(12.40111 -9.277589 -3.202681e-18)
(13.08678 -9.033268 -7.348789e-20)
(13.75383 -8.731034 0)
(14.38961 -8.386134 -4.155373e-18)
(14.99233 -7.982858 8.728139e-18)
(15.55205 -7.53487 -4.634239e-18)
(16.06624 -7.039012 0)
(16.53824 -6.499616 9.019376e-20)
(16.95698 -5.931774 -4.956337e-18)
(17.31491 -5.323666 -7.894039e-20)
(17.60837 -4.67993 1.290035e-19)
(17.83562 -4.009075 -8.142817e-20)
(17.99124 -3.329007 0)
(18.06255 -2.641241 -2.55389e-18)
(18.04004 -1.954419 1.217407e-18)
(17.91404 -1.303335 5.913291e-19)
(17.72856 -0.750016 -9.098097e-21)
(17.48238 -0.3738275 2.621896e-19)
(18.27048 -0.3762837 4.777271e-19)
(18.81809 -0.05950854 0)
(18.35443 1.581166 1.357203e-18)
(17.53709 3.54763 -7.004687e-20)
(16.07834 4.269693 1.907395e-18)
(14.50499 4.105726 0)
(12.17545 3.61795 0)
(6.067137 0.2841181 0)
(-2.3543 -4.966594 6.481509e-20)
(-4.15324 -4.18454 6.469042e-18)
(-5.519211 -2.44418 -7.369428e-18)
(-4.354728 -0.7345517 4.333076e-18)
(-2.321712 0.2179028 -4.098334e-18)
(-0.3755576 0.8330833 8.047948e-19)
(0.4833485 1.019939 0)
(0.513733 1.225391 4.615125e-19)
(0.5233353 1.649683 8.721831e-19)
(1.737548 2.514049 -1.124161e-18)
(2.38966 2.063816 3.436526e-20)
(0.8030863 -1.344998 2.36498e-20)
(-1.409987 -4.829574 -2.188966e-20)
(-2.971416 -6.125579 0)
(-4.216695 -6.923311 -9.349097e-19)
(-4.604846 -6.667182 2.556827e-20)
(-4.26334 -5.029613 1.018912e-18)
(-3.153482 -2.415699 9.844323e-20)
(-1.7175 1.026231 -2.041677e-21)
(0.4673391 3.467857 -5.755319e-19)
(2.448682 4.584119 0)
(2.239088 2.163076 -8.879762e-19)
(0.1554633 -0.9141756 4.782958e-19)
(-0.6084659 -0.08543141 -3.084438e-20)
(-0.3253854 0.3924256 5.847105e-19)
(-0.2804424 0.6808524 -2.888318e-20)
(-0.3101006 1.141478 1.041333e-20)
(-0.3759602 1.725925 4.299419e-19)
(-0.4337508 2.791592 -4.486027e-21)
(-0.3007579 3.955783 5.014441e-21)
(-0.2012127 3.062679 1.021437e-20)
(-0.2073995 3.942197 3.290594e-19)
(-0.3709615 4.801267 7.331008e-19)
(-0.7259594 5.248782 -7.825676e-19)
(-0.9567396 5.325554 1.646083e-18)
(-1.011301 5.206368 0)
(-0.9352668 4.919117 1.53543e-18)
(-0.7579594 4.348107 1.66571e-18)
(-0.527874 3.480293 3.045663e-18)
(-0.3606887 2.543304 0)
(-0.1884854 1.68566 0)
(0.05956593 0.8309552 -3.06485e-18)
(0.291071 0.2094241 -9.388278e-20)
(0.5425802 -0.1695421 -2.830555e-18)
(0.9394631 -0.6202994 -2.689059e-18)
(1.248381 -1.084425 -2.450999e-18)
(1.440047 -1.544882 2.244607e-18)
(1.220368 -1.769021 -2.073842e-18)
(0.5594657 -1.455139 2.025579e-18)
(-0.002643795 -0.9209215 -2.32742e-18)
(0.2354404 -0.9581201 0)
(1.278909 -1.3487 0)
(2.335853 -1.792146 -3.252797e-18)
(2.676433 -2.230156 0)
(1.782202 -2.389571 -1.40751e-19)
(0.3011884 -2.239477 -5.370832e-20)
(-0.8010269 -0.523199 -7.171717e-18)
(-0.05444875 1.023345 -2.642423e-19)
(1.902738 2.962213 1.356867e-19)
(6.0882 1.697073 -2.413835e-18)
(13.16129 -2.631774 8.87274e-20)
(15.08165 -3.946085 1.549094e-18)
(15.60374 -4.111342 -6.291237e-20)
(16.78634 -4.126996 2.308567e-18)
(18.00488 -3.638388 -7.248159e-20)
(18.80898 -2.339717 5.121041e-18)
(18.61769 -0.8501855 3.716775e-20)
(17.87659 -0.0973209 -6.465211e-21)
(17.58731 0.1869213 -5.415994e-19)
(17.65726 0.5423539 -4.392506e-21)
(17.73465 0.9917205 -5.839149e-19)
(17.78342 1.567357 -3.68316e-20)
(17.74554 2.197941 -1.137178e-18)
(17.61547 2.84712 2.325043e-18)
(17.42052 3.522313 -2.291622e-18)
(17.17181 4.158433 4.369883e-18)
(16.85065 4.796119 2.370576e-18)
(16.46862 5.382097 0)
(16.0295 5.947709 0)
(15.55624 6.492189 3.985781e-18)
(15.04661 6.973514 3.788306e-18)
(14.48469 7.416266 0)
(13.88818 7.794105 -9.941908e-20)
(13.25023 8.130651 3.212626e-18)
(12.58335 8.416904 2.857317e-18)
(11.89589 8.635556 2.513026e-18)
(11.19513 8.804862 -6.679444e-20)
(10.4874 8.924948 -1.914003e-18)
(9.765775 8.977811 4.885758e-20)
(9.037616 8.959235 -4.932298e-20)
(8.314627 8.888118 -1.183985e-18)
(7.601852 8.769092 8.573487e-19)
(6.896163 8.594189 0)
(6.21578 8.346066 0)
(5.544797 8.054056 3.621587e-20)
(4.912512 7.693318 -8.6919e-21)
(4.293931 7.285446 -8.325764e-21)
(3.726406 6.822327 -8.219056e-19)
(3.190249 6.318061 -2.17436e-18)
(2.678884 5.784058 1.255902e-18)
(2.220125 5.20672 -1.535434e-18)
(1.814438 4.590577 -8.625853e-19)
(1.464574 3.938822 -2.960887e-20)
(1.172629 3.259381 0)
(0.9025872 2.581031 -1.108725e-18)
(0.7350993 1.864594 -3.741638e-20)
(0.5796537 1.129067 -6.401414e-19)
(0.4847909 0.4185664 3.417913e-19)
(0.4636755 -0.2853041 4.229379e-24)
(0.5720037 -1.016628 -3.364977e-19)
(0.6689388 -1.797256 2.883206e-20)
(0.8191152 -2.558964 -6.100388e-19)
(1.031272 -3.281365 1.120151e-18)
(1.303089 -3.974874 -1.081269e-18)
(1.632794 -4.643311 2.533022e-21)
(2.012912 -5.278966 8.945134e-19)
(2.461129 -5.879794 -1.468216e-18)
(2.929538 -6.458261 1.268873e-18)
(3.444438 -6.985888 9.726389e-19)
(4.022432 -7.464319 7.838857e-21)
(4.631745 -7.905128 8.250711e-21)
(5.259049 -8.295395 -2.325927e-19)
(5.923212 -8.637735 3.787432e-22)
(6.620428 -8.930585 1.415505e-20)
(7.327571 -9.15955 5.604547e-19)
(8.04794 -9.321151 -1.783449e-18)
(8.781293 -9.430755 1.162682e-18)
(9.529353 -9.471726 -5.518448e-20)
(10.27604 -9.456361 -1.745778e-18)
(11.01397 -9.393165 4.057292e-18)
(11.74558 -9.260468 7.503328e-20)
(12.4527 -9.067573 2.484375e-18)
(13.13915 -8.806492 -2.895131e-18)
(13.80837 -8.487014 8.967906e-20)
(14.44326 -8.128508 -3.273062e-18)
(15.0466 -7.706252 -3.347484e-18)
(15.60564 -7.241524 1.147136e-19)
(16.12128 -6.721671 -3.821389e-18)
(16.59352 -6.160087 3.940228e-18)
(17.01186 -5.572649 0)
(17.36759 -4.947184 0)
(17.65698 -4.290476 2.107947e-18)
(17.88142 -3.621773 2.085803e-18)
(18.03789 -2.94641 0)
(18.10827 -2.278576 1.091866e-18)
(18.08224 -1.630655 9.805244e-19)
(17.95043 -1.042689 -4.959501e-19)
(17.76421 -0.5734769 1.113246e-19)