/*--------------------------------*- C++ -*----------------------------------*\
| =========                 |                                                 |
| \\      /  F ield         | OpenFOAM: The Open Source CFD Toolbox           |
|  \\    /   O peration     | Version:  2406                                  |
|   \\  /    A nd           | Website:  www.openfoam.com                      |
|    \\/     M anipulation  |                                                 |
\*---------------------------------------------------------------------------*/
FoamFile
{
    version     2.0;
    format      ascii;
    arch        "LSB;label=32;scalar=64";
    class       volVectorField;
    location    "1.6";
    object      U;
}
// * * * * * * * * * * * * * * * * * * * * * * * * * * * * * * * * * * * * * //

dimensions      [0 1 -1 0 0 0 0];

internalField   nonuniform List<vector> 
15536
(
(0.3958179 -9.564433 -1.677559e-21)
(0.7151601 -9.081102 -9.232886e-19)
(0.9768168 -8.33895 -1.680628e-18)
(1.155574 -7.425359 -1.483831e-18)
(1.250209 -6.429511 -2.044848e-20)
(1.270247 -5.428034 1.367162e-20)
(1.22172 -4.456653 1.361074e-20)
(1.09915 -3.502099 -1.376541e-20)
(0.9028032 -2.588174 2.694897e-18)
(0.6714416 -1.803859 2.333926e-18)
(0.5035931 -1.280949 0)
(0.7851553 -1.54447 0)
(1.886488 -3.148029 -1.187463e-20)
(2.707893 -4.25146 2.79887e-18)
(2.634937 -3.941606 9.496318e-19)
(2.004582 -2.855604 -7.934303e-19)
(1.24558 -1.721329 5.775404e-20)
(0.4773606 -0.6944173 1.414842e-21)
(-0.1130252 0.07059663 -5.284851e-21)
(-0.1258799 0.158644 3.863522e-21)
(-0.2302086 0.2394177 0)
(-0.7976456 0.6868115 9.007306e-19)
(-1.033663 0.8607736 0)
(-0.4811121 0.4764915 -5.798555e-19)
(1.500751 -0.8661789 9.276246e-21)
(3.178379 -1.911955 2.078805e-20)
(1.976747 -1.209116 -2.086508e-20)
(-0.457077 0.1200705 1.78721e-18)
(-2.08855 0.9071802 6.659189e-19)
(-3.419917 1.373725 0)
(-5.4458 1.935865 -1.735749e-20)
(-8.335135 2.651399 -3.059585e-18)
(-10.92119 3.252671 5.656034e-18)
(-8.508686 2.580271 0)
(0.4386081 0.2639774 -3.272079e-18)
(5.106833 -1.023995 -8.187335e-21)
(-1.172578 -0.1783048 1.357081e-18)
(-2.919984 0.07925723 -1.007282e-18)
(-4.109964 0.07223835 1.076122e-21)
(-1.011971 0.03206056 -2.643282e-19)
(5.419903 0.5501511 9.910797e-19)
(9.32739 1.234714 -1.628802e-20)
(11.3708 1.89449 1.58648e-20)
(12.3851 2.537381 0)
(12.93352 3.19374 -4.273479e-18)
(13.20553 3.828136 -4.298071e-18)
(13.26708 4.424231 0)
(13.19175 4.984718 -8.305231e-18)
(13.00211 5.507957 8.13325e-18)
(12.73859 6.000018 7.859239e-18)
(12.41806 6.456856 2.854674e-20)
(12.03254 6.87053 -7.086885e-18)
(11.59157 7.237048 0)
(11.10498 7.557493 0)
(10.58238 7.828007 5.549011e-18)
(10.02205 8.04092 4.998108e-18)
(9.441869 8.205973 3.186336e-20)
(8.848719 8.321835 3.699256e-18)
(8.231112 8.371065 6.175998e-18)
(7.601475 8.360883 2.427502e-18)
(6.967943 8.294364 1.713131e-18)
(6.343532 8.18027 -1.099461e-20)
(5.725596 8.009827 0)
(5.111398 7.777264 -3.261347e-19)
(4.516362 7.496074 0)
(3.937761 7.154222 1.707562e-18)
(3.38273 6.758322 -2.737406e-20)
(2.861026 6.317982 -2.312727e-21)
(2.372502 5.831159 1.290547e-20)
(1.921939 5.302761 -4.164434e-18)
(1.514661 4.740352 -1.919977e-20)
(1.151525 4.141391 2.610135e-18)
(0.8341605 3.506628 2.812603e-18)
(0.5677468 2.84972 0)
(0.3521975 2.177724 0)
(0.1918203 1.485709 3.258431e-18)
(0.082547 0.7818482 -4.322255e-23)
(0.02810846 0.100724 8.595415e-19)
(0.02167907 -0.5437297 1.558685e-21)
(0.06884485 -1.241336 -6.29841e-21)
(0.1677055 -1.987021 -1.552328e-18)
(0.3249518 -2.729151 0)
(0.5388451 -3.448924 2.721593e-18)
(0.8059745 -4.139974 0)
(1.124558 -4.80023 -2.207997e-18)
(1.492585 -5.429017 1.893312e-18)
(1.908925 -6.024561 1.371774e-20)
(2.370243 -6.585519 2.537287e-18)
(2.873672 -7.103627 5.666704e-21)
(3.414595 -7.576688 -1.105717e-18)
(3.990187 -8.005837 -3.216494e-19)
(4.598109 -8.385565 -7.927074e-22)
(5.236861 -8.719179 1.324936e-18)
(5.896363 -9.002276 -2.168204e-18)
(6.572304 -9.229917 2.676393e-20)
(7.25384 -9.388821 6.725412e-21)
(7.946661 -9.494408 -4.68483e-18)
(8.646362 -9.546607 0)
(9.344052 -9.537047 1.258008e-17)
(10.04275 -9.477162 7.033011e-18)
(10.72209 -9.352108 1.166495e-19)
(11.37869 -9.164576 -8.724555e-18)
(12.00894 -8.91796 0)
(12.61185 -8.616486 0)
(13.18694 -8.268255 0)
(13.72539 -7.871109 0)
(14.21714 -7.426126 1.204031e-17)
(14.65945 -6.937196 1.269029e-17)
(15.0533 -6.409117 2.531019e-20)
(15.39384 -5.849479 -1.362717e-17)
(15.66132 -5.253409 -6.963701e-18)
(15.86339 -4.63242 -7.210865e-18)
(15.9398 -3.979698 5.648121e-20)
(15.86383 -3.298334 7.404443e-18)
(15.6233 -2.600031 3.829455e-18)
(15.17844 -1.8964 -2.965653e-20)
(14.39931 -1.213686 -7.324097e-21)
(12.97261 -0.6129068 4.809662e-19)
(10.19789 -0.1276875 -9.403778e-19)
(4.887789 0.1239408 -2.35158e-20)
(-1.60869 0.01621229 1.707476e-20)
(0.208177 0.4114512 4.184081e-18)
(2.921276 0.6974957 3.051451e-20)
(0.1790397 -0.217212 0)
(-6.904017 -2.473602 -1.001728e-17)
(-10.05865 -3.516847 -1.030446e-17)
(-7.928072 -2.910546 2.610498e-21)
(-5.410491 -2.205885 1.162179e-17)
(-3.781321 -1.743203 -1.002096e-17)
(-2.991786 -1.511753 0)
(-1.931878 -0.9725908 0)
(0.3885911 0.408354 -6.083494e-18)
(3.641767 2.563061 0)
(3.285632 2.22853 4.924548e-20)
(-0.5230726 -0.7278187 -7.822e-18)
(-3.456819 -3.354556 -1.08284e-17)
(-5.254574 -5.222572 1.002247e-19)
(-5.493377 -5.697148 -2.575665e-17)
(-4.555658 -5.013361 -1.72921e-19)
(-3.226106 -3.775109 1.837616e-17)
(-1.728896 -2.077691 6.873097e-18)
(-0.1865999 -0.1399087 5.374289e-18)
(0.9734761 1.532841 4.455515e-18)
(1.855406 3.022837 0)
(1.989118 3.416418 -2.23814e-20)
(1.17503 2.364929 -4.500184e-18)
(1.234759 3.06869 0)
(1.449367 3.657736 5.832523e-18)
(0.8719097 2.162587 -3.882716e-20)
(0.3543442 1.257372 1.738923e-20)
(0.6815165 2.916562 1.633766e-18)
(0.5458626 2.073421 -5.113685e-22)
(-0.22375 -2.79731 0)
(-0.5659387 -6.458051 1.704297e-18)
(-0.5270867 -8.389676 1.404805e-20)
(-0.2890472 -9.353982 3.969917e-21)
(0.04658259 -9.71803 -5.73025e-21)
(0.00584565 -10.25092 -4.078903e-19)
(0.3682528 -9.658314 7.527437e-19)
(0.6775791 -8.832523 0)
(0.9074924 -7.851067 1.20832e-18)
(1.048344 -6.793473 0)
(1.109594 -5.734502 3.647769e-18)
(1.097106 -4.719036 1.10757e-20)
(1.015834 -3.764371 -1.120338e-20)
(0.9107222 -2.961741 -2.191961e-18)
(0.966279 -2.601831 -1.893936e-18)
(1.447777 -3.130866 0)
(2.27236 -4.199861 1.058471e-20)
(2.937413 -5.073035 -1.135257e-21)
(2.929016 -4.90224 -1.138048e-18)
(2.507614 -4.053606 -1.562795e-18)
(2.041456 -3.136114 3.215033e-19)
(1.478026 -2.148151 -4.340695e-20)
(1.083395 -1.450985 -3.402076e-22)
(0.7699644 -0.9063365 0)
(0.2552078 -0.3101923 0)
(-0.5484505 0.3976745 0)
(-1.202258 0.9367861 7.393635e-19)
(-1.434481 1.155575 -3.506935e-22)
(-1.060079 1.008253 3.427235e-22)
(0.9402464 -0.2769673 -1.4085e-20)
(3.548811 -2.154909 1.425394e-20)
(2.090709 -1.543491 0)
(0.036876 -0.3611615 0)
(-1.176834 0.3345724 -1.097453e-18)
(-2.160522 0.6513426 8.968996e-21)
(-3.816132 0.9941469 -8.444867e-21)
(-6.581764 1.623942 2.55466e-18)
(-8.556531 2.212785 4.775043e-18)
(-10.14595 3.100388 -2.711531e-20)
(-3.416311 1.509554 -2.45994e-18)
(3.370531 -0.6106404 6.175466e-19)
(1.776886 -0.623113 4.091102e-21)
(2.12825 -0.339013 8.323552e-19)
(3.649568 0.07136468 0)
(8.938258 0.6919533 1.830172e-19)
(14.58218 1.282979 1.365323e-18)
(16.38285 1.673397 1.473038e-18)
(16.77555 2.119258 1.572733e-18)
(16.80264 2.672267 -5.073908e-20)
(16.68918 3.287064 3.401572e-18)
(16.49005 3.898435 -2.611236e-20)
(16.22993 4.507245 0)
(15.91027 5.096762 6.631395e-18)
(15.54437 5.668429 0)
(15.14012 6.217283 -4.729932e-20)
(14.67903 6.723091 4.7384e-20)
(14.16207 7.183761 5.671123e-18)
(13.596 7.592681 -3.939331e-20)
(12.98881 7.949222 4.879415e-18)
(12.34757 8.250187 -4.47369e-18)
(11.67598 8.491976 0)
(10.98424 8.682461 2.511026e-20)
(10.2795 8.817326 -3.042149e-18)
(9.558188 8.884178 -4.906009e-18)
(8.824995 8.884365 0)
(8.092069 8.827381 -1.379139e-18)
(7.368391 8.71464 -4.094762e-21)
(6.654955 8.539123 2.372668e-19)
(5.952117 8.300773 -4.543358e-21)
(5.2679 8.004292 4.593705e-21)
(4.607147 7.646299 -1.388339e-18)
(3.972589 7.231086 1.927967e-18)
(3.374728 6.76322 0)
(2.814724 6.247957 0)
(2.297848 5.689421 -1.41393e-20)
(1.828277 5.089346 0)
(1.408943 4.449141 0)
(1.04182 3.771449 0)
(0.7318456 3.066655 -2.476447e-18)
(0.4772954 2.346293 1.973066e-20)
(0.2902104 1.602152 1.061173e-20)
(0.1583176 0.8469217 -5.211842e-21)
(0.09052176 0.111483 -7.067154e-19)
(0.08339765 -0.5905252 2.780375e-21)
(0.1511966 -1.341623 -6.732867e-19)
(0.2722016 -2.138341 1.265336e-18)
(0.4607646 -2.929477 9.582713e-21)
(0.713356 -3.695929 -2.207132e-18)
(1.025711 -4.4332 -3.173754e-20)
(1.396737 -5.139424 1.829822e-18)
(1.822742 -5.808887 -1.57913e-18)
(2.304081 -6.441469 0)
(2.833374 -7.03677 -4.153313e-18)
(3.409341 -7.580968 -9.48987e-21)
(4.02885 -8.077685 8.993076e-19)
(4.686051 -8.529945 2.666724e-19)
(5.378743 -8.924643 0)
(6.105622 -9.265542 0)
(6.857459 -9.557125 0)
(7.62734 -9.781531 2.115324e-20)
(8.410155 -9.93564 -2.10223e-20)
(9.205597 -10.03086 3.698214e-18)
(10.00812 -10.06534 5.455154e-21)
(10.81391 -10.03501 -5.097492e-18)
(11.61715 -9.945108 -7.590953e-20)
(12.40744 -9.79046 1.266913e-17)
(13.17661 -9.568225 6.956066e-18)
(13.9205 -9.281504 -5.629352e-20)
(14.64207 -8.936869 7.975064e-18)
(15.33631 -8.539422 6.489971e-20)
(15.99533 -8.08405 -7.305272e-20)
(16.61158 -7.576529 7.27427e-20)
(17.18159 -7.019431 7.968709e-20)
(17.70571 -6.419328 1.045563e-17)
(18.1791 -5.781 -8.242202e-20)
(18.59057 -5.106374 0)
(18.93406 -4.397756 0)
(19.2464 -3.672493 0)
(19.5133 -2.941151 0)
(19.71694 -2.208294 2.278948e-20)
(19.84223 -1.482253 -2.27218e-20)
(19.87319 -0.7724994 1.420774e-18)
(19.73263 -0.1644314 5.480278e-21)
(19.14351 0.2616883 0)
(16.17559 0.4967063 -1.340947e-18)
(11.32341 0.7501061 2.952934e-18)
(8.228822 1.215464 -3.047334e-18)
(4.147751 0.7530346 4.664135e-20)
(-1.889868 -1.046608 -6.063373e-18)
(-7.343678 -2.665552 4.095939e-20)
(-6.088436 -1.894703 0)
(-4.358303 -1.120031 1.321379e-17)
(-1.982077 -0.4274624 -1.995086e-17)
(-0.8045338 -0.1804787 -8.549571e-18)
(-0.6249163 -0.1766541 -6.669991e-21)
(-0.2246227 0.1624328 -1.056278e-19)
(1.193289 1.237777 4.445426e-20)
(4.02663 3.085949 0)
(3.073883 1.765341 3.853411e-18)
(-2.555382 -2.715388 5.908912e-18)
(-4.994831 -4.741306 -1.711394e-20)
(-5.933288 -5.712243 -1.022831e-17)
(-5.688908 -5.604065 2.111606e-17)
(-4.769511 -4.894904 9.07767e-18)
(-3.420522 -3.672147 2.379023e-21)
(-1.941266 -1.951289 -5.457969e-18)
(-0.39464 -0.02582162 -3.898189e-20)
(0.840504 1.740453 -3.595142e-18)
(1.74295 3.260575 2.607485e-20)
(2.568558 4.728212 -8.700057e-21)
(2.699479 5.377001 -9.662614e-21)
(2.64515 5.968676 0)
(2.448987 5.73442 0)
(1.683056 4.081938 -4.100708e-18)
(0.9594264 3.384886 0)
(0.8206427 3.099196 -2.679191e-18)
(0.08439219 -1.801988 1.649038e-18)
(-0.8932244 -7.698559 -1.846414e-20)
(-1.195537 -9.853177 1.836635e-20)
(-1.077788 -10.44998 1.524622e-18)
(-0.7632705 -10.63824 -8.303276e-19)
(-0.3782877 -10.55704 -4.090498e-19)
(0.2215952 -10.20738 3.278867e-19)
(0.5068699 -9.619088 -6.138253e-19)
(0.7470461 -8.806455 1.631613e-20)
(0.9268613 -7.847981 -1.005946e-18)
(1.036186 -6.829147 0)
(1.092501 -5.838301 -2.972018e-18)
(1.105692 -4.946362 -1.805777e-20)
(1.104508 -4.20949 1.07352e-18)
(1.183277 -3.759894 1.783043e-18)
(1.537987 -3.833416 1.538686e-18)
(2.165042 -4.473672 1.295922e-18)
(2.772 -5.040417 -9.362981e-21)
(2.946249 -5.044066 0)
(2.761003 -4.601709 0)
(2.422297 -3.991031 6.29763e-19)
(1.799565 -2.979866 2.662507e-19)
(1.172745 -1.928961 3.661872e-20)
(0.8261902 -1.284573 5.309026e-22)
(0.5926396 -0.8673032 0)
(-0.1205428 -0.09888144 4.52271e-19)
(-1.037151 0.7111725 6.093454e-19)
(-1.574915 1.188842 -6.028072e-19)
(-1.639649 1.356615 0)
(-1.115683 1.213999 -3.528146e-19)
(0.07013762 0.6013115 0)
(2.643954 -1.473369 1.813345e-18)
(1.804419 -1.562701 0)
(0.8323817 -0.9069011 1.170773e-18)
(0.3784711 -0.4237835 8.980755e-19)
(-0.08396865 -0.2834412 0)
(-1.70635 -0.0154469 0)
(-4.360772 0.6015592 1.064159e-20)
(-6.368705 1.535891 -4.02787e-18)
(-7.361549 2.738072 3.910152e-18)
(-4.205385 2.173003 3.945548e-18)
(3.549074 -0.2491475 -4.68698e-19)
(8.623564 -1.028237 8.305455e-19)
(10.84425 -0.4743605 -6.012056e-19)
(12.7538 0.371485 0)
(15.4102 1.243692 0)
(16.80033 1.685169 -1.075091e-18)
(16.42955 1.964385 -1.218654e-18)
(16.34358 2.482436 -2.561509e-18)
(16.28704 3.102394 2.645084e-18)
(16.18849 3.748659 6.416215e-20)
(16.02645 4.380419 -4.310426e-20)
(15.79832 4.993697 0)
(15.49908 5.570831 0)
(15.13712 6.120172 5.206853e-18)
(14.72758 6.640653 -5.037299e-18)
(14.26686 7.117245 0)
(13.75209 7.547788 0)
(13.19192 7.925107 6.453736e-20)
(12.5924 8.251123 -4.067936e-18)
(11.96183 8.520815 0)
(11.30415 8.730452 -3.185002e-18)
(10.62748 8.89096 -2.794431e-18)
(9.940605 8.996806 -2.355269e-18)
(9.240812 9.033998 1.966025e-18)
(8.529265 9.007013 -2.039887e-20)
(7.818998 8.925982 1.075719e-18)
(7.118678 8.791665 0)
(6.431329 8.595089 -1.920962e-19)
(5.757411 8.336272 7.801363e-21)
(5.100031 8.023468 6.917598e-21)
(4.470329 7.648869 -1.204223e-18)
(3.863645 7.221461 0)
(3.293158 6.743594 -2.048302e-18)
(2.758627 6.221246 -2.035677e-20)
(2.267471 5.657488 2.821052e-18)
(1.821064 5.05492 1.586099e-18)
(1.423285 4.414128 -1.744689e-18)
(1.074854 3.737864 -1.891143e-18)
(0.7804348 3.03576 2.015672e-18)
(0.5362255 2.320087 -2.128891e-18)
(0.361114 1.580241 -1.079076e-18)
(0.2311191 0.8307207 2.251385e-18)
(0.1615412 0.1011954 1.156562e-18)
(0.1529734 -0.601355 2.306529e-21)
(0.2296406 -1.347161 5.578539e-19)
(0.3448658 -2.135823 -8.297552e-21)
(0.5239683 -2.917741 0)
(0.7624753 -3.67664 -1.372725e-20)
(1.055788 -4.408804 -1.128969e-20)
(1.405387 -5.111732 -1.451334e-18)
(1.805916 -5.780212 2.595954e-18)
(2.263288 -6.412765 -1.097504e-18)
(2.76366 -7.011772 1.688329e-18)
(3.308579 -7.562108 1.15667e-20)
(3.899043 -8.066453 0)
(4.524679 -8.530386 2.706001e-19)
(5.185526 -8.938923 -8.476139e-21)
(5.882557 -9.29509 7.930295e-19)
(6.604051 -9.605913 0)
(7.343078 -9.852301 1.890808e-18)
(8.098415 -10.02912 0)
(8.867162 -10.15019 -5.133235e-20)
(9.643006 -10.21355 3.530814e-18)
(10.42627 -10.21199 0)
(11.2065 -10.15508 -4.66709e-18)
(11.97607 -10.03526 -5.200276e-18)
(12.72697 -9.848984 -5.703395e-18)
(13.45468 -9.598664 0)
(14.16406 -9.289462 -1.332985e-17)
(14.84813 -8.929023 1.06626e-19)
(15.49978 -8.509839 0)
(16.11128 -8.039183 0)
(16.67928 -7.517906 0)
(17.20485 -6.951634 8.482659e-18)
(17.68059 -6.349916 -8.788908e-18)
(18.09756 -5.709397 0)
(18.45184 -5.032347 0)
(18.74105 -4.328163 4.661343e-18)
(18.97094 -3.598807 3.72555e-20)
(19.13571 -2.849464 0)
(19.22426 -2.08875 0)
(19.25674 -1.332294 -2.372287e-18)
(19.24376 -0.6071282 2.858267e-19)
(19.53078 -0.02445221 0)
(19.64211 0.433309 1.019075e-18)
(18.47312 1.130555 2.249336e-20)
(16.45095 1.785917 1.574205e-20)
(10.63416 1.2543 -3.290311e-20)
(0.1876298 -1.02089 4.576965e-18)
(-3.134011 -1.773705 6.821733e-18)
(-1.933939 -0.5930127 1.225332e-19)
(-0.2175856 0.6129947 7.521598e-20)
(1.892114 1.381028 7.969839e-18)
(3.245975 1.687459 6.720669e-18)
(3.240852 1.698445 0)
(2.730904 1.783933 5.500497e-18)
(2.632683 2.26609 0)
(3.619466 2.849642 -4.800029e-20)
(1.810783 0.3002338 -2.973795e-18)
(-2.786661 -3.456523 8.965087e-20)
(-4.482773 -4.609774 -9.13634e-20)
(-5.371746 -5.406742 8.547241e-18)
(-5.357425 -5.280697 -8.735817e-18)
(-4.579174 -4.47188 -7.426407e-18)
(-3.34707 -3.295491 -6.094848e-18)
(-1.99609 -1.621897 -4.369445e-18)
(-0.5590251 0.12616 0)
(0.6305422 1.73064 -3.724978e-21)
(1.459343 3.043216 0)
(2.240289 4.372866 -2.747432e-18)
(2.672091 5.640004 2.8855e-18)
(2.848688 6.669346 0)
(2.96339 6.771149 0)
(2.301974 5.224009 6.526353e-18)
(1.32895 4.149914 -1.148968e-18)
(0.6735831 0.9329275 2.082859e-18)
(-0.2011434 -5.622713 -1.151905e-20)
(-0.8037013 -9.15737 1.12434e-20)
(-0.9092852 -9.705443 0)
(-0.7454019 -10.21297 -1.2545e-18)
(-0.4391391 -10.50245 1.344397e-18)
(-0.107993 -10.50792 3.404629e-19)
(0.01919747 -10.19393 -5.38431e-19)
(0.326825 -9.630525 -1.487625e-20)
(0.5855827 -8.842197 1.493244e-20)
(0.7811639 -7.912089 -2.337541e-20)
(0.9109964 -6.934176 2.376575e-20)
(1.010491 -6.017864 1.213914e-18)
(1.09895 -5.262736 -1.472188e-20)
(1.216075 -4.725121 -8.725448e-19)
(1.440591 -4.464069 2.501169e-20)
(1.890541 -4.543292 -1.212302e-18)
(2.400082 -4.869477 -3.372462e-20)
(2.75033 -5.003053 0)
(2.797181 -4.883728 0)
(2.691661 -4.669381 -7.652934e-19)
(2.328799 -4.070445 -5.201153e-19)
(1.605269 -2.99023 -4.291449e-19)
(0.8192239 -1.694668 -2.859694e-20)
(0.2659883 -0.7184046 0)
(0.029031 -0.375165 0)
(-0.780407 0.3456428 -7.407758e-19)
(-1.559293 1.033543 -9.965397e-19)
(-1.922669 1.421175 6.038706e-21)
(-1.802498 1.531772 -6.015543e-21)
(-1.095461 1.346866 5.58478e-19)
(-0.2628117 1.116688 9.417606e-19)
(1.578859 -0.5899909 -1.515241e-18)
(1.679444 -1.530669 -1.471057e-18)
(1.955089 -1.495927 -9.215836e-19)
(2.151924 -1.220261 -3.740411e-19)
(1.838447 -1.200276 0)
(0.3122472 -1.070981 -3.94374e-20)
(-1.892967 -0.5782645 -3.654029e-18)
(-3.656325 0.6078487 2.786493e-20)
(-3.706684 2.143807 1.006241e-19)
(-2.615903 2.459709 -1.604585e-18)
(6.429865 0.08681319 -3.457497e-19)
(13.50073 -0.9934462 -1.463962e-20)
(15.42535 -0.5706078 -4.343304e-19)
(16.48988 0.3472031 -2.280438e-19)
(16.78045 1.207104 -1.736082e-21)
(16.36566 1.464736 0)
(16.20144 1.65288 -1.581874e-20)
(16.37615 2.11674 1.078994e-18)
(16.42131 2.676524 -4.371241e-18)
(16.37451 3.293323 3.477028e-20)
(16.23469 3.914706 -2.259054e-18)
(16.0101 4.527891 -6.900091e-20)
(15.71409 5.108716 -4.339171e-18)
(15.35571 5.665255 -1.385867e-20)
(14.94789 6.202153 4.156715e-18)
(14.49039 6.692907 -3.89497e-18)
(13.97776 7.142007 0)
(13.41887 7.538343 5.198495e-20)
(12.81817 7.887103 -5.226523e-20)
(12.18502 8.180183 0)
(11.52301 8.414114 2.624809e-18)
(10.84093 8.598841 6.052001e-20)
(10.14737 8.728996 1.968944e-18)
(9.440965 8.789333 -1.556523e-18)
(8.724149 8.782288 -1.192339e-18)
(8.005096 8.722667 -8.686148e-19)
(7.296503 8.608515 -4.63286e-19)
(6.601003 8.430792 -1.16774e-21)
(5.917526 8.190357 1.17861e-21)
(5.250603 7.895133 0)
(4.611926 7.536476 9.777011e-19)
(3.995643 7.12426 -2.360878e-20)
(3.416555 6.659951 1.706901e-18)
(2.873873 6.149888 1.985897e-18)
(2.377012 5.596588 -2.285863e-18)
(1.92483 5.003749 -1.302149e-18)
(1.522206 4.371876 -2.918473e-21)
(1.169448 3.704118 1.551724e-18)
(0.8735558 3.009327 2.635011e-20)
(0.6254824 2.301344 1.706014e-18)
(0.4519343 1.566503 1.413723e-20)
(0.3196289 0.8209583 -9.408358e-19)
(0.2472584 0.09625402 -4.713242e-19)
(0.2367744 -0.6109007 -5.709942e-23)
(0.323787 -1.352956 4.431009e-19)
(0.4398088 -2.133642 6.800564e-21)
(0.6202268 -2.906571 -8.061071e-19)
(0.8623748 -3.656706 1.500805e-18)
(1.159563 -4.379177 0)
(1.513501 -5.070998 -3.948657e-21)
(1.918362 -5.727224 -1.06914e-18)
(2.382666 -6.346554 9.240521e-19)
(2.88841 -6.93271 -1.46481e-18)
(3.443623 -7.467225 1.340818e-20)
(4.045642 -7.955376 -1.329432e-20)
(4.67814 -8.404919 -2.224745e-19)
(5.349666 -8.795596 0)
(6.061448 -9.131416 -6.587312e-19)
(6.790737 -9.425429 3.372183e-20)
(7.539137 -9.651888 -6.726515e-20)
(8.305402 -9.806832 -1.918853e-18)
(9.083194 -9.906406 -2.4811e-18)
(9.867497 -9.946969 -1.226672e-20)
(10.65862 -9.921417 3.282674e-18)
(11.44757 -9.838379 -5.500313e-20)
(12.22325 -9.693149 -4.154725e-18)
(12.97969 -9.479643 0)
(13.71395 -9.199658 4.95931e-18)
(14.42689 -8.863527 5.416432e-18)
(15.11092 -8.479266 5.596351e-18)
(15.76166 -8.035592 -5.93455e-18)
(16.37057 -7.542391 6.341569e-18)
(16.9355 -6.998552 0)
(17.45737 -6.410299 -1.389051e-17)
(17.92843 -5.791648 1.451194e-17)
(18.33998 -5.133874 -1.721568e-19)
(18.68748 -4.444539 -3.745325e-18)
(18.97404 -3.727371 -3.819777e-18)
(19.19353 -2.996901 0)
(19.33648 -2.264489 1.988852e-18)
(19.39345 -1.528233 -1.984375e-18)
(19.35453 -0.8262774 9.836597e-19)
(19.21437 -0.1807099 -2.450649e-19)
(19.0646 0.2958608 -4.62878e-19)
(19.35925 0.6712434 1.351134e-20)
(19.49585 1.39635 -1.746742e-18)
(19.31714 1.993803 1.501922e-20)
(16.39449 1.502831 0)
(6.08672 -0.5051896 0)
(1.398048 -0.6009383 -1.780835e-19)
(2.56878 1.249143 1.964319e-19)
(4.321551 2.652784 0)
(5.885514 3.309984 0)
(6.869365 3.450542 0)
(6.783789 3.414309 4.872896e-18)
(5.87484 3.397396 -8.729639e-18)
(4.671459 3.413706 3.183557e-18)
(3.540322 2.574142 -2.279638e-18)
(1.03976 -0.9371547 -8.423081e-20)
(-2.018613 -3.397996 3.901325e-18)
(-3.738203 -4.229758 5.828492e-18)
(-4.774125 -4.976859 1.117466e-19)
(-4.91895 -4.740348 -7.367849e-21)
(-4.293481 -3.885209 -1.031372e-19)
(-3.162902 -2.743886 -6.686048e-20)
(-1.939074 -1.107324 3.698222e-18)
(-0.6035839 0.4839256 0)
(0.4680887 1.84432 2.382771e-18)
(1.205512 2.974177 -2.213967e-18)
(1.855105 4.05196 2.235715e-18)
(2.283275 5.251023 0)
(2.591057 6.386508 0)
(3.053881 6.757017 -4.480681e-20)
(2.707871 5.655156 -2.627516e-18)
(1.618021 3.975787 9.588961e-19)
(0.5787326 -2.039149 -7.983333e-19)
(-0.1169074 -7.629784 0)
(-0.6237545 -8.943397 0)
(-0.9295489 -9.481053 0)
(-0.8849159 -10.14334 -1.011309e-18)
(-0.6481697 -10.46615 -5.710257e-19)
(-0.3289056 -10.47995 -5.603403e-19)
(0.01852121 -10.15335 2.209252e-19)
(0.2637091 -9.618316 0)
(0.4847741 -8.869291 -7.380843e-19)
(0.664628 -7.978078 0)
(0.8046476 -7.032336 -1.143126e-18)
(0.9367241 -6.155142 0)
(1.081339 -5.469144 0)
(1.270866 -5.015462 -7.007642e-19)
(1.543667 -4.765418 -1.169056e-18)
(1.990049 -4.695824 1.008632e-18)
(2.383089 -4.771144 -8.528374e-19)
(2.662681 -4.805841 7.556129e-19)
(2.771528 -4.844014 0)
(2.701703 -4.753373 1.254755e-18)
(2.271217 -4.228716 4.251937e-19)
(1.495308 -3.216687 1.783133e-19)
(0.6200159 -1.811172 -3.225058e-21)
(-0.1819517 -0.4114491 -2.47704e-21)
(-0.7003318 0.2931883 -1.369014e-19)
(-1.465222 0.8839539 6.09222e-19)
(-2.019338 1.344402 4.092435e-19)
(-2.190868 1.616768 1.040974e-20)
(-1.91362 1.713349 2.443211e-19)
(-1.070272 1.498357 -2.212085e-19)
(-0.1368844 1.267417 -7.751744e-19)
(0.8940377 0.1175105 0)
(1.884786 -1.500744 -2.419333e-20)
(3.255642 -2.036096 0)
(3.928063 -1.967166 -3.030183e-19)
(3.816926 -2.120816 1.444955e-19)
(2.669858 -2.230086 1.071731e-18)
(1.096336 -1.861005 -1.101039e-19)
(-0.3479577 -0.4368396 7.361555e-20)
(-0.09453416 1.412184 -6.064785e-18)
(0.6491416 2.518172 0)
(10.09624 0.5743904 -3.056463e-19)
(15.38256 -0.6587272 -4.777336e-19)
(15.96133 -0.524814 6.951472e-19)
(16.51037 0.3055811 1.800618e-19)
(16.23391 1.155423 0)
(15.90157 1.541225 3.718726e-19)
(15.99522 1.911207 0)
(16.11252 2.446297 0)
(16.13457 3.033754 1.822698e-18)
(16.07392 3.659342 -2.80368e-20)
(15.93599 4.262656 3.828318e-20)
(15.71801 4.855993 -1.795557e-18)
(15.42665 5.413603 3.643524e-18)
(15.0735 5.943557 -3.484921e-18)
(14.67393 6.452486 -3.351426e-18)
(14.23096 6.905142 1.66025e-19)
(13.73183 7.32058 -9.699504e-20)
(13.18981 7.681808 -8.416317e-20)
(12.60556 8.000622 -2.396158e-18)
(11.99124 8.265738 -2.396995e-18)
(11.34876 8.472117 -6.088825e-20)
(10.68386 8.635656 1.908776e-18)
(10.01188 8.744541 0)
(9.32884 8.783724 1.281773e-18)
(8.629859 8.762219 9.815997e-19)
(7.929474 8.690207 6.378694e-19)
(7.241829 8.565058 3.812187e-19)
(6.566517 8.378767 0)
(5.903086 8.130457 0)
(5.252743 7.832413 -5.520848e-19)
(4.633219 7.470306 0)
(4.030683 7.058951 0)
(3.466876 6.596377 1.460364e-18)
(2.939931 6.088958 -3.568101e-20)
(2.452149 5.541669 -1.000378e-20)
(2.007246 4.954669 -3.500858e-20)
(1.612282 4.328644 2.392388e-18)
(1.2677 3.666654 0)
(0.9813947 2.977527 0)
(0.7296695 2.280782 1.442825e-18)
(0.5617952 1.552722 7.130131e-19)
(0.4261329 0.811 7.583897e-19)
(0.3501896 0.0924587 -3.857776e-19)
(0.3380714 -0.6189083 0)
(0.4403577 -1.354156 -2.343277e-22)
(0.5586349 -2.126576 2.14467e-20)
(0.7293889 -2.892166 6.396098e-19)
(0.9638962 -3.632623 -1.23066e-18)
(1.255089 -4.34314 -3.370997e-20)
(1.602659 -5.022986 1.015503e-18)
(2.000087 -5.66827 2.948001e-20)
(2.456678 -6.278667 1.499862e-18)
(2.946575 -6.860152 -1.50581e-20)
(3.486579 -7.390498 -9.154873e-19)
(4.077699 -7.876144 2.245667e-20)
(4.693446 -8.32727 0)
(5.34266 -8.721721 -1.125642e-19)
(6.039125 -9.060915 0)
(6.752684 -9.361178 0)
(7.477519 -9.59866 -1.241986e-18)
(8.223287 -9.764193 3.167908e-18)
(8.983406 -9.875481 6.676443e-20)
(9.746047 -9.932025 -1.207107e-19)
(10.51667 -9.923454 -2.697415e-18)
(11.28453 -9.861928 -3.00495e-18)
(12.03951 -9.739844 3.535649e-18)
(12.77413 -9.553552 -3.802713e-18)
(13.48633 -9.30378 -7.394456e-20)
(14.18208 -8.995345 0)
(14.84834 -8.643935 -4.844178e-18)
(15.48361 -8.232576 1.017323e-17)
(16.07808 -7.77511 -5.394643e-18)
(16.6296 -7.267817 0)
(17.14203 -6.715292 9.165895e-20)
(17.60425 -6.13421 -5.815694e-18)
(18.00943 -5.509314 -9.293678e-20)
(18.35441 -4.850663 1.457642e-19)
(18.63899 -4.156558 -9.746731e-20)
(18.85831 -3.446389 0)
(19.00388 -2.72454 -3.171511e-18)
(19.06556 -1.999717 1.54468e-18)
(19.03953 -1.280446 7.75221e-19)
(18.94024 -0.5870318 -1.222085e-20)
(18.77389 0.01056573 3.753196e-19)
(18.79551 0.5277437 7.145932e-19)
(18.76644 1.289855 0)
(18.81054 1.827304 1.355827e-18)
(19.10431 1.376535 -7.473898e-20)
(13.22887 0.134399 2.639951e-18)
(8.079959 0.7069591 0)
(8.100251 3.094733 0)
(9.147072 4.735648 0)
(9.85153 5.165766 6.686504e-20)
(10.26369 5.050738 4.022141e-18)
(9.987789 4.907673 -3.934818e-18)
(8.860752 4.786627 3.53057e-18)
(6.982943 4.46773 -5.119574e-18)
(4.155486 2.483647 1.84311e-18)
(1.106197 -1.599399 0)
(-0.93678 -2.997935 -3.25247e-18)
(-2.912844 -3.814333 -4.773295e-18)
(-4.091088 -4.544137 6.174264e-18)
(-4.487226 -4.230183 -1.898085e-19)
(-4.05935 -3.305668 -1.420336e-19)
(-2.99756 -2.163746 1.444735e-19)
(-1.846148 -0.5124897 0)
(-0.5870691 0.9586689 -2.339816e-18)
(0.3907534 2.091798 5.880192e-20)
(1.029233 2.994035 3.574281e-18)
(1.562222 3.817417 -1.895134e-18)
(1.901552 4.890338 1.222198e-19)
(2.305163 6.115678 -2.273899e-18)
(3.003079 6.460687 0)
(3.001225 5.64651 -2.179756e-18)
(1.880193 2.792629 7.407544e-19)
(0.7150717 -4.697981 -4.344187e-20)
(0.1684245 -8.201982 9.017665e-19)
(-0.4274329 -8.622203 -5.224902e-20)
(-0.7388293 -9.480571 2.103036e-20)
(-0.674675 -10.09293 8.472177e-19)
(-0.4676128 -10.40588 -7.124013e-21)
(-0.2229553 -10.42379 8.408842e-21)
(-0.05166134 -10.04178 1.087652e-20)
(0.1572005 -9.553011 3.220799e-19)
(0.3430259 -8.861309 6.055388e-19)
(0.5122452 -8.02863 -5.341567e-19)
(0.6694372 -7.119247 9.359147e-19)
(0.8299407 -6.245885 0)
(1.01845 -5.545019 6.451924e-19)
(1.256249 -5.071242 6.166e-19)
(1.534956 -4.761321 9.631534e-19)
(1.959235 -4.56325 0)
(2.294565 -4.537293 0)
(2.605979 -4.625349 -6.251091e-19)
(2.744312 -4.799491 -1.718516e-20)
(2.65227 -4.779998 -4.97348e-19)
(2.193821 -4.373013 -3.579522e-19)
(1.392129 -3.497655 -1.548194e-19)
(0.5056543 -2.159603 3.012938e-20)
(-0.3403621 -0.6604085 -2.12776e-20)
(-1.146496 0.4893611 1.048824e-19)
(-1.875752 1.11714 -2.449256e-19)
(-2.289804 1.507433 0)
(-2.360647 1.760236 0)
(-2.00579 1.914055 -2.078698e-19)
(-1.050514 1.716574 0)
(0.1138131 1.298979 2.562669e-20)
(0.7590243 0.5121891 6.127885e-21)
(2.524958 -1.495706 9.897416e-19)
(4.670808 -2.465223 2.655914e-20)
(5.67005 -2.614385 -5.664701e-21)
(5.809727 -2.998944 -1.240037e-19)
(5.206299 -3.378641 1.400496e-20)
(4.426318 -3.263672 1.163417e-18)
(3.507903 -1.774074 -7.719801e-20)
(3.311653 0.7133513 2.506113e-18)
(5.678159 2.434168 -4.769218e-20)
(13.19566 1.123851 9.517417e-19)
(15.31868 -0.275886 1.013766e-20)
(15.31744 -0.4048516 -8.118004e-21)
(15.98919 0.325661 -2.955157e-19)
(15.91037 1.051834 -2.341332e-21)
(15.89397 1.411012 -3.100994e-19)
(16.03118 1.740967 -2.103277e-20)
(16.14683 2.207236 -6.661783e-19)
(16.17823 2.736762 1.414269e-18)
(16.11931 3.334889 -1.439015e-18)
(15.98023 3.925223 2.842276e-18)
(15.7601 4.518244 1.570769e-18)
(15.47215 5.082261 0)
(15.11749 5.631081 0)
(14.71753 6.162281 2.717483e-18)
(14.27453 6.634665 2.591819e-18)
(13.77468 7.069269 0)
(13.23432 7.443072 -6.729511e-20)
(12.64977 7.775919 2.173188e-18)
(12.03251 8.059571 1.909349e-18)
(11.39037 8.277755 1.633256e-18)
(10.73071 8.446883 -4.17226e-20)
(10.06064 8.567441 -1.163197e-18)
(9.375126 8.621813 2.707802e-20)
(8.680482 8.605999 -2.731513e-20)
(7.987984 8.537512 -5.362862e-19)
(7.303367 8.42122 2.588668e-19)
(6.624741 8.249435 0)
(5.969311 8.005125 0)
(5.321809 7.716659 9.130325e-19)
(4.711225 7.360111 -7.207243e-21)
(4.113079 6.957166 -6.87854e-21)
(3.564399 6.498779 -1.126164e-18)
(3.046308 5.998022 -2.708377e-18)
(2.553098 5.467227 1.471791e-18)
(2.111616 4.892448 -1.717807e-18)
(1.72136 4.277273 -9.357392e-19)
(1.384439 3.624159 -3.165032e-20)
(1.105647 2.938975 0)
(0.8488466 2.255968 -1.126654e-18)
(0.6955115 1.538586 -3.776365e-20)
(0.5546454 0.8001989 -6.30544e-19)
(0.475708 0.08854505 3.305611e-19)
(0.4635105 -0.6252905 -5.801089e-23)
(0.5811689 -1.350787 -3.155941e-19)
(0.6931083 -2.118752 2.666611e-20)
(0.8571163 -2.874897 -5.582596e-19)
(1.081638 -3.59766 1.009898e-18)
(1.366358 -4.290602 -9.580191e-19)
(1.709696 -4.956229 2.82825e-21)
(2.103674 -5.588838 7.563607e-19)
(2.564927 -6.186987 -1.195366e-18)
(3.045824 -6.762321 9.754124e-19)
(3.574935 -7.286845 6.867544e-19)
(4.167101 -7.76383 8.29899e-21)
(4.791153 -8.202444 8.685581e-21)
(5.433038 -8.589745 9.437822e-20)
(6.113133 -8.930041 -3.473224e-19)
(6.827251 -9.2217 2.56088e-20)
(7.55156 -9.44866 9.197623e-19)
(8.28976 -9.607669 -2.563042e-18)
(9.042481 -9.714934 1.569731e-18)
(9.810736 -9.753298 -5.542959e-20)
(10.57881 -9.734493 -2.182959e-18)
(11.33944 -9.668424 4.953355e-18)
(12.09498 -9.532215 8.974155e-20)
(12.82686 -9.334727 2.948869e-18)
(13.53961 -9.067869 -3.412231e-18)
(14.23725 -8.741983 1.056406e-19)
(14.90213 -8.37694 -3.838835e-18)
(15.53757 -7.946378 -3.906243e-18)
(16.13069 -7.472598 1.342304e-19)
(16.68287 -6.941952 -4.479705e-18)
(17.19493 -6.368015 4.616461e-18)
(17.65599 -5.767763 0)
(18.05854 -5.125743 0)
(18.39814 -4.447805 2.511319e-18)
(18.67614 -3.7507 2.518736e-18)
(18.8933 -3.041556 0)
(19.03852 -2.329226 1.358763e-18)
(19.1038 -1.613804 1.250472e-18)
(19.07663 -0.9334841 -6.494386e-19)
(18.97082 -0.3021894 1.512955e-19)
(18.80909 0.2236488 3.080145e-19)
(18.71318 0.653626 -5.960454e-19)
(18.55741 1.276796 0)