/*--------------------------------*- C++ -*----------------------------------*\
| =========                 |                                                 |
| \\      /  F ield         | OpenFOAM: The Open Source CFD Toolbox           |
|  \\    /   O peration     | Version:  2406                                  |
|   \\  /    A nd           | Website:  www.openfoam.com                      |
|    \\/     M anipulation  |                                                 |
\*---------------------------------------------------------------------------*/
FoamFile
{
    version     2.0;
    format      ascii;
    arch        "LSB;label=32;scalar=64";
    class       volScalarField;
    location    "0.1";
    object      p;
}
// * * * * * * * * * * * * * * * * * * * * * * * * * * * * * * * * * * * * * //

dimensions      [0 2 -2 0 0 0 0];

internalField   nonuniform List<scalar> 
15536
(
58.1035
50.26753
43.26411
38.30525
35.8783
34.10856
31.30574
27.23854
22.17286
16.75762
11.56029
6.17995
-0.4007951
-8.767656
-17.55705
-25.4554
-35.30084
-55.32913
-94.15496
-135.2147
-127.8639
-45.84595
-11.08424
-39.94445
-53.88231
-68.93205
-104.6804
-153.7402
-157.7361
-116.2504
-106.1665
-115.4013
-118.4247
-124.0033
-130.5472
-136.0552
-140.0558
-142.692
-144.3169
-145.1248
-145.2933
-144.8431
-143.3938
-141.2008
-138.7223
-135.4948
-131.6026
-126.8673
-121.8588
-116.7057
-110.9632
-104.727
-97.91952
-90.81094
-83.31667
-75.50163
-67.72884
-59.89039
-51.70754
-43.38888
-35.25273
-27.31631
-19.48189
-11.8155
-4.467136
2.668795
9.418233
15.76122
21.59828
26.9562
31.82052
36.21647
40.11311
43.43889
46.17032
48.39571
49.97855
50.96717
51.43469
51.36575
50.4157
48.7773
46.52719
43.6507
40.17394
36.13344
31.60777
26.5198
21.03559
15.19868
8.856131
2.176327
-4.800239
-12.26044
-19.91739
-27.58984
-35.49864
-43.60854
-51.7134
-59.91199
-68.0211
-75.83629
-83.30916
-90.53023
-97.64433
-104.3366
-110.5964
-116.3932
-121.7638
-126.8118
-131.2437
-135.0157
-138.2094
-140.8352
-142.845
-144.0689
-144.5407
-144.2716
-143.3091
-141.6434
-138.9097
-134.6979
-128.925
-122.2342
-116.7449
-113.2738
-104.1677
-121.3578
-163.5013
-151.8059
-97.69079
-63.70648
-48.66664
-26.74258
-19.67585
-108.2462
-157.5503
-121.878
-71.62872
-42.42107
-31.59666
-25.44569
-17.16008
-7.763527
0.5480889
7.111265
12.60281
17.64497
22.82536
28.14796
32.64848
35.47795
36.85753
38.80087
43.38573
50.50719
58.61656
58.0391
50.26591
43.37818
38.47456
36.05593
34.27877
31.46669
27.42112
22.39615
17.02291
11.86118
6.517047
-0.01490571
-8.313535
-17.00798
-24.80125
-34.56086
-54.54851
-93.31973
-134.7882
-128.1359
-45.84482
-11.0385
-40.04907
-54.01362
-68.97356
-104.7251
-153.6469
-157.654
-116.0174
-106.0811
-115.3624
-118.2759
-123.5516
-129.7463
-134.9775
-138.7477
-141.2247
-142.7375
-143.4737
-143.5865
-143.1029
-141.6367
-139.4275
-136.9501
-133.7299
-129.8646
-125.1587
-120.1803
-115.0711
-109.3746
-103.192
-96.44038
-89.39499
-81.97135
-74.22927
-66.53063
-58.77242
-50.67626
-42.44028
-34.38772
-26.5354
-18.78165
-11.19356
-3.92132
3.139401
9.817211
16.09584
21.87489
27.17874
31.99507
36.34871
40.20814
43.50406
46.20986
48.41593
49.98609
50.96675
51.43085
51.36209
50.41873
48.79637
46.56789
43.71859
40.2751
36.27409
31.79295
26.7552
21.32839
15.54933
9.270242
2.662038
-4.243175
-11.62958
-19.20947
-26.80195
-34.63147
-42.65814
-50.68045
-58.79836
-66.82906
-74.56727
-81.96809
-89.12659
-96.18291
-102.8179
-109.0285
-114.7786
-120.1091
-125.1242
-129.5236
-133.2714
-136.4547
-139.0824
-141.0999
-142.3432
-142.8501
-142.6322
-141.7428
-140.1922
-137.6201
-133.6415
-128.1558
-121.8234
-116.6203
-113.2261
-104.0885
-121.0967
-163.4558
-151.8012
-97.74501
-63.77703
-48.86754
-27.06453
-19.67216
-108.4301
-157.6375
-121.2161
-70.80274
-41.60127
-30.82224
-24.79436
-16.61553
-7.323641
0.9213519
7.434475
12.89066
17.90531
23.04846
28.32657
32.79609
35.63774
37.01572
38.96778
43.50428
50.50773
58.55068
57.89821
50.18852
43.39028
38.49245
36.10224
34.34761
31.55418
27.49865
22.43685
17.03484
11.8613
6.501684
-0.04939897
-8.37979
-17.0946
-24.82977
-34.43156
-54.3376
-93.37901
-135.8658
-130.3193
-47.07966
-10.87578
-39.97775
-54.07445
-69.10627
-104.9923
-154.4076
-158.0278
-116.259
-105.8739
-114.6461
-117.5885
-122.6391
-128.5579
-133.6487
-137.389
-139.901
-141.5185
-142.3109
-142.4603
-142.0256
-140.6047
-138.4099
-135.961
-132.7601
-128.9366
-124.2531
-119.2893
-114.2192
-108.5437
-102.3954
-95.67439
-88.66716
-81.28935
-73.56684
-65.90153
-58.1918
-50.12595
-41.92535
-33.91045
-26.10326
-18.39348
-10.83894
-3.612424
3.415568
10.05566
16.30003
22.04687
27.32133
32.10826
36.43556
40.27166
43.54949
46.23482
48.42739
49.98804
50.9612
51.42102
51.35142
50.41447
48.80619
46.59382
43.76353
40.34283
36.36701
31.91465
26.90212
21.50792
15.76307
9.513978
2.943709
-3.92207
-11.27632
-18.81566
-26.36165
-34.15436
-42.14499
-50.12035
-58.2132
-66.20727
-73.91453
-81.28618
-88.39989
-95.42682
-102.0226
-108.2072
-113.9288
-119.2316
-124.2321
-128.6028
-132.3185
-135.4814
-138.0916
-140.0817
-141.2854
-141.7513
-141.4857
-140.5422
-138.89
-136.2794
-132.3375
-127.0145
-120.9904
-115.9867
-112.6112
-103.9704
-121.3038
-163.8891
-152.4935
-98.02906
-63.88998
-48.91901
-27.12585
-20.11431
-110.777
-159.2672
-121.4583
-70.63046
-41.33561
-30.85208
-24.92401
-16.72781
-7.398446
0.865461
7.401506
12.88305
17.91517
23.07506
28.3908
32.88674
35.7198
37.09111
38.99129
43.52383
50.42956
58.4043
57.72808
50.0848
43.36976
38.5121
36.21253
34.42189
31.57684
27.48249
22.45339
17.06519
11.87202
6.481189
-0.07946591
-8.380247
-16.98824
-24.59843
-34.21937
-54.15839
-93.61514
-136.7933
-133.5612
-49.90984
-10.93109
-39.59271
-53.98522
-69.27121
-105.1935
-154.2247
-157.9407
-117.6003
-106.061
-113.5735
-116.5785
-121.4643
-127.0534
-131.9287
-135.5311
-137.9037
-139.3538
-140.0701
-140.1673
-139.7204
-138.3012
-136.0806
-133.6856
-130.5295
-126.7674
-122.1156
-117.2082
-112.2121
-106.6199
-100.5615
-93.92671
-87.00823
-79.72963
-72.10859
-64.5377
-56.93486
-48.98906
-40.88301
-32.96412
-25.25891
-17.64926
-10.18119
-3.048468
3.900407
10.46307
16.64271
22.32544
27.54087
32.27599
36.55924
40.35722
43.60666
46.26102
48.43558
49.98425
50.94798
51.40231
51.32996
50.39893
48.81028
46.62042
43.81724
40.43117
36.49686
32.09488
27.12976
21.80053
16.1205
9.935288
3.449662
-3.3374
-10.61964
-18.05634
-25.5064
-33.21234
-41.09895
-48.97101
-56.96665
-64.85983
-72.45813
-79.72283
-86.75558
-93.70076
-100.2023
-106.3114
-111.9514
-117.1904
-122.128
-126.4552
-130.1248
-133.2334
-135.8125
-137.7954
-139.0007
-139.4925
-139.2609
-138.3906
-136.9261
-134.4515
-130.6516
-125.5636
-119.9054
-115.0537
-111.7449
-104.3835
-122.5735
-163.9187
-152.5152
-98.35709
-64.02494
-48.63106
-26.8253
-21.40121
-114.9439
-161.7472
-122.0469
-70.60133
-41.0886
-30.55434
-24.68927
-16.68754
-7.439336
0.822286
7.376317
12.89624
17.95389
23.10244
28.38306
32.89601
35.78364
37.17748
39.02771
43.51176
50.31285
58.21655
57.68282
50.09485
43.43203
38.56968
36.19776
34.37306
31.53223
27.45737
22.47401
17.13135
11.90817
6.426005
-0.1052724
-8.323548
-16.85039
-24.4524
-34.11037
-54.34114
-94.44962
-138.6543
-137.7256
-53.85564
-11.88269
-39.09841
-53.81336
-69.29172
-104.2788
-150.4736
-154.4666
-118.5613
-106.9808
-112.5858
-115.475
-120.1815
-125.4679
-130.1633
-133.7017
-136.083
-137.6303
-138.4151
-138.5067
-138.1014
-136.7296
-134.47
-132.1415
-128.9009
-125.1937
-120.5633
-115.6307
-110.7186
-105.1363
-99.13127
-92.51774
-85.65763
-78.45569
-70.86373
-63.35076
-55.84505
-47.97309
-39.92338
-32.07945
-24.46899
-16.94351
-9.53807
-2.496846
4.38811
10.87857
16.99373
22.60823
27.7696
32.45263
36.68976
40.44196
43.6598
46.27998
48.4338
49.96955
50.92205
51.36899
51.28992
50.36362
48.80329
46.64324
43.87083
40.52205
36.62941
32.27962
27.36005
22.10248
16.48272
10.34671
3.95259
-2.755495
-9.99572
-17.34197
-24.6982
-32.34129
-40.15543
-47.92966
-55.87401
-63.7042
-71.23694
-78.4439
-85.41325
-92.32802
-98.76869
-104.8528
-110.4508
-115.6519
-120.6081
-124.8719
-128.528
-131.6871
-134.2513
-136.2296
-137.4056
-137.8794
-137.6228
-136.6944
-135.1275
-132.6402
-128.9142
-124.028
-118.7167
-114.041
-111.042
-105.7022
-123.3319
-160.5134
-149.2222
-97.88271
-64.14407
-48.19249
-26.54741
-24.20181
-120.118
-165.3114
-123.4245
-70.94944
-41.09635
-30.40288
-24.47842
-16.56334
-7.455394
0.767975
7.282477
12.94191
18.02234
23.13615
28.35787
32.83086
35.71954
37.16817
39.0027
43.57133
50.3062
58.14961
57.86509
50.326
43.72237
38.95021
36.44374
34.49951
31.65329
27.62564
22.79286
17.48137
12.20091
6.722568
0.1288546
-7.967262
-16.39812
-24.15189
-34.12695
-54.83855
-95.75726
-141.0327
-142.6639
-58.9738
-14.65891
-39.29734
-53.90994
-69.18794
-101.8114
-141.4404
-145.2973
-117.3191
-107.6792
-111.4147
-114.0977
-118.5
-123.4006
-127.8169
-131.1684
-133.3503
-134.7075
-135.3677
-135.4085
-135.0337
-133.7403
-131.396
-129.1371
-126.0854
-122.5211
-117.9411
-113.0429
-108.3008
-102.8085
-96.94514
-90.43344
-83.67637
-76.59916
-69.1015
-61.71961
-54.36542
-46.60279
-38.65462
-30.94353
-23.45289
-16.04376
-8.726853
-1.815051
4.988474
11.37773
17.39415
22.93372
28.04097
32.65826
36.83518
40.52331
43.7115
46.2895
48.41364
49.93789
50.87606
51.31222
51.22272
50.30595
48.77513
46.65477
43.92157
40.61837
36.77774
32.48491
27.61239
22.45855
16.9231
10.82829
4.544261
-2.02387
-9.202565
-16.44192
-23.65476
-31.18564
-38.90247
-46.54451
-54.37663
-62.08931
-69.50163
-76.57166
-83.42755
-90.26488
-96.56354
-102.5594
-108.037
-113.1455
-118.02
-122.1915
-125.7509
-128.7181
-131.2372
-133.2088
-134.3528
-134.8193
-134.5659
-133.7864
-132.4467
-130.1355
-126.599
-122.0125
-117.1487
-112.7647
-110.1778
-106.814
-121.4008
-150.6428
-140.7685
-96.18992
-64.37563
-48.26731
-27.41414
-29.52584
-125.3373
-169.2546
-125.4189
-71.6608
-41.34631
-30.22632
-23.92579
-16.08934
-7.231991
0.9629801
7.539456
13.26016
18.3751
23.45924
28.55736
32.87773
35.7546
37.33762
39.35587
43.85708
50.52478
58.3207
58.20335
50.67252
44.43643
39.61821
36.9476
34.80706
31.91011
27.89642
23.25852
17.976
12.64341
7.058806
0.4214143
-7.544275
-15.96563
-23.9667
-34.36796
-55.55769
-97.0959
-143.4432
-146.9346
-65.59411
-19.92625
-40.60025
-54.51791
-69.08255
-98.75827
-131.2373
-134.6459
-114.5091
-107.5239
-109.9736
-112.5566
-116.6518
-121.2103
-125.4008
-128.6554
-130.7971
-132.2523
-133.1029
-133.0368
-132.6758
-131.4984
-128.9262
-126.8459
-123.5127
-120.0477
-115.4979
-110.5578
-105.9628
-100.47
-94.75347
-88.27316
-81.54242
-74.62099
-67.26924
-59.96674
-52.68849
-45.09174
-37.30178
-29.6911
-22.2554
-15.05508
-7.821028
-1.065542
5.658458
11.90814
17.8272
23.35915
28.35165
32.86968
36.96381
40.59223
43.80117
46.28763
48.37387
49.88671
50.80307
51.22594
51.13414
50.23492
48.69511
46.60871
43.92774
40.68634
36.93601
32.71987
27.87173
22.82871
17.43147
11.42583
5.18791
-1.270537
-8.27312
-15.42113
-22.53052
-29.92387
-37.44943
-45.04335
-52.78647
-60.31265
-67.65006
-74.5662
-81.31761
-88.1237
-94.28274
-100.252
-105.6092
-110.6895
-115.6081
-119.6726
-123.2146
-126.3188
-128.938
-130.8923
-131.9983
-132.5509
-132.2355
-131.2835
-129.9279
-127.6561
-124.2234
-119.8768
-115.4383
-111.3358
-109.0123
-106.9455
-117.5816
-138.8139
-130.7176
-94.01586
-64.89031
-49.205
-30.23949
-37.25119
-130.1203
-172.079
-127.4753
-72.89549
-41.94261
-30.2838
-23.34402
-15.49844
-6.985097
1.247186
7.863501
13.72386
18.82446
23.89133
28.8719
33.02081
35.92872
37.76239
40.01183
44.52259
50.96115
58.68307
58.39839
51.01618
45.1275
40.32598
37.57861
35.26839
32.35305
28.39602
23.97796
18.65422
13.28925
7.37028
0.9945846
-6.802129
-15.27983
-23.62443
-34.49213
-55.86225
-97.07182
-144.3009
-148.2663
-72.06934
-27.07608
-42.77209
-55.60679
-68.63935
-95.19742
-121.6956
-125.2894
-111.4358
-106.4207
-108.0719
-110.5545
-114.2091
-118.3265
-122.204
-125.2986
-127.2357
-128.3775
-128.8305
-128.7819
-128.4757
-127.6871
-124.9562
-123.0477
-119.9821
-116.6367
-112.4059
-107.1447
-102.8087
-97.50021
-92.01197
-85.49674
-78.87013
-72.38636
-65.23584
-57.65192
-50.5924
-43.46564
-35.87216
-28.06968
-20.783
-14.04994
-6.783639
-0.2765913
6.418136
12.40222
18.42315
23.95674
28.66204
33.05023
37.03307
40.65817
43.91294
46.22657
48.3262
49.80656
50.69477
51.11557
51.03226
50.10727
48.56647
46.48229
43.86434
40.69238
37.04893
33.02083
28.15905
23.19631
17.97055
12.28769
6.100906
-0.6088494
-7.286616
-14.06395
-21.31538
-28.62267
-35.65287
-43.08401
-51.13546
-58.15239
-65.49497
-72.21363
-78.75573
-85.55671
-91.42355
-97.43398
-102.4948
-107.4082
-112.3803
-116.25
-119.6884
-122.5588
-125.056
-126.9249
-127.8463
-128.2538
-128.1893
-127.4784
-126.3393
-124.2838
-121.068
-117.0429
-113.1718
-109.4453
-107.3654
-106.0418
-113.7229
-128.3385
-120.9333
-91.23149
-65.66215
-51.09993
-35.23721
-45.77253
-132.9728
-171.5517
-127.91
-74.02095
-42.42771
-30.38113
-22.56165
-14.42332
-6.427719
1.597001
8.363377
14.53703
19.44564
24.50478
29.3869
33.30931
36.24135
38.33447
40.80116
45.08465
51.1989
58.96973
1.188167
-5.285887
-47.13902
7.118953
8.876851
4.120036
0.4380304
-0.115751
6.477024
-0.9321609
-1.005488
-0.128564
-0.1335489
-0.8338158
0.316396
1.580129
0.4555655
-2.200499
0.804327
-0.5163073
22.76526
0.111289
0.8106131
-1.093286
0.3032
0.5658306
-1.847636
-0.8753234
-4.527326
0.1002353
0.425147
-21.42712
0.5990723
0.1152293
0.2260893
-3.578252
0.2418387
-1.211312
0.0699949
-4.666291
-21.69477
1.220906
-0.4915864
2.736166
29.08112
0.3013055
-0.08817411
0.3869941
0.6334037
-0.663717
0.3277955
0.175337
1.864369
0.3475949
0.02834184
17.60876
-4.175308
0.4255851
-10.09606
-2.71405
-0.7945104
0.01821366
11.2645
0.5219064
4.38912
0.6161076
-41.16953
0.05714207
0.2210795
-0.04443494
-0.1241991
0.08560528
7.896131
27.62666
20.91644
0.0360283
2.980955
-2.04887
0.212869
0.3846073
-1.330991
-0.02170648
2.138183
0.2046452
-10.87374
0.6428076
0.4151673
-0.5069131
17.1389
0.1051069
-17.00464
22.65844
0.2344229
0.1594328
0.5710115
0.02572636
4.570545
4.82234
-76.71786
0.6375063
0.07045496
-0.3624707
0.2382619
-98.20459
0.01355593
-21.3353
0.02081788
0.3427977
-6.437123
4.720936
-0.622172
0.7147646
1.257207
6.175379
-29.84523
0.002917818
0.0797952
-0.06834849
21.28236
0.2140378
1.172233
0.9074251
-0.1568372
0.1124622
0.03057324
6.4583
0.3374401
-53.73994
0.8189655
0.5452478
0.06155612
0.3166288
0.4971007
0.4527419
0.4385119
-7.922922
-0.04221845
2.825277
0.1480028
0.120783
-50.81489
2.321959
-70.64977
-1.449149
-0.0226792
0.1986318
-0.732557
-44.43807
0.08978521
-0.08446188
0.4235144
-24.5839
46.19949
0.1031081
1.293588
-88.31465
0.06250329
0.1883669
0.3930354
-20.66375
0.4268881
-14.05869
2.617173
-1.631655
0.8637666
7.079791
-19.8209
0.2428836
-42.40369
-0.008673888
0.5051353
9.93973
1.784334
-60.49547
-3.81362
3.645022
1.202203
0.3344584
23.92107
0.1532838
13.43528
-0.4761487
0.2197896
0.1131652
3.212773
-48.36719
0.387788
-0.1559384
1.618563
0.4757113
0.001829144
0.02860652
-9.04571
-0.9455352
0.003841803
0.427565
0.1473386
-0.1653499
-4.747072
-32.89253
-0.7358353
0.4314102
0.9706347
15.01807
0.7797404
-0.09013943
-6.185065
0.2525634
-7.401247
0.02903601
0.5195926
0.2812263
1.001202
1.035306
0.1813525
-12.90233
-8.248166
-0.09518789
6.036666
0.7114572
0.817644
0.7161167
1.882779
0.4293396
-1.701866
-1.103504
0.2620438
6.756197
0.2134647
15.57098
-1.801492
17.61687
0.7687504
0.03385116
-90.42595
0.09903824
22.07773
0.3982955
1.421168
-0.1315436
0.4141394
0.2816626
0.1152213
-9.570514
0.4832232
7.285352
0.1380689
-57.99775
0.05750954
0.3282765
-29.23598
4.967919
-0.9317189
-0.3550232
1.955753
-19.40708
0.8288028
-0.01751041
15.1862
-1.720955
-10.10959
0.1729799
0.6467751
0.2268059
0.06052543
1.285143
0.5148772
0.1018254
4.027261
-24.19016
0.0935758
0.3318899
10.91785
-0.3280638
0.3234756
1.956389
1.086991
-33.07657
28.62273
0.1919893
0.2673337
-0.01484668
0.230855
0.5698324
0.7393848
0.4742945
36.50865
0.01173779
0.9956253
0.04804966
-0.4265447
-0.01674309
0.2980342
0.2964271
-50.8366
0.1054845
6.841521
0.05891109
1.043175
-0.3120541
-43.67675
0.1607474
0.06795374
-3.293603
-0.02970559
0.00591859
-0.01877609
0.2416133
0.5867761
0.3943151
3.945451
-1.580607
0.05017036
0.563931
-0.6251193
-11.52679
33.17364
-69.46345
26.55305
-91.50525
-0.4554804
0.05993188
-1.272099
0.06473251
-0.08614774
0.0210257
-0.05476155
0.02082617
0.160076
2.888807
17.28333
-0.02099509
-6.33757
39.08852
0.2461349
0.6882901
0.2086677
-0.01926004
-3.799358
0.2120146
-62.12834
0.1207474
0.5490859
-0.3386001
-11.43262
3.586557
5.637181
0.2506441
-9.415599
0.01058194
0.2128755
0.113918
11.0682
0.4302151
-0.4471434
33.58664
-55.98963
0.1062199
0.4526644
0.6828295
0.3659007
0.5220199
0.2159163
1.477465
-0.2544953
0.8596778
0.3645033
0.5129477
0.2465337
0.4612268
-2.552842
10.25619
-38.31023
0.1005942
0.973695
-0.7970167
0.4500961
0.9059379
1.389936
0.0252638
0.5559544
0.94828
-0.008467307
-19.81958
-0.03571145
0.3272406
0.4434424
38.52134
1.604872
-0.05288468
0.4024195
0.251426
1.846117
-83.26351
0.0165052
-0.4596921
0.4373676
1.143907
0.6564634
0.2554697
-0.2653332
-0.3551958
-26.2842
0.1992438
0.07574598
0.4534223
-49.36705
-53.28368
0.4747635
1.038411
0.3877482
0.6058081
0.08467735
-0.3421001
1.577782
-0.2366488
1.653881
1.210336
0.1192487
9.984392
-0.1003206
-0.07343965
2.373405
0.05190904
0.05601613
-22.63221
0.2087081
-0.1080934
23.57602
0.3970459
15.49319
0.3224037
0.3693815
0.4192272
0.8404767
0.8878289
0.03551773
-4.597852
0.08435491
-0.4247112
0.07963704
0.02026395
1.471378
0.1700007
-3.831562
0.4991821
-0.03829139
0.04005741
0.1706385
-0.5618119
-0.1233622
25.8718
1.279129
-14.99696
0.2088076
0.07278782
0.01028329
3.273367
0.5502816
-20.56929
0.605011
-50.23273
-1.218417
0.1826993
0.932846
-0.0131208
26.35005
0.05937767
1.982865
-1.02124
-8.099626
-0.2228774
0.509149
6.038891
0.1940283
-16.09074
0.5699951
-47.33806
-0.03703502
0.2686368
2.629355
0.6473655
0.7592893
0.1452316
0.5776611
0.156634
0.02213298
14.56841
0.002964816
0.3515629
0.212966
-23.08417
-2.290237
-0.01180753
-15.56886
0.2134332
0.4766333
2.951336
0.1747568
2.595096
0.5019995
0.290857
0.1374556
-3.754436
1.071618
0.5145766
-0.2466196
0.7616953
0.535936
0.2769616
-14.74398
-0.02592498
9.412282
-1.561673
0.81812
0.6876553
1.017089
0.009927166
-0.08588859
0.8175679
0.2969198
-0.008104589
-0.2868527
0.08946326
0.2375319
0.3305499
-0.9243558
3.004916
0.1073728
0.107682
-26.8749
-5.093333
-12.47659
0.01982992
2.944673
3.390411
2.543691
0.1054576
0.5627749
-0.004256916
3.603328
0.5438819
0.1177
1.266986
-72.80788
1.444348
2.843237
0.07247178
-0.02840939
6.99348
0.6155145
6.484328
0.4216002
-2.165879
4.223385
0.0733453
-0.549685
8.53894
14.24634
-12.37355
0.05139764
0.6917309
0.4732578
0.5387436
0.07026183
0.5739308
-0.3625215
2.561772
27.72864
0.1867064
0.7326448
1.30639
1.93197
-65.69728
0.1807715
1.865537
0.4278786
1.479897
0.1769175
0.2446769
1.337682
0.1322396
4.286562
-0.09259621
1.800708
-22.95359
0.978202
0.1971771
-89.13215
-3.222029
-0.1315844
-9.310225
0.6744054
-0.004659456
0.4748129
0.1796342
0.323732
-76.55722
0.5032824
0.55122
0.5084534
2.181603
0.08550861
-0.05015997
1.313247
-16.07982
-10.21466
0.2017617
-26.43896
0.5131742
3.789304
0.1149992
-0.5587564
0.4494514
6.920842
2.061976
-0.6805136
-3.220235
4.892581
2.370506
2.297306
0.1870992
0.002088931
0.08838455
0.564157
16.14578
1.729473
0.7807669
0.0269782
-1.464649
3.454297
5.849547
-14.16036
1.324753
-39.95159
-7.921233
0.8389987
-0.1940453
-0.7828932
0.4424937
0.5266436
0.05251988
0.3809616
1.234123
0.1608084
0.4861332
0.336704
-42.77416
0.1915162
23.86571
2.642204
-41.6945
0.2224455
7.357326
5.733252
-2.145525
-18.90585
0.2966933
0.2814302
-0.2608156
-0.9720036
-0.964882
-0.4185818
0.8239467
0.2744742
-0.1046327
0.7856985
0.4541492
0.6713405
-4.231767
0.4459929
0.3542501
-96.1808
0.3526393
0.4596113
0.1592523
16.95961
0.1065473
-0.6652875
6.108139
12.84521
10.49406
-0.4259503
0.6378588
0.5098314
0.1084049
0.1222454
-2.289957
1.937937
0.6590787
-29.61149
0.02962886
40.8888
0.1763104
0.1862524
0.239285
-35.50474
1.26087
0.1892773
-1.235247
0.4627795
-10.65584
-6.628932
-4.547345
3.200021
9.028652
0.5845636
0.3345533
-26.26754
0.6642213
0.7177306
-0.6894019
0.9951025
0.3037512
-6.320062
0.1091006
0.206567
-47.98772
0.1116393
0.2443782
0.8168589
0.0896033
0.356152
0.5185429
0.1120576
-0.152565
0.2028352
-27.23254
0.5257958
0.467155
-0.4302858
-0.1840423
0.4839602
0.2506155
0.1697696
1.038621
0.4187538
2.179237
-2.947203
-0.35167
-0.0007362267
0.2314932
0.4086952
0.3707015
2.581099
-0.02109398
-54.74876
1.294546
4.642882
5.223937
0.07755121
-4.13404
-2.115369
0.614231
0.03386649
-45.96571
1.223185
-11.37422
-21.21143
-5.115107
-3.473416
-1.416665
1.062503
12.19886
1.018556
0.966844
18.33266
0.6389173
0.1964758
0.4127974
-10.04309
20.94877
3.034578
0.4367565
1.257087
-0.3647679
-0.1295862
0.1411007
-0.2116301
0.5447157
0.8759772
-1.004805
0.45488
-4.380025
4.43535
0.6486637
0.4809415
0.1852136
0.8450046
-0.2798419
-0.4562574
10.39229
29.46767
0.1634332
0.1661445
0.3247806
0.2056026
0.1594668
0.03777993
39.70341
0.1362489
31.27759
-5.387448
-0.2013938
0.1365974
0.1791246
-10.8931
1.241858
0.3990837
0.3710313
0.5243549
-13.10687
-67.70698
0.6546673
-1.287275
-1.567686
-0.04296981
-0.3274389
1.055245
1.696502
-2.212141
12.6317
0.4327613
0.2041699
-0.194208
-0.94119
1.364344
-1.09738
0.02730777
-0.5635487
1.164602
0.235938
7.374111
-20.98621
0.2694658
-0.008857573
-2.756385
0.9894415
0.1864461
0.6866396
-1.266612
-1.318683
0.2966915
1.50454
0.4731747
0.7443864
2.516497
-0.140126
0.2530065
30.46718
0.06015779
-1.328008
0.02617709
-88.8611
-0.156041
0.5253274
0.6521399
0.1086296
32.3078
0.04251156
0.12414
0.9244596
0.3277999
0.2107727
0.2334161
0.8149937
0.6099774
-20.8658
-14.72535
0.3659179
-2.487403
-39.09411
0.2567228
0.09455073
0.4545927
-8.779962
3.810162
29.71475
0.04848842
0.02059705
0.000190071
0.0178384
0.009334753
7.139677
-0.9784577
0.4802308
0.1770382
-0.1439083
0.08664986
0.1724761
0.2395838
-8.141089
0.9297116
-32.67441
1.883097
6.321038
0.1673022
0.7137051
-0.01081779
-0.5871791
-15.40179
0.01691739
0.5103609
8.967413
-0.03432842
3.555166
0.5712594
0.293961
-8.944063
24.72113
0.7868568
0.03483272
-2.20727
-33.72229
0.01369217
0.1959248
1.099256
0.4516277
-4.519024
-29.86
-4.430225
1.384445
0.5139872
0.2701505
0.1147203
-5.875617
-19.9739
-60.39577
1.743538
-45.09612
1.304077
-0.01118972
-19.78207
0.2427952
-1.120271
-26.80445
0.01383641
0.312949
0.5272391
1.40987
0.1134437
-1.193242
38.83028
1.571386
13.82155
0.1430669
0.004465874
-2.328695
17.68415
-5.042433
-0.4729508
0.3801468
1.321791
0.2192123
0.0821328
0.6986316
0.4267285
0.2541488
-1.123552
-69.4166
-86.35007
0.5094603
0.6352963
1.634855
0.04622701
0.03080023
1.914335
0.4753938
0.1260546
0.2756919
0.1983228
0.00533225
-2.525803
0.5857733
-2.548935
0.4887734
0.6215752
18.19882
-0.6189481
0.3303154
-2.349988
-24.93945
4.763951
-1.872295
1.342814
-16.78834
-45.36929
32.72715
46.7156
1.377561
0.3142164
0.9746862
4.276883
-0.1015209
0.1684621
10.14691
-33.53834
0.7524473
0.2037404
-0.6416155
1.683795
0.2963594
2.550865
-1.560216
-28.17485
-61.53053
0.7741357
0.5085176
0.3508335
0.926127
1.046019
-8.942241
0.3612253
0.5310208
0.4992781
-1.085974
0.4150142
0.2785393
-44.76656
-20.21697
0.6360599
0.6519864
0.1893606
1.224553
0.2111356
0.5885246
0.1261652
19.07027
0.1872771
-21.79632
-51.41409
0.01406039
-0.6680959
33.59152
30.48102
-0.7389434
0.8079105
0.756976
0.8669051
-1.621154
-2.654574
0.2828483
0.2496347
0.04906174
0.5829067
0.5413704
-1.181844
-0.7352974
0.06670098
-0.6547739
0.2503485
-0.02622832
-0.9170505
-1.138231
0.1884087
0.03150868
1.422656
-0.2844039
0.1981015
2.48457
0.09175918
0.4137212
3.927095
-0.01130125
0.3534158
-24.45781
-23.70326
0.05363144
0.2305671
0.03892451
-0.08737608
-28.67153
-11.6919
9.332125
-33.60752
22.37867
0.2858641
2.414437
0.4724453
-17.82533
0.1408187
2.279145
25.49018
0.4452479
0.3603507
1.315761
1.423765
3.517267
-0.3422585
0.3560611
14.22165
0.2160389
28.15455
-4.020414
7.236949
35.27119
-10.62975
-6.447496
0.4730018
1.068142
0.5987703
6.696156
0.693611
6.406527
-1.15363
0.3403359
-10.26278
0.3733915
-2.057435
0.4044695
-24.96623
0.2380931
31.22374
6.6317
0.9975348
11.89418
0.07883504
29.32754
0.1310923
0.7830774
0.07875861
-0.547309
13.8563
0.6885176
-51.0486
0.1969738
0.3350119
-0.04338471
0.0823387
-0.5551606
-10.75708
2.343431
0.2058252
-37.27648
0.5983555
17.68665
14.01606
1.557987
18.44378
-17.47617
-5.000057
36.39744
38.05192
-0.08125925
0.1809532
-41.25405
0.2149026
0.05249911
-1.622004
-0.5295054
-24.42285
-91.54774
0.9939073
0.6036688
1.282526
0.8755655
0.4480309
0.08315363
0.3718818
2.663507
1.955431
0.02495267
0.3285711
0.3958977
0.3034676
0.9510555
0.1047672
0.1798422
0.06331801
-54.70412
0.06550121
1.454632
0.4270022
-1.014034
-38.9236
0.4943505
-0.0005743283
1.015064
0.2493879
0.1868231
0.4772999
0.5112171
0.6238116
-76.67453
25.31732
-2.016684
0.3892636
2.081447
-1.053987
0.4941657
0.1583365
0.1076947
0.04381932
0.09382364
9.726024
0.81773
-12.29633
0.9189156
2.546971
0.5049301
1.052774
-0.5171819
0.221517
1.386799
1.881326
-52.75173
1.779962
0.1404781
0.1430909
-0.1539689
0.04284655
0.2576586
-0.2234123
0.382335
-0.02214829
-0.140142
-10.65167
0.1705149
0.2961205
2.059653
-70.33151
0.06790913
0.07267047
0.1917309
-83.55846
0.2241719
-36.80298
0.08555501
0.02313906
-0.2840016
0.008483449
1.644285
-34.55138
19.05268
0.2107444
0.3112658
9.346437
0.1247286
1.639752
1.46062
1.475682
-1.257575
-0.01721564
0.5300707
31.89805
0.4544952
0.4021591
0.3944021
0.8429302
-0.5428356
-0.9467242
0.3113921
0.4711713
-10.30264
0.0519396
3.523477
8.27198
0.7876678
-13.40013
0.1547356
0.2541007
-0.9553279
-29.20209
-0.1898536
-1.085052
-0.370223
-14.48742
-2.284155
6.50823
-0.1669346
13.63502
0.1638645
-0.927809
-2.234997
-0.6117744
15.02535
0.7957776
6.311543
-79.80371
0.299005
0.3353437
-1.673901
0.3717605
0.3064432
0.3037395
0.5514482
0.07776605
0.2439244
-9.739297
0.1640868
0.2329546
0.7274742
1.161291
-0.9570392
0.3620074
0.2072328
0.1779914
0.2334336
3.535393
-0.4974422
1.138234
-0.41931
0.1137895
2.170238
0.1821625
-1.855006
0.22763
0.1893398
0.05292118
6.061406
-6.925905
2.682966
4.5979
0.02221313
9.602002
-61.61632
-19.68837
0.0745093
-0.4250755
16.32602
-2.515227
0.4343907
0.5152407
-2.082284
-0.03599657
-55.86794
-31.42138
-18.83018
10.70911
7.447911
0.01898595
-60.61605
-50.55291
-79.64311
0.6973772
-3.363744
-0.8801784
1.945124
0.210365
0.03362133
0.4138974
0.008948335
0.5018939
0.6723995
0.5102484
0.2412861
-28.92928
0.4274761
0.003136243
-0.3608309
7.976908
18.47103
0.06284818
12.47395
-38.49302
-6.335529
6.563591
-3.957613
-7.076791
-12.07319
-72.44458
-1.391895
16.99983
0.3394631
-60.52432
-27.10762
0.08857298
0.5298567
7.860859
0.5482909
13.09611
0.4767778
0.1882862
1.526809
-0.03488905
0.006937087
0.1952045
0.05874232
-0.1004681
0.6624296
-40.42845
0.06439473
0.3969571
0.5176757
0.5653117
0.5312715
1.935606
0.3087924
-50.60001
-0.7918107
0.5798319
22.67352
0.02563103
2.024635
7.698925
-1.247861
21.0431
0.5297626
0.1803644
0.1696946
0.1873918
0.6511858
0.06854061
0.8199294
-0.7377704
-0.008305054
0.1961615
0.02363083
18.46817
1.563977
-22.21762
3.5266
0.8524243
0.1190906
-86.21834
0.135616
0.515909
2.043153
0.6548191
0.365237
-60.21803
-69.66137
40.01576
0.003641831
0.3314814
17.69837
0.1059261
4.946289
0.6337012
0.5884742
1.533358
-38.53284
0.6564346
-84.73113
-0.1319043
-6.243019
0.2912699
0.7774947
8.575335
0.3276374
-0.6696669
0.6251706
0.04175905
-0.5335092
14.88969
-0.6293209
7.492619
0.5954519
0.4397395
0.1625364
0.9065035
0.9928355
-0.9870732
0.2102668
-8.97965
0.4856727
-0.004157729
16.36422
0.228687
0.01534224
-3.973665
-3.390679
0.3674461
0.58944
0.9946977
0.006006109
0.7537247
-77.8677
26.05175
-8.018704
0.3002321
0.3485122
-30.81171
-0.05174809
0.3104299
0.5510397
0.8143688
-0.3668469
-0.3289835
0.2730322
-26.22378
-0.2541239
19.78392
32.83826
0.8592529
1.204195
1.29292
0.8677578
0.510342
0.04590835
32.19403
-65.57824
0.1039416
-0.8995253
0.6369732
0.8353233
0.2192316
0.1335982
1.7631
0.1557477
0.7495909
15.57405
0.2260664
0.1629855
0.3719917
11.03473
-13.42023
-2.182646
0.01317175
-85.54697
28.10617
15.38642
0.06621817
-10.22899
-4.494796
0.2046823
0.9509037
31.25878
0.6186034
0.09604665
0.823496
-0.3919098
0.02744702
14.78082
0.529123
-0.03214616
0.4612191
0.6354322
18.4404
0.3659832
0.8195791
0.4720838
-0.0183219
0.4965675
18.79554
2.192677
5.727096
31.64421
-32.02674
0.3573905
0.08853602
2.631096
0.2733165
-38.60664
-5.090409
0.238059
0.2031948
-0.08185553
0.8712142
-16.10712
0.8696893
0.5624764
-10.5738
0.08238933
0.6243098
-1.582913
-64.78545
-15.81513
-0.6696931
2.316437
0.1928967
0.09604802
1.086313
0.4503202
0.4754926
-0.397324
25.11046
0.9498923
-1.963564
-1.294669
-64.90642
0.473054
1.806225
-10.81214
2.704949
-0.2075715
0.5756911
35.32098
0.07460577
0.3883903
0.1125272
0.3302429
5.318337
-29.55411
-45.37689
12.05901
0.6847482
0.5414688
0.2898053
0.3572574
0.08187472
0.2411479
0.2555152
0.776547
-0.062686
-0.1943961
0.04947593
-0.2585561
10.80569
7.203346
0.2039653
0.05786511
-1.530241
-1.158787
0.08945643
1.341632
4.809259
-49.85482
-23.20099
0.2764376
0.3670217
-84.15388
41.94298
-99.97402
0.63377
0.7448313
3.258695
0.5247299
7.498712
-21.40644
0.06506745
2.782388
0.3018681
2.148498
0.2258685
0.09696702
-0.5609236
21.43928
-0.05807385
0.4982394
-0.6701958
0.5688011
25.35542
9.245964
16.70855
0.510313
13.56306
0.4083942
0.5663189
0.5085417
-0.01995435
23.14641
0.3376089
2.478357
29.10132
0.3877645
0.2937804
0.2239798
24.12024
0.2797026
1.335161
2.350525
0.2741488
0.474968
-0.2031097
-91.57708
0.172729
32.01415
0.8771478
1.116543
45.18824
-2.296287
-0.1344397
0.2082126
2.378201
0.4003242
1.031973
19.99002
42.66982
1.699378
-1.448244
45.49586
0.09235946
-0.0421397
-0.008096491
-18.83065
0.2173859
0.06021597
-4.243542
0.3522631
-12.21467
32.08733
0.08639051
0.1402703
0.1532332
0.3677424
14.40934
0.1596177
0.1810963
0.3949907
-0.1183425
0.02912004
-0.1989474
-0.6902269
0.4331548
1.297256
0.8281231
-22.2052
25.5154
-45.04523
-29.68407
18.44874
-0.9755
-4.145875
-0.1698975
0.2690163
2.838012
12.48339
1.36923
26.28581
-21.17046
0.8351157
0.3310861
1.037851
1.956345
1.535041
0.4348566
1.409186
-95.51922
1.274684
-0.1330281