/*--------------------------------*- C++ -*----------------------------------*\
| =========                 |                                                 |
| \\      /  F ield         | OpenFOAM: The Open Source CFD Toolbox           |
|  \\    /   O peration     | Version:  2406                                  |
|   \\  /    A nd           | Website:  www.openfoam.com                      |
|    \\/     M anipulation  |                                                 |
\*---------------------------------------------------------------------------*/
FoamFile
{
    version     2.0;
    format      ascii;
    arch        "LSB;label=32;scalar=64";
    class       surfaceScalarField;
    location    "0.52";
    object      phi;
}
// * * * * * * * * * * * * * * * * * * * * * * * * * * * * * * * * * * * * * //

dimensions      [0 3 -1 0 0 0 0];

oriented        oriented;

internalField   nonuniform List<scalar> 
6749
(
5.232785e-09
4.074659e-09
-9.307444e-09
-1.800722e-09
-1.138959e-09
2.939681e-09
-6.986675e-11
-1.693874e-09
1.763741e-09
1.725072e-09
-5.728036e-10
-1.152269e-09
1.313204e-09
-1.386016e-09
7.281181e-11
-1.013757e-09
1.823254e-09
-8.094971e-10
1.238294e-09
2.425278e-10
-1.480822e-09
2.315025e-10
1.126098e-09
-1.3576e-09
-9.198883e-10
1.358419e-09
-4.385303e-10
-1.732249e-09
4.797294e-10
1.25252e-09
1.750167e-09
-1.028873e-09
-7.212942e-10
-7.8357e-10
-1.506027e-09
2.289597e-09
-2.235338e-09
-2.893002e-10
2.524638e-09
3.702124e-09
-1.244848e-09
-2.457277e-09
9.953184e-10
4.237806e-10
-1.419099e-09
-1.908827e-09
6.008362e-11
1.848743e-09
1.771612e-09
-3.444566e-11
-1.737166e-09
3.594736e-10
-1.376483e-09
1.017009e-09
-6.394045e-10
-5.726415e-10
1.212046e-09
1.829167e-09
1.193159e-10
-1.948483e-09
-7.951258e-10
1.587676e-09
-7.925502e-10
9.170585e-10
-1.799729e-09
8.826704e-10
1.53329e-09
6.082408e-10
-2.141531e-09
-1.185409e-09
2.416178e-10
9.437914e-10
9.333993e-10
9.046371e-10
-1.838036e-09
-5.7836e-10
-1.111903e-09
1.690263e-09
1.066331e-09
3.602324e-10
-1.426564e-09
3.52939e-10
9.296222e-10
-1.282561e-09
2.845344e-10
-1.373869e-09
1.089335e-09
1.30234e-09
1.607542e-10
-1.463094e-09
-3.311136e-09
1.905438e-09
1.405699e-09
1.46394e-09
2.238184e-09
-1.481297e-09
2.695564e-09
-1.214267e-09
-1.683817e-09
1.037743e-09
6.460742e-10
-8.045419e-10
-1.456687e-09
2.261229e-09
4.855307e-09
-1.021039e-08
5.355078e-09
7.798864e-11
-1.480198e-09
1.40221e-09
-1.728105e-09
1.912839e-09
-1.847343e-10
-9.653528e-10
2.881229e-09
-1.915876e-09
9.883103e-10
7.233348e-10
-1.711645e-09
6.660969e-09
-1.805662e-09
7.396291e-10
8.295e-10
-1.569129e-09
6.484705e-10
-3.016141e-09
2.36767e-09
4.602376e-09
2.446896e-09
-7.049272e-09
1.360321e-09
-2.648686e-09
1.288365e-09
-1.017348e-09
-7.149011e-10
4.354676e-10
-1.937698e-09
1.502231e-09
-6.034497e-11
-1.110676e-09
1.171021e-09
-1.712609e-09
1.714975e-09
-2.366151e-12
4.896472e-10
-1.831842e-09
1.342194e-09
1.591152e-09
-5.669178e-10
-1.024234e-09
1.757374e-09
3.366519e-09
-5.123893e-09
-1.417567e-09
-4.15553e-10
-1.192745e-09
-8.115783e-10
2.004324e-09
-4.584391e-10
1.859232e-09
-1.400793e-09
7.464986e-10
8.28521e-10
-1.57502e-09
6.405387e-09
-5.029154e-09
-1.376233e-09
1.952759e-09
2.223812e-10
-2.175141e-09
-9.522727e-10
1.207352e-09
-2.550794e-10
-2.80155e-10
1.808017e-09
-1.527862e-09
6.680586e-10
-1.701029e-09
1.032971e-09
-5.669771e-10
-1.075633e-09
1.64261e-09
-2.620518e-10
-1.473808e-09
1.73586e-09
-8.111773e-10
5.973379e-10
2.138394e-10
-9.018758e-10
1.334831e-09
-4.329551e-10
-6.372239e-10
-1.086054e-09
1.723278e-09
1.280561e-09
2.019588e-10
-1.48252e-09
-6.19889e-11
-2.058691e-09
2.12068e-09
-1.855277e-09
2.429689e-09
-5.744119e-10
1.391778e-10
1.234627e-09
-1.373804e-09
6.278204e-10
-1.87166e-09
1.24384e-09
1.466164e-09
5.846588e-10
-2.050823e-09
3.171676e-10
-1.319645e-09
1.002478e-09
-5.16403e-10
-1.242303e-09
1.758706e-09
1.184396e-09
4.67618e-10
-1.652014e-09
9.015841e-10
-1.725151e-09
8.23567e-10
2.122331e-09
-1.038651e-09
-1.08368e-09
6.399463e-10
-1.076458e-09
1.83335e-09
-1.101972e-09
-7.31378e-10
3.65592e-09
-2.77406e-09
-8.8186e-10
-6.129359e-11
1.784824e-09
-1.72353e-09
-1.865039e-09
1.117465e-09
7.475742e-10
1.776048e-09
-1.051513e-09
-7.245353e-10
-1.209364e-09
1.522892e-09
-3.135278e-10
-4.243548e-09
4.583363e-10
3.785211e-09
-3.782547e-10
1.68711e-09
-1.308855e-09
-1.691915e-09
3.875642e-10
1.304351e-09
-1.045626e-09
-4.124051e-10
1.458032e-09
1.438711e-09
-1.906321e-09
4.676094e-10
-1.881221e-09
3.777577e-10
1.503463e-09
6.745712e-09
-7.091406e-09
3.456941e-10
1.221535e-09
1.396143e-10
-1.361149e-09
8.900139e-10
8.771783e-10
-1.767192e-09
-1.961414e-09
1.935379e-09
2.603482e-11
-8.502507e-11
-1.673484e-09
1.758509e-09
1.637941e-09
-9.749851e-10
-1.019428e-09
1.87348e-09
-8.540522e-10
2.262426e-09
-3.340867e-09
1.078441e-09
-7.82026e-10
-7.080064e-10
1.490032e-09
-3.596109e-10
-1.124829e-09
1.48444e-09
-2.241569e-09
9.014554e-10
1.340113e-09
-1.384506e-09
-7.115354e-09
8.49986e-09
1.249299e-09
-1.767252e-09
5.179523e-10
-1.824703e-09
9.724541e-10
8.522493e-10
-4.374945e-11
7.110909e-09
-7.067159e-09
-1.204537e-09
-5.788745e-10
1.783412e-09
-9.093243e-10
-7.466152e-10
2.178737e-09
-6.238438e-09
4.059701e-09
2.175867e-10
-1.543205e-09
1.325618e-09
-2.191448e-09
8.725918e-10
1.318856e-09
1.076586e-09
-1.899611e-09
8.230248e-10
3.757307e-09
1.715968e-09
-5.473275e-09
1.645563e-09
-3.824982e-09
2.17942e-09
-8.955231e-10
-7.505801e-10
-1.99877e-09
2.565043e-09
-5.662728e-10
-1.324555e-09
1.054514e-10
1.219104e-09
6.235902e-10
1.130105e-09
-1.753695e-09
1.48902e-09
1.314754e-10
-1.620496e-09
4.866442e-10
1.223061e-09
-1.709705e-09
-9.564021e-10
-8.766673e-10
1.833069e-09
-5.113566e-09
5.091702e-09
2.186424e-11
-1.8842e-09
-8.906941e-10
2.774894e-09
-2.931587e-10
1.847669e-09
-1.55451e-09
-1.656532e-09
2.136961e-10
1.442835e-09
2.039637e-09
-1.100477e-09
-9.391601e-10
2.075351e-09
-2.722939e-10
-1.803057e-09
-3.811661e-10
1.244291e-09
-8.631253e-10
-4.014857e-10
1.31693e-09
-9.154439e-10
-1.651879e-09
2.441313e-09
-7.894335e-10
2.875279e-10
-1.189404e-09
4.815592e-10
-1.523581e-09
1.042022e-09
1.512732e-09
-1.295351e-09
-2.173814e-10
-1.312352e-09
2.625525e-10
1.049799e-09
-1.425223e-09
2.043812e-09
-6.185894e-10
-1.187247e-09
-4.660978e-10
1.653345e-09
9.838714e-10
3.252042e-10
-1.309076e-09
6.92582e-10
1.454205e-09
-2.146787e-09
4.643885e-10
-1.586974e-09
1.122585e-09
1.263113e-09
-1.414349e-09
1.512362e-10
1.127381e-09
-2.001743e-09
8.743618e-10
-1.236641e-09
1.726289e-09
2.019206e-10
-1.531258e-09
1.329338e-09
2.037618e-09
-6.722944e-10
-1.365324e-09
9.141518e-10
-2.102622e-09
2.076842e-09
-1.207186e-09
-8.696557e-10
-1.606353e-09
3.300243e-10
1.276328e-09
-1.348194e-09
6.921654e-10
6.56029e-10
-4.664073e-09
3.753756e-09
9.10317e-10
-1.942519e-09
-5.517379e-10
2.494257e-09
-6.969917e-10
-1.225805e-09
1.922797e-09
5.342998e-10
1.311795e-09
-1.846094e-09
7.30219e-10
1.051435e-09
-1.781654e-09
1.704986e-09
-1.645262e-09
-5.972355e-11
-1.658356e-09
7.652183e-10
8.931382e-10
-2.068766e-09
1.284944e-09
7.838224e-10
-3.652067e-10
-1.166769e-09
1.531976e-09
1.056838e-09
-1.748239e-09
6.914015e-10
-1.552997e-09
8.319554e-10
7.210415e-10
4.812789e-09
2.778357e-09
7.502676e-10
1.269259e-09
-2.019526e-09
-1.335978e-09
1.959568e-09
1.329288e-09
4.160408e-10
-1.745329e-09
-5.591533e-10
-7.736281e-10
1.332781e-09
4.820756e-10
-2.068855e-09
1.586779e-09
-1.694835e-09
1.499166e-09
1.956691e-10
1.773503e-09
1.28862e-11
-1.786389e-09
4.951054e-10
-1.58924e-09
1.094134e-09
-9.3313e-10
-1.111788e-09
2.044918e-09
1.868117e-09
-1.407503e-09
-4.606137e-10
-1.257445e-09
1.645981e-09
-3.885366e-10
3.128612e-10
-1.985426e-09
1.672565e-09
1.641104e-09
-8.084822e-10
-8.326222e-10
-1.958065e-10
-1.075696e-09
1.271503e-09
2.117199e-09
-6.602379e-10
-1.456961e-09
1.096759e-09
1.087099e-09
-2.183858e-09
-1.794838e-09
-4.323658e-11
1.838075e-09
-8.170395e-10
-8.346624e-10
-1.160709e-09
-3.150615e-10
1.47577e-09
-1.567832e-09
-9.167121e-11
1.659503e-09
1.233646e-09
5.226353e-10
-1.756281e-09
1.544842e-09
7.051339e-10
-2.249976e-09
1.227573e-09
-2.802369e-10
-9.473361e-10
-1.212129e-09
1.116127e-09
9.600193e-11
2.011042e-09
-1.921447e-09
-8.959439e-11
4.355549e-10
1.301704e-09
-1.737259e-09
-4.014433e-10
2.172642e-09
-1.771199e-09
-2.286853e-09
4.46559e-09
-5.266241e-10
-1.17179e-09
1.698414e-09
-9.121956e-10
-2.290945e-09
3.203141e-09
2.11125e-10
-1.618973e-09
1.407848e-09
1.59505e-09
-9.73369e-10
-6.216809e-10
1.28097e-09
-1.896815e-09
6.158449e-10
1.455077e-09
7.178628e-10
-2.17294e-09
-1.324794e-09
1.852247e-09
-5.274528e-10
1.610172e-09
1.763857e-10
-1.786557e-09
2.673343e-09
-2.311647e-09
-3.616961e-10
-2.056737e-09
6.383088e-10
1.418428e-09
7.075192e-10
7.536342e-10
-1.461153e-09
7.702697e-10
-1.784288e-09
8.758589e-10
9.084292e-10
9.948479e-10
-1.418774e-09
4.239262e-10
8.073633e-10
1.431151e-10
-9.504784e-10
6.106231e-10
-1.417902e-09
8.072789e-10
1.574711e-09
-1.528669e-09
-4.604145e-11
5.522204e-09
-9.198276e-10
-1.956132e-09
9.866519e-10
9.694799e-10
-1.140687e-09
1.137285e-09
3.402017e-12
-1.322622e-09
8.641832e-10
-1.323327e-09
-5.53197e-10
1.876524e-09
-5.092774e-10
2.024385e-09
-1.515108e-09
-1.078446e-09
-6.395237e-10
1.71797e-09
-1.398481e-09
1.13643e-09
2.090324e-09
-8.507729e-10
-1.239551e-09
-1.041366e-09
1.212782e-09
-1.714166e-10
-8.503415e-10
-5.914383e-10
1.44178e-09
2.001651e-09
-8.339676e-10
-1.167683e-09
1.383186e-09
-1.94604e-09
5.628534e-10
-1.290934e-09
-1.051933e-09
2.342867e-09
-4.254894e-10
1.456028e-09
-1.030538e-09
1.219834e-09
-4.750369e-10
-7.447974e-10
8.422515e-10
-5.806533e-10
-2.615982e-10
1.456338e-09
4.726763e-10
-1.929014e-09
9.111581e-10
8.32578e-10
-1.743736e-09
-1.090472e-09
1.801992e-09
-7.115205e-10
-1.395153e-09
-7.370661e-10
2.132219e-09
1.836422e-09
1.061279e-09
-2.897701e-09
2.024774e-09
-1.314287e-09
-7.104864e-10
1.579101e-09
-1.718549e-09
1.394485e-10
8.052147e-10
7.252182e-10
-1.530433e-09
4.166705e-09
-4.388954e-09
2.222494e-10
7.777766e-10
1.256667e-09
-2.034444e-09
-2.24474e-09
1.804289e-09
4.40451e-10
2.314113e-09
-1.531347e-09
-7.827659e-10
-1.736522e-09
9.497463e-10
7.867759e-10
8.75669e-10
-3.997245e-10
-4.759445e-10
-1.158001e-09
1.33604e-09
1.920264e-09
-3.463078e-10
-1.573956e-09
2.684845e-09
-3.242538e-09
5.576928e-10
2.803813e-09
-3.999275e-09
1.195462e-09
3.040048e-10
-1.540106e-09
1.236102e-09
-1.00997e-09
-1.23477e-09
-2.242422e-09
1.141479e-09
-1.256358e-09
1.643124e-10
1.092046e-09
-1.442228e-10
1.430784e-09
-1.286561e-09
1.489718e-09
-8.729227e-10
-6.167953e-10
5.379249e-11
1.805648e-09
-1.859441e-09
1.194196e-09
7.454945e-10
-1.93969e-09
-7.367859e-10
2.027038e-09
-1.290252e-09
-3.096607e-10
-7.977079e-10
1.107369e-09
1.395067e-09
2.140262e-09
-3.535329e-09
9.840676e-11
1.738016e-09
5.475126e-10
9.243337e-10
-1.471846e-09
9.137086e-10
6.732629e-10
-1.586972e-09
1.003896e-10
-1.740874e-09
1.640484e-09
7.148396e-10
5.482458e-10
-1.263085e-09
-4.146777e-09
6.346681e-10
3.512109e-09
1.870782e-09
-9.59624e-10
-1.865442e-09
9.896288e-10
8.758137e-10
-8.916682e-10
1.686283e-09
-1.115723e-10
-1.144312e-09
-6.215695e-10
1.765882e-09
4.414499e-10
9.816759e-10
-1.423126e-09
2.957163e-09
-1.797076e-09
-1.160087e-09
8.867902e-10
5.002536e-10
-1.387044e-09
1.716405e-09
-1.399238e-09
-1.428028e-09
1.024303e-09
4.03725e-10
-5.726108e-10
-1.067564e-09
1.640175e-09
9.839185e-10
-1.532101e-09
5.481822e-10
2.44628e-09
-1.007244e-09
-1.439036e-09
-2.770034e-10
-1.19101e-09
1.468013e-09
2.888093e-10
1.181285e-09
-1.470094e-09
1.167151e-09
3.593345e-10
-1.526485e-09
-1.093445e-09
1.398315e-09
-3.048692e-10
-2.634088e-10
1.2849e-09
-1.021491e-09
-1.515775e-09
-2.414882e-10
1.757263e-09
-1.332433e-10
1.935684e-09
-1.802441e-09
6.582378e-10
8.038294e-10
-1.462067e-09
-6.526246e-10
1.570976e-09
-9.183509e-10
-1.532494e-09
1.665798e-09
-1.333041e-10
-3.538692e-10
1.881921e-09
-1.528051e-09
-1.479737e-09
4.197055e-10
1.060032e-09
-1.724674e-09
1.663243e-09
6.143082e-11
9.889009e-10
5.756811e-09
1.469722e-09
-1.510203e-09
4.048062e-11
1.367018e-09
6.618594e-10
-2.028877e-09
9.454527e-10
7.574281e-10
-1.702881e-09
-3.216488e-09
-6.993897e-09
1.5842e-09
-1.049814e-09
-5.343862e-10
-1.19534e-09
1.247418e-09
-5.207855e-11
-1.442115e-09
9.469357e-10
4.951796e-10
-1.7488e-10
-1.485023e-09
1.659903e-09
1.149322e-09
-6.849332e-10
1.836376e-09
-7.795381e-10
-6.123041e-10
-9.406929e-10
1.398116e-09
-9.1604e-10
-1.505274e-09
4.410822e-10
1.064191e-09
1.731231e-09
-6.593398e-10
-1.071891e-09
-2.128508e-09
1.868552e-09
2.599554e-10
-8.749746e-10
-4.493448e-10
1.324319e-09
2.620395e-09
-1.757967e-09
-8.624273e-10
-1.97564e-09
1.416483e-09
5.59157e-10
5.44667e-10
-1.608806e-09
1.064139e-09
-2.639841e-09
1.879075e-09
7.607666e-10
-1.280899e-09
-2.852977e-10
1.566197e-09
6.992395e-10
-2.438722e-09
1.739483e-09
-9.050494e-10
-8.435545e-10
1.748604e-09
-3.94012e-10
1.601097e-09
-1.207085e-09
1.266986e-09
3.172145e-10
9.019344e-10
-2.039748e-09
1.137813e-09
-8.000492e-10
-9.20018e-10
1.720067e-09
-1.865221e-09
2.191171e-09
-3.2595e-10
1.195869e-09
-2.677166e-09
-2.473916e-09
-2.190157e-09
1.682531e-10
1.552591e-09
-1.720844e-09
7.959267e-10
7.581031e-10
-1.55403e-09
-4.00728e-09
2.551811e-09
1.455469e-09
1.959021e-09
-6.21269e-10
-1.337752e-09
-8.523719e-10
1.592001e-09
4.332769e-11
1.489962e-09
8.138799e-10
5.131323e-10
-1.327012e-09
1.554968e-09
1.480528e-10
-1.703021e-09
1.04059e-09
-1.551105e-09
2.241354e-09
-1.313373e-10
-2.110016e-09
-9.606227e-10
2.313824e-09
-1.353201e-09
-1.101578e-09
8.68208e-10
2.333697e-10
1.331726e-09
-2.101517e-09
7.697913e-10
2.289321e-09
-7.344941e-09
5.05562e-09
9.816004e-10
1.125464e-09
-2.107065e-09
-8.330404e-10
1.635769e-09
-8.027286e-10
-9.08809e-10
1.618398e-09
-7.095886e-10
2.322448e-09
-1.670688e-09
-6.517594e-10
1.557376e-09
-1.359435e-09
-1.979401e-10
9.225006e-10
-2.493753e-09
1.571253e-09
-5.623308e-10
1.878988e-09
-1.316658e-09
2.176278e-09
-1.734828e-09
1.736749e-09
-8.617408e-10
-8.750082e-10
-1.57097e-09
6.421543e-10
9.288152e-10
8.16659e-10
-1.070875e-09
2.542157e-10
1.755862e-09
-1.704931e-09
-5.09313e-11
4.437959e-09
-2.451366e-09
-1.986593e-09
-1.226476e-09
1.837099e-09
-6.306582e-10
1.385657e-09
-7.549986e-10
1.95322e-09
-1.519114e-09
-4.341061e-10
-1.821922e-09
3.216989e-09
3.193277e-10
-1.398287e-09
1.07896e-09
-2.074928e-09
1.254887e-09
8.200411e-10
-2.311365e-09
-4.664776e-10
2.777843e-09
1.121055e-09
-1.925597e-09
8.869554e-10
1.212545e-09
-2.0995e-09
-2.23475e-10
-1.344357e-09
-1.074406e-09
1.686348e-09
-6.119414e-10
8.495158e-10
-2.225499e-09
1.375984e-09
1.480572e-09
-1.706673e-09
2.261005e-10
6.619192e-10
-1.815391e-09
1.153472e-09
-2.195569e-09
1.526367e-09
6.692019e-10
3.417729e-10
-1.716235e-09
1.374462e-09
-1.050264e-09
-8.257431e-10
1.156631e-09
-1.745403e-09
5.887722e-10
1.638889e-09
-2.942652e-09
1.303763e-09
1.694811e-09
-1.08657e-09
1.066079e-09
-1.861204e-09
9.823211e-10
-1.808716e-09
8.263952e-10
1.949142e-09
-9.543212e-10
-9.948203e-10
1.168622e-09
-2.841096e-09
1.672474e-09
1.1485e-09
-2.116265e-09
9.677655e-10
-6.763123e-10
1.509313e-09
-8.330007e-10
-1.677237e-09
1.655151e-10
1.511722e-09
-1.528732e-09
9.021263e-11
1.43852e-09
-7.516257e-09
6.197357e-09
1.3189e-09
-1.435781e-09
-3.639811e-10
1.799762e-09
-2.453944e-09
8.691701e-10
1.584774e-09
-2.208798e-10
-5.902975e-10
-1.64778e-09
6.981666e-10
9.496135e-10
-3.986576e-10
-1.670197e-09
1.992261e-09
-8.532137e-10
-1.139047e-09
-1.329e-09
1.433365e-09
-1.043647e-10
1.902901e-09
-9.21301e-10
9.127857e-10
1.169891e-09
-2.082677e-09
-1.745784e-09
1.495985e-09
2.49799e-10
4.692175e-10
1.043515e-09
4.13623e-10
-1.782321e-09
1.368698e-09
1.549205e-09
-1.417176e-10
-1.407488e-09
-1.662758e-09
8.538531e-10
8.089052e-10
2.167974e-09
3.086256e-10
-2.476599e-09
-1.388633e-09
1.192826e-09
-8.538555e-10
1.412081e-09
-5.582254e-10
-1.209414e-09
1.486231e-09
-2.768173e-10
8.10759e-10
-2.538864e-09
1.382988e-09
-9.231815e-10
-4.598065e-10
-1.954985e-10
1.646636e-09
-1.451137e-09
-9.299074e-10
1.695933e-09
-7.660259e-10
-1.53811e-09
1.80244e-09
-2.6433e-10
-1.726364e-09
1.970632e-09
-3.076361e-09
1.105729e-09
-1.678537e-09
1.171959e-09
5.065784e-10
-3.577142e-10
-1.345103e-09
1.702817e-09
1.24474e-09
-1.936669e-09
6.919285e-10
2.071601e-10
1.383566e-09
-1.590726e-09
-3.291899e-09
4.907456e-09
-1.615557e-09
-7.733893e-10
1.909536e-09
-1.136147e-09
-4.350465e-10
-8.617403e-10
1.296787e-09
1.204575e-09
-1.707014e-09
5.024391e-10
-2.940925e-10
1.424198e-09
9.82228e-10
-1.623767e-09
6.415392e-10
-1.054316e-09
-3.185956e-10
1.372912e-09
7.490785e-10
1.138385e-09
-1.887464e-09
1.239545e-09
6.317577e-10
-1.841122e-09
-9.054917e-10
-9.486083e-10
1.8541e-09
-2.761345e-09
-2.098504e-09
7.644734e-10
1.334031e-09
6.956107e-10
-1.412226e-09
7.166152e-10
3.836662e-10
1.717239e-09
-2.100905e-09
1.185385e-09
-8.051889e-10
-3.801958e-10
-5.79305e-10
-1.00907e-09
1.588375e-09
-2.049089e-09
1.270332e-09
7.787574e-10
-2.598882e-09
2.9963e-10
2.299252e-09
-1.640231e-09
-3.888073e-11
1.679112e-09
7.402599e-10
-1.831325e-09
1.091066e-09
1.0788e-09
1.067618e-09
-2.146418e-09
1.293814e-09
-3.703142e-10
-9.235e-10
-1.2418e-09
8.413744e-10
4.004253e-10
-1.364075e-09
-1.846999e-09
3.211074e-09
7.196385e-10
-1.653226e-09
9.335876e-10
-1.296592e-09
1.731229e-09
-4.346365e-10
-6.424831e-10
-1.224568e-09
1.867051e-09
2.00319e-09
-1.272971e-09
9.942766e-10
-1.784199e-09
7.899224e-10
-5.606946e-11
-1.121987e-09
1.178056e-09
1.807748e-09
-1.016891e-09
-7.908575e-10
-1.719644e-09
2.038689e-10
1.017976e-09
5.118138e-10
-1.52979e-09
-2.07359e-11
-1.874399e-09
1.895134e-09
-8.568977e-10
1.845038e-09
-9.881405e-10
-1.31032e-09
-6.676667e-09
7.986987e-09
-1.947209e-09
6.013799e-10
1.345829e-09
-1.084444e-09
-8.679134e-10
1.516195e-09
-6.482813e-10
-1.330138e-09
-8.412113e-10
2.17135e-09
2.664341e-09
-2.739307e-09
7.496623e-11
1.657878e-09
-1.688573e-10
-1.856084e-09
1.393154e-09
4.629307e-10
-1.162116e-09
-3.100758e-10
1.472192e-09
9.784078e-10
-1.499452e-09
5.210446e-10
-8.964312e-10
-1.039679e-09
1.93611e-09
2.010359e-09
-5.831604e-10
-1.427198e-09
-2.430095e-09
3.790416e-09
4.242545e-10
-1.308285e-09
8.8403e-10
5.080215e-10
1.221882e-09
-1.729903e-09
9.775957e-09
-9.775957e-09
-1.542922e-09
1.125786e-09
4.171355e-10
1.76034e-09
-9.08398e-10
-8.519424e-10
1.067072e-09
-1.631859e-09
1.591208e-09
-9.596758e-10
-6.315322e-10
-1.645702e-09
-1.988336e-10
1.844536e-09
1.433761e-09
1.763568e-09
-3.19733e-09
1.606235e-09
-8.597365e-10
1.473236e-09
-8.330021e-10
-6.402336e-10
1.560032e-09
-7.163473e-10
-8.436845e-10
1.794964e-09
-5.64918e-10
-1.230046e-09
7.996202e-10
-1.574791e-09
7.751704e-10
1.925814e-09
-4.694759e-10
8.375903e-10
5.742443e-10
-1.411835e-09
-7.913818e-10
-5.312405e-10
1.792508e-09
-1.525768e-09
-2.667404e-10
1.645871e-09
8.110663e-12
-1.612373e-09
1.604262e-09
-2.498908e-10
1.567885e-09
-1.317994e-09
6.752967e-10
1.597815e-09
-1.16226e-09
-9.848727e-10
1.834389e-09
1.852716e-09
-1.30941e-09
-5.433053e-10
2.209221e-09
-1.307637e-09
1.303378e-09
-1.474341e-09
1.709628e-10
3.225342e-10
-1.900824e-09
1.57829e-09
-3.838872e-10
-1.52494e-09
-1.346488e-09
1.219193e-09
1.272952e-10
7.537455e-11
-1.39502e-09
7.363548e-09
-2.130763e-09
2.563907e-09
9.88355e-10
-3.552262e-09
-2.879955e-09
1.51588e-09
7.752758e-10
-1.619532e-09
3.595547e-10
-1.114863e-09
7.553086e-10
-1.132905e-09
1.169402e-09
-3.649651e-11
-4.002833e-10
1.814419e-09
-1.414136e-09
1.315499e-09
5.552831e-10
-1.236533e-09
1.723177e-09
7.510436e-10
-1.767458e-09
1.016415e-09
5.889392e-10
-3.054864e-09
2.465925e-09
-1.808291e-09
-5.692066e-10
3.750239e-09
2.243663e-09
-5.993901e-09
-1.829141e-09
2.796465e-10
1.549494e-09
-6.607381e-10
1.817244e-09
-1.156506e-09
-3.131898e-09
-1.516414e-09
4.648313e-09
-2.373767e-09
-1.960718e-09
4.334485e-09
9.812487e-10
-1.375972e-09
3.947236e-10
-3.486841e-09
7.157287e-10
2.771112e-09
-1.516773e-09
6.528215e-10
8.639518e-10
-9.559955e-10
2.034795e-09
2.602171e-09
-2.531791e-09
-7.038056e-11
1.140751e-09
5.959976e-10
-2.676571e-09
2.008593e-10
2.475711e-09
1.427049e-09
-2.93886e-10
-1.133164e-09
1.774998e-09
-5.682021e-10
-1.206796e-09
8.473417e-10
1.269857e-09
-1.677267e-09
2.568176e-09
-8.909094e-10
-4.737634e-10
-1.113888e-09
1.587652e-09
-1.645318e-09
9.276742e-10
7.176435e-10
-9.021176e-11
-3.396629e-09
-2.792167e-12
-1.319976e-09
1.322768e-09
-1.176368e-09
1.975988e-09
-1.433386e-09
2.24674e-09
-8.133544e-10
-1.811266e-09
9.416254e-10
8.696403e-10
-1.213123e-09
1.535883e-09
-3.227601e-10
1.89681e-09
-1.145766e-09
-9.065303e-10
3.126966e-10
-9.605127e-10
1.886272e-09
-9.25759e-10
-9.772116e-11
-1.275128e-09
1.372849e-09
3.69659e-10
1.268396e-09
-1.638055e-09
5.542664e-10
-1.747012e-09
-6.097758e-10
2.07594e-09
-4.023632e-10
-7.545155e-10
1.156879e-09
1.580575e-09
-9.223369e-10
2.529939e-10
1.017399e-09
-1.270393e-09
-1.09913e-09
3.835087e-10
7.15621e-10
-4.577651e-10
1.50216e-09
-1.044395e-09
5.323616e-09
-3.615897e-09
-1.707718e-09
9.040189e-10
-1.618227e-09
7.142086e-10
-2.181603e-10
1.454747e-09
-1.236587e-09
1.318393e-09
-1.307601e-09
-1.079176e-11
3.72316e-10
-1.738975e-09
2.822876e-10
5.33369e-09
-1.211652e-09
-4.122038e-09
1.293989e-11
1.245684e-09
-1.258624e-09
-2.906981e-10
1.589374e-09
-1.298675e-09
2.95521e-09
-3.38439e-10
-2.616771e-09
-1.109547e-09
2.116952e-09
-1.007405e-09
-1.022224e-09
1.7309e-09
-7.086762e-10
-1.494129e-09
2.523295e-10
2.678714e-09
-2.366017e-09
-1.541537e-10
1.450549e-09
-1.296396e-09
3.141263e-10
1.411695e-09
-1.725821e-09
6.064371e-10
-1.14884e-09
5.424029e-10
-3.63906e-10
-1.130223e-09
1.322287e-09
2.601866e-09
-3.924154e-09
1.032485e-10
1.600515e-09
-1.703763e-09
3.106091e-09
9.879403e-11
-3.204885e-09
-1.075454e-09
2.083415e-10
-3.940986e-10
-8.302052e-10
1.224304e-09
1.371357e-10
3.463028e-09
-3.600164e-09
-1.695021e-09
5.545078e-10
1.140513e-09
1.302977e-09
6.892844e-10
-1.527526e-09
-2.211315e-11
1.549639e-09
-3.453655e-09
3.410984e-09
4.267101e-11
-1.60504e-09
-3.313808e-09
4.918848e-09
-1.192032e-09
1.561691e-09
2.002802e-09
-1.134566e-09
-8.682356e-10
7.651632e-10
1.899178e-09
6.270357e-10
7.559524e-10
8.059696e-10
1.143172e-09
-2.617198e-10
-1.568376e-09
1.830096e-09
9.517089e-10
-2.591984e-09
1.640275e-09
-1.752771e-10
-1.102008e-09
1.277285e-09
-1.634482e-09
1.805156e-09
-1.706736e-10
1.566219e-09
-8.706083e-10
1.350694e-09
-1.867109e-09
5.164151e-10
1.50601e-09
-1.641005e-09
1.34995e-10
-6.501282e-10
-1.815494e-09
2.465622e-09
1.282999e-09
-1.424716e-09
-5.86887e-10
-8.48894e-10
1.294126e-09
5.585901e-10
1.135298e-09
-1.491374e-09
3.560763e-10
5.220386e-10
-1.100399e-09
-2.278997e-09
2.145754e-09
5.097285e-10
1.06281e-09
-1.572538e-09
-1.294284e-09
1.992911e-09
-6.986275e-10
2.253973e-09
8.176852e-10
-2.213357e-09
1.395672e-09
1.498194e-09
-2.230644e-09
7.324502e-10
5.724376e-10
1.340402e-09
-2.334217e-09
5.286462e-09
-2.952245e-09
-1.997118e-09
1.723414e-09
2.737042e-10
-8.012487e-10
-1.026684e-09
-9.046213e-10
1.931305e-09
-7.186842e-10
1.954761e-09
-1.236076e-09
6.269809e-11
1.59518e-09
1.009588e-09
5.705296e-10
-1.580117e-09
-3.512726e-09
-5.050794e-11
-1.3433e-09
1.393808e-09
1.906926e-09
-1.840293e-10
-1.722897e-09
7.565131e-10
-1.340488e-09
1.563463e-09
-8.141589e-10
-7.493039e-10
2.620833e-11
-1.350764e-09
-1.808431e-09
-3.312184e-10
2.139649e-09
7.312183e-09
-1.733993e-09
-5.57819e-09
9.668442e-10
1.070774e-09
-1.810198e-09
2.148282e-09
-3.380841e-10
3.662075e-09
-3.752287e-09
1.309726e-09
2.35235e-09
-1.848551e-09
1.690438e-09
1.581129e-10
-4.685419e-09
4.286042e-10
4.256815e-09
-9.060349e-10
-8.782532e-10
-8.855704e-10
-1.016062e-09
1.901633e-09
-1.26436e-10
-5.501109e-09
5.627545e-09
1.376497e-09
7.489883e-10
-2.125486e-09
9.678029e-10
-1.800843e-09
-4.802209e-10
1.419706e-09
-9.394848e-10
9.19823e-10
-1.572448e-09
-1.265866e-09
9.2701e-11
1.173165e-09
5.203208e-10
1.386605e-09
-4.048377e-10
1.494479e-09
-1.089642e-09
5.956518e-10
-1.013403e-09
-5.811636e-10
1.594567e-09
-1.257099e-09
1.10501e-09
1.520893e-10
-1.345321e-09
-4.632393e-10
1.808561e-09
-1.08567e-09
2.403203e-09
-1.317533e-09
-1.546363e-09
-3.961559e-10
-1.700059e-09
1.741293e-09
-4.123381e-11
1.5571e-09
2.003609e-09
7.047609e-11
-2.074085e-09
-1.993705e-09
1.634273e-09
3.594321e-10
-1.67623e-09
7.166062e-10
1.168447e-09
-1.67315e-09
5.047032e-10
1.668671e-09
-3.51567e-09
9.972519e-10
-1.743867e-09
1.511258e-09
-1.38367e-09
-1.275879e-10
3.129745e-09
-1.60448e-09
-1.525265e-09
2.817542e-10
1.234441e-09
-1.516196e-09
-1.004682e-09
-8.607603e-10
-1.081221e-09
1.857672e-09
-7.764515e-10
-2.986535e-09
3.751699e-09
-8.107336e-10
1.705564e-09
-8.948305e-10
9.539328e-10
2.00323e-09
-5.06806e-10
1.883303e-09
8.586039e-10
-1.470908e-09
-3.395978e-10
-1.306695e-09
1.646293e-09
-2.622843e-10
-1.91267e-09
2.174954e-09
1.59382e-09
-8.274799e-10
-7.663398e-10
-1.925035e-10
1.412059e-09
-1.219556e-09
2.261713e-09
-3.227066e-09
1.66137e-09
-1.92309e-09
-7.83528e-10
2.322523e-09
-1.538995e-09
-1.406067e-09
-4.751543e-10
2.02154e-09
-1.053553e-09
-9.679872e-10
1.414135e-09
-1.745176e-09
3.310409e-10
1.639761e-09
-5.25207e-10
-1.114554e-09
-5.255815e-10
1.774881e-09
-6.575124e-10
-1.172389e-09
1.829902e-09
-2.153846e-09
1.146055e-09
1.00779e-09
-1.437647e-09
-5.943788e-10
2.032026e-09
2.085463e-09
-4.75291e-10
-2.814659e-09
-4.392281e-09
7.20694e-09
-3.155699e-09
3.925662e-09
-7.699631e-10
-2.051458e-09
4.182413e-09
-2.130954e-09
1.885224e-09
-1.828209e-09
-5.701531e-11
1.302314e-09
-1.937426e-09
6.351119e-10
6.767739e-10
1.352449e-09
-2.029223e-09
-5.801514e-09
2.54175e-09
3.259763e-09
6.07512e-10
1.361456e-09
-1.968968e-09
-1.836748e-09
1.058407e-09
7.783406e-10
9.244421e-10
1.006346e-09
-1.930789e-09
1.402223e-09
-2.137293e-09
7.350691e-10
2.541668e-09
-2.79955e-10
1.827686e-09
6.475675e-09
-5.261762e-10
-1.544033e-09
2.070209e-09
-1.720824e-09
-3.934003e-10
2.114224e-09
2.152808e-09
-1.821757e-10
-6.91572e-10
1.41121e-09
-9.474942e-10
1.821023e-09
-8.735292e-10
-1.651431e-10
-1.372967e-09
-6.228626e-09
3.480377e-09
2.748249e-09
1.306061e-09
7.6092e-09
-8.91952e-09
-1.82662e-09
1.908619e-09
-8.19989e-11
2.003237e-09
-8.556644e-10
-1.147573e-09
-1.205475e-09
-4.204306e-10
1.625906e-09
-7.388669e-10
4.152213e-09
-3.413346e-09
-1.61622e-09
1.570128e-09
4.609185e-11
1.580003e-10
1.713551e-09
-1.871551e-09
1.130975e-09
2.205151e-09
-1.57733e-09
-5.918836e-10
1.842379e-09
-1.250496e-09
-1.074071e-09
-9.196341e-10
9.823905e-10
1.874809e-09
-2.857199e-09
-4.58698e-09
4.737312e-09
-1.50332e-10
-1.524243e-09
-3.257933e-11
1.556822e-09
-1.907995e-09
5.883879e-10
1.319607e-09
-1.875439e-09
1.118282e-09
7.571567e-10
-4.667953e-10
-1.408644e-09
1.003186e-09
-5.848783e-10
-4.18308e-10
-1.349205e-09
1.150014e-09
1.122567e-09
-1.702302e-09
5.797342e-10
8.979936e-10
-1.84033e-09
9.423365e-10
6.8622e-10
-1.946614e-09
1.260394e-09
-1.011239e-09
1.990352e-09
-9.791127e-10
-1.591512e-09
-2.338623e-10
1.825375e-09
-1.898021e-10
1.490412e-09
1.007401e-10
-1.499082e-09
9.264713e-10
1.888078e-10
1.080672e-09
-1.26948e-09
-1.05329e-10
-1.326353e-09
1.431682e-09
1.469735e-09
5.792115e-10
-2.048947e-09
1.059183e-09
-1.520982e-09
1.136612e-09
3.843699e-10
-1.013404e-09
1.779746e-09
-7.663428e-10
-1.056774e-09
-8.81958e-10
1.938732e-09
1.2459e-09
-3.235723e-09
1.989824e-09
1.640754e-10
-2.399414e-09
3.474031e-09
-8.006883e-10
1.714555e-09
1.850859e-12
-7.654907e-10
1.685314e-09
6.542344e-10
-1.577416e-09
1.599408e-09
-7.941929e-10
1.842241e-09
-6.856104e-10
9.758365e-10
-1.485114e-09
5.146089e-10
3.693908e-09
-4.208517e-09
-1.021241e-09
-2.515235e-10
1.272765e-09
9.679109e-10
-1.534829e-09
2.837407e-09
4.474776e-09
-1.807029e-09
1.190909e-10
1.687938e-09
1.821193e-09
5.457884e-11
-1.875772e-09
-7.850494e-10
2.220096e-09
-1.435047e-09
-2.014159e-09
1.751875e-09
2.552851e-09
-8.848368e-10
-1.668014e-09
2.074579e-09
-1.112906e-09
-9.616723e-10
-2.481816e-09
9.103363e-10
1.571479e-09
-1.949106e-10
1.736837e-09
-1.541926e-09
3.36105e-10
1.490093e-09
-1.826198e-09
1.718371e-09
8.46672e-10
1.36344e-09
1.381052e-10
-1.501546e-09
2.267335e-09
-3.512183e-09
1.678201e-09
-1.370592e-09
-3.076085e-10
-1.554557e-09
1.48469e-09
-8.606066e-10
-1.031195e-09
1.891801e-09
1.415544e-09
-2.27615e-09
-1.379856e-09
1.597443e-09
1.826951e-09
-1.723483e-10
1.258137e-09
-1.085789e-09
-1.090432e-09
1.26218e-09
-1.717484e-10
-2.03379e-09
9.784442e-10
1.055346e-09
-9.67615e-10
-1.045936e-09
2.013551e-09
-1.34163e-09
2.309433e-09
-1.297523e-09
2.213281e-09
-9.157575e-10
1.357356e-09
1.690236e-09
-5.647715e-10
7.995829e-10
1.202068e-09
-3.701679e-10
-1.39729e-09
1.810529e-09
-9.346696e-10
-1.99065e-09
6.501622e-10
1.519266e-09
4.161124e-10
-3.382357e-09
-3.88582e-10
3.770939e-09
-6.299296e-10
1.192591e-09
-5.626613e-10
-1.352626e-09
3.937189e-10
-1.748792e-09
1.355073e-09
1.956141e-09
-1.501609e-09
-4.54532e-10
1.380358e-09
-7.73813e-11
1.428682e-09
-9.357937e-10
-4.92888e-10
1.360647e-09
-8.294114e-10
-5.312357e-10
-1.369348e-09
1.366556e-09
-1.962105e-09
1.032254e-09
9.298517e-10
-2.197664e-09
-1.809616e-09
-1.348741e-09
-1.72762e-09
1.488767e-09
-1.075445e-10
1.760944e-09
1.29714e-09
-3.931214e-10
1.305584e-09
-1.393961e-09
8.837761e-11
2.180712e-09
-1.258211e-09
1.188548e-09
-1.705722e-10
-4.53203e-10
-1.87313e-09
2.326333e-09
9.695272e-10
-1.225748e-09
2.562206e-10
-1.7982e-09
2.892145e-10
1.508985e-09
5.58903e-10
7.601194e-10
-1.319022e-09
-1.589753e-09
5.071372e-10
1.082615e-09
-1.823419e-09
5.258959e-10
-9.72278e-09
3.363416e-09
6.359364e-09
1.422314e-09
-8.769513e-10
-5.453624e-10
-1.593198e-09
-5.707108e-10
-8.91877e-10
1.462588e-09
-1.943515e-09
-1.312933e-09
4.06013e-10
9.069195e-10
3.276565e-11
1.371314e-09
-1.40408e-09
-1.95993e-09
5.951061e-10
1.364824e-09
-1.606476e-09
5.232638e-10
1.083212e-09
-1.85097e-09
2.217714e-09
-4.641853e-09
2.424138e-09
-1.644685e-09
2.662811e-10
1.378404e-09
-3.836823e-10
1.745271e-09
-1.361588e-09
1.101977e-09
5.792044e-10
-1.681181e-09
8.286788e-10
-1.993029e-09
1.164351e-09
1.368422e-09
-2.057622e-09
6.892006e-10
-8.927632e-10
1.734059e-09
-8.412956e-10
8.634162e-10
-1.989029e-09
1.125613e-09
-9.956896e-10
1.522692e-09
-5.270025e-10
7.411996e-10
-1.878452e-09
4.05388e-12
-5.339821e-10
2.429117e-09
4.869556e-10
1.434158e-09
-1.921114e-09
-1.786404e-09
1.013015e-09
3.43584e-09
6.793295e-09
-1.94416e-09