/*--------------------------------*- C++ -*----------------------------------*\
| =========                 |                                                 |
| \\      /  F ield         | OpenFOAM: The Open Source CFD Toolbox           |
|  \\    /   O peration     | Version:  2406                                  |
|   \\  /    A nd           | Website:  www.openfoam.com                      |
|    \\/     M anipulation  |                                                 |
\*---------------------------------------------------------------------------*/
FoamFile
{
    version     2.0;
    format      ascii;
    arch        "LSB;label=32;scalar=64";
    class       volVectorField;
    location    "0.52";
    object      U;
}
// * * * * * * * * * * * * * * * * * * * * * * * * * * * * * * * * * * * * * //

dimensions      [0 1 -1 0 0 0 0];

internalField   nonuniform List<vector> 
4541
(
(0.01003692 -8.27434e-05 1.065995e-23)
(0.01059995 -0.0006945962 -3.146251e-24)
(0.01092125 -0.001704163 0)
(0.01062031 -0.001633246 0)
(0.010324 -0.00075479 -3.015855e-24)
(0.009429613 -0.001008001 0)
(0.0102243 -0.0008968713 9.538265e-24)
(0.01025612 -0.0007255752 -2.328163e-23)
(0.009299976 -0.0006306539 1.408414e-23)
(0.01149169 -0.0001469796 3.176344e-24)
(0.009357825 -0.001166965 1.599401e-23)
(0.01031945 -0.001243666 -9.170555e-24)
(0.01109082 -0.0006985325 6.507938e-24)
(0.01000412 -0.0004642092 1.808485e-24)
(0.01069545 -0.001816177 0)
(0.01139686 0.0003158742 -5.296319e-27)
(0.01013011 0.001217149 2.564239e-24)
(0.009196527 0.001378899 -1.359292e-24)
(0.009735516 0.001233705 -8.185944e-24)
(0.01032247 -0.002218043 3.512951e-24)
(0.01021184 -0.0003269212 0)
(0.01049854 -0.001005239 -1.078839e-23)
(0.01129817 0.0004733139 0)
(0.008351345 -0.0006377925 4.081218e-23)
(0.01048382 -0.001820994 0)
(0.01023702 -0.0007629268 7.374785e-24)
(0.01002156 -0.0005847653 -4.512168e-24)
(0.0101906 -0.000586827 4.445679e-24)
(0.009331253 -0.0004297339 5.135625e-24)
(0.01112123 -0.0008131281 0)
(0.01006205 -0.0004541231 -1.962878e-23)
(0.01000667 -0.0005033333 -2.136773e-24)
(0.01141858 -0.0001248726 -1.369663e-24)
(0.009679492 -0.0006138226 -8.176511e-24)
(0.0107048 -0.001326265 0)
(0.01083215 -0.0001974585 0)
(0.01093008 -0.001623063 0)
(0.01124084 -0.001123677 -1.225373e-24)
(0.00995698 -0.000485643 -3.550404e-23)
(0.008672617 0.001410326 3.804737e-24)
(0.0108972 -0.0002420054 0)
(0.009149121 -0.0004669003 -1.058186e-23)
(0.01077616 -0.0006609883 -2.300653e-24)
(0.01123089 4.129086e-05 -4.289716e-25)
(0.01118897 -0.0006377514 6.034922e-24)
(0.01149039 -0.0001746106 -3.34634e-24)
(0.01122906 -0.001038514 5.485157e-24)
(0.008241187 0.001339819 0)
(0.01059681 -0.00197583 0)
(0.01011331 -0.0007324967 1.399503e-25)
(0.009895396 -0.0009838046 0)
(0.01114194 0.000307498 0)
(0.01036494 0.001133341 8.501514e-25)
(0.01005825 -0.0007146454 2.833855e-24)
(0.01070902 0.0009813327 -1.3597e-24)
(0.009799955 -0.001525127 2.076754e-23)
(0.0100176 -0.0001593822 6.245518e-24)
(0.009680865 -0.0001824477 2.245271e-24)
(0.01098591 0.000272095 4.673588e-24)
(0.01072594 -0.001187731 4.537773e-24)
(0.009941388 -0.0006432426 0)
(0.01079415 -0.0009737961 0)
(0.009923254 0.0009042737 0)
(0.006725462 -0.001848081 -8.442219e-24)
(0.009202198 -0.001339476 4.830126e-23)
(0.009302313 -0.002481201 -7.913897e-24)
(0.009838466 -0.0006101362 -9.180692e-24)
(0.01128414 -0.0005374482 1.058488e-23)
(0.01122759 0.0004468936 -5.166255e-25)
(0.00951551 0.0005736229 0)
(0.01045985 0.0008983419 3.461235e-24)
(0.01136214 1.756631e-05 7.263766e-25)
(0.01016671 -0.0007889061 0)
(0.01155279 -0.0005340251 6.800306e-25)
(0.009557584 -0.0004477888 2.539048e-23)
(0.01149687 -0.0005853334 4.949042e-25)
(0.009924375 0.001257086 -1.74059e-24)
(0.008162833 0.001421796 -5.814558e-25)
(0.01114005 -0.001498191 2.13269e-24)
(0.009835808 -0.0002468138 -1.930606e-23)
(0.01037353 0.0003589266 0)
(0.01090422 -0.00173274 -2.698502e-24)
(0.00980018 -0.000899874 2.038168e-25)
(0.01144348 -0.0006882169 4.11933e-24)
(0.01002557 -0.0002681051 0)
(0.01055285 -0.001371131 7.171028e-24)
(0.01079305 -0.001188048 0)
(0.009784376 0.0002129226 1.480611e-23)
(0.01020304 0.001109476 -2.902802e-24)
(0.01140959 0.0002359148 0)
(0.01008321 -0.0001527765 -1.173665e-23)
(0.009300443 0.000791657 -9.663948e-24)
(0.008442941 0.001399266 0)
(0.01005432 0.001247557 0)
(0.01011245 -0.001117804 1.871411e-23)
(0.008083735 0.001441176 5.511498e-24)
(0.01036022 -0.001900463 6.500274e-24)
(0.01071112 -0.000694948 -5.08753e-24)
(0.01044391 -0.0007850287 -1.785013e-23)
(0.01038881 -0.001138191 -4.260963e-24)
(0.01009974 -0.001459027 1.055372e-23)
(0.01065351 -0.0002029257 0)
(0.009678315 -0.0005539491 -8.039749e-24)
(0.01109166 -0.0005304853 -2.009805e-24)
(0.01111181 7.488983e-05 3.817486e-24)
(0.009885008 -0.00140837 -3.654781e-23)
(0.008409078 0.001368306 3.960058e-24)
(0.011014 -0.0003992296 -1.400819e-23)
(0.01088785 -0.0009503233 -6.133333e-24)
(0.01146101 -0.0008517181 -2.059873e-24)
(0.01039899 -0.0006796884 4.081515e-24)
(0.009985543 -0.0001594597 -2.224903e-23)
(0.01138002 -6.881232e-05 0)
(0.01107408 0.0005616065 -1.918726e-25)
(0.009851591 -0.0004687926 4.907153e-26)
(0.009798783 -0.001766695 -1.627334e-23)
(0.01006003 -0.0009566699 0)
(0.01028224 0.001126441 0)
(0.009966146 -0.0008821578 2.328727e-23)
(0.009111647 -0.0006683546 1.953484e-23)
(0.01113568 0.0001573351 2.801841e-24)
(0.01119451 0.0004459722 0)
(0.008766009 -0.002217132 -1.453233e-23)
(0.0111315 -0.0001611702 6.01674e-24)
(0.0106336 0.001043027 1.679567e-24)
(0.01085601 -0.0008782806 0)
(0.008087648 -0.001798313 0)
(0.00762719 -0.002234164 2.480785e-23)
(0.01054532 -0.0007627875 -1.504653e-24)
(0.009169367 -0.001278422 3.351314e-25)
(0.009532164 -0.00065505 9.655796e-24)
(0.01042359 -0.00143897 6.806812e-24)
(0.01009469 -0.0007954461 2.271612e-23)
(0.01091203 -0.0008810541 -7.119744e-24)
(0.01015117 -0.002286754 -2.168696e-24)
(0.006838164 -0.001268589 0)
(0.01151994 -0.0002048854 2.139486e-24)
(0.01018741 -0.0006962422 -9.126078e-26)
(0.008958438 -0.001900867 5.010029e-24)
(0.01126918 -0.0006697059 -3.416329e-24)
(0.0101258 -0.0007257662 8.288272e-24)
(0.009770458 0.001299362 2.190902e-24)
(0.009271883 -0.0008630433 -1.483283e-23)
(0.01020811 0.001174997 -1.455052e-24)
(0.01090868 -0.001117723 -4.615183e-24)
(0.008992491 -0.001917857 3.988568e-24)
(0.009060725 -0.0008689077 -1.25975e-23)
(0.009974766 -0.0003862645 0)
(0.01072183 -0.0007249663 0)
(0.009785617 -0.0004511554 -5.364569e-24)
(0.01080292 0.0008959391 4.433856e-26)
(0.0110224 -0.00158403 -4.058633e-24)
(0.01005554 -0.001162051 0)
(0.0105879 -0.001785745 2.995399e-26)
(0.0103029 -0.0007720605 -6.718543e-24)
(0.009371622 -0.0006339792 0)
(0.009318649 -0.0009945674 7.905151e-24)
(0.008927549 0.001376562 -1.016762e-23)
(0.009996534 -2.430317e-05 -1.398964e-23)
(0.01132482 -0.0009630943 3.988769e-24)
(0.0100446 -0.0009811647 -1.703835e-23)
(0.01038876 -0.001057377 -9.79552e-25)
(0.008847137 -0.001334789 -2.817277e-25)
(0.00995656 0.001083908 1.11198e-23)
(0.01145689 -0.0003161628 3.61323e-24)
(0.0113368 0.0003920958 0)
(0.009226039 -0.001674942 0)
(0.01074583 -0.001452597 8.185932e-24)
(0.009377358 -0.002583526 9.931649e-24)
(0.009783213 -0.0003757584 -2.17721e-23)
(0.009717155 -0.0003876487 -1.236205e-23)
(0.01098077 0.0007271809 0)
(0.01018773 0.0005612534 0)
(0.01107674 0.0006821871 8.765945e-26)
(0.01059245 0.001050195 0)
(0.01115497 -0.0008396928 -4.905024e-24)
(0.008093543 0.001331807 0)
(0.01027116 -0.001112642 6.279405e-24)
(0.0107297 -0.001790586 -4.719444e-24)
(0.009545935 -0.0005161996 8.587668e-24)
(0.0108861 0.0008215374 -3.118317e-24)
(0.007298196 -0.002300769 -1.642107e-23)
(0.01155577 -0.000392171 1.421298e-24)
(0.01024149 -0.0005994236 1.611e-23)
(0.01028677 -0.002136313 0)
(0.01140661 0.0003043058 -2.440457e-25)
(0.0110767 -0.0004291769 5.013107e-24)
(0.009832189 -0.0006694282 -3.224814e-23)
(0.01142387 -0.0002317292 0)
(0.009679012 -0.0004586065 5.391714e-24)
(0.01056032 -0.001277516 0)
(0.01082305 -0.00111448 0)
(0.01110863 0.0005725475 5.835888e-27)
(0.01151197 -0.0002123863 4.887659e-26)
(0.01059665 0.0009342957 -3.909284e-24)
(0.01127438 -0.0004718781 0)
(0.01011435 -0.001246972 -9.400303e-24)
(0.008512742 0.001411525 -3.906528e-24)
(0.008067641 0.001422969 -7.122768e-24)
(0.0104813 0.001104323 -1.630641e-24)
(0.0114972 -0.0007877416 -2.671313e-25)
(0.007547818 -0.001116355 -1.79791e-25)
(0.01027059 -0.0009579928 -9.568793e-24)
(0.01129557 0.0004996304 0)
(0.01119007 7.746187e-05 3.046362e-24)
(0.01110295 0.0007156229 0)
(0.009885694 -0.001599796 -1.260711e-24)
(0.0106541 0.001002312 0)
(0.01013366 -0.001365737 0)
(0.0110677 -0.00109297 -3.288605e-24)
(0.01004815 -0.0005371697 0)
(0.01009788 0.0008368624 0)
(0.01090825 -0.001060148 0)
(0.01003726 -0.002304368 -8.10262e-24)
(0.008554619 -0.001025513 2.246361e-23)
(0.01042288 -0.001318495 0)
(0.01136685 0.00026215 -1.098881e-24)
(0.01072398 -0.0007997289 0)
(0.00783738 -0.001887402 -2.401544e-23)
(0.008672334 -0.001863911 -1.446451e-24)
(0.006119769 -0.001068445 5.129838e-23)
(0.01148585 0.0001329582 1.043282e-25)
(0.009678434 -0.0006760205 -2.249508e-23)
(0.009977424 -0.001458108 -7.23867e-24)
(0.0115628 -0.0002400954 4.905419e-24)
(0.009995392 -0.0005579502 0)
(0.01146552 8.648508e-05 -2.807873e-25)
(0.01146662 0.0002142342 1.536022e-27)
(0.01026676 0.001187997 0)
(0.009879049 -0.0002713105 0)
(0.01041299 -0.001010133 -3.316617e-26)
(0.01022348 -0.0005166617 6.317972e-24)
(0.01142754 0.0002354198 5.11402e-25)
(0.009589387 -0.0006166656 1.860465e-23)
(0.007478381 -0.002481265 0)
(0.008408773 0.001232595 0)
(0.0104102 -0.001839346 1.887849e-24)
(0.0110624 -0.0005523332 1.746477e-24)
(0.009999656 -0.0003375223 -1.500969e-23)
(0.009862327 -0.0007008007 -2.164209e-23)
(0.01020636 -0.0004974765 2.033112e-23)
(0.01056013 0.001039636 1.222056e-24)
(0.009976613 -0.002396775 -6.498042e-24)
(0.00972301 -0.0007682918 0)
(0.009762308 -0.0009998917 0)
(0.01021461 -0.0005717756 2.054835e-23)
(0.01039186 -0.0009161657 1.501459e-23)
(0.01071143 -0.001027131 2.267977e-24)
(0.01040132 0.0006313456 2.617162e-24)
(0.01024457 -0.000447551 -1.076303e-23)
(0.01000462 -0.0005682323 0)
(0.009030789 -0.0009876576 5.124419e-24)
(0.01103923 0.0007782991 4.202724e-25)
(0.01145449 0.0001142023 0)
(0.009402704 -0.00148291 0)
(0.01032155 -0.0003173287 0)
(0.009645136 -0.0006779035 1.628179e-23)
(0.0107344 0.0009481529 -7.393766e-25)
(0.01011972 0.001195526 1.927029e-24)
(0.01125067 0.0005573232 -2.331005e-25)
(0.009611548 -0.0005229417 -2.462532e-23)
(0.01029417 -0.0009284693 -4.481819e-24)
(0.01140194 0.0001217327 2.057125e-24)
(0.007505322 -0.001540017 0)
(0.0101779 -0.0007785008 1.111141e-23)
(0.009306358 -3.206718e-06 4.175645e-24)
(0.01017086 -0.0005898829 8.449401e-25)
(0.008378443 0.001392596 0)
(0.01139746 -0.000485525 2.953416e-24)
(0.009913125 0.001176823 -5.493351e-24)
(0.009894497 0.0003714941 -1.33478e-23)
(0.01101235 -0.0008629901 -9.081772e-24)
(0.009337715 -0.0006994544 1.182167e-23)
(0.009890015 -0.0007976975 -1.034615e-23)
(0.01147835 0.0001138176 2.082809e-24)
(0.01134259 0.000440747 4.865587e-26)
(0.008222837 -0.002744809 -1.220107e-23)
(0.009711407 0.001318504 5.429181e-24)
(0.01082845 -0.001700413 1.06008e-23)
(0.01058637 -0.001636987 -9.710182e-24)
(0.009975824 -0.001866181 1.651369e-23)
(0.01005843 0.001204493 0)
(0.01012064 -0.000158223 1.114083e-23)
(0.01117642 -0.001086288 0)
(0.01084319 0.0009233777 -1.927573e-24)
(0.01128051 -0.0007935971 -8.697232e-27)
(0.01078751 -0.0002222173 5.876348e-24)
(0.00945444 0.001359202 4.61868e-24)
(0.01002536 0.0004139751 0)
(0.00854133 0.001417742 4.866673e-24)
(0.01013632 -0.0008725308 6.688098e-24)
(0.01018682 -0.0007117686 9.215556e-24)
(0.009350068 -0.001053291 0)
(0.00898199 0.001366469 1.13779e-23)
(0.009768631 0.001140892 3.304771e-24)
(0.01017932 -0.0006572268 7.076078e-24)
(0.009878971 -0.001477856 -1.773541e-23)
(0.01012347 -0.0004509909 4.428126e-24)
(0.009248973 0.001378474 0)
(0.01130841 -0.0003915602 -1.967442e-24)
(0.01095644 0.0008159996 -2.771714e-24)
(0.009682355 -0.001285196 -2.373679e-23)
(0.01029255 -0.0005982957 0)
(0.0113616 -0.001044493 -8.748868e-24)
(0.01124509 -0.0006266262 1.215484e-23)
(0.008662307 -0.0006958363 5.903384e-26)
(0.008937007 -0.0007432055 2.096181e-23)
(0.009382961 0.00136922 -4.325427e-24)
(0.01066328 0.0009980722 7.210734e-25)
(0.01072646 0.0009784503 4.146619e-24)
(0.01104172 -0.001034459 -7.079107e-25)
(0.01143552 -0.0001631175 1.380671e-24)
(0.009977354 -0.0003451426 -1.110845e-23)
(0.01152581 -9.479998e-06 0)
(0.008801501 -0.002475412 2.628008e-23)
(0.009878722 -0.0001995217 0)
(0.01073435 0.0009754405 0)
(0.009162199 -0.0005145279 0)
(0.01127991 0.0004882882 0)
(0.006926316 -0.0006028693 0)
(0.01156426 -0.0004430823 0)
(0.009185121 -0.001310443 -2.718584e-24)
(0.01141358 0.0001712006 1.313813e-24)
(0.01059675 -0.0007529954 -1.568642e-23)
(0.009463572 -0.002064797 -2.094505e-23)
(0.01008428 -0.0006820607 6.647185e-24)
(0.01104793 -0.0001762275 -1.763915e-25)
(0.01043086 -0.001061071 9.719147e-24)
(0.01043982 -0.0008212202 1.119212e-26)
(0.009737134 -0.001049316 1.35007e-23)
(0.01037165 -0.0005929065 -1.380153e-24)
(0.01123333 0.00056306 1.476285e-24)
(0.01117123 0.0005476231 0)
(0.01019054 -0.0009838346 -1.250254e-23)
(0.01030771 -0.0009094324 3.01545e-24)
(0.01010451 -0.002001824 9.806617e-24)
(0.009213076 -0.001920407 0)
(0.009434871 -0.001954491 -2.298574e-23)
(0.01147941 0.0001702722 3.811531e-25)
(0.01132191 -0.0001059836 0)
(0.01026363 -0.000977911 0)
(0.008957922 -0.002475976 0)
(0.009687185 -0.0008808979 6.50007e-24)
(0.01025399 -0.0004818472 0)
(0.007175759 -0.001545781 -1.478279e-23)
(0.01114752 -0.001492289 -2.604028e-24)
(0.01138148 2.743637e-05 4.429837e-24)
(0.01067298 -0.001367933 9.256307e-24)
(0.01092569 0.0008584934 8.9713e-25)
(0.01066066 -0.001826768 7.270959e-25)
(0.011172 0.0005911966 2.358539e-24)
(0.01144694 -0.0004654893 -3.057554e-24)
(0.01099569 0.0001647537 0)
(0.01002543 -0.0006730925 -1.498499e-23)
(0.01080074 0.0007711997 1.319688e-24)
(0.01047274 -0.0008394684 0)
(0.009348655 0.001353192 0)
(0.01055564 0.001070431 0)
(0.01008277 -0.0004874903 -7.924119e-24)
(0.01128679 0.0004981113 -7.050179e-26)
(0.01007461 -0.0003587955 -3.728064e-25)
(0.01096664 -0.001130758 0)
(0.01139875 -0.0009269727 2.666889e-24)
(0.01008597 -0.0004248736 4.997887e-24)
(0.01125023 -0.0004844233 1.887429e-24)
(0.008908715 0.001369436 -1.19588e-24)
(0.0105859 -0.001974713 -6.126868e-24)
(0.01000692 -0.0007231516 1.364982e-23)
(0.01060545 -0.0003143569 -4.529875e-24)
(0.01098151 0.000669187 0)
(0.01071691 0.0009333605 4.331909e-24)
(0.006875793 -0.001732341 -1.372044e-23)
(0.009426557 -0.0006108984 -7.507638e-25)
(0.01006796 0.001016929 -5.578283e-24)
(0.01075831 -0.001065528 0)
(0.01003615 -0.002212817 0)
(0.01045685 -0.001041738 -9.589259e-26)
(0.01016317 -0.001201123 1.137128e-23)
(0.01145795 -0.0009284937 -5.298011e-25)
(0.01046722 -0.001453424 1.402899e-23)
(0.00989609 -0.0006905947 0)
(0.0106064 0.0005034971 -4.757642e-24)
(0.008762918 0.001401609 5.599296e-24)
(0.01127001 0.0003982572 -5.40877e-25)
(0.01005981 0.0006005143 -8.777635e-24)
(0.007684607 -0.002726598 1.443509e-23)
(0.01042871 0.001118173 0)
(0.01121614 -0.001173282 2.751597e-25)
(0.009645288 -0.001021103 -1.700916e-23)
(0.009856652 -0.0006310686 1.720753e-23)
(0.01152125 -0.0007478145 1.851476e-24)
(0.01145476 -0.0009185358 -4.594333e-25)
(0.008257566 0.001361804 0)
(0.009744758 -0.0002888649 -3.271809e-23)
(0.01039246 -0.0007181812 8.910503e-24)
(0.009615978 -0.0008869292 3.495197e-24)
(0.009763061 -0.0005904383 2.202489e-26)
(0.01035237 0.001078687 4.029338e-24)
(0.01114119 -0.0004957926 -1.050231e-23)
(0.01037591 -0.0006311533 0)
(0.01147221 -0.0007538374 -1.502612e-24)
(0.01136186 -0.001124144 -8.706213e-25)
(0.01008264 -0.0009682916 0)
(0.01013003 -0.001531497 7.63597e-24)
(0.009448318 -0.0005488667 -1.502354e-23)
(0.01079573 0.0002830164 -8.951576e-25)
(0.01050818 0.000588146 1.353074e-23)
(0.01141952 -0.0007050004 -2.235532e-24)
(0.01123268 0.0004243702 0)
(0.01057963 -0.0007176382 7.756451e-24)
(0.01132295 -0.000795742 2.468187e-24)
(0.009259865 0.001348229 0)
(0.01079562 -0.0008843597 0)
(0.009022492 -0.002237654 0)
(0.009596319 -0.001255638 1.417863e-23)
(0.0112544 -0.0007226021 1.063396e-23)
(0.01137607 0.0002138485 2.353187e-24)
(0.01147417 -0.0009095693 2.719864e-24)
(0.01118579 -0.0007595973 -1.971231e-24)
(0.01104701 -0.001634105 -5.244262e-24)
(0.008550421 -0.001455131 0)
(0.008072277 -0.001019132 -3.491472e-23)
(0.01115294 0.0004050906 1.514317e-24)
(0.009639729 -0.0002881696 2.057057e-23)
(0.009820372 -0.001205098 -1.559215e-23)
(0.01116919 -0.001382204 -1.277763e-24)
(0.01099809 -0.001552661 3.06421e-24)
(0.01126317 -0.001254344 4.331834e-24)
(0.01003257 -0.0008688285 1.295857e-23)
(0.008902369 -0.002724893 0)
(0.01149108 8.792167e-05 -1.040141e-24)
(0.009502341 -0.001185975 0)
(0.010532 -0.002087478 0)
(0.01079081 0.0009378733 7.51445e-25)
(0.01114494 -1.54683e-06 -3.580463e-25)
(0.009990037 -0.0009290408 -6.643894e-24)
(0.01111707 -0.0006705825 2.654514e-24)
(0.00871824 -0.001403436 -5.790327e-24)
(0.01075008 -0.001130469 -7.7182e-24)
(0.01092698 -0.0007538988 3.222457e-24)
(0.01030516 0.001133047 3.260358e-24)
(0.009666759 -0.0003814499 2.219634e-23)
(0.01060006 -0.001706726 1.512463e-23)
(0.009145338 -0.0001916652 -1.441205e-23)
(0.01034571 -0.001134451 4.185339e-24)
(0.01013269 -0.002114839 8.736291e-24)
(0.01118775 -0.0005868211 1.399213e-23)
(0.008091583 -0.002116355 0)
(0.01010561 -0.0006953175 -1.584308e-23)
(0.01103804 -5.223208e-06 0)
(0.01150849 -0.0007314396 -1.864393e-24)
(0.01013595 -0.0005816288 0)
(0.00986106 0.001280161 0)
(0.01129371 0.0003857219 -6.509154e-26)
(0.01139856 0.0002221587 0)
(0.009983779 -0.0005089064 2.671532e-23)
(0.009863943 -0.001545308 0)
(0.01042589 -0.001136391 0)
(0.009533799 -0.001377474 -1.481724e-23)
(0.009882365 -0.001249861 1.764122e-23)
(0.01048139 0.0008215081 4.987027e-24)
(0.0114812 0.000157649 -4.542568e-26)
(0.01006333 -0.001582124 9.688302e-24)
(0.01068918 0.0009749932 0)
(0.01105909 -0.001520251 3.602055e-24)
(0.01024163 0.001114262 -4.155353e-24)
(0.01115293 0.0002130363 -2.02422e-24)
(0.01093782 -0.001162316 -1.482272e-23)
(0.008926525 -0.001619527 1.467142e-25)
(0.01035689 -0.002086441 0)
(0.01146852 -0.000458683 3.764917e-24)
(0.01150035 -0.0001085401 1.052217e-25)
(0.01147914 -0.0005575191 0)
(0.008841762 -0.0006234017 -2.820753e-23)
(0.01050578 -0.0006968673 0)
(0.01143311 0.0002496118 0)
(0.00869974 0.001241566 -9.977993e-24)
(0.01015085 -0.0007743496 4.578511e-24)
(0.0100606 -7.105096e-05 -1.76053e-23)
(0.01013748 -0.0003646681 0)
(0.01116589 0.00041785 0)
(0.008137276 0.00143438 3.543064e-25)
(0.01032579 -0.0008058476 5.5554e-24)
(0.008121647 -0.002816452 9.325852e-24)
(0.01154277 -0.0004700124 1.186647e-24)
(0.009625747 -0.0007062556 1.599781e-23)
(0.009945713 -0.0008944448 -1.549319e-23)
(0.01030521 -0.001595251 -1.15633e-23)
(0.009796348 -0.0001717608 -1.260892e-23)
(0.009683913 -0.000117428 -5.79807e-26)
(0.01017632 -0.0002813291 0)
(0.0115057 7.323919e-05 0)
(0.01141459 -0.0009546985 -1.4392e-25)
(0.01130113 -2.428134e-05 -3.253935e-24)
(0.01061157 -0.0006168598 -1.171778e-23)
(0.00780537 -0.0005874339 1.181011e-23)
(0.01004918 -0.0003662829 7.911198e-24)
(0.009683076 -0.0005014581 0)
(0.01103897 -0.001631071 8.307611e-24)
(0.0108563 -0.000771437 0)
(0.01015639 -0.002031525 1.06884e-23)
(0.01026294 -0.0005428797 9.266156e-24)
(0.01007899 -0.0005118169 1.497617e-23)
(0.008736998 -0.0005450758 1.109797e-23)
(0.0110523 0.0006999373 1.315603e-26)
(0.01042201 -0.0005875326 7.960292e-24)
(0.009659994 -0.001554288 -2.378297e-23)
(0.01100696 -0.001478113 -2.364191e-24)
(0.01003977 -0.0003418933 -3.350654e-25)
(0.009977247 -0.002231809 0)
(0.01035833 0.0008722707 -4.34902e-24)
(0.01152058 -0.0003059117 -1.071599e-24)
(0.01089166 0.0008608033 7.864075e-25)
(0.01033218 -0.001835324 7.678009e-24)
(0.01029817 -0.001646399 0)
(0.01002911 0.0003365795 0)
(0.01125018 0.0004053248 0)
(0.01011747 -0.0005664196 2.625296e-23)
(0.01108138 0.0006145697 -1.347087e-25)
(0.008810177 -0.002735643 -2.087686e-23)
(0.01006488 -0.0006980232 0)
(0.01138159 3.609137e-05 0)
(0.008848102 -0.002135077 0)
(0.008505039 -0.002743587 0)
(0.009766124 -0.00192306 -3.04344e-23)
(0.009383972 -0.002208823 0)
(0.009645343 -0.001624256 5.377365e-24)
(0.01012238 -0.0002909404 4.833146e-24)
(0.01014467 -0.0006497859 8.806615e-24)
(0.01025291 -0.0008903523 8.804746e-24)
(0.01035683 -0.00171261 -1.358443e-23)
(0.005845903 -0.001211841 3.092863e-23)
(0.01068372 -0.001291594 2.569944e-25)
(0.01125489 -0.0002795647 0)
(0.01131577 0.0003837298 0)
(0.009954594 -0.0007970777 0)
(0.01131279 -0.0003073183 8.220649e-25)
(0.01038354 -0.001384067 4.92486e-24)
(0.01018407 -0.0006258744 -1.204576e-23)
(0.008108922 -0.0009156876 2.348891e-23)
(0.01124495 0.0003844779 -1.90667e-24)
(0.01078044 -0.0009345698 0)
(0.01043784 -0.001659674 0)
(0.009297681 -0.0007476349 -2.176588e-23)
(0.008216719 -0.000892423 -2.195395e-23)
(0.009994997 -0.0003861319 -7.57506e-24)
(0.01086655 0.0005747302 3.379216e-24)
(0.01009269 -0.0003653128 5.271778e-24)
(0.006207373 -0.002389706 -5.651112e-23)
(0.008337385 -0.002566644 -2.754848e-23)
(0.01088845 -0.0006888934 -5.325088e-24)
(0.01016859 -0.0005264832 3.691359e-24)
(0.01078539 -0.001070486 5.517665e-24)
(0.009626095 -0.0002058618 -3.707316e-23)
(0.01122322 0.0002219341 -3.01029e-24)
(0.009990387 -0.000282789 9.331464e-24)
(0.008583238 -0.00275081 -1.680391e-23)
(0.01121304 0.0005790345 -1.070508e-25)
(0.01096429 -0.0007225558 -6.203698e-24)
(0.009642887 -0.001047656 1.595941e-23)
(0.01142406 -0.0008900717 -5.177112e-24)
(0.009935722 -0.001116447 0)
(0.01086324 -0.001475926 -5.765087e-24)
(0.008478831 -0.0007321091 0)
(0.01050192 -0.0008151111 0)
(0.009102174 0.00137537 0)
(0.0113344 -0.0004812703 -1.418315e-24)
(0.01097904 3.281602e-06 0)
(0.01088855 -0.0008269128 -2.242116e-24)
(0.0107067 0.0004620471 4.254985e-24)
(0.01098059 0.0006553694 -2.451903e-24)
(0.01147808 -3.820023e-05 -6.092938e-25)
(0.008006507 -0.002483293 -2.857034e-24)
(0.01023467 -0.0007433802 -1.280071e-23)
(0.01135475 0.000415632 -6.107347e-27)
(0.01078184 0.0009598557 0)
(0.01100228 0.0007846491 0)
(0.01085825 0.0009081298 2.542741e-24)
(0.01095303 0.0008472239 6.217573e-25)
(0.01120192 -0.0007455884 0)
(0.01127835 -0.001102955 4.737923e-24)
(0.01000857 -0.0001552284 -9.285945e-24)
(0.01145411 -0.0001125857 5.101861e-25)
(0.01145188 -0.0001573911 0)
(0.01012848 -0.000548552 5.417394e-24)
(0.01149105 -9.048552e-05 0)
(0.01021348 0.001171628 -3.051941e-24)
(0.008947193 -0.0009021063 0)
(0.01058428 -0.0006555927 9.970745e-24)
(0.01004206 -0.0007807207 1.208421e-24)
(0.01004834 -0.0006013852 1.313083e-24)
(0.009906474 0.001249999 3.245838e-24)
(0.01059574 0.00103267 4.364304e-25)
(0.01006282 -0.001698644 1.148559e-25)
(0.009747227 -0.001734641 3.775974e-23)
(0.01047018 -0.002112797 -5.731898e-24)
(0.0110558 0.0001893697 -1.171021e-24)
(0.009233684 -0.0009129999 2.847729e-23)
(0.01139574 -0.000806539 -6.093857e-24)
(0.01003312 -0.0003565899 1.045e-23)
(0.01003972 -0.0004043732 -1.086148e-23)
(0.01135006 0.0003068476 1.019455e-24)
(0.01072685 -0.0003616237 7.849923e-24)
(0.01052067 0.001089738 1.943417e-24)
(0.01009096 0.001217177 0)
(0.0110779 0.0002780684 -5.334488e-25)
(0.01096514 -0.001296673 0)
(0.01042659 -0.0008344745 1.01807e-23)
(0.0101184 -0.001012214 -7.807575e-24)
(0.009812933 0.001301052 0)
(0.00976007 -0.0007201853 1.906608e-23)
(0.01005695 -0.0006221538 0)
(0.009374585 0.000410003 -5.331642e-24)
(0.01140264 0.0001877416 -6.203872e-25)
(0.0101891 -0.0008925293 0)
(0.01021293 -0.0007229028 -2.091426e-23)
(0.009961673 -0.00130474 0)
(0.01111202 0.0005124397 -4.91378e-25)
(0.0108036 -0.0008667904 -4.86247e-25)
(0.009687274 -0.0007300047 0)
(0.00896096 -0.0009744451 5.982155e-25)
(0.01110516 0.0003186768 0)
(0.01000485 -0.0006469678 2.566739e-24)
(0.009633137 -0.0006460797 -2.55291e-23)
(0.009862643 -0.0005759559 0)
(0.01116689 0.000362145 -1.289968e-24)
(0.008570659 0.001388263 -3.857417e-24)
(0.008462577 -0.0004552504 1.211088e-23)
(0.009885998 -0.0004218694 -1.342338e-23)
(0.009475361 -0.0007014684 2.355248e-23)
(0.01077339 0.0009328168 -8.710264e-25)
(0.01082853 0.0009306066 0)
(0.01096503 -0.0006754426 2.128231e-24)
(0.008587191 -0.002636935 9.058441e-24)
(0.0113879 0.0001556831 -1.120109e-24)
(0.01099411 -0.001258474 0)
(0.009190118 0.001331847 -1.135048e-23)
(0.01085735 -0.001039895 1.218385e-23)
(0.01139569 0.0002920691 1.153828e-25)
(0.01026017 -0.001218871 -7.391183e-24)
(0.009729327 0.0007114588 4.476633e-24)
(0.009944652 -0.0004689601 1.004844e-23)
(0.009969367 -0.001095785 0)
(0.0111842 0.0005021355 7.929804e-25)
(0.01144093 0.0001730208 6.578645e-25)
(0.01038921 -0.0008613635 0)
(0.01030217 -0.0008110893 1.490728e-23)
(0.009499894 -0.0005860871 -2.739165e-23)
(0.009651147 -0.0005572566 -5.6394e-26)
(0.0105002 -0.0009029165 -3.678234e-25)
(0.01119127 0.0006357821 -4.308897e-25)
(0.01114789 -0.001354864 1.651007e-24)
(0.01062738 0.0009395435 0)
(0.01035699 -0.000214728 0)
(0.01127041 0.0002380917 -2.375634e-24)
(0.01018822 -0.0003705656 -1.026703e-23)
(0.009559498 -0.0002695857 -2.693761e-23)
(0.01130949 0.000289828 7.074391e-26)
(0.009965193 -0.0009782499 0)
(0.01059985 -0.000419635 0)
(0.01127259 7.373247e-05 -1.108276e-24)
(0.01111496 -0.00130259 1.780423e-24)
(0.01012689 0.00122667 -2.338758e-24)
(0.01126834 -0.001173749 -3.580431e-25)
(0.009929174 -0.0004930142 0)
(0.01000011 -2.986948e-05 0)
(0.01147384 -0.000205533 0)
(0.01148518 -0.0004328195 6.865873e-26)
(0.009736471 -0.0003234424 2.86767e-23)
(0.009633589 -0.0003191813 -3.725915e-23)
(0.01049148 -0.00108799 -2.724367e-23)
(0.01143112 -0.0009830199 2.801553e-24)
(0.01113234 -0.0002223963 -3.098009e-24)
(0.01132814 -5.990892e-05 2.023985e-24)
(0.01110352 -8.89872e-06 -4.946784e-24)
(0.01129601 -0.0006231535 9.257617e-24)
(0.01155365 -0.0005576417 -2.830194e-24)
(0.01148289 -0.0005740844 3.866678e-24)
(0.009886453 -0.0001267643 0)
(0.009426283 -0.0003227661 -1.631817e-23)
(0.01149329 2.989701e-05 -1.518485e-24)
(0.009874787 -0.000453743 1.304324e-23)
(0.01030471 0.0009611006 0)
(0.01111548 0.0006016078 0)
(0.009999181 -0.0006181914 9.670029e-24)
(0.009970398 -0.0005739885 5.633507e-26)
(0.01007052 -0.0002208414 -1.821297e-23)
(0.009854412 -0.0008179354 1.637398e-23)
(0.01017649 -0.001043444 2.733855e-23)
(0.009526792 -0.0009371663 1.562488e-23)
(0.009536879 -0.0008864792 -4.206648e-23)
(0.009409006 0.001084839 -1.165947e-24)
(0.008837545 0.0009194671 9.652066e-24)
(0.010002 0.001250901 2.435637e-24)
(0.01044703 0.0009556107 0)
(0.01053007 0.001065925 0)
(0.01117871 0.0006315714 -4.253409e-25)
(0.01119381 0.0006334791 -1.485025e-24)
(0.01014899 0.00121431 -2.344066e-24)
(0.009890503 -0.001021432 7.180746e-24)
(0.01017058 -0.0005733751 -3.79437e-24)
(0.0100991 -0.0005094425 1.472885e-26)
(0.01007471 -0.0005378923 8.920882e-24)
(0.01156446 -0.000485657 6.272134e-25)
(0.01068481 0.0009956387 9.803571e-25)
(0.01039314 -0.001597913 0)
(0.01048574 -0.0009470509 5.76558e-26)
(0.0104599 -0.0009075114 2.675376e-24)
(0.009909361 -0.0004573711 0)
(0.01104803 -0.0006959929 0)
(0.01130437 -0.0004643504 0)
(0.01019478 -0.0007904996 1.041597e-23)
(0.009877174 0.001288504 1.62228e-24)
(0.009674029 -0.001005817 0)
(0.01030215 0.00117778 0)
(0.01046048 0.00111344 2.576657e-24)
(0.01106098 -0.001125159 -3.00559e-26)
(0.01029141 -0.0003678258 0)
(0.008787572 -0.001589038 -2.73712e-23)
(0.0099174 -0.0009714117 0)
(0.01101339 0.0002027427 -1.81503e-25)
(0.01147187 5.080129e-05 -1.363847e-24)
(0.01146419 -3.217309e-07 0)
(0.01156339 -0.0001949523 -3.641311e-25)
(0.01139356 0.0002734376 -1.260326e-25)
(0.01121276 0.0005034342 8.104885e-25)
(0.0112356 0.0005305093 0)
(0.01052231 -0.0006063785 -7.050352e-24)
(0.01144941 0.0002420824 -1.926618e-25)
(0.01154148 -9.479379e-05 0)
(0.009843201 -0.0005018659 -1.609317e-23)
(0.0100161 -0.0007687116 1.201155e-23)
(0.009992548 -0.0004457348 -1.98533e-24)
(0.01115581 -0.001437866 0)
(0.01094705 -0.001659301 -8.22273e-24)
(0.01149159 -0.0004735916 -2.391689e-24)
(0.01149899 -0.0005037031 2.323387e-24)
(0.01088469 -0.0009224409 1.061355e-23)
(0.01093528 -0.001124521 3.646853e-24)
(0.01007136 -0.0008308441 -1.126786e-23)
(0.007187543 -0.0009536937 0)
(0.01064749 -0.001013561 -6.004709e-24)
(0.01060201 -0.001064706 5.600385e-25)
(0.01043234 -0.0008622404 -8.074947e-24)
(0.01061887 -0.0009491572 1.399977e-23)
(0.01108616 0.0005992902 -2.642256e-25)
(0.01043679 -0.001091509 -5.861602e-24)
(0.01046553 -0.00133548 0)
(0.01026882 -0.001558041 0)
(0.01041464 0.001130855 3.447755e-24)
(0.01057526 0.001050378 0)
(0.0100721 0.001245148 0)
(0.01003607 -0.0002945666 -9.162239e-24)
(0.01095886 0.0007597195 0)
(0.01082128 0.0008733693 5.233725e-25)
(0.01075438 -0.001881194 0)
(0.01079182 -0.001884232 7.373962e-24)
(0.01080653 -0.001048599 -5.791913e-24)
(0.009721114 -0.001257162 -2.228628e-24)
(0.009761224 -0.00187128 8.290385e-24)
(0.01045097 -0.002138318 6.225947e-24)
(0.00986059 -0.002245845 -7.044047e-24)
(0.0109419 0.0008118841 1.234986e-24)
(0.009904475 -0.0001768797 0)
(0.009776137 -0.0002646306 1.387616e-23)
(0.007414382 -0.0003539373 -5.526718e-24)
(0.01137059 0.0002810132 1.490611e-24)
(0.01014677 -0.0006693577 -8.98678e-24)
(0.01128613 0.0004881927 0)
(0.01108715 0.0006098193 0)
(0.009529533 -0.001225525 0)
(0.01014124 -0.00045037 1.475282e-23)
(0.00781255 -0.001527803 0)
(0.01116813 0.000609077 0)
(0.0096978 -0.002406804 2.444006e-23)
(0.009850166 -4.897444e-05 -8.403673e-24)
(0.01060165 -0.0009219444 -1.845713e-23)
(0.01105563 -8.376323e-05 -1.091716e-24)
(0.01112428 -0.001156472 0)
(0.01016344 0.001163883 0)
(0.01030126 0.0002333513 3.856217e-24)
(0.01038709 -0.001340333 0)
(0.01002795 -0.000813679 1.748055e-23)
(0.009963124 -0.0007369039 0)
(0.01128184 -0.001034476 -1.351538e-24)
(0.009321832 -0.001561188 -1.791821e-24)
(0.01150379 -0.000246221 0)
(0.01005402 -0.0002981753 -2.849548e-23)
(0.009942436 -0.001031823 0)
(0.01021887 -0.001755817 -1.040745e-24)