/*--------------------------------*- C++ -*----------------------------------*\
| =========                 |                                                 |
| \\      /  F ield         | OpenFOAM: The Open Source CFD Toolbox           |
|  \\    /   O peration     | Version:  2406                                  |
|   \\  /    A nd           | Website:  www.openfoam.com                      |
|    \\/     M anipulation  |                                                 |
\*---------------------------------------------------------------------------*/
FoamFile
{
    version     2.0;
    format      ascii;
    arch        "LSB;label=32;scalar=64";
    class       surfaceScalarField;
    location    "2.86";
    object      phi;
}
// * * * * * * * * * * * * * * * * * * * * * * * * * * * * * * * * * * * * * //

dimensions      [0 3 -1 0 0 0 0];

oriented        oriented;

internalField   nonuniform List<scalar> 
23794
(
0.004632029
-0.004497493
-0.0001345364
0.003787606
0.0008444237
0.001459858
0.002327748
-0.0009279821
0.00238784
-0.001767347
0.0008393648
-0.001218814
-0.0005485328
0.00108765
-0.002306464
0.002850832
-0.001763182
0.0009390787
0.001911753
-0.002878216
0.003817295
-0.005737428
0.002859212
-0.006003209
0.0002657814
-0.005209484
-0.0007937253
-0.004346552
-0.000862932
-0.003793168
-0.0005533843
-0.003842188
4.902048e-05
-0.003396289
-0.0004458997
-0.001243696
-0.002152593
0.001642011
-0.002885707
0.00408046
-0.002438449
0.006303893
-0.002223432
0.00780206
-0.001498167
0.00807506
-0.0002730001
0.005793314
0.002281746
0.000171512
0.005621802
-0.004381606
0.004553118
-0.002489044
-0.001892562
0.0005959486
-0.003084993
0.002340487
-0.001744539
0.003397152
-0.001056665
0.005708114
-0.002310961
0.009379489
-0.003671375
0.009996587
-0.0006170978
0.004535517
0.00546107
-0.000546618
0.005082135
-0.0006074241
6.080608e-05
-0.0001518353
-0.0004555888
-0.004206208
0.004054373
-0.008703937
0.004497729
-0.01159604
0.002892104
-0.01314862
0.001552574
-0.01405432
0.0009057039
-0.014645
0.0005906844
-0.01504675
0.0004017504
-0.01532133
0.0002745783
-0.01540724
8.590416e-05
-0.01540283
-4.402176e-06
-0.01535419
-4.864201e-05
-0.01526071
-9.348047e-05
-0.015152
-0.0001087138
-0.01498538
-0.0001666137
-0.01477904
-0.0002063395
-0.01451508
-0.0002639691
-0.01422827
-0.000286805
-0.01392543
-0.0003028427
-0.01356908
-0.0003563465
-0.01319388
-0.0003751966
-0.01281185
-0.0003820355
-0.01236606
-0.0004457883
-0.01189833
-0.0004677283
-0.01140609
-0.0004922466
-0.0109084
-0.0004976911
-0.01039063
-0.0005177678
-0.009823569
-0.0005670585
-0.009265448
-0.0005581204
-0.008666921
-0.0005985273
-0.008051234
-0.0006156872
-0.007431424
-0.0006198094
-0.006804207
-0.0006272175
-0.006146152
-0.0006580545
-0.005487363
-0.0006587891
-0.004821957
-0.0006654059
-0.004144592
-0.0006773654
-0.003471062
-0.0006735305
-0.002815521
-0.000655541
-0.002123071
-0.0006924499
-0.001444115
-0.0006789555
-0.000767402
-0.0006767132
-1.404781e-05
-0.0007533541
0.0007777777
-0.0007918255
0.001497886
-0.0007201083
0.002197712
-0.0006998265
0.002888235
-0.0006905227
0.003561575
-0.0006733402
0.004234916
-0.0006733408
0.004889406
-0.0006544899
0.005555723
-0.0006663164
0.00620218
-0.0006464574
0.006814978
-0.000612798
0.007431421
-0.0006164434
0.00803467
-0.0006032485
0.00861536
-0.0005806897
0.009192361
-0.0005770011
0.009754087
-0.0005617266
0.01026257
-0.000508482
0.01076545
-0.0005028783
0.0112525
-0.0004870566
0.01169818
-0.0004456797
0.01214362
-0.000445434
0.01253728
-0.0003936632
0.01290266
-0.0003653745
0.01322864
-0.0003259827
0.01351143
-0.0002827932
0.01378778
-0.0002763453
0.01402607
-0.0002382883
0.01422394
-0.0001978773
0.01437844
-0.0001544955
0.01448876
-0.0001103268
0.0145667
-7.793885e-05
0.01457665
-9.950458e-06
0.01453777
3.888298e-05
0.01438795
0.0001498175
0.01404118
0.0003467735
0.0134758
0.0005653758
0.01256809
0.0009077155
0.01091591
0.00165218
0.007735729
0.00318018
0.0029139
0.004821828
-0.001385217
0.004299117
-0.002687129
0.001301913
-0.00151392
-0.001173209
0.001742918
-0.003256837
0.002918157
-0.00117524
-0.003528933
0.006447091
-0.01012445
0.006595521
-0.01032417
0.0001997169
-0.007149408
-0.003174763
-0.004439519
-0.002709889
-0.003060951
-0.001378568
-0.002219326
-0.0008416254
-0.0006374918
-0.001581834
0.002001823
-0.002639315
0.00388987
-0.001888047
0.002898935
0.0009909352
0.0005732055
0.00232573
-0.000751694
0.0013249
-0.001096335
0.0003446406
-0.001357281
0.0002609463
-0.001545741
0.00018846
-0.001307739
-0.0002380022
-0.0004279584
-0.0008797804
0.0008625061
-0.001290464
0.001971116
-0.00110861
0.002790145
-0.0008190289
0.002918547
-0.000128402
0.001899632
0.001018914
0.0001143611
0.001785271
-0.0007639196
0.0008782807
-0.0004927053
-0.0002712143
-3.420456e-05
-0.0004585007
0.0004843432
-0.0005185478
0.001056192
-0.0005718486
0.001714879
-0.0006586868
0.002467555
-0.0007526768
0.003263807
-0.000796252
0.003976859
-0.0007130516
-0.0005206339
0.006587002
-0.006151975
-0.0005695634
0.006666366
0.0007650595
0.004963573
0.004030541
0.0008402908
0.006511122
-0.002187011
0.003866667
-0.00216868
-0.0005668635
0.0001505088
-0.004625653
0.002805911
-0.004418584
-0.0004169947
0.005134659
-0.006211838
0.009612138
-0.007915356
0.00456273
-0.00738744
-0.0002621354
-0.006841042
-0.001340122
-0.006547571
-0.001156403
-0.006590193
-0.0005107625
-0.006258834
-0.0002823383
-0.004551764
-0.00215297
-0.001362069
-0.005342287
0.00205155
-0.006299327
0.004898916
-0.005285815
0.007511832
-0.004836348
0.009265389
-0.003251724
0.009891034
-0.0008986452
0.008788386
0.003384394
0.002599982
0.01181021
-0.004695201
0.0118483
-0.004361033
-0.002226731
-0.001580139
-0.005865887
-0.0008194335
-0.002505244
-5.960254e-05
-0.001816496
0.002005124
-0.004375688
0.005620087
-0.007286338
0.008526714
-0.003523726
0.006406587
0.007581197
-8.938873e-06
0.01149766
-0.006602485
0.006654352
-0.01254699
0.005488915
-0.01743642
0.008943809
-0.02076597
0.007827276
-0.02190976
0.004035891
-0.02221067
0.001853482
-0.02228377
0.000978811
-0.02226715
0.0005740615
-0.02220222
0.0003368223
-0.02210813
0.0001804871
-0.02190971
-0.0001125184
-0.02169834
-0.000215768
-0.02147207
-0.000274914
-0.02119781
-0.0003677453
-0.02090985
-0.0003966713
-0.02056183
-0.0005146299
-0.02017477
-0.0005933973
-0.0197254
-0.0007133472
-0.019252
-0.000760204
-0.01876866
-0.0007861761
-0.01822758
-0.0008974306
-0.01766337
-0.0009394067
-0.01709661
-0.0009487993
-0.01645656
-0.001085831
-0.01579594
-0.001128356
-0.01510699
-0.001181192
-0.01441116
-0.001193522
-0.01369799
-0.001230942
-0.01292623
-0.001338814
-0.01216639
-0.001317964
-0.01136469
-0.00140022
-0.01054092
-0.001439463
-0.009715716
-0.001445011
-0.008886398
-0.001456536
-0.008019483
-0.00152497
-0.007150874
-0.001527398
-0.006277429
-0.001538851
-0.005391027
-0.001563767
-0.004511456
-0.001553101
-0.003651775
-0.001515223
-0.00275334
-0.001590885
-0.001867761
-0.001564534
-0.000981591
-0.001562883
-1.066663e-05
-0.001724279
0.001004472
-0.001806964
0.001941518
-0.001657155
0.002854188
-0.001612496
0.003753163
-0.001589498
0.004634625
-0.001554803
0.005517423
-0.001556139
0.006378587
-0.001515654
0.007253494
-0.001541223
0.008106694
-0.001499657
0.008919239
-0.001425343
0.009738244
-0.001435448
0.01054614
-0.001411148
0.01132595
-0.001360497
0.01210197
-0.001353016
0.01286557
-0.001325329
0.01356616
-0.001209073
0.01426451
-0.001201232
0.01494531
-0.001167851
0.01557996
-0.001080336
0.01621643
-0.001081899
0.01679234
-0.000969572
0.01734375
-0.0009167827
0.01785125
-0.0008334875
0.01831147
-0.0007430135
0.01877124
-0.0007361112
0.01919089
-0.000657941
0.01956656
-0.000573552
0.01989819
-0.0004861182
0.02018501
-0.0003971506
0.02043961
-0.0003325393
0.02063311
-0.000203449
0.0208325
-0.0001605114
0.02101031
-2.799186e-05
0.02109808
0.0002590091
0.02112459
0.0005388641
0.02107304
0.0009592688
0.02079098
0.001934233
0.01944124
0.004529921
0.0154724
0.008790671
0.009952212
0.009819305
0.005686297
0.005567828
0.003279198
0.001233889
0.002825809
-0.002803448
4.602119e-05
0.001604548
-0.006995424
0.01348854
-0.01109055
0.01069064
-0.009383515
-0.001507314
-0.005998445
-0.006559833
-0.003202947
-0.005505387
-0.002059092
-0.002522423
-0.001405434
-0.001495283
3.128911e-05
-0.003018557
0.0028265
-0.005434526
0.005407652
-0.004469199
0.003693363
0.002705225
0.0001013596
0.005917733
-0.001332327
0.002758586
-0.00145813
0.0004704442
-0.001520522
0.0003233378
-0.001608099
0.0002760369
-0.001464976
-0.0003811251
-0.0005656164
-0.00177914
0.001002985
-0.002859066
0.002447921
-0.002553545
0.003499277
-0.001870386
0.004138844
-0.0007679688
0.004022925
0.001134834
0.002678495
0.003129701
0.001432497
0.002124279
0.001201231
-3.994907e-05
0.001475639
-0.0007329079
0.001848813
-0.000891722
0.002342792
-0.001065828
0.002972591
-0.001288486
0.003757512
-0.001537597
0.00464738
-0.00168612
0.005503753
-0.001569425
-0.001168855
0.008187457
-0.007786046
-0.0009709742
0.008357628
0.0005948889
0.007743525
0.004644644
0.004182659
0.01007199
-0.0006354983
0.008684824
-0.002391389
0.001189027
-0.0007612095
-0.006255833
0.001165479
-0.006345273
-0.002945839
0.009245977
-0.008479611
0.01514591
-0.009372548
0.005455667
-0.008841384
-0.0007932993
-0.008180459
-0.002001047
-0.008014338
-0.001322524
-0.0081771
-0.0003480002
-0.007575114
-0.0008843243
-0.005256472
-0.004471611
-0.001522236
-0.009076523
0.002268654
-0.01009022
0.005477251
-0.008494412
0.008457566
-0.007816662
0.01043213
-0.00522629
0.0109166
-0.001383114
0.009695292
0.004605702
0.004368457
0.01713704
-0.003819853
0.02003661
-0.00649148
0.0004448964
-0.006032053
-0.006325314
-0.006800697
-0.0017366
-0.006568729
-0.002048464
-0.004082378
-0.006862038
-0.0003444064
-0.01102431
0.002874124
-0.006742256
0.002458148
0.007997173
-0.006032976
0.01998878
-0.01737882
0.01800019
-0.02399598
0.01210608
-0.02595754
0.01090537
-0.02614771
0.008017452
-0.02597301
0.003861189
-0.02602725
0.001907726
-0.02611238
0.001063934
-0.02617194
0.000633626
-0.02618354
0.0003484254
-0.02615761
0.0001545512
-0.02597548
-0.0002946491
-0.02574512
-0.0004461225
-0.02548754
-0.0005324987
-0.02517383
-0.0006814554
-0.02484551
-0.0007249871
-0.02444234
-0.0009178028
-0.02399369
-0.001042049
-0.02346863
-0.001238406
-0.02291464
-0.001314198
-0.02234964
-0.001351169
-0.0217124
-0.001534675
-0.02104733
-0.001604472
-0.02038074
-0.001615397
-0.01962319
-0.00184338
-0.01884105
-0.001910497
-0.01802445
-0.00199779
-0.01719917
-0.0020188
-0.01635295
-0.002077161
-0.01543399
-0.002257771
-0.01453076
-0.002221201
-0.0135744
-0.002356575
-0.01259157
-0.002422289
-0.01160608
-0.002430504
-0.01061501
-0.002447609
-0.009577961
-0.002562018
-0.008538367
-0.002566991
-0.0074918
-0.002585417
-0.006429897
-0.002625671
-0.005374906
-0.002608092
-0.004343545
-0.002546584
-0.003268184
-0.002666247
-0.00220857
-0.002624148
-0.001149807
-0.002621646
1.69927e-06
-0.002875785
0.001200084
-0.003005348
0.002319743
-0.002776814
0.003412382
-0.002705135
0.004488076
-0.002665192
0.005543126
-0.002609853
0.006598962
-0.002611975
0.007627964
-0.002544656
0.008673106
-0.002586364
0.009691207
-0.002517759
0.01066039
-0.002394527
0.01163704
-0.002412095
0.01259919
-0.002373302
0.01352724
-0.002288543
0.014451
-0.002276781
0.01535861
-0.002232934
0.01618977
-0.002040234
0.01701876
-0.002030222
0.01782589
-0.001974979
0.01857633
-0.001830778
0.01933074
-0.001836314
0.02001022
-0.001649046
0.02066123
-0.001567798
0.02125856
-0.001430811
0.02179745
-0.00128191
0.02233762
-0.001276274
0.02282699
-0.001147312
0.0232652
-0.001011768
0.02364955
-0.0008704656
0.02398024
-0.0007278396
0.0242734
-0.0006257044
0.02449044
-0.0004204814
0.02469407
-0.0003641477
0.02483731
-0.0001712291
0.02485156
0.0002447595
0.02479558
0.0005948417
0.02471882
0.001036035
0.0247262
0.001926845
0.02499769
0.004258438
0.02462941
0.009158947
0.02248572
0.011963
0.01940153
0.008652014
0.01561934
0.005016076
0.009270227
0.003545669
0.000502556
0.01037222
-0.006242776
0.02023387
-0.009076784
0.01352465
-0.007277546
-0.003306552
-0.00318509
-0.01065229
-1.105496e-05
-0.008679422
0.0011337
-0.003667178
0.001018136
-0.001379719
0.001466593
-0.003467015
0.003572248
-0.00754018
0.005568331
-0.006465283
0.003094851
0.005178705
-0.0006199339
0.009632518
-0.001880131
0.004018783
-0.00212259
0.0007129031
-0.002223699
0.0004244465
-0.00234677
0.0003991074
-0.002219781
-0.0005081135
-0.001024224
-0.002974696
0.001061315
-0.004944605
0.00287394
-0.00436617
0.0042118
-0.003208246
0.004917867
-0.001474036
0.005176267
0.0008764332
0.004801295
0.003504674
0.004107787
0.002817786
0.003765121
0.0003027171
0.003793959
-0.0007617455
0.003901506
-0.0009992691
0.004127235
-0.001291557
0.004542219
-0.00170347
0.00521734
-0.002212719
0.00611075
-0.00257953
0.0070341
-0.002492774
-0.001920802
0.01020356
-0.009656266
-0.001518271
0.01027165
0.0005268064
0.01011417
0.004802119
0.007985013
0.01220115
0.003080304
0.01358953
-0.0008978408
0.005167172
-0.001491545
-0.005662129
-0.001509526
-0.006327291
-0.006108813
0.01384526
-0.01047578
0.01951288
-0.0109992
0.005979084
-0.01055654
-0.001235957
-0.009554597
-0.003002992
-0.009149248
-0.001727873
-0.00928046
-0.0002167889
-0.008638901
-0.001525883
-0.006003797
-0.007106715
-0.001897979
-0.01318234
0.002173782
-0.01416198
0.00574671
-0.01206734
0.009187531
-0.01125748
0.01145661
-0.007495372
0.01195403
-0.001880529
0.01001365
0.006546081
0.005055164
0.02209553
-0.003466346
0.02855812
-0.009612815
0.006591365
-0.01211455
-0.003823575
-0.01430544
0.0004542821
-0.01455196
-0.001801943
-0.01242387
-0.008990126
-0.008024233
-0.01542395
-0.004167312
-0.01059918
-0.0057477
0.009577561
-0.01664004
0.03088113
-0.02787202
0.02923218
-0.031273
0.01550706
-0.0311547
0.01078706
-0.03089836
0.007761116
-0.03112598
0.004088808
-0.0314459
0.002227647
-0.03164001
0.001258048
-0.03173573
0.0007293482
-0.03174212
0.0003548119
-0.03169383
0.0001062615
-0.0314436
-0.0005448793
-0.03114094
-0.0007487839
-0.03080687
-0.000866567
-0.03040536
-0.001082964
-0.02999023
-0.001140123
-0.02948803
-0.001419996
-0.0289328
-0.001597283
-0.02828698
-0.001884221
-0.02760706
-0.001994124
-0.02691558
-0.002042643
-0.02613968
-0.002310574
-0.02533059
-0.002413565
-0.02452023
-0.002425762
-0.02360461
-0.002758996
-0.02265753
-0.002857574
-0.02167025
-0.002985071
-0.02067393
-0.003015127
-0.01965375
-0.003097342
-0.01854494
-0.003366578
-0.0174575
-0.003308639
-0.01630516
-0.003508917
-0.01512254
-0.003604905
-0.01393554
-0.00361751
-0.01274243
-0.00364072
-0.01149417
-0.003810277
-0.01024256
-0.003818596
-0.008981785
-0.003846194
-0.007703808
-0.003903648
-0.006431295
-0.003880605
-0.005188735
-0.003789143
-0.003893432
-0.00396155
-0.002618031
-0.00389955
-0.00134887
-0.003890806
1.285977e-05
-0.004237515
0.001433768
-0.004426257
0.00277556
-0.004118607
0.004089959
-0.004019534
0.005381756
-0.003956988
0.006647681
-0.003875777
0.007914013
-0.003878307
0.009147835
-0.003778479
0.01040318
-0.003841711
0.01162357
-0.003738147
0.0127879
-0.003558859
0.01396229
-0.00358648
0.01511743
-0.003528442
0.01623478
-0.003405899
0.01734861
-0.00339061
0.01844035
-0.003324675
0.01944396
-0.003043839
0.02044585
-0.003032111
0.02142042
-0.002949553
0.02232914
-0.002739493
0.02324341
-0.002750584
0.0240685
-0.002474138
0.02485961
-0.002358906
0.02558743
-0.002158635
0.02624851
-0.001942988
0.0269108
-0.001938565
0.0275127
-0.001749207
0.02805626
-0.001555334
0.02853436
-0.001348561
0.02895177
-0.001145252
0.02932701
-0.001000942
0.02961098
-0.0007044561
0.02988327
-0.0006364365
0.03008206
-0.0003700213
0.03011057
0.0002162556
0.03002519
0.0006802177
0.02984667
0.001214558
0.02956857
0.002204942
0.02949863
0.004328376
0.03012952
0.008528059
0.03048514
0.01160738
0.02952412
0.009613037
0.02684805
0.007692148
0.0187268
0.01166692
0.005969335
0.02312968
-0.002500047
0.02870325
-0.004583161
0.01560777
-0.002911877
-0.004977836
0.0012335
-0.01479767
0.004927876
-0.0123738
0.006030135
-0.004769438
0.005279478
-0.0006290618
0.004495554
-0.00268309
0.00488747
-0.007932097
0.005193581
-0.006771394
0.00202023
0.008352056
-0.001315685
0.01296843
-0.002476688
0.005179787
-0.002961868
0.001198083
-0.003287251
0.0007498297
-0.003508715
0.0006205716
-0.003130005
-0.0008868234
-0.001336224
-0.004768477
0.001322827
-0.007603657
0.003517095
-0.006560438
0.005142979
-0.00483413
0.005973687
-0.002304743
0.006241541
0.000608579
0.006130975
0.00361524
0.005667174
0.003281587
0.005160343
0.0008095484
0.004985453
-0.0005868562
0.005035909
-0.001049725
0.005295611
-0.001551259
0.00578313
-0.002190989
0.006576452
-0.003006041
0.007637667
-0.003640745
0.008749227
-0.003604334
-0.00282784
0.01244607
-0.0116813
-0.002283039
0.01257498
0.0003978936
0.01250903
0.004868071
0.01162118
0.01308899
0.0077385
0.01747222
0.001868737
0.01103694
-0.002008705
-0.001784687
-0.004812282
-0.003523714
-0.009319724
0.01835271
-0.01245892
0.02265207
-0.01291693
0.0064371
-0.01245678
-0.001696108
-0.01101556
-0.00444422
-0.01000828
-0.002735148
-0.009850025
-0.0003750463
-0.009317683
-0.002058225
-0.006713681
-0.009710717
-0.002536808
-0.01735922
0.001674776
-0.01837356
0.005646836
-0.0160394
0.009678057
-0.0152887
0.01237608
-0.0101934
0.0129359
-0.002440344
0.01018223
0.009299749
0.004814987
0.02746277
-0.004489857
0.03786297
-0.01415454
0.01625605
-0.01982595
0.001847835
-0.02334632
0.003974651
-0.02440697
-0.0007412988
-0.02346616
-0.009930935
-0.02049876
-0.01839134
-0.0177347
-0.01336324
-0.02144637
0.01328924
-0.03050014
0.0399349
-0.03620303
0.03493507
-0.03649626
0.01580029
-0.03644208
0.01073287
-0.03661664
0.007935678
-0.03702119
0.004493354
-0.0373785
0.002584959
-0.03761232
0.001491869
-0.03775908
0.0008761118
-0.03779104
0.0003867672
-0.03776838
8.360358e-05
-0.03749431
-0.0008189557
-0.03715906
-0.00108403
-0.03678473
-0.001240894
-0.03631606
-0.001551636
-0.03584723
-0.001608951
-0.03525699
-0.002010238
-0.03460969
-0.002244583
-0.0338459
-0.00264801
-0.03304196
-0.00279807
-0.03222767
-0.00285693
-0.03130394
-0.003234298
-0.03034091
-0.003376598
-0.02938013
-0.003386544
-0.02828923
-0.003849898
-0.02715732
-0.00398948
-0.02597793
-0.004164461
-0.02479007
-0.004202992
-0.0235732
-0.004314203
-0.02224323
-0.00469655
-0.02094595
-0.004605923
-0.01956422
-0.00489064
-0.0181491
-0.005020028
-0.01672588
-0.005040734
-0.01529677
-0.005069825
-0.01379731
-0.005309741
-0.01229329
-0.005322619
-0.01077489
-0.005364595
-0.009238166
-0.005440368
-0.007703514
-0.005415256
-0.006206608
-0.00528605
-0.004642644
-0.005525513
-0.003103244
-0.005438949
-0.001579951
-0.005414099
2.945661e-05
-0.005846923
0.001711827
-0.006108627
0.003321015
-0.005727795
0.004902468
-0.005600986
0.006450395
-0.005504915
0.007966272
-0.005391655
0.009484634
-0.005396669
0.01096295
-0.005256793
0.01247108
-0.005349842
0.01393041
-0.005197474
0.0153285
-0.004956951
0.01674088
-0.004998863
0.01812162
-0.00490918
0.01946202
-0.004746302
0.02080312
-0.00473171
0.02210835
-0.0046299
0.02331012
-0.004245609
0.02451202
-0.004234011
0.02567728
-0.004114818
0.02676019
-0.003822401
0.0278558
-0.003846197
0.02883844
-0.003456769
0.0297801
-0.003300568
0.0306447
-0.003023237
0.03142582
-0.002724112
0.0322118
-0.002724545
0.03291791
-0.002455317
0.03355884
-0.002196262
0.03411445
-0.001904173
0.03459711
-0.001627907
0.03503279
-0.00143662
0.03534417
-0.001015837
0.03564974
-0.0009420068
0.03585796
-0.0005782424
0.03586285
0.0002113645
0.03573502
0.0008080477
0.03551974
0.001429835
0.03522209
0.002502597
0.03491285
0.004637608
0.03520722
0.008233689
0.03578754
0.01102706
0.03548999
0.009910582
0.03435993
0.00882221
0.02868461
0.01734224
0.01567289
0.0361414
0.005095724
0.03928042
0.002296892
0.0184066
0.004154489
-0.006835433
0.008432373
-0.01907555
0.0118348
-0.01577623
0.01270787
-0.005642506
0.01144025
0.0006385605
0.009243453
-0.0004862926
0.007167155
-0.005855799
0.004901278
-0.004505516
0.001082711
0.01217062
-0.001769628
0.01582077
-0.003154707
0.006564865
-0.004053761
0.002097137
-0.004790955
0.001487023
-0.004993433
0.0008230501
-0.003985881
-0.001894376
-0.001483001
-0.007271357
0.001666178
-0.01075284
0.004276235
-0.009170494
0.006187779
-0.006745675
0.007187069
-0.003304033
0.007493168
0.0003024806
0.007287425
0.003820983
0.006686071
0.003882941
0.005902328
0.001593292
0.005476106
-0.0001606348
0.005451546
-0.001025165
0.005832562
-0.001932275
0.006583429
-0.002941856
0.007706696
-0.004129308
0.009104857
-0.005038907
0.01052477
-0.005024245
-0.003984372
0.01499423
-0.01398392
-0.003293347
0.01533517
5.695369e-05
0.0152364
0.004966843
0.01500398
0.01332141
0.01250874
0.01996746
0.00591367
0.017632
-0.001571463
0.005700446
-0.007593157
0.002497979
-0.01194369
0.02270324
-0.01443422
0.02514261
-0.01512142
0.007124306
-0.01458806
-0.002229466
-0.01262918
-0.006403101
-0.01064031
-0.004724019
-0.009738184
-0.001277175
-0.009350723
-0.002445686
-0.007311165
-0.01175028
-0.003459753
-0.02121063
0.0008406575
-0.02267397
0.005281528
-0.02048027
0.01000452
-0.02001169
0.013269
-0.01345788
0.01386598
-0.003037326
0.0103186
0.01284713
0.003614684
0.03416669
-0.007279788
0.04875744
-0.01999817
0.02897444
-0.02821282
0.01006248
-0.03282348
0.008585312
-0.03507997
0.001515192
-0.03627768
-0.008733227
-0.03680387
-0.01786515
-0.03803131
-0.0121358
-0.04151959
0.01677752
-0.04410888
0.04252418
-0.04345451
0.0342807
-0.04307325
0.01541903
-0.04384923
0.01150884
-0.04424977
0.008336225
-0.04475961
0.005003195
-0.04515883
0.002984173
-0.04540502
0.001738057
-0.04555933
0.00103043
-0.04553145
0.0003588818
-0.0454795
3.165501e-05
-0.04512324
-0.001175219
-0.04470726
-0.001500007
-0.04423773
-0.00171042
-0.04364614
-0.002143231
-0.04308225
-0.002172843
-0.04235738
-0.002735107
-0.04157472
-0.003027244
-0.04064731
-0.003575417
-0.03967181
-0.003773573
-0.03869249
-0.003836249
-0.03757492
-0.004351864
-0.03641375
-0.00453777
-0.03526307
-0.004537224
-0.03395154
-0.005161429
-0.03258607
-0.005354951
-0.03117017
-0.00558036
-0.02974463
-0.005628535
-0.02828833
-0.005770504
-0.02668551
-0.006299365
-0.02513788
-0.006153555
-0.02347708
-0.006551437
-0.0217813
-0.006715814
-0.02007585
-0.006746183
-0.01836616
-0.006779517
-0.01656878
-0.00710712
-0.01476798
-0.007123411
-0.01293983
-0.007192745
-0.01109334
-0.007286863
-0.009237054
-0.007271541
-0.007436575
-0.00708653
-0.005548024
-0.007414064
-0.003682054
-0.007304919
-0.00185081
-0.007245344
5.322193e-05
-0.007750954
0.002046035
-0.00810144
0.003981275
-0.007663035
0.005874612
-0.007494323
0.007725979
-0.007356282
0.009542312
-0.007207987
0.01136361
-0.007217965
0.01313558
-0.007028768
0.01495199
-0.00716625
0.01669692
-0.006942401
0.01837984
-0.006639869
0.02008561
-0.006704638
0.02173689
-0.006560464
0.02334546
-0.006354865
0.02497071
-0.00635696
0.02653408
-0.006193275
0.02797363
-0.005685155
0.02942088
-0.005681265
0.03082137
-0.005515309
0.03211738
-0.005118408
0.0334383
-0.005167117
0.03462046
-0.004638927
0.03575396
-0.004434073
0.03679318
-0.004062452
0.03773688
-0.003667817
0.03869211
-0.003679777
0.03954128
-0.003304487
0.04032624
-0.002981217
0.04099973
-0.002577665
0.0415937
-0.002221876
0.04213174
-0.001974666
0.04252597
-0.001410064
0.04290696
-0.001322995
0.04318495
-0.0008562301
0.0432417
0.0001546105
0.04312469
0.0009250618
0.04289703
0.001657491
0.04258075
0.002818874
0.04219277
0.005025588
0.04214335
0.008283116
0.04222813
0.01094228
0.04138224
0.01075647
0.04030018
0.009904262
0.0381239
0.01951852
0.02955789
0.04470741
0.01889678
0.04994153
0.01351181
0.02379157
0.01549477
-0.008818394
0.01912754
-0.02270833
0.02138607
-0.01803475
0.02146349
-0.005719926
0.0195587
0.002543344
0.0159048
0.003167611
0.01094264
-0.0008936405
0.005490376
0.000946748
0.0006797828
0.01698122
-0.002054452
0.01855501
-0.003990676
0.008501089
-0.005419934
0.003526395
-0.006581494
0.002648584
-0.006543735
0.000785291
-0.004770209
-0.003667902
-0.001600238
-0.01044133
0.002063352
-0.01441643
0.005133931
-0.01224107
0.007346801
-0.008958544
0.008455684
-0.004412917
0.008836606
-7.844125e-05
0.008564363
0.004093226
0.007807621
0.004639683
0.006755993
0.00264492
0.006066495
0.0005288629
0.005937219
-0.0008958884
0.006445498
-0.002440554
0.007437473
-0.003933831
0.008870622
-0.005562457
0.01066405
-0.006832336
0.01248849
-0.006848679
-0.005479811
0.01825106
-0.01691376
-0.004630644
0.01881482
-0.0005068134
0.01868211
0.00509956
0.01848609
0.01351742
0.01706378
0.02138977
0.01093996
0.02375583
0.000301259
0.01633914
-0.009031868
0.01183111
-0.01349043
0.02716179
-0.01621176
0.02786394
-0.01742434
0.008336889
-0.01695543
-0.002698377
-0.0145294
-0.008829136
-0.01133143
-0.007921989
-0.009179116
-0.003429487
-0.008748786
-0.002876015
-0.007867975
-0.01263109
-0.00470553
-0.02437307
-0.00011645
-0.02726305
0.004725209
-0.02532193
0.01018483
-0.02547131
0.01406431
-0.01733737
0.01448145
-0.003454466
0.009941773
0.01738681
0.001168992
0.04293947
-0.01190599
0.06183242
-0.02665289
0.04372134
-0.03613096
0.01954055
-0.04128964
0.01374399
-0.04466651
0.004892065
-0.04788418
-0.00551556
-0.05160994
-0.01413938
-0.05617282
-0.007572928
-0.05848011
0.01908481
-0.05531888
0.03936295
-0.05147197
0.03043379
-0.05181053
0.01575759
-0.05268752
0.01238583
-0.05301799
0.008666689
-0.05356555
0.005550761
-0.05399032
0.003408946
-0.05427666
0.002024398
-0.05450362
0.001257389
-0.05447229
0.0003275487
-0.05448666
4.602492e-05
-0.054018
-0.001643879
-0.05354342
-0.001974583
-0.05299994
-0.002253902
-0.05227153
-0.002871646
-0.05163423
-0.002810145
-0.05075178
-0.003617557
-0.04983256
-0.003946462
-0.04872181
-0.004686163
-0.0475461
-0.004949288
-0.04638534
-0.00499701
-0.04505096
-0.005686236
-0.04365815
-0.005930586
-0.04227798
-0.005917387
-0.04071642
-0.006722989
-0.03908206
-0.006989311
-0.0373875
-0.007274926
-0.03566109
-0.00735494
-0.0339438
-0.007487799
-0.03200305
-0.00824011
-0.03016367
-0.00799294
-0.02816047
-0.008554634
-0.02613315
-0.008743132
-0.02409652
-0.008782812
-0.0220225
-0.008853535
-0.01988851
-0.009241116
-0.01774322
-0.009268697
-0.0155509
-0.009385067
-0.01335323
-0.009484532
-0.01107598
-0.009548792
-0.008932421
-0.009230088
-0.006649855
-0.00969663
-0.004376989
-0.009577785
-0.002172125
-0.009450208
8.939619e-05
-0.01001248
0.002452478
-0.01046452
0.0047827
-0.009993257
0.007021925
-0.009733548
0.009245771
-0.009580128
0.01143384
-0.009396054
0.01361148
-0.009395609
0.01573435
-0.009151632
0.01793926
-0.009371166
0.02003281
-0.009035949
0.02204846
-0.008655522
0.02409766
-0.008753837
0.02609389
-0.008556694
0.02802754
-0.008288508
0.02996808
-0.008297504
0.03184693
-0.008072123
0.03356602
-0.007404247
0.03529929
-0.007414532
0.036958
-0.007174026
0.03852477
-0.006685176
0.04011059
-0.006752934
0.04151764
-0.006045976
0.04288788
-0.005804315
0.044116
-0.005290575
0.04524577
-0.00479758
0.04639577
-0.004829782
0.04739291
-0.004301623
0.04834295
-0.003931256
0.04912719
-0.003361908
0.04983803
-0.002932721
0.05048737
-0.002624
0.05093241
-0.001855104
0.05139557
-0.001786155
0.05172671
-0.001187373
0.05174079
0.0001405315
0.05159199
0.001073862
0.05132036
0.001929123
0.05099069
0.003148539
0.05061679
0.005399495
0.05054566
0.008354245
0.05046895
0.01101899
0.04936733
0.0118581
0.04741775
0.01185384
0.04726448
0.0196718
0.04570691
0.04626497
0.03970184
0.05594661
0.03368416
0.02980925
0.03294274
-0.00807698
0.03345378
-0.02321936
0.0333625
-0.01794347
0.03194964
-0.004307065
0.02922129
0.005271687
0.02432833
0.008060574
0.01656885
0.006865838
0.007773242
0.009742359
0.001312835
0.02344162
-0.002395223
0.02226306
-0.005184094
0.01128996
-0.007029085
0.005371385
-0.008320031
0.00393953
-0.007936346
0.0004016065
-0.005600787
-0.006003462
-0.001830672
-0.01421144
0.002505779
-0.01875288
0.006001347
-0.01573664
0.00846837
-0.01142557
0.009605703
-0.00555025
0.01001012
-0.0004828626
0.009750347
0.004353003
0.009007582
0.005382448
0.007854551
0.003797951
0.007016754
0.00136666
0.006805037
-0.0006841709
0.007270122
-0.002905639
0.00828873
-0.00495244
0.01008444
-0.007358168
0.01254061
-0.009288502
0.01496788
-0.009275954
-0.007425689
0.02274938
-0.02095517
-0.006424858
0.02358292
-0.001340354
0.02345311
0.005229373
0.02275597
0.01421456
0.02161688
0.02252886
0.016687
0.02868571
0.004414267
0.02861187
-0.008228423
0.0244738
-0.01355514
0.03248851
-0.01693409
0.03124289
-0.01846044
0.009863239
-0.0187614
-0.002397418
-0.0167247
-0.01086583
-0.01239365
-0.01225304
-0.008840868
-0.00698227
-0.008190035
-0.003526848
-0.008797401
-0.01202372
-0.006528514
-0.02664196
-0.001589594
-0.03220197
0.003561497
-0.03047302
0.009873769
-0.03178358
0.01409329
-0.02155689
0.01370005
-0.003061222
0.008524033
0.02256282
-0.002321942
0.05378544
-0.01871141
0.07822188
-0.03500625
0.06001619
-0.04357218
0.02810647
-0.04891649
0.0190883
-0.05318867
0.009164249
-0.05764863
-0.001055603
-0.06297283
-0.008815178
-0.06885117
-0.00169459
-0.07054809
0.02078173
-0.06566494
0.0344798
-0.06181403
0.02658288
-0.06276098
0.01670454
-0.0634405
0.01306535
-0.06383725
0.009063439
-0.06447986
0.00619337
-0.06494995
0.003879036
-0.06518426
0.00225871
-0.06552447
0.001597598
-0.0653485
0.0001515756
-0.06532856
2.608961e-05
-0.06483501
-0.00213743
-0.06422895
-0.002580647
-0.06363689
-0.002845957
-0.06267319
-0.003835348
-0.06195452
-0.003528813
-0.06087981
-0.004692267
-0.05980509
-0.005021184
-0.05845084
-0.006040411
-0.05700755
-0.006392579
-0.05563922
-0.006365348
-0.05407007
-0.007255379
-0.05233337
-0.007667293
-0.0506855
-0.007565254
-0.04884021
-0.008568275
-0.04689949
-0.008930033
-0.04482865
-0.009345762
-0.04273763
-0.009445965
-0.04077701
-0.009448417
-0.03836196
-0.01065517
-0.03620928
-0.01014561
-0.03373203
-0.01103189
-0.03136464
-0.01111052
-0.02892303
-0.01122443
-0.02639996
-0.0113766
-0.02388938
-0.01175169
-0.02129633
-0.01186175
-0.01866307
-0.01201833
-0.01608585
-0.01206175
-0.01329511
-0.01233953
-0.01078936
-0.01173584
-0.007983784
-0.01250221
-0.005229248
-0.01233232
-0.002566448
-0.01211301
0.0001542157
-0.01273314
0.00299123
-0.01330154
0.00569889
-0.01270092
0.008347582
-0.01238224
0.01105177
-0.01228432
0.01370801
-0.01205229
0.01632719
-0.01201479
0.01884616
-0.0116706
0.02156345
-0.01208846
0.02405807
-0.01153056
0.02648333