/*--------------------------------*- C++ -*----------------------------------*\
| =========                 |                                                 |
| \\      /  F ield         | OpenFOAM: The Open Source CFD Toolbox           |
|  \\    /   O peration     | Version:  2406                                  |
|   \\  /    A nd           | Website:  www.openfoam.com                      |
|    \\/     M anipulation  |                                                 |
\*---------------------------------------------------------------------------*/
FoamFile
{
    version     2.0;
    format      ascii;
    arch        "LSB;label=32;scalar=64";
    class       volVectorField;
    location    "2.86";
    object      U;
}
// * * * * * * * * * * * * * * * * * * * * * * * * * * * * * * * * * * * * * //

dimensions      [0 1 -1 0 0 0 0];

internalField   nonuniform List<vector> 
15536
(
(-0.0168192 4.809522 -4.456931e-22)
(-0.1293733 4.680595 -4.694934e-19)
(-0.1289427 3.182647 -8.611967e-19)
(0.08137111 0.07096349 -7.567967e-19)
(0.3961837 -2.07955 -1.145487e-20)
(0.3689429 -1.74247 4.739851e-21)
(-0.03281061 -0.298406 8.717972e-21)
(-0.6967542 2.11591 -8.579546e-21)
(-1.011363 3.175371 3.033143e-18)
(0.6176162 -1.032062 3.365876e-18)
(2.372392 -4.693598 0)
(2.940643 -5.665852 0)
(2.766735 -4.979031 -2.1945e-20)
(2.464954 -4.126507 4.802544e-18)
(2.194188 -3.389892 1.809388e-18)
(2.319839 -3.198923 -3.006967e-18)
(2.514415 -3.146372 1.059174e-18)
(1.636012 -1.986495 8.470153e-21)
(-0.2432708 0.1078884 -2.684089e-20)
(-2.144122 2.03304 1.794031e-20)
(-3.934505 3.602227 0)
(-5.474525 4.753487 7.921669e-18)
(-6.440883 5.259694 0)
(-6.183793 4.86697 9.202295e-18)
(-3.160745 2.599216 -6.132563e-20)
(2.744287 -1.433372 -4.151728e-21)
(4.529329 -2.659248 4.215804e-21)
(0.8219008 -0.6010114 -2.282931e-18)
(-1.954962 0.77231 -4.602555e-18)
(-2.971065 1.173044 0)
(-4.344832 1.532852 -3.461162e-20)
(-7.052844 2.197779 -5.012372e-18)
(-9.814564 2.898541 7.967498e-18)
(-8.66123 2.564268 0)
(-2.193779 0.7730647 -6.987553e-18)
(2.951619 -0.5675457 -2.486963e-20)
(-0.9511529 -0.2129159 3.49243e-18)
(1.104425 -0.07105547 -1.703255e-18)
(7.17899 0.1095681 1.600133e-21)
(10.95594 0.5512809 -3.996054e-19)
(12.96709 1.115256 1.624232e-18)
(14.0344 1.753164 -2.588914e-20)
(14.65635 2.43725 2.56354e-20)
(15.00653 3.122586 0)
(15.17358 3.79587 -6.440009e-18)
(15.18645 4.443277 -6.385842e-18)
(15.04287 5.053575 0)
(14.80505 5.631589 -1.214715e-17)
(14.50091 6.181751 1.183294e-17)
(14.15309 6.705687 1.141695e-17)
(13.75169 7.188915 4.158419e-20)
(13.29084 7.627173 -1.036306e-17)
(12.77862 8.015475 0)
(12.2242 8.355775 0)
(11.63694 8.644587 8.403662e-18)
(11.01466 8.873605 7.724373e-18)
(10.37603 9.054172 5.160495e-20)
(9.727556 9.184667 6.139109e-18)
(9.055927 9.246123 1.08391e-17)
(8.374147 9.247071 4.637947e-18)
(7.690375 9.1907 3.798315e-18)
(7.01829 9.086615 -2.687202e-20)
(6.354642 8.92488 0)
(5.696945 8.698571 1.379891e-18)
(5.059026 8.424624 0)
(4.436579 8.089528 2.62363e-19)
(3.838499 7.699599 -2.83042e-20)
(3.275232 7.265626 -2.855258e-21)
(2.746114 6.785199 8.462645e-21)
(2.255363 6.262401 -3.228782e-18)
(1.808857 5.705952 -1.627279e-20)
(1.40724 5.113511 2.263784e-18)
(1.052118 4.487372 2.53265e-18)
(0.7488521 3.843478 0)
(0.496921 3.186099 0)
(0.2990296 2.511758 3.168786e-18)
(0.1526512 1.826734 -3.794337e-22)
(0.06134255 1.138169 8.731574e-19)
(0.02813874 0.4102042 1.625916e-21)
(0.04600933 -0.3876149 -6.894282e-21)
(0.1117485 -1.161905 -1.712171e-18)
(0.2346145 -1.883685 0)
(0.4123112 -2.578071 3.126356e-18)
(0.6422788 -3.252182 0)
(0.9233637 -3.902458 -2.68432e-18)
(1.253198 -4.525267 2.399102e-18)
(1.631315 -5.119225 1.782629e-20)
(2.054273 -5.682197 3.675422e-18)
(2.51874 -6.203973 1.045766e-20)
(3.020712 -6.682419 -2.354146e-18)
(3.557476 -7.119296 -1.62284e-18)
(4.126308 -7.508511 9.425366e-21)
(4.725285 -7.852273 -6.732913e-20)
(5.346669 -8.145016 -7.333572e-19)
(5.982849 -8.383607 1.511507e-20)
(6.623775 -8.555443 6.306333e-21)
(7.274682 -8.674495 -3.1253e-18)
(7.931164 -8.740738 0)
(8.584849 -8.746724 9.308454e-18)
(9.238067 -8.703047 5.36359e-18)
(9.871408 -8.596054 9.74508e-20)
(10.48103 -8.428129 -6.934966e-18)
(11.06284 -8.202447 0)
(11.61558 -7.923369 0)
(12.13844 -7.598515 0)
(12.62237 -7.226327 0)
(13.05727 -6.808233 9.957438e-18)
(13.43975 -6.348234 1.05183e-17)
(13.76903 -5.850692 2.61692e-20)
(14.04145 -5.324494 -1.129769e-17)
(14.22691 -4.762837 -5.76116e-18)
(14.30098 -4.16799 -5.941952e-18)
(14.21893 -3.538525 4.648476e-20)
(13.93453 -2.879518 6.036993e-18)
(13.36763 -2.206629 3.094764e-18)
(12.3083 -1.561819 -2.392134e-20)
(10.16215 -0.9370764 -5.770605e-21)
(6.015429 -0.3480316 3.911091e-19)
(-0.2862748 -0.007755928 -8.277397e-19)
(-3.042488 -0.1223934 -2.018982e-20)
(-2.454519 -0.1097131 1.337062e-20)
(-0.2085074 0.2470162 2.612973e-18)
(4.950777 1.131205 1.840073e-20)
(-0.1686786 -0.4108974 0)
(-8.29606 -2.871605 -8.516819e-18)
(-10.44935 -3.58116 -8.391404e-18)
(-8.125722 -2.967062 6.202155e-21)
(-5.42644 -2.194747 7.431233e-18)
(-3.567423 -1.631991 -5.752393e-18)
(-2.551036 -1.28253 0)
(-1.461503 -0.7397703 0)
(0.4272079 0.3844637 -2.639647e-18)
(2.915092 2.0001 0)
(3.400247 2.378487 2.114366e-20)
(1.303911 0.8779275 -3.317043e-18)
(-0.3196216 -0.3941178 -4.858863e-18)
(-0.6974581 -0.7038453 5.062693e-20)
(-0.8166871 -0.8690044 -1.361625e-17)
(-0.9839457 -1.109176 -1.058403e-19)
(-0.9956926 -1.174693 1.311496e-17)
(-0.6304044 -0.7470032 5.940849e-18)
(0.06422525 0.1797615 5.439662e-18)
(0.7734768 1.226411 5.217529e-18)
(1.266624 2.104543 0)
(1.552621 2.739218 -2.290465e-20)
(1.377933 2.524602 -5.267682e-18)
(0.5495063 0.9971383 0)
(-0.3472521 -0.8379945 5.201826e-18)
(-0.2422171 -0.5984194 -3.861557e-20)
(-0.1096014 -0.282122 1.883456e-20)
(0.03561957 0.2227444 2.239338e-18)
(0.1516031 0.7740209 -3.474276e-23)
(0.2411978 1.398183 0)
(0.2963106 2.117797 9.55028e-19)
(0.3039188 2.915261 7.372608e-21)
(0.2546311 3.710473 1.878651e-21)
(0.1421867 4.366057 -2.240491e-21)
(-0.2023942 5.444387 -2.012647e-19)
(-0.340108 5.760523 3.808147e-19)
(-0.3348286 5.664343 0)
(-0.07157394 3.015012 5.908923e-19)
(0.4427765 -1.615731 0)
(0.4365946 -2.263147 2.279731e-18)
(-0.07279436 -0.9464216 7.049167e-21)
(-0.5903845 0.9050495 -7.026727e-21)
(-0.959834 3.360281 -2.45566e-18)
(1.992345 -3.563104 -2.586085e-18)
(3.103626 -6.285129 0)
(2.784803 -5.749118 2.303098e-20)
(2.763118 -5.316554 -5.150762e-21)
(2.746311 -4.774243 -1.945607e-18)
(3.037494 -4.705633 -2.941326e-18)
(3.379922 -4.746359 1.201624e-18)
(2.923909 -3.95425 -8.300469e-19)
(1.38842 -2.125246 -5.607644e-21)
(-0.5305809 0.01327861 0)
(-2.327734 1.894345 0)
(-4.078762 3.407039 0)
(-5.581307 4.524225 6.427077e-18)
(-6.502332 5.009807 6.023189e-20)
(-6.605572 5.010758 -5.882502e-20)
(-5.290541 4.345483 2.158771e-20)
(1.464602 -0.1714774 -2.214508e-20)
(5.260041 -3.206597 0)
(2.012536 -1.508151 0)
(0.5387666 -0.5037385 7.497748e-18)
(0.2614933 -0.2727905 4.288297e-20)
(-0.5804901 -0.1097772 -4.137971e-20)
(-3.026095 0.4466918 4.364229e-18)
(-4.931167 1.105232 6.943867e-18)
(-8.021193 2.325077 -4.85718e-20)
(-4.272516 1.493327 -5.291375e-18)
(4.208076 -0.4495362 2.194908e-18)
(8.780403 -0.7254318 2.030205e-21)
(12.63527 -0.3028089 1.100475e-18)
(17.08825 -0.0269412 0)
(18.59399 0.3223929 2.872762e-19)
(18.96646 0.8282873 2.412334e-18)
(19.04031 1.466886 2.513509e-18)
(18.97281 2.160407 2.544003e-18)
(18.80945 2.855963 -7.919376e-20)
(18.58116 3.56079 5.166068e-18)
(18.29762 4.256511 -3.930889e-20)
(17.97463 4.940946 0)
(17.59413 5.596289 9.682963e-18)
(17.15187 6.221041 0)
(16.66726 6.813364 -6.874378e-20)
(16.13231 7.360209 6.892813e-20)
(15.54365 7.85851 8.274957e-18)
(14.90854 8.301819 -5.831924e-20)
(14.23397 8.690344 7.274996e-18)
(13.52814 9.019667 -6.760615e-18)
(12.79415 9.287385 0)
(12.04245 9.502457 4.081899e-20)
(11.28 9.660354 -5.036434e-18)
(10.5022 9.747683 -8.638321e-18)
(9.713588 9.7663 0)
(8.926785 9.726839 -3.049614e-18)
(8.150972 9.630879 -1.592844e-20)
(7.386744 9.470725 1.71348e-18)
(6.635049 9.245433 5.725025e-21)
(5.902786 8.960941 -5.792124e-21)
(5.193859 8.614305 -2.129166e-19)
(4.511813 8.209445 8.526383e-19)
(3.867472 7.751652 0)
(3.261887 7.246475 0)
(2.699839 6.697506 -2.040167e-20)
(2.185612 6.106668 0)
(1.722241 5.476083 0)
(1.311465 4.810248 0)
(0.9579822 4.120826 -2.297331e-18)
(0.6606162 3.417322 1.853166e-20)
(0.4279039 2.693655 1.095745e-20)
(0.2513286 1.958459 -5.364686e-21)
(0.1387249 1.216046 -7.167477e-19)
(0.09997405 0.432489 2.946945e-21)
(0.1214265 -0.4164043 -7.307781e-19)
(0.1950229 -1.245049 1.396323e-18)
(0.3409533 -2.020194 1.066956e-20)
(0.5506416 -2.76505 -2.536488e-18)
(0.8193577 -3.488218 -3.741086e-20)
(1.146904 -4.186308 2.225397e-18)
(1.529185 -4.85208 -1.99582e-18)
(1.967059 -5.485003 0)
(2.453047 -6.084338 -6.00344e-18)
(2.985467 -6.635212 -1.724238e-20)
(3.561639 -7.140098 1.910444e-18)
(4.175836 -7.602606 1.323684e-18)
(4.825519 -8.010048 0)
(5.509002 -8.364638 0)
(6.218376 -8.669801 0)
(6.944626 -8.910429 1.177521e-20)
(7.683154 -9.082454 -1.169913e-20)
(8.433583 -9.196254 2.446456e-18)
(9.190414 -9.250309 5.102199e-21)
(9.949764 -9.241088 -3.767555e-18)
(10.70595 -9.173575 -6.855553e-20)
(11.44866 -9.043074 9.877107e-18)
(12.16979 -8.846926 5.513387e-18)
(12.86483 -8.588175 -4.494959e-20)
(13.53609 -8.273148 6.468602e-18)
(14.17837 -7.907388 5.288205e-20)
(14.78431 -7.485715 -6.018543e-20)
(15.3462 -7.014082 5.994854e-20)
(15.85999 -6.495419 6.593438e-20)
(16.32544 -5.936369 8.66154e-18)
(16.73628 -5.340702 -6.823769e-20)
(17.08657 -4.715229 0)
(17.38846 -4.067936 0)
(17.64959 -3.41211 0)
(17.85404 -2.760482 0)
(17.97626 -2.112069 1.796154e-20)
(17.9623 -1.526045 -1.781412e-20)
(17.62205 -1.071651 1.069154e-18)
(15.78288 -0.7066048 4.12625e-21)
(10.61948 -0.2780229 0)
(6.059876 0.2036678 -1.314155e-18)
(3.631356 0.5452207 2.647631e-18)
(2.645048 0.7918308 -2.107783e-18)
(3.408101 0.6642531 3.393186e-20)
(-3.481835 -1.643625 -4.531161e-18)
(-9.306268 -3.243712 1.785896e-20)
(-7.893339 -2.366664 0)
(-6.072343 -1.750509 9.459613e-18)
(-3.57772 -1.075755 -1.237966e-17)
(-2.180739 -0.7862864 -4.749519e-18)
(-1.530365 -0.6292722 -5.833025e-21)
(-0.7712875 -0.1703514 -5.218964e-20)
(0.6194231 0.8135165 2.116912e-20)
(3.080765 2.416473 0)
(4.165663 2.895489 1.763201e-18)
(1.023538 0.4079035 2.595893e-18)
(-0.6712462 -0.7794479 -8.700973e-21)
(-0.8689013 -0.84086 -5.02911e-18)
(-0.8430956 -0.8767679 1.130123e-17)
(-0.8414416 -0.9436158 5.738468e-18)
(-0.8805194 -1.002278 1.543308e-21)
(-0.705383 -0.7317932 -4.834959e-18)
(-0.06196673 0.1999629 -3.615273e-20)
(0.6768693 1.303547 -4.251057e-18)
(1.227861 2.28374 3.374696e-20)
(1.509107 2.899856 -2.003494e-21)
(1.7555 3.390092 -3.25967e-20)
(1.46261 2.771688 0)
(0.6613531 1.287738 0)
(0.3157024 0.9789716 -4.068433e-18)
(0.2625035 1.083611 0)
(0.2840543 1.36727 -3.609792e-18)
(0.3039909 1.756598 1.718722e-18)
(0.3074527 2.237304 -1.257069e-20)
(0.2872407 2.839364 1.23512e-20)
(0.232541 3.56049 7.669351e-19)
(0.1345478 4.322051 -3.924248e-19)
(-0.01492435 5.004833 -1.934627e-19)
(-0.1337022 5.722363 1.61818e-19)
(-0.2590715 5.852789 -3.128136e-19)
(-0.2457424 6.04597 7.921409e-21)
(-0.05732321 5.127897 -4.660398e-19)
(0.3315866 0.8420425 0)
(0.3465337 -1.749973 -1.915576e-18)
(-0.1810583 -1.212218 -1.152409e-20)
(-0.4276334 -0.2699301 8.033113e-19)
(-0.03629061 1.678902 1.954799e-18)
(2.97358 -4.880833 1.997435e-18)
(3.122522 -6.012257 2.636818e-18)
(2.836264 -5.740497 -2.114851e-20)
(2.733927 -5.238616 0)
(2.755079 -4.775762 0)
(3.142901 -4.842968 1.190212e-18)
(3.456289 -4.895246 9.760716e-19)
(2.746643 -3.941881 6.825461e-19)
(1.077547 -2.163647 9.025938e-21)
(-0.7061161 -0.2025098 0)
(-2.331255 1.572886 2.075197e-18)
(-3.961934 3.010066 3.547031e-18)
(-5.311152 4.12875 -5.271696e-18)
(-6.041485 4.694495 0)
(-5.796978 4.641358 6.195546e-18)
(-4.70443 4.487387 0)
(-0.02669739 1.411776 -7.387152e-19)
(4.977382 -2.921412 0)
(3.872657 -2.55661 -1.436791e-18)
(4.051017 -2.044332 -5.83896e-18)
(4.293371 -1.921304 0)
(3.428857 -1.736921 0)
(1.423533 -1.240849 1.063123e-20)
(-0.7039999 -0.2192734 -6.050478e-18)
(-2.484133 1.246928 6.560175e-18)
(-1.891538 1.47139 8.330387e-18)
(9.949537 -0.5349365 -1.502293e-18)
(16.0621 -0.9038221 1.675106e-18)
(18.04414 -0.3037718 -8.457982e-19)
(18.80032 0.1940781 0)
(18.48988 0.6668724 0)
(18.45273 1.301143 -2.005503e-18)
(18.45417 2.017841 -2.108171e-18)
(18.39979 2.745249 -4.157759e-18)
(18.27103 3.468086 4.135177e-18)
(18.07992 4.183868 9.758824e-20)
(17.82778 4.869489 -6.485915e-20)
(17.50669 5.5301 0)
(17.11763 6.150097 0)
(16.67332 6.740357 7.600887e-18)
(16.18689 7.300851 -7.342904e-18)
(15.65384 7.812512 0)
(15.06952 8.275162 0)
(14.44214 8.681704 9.571746e-20)
(13.77682 9.035496 -6.065578e-18)
(13.08326 9.32969 0)
(12.36476 9.561318 -4.958297e-18)
(11.62948 9.742895 -4.486302e-18)
(10.88639 9.868327 -3.941371e-18)
(10.1318 9.922446 3.475784e-18)
(9.366299 9.910511 -4.23065e-20)
(8.603699 9.843745 2.454832e-18)
(7.85283 9.722954 0)
(7.116148 9.538662 -1.398657e-18)
(6.393473 9.291056 -9.020266e-21)
(5.688424 8.988253 8.362988e-21)
(5.012643 8.621925 -2.360742e-19)
(4.36065 8.201717 0)
(3.745617 7.731048 -1.260119e-18)
(3.167859 7.215827 -1.51809e-20)
(2.634331 6.65855 2.190748e-18)
(2.145826 6.062292 1.31633e-18)
(1.706899 5.428138 -1.517318e-18)
(1.31782 4.760839 -1.705464e-18)
(0.9827842 4.071654 1.87035e-18)
(0.7000925 3.370668 -2.025995e-18)
(0.4837803 2.650112 -1.049165e-18)
(0.3160419 1.920891 2.231767e-18)
(0.2106704 1.187359 1.172859e-18)
(0.1812496 0.4158143 2.399798e-21)
(0.2054199 -0.4129395 6.049434e-19)
(0.2709467 -1.229733 -9.076719e-21)
(0.4098626 -1.996047 0)
(0.609533 -2.734857 -1.595649e-20)
(0.8633099 -3.454023 -1.394332e-20)
(1.173341 -4.149168 -1.760389e-18)
(1.533885 -4.813875 3.278089e-18)
(1.951036 -5.446511 -1.457015e-18)
(2.411272 -6.0491 2.433907e-18)
(2.915694 -6.605499 1.757834e-20)
(3.465543 -7.117211 0)
(4.05071 -7.590377 1.12452e-18)
(4.67086 -8.010544 5.634407e-21)
(5.32648 -8.379259 -1.312827e-19)
(6.005763 -8.703381 0)
(6.70244 -8.964745 9.252879e-19)
(7.415053 -9.157753 0)
(8.140272 -9.295481 -4.577929e-20)
(8.871897 -9.376379 2.479218e-18)
(9.609916 -9.393889 0)
(10.34435 -9.357067 -3.54936e-18)
(11.06748 -9.259018 -4.049159e-18)
(11.7714 -9.096351 -4.519315e-18)
(12.45134 -8.871449 0)
(13.11139 -8.589252 -1.080299e-17)
(13.74452 -8.257543 8.678662e-20)
(14.34407 -7.868868 0)
(14.9023 -7.430552 0)
(15.41544 -6.943819 0)
(15.88333 -6.414275 7.012808e-18)
(16.29789 -5.853059 -7.261716e-18)
(16.65221 -5.255012 0)
(16.93734 -4.624069 0)
(17.16257 -3.964229 3.792525e-18)
(17.3262 -3.287066 3.016785e-20)
(17.42546 -2.606404 0)
(17.46963 -1.939177 0)
(17.61262 -1.377414 -1.763927e-18)
(18.00511 -1.010168 2.043472e-19)
(16.96803 -0.5251851 0)
(14.83956 0.2735679 9.007612e-19)
(12.69271 0.9821956 2.098084e-20)
(10.15483 1.433938 6.102963e-21)
(4.370921 0.4171309 -2.278953e-20)
(-3.594857 -2.148879 3.560105e-18)
(-5.982857 -2.597136 5.589819e-18)
(-5.30673 -1.494989 9.572284e-20)
(-3.435341 -0.5111602 5.018238e-20)
(-0.9517438 0.212604 5.190915e-18)
(0.423656 0.4520404 4.044325e-18)
(0.5149669 0.4106295 0)
(0.5945358 0.6721054 2.832239e-18)
(1.090747 1.330361 0)
(2.654617 2.34731 -2.061311e-20)
(3.505289 2.227183 -1.423799e-18)
(0.4389215 -0.4072651 4.012912e-20)
(-0.7146604 -0.9674415 -4.271961e-20)
(-1.025925 -1.024217 4.172479e-18)
(-1.037148 -1.092424 -4.658151e-18)
(-1.017205 -1.152558 -4.724221e-18)
(-1.081067 -1.23225 -4.523723e-18)
(-0.963633 -0.9487635 -3.906458e-18)
(-0.2492392 0.1684852 0)
(0.5466598 1.319522 -2.453603e-21)
(1.149766 2.290806 0)
(1.52456 2.932485 -3.593431e-18)
(1.718085 3.258339 3.546778e-18)
(1.767796 3.287244 0)
(1.357221 2.788316 0)
(0.947843 2.583455 6.516037e-18)
(0.7459858 2.551981 -1.523216e-18)
(0.6408635 2.637143 2.908761e-18)
(0.5428933 2.787948 -1.065279e-20)
(0.4414563 3.020366 1.054748e-20)
(0.3412573 3.407525 0)
(0.2414348 3.974886 -6.19953e-19)
(0.1347655 4.643887 6.252333e-19)
(0.009041958 5.26523 1.599308e-19)
(-0.2276994 5.883674 -2.653071e-19)
(-0.3485031 6.087095 -7.711141e-21)
(-0.2518727 6.025188 7.39559e-21)
(0.02645845 6.062781 -1.130815e-20)
(0.2725621 3.454398 1.171812e-20)
(0.2118355 0.1613718 7.707659e-19)
(-0.2752993 -0.9840981 -9.645816e-21)
(-0.1675966 -1.195434 -6.663403e-19)
(1.166755 -0.5221648 2.152577e-20)
(3.57098 -5.302459 -1.654626e-18)
(3.009136 -5.653684 -2.952626e-22)
(2.774806 -5.783157 0)
(2.618091 -5.177548 0)
(2.607611 -4.575904 -1.297657e-18)
(2.948389 -4.538329 -9.730973e-19)
(3.218294 -4.678718 -1.596778e-18)
(2.416004 -3.867564 -5.537284e-19)
(0.7675011 -2.284357 0)
(-0.794259 -0.5595677 0)
(-2.214869 1.077133 -3.404285e-18)
(-3.721969 2.452346 -5.821419e-18)
(-4.942083 3.600801 7.568356e-20)
(-5.527445 4.232309 -1.621159e-19)
(-5.152854 4.294268 -1.029386e-17)
(-3.382666 4.112439 -3.232163e-18)
(-0.5386168 2.510256 5.922911e-19)
(4.918673 -2.483262 -1.163128e-19)
(5.993344 -3.513207 1.129493e-18)
(7.202007 -3.369098 2.356312e-18)
(7.807563 -3.36454 0)
(7.248671 -3.338196 -7.031814e-20)
(5.871105 -3.046221 -5.437574e-18)
(3.934466 -1.966936 4.13101e-20)
(1.614747 0.05337345 7.553851e-20)
(3.939704 1.134293 -3.108169e-18)
(15.41919 -0.4535479 -1.088773e-18)
(18.4806 -0.9302319 -2.856539e-20)
(18.41864 -0.4938488 -6.836994e-19)
(18.2762 -0.05197709 -3.561558e-19)
(18.26991 0.3144445 -2.970844e-21)
(18.48299 0.8631249 0)
(18.58355 1.512725 -2.642661e-20)
(18.58378 2.201536 1.747096e-18)
(18.48336 2.904197 -6.835411e-18)
(18.3086 3.615157 5.267407e-20)
(18.06349 4.308613 -3.37622e-18)
(17.74653 4.9806 -1.014974e-19)
(17.36343 5.613205 -6.370762e-18)
(16.92236 6.220448 -2.686389e-21)
(16.4381 6.803587 6.057075e-18)
(15.90847 7.335032 -5.70081e-18)
(15.32648 7.820543 0)
(14.70064 8.249288 7.739962e-20)
(14.03485 8.62766 -7.787989e-20)
(13.33852 8.948226 0)
(12.61516 9.207234 4.085138e-18)
(11.87384 9.415903 7.442642e-20)
(11.12325 9.568408 3.295391e-18)
(10.36106 9.648382 -2.79803e-18)
(9.589473 9.658595 -2.367471e-18)
(8.816818 9.615567 -1.985335e-18)
(8.056605 9.516874 -1.507824e-18)
(7.310999 9.352778 1.355368e-20)
(6.578163 9.124398 -1.368532e-20)
(5.862459 8.840116 0)
(5.175648 8.491017 1.946831e-19)
(4.512123 8.086813 -1.306654e-20)
(3.886363 7.630226 1.048582e-18)
(3.298089 7.127669 1.422237e-18)
(2.75652 6.580958 -1.790501e-18)
(2.259947 5.994181 -1.08072e-18)
(1.813532 5.368307 -4.997045e-21)
(1.417183 4.708279 1.39959e-18)
(1.077801 4.024554 2.479167e-20)
(0.789642 3.3289 1.624293e-18)
(0.5724756 2.612 1.389451e-20)
(0.4029268 1.886652 -9.329968e-19)
(0.2979763 1.159788 -4.780798e-19)
(0.2768838 0.3984855 -5.989559e-23)
(0.3044785 -0.4066411 4.797519e-19)
(0.364302 -1.212499 7.435133e-21)
(0.5001144 -1.972301 -9.051006e-19)
(0.7005773 -2.705277 1.72087e-18)
(0.9556994 -3.417378 0)
(1.268282 -4.104155 -2.510304e-21)
(1.631579 -4.75974 -1.348015e-18)
(2.054179 -5.382482 1.228689e-18)
(2.518276 -5.975485 -2.088697e-18)
(3.030964 -6.519269 2.376299e-20)
(3.590855 -7.01758 -2.354757e-20)
(4.181684 -7.478962 -9.242236e-19)
(4.810919 -7.884002 0)
(5.479858 -8.234868 1.018677e-19)
(6.166941 -8.543757 9.707316e-21)
(6.872466 -8.787168 -4.927869e-20)
(7.595346 -8.960391 -1.118881e-18)
(8.329088 -9.078711 -1.628985e-18)
(9.068477 -9.139095 -1.947953e-20)
(9.813923 -9.13477 2.400833e-18)
(10.55652 -9.074171 -4.10041e-20)
(11.28548 -8.952917 -3.218587e-18)
(11.99472 -8.765339 0)
(12.6809 -8.513256 3.966592e-18)
(13.34457 -8.206297 4.386461e-18)
(13.97828 -7.852334 4.560088e-18)
(14.57738 -7.441439 -4.864606e-18)
(15.13347 -6.983153 5.21915e-18)
(15.64397 -6.476963 0)
(16.10898 -5.929095 -1.147837e-17)
(16.51983 -5.355355 1.198583e-17)
(16.86911 -4.745851 -1.419132e-19)
(17.15222 -4.106623 -3.075165e-18)
(17.36769 -3.447081 -3.11088e-18)
(17.50817 -2.783199 0)
(17.55499 -2.136854 1.580265e-18)
(17.50471 -1.532837 -1.545434e-18)
(17.34979 -1.040052 7.410204e-19)
(17.52711 -0.7667524 -1.77311e-19)
(17.97978 -0.3685616 -3.464775e-19)
(17.85885 0.4735077 1.093424e-20)
(16.91508 1.279454 -1.388554e-18)
(15.17152 1.623338 7.013474e-21)
(8.022682 0.284889 0)
(-1.287667 -2.168255 0)
(-2.019269 -1.749096 -1.54228e-19)
(-2.217435 -0.3392135 1.676131e-19)
(-0.596569 0.8787938 0)
(1.451009 1.50701 0)
(2.838987 1.665929 0)
(2.933945 1.58481 2.786945e-18)
(2.480533 1.68355 -4.540312e-18)
(2.017792 1.991555 1.418361e-18)
(2.278668 2.18958 -9.654558e-19)
(2.524271 1.214865 -3.998713e-20)
(0.1617898 -0.9932909 1.737573e-18)
(-0.7151747 -1.084354 2.703956e-18)
(-1.137881 -1.158785 5.681981e-20)
(-1.249481 -1.319244 3.460328e-21)
(-1.284549 -1.46134 -6.023303e-20)
(-1.34316 -1.52331 -5.447942e-20)
(-1.133875 -0.9884709 3.288966e-18)
(-0.3860216 0.2869516 0)
(0.4412813 1.439144 2.826156e-18)
(1.062626 2.379807 -2.862539e-18)
(1.481431 3.018519 2.951661e-18)
(1.680456 3.26996 0)
(1.770342 3.289608 0)
(1.526399 3.170888 -4.119103e-20)
(1.097154 2.983807 -2.657199e-18)
(0.814257 2.829817 1.294985e-18)
(0.6687785 2.840963 -1.197708e-18)
(0.5583454 2.979383 0)
(0.4422915 3.210908 0)
(0.3123494 3.589099 0)
(0.1799967 4.14641 -4.975412e-19)
(0.05558728 4.808166 -2.636408e-19)
(-0.07679355 5.43158 -2.618087e-19)
(-0.2580664 5.916469 1.087974e-19)
(-0.320683 6.189885 0)
(-0.232923 6.101997 -3.790554e-19)
(0.1070867 6.279678 0)
(0.2981489 5.240356 -5.807743e-19)
(0.134767 2.426613 0)
(-0.285395 -0.220061 0)
(0.2411783 -2.046305 -5.10594e-19)
(2.182503 -2.288606 -1.21019e-18)
(3.847087 -5.189972 1.379801e-18)
(2.945495 -5.420994 -1.831677e-18)
(2.702941 -5.688498 1.843882e-18)
(2.466832 -5.09664 0)
(2.387466 -4.296507 2.134591e-18)
(2.595278 -3.98185 8.114652e-19)
(2.807548 -4.174493 6.767792e-19)
(1.994834 -3.66315 -1.689862e-20)
(0.4668374 -2.427821 -1.542523e-20)
(-0.8004081 -1.023035 -6.49768e-19)
(-2.033614 0.472368 2.830742e-18)
(-3.417979 1.781892 2.399858e-18)
(-4.535583 3.005334 1.261718e-19)
(-4.991977 3.752183 4.50937e-18)
(-4.45933 4.014496 4.323845e-18)
(-2.170886 3.76821 2.681755e-18)
(-0.09136206 3.048789 0)
(5.389748 -2.049724 9.407143e-22)
(8.107689 -4.204577 0)
(9.889596 -4.341423 1.747018e-18)
(10.72439 -4.524048 2.269335e-18)
(10.64306 -4.72553 2.829111e-18)
(10.23261 -4.72641 -1.277688e-19)
(9.392084 -3.638731 8.796854e-20)
(8.225948 -1.025597 -7.806513e-18)
(11.50593 0.6660501 0)
(18.33628 -0.1911093 -8.802608e-19)
(17.98797 -0.7670446 -1.080189e-18)
(17.73995 -0.3966627 1.148748e-18)
(17.88356 0.148949 2.831676e-19)
(18.01851 0.6487267 0)
(18.19367 1.271584 6.618249e-19)
(18.27026 1.953348 0)
(18.25953 2.648009 0)
(18.1558 3.331649 2.8554e-18)
(17.97901 4.033612 -4.348361e-20)
(17.73727 4.700851 4.806382e-20)
(17.42402 5.345044 -2.662796e-18)
(17.0472 5.944422 5.350206e-18)
(16.61261 6.519508 -5.099957e-18)
(16.13811 7.07136 -4.914462e-18)
(15.62441 7.561414 2.276003e-19)
(15.05614 8.012994 -1.425689e-19)
(14.44772 8.405722 -1.25728e-19)
(13.79869 8.753604 -3.613524e-18)
(13.12181 9.045201 -3.678098e-18)
(12.4187 9.275478 -9.695471e-20)
(11.69525 9.461934 3.081896e-18)
(10.96741 9.591841 0)
(10.22988 9.649203 2.304219e-18)
(9.476887 9.643943 1.949093e-18)
(8.723763 9.587544 1.537633e-18)
(7.985423 9.477004 1.240762e-18)
(7.260841 9.303604 0)
(6.549027 9.066424 0)
(5.850863 8.778355 1.347625e-19)
(5.184483 8.424584 0)
(4.5356 8.020024 0)
(3.926061 7.563685 9.245386e-19)
(3.354875 7.0618 -1.471233e-20)
(2.823818 6.518753 -1.497298e-20)
(2.335413 5.935694 -2.9882e-20)
(1.897534 5.313477 2.086754e-18)
(1.510048 4.656877 0)
(1.180065 3.97624 0)
(0.8888566 3.287291 1.376225e-18)
(0.6765663 2.573301 6.950233e-19)
(0.5071989 1.850636 7.529941e-19)
(0.4026881 1.130371 -3.914539e-19)
(0.390232 0.3787919 0)
(0.4245864 -0.397006 -4.229518e-22)
(0.4783445 -1.192353 2.384364e-20)
(0.6031455 -1.946472 7.182761e-19)
(0.7981147 -2.671577 -1.410833e-18)
(1.049043 -3.374826 -4.016039e-20)
(1.357699 -4.053408 1.227933e-18)
(1.716497 -4.701257 3.628103e-20)
(2.1341 -5.31722 1.977159e-18)
(2.584989 -5.906536 -1.137964e-20)
(3.084479 -6.446539 -1.456442e-18)
(3.635624 -6.942035 3.917849e-20)
(4.212292 -7.404064 0)
(4.821522 -7.811716 4.742003e-19)
(5.476553 -8.164922 0)
(6.149463 -8.478732 0)
(6.832952 -8.731827 -5.925266e-19)
(7.536369 -8.914366 1.834789e-18)
(8.253252 -9.043026 4.501185e-20)
(8.972312 -9.117468 -9.333686e-20)
(9.698061 -9.128489 -1.971169e-18)
(10.42056 -9.087334 -2.261594e-18)
(11.12967 -8.987251 2.739227e-18)
(11.81792 -8.824844 -2.990576e-18)
(12.48283 -8.600956 -6.708745e-20)
(13.12961 -8.320199 0)
(13.74571 -7.99775 -3.947324e-18)
(14.32934 -7.618071 8.330617e-18)
(14.87106 -7.194258 -4.439289e-18)
(15.3682 -6.723566 0)
(15.82357 -6.210663 8.285386e-20)
(16.22664 -5.66966 -4.800842e-18)
(16.56997 -5.089466 -7.664329e-20)
(16.84968 -4.474755 1.233916e-19)
(17.06327 -3.833024 -7.958783e-20)
(17.20506 -3.185673 0)
(17.26325 -2.533053 -2.518736e-18)
(17.23686 -1.89788 1.202816e-18)
(17.12942 -1.324835 5.890189e-19)
(17.06471 -0.8799752 -9.06064e-21)
(17.33937 -0.3641664 2.846422e-19)
(17.55977 0.4869203 5.708929e-19)
(17.09398 1.251078 0)
(16.88033 1.390775 8.896563e-19)
(12.16126 0.01908244 -5.51752e-20)
(3.045607 -1.872673 2.349768e-18)
(1.339824 -0.8858284 0)
(1.552817 1.057592 0)
(2.767893 2.468986 0)
(4.192916 2.936445 4.37499e-20)
(5.269965 2.861297 2.460957e-18)
(5.319866 2.704592 -2.297958e-18)
(4.552 2.696616 1.902927e-18)
(3.304764 2.677537 -2.279581e-18)
(2.194781 2.026254 8.2941e-19)
(1.743578 0.2828842 0)
(0.2142229 -1.252344 -1.441058e-18)
(-0.6749973 -1.175435 -2.192175e-18)
(-1.200828 -1.291714 2.941964e-18)
(-1.456588 -1.591865 -9.352175e-20)
(-1.578941 -1.823662 -9.687023e-20)
(-1.557213 -1.708447 9.630872e-20)
(-1.214883 -0.8303068 0)
(-0.5501557 0.4559345 -2.384156e-18)
(0.3038294 1.567102 7.263179e-20)
(0.9497766 2.459842 4.615273e-18)
(1.411475 3.029122 -2.499457e-18)
(1.667926 3.279217 1.516298e-19)
(1.759091 3.246822 -2.378968e-18)
(1.53234 3.120664 0)
(1.106243 2.869202 -2.170574e-18)
(0.769935 2.611991 1.070066e-18)
(0.5885109 2.551593 -6.212853e-20)
(0.4643431 2.687462 1.003982e-18)
(0.3486295 2.986493 -4.236941e-20)
(0.2146668 3.45665 1.351713e-20)
(0.07440784 4.080952 4.154868e-19)
(-0.04077828 4.784362 -3.312657e-21)
(-0.1469201 5.437182 3.598085e-21)
(-0.3270311 5.888404 5.484376e-21)
(-0.3539309 6.190039 1.699973e-19)
(-0.2500278 6.213752 3.137199e-19)
(0.1279215 6.251379 -2.691278e-19)
(0.3670696 6.09164 4.724559e-19)
(0.2119433 4.261615 0)
(-0.1363164 1.094769 3.588151e-19)
(0.7034454 -2.355157 4.51709e-19)
(2.82711 -3.155366 9.830484e-19)
(3.88515 -4.780398 0)
(2.891768 -5.221733 0)
(2.559094 -5.543937 -1.521335e-18)
(2.268137 -5.008652 -3.210988e-20)
(2.09875 -4.038082 -8.404476e-19)
(2.125394 -3.330108 -6.408992e-19)
(2.234262 -3.434272 -5.223945e-19)
(1.4933 -3.306536 3.764593e-19)
(0.197375 -2.592237 -2.878702e-19)
(-0.7870428 -1.523385 5.061687e-19)
(-1.875429 -0.1195457 -1.147392e-18)
(-3.137348 1.054736 0)
(-4.183327 2.389244 0)
(-4.484642 3.277717 -3.860084e-18)
(-3.74117 3.773022 0)
(-1.15573 3.584072 -4.60932e-20)
(1.05475 3.191136 3.532272e-20)
(6.321152 -1.60458 8.72841e-20)
(9.746574 -4.447218 -9.887636e-21)
(11.63425 -4.802523 -2.010984e-20)
(12.62971 -5.177796 -1.816749e-18)
(13.10978 -5.577679 1.372994e-20)
(13.89176 -5.897641 1.629807e-18)
(14.93404 -5.006366 -8.475451e-20)
(15.53921 -2.139756 3.038611e-18)
(17.12193 0.1883903 -6.642185e-20)
(18.73731 -0.06199166 2.937985e-18)
(17.26986 -0.7399107 2.681769e-20)
(17.65072 -0.4354398 -6.884966e-21)
(17.87209 0.009995289 -4.845481e-19)
(18.04621 0.4283664 -3.979361e-21)
(18.22274 0.9787123 -5.457125e-19)
(18.30579 1.607857 -3.490622e-20)
(18.29744 2.275536 -1.081146e-18)
(18.19031 2.949443 2.229166e-18)
(18.01351 3.647689 -2.218511e-18)
(17.77855 4.310195 4.266653e-18)
(17.46798 4.975589 2.330729e-18)
(17.09325 5.590393 0)
(16.65735 6.184652 0)
(16.18333 6.75899 3.985192e-18)
(15.67057 7.268919 3.807036e-18)
(15.10257 7.739242 0)
(14.49707 8.144251 -1.010759e-19)
(13.84816 8.507054 3.276769e-18)
(13.16835 8.818873 2.931171e-18)
(12.46602 9.061844 2.590334e-18)
(11.74847 9.254485 -6.964584e-20)
(11.02246 9.397644 -2.004037e-18)
(10.28198 9.471954 5.206566e-20)
(9.533543 9.473228 -5.255305e-20)
(8.788671 9.421075 -1.298177e-18)
(8.053112 9.320648 9.703215e-19)
(7.324516 9.163196 0)
(6.620567 8.930891 0)
(5.924792 8.653441 -1.908655e-19)
(5.267011 8.306114 -8.766792e-21)
(4.62256 7.910524 -8.421543e-21)
(4.028296 7.45883 -7.131592e-19)
(3.464836 6.964388 -1.963137e-18)
(2.925932 6.43767 1.157533e-18)
(2.439529 5.865493 -1.440893e-18)
(2.006215 5.25204 -8.168874e-19)
(1.628121 4.60122 -2.819831e-20)
(1.305848 3.922611 0)
(1.006377 3.24416 -1.074378e-18)
(0.8055886 2.535023 -3.608233e-20)
(0.632365 1.813808 -6.264328e-19)
(0.5280428 1.100841 3.355452e-19)
(0.5247322 0.3577944 2.572352e-23)
(0.5660929 -0.3852171 -3.414165e-19)
(0.6061073 -1.17325 2.945456e-20)
(0.727737 -1.917793 -6.257385e-19)
(0.9162902 -2.629546 1.155419e-18)
(1.162151 -3.32229 -1.122639e-18)
(1.467036 -3.992215 2.369118e-21)
(1.821325 -4.630499 9.449533e-19)
(2.242887 -5.235446 -1.57363e-18)
(2.684599 -5.81925 1.386243e-18)
(3.17296 -6.354016 1.089767e-18)
(3.724807 -6.840782 7.585328e-21)
(4.30837 -7.29075 8.011506e-21)
(4.90931 -7.692198 -3.727605e-19)
(5.54752 -8.047047 1.455905e-19)
(6.220215 -8.352728 9.31957e-21)
(6.901969 -8.596448 4.116908e-19)
(7.597203 -8.77315 -1.45981e-18)
(8.306111 -8.898395 9.987759e-19)
(9.029649 -8.955936 -4.943118e-20)
(9.752264 -8.957737 -1.577882e-18)
(10.46709 -8.913044 3.717594e-18)
(11.17608 -8.800403 6.982287e-20)
(11.86123 -8.628273 2.320195e-18)
(12.52619 -8.389219 -2.722321e-18)
(13.17465 -8.092575 8.462391e-20)
(13.7896 -7.757644 -3.114365e-18)
(14.37377 -7.35994 -3.196293e-18)
(14.91483 -6.920451 1.10268e-19)
(15.41328 -6.427367 -3.682153e-18)
(15.86901 -5.893185 3.806743e-18)
(16.27182 -5.333474 0)
(16.61304 -4.736717 0)
(16.88899 -4.109748 2.0593e-18)
(17.10119 -3.473539 2.047191e-18)
(17.24501 -2.836012 0)
(17.30241 -2.213212 1.078097e-18)
(17.26924 -1.626653 9.746604e-19)
(17.16412 -1.123769 -4.950655e-19)
(17.05511 -0.7309227 1.134542e-19)
(17.0561 -0.279225 2.347068e-19)
(17.0717 0.4431137 -4.775469e-19)
(16.40958 1.125568 0)