/*--------------------------------*- C++ -*----------------------------------*\
| =========                 |                                                 |
| \\      /  F ield         | OpenFOAM: The Open Source CFD Toolbox           |
|  \\    /   O peration     | Version:  2406                                  |
|   \\  /    A nd           | Website:  www.openfoam.com                      |
|    \\/     M anipulation  |                                                 |
\*---------------------------------------------------------------------------*/
FoamFile
{
    version     2.0;
    format      ascii;
    arch        "LSB;label=32;scalar=64";
    class       volScalarField;
    location    "3.9";
    object      p;
}
// * * * * * * * * * * * * * * * * * * * * * * * * * * * * * * * * * * * * * //

dimensions      [0 2 -2 0 0 0 0];

internalField   nonuniform List<scalar> 
15536
(
-10.44927
-8.571889
-6.234648
-3.609995
-0.6193885
-3.96532
-12.22633
-8.12625
0.07182259
-3.106241
-2.461572
-1.383923
-1.428172
-3.808646
-9.529603
-14.25978
-14.90571
-8.672657
2.401093
4.883964
4.934895
7.302897
2.369896
-8.186812
-19.15355
-37.78754
-78.67101
-130.8824
-150.2878
-90.2074
-24.13935
-32.51218
-59.52152
-88.81968
-120.3267
-127.1824
-107.6334
-98.17764
-101.7522
-108.0783
-113.9228
-117.8149
-119.7108
-120.1743
-119.8623
-118.5612
-116.3789
-113.2021
-109.5628
-105.611
-100.9636
-95.72951
-89.86262
-83.62551
-76.95934
-69.9365
-62.91467
-55.80358
-48.33589
-40.70138
-33.20911
-25.87171
-18.56815
-11.35248
-4.368025
2.486723
9.040701
15.26457
21.05374
26.4142
31.30602
35.73281
39.65343
42.99127
45.71204
47.92203
49.50116
50.50997
51.0018
50.86787
49.93036
48.40718
46.33095
43.66699
40.44332
36.68211
32.44136
27.64195
22.43711
16.8752
10.81795
4.437868
-2.196599
-9.248927
-16.45792
-23.62734
-30.95751
-38.43212
-45.86777
-53.34659
-60.71203
-67.7791
-74.50279
-80.96206
-87.2715
-93.13501
-98.52398
-103.3932
-107.7487
-111.6433
-114.8134
-117.1703
-118.7259
-119.4435
-119.0511
-117.0853
-113.5925
-109.8266
-108.9402
-102.4466
-99.52026
-138.9784
-157.3051
-124.2034
-86.33253
-69.15814
-62.88306
-53.91793
-36.10225
-22.83685
-46.33559
-77.80176
-92.74212
-95.04422
-83.17184
-67.4211
-50.82477
-38.65887
-34.0932
-33.17568
-33.18748
-33.99299
-35.10161
-35.63154
-36.80509
-38.19303
-38.66134
-39.52974
-40.45305
-40.79291
-39.54285
-35.94322
-30.30521
-24.38071
-18.92545
-14.96491
-12.34729
-10.42987
-8.548093
-6.229413
-3.598327
-0.5989049
-3.932902
-12.24612
-8.200234
-0.0004220019
-3.125517
-2.460472
-1.379726
-1.433094
-3.838759
-9.551815
-14.22616
-14.88511
-8.672448
2.404433
4.949089
5.016782
7.289696
2.295795
-8.237583
-19.10092
-37.644
-78.47258
-130.7435
-150.6157
-90.32773
-23.98623
-32.81058
-59.70034
-88.89377
-120.4774
-127.1348
-107.4601
-98.14459
-101.4661
-107.3951
-112.877
-116.4806
-118.2337
-118.6235
-118.2758
-116.9588
-114.7786
-111.6139
-107.993
-104.0768
-99.46873
-94.28243
-88.4658
-82.28499
-75.6837
-68.72773
-61.77317
-54.7346
-47.34514
-39.78446
-32.36658
-25.1045
-17.87537
-10.73167
-3.814085
2.971108
9.456292
15.61712
21.34823
26.65333
31.49538
35.87795
39.75928
43.06552
45.75899
47.94791
49.51225
50.51044
50.99739
50.86349
49.93195
48.42243
46.3645
43.72413
40.52985
36.80381
32.6032
27.84941
22.69709
17.18835
11.18932
4.874875
-1.694723
-8.681461
-15.82134
-22.91965
-30.18007
-37.58168
-44.94476
-52.35246
-59.6485
-66.64689
-73.30592
-79.70871
-85.96612
-91.77888
-97.1255
-101.9561
-106.2809
-110.156
-113.3154
-115.6778
-117.2546
-118.0226
-117.7515
-116.0397
-112.8695
-109.4547
-108.7922
-102.3755
-99.45882
-138.8619
-157.3853
-124.2516
-86.30151
-69.13937
-62.91317
-54.00369
-36.20861
-22.73729
-46.40335
-77.99217
-92.65653
-94.92093
-83.11321
-67.39802
-50.83144
-38.66657
-34.07903
-33.15679
-33.17465
-33.98619
-35.09927
-35.62913
-36.80492
-38.19429
-38.65272
-39.50511
-40.41862
-40.74836
-39.48679
-35.88763
-30.27706
-24.38069
-18.93583
-14.97646
-12.34611
-10.4294
-8.568325
-6.261197
-3.565676
-0.5321255
-3.873095
-12.40131
-8.410388
-0.2052088
-3.194976
-2.522648
-1.429321
-1.465194
-3.912245
-9.635311
-14.26479
-14.97175
-8.870051
2.211387
4.891325
4.953681
7.19026
2.120717
-8.35134
-19.04681
-37.52768
-78.57463
-131.2558
-152.3502
-91.62179
-23.72201
-32.73639
-59.6898
-88.9715
-120.5959
-127.2211
-107.7919
-98.1925
-101.1495
-106.6489
-111.8287
-115.3948
-117.2418
-117.6593
-117.3477
-116.0586
-113.9134
-110.7652
-107.1587
-103.2739
-98.68009
-93.52177
-87.72832
-81.58617
-75.02777
-68.0885
-61.16405
-54.17085
-46.80895
-39.28051
-31.89663
-24.67607
-17.48673
-10.37391
-3.500913
3.25362
9.703169
15.83067
21.53004
26.80581
31.61788
35.97333
39.83011
43.11745
45.78934
47.96368
49.5168
50.50473
50.98585
50.85183
49.92679
48.4298
46.38559
43.76199
40.58851
36.88562
32.7117
27.98165
22.86001
17.38345
11.41234
5.13284
-1.400287
-8.357301
-15.46088
-22.51695
-29.74418
-37.11345
-44.43433
-51.81893
-59.082
-66.0521
-72.68477
-79.04827
-85.27959
-91.05778
-96.38263
-101.191
-105.4956
-109.3558
-112.4923
-114.8249
-116.3711
-117.1102
-116.7624
-115.038
-112.0664
-108.8407
-108.001
-101.8503
-99.768
-139.1799
-157.8244
-124.468
-86.42569
-69.1541
-62.89816
-53.99219
-36.21783
-22.50423
-46.99058
-78.83804
-92.7935
-95.02969
-83.13024
-67.42231
-50.87667
-38.69578
-34.04953
-33.12158
-33.14395
-33.97621
-35.10472
-35.64252
-36.82492
-38.21787
-38.64641
-39.48818
-40.40308
-40.73113
-39.47098
-35.87906
-30.2753
-24.40356
-18.96838
-15.00735
-12.36292
-10.43767
-8.576442
-6.318432
-3.594867
-0.5256863
-3.86468
-12.70438
-8.799966
-0.5747099
-3.306955
-2.678906
-1.564644
-1.563941
-4.052247
-9.808496
-14.38861
-15.16538
-9.307807
1.678634
4.634521
4.834503
7.04658
1.872405
-8.439849
-18.96697
-37.44213
-78.94987
-132.2919
-155.2465
-94.22953
-23.75355
-32.15048
-59.19701
-88.2822
-118.9633
-125.4741
-107.6405
-98.32841
-100.6903
-105.583
-110.3296
-113.6574
-115.3034
-115.6058
-115.2839
-113.9863
-111.8897
-108.7771
-105.199
-101.3742
-96.86105
-91.78763
-86.07455
-80.01173
-73.54437
-66.69814
-59.85874
-52.96152
-45.70906
-38.26518
-30.96733
-23.83989
-16.74228
-9.709065
-2.923735
3.754604
10.12851
16.19139
21.82581
27.04113
31.79972
36.10958
39.92609
43.18386
45.82298
47.97741
49.51574
50.49016
50.96388
50.82892
49.91084
48.4316
46.40626
43.80603
40.66335
36.99737
32.8689
28.18181
23.1194
17.70233
11.78937
5.587303
-0.8733531
-7.765567
-14.7774
-21.74666
-28.897
-36.17469
-43.40441
-50.7035
-57.87799
-64.75136
-71.28874
-77.57897
-83.73596
-89.42856
-94.68393
-99.41676
-103.6657
-107.4924
-110.5878
-112.8911
-114.4421
-115.2393
-115.0828
-113.5748
-110.9207
-107.92
-106.8726
-101.5242
-101.0269
-139.6707
-158.1832
-124.7724
-86.58746
-69.18618
-62.69321
-53.6611
-35.91371
-22.11246
-48.23888
-80.41682
-93.06569
-95.31402
-83.23984
-67.51075
-50.97914
-38.76192
-34.00257
-33.06776
-33.09435
-33.96261
-35.12192
-35.68383
-36.87917
-38.26164
-38.639
-39.47909
-40.40363
-40.7277
-39.46008
-35.89421
-30.30255
-24.45877
-19.03631
-15.0597
-12.39904
-10.47151
-8.615055
-6.421869
-3.749167
-0.6861985
-4.000402
-13.14087
-9.361101
-1.006003
-3.333499
-2.904
-1.831335
-1.734211
-4.33003
-10.12289
-14.64137
-15.53244
-10.02202
0.7573917
4.203314
4.892107
6.998931
1.680955
-8.449773
-18.87863
-37.42651
-79.55299
-133.974
-159.0905
-97.58448
-25.19295
-31.90017
-58.4934
-86.43507
-113.9521
-120.4171
-106.1283
-98.30802
-100.1168
-104.4863
-108.8903
-112.1198
-113.8411
-114.1601
-113.8547
-112.5401
-110.4695
-107.3593
-103.7464
-99.98662
-95.46805
-90.43574
-84.73799
-78.7266
-72.32878
-65.5075
-58.72037
-51.91246
-44.72718
-37.333
-30.10123
-23.06113
-16.04101
-9.06444
-2.364265
4.254324
10.55905
16.5582
22.12426
27.28444
31.98958
36.2522
40.02061
43.24629
45.84979
47.98152
49.50347
50.46136
50.92546
50.78697
49.87634
48.4235
46.42349
43.84994
40.74106
37.11261
33.03181
28.38677
23.39086
18.0301
12.16197
6.044092
-0.3429167
-7.197667
-14.12923
-21.01268
-28.10717
-35.32103
-42.46366
-49.71596
-56.83449
-63.64796
-70.13274
-76.36734
-82.49805
-88.1393
-93.37779
-98.08411
-102.3158
-106.1712
-109.2301
-111.5446
-113.0953
-113.8884
-113.6441
-112.1845
-109.7251
-106.8959
-105.7905
-101.8742
-103.0435
-138.862
-156.2483
-123.9507
-86.55301
-69.24378
-62.29017
-52.70512
-35.21051
-21.87763
-50.08816
-82.71703
-93.59805
-95.94682
-83.48597
-67.69077
-51.16507
-38.88436
-33.93828
-32.98869
-33.02684
-33.95022
-35.15836
-35.7683
-36.98557
-38.33475
-38.63964
-39.48663
-40.4317
-40.75776
-39.4938
-35.96246
-30.37443
-24.56003
-19.14902
-15.16674
-12.4766
-10.5464
-8.682171
-6.576499
-4.051051
-1.106927
-4.352723
-13.68181
-10.06257
-1.322886
-3.02315
-3.105763
-2.276025
-1.954431
-4.806775
-10.67248
-15.0811
-16.1536
-11.09378
-0.5754111
3.760384
5.3448
7.25293
1.68076
-8.33369
-18.80201
-37.54363
-80.33795
-136.2201
-163.4605
-101.3412
-29.55996
-33.27842
-58.63254
-84.39047
-108.4524
-114.4123
-103.81
-97.8276
-99.16597
-102.9608
-106.8722
-109.8257
-111.3842
-111.409
-111.1242
-109.8725
-107.9308
-104.8725
-101.2946
-97.69173
-93.26264
-88.36149
-82.75697
-76.83878
-70.5562
-63.82008
-57.15057
-50.4808
-43.39585
-36.09236
-28.9796
-22.05116
-15.13946
-8.244397
-1.667038
4.873475
11.07874
16.97911
22.4694
27.57344
32.21068
36.41132
40.11219
43.30852
45.86802
47.96771
49.47401
50.41079
50.86162
50.71774
49.82075
48.39575
46.42981
43.89031
40.82312
37.2417
33.21254
28.61057
23.71029
18.42769
12.59527
6.577752
0.3210642
-6.478759
-13.317
-20.06907
-27.06348
-34.19239
-41.21895
-48.37145
-55.38778
-62.09487
-68.4588
-74.59381
-80.65579
-86.17074
-91.32979
-95.92703
-100.0698
-103.8408
-106.8241
-109.0391
-110.5338
-111.4543
-111.4332
-110.2039
-108.0807
-105.5639
-104.5468
-102.2319
-104.4007
-134.3825
-148.3986
-120.5839
-86.02012
-69.2823
-61.79601
-51.73279
-34.48138
-22.39371
-52.69082
-85.75487
-94.45627
-97.03749
-83.93377
-67.97953
-51.46725
-39.07559
-33.85188
-32.8682
-32.93535
-33.94204
-35.2276
-35.92061
-37.17069
-38.45275
-38.64995
-39.52298
-40.50254
-40.83916
-39.58904
-36.10459
-30.50574
-24.74083
-19.34932
-15.36571
-12.62419
-10.68312
-8.812751
-6.779905
-4.499627
-1.825985
-4.981831
-14.32044
-10.85763
-1.474369
-2.223815
-3.17049
-2.889054
-2.324703
-5.495465
-11.5731
-15.80367
-17.12562
-12.61491
-2.297066
3.506701
6.347735
7.914684
1.987336
-8.026718
-18.87095
-37.68412
-81.59338
-138.6108
-166.9807
-105.9864
-36.65591
-36.74947
-59.27019
-82.226
-103.2019
-108.8807
-101.3772
-97.00867
-98.06609
-101.4027
-104.8932
-107.6499
-109.2466
-109.2926
-109.1481
-107.6165
-105.6985
-102.6319
-98.97581
-95.49573
-91.05393
-86.28002
-80.69976
-74.80287
-68.66509
-62.06149
-55.46049
-48.85994
-41.92776
-34.7679
-27.7413
-20.86441
-14.14605
-7.325779
-0.8972402
5.567045
11.63357
17.43727
22.91614
27.90434
32.43969
36.55548
40.19236
43.41004
45.87524
47.93458
49.42502
50.33185
50.76627
50.62763
49.7518
48.31868
46.38179
43.88834
40.87845
37.37995
33.42084
28.8406
24.04166
18.88897
13.1373
7.158799
1.005728
-5.632677
-12.39344
-19.04928
-25.92008
-32.87942
-39.86595
-46.93972
-53.79108
-60.43139
-66.65831
-72.70182
-78.73692
-84.13049
-89.27161
-93.77488
-97.91247
-101.755
-104.6887
-106.9797
-108.635
-109.4684
-109.4024
-108.262
-106.3898
-104.1381
-103.1941
-102.0589
-104.3429
-127.0056
-137.1695
-115.3014
-85.14978
-69.30253
-61.26693
-50.94867
-34.4978
-24.38364
-56.31092
-89.49144
-95.93253
-98.77449
-84.7704
-68.40958
-51.8204
-39.27874
-33.70328
-32.65315
-32.81137
-33.94004
-35.29507
-36.16643
-37.45792
-38.63763
-38.68024
-39.60949
-40.64482
-41.00185
-39.76655
-36.33607
-30.72373
-25.06885
-19.71865
-15.58615
-12.83196
-10.92605
-9.071
-7.265961
-5.186003
-2.842287
-5.970029
-14.62345
-11.26208
-1.334535
-0.844805
-3.152456
-3.971128
-3.338845
-6.398532
-12.88057
-17.07653
-18.56902
-14.71369
-4.457068
3.392176
7.887363
9.008495
2.663264
-7.403002
-19.24574
-37.40488
-83.05055
-139.0032
-167.5408
-110.2049
-45.19835
-42.07548
-60.28336
-79.77994
-97.8346
-103.5834
-98.76009
-95.65395
-96.38177
-99.22675
-102.184
-104.5577
-106.2537
-105.6876
-105.4955
-104.2947
-102.5042
-99.70768
-95.77942
-92.53782
-88.24733
-83.6776
-78.06354
-72.25682
-66.52098
-60.09808
-53.22663
-46.83182
-40.33557
-33.35232
-26.12962
-19.39919
-13.12228
-6.268897
-0.07664183
6.357638
12.1636
18.07048
23.53661
28.23707
32.63902
36.64207
40.27326
43.53285
45.82351
47.8948
49.3479
50.21836
50.64504
50.5238
49.62835
48.19523
46.25843
43.82219
40.87666
37.47516
33.69052
29.09586
24.36887
19.37845
13.9258
7.988139
1.600903
-4.735989
-11.16322
-17.94867
-24.74467
-31.25816
-38.10114
-45.4581
-51.85548
-58.50214
-64.55628
-70.41828
-76.45207
-81.59037
-86.77128
-91.02229
-95.02278
-98.90554
-101.6767
-103.8311
-105.1767
-106.3601
-106.5318
-105.6019
-104.0671
-102.1498
-101.4938
-101.1377
-103.3243
-119.8652
-126.5403
-109.272
-84.02759
-69.8738
-61.04219
-50.4111
-35.69132
-28.0878
-61.15053
-93.84408
-99.24067
-101.122
-85.86699
-68.94504
-51.67908
-39.19068
-33.32968
-32.31014
-32.58395
-33.96096
-35.51516
-36.53691
-37.87978
-38.89629
-38.75558
-39.77648
-40.87412
-41.27127
-40.04142
-36.72069
-31.1486
-25.59618
-20.22906
-15.66044
-13.05609
1.218013
0.7133852
-40.85195
-7.163532
9.77408
-6.797224
2.140113
0.2171588
7.804868
-1.198131
-3.432987
0.01936761
-0.0004650734
0.6613958
1.032314
1.763194
1.922388
-2.872942
0.5509952
-0.2471566
-33.9109
1.849745
1.125945
-1.379806
1.538561
1.440802
-0.9946724
-0.9929281
-6.462303
0.7215293
1.215007
-22.14801
1.91361
1.145715
0.519714
-4.575504
-5.646928
0.1460425
-11.12551
-5.718771
-21.12851
1.527073
0.6027191
2.815526
28.85086
1.259701
-1.017863
0.9924695
-19.87763
-0.8304979
-0.1735268
-16.96944
-46.41427
0.4959293
0.1678425
18.16943
-2.328431
1.361108
-12.69416
-16.9662
-1.021186
0.01162503
18.21043
1.252893
6.327886
1.613819
-35.29584
0.3773456
0.6471504
1.208411
0.06405687
-4.066051
-16.51993
-51.7794
21.23457
0.4736713
3.315283
-2.542223
0.8687853
0.6398234
-16.86215
0.1838577
2.283381
0.6219426
-9.602464
2.001523
1.762838
-0.4198441
-11.05318
-5.635557
-14.60211
22.78266
-6.434038
0.606175
1.704676
0.2558285
-18.06032
5.106717
-55.67406
1.822046
0.4998767
-0.3133663
0.4795876
-83.47103
0.1155052
-19.94675
-0.4613369
1.367186
-5.910515
-21.06553
-0.3635873
0.6284819
1.435935
6.53856
-25.69009
-0.6834433
0.2423174
0.8613588
21.64515
1.080163
2.545946
0.3814271
-0.2049942
1.580039
1.373088
12.63745
0.7084808
-37.11462
1.446364
1.431684
0.2310098
-12.3524
0.6124928
1.211035
-1.181281
-33.06241
0.1536434
4.161142
0.6998838
0.2746382
-39.4351
0.384234
-62.87758
0.7997629
-1.449864
-2.047021
-0.782681
-39.82343
0.4893375
0.1935048
1.895983
-21.8217
-19.9186
1.507269
-11.92144
-65.14998
0.7379897
0.6120542
0.5916983
-34.22636
1.033494
-34.4069
-3.15788
-1.526834
2.605387
-7.38152
-22.12083
1.347674
-36.38605
0.9316174
2.148946
-27.45058
1.151291
-44.42824
-6.010959
-6.080577
1.285508
1.659464
-18.77964
-1.753606
14.18728
-0.2039549
0.9583427
0.9265401
3.22809
-45.27263
-1.184501
0.420199
-20.41231
0.9773192
0.6063622
0.4962308
-7.442339
-1.611904
-3.50127
1.410097
1.413085
0.2299186
-3.766539
-33.40517
-0.5413888
-9.914848
0.9812972
-4.579694
-0.5910975
-1.43643
-7.383515
0.8735692
-9.03571
-2.31662
1.276851
-1.28386
-16.40712
-3.329116
0.4496047
-10.25806
-11.26574
-0.1429584
7.525609
0.5879733
2.20798
-9.173642
1.970647
-1.522523
-2.648672
-3.132799
0.2053865
7.042458
-1.387431
16.40657
-7.621784
-32.53998
1.565393
0.517651
-68.75897
0.6546001
22.36317
-18.38836
1.774965
0.07750651
1.080391
0.9790234
0.6291166
-13.33152
0.5096521
-7.46591
0.7510012
-48.96151
0.3661229
0.3466317
-33.224
0.7523234
-0.7667614
-0.1224455
2.145675
-27.06656
0.8902291
0.338388
-37.07204
-3.636703
-7.678044
0.1625182
-17.08177
-18.76671
0.03635327
1.337143
1.490156
0.4664592
-11.21711
-26.19002
0.4603841
0.6209238
11.44643
-0.2209147
0.2097803
2.341858
0.7483
-29.24378
-57.79678
0.8213633
0.3341532
0.7029084
-0.5029357
1.539008
1.934173
1.078279
36.70704
0.5573762
1.04113
1.455953
0.006910377
0.4557143
1.514534
0.6575016
-44.14358
0.3140784
-0.297629
0.08385004
2.556243
-0.007741564
-42.23185
1.34076
-14.11939
-8.912498
-0.2264531
0.2691753
1.379757
0.8759874
1.433638
1.718792
-5.781603
-1.217097
1.024488
2.066296
-0.0731667
-12.59861
33.21021
-56.50891
-1.762639
-77.4114
-0.5498254
0.9435686
-1.148031
0.9464079
0.1598106
-20.05984
0.7761503
0.1848345
0.9821559
2.415901
17.6037
-2.299178
-7.743569
-33.52385
0.6345084
0.8880056
1.13101
-0.3201553
-3.78017
-0.8203353
-52.65061
0.8007343
0.6326908
-0.7499579
-13.40144
3.779021
-12.00998
0.4665498
-11.10731
0.1273633
-1.361215
1.982844
11.76769
0.5372533
-0.5480197
-23.12093
-50.86188
0.4504305
0.9656987
1.40751
0.4018817
-11.34031
-0.699284
1.416979
-0.04498139
1.087572
0.6374173
1.385015
0.9018421
0.5209383
-3.099931
11.01302
-37.8049
0.8776367
1.124343
0.8562917
1.057889
2.094525
2.479304
0.04711036
1.701459
0.7359246
0.2395688
-16.62089
0.2212434
1.538765
1.489397
38.67493
1.376586
1.77642
-1.634435
1.090439
1.890294
-67.31877
0.3153196
-0.4661865
0.7355903
0.8669385
1.676732
0.9459807
1.206401
-0.3620967
-29.2543
-2.511779
1.725995
1.900886
-42.17484
-48.08243
0.7937819
1.955976
0.7356752
0.4025708
1.21696
0.1834447
1.068115
-0.2279863
1.74994
-12.05341
0.5067765
6.241987
-0.5155591
0.4902396
2.828444
0.9665243
0.4408231
-26.618
0.5381842
0.07047133
-44.10673
-20.32202
-48.73841
0.7942683
-0.7799574
0.9079161
2.397017
2.948761
0.7686009
-5.680883
0.4544882
-0.2313458
1.7362
1.010037
1.710485
0.8031928
-4.575707
1.306013
-1.971824
-4.128492
-5.285888
0.06114843
0.1563723
-62.85621
2.360269
-12.25982
0.8912977
1.538456
-3.47242
3.679556
1.183259
-18.72194
1.625167
-43.77326
-1.055125
0.9550439
2.905299
1.035129
26.55304
0.7840212
2.348277
-1.411924
-10.5186
-0.6504382
1.051309
6.602405
-1.899677
-13.689
-16.57425
-39.69873
1.102431
1.033605
-9.101445
1.609694
1.626616
1.028351
2.018442
0.8828593
-5.543289
15.13033
0.1416193
0.5397077
1.509408
-24.30142
-2.604107
-3.23227
-19.43853
0.8477749
1.043637
3.148777
0.7206823
2.838207
1.161398
1.149367
0.3272805
-4.827675
1.675017
1.180797
0.1050383
-1.971006
-13.77775
-8.717985
-24.34637
1.249669
10.57439
-1.974115
2.620625
1.758108
2.525167
1.147746
0.6792399
0.7094751
0.9847239
0.6563206
-2.956088
1.991339
1.659178
-0.08254821
0.3320561
0.6972393
0.4958034
0.6271273
-26.1119
-3.791757
-25.49901
0.262083
3.20265
3.689496
2.641482
0.4114337
1.526157
0.42927
3.834355
1.401876
0.307672
2.130986
-55.07189
1.694066
3.108333
1.934688
-2.687071
7.260481
1.666967
7.198097
0.9503368
-3.180367
-6.846537
1.173579
-0.4497157
-13.88508
14.68113
-9.841395
0.4228086
-2.301676
1.439531
1.552727
0.3056887
1.245326
0.3390805
4.267853
27.76963
-5.662181
1.192247
2.61688
3.604012
-58.80127
0.5476138
1.932547
1.820158
1.674596
0.8830644
1.565198
1.612175
1.423528
4.805651
0.1551886
-9.909563
-22.19204
1.764353
0.4136122
-76.93323
-3.979553
-0.4138357
-16.10788
0.9829483
0.1495911
1.182996
0.4471546
0.9096962
-60.73233
1.435754
1.348639
1.228308
3.113568
-1.686959
0.4736869
2.040893
-19.23587
-10.36975
1.20583
-23.45472
2.11273
4.052192
0.9990907
-22.64091
1.259404
7.533505
-3.803845
-0.05012998
-2.095337
-7.352343
2.781784
2.785874
1.128822
0.5488469
-2.987363
1.823243
16.76592
1.921334
0.5419311
1.023713
-2.086274
-1.27053
-10.53994
-14.56555
-19.09867
-44.7892
-8.50172
-5.987671
0.1259217
-0.4997858
1.422532
1.172622
-0.3269072
0.7177798
-8.863296
1.340561
0.6295399
0.9801105
-41.79786
-1.904506
24.28499
3.100706
-37.23808
-6.77952
-13.0965
6.151215
-2.759982
-20.53663
0.5794282
0.2704391
-12.27639
-0.8538566
-0.7159359
0.3759297
1.900343
1.362349
0.1108583
-12.22703
0.8638511
0.875272
-4.567088
1.057316
0.674967
-84.16994
-11.20982
0.7815588
1.734511
-2.660818
-12.92424
0.0926824
6.468178
13.32247
11.20024
1.408804
-12.84426
1.335985
-6.739589
0.8732363
-2.746783
1.935547
1.791978
-25.6226
-8.934283
-37.52883
1.181822
0.8505382
1.604251
-41.6272
1.383045
0.0907862
-1.016706
-0.7616475
-9.070413
-4.502392
-5.456313
3.426203
10.00333
0.7851095
1.057609
-23.48638
-5.67958
0.760927
0.4485451
2.437271
0.4511056
-4.984932
0.5711133
0.3452761
-49.68333
1.040527
-2.71613
0.824954
0.4190521
0.4676404
1.063202
1.260529
-0.08652655
1.174866
-25.45046
1.258313
1.057993
-0.1511822
0.129138
1.165381
1.041365
1.099469
1.123257
-1.963009
2.666542
-34.78959
-0.2854533
0.2960951
-0.5738893
0.8577398
0.732761
2.671312
1.077038
-49.62078
1.639462
5.354224
6.443716
-19.8456
-15.11253
-5.876215
-18.39668
0.298907
-15.00985
1.208197
-11.31146
-18.74836
-5.749605
-4.332313
-1.671095
1.050529
12.47408
1.210169
2.779973
-12.79258
2.012697
0.7419143
0.9658445
-9.164367
21.45755
-13.78905
1.386411
1.337034
-0.2738132
0.8094388
0.4927143
-7.340342
1.506029
2.103903
-1.30257
1.26207
-2.749774
4.638455
0.3464693
1.249578
2.370702
2.354354
0.3828693
-0.4229556
-20.93356
29.69903
2.23831
0.5130829
1.236363
1.017275
0.2452639
0.6472028
-32.07891
0.9696348
-51.05298
-9.532107
0.120207
-1.424254
0.5322091
-8.325978
0.506774
1.174892
0.7674313
1.289612
-10.46547
-57.65298
1.612092
-0.9832508
-1.428053
0.6750825
-0.5471582
1.217996
-41.08161
-3.173149
13.57166
0.8849569
1.084856
0.3559862
0.1056653
1.505285
-1.089939
0.8483276
-0.4528408
-23.66634
1.424755
7.634955
-34.98694
0.1424803
-3.620773
-14.48309
0.4609816
0.9492787
1.676644
-2.503708
-1.215593
-0.495422
1.88932
0.835537
1.158132
2.743238
0.0492737
-3.134638
30.68303
0.8376557
-2.008702
-18.09814
-69.87765
0.1501649
1.135513
0.7913288
0.5088563
32.5519
0.2328319
0.8344877
-2.574161
1.430468
-5.621174
0.9029065
0.8465894
0.9483376
-21.59736
-15.75686
0.7836557
-2.735909
-47.06724
0.4668732
-0.7844571
0.9744141
-12.2569
4.154445
29.95286
-4.363805
0.5967416
-0.4729553
0.07676532
-0.7909195
8.382062
-1.357557
1.001965
-2.890556
3.003087e-05
0.2593594
0.502961
0.5638275
-7.985928
-29.55041
-28.47092
2.127056
-6.61987
0.1005253
-0.3991168
1.634643
1.307981
-12.69843
1.006138
-1.33366
9.307452
-18.38487
4.305526
1.735309
1.327429
-12.35953
24.97632
-6.371984
0.4238838
-4.996036
-37.57675
0.5297769
0.4091695
1.848235
0.5651387
0.1974809
-25.6186
-4.359042
1.444069
-16.28864
-5.987627
0.1859223
-11.34211
-20.71061
-53.15087
1.969244
-43.20899
2.17191
0.1052264
-18.56703
1.227767
-1.380776
-32.98623
0.02672922
0.5753946
0.9428696
2.501404
0.5485256
-3.464475
-40.91336
2.656198
14.75179
0.4530846
-0.091674
-12.04141
18.56759
-24.66229
0.1778714
1.00814
2.599066
-5.449123
-3.754285
-3.579365
1.661632
1.275255
-0.8808544
-59.96612
-67.72709
2.027126
0.8237158
1.835932
0.5510039
0.3385549
2.054911
0.8767552
0.4786091
0.8678864
0.7873042
0.3821326
-1.043296
1.006685
-13.10126
0.5740673
1.534085
-47.34175
1.044082
0.8923075
-2.477786
-30.34086
-5.524588
-2.601827
2.848029
-14.00731
-37.87552
32.51103
46.3034
1.360852
-0.6069931
-1.354669
4.909243
1.028523
0.2574634
10.48002
-34.5768
1.197024
0.8880156
-0.6249122
1.585897
1.209244
4.826233
-1.692755
-24.26706
-55.20589
-0.2715219
0.9748963
1.672856
1.483796
1.165965
-40.63416
0.7528414
1.069766
1.495356
-0.9052138
-2.330555
-0.1265961
-36.07835
-21.5672
1.055913
2.01697
1.617684
1.301287
-3.333266
1.166038
0.2799137
-62.77359
0.3626442
-29.45406
-63.16287
-0.2197156
-0.5877572
-50.89037
-54.18663
-0.4526301
1.657153
1.674757
0.7027964
-1.174145
-9.246443
0.5644462
1.050388
0.852757
1.621277
1.068974
-1.530427
0.1855757
1.306378
-0.05940049
0.460933
0.4049367
-0.7216185
-1.143956
0.5487548
0.563636
-1.410084
-0.1412649
0.3749438
2.827297
0.04107852
0.5950083
-1.904101
0.1407545
-21.56004
-21.97109
-21.53022
0.9492722
0.9542311
0.2795198
0.8856683
-30.32935
-12.29974
-22.68596
-32.47249
22.67664
1.297916
2.464179
-9.858488
-22.4936
0.2382834
2.739622
-78.63099
0.7320494
0.4051048
-19.5817
1.968719
4.447621
-0.249195
0.5065603
-55.73273
1.399725
-4.483517
0.7867747
15.05008
35.46992
-12.84038
-7.480029
1.09684
1.276867
1.344839
7.187909
2.254794
6.78742
-1.174838
-8.179566
-8.663786
-5.164952
-2.625171
0.9309159
-21.36741
0.8580748
-52.13456
7.19991
2.040858
12.37436
0.8607718
29.54768
-3.268982
-0.8606022
1.05165
-1.482457
14.11268
-19.52523
-0.5104343
0.9636768
0.6192339
0.8577847
1.053098
0.4686628
-10.33139
-1.002392
0.5064927
-32.07915
1.035318
18.45584
12.36898
1.565834
-29.9745
-16.14731
-4.295387
-9.922439
38.13173
-0.1580737
0.8311633
-39.20593
-2.778274
0.8584387
-1.831741
-0.6901537
-20.87707
-80.06136
-20.66851
0.5029241
2.76425
2.428031
0.8027862
1.404066
0.6335464
4.279011
2.343174
0.5331412
0.5947685
0.8878519
-15.29121
-25.40843
1.546169
0.5186097
0.6575979
-47.97267
0.103486
1.032179
0.5225249
-1.233579
-29.18235
1.260681
0.1582171
0.900688
0.4228951
1.242251
-24.14995
0.743215
1.750674
-58.01873
26.25206
-2.483136
0.9348104
2.453943
-1.312355
1.459768
0.90137
0.6508076
0.6090202
1.462749
22.56719
0.6336045
-16.45087
0.6491935
-2.780866
0.4568754
2.307982
-0.4705371
0.7696698
-16.46907
-32.67939
-24.97051
-27.78945
0.5959652
2.225585
-0.3348131
-4.205628
0.9829455
-3.341493
0.5224858
0.8648484
0.5215504
-8.907624
0.5571619
-9.999587
2.074154
-56.961
0.6500702
-6.113476
0.9535678
-70.17028
0.9089525
-34.88802
0.8699858
1.001108
0.2948499
0.3926232
1.810014
-30.97201
-48.32318
0.4753969
0.6292333
22.69782
1.913581
1.995556
1.761966
1.556777
-0.9439185
0.7479698
0.8469874
-37.69163
1.045867
-5.0979
0.9193749
2.000403
-0.6821427
0.3202089
0.8217468
1.352707
-10.91192
0.4939937
-6.415192
8.636113
2.296306
-13.52742
0.9854628
1.142124
-1.258252
-25.27872
0.04621602
-0.9783501
0.108665
-19.14534
-50.4917
-43.93486
0.9326693
-23.13287
0.5549518
-5.0625
-3.095215
-0.1950469
15.52635
-0.6899131
-47.76742
-71.09801
-0.1659241
-0.1300053
-2.06116
0.2944184
-1.108769
-0.5646785
-2.702732
-12.33272
0.315947
-16.01767
-0.1213985
0.7606916
0.1105456
2.658098
-1.13933
1.296938
-6.81059
0.7855093
0.2807857
-14.38586
-0.5138827
1.4732
-0.2970506
1.114751
-35.49179
-0.1149465
-4.224514
-0.1511763
0.1405265
-4.335184
-18.96251
-5.296891
-0.151692
-6.099316
0.4281388
10.48408
-55.91692
-17.56504
0.08657994
-0.3280441
17.16093
-2.851122
0.9883156
1.38874
-2.168391
1.648866
-45.86643
-31.671
-20.27644
11.1734
7.781135
1.007377
-53.56013
-46.52292
-69.79138
1.665582
-5.652697
-1.103188
-0.9992966
0.4937812
0.6132507
0.6685269
1.287937
1.318045
1.879229
1.371039
0.6488485
-27.2544
0.8867337
0.07691173
-0.4628123
-2.88676
18.94737
0.2461708
10.08532
-35.36471
-12.60849
7.641526
-1.864231
-7.331346
-13.86787
-64.39287
0.3487736
-8.503981
0.7791975
-54.60796
-23.45766
-3.624122
2.231211
-2.421489
1.321733
13.58336
0.5457907
0.7421814
1.749768
0.5708448
1.944881
0.2758414
0.6425454
0.3511474
1.931276
-43.10214
0.2081095
1.289482
-20.38492
1.332718
1.356065
-15.44704
-9.602985
-44.62274
-0.6515877
0.8830222
23.67598
0.7592358
0.6936203
-4.079466
-1.350662
-34.1931
-0.8607051
0.69786
0.8851522
0.999125
-8.585707
-0.05104917
2.247725
1.051097
0.4235768
0.9178916
0.9805423
18.62939
1.690771
-18.98526
4.777753
-12.85133
0.8523363
-76.1733
0.858756
1.305929
2.328531
1.490522
1.066554
-54.43442
-62.11571
-41.98295
0.09674874
-19.14718
-46.30987
0.7745915
-14.81401
1.041048
0.6844504
-32.22619
-36.4977
0.844511
-66.31525
0.1003018
-3.977365
0.4527984
-10.99385
8.918962
0.4579393
-0.4141798
1.805036
1.739117
-0.5479521
15.19106
-0.5647618
0.2014138
0.6894069
-1.156951
0.4041577
1.386424
-8.088563
-0.8297241
1.392803
-6.698616
0.5856162
0.3841397
-55.66002
1.3347
-6.182199
-6.066529
-4.511921
1.061801
0.9300366
2.312871
0.007465346
0.4694309
-68.98624
26.2816
-7.071909
0.03028073
0.3321342
-32.35308
0.6325396
0.5157295
-7.056423
1.687992
0.04550042
0.4146388
0.3499097
-47.66999
-0.7912292
20.26016
32.63934
1.075419
3.136633
2.815807
2.457211
0.6555789
1.145642
32.20542
-56.40925
1.287966
0.9203998
1.504231
-11.92775
0.5930859
0.9413716
2.35639
0.1791756
2.306954
-52.76704
1.214594
0.9810299
-11.04904
22.79579
-13.71702
-2.862232
0.2494735
-74.97865
28.89291
-41.30764
0.06883908
-9.314807
-4.244101
0.5592817
1.279874
31.46497
-0.2727965
-0.1530989
-12.79426
-0.2137914
0.2916222
-2.885848
1.771162
-0.8302451
0.9759898
1.068797
18.81014
-5.356649
-0.404729
-7.657241
-2.857428
-0.2780586
19.0286
2.392324
6.08949
-50.65614
-19.8987
0.6786934
0.3569134
7.802698
-2.819209
-40.93579
-3.049663
-1.31734
0.1216557
-0.04115726
-13.75327
-14.11397
2.296821
-15.3538
-8.209322
0.1418506
0.9290833
-1.820009
-58.48596
-18.91415
-0.8633313
2.608481
0.08690002
0.7801833
3.053029
1.493326
1.34361
-0.6210495
-44.0795
-20.79487
-2.420138
-1.721285
-46.98736
0.9905592
1.199246
-11.00896
2.892082
1.223608
1.323788
35.49149
1.326343
0.8905665
0.6475649
0.9858001
-12.67104
-25.39697
-38.97866
12.89739
0.7774365
1.254996
1.253126
1.301628
0.3636419
0.366889
0.5414275
2.038771
-0.007212106
0.008032045
-0.04500017
-0.02166694
11.30381
7.439335
-2.397214
1.381654
-1.896327
-1.454376
1.256013
-9.498257
5.877536
-44.85436
-31.77498
1.146854
1.984628
-73.22962
41.49756
-85.83974
1.008027
0.889436
3.681072
-3.496199
8.198607
-24.25489
0.4422576
3.155916
0.01036667
2.17018
1.039462
-2.771104
-0.6842094
-73.9993
0.6541813
1.548362
-0.8463143
1.624495
-76.4174
2.803317
-38.66764
1.385506
14.18573
-3.720758
1.572065
1.485334
0.006017572
-42.90708
0.7992519
2.634708
29.0508
1.933718
1.523259
0.8472053
24.44172
2.037879
3.136513
2.294599
-18.42679
0.9760926
0.5573402
-78.095
0.5297927
-61.49818
1.579417
-1.958097
44.79958
-1.362747
0.6123641
0.5285586
2.45165
0.8556982
2.747949
-78.57885
42.57492
1.787686
-4.8907
45.06264
1.674048
1.084296
0.6655357
-22.92348
0.5763101
-14.85933
-4.515185
0.4003411
-12.12015
-51.41256
0.8641757
0.8774593
0.7826895
1.608926
15.40715
0.2963101
1.015797
1.45846
0.6115208
0.3013532
-0.02271874
0.1163982
0.7927104
0.9605888
1.547156
-22.6267
-70.68051
-22.59723
-27.04741
-65.26125
-1.280303
-2.350831
0.08213043
0.8217899
3.128015
-45.84529
-3.21306
26.5254
-19.11084
0.7018826
0.4190917
3.131562
-4.230841
-24.66947
1.972098
1.545109
-79.65898
2.610407
-0.3548796
-0.787805
0.7260151
1.402302
0.3115867
0.6901338
0.802959
0.2533696
1.134098
2.191437
-3.111637
0.115636
-0.9575299
0.2807675
-32.77962
-12.81364
0.7727809
0.1980197
0.5568594
-7.062804
-70.58836
2.100871
1.4359
0.6474569
0.7468234
7.36529
15.32902
0.5659778