/*--------------------------------*- C++ -*----------------------------------*\
| =========                 |                                                 |
| \\      /  F ield         | OpenFOAM: The Open Source CFD Toolbox           |
|  \\    /   O peration     | Version:  2406                                  |
|   \\  /    A nd           | Website:  www.openfoam.com                      |
|    \\/     M anipulation  |                                                 |
\*---------------------------------------------------------------------------*/
FoamFile
{
    version     2.0;
    format      ascii;
    arch        "LSB;label=32;scalar=64";
    class       volScalarField;
    location    "0.42";
    object      p;
}
// * * * * * * * * * * * * * * * * * * * * * * * * * * * * * * * * * * * * * //

dimensions      [0 2 -2 0 0 0 0];

internalField   nonuniform List<scalar> 
217010
(
-102.7459
-52.84142
-66.76283
-68.63352
-60.93909
-54.83241
-52.92569
-50.99243
-60.85035
-74.35982
-75.67767
-66.73484
-65.12307
-70.1891
-79.37953
-91.9319
-101.8268
-106.0748
-104.6224
-98.14913
-86.28841
-69.12951
-51.10118
-37.46909
-27.92097
-28.8847
-35.09561
-39.01467
-45.61815
-56.245
-55.43187
-46.20518
-39.62303
-36.44561
-32.48206
-32.33028
-36.73563
-40.93697
-44.3762
-52.09391
-63.15402
-72.98856
-80.35753
-85.30805
-88.10722
-89.09594
-89.63807
-93.41622
-100.3966
-130.0475
-68.63507
-67.78148
-62.52471
-59.94576
-58.0524
-58.37024
-61.78622
-66.20598
-65.29365
-57.54363
-53.19846
-54.21358
-55.27556
-55.47984
-54.85549
-54.09185
-53.59783
-53.17556
-52.70813
-52.17105
-51.55205
-50.86542
-50.12386
-49.34245
-48.52891
-47.68437
-46.80601
-45.91545
-45.03134
-44.14923
-43.2743
-42.42824
-41.60756
-40.79757
-40.01471
-39.26561
-38.57642
-37.93299
-37.34192
-36.82037
-36.34997
-35.95197
-35.63644
-35.39127
-35.21104
-35.10183
-35.08039
-35.13847
-35.2542
-35.48675
-35.81571
-36.22575
-36.67512
-37.16161
-37.66174
-38.18945
-38.74412
-39.32172
-39.9131
-40.52113
-41.13395
-41.77542
-42.40375
-43.02813
-43.64903
-44.23854
-44.79644
-45.37745
-45.89261
-46.34212
-46.76267
-47.12689
-47.42041
-47.64755
-47.81446
-47.86231
-47.78911
-47.59507
-47.30224
-46.87909
-46.31577
-45.66338
-44.97054
-44.15945
-42.96884
-41.45333
-40.32699
-39.70229
-38.06309
-35.05424
-31.67899
-28.74803
-26.1481
-23.17326
-19.23577
-15.00538
-14.88661
-15.34628
-9.088503
-24.71965
-9.586658
-13.45995
-12.39794
-12.69659
-13.27717
-13.85325
-14.33734
-15.03377
-16.60285
-19.96605
-25.58493
-33.63294
-43.83189
-57.28302
-73.75336
-89.99976
-105.2555
-118.8946
-129.7945
-136.8804
-139.4034
-136.5799
-127.4714
-111.3654
-90.83452
-75.10955
-69.92487
-71.81303
-74.86317
-78.38048
-87.31923
-87.61122
-79.81564
-74.68503
-62.48068
-47.91237
-47.2056
-65.46215
-85.2412
-95.55237
-95.77896
-88.30772
-80.44138
-78.03336
-76.42798
-72.0696
-73.49282
-78.4063
-72.23354
-122.7358
-58.72857
-51.59589
-41.99129
-36.37703
-31.46327
-27.36905
-23.79668
-20.52712
-17.67252
-15.05126
-12.65211
-10.44345
-8.350513
-6.363343
-4.492829
-2.751367
-1.112608
0.4700211
1.989442
3.447133
4.846904
6.18011
7.448864
8.699037
9.923524
11.12472
12.27915
13.37546
14.43801
15.48754
16.52729
17.55002
18.52735
19.47927
20.42635
21.35737
22.28076
23.19458
24.11339
24.99587
25.89779
26.75936
27.6161
28.46206
29.30602
30.13636
30.95381
31.77525
32.61308
33.45031
34.27061
35.07818
35.88535
36.71823
37.56486
38.40226
39.24398
40.09708
40.95554
41.82862
42.7045
43.57701
44.49014
45.49301
46.5297
47.54313
48.54531
49.59262
50.87649
52.4943
54.35624
54.42312
52.72645
51.3437
50.20822
49.22462
48.28126
47.31451
46.38503
45.556
44.77729
43.95585
43.11231
42.2934
41.51789
40.76208
40.00511
39.23867
38.4742
37.73362
37.00129
36.25554
35.5098
34.77457
34.02787
33.28744
32.53322
31.75162
30.98205
30.23174
29.47758
28.70235
27.88535
27.10488
26.29051
25.45834
24.62663
23.79134
22.92416
22.04353
21.16392
20.26671
19.32541
18.34142
17.35643
16.38017
15.37085
14.31335
13.22604
12.0942
10.92025
9.715806
8.470055
7.211146
5.873935
4.453821
2.986185
1.434161
-0.1846716
-1.918016
-3.782122
-5.75111
-7.845943
-10.16182
-12.69423
-15.56612
-18.68853
-22.23893
-26.54428
-31.31981
-39.55919
-44.59693
54.43685
52.96413
51.51552
50.34484
49.34444
48.39421
47.42174
46.48213
45.64194
44.85764
44.03461
43.18798
42.36343
41.58228
40.82258
40.06284
39.29381
38.52599
37.78215
37.04717
36.29923
35.55117
34.81369
34.06481
33.32279
32.56699
31.78339
31.01184
30.25941
29.50354
28.72687
27.90755
27.12749
26.31043
25.47658
24.64349
23.80693
22.93826
22.0564
21.17544
20.27706
19.33415
18.34854
17.36222
16.38487
15.37387
14.31491
13.22637
12.09273
10.91668
9.710066
8.46204
7.201775
5.860844
4.437453
2.966898
1.410507
-0.2117208
-1.950996
-3.821385
-5.795818
-7.897596
-10.22197
-12.7638
-15.65829
-18.79586
-22.37195
-26.70499
-31.57831
-39.76374
-45.92144
-60.19532
-51.86218
-42.29348
-36.56373
-31.61749
-27.49215
-23.90171
-20.60548
-17.74012
-15.11081
-12.70222
-10.487
-8.388237
-6.395195
-4.518901
-2.772522
-1.1307
0.4552031
1.977924
3.438497
4.840833
6.176833
7.4472
8.698936
9.925052
11.12799
12.28437
13.38208
14.44605
15.49707
16.53839
17.56271
18.54158
19.49477
20.44347
21.37594
22.30105
23.21677
24.13823
25.02099
25.92507
26.78838
27.6471
28.49492
29.34064
30.17284
30.99242
31.81646
32.65682
33.49622
34.31837
35.12842
35.93901
36.77546
37.62537
38.46584
39.31121
40.16826
41.0311
41.90823
42.78815
43.66724
44.59057
45.60308
46.64533
47.66224
48.67277
49.74332
51.07373
52.75709
54.38252
-10.10657
-13.25834
-12.4787
-12.76973
-13.31846
-13.85234
-14.31897
-14.97833
-16.44995
-19.68192
-25.16022
-33.08299
-43.16606
-56.4782
-72.88698
-89.18916
-104.5455
-118.3178
-129.3751
-136.6365
-139.3777
-136.7537
-127.8552
-111.9223
-91.30584
-75.34421
-69.933
-71.76889
-74.84413
-78.40403
-87.37367
-87.67386
-79.91897
-74.8142
-62.59296
-48.0278
-47.37792
-65.68792
-85.49391
-95.75775
-95.8783
-88.245
-80.34099
-77.97793
-76.37821
-72.06736
-73.6222
-78.38047
-73.40199
-113.7995
-71.046
-68.07275
-63.00076
-60.19677
-58.13533
-58.20654
-61.41884
-66.01089
-65.61153
-58.14673
-53.37804
-54.13111
-55.2025
-55.48388
-54.90728
-54.13926
-53.63383
-53.20983
-52.74352
-52.21002
-51.59433
-50.90856
-50.16669
-49.38504
-48.57086
-47.72564
-46.84568
-45.95248
-45.06595
-44.18163
-43.30377
-42.45501
-41.63216
-40.81858
-40.03382
-39.28205
-38.59047
-37.94501
-37.35154
-36.82828
-36.35613
-35.95639
-35.63957
-35.39346
-35.21249
-35.10268
-35.08076
-35.13872
-35.25435
-35.48706
-35.81636
-36.22701
-36.67693
-37.16431
-37.6651
-38.19399
-38.74982
-39.32865
-39.9212
-40.53051
-41.1445
-41.78782
-42.41674
-43.04259
-43.66458
-44.25361
-44.81187
-45.39657
-45.91009
-46.35874
-46.77956
-47.14212
-47.43355
-47.65893
-47.82271
-47.86542
-47.78722
-47.58822
-47.28988
-46.85864
-46.28668
-45.62715
-44.9248
-44.08864
-42.8646
-41.34268
-40.24252
-39.59805
-37.84173
-34.73263
-31.35045
-28.44163
-25.81349
-22.76759
-18.81467
-14.79161
-14.91124
-15.00395
-9.710754
-25.16426
-94.5297
-53.75309
-66.35415
-68.92582
-61.22951
-54.96219
-52.98005
-50.98445
-60.78277
-74.37182
-75.7594
-66.80802
-65.10683
-70.1641
-79.38874
-92.03763
-101.9244
-106.131
-104.6277
-98.1077
-86.18727
-68.9998
-50.99932
-37.39547
-27.90848
-28.99023
-35.27446
-39.19592
-45.86036
-56.3852
-55.29169
-45.96197
-39.44945
-36.28536
-32.38263
-32.42198
-37.01015
-41.27204
-44.84845
-52.87135
-64.02418
-73.708
-80.87277
-85.6223
-88.22864
-89.15587
-89.84468
-93.9107
-102.682
-123.2575
-85.11831
-54.10362
-65.85503
-69.18784
-61.57763
-55.13742
-53.07928
-51.05094
-60.84609
-74.63432
-75.9498
-66.57942
-65.0216
-70.20792
-79.70453
-92.394
-102.1358
-106.2741
-104.7466
-98.20095
-86.24101
-69.02616
-51.02804
-37.41516
-27.96744
-29.17829
-35.53178
-39.53093
-46.25823
-56.65019
-55.32154
-45.81941
-39.34812
-36.22608
-32.30176
-32.5594
-37.2697
-41.44263
-45.28361
-53.69523
-64.77971
-74.23098
-81.27126
-85.94493
-88.44999
-89.32315
-90.11206
-94.46541
-103.3975
-118.0452
-72.16354
-68.36564
-63.2456
-60.37772
-58.23053
-58.11189
-61.2152
-66.00918
-65.99945
-58.59765
-53.43668
-54.10752
-55.16517
-55.44125
-54.93377
-54.20358
-53.68495
-53.24605
-52.77053
-52.22643
-51.60798
-50.9236
-50.18255
-49.40102
-48.58698
-47.74258
-46.86306
-45.96911
-45.0819
-44.19744
-43.31872
-42.46901
-41.64469
-40.83225
-40.04547
-39.29222
-38.59969
-37.95377
-37.35882
-36.8349
-36.36189
-35.96093
-35.64331
-35.39666
-35.21524
-35.10472
-35.08214
-35.1402
-35.2556
-35.4885
-35.81806
-36.22925
-36.67907
-37.16716
-37.668
-38.19805
-38.75463
-39.33418
-39.92706
-40.53667
-41.15063
-41.79516
-42.42316
-43.04975
-43.67175
-44.25957
-44.82045
-45.40355
-45.9159
-46.36398
-46.78488
-47.14547
-47.43562
-47.66042
-47.82321
-47.86245
-47.78459
-47.58272
-47.28425
-46.85187
-46.28085
-45.6215
-44.90859
-44.05097
-42.82371
-41.32657
-40.24889
-39.56576
-37.78782
-34.67664
-31.28564
-28.37626
-25.77044
-22.70176
-18.60796
-14.6288
-14.90208
-14.90886
-10.38254
-25.57404
-10.31842
-13.20486
-12.58876
-12.92407
-13.36917
-13.85337
-14.3226
-14.96833
-16.38132
-19.52701
-24.91539
-32.77306
-42.79003
-56.05965
-72.51518
-88.88164
-104.3542
-118.2391
-129.4308
-136.8359
-139.6542
-137.0901
-128.4393
-112.8977
-92.36259
-75.80934
-69.9339
-71.69214
-74.88123
-78.53318
-87.53444
-87.84139
-80.36051
-75.16741
-62.89665
-48.33158
-47.74395
-66.03936
-85.7819
-95.95816
-96.10332
-88.38493
-80.38786
-77.98043
-76.38886
-72.1437
-73.75786
-78.40161
-73.80833
-103.828
-60.12874
-52.04066
-42.4303
-36.65781
-31.69045
-27.54863
-23.94448
-20.65308
-17.76678
-15.13608
-12.72297
-10.5055
-8.405402
-6.409477
-4.530658
-2.781294
-1.139918
0.4474724
1.971574
3.43354
4.836601
6.174748
7.444712
8.697358
9.924515
11.12862
12.28683
13.3845
14.44839
15.49974
16.54164
17.56756
18.5471
19.49921
20.4488
21.38147
22.30834
23.22468
24.1442
25.03098
25.93124
26.79613
27.65593
28.50374
29.35022
30.18288
31.00226
31.82597
32.66791
33.50908
34.33115
35.14122
35.95084
36.78845
37.64101
38.48173
39.32683
40.18596
41.04901
41.92702
42.80816
43.68804
44.61144
45.63055
46.67748
47.69195
48.70404
49.77935
51.13552
52.86355
54.35128
54.39561
53.0564
51.57118
50.3766
49.37303
48.42409
47.44638
46.50015
45.65989
44.87917
44.05409
43.20533
42.37771
41.59607
40.83618
40.07696
39.30649
38.53672
37.79347
37.05879
36.30943
35.56107
34.82407
34.0734
33.33316
32.57669
31.79031
31.01855
30.26655
29.51075
28.73145
27.91642
27.13283
26.3182
25.48235
24.64879
23.81227
22.9417
22.05964
21.17924
20.28138
19.33697
18.34951
17.36296
16.38662
15.37445
14.31483
13.22607
12.09069
10.91346
9.705702
8.45668
7.197732
5.85408
4.429123
2.95868
1.399167
-0.2225435
-1.965785
-3.838643
-5.814343
-7.918219
-10.24602
-12.80666
-15.69436
-18.84423
-22.43309
-26.78619
-31.69195
-39.90262
-45.85599
54.31639
53.19497
51.74087
50.51932
49.50071
48.54691
47.56335
46.61052
45.7619
44.9739
44.14437
43.29298
42.46104
41.67393
40.90953
40.14618
39.37264
38.59903
37.8532
37.11454
36.36176
35.61115
34.87174
34.11775
33.37674
32.61757
31.82731
31.05521
30.30101
29.54357
28.76126
27.94901
27.15645
26.3442
25.50467
24.66999
23.8327
22.95856
22.07581
21.19468
20.29619
19.34836
18.35803
17.37073
16.39503
15.37988
14.31869
13.22918
12.09059
10.9115
9.701715
8.450108
7.192672
5.842817
4.414258
2.943055
1.376763
-0.2452594
-1.996985
-3.876128
-5.855928
-7.965464
-10.30664
-12.87563
-15.77174
-18.94366
-22.55758
-26.93217
-31.9228
-40.01711
-45.92202
-60.25018
-52.19777
-42.69509
-36.82307
-31.83612
-27.66189
-24.0345
-20.72932
-17.83342
-15.19247
-12.76903
-10.54625
-8.441188
-6.438673
-4.554207
-2.798267
-1.156012
0.4352444
1.962651
3.427691
4.832545
6.174962
7.444236
8.698764
9.927989
11.13417
12.29613
13.39479
14.45946
15.51162
16.55495
17.58403
18.56618
19.51767
20.46959
21.40337
22.33385
23.25244
24.16952
25.06746
25.96438
26.83115
27.69343
28.54359
29.39177
30.22748
31.04933
31.8757
32.72005
33.56432
34.38886
35.20242
36.01567
36.85605
37.71336
38.55765
39.40681
40.27001
41.138
42.01992
42.9064
43.79412
44.72545
45.75168
46.80476
47.82149
48.84109
49.93841
51.3277
53.02416
54.28113
-10.49545
-13.28174
-12.79802
-13.14478
-13.49435
-13.90651
-14.36144
-14.98502
-16.3165
-19.34031
-24.59137
-32.32616
-42.23102
-55.39918
-71.81403
-88.16789
-103.7381
-117.7308
-129.0601
-136.5963
-139.5912
-137.4215
-129.1118
-114.1326
-94.11299
-76.83267
-70.02493
-71.52192
-75.02588
-78.77743
-87.60113
-88.04186
-81.25507
-75.78479
-63.45475
-48.93044
-48.46748
-66.68261
-86.33948
-96.42328
-96.52288
-88.77755
-80.64298
-77.95999
-76.31766
-72.26424
-74.05312
-78.42171
-74.923
-96.55257
-73.44383
-68.63621
-63.61572
-60.62994
-58.375
-58.00202
-60.88789
-65.78927
-66.31638
-59.2228
-53.77583
-54.14528
-55.1255
-55.39597
-54.95365
-54.27717
-53.75191
-53.29809
-52.82529
-52.28251
-51.66153
-50.97502
-50.23228
-49.44941
-48.63362
-47.78836
-46.90682
-46.00939
-45.11954
-44.23323
-43.35111
-42.49835
-41.67074
-40.85673
-40.06779
-39.31097
-38.61618
-37.96891
-37.37071
-36.84576
-36.3713
-35.96818
-35.64944
-35.40204
-35.22009
-35.10865
-35.08504
-35.1433
-35.25835
-35.49169
-35.82133
-36.23323
-36.68265
-37.1721
-37.67289
-38.20506
-38.763
-39.34412
-39.93821
-40.54925
-41.16352
-41.81121
-42.43838
-43.06739
-43.69093
-44.27776
-44.83962
-45.42611
-45.93723
-46.38482
-46.80756
-47.16597
-47.45442
-47.67865
-47.84209
-47.87557
-47.79253
-47.58295
-47.28267
-46.84685
-46.27411
-45.6139
-44.89001
-44.0091
-42.77901
-41.32203
-40.24342
-39.42965
-37.49719
-34.30926
-30.95818
-28.07832
-25.3773
-22.10763
-18.11369
-14.35905
-14.89056
-14.76126
-11.32252
-25.83983
-78.06474
-55.06244
-65.25023
-69.6559
-62.12469
-55.40404
-53.26444
-51.2289
-60.98052
-75.02399
-76.20232
-66.3707
-65.0065
-70.43259
-80.41153
-92.95333
-102.4557
-106.4882
-104.9315
-98.35202
-86.35314
-69.16145
-51.19313
-37.52879
-28.09727
-29.48702
-35.94415
-40.15345
-46.82673
-56.87562
-55.25741
-45.63554
-39.23539
-36.10971
-32.11465
-32.66874
-37.52328
-41.77303
-46.05977
-54.846
-65.75973
-74.95272
-81.79532
-86.20071
-88.6026
-89.49905
-90.49805
-95.28505
-104.8931
-113.1303
-73.39193
-56.25125
-64.7709
-70.38435
-62.81279
-55.78675
-53.57934
-51.59251
-61.23703
-75.52433
-76.56228
-66.2702
-65.20033
-71.04296
-81.45293
-93.74937
-102.994
-106.92
-105.3004
-98.66778
-86.62883
-69.51022
-51.55958
-37.77409
-28.39453
-29.97716
-36.54137
-41.06711
-47.47336
-56.86476
-55.01405
-45.42926
-39.19897
-35.97886
-31.75045
-32.66614
-37.70527
-42.33395
-47.39381
-56.39721
-66.9969
-75.89858
-82.53507
-86.81873
-88.95248
-89.83728
-91.06832
-96.26442
-105.2267
-106.7548
-74.19103
-68.82469
-63.96543
-60.93326
-58.6099
-57.96779
-60.54814
-65.50263
-66.53741
-60.02483
-54.45188
-54.3642
-55.1295
-55.35857
-54.97613
-54.35108
-53.82182
-53.34986
-52.86144
-52.31897
-51.70072
-51.01633
-50.2741
-49.4915
-48.67524
-47.83129
-46.94981
-46.04975
-45.15781
-44.27061
-43.38508
-42.5301
-41.70084
-40.88555
-40.09428
-39.33338
-38.63648
-37.98828
-37.38607
-36.86135
-36.38469
-35.97865
-35.6593
-35.41091
-35.22854
-35.11614
-35.09084
-35.14876
-35.26318
-35.49766
-35.82733
-36.24014
-36.68851
-37.17997
-37.68003
-38.21522
-38.77484
-39.35757
-39.95239
-40.56502
-41.17913
-41.83066
-42.45449
-43.08675
-43.71038
-44.29362
-44.85899
-45.4499
-45.95552
-46.40183
-46.82613
-47.17985
-47.46588
-47.68901
-47.85166
-47.87465
-47.78628
-47.5708
-47.27542
-46.83799
-46.26322
-45.6009
-44.86488
-43.96008
-42.73093
-41.32379
-40.21145
-39.19778
-37.18645
-34.11967
-30.83351
-27.90763
-25.10157
-21.79473
-17.74652
-14.16193
-14.93385
-14.68299
-12.40473
-25.286
-10.47725
-13.45254
-13.10203
-13.36917
-13.65867
-14.0115
-14.45778
-15.06697
-16.31269
-19.19792
-24.29357
-31.92745
-41.68073
-54.72931
-71.19004
-87.55442
-103.2851
-117.465
-129.0154
-136.7928
-140.1729
-138.1003
-130.1276
-115.7161
-96.54395
-78.86486
-70.39527
-71.30283
-75.33784
-79.04933
-87.13892
-88.06794
-82.54896
-76.71493
-64.33326
-49.964
-49.80641
-67.77746
-87.26984
-97.14583
-97.16372
-89.36326
-81.08284
-77.866
-76.03017
-72.34465
-74.53349
-78.51745
-76.14365
-91.66847
-60.35473
-52.25731
-42.92311
-36.97045
-31.97139
-27.76693
-24.12146
-20.80647
-17.88737
-15.24388
-12.81092
-10.58457
-8.477036
-6.468828
-4.578278
-2.81392
-1.173942
0.4200362
1.950217
3.4184
4.824782
6.173069
7.439491
8.695728
9.926272
11.13399
12.30096
13.39937
14.46288
15.51582
16.5608
17.59374
18.57755
19.52616
20.4809
21.41481
22.34863
23.26708
24.18078
25.08152
25.98083
26.84845
27.71249
28.56259
29.41222
30.24971
31.07172
31.89749
32.74456
33.59264
34.41736
35.23181
36.04461
36.88769
37.7509
38.59565
39.44498
40.31368
41.18373
42.06801
42.95774
43.84987
44.78521
45.82676
46.88927
47.89908
48.92485
50.04774
51.47703
53.13138
54.15629
54.18427
53.28333
51.87079
50.6167
49.57914
48.62677
47.63326
46.66532
45.81135
45.0276
44.19357
43.33818
42.49846
41.70871
40.94295
40.17977
39.40317
38.62494
37.88011
37.14151
36.38575
35.63414
34.89539
34.13677
33.39958
32.63879
31.84256
31.07026
30.31558
29.55868
28.77394
27.96036
27.16678
26.35789
25.51443
24.67947
23.84247
22.96441
22.08251
21.20259
20.30474
19.35255
18.35847
17.37214
16.39913
15.38009
14.31789
13.2289
12.08609
10.90513
9.69355
8.439661
7.187413
5.828569
4.396205
2.925917
1.352065
-0.2660385
-2.02846
-3.913168
-5.893948
-8.005733
-10.35828
-12.94652
-15.84488
-19.03552
-22.67198
-27.0665
-32.12178
-40.04274
-45.97723
53.98605
53.32023
52.01509
50.761
49.70497
48.75473
47.75518
46.78135
45.92588
45.14184
44.29911
43.44324
42.59709
41.80166
41.03048
40.26587
39.48515
38.69874
37.95217
37.20969
36.44856
35.69493
34.95561
34.18949
33.45616
32.69262
31.8881
31.11683
30.35992
29.60161
28.81024
28.00712
27.20339
26.39345
25.54514
24.71015
23.87092
22.98332
22.10069
21.22234
20.32831
19.36965
18.3662
17.37958
16.41324
15.38792
14.3231
13.23647
12.08756
10.9027
9.68583
8.427174
7.187396
5.816537
4.379869
2.908248
1.321748
-0.2866607
-2.066219
-3.959425
-5.944082
-8.054444
-10.42226
-13.03363
-15.9358
-19.14637
-22.80998
-27.21858
-32.32752
-40.02191
-46.11173
-60.515
-52.24878
-43.15021
-37.12452
-32.13584
-27.89609
-24.22856
-20.89792
-17.95458
-15.31234
-12.86291
-10.63061
-8.522446
-6.503991
-4.602358
-2.82748
-1.196504
0.4015615
1.937276
3.41205
4.82083
6.176783
7.437813
8.697274
9.929348
11.14218
12.31785
13.41317
14.47646
15.53407
16.58078
17.61624
18.60303
19.54828
20.50813
21.44156
22.3802
23.29944
24.21714
25.13402
26.02445
26.89191
27.75986
28.6126
29.46592
30.30655
31.12867
31.9572
32.81107
33.66586
34.4901
35.30765
36.12204
36.96852
37.84062
38.68743
39.54115
40.41677
41.28815
42.17527
43.07168
43.97255
44.90934
45.95903
47.02816
48.02879
49.0683
50.21514
51.63883
53.18331
53.96806
-10.2602
-13.66549
-13.50235
-13.74667
-13.92786
-14.19604
-14.62267
-15.23681
-16.39731
-19.10906
-24.00906
-31.54514
-41.15859
-54.01089
-70.50659
-86.86001
-102.752
-117.1564
-129.0025
-137.002
-140.5209
-138.8677
-131.4174
-117.6467
-99.58202
-82.04434
-71.52084
-71.27588
-75.87789
-79.2361
-85.78212
-87.70271
-84.15036
-78.02431
-65.73181
-51.53061
-51.94115
-69.45366
-88.6783
-98.30201
-98.13989
-90.13893
-81.65273
-77.58625
-75.3425
-72.394
-75.24583
-78.7042
-76.97299
-87.30977
-74.28223
-68.78911
-64.24184
-61.23818
-58.92218
-58.01641
-60.12134
-64.87384
-66.35772
-60.78967
-55.32424
-54.72786
-55.17371
-55.34258
-55.01227
-54.43889
-53.90907
-53.44573
-52.94086
-52.39066
-51.76864
-51.08346
-50.33863
-49.55434
-48.73568
-47.89254
-47.01022
-46.10435
-45.2076
-44.31922
-43.4298
-42.5732
-41.7415
-40.92244
-40.12823
-39.36184
-38.66255
-38.0135
-37.40767
-36.88371
-36.40196
-35.99298
-35.67335
-35.42416
-35.24213
-35.12967
-35.10204
-35.15819
-35.27082
-35.50696
-35.83763
-36.25131
-36.6977
-37.19222
-37.69092
-38.23084
-38.79272
-39.37793
-39.97171
-40.58553
-41.19997
-41.85938
-42.47622
-43.11596
-43.74112
-44.31672
-44.88582
-45.48684
-45.98376
-46.43136
-46.86033
-47.20711
-47.49219
-47.71649
-47.88209
-47.89219
-47.80288
-47.58183
-47.29713
-46.83641
-46.2581
-45.5916
-44.84292
-43.91366
-42.68064
-41.31318
-40.14441
-38.92758
-36.85226
-33.83984
-30.60006
-27.65496
-24.76257
-21.34933
-17.27391
-14.01714
-15.02617
-14.6059
-13.30141
-23.0797
-69.48767
-57.26456
-64.54991
-71.33918
-63.62521
-56.24601
-54.00964
-52.13385
-61.71472
-76.08653
-77.08651
-66.45317
-65.83077
-72.20983
-82.89178
-94.90335
-103.8562
-107.6003
-105.9184
-99.20989
-87.16126
-70.1939
-52.19393
-38.38156
-29.10262
-30.79277
-37.38823
-42.16026
-47.9662
-56.17136
-54.25025
-45.17633
-39.29273
-35.84289
-31.10185
-32.5776
-37.93266
-43.31636
-49.15737
-58.24607
-68.4893
-77.0307
-83.36865
-87.34639
-89.37516
-90.36702
-91.87559
-97.26116
-104.3779
-99.25711
-65.67663
-57.90964
-64.81811
-72.29636
-64.89992
-56.60142
-54.34676
-52.70554
-62.42531
-76.773
-77.71353
-67.0412
-67.21343
-74.02143
-84.85972
-96.62046
-105.2013
-108.7075
-106.9419
-100.1835
-88.25274
-71.48865
-53.23871
-39.78775
-30.44877
-31.93926
-38.44636
-43.34676
-48.13084
-54.63085
-52.88477
-44.95291
-39.57374
-35.64026
-30.24637
-32.74686
-38.64727
-44.75774
-51.25632
-60.38645
-70.33082
-78.51676
-84.58118
-88.24287
-89.99957
-91.16765
-92.82097
-97.74975
-101.914
-91.64861
-73.43177
-68.44815
-64.4012
-61.52159
-59.30595
-58.18387
-59.63817
-63.77643
-65.43945
-61.19652
-56.20869
-55.18313
-55.26224
-55.34868
-55.05662
-54.53264
-53.99882
-53.52594
-53.0147
-52.46364
-51.84045
-51.15492
-50.40787
-49.62533
-48.80554
-47.96448
-47.08164
-46.16667
-45.26634
-44.38133
-43.49046
-42.62996
-41.78973
-40.96791
-40.17515
-39.40249
-38.69848
-38.04853
-37.44409
-36.90885
-36.426
-36.01855
-35.69103
-35.44314
-35.262
-35.15026
-35.12181
-35.17693
-35.28398
-35.52062
-35.85392
-36.26862
-36.71047
-37.20916
-37.70375
-38.25277
-38.81388
-39.40868
-40.00131
-40.61465
-41.22388
-41.90096
-42.50373
-43.15164
-43.78477
-44.35196
-44.91569
-45.53345
-46.01523
-46.4639
-46.90233
-47.23632
-47.5177
-47.74339
-47.91561
-47.90398
-47.81393
-47.5781
-47.2972
-46.82785
-46.25308
-45.58063
-44.81925
-43.86902
-42.63134
-41.2885
-40.05352
-38.64296
-36.5029
-33.56346
-30.37278
-27.38765
-24.4028
-20.92129
-16.95011
-14.08001
-15.13183
-14.50336
-13.42625
-19.19136
-10.129
-13.9119
-13.92095
-14.2107
-14.3443
-14.48279
-14.85776
-15.51969
-16.60064
-19.11184
-23.72383
-30.92896
-40.74306
-53.39703
-69.60443
-86.04092
-102.2085
-116.8193
-129.1568
-137.5188
-141.4616
-140.1913
-133.2947
-120.1559
-103.1634
-86.23988
-74.13581
-71.97358
-76.96144
-79.54762
-83.45214
-86.88524
-86.07533
-79.9701
-68.01669
-53.74141
-54.45822
-71.82854
-90.64276
-99.83653
-99.52857
-91.09114
-82.30441
-77.07514
-74.21079
-72.47006
-76.03463
-78.90657
-77.1626
-82.84454
-60.58857
-52.10287
-43.33467
-37.25653
-32.32671
-28.02741
-24.32591
-20.98868
-18.03701
-15.39231
-12.90687
-10.68065
-8.577942
-6.536712
-4.626939
-2.853038
-1.23508
0.3822091
1.926582
3.41096
4.814585
6.173906
7.432237
8.693264
9.927176
11.15337
12.32626
13.4156
14.48681
15.54497
16.58081
17.61901
18.62255
19.56001
20.52531
21.45612
22.40292
23.32551
24.24546
25.14861
26.04316
26.91521
27.79123
28.64524
29.49744
30.33697
31.16516
31.99868
32.85125
33.70417
34.52843
35.35413
36.16969
37.01832
37.89924
38.75163
39.60449
40.48154
41.35735
42.25502
43.15908
44.07001
45.00166
46.06731
47.1612
48.15773
49.22267
50.37902
51.76201
53.16296
53.7082
53.70513
53.27193
52.13811
50.91807
49.83899
48.88019
47.85496
46.86593
46.00955
45.23081
44.36524
43.50645
42.65542
41.86408
41.08411
40.31584
39.53437
38.74575
38.00438
37.25601
36.48725
35.73349
34.99435
34.21756
33.49331
32.71856
31.9066
31.13888
30.38366
29.63067
28.82837
28.00565
27.21903
26.40479
25.55177
24.72816
23.89472
22.99641
22.11203
21.22743
20.33947
19.38359
18.37183
17.37439
16.41793
15.39099
14.31867
13.23494
12.0855
10.90119
9.676914
8.399407
7.176324
5.790801
4.364033
2.890729
1.278389
-0.3066027
-2.110429
-4.001497
-6.002337
-8.111821
-10.48944
-13.11883
-16.02532
-19.25697
-22.95026
-27.36199
-32.49539
-39.88168
-46.19029
53.35402
53.11009
52.2047
51.09431
50.04515
49.11637
48.04133
47.01222
46.17381
45.43418
44.56153
43.66798
42.77336
41.99084
41.22984
40.44391
39.62755
38.8206
38.10478
37.35554
36.56873
35.82088
35.08844
34.27988
33.61466
32.80231
31.96292
31.20833
30.42578
29.69953
28.88519
28.09363
27.31221
26.46564
25.565
24.74581
23.92126
23.02494
22.16175
21.26842
20.34176
19.38725
18.40988
17.4021
16.42099
15.41062
14.33743
13.21826
12.07137
10.90226
9.70475
8.409774
7.172319
5.729691
4.334968
2.891682
1.211629
-0.3316376
-2.201706
-4.037094
-6.04727
-8.230899
-10.61916
-13.25844
-16.16743
-19.4263
-23.17276
-27.59749
-32.76224
-39.70715
-46.24353
-60.48956
-51.97192
-43.65733
-37.49215
-32.64402
-28.14849
-24.46611
-21.15971
-18.19472
-15.46244
-12.93954
-10.77352
-8.648418
-6.565041
-4.688454
-2.914014
-1.245937
0.400129
1.919612
3.404608
4.777551
6.152335
7.450449
8.672293
9.940318
11.17181
12.3021
13.44366
14.52372
15.55041
16.57647
17.6722
18.70842
19.58759
20.56868
21.49466
22.4595
23.37855
24.29034
25.18767
26.11302
26.99947
27.86821
28.71749
29.55698
30.42425
31.26987
32.07861
32.91211
33.80677
34.66118
35.47545
36.28847
37.12103
38.03393
38.90533
39.71459
40.63219
41.53807
42.41924
43.32029
44.23883
45.16072
46.27289
47.42145
48.36112
49.40896
50.5154
51.82643
53.07553
53.38071
-10.27127
-14.15675
-14.28739
-14.82929
-14.95609
-14.88328
-15.26492
-16.00441
-16.92967
-19.30382
-23.52725
-30.07634
-40.3623
-52.93887
-68.5036
-85.01836
-101.8098
-116.1389
-128.9454
-137.9264
-142.5165
-141.8409
-135.7193
-123.3485
-107.7061
-91.76506
-78.58006
-73.95531
-79.20861
-80.7694
-80.52704
-86.11822
-88.70575
-82.76403
-70.7141
-57.18028
-56.78286
-75.52042
-93.73185
-101.6107
-101.3398
-92.20237
-83.06012
-76.35192
-72.84833
-71.88022
-76.0693
-78.3214
-76.44647
-78.56567
-72.32276
-67.88389
-64.39159
-61.72995
-59.65479
-58.38042
-59.15181
-62.38061
-63.94719
-61.30139
-57.02931
-55.71305
-55.41269
-55.39333
-55.13438
-54.66167
-54.14994
-53.64748
-53.12121
-52.57841
-51.95261
-51.26958
-50.5243
-49.74874
-48.91907
-48.07904
-47.19308
-46.27395
-45.37848
-44.49511
-43.60039
-42.70475
-41.85289
-41.04396
-40.25388
-39.48062
-38.75542
-38.11997
-37.50212
-36.93213
-36.47861
-36.06876
-35.724
-35.47542
-35.29185
-35.17482
-35.15061
-35.21394
-35.30854
-35.54456
-35.87558
-36.30116
-36.72848
-37.23603
-37.71362
-38.28298
-38.83508
-39.45058
-40.05805
-40.66992
-41.25607
-41.95792
-42.54949
-43.18953
-43.83324
-44.42385
-44.98199
-45.60462
-46.07392
-46.51688
-46.96715
-47.2941
-47.56908
-47.7908
-47.97347
-47.92908
-47.84481
-47.58676
-47.34154
-46.82315
-46.26006
-45.58887
-44.80581
-43.79253
-42.5645
-41.24421
-39.8868
-38.31048
-36.06514
-33.13426
-30.02116
-26.99101
-23.93612
-20.49108
-16.79165
-14.34425
-15.09868
-14.13592
-12.3886
-14.30335
-62.26182
-57.89386
-65.66227
-73.49203
-66.95705
-56.50441
-54.71425
-53.04157
-62.79218
-77.70304
-78.78785
-68.04953
-69.53564
-76.75755
-87.69894
-99.08279
-107.2277
-110.591
-108.6532
-101.97
-90.339
-73.67537
-55.25631
-41.82299
-32.14257
-33.21587
-39.61453
-44.51579
-48.13663
-53.0599
-51.28717
-44.68983
-40.64969
-36.17546
-29.85516
-33.86818
-40.38741
-46.78598
-53.81626
-62.98431
-72.85616
-80.6223
-86.10086
-89.37933
-90.89129
-92.35909
-93.55382
-96.70487
-96.90468
-84.47044
-0.01912867
-0.003298318
-2.699701
3.131498
0.4070415
-0.1457116
0.01868299
3.000326
0.168426
0.05147692
0.7866868
0.4511958
-0.01293388
8.490511
0.03591848
3.896405
6.883425
-9.630635
2.647241
4.860252
-0.4023012
2.606317
0.03097801
2.464216
-0.04521926
3.608572
2.355847
1.228484
2.614908
-0.2735202
0.4732939
-0.4633699
-20.74661
-0.01934841
3.51063
0.0710199
0.03871704
4.973977
0.01299648
3.762546
5.01899
-0.01399907
0.8066336
0.3891061
0.1083991
6.620391
-0.002272909
-0.0005988477
0.002339093
5.408949
-2.260616
-0.01916612
-0.8348203
-0.04621198
3.57322
0.04841668
-2.222766
-0.7190977
-7.404351
0.001474897
0.09128526
2.129495
-0.104268
0.3951796
5.799335
-0.002473627
-0.084217
1.451888
16.98427
-0.3156976
0.6855343
0.04751529
3.886772
1.466319
1.81231
1.916624
1.316059
0.8141663
-0.009453373
2.323869
0.2319475
0.4182903
0.1822952
-0.1011319
0.1373655
0.0177087
7.559252
0.02900732
-0.2900626
-0.7246023
5.470406
6.01535
3.942763
1.384554
0.2815671
-1.244493
4.15479
2.956502
-129.6174
0.266295
-0.1420972
9.004122
7.214303
0.1518547
-1.37026
3.040984
0.007299539
3.777783
-0.128168
3.14322
0.04290276
-26.41505
0.02321092
-0.2179956
-1.9412
0.01252175
-0.127498
-20.04149
-4.174107
0.5916838
-0.3855401
-0.6442978
-0.2529469
0.04352247
2.53114
-0.1066788
-0.004734685
0.06026968
1.610125
0.04748778
11.27111
6.317014
3.081238
-0.2675185
0.03622972
0.01099271
-2.469791
-60.67179
-8.354631
4.877525
3.13002
5.699249
3.422012
-4.382413
-0.01701448
0.1991446
3.379332
-0.4563496
0.0008247346
5.38637
0.7576874
0.07507451
-0.2696255
2.923181
9.012639
2.663671
0.01267318
-0.5700238
0.004051045
-0.1659928
0.5604889
3.054413
-1.804474
0.01693135
6.166687
0.0003024328
-0.1981969
5.023122
-0.08291385
1.654279
0.08525066
0.1869996
0.02226905
-2.633194
-0.3041321
0.001637683
-0.3371171
-0.202654
-0.1259401
2.125963
-0.1073241
3.849043
-5.513681
0.1837854
-0.4608328
-2.196473
4.251484
3.883982
6.392819
-0.03750665
-2.890969
0.04284247
0.7802648
0.04263881
5.921432
-0.3773538
-0.220185
0.3391188
-6.75955
-0.3873958
4.920056
-0.4724884
-0.3795308
8.141395
-0.4555989
-0.07596049
0.01020474
-3.579176
-6.792866
-0.1626677
0.0163025
0.5760941
0.01745619
3.697672
0.01126562
0.03040193
-0.7927521
-0.1920193
1.747292
0.725778
-4.123633
-3.438455
2.607913
0.0843159
20.21698
1.561059
1.679752
0.05171048
-1.368251
-6.808364
-0.00490491
0.2395482
-3.731376
3.683625
0.9695698
3.599275
2.205936
2.47875
3.010222
0.04360753
-1.271234
0.1710335
0.01307567
-0.03658873
0.1152071
0.6768779
-0.7470312
-1.332543
-0.4121344
2.495264
2.499243
-85.00443
6.634519
-0.591282
0.01354686
8.910511
-0.1548444
1.671927
-0.2275481
-0.9393809
2.310023
0.2570883
0.8021422
0.4091527
4.01353
0.7939239
0.06689761
0.4751231
2.755595
0.06717379
-0.6200833
0.03371577
-0.1997653
0.01642599
6.150867
4.82443
3.685147
0.05698118
1.202083
0.05846357
-0.750923
-27.39707
1.075987
-0.1241765
6.523028
-0.009007333