/*--------------------------------*- C++ -*----------------------------------*\
| =========                 |                                                 |
| \\      /  F ield         | OpenFOAM: The Open Source CFD Toolbox           |
|  \\    /   O peration     | Version:  2406                                  |
|   \\  /    A nd           | Website:  www.openfoam.com                      |
|    \\/     M anipulation  |                                                 |
\*---------------------------------------------------------------------------*/
FoamFile
{
    version     2.0;
    format      ascii;
    arch        "LSB;label=32;scalar=64";
    class       surfaceScalarField;
    location    "0.42";
    object      phi;
}
// * * * * * * * * * * * * * * * * * * * * * * * * * * * * * * * * * * * * * //

dimensions      [0 3 -1 0 0 0 0];

oriented        oriented;

internalField   nonuniform List<scalar> 
326221
(
-0.002049765
-0.004835384
0.006885149
-0.0008170142
-0.001232751
-7.846744e-05
-0.0007385468
-0.001868656
0.001790189
-0.001321654
-0.0005470021
-0.0002314155
-0.001090239
0.0005047958
-0.0007362113
0.001979276
-0.00147448
0.002953109
-0.0009738326
0.001848169
0.00110494
0.0003334767
0.001514692
0.0006562387
-0.0003227621
0.001472901
-0.0008166623
0.0008018551
0.000671046
-0.0009359582
0.001737813
-0.002498337
0.001562378
-0.003298968
0.0008006309
-0.003500557
0.0002015899
-0.003380533
-0.0001200241
-0.003123685
-0.000256848
-0.002710537
-0.0004131486
-0.001949509
-0.0007610278
-0.0007018756
-0.001247633
0.0004795806
-0.001181456
0.001931219
-0.001451639
0.002556313
-0.0006250933
0.001735527
0.0008207856
0.0006200858
0.001115441
-0.0004428215
0.001062907
-0.001228976
0.000786154
-0.0009564696
-0.0002725059
-0.0001327803
-0.0008236893
0.000494082
-0.0006268623
0.0007496057
-0.0002555237
0.001332992
-0.0005833861
0.002031878
-0.0006988866
0.002390684
-0.0003588059
0.00217619
0.0002144946
0.001165751
0.001010438
-0.0003617665
0.001527518
-0.001490012
0.001128245
-0.002052316
0.0005623046
-0.002349449
0.0002971323
-0.002455383
0.0001059342
-0.002322695
-0.0001326875
-0.001885969
-0.000436726
-0.0009862853
-0.0008996839
0.0003329676
-0.001319253
0.0003910915
-5.812385e-05
-0.003300896
0.003691988
-0.001909658
-0.001391238
-0.001068081
-0.0008415777
-0.0007758254
-0.0002922553
-0.0005021282
-0.0002736972
-0.0001121104
-0.0003900178
0.000461994
-0.0005741044
0.001073519
-0.0006115247
0.001126874
-5.33556e-05
0.0002302345
0.0008966399
-0.0007037398
0.0009339743
-0.0007134388
9.698962e-06
-0.0004054635
-0.0003079753
-0.000211598
-0.0001938655
-0.0002921209
8.052293e-05
-0.0006911917
0.0003990708
-0.001136641
0.0004454493
-0.001453878
0.0003172374
-0.001646565
0.0001926865
-0.001752639
0.0001060738
-0.001807644
5.50051e-05
-0.001829801
2.215764e-05
-0.001830103
3.01968e-07
-0.001815532
-1.45712e-05
-0.001791877
-2.365527e-05
-0.001760993
-3.088424e-05
-0.001723643
-3.734925e-05
-0.001677926
-4.571768e-05
-0.001625529
-5.239681e-05
-0.001569608
-5.59206e-05
-0.001509598
-6.001059e-05
-0.001443959
-6.563863e-05
-0.001374859
-6.909994e-05
-0.001301165
-7.369418e-05
-0.001198381
-0.0001027841
-0.001123029
-7.535151e-05
-0.001042847
-8.018265e-05
-0.0009613627
-8.148408e-05
-0.0008757506
-8.561205e-05
-0.0007835238
-9.222679e-05
-0.0006912501
-9.227372e-05
-0.0005932152
-9.803492e-05
-0.0004920613
-0.0001011539
-0.0003923294
-9.973195e-05
-0.0002921424
-0.0001001869
-0.0001883243
-0.0001038181
-7.754151e-05
-0.0001107828
2.504154e-05
-0.000102583
0.0001248426
-9.98011e-05
0.000238959
-0.0001141164
0.0003454732
-0.0001065142
0.000443663
-9.818978e-05
0.0005215995
-7.793653e-05
0.0005927222
-7.112269e-05
0.000657911
-6.51888e-05
0.0007322905
-7.437947e-05
0.0008124343
-8.014383e-05
0.0008945885
-8.215422e-05
0.000973066
-7.847749e-05
0.00104701
-7.394431e-05
0.001113456
-6.644567e-05
0.001179116
-6.566016e-05
0.001234019
-5.490283e-05
0.001286243
-5.22243e-05
0.001333879
-4.763606e-05
0.001372185
-3.830574e-05
0.001410196
-3.801138e-05
0.001489991
-7.979437e-05
0.00152892
-3.892944e-05
0.001560158
-3.123807e-05
0.00158907
-2.891149e-05
0.001609163
-2.009362e-05
0.00162282
-1.365614e-05
0.001632329
-9.509538e-06
0.001635815
-3.486238e-06
0.001620359
1.545677e-05
0.001588401
3.195716e-05
0.001537366
5.103503e-05
0.001465748
7.161815e-05
0.001350928
0.0001148208
0.001176909
0.0001740187
0.0009311343
0.0002457745
0.0006168091
0.0003143253
0.0002806595
0.0003361495
8.47778e-06
0.0002721818
-0.0001600232
0.000168501
-0.0002941433
0.0001341201
-0.0005067681
0.0002126247
-0.0008189697
0.0003122017
-0.001034053
0.0002150836
-0.001078989
4.493546e-05
-0.001085666
6.677263e-06
-0.001173807
8.814049e-05
-0.00125068
7.687381e-05
-0.001142618
-0.000108062
-0.0007283727
-0.0004142457
-0.000155023
-0.0005733498
-0.0003809742
0.0002259513
-0.0003282334
-5.274085e-05
0.001180853
-0.001509086
-0.0001619259
0.001342779
-0.0001382658
-2.366015e-05
-0.0004046639
0.0002663982
-0.001627826
0.001223162
-0.002846644
0.001218818
-0.003098718
0.0002520738
-0.00268844
-0.0004102779
-0.002152538
-0.0005359012
-0.001563906
-0.0005886322
-0.0008710476
-0.0006928587
-0.0001250852
-0.0007459624
0.0006195119
-0.0007445971
0.001333803
-0.0007142912
0.002185357
-0.0008515538
0.003004637
-0.0008192805
0.003624667
-0.0006200301
0.004145191
-0.0005205239
0.004540062
-0.0003948703
0.004817224
-0.0002771624
0.004974116
-0.0001568921
0.005000002
-2.588562e-05
0.004834775
0.000165227
0.004345943
0.0004888322
0.003225028
0.001120915
0.001320874
0.001904154
-0.0009063409
0.002227215
-0.002064668
0.001158327
-0.00178142
-0.000283248
-0.001476266
-0.0003051543
-0.001187
-0.000289266
-0.0001130496
-0.00107395
0.0005955654
-0.000708615
-0.0002171478
0.0008127131
-0.002131118
0.001913971
-0.003348464
0.001217346
-0.002563993
-0.000784471
-0.0005405535
-0.00202344
0.001509227
-0.00204978
0.002678565
-0.001169338
0.00308127
-0.0004027047
0.002784908
0.0002963622
0.001582727
0.001202181
5.058957e-05
0.001532138
-0.0009012556
0.0009518451
-0.001071703
0.0001704478
-0.0009249037
-0.0001467997
0.0002585426
-0.001183446
0.0003528532
-9.431065e-05
0.001389493
-0.001036639
0.002115521
-0.0007260289
-0.005042497
0.007158019
-0.005247762
0.0002052646
-0.00457045
-0.0006773119
-0.004296329
-0.0002741208
-0.00402804
-0.0002682895
-0.00382538
-0.0002026601
-0.00364028
-0.0001851001
-0.003478954
-0.0001613253
-0.003252716
-0.0002262386
-0.003141124
-0.0001115916
-0.003048844
-9.227988e-05
-0.002963678
-8.516596e-05
-0.002888244
-7.543399e-05
-0.002815107
-7.31369e-05
-0.002745117
-6.998999e-05
-0.002678056
-6.706109e-05
-0.002618506
-5.95508e-05
-0.002563968
-5.453726e-05
-0.002511295
-5.267329e-05
-0.002458906
-5.238883e-05
-0.002410129
-4.87771e-05
-0.002363106
-4.702273e-05
-0.002319435
-4.367161e-05
-0.002280663
-3.87719e-05
-0.00224048
-4.018254e-05
-0.00220007
-4.041014e-05
-0.002158719
-4.135115e-05
-0.002119983
-3.873647e-05
-0.002085595
-3.438777e-05
-0.002054565
-3.10301e-05
-0.002021637
-3.292811e-05
-0.001988814
-3.282284e-05
-0.001953602
-3.521191e-05
-0.001922969
-3.063236e-05
-0.001894722
-2.82476e-05
-0.001864688
-3.003394e-05
-0.001834017
-3.067129e-05
-0.001802161
-3.185528e-05
-0.001773744
-2.84171e-05
-0.001747752
-2.599244e-05
-0.001780114
3.236177e-05
-0.001767982
-1.213182e-05
-0.001749863
-1.811884e-05
-0.001731435
-1.842781e-05
-0.001715609
-1.582656e-05
-0.001699043
-1.65658e-05
-0.001684569
-1.44741e-05
-0.001671787
-1.278139e-05
-0.001659773
-1.201451e-05
-0.001644509
-1.526331e-05
-0.00162885
-1.565949e-05
-0.001616747
-1.210329e-05
-0.001607341
-9.406092e-06
-0.001600745
-6.595966e-06
-0.001590599
-1.014509e-05
-0.001577523
-1.307632e-05
-0.001566784
-1.0739e-05
-0.001558277
-8.507026e-06
-0.0015474
-1.08772e-05
-0.00153866
-8.739934e-06
-0.001528447
-1.021306e-05
-0.001517152
-1.129495e-05
-0.001506865
-1.028742e-05
-0.001495579
-1.12856e-05
-0.001467902
-2.767652e-05
-0.001430414
-3.748886e-05
-0.001393821
-3.65923e-05
-0.001342948
-5.087327e-05
-0.001267297
-7.565083e-05
-0.001108863
-0.0001584344
-0.0008310397
-0.0002778231
3.508061e-06
-0.0008345478
0.0008344636
-0.0008309556
0.001089143
-0.0002546791
0.001252174
-0.0001630315
0.001333655
-8.148087e-05
0.001386864
-5.320914e-05
0.001433817
-4.695319e-05
0.00146402
-3.020237e-05
0.00147391
-9.889982e-06
0.001481235
-7.325181e-06
0.001500881
-1.964561e-05
0.0015206
-1.971904e-05
0.001536713
-1.611348e-05
0.001546545
-9.831527e-06
0.001555798
-9.25351e-06
0.001565133
-9.335201e-06
0.001577736
-1.260221e-05
0.001589421
-1.16857e-05
0.001597863
-8.442205e-06
0.001607162
-9.29839e-06
0.001620083
-1.292068e-05
0.001631864
-1.178102e-05
0.001643169
-1.130529e-05
0.001657848
-1.467932e-05
0.001670057
-1.220926e-05
0.001687361
-1.730344e-05
0.001707954
-2.0593e-05
0.001724508
-1.655462e-05
0.001737565
-1.30564e-05
0.001752481
-1.491614e-05
0.001770135
-1.76537e-05
0.001780742
-1.060765e-05
0.001744756
3.59867e-05
0.001769092
-2.433649e-05
0.001799658
-3.056629e-05
0.001830792
-3.113375e-05
0.001862206
-3.141426e-05
0.0018961
-3.389324e-05
0.001928038
-3.193845e-05
0.00195695
-2.89117e-05
0.001988089
-3.113866e-05
0.002022953
-3.486467e-05
0.002061362
-3.840838e-05
0.002094789
-3.342705e-05
0.002126194
-3.140545e-05
0.002159885
-3.369097e-05
0.002196718
-3.683332e-05
0.002234115
-3.739707e-05
0.002275875
-4.17595e-05
0.002319343
-4.346802e-05
0.002363026
-4.368316e-05
0.002408144
-4.511768e-05
0.002449878
-4.173374e-05
0.002499834
-4.995655e-05
0.002551945
-5.211046e-05
0.00260609
-5.414589e-05
0.002664316
-5.8226e-05
0.002724359
-6.004266e-05
0.002790785
-6.642628e-05
0.002863479
-7.269363e-05
0.002937443
-7.396445e-05
0.003017463
-8.001918e-05
0.003108599
-9.113627e-05
0.003217803
-0.0001092043
0.003436532
-0.0002187288
0.003590853
-0.0001543205
0.003765118
-0.0001742656
0.003958738
-0.0001936196
0.004206136
-0.0002473986
0.004450187
-0.0002440505
0.005050858
-0.0006006718
0.0002154743
0.001044489
-7.554617e-06
-0.00186789
0.001467336
-0.0006775265
0.001748949
-0.0004446444
0.0019681
-0.0003006318
0.002141033
-0.0002261419
0.002293709
-0.0001996299
0.002423312
-0.000159805
0.002528197
-0.0001147755
0.002620617
-9.974454e-05
0.002715201
-0.0001142302
0.002804154
-0.0001086713
0.002887825
-9.978491e-05
0.00296324
-8.524681e-05
0.003035619
-8.163197e-05
0.003103609
-7.732517e-05
0.003171704
-8.069706e-05
0.003236433
-7.641545e-05
0.003297273
-6.928145e-05
0.003355686
-6.771161e-05
0.003414802
-7.203669e-05
0.00347141
-6.838921e-05
0.003525787
-6.568266e-05
0.003581586
-7.047804e-05
0.003633623
-6.424595e-05
0.003688299
-7.197957e-05
0.003743731
-7.602457e-05
0.003797237
-7.006101e-05
0.003846672
-6.249129e-05
0.003897491
-6.573504e-05
0.003948492
-6.865487e-05
0.003996588
-5.87039e-05
0.003958056
7.451869e-05
0.004017846
-8.412637e-05
0.00408079
-9.351049e-05
0.004144026
-9.436971e-05
0.004207323
-9.471125e-05
0.004271638
-9.820839e-05
0.0043354
-9.570054e-05
0.004396035
-8.954643e-05
0.004458866
-9.396979e-05
0.004522293
-9.829157e-05
0.004589862
-0.0001059774
0.004652922
-9.648705e-05
0.004715979
-9.446194e-05
0.004779271
-9.698285e-05
0.00484539
-0.0001029526
0.004911205
-0.0001032122
0.004980554
-0.0001111089
0.005051549
-0.0001144625
0.005122748
-0.0001148819
0.005196359
-0.0001187285
0.005266665
-0.0001120401
0.005344221
-0.0001275128
0.005421856
-0.0001297454
0.005503108
-0.0001353973
0.005586038
-0.0001411569
0.005672184
-0.0001461881
0.005762056
-0.0001562979
0.005858153
-0.0001687913
0.005954958
-0.0001707689
0.006057757
-0.0001828188
0.006169164
-0.0002025432
0.006295328
-0.0002353686
0.00659276
-0.0005161603
0.006764178
-0.0003257383
0.006960173
-0.0003702605
0.007170966
-0.000404413
0.007447582
-0.0005240141
0.007676269
-0.0004727375
0.008374387
-0.00129879
0.007517885
0.001071976
-0.008570964
0.007716543
0.001059685
-0.007804916
-0.00144336
-0.007547681
-0.0005313555
-0.007251871
-0.0005640991
-0.007031062
-0.0004234691
-0.006823635
-0.0003925275
-0.006644669
-0.0003402915
-0.006338838
-0.0005320697
-0.006209002
-0.0002414276
-0.006095195
-0.0002060866
-0.005987024
-0.0001933373
-0.005887669
-0.0001747882
-0.005789782
-0.0001710243
-0.005696275
-0.000163497
-0.005604212
-0.0001591242
-0.005519555
-0.0001442075
-0.005437039
-0.0001370539
-0.00535806
-0.0001316519
-0.005278277
-0.0001321723
-0.005202794
-0.0001242595
-0.005127819
-0.0001219983
-0.005056113
-0.0001153773
-0.004987567
-0.0001073176
-0.004918413
-0.0001093364
-0.004850084
-0.0001087391
-0.004781001
-0.0001104341
-0.004714792
-0.0001049454
-0.00465031
-9.886998e-05
-0.004589088
-9.225212e-05
-0.004524965
-9.705096e-05
-0.004462758
-9.502995e-05
-0.004397579
-0.0001003917
-0.004336464
-9.174672e-05
-0.004275443
-8.926925e-05
-0.004213607
-9.186958e-05
-0.004150814
-9.346385e-05
-0.004087321
-9.534893e-05
-0.004026069
-8.966845e-05
-0.003965713
-8.634892e-05
-0.004002995
6.964423e-05
-0.003955243
-5.988455e-05
-0.003905209
-6.815258e-05
-0.00385368
-6.99566e-05
-0.003804487
-6.501992e-05
-0.003752732
-6.832008e-05
-0.003702391
-6.481539e-05
-0.003650957
-6.421504e-05
-0.003599389
-6.358252e-05
-0.003544121
-7.053201e-05
-0.003488041
-7.173934e-05
-0.003432662
-6.748177e-05
-0.003376554
-6.551461e-05
-0.003320062
-6.308803e-05
-0.003258249
-7.195761e-05
-0.00319305
-7.827557e-05
-0.003126348
-7.744062e-05
-0.003058625
-7.623062e-05
-0.002985007
-8.449479e-05
-0.00291008
-8.366743e-05
-0.002828765
-9.152808e-05
-0.002741938
-9.812202e-05
-0.002649083
-0.0001031417
-0.002548844
-0.0001115246
-0.002428705
-0.0001478156
-0.002294334
-0.0001718603
-0.002148899
-0.0001820269
-0.001972162
-0.0002276104
-0.001753811
-0.000294002
-0.001467567
-0.0004446788
-0.001025496
-0.0007198938
-0.001867598
-0.00116867
9.007422e-05
0.001054936
-0.003295142
0.00239287
-0.004629464
0.002557483
-0.004865906
0.00145526
-0.004306165
-0.0003076672
-0.003672249
-0.001044194
-0.003014528
-0.001193622
-0.002230364
-0.001372797
-0.001344634
-0.001578589
-0.0003968331
-0.001693763
0.0005607408
-0.001702171
0.001491064
-0.001644614
0.00257203
-0.00193252
0.003644916
-0.001892167
0.00449977
-0.001474885
0.00522985
-0.001250603
0.005815487
-0.0009805081
0.006263936
-0.0007256111
0.006574598
-0.0004675546
0.006754845
-0.0002061318
0.006801125
0.0001189468
0.00668635
0.0006036073
0.006114925
0.00169234
0.00460828
0.003410799
0.001113844
0.005721651
-0.0023256
0.004597771
-0.003106113
0.0004972653
-0.00254852
-0.0008627477
-0.001930615
-0.0009071709
-0.0006442683
-0.002360297
0.0001616865
-0.00151457
-0.001544474
0.002518874
-0.004328502
0.004697999
-0.004662971
0.001551815
-0.002983138
-0.002464304
-0.0006866807
-0.004319898
0.001865856
-0.004602318
0.003427541
-0.002731023
0.004038774
-0.001013938
0.004061375
0.0002737611
0.003320565
0.00194299
0.001374901
0.003477802
-0.0007249365
0.003051682
-0.001478222
0.0009237333
-0.0009356098
-0.0006894118
0.0005536963
-0.002672752
0.001159837
-0.0007004519
0.002234051
-0.002110853
0.0008665033
0.0006415191
0.01574107
-0.002908634
0.003745247
-0.002227851
-0.002221281
-0.001528931
-0.001760335
-0.0007532013
-0.001496556
-0.0005374765
-0.001112814
-0.0007737598
-0.0004458992
-0.001241019
0.0002712725
-0.001328696
0.0008454251
-0.0006275083
0.000483533
0.001258532
-0.000669213
0.00208672
-0.001589356
0.0009298417
-0.002075824
0.000178493
-0.002408912
0.0001392229
-0.002743007
0.0004146174
-0.00317296
0.0008290242
-0.00354715
0.0008196387
-0.003732503
0.000502591
-0.003790528
0.0002507112
-0.00378257
9.811568e-05
-0.003740007
1.244236e-05
-0.003677939
-3.991088e-05
-0.003604706
-7.293019e-05
-0.003521807
-9.747023e-05
-0.003430824
-0.0001146389
-0.003332725
-0.0001289826
-0.003228256
-0.0001418188
-0.003115996
-0.000157978
-0.002997201
-0.0001711914
-0.002874385
-0.0001787364
-0.00274709
-0.000187306
-0.00261398
-0.0001987482
-0.002477046
-0.0002060344
-0.002336575
-0.0002141649
-0.002148994
-0.0002903655
-0.002006112
-0.0002182327
-0.001856579
-0.000229716
-0.001704805
-0.0002332584
-0.001548272
-0.000242145
-0.001385064
-0.0002554342
-0.001221452
-0.0002558864
-0.001051981
-0.0002675059
-0.0008796259
-0.0002735086
-0.0007082892
-0.0002710686
-0.0005355945
-0.0002728816
-0.0003595305
-0.0002798821
-0.0001774063
-0.000292907
-6.883425e-06
-0.0002731059
0.0001626536
-0.0002693381
0.0003500402
-0.000301503
0.0005287676
-0.0002852416
0.0006985294
-0.0002679515
0.0008439044
-0.0002233115
0.0009778371
-0.0002050554
0.001100372
-0.0001877232
0.00123023
-0.0002042384
0.001368046
-0.0002179596
0.001512687
-0.0002267954
0.001658195
-0.0002239846
0.001801917
-0.0002176668
0.001938601
-0.0002031298
0.002073219
-0.0002002779
0.002195558
-0.000177242
0.002312653
-0.0001693193
0.002422653
-0.0001576357
0.002521732
-0.0001373855
0.002616181
-0.0001324599
0.002771666
-0.0002352791
0.002864226
-0.0001314903
0.002951018
-0.0001180301
0.003034605
-0.0001124982
0.003109646
-9.513473e-05
0.0031784
-8.241034e-05
0.003242156
-7.326562e-05
0.003301229
-6.25586e-05
0.003347957
-3.127099e-05
0.003384192
-4.278071e-06
0.003406
2.922695e-05
0.003411762
6.58562e-05
0.003384007
0.0001425757
0.003304936
0.0002530895
0.003147206
0.0004035042
0.002879729
0.0005818023
0.002507472
0.0007084069
0.002078246
0.0007014079
0.001565782
0.0006809652
0.0008585809
0.0008413209
8.62298e-05
0.0009849758
-0.0002343142
0.0006327456
-0.0001915789
0.0001723484
-0.0002089406
6.229715e-05
-0.0004348277
0.0002325643
-0.0007437334
0.0003970462
-0.0009215773
0.0002547177
-0.0009177083
-0.0001119309
-0.0006844069
-0.000647547
-0.0005183386
-0.0007394181
-0.0008730968
0.0005807095
-0.0005946188
-0.0003312188
0.001360838
-0.003464544
0.002793691
-0.0008496518
0.01525269
-0.00256972
0.0004873178
-0.002410473
-0.0008977941
-0.002803204
0.00218292
-0.001796678
-0.001553529
-0.0005041324
-0.002382784
0.0005133765
-0.00175372
0.002120268
-0.003081372
0.003780605
-0.002634169
0.003730636
0.001154909
0.002323415
0.002921913
0.001995863
4.789686e-06
0.001594472
-0.0004152709
-0.0005611915
0.002826709
-0.003220568
0.00439719
-0.004510899
0.002852709
-0.00482302
0.001112752
-0.004777423
0.0001559932
-0.004541796
-0.0003556511
-0.004147232
-0.0006514125
-0.003542685
-0.001017695
-0.002499484
-0.001804229
-0.0008966276
-0.00285049
0.0005580002
-0.002636084
0.00224798
-0.003141618
0.003756171
-0.002133285
0.003705203
0.0008717536
0.001725296
0.003095348
-0.000339304
0.003127508
-0.0009224011
0.001369251
-0.0003321948
-0.0008627121
0.0005738739
-0.001729758
0.001248433
-0.001301421
0.001655535
-0.0006626264
0.002508089
-0.00143594
0.003387493
-0.001578291
0.003640218
-0.0006115309
0.002418796
0.001435917
-0.0002565108
0.003685745
-0.00246902
0.003740027
-0.003280341
0.001939566
-0.003537713
0.0008196767
-0.00362753
0.0003869497
-0.00353375
1.215397e-05
-0.003215419
-0.0004510185
-0.002615489
-0.001036657
-0.001648889
-0.001866284
-0.000833542
-0.0021346
-0.0005346864
-0.0003569795
0.006902549
0.0008476408
-0.009594598
0.02399964
-0.002763584
0.004098542
-0.003213055
-0.0004483229
-0.003540898
0.002510763
-0.002356393
-0.002738033
-0.0008891607
-0.003850017
0.0003182055
-0.002961086
0.002164821
-0.004927987
0.004106332
-0.00457568
0.004645421
0.0006158202
0.003796835
0.003770499
0.00284201
0.0009596146
0.0006249725
0.001801767
-0.002599493
0.006051175
-0.004849688
0.006647385
-0.005665462
0.003668483
-0.00599026
0.001437551
-0.006007702
0.0001734351
-0.005725441
-0.0006379126
-0.005219124
-0.001157729
-0.004453049
-0.00178377
-0.003192226
-0.003065052
-0.001342389
-0.004700327
0.0004464756
-0.004424949
0.002409611
-0.005104754
0.004325204
-0.004048877
0.005083173
0.0001137845
0.003195509
0.004983011
0.0007292927
0.005593724
0.0002686689
0.001829875
0.0008601378
-0.001454181
0.001785819
-0.00265544
0.002300225
-0.001815826
0.002634753
-0.0009971547
0.003549813
-0.002351
0.004221826
-0.002250303
0.003404944
0.0002053511
0.000522781
0.00431808
-0.002553211
0.006761737
-0.003824086
0.005010902
-0.004133162
0.002248642
-0.00438613
0.001072644
-0.004527554
0.0005283737
-0.004460318
-5.508211e-05
-0.004093609
-0.0008177276
-0.003364581
-0.001765684
-0.002249402
-0.002981463
-0.001215818
-0.003168183
-0.001169402
-0.0004033955
-0.004642849
0.010376
-0.004442467
-0.002428234
-0.003842943
-0.002128455
-0.003353952
-0.001242192
-0.002949749
-0.00094168
-0.002416201
-0.001307308
-0.001597206
-0.002060014
-0.0006812915
-0.002244611
-0.0001496897
-0.00115911
-4.910325e-05
0.001157946
-0.001438898
0.003476515
-0.00328442
0.002775364
-0.004399684
0.001293756
-0.004798021
0.0005375606
-0.004960756
0.000577352
-0.005039646
0.0009079144
-0.005035984
0.0008159769
-0.004982177
0.0004487838
-0.004912882
0.0001814165
-0.004834344
1.95769e-05
-0.004746703
-7.519856e-05
-0.004648103
-0.0001385104
-0.004539099
-0.0001819343
-0.004420672
-0.0002158972
-0.004294567
-0.0002407443
-0.004161186
-0.0002623627
-0.004021396
-0.0002816089
-0.003873556
-0.0003058188
-0.003718839
-0.0003259076
-0.003559906
-0.0003376699
-0.003396318
-0.0003508934
-0.003226439
-0.0003686275
-0.00305288
-0.0003795938
-0.002876548
-0.0003904964
-0.002643935
-0.0005229784
-0.002463919
-0.0003982491
-0.002275885
-0.0004177502
-0.002085697
-0.0004234463
-0.001890337
-0.0004375051
-0.001687429
-0.0004583418
-0.001484356
-0.0004589596
-0.001274666
-0.0004771958
-0.001061769
-0.0004864058
-0.0008499029
-0.0004829346
-0.0006360101
-0.0004867744
-0.0004181932
-0.0004976991
-0.0001946341
-0.000516466
1.483376e-05
-0.0004825738
0.0002216494
-0.0004761538
0.0004489841
-0.0005288377
0.0006673453
-0.0005036027
0.0008757547
-0.000476361
0.00105568
-0.0004032366
0.001222554
-0.0003719296
0.001375659
-0.0003408282
0.001536903
-0.0003654824
0.001706715
-0.0003877717
0.001884792
-0.0004048726
0.002064447
-0.000403639
0.002242963
-0.0003961834
0.002413987
-0.0003741533
0.002583528
-0.0003698189
0.002739178
-0.0003328924
0.002889585
-0.0003197262
0.003031904
-0.0002999547
0.003162457
-0.0002679389
0.003287208
-0.0002572101
0.003484161
-0.0004322323
0.003605088
-0.0002524176
0.003721538
-0.0002344797
0.003835135
-0.0002260955
0.00393961
-0.000199609
0.004037893
-0.0001806943
0.004130953
-0.0001663254
0.004219291
-0.000150896
0.004294217
-0.0001061972
0.004361156
-7.121748e-05
0.004417527
-2.71434e-05
0.004469052
1.433074e-05
0.004507601
0.0001040267
0.004533131
0.0002275596
0.004540669
0.0003959661
0.00451053
0.0006119418
0.004408422
0.0008105146
0.004201433
0.0009083965
0.003830453
0.001051946
0.003176146
0.001495628
0.002391943
0.001769179
0.001881729
0.001142959
0.001691098
0.0003629802
0.001520116
0.0002332789
0.001142841
0.0006098394
0.0005976899
0.000942197
1.474269e-05
0.0008376649
-0.0004399761
0.0003427878
-0.0007203302
-0.0003671929
-0.0009230547
-0.0005366936
-0.001277995
0.0009356497
-0.0006110587
-0.000998155
0.001512595
-0.005588198
-0.00105628
0.005362567
-0.003619312
0.003617968
-0.006171025
0.004944582
-0.006506855
0.002893314
-0.005882208
0.0008306128
-0.005208405
-0.00098147
-0.004521599
-0.001730999
-0.003694713
-0.002020508
-0.002762024
-0.002305486
-0.001693928
-0.002646684
-0.0005409102
-0.002846781
0.0006320255
-0.002875107
0.001766792
-0.002779381
0.003069802
-0.00323553
0.004387228
-0.003209592
0.005432338
-0.002519995
0.006304924
-0.002123189
0.006998522
-0.001674106
0.007537786
-0.001264876
0.007923595
-0.000853363
0.008153383
-0.0004359204
0.008194613
7.771676e-05
0.00803992
0.0007583006
0.007534664
0.002197595
0.006782187
0.004163276
0.004044
0.008459838
-0.0007849066
0.009426677
-0.00367141
0.003383768
-0.00361606
-0.0009180974
-0.00292719
-0.001596041
-0.001589233
-0.003698254
-0.0009912454
-0.002112557
-0.003354554
0.004882182
-0.005963974
0.007307419
-0.005518775
0.001106616
-0.003527462
-0.004455617
-0.0008722069
-0.006975153
0.002253753
-0.007728278
0.004229249
-0.004706518
0.005030131
-0.001814819
0.005014847
0.0002890449
0.004412048
0.002545789
0.002823449
0.005066401
0.0002436953
0.005631436
-0.001326669
0.002494097
-0.0007580736
-0.001258007
0.000936508
-0.004367334
0.001842763
-0.001606707
0.002487973
-0.002756063
-0.0008769462
0.004006438
-0.009813981
0.0246781
-0.01067126
0.001916961
-0.009895633
-0.002218983
-0.009580231
-0.0008467577
-0.009253839
-0.0008904911
-0.009010873
-0.0006664356
-0.008784352
-0.0006190479
-0.008593946
-0.0005306973
-0.008242468
-0.0008835479
-0.008102245
-0.0003816503
-0.007974419
-0.0003339129
-0.00785224
-0.0003155162
-0.007738808
-0.0002882205
-0.007626142
-0.00028369
-0.007518267
-0.0002713725
-0.007410968
-0.0002664225
-0.007311101
-0.0002440749
-0.007212155
-0.000236
-0.007117073
-0.0002267342
-0.007020381
-0.0002288635
-0.006928252
-0.0002163885
-0.006835812
-0.0002144384
-0.006746335
-0.0002048545
-0.006659581
-0.0001940713
-0.00657191
-0.0001970078
-0.00648546
-0.0001951892
-0.006397911
-0.000197983
-0.006313176
-0.0001896799
-0.006229021
-0.0001830256
-0.006148016
-0.0001732566
-0.006063086
-0.000181981
-0.005980883
-0.0001772336
-0.005894714
-0.0001865601
-0.005812656
-0.0001738047
-0.00572955
-0.0001723751
-0.005645363
-0.0001760565
-0.005559975
-0.0001788517
-0.005473251
-0.0001820733
-0.005387147
-0.0001757727
-0.00529909
-0.0001744054
-0.005327661
9.821532e-05
-0.005248909
-0.0001386368
-0.00517557
-0.0001414918
-0.005098948
-0.0001465785
-0.005025148
-0.0001388195
-0.004947687
-0.000145781
-0.004871712
-0.0001407913
-0.004793785
-0.0001421412
-0.004715673
-0.0001416947
-0.004633271
-0.0001529342
-0.004550013
-0.0001549975
-0.004467106
-0.0001503886
-0.004382517
-0.0001501038
-0.004297161
-0.0001484439
-0.004205705
-0.0001634138
-0.004110608
-0.0001733728
-0.004013889
-0.0001741591
-0.003915821
-0.0001742992
-0.003810474
-0.0001898418
-0.003704008
-0.0001901329
-0.003590124
-0.0002054124
-0.003470457
-0.0002177889
-0.00334376
-0.0002298389
-0.003208904
-0.0002463804
-0.003050356
-0.0003063633
-0.002877217
-0.0003449996
-0.002694805
-0.0003644383
-0.002476176
-0.0004462398
-0.002208687
-0.0005614905
-0.001844566
-0.0008088006
-0.001179623
-0.001384837
9.708107e-06
-0.003056929
0.001200342
-0.003058523
0.001837912
-0.001315097
0.002191682
-0.0007984147
0.002459638
-0.0005685876
0.002673448
-0.0004399525
0.002866635
-0.000392816
0.003035739
-0.0003289095
0.003176284
-0.0002553205
0.003300936
-0.000224396
0.003428756
-0.0002420505
0.003550058
-0.0002299739
0.00366636
-0.0002160863
0.003772809
-0.0001916959
0.003875983
-0.0001848055
0.003973752
-0.0001750943
0.004071807
-0.0001787524
0.004166296
-0.0001709044
0.004256276
-0.0001592619
0.00434326
-0.0001546951
0.004430831
-0.0001596081
0.004515516
-0.0001530742
0.004597207
-0.0001473736
0.004680677
-0.0001539475
0.00475894
-0.0001425093
0.004839701
-0.00015274
0.004920771
-0.0001570954
0.005000164
-0.0001494539
0.005074994
-0.0001373214
0.00515137
-0.0001421102
0.005226309
-0.0001435937
0.005306225
-0.0001386207
0.005277801
0.0001029427
0.005365677
-0.000172002
0.005453955
-0.0001817885
0.005540586
-0.0001810004
0.005626505
-0.0001806304
0.005712856
-0.0001845591
0.005798756
-0.0001816005
0.005880915
-0.0001717054
0.005965132
-0.0001781875
0.006048431
-0.0001815907
0.006136331
-0.0001938772
0.006219157
-0.0001793131
0.006302437
-0.0001777419
0.006385113
-0.000179659
0.006470476
-0.0001883152
0.006554683
-0.0001874195
0.006642183
-0.000198609
0.006730987
-0.0002032662
0.006819562
-0.0002034571
0.00691116
-0.0002103262
0.006998308
-0.0001991877
0.00709307
-0.0002222757
0.007186517
-0.0002231922
0.007283855
-0.0002327354
0.007382083
-0.0002393845
0.007483326
-0.0002474307
0.007587488
-0.0002604603
0.007697784
-0.0002790877
0.007808184
-0.0002811681
0.007924218
-0.0002988534
0.008049051
-0.0003273765
0.00818471
-0.0003710275
0.00852617
-0.0008576203
0.008707628
-0.0005071963
0.008920337
-0.0005829688
0.009151914
-0.0006359902
0.00945819
-0.0008302903
0.009742372
-0.0007569191
0.01044897
-0.002005389
0.001926348
0.001270437
-1.143305e-05
-0.004317527
0.002068013
-0.002112673
0.002506404
-0.001236806
0.002833549
-0.0008957324
0.003101843
-0.0007082466
0.003345281
-0.0006362543
0.003558262
-0.00054189
0.003737846
-0.0004349047
0.003897774
-0.000384324
0.004060272
-0.0004045485
0.004213839
-0.0003835408
0.004361076
-0.0003633229
0.004496472
-0.0003270926
0.004627204
-0.0003155377
0.004751261
-0.0002991513
0.004874654
-0.0003021449
0.004994003
-0.000290254
0.005107192
-0.0002724504
0.005216971
-0.0002644744
0.005326817
-0.0002694541
0.005433086
-0.000259343
0.005535556
-0.0002498437
0.005640194
-0.000258585
0.005738059
-0.000240375
0.005838922
-0.0002536024
0.005940146
-0.0002583199
0.00603887
-0.0002481779
0.006132785
-0.0002312366
0.006228051
-0.0002373759
0.006321575
-0.0002371176
0.006422668
-0.0002397137
0.006394364
0.0001312469
0.00650152
-0.0002791586
0.00661098
-0.0002912483
0.006717125
-0.0002871451
0.00682238
-0.0002858856
0.006928219
-0.0002903981
0.007033143
-0.0002865243
0.007133742
-0.0002723044
0.00723651
-0.0002809558
0.007338118
-0.0002831988
0.007445009
-0.0003007683
0.007545817
-0.000280121
0.007647098
-0.0002790232
0.007747828
-0.0002803893
0.007851347
-0.0002918336
0.007953382
-0.0002894546
0.008059402
-0.0003046294
0.008166648
-0.0003105117
0.008273654
-0.0003104632
0.008384364
-0.0003210364
0.0084892
-0.0003040233
0.008603731
-0.0003368073
0.00871582
-0.0003352812
0.008832359
-0.0003492741
0.008950256
-0.000357282
0.009070681
-0.0003678555
0.009195229
-0.0003850081
0.009326196
-0.0004100552
0.009457082
-0.0004120536
0.009594442
-0.0004362137
0.009742238
-0.0004751722
0.01010895
-0.000737741
0.01030785
-0.001056519
0.01051935
-0.000718696
0.01077064
-0.0008342609
0.01105297
-0.0009183226
0.01141631
-0.001193625
0.0118193
-0.001159914
0.01246523
-0.002651316
0.01182136
0.002570216
-0.01272232
0.01209706
0.00254222
-0.01200082
-0.00294049
-0.01156023
-0.001287345
-0.01117473
-0.001275988
-0.01087997
-0.0009612005
-0.01061145
-0.0008875598
-0.01038903
-0.000753119
-0.01017986
-0.001092716
-0.00980526
-0.0007562553
-0.009654559
-0.0004846132
-0.009509861
-0.0004602143
-0.009375542
-0.0004225402
-0.00924193
-0.0004173014
-0.009113695
-0.0003996073
-0.008986062
-0.000394056
-0.008866599
-0.0003635376
-0.008748427
-0.0003541721
-0.008634437
-0.0003407242
-0.008518453
-0.0003448473
-0.008407685
-0.0003271566
-0.008296625
-0.0003254988
-0.008188452