/*--------------------------------*- C++ -*----------------------------------*\
| =========                 |                                                 |
| \\      /  F ield         | OpenFOAM: The Open Source CFD Toolbox           |
|  \\    /   O peration     | Version:  2406                                  |
|   \\  /    A nd           | Website:  www.openfoam.com                      |
|    \\/     M anipulation  |                                                 |
\*---------------------------------------------------------------------------*/
FoamFile
{
    version     2.0;
    format      ascii;
    arch        "LSB;label=32;scalar=64";
    class       volScalarField;
    location    "1.68";
    object      p;
}
// * * * * * * * * * * * * * * * * * * * * * * * * * * * * * * * * * * * * * //

dimensions      [0 2 -2 0 0 0 0];

internalField   nonuniform List<scalar> 
15536
(
-36.2115
-37.08803
-36.95313
-34.94678
-32.33715
-29.96066
-28.48147
-28.31802
-29.65568
-31.7106
-34.18823
-36.57742
-38.02999
-38.47711
-38.06594
-36.98499
-35.30567
-33.54492
-33.08171
-33.08668
-32.2949
-33.65215
-39.79359
-49.76486
-63.0863
-78.0016
-93.57871
-96.64395
-76.09143
-26.6786
-27.37406
-43.63694
-53.81404
-60.38628
-75.10243
-105.9691
-130.6017
-114.2327
-86.32729
-87.36977
-90.02313
-92.29904
-95.4252
-97.11717
-97.61992
-96.90852
-95.24201
-92.60522
-89.47389
-85.99192
-81.8556
-77.16997
-71.90226
-66.28405
-60.26398
-53.91652
-47.55045
-41.08857
-34.31494
-27.40729
-20.62531
-13.97758
-7.375756
-0.8799467
5.384902
11.50033
17.31473
22.80466
27.8665
32.50067
36.66581
40.35993
43.55281
46.17885
48.19608
49.69888
50.54723
50.83413
50.58226
49.81519
48.32818
46.18064
43.44114
40.12095
36.24362
31.82737
26.94502
21.50367
15.67685
9.511659
2.846595
-4.117156
-11.31162
-18.93324
-26.68511
-34.35963
-42.19669
-50.17196
-58.09134
-66.03798
-73.83357
-81.294
-88.37624
-95.17205
-101.8072
-107.9538
-113.5887
-118.6594
-123.1872
-127.2405
-130.5181
-132.9293
-134.5267
-135.2997
-135.0811
-133.5147
-130.281
-125.0887
-118.1543
-112.2701
-106.1226
-115.1295
-152.1746
-154.1119
-110.5199
-72.34314
-52.52647
-34.50984
-10.0113
-37.65062
-113.6866
-126.3993
-90.51393
-59.79352
-35.87768
-19.03423
-6.071949
6.360704
12.39109
9.709119
11.47912
9.882595
-0.04168491
-7.302909
-15.39875
-24.9273
-32.02514
-30.10813
-29.9943
-30.51713
-33.043
-54.23605
-64.74026
-43.78511
-22.53052
-31.37434
-36.59535
-36.19791
-36.96091
-36.70809
-34.70086
-32.1475
-29.83158
-28.40446
-28.27612
-29.63868
-31.70636
-34.18828
-36.57731
-38.03338
-38.47931
-38.06517
-36.97947
-35.29507
-33.52862
-33.05161
-33.04771
-32.23745
-33.64388
-39.81501
-49.7794
-63.07944
-77.96442
-93.51241
-96.75748
-76.36483
-26.58404
-27.4235
-43.70872
-53.87553
-60.39463
-75.09853
-106.0379
-130.6233
-114.1168
-86.25717
-87.26566
-89.81243
-91.79883
-94.63815
-96.05785
-96.41584
-95.653
-93.96782
-91.32549
-88.19876
-84.74018
-80.63281
-75.98359
-70.75614
-65.18641
-59.22059
-52.92946
-46.62074
-40.22086
-33.51418
-26.67014
-19.95241
-13.36953
-6.827956
-0.3956217
5.80835
11.86363
17.61995
23.05688
28.07037
32.65962
36.78508
40.4447
43.60795
46.21175
48.21071
49.7016
50.5449
50.83065
50.58164
49.82188
48.34772
46.22138
43.50916
40.22177
36.38295
32.01146
27.17854
21.79246
16.02795
9.924412
3.32669
-3.56207
-10.68576
-18.23641
-25.90655
-33.50142
-41.26078
-49.15447
-56.99328
-64.86053
-72.57887
-79.96298
-86.9732
-93.70673
-100.2847
-106.3737
-111.9594
-116.9849
-121.4759
-125.5041
-128.7629
-131.1701
-132.7811
-133.5864
-133.4254
-131.968
-128.953
-124.1123
-117.5707
-112.0475
-106.0657
-114.8945
-152.0347
-154.02
-110.5712
-72.37866
-52.65995
-34.64564
-9.971951
-37.76735
-114.0448
-126.4232
-90.20488
-59.57367
-35.76275
-19.00047
-6.111546
6.305188
12.40339
9.771377
11.54345
9.89704
-0.006322107
-7.328737
-15.4209
-24.96391
-32.04511
-30.11293
-29.99348
-30.55744
-33.18597
-54.44614
-64.97015
-43.90527
-22.58277
-31.38081
-36.62453
-36.22279
-36.94745
-36.61597
-34.58067
-32.04386
-29.75761
-28.36292
-28.25206
-29.63567
-31.71161
-34.19547
-36.58841
-38.04782
-38.49181
-38.074
-36.98244
-35.28939
-33.4999
-32.9798
-32.98706
-32.20878
-33.67569
-39.87898
-49.82352
-63.10646
-78.00008
-93.66109
-97.38801
-77.53672
-26.658
-27.29812
-43.64262
-53.849
-60.40572
-75.20136
-106.2415
-130.9766
-114.3301
-86.51142
-86.85979
-89.3215
-91.23461
-93.84021
-95.18398
-95.62554
-94.89256
-93.24452
-90.62218
-87.5083
-84.07564
-79.97894
-75.35407
-70.15074
-64.60667
-58.67498
-52.3987
-46.11655
-39.75548
-33.07357
-26.25801
-19.57092
-13.02535
-6.51924
-0.1128787
6.054084
12.08231
17.80701
23.2153
28.20134
32.7649
36.86514
40.50221
43.64516
46.23466
48.21727
49.69888
50.53721
50.82165
50.5761
49.82332
48.35835
46.24813
43.55453
40.28879
36.47514
32.13083
27.32919
21.96996
16.2398
10.17249
3.605447
-3.244701
-10.32704
-17.84339
-25.47494
-33.02412
-40.74804
-48.60703
-56.3997
-64.24356
-71.92537
-79.27955
-86.26048
-92.94724
-99.49366
-105.5479
-111.1107
-116.1116
-120.5793
-124.5899
-127.824
-130.2022
-131.7791
-132.5553
-132.3587
-130.821
-127.7513
-123.0466
-116.88
-111.6202
-105.987
-115.287
-152.3472
-154.7868
-110.8326
-72.46895
-52.69466
-34.54576
-9.643616
-38.65535
-116.0904
-127.5563
-90.19366
-59.45538
-35.67824
-18.98944
-6.224033
6.152796
12.3505
9.718013
11.55979
9.830272
-0.04201359
-7.39473
-15.48552
-25.07159
-32.17638
-30.29041
-30.14052
-30.71116
-33.55639
-55.01468
-65.87335
-44.35118
-22.41484
-31.0453
-36.35565
-36.21034
-36.88124
-36.39711
-34.39235
-31.90708
-29.67142
-28.32355
-28.23268
-29.64316
-31.72781
-34.21273
-36.60769
-38.0767
-38.51788
-38.09433
-36.99418
-35.28789
-33.46587
-32.90472
-32.92911
-32.18414
-33.75156
-39.97458
-49.88121
-63.17075
-78.12895
-94.04906
-98.51778
-79.80893
-27.05293
-26.88
-43.25258
-53.59164
-60.37397
-75.29109
-106.269
-130.8799
-114.6181
-87.4026
-86.58238
-88.63096
-90.41787
-92.70118
-93.79722
-94.03904
-93.22813
-91.58963
-88.98594
-85.89221
-82.50428
-78.47495
-73.9203
-68.78502
-63.31266
-57.45939
-51.2622
-45.05335
-38.7755
-32.18665
-25.44399
-18.83082
-12.36535
-5.938339
0.3990753
6.490522
12.45481
18.11571
23.47047
28.40303
32.91754
36.97542
40.57694
43.68884
46.25794
48.21772
49.68845
50.52133
50.80444
50.56343
49.81894
48.36385
46.27684
43.61037
40.37742
36.60421
32.30766
27.56293
22.25638
16.59763
10.60054
4.101253
-2.659001
-9.658564
-17.10231
-24.62934
-32.08148
-39.71863
-47.47389
-55.16611
-62.91243
-70.49525
-77.74131
-84.61558
-91.2239
-97.68926
-103.6471
-109.1305
-114.0457
-118.4527
-122.4231
-125.6065
-127.943
-129.5102
-130.3063
-130.1652
-128.7987
-125.9622
-121.5539
-115.8965
-111.0944
-106.3822
-116.4625
-152.0282
-154.0428
-110.727
-72.49331
-52.52175
-34.02681
-9.134841
-40.68485
-119.7764
-129.1693
-90.42195
-59.40962
-35.6016
-18.98676
-6.39101
5.90798
12.20841
9.599561
11.4507
9.617255
-0.1748771
-7.515728
-15.6302
-25.28116
-32.44205
-30.71177
-30.42851
-30.96558
-34.14383
-55.96477
-67.47652
-45.16956
-22.21514
-30.31709
-35.87362
-36.19777
-36.8404
-36.26631
-34.23961
-31.79392
-29.60534
-28.3101
-28.23583
-29.67461
-31.76563
-34.25655
-36.65834
-38.13759
-38.57114
-38.13617
-37.02002
-35.29393
-33.43967
-32.84751
-32.8709
-32.16046
-33.87283
-40.09045
-49.94279
-63.29086
-78.42277
-94.76452
-100.2446
-83.12516
-27.98221
-26.36174
-42.49006
-53.09919
-60.26631
-75.082
-104.9134
-128.0323
-113.2124
-88.54229
-86.61459
-87.89383
-89.53117
-91.59217
-92.54767
-92.86296
-92.08287
-90.46837
-87.8598
-84.72069
-81.37899
-77.33644
-72.81158
-67.68403
-62.25286
-56.45788
-50.28186
-44.11822
-37.91785
-31.38761
-24.68892
-18.13444
-11.74518
-5.384243
0.9032079
6.920261
12.83226
18.43272
23.73332
28.6077
33.07637
37.0907
40.65398
43.727
46.27247
48.20638
49.6641
50.49179
50.77425
50.5394
49.80233
48.35412
46.29868
43.66748
40.47129
36.74072
32.49134
27.80507
22.54776
16.96563
11.03212
4.58313
-2.082284
-9.001493
-16.40506
-23.8424
-31.20115
-38.77865
-46.46425
-54.06271
-61.76043
-69.28196
-76.46488
-83.28297
-89.82913
-96.26483
-102.1655
-107.631
-112.515
-116.8994
-120.898
-124.0336
-126.3813
-127.95
-128.767
-128.6067
-127.1236
-124.3034
-120.0787
-114.8474
-110.5536
-107.1531
-116.9497
-148.0332
-149.1833
-109.0424
-72.23129
-52.22225
-33.31546
-9.088436
-43.85902
-124.8113
-131.6447
-90.93836
-59.4777
-35.5265
-18.95268
-6.534894
5.569555
11.97095
9.3205
11.1265
9.184259
-0.4590763
-7.760576
-15.90326
-25.63334
-32.88224
-31.39475
-30.63752
-31.09287
-34.82795
-57.22255
-69.63205
-46.42405
-22.28738
-29.80945
-35.45205
-36.19364
-36.74482
-36.12949
-34.08874
-31.68779
-29.55843
-28.33685
-28.27714
-29.74843
-31.84517
-34.34646
-36.75295
-38.24926
-38.66963
-38.21566
-37.07177
-35.31417
-33.43625
-32.80264
-32.75494
-32.07715
-34.00288
-40.18965
-49.96799
-63.45861
-79.03581
-95.87337
-102.478
-87.38256
-30.00517
-26.32512
-41.9222
-52.58698
-60.11652
-74.46406
-101.4715
-120.3259
-108.7369
-88.91839
-86.46648
-86.93535
-88.31595
-90.04697
-90.67478
-90.83101
-89.87541
-88.34161
-85.7841
-82.68323
-79.47449
-75.51316
-71.10067
-66.05428
-60.70428
-55.00636
-48.90216
-42.84118
-36.76023
-30.31423
-23.69414
-17.24418
-10.95205
-4.682179
1.534434
7.446008
13.29161
18.80772
24.02559
28.83565
33.25916
37.21923
40.73462
43.75466
46.27975
48.18007
49.61731
50.44089
50.72328
50.49593
49.76569
48.32529
46.30579
43.72335
40.57594
36.89764
32.70605
28.08458
22.87804
17.4083
11.5653
5.158267
-1.391606
-8.164781
-15.50762
-22.83655
-30.04992
-37.51709
-45.10585
-52.57618
-60.1624
-67.56769
-74.63206
-81.31386
-87.74944
-94.10744
-99.86686
-105.2427
-110.0018
-114.2874
-118.1927
-121.2455
-123.4824
-124.9272
-125.7754
-125.753
-124.4795
-121.917
-118.0306
-113.3918
-109.6818
-107.5065
-115.6947
-139.7605
-139.7739
-105.7205
-71.7784
-52.23101
-33.35345
-10.69172
-48.56683
-131.1115
-135.0278
-91.99157
-59.68674
-35.42937
-18.83425
-6.601042
5.175888
11.77376
9.2423
10.60183
8.399815
-0.9680108
-8.208164
-16.34029
-26.25229
-33.49171
-32.33974
-30.46628
-30.75529
-35.3821
-58.73094
-72.17093
-48.13299
-23.11107
-29.7391
-35.2015
-36.2455
-36.7224
-36.03092
-33.94695
-31.61435
-29.55602
-28.42583
-28.35577
-29.88417
-32.02475
-34.47783
-36.84035
-38.44806
-38.84951
-38.36308
-37.16865
-35.35024
-33.45676
-32.7224
-32.46699
-31.79773
-34.02413
-40.14256
-49.82025
-63.60829
-80.02008
-97.40941
-105.7564
-92.15153
-33.88176
-27.5587
-41.89367
-52.25781
-60.06699
-73.6432
-97.01572
-112.0044
-103.0416
-88.36537
-85.93168
-85.88088
-87.02807
-88.55351
-88.91303
-89.14298
-88.19167
-86.62366
-84.00221
-80.80681
-77.69006
-73.70148
-69.39036
-64.36132
-59.02826
-53.45127
-47.461
-41.46365
-35.44111
-29.12519
-22.63108
-16.26025
-10.01317
-3.908764
2.24049
8.023435
13.80374
19.20277
24.33683
29.14113
33.46478
37.34059
40.78913
43.75692
46.30686
48.13432
49.54715
50.36359
50.64211
50.42296
49.71836
48.30147
46.2749
43.72849
40.64573
37.03809
32.94465
28.40926
23.22804
17.88001
12.18317
5.864149
-0.6372108
-7.294659
-14.46283
-21.69736
-28.80827
-36.13959
-43.54157
-50.9693
-58.47082
-65.6937
-72.6867
-79.21822
-85.556
-91.88487
-97.5114
-102.8674
-107.52
-111.7994
-115.7791
-118.7598
-121.0561
-122.7223
-123.5707
-123.4237
-122.0931
-119.6348
-115.9867
-111.9002
-108.6638
-107.2593
-113.4723
-130.9402
-130.1562
-102.0494
-71.42068
-52.66859
-34.64589
-14.98789
-55.48634
-138.0276
-139.2448
-94.25104
-60.10396
-35.21385
-18.58282
-6.523111
4.825793
12.01591
9.552687
10.00138
7.150198
-1.769612
-8.846777
-16.92118
-27.41589
-34.46586
-33.52434
-29.78491
-29.70288
-35.613
-60.44457
-74.60391
-50.26699
-25.0881
-30.27071
-35.15984
-36.36396
-36.73886
-36.00731
-33.87334
-31.64127
-29.63307
-28.56602
-28.42722
-30.09123
-32.33064
-34.6974
-37.31611
-38.77717
-39.15208
-38.61489
-37.3413
-35.42675
-33.51397
-32.57907
-31.92525
-31.1878
-33.71704
-39.72999
-49.3303
-63.88982
-80.68378
-99.45272
-111.4544
-97.4492
-39.13466
-30.41813
-42.73751
-52.12146
-59.96726
-72.48939
-92.091
-104.2391
-97.96485
-87.14166
-84.80416
-84.46128
-85.22647
-86.60267
-86.34694
-86.44254
-85.40339
-83.96414
-81.58554
-78.18921
-75.2484
-71.39255
-67.25279
-62.19114
-56.93497
-51.70354
-45.87153
-39.6447
-33.78657
-27.85092
-21.51584
-14.98326
-8.852145
-3.128705
3.047266
8.624227
14.38143
19.55253
24.76392
29.57791
33.65912
37.42589
40.78225
43.72781
46.31996
48.02544
49.45898
50.25678
50.52562
50.32184
49.67218
48.25107
46.20798
43.64622
40.64192
37.11894
33.14995
28.82187
23.62556
18.36649
12.84395
6.866976
0.4320697
-6.492927
-13.33913
-20.18052
-27.44348
-34.69409
-41.60831
-48.86912
-56.68633
-63.40827
-70.40876
-76.74409
-82.8852
-89.20749
-94.55221
-99.94909
-104.3101
-108.4415
-112.4619
-115.2543
-117.4093
-118.6689
-119.6543
-119.8164
-118.62
-116.4401
-113.1218
-109.7747
-107.1327
-106.3081
-111.015
-123.1977
-120.9753
-97.70351
-71.7505
-53.82872
-36.88842
-21.90315
-64.47656
-143.575
-142.7401
-96.98189
-61.06527
-34.58741
-18.16819
-6.058841
5.132482
13.13062
10.57246
9.379325
5.236758
-3.372154
-9.749361
-17.96052
-29.09507
-35.8537
-34.89415
-28.7985
-28.12699
-35.56846
-61.48868
-76.30521
-52.75937
-27.93094
-31.50767
-35.34047
1.278005
0.6951183
-33.89693
-22.02936
10.81482
-19.5973
1.564853
0.3959355
9.866305
-2.049823
-1.620639
0.6826245
-0.9479168
0.2814809
0.4698593
2.377311
-9.036816
-3.409831
0.1702198
0.08187595
-59.32602
-0.6366667
1.682426
-2.180827
1.459303
-2.003988
0.1980918
-1.561473
-7.592733
-0.09278222
1.379663
-20.58566
-3.40336
-2.357872
0.3538687
-5.114658
-1.504173
0.006498895
-0.2346504
-6.182101
-22.44838
1.724619
0.5477621
2.92937
33.34174
1.505214
-0.01984674
1.521574
-0.828983
-1.669755
0.2804809
1.753584
-4.765695
0.1705974
0.03536377
22.3934
-7.489252
-0.2746947
-13.2684
-21.35453
-1.472179
-0.000786197
-21.04465
0.450454
-8.63264
-2.939422
-30.64102
-0.1108222
-11.31976
-0.8750516
-0.5694257
-0.06331256
17.78845
-22.25713
21.38019
-0.1328621
3.660697
-2.865583
-3.50707
0.2031233
-21.88946
0.047239
2.760663
0.09100854
-12.39082
1.031026
-2.146016
0.04843528
-50.40629
-1.628896
-19.64065
21.34083
-1.914563
0.04812664
1.359342
0.9597235
-13.72232
5.375808
-50.88007
1.507526
0.567933
0.06592785
0.4772125
-90.3615
-0.04438026
-17.68231
-0.008151111
1.040773
-4.456992
-17.10751
0.2931754
0.5777519
0.9681047
6.906757
-21.11942
0.01205945
0.03760365
-0.6025339
19.17106
0.7853804
1.57663
0.1333976
-0.6188268
-0.1931753
-0.2058235
-9.80066
-0.2337312
-42.77778
2.018402
-1.420145
0.08127551
2.739649
0.2876415
0.3137889
0.5021771
-26.31187
0.04383006
5.881157
0.8256678
0.04772288
-39.37837
0.2542929
-66.63767
0.8012049
-0.008031392
-14.38692
-0.3119205
-47.39262
-0.1899722
-0.4547258
-3.681865
-19.21453
-41.33366
-7.384107
-11.21469
-55.8482
-0.1725153
0.1684629
0.2424762
-25.09387
0.03759605
-23.13475
-5.567177
-0.7011669
-4.225439
-23.16904
-22.23257
1.511307
-31.29136
-0.1172178
1.57294
18.98831
1.209106
-45.54656
-7.831987
0.9107684
1.864165
1.368161
-57.8415
-0.654699
15.09165
0.5705243
-0.875344
0.6726653
3.240232
-47.53081
0.6476431
-0.1086588
-24.91995
0.5065748
0.02590102
0.571843
-10.93707
-2.881131
-0.009691884
0.8831106
-1.544257
0.1192205
-6.16321
-33.74895
-0.09783437
-8.337523
1.021202
-33.67485
1.999564
-5.090725
-7.709577
-31.64768
-9.473069
0.02597325
-0.1032219
1.593053
3.095451
-30.57394
0.3844839
-6.691584
-12.1766
0.1535005
2.107047
0.1761301
3.195501
1.133897
2.458553
-4.893632
-3.915775
-1.483719
3.247506
7.427257
-0.2542288
18.13704
-1.287076
-27.90032
2.670972
-0.07150012
-71.26189
0.2454879
26.28796
-18.51885
2.004636
-0.0403496
0.2218021
0.7661939
-0.0930366
-8.859505
0.3234414
-18.73369
1.582173
-42.40732
0.05084259
0.2795744
-31.81378
0.7393711
-0.03492562
0.1639665
2.557411
-26.12851
0.9063224
0.1286789
-58.75938
-6.120898
-4.401683
0.04392559
-0.4598911
2.378028
-0.3785774
1.842777
0.8256481
-0.1796639
8.613147
-26.24936
0.1512249
0.2457275
12.02472
-1.183048
1.1027
2.850283
1.16101
-28.0324
-54.95968
0.391638
2.09487
0.6788006
-21.93019
1.891872
-0.001803678
-0.1657963
34.32183
-0.1052626
1.487038
-0.3822304
0.8961913
-0.07188177
1.213266
2.516444
-36.54455
0.006174455
-19.95035
-0.01077757
1.777408
-0.1658877
-42.92734
-4.179953
-0.749199
-66.1855
-0.4321321
-0.08608295
-0.3862578
0.991687
-4.261993
-4.087055
-0.8288762
-0.191153
-1.023712
1.587687
-0.3790022
-12.92331
33.73516
-54.13071
-40.14451
-64.74776
-0.7808321
-0.05000661
-0.232393
-0.06746111
0.03195447
-0.2237568
-0.3253562
-0.00213535
1.127424
-4.748619
17.57596
-0.01126413
-8.146604
-53.43899
-1.659995
1.412696
-7.48902
0.01123211
-4.564122
0.9903166
-45.09061
-1.170525
0.6041324
-0.3963133
-13.75029
3.961555
-29.31815
-0.1484558
-11.49453
0.007838979
-0.6072488
-0.2941484
12.69752
0.2399916
-0.6524167
-45.48083
-55.16188
-0.0754906
0.1409947
-5.904877
1.925199
-1.335696
-0.6988148
1.781161
0.221015
1.564806
1.190335
-1.021899
0.9718166
0.8985769
-3.367926
11.96264
-38.37181
0.6975696
1.563994
0.8777522
0.02401197
3.104126
1.495335
0.5964278
-1.357487
1.140616
-0.05095357
-12.04496
-0.02186096
1.710431
1.704461
36.20945
1.696913
-0.298358
-0.9223418
0.5961836
2.012586
-64.02211
-0.04217626
-1.114763
0.7233557
-25.51309
0.6984383
0.8974356
1.576173
0.003638327
-28.9138
-0.6241149
-0.2587621
-5.131236
-36.30225
-54.38773
1.435638
2.043933
0.2099253
0.1261986
-0.1983713
0.3474129
1.484106
-0.8341332
1.793153
-8.093371
0.1920863
-15.81963
-0.4212803
-0.1537639
3.549925
-0.8843208
-0.1858372
-26.31014
0.2095275
0.6640887
-39.38214
-16.71874
-55.93709
0.713398
1.372098
0.06968764
1.763329
-8.262722
-0.3110078
-6.234838
-0.117813
0.1035073
-1.074162
-0.2248003
-10.39189
0.4599107
-4.850202
-0.1860502
0.005108582
0.0223868
1.652538
-0.3194622
0.3541303
-51.78365
1.750489
-8.863446
-0.4580504
-0.1481627
-0.001820146
4.235261
-0.3166638
-22.0994
0.7317781
-35.92572
-0.3338833
-1.211838
-26.05592
-0.7463171
25.30739
0.4324895
3.102461
-1.900656
-11.22445
-1.975459
0.224377
7.216478
-0.6319669
-6.148487
0.06142992
-35.48656
-0.04890556
0.5888853
-4.91299
1.673307
0.4807434
0.8532376
1.620107
-0.5588575
-0.02026901
15.84491
-0.005002333
1.14581
-7.461922
-24.69921
-1.564085
-0.01298753
-19.81675
0.8152043
-0.07101299
3.494487
-0.7384549
3.266183
0.9912511
1.010242
0.0001490886
-5.323107
1.884483
-0.2230102
0.3018302
2.199063
-0.2038047
-0.8607603
-23.97651
2.813329
15.14193
-2.216292
-0.9504495
2.027225
-36.31655
-1.05241
-0.05570718
0.111254
0.9832637
0.1131806
-9.896818
-0.2203577
1.744709
-1.37322
-0.001056618
2.14529
0.1255969
0.1190741
-27.53927
-2.131317
-24.30674
0.07455581
3.664624
4.025436
2.977703
0.06531773
-1.045137
0.1691447
4.111786
-0.1998216
0.2200485
1.505415
-49.94092
2.156047
3.399639
-0.2650964
0.01212376
7.477213
1.451465
5.104231
-0.9894012
-4.216633
3.20992
-0.1857282
0.2630058
5.560813
15.3028
-4.134311
0.05305922
-4.823041
-0.623757
-2.111752
0.07990675
-0.4087979
0.5857647
7.324223
31.12387
0.006078893
0.07015918
4.228521
-2.057158
-65.06712
0.3518379
2.370841
1.563089
2.285343
-0.7558345
-6.92034
-36.27251
-5.1473
5.361569
-0.05138941
0.6691084
-23.6681
2.106755
0.5038372
-82.25964
-4.297504
-1.621656
-19.26101
-5.200104
-0.002706447
-0.311174
0.09547361
0.927904
-54.11647
-0.5902046
-0.4900361
-0.1283745
-4.056483
-0.08805104
-0.1883785
1.445527
-16.27826
-8.378715
1.009587
-20.79032
1.293446
4.328913
-0.7296771
-67.55278
-0.306779
8.199015
-15.35836
-0.5054117
-0.66664
0.1999716
3.459646
1.301543
-0.6160615
0.4756487
-0.8565173
1.609082
17.30825
2.193342
0.09497815
-1.175612
-2.930324
-5.151953
-7.57898
-15.13584
-1.912329
-31.64883
-8.833517
-15.73687
0.3343148
-0.7622257
-1.032788
-0.06920454
-0.09157897
0.5147717
2.521841
-2.510843
0.5981752
2.154277
-10.60317
0.1492061
24.91408
3.698198
-27.807
-1.764824
6.408929
6.57385
-3.191518
-23.79694
0.4446385
0.8534006
-9.154822
-0.2166032
0.1619484
0.2471985
1.785676
-3.576694
0.05048234
1.177003
1.6902
0.8689602
-3.159584
-0.1274295
0.4618819
-86.47607
-14.38361
0.158941
3.760852
-46.89318
-0.002399625
-0.09808285
5.550833
13.50054
8.612451
1.687026
0.8826552
-0.6861006
-0.4332398
-0.4315392
-3.003632
2.335871
1.396857
-19.75921
-0.0745781
-43.23833
-1.529547
-8.938225
1.880836
-24.98419
1.529673
0.2996825
-0.2741592
0.6515313
-12.38389
0.6558742
-3.731693
3.69398
-12.02217
1.368157
0.1899423
-20.97758
1.382647
0.7519777
0.3313246
3.919095
0.161435
-3.387107
0.01919858
0.8590567
-39.67939
-1.617429
-0.3327187
2.144385
0.1120905
0.01867153
-0.02910567
-1.898872
0.1284711
1.001247
-28.09501
-0.463711
-0.1117195
0.4013907
0.3653659
0.7825466
1.041975
-2.166006
1.137909
0.8860614
3.417402
-51.80007
0.3237767
-0.06079851
0.5843584
0.3290951
0.3963513
2.50526
-0.8284396
-54.59034
2.146539
-3.002614
7.984651
-0.1822904
-5.631124
-10.912
0.6450979
0.002444822
-25.25349
1.950142
-9.296731
-16.29648
-5.988102
-4.694907
-0.9366811
1.560556
12.42787
1.254987
1.54949
-47.91234
1.632022
0.7789039
0.227994
-11.26357
22.37934
8.820301
-0.6857471
1.85498
0.376431
-0.3912417
0.06849313
0.280576
-1.667959
-32.42193
-1.492381
-0.3210739
-0.8151825
4.322183
0.6405417
0.06768523
-0.3408878
2.066049
-0.05327926
-0.9716466
4.612156
30.2456
-0.3256547
0.1595093
0.6134655
1.141468
-0.001964055
-0.2658429
-50.53202
0.5307375
-30.4869
-5.042811
-0.7206082
-0.6568328
0.2773445
-4.251032
0.412677
0.2966053
0.3593847
-0.4572298
-5.312423
-48.82422
1.971662
-1.336119
-0.4691643
-0.272746
-1.162084
1.800508
-14.42065
-4.082169
14.98001
0.6618088
0.8744583
-0.2749545
-0.3406058
1.659425
-0.4373353
-0.1289672
-0.04027803
1.330435
1.249061
7.993762
-22.50248
-3.339086
-0.02424784
-1.55331
-1.168029
0.7429845
1.074879
-1.38894
-0.422233
-19.72988
2.595796
1.376928
1.935213
3.220597
-0.8383978
-0.08271802
29.17359
0.5261776
-3.09085
-0.7602269
-62.40126
0.9507472
-0.2158296
0.7774788
0.6538424
31.54411
-0.5502718
1.148121
2.659907
1.026438
-0.9375681
0.9970551
0.08088468
0.01600475
-19.56365
-16.12663
0.1604171
-1.664992
-32.8177
0.03117183
-0.03713123
0.1631721
-13.35979
4.706624
28.2147
-0.02472732
0.6148263
-0.7759041
-0.02183711
0.04204614
10.18117
-1.871902
0.1250323
-0.1655898
-0.6543925
0.3845954
0.3489938
-1.153775
-6.292528
3.139527
-25.45199
2.649556
-21.81362
0.02825763
-11.84464
-1.238745
4.850036
-6.50115
-0.03251561
-20.96054
8.477093
-23.20599
5.271685
1.385125
0.9065208
-8.174927
28.04249
2.136619
-0.1398898
-2.337112
-15.90465
-0.1580353
0.06286879
2.902014
0.5172601
-0.03636311
-28.78789
-3.04792
1.638393
-9.289306
-7.617394
0.04282814
-58.31104
-18.2617
-43.25005
2.504417
-44.26468
1.196436
-0.8857804
-16.30458
0.9417409
-1.660743
-30.59454
-0.01243256
0.2801649
-4.827171
-2.280983
-0.04933622
-58.13129
-43.00648
-2.381534
16.57327
0.3706413
-0.007533803
-16.38939
14.4571
-45.70371
0.03576335
0.3377516
0.1021417
-1.242732
-1.133422
1.507624
1.56058
1.220415
-0.2840579
-60.11177
-69.86625
1.557119
-3.819396
2.278338
0.04240292
0.4150564
2.461297
0.05802937
0.1664855
0.9688986
0.7571551
0.1207471
5.474057
-0.06141191
-18.76521
0.5318572
0.5670613
-36.81458
1.123244
0.6236661
-1.472875
-28.99736
-4.409304
-3.207302
0.02351567
-10.76163
-35.07244
34.64936
47.31276
1.415635
-0.7039588
-41.33415
5.679134
1.109219
0.02658367
10.3856
-34.42599
1.277123
0.8474033
-1.024019
1.913729
1.135894
-4.724823
-2.003629
-20.59122
-63.73633
-9.203784
1.397366
1.633534
1.658094
1.622331
-31.15778
0.3829411
-0.09946596
0.7506508
-0.07894942
-17.14765
2.349612
-35.76141
-20.12547
1.154774
-0.3121635
-1.523951
1.371211
-0.6928665
1.288494
0.05573745
-79.77808
0.266744
-8.995874
-25.0047
-0.3741452
-0.8591255
-33.20162
-67.35634
0.3771106
-19.37903
-3.408459
0.1031647
-0.1736108
-1.849758
0.1783419
1.148359
0.03383314
-4.94138
-0.04208258
-2.018234
-0.01910995
-2.738149
0.2602652
0.1631839
0.1254274
0.04074638
-0.4647757
0.1512987
0.6137307
-45.30998
0.1151123
0.466542
3.381371
0.04226158
1.207792
-8.384908
0.03128798
2.221128
-28.07392
-19.16749
-0.3613026
0.9842058
0.02935359
-0.6114553
-30.34658
-12.7306
6.012244
-33.98337
22.73344
-6.788769
2.635251
-5.807879
-22.57526
0.08059575
3.103028
-87.14956
0.226894
0.3491116
-1.68054
1.55549
5.601634
0.2044822
2.363845
-7.56259
-3.966683
-36.13795
1.200249
-9.918571
33.60667
-13.29921
-7.772653
-0.08628743
1.775941
-4.024163
7.66198
0.6872785
7.061835
-0.5129225
-17.261
-6.791522
-14.25621
-3.086642
0.05924406
-16.45163
0.974416
-61.75075
7.810536
1.205513
18.0746
0.1730699
28.22448
-0.4292293
-17.11129
-0.5661411
-0.8008278
13.81056
-0.184126
-25.98547
-0.9683736
0.3634554
0.514062
0.7262987
1.762229
-8.474675
-5.401498
0.1130165
-30.25328
-3.520475
14.7433
-69.23143
1.666478
-63.54805
-14.00874
-2.902859
-32.85969
36.62075
-0.4064115
0.9419531
-41.10521
-4.467424
-0.1073004
-1.036098
-0.8210949
-16.24447
-82.16414
3.707031
0.4416518
-4.069088
1.355221
0.1107125
-2.367162
1.312293
8.117695
3.032071
-0.2116764
0.5330289
0.1340731
3.083545
1.469526
-1.002737
0.4082344
0.7589487
-39.0614
0.01090873
-0.6527283
0.2599227
-1.436252
-33.87631
1.426595
-0.1447312
1.336374
0.5971225
-0.7799136
-6.370259
0.1068201
0.1541183
-59.04877
21.47736
-2.741336
0.3675122
3.048271
-1.971545
0.6461799
0.2704581
-0.03701869
-0.2399911
-1.137599
-17.59792
0.2720206
-17.28712
2.252912
2.329004
0.3739042
1.106167
-1.380798
-0.1689123
-0.5090926
-1.904046
-39.17755
-22.4722
0.1729892
-0.4211701
-1.45386
-0.02985176
0.1835685
-43.37495
1.108181
0.5786766
-0.2106704
-6.917394
0.2141582
0.6406354
2.260982
-50.53372
-0.2568502
-0.2559925
-0.9232515
-59.46078
-6.843467
-36.98546
-0.2770345
-1.188751
-0.1533113
-0.1656705
2.38832
-37.13059
-29.24962
0.1717254
0.1793355
-15.38605
-0.913322
2.568632
2.14981
1.596552
-0.07678214
-0.3924489
0.234873
-52.17704
-5.822484
-0.3558492
0.06048795
0.9925901
-1.603673
0.1705802
-1.000116
0.6755407
-8.742102
-0.4807209
0.2904769
7.640932
1.251879
-14.31215
0.8387937
-19.54871
-1.962508
-21.97004
0.2921636
-0.3585999
0.05112256
-19.71921
-54.51896
-32.23534
-0.801456
-39.75241
1.017613
-12.15468
-3.7401
0.2816458
15.92503
2.308184
-50.03507
-81.11703
0.944012
1.222567
-2.278306
0.9367231
1.426554
1.114364
0.7189736
-0.8215758
0.6946275
-17.75489
-1.250443
-0.1317742
1.849334
2.454259
-1.460124
0.5690396
-1.680772
1.118696
0.2105661
-22.90348
-0.03112264
2.11157
0.4326043
-0.3006962
-34.7907
-1.240156
-2.014466
-23.05902
-33.38249
-0.3131528
-25.73183
-3.39024
-3.293388
-3.858749
-0.1344101
11.56439
-59.03907
-15.31716
-0.9631421
-0.5874624
19.57252
-3.017602
-0.03424254
1.397224
-1.205332
-0.2213211
-41.46331
-32.29515
-20.63389
9.444808
7.271164
-0.3764149
-49.76737
-49.85701
-75.0817
1.994703
-3.043195
-0.513281
-1.99273
0.1426502
-0.1466121
0.2783911
-0.2262595
0.359154
-0.6591793
0.03165276
0.1926973
-29.61711
0.1372944
0.7463163
-0.6841355
-11.57382
19.28042
0.04270732
-27.23126
-39.29266
-5.643502
4.077182
-8.751742
-5.610807
-14.1349
-66.75615
-0.08150459
-47.44944
0.774902
-42.84924
-16.71608
-1.24983
1.600026
-21.90761
-0.5978298
13.92343
0.1150469
0.03500919
2.196237
-0.242051
-0.5844662
0.4128485
0.2210902
0.4023586
1.536577
-37.80908
-0.01817993
0.6892144
-4.722447
-0.6945066
-0.4433767
-22.63814
0.7298027
-35.72773
-0.04506255
1.423739
18.82844
-0.1919188
0.6605152
-21.91552
-0.6288892
-24.63388
0.9911157
0.005782923
0.7640863
1.028674
-3.987366
-0.070542
3.563047
-4.677778
0.1490748
-0.673303
-0.5378144
23.8211
1.752871
-12.42203
1.162051
-2.004978
-0.3484862
-85.78715
-0.2528645
0.5994814
2.896073
1.815037
0.1430648
-58.70628
-59.76558
-42.62518
0.004213452
3.546351
-29.93138
1.219997
-0.5028782
-8.139378e-05
0.6605489
-3.332773
-38.5617
-3.33587
-59.02777
-0.04922439
-0.5022179
0.1386762
-2.798476
9.099131
0.03981637
0.06906982
1.550136
-0.5343982
-1.185401
14.26225
-0.1279371
-7.40984
0.3016031
1.177909
0.06567781
2.156869
3.178436
-1.095632
-15.07321
-13.16697
1.150396
-0.1309533
-51.31706
2.01902
-0.03896184
-7.703732
-5.148583
0.3390314
0.1307268
-39.42026
-0.003082248
2.131979
-77.12829
25.89286
-5.475458
0.6141148
0.8347916
-32.23515
-0.3020864
1.161746
0.1407662
-12.92011
-0.7447364
0.2816798
0.09517042
-36.14335
-1.110602
20.63846
36.00168
1.113822
-22.87325
-26.04687
3.753523
0.6243651
-0.04053953
33.06425
-53.33089
-0.6756194
3.36508
-1.46124
1.050351
-20.33131
-0.9370339
-1.48775
0.1075008
-0.03493074
-33.62583
0.8307665
1.383045
-19.0465
-22.02195
-14.36246
-3.381328
0.06876299
-83.16786
24.56829
-60.39296
-0.2362438
-7.578978
-2.933992
0.2447474
1.909636
31.48899
-5.000353
-0.1456303
-0.281143
0.1471356
0.0343542
-34.7661
1.422236
-0.06390269
0.008505224
-0.04750897
19.00192
2.571775
-7.86778
-0.6174876
-0.02908686
-10.73823
18.74898
2.65101
5.37733
-55.37611
-29.42372
0.3409385
0.09982571
-75.25117
-14.93561
-37.80836
2.146164
0.7814489
-0.0346673
0.3891734
0.4274933
-18.06701
-1.70909
-0.6331013
-2.307733
-0.008850261
0.02854991
-1.000684
-59.87617
-19.17056
-1.021822
3.090007
0.02137519
-0.3810648
3.96618
-0.7383359
0.4910553
-0.7343749
-19.60285
3.289519
-2.863735
-2.405202
-0.9861121
1.532966
1.665579
-11.58128
3.151648
3.000837
1.142906
34.69263
-0.297874
0.6471198
0.7866504
1.053265
-4.672788
-21.14003
-33.2025
13.92566
0.769181
-0.2548561
0.7217449
0.9154701
0.09123661
0.2779608
0.3833022
1.330293
-0.1500053
-0.1217771
-0.0446386
0.6793686
11.6952
7.60001
1.367533
-2.875176
-2.179772
-1.797524
-2.504125
-21.61712
11.75728
-52.14076
-3.285893
0.4150339
1.654876
-79.42377
42.36735
-95.05041
1.521482
0.9007195
4.154292
-7.473528
8.978598
-24.3118
-0.002065336
3.629419
-0.3761548
2.279727
0.9589712
-0.2023007
-0.8625823
-87.69923
1.759663
-1.019299
-1.578316
1.28322
-62.14952
-34.98288
-18.93497
1.608926
14.99355
-5.36678
-0.25656
-1.226559
-0.09630287
-16.68213
0.1028739
2.95602
32.53318
1.636172
1.317951
1.687968
27.26069
6.224312
-13.16471
2.572746
3.058726
0.01064622
-0.213492
-65.06892
0.271624
-73.83308
0.657294
-1.025677
44.29482
-0.08703326
-0.2222196
1.533001
2.587299
0.5579448
4.381661
-74.59397
40.2887
1.869095
-1.897518
45.01722
-0.3971518
-0.2418511
-0.2226844
-22.99457
0.6743083
-0.0825209
-4.833233
0.2018427
-10.01256
-29.88488
0.5420756
0.689847
0.05686435
1.22588
18.37353
0.9432396
0.6029526
1.360525
0.2263594
-0.4061891
-0.393137
-0.3175544
0.2424946
-0.5865752
-16.03522
-22.80337
-82.3454
-34.24103