/*--------------------------------*- C++ -*----------------------------------*\
| =========                 |                                                 |
| \\      /  F ield         | OpenFOAM: The Open Source CFD Toolbox           |
|  \\    /   O peration     | Version:  2406                                  |
|   \\  /    A nd           | Website:  www.openfoam.com                      |
|    \\/     M anipulation  |                                                 |
\*---------------------------------------------------------------------------*/
FoamFile
{
    version     2.0;
    format      ascii;
    arch        "LSB;label=32;scalar=64";
    class       volScalarField;
    location    "0.8";
    object      p;
}
// * * * * * * * * * * * * * * * * * * * * * * * * * * * * * * * * * * * * * //

dimensions      [0 2 -2 0 0 0 0];

internalField   nonuniform List<scalar> 
15536
(
-14.73031
-15.16389
-12.25716
-5.648965
-1.972008
-3.589774
-8.044588
-12.12791
-14.8414
-18.12419
-19.05038
-17.05151
-14.11582
-13.59145
-15.74448
-19.85723
-26.13832
-32.12785
-40.83222
-52.38281
-54.66203
-42.45278
-20.1495
-3.345977
4.863656
-0.7076793
-16.46657
-27.13901
-38.01942
-64.81879
-117.6419
-162.8925
-145.1685
-77.72841
-68.80822
-96.96745
-111.4637
-110.2529
-109.4003
-114.9522
-120.7241
-124.9077
-127.0995
-127.8186
-127.7356
-126.6344
-124.5997
-121.5156
-117.9337
-114.0192
-109.3562
-104.0536
-98.06349
-91.65819
-84.7661
-77.46609
-70.1422
-62.69701
-54.83276
-46.75278
-38.79496
-30.97269
-23.15162
-15.3914
-7.846244
-0.4124352
6.727277
13.5357
19.8992
25.82262
31.25824
36.20694
40.6212
44.4163
47.55192
50.14503
52.07968
53.41799
54.14215
54.02214
53.23539
51.88501
49.93624
47.35623
44.1915
40.46593
36.23901
31.44046
26.2308
20.66496
14.61314
8.25107
1.652265
-5.336896
-12.45136
-19.49476
-26.65821
-33.92328
-41.10725
-48.28502
-55.29829
-61.96926
-68.25922
-74.24375
-80.01988
-85.30873
-90.08246
-94.29399
-97.94172
-101.0671
-103.4108
-104.849
-105.3499
-104.6649
-102.3837
-98.91228
-97.47961
-102.6785
-111.7392
-110.5634
-93.94906
-71.94674
-51.05121
-56.23024
-117.7288
-147.6991
-126.6428
-85.4546
-58.81523
-47.43831
-41.16464
-34.90526
-28.89858
-27.44353
-29.40484
-31.77962
-35.70594
-41.53598
-45.67357
-48.25651
-49.74822
-50.39308
-50.20786
-49.32274
-47.98704
-46.51576
-44.80916
-42.49947
-39.40966
-35.68805
-31.76715
-27.79851
-24.30166
-21.61954
-19.66775
-18.06209
-16.10287
-14.74042
-15.1858
-12.32118
-5.700744
-1.987579
-3.542769
-8.014609
-12.13939
-14.85
-18.10993
-18.99773
-17.01233
-14.10188
-13.58601
-15.73406
-19.85721
-26.13664
-32.15136
-40.8621
-52.34949
-54.55754
-42.43509
-20.14946
-3.326387
4.862967
-0.8293552
-16.5773
-27.11841
-37.88571
-64.64494
-117.532
-162.9235
-145.1886
-77.60799
-68.88756
-97.05954
-111.5291
-110.264
-109.1452
-114.2513
-119.6468
-123.5124
-125.5382
-126.1698
-126.0428
-124.9212
-122.8841
-119.8085
-116.2417
-112.361
-107.7368
-102.4826
-96.54387
-90.19601
-83.36925
-76.13844
-68.88463
-61.51563
-53.73446
-45.73291
-37.85449
-30.11305
-22.37224
-14.69025
-7.219684
0.1403495
7.204761
13.94352
20.24255
26.1039
31.48342
36.38196
40.75118
44.50946
47.61286
50.18033
52.09569
53.41955
54.13757
54.01792
53.23595
51.89629
49.9633
47.4052
44.26854
40.57701
36.3894
31.63572
26.47784
20.96457
14.97016
8.672621
2.137641
-4.786363
-11.83398
-18.80932
-25.90591
-33.10144
-40.21692
-47.32814
-54.27721
-60.88539
-67.11722
-73.05251
-78.78539
-84.03216
-88.77201
-92.95436
-96.58498
-99.70844
-102.0603
-103.525
-104.0926
-103.5899
-101.6095
-98.48137
-97.39691
-102.6423
-111.687
-110.6752
-94.10755
-72.06392
-51.15679
-56.2236
-117.8752
-147.8003
-126.5652
-85.3413
-58.71783
-47.39965
-41.1822
-34.94702
-28.911
-27.40178
-29.35577
-31.75
-35.69582
-41.54239
-45.6781
-48.26665
-49.75503
-50.39741
-50.21175
-49.3259
-47.98704
-46.51431
-44.80808
-42.49362
-39.4102
-35.6915
-31.7708
-27.79912
-24.29308
-21.59439
-19.61976
-18.00867
-16.09022
-14.8165
-15.11364
-12.26435
-5.731984
-1.978102
-3.519537
-8.027023
-12.21645
-14.9295
-18.19599
-19.01991
-17.01496
-14.10914
-13.57561
-15.70632
-19.839
-26.15056
-32.23519
-40.99398
-52.49058
-54.71367
-42.65311
-20.53427
-3.488794
4.998251
-0.9885045
-16.69036
-27.10379
-37.80671
-64.65993
-117.8729
-163.7732
-146.171
-77.52786
-68.4771
-96.34228
-110.4756
-109.5634
-108.6943
-113.4346
-118.5293
-122.3433
-124.4724
-125.1436
-125.0558
-123.9651
-121.9671
-118.9094
-115.3557
-111.5084
-106.8992
-101.6718
-95.75487
-89.44303
-82.66567
-75.45233
-68.22878
-60.90769
-53.15338
-45.18462
-37.34105
-29.64325
-21.94406
-14.29345
-6.870346
0.456181
7.482708
14.18559
20.45033
26.28012
31.6268
36.49543
40.83728
44.57401
47.65262
50.20275
52.10328
53.41344
54.12508
54.00705
53.23065
51.90073
49.97938
47.43703
44.32041
40.6515
36.49015
31.75994
26.63241
21.15077
15.18373
8.920343
2.420819
-4.475134
-11.48815
-18.42275
-25.48776
-32.65314
-39.72892
-46.81974
-53.73871
-60.32182
-66.53078
-72.4296
-78.13562
-83.35465
-88.07764
-92.24323
-95.85366
-98.9586
-101.2838
-102.7151
-103.2469
-102.6707
-100.8213
-98.02959
-97.1813
-102.4393
-111.582
-110.5492
-93.92761
-71.94952
-50.93313
-56.34525
-119.0457
-148.6601
-126.8819
-85.34104
-58.5928
-47.34746
-41.23404
-35.05626
-28.98015
-27.37891
-29.32243
-31.74812
-35.72536
-41.56391
-45.70499
-48.295
-49.77654
-50.41481
-50.22588
-49.33415
-47.99165
-46.51908
-44.81572
-42.50529
-39.42017
-35.70309
-31.7842
-27.81089
-24.29797
-21.58857
-19.60092
-18.00722
-16.14966
-14.86828
-14.79315
-11.93888
-5.642339
-1.883789
-3.49635
-8.1113
-12.37395
-15.13034
-18.36522
-19.05208
-17.05875
-14.14082
-13.55621
-15.65852
-19.81654
-26.17942
-32.41462
-41.28928
-52.83916
-54.90951
-43.02895
-21.30589
-3.772745
5.464874
-0.9760321
-16.68597
-27.02951
-37.78911
-64.8021
-118.4613
-164.7394
-147.6024
-78.59399
-68.53746
-94.88653
-108.0166
-108.0305
-107.9019
-112.2712
-116.9453
-120.5123
-122.4337
-122.9588
-122.849
-121.7419
-119.7856
-116.7634
-113.2407
-109.4533
-104.921
-99.78161
-93.95101
-87.72176
-81.03565
-73.92132
-66.78792
-59.56805
-51.93217
-44.05419
-36.30325
-28.70596
-21.1062
-13.54281
-6.214658
1.028381
7.971551
14.60299
20.79565
26.55792
31.84454
36.66167
40.9575
44.65951
47.69939
50.22482
52.10486
53.39652
54.10085
53.98582
53.21566
51.89936
49.99338
47.47238
44.38485
40.75133
36.63428
31.9463
26.87705
21.45406
15.54447
9.357268
2.928863
-3.903299
-10.82623
-17.67638
-24.66684
-31.74385
-38.73256
-45.74142
-52.5762
-59.06767
-65.18723
-71.02015
-76.66
-81.80143
-86.46085
-90.56177
-94.14287
-97.21742
-99.52046
-100.9661
-101.5945
-101.26
-99.68732
-97.34522
-96.72369
-101.5161
-109.726
-108.3089
-92.84475
-71.41676
-50.26729
-56.99051
-121.0975
-150.0772
-127.5704
-85.46836
-58.43658
-47.2629
-41.27862
-35.19919
-29.07786
-27.31233
-29.27474
-31.79647
-35.79897
-41.62271
-45.75713
-48.3469
-49.82323
-50.44647
-50.25125
-49.35234
-48.0034
-46.53134
-44.83336
-42.52482
-39.44001
-35.727
-31.8108
-27.83535
-24.31181
-21.58731
-19.57838
-17.97509
-16.21063
-14.86723
-14.33227
-11.3821
-5.443982
-1.694243
-3.46506
-8.332077
-12.62899
-15.48561
-18.62623
-19.1503
-17.17084
-14.20932
-13.53429
-15.59254
-19.75045
-26.19524
-32.71445
-41.84038
-53.51653
-55.47806
-43.59174
-22.29647
-4.026925
6.305232
-0.6170579
-16.42521
-26.898
-37.95556
-65.13814
-119.1145
-165.9124
-148.7405
-81.70996
-70.22415
-93.77574
-105.3624
-106.2748
-106.9143
-111.036
-115.4063
-118.8713
-120.8562
-121.4239
-121.3363
-120.2086
-118.2918
-115.272
-111.7022
-107.9845
-103.4423
-98.33989
-92.51898
-86.34176
-79.7283
-72.63566
-65.55346
-58.4268
-50.85944
-43.03193
-35.3491
-27.84449
-20.3269
-12.82338
-5.586667
1.592428
8.46118
15.0234
21.14131
26.84298
32.07051
36.83531
41.07713
44.74214
47.74014
50.23752
52.09387
53.36242
54.05832
53.94658
53.18395
51.88836
50.00284
47.50611
44.45084
40.85352
36.78317
32.13689
27.13349
21.76609
15.90079
9.796378
3.439872
-3.356159
-10.20132
-16.96909
-23.90682
-30.92378
-37.8304
-44.79818
-51.58242
-58.02102
-64.09632
-69.88144
-75.50202
-80.60362
-85.25794
-89.3479
-92.92084
-96.03956
-98.31123
-99.75317
-100.3334
-99.97384
-98.56126
-96.54504
-96.06597
-99.97894
-106.4674
-104.7669
-90.76769
-70.98414
-50.43881
-59.08766
-123.4987
-151.891
-128.6308
-85.7737
-58.33652
-47.1133
-41.25285
-35.29664
-29.13433
-27.15602
-29.1647
-31.88354
-35.9616
-41.72301
-45.85778
-48.43896
-49.90196
-50.50012
-50.29358
-49.38637
-48.03065
-46.56098
-44.87234
-42.56796
-39.48453
-35.77608
-31.86131
-27.88327
-24.34454
-21.60139
-19.5681
-17.96671
-16.27769
-14.86224
-13.91397
-10.90522
-5.196395
-1.427294
-3.496165
-8.660712
-13.03581
-16.02505
-19.00664
-19.33075
-17.37164
-14.31719
-13.51829
-15.51858
-19.6371
-26.10391
-33.04646
-42.6819
-54.71226
-56.51622
-44.44914
-23.48364
-4.245446
7.071549
0.1118144
-15.80878
-26.75274
-38.50178
-65.50659
-119.0178
-165.4178
-148.699
-85.90757
-73.80785
-93.14541
-102.8204
-104.39
-105.5305
-109.3155
-113.2498
-116.4371
-118.2679
-118.4988
-118.4237
-117.3237
-115.5357
-112.5738
-109.0409
-105.4845
-101.0421
-96.07804
-90.3566
-84.27791
-77.78619
-70.78349
-63.82472
-56.84738
-49.38799
-41.65623
-34.10045
-26.71717
-19.31654
-11.90095
-4.797604
2.29624
9.056201
15.50974
21.54406
27.18347
32.33541
37.03077
41.19615
44.82693
47.7736
50.23207
52.06393
53.30271
53.98815
53.88039
53.13253
51.85721
49.99905
47.533
44.5178
40.96632
36.94615
32.34257
27.43352
22.14293
16.31257
10.30715
4.078727
-2.664258
-9.418328
-16.05821
-22.8994
-29.8354
-36.6302
-43.50387
-50.19128
-56.52901
-62.49122
-68.18488
-73.74104
-78.72624
-83.30555
-87.29132
-90.77844
-93.79852
-96.02164
-97.43012
-98.19207
-98.0877
-96.9814
-95.37846
-95.09563
-98.17228
-103.1155
-101.2313
-88.88044
-71.19866
-52.32842
-63.06643
-125.9162
-153.6164
-129.8436
-86.19217
-58.36849
-46.94785
-41.08846
-35.21223
-29.02816
-26.84035
-28.93423
-31.98742
-36.23968
-41.90481
-46.02915
-48.59001
-50.03026
-50.58463
-50.35035
-49.44021
-48.08223
-46.61683
-44.94474
-42.64905
-39.56911
-35.85838
-31.9441
-27.96375
-24.40465
-21.63529
-19.56766
-17.97105
-16.33764
-14.88866
-13.57913
-10.43871
-4.880904
-1.120353
-3.608262
-9.170775
-13.64771
-16.78171
-19.5398
-19.62131
-17.70722
-14.51325
-13.48148
-15.43741
-19.3847
-25.85565
-33.25176
-43.82813
-56.66673
-58.3363
-45.8241
-24.9323
-4.73411
7.206478
0.8726323
-15.22252
-26.90461
-39.53343
-65.27246
-115.7576
-159.0288
-144.6765
-89.48829
-77.83316
-92.41005
-100.3088
-102.4212
-103.9723
-107.5295
-111.1165
-114.1124
-115.9865
-116.2277
-116.3241
-114.9679
-113.1929
-110.2086
-106.5746
-103.1477
-98.678
-93.83887
-88.13856
-82.07814
-75.73339
-68.86651
-61.97677
-55.07264
-47.77286
-40.19202
-32.72638
-25.39878
-18.2045
-10.86853
-3.926391
3.084561
9.692388
16.0402
22.06097
27.57425
32.61348
37.21395
41.30686
44.95933
47.79793
50.20747
52.01403
53.21064
53.88304
53.7916
53.06452
51.77424
49.93925
47.51484
44.55505
41.08524
37.13323
32.55108
27.74147
22.57965
16.82895
10.86133
4.735717
-1.84971
-8.529138
-15.07518
-21.7966
-28.57208
-35.32982
-42.13051
-48.66289
-54.93997
-60.77899
-66.39403
-71.93118
-76.81554
-81.38851
-85.31297
-88.82827
-91.9668
-94.19225
-95.72244
-96.36638
-96.30411
-95.39526
-94.10115
-93.93178
-96.23066
-99.86325
-97.77316
-86.94039
-71.81992
-55.99382
-68.39121
-127.8918
-154.3743
-130.7345
-86.10729
-58.54396
-46.84405
-40.75799
-34.81113
-28.62958
-26.31809
-28.54942
-32.10252
-36.65595
-42.2283
-46.29909
-48.83566
-50.23192
-50.71637
-50.43503
-49.5096
-48.1728
-46.71949
-45.07326
-42.78688
-39.69065
-35.96385
-32.05724
-28.07704
-24.49783
-21.71285
-19.60269
-18.00123
-16.42124
-14.93492
-13.2978
-10.1695
-4.578559
-0.827089
-3.956072
-9.886056
-14.49645
-17.76071
-20.2978
-20.05077
-18.27311
-15.04459
-13.3479
-15.25516
-18.95755
-25.30095
-33.54011
-45.74113
-59.56246
-61.16102
-47.93376
-26.98326
-6.132889
6.12897
1.091894
-15.14598
-27.24554
-40.56322
-63.68284
-107.5382
-143.4587
-134.2157
-91.31411
-80.95707
-91.2059
-97.68197
-100.0818
-101.7989
-105.0747
-108.1951
-110.8033
-112.7897
-112.4116
-112.3908
-111.3574
-109.7273
-107.0295
-103.1282
-99.94628
-95.63948
-91.01225
-85.27883
-79.3093
-73.38709
-66.70987
-59.52841
-52.84616
-46.01114
-38.61617
-30.93551
-23.76874
-17.05015
-9.678154
-2.9919
3.98537
10.30963
16.77418
22.77678
27.97169
32.86255
37.33794
41.42898
45.1266
47.76185
50.18011
51.93684
53.08008
53.74289
53.68887
52.93822
51.64075
49.80497
47.43291
44.53387
41.15701
37.37709
32.78001
28.04026
23.04211
17.58755
11.65303
5.297799
-0.9874448
-7.345739
-14.01809
-20.66604
-27.00942
-33.63571
-40.70916
-46.80946
-53.0935
-58.77277
-64.22397
-69.7589
-74.41641
-79.02341
-82.71385
-86.11795
-89.25616
-91.30079
-92.62132
-93.54333
-93.81479
-93.22758
-92.30483
-92.2708
-93.8611
-96.44964
-94.14575
-84.87292
-72.51792
-60.6131
-74.2407
-127.6118
-151.8057
-129.4038
-84.32067
-58.64193
-46.78474
-40.28866
-34.07662
-27.93515
-25.62858
-27.97061
-32.2079
-37.21032
-42.7156
-46.69355
-49.24252
-50.52437
-50.89348
-50.52325
-49.62597
-48.30398
-46.87225
-45.27492
-42.9684
-39.8321
-36.13728
-32.24251
-28.25041
-24.64305
-21.87681
-19.72735
-18.04684
-16.51367
1.693041
0.9728872
-43.83086
-0.1620932
9.88836
2.218772
0.1820732
-0.6506983
7.437148
-1.165241
-3.617029
-0.2884073
-0.7009212
-0.05847121
-0.1290245
1.717877
0.05684003
-2.032422
-0.08387021
-0.9666496
-54.43117
0.0190055
1.005608
-1.275487
0.09472196
0.05832377
-1.267287
-0.8293368
-4.543498
-0.01234372
-0.08529594
-22.78018
0.07828221
0.0302848
0.003186085
-3.308094
0.02415879
0.03361831
0.006401805
-4.249841
-18.19178
1.800558
0.9349977
3.479528
28.91567
0.07030684
-0.001212595
0.1340685
0.1959431
-0.9263485
0.0417298
0.04218239
-0.4755652
-0.003120495
-0.001340174
17.67126
0.7528673
0.03914951
-10.32662
-14.6978
-0.6864859
-0.004894742
-29.9789
-0.0879142
14.5674
0.06197457
-37.27475
0.005814953
0.06210416
0.02120677
-0.4210574
0.01011048
-17.91302
-55.9718
22.70895
-0.01156359
3.629868
-1.617797
0.04269171
-0.02096537
-15.26901
-0.006313049
2.368072
0.01119892
-6.943541
-0.1084323
0.06884631
-1.014562
-60.86184
0.01806259
-11.36978
25.11622
0.08771753
-0.0009185689
0.1135016
0.0143127
-27.51652
5.624186
-53.58131
0.1477887
-0.4048327
-0.9708101
0.00754216
-74.06316
0.00416194
-20.77461
0.006174677
0.0332986
-6.352741
-6.108018
-0.7774224
1.615973
3.004585
7.003664
-27.65662
0.001579174
-0.004240229
0.006336828
24.29435
-0.008496728
0.9230363
-0.01037842
-0.2046338
0.009472582
0.007974412
18.15697
-0.5532142
-35.31382
0.2596336
0.04974054
-0.0240656
0.05782454
0.002376742
-0.3047049
0.1365894
-39.52519
0.02732199
3.759389
-0.3324974
-0.0001151404
-39.76695
0.6125528
-55.94723
1.080439
0.002406345
0.06376349
-1.399391
-35.3179
-0.009659874
-0.3918008
0.09073083
-22.87029
-20.0004
0.0465358
-0.2539724
-56.92076
-0.01050031
0.00297707
-0.01440804
-39.12527
0.015689
-48.15221
1.588826
-1.93121
0.1010027
-12.34874
-19.36826
1.592416
-38.5501
0.007503148
0.1603173
-25.6452
-2.911817
-42.3992
-3.61732
-25.57545
1.189205
0.10974
-23.0875
0.02419364
14.67743
-0.4691443
0.02257889
0.010034
4.145603
-40.38326
0.1126354
-0.03700078
-1.615901
-0.17691
-0.238355
-0.4633326
-4.675545
-1.190684
0.003377719
-0.02500388
0.02424786
0.6930769
-1.343834
-29.84825
-1.192223
0.1046941
1.344688
-19.53514
0.2730038
1.266372
-5.654229
0.06017866
-7.124019
0.0008789181
-0.03148781
0.04453812
0.4215355
0.1504236
0.003212359
-11.71848
-8.744603
-0.8392354
10.71063
-0.0709043
0.1601691
0.2672016
2.015235
0.04780114
-1.727366
-3.343962
0.08480993
7.484184
0.007690622
16.66393
-8.039219
-34.33322
1.364828
-0.0009075004
-77.98363
-0.01388819
22.24185
0.07609131
2.049166
0.6232498
-0.326762
-0.2017995
0.001317788
-13.95652
-0.2723498
-15.75076
0.0694001
-51.65225
0.0006568112
0.9256097
-30.41657
1.019053
-1.137659
-0.8436711
2.276927
-24.98141
1.3153
-0.03595483
-60.60497
-1.193213
-8.981952
-0.009488622
0.1915243
0.04809823
-0.08911127
1.26536
-0.06286185
0.005810433
-12.00828
-23.19989
-0.004328009
-0.006693576
11.97017
-0.7834072
0.04422918
2.415965
0.5276076
-30.06026
-39.89926
-0.1054319
0.0804281
0.9825927
0.05945103
0.03745578
0.05323389
-0.008196042
39.8725
-0.3107834
0.9151373
0.0101286
-0.2109928
0.003262836
0.07048302
0.07914027
-47.38752
-0.0009002145
11.26845
0.001011725
0.1241304
0.4421902
-37.91233
0.03755537
0.01488712
3.020182
0.210162
0.003328862
0.01200805
0.04753527
0.1054661
0.06761301
-5.071186
-1.502265
0.0203718
0.1745423
0.04048976
-10.42099
35.15086
-49.30615
-28.13894
-82.25016
-0.05718363
0.01148259
-1.470925
0.008593801
-0.01169109
0.01128546
-0.007143572
0.0006174786
0.04019857
5.551075
19.00435
0.004280563
-6.005162
-29.49186
0.06128452
0.7201509
0.04216291
0.002725591
-1.883199
0.02900709
-55.73099
3.002023
1.201131
-1.285214
-11.14251
4.384422
-6.527154
-0.3222291
-9.026187
0.0002880883
0.01891437
0.02017116
12.10127
0.001016717
0.6262862
-27.71934
-45.32616
0.004679
-0.09251424
0.09786363
0.1156824
0.1199464
0.02570134
1.452278
-0.7781681
0.9647701
0.4078944
0.04408951
-0.2479546
0.235853
-1.95581
11.27172
-33.87379
0.03199854
1.025754
1.149645
0.0282104
0.3434841
-0.3851442
-0.3399998
0.04932996
0.487589
-0.002114694
-18.5772
-0.00204121
0.1084117
0.1345996
41.93949
1.449245
0.01276932
0.05700855
-0.09293076
2.42197
-47.17983
0.001644815
-0.7046921
1.202266
-0.06932382
0.01513057
0.01831732
1.164528
-1.034263
-26.21962
0.02828033
0.0137363
0.06005734
-44.63371
-42.92663
0.61722
0.2332048
-0.01476901
-0.0688256
0.006711134
-0.5735582
0.9691385
-0.5711002
2.495532
-0.1185332
-0.01033956
-26.95024
-0.975419
-0.00346254
2.800441
0.0222858
-0.2956182
-23.7653
0.003159981
-0.2523568
-45.92161
0.1077525
-51.0512
0.04503046
0.03676371
-0.01101273
0.1935673
0.08927416
0.007130135
-4.218005
-0.01162175
-0.933421
0.02016774
0.009939106
0.05537177
0.0245686
-3.200411
-0.01877823
-0.005679902
0.008182859
0.04067545
-0.0107378
-0.6888278
-40.39449
-0.0356456
-13.66523
0.0331069
0.01286654
0.004297236
3.799867
-0.0128897
-15.6159
-0.1721663
-47.16245
-1.489189
0.03151875
0.04058639
0.01449714
28.96131
-0.007174448
2.288965
-0.9538147
-8.281981
-0.7757464
-0.1216446
6.809156
0.02604839
-16.7479
0.2036326
-41.49994
0.01140562
-0.06718222
-0.4369396
0.244022
0.009112451
0.01346791
0.2040122
0.05430663
0.008764086
15.79821
0.0005382042
0.3224205
0.043343
-21.3586
-3.043695
0.005554471
-16.64961
-0.2733581
0.0009546479
3.449451
0.05212941
3.019803
0.05252943
0.03589091
0.006110212
-3.490877
1.96347
-0.03370412
-0.730292
0.3082594
0.1903163
0.07012765
-22.47695
0.8636734
9.535191
-1.041127
0.09613309
0.06013974
0.08347938
0.02174423
0.01019434
-0.03202325
-0.2140991
-0.01284913
3.600996
0.01652132
0.1154471
-0.7189952
0.02517071
-11.77792
-0.005793651
-0.0004832594
-22.84266
-4.321083
-25.06832
-0.01865887
3.383672
4.039059
2.906725
-0.002035905
0.0309986
-0.05492308
4.278215
-0.009283315
0.8087545
-0.4128202
-58.01258
1.712513
3.48369
0.01610817
-0.005043439
7.972159
0.01268344
9.441428
0.06209829
-2.220324
-46.7881
0.005084081
-0.8139137
-15.69198
15.37186
-12.10693
0.002769651
0.1444119
0.03965052
0.07014966
-0.006508731
0.01491725
-0.1296755
3.393962
28.14455
0.04677014
-0.06729966
2.237649
3.306136
-52.55117
0.004978573
2.000202
0.1219328
1.627214
0.03923445
0.0491617
-0.2441138
0.04240265
4.965494
-0.01470369
-0.7305998
-19.17715
0.305569
0.01545668
-68.20781
-2.720258
-0.8025503
-15.87309
0.106248
-0.000883952
-0.006395041
0.004116652
-0.2495429
-63.6138
0.04268931
-0.001459012
-0.03522761
2.973581
0.004886806
-0.001960326
-0.7118501
-19.87494
-10.91994
0.02326159
-24.53093
0.1686259
4.5125
0.016835
19.07494
0.02938308
7.756284
5.30683
-0.2723992
-2.471217
-40.00745
2.773199
4.811038
0.03598014
-0.3891526
0.01620527
0.1293849
17.65604
2.152021
-0.02899304
0.02658068
-1.555441
2.215181
-41.60048
-12.20389
0.1059957
-40.90481
-6.567242
2.188037
-0.6833411
-0.0958302
0.04021228
-0.04343292
0.004820336
0.01703867
0.4669849
0.03188835
1.180739
0.08528344
-52.04428
0.09897694
25.63865
3.153982
-41.48244
0.02188426
-14.18647
6.508305
-1.886108
-20.51188
0.01403449
-0.03225605
-16.27365
-1.313117
-1.008778
0.6484688
0.1927818
0.04159361
0.002476883
0.5078486
0.7008525
1.514024
-4.978574
-0.006364329
0.0191056
-70.19729
0.117373
-0.0264044
1.157821
-49.61436
0.008414373
0.4030069
8.223619
14.30388
13.65217
1.524832
0.2284494
0.02827107
0.01772933
0.03165587
-1.655224
2.047666
0.03308836
-28.19253
0.011006
-28.80511
0.02308881
0.05442415
0.1400019
-43.79008
1.698545
-0.5930585
-1.41606
0.1487362
-6.310588
-6.34327
-5.883287
3.862879
-19.83552
0.6038203
-0.0983947
-24.50036
0.314619
1.150917
0.6813655
0.3891456
-0.05390641
-5.478113
-0.2184949
0.1031688
-40.59187
0.02889756
0.02183134
0.2937806
0.0004842831
-0.1420349
-0.05452088
0.02873569
-0.8089344
0.01659011
-22.07445
0.009979375
-0.03269418
-0.6249038
-0.5201968
-0.1283139
0.03816624
0.03207313
1.840569
0.1205028
2.623677
-3.221934
-0.6807908
-0.002100256
0.01910379
0.01602067
-0.03585559
3.894237
0.01885368
-44.23281
1.62297
-3.252575
6.220709
0.01375962
-16.46567
-0.49607
0.2674279
0.008452395
-87.28769
0.2794453
-11.89748
-19.73978
-4.021119
-3.082686
-2.214521
0.9148986
13.658
1.795019
0.01098888
-38.48606
0.2120047
-0.3384262
-0.1331959
-6.679653
22.44981
-15.02058
0.04424683
1.262518
-0.6450823
0.01626058
0.008193446
-7.670153
0.0396353
0.1380568
-0.4228681
0.02374013
-3.392556
6.028975
-0.1015552
0.0462611
0.01885041
0.1040121
-0.1973214
-0.5220974
-23.20468
31.434
0.01223986
-0.005157018
-0.118434
0.04382752
0.008630359
0.03310662
-28.96233
-0.08550743
-52.19624
-10.1014
-0.5742612
0.0173264
0.009438226
-9.957472
0.7406338
0.03746651
0.008478643
0.02861947
-12.53076
-61.23643
0.1359596
-0.5052915
-1.754723
0.006012826
-0.6752875
1.10981
-0.8229903
-2.225238
13.76949
-0.02025941
0.01799082
-0.3276676
-0.232068
1.85018
-1.580827
0.003079713
-1.142803
0.3637722
0.0632037
8.14146
-45.66684
0.07604673
0.007811159
-15.48041
-0.4935555
0.009544414
0.01357973
-2.842575
-1.61441
0.07772871
1.826282
0.6571064
1.019005
2.869754
-0.6384823
0.03835271
33.34821
-0.009971449
-1.516364
0.02282859
-72.81238
-0.07413865
-0.0201265
1.334319
-0.4440362
35.12309
-0.4515827
0.05806862
0.3651769
0.02208598
0.02809681
-0.1970759
-0.04463237
-0.03433886
-22.26819
-13.3799
-0.02077459
-3.161182
-45.31056
0.002559368
-7.965267e-05
0.02109033
-9.501462
4.301174
32.65998
0.01095529
-0.3897091
-0.143203
0.009690383
0.00453392
8.138308
-0.9708857
-0.07847267
0.008418629
-0.5017672
-0.4792879
0.002249424
0.03944754
-8.483468
0.4398722
-29.75884
2.166133
-4.354702
0.002566236
0.1852983
0.02648524
0.1571318
-15.2279
0.009896356
0.07531863
11.01106
-19.27245
4.215906
0.1166441
0.0003869882
-12.98412
25.27536
0.3461244
0.007681841
-5.308769
-52.41293
0.005556457
-0.001932209
1.676193
0.9819802
0.4022518
-26.36914
-4.776226
1.703852
0.05684986
0.05354991
-0.002568755
0.4566927
-21.40921
-57.43472
1.980566
-38.7125
-0.8480896
-0.7179381
-19.36712
0.0119718
-0.6640926
-30.83911
0.002032027
-0.002046384
0.1076558
0.5119458
0.001559847
0.5082026
-30.71228
1.215303
14.86124
0.8441724
-0.0005926762
-13.8989
21.61711
-10.1495
0.01281705
-0.1926969
1.599462
0.02066493
0.01579656
0.3030236
0.205883
0.05475327
-1.419376
-56.50889
-72.45039
0.1495107
0.1077044
1.886338
0.005060642
-0.5067231
2.185039
-0.03861729
-0.005127784
-0.2705614
-0.3142449
-0.008527751
-3.270402
-0.03116345
-8.406574
1.066269
-0.3217619
-53.06742
1.329437
-0.01409769
-2.876127
-27.83568
-4.200735
-1.871328
1.52785
-15.37119
-39.24171
33.65681
48.70982
1.967486
-0.7446949
0.1510263
4.939151
1.296906
-0.006268567
11.63694
-31.09018
1.579022
0.04158867
-0.3672225
1.707549
0.04860713
4.730625
-0.1387942
-25.85007
-49.62979
0.1407679
0.8301736
0.1139478
1.77447
1.066093
-57.85723
0.01680082
-0.03560271
-0.1621892
-1.244146
0.07933045
0.09036918
-36.75703
-22.15797
1.329904
0.0736101
0.02509507
1.77423
0.0273844
1.45006
-0.0008958533
-71.86373
0.7475503
-67.02262
-33.37563
0.354846
-0.1358512
-48.39263
-58.46887
-0.7476921
0.1339128
0.09644658
-0.08351365
-1.469084
-9.774021
0.00583237
0.04373187
0.03045887
0.08464742
0.01534787
-1.043621
0.3958752
0.03026252
-0.6635181
-0.008701749
-0.01268541
-1.079554
-1.627117
-0.02260596
-0.424137
-0.5447314
-0.8955482
0.0087649
2.905849
-0.02022767
0.3788837
1.652762
-0.003418349
0.05011839
-22.31746
-22.45632
0.008223723
0.03585557
0.002674763
0.01590049
-27.08389
-10.10054
-25.54871
-28.75628
24.28571
0.03917693
2.978175
0.1030696
-19.68672
-0.01593315
2.983159
-69.46572
0.04683584
1.029219
0.3578523
-0.5461687
4.286641
-0.7684608
0.104606
-37.73461
0.03756023
-30.37034
0.5899323
12.04621
38.45333
-10.5719
-5.7259
-0.04072824
1.196029
0.08697747
7.541319
0.1051693
7.369311
-1.702894
0.08141467
-9.329464
0.0805992
-1.821523
-0.0783269
-23.50036
-0.2703735
-56.08472
7.446551
0.8401573
11.06693
0.04221927
32.10107
0.02907802
0.2041318
0.009855091
-1.781563
15.57389
0.2855985
-78.23987
0.01697948
-0.01008482
-0.04441718
-0.03121257
0.1766574
-10.89461
1.553403
-0.000688645
-33.09813
0.105814
21.39321
-9.681839
2.062073
-69.62221
-16.91514
-4.689024
-18.63299
41.10374
1.245289
0.04988961
-34.85483
0.09239635
0.01062877
-2.352383
0.1656253
-22.88334
-68.58119
0.3797666
0.9562526
0.08457809
-0.07625041
-0.0527685
0.03090106
0.4418168
3.159295
2.306917
-0.007471523
0.0154047
-0.007073654
0.05244672
0.3655502
0.03321458
-0.3068437
-0.4021307
-51.8465
-0.001224355
-0.802849
-0.006948821
0.2119937
-30.23002
1.509674
0.004999466
0.7257492
0.01719732
0.01434103
0.09090025
-0.08365223
0.02509645
-45.80427
29.67808
-1.460722
0.0350234
2.47432
-1.106528
-0.147201
-0.191934
0.0072464
-0.4300342
0.02206544
2.651427
-0.1461532
-13.55788
0.3240479
-4.555413
1.603262
-0.3113129
-0.8471023
-0.5090768
0.4509417
-0.3339188
-30.17127
-1.492935
-0.0004797758
0.01889116
-0.8236273
0.0052472
-0.2849963
-5.389517
0.2836387
-0.05007766
3.344519e-05
-9.642254
-0.003810773
0.04985578
2.482502
-59.62691
0.002797019
0.01139489
0.0194306
-74.3396
0.05115232
-30.89662
0.02038065
0.02088747
-0.1578949
-0.279393
1.785726
-26.99852
-55.59291
-0.007333342
-0.01385972
3.17714
0.02117299
1.989693
1.845684
2.267349
-1.271149
0.009461334
-0.147276
-32.42364
0.08620686
0.05264234
-0.370325
-0.310961
-0.954196
0.6096913
0.05188259
-0.1270204
-11.46163
-0.6005845
-6.106135
10.42027
-0.1012169
-11.16897
0.02291506
0.05478798
-1.060792
-26.66477
-0.7049923
-1.48883
-0.008457522
-16.24277
-49.55396
-50.01352
0.02599398
-54.00877
0.1724256
1.657585
-2.280557
-0.6639567
16.47895
0.3377244
-50.11519
-64.1647
0.03318872
0.03830467
-1.067096
0.02870641
0.04203161
0.0291855
0.1859339
0.0148424
0.02166753
-12.60181
-0.8050586
0.05327616
0.3067702
0.5743364
-0.5886383
-0.1403459
0.02320946
0.05578846
0.9281342
-13.79001
-1.047293
1.390055
-0.6011017
0.00994508
-36.24745
0.04935575
-4.522908
0.06490432
0.08025687
0.01483934
-29.3974
-5.942437
1.827451
-5.262957
0.001632815
10.62234
-49.86984
-18.4588
-0.7425917
0.04242431
17.20345
-1.409807
-0.02313759
-0.05063077
-2.590156
0.008765191
-47.81603
-28.16654
-17.59634
13.32799
9.285662
0.007337848
-47.25675
-41.41935
-62.03297
1.804253
-6.039968
-1.683049
0.06674708
0.0004559445
0.01220244
-0.005143635
0.01196051
-0.05867434
0.0480123
-0.03831107
-0.01051161
-23.79711
-0.001205814
-0.1831797
0.02532509
-23.10314
20.15626
-0.0008869492
-47.25125
-31.20458
-13.29567
10.35316
1.579224
-7.801066
-11.62684
-57.33696
-0.03641967
-24.9867
1.046766
-59.92874
-26.3854
0.02035498
0.1679547
9.694567
0.02618513
14.45357
-0.03266931
0.006685092
1.793455
0.001273852
0.01892138
0.0177028
-0.08836302
-0.4852795
0.142975
-39.13158
0.006389329
-0.08538175
0.1176829
0.0112175
-0.005267873
-15.42436
0.06856681
-48.54538
-1.07279
0.71587
27.04671
0.009254902
0.957023
-25.32262
-1.847327
-63.21354
0.1661067
0.01069017
0.04045426
0.03526213
0.1915156
0.01169162
0.2502513
4.256426
-0.007411325
0.03993222
0.01064723
17.84156
2.362194
-21.78266
7.48355
0.4061256
0.01714392
-68.3904
0.03482853
-0.07650065
2.36728
1.593375
0.05401769
-48.50513
-43.0601
-33.49936
-0.002837146
0.05774816
-57.3568
0.5669856
-19.67855
-0.5913794
1.204517
-0.1665162
-32.3788
0.08134849
-69.44193
0.5184941
-5.261042
-0.01324231
0.241428
9.696476
-0.0928241
-0.9389105
0.1635815
0.01968562
-0.7128284
17.03681
-1.212586
-21.2744
8.65253e-05
0.1272406
0.01496767
0.2592335
0.3354325
-0.2733293
0.0502321
-3.32773
0.3794745
0.002196655
-49.29489
0.1337947
0.005578599
-3.836205
-3.27925
-0.128825
-0.06753032
0.03032242
-0.003110356
0.2948136
-61.76465
28.31805
-7.549969
0.02074079
0.01877418
-29.01027
0.006247164
0.3050293
0.1407451
0.1261866
-0.5355053
0.6177958
-0.3460772
-24.36215
-0.3383267
21.52137
33.33398
1.586732
-0.07788056
-0.118252
0.2464952
1.047394
0.01165017
33.91896
-45.45016
0.01612868
0.1740974
0.0351939
0.3486411
0.0538778
0.0225398
2.522421
0.8900167
0.09025751
-42.22706
-0.02268692
0.8440399
0.06985256
-1.827014
-11.38461
-1.996647
-0.004209223
-66.88289
32.28788
-57.49039
0.1071136
-9.88646
-4.631275
-0.01419603
1.179491
33.55294
0.1382576
0.01545981
0.3678031
-0.8338106
0.003048732
-20.35855
0.1265374
0.006104464
-0.00368825
-0.04514916
20.11338
0.05820675
0.1333304
0.1439004
0.004258938
0.06760883
20.66884
2.737968
7.715721
-38.43107
-27.20149
-0.0004526131
-0.01692501
11.50574
0.07587855
-37.70888
-4.870958
0.03033655
1.402447
-0.4912249
0.3805628
-11.07838
5.103492
0.2387079
-10.54609
0.004036965
-0.0554426
-2.319136
-52.56985
-16.25869
-0.07113842
2.717477
0.001141167
0.00383376
0.2006446
0.04732879
-0.2201145
0.3368472
-60.05546
0.3438272
-1.634531
-1.306826
-43.08672
0.8415534
1.113599
-8.828054
3.292283
0.7246016
0.2010425
38.11484
0.007285695
0.003513847
-0.3911705
-0.2113482
-51.07345
-27.22283
-41.42904
13.23349
1.277624
-0.02689831
-0.06123695
0.00492976
-0.00390569
0.8156725
0.005065258
0.02824796
0.4778693
0.5398118
0.00542032
-0.314914
11.99446
8.202255
0.02946775
0.03398871
-1.058978
-0.8168432
0.02887708
-0.4731107
4.173726
-40.02435
-54.24674
-0.1166196
0.1434789
-65.1211
43.73941
-76.18997
0.8594634
1.372195
3.8736
0.08891365
8.376717
-21.36805
0.003317081
3.3198
-0.01264971
2.792993
0.03204345
0.0004516041