/*--------------------------------*- C++ -*----------------------------------*\
| =========                 |                                                 |
| \\      /  F ield         | OpenFOAM: The Open Source CFD Toolbox           |
|  \\    /   O peration     | Version:  2406                                  |
|   \\  /    A nd           | Website:  www.openfoam.com                      |
|    \\/     M anipulation  |                                                 |
\*---------------------------------------------------------------------------*/
FoamFile
{
    version     2.0;
    format      ascii;
    arch        "LSB;label=32;scalar=64";
    class       volScalarField;
    location    "0.32";
    object      p;
}
// * * * * * * * * * * * * * * * * * * * * * * * * * * * * * * * * * * * * * //

dimensions      [0 2 -2 0 0 0 0];

internalField   nonuniform List<scalar> 
4529
(
-2.671567e-07
-1.180223e-07
5.217724e-08
9.759123e-09
-4.998736e-07
1.048632e-08
-9.477948e-07
2.912987e-08
-6.047587e-07
2.470975e-09
-3.289424e-07
2.957242e-08
2.666933e-08
1.885259e-08
-9.24222e-08
-1.269809e-07
1.134017e-07
-7.299181e-07
-1.598539e-07
2.825256e-07
-5.876107e-07
-1.888535e-07
-3.484844e-07
-2.172827e-07
-3.810868e-08
6.831199e-08
1.564536e-08
-3.33987e-07
-1.185413e-09
-1.238802e-07
-4.235866e-07
-2.009601e-07
-3.091144e-09
1.972892e-09
-3.282665e-07
-5.05026e-07
1.628543e-08
-1.079976e-07
-1.07828e-10
1.779814e-08
1.653139e-08
-3.612731e-08
-1.033687e-07
-2.541118e-07
-7.975989e-08
-7.002907e-08
-1.510784e-07
-1.851224e-07
-2.513206e-07
-6.402086e-07
-8.067256e-08
-1.890152e-08
-1.664413e-07
-1.995981e-08
3.754768e-08
2.095223e-07
7.080215e-08
-3.195789e-07
-4.588947e-07
-4.433996e-07
1.705206e-08
-7.376644e-08
-7.953226e-07
-2.844066e-07
1.344389e-08
-9.282216e-08
-8.897516e-09
-5.514407e-08
-8.902696e-08
-6.524525e-07
-3.78997e-07
-4.20228e-09
-1.964206e-07
2.815785e-08
-1.853015e-07
-8.250653e-09
-1.835113e-08
-1.150648e-07
-1.061707e-07
1.289233e-07
-3.453311e-07
2.711247e-08
-4.288111e-07
1.670594e-08
-5.482157e-07
-7.740873e-07
-3.633204e-07
-3.128147e-07
-4.860453e-09
3.697557e-08
-1.840671e-07
-3.085006e-07
-1.100333e-07
-4.25755e-07
-5.999567e-07
-1.067569e-06
-7.869127e-07
-4.972001e-07
-1.893887e-07
-3.417654e-07
-1.026629e-07
-8.347992e-08
-1.708234e-08
-4.583082e-07
-3.184271e-07
-1.022966e-07
-8.725699e-08
1.060263e-08
-8.936323e-08
-2.779011e-07
1.205591e-09
-1.382436e-07
-7.330488e-07
-3.116877e-07
9.313955e-08
-2.074059e-08
-1.133616e-07
-2.679094e-07
-7.674491e-07
-6.883484e-08
-6.684821e-08
-5.417959e-09
-5.218391e-08
-1.28745e-07
2.935665e-08
-1.020906e-06
2.035373e-08
-3.117214e-08
-1.055404e-08
-3.121865e-08
7.748485e-09
-1.319581e-07
-1.05686e-07
-2.922746e-07
-4.034519e-07
-1.611324e-08
-1.059815e-08
-7.689686e-07
-8.985052e-08
-5.454187e-08
4.720439e-08
8.417952e-09
-3.658629e-07
-3.199078e-08
-4.597544e-08
1.331994e-07
-6.21244e-07
-9.32283e-07
-8.187575e-08
-8.129937e-07
-1.435267e-08
-4.879511e-08
-4.022994e-09
-1.301954e-07
-8.268341e-07
-5.752831e-07
-3.750769e-08
1.309582e-08
8.907607e-08
8.286876e-09
-2.578975e-08
-1.006799e-07
-2.739283e-07
-1.296734e-07
-3.569185e-08
-3.092786e-07
-8.633782e-07
9.469126e-08
-4.135617e-07
3.014759e-08
-6.720653e-08
-3.392993e-07
-1.048582e-06
-6.725243e-08
-2.691206e-07
-5.6065e-07
1.149505e-08
-1.840034e-07
-1.399705e-08
-7.767023e-07
-4.833356e-08
-2.025945e-07
-1.681809e-07
2.443686e-08
-1.105187e-07
1.548704e-07
7.996273e-08
-1.268237e-07
-8.173253e-08
-6.712046e-07
-1.27171e-07
-9.162903e-08
8.557585e-09
-2.169735e-07
-1.858305e-07
-1.376338e-07
-3.784289e-07
5.289071e-08
-1.481339e-07
-1.76774e-07
-1.180198e-07
-1.308404e-07
-8.967372e-08
-2.571831e-07
4.848314e-08
-1.732456e-07
-1.376572e-07
-8.203248e-08
2.05362e-08
-8.794093e-07
-8.160841e-07
-2.804787e-08
-2.238301e-07
-5.554076e-07
-6.513769e-08
-6.875637e-08
-7.559311e-07
-3.488287e-07
-9.207674e-07
-5.783668e-07
6.026092e-08
-4.637346e-07
-3.200642e-08
7.201127e-08
-4.629401e-07
-3.914698e-07
-2.343581e-07
-3.340123e-07
-1.430135e-07
-1.572905e-07
-9.498226e-07
-8.679513e-08
-1.113725e-09
-3.528282e-07
-7.113715e-08
-5.605399e-08
-7.625082e-09
-2.742107e-08
-2.768657e-07
-4.857213e-09
2.851911e-08
-3.14551e-07
5.688942e-08
-2.799624e-07
-2.983464e-07
-3.73476e-07
-2.773618e-07
-1.041554e-06
-4.135089e-08
-3.26106e-08
-1.602584e-07
-2.157323e-07
-7.547119e-07
-1.067025e-08
-4.5088e-07
-1.54866e-08
4.155327e-08
-5.91086e-08
-4.945094e-08
-4.982397e-07
-1.780409e-07
-1.123306e-07
-3.543403e-07
-2.405884e-08
-3.007361e-09
-2.184807e-09
-2.648501e-08
-1.404939e-07
-9.099927e-08
-5.451208e-08
-3.557758e-07
-3.447828e-07
-7.283895e-08
-2.655424e-07
1.298989e-09
-5.475524e-07
-2.532358e-07
2.658423e-08
-2.629518e-07
1.56192e-08
2.422102e-08
-2.088756e-08
1.492584e-08
6.996603e-08
9.704076e-08
-5.859928e-07
3.364638e-08
-1.911416e-07
-2.13669e-07
3.992146e-07
-7.371447e-07
5.133032e-07
3.593121e-09
9.886409e-10
-2.311688e-08
-2.566513e-07
-2.617298e-07
2.954485e-08
-8.420132e-07
-7.2283e-07
-8.617516e-08
-3.229842e-07
-3.756211e-07
-3.675643e-07
-2.248816e-07
3.110901e-07
-1.05299e-07
-1.007059e-06
-4.356411e-07
-7.925965e-08
6.237944e-08
-7.567578e-08
-6.97219e-07
-2.139819e-07
-1.99009e-07
-1.399155e-07
1.589764e-08
-3.918264e-07
-6.025139e-07
6.184775e-08
1.515939e-09
2.811345e-08
-8.088337e-08
-1.020774e-07
4.476257e-09
-4.602745e-08
-3.713855e-07
-8.9962e-08
-9.774876e-08
-1.632094e-07
-1.583085e-07
-8.346133e-08
9.022274e-09
-2.550085e-07
6.763715e-08
-7.411633e-08
3.063163e-08
-1.278163e-07
-2.253497e-07
9.159505e-09
-4.046013e-08
-9.383838e-07
-6.955868e-07
-1.717807e-07
-2.645365e-07
-1.685827e-07
1.72861e-08
1.499667e-08
-6.73017e-07
-2.456746e-08
2.105819e-09
1.272879e-08
-9.828304e-07
-6.82891e-08
-1.657572e-08
4.542999e-07
-4.104327e-08
-1.163968e-07
-2.867367e-08
-8.91294e-08
3.388961e-09
-2.86578e-07
-1.592441e-07
-5.795872e-07
-3.750558e-07
-3.068084e-08
-9.933066e-08
-2.064013e-07
6.037998e-08
-5.704511e-07
-2.596151e-07
-6.139528e-07
-2.891811e-07
3.532518e-08
8.190016e-08
-4.413595e-07
-2.897651e-07
1.361209e-08
1.450251e-08
-1.502126e-07
-1.859392e-07
4.660512e-07
4.144267e-08
-3.049396e-08
-5.940507e-08
-6.914875e-08
-1.799663e-08
-1.948661e-07
-4.386422e-07
6.906372e-08
-5.898798e-07
-1.036779e-07
-1.639644e-07
-1.514554e-08
1.166801e-07
-6.491534e-08
1.972646e-07
-4.71479e-08
-1.779738e-09
3.550684e-08
-1.156134e-07
-2.450097e-08
-1.779326e-07
-8.317278e-08
-8.384842e-07
7.133616e-08
-1.024301e-07
-1.711323e-07
2.649692e-10
-3.864613e-07
-2.661355e-08
-2.849188e-07
-5.142568e-07
1.285877e-07
-1.799541e-07
-6.132388e-08
3.486097e-08
-6.903743e-08
5.377652e-07
-1.338519e-07
-8.528176e-08
-6.952926e-08
-3.462922e-08
-5.043667e-09
-1.377795e-08
1.011235e-07
-8.873208e-07
1.654031e-07
-7.737738e-07
-7.31029e-07
-1.472122e-07
-4.7259e-07
-8.795806e-08
-5.180289e-07
6.86659e-08
-3.124339e-09
-5.571093e-07
-1.112665e-07
-8.977481e-08
-2.110205e-08
3.010644e-09
-2.373243e-09
-6.906939e-09
-1.057269e-07
-2.043087e-07
2.84258e-08
-5.967528e-07
-5.621881e-07
-5.029856e-08
-1.416626e-07
-1.310755e-07
-1.037533e-07
-8.16228e-08
-9.103054e-08
-5.37169e-08
-1.570051e-07
-1.444647e-07
-8.896614e-08
-7.807027e-08
-1.541784e-07
-7.48383e-09
-1.103495e-07
-1.167775e-07
-7.464468e-08
-4.649176e-07
-2.32614e-07
-7.540601e-07
8.014296e-09
5.055914e-08
3.464854e-09
-1.813484e-07
1.410882e-09
-1.163755e-09
6.824e-08
-1.877356e-07
-5.610471e-07
-6.319372e-07
-7.435998e-07
7.605323e-10
3.714093e-08
-2.11045e-07
-1.761892e-08
-7.936912e-09
-3.707259e-07
-2.393397e-08
-8.009822e-07
-1.749735e-07
-7.087702e-08
-8.938187e-07
8.278121e-09
-3.179538e-08
7.882641e-09
2.05355e-08
-2.662081e-07
-3.615109e-07
-4.49391e-07
-4.890348e-07
-6.336005e-07
-4.074647e-09
-1.435391e-09
-1.817304e-07
-7.719119e-07
-3.036329e-08
-4.638932e-08
1.224034e-08
7.43971e-09
-8.209069e-08
-7.047022e-08
3.298852e-08
-7.674721e-07
-1.530047e-07
-2.354965e-08
-7.392799e-08
-2.894854e-07
-2.168653e-07
-5.486196e-07
-1.761383e-07
-7.511317e-08
-1.627902e-07
-4.248731e-07
5.354905e-07
-4.977794e-07
-1.614127e-07
6.026308e-07
1.525805e-07
9.531991e-09
1.188748e-07
-2.832647e-07
-2.42197e-07
-2.459726e-07
-4.859561e-07
-5.52845e-07
-5.355133e-07
-9.025575e-08
-7.23324e-08
1.976463e-08
-4.998459e-08
-2.157273e-08
-3.311774e-08
-3.81896e-08
-3.260474e-08
-4.89961e-08
-1.696061e-07
-8.997569e-09
-8.47434e-09
6.408379e-08
-4.219788e-08
-1.312306e-07
-4.448736e-07
-2.656527e-07
-2.592235e-07
-2.557369e-07
-1.990825e-07
-2.047693e-07
2.016848e-08
-5.461812e-08
-2.705451e-07
-7.957314e-07
-4.069625e-07
-3.250314e-07
-3.421669e-08
-3.137141e-08
-1.420475e-07
-3.918171e-07
-3.029829e-09
-1.917297e-07
-1.733596e-07
-1.599013e-07
-1.061523e-07
6.077038e-10
-2.382969e-07
-1.529921e-07
-2.149763e-09
-5.323895e-07
7.903436e-08
-3.004857e-07
-6.838196e-08
-8.463173e-07
3.385439e-07
-1.800548e-07
5.194292e-09
4.718165e-10
-4.739593e-07
-1.703706e-07
-4.891822e-07
1.867417e-08
-1.483734e-08
-4.306857e-09
-7.000392e-07
-1.07403e-07
-3.367926e-08
-5.599e-09
-3.737333e-08
-5.104688e-08
-4.455605e-08
-3.846611e-08
5.103963e-08
3.437134e-08
1.711161e-07
-6.353631e-07
-5.73679e-07
-2.742778e-10
1.229302e-07
-2.969416e-07
3.515338e-09
-1.494971e-08
-1.968985e-08
1.19789e-07
-1.055462e-07
3.507295e-08
-1.087352e-07
1.128266e-07
-8.356476e-07
-3.401781e-07
-1.841543e-08
-4.498384e-07
-1.923676e-08
1.82011e-08
-1.127873e-07
4.079406e-07
-1.071523e-07
-5.870566e-07
-3.70758e-07
-2.500726e-07
-3.577629e-07
-2.405774e-07
-1.99674e-07
1.638677e-07
1.415108e-08
-1.519662e-07
2.057714e-07
-1.324083e-08
-2.469776e-07
-1.437118e-07
3.406596e-08
-8.064322e-08
-1.196895e-08
-1.519107e-07
-1.95044e-07
-8.766466e-08
-1.922692e-07
-4.267247e-08
4.149233e-08
4.336615e-07
-3.796308e-07
3.129732e-08
-6.000866e-08
-5.617308e-07
2.21133e-08
1.743705e-08
4.991573e-08
-5.209315e-07
-2.389057e-07
-2.291034e-07
-2.347749e-07
-5.634348e-07
-1.279591e-08
-2.307343e-08
-7.707112e-09
-4.392042e-07
-4.546513e-07
-1.671999e-07
-5.094925e-07
-4.899192e-07
-4.893193e-07
-8.120304e-09
-9.343879e-07
5.130021e-08
-3.97799e-08
4.655534e-09
-6.651252e-08
-6.060578e-07
-2.305206e-07
8.208167e-09
-1.548159e-08
-1.07244e-07
-5.685378e-08
2.052418e-08
-1.496725e-08
-2.075185e-09
-5.004318e-07
-9.790019e-08
-2.383409e-07
-7.936338e-08
-7.232742e-08
-4.969314e-08
-2.885086e-07
6.169681e-08
1.033165e-08
-7.58738e-07
2.926061e-08
3.729069e-08
4.418981e-08
-1.592466e-08
-6.226113e-08
-1.268276e-07
3.648885e-08
-1.61189e-07
-1.758006e-07
-1.012309e-07
-1.845516e-07
-9.622594e-08
-3.093209e-07
-1.774485e-08
-3.014641e-07
9.967101e-08
-1.3255e-07
-2.342121e-07
-7.108932e-09
-4.772557e-07
-3.084156e-07
-2.845747e-07
-1.424131e-07
-1.537519e-07
-3.494672e-07
-3.475683e-07
-1.766496e-07
-7.904671e-08
1.220659e-08
-2.86113e-07
-1.917293e-07
-1.387891e-08
-2.435224e-07
-6.843586e-07
-2.01766e-07
-9.928903e-07
-1.350846e-07
2.414065e-08
-1.903646e-08
-5.285759e-08
-8.523104e-08
-5.350447e-08
-7.518943e-08
-8.334496e-08
2.809791e-07
-4.292342e-07
-1.648091e-07
-5.498182e-07
1.646026e-08
-1.802089e-08
4.991346e-09
1.981752e-08
-4.359639e-08
-8.774321e-08
8.24678e-08
4.005947e-08
-4.724954e-08
-3.50683e-08
-3.415114e-07
-4.451203e-07
-3.973333e-07
-4.413406e-09
3.984322e-08
-3.635055e-08
-3.106605e-08
-4.874987e-08
-2.118352e-08
-4.9332e-08
-1.958647e-08
-2.444034e-08
-6.044787e-08
2.383616e-08
-2.740652e-07
-5.003796e-08
-3.716883e-09
-5.204626e-07
-2.732159e-07
-2.604896e-07
-2.226895e-08
-7.857341e-09
-3.329781e-09
9.965432e-09
-4.495313e-09
7.586142e-09
-1.009063e-08
-6.521866e-08
1.08663e-07
-3.540661e-07
-4.499145e-07
-9.242967e-07
-7.285705e-07
-7.130075e-08
-3.295741e-07
-3.885733e-07
-3.114437e-07
-2.068752e-07
-7.070745e-07
-5.787314e-07
-8.081058e-07
-7.140843e-07
-8.511167e-07
-9.440798e-07
-4.123977e-07
-4.10231e-07
-4.619346e-07
-4.151557e-07
-3.011867e-08
-5.551631e-08
2.251853e-08
-4.986571e-08
2.841208e-08
-6.276798e-07
-5.644436e-07
5.469286e-09
-4.550452e-08
-2.407355e-08
-4.941533e-08
-3.710808e-07
-7.24861e-10
-3.724186e-08
3.580736e-09
-9.203884e-08
-1.501902e-08
-4.420479e-07
-2.874118e-07
-2.560514e-08
-9.071056e-08
-3.590084e-07
-4.565246e-07
-2.940516e-07
-3.796742e-07
-2.364024e-07
3.557285e-08
-1.076407e-08
-3.253805e-07
-2.381846e-07
1.243225e-07
-2.448324e-07
-2.305378e-09
1.426766e-08
-2.419029e-07
2.223675e-07
2.117229e-08
1.218356e-08
-9.008557e-07
-2.951245e-08
1.943142e-08
1.801602e-08
1.466367e-07
-9.244475e-09
-3.621664e-07
1.571653e-08
-9.43521e-07
-8.551712e-08
6.93533e-09
3.606604e-07
-7.538091e-08
-1.012953e-07
-2.003453e-07
-2.569149e-07
-3.803349e-07
-3.52387e-07
1.791069e-08
-3.734282e-07
-1.934525e-07
-8.331331e-07
1.091405e-08
-4.214216e-08
-1.73605e-07
-5.572991e-07
-4.055278e-07
-4.121999e-07
-4.874661e-07
-3.008538e-09
-1.634289e-08
-1.042422e-09
-5.505409e-07
1.401303e-07
-4.452168e-10
4.180528e-08
-2.007973e-07
-2.569324e-07
-4.641001e-07
-5.771904e-08
-7.154134e-07
-6.378529e-07
-1.163503e-07
-1.052982e-06
-3.575274e-07
-4.23116e-07
-1.61905e-08
-4.864025e-07
-7.93004e-07
-3.100819e-07
-1.203056e-08
-1.512504e-07
-1.220763e-08
-1.526028e-07
-3.624553e-07
-3.241653e-07
-3.649304e-07
-3.437149e-07
7.371627e-09
-4.14128e-07
-2.761725e-07
-1.634794e-07
-3.52559e-07
-1.25219e-07
-3.009056e-07
-4.689439e-08
-1.79864e-07
-5.328799e-08
-6.487219e-08
-8.104675e-08
-7.836251e-08
2.14605e-08
-6.738077e-09
-1.480309e-07
-4.953098e-07
2.840757e-08
-2.098845e-07
-4.197121e-09
-2.635794e-07
-2.80777e-07
-5.091324e-07
1.083744e-07
-5.537684e-08
-3.804404e-08
-7.264945e-08
-4.931609e-08
-6.850538e-07
-5.225711e-08
3.946044e-08
-1.787619e-08
4.565562e-08
-2.802664e-07
-2.52363e-07
-1.481822e-07
-3.3872e-07
-1.605252e-08
4.322613e-08
-4.525519e-07
-5.162855e-07
-9.565666e-08
-4.766589e-08
-5.55036e-08
-3.516971e-08
-6.860823e-08
-4.087599e-07
-8.59253e-07
-1.331309e-07
-4.608557e-08
-3.453141e-08
-9.020484e-09
-4.987642e-07
-5.934223e-07
-4.840207e-07
-5.515431e-07
-6.356559e-07
-6.374462e-07
-3.657989e-07
-6.148738e-07
-5.355544e-07
-7.163558e-07
-4.588219e-07
-1.404436e-07
-7.560218e-08
-1.332964e-07
2.457967e-07
1.256392e-07
-3.65007e-07
-3.176986e-07
-2.252268e-07
-6.905367e-07
3.699538e-08
-2.96396e-07
-2.790398e-07
-2.580863e-07
-7.860482e-07
-4.012711e-07
7.791262e-09
1.672289e-08
-1.277609e-08
-4.29642e-08
2.607822e-09
-5.876641e-09
-1.722842e-09
-3.214918e-07
-4.751201e-08
-5.802323e-08
-4.974037e-08
-4.428858e-08
-4.110143e-08
-1.448862e-07
-1.888264e-07
-1.005576e-07
-1.05052e-07
-9.418083e-08
-6.219173e-08
-8.258992e-08
-5.147521e-07
-4.680961e-07
-2.469879e-07
-3.43601e-07
-1.195619e-07
1.17437e-07
1.227157e-07
-8.911238e-07
2.171623e-08
-1.376412e-07
-3.841485e-07
-3.327048e-07
-2.237362e-07
-2.815056e-07
-1.944333e-07
-6.346445e-09
-4.98896e-08
-4.712276e-07
-1.45886e-07
-1.546324e-07
-1.516693e-07
4.13734e-07
-7.08652e-09
-6.199149e-08
-8.135352e-08
1.169928e-08
-3.041846e-08
-1.959672e-07
-1.843602e-07
-3.315041e-08
-1.025057e-06
6.744527e-12
-1.363474e-07
-1.474541e-07
-7.515705e-08
-6.539017e-07
1.275785e-07
-4.473202e-07
-7.742495e-08
-5.494861e-07
-3.320611e-07
-2.214238e-07
-2.670733e-08
-1.237038e-07
-4.152491e-08
-2.839121e-07
-2.444582e-07
-2.857853e-07
-3.314662e-07
2.873886e-09
-5.506734e-07
-4.488088e-07
-5.601447e-07
-6.885893e-08
-1.157425e-07
-2.231942e-07
-1.724589e-07
-2.963953e-07
-2.711311e-08
-7.093151e-08
-2.053994e-07
2.853745e-07
-2.604404e-07
8.159597e-08
1.19301e-08
3.184852e-08
-2.056138e-08
-2.188026e-08
-2.145348e-07
-1.635021e-07
4.049759e-08
-1.439962e-07
-1.443686e-07
-1.01019e-07
-9.900574e-09
3.896795e-08
2.14914e-08
2.034321e-07
-7.209338e-07
-1.068924e-08
3.436675e-08
1.475327e-09
-1.719356e-08
-5.406916e-07
-3.306724e-07
-1.84059e-07
1.011179e-07
-7.686636e-08
-6.017379e-08
-3.491816e-08
-7.60309e-09
1.396767e-09
9.943281e-09
-9.522268e-07
-9.388745e-07
-7.240044e-07
-7.885209e-07
-7.129179e-07
-7.596407e-07
-8.997266e-07
1.030478e-07
-4.11078e-09
-3.962424e-07
2.156502e-07
7.94869e-08
-3.362654e-07
-4.390625e-07
-2.368342e-08
-2.605345e-07
-1.931291e-07
-2.483298e-07
-2.796991e-07
-2.860787e-07
-2.66567e-07
7.702512e-08
1.729265e-08
5.195069e-08
-7.520429e-07
-1.797131e-07
-2.766444e-07
-2.145733e-07
-1.785229e-07
-2.659035e-07
-5.658391e-07
-6.051488e-07
5.969956e-09
3.183003e-08
9.830293e-09
-2.135817e-07
-2.035678e-07
-2.256738e-07
-2.209965e-07
-1.371927e-07
-1.366964e-07
-9.806646e-07
-7.709983e-08
-1.326429e-07
8.648333e-09
-3.808006e-07
-3.236837e-07
-3.28323e-07
5.553536e-09
-9.107898e-08
-7.046638e-09
-9.739408e-08
2.05386e-07
3.336231e-08
4.093241e-08
4.999986e-08
-1.192696e-07
-4.692837e-07
-4.783863e-07
-3.700846e-07
-4.183391e-07
-4.696538e-07
-1.956515e-07
-1.574946e-07
5.443774e-09
-2.535745e-09
-1.410904e-07
-1.166108e-07
-5.287062e-07
-6.986901e-07
-3.726762e-07
6.9152e-09
-5.355277e-08
-9.491721e-07
-1.001765e-08
1.413287e-08
3.951063e-09
1.602259e-08
-3.25407e-07
-2.502758e-07
-7.592865e-08
-3.083507e-07
-1.17251e-07
-2.010653e-07
-3.036966e-07
-2.056518e-07
-1.636692e-07
-7.816588e-08
-7.395809e-08
1.64729e-07
-6.916805e-07
-6.604102e-07
-7.187021e-08
1.476842e-07
-7.052341e-07
-1.132984e-08
5.014298e-09
2.761963e-08
-9.204517e-08
-1.653844e-07
-2.732016e-07
7.549062e-08
-1.629263e-07
-1.220978e-07
-5.416052e-08
-1.01721e-07
-1.050544e-06
-1.077799e-06
-2.543015e-07
-1.844661e-07
-2.57108e-08
9.175684e-08
8.472637e-08
3.996303e-07
-6.762103e-07
-3.208615e-07
-1.377621e-08
-3.154861e-07
-1.957204e-08
-4.61719e-07
1.064507e-08
-5.443339e-08
-5.74055e-08
-8.564343e-09
-9.443304e-07
2.20094e-08
-8.227007e-07
1.010831e-09
-5.308059e-08
-3.76545e-08
-1.637566e-07
1.615626e-07
-6.994691e-07
-7.889935e-07
-5.537721e-07
-2.151094e-07
-2.512267e-07
-5.103236e-08
-6.649257e-08
1.5847e-08
-1.223439e-07
-8.766169e-08
1.180154e-08
5.228252e-08
8.34757e-08
-1.9675e-07
-1.39131e-07
6.823071e-08
-2.722045e-07
1.329444e-08
1.418544e-07
-9.033337e-08
-1.640181e-07
-9.747517e-08
-2.714976e-08
-2.303453e-08
-1.913342e-07
-1.436873e-07
-6.463665e-07
2.094838e-07
2.693141e-07
-5.964215e-07
-8.790495e-07
1.366552e-07
-3.491887e-07
-1.224873e-07
-1.740217e-08
1.356526e-08
-2.987293e-07
-2.769425e-07
-1.322817e-07
-1.238466e-07
1.07527e-07
-2.346806e-08
-6.143774e-07
-9.760557e-09
-5.077553e-08
-6.049939e-07
1.791867e-07
-1.321205e-07
-1.601331e-08
1.527977e-07
-7.781246e-07
-6.56825e-07
-7.898588e-07
-1.80075e-07
-3.378583e-08
-4.610481e-08
-1.369386e-07
-1.466918e-07
8.869093e-08
-8.6679e-08
-6.594538e-07
-2.905415e-07
-1.046632e-06
-1.700091e-07
1.466836e-07
-5.087768e-07
8.607427e-08
-2.75649e-07
-2.491554e-07
3.042737e-08
1.430336e-08
4.095053e-10
7.124598e-09
-1.081446e-06
3.810726e-07
-5.733652e-07
-1.114558e-06
-1.323628e-07
-1.586404e-08
-2.505491e-07
1.260899e-08
-5.470003e-07
2.381063e-08
2.47753e-08
-1.751451e-07
-4.524807e-07
-9.013894e-09
-1.314638e-07
-5.506951e-08
-1.621942e-07
-1.121201e-07
-1.913538e-07
-4.76697e-07
-3.651158e-07
-4.27757e-08
-4.219114e-08
-1.16216e-08
2.204852e-08
-6.192004e-08
-4.162083e-07
-4.840744e-07
-2.991781e-07
-3.155113e-07
-3.385955e-07
-5.109548e-07
-6.355011e-08
-4.950054e-08
-1.109778e-06
-4.249424e-08
-1.229476e-08
-5.334627e-07
-1.913416e-08
-2.729228e-07
-2.074112e-07
-2.481394e-07
-2.77e-07
-1.464729e-07
-3.732229e-07
-2.146796e-08
-5.367418e-07
-1.056504e-06
2.239683e-08
-3.694435e-07
-3.622222e-07
5.821255e-09
-8.666064e-07
3.390002e-08
1.696661e-07
-6.72279e-09
-1.341985e-07
2.633253e-08
-2.053568e-07
-1.232724e-07
4.497855e-08
-2.475932e-08
1.382456e-08
-3.624616e-08
-1.231474e-06
-4.786651e-07
-1.382916e-07
1.950764e-08
-1.043739e-07
-1.758921e-07
-1.024697e-08
-3.722729e-08
-3.918189e-07
-1.900883e-07
1.463027e-08
-1.493575e-07
-1.015169e-08
-6.898593e-08
-5.467584e-09
-1.912526e-08
2.302713e-08
-2.617669e-07
-6.972324e-07
4.356768e-08
-1.577083e-07
-3.380989e-07
-1.393831e-07
7.844682e-10
-3.291619e-07
-2.94101e-07
-2.697169e-07
-2.363862e-07
-1.139572e-07
-6.574204e-08
-5.211056e-08
-2.239668e-08
3.621401e-07
-1.204434e-08
3.138737e-07
3.464519e-07
-4.484613e-08
-1.465459e-07
-5.963198e-08
-3.226278e-08
-1.761092e-08
-2.226526e-08
-1.913921e-07
-1.879129e-07
-9.397279e-08
1.132987e-08
-3.147004e-07
-4.690281e-09
-8.051481e-08
-5.468356e-08
-3.25922e-07
-1.072229e-07
6.557873e-08
-7.503299e-07
-6.028727e-07
1.009384e-08
4.155812e-08
-4.083206e-07
-4.876219e-07
-5.608036e-07
-9.151271e-07
-1.436984e-07
2.46432e-09
-1.98337e-08
-4.328528e-08
-9.798834e-08
1.420862e-08
2.535156e-08
2.278885e-09
7.038115e-09
-2.28774e-08
-3.519737e-08
-6.068056e-08
-5.34055e-08
5.433962e-08
-4.289859e-08
-1.314268e-07
-2.929316e-07
-1.207545e-07
-1.078486e-07
-8.241901e-08
-1.617198e-08
-1.817603e-07
-8.659815e-07
-1.134948e-08
-1.336055e-09
-1.448687e-08
-1.653434e-07
2.250068e-07
-5.637426e-07
-5.276486e-07
-3.76578e-09
6.945807e-09
-3.944789e-09
-3.643128e-08
-3.270489e-09
-2.53863e-08
-5.020967e-07
2.618418e-08
-3.071319e-08
-6.579594e-08
-1.561801e-07
-1.464251e-07
-1.098373e-07
-1.02819e-07
-9.328692e-08
-8.790346e-08
-2.527507e-08
-1.825877e-08
-2.48625e-08
3.685514e-08
2.676752e-08
1.03915e-07
-7.251945e-09
-2.412131e-08
-2.932597e-08
-4.822683e-08
-1.60473e-08
-6.587239e-08
-2.08773e-07
-8.966513e-08
-7.134803e-07
-4.033093e-08
3.920337e-08
-5.55879e-07
-2.650123e-07
-1.866339e-07
4.5711e-08
3.906539e-08
-3.237869e-07
-3.636319e-07
7.017566e-07
-1.444229e-07
2.301454e-08
7.844511e-10
-2.371165e-07
-1.044624e-08
-4.097212e-09
-2.051762e-08
-6.917294e-08
-4.27941e-07
-4.066186e-07
-1.823583e-07
-6.35863e-07
-2.979505e-07
-4.743691e-07
2.675579e-07
4.907383e-07
-1.240662e-07
-9.600517e-08
-1.106241e-06
2.636645e-09
-2.098523e-08
-2.019754e-07
-1.521185e-07
-1.311152e-08
2.434808e-08
2.739878e-08
5.772709e-09
3.741907e-09
1.978765e-09
-3.504921e-07
-4.189331e-07
-6.132085e-07
7.613852e-08
7.828879e-08
8.427749e-08
5.050455e-08
2.912875e-08
3.209601e-08
-2.616278e-07
-3.563602e-07
-3.934202e-07
-4.550764e-07
5.021817e-08
2.155397e-07
-2.063411e-07
-1.332252e-07
-1.239819e-08
-6.618753e-08
-4.354887e-09
-6.742454e-08
-6.367792e-08
-3.588962e-09
-4.230112e-08
-1.168571e-07
-7.058363e-08
-8.84077e-08
-1.010491e-07
6.393079e-08
7.639466e-08
-2.208738e-07
6.657168e-08
-8.099217e-09
-1.075793e-08
-9.279018e-09
6.817117e-09
-1.125036e-06
-9.57201e-07
1.131074e-08
-2.931172e-07
-2.585953e-07
8.335121e-08
7.123495e-08
-1.24484e-07
-2.072296e-07
-4.433018e-08
-2.221715e-07
1.857869e-08
-1.656333e-07
-4.045689e-07
-3.588959e-07
-3.710477e-07
1.143044e-07
3.587593e-08
-1.786518e-07
-1.291189e-07
2.478292e-08
6.596273e-08
-2.789703e-07
4.356813e-09
2.565352e-09
-9.175902e-08
2.451551e-08
-8.380431e-08
-6.990315e-07
-2.061864e-08
-2.676351e-08
-1.989187e-08
-6.303618e-09
-2.486804e-07
-2.650246e-07
-2.554786e-07
-1.723724e-07
-1.865174e-07
-5.534291e-07
6.693113e-08
-3.310892e-08
1.219115e-08
-6.732215e-08
-6.03867e-08
-5.297848e-08
-7.100837e-08
-1.077924e-07
-1.335193e-07
-1.224981e-07
-1.106036e-07
-8.316128e-08
-1.060445e-07
-1.077343e-07
-8.937162e-08
-1.03588e-07
-7.581931e-08
-1.176127e-07
-6.314819e-08
-1.014263e-07
-5.21864e-08
-9.832211e-08
-8.742423e-08
-4.610061e-08
-7.720965e-08
-9.691279e-08
-1.196812e-07
-1.019044e-07
-1.454527e-07
-9.460457e-07
-5.337373e-07
-8.648188e-07
-1.562048e-09
-3.492182e-07
2.382219e-08
-1.471551e-07
-4.842287e-09
1.468566e-07
2.854802e-07
3.152394e-07
-2.035806e-07
3.194722e-07
1.272415e-07
3.107095e-08
-5.215909e-09
-5.40316e-08
-7.587663e-08
-1.082923e-07
-5.655138e-08
-5.995263e-08
-1.043226e-07
-1.176151e-07
-9.249935e-08
7.610709e-08
5.175085e-08
9.075016e-08
4.559591e-08
1.246712e-07
1.545614e-07
-3.986615e-07
-3.763062e-07
-8.556348e-07
-8.248164e-07
-7.734307e-07
1.154034e-09
-6.545009e-07
3.326528e-08
-6.840775e-07
-3.937329e-07
-5.371617e-07
-4.286353e-07
-4.513996e-07
-4.043014e-07
1.411037e-08
-6.537206e-09
-4.299434e-07
-7.859922e-07
-7.217118e-07
-4.048205e-07
-7.708245e-07
-7.502321e-07
-8.712445e-07
-8.443852e-07
-6.597431e-07
3.783124e-09
-1.290813e-07
-8.108551e-07
-3.258556e-07
-1.243946e-07
-7.319378e-07
-3.87518e-07
-8.088684e-07
-9.722649e-07
2.683727e-07
6.265444e-08
-2.243401e-07
-1.99262e-07
-1.938545e-07
-2.421953e-07
-4.133392e-08
-7.788668e-07
-6.30102e-07
-5.381104e-07
-7.328748e-08
-5.52057e-08
-6.332149e-08
-2.750655e-08
8.665038e-08
-2.833121e-08
-5.024195e-07
-4.348175e-07
-6.13819e-07
-1.66374e-07
-1.016057e-07
4.17557e-09
6.315836e-08
5.243491e-08
-2.979862e-08
-5.24024e-08
-1.42094e-07
-2.102448e-07
-2.334293e-07
-2.193497e-07
1.933033e-07
-1.457597e-08
-8.568759e-09
-3.104022e-08
-1.0363e-07
-9.518531e-08
4.782372e-08
-1.936329e-08
-2.403428e-08
9.440632e-09
-1.546256e-07
-5.69748e-08
-4.332371e-08
-8.721484e-08
-2.925126e-08
7.372316e-08
-3.258902e-07
1.259641e-07
-2.41238e-07
3.763983e-09
6.115613e-08
-6.472477e-07
4.189691e-07
-4.810302e-08
-5.582723e-09
-2.920942e-08
1.155963e-07
-1.152488e-07
-3.663565e-08
-1.725758e-08
-1.767132e-08
-1.28822e-08
8.82999e-09
2.961803e-08
3.537027e-08
-2.350554e-07
-5.715999e-08
-6.382937e-08
-4.761312e-08
4.454139e-07
-6.775501e-07
3.014576e-10
-8.748796e-09
-9.048206e-09
-3.8534e-10
4.289735e-10
-1.79471e-09
1.57665e-08
-6.967714e-07
-6.774956e-07
1.577462e-08
1.78253e-08
-1.254271e-07
-1.325024e-07
-5.023768e-08
-4.10363e-08
2.436931e-08
-7.712222e-07
-7.976248e-07
-6.880718e-07
-9.953801e-08
-6.065987e-07
-2.061901e-07
-1.193374e-07
-1.628216e-07
-1.100296e-07
-8.163704e-08
-7.079222e-08
-1.000345e-07
-8.667054e-08
-9.78597e-08
-1.111434e-07
-5.940149e-08
-7.622129e-08
-7.310378e-08
-9.126194e-08
-4.179965e-08
-6.028856e-08
-1.423679e-07
-7.755111e-08
-1.270829e-07
-1.508326e-07
-1.656338e-07
-6.716011e-08
-6.942209e-08
-6.673424e-08
-4.790412e-08
-1.158508e-07
-1.095134e-07
-1.226104e-07
-1.215812e-07
-8.097694e-08
-7.556952e-08
-9.615803e-08
-1.054493e-07
-2.748986e-07
-1.729313e-07
-8.041527e-08
-9.239807e-08
-8.32387e-08
-6.777111e-08
-4.269429e-08
-1.129557e-08
-1.031969e-07
-8.166205e-08
3.674102e-08
-1.385254e-08
-7.685882e-09
-1.273134e-07
-1.076272e-07
1.348555e-10
-4.738291e-07
-4.757712e-07
-8.233551e-07
-2.643533e-07
-4.021111e-07
-1.277525e-07
-7.706699e-08
-5.009014e-07
-2.48913e-07
-2.549426e-07
-8.709484e-09
-1.811991e-08
-2.697766e-08
1.120245e-08
-6.63121e-08
-7.579897e-08
-6.197232e-08
-9.153911e-08
-8.260851e-08
-1.725878e-08
-1.322223e-07
-1.046666e-07
-4.400344e-07
-5.590116e-08
4.372161e-09
1.476187e-08
-1.443363e-07
-1.50808e-07
1.497348e-08
-3.065075e-07
-4.009498e-07
-2.45789e-07
-3.050436e-08
6.425118e-09
-1.746606e-08
-6.506654e-07
-6.287592e-07
3.564603e-08
6.294044e-08
-1.575192e-08
-8.2461e-09
-1.074839e-06
-2.183342e-07
-2.306689e-07
-3.899183e-07
-2.987007e-08
-1.926556e-07
-4.228715e-07
-2.916241e-07
-4.307638e-08
-1.921561e-07
-5.501853e-07
-1.060689e-07
-5.018495e-09
-3.459032e-07
-2.091048e-07
9.001452e-08
-2.666057e-07
-3.167511e-07
2.976842e-08
-3.694743e-07
-6.657902e-07
-6.80727e-07
-6.516936e-07
-3.054633e-08
-1.233045e-07
-1.243534e-07
-1.60215e-07
-1.619147e-07
-1.773949e-08
-8.121313e-07
-1.912214e-07
-2.819662e-07
-8.972583e-09
3.32059e-07
-1.152185e-07
-3.228415e-07
-4.677635e-07
-5.307627e-08
-1.95453e-07
-4.594015e-07
-6.353007e-08
-4.860024e-08
-3.771566e-08
-1.549072e-08
-1.231107e-08
5.922262e-09
-1.900497e-08
3.380482e-07
3.878756e-09
-4.397281e-08
-9.610954e-09
-2.397336e-07
-2.058378e-07
-3.300841e-07
-9.992414e-08
-5.319844e-08
-8.169239e-09
1.315725e-07
-4.888714e-08
-4.579597e-08
-8.450673e-08
-7.726795e-08
-5.774453e-08
-9.006413e-08
-5.329551e-08
-5.641414e-08
-3.675055e-08
3.448171e-08
1.473037e-08
1.07337e-08
-2.52857e-08
-1.606451e-07
-2.792233e-07
-1.803468e-07
2.001507e-08
3.311986e-07
8.644878e-09
-3.198557e-08
-6.303366e-08
-5.187155e-08
-4.381204e-08
3.332325e-09
-8.460704e-07
3.844279e-08
7.184341e-08
-3.369526e-07
-4.428377e-08
-5.200206e-08
-3.659162e-09
-5.81538e-07
-2.078867e-07
-9.713978e-07
-9.141613e-07
-8.239255e-07
-7.873054e-07
-2.127605e-08
2.781344e-09
-1.313395e-07
4.103109e-09
-4.422772e-07
-3.983358e-07
-4.253459e-07
-5.003505e-07
-8.138681e-09
-1.297078e-08
-8.099242e-09
-2.217562e-08
2.653906e-09
7.459758e-08
9.985152e-09
3.314053e-08
-1.298606e-07
-4.339369e-08
-2.391649e-07
-2.975083e-07
-4.856378e-08
-4.220841e-08
-9.922802e-08
-1.809305e-08
-1.934624e-08
-3.304685e-08
4.492364e-08
9.204176e-08
-3.104699e-07
-2.78325e-07
-3.188474e-07
-8.633214e-08
-7.511717e-08
-4.564579e-08
-3.826438e-09
-5.076925e-07
-2.496948e-07
-2.114322e-07
-1.661725e-07
-6.735613e-09
-1.501073e-08
8.233274e-10
2.059853e-08
-1.983822e-07
-2.83502e-07
-4.137788e-08
-3.350364e-08
-2.162499e-07
-5.382844e-07
-1.666813e-07
-1.120689e-07
-6.410805e-07
4.342331e-08
-4.890029e-08
-3.381201e-08
-7.039061e-08
-1.028122e-07
-2.191972e-08
-7.468495e-08
-5.291785e-08
-3.898177e-08
-2.644038e-08
-2.678269e-07
6.147551e-09
1.417633e-08
-3.752864e-07
-3.872996e-07
-3.376652e-08
-3.622059e-08
-7.570923e-07
-1.659994e-07
-1.444017e-07
-1.019329e-06
-8.963474e-07
-7.524282e-07
-7.060423e-07
-4.609199e-07
-4.38656e-07
-4.136143e-07
-3.772495e-07
-3.185954e-07
-3.260211e-07
-4.252205e-07
-4.512102e-07
-9.228482e-07
-9.154413e-07
-7.10722e-07
-7.168734e-07
-7.606704e-07
-7.919178e-07
-7.750834e-07
-7.240176e-07
-1.973057e-07
-3.320925e-07
-3.496585e-07
-3.39116e-07
-1.914798e-07
-7.430897e-07
-7.724834e-07
-4.050356e-07
-3.568999e-07
-3.92127e-07
-1.840464e-07
-2.893527e-07
-1.767472e-07
-1.552321e-07
-1.8053e-07
1.721342e-08
-3.009768e-08
-2.139241e-08
2.456635e-07
-4.176298e-07
-4.306423e-07
-4.784823e-08
1.266391e-09
-8.596862e-09
-7.508926e-08
-6.510793e-08
-2.218329e-07
-1.275747e-07
-6.415933e-07
-5.964047e-07
-1.67991e-08
8.920637e-10
-2.242554e-08
-1.275194e-08
-1.271902e-08
-7.142224e-07
-2.420803e-07
-2.122142e-07
-3.134139e-07
-2.567839e-07
-2.351044e-08
-1.640535e-08
-1.241311e-08
-1.881618e-08
-1.73973e-08
-1.780022e-07
-1.307975e-08
-1.320315e-08
2.244614e-08
2.862707e-08
-4.800513e-08
-3.15106e-08
-1.020993e-08
-1.604922e-08
-6.917722e-08
1.208331e-08
-6.386824e-08
-6.230915e-08
3.175123e-08
-7.455994e-08
-8.435032e-08
-9.811644e-09
-3.864088e-09
-4.735583e-07
-1.471623e-07
1.732478e-07
-1.065393e-07
3.438652e-08
3.385445e-08
-1.715993e-07
-2.233639e-07
-1.535556e-07
1.725247e-08
-4.202296e-07
-5.181865e-07
2.076507e-08
7.346433e-09