/*--------------------------------*- C++ -*----------------------------------*\
| =========                 |                                                 |
| \\      /  F ield         | OpenFOAM: The Open Source CFD Toolbox           |
|  \\    /   O peration     | Version:  2406                                  |
|   \\  /    A nd           | Website:  www.openfoam.com                      |
|    \\/     M anipulation  |                                                 |
\*---------------------------------------------------------------------------*/
FoamFile
{
    version     2.0;
    format      ascii;
    arch        "LSB;label=32;scalar=64";
    class       volScalarField;
    location    "2.48";
    object      p;
}
// * * * * * * * * * * * * * * * * * * * * * * * * * * * * * * * * * * * * * //

dimensions      [0 2 -2 0 0 0 0];

internalField   nonuniform List<scalar> 
15536
(
-41.88473
-44.2108
-42.60657
-36.4022
-27.45136
-22.87028
-18.8286
-20.27581
-29.51113
-34.22086
-35.01086
-32.78696
-31.73491
-34.70952
-42.3599
-53.19708
-63.33408
-66.48158
-57.64199
-39.77462
-25.56322
-19.40852
-18.73299
-27.8948
-41.02076
-48.99476
-58.96662
-84.02464
-133.3507
-179.6289
-167.4351
-96.80849
-71.95632
-98.53841
-122.5116
-132.7616
-130.5081
-123.9975
-125.5263
-130.6748
-134.7457
-137.0971
-137.694
-137.0656
-135.7997
-133.6024
-130.5852
-126.6012
-122.221
-117.5828
-112.2775
-106.4182
-99.94495
-93.12563
-85.89624
-78.33373
-70.80583
-63.20787
-55.2588
-47.15827
-39.22369
-31.45923
-23.73642
-16.11336
-8.733205
-1.488145
5.452298
12.05256
18.20797
23.93196
29.18254
33.96574
38.2365
41.9188
44.99028
47.55361
49.48635
50.85772
51.7195
51.94268
51.38471
50.23877
48.53883
46.25964
43.42579
40.05984
36.2219
31.83653
27.05242
21.92703
16.32463
10.40758
4.250844
-2.293098
-8.977781
-15.61806
-22.39626
-29.28953
-36.12669
-42.97615
-49.68195
-56.07282
-62.10024
-67.82969
-73.36276
-78.4174
-82.96038
-86.93951
-90.34999
-93.23708
-95.34811
-96.57119
-96.89743
-96.23435
-94.18517
-90.39579
-85.00263
-80.7297
-75.599
-74.28517
-109.4155
-125.6325
-91.79602
-54.19585
-35.83186
-24.59522
-8.766581
7.002822
-31.14631
-74.25305
-75.71001
-54.7886
-33.5964
-19.63579
-8.253377
-1.535681
0.6589801
0.01155934
-0.6212035
-2.292031
-5.084541
-7.604892
-8.808492
-9.988958
-11.38008
-13.23217
-15.39552
-14.20172
-10.62895
-9.892676
-9.566405
-10.02254
-12.50738
-16.7038
-22.65644
-29.56744
-36.56245
-41.59204
-43.90884
-42.42518
-36.32752
-27.44502
-22.90761
-18.88155
-20.2706
-29.51337
-34.25587
-34.99484
-32.75361
-31.73533
-34.73482
-42.38403
-53.19637
-63.26717
-66.41607
-57.62609
-39.77399
-25.51869
-19.326
-18.7874
-28.00113
-41.07834
-48.93405
-58.81187
-83.82796
-133.166
-179.6153
-167.599
-96.74724
-71.9353
-98.67742
-122.7682
-132.7722
-130.4887
-123.9415
-125.0493
-129.7742
-133.4737
-135.6003
-136.0967
-135.4115
-134.1208
-131.9127
-128.9067
-124.9416
-120.5849
-115.9868
-110.7246
-104.9169
-98.49739
-91.73784
-84.57666
-77.08384
-69.62588
-62.10317
-54.23496
-46.2105
-38.35253
-30.66557
-23.01921
-15.47007
-8.159182
-0.9846361
5.885249
12.42078
18.51654
24.1835
29.38275
34.12028
38.35044
41.99989
45.04292
47.5841
49.50101
50.86038
51.716
51.93772
51.38422
50.24982
48.56657
46.3093
43.5031
40.17055
36.37092
32.02914
27.29539
22.22115
16.67461
10.82058
4.726423
-1.753634
-8.372746
-14.94507
-21.65655
-28.4802
-35.24846
-42.03048
-48.67086
-54.9974
-60.96457
-66.64208
-72.12836
-77.13772
-81.64376
-85.59014
-88.97777
-91.85569
-93.96677
-95.20643
-95.56737
-94.99009
-93.1244
-89.61673
-84.54312
-80.56021
-75.48918
-74.17479
-109.2607
-125.6645
-91.85338
-54.19156
-35.87725
-24.70073
-8.885284
7.158226
-31.275
-74.52289
-75.66447
-54.70718
-33.56842
-19.65723
-8.278488
-1.526046
0.6910546
0.03417302
-0.5987182
-2.282189
-5.08744
-7.609799
-8.805571
-9.997583
-11.39198
-13.24711
-15.41208
-14.21252
-10.62942
-9.893547
-9.569706
-10.02803
-12.50427
-16.67068
-22.5768
-29.42309
-36.34513
-41.48616
-43.85445
-42.37655
-36.51446
-27.7217
-23.00156
-18.85431
-20.08126
-29.42293
-34.3744
-35.06666
-32.76504
-31.77462
-34.80285
-42.46254
-53.26668
-63.32575
-66.51456
-57.79648
-40.05428
-25.67208
-19.31137
-18.9144
-28.20515
-41.21002
-48.90325
-58.67466
-83.75682
-133.4173
-180.5982
-168.8929
-96.84454
-71.52374
-98.26734
-122.3197
-132.256
-129.8315
-123.5923
-124.5023
-128.8043
-132.3227
-134.5046
-135.0723
-134.4071
-133.155
-130.9749
-128.0041
-124.0577
-119.7162
-115.1516
-109.906
-104.1285
-97.73396
-91.01486
-83.89791
-76.42275
-68.99638
-61.52075
-53.68091
-45.68959
-37.86666
-30.22247
-22.61676
-15.09906
-7.833833
-0.6911866
6.142331
12.64381
18.70694
24.34398
29.51238
34.22203
38.4271
42.05691
45.07767
47.60384
49.50895
50.85713
51.70583
51.92532
51.37688
50.25346
48.58326
46.34193
43.55552
40.24528
36.47147
32.15264
27.44849
22.40555
16.88603
11.06566
5.006632
-1.445044
-8.029184
-14.56094
-21.24052
-28.03307
-34.76145
-41.5216
-48.13071
-54.43113
-60.37412
-66.01477
-71.47575
-76.45442
-80.94188
-84.87009
-88.23797
-91.10078
-93.18832
-94.39472
-94.72831
-94.09061
-92.18226
-88.78748
-84.00489
-80.12141
-75.13223
-74.46502
-109.5713
-126.1032
-92.0786
-54.33582
-35.88795
-24.73472
-8.896939
7.418872
-32.31733
-75.83043
-76.01997
-54.78
-33.57242
-19.72973
-8.353548
-1.531939
0.73154
0.04964556
-0.5809929
-2.275734
-5.109032
-7.639328
-8.816262
-10.01777
-11.42008
-13.27829
-15.47224
-14.27601
-10.6438
-9.885776
-9.579574
-10.04515
-12.51629
-16.6586
-22.53436
-29.34013
-36.24335
-41.28902
-43.58552
-42.26198
-36.80319
-28.32723
-23.14185
-18.65226
-19.66686
-29.26569
-34.58124
-35.21075
-32.81928
-31.84687
-34.91654
-42.60931
-53.43642
-63.52105
-66.75798
-58.11228
-40.62981
-26.07036
-19.12762
-18.92339
-28.40952
-41.26892
-48.84034
-58.55196
-83.77667
-133.9412
-181.7539
-170.7917
-97.82374
-71.55996
-97.02335
-120.0974
-129.7976
-127.9398
-122.7705
-123.661
-127.4255
-130.6033
-132.5427
-132.9662
-132.2307
-130.987
-128.8132
-125.9003
-121.9904
-117.6837
-113.1881
-108.0259
-102.3368
-96.02555
-89.38927
-82.36704
-74.98749
-67.64875
-60.27224
-52.54495
-44.64019
-36.90556
-29.35712
-21.84536
-14.4093
-7.233759
-0.169411
6.586545
13.02192
19.01803
24.59282
29.70595
34.36848
38.5322
42.13087
45.11746
47.62294
49.51234
50.84569
51.68573
51.90157
51.35845
50.2505
48.59817
46.3789
43.62143
40.34628
36.61592
32.33811
27.69064
22.70528
17.24151
11.49532
5.506159
-0.8826938
-7.378764
-13.82733
-20.43301
-27.13774
-33.77938
-40.45748
-46.98209
-53.19078
-59.04322
-64.61516
-70.00697
-74.90571
-79.32781
-83.1866
-86.51596
-89.34495
-91.40239
-92.60219
-92.96763
-92.48565
-90.76311
-87.61602
-83.22492
-79.52654
-75.07223
-75.70407
-110.01
-126.2416
-92.32967
-54.51245
-35.83759
-24.52449
-8.594023
7.69312
-34.56167
-78.2051
-76.75569
-55.01919
-33.5916
-19.83787
-8.455886
-1.523242
0.8118204
0.07711376
-0.5711279
-2.278298
-5.157547
-7.696493
-8.822166
-10.04145
-11.45814
-13.31648
-15.55154
-14.36531
-10.67418
-9.859926
-9.600296
-10.07432
-12.54522
-16.66709
-22.51054
-29.25482
-36.11775
-41.1387
-43.47628
-42.28864
-37.19831
-29.15645
-23.44041
-18.38555
-19.20083
-29.15408
-34.8897
-35.46513
-32.95036
-31.9697
-35.1038
-42.86027
-53.7611
-63.93022
-67.28724
-58.62052
-41.39017
-26.58896
-18.64459
-18.58331
-28.40044
-41.18566
-48.70596
-58.50501
-83.93631
-134.6336
-183.0168
-172.5781
-100.4139
-73.15629
-96.51092
-117.4012
-126.4848
-125.5253
-121.6781
-122.6627
-126.0396
-128.996
-130.9338
-131.4789
-130.7051
-129.485
-127.2785
-124.3963
-120.4939
-116.1573
-111.7336
-106.5716
-100.9295
-94.63745
-88.0565
-81.10729
-73.7544
-66.47076
-59.18737
-51.52941
-43.67543
-36.00895
-28.55068
-21.11803
-13.73998
-6.65162
0.3513523
7.036817
13.40721
19.33263
24.85093
29.90904
34.52292
38.63733
42.20197
45.15147
47.63351
49.50542
50.82056
51.64971
51.85911
51.32206
50.23684
48.60829
46.41436
43.68884
40.44965
36.76509
32.52747
27.94369
23.01344
17.59281
11.92705
6.008893
-0.342989
-6.762282
-13.12907
-19.68109
-26.32446
-32.88422
-39.5181
-45.98983
-52.14365
-57.94835
-63.46963
-68.83955
-73.69436
-78.10688
-81.9497
-85.26848
-88.14149
-90.16193
-91.36354
-91.72904
-91.1534
-89.45492
-86.45917
-82.38176
-78.92697
-75.54174
-77.5289
-108.8486
-123.7829
-91.29484
-54.48534
-35.71898
-24.02479
-7.986506
7.433524
-37.80069
-81.67128
-78.05864
-55.45198
-33.57242
-19.9684
-8.567569
-1.482542
0.9581837
0.1470097
-0.5584877
-2.298908
-5.246856
-7.781974
-8.830665
-10.06549
-11.50096
-13.36416
-15.62016
-14.42655
-10.73182
-9.818359
-9.650581
-10.13002
-12.59784
-16.70404
-22.52758
-29.20291
-36.03198
-41.03644
-43.40587
-42.38677
-37.69256
-30.18445
-24.07123
-18.23358
-18.90699
-29.18745
-35.36025
-35.90151
-33.14744
-32.18016
-35.42328
-43.3002
-54.33283
-64.65462
-68.25114
-59.45395
-42.31187
-27.13836
-17.85422
-17.79817
-28.01318
-40.78323
-48.49842
-58.67397
-84.18931
-135.3047
-183.6276
-173.5832
-104.3468
-77.14955
-97.00491
-114.8528
-123.2142
-123.0051
-120.2524
-121.2014
-124.1119
-126.6831
-128.3897
-128.7394
-127.7812
-126.6095
-124.522
-121.7764
-117.9242
-113.622
-109.3643
-104.2913
-98.78588
-92.59066
-86.10644
-79.27588
-72.0104
-64.84929
-57.70885
-50.15321
-42.39189
-34.84833
-27.50522
-20.18284
-12.88827
-5.9256
0.9970033
7.580655
13.84981
19.69681
25.1584
30.1467
34.69624
38.74085
42.2739
45.1782
47.62733
49.4825
50.77442
51.58942
51.78903
51.2644
50.20262
48.6055
46.44368
43.75773
40.56408
36.92944
32.73299
28.24025
23.38636
18.00064
12.43087
6.637264
0.3394979
-5.989937
-12.23145
-18.68764
-25.24859
-31.69868
-38.23715
-44.61097
-50.66463
-56.35503
-61.78245
-67.08744
-71.82382
-76.1612
-79.89926
-83.13215
-85.91236
-87.87093
-88.99452
-89.4091
-89.07956
-87.57434
-84.86027
-81.22649
-78.11485
-75.91989
-78.55454
-103.929
-115.3414
-87.89313
-54.1261
-35.63453
-23.66839
-7.656226
5.867318
-42.1131
-86.4106
-80.18064
-56.23018
-33.56637
-20.08362
-8.690433
-1.416891
1.207725
0.2923822
-0.533452
-2.350273
-5.408996
-7.901796
-8.865707
-10.10404
-11.55626
-13.4119
-15.61419
-14.41622
-10.80809
-9.789042
-9.747846
-10.24411
-12.69812
-16.78052
-22.5913
-29.21576
-36.02251
-41.03575
-43.45783
-42.65527
-38.36595
-31.48215
-25.1473
-18.62162
-19.07019
-29.51488
-36.06986
-36.59253
-33.36796
-32.48564
-35.88497
-44.04533
-55.29648
-65.88213
-69.88399
-60.78053
-43.44319
-27.7506
-17.03788
-16.79484
-27.23826
-40.24112
-48.24807
-59.27755
-84.34352
-134.1417
-181.2219
-172.1325
-108.3375
-82.61562
-97.85612
-112.2854
-119.9212
-120.3947
-118.6467
-119.5939
-122.1632
-124.4414
-126.0616
-126.5576
-125.5294
-124.5124
-122.0975
-119.4053
-115.5607
-111.1941
-107.0708
-101.991
-96.62427
-90.45693
-83.99597
-77.3171
-70.19084
-63.10183
-56.03202
-48.63397
-41.02117
-33.56641
-26.27558
-19.15117
-11.93334
-5.12294
1.720745
8.161405
14.33218
20.16873
25.51205
30.39502
34.85573
38.83553
42.39104
45.19628
47.6038
49.4431
50.70192
51.49961
51.69224
51.18559
50.11969
48.55174
46.43189
43.79932
40.6846
37.11767
32.94241
28.54632
23.81817
18.50958
12.97929
7.285258
1.141411
-5.11261
-11.26155
-17.60009
-23.9994
-30.41142
-36.87445
-43.0926
-49.08426
-54.64728
-59.99084
-65.27359
-69.90155
-74.22827
-77.89202
-81.13642
-84.01278
-85.95861
-87.20105
-87.62524
-87.19417
-85.76676
-83.26016
-80.02482
-77.20772
-75.86931
-78.33834
-96.89255
-105.4124
-83.17595
-53.69655
-35.71138
-23.70242
-8.268753
2.258701
-47.66729
-92.26088
-83.36534
-57.64905
-33.99706
-20.04412
-8.753739
-1.334967
1.652839
0.5982258
-0.4735276
-2.4612
-5.638672
-8.092138
-8.967228
-10.20232
-11.65079
-13.45118
-15.43806
-14.24797
-10.86687
-9.811139
-9.887016
-10.44439
-12.89113
-16.94953
-22.69269
-29.31453
-36.17443
-41.24936
-43.73074
-43.26559
-39.41567
-33.06402
-26.7568
-20.01535
-19.99257
-30.2977
-37.45796
-37.64297
-34.02874
-32.77766
-36.24838
-44.98579
-56.98711
-68.22305
-72.62865
-62.9173
-45.06384
-28.65987
-16.77081
-15.94223
-26.3488
-39.79186
-48.06794
-60.67596
-83.632
-128.837
-171.6144
-164.1228
-110.4239
-87.98781
-98.32197
-109.5034
-116.3756
-117.4591
-116.5002
-117.2488
-119.4468
-121.3205
-122.6241
-123.2388
-121.6886
-120.6937
-118.6528
-116.0858
-112.537
-107.8617
-103.9923
-99.07675
-93.92572
-87.72119
-81.35698
-75.10069
-68.16397
-60.78773
-53.93014
-46.98819
-39.55834
-31.89436
-24.75487
-18.08802
-10.83468
-4.266662
2.545818
8.717275
15.00333
20.82939
25.86983
30.61366
34.95632
38.9396
42.54259
45.15667
47.57701
49.37834
50.59577
51.3812
51.57677
51.04756
49.99007
48.43117
46.36162
43.78664
40.76142
37.36003
33.17231
28.84789
24.27748
19.24479
13.75739
7.850264
1.99006
-3.948562
-10.21451
-16.47957
-22.45956
-28.73651
-35.45925
-41.25366
-47.25048
-52.6498
-57.82576
-63.10684
-67.50116
-71.8637
-75.29486
-78.42332
-81.31995
-83.10127
-84.16164
-84.54505
-84.49687
-83.30666
-81.10186
-78.3556
-75.9183
-75.22992
-77.42966
-90.36321
-96.0801
-77.7845
-53.21263
-36.09428
-24.58398
-10.4022
-2.97223
-54.51061
-98.76069
-86.77828
-59.19643
-34.88812
-19.79873
-8.299913
-0.9751
2.475996
1.207077
-0.3317099
-2.623922
-5.923723
-8.393974
-9.189532
-10.35998
-11.81056
-13.50097
-15.04057
-13.86759
-10.92147
-9.919854
-10.08088
-10.68549
-13.18972
-17.36501
-22.97493
-29.41568
-36.56926
2.635151
1.849293
-49.92846
-7.689237
8.675102
-7.802955
-0.826241
-0.8618247
5.107519
0.3894488
-4.859767
-1.319867
1.108094
0.7098209
0.6770611
1.044
-28.28835
-0.1868791
0.4371198
-1.506597
-24.36294
1.371982
0.374232
0.3224352
0.1413078
1.444134
-3.66005
0.5942389
-2.861666
0.7536995
0.37007
-33.95168
-7.78136
1.236223
0.227506
-1.141445
3.137772
0.1918148
-3.63938
-1.72495
-12.05867
2.310349
1.864676
4.845441
26.6016
0.4379865
-1.059832
0.09559471
-5.139348
0.5676835
-18.49329
1.055114
-14.67369
0.9161906
-0.07659849
15.34535
4.391538
-2.389965
-6.525725
-8.555649
0.7369374
-0.0463433
-13.73496
0.6673346
-3.777148
1.035318
-44.93865
0.5211896
1.522346
1.114898
0.7947268
-0.6168943
-9.433041
-22.06264
22.49164
0.5062154
4.005764
0.3896647
1.703765
0.7161261
-8.000808
0.1694566
2.142485
-11.9126
-2.294803
0.9471253
-1.518454
-1.751487
-10.53682
1.721513
-6.673635
26.03883
1.33333
-8.393408
-0.1023495
-1.08455
-6.029728
6.562285
-79.88605
-0.3635636
-0.5603201
-1.586287
-1.635223
-61.64357
0.1902312
-28.03647
0.1155575
0.3314833
-9.806977
0.2548007
-1.821927
3.526591
5.895076
7.611047
-33.15553
0.2340556
-0.717272
0.8826966
25.6213
0.5224448
2.146432
0.6364983
0.9952104
1.184714
1.0859
-4.986378
1.534591
-56.80527
-1.927436
1.900512
0.3560589
-1.050364
0.6208372
1.294267
-0.240689
-16.49494
0.224917
1.404667
-0.2794102
-0.6979538
-56.75686
1.656939
-44.31195
1.918952
0.6574449
2.495874
-2.220369
-29.34249
0.5269979
0.8152096
-8.123833
-29.79497
-43.80691
1.594087
-6.302019
-93.03785
0.7739739
1.835873
0.8848398
-13.00192
0.2742919
-18.13039
-9.463828
-3.447873
1.320944
-0.04840807
-12.61454
2.060483
-45.89356
0.9099721
-0.3626422
-23.1627
3.045527
-63.75626
-3.008137
-10.99428
0.5221352
-0.02051172
-59.85239
2.293372
13.72435
-1.79464
0.9813111
0.6376408
5.860484
-30.729
0.9526815
0.4544753
-3.099049
0.3347841
0.7718656
-0.4696582
-0.327099
0.1232162
0.5661217
0.4267328
1.320653
1.888595
2.7362
-20.57589
-1.919451
3.86799
2.195576
-9.331488
-2.296143
-1.243682
-2.510594
1.786787
-3.889327
0.8603881
0.933456
-9.97308
-14.11161
-1.416604
-2.731856
-15.54765
-5.817276
-1.334022
13.36468
0.522788
1.452577
-2.281648
1.717695
-7.742683
-0.5552539
-4.634182
1.054038
8.003299
-12.85358
14.76084
-9.708488
-60.191
-0.5103277
0.7818567
-36.16864
0.6889587
19.86701
2.679905
2.493496
1.906925
1.228832
0.2180617
0.8245297
-19.57203
-0.1172509
-3.370914
0.9479996
-60.58937
-1.412007
2.201561
-18.24233
1.865453
-2.427767
-1.318452
2.244171
-14.01267
2.281966
0.6092785
-11.23917
-1.919876
-12.62664
0.07233885
-5.034927
-0.5955514
0.9612147
0.7862308
0.5887506
0.5037507
-8.571945
-15.3387
1.229981
0.7321787
11.80434
0.9617216
-19.43394
2.125075
0.0495177
-42.25535
-107.8405
0.6596161
1.179233
1.855541
2.263773
0.7694079
1.117349
1.062434
39.51058
0.8423595
0.4982237
1.14996
-1.776383
0.7038202
0.1780632
0.8627116
-53.4697
-1.582771
-8.072619
0.4932888
-1.687705
1.698868
-26.88305
1.414286
1.644287
-30.21217
1.52698
0.3967778
1.117062
0.8662875
-12.50529
-17.69267
-0.9399296
-3.508807
1.024178
-0.8458485
1.207335
-5.815325
33.58571
-34.64734
-39.82654
-91.11392
1.401588
1.251347
-3.15958
1.181632
-0.1096632
1.694651
0.8105318
-0.2609497
0.7003891
2.794628
19.41279
0.4859129
-2.955546
-76.05861
1.309776
0.1034032
1.442865
0.9595477
1.880855
-6.16214
-64.24161
6.635292
2.400884
-2.106146
-6.742391
5.385243
0.847523
0.8049873
-5.166192
-0.5556383
-8.332572
1.821124
11.17069
1.306633
2.871437
-76.66141
-36.51685
0.9370921
0.622825
0.3843026
0.5100534
-1.695355
2.10965
1.352922
-1.210421
0.4923798
-0.3215532
2.05799
0.03063466
-0.3123263
0.2735645
10.27309
-23.81227
0.8080082
0.6495125
1.941012
-1.564655
1.533535
1.494451
-1.164031
1.090533
0.03663369
0.4273545
-22.67448
0.4463362
0.18589
-0.2547573
41.38513
1.478526
1.252247
-6.448025
0.5985989
3.318307
-83.75953
0.5772354
0.6948037
2.267942
0.8906337
0.9716168
0.694064
0.9350649
-1.678115
-16.91978
1.853461
1.254331
-18.43663
-52.51185
-35.74163
-0.2690415
-4.014592
0.4762123
0.5145954
1.043684
-0.7944792
0.6430335
0.7615011
3.854213
-4.895173
1.531363
-1.815042
-1.694502
0.5263102
1.993224
0.9899389
0.8122086
-15.07029
2.479673
-1.171529
-14.98737
3.151129
-20.00297
-19.69845
-7.481753
0.6505439
-1.568975
1.771245
0.7936267
-1.847647
0.4848786
-1.467639
1.46901
0.9615835
3.55101
0.7237373
-0.5905029
0.9885398
0.4011111
1.139677
-2.810323
1.03189
-0.9821864
-103.6374
-1.844126
-17.83576
0.9845727
1.164673
0.7820894
3.551659
1.161192
-10.16242
1.094563
-52.84586
-2.765649
1.113158
1.297993
1.000481
29.35598
0.7102234
1.357282
0.5452837
-5.168904
0.7813522
0.5930438
6.623023
1.961716
-19.02533
-5.033876
-51.45179
0.9693993
0.5773222
-26.09809
-1.304273
0.9542795
0.587288
-0.8199867
1.112901
1.206111
15.14178
-1.224469
-0.5441939
1.568996
-14.29878
-4.803488
0.9337904
-10.8635
0.0005985738
0.8134684
3.794698
1.203388
3.048003
0.22541
0.511549
-9.020225
-1.224567
2.454684
1.038798
-0.9962297
-2.650398
-4.977301
3.242436
-12.2946
-1.736427
7.133565
0.9263746
1.40127
1.004041
0.5554259
1.105905
0.8198902
0.5931103
0.1545114
0.6822462
-4.117185
1.370681
0.1640691
1.251883
0.3518027
1.669644
0.941879
-13.84937
-16.00634
-7.632228
-11.76859
0.3137538
3.391179
4.485446
3.207945
-2.397825
1.197517
0.528458
4.951757
0.992566
2.022465
2.003789
-74.63581
1.434267
4.008768
1.311808
0.6181702
8.954402
0.9279134
12.37978
-18.35191
-0.7619805
-3.239018
1.006206
-2.005762
-2.25691
14.90316
-15.0004
-10.47702
-3.106764
1.950049
1.45656
0.2127003
1.565494
-0.5545033
0.6661684
25.75577
1.461104
0.7836723
-0.174675
2.625328
-44.05912
0.3478159
1.814254
0.004186591
0.941834
1.104665
1.673589
3.104837
1.512686
4.830707
0.2669718
-7.720745
-12.9087
-5.211548
-2.799584
-55.76001
-0.3448853
1.041225
-32.10914
-0.0127517
-0.3728367
1.210867
-0.7089454
0.05546155
-77.16416
1.552664
1.168438
0.9348553
3.36882
-3.769029
0.5195872
3.131997
-29.79002
-15.48943
0.4663518
-31.85271
-1.013156
5.240163
0.9739095
-25.00117
1.279389
7.429007
-6.347372
0.8985199
-5.349475
-1.310723
2.074623
8.100843
1.960216
-0.2907993
-2.836596
-0.08273956
17.15628
2.462702
0.7201145
1.066769
-0.03914794
3.57293
-2.575097
-7.023155
-29.6233
-13.29334
-2.593651
-6.69381
-0.9821239
1.286257
1.79673
0.9021527
1.769855
-2.882091
-34.36051
1.351376
2.362264
0.606567
3.050153
1.282446
24.55572
2.72299
-44.51564
3.024721
-4.484578
6.852476
0.03915983
-36.51198
-1.030908
-0.8763591
-28.99091
-2.425609
-2.593396
1.67106
-1.225566
1.640927
0.2133442
-2.122379
-0.6232361
2.767721
-7.616348
0.9883594
-1.462935
-57.24225
2.154526
0.5790849
-1.600814
-10.70594
1.556284
1.535475
10.90473
14.83917
16.16001
1.659016
-3.621434
1.802656
2.438638
0.9401229
0.513
1.994081
1.032108
-32.58144
0.06503492
-23.91676
1.655945
1.456342
0.014713
-8.939529
2.339024
-0.9639075
-2.739573
-1.183786
-1.768964
-9.180009
-8.705776
4.52106
-4.73102
-0.1663517
0.6367805
-32.1118
-2.201735
2.114384
1.697218
2.052343
0.712494
-8.940229
0.7604227
-0.6936372
-19.74649
1.135319
-7.056116
-2.155713
0.4561604
0.7791382
0.8137483
1.25727
-1.300685
0.4708112
-15.76106
1.423575
0.9352446
-1.437689
-0.8933915
0.4631
0.6131793
1.198704
3.309317
0.2662931
1.726687
-40.81861
-1.67175
0.523517
-9.476795
-1.571191
0.6844148
6.17992
1.03513
-36.09935
1.206309
-1.378235
4.13941
1.736785
-25.29675
-4.763152
-2.933026
-2.211409
-66.47844
-10.51789
-16.72621
-25.89036
-0.7741095
-0.708572
-3.457078
0.3649767
14.72043
2.935954
-0.08991594
-8.908997
-0.9087347
-0.1504265
0.5328534
-2.049015
21.2074
-15.22959
-3.942981
0.7594615
-1.695682
0.852994
-7.520126
-8.229487
1.386665
-0.1674463
1.432267
1.381594
-6.609696
8.45141
-0.5659467
-3.754195
1.687564
1.461837
0.8146912
0.7616631
-8.233409
30.11081
1.624316
1.436546
0.6639484
0.6477342
-25.36525
0.6744029
-62.86002
0.6048962
-27.35743
-13.76798
0.9826785
2.29559
1.93329
-13.38422
1.716761
-6.736739
-0.7985259
1.712669
-15.72165
-69.34931
0.8623522
0.9497348
-3.547482
0.7054744
0.6932577
0.4272005
-10.47502
-0.6846959
12.09253
-0.05806731
0.5273791
0.8156879
0.8798593
2.509585
-2.735917
0.9100119
-1.794382
-12.16945
0.3080968
8.679531
-12.8596
1.471982
0.793326
-21.72332
1.502345
0.6263289
0.950056
-4.187672
-3.042872
1.908074
0.9403342
-0.004601391
-0.1164359
2.731944
1.039417
1.572421
33.3924
0.6928112
-0.06832767
2.641713
-87.35252
-1.40648
1.096925
2.475893
-0.5241605
34.70917
0.9245224
0.928376
-4.593757
0.2951948
2.287485
-0.04802049
0.6834275
0.8061652
-32.41635
-8.096906
0.5376379
-5.041837
-107.4136
-4.287844
-2.671091
-0.564798
-6.571824
4.132567
32.89769
1.4073
-0.3139691
1.192125
1.061321
1.082525
5.990944
0.5303336
0.6551762
-13.6517
0.7941519
-0.6682063
-0.3062402
1.73119
-12.38118
-4.193245
-37.96892
1.791314
3.886527
-15.32154
-1.507079
1.409945
-2.711923
-18.08428
0.9862459
2.366041
13.29531
-7.549016
2.945363
-0.1486097
0.3872056
-18.05781
22.91101
-2.795444
0.536254
-7.122986
-3.180772
0.6616508
-2.015641
-0.0489176
2.035998
1.410412
-42.54307
-7.508342
2.198424
-2.579454
3.12241
-0.1098882
-31.56891
-30.55779
-62.66008
1.549243
-27.98731
3.774988
1.230385
-26.17634
0.4547954
1.020383
-16.809
0.03046552
0.936103
-13.15435
3.26704
-18.99834
-28.71877
-16.98664
3.171808
12.89753
1.897203
-0.07918642
-30.07801
23.32853
-44.72056
0.2948432
0.816606
1.86105
3.004949
-0.5152724
-2.07001
-1.391829
0.4239654
-2.444273
-35.69984
-36.68606
-0.3018327
-0.007084172
1.672664
-12.43463
-0.6246225
2.174515
0.6813915
1.41492
-0.03741924
-0.06844697
0.829813
-5.427764
0.884065
-8.078696
2.192376
1.583792
-18.31078
2.030395
0.6584173
-4.755403
-16.27009
1.133766
-0.1516628
2.317872
-19.87598
-51.28485
31.31787
46.23871
3.09448
-1.377385
-1.56618
4.244234
1.979056
-1.27421
12.99454
-20.81144
2.388623
0.8615781
0.9455576
1.8082
0.480573
4.2055
2.862067
-31.92413
-42.81873
-1.102053
0.4519377
0.1061995
2.332742
0.6722115
-32.86923
-1.014912
0.9095204
0.7805232
-2.739591
2.435859
1.110635
-52.08197
-33.64086
2.007432
1.141291
1.481456
2.712652
2.071142
2.101287
-0.4540581
-25.96633
1.852843
-13.06003
-1.178214
1.759583
1.256754
-29.80101
-63.28
-2.17699
0.5701518
0.9732891
0.551779
-3.385675
-12.05761
-7.723162
0.6151091
0.9019078
-17.70195
0.5825928
0.5007345
1.477268
1.352229
-1.199369
1.232221
0.9297411
-2.401873
-2.82252
0.8542407
-0.3732107
2.78559
-1.369719
-5.32266
2.56492
0.1354467
-0.4811068
4.051667
-0.1134544
0.4760947
-40.63176
-29.79595
0.9151022
0.7079132
-1.244378
0.8924588
-18.10816
-5.381158
-31.74683
-20.87743
24.03781
1.466918
3.880917
-12.46952
-12.56087
0.3829533
3.198624
-50.04375
-22.78763
2.353318
-40.78529
2.201972
2.651703
-1.520117
0.5701752
-36.98729
1.681473
-43.9084
0.1503417
-5.290598
38.14147
-6.521557
-2.458905
0.898836
0.7136536
0.7861499
7.787968
1.297723
8.188887
-2.849485
2.652787
-13.55242
2.967387
0.04506411
0.6663258
-27.98686
-0.0654918
-59.14249
7.26305
1.390944
8.942647
1.021768
32.19822
1.516214
-2.279239
0.9856428
-2.766586
16.78213
-1.67891
-40.54405
1.031507
-0.2492776
0.642089
0.5495383
-2.175987
-15.47377
-2.216908
-0.532009
-44.83701
-2.697287
23.14515
-19.81861
2.989716
-16.73823
-22.91694
-7.730597
-47.86498
40.31265
3.94384
0.9546544
-26.03491
1.735754
-20.46925
-3.69817
1.961437
-27.5161
-51.5684
-9.203672
2.074891
3.2646
0.8528139
0.645162
1.372324
-0.5547807
0.5047708
1.521021
0.5684582
-1.905975
0.3624093
0.8146561
-3.165412
1.743001
-0.5463913
-0.3044467
-57.14781
-0.2333986
1.608214
1.365834
2.946897
-48.06304
2.038836
-21.83381
0.2871382
-2.679887
1.122106
-1.959806
0.6047498
1.028009
-52.55532
30.50081
0.6315022
-2.411076
1.947365
0.4023202
0.9218609
0.7764758
-24.15238
1.145784
1.287499
-10.32566
0.2454902
-9.118861
-3.496043
-5.988884
3.813317
1.902858
0.7832759
1.440357
-46.43316
-17.11296
-49.13541
-1.583319
0.2095495
1.797959
1.043362
0.9458332
1.055862
-29.3506
-0.5368646
0.6361793
0.5632523
-13.90021
1.093768
1.442569
3.169623
-71.8116
0.6974417
-5.723025
1.013194
-83.69173
1.410677
-23.00607
0.9530775
1.064803
0.8452892
0.7814575
1.210946
-21.24487
-19.09635
1.4546
0.7343269
-8.694138
1.599507
1.461355
1.78552
3.660965
-2.855815
0.7639605
0.4124783
-94.74676
-17.73525
-0.8169334
1.207138
1.843479
0.6918417
1.641944
1.193684
0.7028208
-16.2091
1.395903
-2.571283
12.89325
0.9694198
-6.100763
0.6252162
1.769555
0.4049905
-33.47314
-1.099986
-2.569517
0.1566025
-10.64242
-33.28406
-14.9386
0.9848339
-5.014108
-0.3127024
-5.231215
-0.4453097
-1.451426
16.41592
-2.423491
-18.73225
-56.69931
-5.792908
-9.13087
0.9931862
-6.919866
-8.160932
-5.869152
-2.965759
2.585249
-3.776884
-9.055441
1.298452
1.153182
-1.767552
2.645041
0.9706386
0.8303967
2.33084
0.9969487
2.293452
-5.859457
-1.901773
0.6194827
-1.826189
1.014411
-10.01365
1.714338
-6.15361
2.133232
1.858895
2.240957
-3.303031
-9.541362
2.025024
-0.227745
0.5654775
9.377798
-38.93528
-24.55503
1.339897
1.329016
14.97921
1.327424
0.8659466
0.6241494
-4.33258
1.167693
-59.75692
-19.63881
-11.3926
15.7442
11.51283
0.9411773
-29.18917
-32.53424
-50.75518
1.927677
-8.404869
-2.681853
0.4700858
0.7824279
0.7821362
0.4247382
1.056095
0.7516517
1.080274
0.8896205
0.6735785
-17.16587
0.315749
-1.264278
1.446871
-4.168904
19.90677
-0.6624706
-4.738451
-24.26123
-18.20216
13.23782
4.749579
-11.43564
-6.94046
-43.36308
0.3925834
-18.81634
1.87881
-63.1647
-29.88748
-1.471539
-0.4236884
-10.43411
1.851351
14.63442
0.5184168
-21.02912
1.593921
0.6048779
1.473626
-11.27649
0.7221385
-0.5906315
-0.5307185
-20.64981
-3.593145
0.5828643
-0.1892138
1.413176
1.090602
-6.37997
2.758388
-53.18901
-2.153377
0.06264135
28.13541
0.8400701
1.845214
-31.99249
-3.111442
-12.75945
-2.324244
-28.10376
0.8222782
0.6534105
-2.267188
1.32852
1.604446
7.445049
0.9993278
1.050246
0.9359848
15.66661
3.61702
-24.9607
10.64725
-1.818653
0.9050739
-60.12916
0.9562004
0.6788231
1.923433
1.668753
-21.88205
-39.07138
-43.34351
-35.3986
0.2039391
-0.4299045
-16.76774
0.0602731
-29.71482
2.109443
2.346273
-31.02767
-24.18673
-0.9058101
-84.0183
1.714301
-8.506421
0.8769308
-1.408892
10.5671
0.770602
-1.763676
-0.4435394
1.321233
0.6761781
18.62099
-1.946196
-2.419159
0.6948755
0.05072336
-0.8532804
-3.398503
-5.318714
1.249109
1.73637
0.3721779
-0.4104438
0.4955833
-27.60753
0.4068459
0.818507
-2.943692
-1.237013
0.5349455
0.6213049
0.6286949
-0.1739712
-2.12324
-53.31893
28.16578
-11.45563
-11.02133
-5.123538
-19.27775
0.6609841
-0.6540471
-3.24291
-0.06996143
0.8875222
1.65102
-0.7398025
-71.92601
1.090276
21.08556
30.8881
2.629795
1.101445
3.076
1.752479
2.040196
0.9778534
32.17181
-35.38084
1.124478
-2.745008
1.371314
-2.002523
1.687587
1.870188
1.89755
2.373985
1.315637
-27.42263
0.4664965
0.48743
3.014203
-12.5991
-6.348448
-0.1494263
0.4105159
-57.5741
32.86961
-14.48041
1.217105
-14.216
-7.517115
0.9887013
0.381533
32.5021
-1.31906
1.833054
-1.902045
-1.439143
-1.541283
-7.326221
-0.2283834
0.861696
0.6613929
0.8741254
20.07124
-7.949244
-0.9328497
-0.7340611
0.5779176
-34.00223
21.28369
3.249489
10.31258
-107.7966
-45.50813
0.120053
0.5411536
-21.06687
2.538676
-21.44678
-7.572
-6.260246
3.869853
-1.211117
-2.246562
-6.197539
8.47103
-5.824514
-13.22416
-2.704701
0.7547126
-3.714631
-38.0612
-10.50154
1.668612
2.540971
-0.02444436
0.7932821
2.421612
0.1292134
1.122655
2.223518
-15.61351
-4.994777
0.1964472
0.2094892
9.414042
0.222617
0.715754
-4.165984
3.901413
-1.96281
0.4659726
37.25275
1.082007
0.7083541
-0.3211808
0.1298735
-3.453603
-32.96977
-48.54453
12.07938
2.371073
1.037021
0.5214741
0.4115343
0.3469325
1.964984
-0.1380426
0.07301786
1.758584
1.849601
-9.251915
-1.437519
12.28641
9.331575
-4.273493
1.378621
0.8026328
0.8196597
1.293999
-4.146659
1.988575
-33.52627
-8.632079
0.5828071
-0.1419479
-54.02562
41.55149
-65.78804
0.2824939
2.405474
3.881601
-20.9774
7.762216
-13.94566
-6.2037
3.270809
1.028984
3.913542
0.5962314
-7.887382
1.658259
-37.23184
-1.534955
-1.77597
0.5519156
0.08585106
-102.584
-31.30658
-58.45125
0.5633738
13.95489
1.42732
1.009697
1.277545
2.081191
-13.55178
0.642991
3.275518
27.07278
-0.1362537
0.2150635
0.8557155
22.44901
-2.005483
3.339524
3.003172
1.380524
0.751496
0.5850015
-91.45
1.704052
-85.41978
2.370491
-1.591086
45.94421
-4.287143
0.6458834
1.167611
4.094358
-10.04423
2.259973
-61.9242
44.91764
3.581928
-6.529223
45.79535
1.215378
1.007483
0.7314531
-12.9105
-0.4567058
0.9556322
0.4898472
4.264995
-17.81619
-21.65368
0.8786063
0.8587184
-9.850854
0.1073417
12.77798
-0.9319689
0.5937568
0.2534646
0.7080012
0.8725802
1.078542
0.9049686
0.09156789
2.009604
0.1967825
-36.50194
-42.7199
-47.47099
-39.51126
-78.22541
1.710673
-6.840804
1.935617
0.662297
3.691559
-16.99504
0.6936135
27.60334
-10.56422
1.940651
-17.36089
1.872252
1.039196
-15.05222
-28.4632
2.592355
-94.30321
2.759044
0.7881155
-2.314565
2.527645
0.782189
-14.30901
0.6157538
1.956335
0.2841919
0.5611392
2.872268
3.650286
1.257604
-2.504875
-0.6416361
-13.5419
-6.245451
0.1398493
-7.685807
0.8904223
-5.821707
-93.91721
2.773645
1.940772
0.6996425
-0.2112459
6.913294
14.83431
-0.1082508
0.7560365
3.049336
-7.753272
-34.35813