/*--------------------------------*- C++ -*----------------------------------*\
| =========                 |                                                 |
| \\      /  F ield         | OpenFOAM: The Open Source CFD Toolbox           |
|  \\    /   O peration     | Version:  2406                                  |
|   \\  /    A nd           | Website:  www.openfoam.com                      |
|    \\/     M anipulation  |                                                 |
\*---------------------------------------------------------------------------*/
FoamFile
{
    version     2.0;
    format      ascii;
    arch        "LSB;label=32;scalar=64";
    class       surfaceScalarField;
    location    "2.48";
    object      phi;
}
// * * * * * * * * * * * * * * * * * * * * * * * * * * * * * * * * * * * * * //

dimensions      [0 3 -1 0 0 0 0];

oriented        oriented;

internalField   nonuniform List<scalar> 
23794
(
0.007258413
-0.006780519
-0.0004778945
0.007194283
6.41304e-05
0.00584984
0.001344443
0.002441989
0.003407851
-0.001294187
0.003736177
-0.002693796
0.001399609
-0.0004742817
-0.002219515
0.001405646
-0.001879927
-0.000204794
0.00161044
-0.002821089
0.002616295
-0.003579209
0.0007581196
-0.002692524
-0.0008866848
-0.001000602
-0.001691922
0.0009913889
-0.001991991
0.002948312
-0.001956923
0.004621556
-0.001673244
0.005500011
-0.000878455
0.00480006
0.0006999514
0.002322503
0.002477556
-0.0009634849
0.003285988
-0.003650221
0.002686737
-0.003815677
0.0001654551
-0.001038664
-0.002777012
0.001882355
-0.002921019
0.003274702
-0.001392347
0.004289239
-0.001014537
0.006096402
-0.001807163
0.009246694
-0.003150293
0.01218051
-0.002933819
0.01041463
0.001765887
0.001767919
0.008646706
-0.004235037
0.006002956
-0.001257298
-0.002977738
0.003008774
-0.004266073
0.004132047
-0.001123273
0.003369011
0.0007630366
9.787751e-05
0.003271133
-0.00551947
0.005617348
-0.01008375
0.004564276
-0.01262411
0.002540367
-0.01391378
0.001289667
-0.01466278
0.0007489947
-0.0151532
0.0004904296
-0.0154836
0.0003303987
-0.01570268
0.0002190761
-0.01574126
3.858298e-05
-0.01570614
-3.512192e-05
-0.01563627
-6.986963e-05
-0.01552332
-0.0001129469
-0.01539789
-0.0001254302
-0.01521569
-0.0001822042
-0.01499548
-0.0002202139
-0.01471838
-0.0002770957
-0.01441959
-0.0002987932
-0.01410575
-0.0003138351
-0.0137391
-0.0003666503
-0.01335488
-0.0003842182
-0.01296453
-0.0003903491
-0.01251041
-0.0004541224
-0.01203509
-0.0004753222
-0.01153607
-0.0004990244
-0.01103208
-0.0005039824
-0.01050823
-0.0005238503
-0.009935392
-0.0005728407
-0.00937201
-0.0005633817
-0.00876847
-0.0006035398
-0.00814759
-0.0006208805
-0.007523142
-0.000624448
-0.006891835
-0.0006313072
-0.006229429
-0.0006624054
-0.005566827
-0.0006626019
-0.004897947
-0.0006688808
-0.00421791
-0.000680037
-0.003544273
-0.0006736362
-0.002890283
-0.0006539899
-0.002203378
-0.0006869053
-0.001535431
-0.0006679473
-0.0008757647
-0.0006596662
-0.0001435856
-0.0007321791
0.0006504055
-0.0007939911
0.00138251
-0.0007321046
0.002088615
-0.000706105
0.002782934
-0.0006943194
0.003459686
-0.0006767519
0.004134598
-0.000674912
0.004789274
-0.000654676
0.005455059
-0.0006657849
0.006100334
-0.0006452753
0.006710608
-0.0006102734
0.007324186
-0.000613578
0.007924337
-0.0006001509
0.008501
-0.0005766631
0.00907283
-0.0005718301
0.0096291
-0.0005562705
0.01013213
-0.0005030262
0.0106286
-0.0004964724
0.01110833
-0.0004797293
0.0115467
-0.0004383675
0.01198323
-0.0004365363
0.01236734
-0.0003841085
0.01272261
-0.0003552712
0.01303757
-0.0003149551
0.01330828
-0.0002707083
0.01357077
-0.0002624983
0.01379371
-0.0002229328
0.01397463
-0.0001809251
0.01410976
-0.0001351327
0.01419892
-8.91562e-05
0.01424805
-4.912455e-05
0.01421443
3.361931e-05
0.01411756
9.686927e-05
0.01389713
0.0002204233
0.01345695
0.0004401795
0.01274955
0.0007074083
0.0115878
0.001161741
0.009431196
0.002156608
0.005668115
0.003763081
0.001298963
0.004369153
0.0001410131
0.00115795
-0.001539722
0.001680736
-0.006869061
0.005329339
-0.00955898
0.002689919
-0.007112544
-0.002446436
-0.003827201
-0.003285344
-0.00170225
-0.00212495
0.0008329708
-0.002535221
0.004226968
-0.003393997
0.004627428
-0.0004004602
-0.003026032
0.00765346
-0.008569469
0.005543437
-0.007983183
-0.0005862861
-0.0055872
-0.002395983
-0.003088647
-0.002498553
-0.001145288
-0.001943359
0.0007705818
-0.00191587
0.002001466
-0.001230885
0.002343199
-0.0003417326
0.001680757
0.000662442
0.0008485721
0.0008321849
0.0004992829
0.0003492892
0.0001476243
0.0003516586
-0.0006615278
0.0008091521
-0.0009021983
0.0002406705
-0.0001651718
-0.0007370265
0.0008228509
-0.0009880227
0.001863141
-0.00104029
0.001552056
0.0003110846
-0.0003081516
0.001860208
-0.001088534
0.0007803828
-0.0005591591
-0.0005293753
0.0002391283
-0.0007982874
0.001340237
-0.001101109
0.002520436
-0.001180198
0.003792239
-0.001271803
0.004954379
-0.00116214
0.006007423
-0.001053045
-0.0007730955
0.00926743
-0.008611939
-0.001133385
0.00961211
-0.0002805504
0.009520346
0.001436208
0.007162867
0.005765329
0.001379347
0.009519697
-0.002921564
0.00570052
-0.002128711
-0.003012368
-0.001300132
-0.002708506
-0.003704669
0.004014977
-0.005936122
0.004847748
-0.005286416
0.0001084143
-0.003312585
-0.002860516
-0.001070512
-0.003933995
0.001342753
-0.004405257
0.003711777
-0.004325946
0.005751324
-0.003712792
0.006938942
-0.002066072
0.006745652
0.0008932412
0.004924383
0.004298825
0.0005173538
0.007693018
-0.004554346
0.007758436
-0.005199537
0.0008106463
-0.001424684
-0.006551865
0.001639164
-0.005984867
0.002873145
-0.002626328
0.003745666
-0.001887058
0.005396483
-0.003457979
0.008681676
-0.006435486
0.01188024
-0.006132387
0.01238001
0.001266122
0.005852878
0.01517384
-0.001676522
0.01353236
-0.002903667
-0.001750593
-0.002074441
-0.005095299
-0.002793832
-0.000403882
-0.006442533
0.004411738
-0.0128303
0.009658904
-0.01886667
0.01165371
-0.02182793
0.007525538
-0.02257383
0.003286274
-0.02273695
0.001452784
-0.02274482
0.0007568637
-0.02269015
0.0004357592
-0.022599
0.0002392473
-0.02248678
0.0001068556
-0.0222715
-0.0001766902
-0.0220404
-0.0002662304
-0.02179063
-0.0003196323
-0.02149696
-0.0004066212
-0.02119157
-0.0004308189
-0.02082714
-0.0005466312
-0.02042529
-0.0006220717
-0.01996172
-0.0007406641
-0.01947524
-0.0007852661
-0.01897992
-0.0008091573
-0.01842751
-0.0009190605
-0.01785328
-0.0009584471
-0.01727732
-0.0009663091
-0.01662799
-0.001103454
-0.01595884
-0.001144478
-0.01526224
-0.001195618
-0.01455928
-0.001206947
-0.01383926
-0.001243866
-0.01306084
-0.001351263
-0.01229508
-0.00132914
-0.01148747
-0.001411149
-0.01065762
-0.001450733
-0.009826946
-0.001455123
-0.008992745
-0.001465508
-0.008120578
-0.001534573
-0.007247232
-0.001535948
-0.00636947
-0.001546642
-0.005479682
-0.001569825
-0.00459963
-0.001553687
-0.003741652
-0.001511968
-0.002849757
-0.001578801
-0.001977552
-0.001540152
-0.001111091
-0.001526127
-0.0001630624
-0.001680208
0.0008557236
-0.001812777
0.001806257
-0.001682638
0.002726812
-0.00162666
0.003630529
-0.001598037
0.004515852
-0.001562075
0.005400435
-0.001559495
0.006261877
-0.001516118
0.007136137
-0.001540044
0.007988009
-0.001497147
0.008797779
-0.001420043
0.009613478
-0.001429278
0.01041778
-0.001404453
0.01119303
-0.001351915
0.0119632
-0.001341999
0.01272067
-0.001313744
0.01341508
-0.001197432
0.01410627
-0.00118766
0.01477889
-0.001152355
0.01540541
-0.001064885
0.01603205
-0.001063173
0.01659748
-0.0009495441
0.01713782
-0.0008956098
0.01763336
-0.0008105005
0.01808058
-0.0007179193
0.01852555
-0.0007074741
0.01892896
-0.000626341
0.01928691
-0.0005388778
0.01959898
-0.0004471985
0.01986313
-0.000353311
0.02009577
-0.0002817587
0.02027296
-0.0001435731
0.02045461
-8.478188e-05
0.02060784
6.719913e-05
0.02065824
0.000389777
0.02062134
0.0007443104
0.02044976
0.001333317
0.01982462
0.002781743
0.01749614
0.006091565
0.01263517
0.009230118
0.005198211
0.008594913
-0.002181381
0.009060327
-0.00681958
0.009967538
-0.006382667
0.002253006
-0.002658702
-0.006170402
-9.116639e-05
-0.005852879
0.001651699
-0.003867816
0.003277582
-0.004161105
0.006494637
-0.006611052
0.004154721
0.001939456
-0.006504072
0.01831225
-0.01109848
0.01013785
-0.009351574
-0.002333195
-0.006780478
-0.004967079
-0.004046675
-0.005232356
-0.001809782
-0.004180252
0.0008045954
-0.004530247
0.002957246
-0.003383535
0.003973434
-0.001357921
0.003187158
0.001448718
0.001660584
0.002358758
0.0008020005
0.001207873
-2.421208e-05
0.001177871
-0.001237372
0.002022312
-0.001327037
0.0003303353
-0.0003333258
-0.001730738
0.000756641
-0.002077989
0.001856596
-0.002140244
0.002027559
0.0001401208
0.000164156
0.003723611
-0.001424221
0.002368759
-0.0009312009
-0.001022395
0.0002582496
-0.001987738
0.001658072
-0.002500932
0.003163572
-0.002685698
0.00476085
-0.002869082
0.006236202
-0.002637491
0.007579784
-0.002396627
-0.001805251
0.01119143
-0.01037964
-0.001945173
0.01145618
-0.0005453052
0.01133667
0.001555719
0.01033735
0.006764645
0.00559767
0.01425938
-0.0007031821
0.01200137
-0.003264974
-0.0004505754
-0.004164117
-0.001809364
-0.006586511
0.00643737
-0.007330535
0.005591772
-0.005795264
-0.001426857
-0.003632953
-0.005022827
-0.00108239
-0.006484558
0.001692597
-0.007180243
0.004458676
-0.007092024
0.006838357
-0.006092474
0.008232223
-0.003459939
0.007869567
0.001255898
0.00615328
0.006015111
0.002379791
0.01146651
-0.003448015
0.01358624
-0.005323742
0.002686374
-0.002022708
-0.0098529
3.602467e-05
-0.0080436
0.000689746
-0.003280049
0.001108936
-0.002306248
0.002498836
-0.00484788
0.006193127
-0.01012978
0.009965442
-0.009904702
0.01091247
0.0003190911
0.006424561
0.01966175
-0.001849862
0.02180678
-0.009773558
0.006173103
-0.01535573
0.0004868717
-0.0182394
0.002479785
-0.02153054
0.007702879
-0.02517163
0.01329999
-0.02682821
0.0133103
-0.02671156
0.007408886
-0.02653865
0.003113366
-0.02660995
0.001524081
-0.02667
0.0008169116
-0.02669672
0.0004624776
-0.02667723
0.0002197539
-0.02662418
5.381407e-05
-0.0264104
-0.0003904728
-0.0261512
-0.0005254302
-0.02586734
-0.0006034904
-0.02553047
-0.0007434948
-0.02518181
-0.0007794758
-0.02475943
-0.0009690091
-0.02429352
-0.001087986
-0.02375187
-0.001282314
-0.02318266
-0.001354477
-0.02260373
-0.001388083
-0.02195338
-0.001569417
-0.02127682
-0.001635003
-0.0205997
-0.001643432
-0.01983156
-0.001871596
-0.01903977
-0.00193626
-0.01821463
-0.002020759
-0.01738145
-0.002040129
-0.01652769
-0.002097622
-0.01560145
-0.002277513
-0.01469183
-0.002238755
-0.01372922
-0.002373756
-0.01273984
-0.002440116
-0.01174847
-0.002446491
-0.01075212
-0.002461855
-0.009709102
-0.002577594
-0.008663829
-0.002581221
-0.007611666
-0.002598806
-0.006544645
-0.002636846
-0.00548724
-0.002611092
-0.004455154
-0.002544055
-0.00338407
-0.002649884
-0.002336978
-0.002587244
-0.001298656
-0.00256445
-0.0001721972
-0.002806666
0.001034242
-0.003019217
0.00216906
-0.002817456
0.003269983
-0.002727583
0.004349822
-0.002677875
0.005407854
-0.002620107
0.006464464
-0.002616105
0.007492731
-0.002544385
0.008536198
-0.002583512
0.009552026
-0.002512975
0.01051733
-0.002385346
0.01148958
-0.002401527
0.0124471
-0.002361974
0.01336945
-0.002274264
0.01428599
-0.002258541
0.01518607
-0.00221382
0.01600974
-0.002021103
0.01683008
-0.002008004
0.01762736
-0.001949633
0.01836809
-0.001805612
0.01911068
-0.001805766
0.01977762
-0.001616484
0.02041542
-0.001533413
0.0209985
-0.001393577
0.02152188
-0.001241301
0.02204414
-0.001229732
0.02251445
-0.00109665
0.02293156
-0.0009559936
0.02329263
-0.0008082657
0.02359695
-0.0006576295
0.02386099
-0.0005458002
0.02404531
-0.0003278956
0.02421057
-0.0002500383
0.02431533
-3.755597e-05
0.02428662
0.0004184789
0.02418971
0.0008412253
0.02407615
0.001446875
0.02412347
0.002734425
0.02412334
0.006091697
0.02244391
0.01090954
0.01495746
0.01608137
0.002767264
0.02125052
-0.002222511
0.01495731
0.001063803
-0.001033308
0.004337405
-0.009444003
0.00716297
-0.008678444
0.007908938
-0.004613784
0.00778986
-0.004042026
0.008299488
-0.007120681
0.002453753
0.007785191
-0.008412335
0.02917834
-0.01208244
0.01380795
-0.01044022
-0.00397541
-0.00755764
-0.007849661
-0.004807625
-0.007982372
-0.002719968
-0.006267909
3.964454e-05
-0.00728986
0.002627899
-0.00597179
0.004196777
-0.002926799
0.003768636
0.001876859
0.002226234
0.003901161
0.0009871177
0.002446989
-6.677202e-05
0.002231761
-0.001271112
0.003226652
-0.001507579
0.0005668019
-0.000777207
-0.002461109
0.0001671939
-0.00302239
0.001105152
-0.003078203
0.001739702
-0.000494429
0.0005542796
0.004909034
-0.001308039
0.004231078
-0.001036597
-0.001293838
0.0004364774
-0.003460812
0.002012191
-0.004076645
0.003821058
-0.004494566
0.005751146
-0.004799169
0.00753161
-0.004417955
0.009146604
-0.00401162
-0.003038287
0.01355125
-0.01258449
-0.002911932
0.01391486
-0.0009089179
0.01348636
0.001984224
0.0128166
0.0074344
0.009812162
0.01726382
0.002884222
0.01892931
-0.003112552
0.005546199
-0.006072508
0.001150592
-0.008324545
0.008689407
-0.008363323
0.00563055
-0.006553293
-0.003236887
-0.004158938
-0.007417182
-0.001225364
-0.009418131
0.002013893
-0.0104195
0.005259854
-0.01033799
0.008066999
-0.008899619
0.009729259
-0.005122199
0.009178591
0.001806566
0.006980113
0.008213589
0.003896576
0.01455004
-0.001527498
0.01901032
-0.004720852
0.005879727
-0.003269652
-0.0113041
-0.002738322
-0.00857493
-0.003518299
-0.002500072
-0.003906392
-0.001918155
-0.002112199
-0.006642072
0.002009219
-0.01425119
0.006238749
-0.01413423
0.006809545
-0.0002517057
0.003167942
0.02330335
-0.007264171
0.03223889
-0.02051724
0.01942617
-0.02842065
0.008390281
-0.03109136
0.005150496
-0.03257145
0.00918297
-0.03286222
0.01359077
-0.03203823
0.0124863
-0.03166118
0.007031836
-0.03195474
0.003406926
-0.03220921
0.001778559
-0.03233775
0.000945449
-0.03237648
0.0005012019
-0.03233583
0.000179105
-0.03224842
-3.358742e-05
-0.03195982
-0.0006790729
-0.03162418
-0.0008610735
-0.03125858
-0.0009690921
-0.03082997
-0.001172109
-0.03039113
-0.001218316
-0.02986593
-0.001494206
-0.02929019
-0.001663724
-0.02862458
-0.001947927
-0.02792651
-0.002052539
-0.02721855
-0.002096047
-0.02642701
-0.002360961
-0.02560427
-0.00245774
-0.02478155
-0.002466156
-0.02385347
-0.002799672
-0.0228951
-0.002894627
-0.02189796
-0.003017901
-0.02089266
-0.003045427
-0.01986404
-0.00312625
-0.01874717
-0.003394381
-0.01765288
-0.003333039
-0.01649398
-0.003532662
-0.0153046
-0.003629494
-0.01411175
-0.003639344
-0.0129137
-0.003659905
-0.01165962
-0.003831673
-0.01040242
-0.003838418
-0.009135814
-0.003865412
-0.007851767
-0.003920893
-0.006575401
-0.003887458
-0.005329467
-0.003789989
-0.004035062
-0.003944289
-0.002769359
-0.003852947
-0.001519284
-0.003814525
-0.0001789334
-0.004147017
0.001250621
-0.004448771
0.002608271
-0.004175105
0.003929343
-0.004048655
0.005223072
-0.003971604
0.00649008
-0.003887115
0.007755571
-0.003881597
0.008987396
-0.003776209
0.01024002
-0.003836138
0.01145729
-0.003730238
0.01261667
-0.003544735
0.01378572
-0.003570577
0.01493528
-0.003511535
0.01604576
-0.003384734
0.01715089
-0.003363677
0.01823367
-0.003296597
0.01922827
-0.003015702
0.02021976
-0.002999491
0.0211825
-0.002912375
0.02207957
-0.002702681
0.02297958
-0.002705778
0.02378965
-0.002426557
0.02456494
-0.0023087
0.02527568
-0.00210432
0.02591821
-0.00188383
0.0265593
-0.00187082
0.02713847
-0.001675822
0.02765675
-0.001474277
0.02810717
-0.001258683
0.02849456
-0.001045022
0.02883425
-0.0008854853
0.02908078
-0.0005744273
0.02930812
-0.0004773779
0.02945597
-0.0001854098
0.02942424
0.0004502088
0.02925422
0.001011246
0.02897236
0.001728733
0.02863739
0.003069397
0.02860201
0.006127078
0.0289019
0.01060965
0.02550256
0.01948071
0.01526724
0.03148585
0.008056294
0.02216826
0.009317571
-0.002294585
0.0137725
-0.01389893
0.01607202
-0.01097796
0.01587848
-0.004420246
0.01369474
-0.001858293
0.01041563
-0.003841569
0.0009929476
0.01720788
-0.009770354
0.03994164
-0.01301023
0.01704782
-0.0113108
-0.005674839
-0.008013206
-0.01114725
-0.005209462
-0.01078612
-0.003508731
-0.00796864
-0.0008679547
-0.009930635
0.001924992
-0.008764736
0.003843428
-0.004845235
0.003868813
0.001851474
0.002389759
0.005380216
0.0007895901
0.004047158
-5.496834e-05
0.003076319
-0.001056177
0.004227861
-0.001736092
0.001246717
-0.001595247
-0.002601955
-0.001005779
-0.003611859
-0.0002701926
-0.003813789
0.0008131754
-0.001577797
0.0005090158
0.005213194
-0.001374307
0.006114401
-0.001202147
-0.001465998
0.0007042524
-0.005367211
0.002550134
-0.005922527
0.004711592
-0.006656023
0.007026819
-0.007114396
0.009161869
-0.006553005
0.0111042
-0.005953948
-0.004518582
0.01653148
-0.01534137
-0.004102043
0.01700808
-0.001385521
0.01645986
0.002532447
0.01549855
0.008395715
0.01360754
0.01915483
0.007360077
0.02517678
-0.001542573
0.01444885
-0.007034789
0.006642807
-0.009463178
0.0111178
-0.009592445
0.005759817
-0.007682407
-0.005146926
-0.004857726
-0.01024186
-0.001409888
-0.01286597
0.002380527
-0.01420992
0.006201658
-0.01415912
0.009562913
-0.01226087
0.01159424
-0.007153526
0.01084442
0.002556386
0.007908632
0.01114938
0.004819941
0.01763874
0.0002601096
0.02357015
-0.003947774
0.01008761
-0.005588662
-0.009663212
-0.007641977
-0.006521615
-0.009890421
-0.0002516288
-0.01076247
-0.00104611
-0.009150151
-0.008254386
-0.005018179
-0.01838317
-0.001267406
-0.017885
-0.0004691169
-0.001049995
-0.00439552
0.02722976
-0.01689558
0.04473895
-0.03120002
0.03373061
-0.03706696
0.01425722
-0.03858146
0.006665004
-0.03911838
0.009719887
-0.03845297
0.01292536
-0.03759846
0.01163179
-0.0376135
0.007046872
-0.03800702
0.003800447
-0.03827912
0.002050655
-0.03844624
0.001112575
-0.03853308
0.0005880357
-0.03850519
0.0001512202
-0.03843915
-9.962962e-05
-0.03811615
-0.001002074
-0.03774056
-0.001236657
-0.03732761
-0.001382047
-0.03682586
-0.00167386
-0.03632812
-0.001716051
-0.03571004
-0.002112288
-0.03503788
-0.002335882
-0.03425007
-0.002735741
-0.03342408
-0.002878525
-0.03258972
-0.002930412
-0.03164694
-0.003303741
-0.03066741
-0.003437267
-0.02969165
-0.003441915
-0.0285857
-0.003905627
-0.02744006
-0.004040259
-0.02624886
-0.004209101
-0.02505034
-0.004243954
-0.02382342
-0.004353167
-0.02248407
-0.004733727
-0.02117904
-0.004638074
-0.01979014
-0.004921561
-0.01836778
-0.00505185
-0.01693865
-0.005068481
-0.01550518
-0.005093371
-0.01400053
-0.005336323
-0.01249199
-0.005346955
-0.01096899
-0.005388419
-0.009426811
-0.005463069
-0.007888288
-0.005425981
-0.006385772
-0.005292505
-0.004818626
-0.005511436
-0.003283895
-0.005387678
-0.001775201
-0.00532322
-0.0001816637
-0.005740554
0.001509278
-0.006139713
0.003132782
-0.00579861
0.004716519
-0.005632393
0.006262966
-0.005518051
0.007778051
-0.005402199
0.009294421
-0.005397967
0.01077018
-0.005251964
0.01227526
-0.005341224
0.01373126
-0.005186232
0.01512357
-0.004937046
0.01652986
-0.004976867
0.01790417
-0.004885845
0.01923635
-0.004716918
0.02056696
-0.004694288
0.02186157
-0.004591203
0.0230525
-0.004206638
0.02424185
-0.004188838
0.02539285
-0.004063371
0.02646198
-0.003771812
0.02754026
-0.003784058
0.02850489
-0.00339119
0.02942762
-0.00323143
0.0302717
-0.002948399
0.03103059
-0.002642722
0.03179097
-0.002631194
0.03246975
-0.002354609
0.03308028
-0.002084803
0.0336028
-0.001781207
0.03404871
-0.001490929
0.03444242
-0.001279193
0.03470684
-0.0008388495
0.03495643
-0.0007269678
0.03510462
-0.0003335971
0.03503139
0.0005234366
0.0348209
0.001221741
0.03449466
0.002054966
0.03408314
0.003480922
0.03364248
0.006567733
0.03389321
0.01035892
0.03419039
0.01918352
0.03089881
0.03477743
0.02655015
0.02651692
0.02526887
-0.001013308
0.02649281
-0.01512287
0.0265612
-0.01104635
0.02491654
-0.002775591
0.02076011
0.002298139
0.01341298
0.003505564
0.0006968468
0.02992401
-0.01042797
0.05106646
-0.01374068
0.02036052
-0.01169198
-0.007723539
-0.007958261
-0.01488097
-0.005000349
-0.01374403
-0.003815049
-0.00915394
-0.001365852
-0.01237983
0.001553646
-0.01168423
0.003638679
-0.006930269
0.00373619
0.001753963
0.00196031
0.007156096
0.0003022002
0.005705267
2.879166e-05
0.003349728
-0.0009076504
0.005164303
-0.002206049
0.002545115
-0.002886685
-0.001921318
-0.002849365
-0.003649179
-0.002081487
-0.004581667
-0.001012746
-0.002646538
-0.00057407
0.004774517
-0.00194412
0.007484451
-0.001525407
-0.001884711
0.0009614634
-0.007854081
0.003232209
-0.008193272
0.005842222
-0.009266037
0.008627979
-0.009900153
0.01119468
-0.009119702
0.01355131
-0.00831058
-0.006308643
0.02030944
-0.01883173
-0.005579746
0.02090501
-0.001981095
0.02039141
0.003046049
0.01895723
0.009829892
0.01730404
0.02080802
0.01212889
0.03035193
0.001370665
0.02520707
-0.007179643
0.01519311
-0.01062857
0.01456672
-0.0112905
0.006421751
-0.009331055
-0.007106373
-0.005934627
-0.01363829
-0.001721961
-0.01707864
0.002803508
-0.01873539
0.007380149
-0.01873576
0.01151965
-0.01640037
0.0140731
-0.009706978
0.01304827
0.003581216
0.009206023
0.01499163
0.005226817
0.02161794
0.001106766
0.0276902
-0.004144289
0.01533867
-0.009681446
-0.004126055
-0.01490835
-0.001294707
-0.0187176
0.003557618
-0.02017215
0.0004084391
-0.01932749
-0.009099049
-0.0161325
-0.02157816
-0.01181996
-0.02219755
-0.01113901
-0.001730942
-0.01793006
0.03402081
-0.03062189
0.05743078
-0.04075968
0.04386839
-0.04338988
0.01688742
-0.04485119
0.008126309
-0.0457572
0.0106259
-0.04558093
0.01274909
-0.04528201
0.01133286
-0.04551629
0.007281158
-0.04594568
0.004229834
-0.04623849
0.002343465
-0.04640183
0.001275916
-0.04646819
0.0006543998
-0.04638022
6.324741e-05
-0.04627449
-0.0002053618
-0.04586578
-0.001410788
-0.04540193
-0.001700508
-0.04488612
-0.001897848
-0.04425473
-0.00230525
-0.04365735
-0.00231343
-0.04289848
-0.002871163
-0.04208633
-0.003148027
-0.04113006
-0.003692011
-0.04012807
-0.003880521
-0.03912471
-0.00393377
-0.037984
-0.004444458
-0.0368031
-0.004618167
-0.03563433
-0.004610678
-0.03430446
-0.005235501
-0.03292219
-0.005422525
-0.03149204
-0.00563925
-0.03005351
-0.005682489
-0.02858483
-0.005821846
-0.02697058
-0.006347975
-0.02541358
-0.006195071
-0.02374432
-0.006590825
-0.02204016
-0.006756005
-0.0203282
-0.006780442
-0.01861439
-0.006807181
-0.01681197
-0.007138748
-0.0150078
-0.007151126
-0.01317711
-0.007219109
-0.01132761
-0.007312564
-0.009470125
-0.007283468
-0.007663402
-0.007099228
-0.005768087
-0.007406752
-0.003900388
-0.007255376
-0.002075753
-0.007147855
-0.0001792426
-0.007637064
0.001818899
-0.008137854
0.003763702
-0.007743413
0.005653494
-0.007522184
0.007500803
-0.00736536
0.009316369
-0.007217766
0.01113596
-0.007217558
0.01290574
-0.007021739
0.0147193
-0.007154787
0.01646091
-0.006927847
0.0181366
-0.006612734
0.01983491
-0.006675179
0.02147854
-0.006529471
0.02307721
-0.006315584
0.02468929
-0.006306376
0.02623994
-0.006141855
0.02766642
-0.005633116
0.02909844
-0.005620855
0.0304815
-0.00544643
0.03176143
-0.00505174
0.03306121
-0.005083841
0.03422179
-0.004551774
0.03533279
-0.004342423
0.03634743
-0.003963046
0.03726459
-0.003559879
0.03818911
-0.003555717
0.03900589
-0.003171391
0.03975445
-0.002833359
0.04038836
-0.002415112
0.0409386
-0.002041172
0.04142502
-0.001765615
0.04176467
-0.001178496
0.04208054
-0.001042844
0.04229556
-0.0005486091
0.04226256
0.000556437
0.04203365
0.001450646
0.04167281
0.002415806
0.04120359
0.003950144
0.04064421
0.00712711
0.04015136
0.01085177
0.04137862
0.01795626
0.04379202
0.03236404
0.04359894
0.02670999
0.04079913
0.001786506
0.0383912
-0.01271494
0.0359736
-0.008628752
0.03287913
0.000318879
0.02750836
0.007668907
0.01713104
0.01388288
0.001886419
0.04516863
-0.009599997
0.06255288
-0.01335232
0.02411284
-0.01101818
-0.01005768
-0.006958361
-0.01894079
-0.003797672
-0.01690472
-0.003197728
-0.009753884
-0.001190667
-0.01438689
0.001620594
-0.0144955
0.003512013
-0.008821688
0.002973657
0.002292319
0.0008465862
0.009283167
-0.0001386138
0.006690468
0.0001020294
0.003109085
-0.001090229
0.006356562
-0.003101571
0.004556457
-0.004698026
-0.000324863
-0.00534238
-0.003004824
-0.004841336
-0.005082712
-0.003906833
-0.003581041
-0.003133031
0.004000715
-0.003153544
0.007504964
-0.001799844
-0.003238411
0.001219257
-0.01087318
0.004067954
-0.01104197
0.007263935
-0.01246202
0.01064792
-0.01328414
0.01376693
-0.01223871
0.01665698
-0.01120064
-0.008483393
0.02506391
-0.0232394
-0.007404259
0.02580648
-0.002723666
0.02534205
0.003510478
0.02357733
0.01159461
0.02151923
0.02286612
0.01705679
0.03481437
0.005368221
0.03689564
-0.006614362
0.0271757
-0.01197038
0.01992274
-0.01327655
0.007727917
-0.01150949
-0.008873434
-0.007602271
-0.0175455
-0.002437004
-0.0222439
0.003211158
-0.02438355
0.008966865
-0.02449146
0.0141668
-0.02160031
0.01731628
-0.01285645
0.0159136
0.004983899
0.01095592
0.0199493
0.005236014
0.02733785
0.0003937466
0.03253247
-0.006681605
0.02241402
-0.01641823
0.005610568
-0.02464876
0.006935824
-0.02982349
0.008732351
-0.03206028
0.002645227
-0.03280492
-0.008354413
-0.03200007
-0.022383
-0.03010994
-0.02408768
-0.03130363
-0.0005372539
-0.03873363
0.04145082
-0.04692573
0.06562288
-0.04993621
0.04687887
-0.05086612
0.01781733
-0.05316443
0.01042462
-0.05440597
0.01186745
-0.05454374
0.01288685
-0.05435694
0.01114606
-0.05453542
0.007459638
-0.05496158
0.004655998
-0.05527807
0.00265995
-0.05547093
0.001468783
-0.05561639
0.0007998524
-0.05549238
-6.075468e-05
-0.05544671
-0.0002510345
-0.05490699
-0.001950506
-0.05437741
-0.00223009
-0.05377805
-0.002497215
-0.05300253
-0.003080762
-0.0523248
-0.002991169
-0.05140133
-0.003794625
-0.0504472
-0.00410216
-0.04930153
-0.00483768
-0.04809353
-0.005088522
-0.04690399
-0.005123307
-0.04554168
-0.005806773
-0.04412504
-0.006034807
-0.04272262
-0.006013093
-0.04113889
-0.006819234
-0.039484
-0.007077415
-0.03777206
-0.007351188
-0.03602934
-0.007425213
-0.034297
-0.00755418
-0.03234197
-0.00830301
-0.03049081
-0.00804623
-0.02847677
-0.008604861
-0.02643878
-0.008794
-0.02439417
-0.008825055
-0.02231517
-0.008886175
-0.02017594
-0.009277979
-0.01802736
-0.00929971
-0.01583362
-0.009412844
-0.01363526
-0.009510929
-0.01136121
-0.009557516
-0.009214978
-0.009245461
-0.006924043
-0.009697686
-0.004643387
-0.009536032
-0.002435536
-0.009355706
-0.000169408
-0.009903192
0.002191688
-0.01049895
0.00452341
-0.01007514
0.006756516
-0.009755289
0.008976508
-0.009585352
0.01116592
-0.009407175
0.01334291
-0.009394554
0.01546355
-0.009142372
0.01766491
-0.009356146
0.01975399
-0.009016926
0.02175987
-0.008618622
0.02380003
-0.008715338
0.02578639
-0.008515827
0.02770802
-0.008237212
0.02963233
-0.008230687
0.03149538
-0.008004904
0.03319886
-0.007336601
0.03491381
-0.007335804
0.03655177
-0.00708439
0.03809931
-0.006599274
0.03965953
-0.006644064
0.04104086
-0.005933102
0.04238397
-0.005685536
0.04358299
-0.005162062
0.0446809
-0.004657797
0.04579389
-0.004668698
0.04675258
-0.004130086
0.04765854
-0.00373932
0.04839611
-0.003152681
0.04905466
-0.002699724
0.04964354
-0.002354492
0.05002561
-0.001560568
0.05041502
-0.001432253
0.05064298
-0.0007765675
0.05056343
0.0006359877
0.05029237
0.001721705
0.04988698
0.002821194
0.04938902
0.004448103
0.04891789
0.007598241
0.04832086
0.0114488
0.04903631
0.01724082
0.05302405
0.0283763
0.05479611
0.02493793
0.05131996
0.005262649
0.04701958
-0.008414554
0.04316525
-0.004774423
0.03925023
0.004233897
0.03371416
0.01320498
0.02194064
0.0256564
0.006026171
0.0610831
-0.006085113
0.07466416
-0.01067297
0.0287007
-0.008566975
-0.01216367
-0.004397791
-0.02310997
-0.001268715
-0.02003379
-0.0009928169
-0.01002978
0.0002232751
-0.01560299
0.002012269
-0.01628449
0.002806118
-0.009615537
0.001163765
0.003934672
-0.0005691211
0.01101605
-0.0005232518
0.006644598
-4.430303e-05
0.002630136
-0.001638951
0.00795121
-0.00447543
0.007392935
-0.006881528
0.002081235
-0.008266149
-0.001620204
-0.008502624
-0.004846236
-0.008136761
-0.003946904
-0.006904703
0.002768657
-0.004399738
0.004999999
-0.001565298
-0.00607285
0.001547073
-0.01398555
0.005122215
-0.01461711
0.009098437
-0.01643824
0.01323529
-0.01742099
0.01707236
-0.01607578
0.02063115
-0.01475942
-0.01109164
0.03085421
-0.02865658
-0.009601886
0.03179503
-0.003664487
0.03135668
0.003948824
0.02949937
0.01345192
0.02679845
0.02556704
0.02270988
0.03890294
0.01083128
0.04877424
-0.005173096
0.04318007
-0.01363636
0.028386
-0.01571113
0.009802687
-0.01362342
-0.01096115
-0.009532906
-0.02163601
-0.003704233
-0.02807258
0.00351097
-0.03159875
0.01097381
-0.03195431
0.01732093
-0.02794743
0.02072525
-0.01626077
0.01894827
0.006760876
0.01307326
0.02582432
0.005568012
0.03484309
-0.00107409
0.03917457
-0.01171367
0.03305359
-0.0260605
0.0199574
-0.03626132
0.01713664
-0.04222503
0.01469605
-0.04519359
0.005613788
-0.04832553
-0.005222471
-0.05134566
-0.01936287
-0.05463077
-0.02080257
-0.05921492
0.004046889
-0.06364839
0.04588429
-0.06312118
0.06509568
-0.06014301
0.0439007
-0.06118502
0.01885934
-0.06392728
0.01316687
-0.06520327
0.01314344
-0.06554324
0.01322683
-0.06546719
0.01107001
-0.06566313
0.007655584
-0.06614011
0.005132968
-0.06647721
0.002997059
-0.06660102
0.00159259
-0.06682877
0.001027602
-0.0665628
-0.0003267289
-0.0664785
-0.0003353315
-0.0659011
-0.002527904
-0.06522467
-0.002906517
-0.06457108
-0.003150808
-0.06354364
-0.004108206
-0.0627802
-0.003754604
-0.06165625
-0.004918579
-0.06054116
-0.005217247
-0.05914442
-0.006234419
-0.05766289
-0.00657005
-0.05626096
-0.006525246
-0.05465938
-0.007408347
-0.05289214
-0.00780205
-0.05121818
-0.007687047
-0.04934724
-0.008690182
-0.04738239
-0.009042264
-0.0452885
-0.009445077
-0.04317776
-0.009535951
-0.04120041
-0.009531535
-0.03876646
-0.01073695
-0.03660001
-0.01021269
-0.03410797
-0.0110969
-0.03172878
-0.01117319
-0.02927397
-0.01127986
-0.02674334
-0.01141681
-0.02422914
-0.01179217
-0.02163119
-0.01189766
-0.01899782
-0.01204622
-0.01641767
-0.01209108
-0.01363156
-0.01234362
-0.01113459
-0.01174243
-0.008320686
-0.01251159
-0.005555016
-0.0123017
-0.002882068
-0.01202865
-0.0001419121
-0.01264335
0.002684798
-0.01332566
0.005389772
-0.01278011
0.008033085
-0.0123986
0.01073523
-0.0122875
0.01339353
-0.01206547
0.01601146
-0.01201249
0.01852758
-0.01165849
0.02123826
-0.01206682
0.02372567
-0.01150435
0.02613869