/*--------------------------------*- C++ -*----------------------------------*\
| =========                 |                                                 |
| \\      /  F ield         | OpenFOAM: The Open Source CFD Toolbox           |
|  \\    /   O peration     | Version:  2406                                  |
|   \\  /    A nd           | Website:  www.openfoam.com                      |
|    \\/     M anipulation  |                                                 |
\*---------------------------------------------------------------------------*/
FoamFile
{
    version     2.0;
    format      ascii;
    arch        "LSB;label=32;scalar=64";
    class       volScalarField;
    location    "3.3";
    object      p;
}
// * * * * * * * * * * * * * * * * * * * * * * * * * * * * * * * * * * * * * //

dimensions      [0 2 -2 0 0 0 0];

internalField   nonuniform List<scalar> 
15536
(
-54.52359
-48.08197
-41.63507
-35.59715
-30.00489
-25.09036
-21.88588
-21.10677
-21.76609
-21.03131
-19.65184
-19.47563
-16.81009
-10.62931
-4.408866
-0.7379932
1.553653
2.024575
2.605366
3.144365
1.358594
-1.344103
-7.153909
-20.94343
-40.75055
-57.26201
-64.83987
-46.46879
-7.163708
12.41617
-7.231863
-20.72748
-31.71378
-54.29409
-97.10933
-127.2069
-102.5444
-68.64668
-73.82401
-79.08069
-84.19537
-90.10678
-94.08267
-96.23724
-97.2331
-97.08363
-95.94557
-93.76767
-91.04189
-87.92669
-84.09025
-79.63432
-74.53278
-69.02978
-63.07762
-56.74688
-50.37218
-43.87932
-37.0275
-29.9958
-23.074
-16.28076
-9.508633
-2.812757
3.671438
10.03212
16.10366
21.86101
27.19979
32.11923
36.5802
40.58385
44.09293
47.03161
49.35687
51.17131
52.34724
52.9292
52.99289
52.54506
51.27813
49.37615
46.91444
43.87217
40.27091
36.13097
31.51678
26.34261
20.76534
14.8267
8.381669
1.61545
-5.408899
-12.87189
-20.49711
-28.07928
-35.83741
-43.75933
-51.6537
-59.61055
-67.46839
-75.03519
-82.26814
-89.2577
-96.13206
-102.5781
-108.5725
-114.0725
-119.0949
-123.7151
-127.642
-130.7984
-133.24
-134.9398
-135.7643
-135.3839
-133.5123
-129.9962
-125.6633
-123.792
-119.0271
-119.7608
-156.9099
-171.1435
-135.4802
-98.50087
-82.74157
-75.41176
-62.21505
-38.18419
-33.82344
-92.16336
-127.5375
-130.0473
-110.4553
-89.9846
-71.69681
-56.5374
-43.9293
-32.48152
-25.20346
-22.9399
-22.22613
-22.91269
-26.18304
-32.75549
-41.55095
-46.10026
-45.71854
-48.4313
-53.95837
-59.44432
-63.62334
-65.86796
-66.0138
-64.04832
-60.11863
-54.27002
-47.88495
-41.48753
-35.4911
-29.93658
-25.05854
-21.88447
-21.12698
-21.78732
-21.03994
-19.63624
-19.41302
-16.70269
-10.56546
-4.390906
-0.7423602
1.545552
2.023778
2.611902
3.158194
1.380622
-1.327788
-7.175259
-20.98427
-40.75641
-57.17965
-64.82835
-46.69193
-7.314506
12.39185
-7.348507
-20.82636
-31.72916
-54.28655
-97.17422
-127.2522
-102.3315
-68.54953
-73.69039
-78.89419
-83.69372
-89.2793
-92.97167
-94.94401
-95.85906
-95.67515
-94.52278
-92.34216
-89.62254
-86.5325
-82.72736
-78.31145
-73.25291
-67.79917
-61.9051
-55.63496
-49.32164
-42.89532
-36.11579
-29.15264
-22.30011
-15.57721
-8.874593
-2.244533
4.175509
10.47011
16.47718
22.17549
27.45999
32.32804
36.74297
40.7059
44.17911
47.08944
49.39061
51.18714
52.35165
52.92731
52.9889
52.54273
51.28389
49.39937
46.95984
43.94479
40.37637
36.27505
31.70423
26.57901
21.05764
15.17516
8.791711
2.094791
-4.861812
-12.25787
-19.80845
-27.31557
-35.00018
-42.84491
-50.6624
-58.54363
-66.32741
-73.82058
-80.98377
-87.91178
-94.72872
-101.1179
-107.0638
-112.5186
-117.5033
-122.0955
-125.9989
-129.1458
-131.5971
-133.3213
-134.1946
-133.9184
-132.2764
-129.1065
-125.1464
-123.5844
-118.9266
-119.6588
-156.7882
-171.1393
-135.5433
-98.48295
-82.7403
-75.48986
-62.31441
-38.32449
-33.71891
-92.44166
-127.6398
-129.7502
-110.2026
-89.82499
-71.61379
-56.50542
-43.94379
-32.49951
-25.18719
-22.9139
-22.20463
-22.89926
-26.16243
-32.71905
-41.50237
-46.04504
-45.67805
-48.44419
-53.93332
-59.33102
-63.41651
-65.59441
-65.6825
-63.71506
-59.81014
-54.14373
-47.76956
-41.38975
-35.41383
-29.88885
-25.04603
-21.90003
-21.1467
-21.77926
-21.01463
-19.65726
-19.44288
-16.7085
-10.57535
-4.411612
-0.7715775
1.518268
2.011933
2.599987
3.165695
1.4026
-1.323056
-7.257635
-21.11773
-40.86077
-57.26399
-65.28963
-47.89104
-8.320581
12.4888
-7.343692
-20.85943
-31.77984
-54.44362
-97.44985
-127.6471
-102.6717
-68.80703
-73.26263
-78.46063
-83.12126
-88.40705
-92.00627
-94.0223
-95.00249
-94.84253
-93.72927
-91.56814
-88.86037
-85.79811
-82.00509
-77.61266
-72.57416
-67.15583
-61.30022
-55.04463
-48.75866
-42.37407
-35.62014
-28.68705
-21.86633
-15.18238
-8.517528
-1.917013
4.462049
10.72797
16.70117
22.36803
27.6226
32.46273
36.8495
40.78699
44.2371
47.13016
49.41161
51.19509
52.35062
52.9199
52.97866
52.53372
51.28227
49.41264
46.989
43.99267
40.44678
36.37005
31.82748
26.72704
21.23768
15.38874
9.034278
2.373826
-4.544608
-11.90878
-19.4217
-26.88489
-34.53484
-42.34584
-50.11869
-57.97571
-65.72442
-73.18731
-80.32197
-87.20751
-93.99614
-100.3476
-106.269
-111.6978
-116.6579
-121.235
-125.1131
-128.2323
-130.6523
-132.3491
-133.1902
-132.8506
-131.15
-128.1343
-124.4485
-122.866
-118.4662
-119.9931
-157.0359
-171.7708
-135.7908
-98.59902
-82.75351
-75.43951
-62.21623
-38.21049
-33.8295
-93.91054
-128.507
-129.9174
-110.0964
-89.71951
-71.55081
-56.49112
-44.01423
-32.56897
-25.16243
-22.87313
-22.15524
-22.86309
-26.12865
-32.70155
-41.53771
-46.09035
-45.75179
-48.56493
-54.03089
-59.3084
-63.29059
-65.43777
-65.57776
-63.61073
-59.68828
-53.943
-47.60628
-41.26002
-35.32163
-29.8414
-25.03716
-21.88878
-21.06642
-21.57088
-20.8909
-19.69333
-19.477
-16.71458
-10.63653
-4.47828
-0.8393798
1.457622
1.97639
2.55294
3.154823
1.442274
-1.249344
-7.351399
-21.34085
-41.09329
-57.54603
-66.12024
-50.21082
-10.47367
12.86781
-6.954055
-20.68212
-31.83053
-54.63357
-97.77121
-127.8561
-103.3834
-70.02704
-73.09011
-77.85946
-82.29071
-87.1739
-90.53976
-92.34071
-93.18846
-92.98722
-91.89276
-89.75263
-87.07007
-84.05554
-80.33003
-76.01392
-71.04896
-65.70272
-59.93063
-53.76147
-47.55444
-41.25887
-34.6068
-27.75289
-21.0126
-14.41567
-7.836737
-1.311109
4.98521
11.17995
17.08221
22.68858
27.88272
32.6667
37.0041
40.89958
44.3126
47.17943
49.43191
51.19839
52.3428
52.90424
52.95928
52.51451
51.27026
49.42178
47.02063
44.05128
40.53991
36.50393
32.01073
26.95655
21.53054
15.74454
9.451706
2.873373
-3.968686
-11.26512
-18.68129
-26.05312
-33.62191
-41.33615
-49.01285
-56.77922
-64.43412
-71.79425
-78.82748
-85.63473
-92.34354
-98.6026
-104.4487
-109.7957
-114.6928
-119.2186
-123.0521
-126.1285
-128.5236
-130.2301
-131.1155
-130.9205
-129.4745
-126.758
-123.437
-121.8625
-118.2059
-121.178
-157.2166
-171.4516
-135.836
-98.73169
-82.71292
-75.01561
-61.66679
-37.68768
-34.34859
-96.81676
-129.9835
-130.3589
-110.0861
-89.65192
-71.49839
-56.48232
-44.15318
-32.70189
-25.12252
-22.80512
-22.05896
-22.78405
-26.06078
-32.67146
-41.59165
-46.19028
-45.99325
-48.89356
-54.2145
-59.2675
-63.10202
-65.17753
-65.20251
-63.27322
-59.42989
-53.75712
-47.4438
-41.13409
-35.23937
-29.79931
-25.01058
-21.78743
-20.78829
-21.12716
-20.68461
-19.72128
-19.53312
-16.79945
-10.78547
-4.617463
-0.965894
1.353496
1.899204
2.456196
3.134935
1.582311
-0.968509
-7.418751
-21.6392
-41.49749
-58.14223
-67.50979
-53.69104
-13.59277
13.39712
-6.135844
-20.23804
-31.8784
-54.53307
-96.60032
-125.7664
-102.9431
-72.13243
-73.41776
-77.24483
-81.40221
-85.96811
-89.20786
-90.95482
-91.91672
-91.71408
-90.64058
-88.50638
-85.77279
-82.80966
-79.0707
-74.78422
-69.82728
-64.52472
-58.8144
-52.66629
-46.50593
-40.29218
-33.70217
-26.89469
-20.21598
-13.70061
-7.194366
-0.7219734
5.494151
11.63258
17.46924
23.01552
28.14567
32.87792
37.16543
41.01679
44.38491
47.22293
49.4436
51.19037
52.32304
52.8754
52.92532
52.47742
51.2389
49.42141
47.05044
44.11175
40.63761
36.64245
32.20058
27.191
21.83522
16.10776
9.861877
3.372395
-3.392967
-10.651
-17.98255
-25.26436
-32.77466
-40.42208
-48.00671
-55.7237
-63.31904
-70.61479
-77.59073
-84.33699
-91.01522
-97.21557
-103.0387
-108.3496
-113.218
-117.7666
-121.5524
-124.6351
-127.0522
-128.7656
-129.649
-129.358
-127.9092
-125.3541
-122.3236
-120.8489
-118.4281
-122.5019
-154.9605
-167.7504
-134.3104
-98.58292
-82.5998
-74.32286
-60.557
-37.00247
-35.7078
-100.7803
-132.0985
-131.2517
-110.2326
-89.63916
-71.45117
-56.45895
-44.35688
-32.91367
-25.0572
-22.68371
-21.92076
-22.64791
-25.96471
-32.58121
-41.46193
-46.15527
-46.38367
-49.39412
-54.45238
-59.26145
-62.9663
-64.98638
-65.05967
-63.06234
-59.21691
-53.56027
-47.27408
-41.01989
-35.16623
-29.75727
-24.94234
-21.56375
-20.34603
-20.57519
-20.47337
-19.73366
-19.614
-16.99694
-11.07333
-4.859181
-1.173351
1.184408
1.764892
2.295781
3.141316
1.913694
-0.4540072
-7.425279
-21.97478
-42.07181
-59.23339
-69.66783
-58.47666
-17.85194
13.52744
-5.285127
-19.8527
-31.98628
-53.89617
-92.40448
-117.1664
-99.08055
-73.76615
-73.66356
-76.41929
-80.17864
-84.29179
-87.28619
-88.75112
-89.57288
-89.26817
-88.28619
-86.20259
-83.51191
-80.68819
-77.03795
-72.87167
-68.00101
-62.78458
-57.18036
-51.11076
-45.05873
-38.97323
-32.47674
-25.75408
-19.18637
-12.77545
-6.371041
0.02474155
6.125476
12.19088
17.93408
23.38793
28.44727
33.12673
37.35113
41.14546
44.45136
47.26347
49.44416
51.1625
52.2848
52.8258
52.86802
52.41492
51.18599
49.40242
47.07245
44.17339
40.74492
36.80032
32.41436
27.45063
22.19682
16.55133
10.34302
3.959879
-2.668219
-9.869483
-17.10208
-24.24576
-31.65056
-39.20879
-46.67051
-54.28177
-61.76869
-68.95104
-75.79786
-82.43753
-89.04197
-95.10644
-100.8443
-106.0379
-110.8133
-115.2785
-118.9767
-121.9575
-124.216
-125.9492
-126.9035
-126.8472
-125.6563
-123.4078
-120.8267
-119.5788
-118.4187
-122.5997
-148.512
-158.2285
-130.5047
-98.01262
-82.41862
-73.56075
-59.75644
-36.94358
-38.73864
-105.4409
-134.8656
-132.6725
-110.6203
-89.68756
-71.39229
-56.37261
-44.57015
-33.22377
-24.96231
-22.47659
-21.74
-22.5396
-25.8858
-32.39796
-40.82657
-45.73608
-46.79482
-49.9651
-54.71891
-59.2764
-62.81854
-64.74907
-64.75037
-62.80091
-58.99345
-53.40974
-47.17854
-40.94638
-35.04511
-29.70789
-24.81359
-21.23242
-19.85936
-19.99987
-20.28749
-19.71954
-19.74644
-17.37414
-11.57402
-5.264607
-1.504959
0.8775308
1.530031
2.067831
3.211613
2.489119
0.3098509
-7.291741
-22.14642
-42.6762
-60.9137
-72.6624
-64.40675
-23.62421
12.33999
-5.155788
-19.77807
-32.26061
-52.91857
-86.23862
-106.3898
-92.87105
-74.21363
-73.52367
-75.54002
-78.91949
-82.6158
-85.49265
-86.7642
-87.72289
-87.38447
-86.37441
-84.23462
-81.43407
-78.70962
-75.03127
-70.97016
-66.11649
-60.91662
-55.44178
-49.4918
-43.5028
-37.48136
-31.12579
-24.53672
-18.05013
-11.68785
-5.464544
0.8606182
6.82131
12.81561
18.42912
23.79143
28.83994
33.40988
37.5393
41.25569
44.50137
47.3343
49.42996
51.11281
52.22332
52.74691
52.78049
52.33795
51.12815
49.3359
47.03853
44.19348
40.82805
36.97235
32.66194
27.72111
22.57596
17.06628
10.94218
4.600203
-1.919216
-8.951694
-16.10154
-23.14553
-30.4195
-37.79951
-45.21923
-52.74751
-60.05918
-67.17013
-73.86964
-80.41018
-86.98335
-92.91351
-98.62714
-103.7085
-108.4645
-112.9864
-116.6045
-119.6186
-122.0998
-123.8358
-124.7624
-124.586
-123.484
-121.4348
-119.2554
-118.1727
-117.8308
-121.4216
-140.5151
-147.5838
-125.7944
-97.36638
-82.25537
-72.94357
-59.71486
-38.59023
-44.13093
-110.4915
-138.142
-134.5837
-111.4171
-89.93153
-71.37327
-56.16981
-44.62567
-33.49187
-24.818
-22.15183
-21.49143
-22.49976
-25.90125
-32.04236
-39.88864
-45.06099
-47.14748
-50.55453
-55.04651
-59.36938
-62.74244
-64.59097
-64.55953
-62.55804
-58.79358
-53.45107
-47.31085
-40.92375
-34.9045
-29.65921
-24.59596
-20.67311
-19.3789
-19.38516
-20.14233
-19.67973
-20.00479
-18.01328
-12.37456
-5.984032
-2.052115
0.3456234
1.060331
1.713312
3.370046
3.35389
1.499498
-6.525967
-21.69371
-43.34711
-62.92352
-76.01423
-71.04094
-30.63792
9.424959
-6.325596
-20.54291
-32.76746
-51.66018
-79.50958
-96.14177
-86.99679
-73.82482
-72.7971
-74.30427
-77.17848
-80.30387
-83.10331
-83.7979
-84.64885
-84.29319
-83.42802
-81.53575
-78.52993
-76.00787
-72.46399
-68.58439
-63.70011
-58.579
-53.46901
-47.68428
-41.44997
-35.61621
-29.66251
-23.23883
-16.57481
-10.34633
-4.534534
1.820425
7.558808
13.52565
18.89442
24.34554
29.38519
33.68991
37.69604
41.30798
44.53858
47.40898
49.35452
51.05146
52.13048
52.63232
52.66938
52.25417
51.02443
49.22463
46.92088
44.14334
40.85146
37.10417
32.98133
28.02494
22.95571
17.61311
11.81093
5.515262
-1.258188
-7.97462
-14.76638
-21.95279
-29.14801
-36.05736
-43.32268
-51.15496
-57.98293
-65.10068
-71.61517
-77.96028
-84.53089
-90.18316
-95.93923
-100.7443
-105.3422
-109.9149
-113.3543
-116.2532
-118.3857
-120.1344
-121.2573
-121.2588
-120.4093
-118.6496
-117.0876
-116.3072
-116.5177
-119.6468
-133.3886
-137.5692
-120.2317
-96.62616
-82.32823
-72.27466
-60.42041
-42.30323
-51.29925
-115.4456
-141.7563
-137.506
-112.3187
-90.60255
-71.26501
-55.74508
-44.30229
-33.22679
-24.43418
-21.72822
-21.14353
-22.54117
-26.04457
-31.94814
-38.98349
-44.48836
-47.55334
-51.21787
-55.49239
-59.57393
-62.74351
-64.48422
-64.3983
-62.36977
-58.71855
2.126171
1.554604
-29.62172
-19.62177
13.13181
-16.30323
2.142076
1.979929
12.60132
-1.33321
-0.3223646
2.784966
-0.1468471
0.8904996
0.9042217
4.302601
-3.940508
-3.193398
1.570027
1.841513
-53.73955
-5.979827
3.565771
-1.567916
1.760549
2.41145
3.179765
-1.048516
-7.291743
1.114736
2.262229
-12.21128
-1.047271
2.318942
2.190044
-5.14208
3.032893
0.2072851
3.107909
-6.461154
-24.02314
2.86874
1.356898
3.645635
33.98841
1.734119
3.096605
2.343065
-7.900131
-0.9955595
0.7450572
-4.145287
-8.417673
1.658394
1.196004
23.64901
-4.745437
1.343436
-14.42976
-23.57051
-1.011088
0.1662334
-17.47185
2.1653
1.384747
2.701658
-24.45454
0.03570354
2.229253
-1.09612
-0.008332204
2.378213
-9.145814
-72.39408
23.00311
0.5013995
4.97265
-2.75474
-16.97328
1.789019
-24.06608
0.9985436
4.420257
2.749526
-11.82815
1.27822
0.1494361
1.966381
-25.50173
3.076287
-17.65505
23.08333
-4.027831
2.895088
1.590938
3.110153
-11.76895
6.421778
-28.35314
1.622634
2.123228
1.909354
2.197043
-95.44007
-0.02258311
-11.72824
1.881736
1.397993
-0.9500167
-5.25207
2.413363
0.8849053
1.057304
8.171822
-16.60201
0.4350081
2.232253
0.8843253
21.32749
1.236335
3.065554
1.301749
-0.04348019
-1.208236
-0.8798421
1.601904
0.4379107
-23.33226
1.731611
2.090667
0.8540804
-1.093334
1.991008
0.797866
2.578581
-36.21635
0.5332548
8.839194
2.156119
2.099836
-24.15067
0.9949667
-71.71692
1.69546
0.1806906
-5.524247
1.544748
-44.91233
0.3593028
0.09554461
-3.014302
-13.30468
-63.19932
-0.9880313
-36.76607
-26.57913
1.113164
2.406474
1.854709
-39.89699
1.853972
-37.37366
-0.6946808
1.564871
1.919988
-13.56423
-25.0743
2.682787
-25.47313
-0.1853847
2.016629
-25.61906
1.88458
-26.84002
-6.797976
-26.0261
3.77441
1.669658
-11.7011
1.871168
17.15139
2.841016
1.186456
1.248304
3.789517
-51.27383
1.943572
0.5068248
-28.40127
2.110426
0.5302516
2.050743
-9.70988
-1.660119
1.131909
1.22594
-5.804676
0.7676481
-5.47817
-37.99522
1.777264
-8.799149
1.91695
-29.74402
1.974778
-1.134497
-8.375429
0.9801789
-10.24713
0.517875
2.162294
1.375096
-1.348088
-5.930366
2.344199
-3.16048
-12.86067
1.931884
5.524982
1.628174
2.229897
-0.07917299
4.150765
-3.229027
-2.85618
-0.04986196
1.82719
8.767021
2.843477
20.42487
-3.092189
-9.511413
5.381323
-0.03643099
-87.63932
0.9591042
27.5565
-4.858784
3.204498
0.5448264
0.6980934
2.135662
-0.04195667
-6.68012
2.036404
-18.19951
1.868318
-35.69621
2.414077
0.8893991
-38.48111
1.621235
2.176363
1.905517
4.080317
-31.82999
1.724053
1.265812
-2.905118
-3.851278
-0.9267685
0.9565252
-7.488033
0.09997025
0.2069532
3.637548
1.165931
0.2824881
-5.933615
-29.76259
2.015044
1.924827
13.73475
-0.3740305
1.130624
4.54598
2.954069
-17.73208
-31.24564
0.8877031
1.943519
1.535919
-4.267982
2.295523
2.267053
1.934801
37.07057
0.4176058
3.244271
-1.703572
3.332002
-0.04057088
1.531054
1.918803
-32.48021
4.452444
-13.89577
0.1118959
1.677833
0.4358532
-48.27009
2.679709
2.883516
2.952999
0.1299905
0.02583685
-1.617482
1.786053
-7.086689
-1.347903
-3.201765
2.49364
0.8999869
2.253942
0.2269421
-14.32333
35.65989
-68.79044
-13.56368
-60.02284
-0.2939812
-0.1014144
2.220994
-0.1920349
1.913056
1.873786
1.122263
1.396568
1.641894
3.375508
18.9719
2.718622
-8.763775
-62.16431
2.146529
3.283379
3.235831
0.1979672
-4.8401
2.366945
-39.03127
-0.4658976
1.270131
1.53622
-15.19992
4.90996
-7.47076
0.3811594
-12.61467
3.259168
2.973595
-1.782097
14.78918
1.922118
-0.5642414
-21.59075
-57.346
-0.1524054
2.01867
2.6123
2.152521
1.462722
1.380078
3.33631
1.917663
3.356913
3.135587
2.008123
2.156653
2.721885
-3.421473
14.12509
-43.0566
1.601447
3.293101
1.801033
1.726055
2.498328
1.195335
2.604081
2.408876
2.930771
0.009140733
-8.615623
0.04403047
1.972355
2.334567
39.06738
3.161804
-1.976722
-1.7298
1.022187
2.916764
-35.15295
-0.007404498
-0.5492385
1.474914
-11.32939
2.238004
1.507723
3.21578
1.792556
-33.48319
2.453732
-1.837556
-1.855038
-30.27435
-53.93504
3.470539
1.803205
1.895777
1.258628
-0.6220407
2.105994
3.177189
-0.2718614
2.437456
-30.05484
1.903963
-36.32368
1.637268
0.4588433
5.602142
1.101619
0.341771
-30.53812
2.216533
2.701367
-48.41855
-6.695717
-0.01376076
1.250636
1.709328
1.904422
1.7774
1.317926
-0.01755339
-6.419076
0.4907188
1.886618
-17.6296
-0.4348789
1.699192
1.273674
-5.154728
2.174275
1.552036
1.362013
1.806073
0.2843113
1.954097
-26.75564
1.335386
-5.017055
1.799475
-0.8818455
1.962991
5.959274
2.055711
-21.74614
1.095676
-32.24985
1.840512
2.184519
0.5837322
0.1492447
27.15597
1.180874
5.212476
-1.483177
-11.96407
-0.3672518
2.082164
8.964655
1.508728
-5.41299
-3.45157
-27.3305
-0.1959015
1.032862
-6.747532
2.057261
2.246828
1.355138
1.942812
2.150388
1.509081
17.74244
3.891566
3.1606
1.881962
-27.50587
0.6712893
0.9912496
-22.21683
2.124747
1.900554
4.818736
2.116289
4.780544
2.419346
1.435861
3.723034
-5.440488
3.048009
2.083595
1.9737
0.9150299
-4.593387
-7.021954
-29.09374
5.973925
16.60088
-2.073712
1.986988
2.254974
0.3407151
0.03811588
-0.07987247
1.777969
2.159399
0.9999201
-5.188178
-1.916087
1.989278
0.4966984
0.4606562
3.820451
2.14402
2.739857
-29.54386
1.466132
-30.93118
1.301542
5.203266
5.310812
4.306886
2.689522
2.335947
1.324547
5.262707
2.220578
0.8664849
1.223107
-34.90723
3.828543
4.606251
-2.109301
1.661487
8.532041
2.217309
6.274969
-0.2483218
-3.541066
-8.276408
-0.5844091
2.451884
-9.877451
17.12946
-2.193336
3.257413
-8.119115
1.642359
1.571099
1.607998
1.919804
2.396613
10.00182
32.46568
-8.512749
2.129039
7.248719
4.178675
-66.06474
2.125106
3.995181
1.925906
4.209245
2.124015
-5.882601
-3.938642
-1.065688
7.055697
0.05646805
-2.94855
-25.21121
1.892601
2.26432
-87.90214
-4.456473
-0.2756917
-5.546433
2.658095
1.088753
2.033119
2.277307
2.147592
-43.25291
1.532111
2.194055
2.136226
3.308563
3.51501
0.2764778
1.015162
-10.13866
-4.556976
1.419815
-14.5903
2.6366
5.455696
0.2459592
-4.818142
1.760721
10.03212
-10.61587
0.07029529
2.637663
-1.401082
5.441261
1.875318
-2.982593
2.07463
3.028877
1.97574
19.11383
3.496395
0.7715568
1.441774
-2.345621
0.4492261
-10.04729
-16.59864
-27.13163
-53.26842
-9.765832
-12.07365
1.953655
-0.253544
2.120618
2.100166
0.3751574
1.895174
-1.269201
-1.17997
1.276937
1.908777
-53.78287
1.335434
26.79593
5.520299
-26.81425
3.20663
-8.388196
8.003233
-3.02872
-9.534479
2.054896
2.863389
-1.065195
1.854045
2.577309
0.9864575
1.714952
-12.41604
0.4141549
-4.182551
4.004285
1.522149
-0.4774843
1.923877
1.970929
-96.57896
-0.5122795
1.880263
6.918654
-26.62039
1.666574
0.5504296
6.127523
14.84467
10.30548
3.084022
1.140892
2.002077
1.881094
1.633015
-3.001572
3.868949
2.215685
-16.49888
1.733796
-69.01724
-17.22184
2.536926
2.181149
-50.01547
2.581486
2.084878
1.925586
2.719414
-11.40124
2.571281
-1.190816
4.832768
-22.33325
3.334476
2.078328
-14.56238
0.7024687
1.564086
1.099365
2.405996
1.450039
0.2792623
0.5340177
2.797295
-58.75265
2.075074
2.991635
1.67981
1.977747
0.5842382
2.04208
0.3515733
1.864396
1.413477
-28.92973
2.040932
1.996661
2.419275
2.168077
2.160803
1.515588
2.410996
1.703463
2.184587
5.515191
-14.73656
2.399039
0.04781571
2.525351
1.869213
1.011296
2.787152
0.01116018
-55.81442
3.906673
7.684908
10.76624
2.03646
-6.096247
-7.95959
-0.5399185
4.299453
3.870315
1.496074
-5.24179
-10.88116
-6.608954
-4.857552
1.104225
3.397632
13.51968
1.986257
1.592556
-37.02792
2.007914
2.111667
2.04989
-11.15896
24.35911
-7.265972
1.177479
3.663545
2.485522
1.261925
3.210062
-3.1139
2.387125
1.058565
-1.259515
1.824522
2.705159
4.664922
2.463855
1.503338
-3.568579
2.065741
0.5648748
-0.421214
-9.183715
32.12293
-3.031008
2.195041
1.004062
1.595107
3.260119
0.7074714
-69.66234
0.9886911
-74.54582
-4.18854
-0.06487042
1.915693
2.085634
-1.231881
1.195252
1.473815
1.940195
1.816073
-2.909023
-43.49062
2.390122
-0.9005234
2.025468
0.8523364
-0.6100032
3.718635
-15.3911
-3.542923
17.36357
2.32195
1.32822
0.267228
0.243061
2.70114
1.624116
-0.2035249
1.808748
-17.70149
1.590554
9.326746
-40.30385
1.688162
1.984578
-6.721999
1.496905
1.307911
2.228001
0.4227532
1.835609
0.4417227
4.658122
3.276562
4.134082
4.839753
-0.1268967
-0.4681168
31.29608
1.282781
-2.167653
2.433309
-51.3242
3.241503
2.016467
1.492813
2.086777
33.58904
0.05377735
1.874905
1.463128
1.359147
3.675522
2.231486
1.881603
1.925413
-12.11106
-17.86935
1.885683
0.663624
-10.14276
3.41191
3.472156
1.831803
-14.07177
6.394947
30.37898
1.186905
2.075861
-0.2527159
0.1805325
0.534142
12.88055
-1.428248
2.031923
3.24545
-0.07797255
2.112303
2.295981
-8.035153
-2.711724
-3.317371
-18.54038
4.396198
-5.69548
2.865268
-0.9077149
-15.19041
7.484698
-4.727843
-0.1300561
-1.790516
9.242307
-26.46271
7.657871
1.569476
1.270617
-6.077371
29.64129
0.6534398
0.05106703
-1.269232
-46.51556
-0.0124026
2.536674
5.515437
1.261572
0.6477174
-13.65234
-0.1142757
2.786834
-6.750863
-8.831289
1.336111
0.4087387
-11.72219
-40.60298
4.282634
-49.2671
1.077959
-0.03831565
-10.71307
1.344966
-1.341546
-38.63307
-0.005532736
1.978007
-12.1601
2.384391
3.517101
6.371416
-65.77931
3.238329
18.92968
1.103741
1.822653
-1.05914
17.45527
-16.80006
0.7595634
0.7872977
3.446351
3.113555
3.10874
0.7839891
2.361977
1.569854
1.756512
-71.63672
-85.116
1.939744
1.566478
3.91867
2.90561
2.037736
3.961893
1.906591
1.843744
2.158874
2.113213
1.609297
6.201002
1.957467
-18.72241
1.236869
0.956016
-52.47747
2.117112
1.23383
0.9180353
-35.19613
-3.340176
-2.873584
3.506445
-6.612585
-24.7946
36.36393
49.15428
2.158352
1.51368
-4.774567
7.709792
2.11634
3.340155
11.32493
-39.52987
2.209314
1.764831
-0.5131375
3.333629
1.517904
3.611392
-2.197176
-15.38943
-61.65133
-1.868234
3.130177
1.917801
2.769158
3.365742
-28.62081
1.935317
2.019274
1.073677
2.266659
-2.296477
1.845846
-22.09524
-11.61418
2.161961
2.314078
-20.6626
2.23348
3.403895
2.318114
1.877467
-17.04425
0.9695099
-26.4468
-72.93971
0.1454323
-0.3715206
-76.09033
-71.36579
2.707215
1.786102
2.649662
1.776106
2.448292
-4.164401
2.624041
1.576768
1.645356
-6.643515
1.843213
-1.613805
0.6624593
1.231438
2.091299
1.78245
1.725145
2.281292
1.62176
1.70232
2.067016
-12.59245
1.820357
2.341674
5.128174
0.1971087
3.224583
-0.2903617
1.265027
-1.208958
-10.14073
-13.00474
-0.3560551
1.573625
2.992527
0.6280756
-34.55227
-14.03025
-17.49908
-36.679
24.37412
3.91372
3.579531
-15.10309
-25.85123
1.017458
4.493993
-50.5024
0.7503175
0.9394592
-17.47932
0.8281177
8.201364
2.146586
2.071499
-45.0298
-12.84398
-14.39575
2.960992
1.374598
36.02477
-14.52273
-8.501048
2.045275
3.573358
2.689626
9.16305
2.201688
8.214866
1.549565
-4.254604
-2.623846
-6.984439
-2.877461
1.972927
-12.81527
2.17078
-71.80051
9.558551
3.045107
18.67387
1.975773
30.23057
-1.710543
-7.124683
-0.4046671
1.075297
14.89709
-4.603321
10.37708
1.661982
2.052529
1.044511
1.181282
4.768492
-4.426181
0.5022881
2.32587
-20.20175
-2.874976
17.47451
0.8035605
2.544723
-27.36587
-8.876328
0.3770623
-22.26728
39.04681
-0.4181843
1.892501
-44.38371
0.8807091
2.980805
1.045188
-0.5275153
-12.40367
-93.0766
-1.298301
1.155593
1.252982
1.45233
1.868726
-2.978861
3.408121
10.36735
5.052949
0.3711116
2.012789
1.905593
-2.65914
-5.566905
-13.46385
2.17022
2.100514
-36.02972
2.243969
2.868975
1.900851
-1.570073
-16.41645
2.544976
3.184122
3.108524
2.134231
-1.302941
-5.039314
1.808462
2.285035
-70.08497
25.25971
-2.687384
1.76346
4.905073
-1.445875
1.033863
0.7406238
2.995722
0.3474637
-5.904966
-7.331455
1.871927
-18.92778
1.818507
-11.58961
0.5335992
1.364478
-0.6286446
0.4790274
-7.821594
-6.014171
-16.26799
-14.02201
2.471256
-4.720803
-0.3579377
1.772475
0.6657524
7.210478
3.10231
1.15181
0.2833746
-2.714406
1.88635
-8.500368
3.320591
-40.93387
0.09661023
2.930994
1.553855
-53.65137
2.691723
-39.40516
1.71848
1.702137
0.4608077
0.3689505
4.250797
-35.28853
-63.7397
1.872825
1.850282
-5.735086
-19.03595
4.410214
3.686771
2.221532
2.329412
0.3402944
2.002505
-25.7015
-3.073269
-3.19437
0.5905012
1.171314
-0.8155935
0.8911106
2.226949
1.04273
-5.007732
0.2610763
-3.399331
8.39713
1.438029
-15.51448
1.392631
-3.990403
-1.407876
-16.1749
1.916524
1.670151
0.4458244
-22.09533
-32.3884
-30.9238
1.499473
-19.26517
2.874849
-8.316935
-3.464276
2.234763
17.5107
1.653506
-39.10649
-79.1507
2.156245
1.645755
-2.188582
1.793731
1.623337
2.068417
2.747095
2.607334
2.140189
-19.04303
0.1232241
2.089881
1.618863
2.521891
-1.061425
0.9715351
3.34479
1.934107
0.768927
-24.22213
1.934718
4.08684
2.635971
-0.7178603
-38.62328
-14.10055
-0.7330204
-4.663697
-0.1455784
1.197631
-31.04638
0.369953
1.470412
-3.570454
0.03242314
13.87442
-63.59669
-9.945061
0.01709264
-0.03501616
21.73594
-3.283569
1.939106
2.218811
1.144485
-1.271375
-31.54391
-35.92238
-22.96815
10.66141
7.87781
-0.4619811
-64.37264
-52.53143
-79.40707
3.400239
-1.557157
1.420632
0.8072791
2.215899
-0.08962091
1.943314
-0.831778
2.178699
2.324441
2.196077
1.85824
-30.87978
1.90144
2.872377
-0.1793728
-32.36838
20.91796
2.056046
-25.20219
-39.91451
-6.120392
6.195346
-4.629731
-2.335899
-15.71046
-74.21473
0.4411641
-16.82038
1.668735
-42.39699
-14.50099
3.064045
2.019053
-16.4011
1.936808
15.42334
1.559384
2.90156
3.818155
0.4109662
-9.667453
2.5006
0.7838244
2.045703
1.645378
-50.82047
4.292031
1.073124
0.04393555
2.150299
2.219628
-24.49781
-5.852697
-33.22055
2.017834
3.319831
22.55412
-0.1964774
1.512867
8.807859
1.486882
-64.39312
2.487444
3.015516
1.65739
1.535991
-11.88667
0.3121498
2.341532
-1.323131
1.793485
1.994761
-0.1753376
24.45462
2.454233
-10.45055
3.171254
-14.79792
1.533361
-85.1747
1.749687
2.175136
4.684523
3.249774
0.7913576
-61.51578
-71.80731
-75.93966
0.004814129
-1.560388
-84.04777
3.029007
-3.526851
0.7708942
1.367817
-14.33535
-41.24151
1.069669
-47.59361
0.5879891
2.54448
1.5903
-15.64577
10.26081
0.6731425
2.033917
1.706209
-5.047118
-0.6271835
15.44664
1.722986
-22.79072
1.030338
2.275969
2.177168
1.75597
0.4781028
-0.6561266
-4.759788
-9.612523
3.113068
0.05936884
-5.522357
2.11749
1.915126
-6.832146
-5.08565
2.10362
1.982877
-1.88774
0.6550079
1.742216
-77.33495
27.59414
-1.623192
2.432955
1.955384
-36.99225
0.3718634
3.232022
2.343385
2.036169
-0.1269044
1.038398
2.122904
-22.13626
-0.6380935
22.33618
37.16424
1.894866
-8.43734
-2.684983
2.273252
1.407839
-0.1952886
34.98625
-67.63456
-1.6851
6.487763
2.370176
-5.227884
1.983471
-3.225386
3.368517
0.6020269
2.109254
-13.98064
1.230026
3.103516
-5.645982
-11.2593
-15.67627
-3.166075
1.144732
-84.4344
28.15492
2.292703
0.3920856
-3.488847
0.1804819
1.847567
3.89693
33.38939
-0.5938177
0.4008366
-10.25836
2.009979
3.05322
-24.03017
1.640541
0.08695872
1.904651
2.024919
20.56385
0.1191404
-1.355208
1.965546
2.420213
-10.3236
20.0982
3.832958
5.8822
-35.07914
-6.464304
1.959483
1.676011
11.84346
-5.421377
-47.98934
3.938417
2.565911
0.02598515
2.309382
-6.438907
-16.9154
0.4380876
-12.18637
-0.5977433
4.413123
1.936466
1.113414
-67.69847
-21.49346
-0.7083993
4.729768
0.6698455
0.1582161
1.701264
1.312481
0.921241
-0.4927382
-72.85035
-2.083719
-2.644721
-1.90731
-63.66139
3.405493
3.406791
-12.69279
4.297226
6.184823
2.497432
36.80736
-1.051839
1.404374
2.118583
2.173808
-9.726746
-16.34331
-27.75694
16.11465
1.507914
2.137427
1.107968
1.290002
1.769165
0.9637236
2.181455
1.466386
0.4373878
0.4541685
3.800813
2.84015
13.15266
8.58992
2.189644
0.5303836
-1.973708
-1.451486
1.846878
-39.17538
12.57254
-50.36211
-19.94433
2.134123
2.24849
-83.24395
44.24163
-97.30251
3.380175
1.674929
5.715218
-24.93092
10.97802
-27.62715
3.705513
5.204643
0.2226651
3.077845
1.448216
3.016723
-0.4762223
-30.34921
4.501653
0.9957537
-0.9681645
1.578282
-35.23353
8.139054
-12.69565
2.377922
16.9695
0.8253556
2.292468
2.361735
0.418852
-77.59224
1.86183
4.249625
33.75823
2.077103
1.639329
1.870756
28.98157
8.423809
0.1446718
3.817388
-3.777978
1.983554
0.5876209
-60.92847
2.086045
-70.4972
1.113818
0.5048342
46.55842
3.054741
0.6135239
1.950775
3.442876
1.572932
2.113248
-22.18984
43.22224
2.623053
-1.331414
47.17054
-2.39757
-0.581475
-0.05732093
-26.26757
2.199631
1.815819
-5.309868
0.2626489
-5.835397
-69.77865
1.710455
1.713469
2.680954
1.499166
20.43706
3.016673
1.054471
1.677265
0.8564646
0.1544219
0.2064723
0.2735129
1.925059
1.907523
2.369692
-11.91599
-52.15683
-11.68121
-16.11289
-25.72482
-1.267774
4.858822
0.5494056
1.873614
4.852611
-40.78811
-24.34673
28.43051
-22.23115
1.512293
-0.2525218
0.9063301
-0.2245183
-31.05933
-4.492045
2.724178
-61.36023
2.90382
-0.3367425
1.839221
1.375409
2.199441
2.655348
1.769302
1.687973
0.1671025
1.790119
3.720026
-5.82033
0.4686638
1.563517
2.09898
-38.52179
-14.51707
2.067529
2.328408
2.070737
-10.35825
-24.71785
0.9642114
2.091607
0.05662022
2.132133
10.12196
18.33661
2.396538
-0.04589367
1.357764
-10.90544
-77.82538
-70.12962
0.5372139
-4.748153
0.7561121
-11.19754
13.98419
2.408836
-1.505685
2.303557
-9.815487
-6.565299
-0.2005591
-5.675566
-0.227254
1.689843
29.8437
3.632352
-5.400901
3.631357
3.325254
3.046301
-4.595598
3.518282
4.007686
-12.50686
2.886754
-5.563847
-15.50689
0.1005975
7.648472
10.35535
0.8093901
-21.65275
2.560772
39.2683
-3.94613
8.634662
2.052616
-12.17418
3.022494
3.120779
3.140457
22.87861
1.879817