/*--------------------------------*- C++ -*----------------------------------*\
| =========                 |                                                 |
| \\      /  F ield         | OpenFOAM: The Open Source CFD Toolbox           |
|  \\    /   O peration     | Version:  2406                                  |
|   \\  /    A nd           | Website:  www.openfoam.com                      |
|    \\/     M anipulation  |                                                 |
\*---------------------------------------------------------------------------*/
FoamFile
{
    version     2.0;
    format      ascii;
    arch        "LSB;label=32;scalar=64";
    class       surfaceScalarField;
    location    "0.6";
    object      phi;
}
// * * * * * * * * * * * * * * * * * * * * * * * * * * * * * * * * * * * * * //

dimensions      [0 3 -1 0 0 0 0];

oriented        oriented;

internalField   nonuniform List<scalar> 
6749
(
5.233803e-09
4.073632e-09
-9.307435e-09
-1.812424e-09
-1.128922e-09
2.941346e-09
-5.760951e-11
-1.695384e-09
1.752994e-09
1.716133e-09
-5.817353e-10
-1.134398e-09
1.316383e-09
-1.384096e-09
6.771366e-11
-1.014575e-09
1.821157e-09
-8.065817e-10
1.239957e-09
2.39283e-10
-1.47924e-09
2.290663e-10
1.129377e-09
-1.358444e-09
-9.204642e-10
1.357401e-09
-4.369373e-10
-1.740735e-09
4.712588e-10
1.269476e-09
1.748082e-09
-1.030548e-09
-7.175334e-10
-7.773256e-10
-1.512157e-09
2.289482e-09
-2.231587e-09
-3.065278e-10
2.538115e-09
3.702067e-09
-1.246042e-09
-2.456025e-09
9.972065e-10
4.109067e-10
-1.408113e-09
-1.904166e-09
4.086499e-11
1.863301e-09
1.763315e-09
-4.719036e-11
-1.716125e-09
3.482875e-10
-1.355614e-09
1.007327e-09
-6.407117e-10
-5.545417e-10
1.195253e-09
1.82679e-09
1.08282e-10
-1.935072e-09
-7.963228e-10
1.570249e-09
-7.73926e-10
9.111927e-10
-1.800762e-09
8.895688e-10
1.546296e-09
5.995413e-10
-2.145837e-09
-1.182658e-09
2.401121e-10
9.42546e-10
9.407745e-10
8.960185e-10
-1.836793e-09
-5.760022e-10
-1.11519e-09
1.691193e-09
1.065438e-09
3.614695e-10
-1.426908e-09
3.548933e-10
9.279834e-10
-1.282877e-09
2.853307e-10
-1.373246e-09
1.087915e-09
1.299742e-09
1.691819e-10
-1.468924e-09
-3.311113e-09
1.904178e-09
1.406935e-09
1.462525e-09
2.239542e-09
-1.500884e-09
2.704383e-09
-1.203499e-09
-1.683606e-09
1.036319e-09
6.472872e-10
-8.141651e-10
-1.448486e-09
2.262651e-09
4.860881e-09
-1.025025e-08
5.389368e-09
6.704656e-11
-1.474218e-09
1.407171e-09
-1.740525e-09
1.910132e-09
-1.69607e-10
-9.66521e-10
2.881522e-09
-1.915001e-09
9.769941e-10
7.000841e-10
-1.677078e-09
6.697864e-09
-1.836984e-09
7.400116e-10
8.280837e-10
-1.568095e-09
6.612274e-10
-3.021839e-09
2.360611e-09
4.668386e-09
2.441653e-09
-7.110039e-09
1.381709e-09
-2.660716e-09
1.279007e-09
-1.012242e-09
-7.284926e-10
4.224028e-10
-1.93788e-09
1.515477e-09
-4.64452e-11
-1.097615e-09
1.14406e-09
-1.702662e-09
1.715189e-09
-1.25272e-11
4.914958e-10
-1.832702e-09
1.341206e-09
1.589604e-09
-5.634655e-10
-1.026138e-09
1.765622e-09
3.410348e-09
-5.17597e-09
-1.412274e-09
-4.185411e-10
-1.190735e-09
-8.135682e-10
2.004303e-09
-4.668588e-10
1.856574e-09
-1.389715e-09
7.490323e-10
8.226356e-10
-1.571668e-09
6.405216e-09
-5.029484e-09
-1.375731e-09
1.952246e-09
2.227858e-10
-2.175032e-09
-9.364883e-10
1.200718e-09
-2.642299e-10
-2.692015e-10
1.802536e-09
-1.533335e-09
6.66499e-10
-1.700774e-09
1.034275e-09
-5.747797e-10
-1.069932e-09
1.644712e-09
-2.452708e-10
-1.46264e-09
1.707911e-09
-8.079235e-10
5.962208e-10
2.117027e-10
-9.029067e-10
1.332108e-09
-4.292017e-10
-6.267539e-10
-1.08565e-09
1.712403e-09
1.279413e-09
2.031547e-10
-1.482567e-09
-4.59422e-11
-2.076303e-09
2.122245e-09
-1.86496e-09
2.453457e-09
-5.88497e-10
1.508424e-10
1.209453e-09
-1.360296e-09
6.043068e-10
-1.846914e-09
1.242607e-09
1.475621e-09
5.667587e-10
-2.04238e-09
3.209965e-10
-1.321119e-09
1.000122e-09
-5.336962e-10
-1.228291e-09
1.761987e-09
1.183341e-09
4.68446e-10
-1.651787e-09
8.830219e-10
-1.717455e-09
8.344333e-10
2.106485e-09
-1.027857e-09
-1.078628e-09
6.350584e-10
-1.055604e-09
1.827945e-09
-1.110556e-09
-7.17389e-10
3.655749e-09
-2.773541e-09
-8.822084e-10
-7.519033e-11
1.771402e-09
-1.696211e-09
-1.857506e-09
1.101873e-09
7.556325e-10
1.775687e-09
-1.04937e-09
-7.263173e-10
-1.203772e-09
1.531575e-09
-3.278031e-10
-4.243268e-09
4.576444e-10
3.785624e-09
-3.677183e-10
1.68491e-09
-1.317192e-09
-1.695959e-09
4.003138e-10
1.295645e-09
-1.02578e-09
-4.177441e-10
1.443525e-09
1.432419e-09
-1.881196e-09
4.487778e-10
-1.876444e-09
3.612801e-10
1.515164e-09
6.747022e-09
-7.091197e-09
3.441751e-10
1.195799e-09
1.50572e-10
-1.346371e-09
8.795971e-10
8.516225e-10
-1.73122e-09
-1.938684e-09
1.922753e-09
1.593103e-11
-8.012222e-11
-1.67621e-09
1.756333e-09
1.603439e-09
-9.462974e-10
-1.024519e-09
1.869912e-09
-8.453933e-10
2.277949e-09
-3.343723e-09
1.065774e-09
-7.77592e-10
-7.122386e-10
1.489831e-09
-3.54951e-10
-1.130369e-09
1.48532e-09
-2.24035e-09
9.073637e-10
1.332987e-09
-1.402764e-09
-7.126182e-09
8.528946e-09
1.248091e-09
-1.767067e-09
5.189761e-10
-1.813754e-09
9.842819e-10
8.294723e-10
-2.41309e-11
7.181787e-09
-7.157656e-09
-1.198421e-09
-5.825314e-10
1.780952e-09
-8.952339e-10
-7.257729e-10
2.172053e-09
-6.268724e-09
4.096671e-09
2.273364e-10
-1.551693e-09
1.324356e-09
-2.193398e-09
8.623366e-10
1.331062e-09
1.072615e-09
-1.90129e-09
8.286758e-10
3.757471e-09
1.715703e-09
-5.473173e-09
1.635938e-09
-3.851421e-09
2.215484e-09
-9.07967e-10
-7.527353e-10
-1.997943e-09
2.565257e-09
-5.673142e-10
-1.324919e-09
1.122885e-10
1.212631e-09
6.204175e-10
1.132391e-09
-1.752808e-09
1.484378e-09
1.159961e-10
-1.600374e-09
4.838348e-10
1.224795e-09
-1.70863e-09
-9.56421e-10
-8.744832e-10
1.830904e-09
-5.175237e-09
5.136268e-09
3.896896e-11
-1.891739e-09
-9.09088e-10
2.800827e-09
-2.853787e-10
1.830846e-09
-1.545467e-09
-1.638084e-09
1.901314e-10
1.447952e-09
2.035841e-09
-1.105697e-09
-9.301444e-10
2.083573e-09
-2.839795e-10
-1.799594e-09
-3.773551e-10
1.239784e-09
-8.624287e-10
-3.96765e-10
1.310279e-09
-9.13514e-10
-1.659237e-09
2.442328e-09
-7.830918e-10
2.836999e-10
-1.186607e-09
4.828362e-10
-1.523252e-09
1.040416e-09
1.513503e-09
-1.288285e-09
-2.25218e-10
-1.312573e-09
2.646431e-10
1.04793e-09
-1.420258e-09
2.050544e-09
-6.302866e-10
-1.188568e-09
-4.554116e-10
1.643979e-09
9.814853e-10
3.228369e-10
-1.304322e-09
7.070804e-10
1.448403e-09
-2.155483e-09
4.616526e-10
-1.586539e-09
1.124886e-09
1.250956e-09
-1.407463e-09
1.565073e-10
1.140561e-09
-2.009158e-09
8.685971e-10
-1.234846e-09
1.726342e-09
1.898388e-10
-1.508099e-09
1.318261e-09
2.035036e-09
-6.695693e-10
-1.365466e-09
9.07238e-10
-2.094803e-09
2.073703e-09
-1.213431e-09
-8.60272e-10
-1.60111e-09
3.243363e-10
1.276774e-09
-1.346924e-09
6.898786e-10
6.570457e-10
-4.664181e-09
3.752954e-09
9.112263e-10
-1.919477e-09
-5.601345e-10
2.479611e-09
-6.959727e-10
-1.226616e-09
1.922589e-09
5.412308e-10
1.312237e-09
-1.853468e-09
7.152926e-10
1.059728e-09
-1.775021e-09
1.706805e-09
-1.64279e-09
-6.401507e-11
-1.655831e-09
7.576094e-10
8.982213e-10
-2.070015e-09
1.288542e-09
7.814726e-10
-3.639067e-10
-1.166693e-09
1.5306e-09
1.057943e-09
-1.745977e-09
6.880338e-10
-1.526952e-09
8.10092e-10
7.168604e-10
4.812763e-09
2.778383e-09
7.630641e-10
1.258649e-09
-2.021713e-09
-1.338796e-09
1.959214e-09
1.333739e-09
4.11676e-10
-1.745415e-09
-5.551196e-10
-7.746054e-10
1.329725e-09
4.623451e-10
-2.036318e-09
1.573973e-09
-1.702319e-09
1.516653e-09
1.856656e-10
1.776302e-09
2.310828e-11
-1.799411e-09
4.895079e-10
-1.585519e-09
1.096011e-09
-9.440004e-10
-1.101877e-09
2.045877e-09
1.856445e-09
-1.404817e-09
-4.51628e-10
-1.257786e-09
1.645591e-09
-3.878053e-10
3.120662e-10
-1.984822e-09
1.672756e-09
1.652831e-09
-8.094992e-10
-8.433322e-10
-2.092086e-10
-1.055192e-09
1.2644e-09
2.131096e-09
-6.577261e-10
-1.47337e-09
1.088948e-09
1.09335e-09
-2.182298e-09
-1.803959e-09
-3.13866e-11
1.835345e-09
-7.935542e-10
-8.203828e-10
-1.156079e-09
-3.215947e-10
1.477674e-09
-1.56864e-09
-8.036809e-11
1.649008e-09
1.232276e-09
5.235001e-10
-1.755776e-09
1.553945e-09
6.844378e-10
-2.238382e-09
1.222022e-09
-2.771435e-10
-9.448789e-10
-1.206465e-09
1.125634e-09
8.083162e-11
2.012975e-09
-1.920174e-09
-9.280026e-11
4.430754e-10
1.292e-09
-1.735075e-09
-3.889266e-10
2.177863e-09
-1.788936e-09
-2.317319e-09
4.489372e-09
-5.283969e-10
-1.170264e-09
1.698661e-09
-9.366698e-10
-2.2923e-09
3.22897e-09
2.11812e-10
-1.619174e-09
1.407362e-09
1.594753e-09
-9.653397e-10
-6.294132e-10
1.264222e-09
-1.886992e-09
6.227701e-10
1.461985e-09
7.309675e-10
-2.192952e-09
-1.335623e-09
1.845463e-09
-5.098395e-10
1.606297e-09
1.627219e-10
-1.769019e-09
2.671814e-09
-2.329171e-09
-3.426424e-10
-2.057902e-09
6.4512e-10
1.412782e-09
6.848486e-10
7.483447e-10
-1.433193e-09
7.606817e-10
-1.778943e-09
8.662443e-10
9.126985e-10
9.849916e-10
-1.424095e-09
4.391032e-10
8.055979e-10
1.41784e-10
-9.473819e-10
6.063777e-10
-1.416251e-09
8.098728e-10
1.569038e-09
-1.540368e-09
-2.86701e-11
5.565665e-09
-8.97279e-10
-1.963741e-09
9.802834e-10
9.834577e-10
-1.138934e-09
1.125845e-09
1.308819e-11
-1.316172e-09
8.493134e-10
-1.316648e-09
-5.596087e-10
1.876257e-09
-5.229262e-10
2.030671e-09
-1.507745e-09
-1.07979e-09
-6.376614e-10
1.717452e-09
-1.377564e-09
1.132294e-09
2.095192e-09
-8.638595e-10
-1.231333e-09
-1.032935e-09
1.212198e-09
-1.792629e-10
-8.472331e-10
-5.922204e-10
1.439453e-09
2.001777e-09
-8.411313e-10
-1.160646e-09
1.393925e-09
-1.938989e-09
5.450637e-10
-1.299481e-09
-1.044699e-09
2.34418e-09
-4.215168e-10
1.450472e-09
-1.028955e-09
1.215975e-09
-4.698703e-10
-7.461046e-10
8.388282e-10
-5.789452e-10
-2.59883e-10
1.469365e-09
4.561537e-10
-1.925518e-09
9.094634e-10
8.340512e-10
-1.743515e-09
-1.083044e-09
1.798266e-09
-7.152224e-10
-1.406621e-09
-7.233163e-10
2.129938e-09
1.837684e-09
1.059938e-09
-2.897622e-09
2.018595e-09
-1.326162e-09
-6.924333e-10
1.594095e-09
-1.717287e-09
1.231911e-10
8.055328e-10
7.114047e-10
-1.516937e-09
4.166857e-09
-4.388462e-09
2.216045e-10
7.735448e-10
1.261262e-09
-2.034807e-09
-2.244369e-09
1.806852e-09
4.37517e-10
2.321896e-09
-1.549368e-09
-7.725272e-10
-1.736014e-09
9.483229e-10
7.876911e-10
8.718915e-10
-3.994007e-10
-4.724908e-10
-1.132221e-09
1.319839e-09
1.910675e-09
-3.565593e-10
-1.554116e-09
2.685408e-09
-3.267321e-09
5.819126e-10
2.804156e-09
-3.998943e-09
1.194787e-09
3.056152e-10
-1.540213e-09
1.234598e-09
-1.007465e-09
-1.236904e-09
-2.243236e-09
1.137631e-09
-1.254259e-09
1.732333e-10
1.081026e-09
-1.425148e-10
1.429681e-09
-1.287166e-09
1.489958e-09
-8.711827e-10
-6.187752e-10
5.117505e-11
1.807558e-09
-1.858733e-09
1.198094e-09
7.421641e-10
-1.940258e-09
-7.300139e-10
2.02912e-09
-1.299106e-09
-2.938562e-10
-7.986878e-10
1.092544e-09
1.392158e-09
2.14342e-09
-3.535578e-09
9.97837e-11
1.7379e-09
5.445829e-10
9.250032e-10
-1.469586e-09
9.248705e-10
6.64267e-10
-1.589137e-09
8.690721e-11
-1.744415e-09
1.657508e-09
7.165849e-10
5.430028e-10
-1.259588e-09
-4.14668e-09
6.286177e-10
3.518062e-09
1.869966e-09
-9.605023e-10
-1.870107e-09
9.860833e-10
8.840241e-10
-8.900055e-10
1.697973e-09
-1.289348e-10
-1.143076e-09
-6.223645e-10
1.765441e-09
4.455517e-10
9.78955e-10
-1.424507e-09
2.981288e-09
-1.799603e-09
-1.181685e-09
8.850364e-10
4.971135e-10
-1.38215e-09
1.718807e-09
-1.39781e-09
-1.412779e-09
1.003045e-09
4.097346e-10
-5.708005e-10
-1.069409e-09
1.640209e-09
9.738897e-10
-1.501289e-09
5.273997e-10
2.462072e-09
-1.027473e-09
-1.434599e-09
-2.630119e-10
-1.181636e-09
1.444647e-09
2.981534e-10
1.158461e-09
-1.456614e-09
1.165307e-09
3.721029e-10
-1.537409e-09
-1.093662e-09
1.396845e-09
-3.03183e-10
-2.654665e-10
1.285358e-09
-1.019891e-09
-1.532706e-09
-2.270583e-10
1.759765e-09
-1.19801e-10
1.933743e-09
-1.813942e-09
6.581205e-10
7.964245e-10
-1.454545e-09
-6.393674e-10
1.5529e-09
-9.13533e-10
-1.535082e-09
1.65802e-09
-1.229373e-10
-3.433919e-10
1.87708e-09
-1.533688e-09
-1.479489e-09
4.263943e-10
1.053094e-09
-1.701449e-09
1.653455e-09
4.799485e-11
9.918105e-10
5.755211e-09
1.480485e-09
-1.507421e-09
2.693564e-11
1.378364e-09
6.510591e-10
-2.029423e-09
9.553839e-10
7.398912e-10
-1.695275e-09
-3.24287e-09
-7.007378e-09
1.559612e-09
-1.04181e-09
-5.17802e-10
-1.185166e-09
1.226093e-09
-4.092693e-11
-1.415301e-09
9.191741e-10
4.961271e-10
-1.71444e-10
-1.487179e-09
1.658623e-09
1.149086e-09
-6.874335e-10
1.833955e-09
-7.760115e-10
-5.941605e-10
-9.327919e-10
1.380654e-09
-9.183092e-10
-1.505013e-09
4.386607e-10
1.066353e-09
1.728e-09
-6.622702e-10
-1.06573e-09
-2.127946e-09
1.869347e-09
2.585994e-10
-8.676922e-10
-4.33102e-10
1.300794e-09
2.627823e-09
-1.781494e-09
-8.463284e-10
-1.967588e-09
1.423698e-09
5.438904e-10
5.471157e-10
-1.607815e-09
1.060699e-09
-2.641689e-09
1.876091e-09
7.655974e-10
-1.276124e-09
-2.963066e-10
1.57243e-09
6.8903e-10
-2.445666e-09
1.756636e-09
-9.050134e-10
-8.406246e-10
1.745638e-09
-3.919698e-10
1.598486e-09
-1.206516e-09
1.255695e-09
3.03917e-10
8.970664e-10
-2.041828e-09
1.144762e-09
-8.120368e-10
-9.061427e-10
1.71818e-09
-1.857917e-09
2.197193e-09
-3.392757e-10
1.183257e-09
-2.684141e-09
-2.474611e-09
-2.189569e-09
1.50007e-10
1.568286e-09
-1.718293e-09
7.88532e-10
7.591837e-10
-1.547716e-09
-4.007045e-09
2.551936e-09
1.455109e-09
1.959178e-09
-6.124768e-10
-1.346701e-09
-8.50967e-10
1.590979e-09
5.607922e-11
1.490217e-09
8.117804e-10
5.109194e-10
-1.3227e-09
1.546945e-09
1.651662e-10
-1.712112e-09
1.039153e-09
-1.537411e-09
2.262032e-09
-1.432746e-10
-2.118757e-09
-9.521839e-10
2.313941e-09
-1.361757e-09
-1.099466e-09
8.609598e-10
2.385065e-10
1.330263e-09
-2.101761e-09
7.714979e-10
2.325233e-09
-7.394239e-09
5.069007e-09
9.877993e-10
1.119485e-09
-2.107284e-09
-8.38778e-10
1.63832e-09
-7.995416e-10
-9.069247e-10
1.618181e-09
-7.112562e-10
2.323892e-09
-1.66665e-09
-6.57242e-10
1.566801e-09
-1.353729e-09
-2.130715e-10
9.043416e-10
-2.485614e-09
1.581273e-09
-5.581883e-10
1.878225e-09
-1.320036e-09
2.17896e-09
-1.733408e-09
1.731106e-09
-8.651839e-10
-8.659222e-10
-1.567287e-09
6.447647e-10
9.225226e-10
8.1066e-10
-1.070444e-09
2.597839e-10
1.755002e-09
-1.720627e-09
-3.437492e-11
4.468716e-09
-2.448527e-09
-2.020189e-09
-1.23022e-09
1.836597e-09
-6.216806e-10
1.37596e-09
-7.542792e-10
1.95295e-09
-1.516553e-09
-4.363968e-10
-1.82624e-09
3.218398e-09
3.16986e-10
-1.393267e-09
1.076281e-09
-2.066542e-09
1.261945e-09
8.045969e-10
-2.342316e-09
-4.493455e-10
2.791661e-09
1.112254e-09
-1.926419e-09
8.81572e-10
1.224154e-09
-2.105726e-09
-2.326802e-10
-1.33596e-09
-1.066039e-09
1.691456e-09
-6.25417e-10
8.384647e-10
-2.232834e-09
1.39437e-09
1.459324e-09
-1.698656e-09
2.393326e-10
6.63579e-10
-1.815797e-09
1.152218e-09
-2.177852e-09
1.530804e-09
6.470484e-10
3.362524e-10
-1.714086e-09
1.377834e-09
-1.04006e-09
-8.089828e-10
1.14194e-09
-1.740172e-09
5.982316e-10
1.637682e-09
-2.942363e-09
1.304681e-09
1.701592e-09
-1.10205e-09
1.044614e-09
-1.840937e-09
9.885204e-10
-1.795427e-09
8.069062e-10
1.953427e-09
-9.676533e-10
-9.857742e-10
1.167149e-09
-2.840867e-09
1.673718e-09
1.130903e-09
-2.106494e-09
9.755905e-10
-6.721358e-10
1.48402e-09
-8.118844e-10
-1.663082e-09
1.53357e-10
1.509725e-09
-1.527405e-09
8.795013e-11
1.439455e-09
-7.523937e-09
6.21771e-09
1.306227e-09
-1.433651e-09
-3.514364e-10
1.785087e-09
-2.436335e-09
8.501139e-10
1.586221e-09
-2.188176e-10
-5.891058e-10
-1.630066e-09
6.990546e-10
9.310109e-10
-3.75084e-10
-1.661234e-09
1.993428e-09
-8.451209e-10
-1.148307e-09
-1.322583e-09
1.432753e-09
-1.101693e-10
1.903866e-09
-9.160671e-10
9.179195e-10
1.163499e-09
-2.081418e-09
-1.746648e-09
1.484576e-09
2.620712e-10
4.616789e-10
1.051824e-09
4.154858e-10
-1.78276e-09
1.367274e-09
1.525496e-09
-1.213668e-10
-1.404129e-09
-1.63152e-09
8.299226e-10
8.015978e-10
2.194382e-09
2.998546e-10
-2.494237e-09
-1.377949e-09
1.16874e-09
-8.47672e-10
1.405544e-09
-5.578716e-10
-1.202619e-09
1.484441e-09
-2.818218e-10
7.972478e-10
-2.537773e-09
1.382608e-09
-9.213888e-10
-4.612197e-10
-1.942959e-10
1.646247e-09
-1.451951e-09
-9.441002e-10
1.697559e-09
-7.53459e-10
-1.543695e-09
1.790489e-09
-2.467937e-10
-1.688788e-09
1.970923e-09
-3.076003e-09
1.105081e-09
-1.67877e-09
1.17757e-09
5.012001e-10
-3.602968e-10
-1.342883e-09
1.70318e-09
1.243345e-09
-1.936645e-09
6.933002e-10
1.915285e-10
1.378501e-09
-1.57003e-09
-3.321107e-09
4.926112e-09
-1.605004e-09
-7.779075e-10
1.910926e-09
-1.133018e-09
-4.51915e-10
-8.557818e-10
1.307697e-09
1.188353e-09
-1.702663e-09
5.1431e-10
-2.902108e-10
1.422602e-09
9.755421e-10
-1.622968e-09
6.474262e-10
-1.05294e-09
-3.196313e-10
1.372571e-09
7.248409e-10
1.144494e-09
-1.869335e-09
1.23164e-09
6.482175e-10
-1.851989e-09
-8.860504e-10
-9.592209e-10
1.845271e-09
-2.764608e-09
-2.107082e-09
7.801867e-10
1.326895e-09
6.753815e-10
-1.389887e-09
7.14506e-10
3.737608e-10
1.726308e-09
-2.100069e-09
1.181682e-09
-7.983472e-10
-3.833346e-10
-5.766945e-10
-1.010229e-09
1.586923e-09
-2.05748e-09
1.264048e-09
7.934323e-10
-2.616003e-09
2.917147e-10
2.324288e-09
-1.649765e-09
-1.983656e-11
1.669601e-09
7.21296e-10
-1.820751e-09
1.099455e-09
1.06243e-09
1.076555e-09
-2.138985e-09
1.291256e-09
-3.674871e-10
-9.237686e-10
-1.23968e-09
8.387748e-10
4.009057e-10
-1.387454e-09
-1.857102e-09
3.244556e-09
7.198876e-10
-1.652882e-09
9.32994e-10
-1.294025e-09
1.731467e-09
-4.374419e-10
-6.266506e-10
-1.23321e-09
1.859861e-09
1.993938e-09
-1.278645e-09
1.007799e-09
-1.777695e-09
7.698954e-10
-5.265572e-11
-1.123204e-09
1.17586e-09
1.797009e-09
-1.006225e-09
-7.907845e-10
-1.720433e-09
1.877262e-10
1.018987e-09
5.087918e-10
-1.527779e-09
-3.236596e-11
-1.863076e-09
1.895442e-09
-8.528836e-10
1.847866e-09
-9.949824e-10
-1.301533e-09
-6.753402e-09
8.054935e-09
-1.946141e-09
5.981802e-10
1.34796e-09
-1.092458e-09
-8.681096e-10
1.512262e-09
-6.441522e-10
-1.340333e-09
-8.331539e-10
2.173487e-09
2.674117e-09
-2.734295e-09
6.017771e-11
1.639198e-09
-1.548194e-10
-1.855508e-09
1.39337e-09
4.621383e-10
-1.167869e-09
-3.016008e-10
1.469469e-09
9.586819e-10
-1.482655e-09
5.239727e-10
-9.004757e-10
-1.035862e-09
1.936338e-09
2.007751e-09
-5.882624e-10
-1.419488e-09
-2.418772e-09
3.800481e-09
4.197661e-10
-1.303213e-09
8.834472e-10
5.098814e-10
1.220419e-09
-1.7303e-09
9.863842e-09
-9.863842e-09
-1.553217e-09
1.118023e-09
4.35194e-10
1.760127e-09
-9.098326e-10
-8.50294e-10
1.061733e-09
-1.616757e-09
1.587565e-09
-9.712312e-10
-6.163336e-10
-1.650465e-09
-2.122492e-10
1.862714e-09
1.435097e-09
1.762308e-09
-3.197404e-09
1.602017e-09
-8.52985e-10
1.474261e-09
-8.294704e-10
-6.447908e-10
1.558545e-09
-7.179052e-10
-8.406394e-10
1.794197e-09
-5.697992e-10
-1.224398e-09
7.744478e-10
-1.555442e-09
7.809947e-10
1.922562e-09
-4.531976e-10
8.318983e-10
5.793023e-10
-1.411201e-09
-7.956022e-10
-5.2057e-10
1.786387e-09
-1.532688e-09
-2.536985e-10
1.623947e-09
-5.356716e-12
-1.598762e-09
1.604119e-09
-2.390857e-10
1.564068e-09
-1.324982e-09
6.746313e-10
1.59719e-09
-1.154115e-09
-1.001392e-09
1.839857e-09
1.846429e-09
-1.320647e-09
-5.25782e-10
2.199994e-09
-1.316972e-09
1.302421e-09
-1.471861e-09
1.694405e-10
3.177024e-10
-1.90153e-09
1.583828e-09
-3.668705e-10
-1.537296e-09
-1.330909e-09
1.192494e-09
1.384154e-10
7.289627e-11
-1.394015e-09
7.364148e-09
-2.130345e-09
2.566274e-09
9.863901e-10
-3.552664e-09
-2.909726e-09
1.522272e-09
7.672202e-10
-1.583905e-09
3.632802e-10
-1.11613e-09
7.528495e-10
-1.127619e-09
1.159303e-09
-3.168378e-11
-4.190197e-10
1.824497e-09
-1.405477e-09
1.316406e-09
5.535594e-10
-1.238188e-09
1.722022e-09
7.420735e-10
-1.765164e-09
1.02309e-09
5.892535e-10
-3.05482e-09
2.465567e-09
-1.80814e-09
-5.688718e-10
3.753329e-09
2.239743e-09
-5.993071e-09
-1.828436e-09
2.625673e-10
1.565868e-09
-6.517213e-10
1.815868e-09
-1.164146e-09
-3.176947e-09
-1.501638e-09
4.678585e-09
-2.386307e-09
-1.951922e-09
4.33823e-09
9.794955e-10
-1.3725e-09
3.930047e-10
-3.487462e-09
7.167433e-10
2.770718e-09
-1.516739e-09
6.536629e-10
8.630765e-10
-9.657024e-10
2.028133e-09
2.613315e-09
-2.528477e-09
-8.483804e-11
1.144871e-09
5.862356e-10
-2.675216e-09
1.968909e-10
2.478325e-09
1.426694e-09
-2.920577e-10
-1.134636e-09
1.772501e-09
-5.681514e-10
-1.204349e-09
8.587711e-10
1.272325e-09
-1.673189e-09
2.572144e-09
-8.989544e-10
-4.762753e-10
-1.108711e-09
1.584987e-09
-1.644412e-09
9.37434e-10
7.069782e-10
-9.13194e-11
-3.396142e-09
-1.178875e-11
-1.306462e-09
1.318251e-09
-1.175259e-09
1.949707e-09
-1.450173e-09
2.251601e-09
-8.014286e-10
-1.817466e-09
9.383351e-10
8.791314e-10
-1.218119e-09
1.533035e-09
-3.149152e-10
1.897009e-09
-1.154936e-09
-8.870124e-10
3.294221e-10
-9.592402e-10
1.886352e-09
-9.271118e-10
-9.159942e-11
-1.288906e-09
1.380505e-09
3.634462e-10
1.263907e-09
-1.627354e-09
5.559454e-10
-1.746681e-09
-5.919528e-10
2.067574e-09
-4.045376e-10
-7.489281e-10
1.153466e-09
1.572286e-09
-9.141658e-10
2.587554e-10
1.010171e-09
-1.268926e-09
-1.096483e-09
3.867874e-10
7.096952e-10
-4.609345e-10
1.499986e-09
-1.039051e-09
5.323631e-09
-3.613848e-09
-1.709784e-09
9.025775e-10
-1.618506e-09
7.159283e-10
-2.218027e-10
1.456733e-09
-1.23493e-09
1.321577e-09
-1.301224e-09
-2.035291e-11
3.71558e-10
-1.74272e-09
2.94234e-10
5.362452e-09
-1.239872e-09
-4.12258e-09
4.087961e-12
1.258765e-09
-1.262853e-09
-2.881689e-10
1.588198e-09
-1.300029e-09
2.975866e-09
-3.584477e-10
-2.617419e-09
-1.102453e-09
2.116835e-09
-1.014382e-09
-1.02397e-09
1.730152e-09
-7.061818e-10
-1.490187e-09
2.505063e-10
2.706322e-09
-2.3769e-09
-1.626658e-10
1.458485e-09
-1.295819e-09
3.059774e-10
1.418181e-09
-1.724159e-09
6.071978e-10
-1.148524e-09
5.41326e-10
-3.61539e-10
-1.128648e-09
1.32302e-09
2.600946e-09
-3.923966e-09
8.45624e-11
1.597752e-09
-1.682314e-09
3.106778e-09
9.691439e-11
-3.203693e-09
-1.070919e-09
2.094044e-10
-3.965057e-10
-8.228269e-10
1.219333e-09
1.209799e-10
3.475428e-09
-3.596408e-09
-1.695432e-09
5.532316e-10
1.1422e-09
1.310622e-09
6.828056e-10
-1.527426e-09
-2.176125e-11
1.549188e-09
-3.499701e-09
3.440388e-09
5.931362e-11
-1.604553e-09
-3.314195e-09
4.918748e-09
-1.188392e-09
1.551839e-09
2.015686e-09
-1.132511e-09
-8.83175e-10
7.836916e-10
1.890426e-09
6.251006e-10
7.575078e-10
7.958292e-10
1.157598e-09
-2.574188e-10
-1.570692e-09
1.828111e-09
9.630361e-10
-2.591859e-09
1.628822e-09
-1.76272e-10
-1.098432e-09
1.274704e-09
-1.633338e-09
1.811022e-09
-1.776839e-10
1.540436e-09
-8.650549e-10
1.355385e-09
-1.850905e-09
4.955196e-10
1.500248e-09
-1.619654e-09
1.19406e-10
-6.633153e-10
-1.808544e-09
2.471859e-09
1.279569e-09
-1.400936e-09
-5.955587e-10
-8.380922e-10
1.305735e-09
5.406948e-10
1.132755e-09
-1.484073e-09
3.513176e-10
5.243219e-10
-1.100324e-09
-2.281051e-09
2.161249e-09
5.03022e-10
1.068548e-09
-1.57157e-09
-1.307127e-09
2.000881e-09
-6.937545e-10
2.259936e-09
8.08384e-10
-2.217486e-09
1.409102e-09
1.493132e-09
-2.242303e-09
7.491709e-10
5.599762e-10
1.350156e-09
-2.333862e-09
5.286316e-09
-2.952454e-09
-2.006476e-09
1.745495e-09
2.609815e-10
-8.232188e-10
-1.028073e-09
-9.029487e-10
1.931022e-09
-7.349989e-10
1.97192e-09
-1.236921e-09
4.946289e-11
1.589735e-09
1.010052e-09
5.677209e-10
-1.577773e-09
-3.515229e-09
-5.254431e-11
-1.341753e-09
1.394298e-09
1.907474e-09
-1.856983e-10
-1.721776e-09
7.541095e-10
-1.34617e-09
1.562642e-09
-8.09152e-10
-7.534903e-10
2.140502e-11
-1.346324e-09
-1.794424e-09
-3.41031e-10
2.135455e-09
7.400764e-09
-1.764214e-09
-5.636551e-09
9.634582e-10
1.071577e-09
-1.805274e-09
2.161475e-09
-3.562011e-10
3.661643e-09
-3.752962e-09
1.308083e-09
2.353559e-09
-1.857605e-09
1.708342e-09
1.492638e-10
-4.703377e-09
4.444982e-10
4.258879e-09
-8.963505e-10
-8.825923e-10
-8.840125e-10
-1.007086e-09
1.891099e-09
-1.398837e-10
-5.555455e-09
5.695339e-09
1.389056e-09
7.389501e-10
-2.128006e-09
9.627486e-10
-1.801527e-09
-4.756311e-10
1.418106e-09
-9.424749e-10
9.158484e-10
-1.555216e-09
-1.264543e-09
9.080818e-11
1.173735e-09
5.221293e-10
1.385345e-09
-4.099234e-10
1.477929e-09
-1.068006e-09
6.115672e-10
-1.015646e-09
-5.783687e-10
1.594015e-09
-1.256529e-09
1.107372e-09
1.491571e-10
-1.339715e-09
-4.681989e-10
1.807914e-09
-1.089541e-09
2.425653e-09
-1.336111e-09
-1.540196e-09
-3.792807e-10
-1.700143e-09
1.739791e-09
-3.964734e-11
1.554635e-09
2.001535e-09
5.410037e-11
-2.055635e-09
-1.99416e-09
1.632837e-09
3.61323e-10
-1.675774e-09
7.152718e-10
1.169183e-09
-1.673149e-09
5.039659e-10
1.69701e-09
-3.554112e-09
9.837468e-10
-1.70952e-09
1.50813e-09
-1.381553e-09
-1.265771e-10
3.129897e-09
-1.603882e-09
-1.526015e-09
2.832969e-10
1.232549e-09
-1.515845e-09
-1.001403e-09
-8.687048e-10
-1.068375e-09
1.852337e-09
-7.839616e-10
-2.981535e-09
3.765226e-09
-8.03323e-10
1.697712e-09
-8.943895e-10
9.768528e-10
2.004436e-09
-4.922191e-10
1.881275e-09
8.573448e-10
-1.451505e-09
-3.325177e-10
-1.314694e-09
1.647211e-09
-2.477829e-10
-1.932969e-09
2.180752e-09
1.592855e-09
-8.323613e-10
-7.604934e-10
-2.025323e-10
1.400566e-09
-1.198034e-09
2.260596e-09
-3.227117e-09
1.66355e-09
-1.920968e-09
-7.994648e-10
2.343834e-09
-1.544369e-09
-1.417781e-09
-4.586634e-10
2.022161e-09
-1.058184e-09
-9.639772e-10
1.413439e-09
-1.748097e-09
3.346571e-10
1.639166e-09
-5.261249e-10
-1.113041e-09
-5.264085e-10
1.774499e-09
-6.526486e-10
-1.177863e-09
1.830511e-09
-2.161817e-09
1.162259e-09
9.995574e-10
-1.445243e-09
-5.822874e-10
2.027531e-09
2.063587e-09
-4.572902e-10
-2.822201e-09
-4.390749e-09
7.21295e-09
-3.204786e-09
3.960513e-09
-7.557272e-10
-2.049577e-09
4.183226e-09
-2.133648e-09
1.884286e-09
-1.827835e-09
-5.645101e-11
1.312218e-09
-1.928378e-09
6.161601e-10
6.728642e-10
1.354856e-09
-2.02772e-09
-5.811628e-09
2.535678e-09
3.275949e-09
5.86029e-10
1.371428e-09
-1.957457e-09
-1.827573e-09
1.06554e-09
7.620335e-10
9.117998e-10
1.006816e-09
-1.918616e-09
1.412474e-09
-2.135041e-09
7.225674e-10
2.542126e-09
-2.815298e-10
1.82762e-09
6.475741e-09
-5.081197e-10
-1.553741e-09
2.061861e-09
-1.729769e-09
-3.748793e-10
2.104648e-09
2.152288e-09
-1.813651e-10
-6.908675e-10
1.410755e-09
-9.416215e-10
1.822341e-09
-8.807198e-10
-1.813332e-10
-1.362362e-09
-6.272202e-09
3.478485e-09
2.793717e-09
1.291768e-09
7.692057e-09
-8.99359e-09
-1.829591e-09
1.925902e-09
-9.631107e-11
2.006939e-09
-8.466716e-10
-1.160267e-09
-1.201001e-09
-4.392191e-10
1.64022e-09
-7.390612e-10
4.152159e-09
-3.413098e-09
-1.615766e-09
1.568961e-09
4.680542e-11
1.416303e-10
1.731161e-09
-1.872791e-09
1.131954e-09
2.17893e-09
-1.574623e-09
-6.03131e-10
1.855459e-09
-1.252328e-09
-1.072645e-09
-9.215154e-10
9.840205e-10
1.873827e-09
-2.857848e-09
-4.58621e-09
4.738004e-09
-1.517946e-10
-1.522511e-09
-3.530498e-11
1.557816e-09
-1.910644e-09
5.929599e-10
1.317684e-09
-1.874866e-09
1.115631e-09
7.592356e-10
-4.688859e-10
-1.40598e-09
9.896953e-10
-5.696468e-10
-4.200484e-10
-1.322237e-09
1.138985e-09
1.119084e-09
-1.689477e-09
5.703931e-10
8.738921e-10
-1.82187e-09
9.479784e-10
6.956353e-10
-1.938339e-09
1.242704e-09
-1.026351e-09
2.001701e-09
-9.753498e-10
-1.602112e-09
-2.208084e-10
1.82292e-09
-1.753689e-10
1.492544e-09
9.705957e-11
-1.49897e-09
9.281692e-10
1.878829e-10
1.081148e-09
-1.269031e-09
-1.074177e-10
-1.325392e-09
1.432809e-09
1.451923e-09
6.005946e-10
-2.052518e-09
1.044537e-09
-1.52091e-09
1.128373e-09
3.925366e-10
-1.018881e-09
1.78085e-09
-7.619686e-10
-1.051844e-09
-8.879872e-10
1.939831e-09
1.245046e-09
-3.235642e-09
1.990596e-09
1.835368e-10
-2.415124e-09
3.492896e-09
-8.210826e-10
1.713178e-09
5.628796e-12
-7.528706e-10
1.668719e-09
6.557741e-10
-1.577163e-09
1.589529e-09
-7.839963e-10
1.83572e-09
-6.937798e-10
9.669514e-10
-1.489878e-09
5.086211e-10
3.699261e-09
-4.207882e-09
-1.016461e-09
-2.536082e-10
1.270069e-09
9.702231e-10
-1.533689e-09
2.878245e-09
4.522519e-09
-1.809078e-09
1.029066e-10
1.706172e-09
1.841515e-09
3.698169e-11
-1.878497e-09
-7.679358e-10
2.216589e-09
-1.448653e-09
-2.01889e-09
1.771107e-09
2.574121e-09
-9.004072e-10
-1.673714e-09
2.085994e-09
-1.109786e-09
-9.762084e-10
-2.487171e-09
9.220692e-10
1.565102e-09
-1.76681e-10
1.732373e-09
-1.555692e-09
3.192643e-10
1.504993e-09
-1.824258e-09
1.717392e-09
8.47865e-10
1.364517e-09
1.35843e-10
-1.50036e-09
2.26613e-09
-3.512172e-09
1.67021e-09
-1.380239e-09
-2.899714e-10
-1.546363e-09
1.488754e-09
-8.776363e-10
-1.021729e-09
1.899365e-09
1.403716e-09
-2.281352e-09
-1.376155e-09
1.603491e-09
1.834617e-09
-1.746637e-10
1.258987e-09
-1.084324e-09
-1.087337e-09
1.257761e-09
-1.704237e-10
-2.03567e-09
9.877524e-10
1.047917e-09
-9.754201e-10
-1.038752e-09
2.014172e-09
-1.347386e-09
2.310135e-09
-1.29055e-09
2.215702e-09
-9.251519e-10
1.370385e-09
1.691107e-09
-5.716228e-10
8.084023e-10
1.193375e-09
-3.614671e-10
-1.403697e-09
1.803e-09
-9.367557e-10
-1.989861e-09
6.436908e-10
1.501042e-09
4.217116e-10
-3.381799e-09
-3.894816e-10
3.771281e-09
-6.376125e-10
1.19933e-09
-5.617176e-10
-1.355068e-09
4.021663e-10
-1.742472e-09
1.340306e-09
1.945134e-09
-1.502644e-09
-4.4249e-10
1.378627e-09
-6.800421e-11
1.414147e-09
-9.34153e-10
-4.799944e-10
1.34954e-09
-8.160386e-10
-5.335014e-10
-1.366576e-09
1.354787e-09
-1.970776e-09
1.030806e-09
9.399693e-10
-2.197225e-09
-1.80982e-09
-1.349113e-09
-1.72689e-09
1.484448e-09
-1.067079e-10
1.755206e-09
1.297966e-09
-3.953885e-10
1.316787e-09
-1.393148e-09
7.636031e-11
2.172223e-09
-1.267881e-09
1.185906e-09
-1.669191e-10
-4.548282e-10
-1.872205e-09
2.327033e-09
9.68017e-10
-1.221501e-09
2.534835e-10
-1.807805e-09
2.832311e-10
1.524574e-09
5.496523e-10
7.652475e-10
-1.3149e-09
-1.572965e-09
5.126862e-10
1.060279e-09
-1.824264e-09
5.337139e-10
-9.788961e-09
3.371898e-09
6.417063e-09
1.420304e-09
-8.865203e-10
-5.337839e-10
-1.585453e-09
-5.495518e-10
-8.91901e-10
1.441453e-09
-1.943584e-09
-1.311972e-09
4.030931e-10
9.088792e-10
3.049912e-11
1.372537e-09
-1.403036e-09
-1.958923e-09
5.807057e-10
1.378217e-09
-1.603173e-09
5.178228e-10
1.08535e-09
-1.843743e-09
2.216526e-09
-4.641907e-09
2.425381e-09
-1.643087e-09
2.62008e-10
1.381079e-09
-3.919624e-10
1.735816e-09
-1.343853e-09
1.097897e-09
5.826739e-10
-1.680571e-09
8.358104e-10
-1.992733e-09
1.156923e-09
1.38149e-09
-2.056548e-09
6.750581e-10
-8.968734e-10
1.734911e-09
-8.380381e-10
8.60316e-10
-1.990062e-09
1.129746e-09
-9.939313e-10
1.522568e-09
-5.286369e-10
7.362494e-10
-1.877917e-09
1.484082e-11
-5.208709e-10
2.416313e-09
4.958408e-10
1.41508e-09
-1.91092e-09
-1.787502e-09
1.009595e-09
3.435592e-09