/*--------------------------------*- C++ -*----------------------------------*\
| =========                 |                                                 |
| \\      /  F ield         | OpenFOAM: The Open Source CFD Toolbox           |
|  \\    /   O peration     | Version:  2406                                  |
|   \\  /    A nd           | Website:  www.openfoam.com                      |
|    \\/     M anipulation  |                                                 |
\*---------------------------------------------------------------------------*/
FoamFile
{
    version     2.0;
    format      ascii;
    arch        "LSB;label=32;scalar=64";
    class       surfaceScalarField;
    location    "2.72";
    object      phi;
}
// * * * * * * * * * * * * * * * * * * * * * * * * * * * * * * * * * * * * * //

dimensions      [0 3 -1 0 0 0 0];

oriented        oriented;

internalField   nonuniform List<scalar> 
23794
(
-0.002970779
0.004090276
-0.001119497
-0.001718528
-0.001252251
-0.0003896585
-0.00132887
0.0009264336
-0.001316092
0.001869675
-0.000943241
0.002614181
-0.0007445067
0.003108312
-0.0004941305
0.003187655
-7.934337e-05
0.002632114
0.0005555409
0.001716049
0.0009160647
0.00115108
0.0005649698
0.001628127
-0.0004770474
0.001736585
-0.0001084577
0.0008312742
0.0009053105
-0.0003389511
0.001170225
-0.0005667749
0.0002278238
0.0004716008
-0.001038376
0.001608195
-0.001136595
0.002288006
-0.0006798102
0.001698639
0.0005893664
5.467431e-06
0.001693172
-0.002175713
0.002181181
-0.003769477
0.001593764
-0.003401869
-0.000367608
-0.0009550469
-0.002446822
0.001206704
-0.002161751
0.002209697
-0.001002993
0.00286949
-0.000659793
0.004306567
-0.001437077
0.007222173
-0.002915605
0.01036132
-0.003139145
0.009689636
0.000671682
0.002772016
0.006917619
-0.003226546
0.005998562
-0.001607721
-0.001618825
0.001641359
-0.003249079
0.002553231
-0.0009118723
0.001450088
0.001103143
-0.002426003
0.003876091
-0.007429286
0.005003283
-0.01088265
0.003453364
-0.01268
0.001797355
-0.01361699
0.0009369863
-0.01416388
0.0005468906
-0.01451467
0.0003507883
-0.01465264
0.0001379729
-0.01468246
2.981469e-05
-0.01465303
-2.942483e-05
-0.01457297
-8.006486e-05
-0.01447588
-9.708715e-05
-0.01432009
-0.0001557855
-0.01412407
-0.000196028
-0.01387032
-0.000253749
-0.01359263
-0.0002776926
-0.01329724
-0.0002953857
-0.01294879
-0.000348448
-0.0125811
-0.0003676917
-0.0122047
-0.0003763959
-0.01176526
-0.0004394395
-0.01130339
-0.0004618771
-0.01081699
-0.0004863976
-0.01032369
-0.0004933014
-0.009809081
-0.0005146073
-0.009246516
-0.0005625646
-0.008691078
-0.0005554379
-0.008094959
-0.0005961195
-0.007481368
-0.0006135912
-0.006861428
-0.0006199395
-0.006233078
-0.0006283503
-0.005574437
-0.0006586409
-0.004913521
-0.0006609162
-0.004243893
-0.0006696281
-0.003559755
-0.0006841381
-0.00287379
-0.0006859645
-0.00220628
-0.0006675103
-0.001496774
-0.0007095054
-0.0008138169
-0.0006829576
-0.0001680198
-0.000645797
0.0004631682
-0.000631188
0.001217522
-0.0007543535
0.001957534
-0.0007400121
0.002679848
-0.0007223138
0.003387138
-0.0007072907
0.004076148
-0.0006890096
0.004762413
-0.0006862653
0.005426229
-0.0006638155
0.006100851
-0.0006746227
0.006754914
-0.0006540624
0.007373144
-0.0006182298
0.007995275
-0.0006221312
0.008604762
-0.000609487
0.009190934
-0.0005861717
0.009773453
-0.0005825191
0.01034249
-0.0005690361
0.01085689
-0.0005144008
0.0113674
-0.0005105065
0.01186271
-0.0004953188
0.01231715
-0.0004544358
0.0127721
-0.0004549543
0.01317475
-0.0004026436
0.01355041
-0.0003756647
0.01388711
-0.0003367012
0.01418102
-0.0002939033
0.01447053
-0.0002895147
0.01472285
-0.0002523175
0.01493608
-0.0002132324
0.0151068
-0.0001707225
0.01523542
-0.0001286172
0.01533384
-9.841597e-05
0.01537136
-3.751832e-05
0.0153795
-8.141025e-06
0.01529766
8.183457e-05
0.01504298
0.0002546825
0.01463886
0.0004041184
0.0140704
0.0005684615
0.01323073
0.0008396699
0.01179442
0.001436315
0.009040287
0.002754129
0.004262438
0.004777849
-0.001042541
0.005304979
-0.004335052
0.003292511
-0.005502579
0.001167527
-0.00437241
-0.001130168
0.0005198292
-0.00489224
0.005008704
-0.004488875
-0.0002105589
0.005219263
-0.009901027
0.009690468
-0.0128611
0.002960077
-0.01023096
-0.002630145
-0.006814845
-0.003416114
-0.00446819
-0.002346655
-0.002999163
-0.001469027
-0.0008110846
-0.002188078
0.002512545
-0.003323629
0.004229191
-0.001716646
0.003094748
0.001134443
0.0003883258
0.002706422
-0.00193544
0.002323766
-0.003049827
0.001114387
-0.002815655
-0.0002341721
-0.00161448
-0.001201175
-0.00039038
-0.001224101
0.0003762006
-0.0007665806
0.0009461573
-0.0005699568
0.001227447
-0.0002812895
0.0001999777
0.001027469
-0.001329487
0.001529464
-0.001097218
-0.0002322685
0.001270201
-0.002367419
0.004134824
-0.002864623
0.004513919
-0.0003790957
0.001936303
0.002577616
0.0001019074
0.001834396
-0.001453829
0.001555737
-0.003776297
0.002322467
-0.004677749
0.0009014519
-0.0005874725
-0.003836876
0.005200104
-0.002482724
-0.002225163
-0.002863964
-0.000559904
-0.002994129
0.001081979
-0.002957975
0.002288932
-0.002150194
0.003255367
-0.001710942
0.003923599
-0.001162362
0.004257802
-0.0004135464
0.004043621
0.0007697222
0.003136798
0.001822887
0.002080495
0.001621273
0.002225655
-0.0006222068
0.002475681
-0.000358484
0.0007797548
0.002601237
-0.001206198
0.003156178
-0.0009090091
-6.93655e-05
0.0006437368
-0.002591122
0.002059092
-0.00255195
0.002986223
-0.001606941
0.002546101
0.001029489
0.0005957258
0.003643547
-0.002831072
0.005607978
-0.005662258
0.00442495
-0.004766616
-0.001263249
-0.001549114
-0.005664324
0.0005524876
-0.004263352
0.001383253
-0.001833758
0.001854193
-0.001130734
0.003116677
-0.002699561
0.006219895
-0.006018824
0.009604435
-0.006523684
0.0108625
-0.0005863879
0.006268305
0.01151182
-0.0004856229
0.01275249
-0.002710281
0.0006058335
-0.003092145
-0.002867216
-0.005481857
0.00147784
-0.009659653
0.005280938
-0.0151384
0.009354834
-0.01939236
0.009257251
-0.02095069
0.005011695
-0.02124524
0.002091899
-0.02128107
0.0009728179
-0.02123342
0.0004992411
-0.02115053
0.0002678924
-0.02096248
-5.007149e-05
-0.02076106
-0.0001716108
-0.02054962
-0.0002408568
-0.02029206
-0.0003376257
-0.02001768
-0.0003714739
-0.0196831
-0.0004903656
-0.01930894
-0.0005701805
-0.01887257
-0.0006901208
-0.01841117
-0.0007390942
-0.01793783
-0.0007687263
-0.01740723
-0.0008790473
-0.01685322
-0.0009217057
-0.01629444
-0.0009351726
-0.01566333
-0.001070547
-0.01501095
-0.001114261
-0.01433024
-0.001167107
-0.01364104
-0.001182498
-0.01293296
-0.001222685
-0.01216761
-0.00132792
-0.01141229
-0.001310757
-0.01061457
-0.001393839
-0.009794432
-0.001433728
-0.008970154
-0.001444218
-0.008140188
-0.001458316
-0.007273277
-0.001525552
-0.006402802
-0.001531391
-0.005524568
-0.001547862
-0.004630411
-0.001578295
-0.003736512
-0.001579864
-0.002861697
-0.001542325
-0.001943611
-0.001627592
-0.001054945
-0.001571623
-0.0002073225
-0.001493419
0.0006235032
-0.001462014
0.001594264
-0.001725114
0.002553203
-0.001698951
0.003492835
-0.001661946
0.004413101
-0.001627557
0.005314366
-0.001590274
0.006214142
-0.001586041
0.007088123
-0.001537797
0.007974782
-0.001561282
0.008838614
-0.001517894
0.009658907
-0.001438523
0.01048612
-0.00144934
0.01130293
-0.001426304
0.01209065
-0.001373885
0.01287511
-0.001366982
0.01364808
-0.001342009
0.01435707
-0.001223385
0.01506576
-0.001219198
0.01575761
-0.001187171
0.01640387
-0.001100702
0.01705292
-0.001104004
0.0176406
-0.0009903248
0.01820547
-0.0009405294
0.01872673
-0.0008579629
0.01920108
-0.0007682523
0.01967753
-0.0007659623
0.02011449
-0.0006892842
0.02050875
-0.0006074892
0.0208598
-0.000521767
0.02116739
-0.0004362072
0.0214465
-0.0003775265
0.02166188
-0.0002529035
0.02187728
-0.0002235362
0.02207142
-0.0001123078
0.02217628
0.0001498233
0.02223126
0.0003491337
0.02224377
0.0005559509
0.02217856
0.0009048854
0.02189555
0.00171932
0.02086504
0.00378464
0.01731556
0.008327331
0.01020728
0.01241326
0.002799658
0.01070013
-0.0001427454
0.00410993
0.0009155503
-0.002188464
0.002511061
-0.00648775
0.003284904
-0.005262718
-0.003892701
0.01239687
-0.01296214
0.0187599
-0.01340893
0.003406871
-0.01016259
-0.005876485
-0.006427382
-0.007151322
-0.004067487
-0.00470655
-0.002609391
-0.002927124
-0.0004996591
-0.00429781
0.003176086
-0.006999374
0.005946189
-0.004486749
0.003841016
0.003239616
-0.0006982265
0.007245664
-0.00356375
0.005189289
-0.004376431
0.001927069
-0.003887159
-0.000723444
-0.002272541
-0.002815794
-0.0004247352
-0.003071906
0.001041994
-0.002233309
0.002060848
-0.001588811
0.00260458
-0.0008250211
0.001434886
0.002197163
-0.001139082
0.004103433
-0.001600695
0.0002293442
0.001180124
-0.005148238
0.004271325
-0.005955824
0.005474222
-0.001581993
0.00368187
0.004369968
-0.0002607539
0.005777019
-0.004598168
0.005893151
-0.006724737
0.004449036
-0.006308875
0.0004855902
-0.001696244
-0.004612059
0.006307493
-0.004178158
-0.00269572
-0.004780302
-0.0006872427
-0.005002607
0.001284165
-0.004929382
0.002740686
-0.003606716
0.003894589
-0.002864845
0.004704458
-0.001972232
0.005092317
-0.0008014051
0.00489164
0.0009703996
0.00393965
0.002774877
0.002642906
0.002918017
0.002625633
-0.0006049341
0.002610691
-0.0003435421
0.0001501928
0.005061735
-0.001772347
0.005078718
-0.0008186352
-0.001023077
0.0008735588
-0.004283316
0.002632434
-0.004310824
0.003778518
-0.002753025
0.003262178
0.001545828
0.001191514
0.005714211
-0.002527795
0.009327288
-0.006018791
0.007915945
-0.005447193
-0.001834847
-0.002633527
-0.008477991
-0.001122795
-0.005774085
-0.001030433
-0.001926119
-0.001246047
-0.0009151204
0.0001717702
-0.004117378
0.003556803
-0.009403857
0.007561335
-0.01052822
0.009027563
-0.002052616
0.005811814
0.01472757
-0.001164976
0.01972928
-0.009397779
0.008838636
-0.01566428
0.003399287
-0.01937645
0.005190011
-0.02251817
0.008422652
-0.02482071
0.01165738
-0.02530375
0.009740292
-0.02497756
0.004685505
-0.02492165
0.002035985
-0.02498958
0.001040751
-0.02502273
0.0005323882
-0.02501754
0.0002627113
-0.02485962
-0.000207992
-0.02465139
-0.0003798471
-0.0244118
-0.0004804408
-0.02411521
-0.0006342153
-0.02380132
-0.000685372
-0.02341251
-0.0008791723
-0.02297775
-0.001004939
-0.02246716
-0.00120071
-0.02192629
-0.001279968
-0.02137211
-0.001322901
-0.02074664
-0.001504523
-0.02009318
-0.001575165
-0.01943538
-0.001592973
-0.01868819
-0.001817738
-0.01791569
-0.00188676
-0.0171089
-0.001973894
-0.01629162
-0.001999783
-0.01545168
-0.00206262
-0.01454099
-0.002238614
-0.01364352
-0.002208224
-0.01269271
-0.002344653
-0.01171525
-0.002411188
-0.01073207
-0.00242739
-0.009741635
-0.002448755
-0.008706356
-0.002560831
-0.00766642
-0.002571328
-0.00661614
-0.002598141
-0.005547021
-0.002647414
-0.004476868
-0.002650017
-0.003427792
-0.0025914
-0.002328762
-0.002726622
-0.001262469
-0.002637916
-0.0002414676
-0.00251442
0.0007624805
-0.002465962
0.001922078
-0.002884711
0.003069804
-0.002846677
0.004194866
-0.002787008
0.005295326
-0.002728017
0.006372685
-0.002667633
0.007447514
-0.00266087
0.008490367
-0.00258065
0.009548027
-0.002618941
0.01057707
-0.002546941
0.01155363
-0.002415079
0.0125383
-0.00243401
0.01350934
-0.002397342
0.01444507
-0.002309618
0.01537687
-0.002298777
0.01629417
-0.002259313
0.0171339
-0.002063114
0.01797384
-0.002059142
0.01879271
-0.002006033
0.01955553
-0.001863529
0.02032352
-0.001871988
0.02101545
-0.001682256
0.02168101
-0.001606092
0.02229312
-0.001470074
0.02284697
-0.001322096
0.0234049
-0.001323895
0.02391351
-0.001197899
0.02437177
-0.001065741
0.0247771
-0.0009270965
0.02513039
-0.0007894974
0.02544929
-0.0006964325
0.02569292
-0.0004965286
0.02592889
-0.0004595109
0.02610687
-0.0002902892
0.02614902
0.0001076801
0.02612543
0.0003727245
0.02606179
0.0006195863
0.02597731
0.0009893646
0.02587231
0.00182432
0.02600638
0.003650566
0.0258203
0.00851342
0.02305426
0.0151793
0.01815244
0.01560194
0.01455385
0.007708519
0.01249209
-0.0001267034
0.008348354
-0.00234401
0.002364765
0.0007208713
-0.00617806
0.02093969
-0.01254005
0.0251219
-0.01214953
0.003016353
-0.008659914
-0.009366105
-0.004334141
-0.0114771
-0.002008132
-0.007032558
-0.0008079454
-0.004127311
0.0004806578
-0.005586413
0.003598095
-0.01011681
0.006018711
-0.006907364
0.002822646
0.00643568
-0.002154231
0.01222254
-0.004802914
0.007837972
-0.005771603
0.002895757
-0.005271753
-0.001223294
-0.003407548
-0.004679998
-0.001205107
-0.005274347
0.0006247549
-0.004063172
0.002055938
-0.003019994
0.00304964
-0.001818723
0.002445906
0.002800896
-0.0002420501
0.006791389
-0.00154825
0.001535544
0.0008509294
-0.007547417
0.003711416
-0.008816311
0.004925052
-0.002795629
0.003207871
0.006087149
-0.002156936
0.01114183
-0.007328654
0.01106487
-0.008288941
0.005409323
-0.007435912
-0.0003674393
-0.002824663
-0.005631745
0.007675901
-0.006222314
-0.003333933
-0.007078114
-0.0009125728
-0.007423967
0.001482108
-0.007324063
0.003270187
-0.005394794
0.004652324
-0.004246982
0.005622273
-0.00294218
0.006086276
-0.001265409
0.005858401
0.001198275
0.004797751
0.003835527
0.00326069
0.004455077
0.002866182
-0.0002104263
0.0020206
0.0005020399
-0.001028577
0.008110913
-0.002299344
0.006349485
-0.0007646518
-0.00255777
0.001102887
-0.006150855
0.00320204
-0.006409977
0.0046512
-0.004202185
0.004124079
0.002072949
0.001838983
0.007999307
-0.001867066
0.01303334
-0.005707426
0.01175631
-0.006145884
-0.001396389
-0.004729901
-0.009893973
-0.004483662
-0.006020324
-0.005351989
-0.001057792
-0.006049801
-0.0002173086
-0.004793663
-0.005373515
-0.000964462
-0.01323306
0.003145789
-0.01463847
0.004546784
-0.003453611
0.002106623
0.01716773
-0.006888988
0.02872489
-0.01944183
0.02139148
-0.02730724
0.01126469
-0.02987027
0.007753042
-0.03085339
0.009405778
-0.03059408
0.01139806
-0.02988102
0.009027236
-0.0298244
0.004628884
-0.03009316
0.002304743
-0.03026257
0.00121016
-0.03031295
0.0005827702
-0.03029881
0.0002485709
-0.03008141
-0.0004253948
-0.02980525
-0.0006559984
-0.02949404
-0.000791657
-0.02911448
-0.001013772
-0.02871782
-0.001082031
-0.02823399
-0.001363001
-0.02769659
-0.001542341
-0.02706915
-0.001828152
-0.02640615
-0.001942962
-0.02572889
-0.002000165
-0.024968
-0.002265414
-0.02417381
-0.002369351
-0.02337523
-0.002391561
-0.02247286
-0.002720101
-0.0215384
-0.002821226
-0.020564
-0.002948288
-0.01957848
-0.002985306
-0.01856717
-0.003073936
-0.01746975
-0.003336032
-0.01639112
-0.003286852
-0.01524739
-0.003488387
-0.01407346
-0.00358511
-0.01289185
-0.003609003
-0.01170242
-0.00363819
-0.01045953
-0.003803721
-0.009211245
-0.003819608
-0.007950316
-0.003859069
-0.006668559
-0.003929172
-0.005382977
-0.003935598
-0.00412257
-0.003851808
-0.002800789
-0.004048403
-0.001515725
-0.00392298
-0.0002795265
-0.003750618
0.0009382446
-0.003683733
0.002328142
-0.004274609
0.0037037
-0.004222235
0.005054826
-0.004138135
0.006373974
-0.004047165
0.007663712
-0.003957371
0.008949509
-0.003946667
0.01019664
-0.003827779
0.01146413
-0.003886434
0.01269516
-0.00377797
0.01386658
-0.003586494
0.01504939
-0.003616821
0.0162142
-0.003562156
0.0173402
-0.003435616
0.01846363
-0.003422207
0.01956694
-0.003362623
0.02058088
-0.003077056
0.02159609
-0.003074355
0.02258498
-0.002994922
0.02350908
-0.002787622
0.02444011
-0.002803018
0.02528094
-0.002523089
0.02609029
-0.002415445
0.02683674
-0.002216518
0.02751689
-0.002002247
0.0282019
-0.00200891
0.02882783
-0.001823829
0.02939647
-0.00163438
0.02990076
-0.001431387
0.03034644
-0.001235181
0.03075368
-0.001103671
0.03107056
-0.000813407
0.03138134
-0.0007702865
0.03162573
-0.0005346845
0.03169812
3.528761e-05
0.03167308
0.0003977682
0.03157918
0.0007134834
0.0313952
0.00117335
0.0310597
0.002159818
0.03074556
0.003964706
0.03116091
0.008098075
0.03172664
0.01461357
0.03090199
0.0164266
0.02891857
0.009691933
0.02608882
0.002703046
0.01868349
0.005061321
0.006381545
0.01302282
-0.004920175
0.03224141
-0.01012589
0.03032761
-0.009853907
0.002744372
-0.005897845
-0.01332217
-0.001194578
-0.01618036
0.001676097
-0.009903233
0.002278547
-0.00472976
0.002417406
-0.005725272
0.003989515
-0.01168892
0.004900662
-0.007818512
0.001046605
0.01028974
-0.003590518
0.01685967
-0.006162659
0.01041011
-0.007357926
0.004091024
-0.006755385
-0.001825836
-0.004574698
-0.006860685
-0.002135718
-0.007713327
-0.0001196703
-0.006079219
0.001613738
-0.004753403
0.003062615
-0.0032676
0.00306929
0.002794222
0.0005974713
0.009263208
-0.00136441
0.003497425
2.904282e-05
-0.008940871
0.002230481
-0.01101775
0.003263983
-0.003829131
0.001136801
0.008214331
-0.005254721
0.01753335
-0.009834913
0.01564506
-0.009916582
0.005490992
-0.009017654
-0.001266368
-0.004166417
-0.006909367
0.009347679
-0.008660625
-0.00415501
-0.009832472
-0.001260633
-0.01031834
0.001657218
-0.01024192
0.003875741
-0.007613317
0.005551129
-0.00592237
0.006733368
-0.00412442
0.007305799
-0.001837839
0.007033493
0.00147058
0.005870941
0.00499808
0.003979655
0.006346363
0.002650006
0.001119222
0.0005530014
0.002599045
-0.002476768
0.01114068
-0.00288182
0.006754537
-0.0009148413
-0.004524749
0.001345142
-0.008410839
0.003852297
-0.008917132
0.005668301
-0.006018189
0.00516009
0.00258116
0.002597187
0.01056221
-0.001099257
0.01672978
-0.005200125
0.01585717
-0.007225514
0.0006290006
-0.008177057
-0.008942431
-0.009802297
-0.004395084
-0.01177133
0.0009112406
-0.01291989
0.0009312474
-0.01197049
-0.006322911
-0.008427769
-0.01677578
-0.004093852
-0.01897238
-0.002440513
-0.00510695
-0.005825409
0.02055263
-0.01695437
0.03985385
-0.02976215
0.03419925
-0.03505163
0.01655417
-0.03603914
0.008740557
-0.03628007
0.009646707
-0.03572026
0.01083825
-0.03532064
0.008627616
-0.0355266
0.00483485
-0.03581748
0.002595623
-0.03601914
0.001411815
-0.03610225
0.0006658818
-0.03611754
0.0002638638
-0.03587996
-0.0006629732
-0.0355759
-0.0009600652
-0.03522685
-0.001140699
-0.03478305
-0.001457577
-0.03433439
-0.001530687
-0.03376481
-0.001932581
-0.03313732
-0.002169832
-0.03239428
-0.002571196
-0.0316093
-0.002727938
-0.03081045
-0.002799021
-0.02990351
-0.003172354
-0.02895733
-0.003315528
-0.02800929
-0.003339596
-0.02693323
-0.00379616
-0.02581542
-0.003939041
-0.02465072
-0.004112986
-0.02347493
-0.004161095
-0.0222678
-0.004281067
-0.02095116
-0.004652667
-0.0196642
-0.004573821
-0.01829313
-0.004859451
-0.01688922
-0.004989023
-0.01547394
-0.005024287
-0.01405151
-0.005060616
-0.01256148
-0.005293751
-0.01106518
-0.005315913
-0.009551418
-0.005372827
-0.00801622
-0.00546437
-0.00647368
-0.005478138
-0.00496239
-0.005363098
-0.003371056
-0.005639737
-0.001819665
-0.005474372
-0.0003201765
-0.005250107
0.001156541
-0.005160451
0.00282292
-0.005940988
0.004470222
-0.005869537
0.0060905
-0.005758412
0.007664839
-0.005621504
0.009201548
-0.00549408
0.01073584
-0.005480957
0.01222464
-0.005316586
0.01374413
-0.005405918
0.01521399
-0.005247835
0.01661927
-0.004991767
0.01804103
-0.005038581
0.01943264
-0.004953774
0.02078296
-0.004785934
0.02213529
-0.004774532
0.02345376
-0.004681094
0.02466747
-0.00429077
0.02588512
-0.004291998
0.0270672
-0.004177009
0.02816842
-0.003888842
0.02928371
-0.003918304
0.03028492
-0.003524297
0.03124803
-0.003378556
0.03213436
-0.003102852
0.03293777
-0.002805657
0.03375021
-0.002821344
0.03448414
-0.002557768
0.03515452
-0.002304758
0.03574054
-0.002017401
0.03625613
-0.001750769
0.03672888
-0.001576429
0.03707882
-0.001163346
0.03743034
-0.001121806
0.0376913
-0.0007956416
0.03774993
-2.334111e-05
0.03768879
0.0004589005
0.0375484
0.0008538732
0.03732048
0.001401276
0.03695048
0.002529814
0.03648947
0.004425714
0.03648202
0.008105527
0.03752043
0.01357515
0.03840843
0.0155386
0.03758155
0.01051881
0.03535578
0.00492881
0.02886098
0.01155612
0.01399127
0.02789253
5.290647e-05
0.04617977
-0.004288442
0.03466896
-0.004322343
0.002778273
-7.50929e-05
-0.01756942
0.004304362
-0.02055982
0.006949016
-0.01254789
0.006952711
-0.004733455
0.00562188
-0.004394442
0.004577305
-0.01064435
0.003088742
-0.006329949
-0.0008557687
0.01423425
-0.004899872
0.02090377
-0.007777885
0.01328813
-0.00914649
0.005459629
-0.008354823
-0.002617503
-0.005713031
-0.009502478
-0.003097945
-0.01032841
-0.0009635154
-0.008213649
0.001151487
-0.006868406
0.003077759
-0.005193872
0.003512415
0.002359565
0.001317987
0.01145764
-0.001366638
0.00618205
-0.001491409
-0.008816099
-0.0005168354
-0.01199232
4.221433e-05
-0.004388181
-0.003134486
0.01139103
-0.009508973
0.02390784
-0.01243806
0.01857415
-0.01194658
0.004999516
-0.01104554
-0.00216741
-0.005864278
-0.008477718
0.01143353
-0.01161644
-0.005162373
-0.01314782
-0.001720664
-0.01376005
0.001789501
-0.01375208
0.004526977
-0.01035079
0.006591897
-0.00798729
0.008062156
-0.005594679
0.008789844
-0.002565528
0.00845153
0.001808895
0.0071598
0.006289809
0.004711012
0.008795152
0.00180858
0.004021654
-0.001605665
0.006013289
-0.003961851
0.01349687
-0.00343439
0.006227076
-0.001194969
-0.00676417
0.001656231
-0.01126204
0.004754073
-0.01201497
0.007007001
-0.008271117
0.006408999
0.003179163
0.003469934
0.01350128
-0.000480776
0.02068049
-0.005028795
0.02040519
-0.009221415
0.004821621
-0.01338847
-0.00477538
-0.01732995
-0.0004535987
-0.02045862
0.004039909
-0.02219232
0.002664948
-0.02204947
-0.006465756
-0.01961511
-0.01921014
-0.01572806
-0.02285943
-0.01409815
-0.006736865
-0.01991609
0.02637057
-0.03103912
0.05097689
-0.03919843
0.04235856
-0.04104198
0.01839772
-0.04200348
0.00970206
-0.04275889
0.01040211
-0.04267824
0.01075759
-0.04265327
0.008602649
-0.04293988
0.005121463
-0.04323801
0.002893755
-0.04346525
0.001639047
-0.04349884
0.0006994766
-0.04348849
0.0002535097
-0.0431714
-0.0009800617
-0.04279449
-0.001336974
-0.04235717
-0.001578023
-0.04179712
-0.00201762
-0.04125845
-0.002069354
-0.04055924
-0.002631794
-0.03980119
-0.002927884
-0.03889941
-0.003472973
-0.03794745
-0.003679903
-0.03698704
-0.003759426
-0.03588982
-0.004269574
-0.03474953
-0.004455825
-0.03361397
-0.004475155
-0.03231995
-0.00509018
-0.03097132
-0.005287672
-0.02957299
-0.005511316
-0.02816145
-0.005572634
-0.02671606
-0.005726454
-0.02512892
-0.006239809
-0.0235929
-0.006109844
-0.02194442
-0.006507924
-0.02026166
-0.006671787
-0.01856564
-0.006720306
-0.01686523
-0.006761025
-0.01508184
-0.007077137
-0.01329427
-0.007103484
-0.01147728
-0.007189822
-0.009639779
-0.007301867
-0.007783765
-0.007334153
-0.005977594
-0.007169269
-0.004064882
-0.007552449
-0.002185972
-0.007353282
-0.000363696
-0.007072383
0.001427638
-0.006951785
0.003426428
-0.007939777
0.00540045
-0.007843559
0.007329263
-0.007687225
0.009197645
-0.007489887
0.0110273
-0.007323738
0.01286132
-0.007314973
0.0146441
-0.00709937
0.0164752
-0.007237015
0.01823286
-0.007005491
0.01992494
-0.006683855
0.02164304
-0.006756676
0.02330789
-0.006618626
0.02492865
-0.006406695
0.02656794
-0.006413824
0.02814755
-0.006260704
0.02960216
-0.005745375
0.03106907
-0.005758909
0.03249016
-0.005598096
0.03380941
-0.005208092
0.03515428
-0.005263178
0.0363594
-0.004729414
0.03751941
-0.004538569
0.03858504
-0.004168484
0.03955613
-0.003776744
0.04054388
-0.003809095
0.04142697
-0.003440862
0.04224824
-0.00312602
0.04295848
-0.002727643
0.04359289
-0.002385179
0.04417703
-0.002160568
0.04461763
-0.001603947
0.04505724
-0.001561419
0.04538962
-0.001128023
0.04549952
-0.0001332429
0.04546982
0.0004886071
0.04533502
0.0009886709
0.04509704
0.001639255
0.04467443
0.002952423
0.04417271
0.004927431
0.0438557
0.008422545
0.04426551
0.01316534
0.04479118
0.01501294
0.04379869
0.0115113
0.04171499
0.007012513
0.03785031
0.0154208
0.02548183
0.04026102
0.01178317
0.05987843
0.005025312
0.04142681
0.004759523
0.003044061
0.008434574
-0.02124447
0.01241731
-0.02454256
0.01430824
-0.01443881
0.01347286
-0.003898074
0.01038716
-0.001308746
0.006002742
-0.006259926
0.001673325
-0.002000532
-0.002276595
0.01818417
-0.006263387
0.02489056
-0.009805902
0.01683064
-0.01143631
0.007090038
-0.01038786
-0.003665952
-0.006991441
-0.0128989
-0.004187193
-0.01313266
-0.001879409
-0.01052143
0.0006305012
-0.009378316
0.003080022
-0.007643393
0.003872935
0.001566652
0.001820268
0.0135103
-0.001819282
0.0098216
-0.003987611
-0.006647771
-0.004383045
-0.01159689
-0.005547773
-0.003223453
-0.01003276
0.01587602
-0.01460744
0.02848251
-0.01537747
0.01934418
-0.01461953
0.004241577
-0.01355355
-0.003233393
-0.007984291
-0.0104214
0.01409048
-0.01528552
-0.006373607
-0.01719561
-0.002222054
-0.01791161
0.001917617
-0.01789175
0.005238547
-0.01367172
0.007804368
-0.01055311
0.009672249
-0.007462561
0.0105997
-0.003492978
0.01017219
0.002236403
0.008676963
0.007785038
0.005440206
0.01203191
0.000628726
0.008833134
-0.003808533
0.01045055
-0.005228749
0.01491708
-0.00399554
0.004993867
-0.001424958
-0.009334752
0.002241214
-0.01492821
0.006094895
-0.01586865
0.008846119
-0.01102234
0.007963566
0.004061715
0.004390115
0.01707473
-0.0003819987
0.0254526
-0.006019271
0.02604247
-0.01285861
0.01166095
-0.02065241
0.003018421
-0.02683603
0.005730029
-0.03099741
0.008201285
-0.03347239
0.005139923
-0.03476678
-0.005171363
-0.03469696
-0.01927996
-0.03393348
-0.02362292
-0.03492667
-0.005743671
-0.04091178
0.03235568
-0.0470125
0.0570776
-0.04813805
0.04348411
-0.04823553
0.0184952
-0.05007543
0.01154196
-0.05108883
0.01141552
-0.05115778
0.01082654
-0.05118216
0.008627023
-0.05143333
0.005372642
-0.05173059
0.003191007
-0.0520262
0.001934662
-0.05204177
0.0007150492
-0.0521128
0.0003245322
-0.05169925
-0.001393613
-0.05126659
-0.00176963
-0.05075829
-0.00208632
-0.05006802
-0.002707891
-0.04945833
-0.002679045
-0.04860618
-0.003483945
-0.04771551
-0.003818551
-0.04663478
-0.004553703
-0.04548684
-0.00482785
-0.04434787
-0.004898391
-0.04303697
-0.005580478
-0.04166895
-0.005823836
-0.0403058
-0.005838306
-0.0387642
-0.006631787
-0.03714902
-0.006902844
-0.03547473
-0.007185609
-0.03376388
-0.007283485
-0.03205767
-0.007432665
-0.03013482
-0.008162659
-0.02830733
-0.00793733
-0.02631773
-0.008497525
-0.02430379
-0.008685735
-0.02227687
-0.008747224
-0.02021068
-0.008827208
-0.01809322
-0.009194604
-0.01596489
-0.009231814
-0.01378934
-0.009365365
-0.01161072
-0.009480491
-0.009344651
-0.009600222
-0.007210135
-0.009303785
-0.004911801
-0.009850783
-0.002629508
-0.009635575
-0.0004110075
-0.009290883
0.001765101
-0.009127893
0.004160899
-0.01033557
0.00652303
-0.01020569
0.008783696
-0.009947892
0.01100717
-0.009713363
0.01320735
-0.009523918
0.0154032
-0.009510823
0.01754228
-0.009238445
0.01976759
-0.009462329
0.02187521
-0.009113108
0.0239027
-0.00871135
0.02596715
-0.008821117
0.02797828
-0.008629762
0.02992675
-0.008355168
0.0318847
-0.008371774
0.03378218
-0.008158178
0.03552036
-0.007483563
0.03727708
-0.007515629
0.03896017
-0.007281184
0.04055522
-0.006803137
0.04216941
-0.006877367
0.04360295
-0.006162957
0.04500508
-0.005940701
0.04626372
-0.005427119
0.04742588
-0.004938905
0.04861448
-0.004997693
0.04965096
-0.004477349
0.05064448
-0.004119532
0.05147052
-0.003553682
0.05222898
-0.00314364
0.05293208
-0.002863668
0.05343033
-0.002102195
0.05395564
-0.002086738
0.05436315
-0.001535524
0.0544601
-0.0002302016
0.05438535
0.0005633571
0.05420728
0.001166749
0.0539255
0.001921028
0.05345731
0.003420618
0.05298772
0.005397022
0.05270599
0.008704272
0.0529021
0.01296922
0.05295972
0.01495532
0.05155101
0.01292002
0.04876746
0.009796063
0.04653474
0.01765351
0.0403955
0.04640026
0.02930291
0.07097102
0.02070387
0.05002585
0.01926386
0.004484072
0.02208695
-0.02406755
0.02391688
-0.02637249
0.02411791
-0.01463985
0.02201956
-0.001799719
0.01714211
0.003568706
0.009253264
0.001628916
0.001942945
0.005309787
-0.002862302
0.02298942
-0.007899171
0.02992743
-0.01250198
0.02143345
-0.01466035
0.009248411
-0.01338248
-0.00494383
-0.008800516
-0.01748086
-0.005590196
-0.01634298
-0.003095343
-0.01301629
-0.0002592823
-0.01221438
0.002685228
-0.0105879
0.003922652
0.0003292281
0.001921539
0.01551142
-0.002978557
0.0147217
-0.007623136
-0.002003192
-0.01054054
-0.008679488
-0.01422339
0.0004593973
-0.01845477
0.0201074
-0.0199879
0.03001565
-0.0189565
0.01831277
-0.01824138
0.003526455
-0.01673211
-0.004742656
-0.01062592
-0.01286543
0.01751916
-0.01993926
-0.007844839
-0.0222162
-0.002720132
-0.02303631
0.002103378
-0.02271526
0.006121279
-0.01768962
0.009299409
-0.01373124
0.01168382
-0.009846968
0.01280852
-0.004617679
0.01218362
0.002861298
0.01053314
0.009435521
0.006150958
0.01641409
-0.0006084863
0.01559258
-0.005632718
0.01547478
-0.006240007
0.01552437
-0.004750114
0.003503975
-0.001466974
-0.01261789
0.003217458
-0.01961264
0.007877619
-0.02052881
0.01111325
-0.01425797
0.009867922
0.005307047
0.005633637
0.02130901
-0.0002176401
0.03130388
-0.007697202
0.03352203
-0.01805149
0.02201525
-0.02970771
0.01467464
-0.03732784
0.01335016
-0.04216391
0.01303735
-0.04545277
0.008428788
-0.04860578
-0.002018353
-0.05163238
-0.01625336
-0.05562424
-0.01963106
-0.06023169
-0.001136221
-0.06385796
0.03598195
-0.06213683
0.05535648
-0.05782196
0.03916923
-0.0580529
0.01872614
-0.06035407
0.01384313
-0.06131961
0.01238106
-0.06148965
0.01099658
-0.06162944
0.008766819
-0.06192345
0.005666644
-0.06216414
0.0034317
-0.06256761
0.002338137
-0.06246236
0.0006097992
-0.06248717
0.0003493338
-0.06204718
-0.001833603
-0.06149549
-0.002321315
-0.06094735
-0.002634463
-0.06003038
-0.003624854
-0.05934416
-0.003365272
-0.05830705
-0.004521047
-0.05726714
-0.004858461
-0.05594983
-0.005871013
-0.0545428
-0.006234887
-0.05320081
-0.006240374
-0.05165969
-0.007121601
-0.04995509
-0.007528438
-0.04832753
-0.007465866
-0.04650592
-0.0084534
-0.0445882
-0.008820562
-0.04254284
-0.009230972
-0.04046972
-0.009356602
-0.03851926
-0.009383123
-0.03612536
-0.01055656
-0.03398501
-0.01007768
-0.03152277
-0.01095977
-0.02916779
-0.01104071
-0.02673829
-0.01117673
-0.02422035
-0.01134515
-0.02172569
-0.01168926
-0.01915064
-0.01180686
-0.01653314
-0.01198287
-0.01398161
-0.01203202
-0.01121672
-0.01236511
-0.008736593
-0.01178391
-0.005932463
-0.01265491
-0.003177878
-0.01239016
-0.0004727488
-0.01199601
0.002193918
-0.01179456
0.005090334
-0.01323199
0.007806058
-0.01292142
0.01045375
-0.01259558
0.01315171
-0.01241132
0.0158379
-0.01221011
0.01848463
-0.01215755
0.0210221
-0.01177591