/*--------------------------------*- C++ -*----------------------------------*\
| =========                 |                                                 |
| \\      /  F ield         | OpenFOAM: The Open Source CFD Toolbox           |
|  \\    /   O peration     | Version:  2406                                  |
|   \\  /    A nd           | Website:  www.openfoam.com                      |
|    \\/     M anipulation  |                                                 |
\*---------------------------------------------------------------------------*/
FoamFile
{
    version     2.0;
    format      ascii;
    arch        "LSB;label=32;scalar=64";
    class       volVectorField;
    location    "1.42";
    object      U;
}
// * * * * * * * * * * * * * * * * * * * * * * * * * * * * * * * * * * * * * //

dimensions      [0 1 -1 0 0 0 0];

internalField   nonuniform List<vector> 
15536
(
(0.2285253 5.432409 -3.818849e-22)
(0.09013436 0.8535635 -3.837807e-19)
(0.1798059 -1.723748 -7.481671e-19)
(0.4057207 -2.427999 -1.132284e-18)
(0.7067665 -3.65764 -2.107163e-20)
(0.8431761 -3.93145 1.340931e-20)
(1.081822 -3.947873 2.032583e-20)
(1.684061 -4.918551 -1.982672e-20)
(2.063025 -5.516819 4.195252e-18)
(1.663601 -4.139605 3.393561e-18)
(0.8748744 -2.104727 0)
(-0.09862953 -0.002328657 0)
(-1.244833 2.088361 -4.010267e-20)
(-2.482475 4.044396 1.164589e-17)
(-3.539892 5.468637 7.642729e-18)
(-4.165543 6.014912 -1.766384e-17)
(-4.078023 5.595184 8.421958e-18)
(-2.80727 3.80589 3.919763e-20)
(0.02096623 0.3381942 -6.169382e-20)
(3.517774 -3.352631 2.133117e-20)
(3.675298 -3.444868 0)
(0.745209 -0.8485669 1.128939e-18)
(-1.903247 1.350939 0)
(-3.450294 2.51134 5.057168e-18)
(-4.32254 2.951582 -4.236947e-20)
(-5.464473 3.394904 -6.638703e-20)
(-7.685737 4.329567 6.307893e-20)
(-10.37002 5.395155 -1.507653e-17)
(-12.06783 6.027335 -2.037397e-17)
(-6.943308 3.607192 0)
(3.438968 -1.050027 -3.983067e-20)
(3.93415 -1.664398 -4.623951e-18)
(-2.440546 0.3153509 6.648391e-18)
(-4.336709 1.008298 0)
(-4.152324 0.8313846 -8.588335e-18)
(-1.815985 0.2529589 -3.190179e-20)
(4.901179 -0.3047821 3.859105e-18)
(9.911848 -0.2733634 -1.85019e-18)
(12.62326 0.08224837 1.846788e-21)
(14.02343 0.6150043 -4.709175e-19)
(14.83867 1.255356 1.896381e-18)
(15.34357 1.932424 -2.961017e-20)
(15.65053 2.616856 2.943692e-20)
(15.7988 3.294755 0)
(15.81911 3.959946 -7.239351e-18)
(15.71918 4.599379 -7.137084e-18)
(15.49133 5.2061 0)
(15.20739 5.788012 -1.34568e-17)
(14.85813 6.337356 1.306448e-17)
(14.47241 6.860199 1.257472e-17)
(14.03725 7.341409 4.569225e-20)
(13.5463 7.777134 -1.138809e-17)
(13.00699 8.162216 0)
(12.42815 8.498745 0)
(11.81914 8.783209 9.251189e-18)
(11.1772 9.007635 8.520554e-18)
(10.52111 9.183744 5.725166e-20)
(9.857038 9.309728 6.834212e-18)
(9.171124 9.366364 1.215164e-17)
(8.476469 9.362576 5.253948e-18)
(7.781151 9.301595 4.376174e-18)
(7.098742 9.193034 -3.12507e-20)
(6.425706 9.026782 0)
(5.759478 8.795984 1.844787e-18)
(5.113965 8.517783 0)
(4.484697 8.178313 -1.334687e-19)
(3.88018 7.784131 -2.757366e-20)
(3.311138 7.346072 -2.991195e-21)
(2.776864 6.861838 7.221337e-21)
(2.281462 6.335359 -2.959111e-18)
(1.830764 5.775404 -1.539002e-20)
(1.425408 5.179752 2.156915e-18)
(1.067004 4.551108 2.440791e-18)
(0.7609229 3.906125 0)
(0.5065242 3.249176 0)
(0.3063049 2.577897 3.118327e-18)
(0.1576938 1.901276 -4.299343e-22)
(0.06368893 1.226684 8.666994e-19)
(0.02699457 0.512393 1.616662e-21)
(0.04198147 -0.2785914 -6.920965e-21)
(0.1048276 -1.058752 -1.725172e-18)
(0.224566 -1.789963 0)
(0.399454 -2.491146 3.171318e-18)
(0.6267149 -3.169455 0)
(0.9051597 -3.823075 -2.746531e-18)
(1.232368 -4.448541 2.468782e-18)
(1.607831 -5.044492 1.840542e-20)
(2.028039 -5.608998 3.846773e-18)
(2.489498 -6.131667 1.121909e-20)
(2.988228 -6.610428 -2.556341e-18)
(3.521595 -7.047478 -1.840763e-18)
(4.086821 -7.436772 1.116031e-20)
(4.681786 -7.780187 -3.151244e-19)
(5.298759 -8.072274 -4.698984e-19)
(5.930242 -8.310148 1.287389e-20)
(6.566189 -8.481408 6.154638e-21)
(7.211597 -8.599726 -2.811848e-18)
(7.86208 -8.665116 0)
(8.509233 -8.670294 8.610384e-18)
(9.155104 -8.625582 4.99632e-18)
(9.780433 -8.517561 9.411371e-20)
(10.38136 -8.34875 -6.517457e-18)
(10.95363 -8.122261 0)
(11.49576 -7.842388 0)
(12.0066 -7.516896 0)
(12.47702 -7.144252 0)
(12.8968 -6.725929 9.389681e-18)
(13.26173 -6.265561 9.90631e-18)
(13.57221 -5.768926 2.780267e-20)
(13.8146 -5.241039 -1.05933e-17)
(13.95586 -4.674759 -5.384621e-18)
(13.9737 -4.074448 -5.531391e-18)
(13.81643 -3.437853 4.318326e-20)
(13.41512 -2.772076 5.551666e-18)
(12.63281 -2.104438 2.817496e-18)
(11.09196 -1.448518 -2.171743e-20)
(7.852468 -0.7692692 -5.133922e-21)
(2.620609 -0.1360209 3.530693e-19)
(0.243413 0.06905568 -6.965425e-19)
(-2.312214 -0.4361741 -2.022433e-20)
(-7.475901 -1.229064 1.337405e-20)
(-8.709816 -1.450257 3.427488e-18)
(-6.049776 -1.053749 2.267535e-20)
(-3.7007 -0.7252633 0)
(-1.514875 -0.2278648 -2.683444e-18)
(2.212245 0.9337113 -1.609081e-18)
(6.978671 2.651044 5.364475e-21)
(2.274494 0.5443278 4.874309e-18)
(-6.698079 -3.659359 -1.141351e-17)
(-9.161008 -4.877401 0)
(-7.30834 -4.073885 0)
(-4.86861 -2.909194 -5.639879e-18)
(-2.637945 -1.660229 0)
(-0.646671 -0.3798256 1.289565e-20)
(1.137757 0.9288734 -1.217548e-18)
(1.862822 1.57337 -9.034022e-19)
(1.735233 1.609595 7.531455e-21)
(1.662718 1.667165 -2.109909e-18)
(1.555008 1.630216 -2.093309e-20)
(0.9169837 1.007717 3.260056e-18)
(0.2876072 0.3708168 1.868239e-18)
(0.2553876 0.3957439 2.079117e-18)
(0.2448768 0.3929734 2.193113e-18)
(0.2338589 0.378544 0)
(0.2016099 0.3455167 -8.211787e-21)
(0.203135 0.3871437 -1.957558e-18)
(0.2591128 0.5680148 0)
(0.3587099 0.9055001 1.608702e-18)
(0.5275197 1.529359 -1.186498e-20)
(0.7406775 2.423858 5.78472e-21)
(0.9335443 3.485494 9.102693e-19)
(1.065111 4.617399 2.924073e-21)
(1.10577 5.712848 0)
(1.042117 6.672216 8.936167e-19)
(0.8754255 7.394115 7.527477e-21)
(0.6448071 7.853061 2.162027e-21)
(0.4280967 7.650472 -2.880103e-21)
(0.1577632 8.689911 -1.896048e-19)
(0.2156212 4.949125 2.891826e-19)
(0.4706849 -2.20529 0)
(0.8704464 -4.78826 8.892241e-19)
(1.288141 -6.049978 0)
(1.579168 -6.811719 4.485915e-18)
(1.910971 -6.947996 1.593843e-20)
(2.15821 -6.807304 -1.579621e-20)
(1.908242 -5.815573 -3.379935e-18)
(1.360196 -4.085337 -2.738096e-18)
(0.6239009 -2.1375 0)
(-0.3388957 -0.01929949 2.360797e-20)
(-1.508834 2.100261 8.87809e-21)
(-2.767536 4.070823 -4.638193e-18)
(-3.818187 5.51684 -1.256401e-17)
(-4.452808 6.086648 7.202637e-18)
(-4.550921 5.962633 -6.671751e-18)
(-4.085307 5.383457 -4.5458e-20)
(-1.860343 2.910747 0)
(3.780968 -3.295685 0)
(3.915187 -4.032997 0)
(0.5113133 -1.176722 9.11437e-19)
(-1.452731 0.6661285 2.665279e-20)
(-2.66393 1.745904 -2.689697e-20)
(-3.323665 2.063282 4.250514e-20)
(-4.092587 2.179511 -4.074247e-20)
(-5.827389 2.738855 0)
(-8.308959 3.724517 0)
(-9.968028 4.667524 3.425832e-17)
(-9.633205 5.057737 8.409707e-20)
(-0.200909 0.8538585 -9.470233e-20)
(2.89462 -1.268601 3.926734e-18)
(2.061948 -1.089281 5.420895e-18)
(1.383349 -0.5198989 -5.531748e-20)
(3.957826 -0.6247433 -6.547685e-18)
(9.539699 -0.8133801 2.815408e-18)
(16.01139 -1.093397 3.081198e-23)
(18.80203 -1.002007 1.266806e-18)
(19.49537 -0.6056422 0)
(19.708 -0.007023298 3.548725e-19)
(19.75143 0.6985228 2.884139e-18)
(19.69321 1.42924 2.93767e-18)
(19.54896 2.163578 2.927188e-18)
(19.33206 2.896494 -9.017323e-20)
(19.06402 3.630039 5.82825e-18)
(18.74733 4.348314 -4.414145e-20)
(18.39426 5.047971 0)
(17.96869 5.707778 1.072769e-17)
(17.49078 6.336822 0)
(16.97335 6.932547 -7.569175e-20)
(16.40915 7.481419 7.592917e-20)
(15.79393 7.980575 9.092451e-18)
(15.13465 8.423581 -6.410229e-20)
(14.43813 8.810775 8.001846e-18)
(13.71206 9.138671 -7.441109e-18)
(12.95964 9.404453 0)
(12.19137 9.617386 4.533759e-20)
(11.41395 9.772844 -5.605305e-18)
(10.62236 9.857324 -9.692409e-18)
(9.821141 9.872857 0)
(9.022931 9.830352 -3.512547e-18)
(8.236783 9.731277 -1.918254e-20)
(7.463076 9.567848 2.118913e-18)
(6.702683 9.339252 8.532099e-21)
(5.962499 9.051476 -8.633868e-21)
(5.2464 8.701382 1.082893e-19)
(4.557609 8.292965 5.572379e-19)
(3.907109 7.831663 0)
(3.295932 7.323165 0)
(2.728802 6.7709 -2.10193e-20)
(2.209898 6.176778 0)
(1.742336 5.543105 0)
(1.327833 4.87483 0)
(0.9710194 4.184266 -2.233066e-18)
(0.6707984 3.481091 1.80763e-20)
(0.4354075 2.760433 1.086821e-20)
(0.2562646 2.033339 -5.318275e-21)
(0.1406144 1.304295 -7.115722e-19)
(0.09792234 0.5333766 2.942324e-21)
(0.1175074 -0.3108438 -7.320666e-19)
(0.188245 -1.145335 1.406361e-18)
(0.3304465 -1.929944 1.076262e-20)
(0.5371053 -2.681704 -2.5722e-18)
(0.803075 -3.409087 -3.808981e-20)
(1.127862 -4.110494 2.276378e-18)
(1.507435 -4.778971 -2.052874e-18)
(1.942636 -5.413937 0)
(2.425874 -6.014874 -6.280795e-18)
(2.955288 -6.566851 -1.84754e-20)
(3.528273 -7.072225 2.073674e-18)
(4.139119 -7.535031 1.500313e-18)
(4.785235 -7.942751 0)
(5.464771 -8.297278 0)
(6.169837 -8.602027 0)
(6.891541 -8.842289 9.959101e-21)
(7.625229 -9.014102 -9.894459e-21)
(8.370366 -9.127595 2.192646e-18)
(9.121494 -9.181267 4.965312e-21)
(9.874597 -9.171788 -3.482667e-18)
(10.62388 -9.10392 -6.813131e-20)
(11.35908 -8.973085 9.240329e-18)
(12.0721 -8.776875 5.173462e-18)
(12.75833 -8.518295 -4.223859e-20)
(13.41983 -8.203593 6.091306e-18)
(14.05148 -7.837975 4.982874e-20)
(14.64557 -7.416944 -5.670154e-20)
(15.19419 -6.946325 5.648799e-20)
(15.69334 -6.42936 6.195955e-20)
(16.14113 -5.871733 8.13601e-18)
(16.53661 -5.280651 -6.398458e-20)
(16.87475 -4.663237 0)
(17.16133 -4.025514 0)
(17.3986 -3.383379 0)
(17.56882 -2.743475 0)
(17.62366 -2.130051 1.605414e-20)
(17.48069 -1.620723 -1.585923e-20)
(16.45996 -1.218197 9.29044e-19)
(12.79997 -0.729858 3.707517e-21)
(6.760323 -0.250842 0)
(-3.432005 -0.665674 -1.272236e-18)
(-5.879396 -1.059829 3.2403e-18)
(-2.497558 -0.2056521 -3.062461e-18)
(-0.6908057 0.2867014 2.71491e-20)
(0.6196273 0.4577723 -2.945096e-18)
(1.679456 0.8079899 1.650773e-20)
(3.506618 1.65957 0)
(7.60972 2.948433 9.113936e-19)
(-0.2428091 -1.154684 -7.195963e-18)
(-8.986916 -5.021398 -8.510248e-18)
(-8.600355 -4.294609 -8.716002e-21)
(-7.13242 -3.566833 -1.10668e-19)
(-4.782609 -2.522778 4.651727e-20)
(-2.704108 -1.435769 0)
(-0.9409346 -0.3100081 1.694932e-18)
(1.03822 1.132454 9.602534e-19)
(2.398592 2.160232 1.057364e-21)
(2.36191 2.201134 -6.975157e-19)
(1.88237 1.892875 1.727715e-18)
(1.779991 1.868369 1.101046e-18)
(1.420354 1.530536 -1.058251e-21)
(1.027922 1.218382 -1.50131e-18)
(0.8088041 1.080756 -1.260537e-20)
(0.5548172 0.8219191 -1.797182e-18)
(0.3793005 0.6215224 1.399841e-20)
(0.2952533 0.5593378 -5.950266e-22)
(0.2882432 0.6472177 -1.320897e-20)
(0.3408857 0.8693198 0)
(0.4154353 1.218023 0)
(0.5194302 1.792826 -1.195792e-18)
(0.6671778 2.614079 0)
(0.8012814 3.623663 -1.481053e-18)
(0.8865847 4.747924 9.458596e-19)
(0.8903455 5.877518 -1.048921e-20)
(0.7906536 6.891059 1.031925e-20)
(0.5971752 7.706007 8.463476e-19)
(0.3347563 8.194655 -4.621967e-19)
(0.1421206 8.588038 -2.18015e-19)
(0.3572814 8.483184 1.543244e-19)
(0.5551471 7.436553 -2.181921e-19)
(0.8157627 -0.320811 8.773752e-21)
(1.188917 -5.279868 -7.203333e-19)
(1.434046 -6.318135 0)
(1.597299 -7.005518 -3.684493e-18)
(1.873404 -6.978891 -2.634524e-20)
(2.026433 -6.45027 1.654463e-18)
(1.674428 -5.340048 2.767065e-18)
(1.080805 -3.813004 2.231616e-18)
(0.3104044 -1.960307 1.957913e-18)
(-0.6175694 0.02144223 -1.586526e-20)
(-1.75992 2.068669 0)
(-2.979051 4.010057 0)
(-3.911238 5.477983 5.019394e-18)
(-4.382953 6.085179 5.987419e-18)
(-4.277383 5.866876 5.627168e-18)
(-3.657531 5.2136 7.444646e-20)
(-2.517019 4.317226 0)
(2.318225 -1.172129 1.172415e-18)
(3.194029 -3.508674 5.86437e-19)
(0.45205 -1.5624 -7.274022e-19)
(-0.3831917 -0.3905686 0)
(-0.9423277 0.42167 3.606686e-18)
(-0.9907528 0.5053995 0)
(-1.114102 0.3059675 -4.911191e-18)
(-2.875077 0.845667 0)
(-5.288915 1.983458 -1.085891e-17)
(-6.376779 3.17169 -3.045557e-17)
(-7.4079 4.60119 0)
(-1.880288 2.066825 0)
(5.489139 -1.754411 -8.074329e-21)
(10.30007 -2.946439 -4.065517e-18)
(12.07165 -2.476051 4.657124e-18)
(14.50731 -1.914988 8.958948e-18)
(17.60914 -1.44201 -2.013139e-18)
(19.45625 -1.125138 1.943061e-18)
(19.23617 -0.7426412 -1.052762e-18)
(19.08464 -0.160264 0)
(19.13363 0.554199 0)
(19.15153 1.30814 -2.401758e-18)
(19.11449 2.072678 -2.463803e-18)
(19.00126 2.828029 -4.784989e-18)
(18.81763 3.563956 4.709895e-18)
(18.57888 4.288546 1.100225e-19)
(18.28148 4.980227 -7.276912e-20)
(17.91368 5.647418 0)
(17.48418 6.272327 0)
(17.00289 6.867487 8.404651e-18)
(16.48473 7.429631 -8.099793e-18)
(15.92345 7.941404 0)
(15.31338 8.40379 0)
(14.66261 8.80905 1.052437e-19)
(13.97591 9.160846 -6.670654e-18)
(13.26273 9.452928 0)
(12.52649 9.682073 -5.480509e-18)
(11.77521 9.86122 -4.977822e-18)
(11.01773 9.983978 -4.396227e-18)
(10.24996 10.03504 3.902295e-18)
(9.47238 10.01998 -4.842129e-20)
(8.698858 9.950233 2.839455e-18)
(7.938139 9.826441 0)
(7.192465 9.639021 -1.729781e-18)
(6.461534 9.388327 -1.362835e-20)
(5.748931 9.082551 8.756773e-21)
(5.06622 8.713164 3.078233e-20)
(4.407846 8.289714 0)
(3.786887 7.815877 -1.039312e-18)
(3.203678 7.297641 -1.369896e-20)
(2.665202 6.737237 2.008634e-18)
(2.172003 6.137726 1.235601e-18)
(1.728768 5.500266 -1.446267e-18)
(1.335656 4.829992 -1.643743e-18)
(0.9967445 4.138737 1.817716e-18)
(0.7106495 3.436612 -1.982576e-18)
(0.4908819 2.717097 -1.032504e-18)
(0.3197782 1.993563 2.20683e-18)
(0.2109665 1.271041 1.164594e-18)
(0.1777173 0.5103196 2.387681e-21)
(0.2024965 -0.3162775 6.059145e-19)
(0.2661986 -1.138933 -9.120417e-21)
(0.4015296 -1.91407 0)
(0.598247 -2.658737 -1.62089e-20)
(0.8494928 -3.380981 -1.429682e-20)
(1.156851 -4.078421 -1.800068e-18)
(1.514722 -4.744947 3.37117e-18)
(1.92923 -5.378852 -1.508666e-18)
(2.386752 -5.982389 2.545597e-18)
(2.888124 -6.53939 1.849884e-20)
(3.434818 -7.051124 0)
(4.016699 -7.524184 1.26821e-18)
(4.633295 -7.944325 8.123779e-21)
(5.284958 -8.312723 -2.97302e-19)
(5.960012 -8.636141 0)
(6.652205 -8.896899 7.403841e-19)
(7.360042 -9.089479 0)
(8.080028 -9.226688 -4.555289e-20)
(8.806061 -9.306954 2.258718e-18)
(9.537894 -9.324021 0)
(10.26551 -9.286613 -3.301985e-18)
(10.98127 -9.187954 -3.786423e-18)
(11.67724 -9.024945 -4.240735e-18)
(12.34854 -8.7999 0)
(12.99897 -8.517678 -1.016966e-17)
(13.62163 -8.185736 8.174248e-20)
(14.20954 -7.797316 0)
(14.75486 -7.359556 0)
(15.25353 -6.873536 0)
(15.70439 -6.346515 6.580238e-18)
(16.10028 -5.787259 -6.79719e-18)
(16.43285 -5.191272 0)
(16.69357 -4.563959 0)
(16.89246 -3.906978 3.494608e-18)
(17.02597 -3.241655 2.766944e-20)
(17.09354 -2.576691 0)
(17.13996 -1.968803 0)
(17.40567 -1.536935 -1.503937e-18)
(17.12411 -1.200154 1.74559e-19)
(13.83186 -0.873791 0)
(2.806681 -0.8365012 9.078596e-19)
(-1.176266 -0.2352928 6.034302e-20)
(3.420867 1.146986 -8.180935e-21)
(5.619434 1.726176 -2.9999e-20)
(6.338837 1.84499 2.152286e-18)
(6.325156 2.033215 1.637905e-18)
(5.836667 2.453213 2.030338e-20)
(6.679931 2.324505 1.642253e-20)
(-2.262413 -2.835958 2.78871e-18)
(-7.738577 -4.952258 6.904477e-18)
(-7.92367 -3.946711 0)
(-6.486131 -2.923272 5.766358e-18)
(-4.268516 -1.918131 0)
(-2.407666 -0.9954073 -2.833983e-20)
(-1.084562 -0.1619324 -1.34651e-18)
(0.5429914 1.012553 1.075656e-20)
(2.014826 1.928787 -1.101082e-20)
(2.18005 1.988631 5.830916e-19)
(1.83481 1.770859 -7.125696e-19)
(1.697049 1.711419 -9.101094e-19)
(1.469192 1.535524 -1.102047e-18)
(1.173897 1.397149 -1.22482e-18)
(0.9403407 1.24146 0)
(0.6670199 0.932915 -1.35301e-21)
(0.4566498 0.6714914 0)
(0.3273765 0.5645358 -1.458893e-18)
(0.2777872 0.6122692 1.3384e-18)
(0.2954574 0.785527 0)
(0.3308606 1.073517 0)
(0.3665613 1.528148 1.972093e-18)
(0.4839341 2.269303 -5.109124e-19)
(0.6249739 3.278064 1.21465e-18)
(0.7463096 4.445281 -6.924807e-21)
(0.8065973 5.61601 6.797808e-21)
(0.7777543 6.658938 0)
(0.6705876 7.466189 -6.923069e-19)
(0.4999451 8.0138 7.463612e-19)
(0.3072695 8.0822 1.844387e-19)
(0.328398 7.895297 -2.590976e-19)
(0.9003415 8.366801 -5.440607e-21)
(1.259557 2.856289 5.630211e-21)
(1.44711 -4.350891 -2.052372e-20)
(1.469747 -5.803951 2.098821e-20)
(1.487752 -6.299777 1.535764e-18)
(1.632563 -6.303823 -2.193196e-20)
(1.70992 -5.855109 -1.376729e-18)
(1.312559 -4.891032 3.847465e-20)
(0.7339849 -3.515625 -1.810673e-18)
(-0.02603816 -1.818349 -1.424535e-20)
(-0.8871882 -0.03885351 0)
(-2.004737 1.947296 0)
(-3.193019 3.885966 -3.058042e-18)
(-4.023336 5.400528 -4.198426e-18)
(-4.382804 6.030428 -9.911262e-18)
(-4.155862 5.816991 -4.624422e-18)
(-3.257409 4.975431 0)
(-2.206575 4.618381 0)
(0.8414497 1.141449 -1.894403e-18)
(2.103008 -2.408887 -9.630931e-19)
(0.7386365 -2.042852 1.812153e-20)
(1.174146 -1.660691 -5.538703e-20)
(1.459556 -1.276928 -5.802532e-18)
(2.084106 -1.498946 -3.468389e-18)
(1.670506 -1.583518 4.015693e-18)
(-0.150713 -1.092164 5.73208e-18)
(-2.161612 -0.0102629 8.949798e-18)
(-3.280248 1.593327 1.390468e-17)
(-3.209657 3.296502 0)
(-0.02485617 2.125114 -7.323859e-20)
(10.60068 -2.493968 -4.377917e-18)
(16.11071 -4.010815 2.815875e-20)
(17.79958 -3.597469 -2.838565e-20)
(19.05807 -2.659679 -3.461091e-18)
(19.50681 -1.781066 -1.579279e-18)
(19.11616 -1.309706 -3.621952e-20)
(18.81254 -1.035524 -8.700852e-19)
(19.03386 -0.565097 -4.556661e-19)
(19.20965 0.06433684 -3.682918e-21)
(19.30024 0.7613445 0)
(19.29897 1.497775 -3.066159e-20)
(19.20998 2.231378 2.011655e-18)
(19.03947 2.960591 -7.788176e-18)
(18.8059 3.695051 5.923333e-20)
(18.5126 4.398419 -3.779621e-18)
(18.15167 5.081049 -1.127995e-19)
(17.72843 5.720846 -7.069834e-18)
(17.25113 6.335502 3.416635e-21)
(16.73574 6.922326 6.680625e-18)
(16.17794 7.455482 -6.282982e-18)
(15.57022 7.941867 0)
(14.92097 8.370398 8.51995e-20)
(14.23366 8.747928 -8.576063e-20)
(13.51795 9.066807 0)
(12.77696 9.323742 4.515035e-18)
(12.01968 9.530437 7.663292e-20)
(11.25479 9.680674 3.675618e-18)
(10.47955 9.757915 -3.151605e-18)
(9.695959 9.765364 -2.699218e-18)
(8.912412 9.719787 -2.296676e-18)
(8.14244 9.618516 -1.798544e-18)
(7.387964 9.451717 1.761511e-20)
(6.64697 9.220733 -1.77892e-20)
(5.923846 8.934005 0)
(5.230267 8.582404 -2.113031e-20)
(4.560453 8.175623 -1.011943e-20)
(3.928838 7.716581 8.64093e-19)
(3.335186 7.211762 1.260741e-18)
(2.788795 6.662649 -1.645383e-18)
(2.287536 6.073319 -1.014295e-18)
(1.836729 5.444665 -5.190371e-21)
(1.436124 4.781853 1.348717e-18)
(1.092499 4.095758 2.417565e-20)
(0.8006202 3.397942 1.589322e-18)
(0.5794151 2.680272 1.37053e-20)
(0.4057744 1.957934 -9.225783e-19)
(0.2969028 1.239002 -4.747773e-19)
(0.2720779 0.4861665 -5.97238e-23)
(0.3026155 -0.3191098 4.804722e-19)
(0.3614424 -1.130297 7.468247e-21)
(0.4932303 -1.897473 -9.139754e-19)
(0.6902033 -2.634577 1.744028e-18)
(0.9425121 -3.348287 0)
(1.252142 -4.036294 -2.414329e-21)
(1.61253 -4.692969 -1.385998e-18)
(2.032311 -5.316495 1.272454e-18)
(2.493519 -5.910193 -2.182737e-18)
(3.002906 -6.454513 2.541944e-20)
(3.559537 -6.952819 -2.518687e-20)
(4.147044 -7.414133 -1.042266e-18)
(4.77261 -7.819275 0)
(5.437466 -8.169965 2.385208e-19)
(6.120327 -8.478233 5.234832e-21)
(6.821352 -8.721169 -4.674151e-20)
(7.539403 -8.894125 -9.60035e-19)
(8.267883 -9.012071 -1.455692e-18)
(9.0017 -9.071949 -2.212049e-20)
(9.740936 -9.067369 2.20937e-18)
(10.47673 -9.006344 -3.792785e-20)
(11.19836 -8.884627 -3.002793e-18)
(11.8997 -8.696897 0)
(12.5773 -8.444881 3.723464e-18)
(13.23147 -8.138098 4.127826e-18)
(13.85465 -7.784525 4.290344e-18)
(14.44213 -7.374418 -4.5772e-18)
(14.98537 -6.917195 4.908118e-18)
(15.48166 -6.412555 0)
(15.93006 -5.868015 -1.07668e-17)
(16.32201 -5.298494 1.121538e-17)
(16.65009 -4.693965 -1.323997e-19)
(16.90947 -4.058582 -2.854876e-18)
(17.09414 -3.410484 -2.865894e-18)
(17.19313 -2.76439 0)
(17.1853 -2.148643 1.423927e-18)
(17.06234 -1.610846 -1.365666e-18)
(16.92917 -1.252275 6.345401e-19)
(17.27157 -1.119183 -1.483777e-19)
(17.45579 -1.282104 -2.731885e-19)
(11.60351 -1.13157 9.431441e-21)
(8.510001 0.3574812 -2.003839e-18)
(10.02827 2.2288 2.828347e-20)
(10.93042 2.922379 0)
(10.94314 2.943553 0)
(10.24097 2.958554 -3.286515e-20)
(8.37811 3.024626 3.345417e-20)
(5.938848 1.430955 0)
(-2.781228 -3.988948 0)
(-6.11434 -4.674868 0)
(-7.142265 -3.446975 7.098006e-18)
(-5.826435 -2.195938 -9.455986e-18)
(-3.700152 -1.243527 3.091644e-18)
(-1.924948 -0.4351535 -1.862744e-18)
(-1.012737 0.101918 -3.806643e-20)
(0.03264893 0.866466 6.574068e-19)
(1.347685 1.498386 4.973385e-19)
(1.746559 1.601112 8.32474e-21)
(1.701106 1.61781 2.199798e-21)
(1.649372 1.615937 -1.04221e-20)
(1.414844 1.419189 -1.492557e-20)
(1.075327 1.209334 1.043751e-18)
(0.8361548 0.9999189 0)
(0.5861022 0.7322877 1.220725e-18)
(0.430759 0.5807723 -1.247537e-18)
(0.3014789 0.52626 1.207572e-18)
(0.2130989 0.5360554 0)
(0.1859133 0.621412 0)
(0.1660708 0.7767862 -1.355662e-20)
(0.1482488 1.123828 -8.154488e-19)
(0.2703681 1.959277 4.333843e-19)
(0.4327206 3.125 -4.97105e-19)
(0.5748588 4.408747 0)
(0.6511198 5.637561 0)
(0.6312619 6.697059 0)
(0.525267 7.505725 -5.536538e-19)
(0.3408613 8.010433 -3.158643e-19)
(0.1638281 8.180796 -3.058622e-19)
(0.3924098 7.827573 1.08602e-19)
(1.150214 8.35353 0)
(1.746296 6.014076 -2.941375e-19)
(1.706987 -0.9416679 0)
(1.376802 -4.401915 -1.274158e-18)
(1.25127 -5.374124 0)
(1.351499 -5.416084 0)
(1.441314 -5.125877 -1.126287e-18)
(0.9883696 -4.40106 -1.876768e-18)
(0.3722959 -3.222777 1.510156e-18)
(-0.3817044 -1.69992 -1.303817e-18)
(-1.146629 -0.1717628 1.424709e-18)
(-2.28175 1.755969 0)
(-3.42761 3.681504 4.995049e-18)
(-4.119991 5.251409 3.437492e-18)
(-4.344455 5.949833 4.223498e-18)
(-3.969247 5.808168 -1.22698e-19)
(-2.973881 4.941497 -7.097632e-20)
(-1.562974 4.381435 -1.540793e-18)
(0.08922628 2.670051 1.575217e-18)
(1.178883 -1.127155 3.805937e-19)
(1.47197 -2.583451 3.011549e-20)
(3.103824 -3.01126 1.428054e-18)
(4.144689 -3.030432 2.303587e-18)
(4.907759 -3.303712 2.705207e-18)
(4.425642 -3.480135 0)
(3.038281 -3.25463 1.385239e-20)
(1.578049 -2.287804 0)
(0.6632369 -0.2245139 1.18008e-17)
(1.144546 1.767805 8.744852e-18)
(4.485446 1.491089 4.341037e-18)
(14.88803 -2.761106 -1.749708e-19)
(17.78451 -4.062899 6.165708e-20)
(18.48097 -3.74446 -5.45451e-18)
(19.11732 -2.754735 0)
(18.87586 -1.756324 -1.279051e-18)
(18.50948 -1.164551 -1.395512e-18)
(18.55928 -0.7374318 1.447443e-18)
(18.76247 -0.1586379 3.580623e-19)
(18.9072 0.5186481 0)
(18.98084 1.234725 7.899587e-19)
(18.9734 1.965983 0)
(18.88223 2.689531 0)
(18.71085 3.395466 3.253016e-18)
(18.47897 4.11125 -4.924886e-20)
(18.18772 4.789292 5.046287e-20)
(17.82951 5.441533 -2.969288e-18)
(17.41321 6.046494 5.936503e-18)
(16.9429 6.626734 -5.64313e-18)
(16.43706 7.182972 -5.430477e-18)
(15.89512 7.675372 2.454182e-19)
(15.30095 8.128616 -1.571475e-19)
(14.66913 8.521339 -1.385089e-19)
(13.9985 8.86867 -3.986116e-18)
(13.30191 9.159183 -4.063975e-18)
(12.58087 9.387934 -1.075546e-19)
(11.84129 9.572768 3.424107e-18)
(11.09915 9.700565 0)
(10.34844 9.755445 2.595316e-18)
(9.583311 9.747638 2.22216e-18)
(8.819258 9.688859 1.791156e-18)
(8.071258 9.575831 1.479969e-18)
(7.337823 9.399894 0)
(6.617884 9.160311 0)
(5.912391 8.87006 3.25709e-19)
(5.239374 8.514109 0)
(4.584376 8.107371 0)
(3.969183 7.649085 7.723273e-19)
(3.392893 7.145559 -9.701434e-21)
(2.85725 6.600874 -1.550174e-20)
(2.364317 6.016198 -2.8292e-20)
(1.922205 5.392201 1.989457e-18)
(1.530589 4.7337 0)
(1.196246 4.051238 0)
(0.900949 3.359846 1.346627e-18)
(0.6839913 2.643777 6.840008e-19)
(0.5097799 1.921642 7.446521e-19)
(0.4007009 1.205792 -3.887992e-19)
(0.3846924 0.4597966 0)
(0.4232143 -0.3179559 -4.287271e-22)
(0.4764064 -1.117174 2.40302e-20)
(0.597313 -1.876335 7.252454e-19)
(0.7885366 -2.603471 -1.429672e-18)
(1.036406 -3.30703 -4.095463e-20)
(1.3419 -3.986255 1.25505e-18)
(1.697668 -4.634983 3.718332e-20)
(2.112502 -5.251709 2.046243e-18)
(2.560646 -5.841828 -1.118684e-20)
(3.056851 -6.382536 -1.541892e-18)
(3.604817 -6.878119 4.186428e-20)
(4.178336 -7.340124 0)
(4.784074 -7.747898 5.773455e-19)
(5.434995 -8.10099 0)
(6.103705 -8.414182 0)
(6.782835 -8.666741 -4.675321e-19)
(7.481491 -8.848993 1.569328e-18)
(8.193073 -8.977296 4.048106e-20)
(8.906648 -9.05116 -8.857751e-20)
(9.626205 -9.061948 -1.81368e-18)
(10.34185 -9.02041 -2.094558e-18)
(11.04363 -8.919881 2.555694e-18)
(11.72397 -8.757393 -2.796745e-18)
(12.38025 -8.533728 -6.660306e-20)
(13.01739 -8.253407 0)
(13.62293 -7.931439 -3.713927e-18)
(14.19491 -7.552729 7.834938e-18)
(14.72373 -7.130326 -4.174964e-18)
(15.20644 -6.661793 0)
(15.64565 -6.151301 8.183782e-20)
(16.03041 -5.613043 -4.491169e-18)
(16.35243 -5.036295 -7.157985e-20)
(16.60777 -4.4244 1.168215e-19)
(16.79109 -3.790712 -7.345582e-20)
(16.89551 -3.152546 0)
(16.90715 -2.520106 -2.269438e-18)
(16.82453 -1.932896 1.063875e-18)
(16.67179 -1.454546 5.091866e-19)
(16.55517 -1.142298 -7.698034e-21)
(17.75733 -1.405865 2.185607e-19)
(16.94379 -1.16708 5.083684e-19)
(16.09336 0.8061461 0)
(15.74272 2.926014 1.330565e-18)
(14.82295 3.611623 -4.775684e-20)
(13.86208 3.518723 1.37471e-18)
(12.73464 3.365454 0)
(10.40761 3.149812 0)
(5.911429 0.5010755 0)
(-2.096592 -4.636633 5.226031e-20)
(-4.648278 -4.403094 5.247184e-18)
(-5.939845 -2.764993 -6.202249e-18)
(-4.939043 -1.301896 4.086848e-18)
(-3.048937 -0.4999098 -5.015631e-18)
(-1.331412 0.1537975 1.567983e-18)
(-0.7226941 0.4394397 0)
(-0.3066591 0.7841217 -5.381904e-19)
(0.7707035 1.135554 -4.038448e-19)
(1.379022 1.336132 3.938073e-19)
(1.555761 1.49378 -1.355818e-20)
(1.581325 1.492687 -2.125171e-20)
(1.323508 1.219659 2.126075e-20)
(0.8646938 0.8634137 0)
(0.6148096 0.6113535 -9.533351e-19)
(0.4566287 0.4882213 3.186204e-20)
(0.388673 0.4621903 2.033829e-18)
(0.261177 0.4093715 -1.027268e-18)
(0.1164719 0.324189 5.743426e-20)
(0.02850388 0.253235 -8.643909e-19)
(-0.04810811 0.2655538 0)
(-0.0664897 0.7898881 -6.719421e-19)
(0.09112311 1.907535 3.563017e-19)
(0.2714806 3.231158 -2.605988e-20)
(0.4264279 4.56175 5.452058e-19)
(0.5215498 5.780446 -2.939977e-20)
(0.5266509 6.813314 1.123534e-20)
(0.4639332 7.593709 4.614892e-19)
(0.3423125 8.077296 -3.905614e-21)
(0.2797409 8.28633 3.828384e-21)
(0.4028634 8.048163 5.249988e-21)
(1.216908 8.035312 1.385301e-19)
(2.099387 8.02127 2.353225e-19)
(1.980524 3.93727 -3.764657e-19)
(1.29149 -0.4768768 1.039866e-18)
(0.9340031 -3.397565 0)
(1.080352 -4.513355 9.412571e-19)
(1.189788 -4.41709 9.994648e-19)
(0.6242777 -3.889346 1.553363e-18)
(-0.05811388 -2.90241 0)
(-0.7804231 -1.556368 0)
(-1.455279 -0.3043815 -1.163025e-18)
(-2.651351 1.545419 -5.614107e-20)
(-3.711335 3.413873 -1.989608e-18)
(-4.209148 5.023298 -2.892036e-18)
(-4.269147 5.813676 -3.457039e-18)
(-3.749676 5.799173 3.215374e-18)
(-2.673229 5.005784 -2.36584e-18)
(-0.9682355 4.087466 1.249015e-18)
(0.1273635 3.219164 -6.195475e-19)
(0.8753005 -0.2056831 0)
(2.706251 -3.178201 0)
(5.21729 -4.284341 -1.190598e-18)
(6.705039 -4.609347 0)
(7.512395 -4.961447 -7.212764e-20)
(7.202205 -5.336754 -2.521392e-20)
(6.404337 -5.459002 -3.175603e-18)
(5.663245 -4.779147 -1.439107e-19)
(4.935832 -2.401664 -6.451217e-20)
(5.835682 0.2465515 -6.638665e-18)
(10.44789 0.4888666 1.516045e-19)
(17.27466 -2.588435 1.276878e-18)
(17.2275 -3.685953 -6.282008e-20)
(17.80909 -3.521398 2.376503e-18)
(18.46927 -2.656143 -6.969982e-20)
(18.4551 -1.808446 4.458107e-18)
(18.44732 -1.304254 3.553128e-20)
(18.59111 -0.9337838 -8.09858e-21)
(18.7821 -0.4300275 -6.053455e-19)
(18.93295 0.185377 -4.888223e-21)
(19.0069 0.8591021 -6.511765e-19)
(18.99753 1.574759 -4.057516e-20)
(18.90683 2.292828 -1.248919e-18)
(18.73498 2.997346 2.542669e-18)
(18.50332 3.724489 -2.505292e-18)
(18.22145 4.40105 4.78351e-18)
(17.86779 5.075932 2.59941e-18)
(17.4536 5.696373 0)
(16.98267 6.294949 0)
(16.47829 6.872119 4.403387e-18)
(15.93789 7.383427 4.199595e-18)
(15.34448 7.854719 0)
(14.71618 8.259045 -1.115218e-19)
(14.0459 8.621078 3.61447e-18)
(13.34656 8.931745 3.238752e-18)
(12.62666 9.172791 2.876133e-18)
(11.89339 9.363424 -7.779947e-20)
(11.1532 9.504388 -2.24883e-18)
(10.39942 9.576325 5.92073e-20)
(9.638943 9.5749 -5.97763e-20)
(8.883353 9.520156 -1.512842e-18)
(8.138146 9.417186 1.170944e-18)
(7.400494 9.257281 0)
(6.688491 9.022439 0)
(5.985368 8.742784 -4.989734e-19)
(5.321044 8.393248 -9.183518e-21)
(4.670615 7.995505 -8.824425e-21)
(4.071088 7.541905 -5.958449e-19)
(3.502744 7.046097 -1.746989e-18)
(2.959067 6.518284 1.064745e-18)
(2.468258 5.945113 -1.355462e-18)
(2.031058 5.33072 -7.78866e-19)
(1.649562 4.678996 -2.704981e-20)
(1.32339 3.999802 0)
(1.019545 3.319639 -1.051012e-18)
(0.8137908 2.607849 -3.537214e-20)
(0.6350627 1.885416 -6.194548e-19)
(0.5254368 1.173547 3.332506e-19)
(0.5186712 0.4326647 4.475888e-23)
(0.5653818 -0.3134207 -3.419846e-19)
(0.6051201 -1.102708 2.964315e-20)
(0.7226678 -1.849829 -6.316107e-19)
(0.9073754 -2.562075 1.170643e-18)
(1.150072 -3.254739 -1.142105e-18)
(1.45169 -3.925577 2.257809e-21)
(1.802797 -4.565106 9.709008e-19)
(2.221572 -5.171147 -1.628315e-18)
(2.660703 -5.756013 1.448533e-18)
(3.145893 -6.291586 1.153359e-18)
(3.694515 -6.778418 7.38129e-21)
(4.274571 -7.228515 7.811121e-21)
(4.872098 -7.630106 -4.548861e-19)
(5.50645 -7.984691 2.357896e-19)
(6.174764 -8.289812 6.200677e-21)
(6.852108 -8.533038 3.124511e-19)
(7.542672 -8.709439 -1.238565e-18)
(8.246323 -8.834273 8.804576e-19)
(8.964213 -8.891451 -4.915926e-20)
(9.680672 -8.893098 -1.444784e-18)
(10.38877 -8.847955 3.438967e-18)
(11.09045 -8.734971 6.511401e-20)
(11.76782 -8.562776 2.170069e-18)
(12.4243 -8.323955 -2.552449e-18)
(13.06326 -8.027737 7.934932e-20)
(13.6679 -7.693151 -2.923347e-18)
(14.24065 -7.296354 -3.004728e-18)
(14.76914 -6.857915 1.034551e-19)
(15.2536 -6.366428 -3.451417e-18)
(15.69325 -5.834517 3.56638e-18)
(16.07797 -5.277169 0)
(16.39819 -4.684479 0)
(16.64981 -4.067995 1.910156e-18)
(16.83461 -3.441672 1.880169e-18)
(16.94007 -2.826216 0)
(16.94918 -2.237635 9.709571e-19)
(16.85409 -1.713114 8.640472e-19)
(16.72791 -1.32447 -4.292302e-19)
(16.46736 -1.029417 9.769302e-20)
(17.03915 -1.221493 1.915998e-19)
(18.12513 -0.8694301 -4.278874e-19)
(18.48726 1.154311 0)
(17.51801 3.145298 5.472063e-20)
(15.84737 3.705487 -5.507432e-20)
(14.41866 3.477392 -1.096898e-18)