/*--------------------------------*- C++ -*----------------------------------*\
| =========                 |                                                 |
| \\      /  F ield         | OpenFOAM: The Open Source CFD Toolbox           |
|  \\    /   O peration     | Version:  2406                                  |
|   \\  /    A nd           | Website:  www.openfoam.com                      |
|    \\/     M anipulation  |                                                 |
\*---------------------------------------------------------------------------*/
FoamFile
{
    version     2.0;
    format      ascii;
    arch        "LSB;label=32;scalar=64";
    class       volScalarField;
    location    "2.88";
    object      p;
}
// * * * * * * * * * * * * * * * * * * * * * * * * * * * * * * * * * * * * * //

dimensions      [0 2 -2 0 0 0 0];

internalField   nonuniform List<scalar> 
217010
(
-145.7577
-71.36249
-78.29939
-81.02717
-78.83421
-72.44722
-72.01502
-71.38627
-71.3207
-71.93845
-71.73878
-71.61243
-72.27223
-72.06512
-71.56228
-72.25747
-74.80529
-77.43937
-77.72384
-80.57346
-88.75549
-96.46724
-103.4081
-110.6847
-116.3652
-115.5658
-107.0482
-91.43747
-72.32023
-52.40666
-32.72117
-17.23579
-9.680917
-9.374008
-13.59079
-18.22658
-28.25041
-31.8561
-23.14566
-24.39163
-33.76667
-33.57854
-31.53227
-48.20063
-73.35552
-91.74441
-106.2342
-129.3476
-158.4685
-224.0737
-48.76403
-46.91849
-32.79824
-24.19822
-14.88817
-4.998402
5.706104
16.59781
26.48328
33.30203
34.9542
32.06193
30.15335
28.20427
27.86241
29.23243
30.55469
27.63216
23.85232
25.74887
28.87633
29.38826
28.06469
24.95732
19.76935
14.90937
15.07474
21.51846
31.48179
37.07974
38.71298
36.01355
30.94282
26.01257
21.86227
17.99837
10.53415
-5.60953
-26.72708
-28.81557
-4.814217
10.21784
2.917329
-6.073551
-17.07217
-24.65621
-23.66201
-20.60186
-21.14215
-23.04048
-25.14561
-27.20156
-29.04902
-30.59645
-31.82984
-32.83075
-33.56937
-34.0233
-34.29035
-34.43396
-34.49106
-34.46652
-34.55301
-34.59257
-34.58064
-34.7939
-35.37543
-36.19229
-37.58718
-39.36448
-41.54582
-44.54877
-48.26976
-52.59708
-57.17443
-62.72084
-68.35308
-74.22499
-80.10933
-85.90508
-92.05206
-97.73177
-102.2392
-105.7238
-108.2338
-109.84
-110.5448
-110.1509
-108.5226
-105.7802
-102.5274
-99.50734
-97.02478
-95.27362
-94.31364
-93.47931
-92.32605
-92.27762
-91.57753
-92.29163
-89.68545
-94.69849
-97.17634
-101.1098
-104.3916
-107.2981
-108.7435
-107.9167
-104.7767
-99.72207
-93.10268
-85.5492
-80.14691
-76.34767
-72.59965
-70.15728
-67.45516
-65.01823
-63.12465
-61.4088
-61.16452
-61.85725
-60.679
-58.3614
-56.54236
-54.58224
-52.10148
-53.6449
-61.5112
-67.86677
-72.99755
-76.92661
-79.16496
-79.01546
-76.79771
-73.25033
-70.14772
-67.32899
-65.73254
-65.72267
-65.67694
-64.62264
-64.51169
-65.50882
-61.8361
-64.79757
-66.80853
-67.96676
-61.99364
-125.0447
-41.68992
-29.09942
-15.75411
-7.823516
-1.140644
4.374623
9.121177
13.39626
17.12637
20.50163
23.57051
26.37852
29.02084
31.5197
33.86347
36.0362
38.06839
40.0214
41.89275
43.68473
45.39907
47.02628
48.5706
50.08755
51.56962
53.02052
54.41754
55.73703
57.01333
58.2732
59.51879
60.73907
61.90401
63.03951
64.16717
65.27465
66.37082
67.45288
68.53763
69.58453
70.64098
71.65747
72.66501
73.65932
74.65053
75.62454
76.58069
77.54058
78.51863
79.49636
80.45146
81.39009
82.32633
83.29084
84.2687
85.23262
86.20344
87.18417
88.16568
89.16047
90.15891
91.15803
92.20122
93.32212
94.43455
95.52065
96.72119
98.06614
99.36709
100.2046
102.7192
89.18431
90.82715
90.94085
90.62738
90.02296
89.28687
88.48267
87.66397
86.88129
86.12255
85.32745
84.50511
83.68828
82.8979
82.11792
81.33256
80.53314
79.72882
78.94128
78.15815
77.3553
76.54577
75.74325
74.92289
74.10416
73.265
72.391
71.52141
70.66629
69.80063
68.91004
67.95857
67.05726
66.09901
65.10704
64.11167
63.10685
62.05714
60.98291
59.90073
58.78632
57.60641
56.36715
55.1191
53.86683
52.55924
51.18145
49.75013
48.24332
46.66754
45.0375
43.33504
41.59363
39.72362
37.72023
35.62679
33.3843
31.01778
28.45208
25.66097
22.6743
19.44361
15.81521
11.76296
7.123321
1.959895
-4.044206
-11.47118
-20.06938
-34.86823
-46.51326
90.73626
90.69645
90.95122
90.67361
90.09512
89.37098
88.56948
87.74778
86.95934
86.19744
85.40217
84.57824
83.75755
82.9627
82.17963
81.39194
80.59058
79.78337
78.99265
78.20701
77.40254
76.59069
75.78586
74.96369
74.14298
73.30258
72.427
71.55526
70.69771
69.83049
68.93883
67.98574
67.08291
66.12266
65.129
64.13208
63.12584
62.07445
60.99882
59.91515
58.79938
57.61756
56.37636
55.1267
53.87301
52.56333
51.18373
49.75073
48.24156
46.66301
45.03002
43.32435
41.58076
39.7055
37.69738
35.59944
33.35028
30.97829
28.40336
25.60238
22.6065
19.36364
15.71937
11.651
6.974988
1.781899
-4.269617
-11.75192
-20.52984
-35.27689
-48.85763
-43.67542
-29.52845
-16.17302
-8.082273
-1.348976
4.210167
8.983744
13.29297
17.03785
20.42518
23.50653
26.32342
28.97335
31.47971
33.83084
36.00989
38.0461
40.00317
41.87857
43.67417
45.39172
47.02231
48.56865
50.08749
51.57162
53.0245
54.42393
55.74513
57.02311
58.28479
59.53226
60.75443
61.92116
63.0582
64.18778
65.29699
66.39515
67.47939
68.56667
69.61541
70.67371
71.692
72.70167
73.69827
74.69153
75.66765
76.62623
77.58918
78.57017
79.55033
80.50744
81.44882
82.38895
83.35749
84.33897
85.30638
86.28136
87.26634
88.25258
89.25202
90.25528
91.26192
92.31537
93.44362
94.56076
95.6587
96.87983
98.23056
99.49006
100.3539
102.3727
-89.55648
-94.29485
-96.79952
-100.6758
-104.0248
-107.0373
-108.6535
-108.0398
-105.0838
-100.1574
-93.62754
-86.01914
-80.47442
-76.62561
-72.8046
-70.3123
-67.59959
-65.11307
-63.202
-61.45076
-61.1733
-61.86802
-60.71299
-58.40645
-56.60636
-54.66801
-52.13412
-53.62217
-61.45897
-67.84183
-72.99069
-76.93069
-79.18183
-79.03562
-76.8073
-73.24134
-70.12826
-67.30423
-65.71884
-65.71827
-65.67157
-64.61264
-64.51798
-65.48183
-61.85521
-64.89041
-66.89419
-67.89067
-63.52327
-113.0316
-55.77311
-47.57493
-34.3329
-25.42871
-16.12252
-6.200141
4.513504
15.53157
25.68424
32.92261
34.94394
32.23241
30.29941
28.28006
27.8106
29.14263
30.63558
27.85257
23.83523
25.54336
28.78719
29.41071
28.16131
25.12325
19.97673
15.02892
14.93961
21.19792
31.16849
36.91406
38.70723
36.06423
31.03356
26.11093
21.95642
18.13413
10.76761
-5.323157
-26.72451
-29.22094
-5.186982
10.1922
2.946235
-6.044275
-17.07899
-24.69899
-23.68331
-20.57951
-21.13377
-23.04298
-25.16131
-27.22062
-29.06607
-30.61175
-31.84255
-32.84168
-33.57899
-34.03073
-34.29594
-34.43658
-34.49287
-34.4659
-34.55271
-34.59319
-34.58266
-34.80099
-35.3932
-36.2199
-37.63121
-39.42747
-41.63081
-44.66758
-48.42214
-52.78131
-57.39162
-62.98186
-68.63986
-74.5435
-80.44129
-86.2631
-92.4417
-98.09691
-102.5528
-105.978
-108.4259
-109.9734
-110.6077
-110.123
-108.3858
-105.5266
-102.221
-99.21334
-96.7789
-95.10001
-94.19033
-93.37844
-92.2789
-92.24805
-91.59292
-91.96156
-131.3432
-73.38329
-78.39334
-81.08547
-79.06844
-72.57112
-72.03369
-71.39421
-71.32115
-71.93751
-71.74145
-71.61242
-72.27708
-72.06703
-71.55621
-72.25151
-74.81836
-77.46111
-77.71176
-80.57381
-88.83324
-96.56381
-103.5696
-110.854
-116.483
-115.4773
-106.7588
-90.99691
-71.79802
-51.85062
-32.25278
-16.95989
-9.615663
-9.545027
-13.88345
-18.65116
-28.52131
-31.70981
-23.06339
-24.75564
-34.24696
-33.56522
-32.29808
-50.45561
-75.55994
-93.46558
-108.2558
-131.9108
-164.4793
-204.3645
-116.2892
-74.14036
-78.48411
-80.94744
-79.31641
-72.70419
-72.0572
-71.40706
-71.32883
-71.94084
-71.7417
-71.61427
-72.2922
-72.07057
-71.54136
-72.23847
-74.82559
-77.4712
-77.68475
-80.57086
-88.79185
-96.72649
-104.0195
-111.2755
-116.7764
-115.7382
-106.8592
-90.95583
-71.61489
-51.62135
-32.0203
-16.82015
-9.671669
-9.7178
-14.22709
-19.13241
-28.94541
-31.84911
-23.17963
-25.31224
-34.62064
-33.40267
-33.0233
-52.46622
-77.43262
-94.72845
-109.9606
-134.2946
-165.0143
-184.2561
-58.10762
-47.95969
-34.70817
-25.78602
-16.50569
-6.698812
3.926242
14.88195
25.05979
32.50302
34.84887
32.28767
30.34849
28.20402
27.68345
29.05842
30.63909
28.02728
23.81639
25.43134
28.71631
29.41863
28.19082
25.17941
20.00818
14.89167
14.67422
20.7852
30.75673
36.67698
38.68583
36.03796
31.06748
26.1515
21.99845
18.23699
10.95736
-5.164809
-27.05915
-30.10442
-5.792423
10.43245
3.050191
-6.019049
-17.01137
-24.67706
-23.73616
-20.70522
-21.24044
-23.14177
-25.24593
-27.28399
-29.10998
-30.64471
-31.86652
-32.86151
-33.59757
-34.04895
-34.30935
-34.44688
-34.50608
-34.47375
-34.56217
-34.60555
-34.59283
-34.81175
-35.41508
-36.24509
-37.66765
-39.47919
-41.69185
-44.74758
-48.51907
-52.8972
-57.52727
-63.13847
-68.80587
-74.69441
-80.60518
-86.43461
-92.59342
-98.19498
-102.5983
-106.0053
-108.4386
-109.9531
-110.5463
-110.0698
-108.2595
-105.3499
-102.0754
-99.1195
-96.73394
-95.08235
-94.17018
-93.30231
-92.26048
-92.25647
-91.57347
-91.83265
-89.46196
-94.0662
-96.66426
-100.5824
-103.9239
-107.0524
-108.7845
-108.2102
-105.3531
-100.5424
-94.12157
-86.40624
-80.67589
-76.76193
-72.83528
-70.36673
-67.64764
-65.16603
-63.29068
-61.52992
-61.19595
-61.87816
-60.73886
-58.45811
-56.68127
-54.78818
-52.22247
-53.64103
-61.44457
-67.86342
-73.03223
-76.97936
-79.23528
-79.08923
-76.85034
-73.25875
-70.12458
-67.27764
-65.69271
-65.71127
-65.6799
-64.59906
-64.52175
-65.50316
-61.93391
-65.02441
-66.92195
-67.77266
-64.09079
-100.4953
-43.35217
-29.79986
-16.36707
-8.214703
-1.448427
4.134051
8.926689
13.23218
17.00229
20.39265
23.47999
26.30017
28.95201
31.46187
33.81624
35.99902
38.03505
39.99378
41.87082
43.66815
45.38669
47.01974
48.56573
50.08568
51.57118
53.02508
54.42688
55.7481
57.02582
58.28799
59.53623
60.76023
61.92742
63.06343
64.19411
65.30359
66.40358
67.48851
68.57437
69.62282
70.68126
71.70111
72.7118
73.70822
74.70234
75.67907
76.63731
77.59993
78.58255
79.56483
80.52178
81.46325
82.40239
83.37227
84.35686
85.32409
86.29907
87.28642
88.27266
89.27298
90.2777
91.28562
92.33902
93.47322
94.59453
95.69201
96.9226
98.26997
99.50607
100.4084
102.1222
91.26505
90.67829
90.97409
90.70384
90.11847
89.39775
88.59651
87.77136
86.98202
86.22145
85.42398
84.59799
83.7747
82.97908
82.19535
81.40771
80.605
79.79579
79.00538
78.2201
77.41407
76.60178
75.7976
74.97349
74.15468
73.3137
72.43538
71.5633
70.70619
69.8391
68.94496
67.99099
67.09123
66.13191
65.13589
64.13853
63.13229
62.07881
61.00296
59.9199
58.8046
57.62091
56.37773
55.12788
53.87506
52.56393
51.18367
49.75021
48.2387
46.65866
45.02413
43.31692
41.57475
39.69566
37.68547
35.5873
33.3335
30.96181
28.3809
25.57595
22.57755
19.33013
15.67908
11.584
6.913176
1.699111
-4.376796
-11.89904
-20.74235
-35.54731
-48.67181
92.26711
90.83551
91.01868
90.76099
90.17614
89.46589
88.67291
87.85029
87.06162
86.30076
85.50101
84.674
83.8487
83.05074
82.26472
81.47459
80.66963
79.85735
79.06562
78.27733
77.46805
76.65394
75.84795
75.02043
74.20151
73.35789
72.47553
71.60323
70.74415
69.8756
68.97861
68.03219
67.11797
66.161
65.16142
64.16323
63.15628
62.09883
61.02234
59.93867
58.82266
57.63471
56.38839
55.13787
53.88546
52.57068
51.18886
49.75419
48.23837
46.65603
45.01888
43.30812
41.56759
39.67988
37.66487
35.56514
33.3014
30.9287
28.33501
25.52047
22.51521
19.2572
15.58338
11.47666
6.786015
1.535699
-4.58573
-12.15228
-21.14534
-35.78264
-48.90379
-43.4947
-30.04199
-16.72996
-8.443603
-1.644836
3.982488
8.806058
13.13423
16.91482
20.32003
23.42078
26.24839
28.90684
31.4249
33.78655
35.9775
38.01525
39.97852
41.85961
43.66079
45.38174
47.0197
48.56509
50.08723
51.57553
53.0313
54.43784
55.76042
57.03895
58.30226
59.55222
60.77985
61.9497
63.08537
64.21871
65.32945
66.43309
67.52012
68.60427
69.66996
70.7209
71.74234
72.75591
73.75503
74.75113
75.73119
76.69225
77.65819
78.64358
79.62925
80.58873
81.53405
82.47735
83.45037
84.44013
85.41137
86.39093
87.3828
88.37422
89.379
90.38962
91.40634
92.46744
93.60571
94.73389
95.84446
97.08817
98.41125
99.57525
100.46
101.7544
-89.37596
-93.73048
-96.3188
-100.1408
-103.5508
-106.7658
-108.6161
-108.3518
-105.6556
-100.9759
-94.6916
-86.99159
-81.17313
-77.17737
-73.06603
-70.55046
-67.818
-65.26706
-63.42675
-61.63968
-61.14856
-61.7296
-60.70581
-58.54546
-56.78919
-54.9869
-52.38974
-53.71279
-61.45576
-67.92852
-73.12787
-77.08234
-79.3311
-79.19018
-76.93822
-73.29726
-70.12922
-67.22463
-65.6448
-65.69344
-65.68568
-64.59844
-64.52676
-65.49969
-62.03385
-65.25866
-66.96322
-67.57119
-65.61206
-91.75901
-61.31527
-48.49765
-36.22764
-27.14594
-17.85459
-7.991965
2.667076
13.72777
24.09171
31.87362
34.63793
32.33393
30.4445
28.18582
27.49889
28.86366
30.62268
28.19207
23.7095
25.17626
28.63027
29.44799
28.23041
25.23101
20.04835
14.825
14.3503
20.24006
30.08832
36.27462
38.73854
36.06355
31.17439
26.27546
22.11235
18.37094
11.17972
-4.978338
-27.28881
-31.11725
-6.598525
10.28778
3.169255
-6.010968
-16.73236
-24.12029
-23.6208
-20.99531
-21.51492
-23.32845
-25.37304
-27.3684
-29.16469
-30.68515
-31.89386
-32.88224
-33.61611
-34.06317
-34.32109
-34.45255
-34.51825
-34.47715
-34.56896
-34.62012
-34.60628
-34.8245
-35.44851
-36.28222
-37.72298
-39.5626
-41.78918
-44.87787
-48.68018
-53.09985
-57.75815
-63.41591
-69.11176
-75.0279
-80.96191
-86.8132
-93.02273
-98.63341
-103.0003
-106.3432
-108.6985
-110.158
-110.7248
-110.073
-108.1531
-105.1637
-101.8626
-98.93638
-96.60663
-94.9687
-93.95265
-93.10124
-92.22369
-92.26907
-91.58958
-91.70614
-105.9937
-76.1091
-78.25755
-80.58467
-79.62858
-72.94524
-72.08754
-71.43361
-71.34602
-71.94381
-71.7411
-71.61479
-72.31278
-72.06981
-71.51629
-72.21388
-74.81298
-77.43245
-77.64053
-80.57708
-88.78837
-97.01433
-104.6845
-111.7753
-117.101
-115.7671
-106.8425
-90.83409
-71.38156
-51.39159
-31.8458
-16.74771
-9.850422
-10.05313
-14.79114
-19.89718
-29.30243
-31.64631
-23.35022
-26.27054
-35.42179
-33.60198
-34.45011
-55.49231
-80.13684
-96.80295
-112.3709
-137.2492
-168.5219
-167.852
-98.7732
-77.97866
-77.73973
-79.85362
-80.09751
-73.28934
-72.13881
-71.48876
-71.37155
-71.94331
-71.74054
-71.61215
-72.3398
-72.05664
-71.48068
-72.1779
-74.78085
-77.3632
-77.59891
-80.63276
-88.95159
-97.50551
-105.5997
-112.4689
-117.7397
-116.2284
-107.1138
-90.96522
-71.35944
-51.37201
-31.89444
-16.86963
-10.22666
-10.55835
-15.61533
-20.95716
-29.32094
-30.77747
-23.47419
-27.67922
-36.43414
-34.26951
-37.48536
-60.26697
-83.68664
-99.55151
-115.4394
-140.3362
-167.1882
-150.7424
-63.07667
-48.81159
-37.0161
-28.02148
-18.93054
-9.229906
1.330078
12.38571
22.86488
30.99976
34.25047
32.29239
30.49433
28.07145
27.21449
28.47723
30.49536
28.3241
23.52134
24.84017
28.50273
29.48978
28.27606
25.24542
20.01011
14.56186
13.80094
19.47486
29.02257
35.63724
38.91778
36.1991
31.36102
26.44827
22.22197
18.4443
11.33257
-4.790481
-27.45654
-32.07759
-7.761537
9.511695
2.906729
-6.149015
-16.25091
-23.12419
-23.2218
-21.30383
-21.85049
-23.54599
-25.52265
-27.47284
-29.23683
-30.7447
-31.93855
-32.92319
-33.66012
-34.09843
-34.35213
-34.4729
-34.55043
-34.49309
-34.58916
-34.65212
-34.63505
-34.84559
-35.50068
-36.33267
-37.79475
-39.6707
-41.9034
-45.03227
-48.86979
-53.34127
-58.02058
-63.7336
-69.458
-75.38252
-81.33401
-87.21145
-93.43587
-98.96682
-103.2226
-106.5223
-108.835
-110.2189
-110.6475
-110.0005
-107.9839
-104.8998
-101.5747
-98.69356
-96.4248
-94.78028
-93.68819
-92.88528
-92.19789
-92.3241
-91.58041
-91.5383
-89.33969
-93.41896
-96.02409
-99.86666
-103.2654
-106.7333
-108.8157
-108.6802
-106.1416
-101.5299
-95.35792
-87.77691
-82.00345
-77.82704
-73.32221
-70.74874
-67.87886
-65.3587
-63.60811
-61.78914
-61.00633
-61.33304
-60.57379
-58.65285
-56.94354
-55.30502
-52.6858
-53.90901
-61.51466
-68.07361
-73.31442
-77.28877
-79.5261
-79.37572
-77.09803
-73.35434
-70.13819
-67.14943
-65.58274
-65.67376
-65.71673
-64.62692
-64.54792
-65.44373
-62.09593
-65.55973
-67.05734
-67.41609
-67.21968
-85.49496
-43.45224
-30.15806
-17.03762
-8.648293
-1.826606
3.842242
8.690073
13.03508
16.84414
20.25463
23.36734
26.20044
28.86243
31.38728
33.75672
35.95811
37.99396
39.96005
41.84447
43.64963
45.37281
47.01756
48.55987
50.08386
51.57446
53.0309
54.44393
55.76656
57.04334
58.3076
59.5596
60.79201
61.9632
63.09603
64.23268
65.34387
66.45136
67.53856
68.62038
69.67825
70.74043
71.76337
72.77872
73.77763
74.77533
75.75762
76.71884
77.6843
78.6723
79.66256
80.62223
81.56881
82.51165
83.48772
84.48456
85.4557
86.43583
87.43377
88.42719
89.43509
90.44987
91.47199
92.53618
93.68809
94.82745
95.93837
97.19593
98.50989
99.62078
100.4639
101.3097
93.21339
91.06312
91.07265
90.82526
90.23917
89.52844
88.73319
87.90606
87.11672
86.35886
85.55468
84.72427
83.89269
83.09164
82.3038
81.51318
80.70522
79.88764
79.09666
78.30846
77.49588
76.68061
75.8756
75.04301
74.22832
73.38311
72.49446
71.62202
70.76226
69.89432
68.99425
68.04236
67.1309
66.17848
65.17443
64.17591
63.169
62.10671
61.03134
59.94938
58.83421
57.64029
56.38973
55.14068
53.89116
52.57147
51.18897
49.7545
48.23289
46.64817
45.0086
43.29468
41.56073
39.66057
37.64042
35.54135
33.26638
30.89873
28.28883
25.46569
22.45822
19.19456
15.50155
11.36545
6.665989
1.384127
-4.778765
-12.38663
-21.49174
-35.87531
-48.96972
94.11129
91.49322
91.17597
90.89232
90.31002
89.60333
88.80582
87.97992
87.19873
86.44899
85.63839
84.80859
83.97522
83.17363
82.38305
81.59259
80.78305
79.95868
79.16789
78.37712
77.55906
76.74227
75.93805
75.09747
74.28805
73.44021
72.54302
71.67195
70.81045
69.94182
69.03394
68.09821
67.17148
66.21911
65.20966
64.21176
63.2025
62.129
61.05301
59.97326
58.86313
57.6607
56.39946
55.1503
53.90858
52.58123
51.19644
49.76438
48.23473
46.64527
44.99865
43.27815
41.56051
39.64407
37.61848
35.51689
33.22355
30.86951
28.23412
25.39825
22.3845
19.12082
15.40278
11.23124
6.52212
1.2063
-5.004371
-12.64128
-21.83685
-35.84466
-49.02066
-43.38813
-30.14842
-17.33573
-8.857494
-2.044484
3.670652
8.549027
12.91749
16.75651
20.16769
23.30032
26.1426
28.80585
31.34265
33.72634
35.94098
37.96702
39.93716
41.82818
43.6414
45.36811
47.02166
48.55776
50.08519
51.57889
53.03909
54.46387
55.78332
57.05878
58.32876
59.58352
60.81942
61.99228
63.12189
64.26444
65.37525
66.48785
67.57517
68.66127
69.74406
70.79244
71.81418
72.83352
73.83514
74.83722
75.82374
76.78438
77.75275
78.74816
79.74705
80.70585
81.65553
82.59997
83.57944
84.587
85.5591
86.54419
87.55076
88.54491
89.55518
90.57672
91.60803
92.67144
93.82738
94.9773
96.08889
97.35179
98.62523
99.64195
100.3776
100.7367
-89.37498
-93.11581
-95.67742
-99.49599
-102.8608
-106.6175
-108.822
-109.068
-106.7472
-102.2183
-96.13583
-88.68654
-83.05681
-78.72559
-73.66649
-71.03907
-68.08973
-65.43942
-63.82885
-61.9873
-60.80693
-60.82392
-60.40102
-58.79353
-57.1533
-55.76168
-53.14017
-54.23194
-61.74664
-68.3423
-73.62493
-77.63866
-79.88358
-79.69317
-77.37631
-73.44295
-70.15811
-67.05147
-65.50836
-65.64846
-65.7451
-64.66649
-64.58333
-65.31703
-62.2242
-65.93568
-67.08781
-67.11816
-68.09869
-79.23628
-63.61168
-49.03731
-38.53989
-29.53567
-20.44008
-10.80021
-0.3499031
10.68868
21.24742
29.77858
33.57385
32.11048
30.47401
27.93382
26.84537
27.871
30.11302
28.32989
23.20583
24.32559
28.28305
29.49375
28.31228
25.24253
19.89414
14.15633
13.03455
18.50487
27.54356
34.7336
39.21604
36.47688
31.66858
26.7141
22.34899
18.4016
11.35491
-4.591403
-27.43499
-32.65396
-9.336767
7.732526
2.066826
-6.544586
-15.76312
-22.09725
-22.72473
-21.55154
-22.18656
-23.78675
-25.69623
-27.59774
-29.32317
-30.82052
-31.98725
-32.96221
-33.70844
-34.1376
-34.38941
-34.49241
-34.59493
-34.51164
-34.61667
-34.70116
-34.68108
-34.87195
-35.57561
-36.3981
-37.88554
-39.81135
-42.04184
-45.22781
-49.10906
-53.65282
-58.34667
-64.13943
-69.90326
-75.85429
-81.81779
-87.72322
-94.00789
-99.49749
-103.6743
-106.9089
-109.1404
-110.451
-110.8845
-110.0581
-107.8479
-104.6185
-101.2539
-98.41852
-96.20418
-94.54359
-93.39742
-92.65852
-92.18189
-92.37996
-91.5467
-91.34792
-91.51053
-78.76034
-76.88431
-79.21831
-80.8706
-73.78073
-72.21702
-71.60073
-71.42649
-71.93952
-71.74158
-71.60683
-72.37747
-72.05292
-71.41884
-72.11187
-74.73259
-77.2995
-77.59776
-80.82268
-89.40954
-98.27864
-106.8743
-113.3394
-118.572
-116.8404
-107.6496
-91.35586
-71.49915
-51.63046
-32.30645
-17.34962
-10.88936
-11.19358
-16.75284
-22.11587
-28.66777
-28.72804
-23.41902
-29.36961
-37.75807
-35.88931
-42.93506
-66.71305
-88.16569
-103.1981
-119.25
-143.1013
-162.2282
-131.1768
-83.66518
-78.12186
-75.96993
-78.69111
-81.83078
-74.59358
-72.19725
-71.78191
-71.56545
-71.93544
-71.74543
-71.59505
-72.41858
-72.03825
-71.32419
-71.99993
-74.66311
-77.26954
-77.72027
-81.29673
-90.31415
-99.40277
-108.663
-114.4442
-119.8448
-117.9427
-108.7288
-92.08626
-71.54417
-52.19367
-33.26658
-18.3069
-11.95161
-11.95636
-18.06513
-23.20625
-27.25385
-25.64073
-23.36967
-31.16023
-39.14136
-39.50807
-50.73151
-74.46195
-93.67844
-107.8583
-123.3647
-143.6324
-152.5012
-111.1054
-62.38507
-48.41939
-39.39799
-30.93707
-22.16181
-12.78483
-2.579541
8.415282
19.04065
27.95226
32.39482
31.72543
30.32127
27.7265
26.39374
27.04932
29.35858
28.07031
22.73305
23.61954
27.92022
29.4359
28.36699
25.30302
19.73326
13.56163
11.97113
17.28578
25.70967
33.49662
39.48713
36.80536
32.04609
26.95158
22.39927
18.22306
11.26743
-4.116468
-26.7757
-32.31228
-11.05339
5.034682
0.6920566
-7.013307
-15.36833
-21.15203
-22.28418
-21.7857
-22.54409
-24.0737
-25.91863
-27.7719
-29.45215
-30.94817
-32.07787
-33.02777
-33.79375
-34.20739
-34.45792
-34.52696
-34.676
-34.5453
-34.66618
-34.78474
-34.76072
-34.90202
-35.68423
-36.49125
-38.00234
-40.01721
-42.25883
-45.49856
-49.41295
-54.058
-58.8623
-64.71919
-70.52856
-76.41071
-82.52799
-88.38773
-94.74552
-100.1316
-104.1408
-107.3004
-109.4509
-110.6796
-110.9693
-110.0312
-107.6544
-104.2996
-100.8958
-98.10748
-95.93741
-94.25425
-93.08448
-92.46198
-92.21041
-92.47076
-91.48244
-91.1883
-89.47303
-92.79401
-95.29806
-99.08241
-102.3713
-106.4663
-109.2587
-109.741
-107.6722
-103.2678
-97.21402
-89.77337
-84.2835
-79.91383
-74.11037
-71.43158
-68.33285
-65.38774
-64.03175
-62.27898
-60.61693
-60.3143
-60.25833
-59.0066
-57.39514
-56.30609
-53.7659
-54.80187
-62.22494
-68.77733
-74.09741
-78.15734
-80.41043
-80.20646
-77.81551
-73.56344
-70.21017
-66.92753
-65.41601
-65.55816
-65.76911
-64.6943
-64.78699
-65.24699
-62.54285
-66.66399
-67.43676
-66.6019
-67.79966
-72.5287
-43.09527
-29.92888
-17.57539
-9.039056
-2.297781
3.493447
8.421514
12.80097
16.65095
20.06727
23.2438
26.08099
28.73755
31.30115
33.69674
35.91062
37.92152
39.91358
41.81509
43.63997
45.36232
47.01899
48.55182
50.08123
51.57845
53.05103
54.47602
55.78784
57.07124
58.34296
59.58595
60.8242
62.01339
63.1371
64.28576
65.39377
66.51484
67.60492
68.6915
69.76497
70.81696
71.84219
72.8711
73.87435
74.87587
75.86082
76.82657
77.8029
78.79704
79.79378
80.75019
81.71002
82.65618
83.63873
84.65712
85.63208
86.62008
87.62779
88.62332
89.64716
90.67836
91.72146
92.77833
93.94763
95.12973
96.24605
97.50735
98.70947
99.58913
100.1465
100.0392
94.95436
92.1521
91.38685
90.9782
90.39069
89.69318
88.8805
88.04796
87.27892
86.54303
85.71366
84.87572
84.0366
83.24116
82.44573
81.6496
80.83749
80.00959
79.22664
78.43112
77.60377
76.78695
75.98407
75.1308
74.33343
73.47211
72.56655
71.69929
70.83917
69.97774
69.05688
68.10105
67.191
66.23401
65.21877
64.23477
63.23243
62.14643
61.069
59.98195
58.87874
57.67843
56.40907
55.14649
53.91553
52.58681
51.19395
49.76384
48.23342
46.64529
44.98936
43.24329
41.54664
39.61026
37.59935
35.49412
33.16356
30.84264
28.1713
25.3394
22.30048
19.03468
15.29955
11.09994
6.380524
1.027512
-5.235493
-12.88335
-22.11692
-35.58095
-48.69122
95.5655
92.92663
91.79125
91.17197
90.53869
89.86323
89.01275
88.14393
87.3963
86.70994
85.88075
85.01936
84.1384
83.35247
82.57916
81.77407
80.92916
80.0783
79.32414
78.53217
77.68504
76.87457
76.08291
75.19321
74.46248
73.56434
72.62579
71.77652
70.88367
70.05436
69.11876
68.19894
67.29777
66.30637
65.23453
64.25621
63.26398
62.18061
61.12972
60.03408
58.88241
57.68057
56.45842
55.18407
53.91891
52.61258
51.22179
49.74238
48.21524
46.64777
45.02953
43.26081
41.54178
39.52691
37.56205
35.49815
33.06984
30.80823
28.03871
25.29154
22.23816
18.85381
15.1005
10.88563
6.159389
0.7584702
-5.596492
-13.26972
-22.54497
-35.2229
-48.56403
-42.46115
-29.6571
-17.99625
-9.358952
-2.72199
3.326821
8.23994
12.58056
16.44754
19.9743
23.20097
25.9656
28.64917
31.26359
33.62171
35.83489
37.90598
39.93607
41.80599
43.63135
45.31999
46.99193
48.57161
50.05821
51.59172
53.07183
54.44907
55.81812
57.11534
58.34979
59.58121
60.88491
62.11367
63.17231
64.33674
65.44
66.58094
67.66856
68.74461
69.80743
70.89611
71.94195
72.96046
73.95853
74.94497
75.95983
76.94863
77.89682
78.86681
79.90889
80.9043
81.85098
82.79382
83.75773
84.80926
85.80932
86.74696
87.79643
88.82936
89.83532
90.86221
91.90975
92.95192
94.16543
95.4138
96.46634
97.64757
98.71583
99.44525
99.85754
99.34774
-89.60478
-92.48194
-94.94183
-98.56525
-101.8623
-106.0045
-109.3316
-110.6022
-108.9795
-104.8446
-98.86125
-91.45256
-85.91528
-81.39899
-74.84659
-71.9592
-68.65422
-65.31376
-64.44398
-62.76648
-60.34507
-59.68936
-60.12263
-59.31827
-57.61844
-57.10537
-54.69051
-55.86307
-62.99828
-69.48409
-74.86373
-78.96576
-81.14727
-80.94705
-78.60736
-73.7397
-70.25418
-66.74296
-65.28214
-65.40342
-65.72718
-64.85657
-65.06611
-65.00288
-62.3401
-67.93978
-67.68611
-65.83302
-66.15021
-65.97319
-60.67054
-47.70968
-40.61541
-32.94626
-24.62493
-15.63103
-5.597216
5.404394
16.34104
25.21269
30.63276
31.14456
30.00945
27.34221
25.84029
26.00477
28.06301
27.41959
22.40794
22.73486
27.59956
29.5576
28.61798
25.49195
19.67581
12.66731
10.4634
15.75093
23.33714
31.60228
39.52505
37.30405
32.24379
27.23752
22.55173
18.18485
10.98385
-2.651714
-23.91935
-29.67151
-12.27489
1.892058
-0.9999078
-7.555478
-14.90624
-20.24977
-21.94465
-22.03933
-22.91469
-24.38996
-26.17588
-27.97253
-29.58669
-31.05114
-32.16701
-33.10515
-33.93777
-34.30696
-34.55821
-34.57107
-34.79836
-34.59425
-34.74596
-34.91902
-34.89437
-34.92921
-35.8824
-36.6626
-38.18877
-40.37597
-42.64825
-45.89368
-49.82392
-54.60439
-59.69021
-65.5616
-71.4222
-77.052
-83.65037
-89.30098
-95.72766
-100.9799
-104.9536
-108.0904
-109.9669
-111.0176
-111.2331
-110.1262
-107.3425
-103.8142
-100.4092
-97.66642
-95.5535
-93.8602
-92.7165
-92.26494
-92.34218
-92.59698
-91.37342
-91.08332
-76.32318
-75.65914
-75.5523
-79.39246
-84.28882
-75.68762
-71.95322
-72.04919
-71.63286
-71.83577
-71.7175
-71.58838
-72.60496
-72.07848
-71.18721
-71.80535
-74.49331
-77.24484
-77.98758
-82.1122
-91.72517
-101.0728
-111.2946
-115.9946
-122.119
-119.9291
-110.9037
-93.4859
-72.06515
-53.39954
-35.19459
-19.80545
-13.513
-13.78186
-19.71575
-24.37277
-25.46474
-21.99262
-23.22225
-32.35533
-41.10306
-46.88766
-61.12665
-83.59741
-100.5924
-113.408
-126.2185
-138.5504
-136.7234
-93.26955
6.012055
1.46065
50.55473
53.11621
63.45377
38.55745
27.33038
52.94714
52.85111
22.25403
51.03712
58.33381
2.372456
52.31208
98.74643
53.59853
56.28641
52.68612
53.95195
54.98814
50.28599
53.97019
23.10248
53.81922
16.41879
53.56636
53.80928
51.1549
52.57103
46.81153
51.36864
51.41537
43.6004
13.14824
54.36707
17.13541
22.89286
55.00301
16.72116
53.94894
55.19925
1.741807
-32.74218
62.78517
54.91319
17.87335
5.531511
2.101302
8.484188
55.45544
52.62887
42.46071
52.35329
56.61933
54.09469
21.92692
52.47239
51.5257
51.81031
1.630187
75.9432
53.78415
35.06103
73.78856
55.68461
66.01895
29.50973
42.13048
54.72159
45.94865
46.8095
48.92522
54.56842
51.79612
53.59912
53.70187
53.33066
53.24241
9.560589
53.7799
52.21356
53.04654
51.51753
33.97249
60.6598
78.76731
56.44785
23.29323
49.00885
52.26295
54.84226
55.28743
53.73141
51.1638
22.18333
53.20997
53.85493
53.99791
27.02254
56.68902
50.16773
42.05662
55.46562
53.55741
50.37892
53.00998
52.16231
54.10901
51.42886
53.05108
22.3132
-35.83023
22.02771
46.7129
50.73153
17.77572
35.13759
25.26135
55.75192
50.61092
50.42728
49.08517
46.42531
106.1513
52.4797
50.54878
7.959628
60.4311
18.2457
39.3255
59.23027
55.67836
53.06505
51.22153
106.9369
20.80923
52.51665
14.27795
50.53146
55.01586
53.12195
55.62182
53.29736
51.79571
13.52514
56.06605
54.34962
52.54207
60.10633
25.32384
45.16999
79.88764
46.93459
52.871
56.17607
52.64472
77.10278
51.09375
10.57824
52.72695
50.52873
52.98376
52.61972
14.53097
55.47399
29.73716
55.34801
54.61799
29.83524
51.99716
68.8116
17.80818
21.7679
51.43841
48.21921
6.752473
49.27455
55.02489
37.93906
17.73104
53.81942
53.64318
50.22536
49.62733
51.49519
50.14422
54.16982
53.92674
55.36717
41.94576
52.41708
23.23045
53.16015
40.54104
36.00451
50.58414
42.18441
-7.429803
54.14812
50.80516
35.80054
54.1622
51.45887
57.00581
54.14689
49.20204
58.59961
52.21289
51.93666
54.58366
25.16728
54.90508
36.74223
53.91842
62.92237
21.37335
53.7291
43.3561
51.60545
53.4815
50.90613
52.37703
52.56305
59.95476
66.37054
36.22802
53.54302
21.50957
50.35823
51.69915
64.27956
52.68001
44.1855
54.02227
46.0397
45.70409
52.14423
53.85415
-41.52333
101.9346
50.39858
40.47772
79.7445
17.99778
66.35746
48.09039
49.30004
53.15214
52.46699
53.83776
53.83324
-99.72735
55.99085
52.3804
60.99086
50.42776
46.17436
51.584
43.15411
52.46578
52.41092
23.2941
50.3427
60.09629
54.40214
53.05748
75.93322
57.70955
52.72468
55.52551
50.91296
44.15515
43.17295
86.05326
55.49246
5.821425
53.95044
88.94425
54.18359
26.90268
53.63458
58.36391
49.00618
34.93285
55.60737
64.41622
52.78676
54.5224
54.84611
53.05626
52.63903
45.94233
24.42532
54.03318
54.77878
-20.05456
4.752482
4.76688
53.86934
53.67037
51.32486
13.14408
53.82119
58.69826
52.75122
12.2782
50.6195
54.00181
54.36088
58.70676
52.43503
58.30125
24.60611
58.5414
51.74986
49.2012
54.33377
53.9591
50.78739
46.62357
47.32985
53.50289
110.6698
55.18972
54.29617
52.04126
52.89716
54.69192
54.39334
57.29365
53.09164
18.65804
50.44163
52.72414
54.09344
97.35941
52.10266
20.87406
57.29546
-112.7467
54.07818
40.33018
51.88978
52.47467
53.33537
54.01603
59.20682
6.588947
-16.1478
46.94148
49.06826
51.11632
7.991462
50.60825
16.56396
19.69172
79.01867
-34.28344
40.4093
52.76284
51.18032
51.4766
63.20524
50.62949
31.47044
54.36822
50.98841
49.64413
52.57762
53.82259
54.07665
52.13853
53.54564
18.31665
53.85408
52.78714