/*--------------------------------*- C++ -*----------------------------------*\
| =========                 |                                                 |
| \\      /  F ield         | OpenFOAM: The Open Source CFD Toolbox           |
|  \\    /   O peration     | Version:  2406                                  |
|   \\  /    A nd           | Website:  www.openfoam.com                      |
|    \\/     M anipulation  |                                                 |
\*---------------------------------------------------------------------------*/
FoamFile
{
    version     2.0;
    format      ascii;
    arch        "LSB;label=32;scalar=64";
    class       surfaceScalarField;
    location    "1.2";
    object      phi;
}
// * * * * * * * * * * * * * * * * * * * * * * * * * * * * * * * * * * * * * //

dimensions      [0 3 -1 0 0 0 0];

oriented        oriented;

internalField   nonuniform List<scalar> 
326221
(
-0.001742012
-0.003152275
0.004894287
-0.0007730787
-0.000968933
0.0002634407
-0.001036519
-0.0005417045
0.0008051452
-0.0005339684
-7.73609e-06
-0.0002903808
-0.0002435876
-0.0001056634
-0.0001847174
0.0001517275
-0.0002573909
0.0002896498
-0.0001379224
0.0002706018
1.904804e-05
0.0002640777
6.524102e-06
0.0003379686
-7.389093e-05
0.0003619697
-2.400106e-05
0.0004499095
-8.793981e-05
0.0006754684
-0.0002255589
0.0008603486
-0.0001848802
0.0009591808
-9.883216e-05
0.0009638518
-4.671082e-06
0.00111745
-0.0001535984
0.001467605
-0.0003501547
0.00200909
-0.0005414854
0.002273815
-0.0002647251
0.002158637
0.0001151781
0.001224626
0.000934011
-0.0002398415
0.001464468
-0.001618496
0.001378655
-0.001252884
-0.0003656118
-7.12677e-05
-0.001181617
0.0004215622
-0.0004928299
0.00044842
-2.685781e-05
0.0002150153
0.0002334048
-0.0002941279
0.0005091431
-0.0007985643
0.0005044365
-0.0008221783
2.361397e-05
-0.0004497902
-0.0003723881
-0.0001131749
-0.0003366153
0.000288304
-0.0004014789
0.0008046437
-0.0005163396
0.001230063
-0.0004254189
0.001595085
-0.0003650222
0.001958267
-0.0003631822
0.002218819
-0.0002605522
0.002251701
-3.288154e-05
0.001960685
0.0002910154
0.001283774
0.0006769109
0.0002636414
0.001020133
-0.0005911535
0.0008547948
-2.919128e-06
-0.0005882343
0.0007739085
-0.0007768276
-0.001068238
0.001842146
-0.001062056
-6.181985e-06
-0.0007301808
-0.0003318747
-0.0004787796
-0.0002514012
-0.0002567458
-0.0002220338
-5.975183e-05
-0.000196994
0.0001569306
-0.0002166825
0.0004553806
-0.00029845
0.0009245674
-0.0004691868
0.001490852
-0.0005662851
0.001700852
-0.0002099998
0.0008795355
0.0008213167
-0.0005039284
0.001383464
-0.001154396
0.0006504679
-0.0006041919
-0.0005502045
-6.125764e-05
-0.0005429342
0.0002081859
-0.0002694436
0.00028028
-7.209409e-05
0.0002688453
1.143474e-05
0.0003727742
-0.0001039289
0.0007645406
-0.0003917664
0.001329535
-0.0005649949
0.001304937
2.459883e-05
0.0003139325
0.0009910041
-0.0005464796
0.0008604121
-0.000320752
-0.0002257276
0.0002730022
-0.0005937542
0.0007403945
-0.0004673923
0.0009664525
-0.000226058
0.0007643706
0.0002020819
0.0004602602
0.0003041103
0.0003626909
9.756937e-05
0.0003621136
5.772869e-07
0.0003238196
3.829397e-05
0.0002582597
6.555986e-05
0.0001524965
0.0001057633
4.269992e-05
0.0001097965
-4.554558e-05
8.82455e-05
-0.0001140994
6.855381e-05
-0.0001728457
5.874632e-05
-0.0002057675
3.292179e-05
-0.000252133
4.636553e-05
-0.000286508
3.437496e-05
-0.0002926736
6.165654e-06
-0.0002945997
1.926092e-06
-0.0002840407
-1.055906e-05
-0.000280986
-3.054663e-06
-0.0002846653
3.679305e-06
-0.0002571864
-2.74789e-05
-0.0002273819
-2.980455e-05
-0.0001866072
-4.077464e-05
-0.0001378208
-4.878645e-05
-8.971371e-05
-4.810706e-05
-3.521945e-05
-5.449426e-05
2.277037e-05
-5.798981e-05
9.17463e-05
-6.897593e-05
0.0001607602
-6.901392e-05
0.0002247871
-6.402692e-05
0.0003150968
-9.030964e-05
0.0004074485
-9.235176e-05
0.0005179446
-0.0001104961
0.0005638675
-4.592283e-05
0.0006894223
-0.0001255548
0.0007699611
-8.053877e-05
0.000849885
-7.992398e-05
0.0009237917
-7.390666e-05
0.00102894
-0.0001051486
0.001127772
-9.883132e-05
0.001209543
-8.177107e-05
0.001286353
-7.681026e-05
0.001339234
-5.288076e-05
0.0013905
-5.126623e-05
0.001441022
-5.052174e-05
0.001493041
-5.201886e-05
0.001521099
-2.805837e-05
0.001541619
-2.052022e-05
0.001541539
8.053263e-08
0.001520569
2.096964e-05
0.001476781
4.378785e-05
0.001431021
4.575978e-05
0.001376728
5.429366e-05
0.001306873
6.985441e-05
0.00122276
8.411316e-05
0.00112909
9.367026e-05
0.001026235
0.0001028552
0.0009120995
0.0001141352
0.0007971304
0.0001149691
0.0006761162
0.0001210142
0.0005357773
0.0001403389
0.0003817555
0.0001540218
0.0002293373
0.0001524182
9.103752e-05
0.0001382998
-2.463604e-05
0.0001156736
-0.0001237706
9.913457e-05
-0.0002168096
9.303901e-05
-0.0003187127
0.0001019031
-0.0004858134
0.0001671007
-0.0003163954
-0.000169418
0.0006252292
-0.0009416247
0.001100892
-0.0004756629
-0.002293975
0.003394867
-0.002360921
6.69458e-05
-0.002067388
-0.0002935329
-0.001831322
-0.0002360661
-0.00164381
-0.0001875117
-0.001496568
-0.0001472424
-0.001367645
-0.0001289226
-0.001256805
-0.0001108398
-0.001171496
-8.530927e-05
-0.001098464
-7.303192e-05
-0.00102437
-7.409394e-05
-0.0009859157
-3.845447e-05
-0.0009725562
-1.33595e-05
-0.0008808772
-9.167894e-05
-0.000632542
-0.0002483352
-0.0002886104
-0.0003439316
1.548629e-05
-0.0003040967
0.0002385729
-0.0002230866
0.0003883563
-0.0001497834
0.0004522117
-6.385546e-05
0.0003599436
9.226816e-05
0.000153834
0.0002061096
-1.696737e-05
0.0001708013
8.48529e-05
-0.0001018203
0.000309406
-0.0002245531
0.0004252051
-0.0001157991
0.0004508086
-2.560355e-05
0.0004457146
5.094058e-06
0.0004192477
2.646687e-05
0.0004024087
1.683897e-05
0.0004595012
-5.709247e-05
0.0005153439
-5.584269e-05
0.0003703261
0.0001450178
0.0001113139
0.0002590122
-8.334569e-05
0.0001946596
-0.0001492116
6.586587e-05
-0.0001796513
3.043977e-05
-0.0001267524
-5.289891e-05
-0.0001889232
6.217073e-05
-0.0002793365
9.041339e-05
-9.217333e-05
-0.0001871632
0.0001897937
-0.000281967
0.0004319185
-0.0002421248
0.0002116758
0.0002202427
6.886079e-06
0.0002047897
0.0007274672
-0.0007205811
0.0007838388
-5.637165e-05
-6.34962e-05
0.000847335
0.00145021
-0.001513706
0.002271378
-0.0008211685
-0.005951414
0.008222792
-0.006059601
0.0001081873
-0.005113042
-0.0009465593
-0.004773612
-0.0003394304
-0.004432261
-0.0003413505
-0.00418089
-0.0002513712
-0.003953654
-0.0002272359
-0.003757578
-0.0001960762
-0.003500033
-0.0002575449
-0.003366234
-0.0001337996
-0.00325383
-0.0001124037
-0.003150983
-0.0001028471
-0.003060029
-9.095356e-05
-0.002973129
-8.69002e-05
-0.00289036
-8.276914e-05
-0.002811462
-7.889733e-05
-0.002741741
-6.972162e-05
-0.002678796
-6.294438e-05
-0.002618427
-6.0369e-05
-0.002558625
-5.980271e-05
-0.002502858
-5.576649e-05
-0.002449663
-5.319535e-05
-0.002400839
-4.882365e-05
-0.002357714
-4.312508e-05
-0.002313022
-4.469188e-05
-0.002268333
-4.468931e-05
-0.002223012
-4.532089e-05
-0.002179881
-4.313156e-05
-0.002142641
-3.723945e-05
-0.002109233
-3.340829e-05
-0.002073715
-3.55175e-05
-0.002038557
-3.515823e-05
-0.002001684
-3.687284e-05
-0.001969999
-3.168487e-05
-0.001940357
-2.964251e-05
-0.001909053
-3.13043e-05
-0.001877462
-3.159064e-05
-0.001844866
-3.259592e-05
-0.001815786
-2.908005e-05
-0.001789189
-2.659702e-05
-0.001819747
3.055815e-05
-0.001806041
-1.370612e-05
-0.001787172
-1.88692e-05
-0.001768264
-1.890728e-05
-0.001751961
-1.630344e-05
-0.001734706
-1.725548e-05
-0.001719634
-1.507198e-05
-0.001706797
-1.283652e-05
-0.001694674
-1.212292e-05
-0.001679156
-1.551808e-05
-0.001663062
-1.609417e-05
-0.001651475
-1.158694e-05
-0.001643093
-8.381749e-06
-0.001638036
-5.056782e-06
-0.001629329
-8.70788e-06
-0.001617897
-1.143194e-05
-0.00161002
-7.876821e-06
-0.001603792
-6.227368e-06
-0.001595728
-8.064263e-06
-0.001590208
-5.519901e-06
-0.001581779
-8.429313e-06
-0.001568969
-1.281008e-05
-0.001551427
-1.754219e-05
-0.001524714
-2.671291e-05
-0.001472004
-5.270983e-05
-0.001402362
-6.964148e-05
-0.001330336
-7.202596e-05
-0.001246073
-8.426387e-05
-0.001149331
-9.674195e-05
-0.0009922902
-0.0001570404
-0.0007676398
-0.0002246504
-4.185375e-05
-0.0007257861
0.0006825254
-0.0007243792
0.0008865074
-0.000203982
0.000993336
-0.0001068286
0.001005782
-1.244627e-05
0.0009905034
1.527887e-05
0.0009929203
-2.416866e-06
0.001002479
-9.558959e-06
0.001005273
-2.793692e-06
0.001010761
-5.488566e-06
0.001028851
-1.808987e-05
0.001047128
-1.827705e-05
0.001062845
-1.571692e-05
0.001074722
-1.187676e-05
0.001087376
-1.265375e-05
0.001100708
-1.333254e-05
0.00111697
-1.626165e-05
0.001132006
-1.503639e-05
0.001143964
-1.195741e-05
0.001156989
-1.302497e-05
0.001173402
-1.641297e-05
0.001188292
-1.489056e-05
0.00120198
-1.368815e-05
0.001218286
-1.630531e-05
0.001231709
-1.342321e-05
0.001249695
-1.798608e-05
0.001269787
-2.009202e-05
0.001285859
-1.6072e-05
0.001298467
-1.260757e-05
0.001312278
-1.381169e-05
0.001328318
-1.603923e-05
0.001340562
-1.224399e-05
0.001311436
2.912555e-05
0.00133436
-2.292394e-05
0.001360685
-2.632525e-05
0.001386108
-2.542283e-05
0.0014111
-2.499162e-05
0.001437973
-2.687364e-05
0.001463021
-2.504762e-05
0.001485245
-2.222367e-05
0.001509297
-2.405256e-05
0.001535837
-2.654014e-05
0.001564645
-2.880759e-05
0.001589111
-2.446657e-05
0.001611869
-2.275706e-05
0.001635848
-2.397975e-05
0.00166215
-2.630174e-05
0.001688833
-2.668331e-05
0.0017184
-2.956661e-05
0.001748572
-3.017207e-05
0.001778284
-2.971218e-05
0.001808795
-3.051039e-05
0.001836253
-2.745803e-05
0.00186958
-3.332755e-05
0.001903558
-3.397829e-05
0.001938093
-3.453492e-05
0.001975302
-3.720866e-05
0.00201351
-3.820777e-05
0.002055373
-4.18633e-05
0.002100769
-4.539552e-05
0.00214568
-4.491174e-05
0.002194351
-4.867041e-05
0.002249604
-5.525298e-05
0.002318361
-6.875745e-05
0.002471155
-0.0001527936
0.002565793
-9.463828e-05
0.00267171
-0.0001059174
0.002787216
-0.0001155058
0.00292963
-0.0001424142
0.003071268
-0.0001416372
0.003371788
-0.0003005201
0.0002195127
0.0009331274
1.333689e-05
-0.001670844
0.001303055
-0.0005739099
0.001543553
-0.0003473259
0.00171142
-0.0001803138
0.001827589
-0.0001008896
0.001923919
-9.874675e-05
0.002004125
-8.976505e-05
0.002065012
-6.368062e-05
0.002115196
-5.567281e-05
0.002166903
-6.979734e-05
0.002215122
-6.649583e-05
0.002262382
-6.297701e-05
0.002308598
-5.809236e-05
0.002358448
-6.25035e-05
0.002409612
-6.449707e-05
0.00246401
-7.065998e-05
0.002516394
-6.741982e-05
0.002565264
-6.082783e-05
0.002612242
-6.000243e-05
0.002660351
-6.452268e-05
0.002706566
-6.110554e-05
0.00275147
-5.859175e-05
0.002798657
-6.349242e-05
0.002843462
-5.822768e-05
0.002892104
-6.662866e-05
0.002942193
-7.018071e-05
0.00299098
-6.485879e-05
0.00303651
-5.813833e-05
0.003083265
-6.056618e-05
0.003130602
-6.337639e-05
0.0031751
-5.674161e-05
0.003145893
5.833231e-05
0.00320105
-7.80812e-05
0.003258465
-8.374028e-05
0.003315527
-8.248465e-05
0.003372234
-8.169855e-05
0.003429531
-8.417093e-05
0.00348597
-8.148654e-05
0.003539347
-7.560062e-05
0.003594388
-7.909358e-05
0.003649436
-8.158825e-05
0.003707296
-8.666733e-05
0.003760981
-7.81516e-05
0.003814403
-7.617913e-05
0.003867316
-7.689257e-05
0.003922136
-8.112208e-05
0.003976466
-8.101323e-05
0.004033054
-8.615415e-05
0.004090247
-8.736535e-05
0.00414695
-8.641541e-05
0.004205026
-8.858585e-05
0.004259969
-8.240091e-05
0.004319939
-9.329764e-05
0.004378865
-9.290471e-05
0.004439778
-9.544809e-05
0.004501109
-9.853922e-05
0.004564473
-0.0001015723
0.004629319
-0.0001067092
0.004697754
-0.0001138303
0.00476524
-0.0001123982
0.004836405
-0.0001198345
0.004911885
-0.0001307332
0.004999095
-0.0001559679
0.005224861
-0.0003785592
0.005341473
-0.0002112509
0.005472539
-0.0002369832
0.005609385
-0.000252352
0.005785116
-0.0003181445
0.005917492
-0.0002740132
0.006299995
-0.000683023
0.005335826
0.001183682
-0.009292114
0.00874678
0.0006535217
-0.008299781
-0.001938893
-0.007952515
-0.0006866957
-0.007583502
-0.0007103633
-0.007310078
-0.000524796
-0.007058081
-0.000479232
-0.006842781
-0.0004113767
-0.006503681
-0.0005966448
-0.006348106
-0.0002893742
-0.006211687
-0.000248823
-0.006083469
-0.0002310653
-0.005966425
-0.0002079978
-0.005852714
-0.0002006108
-0.005744603
-0.0001908807
-0.005639178
-0.0001843223
-0.005542848
-0.0001660516
-0.005450435
-0.0001553569
-0.00536234
-0.0001484639
-0.005274044
-0.000148099
-0.005190712
-0.0001390986
-0.005108824
-0.0001350833
-0.005031192
-0.0001264553
-0.004957635
-0.0001166824
-0.00488357
-0.0001187569
-0.004810733
-0.0001175257
-0.004737647
-0.0001184073
-0.004667391
-0.0001133879
-0.004600263
-0.0001043669
-0.004536844
-9.682729e-05
-0.004470577
-0.0001017852
-0.004406481
-9.925338e-05
-0.004339968
-0.0001033865
-0.004278031
-9.362162e-05
-0.004216118
-9.155563e-05
-0.004153503
-9.39194e-05
-0.004090222
-9.487149e-05
-0.004026337
-9.648123e-05
-0.003964722
-9.069454e-05
-0.003903756
-8.756332e-05
-0.00393746
6.426211e-05
-0.003888719
-6.244697e-05
-0.003838895
-6.869352e-05
-0.003787732
-7.006946e-05
-0.003739062
-6.497379e-05
-0.003687895
-6.842301e-05
-0.003638331
-6.463589e-05
-0.003588183
-6.298459e-05
-0.003537859
-6.244637e-05
-0.003483821
-6.955632e-05
-0.003428953
-7.096233e-05
-0.003375565
-6.497461e-05
-0.003321758
-6.218926e-05
-0.003267863
-5.895158e-05
-0.003208394
-6.817687e-05
-0.003145249
-7.45767e-05
-0.003080669
-7.245654e-05
-0.003013146
-7.375059e-05
-0.002938356
-8.285443e-05
-0.002860296
-8.357942e-05
-0.002772882
-9.58435e-05
-0.002676744
-0.000108948
-0.002571373
-0.0001229132
-0.002455437
-0.0001426489
-0.002316486
-0.0001916611
-0.002164145
-0.0002219829
-0.002005446
-0.000230725
-0.001821946
-0.0002677632
-0.001605674
-0.0003130143
-0.001338819
-0.0004238955
-0.0009498111
-0.0006136581
-0.00166226
-0.00309965
0.002598541
0.0005680547
-0.002878719
-0.0005144638
-0.00258027
-0.000534515
-0.002341438
-0.0004263441
-0.00214507
-0.0003436096
-0.001968899
-0.0003050936
-0.001815444
-0.0002642953
-0.001712917
-0.0001878363
-0.001691457
-9.44922e-05
-0.001747699
-1.785136e-05
-0.001829924
4.377069e-05
-0.001790649
-5.263485e-05
-0.001533453
-0.0003488745
-0.00111142
-0.0006703689
-0.0006368232
-0.0008185282
-0.0002114046
-0.0007295153
6.433394e-05
-0.0004988252
0.0002217921
-0.0003072416
0.0001642674
-6.330675e-06
-0.0001019566
0.0003584922
-0.0003198558
0.0004240088
-0.0002925099
0.0001434554
4.571242e-05
-0.0004400426
0.0003942216
-0.0005730623
0.0005927751
-0.0003143526
0.000674404
-0.0001072324
0.0007193207
-3.982267e-05
0.0007454844
3.031566e-07
0.0007673026
-4.979201e-06
0.0008567872
-0.000146577
0.001018074
-0.0002171298
0.0009878859
0.0001752062
0.0005451748
0.0007017233
-2.096773e-05
0.0007608021
-0.0002008431
0.0002457413
-0.0002270514
5.664803e-05
-0.0002393178
-4.063247e-05
-0.000369739
0.0001925919
-0.0004133667
0.0001340411
-8.397221e-05
-0.0005165577
0.0003076827
-0.000673622
0.0007223072
-0.0006567493
0.0004446465
0.0004979034
0.0001033172
0.000546119
0.001004892
-0.001622156
0.00134841
-0.0003998892
0.001327968
0.0008677772
0.002526959
-0.002712697
0.0005475199
0.00115827
0.01751709
-0.001677087
0.001428352
0.0002425521
-0.001383532
-0.0006254292
-0.001028413
-0.0006065203
-0.0007670612
-0.0004833856
-0.0005375266
-0.0004265285
-0.0002928219
-0.0004613872
7.637405e-05
-0.0006676459
0.0006153886
-0.001008201
0.001346941
-0.001297838
0.001923576
-0.0007866346
0.001618932
0.001125961
2.433307e-05
0.002978063
-0.001509399
0.0021842
-0.001171619
-0.000887985
-0.0006471117
-0.001067441
-0.0004004094
-0.0005161458
-0.0003290357
-0.0001434678
-0.0003632008
4.559983e-05
-0.0002849166
-0.0001822131
0.0001770102
-0.0008536933
0.0008506836
-0.001238668
0.001322118
-0.0004468354
0.0007040366
0.001609085
-0.0004690555
0.002033504
-0.000774558
7.97749e-05
-0.0005481472
-0.000820165
-0.0002366278
-0.0007789117
0.0002925116
-0.0007551974
0.0006529064
-0.0001583128
0.0004148751
0.0005421416
-0.0001787642
0.0006912087
-0.0006589983
0.0004808113
-0.0009793487
0.0003586444
-0.001179276
0.0002654875
-0.00139902
0.0003255069
-0.00159812
0.000308897
-0.001735472
0.000225597
-0.001822692
0.0001557736
-0.001877809
0.0001138639
-0.001894538
4.965018e-05
-0.001904319
5.614638e-05
-0.001893747
2.380336e-05
-0.001850038
-3.754333e-05
-0.001794444
-5.366786e-05
-0.001726141
-7.886172e-05
-0.001655442
-7.375377e-05
-0.001581614
-7.014932e-05
-0.001482907
-0.0001261859
-0.001381498
-0.0001312129
-0.001270835
-0.0001514383
-0.001153537
-0.0001660841
-0.001033927
-0.0001677176
-0.0009061094
-0.0001823115
-0.0007744499
-0.0001896493
-0.0006306052
-0.0002128206
-0.0004884469
-0.0002111723
-0.000346913
-0.0002055608
-0.0001740618
-0.0002631608
-1.266819e-05
-0.0002537454
0.0001580407
-0.0002812049
0.0002842318
-0.000172114
0.0004815363
-0.0003228593
0.0006255652
-0.0002245677
0.0007719443
-0.000226303
0.0009247906
-0.000226753
0.001107706
-0.000288064
0.001259884
-0.0002510097
0.001393767
-0.0002156538
0.001534436
-0.0002174795
0.001642653
-0.0001610972
0.001747567
-0.0001561808
0.001855186
-0.0001581398
0.001969155
-0.000165988
0.002050972
-0.000109876
0.002118618
-8.816604e-05
0.002159004
-4.030568e-05
0.002179553
4.206639e-07
0.00217484
4.850131e-05
0.002169138
5.146158e-05
0.002154922
6.850924e-05
0.002121369
0.0001034074
0.002069698
0.0001357844
0.00200559
0.0001577785
0.001926096
0.0001823495
0.001825593
0.0002146375
0.001714495
0.0002260674
0.001592807
0.0002427021
0.001451004
0.0002821425
0.001285317
0.0003197079
0.00109747
0.0003402656
0.0008950954
0.0003406744
0.0006861328
0.0003246362
0.0004692074
0.00031606
0.0002280217
0.0003342246
-3.979432e-05
0.0003697192
-8.98224e-05
0.0002171288
0.0002348306
-0.000494071
0.0008593204
-0.001566114
0.0009046316
-0.0005209742
0.00689804
-0.001066748
0.01129686
-0.001574638
-0.0004610439
-0.0008267479
-0.001784409
-0.001169829
0.001148227
-0.000863552
-0.0003140136
-0.0005434903
-0.0005636493
-0.0002533862
-0.0004748215
0.0001142281
-0.0006250051
0.0003643895
-0.0003880838
0.000429211
-4.577348e-05
0.0004714415
-3.570642e-05
0.0005922664
-0.0001947158
0.0006634079
-9.514257e-05
0.0007803961
-0.000204928
0.001048182
-0.0004933445
0.001383485
-0.0005201837
0.001728213
-0.0004435603
0.001879608
-0.0001560661
0.00203726
-0.0003112499
0.002355837
-0.0006687321
0.002908039
-0.001093688
0.003206248
-0.0005629338
0.00322936
9.206661e-05
0.002586643
0.001576728
0.0001620924
0.003889018
-0.002182521
0.003723268
-0.001299193
-0.001248939
7.60029e-05
-0.002556813
0.0005634544
-0.0009802814
0.0005423169
-5.72027e-06
-0.0003301755
0.001105897
-0.001408441
0.001587409
-0.001694318
0.0007903129
-0.001343849
-0.0003268545
-0.0007827349
-0.0009335026
-0.0003075434
-0.0008118068
0.0002572094
-0.0009662317
0.0009374847
-0.001196615
0.001508428
-0.0009963617
0.001998455
-0.0008550501
0.002487706
-0.0008524332
0.002869289
-0.0006421351
0.003080477
-0.0002440696
0.003061104
0.0003103892
0.002633117
0.001104898
0.001479155
0.002174094
6.17727e-05
0.002272178
-5.855896e-05
-0.0004679027
0.0003583649
-0.001193751
0.003628863
0.0002420141
-0.007207301
0.01826215
-0.002001994
0.001782964
-0.001685443
-0.00210096
-0.001672005
0.001134789
-0.0011138
-0.0008722192
-0.0007573416
-0.0009201074
-0.0004062895
-0.0008258736
5.653258e-06
-0.001036948
0.0003059189
-0.0006883495
0.0003962305
-0.000136085
0.0004529227
-9.23986e-05
0.000596535
-0.0003383281
0.0007020472
-0.0002006549
0.0008401652
-0.000343046
0.001130187
-0.0007833658
0.001519404
-0.0009094008
0.002030668
-0.0009548251
0.002406053
-0.0005314506
0.002724935
-0.0006301319
0.003067123
-0.00101092
0.00359912
-0.001625684
0.003899555
-0.0008633689
0.003788718
0.0002029037
0.003319221
0.002046224
0.0006734509
0.006534788
-0.002443252
0.00683997
-0.001542494
-0.002149697
-8.225185e-05
-0.004017054
0.0002728614
-0.001335395
-0.0002462833
0.0005134244
-0.001640591
0.002500205
-0.002422879
0.002369697
-0.002214109
0.0005815435
-0.00167808
-0.0008628837
-0.001010001
-0.001601582
-0.0004169713
-0.001404836
0.0002768897
-0.001660093
0.001104766
-0.002024491
0.00180456
-0.001696156
0.002398165
-0.001448655
0.002982802
-0.00143707
0.003450001
-0.001109335
0.003728643
-0.0005227111
0.003715375
0.0003236565
0.003394978
0.001425296
0.002490568
0.003078504
0.0009279156
0.00383483
0.0002106653
0.0002493477
6.143042e-05
-0.001044517
-0.001894812
0.005585106
-0.00229123
0.0006389693
-0.002071265
-0.0008453935
-0.001751907
-0.0009258785
-0.001494711
-0.0007405818
-0.001256902
-0.0006643371
-0.0009632688
-0.0007550208
-0.0004913989
-0.001139516
0.0002514366
-0.001751037
0.001182215
-0.002228616
0.001898149
-0.001502568
0.001864659
0.001159451
0.0004510706
0.004391651
-0.001430182
0.004065453
-0.001705258
-0.0006129092
-0.001594319
-0.001178381
-0.001605662
-0.0005048028
-0.001652691
-9.643824e-05
-0.001642768
3.567653e-05
-0.001391275
-0.000433706
-0.000790651
-0.001454317
-7.852402e-05
-0.001950795
0.0005802088
-0.001105568
0.0004375442
0.00175175
-0.0007193318
0.00319038
-0.00177551
0.001135954
-0.002166412
-0.0004292636
-0.001989591
-0.0009557325
-0.001559904
-0.001184884
-0.001286511
-0.0004317059
-0.001582292
0.0008379222
-0.002251642
0.001360559
-0.002754128
0.0009832975
-0.003018902
0.0006234189
-0.003084703
0.0003312885
-0.003174
0.0004148036
-0.003229751
0.0003646478
-0.003232033
0.0002278795
-0.003198039
0.0001217797
-0.003142995
5.882028e-05
-0.003062741
-3.060466e-05
-0.002981319
-2.527516e-05
-0.002886933
-7.058261e-05
-0.002777752
-0.000146724
-0.002666934
-0.0001644867
-0.002545071
-0.0002007241
-0.002420619
-0.0001982061
-0.002292336
-0.0001984321
-0.002141538
-0.0002769842
-0.001992805
-0.0002799456
-0.00183525
-0.0003089932
-0.001672427
-0.0003289074
-0.001507195
-0.0003329489
-0.001332697
-0.0003568098
-0.001155098
-0.0003672484
-0.0009658217
-0.0004020968
-0.0007776457
-0.0003993482
-0.000588699
-0.0003945075
-0.0003680224
-0.0004838375
-0.0001665193
-0.0004552485
3.858168e-05
-0.000486306
0.0002178098
-0.0003513421
0.0004566907
-0.0005617402
0.0006380245
-0.0004059016
0.0008261361
-0.0004144145
0.001028818
-0.0004294348
0.001253747
-0.0005129928
0.001437241
-0.0004345041
0.001607742
-0.0003861548
0.001785505
-0.0003952425
0.001921274
-0.000296866
0.002055617
-0.000290524
0.002198834
-0.000301357
0.002346009
-0.000313163
0.002449094
-0.0002129607
0.002529827
-0.0001688994
0.002579353
-8.983147e-05
0.002607797
-2.802308e-05
0.00261022
4.607837e-05
0.002613232
4.844912e-05
0.00260464
7.710172e-05
0.002572096
0.0001359506
0.002520742
0.0001871389
0.002458893
0.0002196271
0.00238253
0.0002587126
0.002283122
0.0003140458
0.002172703
0.0003364866
0.00205442
0.0003609849
0.001925449
0.0004111133
0.001782582
0.0004625753
0.001617625
0.0005052226
0.00142825
0.000530049
0.001216403
0.0005364833
0.0009799162
0.0005525466
0.0007114642
0.0006026767
0.0004693899
0.0006117935
0.0004003195
0.0002861992
0.000707421
-0.0008011725
0.001172342
-0.002031035
0.0005648815
8.648622e-05
-0.003119513
0.01058243
-0.003892494
0.001341036
-0.003661617
-0.0007453402
-0.003312092
-0.0008840403
-0.00299369
-0.0007447465
-0.00273637
-0.0006009297
-0.002508423
-0.0005330399
-0.002310183
-0.000462535
-0.002166558
-0.0003314617
-0.00212159
-0.0001394599
-0.002186383
4.694098e-05
-0.002285123
0.0001425108
-0.002208842
-0.0001289159
-0.001885411
-0.0006723049
-0.001400886
-0.001154895
-0.0008668615
-0.001352552
-0.0003897268
-0.00120665
-0.000130825
-0.000757727
-0.0001205996
-0.0003174669
-0.000349794
0.0002228637
-0.0006102005
0.0006188987
-0.0005708847
0.000384693
-0.0003303696
-9.705972e-05
0.000102114
-0.0008725262
0.000521898
-0.0009928463
0.0007662483
-0.000558703
0.0008649634
-0.0002059475
0.0009076518
-8.251106e-05
0.0009253299
-1.737495e-05
0.0009461528
-2.580211e-05
0.001035855
-0.0002362796
0.001233275
-0.0004145491
0.001360236
4.824479e-05
0.0009645997
0.00109736
0.0001509883
0.001574413
-0.0002096582
0.0006063878
-0.0002486389
9.562877e-05
-0.000284935
-4.336391e-06
-0.0004332882
0.0003409451
-0.0004472258
0.0001479787
-4.468479e-05
-0.0009190987
0.0004279377
-0.001146244
0.0009559609
-0.001184773
0.0006982795
0.0007555849
0.0002928499
0.0009515486
0.0013346
-0.002663906
0.001759522
-0.0008248112
0.002069342
0.0005579574
0.00258006
-0.003223416
-0.001422106
0.005160437
-0.01093444
0.02702942
-0.01140817
0.001127257
-0.01041571
-0.002931361
-0.009975343
-0.001127059
-0.00956353
-0.001122177
-0.009257812
-0.0008305142
-0.008979207
-0.0007578366
-0.008746332
-0.0006442521
-0.008356861
-0.0009861154
-0.008186163
-0.0004600722
-0.008032666
-0.0004023204
-0.007887682
-0.0003760492
-0.007754178
-0.0003415013
-0.007623587
-0.0003312022
-0.007499174
-0.0003152935
-0.007376827
-0.0003066688
-0.007263759
-0.00027912
-0.007153617
-0.0002654987
-0.007048157
-0.0002539241
-0.006941863
-0.0002543934
-0.006840907
-0.0002400546
-0.006740711
-0.0002352785
-0.006644487
-0.0002226798
-0.006552045
-0.0002091241
-0.006458819
-0.000211983
-0.006367265
-0.0002090799
-0.006275255
-0.0002104175
-0.006185993
-0.0002026497
-0.006098882
-0.0001914782
-0.00601531
-0.0001803993
-0.005927909
-0.0001891858
-0.005843475
-0.0001836875
-0.005755602
-0.0001912594
-0.005672391
-0.0001768325
-0.00558815
-0.0001757963
-0.005502955
-0.0001791142
-0.005416881
-0.0001809462
-0.005329568
-0.0001837937
-0.005243072
-0.0001771912
-0.005154526
-0.0001761087
-0.005179068
8.880349e-05
-0.005099891
-0.0001416239
-0.005026558
-0.0001420262
-0.004950075
-0.0001465522
-0.004876479
-0.0001385703
-0.004799217
-0.0001456848
-0.004723515
-0.0001403377
-0.004646351
-0.0001401484
-0.004568807
-0.0001399912
-0.004486857
-0.0001515056
-0.004403846
-0.0001539732
-0.004322095
-0.0001467263
-0.004238882
-0.0001454016
-0.00415541
-0.000142424
-0.004065722
-0.0001578653
-0.003972323
-0.0001679754
-0.003878422
-0.0001663569
-0.003782024
-0.000170149
-0.003678207
-0.0001866714
-0.003572764
-0.0001890221
-0.003458365
-0.0002102429
-0.00333671
-0.0002306027
-0.003206892
-0.0002527311
-0.003067656
-0.0002818856
-0.00290318
-0.0003561371
-0.002726607
-0.0003985556
-0.002545862
-0.00041147
-0.002333952
-0.0004796738
-0.002081388
-0.0005655783
-0.001748109
-0.0007571745
-0.001141839
-0.001219928
-9.567475e-06
-0.002794532
0.001112823
-0.002793233
0.001697482
-0.00115857
0.002024593
-0.0006744371
0.002262172
-0.0004178928
0.002439914
-0.0002786315
0.002591662
-0.0002504948
0.00271987
-0.0002179732
0.002823963
-0.0001677736
0.002916007
-0.0001477169
0.003011614
-0.0001654037
0.003102467
-0.0001573487
0.003190107
-0.000150617
0.00327126
-0.0001392452
0.003351574
-0.0001428178
0.003428692
-0.0001416157
0.00350707
-0.0001490377
0.003582052
-0.0001424015
0.003652797
-0.0001315734
0.00372076
-0.0001279654
0.003789505
-0.0001332678
0.003855889
-0.0001274894
0.003920216
-0.0001229186
0.003986848
-0.000130124
0.004049743
-0.0001211234
0.004116365
-0.0001332503
0.00418399
-0.0001378059
0.004251018
-0.0001318865
0.004314589
-0.0001217093
0.004379887
-0.0001258643
0.004444954
-0.0001284433
0.004512063
-0.0001238503
0.004481626
8.876876e-05
0.004558684
-0.0001551389
0.004636679
-0.0001617359
0.00471347
-0.0001592749
0.004789505
-0.0001577341
0.004865651
-0.0001603164
0.00494117
-0.0001570059
0.00501311
-0.0001475406
0.005086756
-0.000152739
0.005159065
-0.0001538976
0.005234729
-0.0001623315
0.005305692
-0.0001491144
0.005376982
-0.000147469
0.005446956
-0.0001468667
0.005518774
-0.0001529398
0.005589368
-0.0001516079
0.005662031
-0.0001588171
0.005735064
-0.0001603982
0.005807248
-0.0001585994
0.005881292
-0.0001626295
0.005951257
-0.000152366
0.006026473
-0.0001685143
0.006099356
-0.0001657873
0.006174582
-0.0001706743
0.006249199
-0.000173156
0.006325755
-0.000178128
0.006402741
-0.0001836957
0.006483167
-0.0001942565
0.006561877
-0.0001911077
0.006643777
-0.0002017344
0.006729505
-0.0002164616
0.006823185
-0.0002496481
0.007089532
-0.0006449056
0.007212719
-0.0003344376
0.007354668
-0.0003789327
0.007503613
-0.000401297
0.007698612
-0.0005131437
0.007850154
-0.0004255551
0.00826251
-0.001095379
0.002238891
0.001213413
-2.07777e-06
-0.004004568
0.001976003
-0.00192116
0.002397283
-0.001095717
0.002706107
-0.0007267164
0.00295165
-0.000524175
0.003164547
-0.0004633919
0.003346298
-0.0003997241
0.00349825
-0.0003197254
0.003632721
-0.0002821878
0.003767548
-0.0003002304
0.003894218
-0.0002840186
0.004015484
-0.0002718829
0.00412741
-0.0002511721
0.004236101
-0.0002515081
0.004339501
-0.0002450161
0.004443085
-0.0002526219
0.0045429
-0.0002422162
0.004637642
-0.0002263152
0.004729321
-0.0002196439
0.004821266
-0.0002252131
0.004910111
-0.0002163346
0.004995845
-0.0002086525
0.005083595
-0.0002178739
0.005165552
-0.0002030806
0.005250913
-0.0002186109
0.005336219
-0.0002231125
0.005420026
-0.0002156935
0.005499617
-0.0002013002
0.005580464
-0.0002067114
0.005660255
-0.0002082335
0.005744868
-0.000208464
0.005708011
0.0001256266
0.005800651
-0.0002477797
0.005895366
-0.0002564503
0.005987632
-0.0002515416
0.006078884
-0.0002489854
0.006170158
-0.0002515909
0.006260508
-0.0002473558
0.00634668
-0.0002337124
0.006434687
-0.0002407457
0.006520715
-0.0002399264
0.006610635
-0.0002522513
0.006694954
-0.0002334332
0.006779796
-0.0002323106
0.006862992
-0.0002300635
0.006948059
-0.0002380065
0.007031477
-0.0002350258
0.007117279
-0.0002446189
0.00720326
-0.0002463792
0.007288215
-0.0002435548
0.007375511
-0.0002499256
0.007457503
-0.0002343578
0.007546068
-0.0002570786
0.007631046
-0.0002507654
0.007718735
-0.0002583635
0.0078057
-0.0002601216
0.007894201
-0.0002666287
0.007983373
-0.0002728677
0.008075943
-0.0002868264
0.008166232
-0.0002813965
0.00825985
-0.0002953525
0.008358134
-0.000314746
0.008640382
-0.0005318959
0.008777227
-0.0007817509
0.008914381
-0.0004715908
0.009076293
-0.0005408455
0.009251676
-0.0005766796
0.009477826
-0.0007392937
0.009687779
-0.0006355086
0.01006024
-0.001467838
0.009122697
0.003176432
-0.01358322
0.01340708
0.001303402
-0.0126361
-0.003878486
-0.01203203
-0.001731122
-0.01154269
-0.001611516
-0.0111706
-0.001202604
-0.01083889
-0.001089554
-0.01056494
-0.0009182008
-0.01031213
-0.001238922
-0.009897887
-0.0008743177
-0.009716587
-0.0005836206
-0.009544669
-0.0005479664
-0.009386403
-0.0004997675
-0.009231395
-0.0004862106