/*--------------------------------*- C++ -*----------------------------------*\
| =========                 |                                                 |
| \\      /  F ield         | OpenFOAM: The Open Source CFD Toolbox           |
|  \\    /   O peration     | Version:  2406                                  |
|   \\  /    A nd           | Website:  www.openfoam.com                      |
|    \\/     M anipulation  |                                                 |
\*---------------------------------------------------------------------------*/
FoamFile
{
    version     2.0;
    format      ascii;
    arch        "LSB;label=32;scalar=64";
    class       volScalarField;
    location    "0.06";
    object      p;
}
// * * * * * * * * * * * * * * * * * * * * * * * * * * * * * * * * * * * * * //

dimensions      [0 2 -2 0 0 0 0];

internalField   nonuniform List<scalar> 
4529
(
-3.787866e-07
-1.252841e-07
1.74312e-07
6.869698e-08
-8.444199e-07
-4.691662e-08
-1.53522e-06
1.052918e-07
-1.038244e-06
-2.660058e-08
-5.415202e-07
-3.47374e-08
-4.224873e-08
-5.208711e-08
-1.632712e-07
-3.282712e-07
1.932906e-07
-1.237584e-06
-3.059165e-07
5.363978e-07
-9.829032e-07
-3.11791e-07
-5.823574e-07
-3.663672e-07
-9.857719e-08
1.929463e-07
-7.535857e-10
-6.268095e-07
6.239145e-08
-1.013474e-07
-6.529775e-07
-3.82626e-07
6.422315e-09
2.518138e-08
-3.704677e-07
-1.031747e-06
-5.066011e-08
-1.919177e-07
-2.377506e-08
3.126101e-08
-2.121027e-08
-7.903956e-08
-2.154387e-07
-4.397136e-07
-8.858802e-08
-6.477234e-08
-2.474437e-07
-2.36443e-07
-4.099401e-07
-1.124074e-06
-1.868486e-07
-2.527552e-08
-2.676165e-07
1.163714e-07
1.16221e-07
4.526286e-07
-8.594627e-09
-5.388446e-07
-7.757823e-07
-7.240314e-07
9.47635e-08
-1.961006e-07
-1.400585e-06
-5.041792e-07
2.023819e-08
-2.042639e-07
2.337964e-08
-1.155506e-07
-1.719653e-07
-1.082011e-06
-6.461426e-07
2.458492e-08
-2.379155e-07
1.058911e-07
-3.25448e-07
4.159253e-08
3.465778e-08
-2.197033e-07
-1.93191e-07
2.103986e-07
-6.632346e-07
2.86221e-08
-7.258577e-07
-2.229205e-08
-9.29341e-07
-1.40849e-06
-5.94783e-07
-5.1772e-07
4.068383e-08
7.231659e-08
-2.554989e-07
-5.445984e-07
-2.155743e-07
-3.333367e-07
-9.741118e-07
-1.783659e-06
-1.160383e-06
-8.309162e-07
-3.354723e-07
-5.305382e-07
-2.197783e-07
-1.159834e-07
-3.413209e-09
-7.349435e-07
-5.470131e-07
-1.21018e-07
-2.254205e-07
6.624393e-08
-1.977898e-07
-5.061572e-07
6.015388e-09
-2.684965e-07
-1.286296e-06
-5.590748e-07
1.785633e-07
-5.27617e-08
-2.757289e-07
-4.665541e-07
-1.28489e-06
-1.478829e-07
-1.365368e-07
7.630119e-09
-6.740079e-08
-2.385124e-07
7.293705e-08
-1.483135e-06
-2.884247e-08
-5.556887e-08
-5.541319e-08
-1.166676e-07
-6.121902e-08
-2.587561e-07
-2.174082e-07
-5.37653e-07
-6.803596e-07
1.252714e-08
-5.201953e-08
-1.387617e-06
-1.297412e-07
1.003978e-08
1.905586e-08
2.786451e-08
-6.195969e-07
4.080256e-08
-1.389841e-08
3.180357e-07
-9.394055e-07
-1.260077e-06
-1.843662e-07
-1.296763e-06
-1.25159e-08
-1.172078e-07
3.668952e-08
-1.698729e-07
-1.410586e-06
-9.5259e-07
-8.342448e-09
-6.867238e-08
2.508298e-07
2.296242e-09
-1.897474e-08
-9.760233e-08
-4.429347e-07
-2.593133e-07
-1.007556e-07
-4.517536e-07
-1.260303e-06
2.169295e-07
-7.218093e-07
1.263431e-07
-7.749438e-08
-5.929659e-07
-1.673972e-06
-1.014872e-07
-4.526734e-07
-7.461899e-07
6.793682e-08
-2.927985e-07
-8.9562e-08
-1.277718e-06
-5.032202e-08
-3.536088e-07
-2.790405e-07
1.023954e-07
-2.118993e-07
3.571438e-07
4.129839e-07
-2.262888e-07
-1.894324e-07
-1.162159e-06
-1.881275e-07
-1.917032e-07
6.765032e-08
-3.39947e-07
-3.290871e-07
-2.642493e-07
-6.227605e-07
6.856498e-09
-2.226369e-07
-3.209405e-07
-2.027418e-07
-2.135281e-07
-2.012713e-07
-4.242828e-07
1.407091e-07
-3.2526e-07
-2.539135e-07
-1.629863e-07
4.306943e-08
-1.515628e-06
-1.373641e-06
-8.45703e-08
-3.970154e-07
-9.093591e-07
-1.063057e-07
-1.035652e-07
-1.220179e-06
-5.902808e-07
-1.515167e-06
-9.488999e-07
1.507329e-10
-8.004875e-07
-9.710919e-08
1.570073e-07
-7.943266e-07
-5.342497e-07
-4.062141e-07
-5.819416e-07
-2.494313e-07
-2.874586e-07
-1.613611e-06
-1.963274e-07
4.521193e-08
-5.133701e-07
-1.679182e-07
-1.487761e-07
5.63651e-09
-1.016305e-07
-4.408648e-07
-5.229693e-08
1.722245e-08
-5.202417e-07
1.88682e-09
-4.961245e-07
-5.077833e-07
-5.987321e-07
-4.419023e-07
-1.564996e-06
-1.13192e-07
-1.145933e-07
-2.701543e-07
-2.866948e-07
-1.228667e-06
3.459097e-08
-7.024235e-07
3.683318e-09
-1.389526e-08
-1.491354e-07
-6.496277e-08
-8.682156e-07
-3.479228e-07
-1.874958e-07
-5.925095e-07
-1.924676e-08
3.998706e-08
1.922709e-09
-3.125493e-08
-2.262506e-07
-2.083697e-07
-1.027894e-07
-6.940943e-07
-5.8147e-07
-1.695567e-07
-4.779459e-07
4.714412e-08
-9.098555e-07
-3.905832e-07
-2.410034e-08
-4.543678e-07
8.02332e-08
7.207955e-08
2.882702e-08
4.902286e-08
-3.28259e-09
2.251883e-07
-9.516597e-07
-3.761963e-08
-3.321419e-07
-4.054603e-07
7.156311e-07
-1.183297e-06
9.822842e-07
-5.78513e-08
8.585449e-08
-6.376951e-08
-4.126606e-07
-3.578663e-07
-1.499876e-08
-1.41981e-06
-1.194751e-06
-6.290672e-08
-5.942488e-07
-6.202169e-07
-6.109964e-07
-3.896881e-07
5.577931e-07
-1.220822e-07
-1.588893e-06
-7.070471e-07
-1.500855e-07
1.892236e-07
-1.116724e-07
-1.060824e-06
-3.60156e-07
-3.519103e-07
-1.269611e-07
-5.792731e-09
-7.269517e-07
-9.978429e-07
1.821848e-07
-4.276214e-08
1.021583e-07
-1.881311e-07
-2.027946e-07
-6.159278e-08
-3.88031e-08
-6.355213e-07
-2.051349e-07
-1.999526e-07
-2.955795e-07
-3.028721e-07
-3.2546e-08
-3.36902e-08
-4.71535e-07
-7.759612e-09
-8.031923e-08
7.350856e-08
-1.605844e-07
-3.901758e-07
-3.077919e-08
-9.762902e-08
-1.573582e-06
-1.235628e-06
-2.971028e-07
-4.408914e-07
-2.345626e-07
-3.205877e-08
-4.429691e-08
-1.117318e-06
6.364762e-08
7.560653e-08
4.467399e-08
-1.654212e-06
-1.053101e-07
-1.754157e-09
9.242278e-07
-5.344178e-08
-1.637848e-07
3.027614e-08
-1.78469e-07
1.175053e-07
-5.349756e-07
-3.337508e-07
-9.659667e-07
-6.66417e-07
-1.246385e-07
-1.214856e-07
-3.620048e-07
1.300163e-07
-9.947196e-07
-3.701959e-07
-9.891871e-07
-3.50007e-07
1.199209e-07
1.968607e-07
-7.461177e-07
-4.825805e-07
8.722414e-08
5.257307e-08
-2.29369e-07
-2.817499e-07
8.34038e-07
1.001515e-07
-3.663835e-08
-1.496027e-07
-6.454177e-08
-3.836276e-08
-1.833157e-07
-6.540632e-07
1.767256e-07
-9.830211e-07
-2.146832e-07
-2.947277e-07
8.170321e-09
2.328663e-07
-1.212631e-07
3.53161e-07
-1.12442e-07
-6.1939e-08
-9.280027e-09
-1.455477e-07
-2.170437e-08
-2.36077e-07
-1.574611e-07
-1.535071e-06
2.049095e-07
-4.706647e-08
-3.090458e-07
4.807923e-08
-6.476714e-07
-1.174578e-07
-4.400923e-07
-8.573891e-07
2.262804e-07
-2.468159e-07
-1.151578e-07
5.541087e-08
-9.768391e-08
1.04536e-06
-1.664689e-07
-1.315998e-07
-8.883489e-08
-5.186216e-08
3.106882e-08
-7.943648e-08
2.319862e-07
-1.455619e-06
3.526319e-07
-1.273863e-06
-1.252603e-06
-1.488015e-07
-7.588626e-07
-3.314088e-08
-6.452531e-07
1.04137e-07
-6.355876e-08
-7.215192e-07
-2.099139e-07
-2.231381e-07
4.959218e-08
1.428645e-08
-4.087225e-08
-6.16224e-08
-8.230272e-08
-3.454131e-07
-2.256927e-08
-1.054108e-06
-9.910861e-07
-5.930478e-08
-1.64093e-07
-2.034643e-07
-2.30865e-07
-1.244227e-07
-1.490816e-07
-9.974405e-08
-2.838528e-07
-2.480842e-07
-1.412067e-07
-1.248228e-07
-2.722038e-07
-5.979828e-08
-2.133889e-07
-2.089082e-07
-1.22501e-07
-7.465735e-07
-3.126005e-07
-1.18812e-06
1.163936e-07
-1.91155e-08
5.131449e-08
-2.579673e-07
-3.029802e-08
-2.939706e-08
1.885779e-07
-3.196876e-07
-9.003223e-07
-1.088186e-06
-1.229929e-06
4.637377e-08
1.47894e-07
-3.254978e-07
2.953302e-08
3.853991e-08
-6.447003e-07
1.737506e-08
-1.364562e-06
-2.56828e-07
-1.637109e-07
-1.476018e-06
-3.945543e-08
-1.015792e-07
9.489511e-08
7.301279e-08
-4.243448e-07
-5.537609e-07
-7.54388e-07
-8.161159e-07
-1.00913e-06
2.388869e-08
2.117295e-08
-2.582571e-07
-1.289034e-06
-9.666678e-08
-3.51481e-08
-1.245683e-08
5.24347e-08
-1.977468e-07
-1.812543e-07
-2.784425e-08
-1.289655e-06
-2.879546e-07
-1.092863e-07
-1.727629e-07
-4.620904e-07
-3.9014e-07
-9.054292e-07
-2.535389e-07
-1.40986e-07
-2.30853e-07
-7.078125e-07
8.273726e-07
-8.416461e-07
-3.190535e-07
1.135582e-06
2.263878e-07
8.328666e-08
2.506945e-07
-4.318615e-07
-4.145984e-07
-3.666044e-07
-8.353558e-07
-9.349668e-07
-8.828863e-07
-1.288766e-07
-8.279534e-08
3.752647e-08
-4.038845e-08
-8.226764e-08
-1.164708e-07
-7.25806e-08
2.299503e-08
-1.36862e-07
-2.765633e-07
-5.510111e-08
2.274864e-08
2.004378e-07
-8.114943e-08
-2.572493e-07
-8.174689e-07
-4.638768e-07
-3.886209e-07
-4.218333e-07
-3.61464e-07
-3.426706e-07
9.000614e-08
6.126665e-08
-4.846664e-07
-1.323231e-06
-6.189298e-07
-5.364551e-07
-4.367037e-08
-8.28953e-08
-3.284531e-07
-6.288567e-07
-5.532481e-08
-3.442688e-07
-3.057787e-07
-2.884235e-07
-2.307833e-07
3.024699e-08
-3.302091e-07
-3.11444e-07
-7.075362e-08
-8.809722e-07
1.657721e-07
-4.72185e-07
-1.6541e-07
-1.347845e-06
6.261374e-07
-3.099247e-07
-6.632412e-08
-3.402031e-08
-8.219058e-07
-2.291027e-07
-7.604357e-07
-1.033611e-08
1.985963e-08
2.323571e-08
-1.152348e-06
-1.585165e-07
-4.896071e-08
8.822931e-09
-4.860032e-08
-1.117499e-07
-1.292141e-07
-1.294296e-07
1.641629e-07
1.168279e-07
3.064542e-07
-1.095786e-06
-1.001145e-06
-3.167364e-08
3.706033e-07
-4.626766e-07
1.379715e-07
-1.189133e-08
-1.975005e-09
2.466587e-07
-1.841104e-07
1.697846e-07
-2.004938e-07
3.145444e-07
-1.579455e-06
-5.323778e-07
3.044573e-08
-7.424359e-07
-2.027412e-08
-2.905294e-08
-1.620235e-07
6.545195e-07
-1.209536e-07
-1.044616e-06
-6.429596e-07
-4.260497e-07
-5.417556e-07
-4.193027e-07
-3.405961e-07
4.225649e-07
4.899817e-08
-2.791709e-07
5.30417e-07
-8.790704e-08
-4.104846e-07
-2.247749e-07
2.939416e-08
-1.484158e-07
-7.886636e-08
-2.047139e-07
-3.369274e-07
-1.879772e-07
-2.612708e-07
7.506544e-08
1.506145e-07
7.987895e-07
-8.224588e-07
6.818387e-08
-1.585781e-07
-8.929661e-07
6.40972e-08
3.647763e-08
1.42681e-07
-8.637729e-07
-4.32115e-07
-3.858968e-07
-4.165089e-07
-8.675467e-07
-8.279187e-08
-9.303106e-10
3.57707e-09
-7.493092e-07
-8.271385e-07
-2.905322e-07
-8.286273e-07
-8.269156e-07
-8.000089e-07
3.33093e-08
-1.508848e-06
1.300017e-07
-1.383741e-07
-7.293721e-08
-1.464076e-07
-9.996827e-07
-4.424773e-07
3.193627e-08
-9.401291e-08
7.984611e-08
-3.809111e-08
1.775931e-08
1.821053e-08
2.190622e-08
-8.573729e-07
-1.724435e-07
-4.466324e-07
-1.686761e-07
-1.647529e-07
-1.440465e-07
-4.377496e-07
-3.209231e-09
4.026514e-08
-1.122661e-06
7.958873e-08
1.90819e-07
6.029639e-08
3.425478e-08
5.269169e-08
-2.611271e-07
1.980601e-08
-1.992191e-07
-4.254363e-07
-1.768118e-07
-3.662644e-07
-2.086895e-07
-5.263364e-07
-1.100125e-07
-5.149383e-07
3.006872e-07
-2.503159e-07
-4.210029e-07
1.319308e-09
-7.236212e-07
-5.28678e-07
-4.773271e-07
-2.613808e-07
-2.598954e-07
-5.834702e-07
-5.800713e-07
-3.007487e-07
-1.267648e-07
-6.04843e-08
-4.88364e-07
-3.693742e-07
-8.587877e-08
-3.178184e-07
-1.172975e-06
-3.742325e-07
-1.394529e-06
-2.614902e-07
-1.171074e-08
-8.753407e-09
-1.033446e-07
-1.53209e-07
-1.317684e-07
-1.34709e-07
-1.593825e-07
5.542271e-07
-7.238019e-07
-2.99651e-07
-1.026985e-06
1.067006e-07
3.594507e-08
6.210366e-08
6.565503e-08
-1.33643e-07
-1.684519e-07
2.075429e-07
1.591576e-07
-1.098505e-07
-1.209012e-08
-6.667212e-07
-7.296668e-07
-6.614936e-07
9.456424e-09
1.341179e-07
-2.70818e-08
-1.895727e-08
-8.559702e-09
-8.480666e-08
-1.182406e-07
-7.456811e-08
-9.998878e-08
-1.60823e-07
6.735054e-08
-4.701225e-07
-2.619055e-08
4.411313e-08
-8.927438e-07
-4.910664e-07
-3.814822e-07
7.914012e-09
2.345058e-08
1.924895e-08
9.638702e-08
-4.138611e-08
-2.486578e-08
-6.481461e-08
-1.12096e-07
2.391001e-07
-6.525439e-07
-7.780813e-07
-1.456615e-06
-1.201522e-06
-1.6235e-07
-5.528873e-07
-6.229392e-07
-5.44597e-07
-4.123828e-07
-1.309789e-06
-9.809291e-07
-1.302317e-06
-1.166103e-06
-1.394745e-06
-1.652134e-06
-7.010262e-07
-7.273203e-07
-7.560492e-07
-6.380936e-07
-6.311856e-08
-6.863306e-08
-4.544023e-08
-1.112705e-07
-1.020983e-08
-1.03927e-06
-1.00391e-06
-5.126684e-08
-1.01528e-07
-6.596839e-08
-1.084081e-07
-6.675748e-07
-4.442784e-08
-6.723932e-08
-2.277801e-08
-2.061194e-07
2.638682e-09
-7.359013e-07
-5.550647e-07
-8.98513e-08
-1.046853e-07
-6.721135e-07
-6.927252e-07
-5.102364e-07
-5.781582e-07
-4.778813e-07
1.283212e-07
3.17734e-08
-5.004613e-07
-3.261441e-07
2.969891e-07
-4.091941e-07
-6.342216e-08
8.776498e-08
-3.946216e-07
4.876298e-07
-1.433898e-08
-3.683947e-08
-1.495183e-06
7.254276e-09
7.508426e-08
-4.912992e-08
3.868078e-07
2.801765e-08
-5.426768e-07
5.01253e-08
-1.380421e-06
-1.119314e-07
-8.060044e-08
5.6005e-07
-1.460437e-07
-2.021304e-07
-3.356724e-07
-4.021173e-07
-6.433889e-07
-6.042323e-07
-4.284467e-09
-6.502638e-07
-3.450687e-07
-1.394299e-06
4.567696e-08
-1.103079e-07
-2.204266e-07
-9.225746e-07
-6.583102e-07
-6.463473e-07
-8.048632e-07
-7.485129e-08
-1.652158e-08
-1.15524e-08
-1.001392e-06
2.804076e-07
3.160696e-08
1.151511e-07
-3.79814e-07
-4.406272e-07
-7.869681e-07
-8.61572e-08
-1.131959e-06
-8.918469e-07
-2.407159e-07
-1.656381e-06
-6.336846e-07
-6.880385e-07
4.428649e-08
-7.565062e-07
-1.317681e-06
-5.455455e-07
-4.891765e-09
-2.524137e-07
4.074905e-08
-2.830745e-07
-6.73377e-07
-5.422244e-07
-5.877778e-07
-5.876365e-07
-6.224714e-08
-6.645179e-07
-4.641646e-07
-3.753593e-08
-5.331367e-07
-1.19659e-08
-5.291425e-07
-7.828777e-08
-3.324033e-07
-2.770769e-08
-1.549035e-07
-1.692855e-07
-2.253994e-07
5.408099e-08
-3.968842e-08
-2.107624e-07
-1.169156e-06
8.262932e-08
-3.485574e-07
-7.181298e-08
-3.971515e-07
-4.260743e-07
-7.992497e-07
3.147934e-07
-1.279718e-07
-1.220824e-07
-1.67395e-07
-1.368744e-07
-1.157308e-06
-4.793442e-08
-2.250036e-08
-9.122542e-09
2.00677e-08
-4.426969e-07
-2.353487e-07
-2.702134e-07
-6.15949e-07
1.307803e-08
1.239744e-07
-7.569205e-07
-8.316726e-07
-1.809268e-07
-1.335543e-07
-1.437598e-07
-1.188503e-07
-1.625084e-07
-7.342875e-07
-1.374852e-06
-2.339918e-07
-4.589259e-08
-5.085913e-08
3.672811e-09
-8.466669e-07
-9.67609e-07
-8.310324e-07
-8.999019e-07
-1.075849e-06
-1.059622e-06
-6.141032e-07
-1.031528e-06
-9.158031e-07
-1.132669e-06
-7.847207e-07
-2.211098e-07
-1.481082e-07
-2.088535e-07
4.607102e-07
2.646302e-07
-5.955894e-07
-5.667542e-07
-3.516928e-07
-9.767211e-07
1.09846e-07
-5.222138e-07
-4.816322e-07
-4.366654e-07
-1.257322e-06
-6.882901e-07
-1.701292e-09
4.415993e-09
-2.447903e-08
-4.784091e-08
5.234918e-08
-1.016955e-07
1.11012e-07
-5.532993e-07
-6.981568e-08
-6.101829e-08
-4.446084e-08
-4.306346e-08
-9.163825e-08
-1.735017e-07
-2.367249e-07
-1.395767e-07
-1.526729e-07
-6.812083e-08
-6.13172e-08
-1.07682e-07
-8.544532e-07
-7.14196e-07
-4.636379e-07
-5.140406e-07
-2.094409e-07
3.041481e-07
2.470247e-07
-1.555338e-06
2.859836e-08
-2.362563e-07
-5.340501e-07
-5.462735e-07
-3.200355e-07
-4.01114e-07
-3.240739e-07
3.271675e-08
-9.445801e-08
-7.762001e-07
-2.756467e-07
-2.817369e-07
-3.439501e-07
5.301997e-07
3.998549e-08
-1.419292e-07
-1.695386e-07
7.736059e-08
-6.615385e-08
-3.423583e-07
-3.351002e-07
4.651593e-07
-1.743643e-06
3.839062e-08
-2.496164e-07
-2.365305e-07
1.096006e-08
-9.903516e-07
2.491854e-07
-7.503241e-07
-1.657929e-07
-9.177717e-07
-5.680975e-07
-3.904261e-07
-8.185002e-08
-9.946745e-08
6.206515e-09
-4.972364e-07
-3.894103e-07
-4.295298e-07
-5.496585e-07
-5.95725e-08
-1.106234e-06
-7.739341e-07
-8.717506e-07
-3.183246e-08
-6.160793e-08
-3.772373e-07
-3.190274e-07
-5.346388e-07
-5.908406e-09
-2.638964e-08
-3.152785e-07
5.552721e-07
-4.47945e-07
2.374143e-07
-3.545517e-08
-1.962782e-08
-6.943008e-08
-1.006401e-07
-3.789781e-07
-3.015783e-07
1.41037e-07
-2.811896e-07
-2.788554e-07
-2.011637e-07
-8.171907e-08
-4.083576e-08
-2.435595e-08
3.949117e-07
-1.460878e-06
6.4131e-10
-1.843618e-08
-6.061343e-08
-2.986944e-08
-8.875086e-07
-4.501581e-07
-3.01035e-07
2.323988e-07
-1.535645e-07
-1.607144e-07
-1.360709e-07
-3.122372e-08
-8.168406e-08
-6.047369e-08
-1.537386e-06
-1.424924e-06
-1.318542e-06
-1.298042e-06
-1.165002e-06
-1.178871e-06
-1.467377e-06
1.321951e-07
6.331709e-08
-6.768732e-07
4.239179e-07
4.362314e-07
-4.399979e-07
-7.493687e-07
4.033475e-08
-3.904026e-07
-3.320934e-07
-4.185535e-07
-4.259474e-07
-4.575646e-07
-4.463893e-07
2.480264e-07
1.242538e-07
2.793263e-07
-1.145051e-06
-3.689965e-07
-4.63216e-07
-3.834471e-07
-3.146032e-07
-4.383161e-07
-8.479402e-07
-9.178595e-07
3.145614e-08
6.653416e-08
6.169956e-08
-3.579712e-07
-3.666027e-07
-3.872537e-07
-3.894476e-07
-2.392017e-07
-8.57725e-08
-1.5754e-06
-2.706295e-07
-2.959392e-07
5.372754e-08
-5.29279e-07
-6.085391e-07
-5.366558e-07
-4.051337e-08
-9.892115e-08
-4.28764e-08
-1.660758e-07
4.233568e-07
-4.418367e-08
1.697573e-07
1.545695e-07
-1.977489e-07
-7.909778e-07
-8.466287e-07
-6.204662e-07
-6.740648e-07
-8.000588e-07
-3.242571e-07
-2.084335e-07
-9.80365e-08
3.59583e-08
-2.679082e-07
-2.296519e-07
-7.42928e-07
-9.518706e-07
-5.367612e-07
-5.548326e-08
2.531196e-08
-1.597491e-06
4.493356e-08
6.241002e-08
7.306006e-08
7.227041e-08
-6.080511e-07
-2.607215e-07
-5.065247e-08
-3.422566e-07
-1.248797e-07
-2.382397e-07
-4.81829e-07
-1.785799e-07
-1.437161e-07
-7.441171e-08
-8.230537e-08
3.686985e-07
-1.135861e-06
-1.087937e-06
1.254989e-08
3.745867e-07
-1.210695e-06
2.263085e-08
-5.595117e-08
-1.037108e-08
-1.576525e-07
-3.621311e-07
-4.45761e-07
1.993398e-07
-2.627994e-07
-2.385557e-07
-7.580505e-08
-1.860627e-07
-1.709047e-06
-1.793858e-06
-4.484468e-07
-3.483475e-07
1.231675e-08
2.134308e-07
2.225837e-07
1.031451e-06
-1.132465e-06
-4.940233e-07
-8.508531e-09
-5.439202e-07
-5.120024e-09
-7.827518e-07
5.437979e-08
-1.283517e-07
-1.261851e-07
-5.756415e-08
-1.61596e-06
9.433222e-08
-1.278653e-06
1.385746e-08
1.063007e-08
-8.27578e-09
-2.485654e-07
2.712853e-07
-1.217165e-06
-1.212315e-06
-9.291218e-07
-4.050439e-07
-3.729099e-07
-5.383467e-08
-7.17325e-08
-3.950352e-08
-2.308079e-07
-1.783594e-07
-5.935888e-08
1.424468e-07
1.976802e-07
-3.46589e-07
-2.089259e-07
-3.180973e-09
-3.357939e-07
-4.561256e-08
3.570164e-07
-2.035624e-07
-2.654869e-07
-2.298447e-07
-3.53444e-08
-6.758508e-08
-3.17743e-07
-2.863784e-07
-1.014067e-06
4.917166e-07
5.078339e-07
-9.9324e-07
-1.440162e-06
2.748818e-07
-6.179368e-07
-2.157809e-07
-1.063486e-07
-2.752795e-08
-5.13559e-07
-4.57313e-07
-2.530983e-07
-1.736394e-07
2.311296e-07
2.41545e-08
-1.127265e-06
-7.367212e-08
-1.141684e-07
-1.010424e-06
3.293776e-07
-2.069032e-07
-1.028973e-07
3.098807e-07
-1.23777e-06
-1.341132e-06
-1.313894e-06
-3.093215e-07
-1.069434e-07
-1.254131e-07
-2.4566e-07
-2.190771e-07
2.115214e-07
-1.421397e-07
-1.11398e-06
-5.551495e-07
-1.576997e-06
-2.935486e-07
4.032961e-07
-8.052672e-07
1.553394e-07
-4.613487e-07
-4.536938e-07
1.07017e-07
8.953243e-08
-5.64412e-08
-5.25608e-08
-1.73873e-06
6.875145e-07
-1.001549e-06
-1.650856e-06
-5.921064e-08
-9.151146e-08
-3.862078e-07
5.259115e-08
-9.630765e-07
-3.620657e-08
-3.593369e-08
-3.077028e-07
-6.095406e-07
8.795719e-08
-1.172742e-07
-2.948905e-08
-1.480719e-07
-1.383929e-07
-2.733152e-07
-7.17243e-07
-6.131635e-07
-1.073842e-07
-1.227549e-07
-9.781709e-08
3.204162e-08
-3.289599e-08
-7.9596e-07
-8.00363e-07
-4.877407e-07
-5.094509e-07
-5.192119e-07
-7.794991e-07
-1.394079e-07
-1.3532e-07
-1.751876e-06
-1.224388e-07
5.576819e-08
-8.330276e-07
-7.16733e-08
-4.260857e-07
-3.389805e-07
-3.145309e-07
-2.393887e-07
-2.040897e-07
-5.277204e-07
3.261422e-08
-7.905914e-07
-1.517886e-06
2.577165e-09
-5.827443e-07
-6.528519e-07
-5.966461e-08
-1.409746e-06
1.315129e-07
4.031133e-07
-4.911259e-08
-2.525752e-07
3.246328e-09
-3.933972e-07
-2.321497e-07
-1.852926e-08
-1.015969e-07
-4.663626e-08
-5.576723e-08
-1.747853e-06
-8.021634e-07
-3.263763e-07
-4.382605e-08
-1.206214e-07
-1.903051e-07
-6.03334e-08
-6.068016e-08
-6.267969e-07
-3.51418e-07
3.1298e-07
-4.818036e-08
-3.819204e-08
-1.28852e-07
2.309028e-08
-5.241952e-08
2.187175e-08
-5.329121e-07
-1.099147e-06
-2.018537e-08
-2.698731e-07
-5.722315e-07
-2.285753e-07
3.245239e-08
-5.689726e-07
-4.880924e-07
-4.215057e-07
-4.425706e-07
-2.303653e-07
-1.292187e-07
-9.201177e-08
-1.607144e-08
7.765148e-07
-2.984416e-08
5.649056e-07
6.028881e-07
2.207268e-09
-1.405344e-07
-1.384443e-07
-1.090075e-07
-2.825473e-08
-1.788837e-08
-2.773298e-07
-3.613972e-07
-1.672481e-07
-7.997793e-09
-5.544115e-07
2.463983e-08
-1.382439e-07
-7.269686e-08
-6.188461e-07
-2.034254e-07
1.383924e-07
-1.236384e-06
-1.020707e-06
-6.190702e-08
-2.576687e-08
-6.807328e-07
-7.806634e-07
-9.641507e-07
-1.542385e-06
-1.998255e-07
1.665209e-09
-3.385692e-08
-4.342914e-08
-1.182818e-07
3.580633e-08
1.015984e-07
9.288189e-08
4.699128e-08
5.215537e-08
-1.282444e-07
-8.822183e-08
7.549662e-08
1.471439e-07
-7.56003e-08
-1.450314e-07
-2.917554e-07
-1.430014e-07
-1.062271e-07
-1.147488e-07
-1.138119e-07
-3.232536e-07
-1.333096e-06
-3.804533e-08
-3.398158e-08
-2.072571e-08
-2.958031e-07
4.530092e-07
-9.372625e-07
-9.372674e-07
-2.918379e-08
6.383432e-09
-4.707539e-09
-3.161519e-08
-7.199639e-08
-7.456381e-08
-7.564301e-07
2.078776e-08
-9.842333e-08
-1.378238e-07
-2.258891e-07
-2.250269e-07
-1.926285e-07
-2.274528e-07
-1.964949e-07
-1.781651e-07
-8.051516e-08
-7.674379e-08
-2.826063e-08
4.567436e-08
7.633855e-08
2.300175e-07
-7.480258e-08
-1.040022e-07
-1.115831e-07
-1.349613e-07
-3.624056e-09
-1.845994e-07
-2.931685e-07
-1.676166e-07
-1.275453e-06
-9.666211e-08
-1.943832e-08
-8.589762e-07
-3.785549e-07
-3.237486e-07
-2.69288e-08
-2.488663e-08
-5.436666e-07
-5.572853e-07
1.070643e-06
-2.773931e-07
1.025675e-07
4.284884e-08
-3.977419e-07
-6.632636e-09
2.940684e-09
-1.164903e-08
-4.966819e-08
-7.351409e-07
-7.013857e-07
-2.669002e-07
-1.026337e-06
-3.888983e-07
-7.734948e-07
7.302299e-07
7.07945e-07
-2.299946e-07
-1.44439e-07
-1.594069e-06
5.63699e-08
4.368636e-08
-3.483621e-07
-3.090178e-07
5.752381e-08
3.634268e-08
-3.287373e-08
7.318728e-08
8.281377e-08
-7.928425e-08
-3.428811e-07
-5.956997e-07
-9.891987e-07
1.822133e-07
1.740988e-07
1.986751e-07
1.389402e-07
5.914833e-08
9.909832e-08
-4.766252e-07
-5.735636e-07
-6.522091e-07
-7.583402e-07
9.178696e-09
5.309137e-07
-2.712184e-07
-2.685674e-07
6.346769e-08
-6.175755e-08
-2.940063e-08
-1.483734e-07
-1.43648e-07
-8.221182e-08
-9.095837e-08
-2.085792e-07
-1.669809e-07
-1.633849e-07
-1.795011e-07
-3.528668e-09
2.338723e-07
-3.940117e-07
1.714908e-07
3.296459e-08
3.437578e-08
2.921741e-08
3.704122e-08
-1.723338e-06
-1.623093e-06
5.479637e-08
-3.966288e-07
-4.029845e-07
2.011864e-07
1.399058e-07
-1.957105e-07
-3.622188e-07
4.75188e-08
-4.218777e-07
-5.09223e-08
-3.081039e-07
-4.843425e-07
-6.091963e-07
-6.351961e-07
4.751933e-07
1.433404e-07
-2.880125e-07
-2.506402e-07
-4.501007e-08
1.238327e-07
-4.756391e-07
-7.370756e-08
-6.022356e-08
-1.878208e-07
7.538133e-08
-1.830898e-07
-1.316142e-06
1.267279e-08
3.84106e-08
6.080287e-09
-7.025181e-09
-4.020453e-07
-4.765849e-07
-4.270562e-07
-3.112179e-07
-3.321318e-07
-9.688541e-07
9.111238e-08
-1.009541e-07
-5.629272e-08
-1.033501e-07
-8.916272e-08
-8.106607e-08
-1.035475e-07
-1.741887e-07
-2.016211e-07
-2.077226e-07
-1.784163e-07
-1.440756e-07
-1.766223e-07
-1.833272e-07
-1.538577e-07
-1.750837e-07
-1.567881e-07
-1.999472e-07
-8.323086e-08
-1.563651e-07
-5.396526e-08
-1.59309e-07
-1.38932e-07
-6.983374e-08
-1.122886e-07
-1.533486e-07
-1.831776e-07
-1.647858e-07
-2.068707e-07
-1.559077e-06
-8.999891e-07
-1.580967e-06
2.162419e-08
-5.735626e-07
8.790696e-08
-3.026539e-07
4.726055e-08
3.351845e-07
4.803397e-07
5.63449e-07
-3.133167e-07
6.226181e-07
2.961804e-07
9.901218e-08
-7.788742e-08
-1.463006e-07
-1.276387e-07
-1.549893e-07
-8.347415e-08
-8.796231e-08
-1.153143e-07
-1.83993e-07
-1.346226e-07
2.563905e-07
1.725061e-07
2.268378e-07
1.214451e-07
3.060025e-07
2.705987e-07
-6.632643e-07
-6.45043e-07
-1.458478e-06
-1.422743e-06
-1.215086e-06
-5.648526e-08
-1.11617e-06
-3.491835e-08
-1.133343e-06
-6.9971e-07
-8.333941e-07
-7.072679e-07
-7.917237e-07
-6.870688e-07
5.504066e-08
1.278154e-08
-6.985389e-07
-1.323951e-06
-1.208099e-06
-6.629064e-07
-1.272928e-06
-1.269883e-06
-1.478525e-06
-1.448893e-06
-1.136974e-06
5.888077e-08
-2.420343e-07
-1.371474e-06
-5.62136e-07
-2.025241e-07
-1.207164e-06
-6.042608e-07
-1.596927e-06
-1.681154e-06
5.399346e-07
4.236645e-08
-3.168809e-07
-2.849218e-07
-3.087738e-07
-3.418541e-07
-2.196127e-08
-1.282919e-06
-1.04368e-06
-1.167548e-06
-1.259097e-07
-1.018812e-07
-1.288848e-07
2.043021e-08
1.647551e-07
-8.050712e-08
-7.711931e-07
-7.612261e-07
-1.041333e-06
-2.535144e-07
-2.284398e-07
-3.499952e-08
-1.187645e-08
-1.490248e-08
-5.173797e-09
-3.088044e-08
-2.673298e-07
-3.440678e-07
-3.762849e-07
-2.952066e-07
3.509016e-07
2.06431e-08
2.309899e-08
-2.675638e-10
-1.856143e-07
-1.729547e-07
7.508959e-08
2.043341e-08
-7.614631e-08
-5.851028e-08
-2.888489e-07
-1.225346e-07
1.122191e-07
-8.56385e-08
1.588349e-08
1.805862e-07
-4.832711e-07
2.833586e-07
-3.406595e-07
1.122645e-07
1.846353e-07
-1.113924e-06
8.208707e-07
-6.814117e-10
3.472507e-08
-8.185235e-09
2.000027e-07
-2.239679e-07
-1.169266e-07
-8.696537e-08
-5.159592e-08
-4.387031e-08
5.257615e-08
1.251108e-07
-2.457145e-08
-4.017928e-07
-1.668523e-07
-1.767282e-07
-1.312684e-07
7.866016e-07
-1.123998e-06
3.922584e-08
3.745651e-08
-3.789533e-08
-4.661187e-08
-4.264854e-08
-5.674502e-08
-4.9657e-08
-1.082918e-06
-1.126236e-06
-3.58802e-08
-4.278083e-08
-2.552154e-07
-2.401655e-07
-1.277691e-07
2.14348e-08
-3.90052e-08
-1.368223e-06
-1.299164e-06
-1.213498e-06
-2.031041e-07
-9.966291e-07
-3.329118e-07
-1.90909e-07
-2.235993e-07
-1.795888e-07
-1.296094e-07
-1.086913e-07
-1.677836e-07
-1.442531e-07
-1.484958e-07
-1.735273e-07
-9.712797e-08
-1.190975e-07
-1.286161e-07
-1.523266e-07
-6.330907e-08
-8.376786e-08
-2.091896e-07
-1.562094e-07
-1.876396e-07
-2.65249e-07
-3.0355e-07
-9.108992e-08
-1.086114e-07
-1.05855e-07
-8.423721e-08
-1.951874e-07
-1.702618e-07
-1.779164e-07
-2.020302e-07
-1.664679e-07
-1.442992e-07
-1.61751e-07
-1.859436e-07
-4.667765e-07
-3.140234e-07
-1.227428e-07
-1.450957e-07
-1.358429e-07
-1.134206e-07
-6.353372e-08
-8.331379e-08
-1.510395e-07
-1.257897e-07
-2.538794e-08
4.089193e-09
3.880219e-08
-2.14741e-07
-2.326933e-07
6.980114e-08
-8.005597e-07
-8.100926e-07
-1.364506e-06
-4.620394e-07
-5.898319e-07
-2.411086e-07
-1.733676e-07
-7.829623e-07
-4.473496e-07
-4.20778e-07
-1.077321e-07
-3.107469e-08
-2.152376e-08
-6.224706e-08
-1.463295e-07
-1.773343e-07
-1.589587e-07
-2.033554e-07
-1.896417e-07
-8.042922e-08
-2.529102e-07
-2.114114e-07
-6.700792e-07
-1.203202e-07
-3.912958e-08
-3.433124e-08
-2.295598e-07
-2.57063e-07
-2.70904e-08
-5.247709e-07
-6.053721e-07
-4.483665e-07
-1.259244e-07
1.038069e-07
7.315052e-08
-1.095548e-06
-1.172073e-06
1.152361e-07
-3.129725e-09
-3.360609e-08
-2.653817e-08
-1.812205e-06
-3.411625e-07
-3.952334e-07
-6.877481e-07
6.315034e-08
-3.15535e-07
-7.060794e-07
-5.121103e-07
-1.130394e-07
-3.245874e-07
-7.887805e-07
-2.341724e-07
5.500649e-08
-5.482126e-07
-3.751026e-07
1.189892e-07
-4.295161e-07
-4.413321e-07
-2.806235e-08
-6.058244e-07
-1.01216e-06
-1.050039e-06
-1.04566e-06
-1.073184e-07
-1.851376e-07
-2.415233e-07
-2.859303e-07
-1.692702e-07
-1.062914e-07
-1.285387e-06
-3.02993e-07
-4.207997e-07
2.231153e-08
5.338897e-07
-2.276942e-07
-5.771888e-07
-6.607957e-07
-3.99266e-08
-1.185821e-07
-7.289598e-07
-1.580667e-07
-5.567822e-08
-4.725408e-08
-1.083715e-07
-8.900839e-08
-6.830879e-08
-9.073049e-08
6.151831e-07
-6.488339e-08
-2.172274e-08
-2.129361e-08
-3.953582e-07
-3.367145e-07
-6.45719e-07
-2.015324e-07
-1.316902e-07
-1.143767e-07
2.798897e-07
-1.201074e-07
-1.097243e-07
-1.215198e-07
-1.533803e-07
-1.485763e-07
-1.804059e-07
-1.455446e-07
-1.23184e-07
-1.05842e-07
-1.627266e-08
-5.261582e-08
-6.566765e-08
2.556186e-08
-3.051939e-07
-3.965999e-07
-2.079221e-07
-1.999503e-08
6.236547e-07
7.118626e-08
-4.29081e-08
-1.452539e-07
-7.551873e-08
-8.649066e-08
7.073412e-08
-1.479557e-06
-3.120346e-08
1.889073e-07
-6.040841e-07
-8.566442e-08
-1.576267e-07
-6.072474e-09
-9.543145e-07
-3.669285e-07
-1.540754e-06
-1.510991e-06
-1.362797e-06
-1.337578e-06
7.611641e-10
3.338928e-10
-2.626915e-07
1.211354e-08
-7.034037e-07
-6.824793e-07
-8.140741e-07
-8.127011e-07
2.884067e-08
2.372744e-08
1.947826e-08
3.225825e-08
3.235473e-08
1.624859e-07
1.27267e-07
1.009464e-07
-2.549024e-07
-1.309187e-07
-4.083796e-07
-4.518211e-07
1.470938e-08
-1.310159e-07
-1.613332e-07
-7.688875e-09
-3.403828e-08
-3.650579e-08
-1.605313e-08
2.333392e-07
-5.081033e-07
-4.902055e-07
-5.332317e-07
-1.829255e-07
-1.733014e-07
-3.251751e-08
5.517467e-08
-7.708776e-07
-5.497478e-07
-4.334015e-07
-3.228448e-07
2.506233e-08
4.558713e-08
2.076538e-08
-2.447696e-08
-2.778288e-07
-5.302286e-07
-6.795244e-08
-6.08552e-08
-2.138586e-07
-9.114046e-07
-2.500654e-07
-2.134748e-07
-1.083767e-06
1.125996e-07
-6.336261e-08
-7.285406e-08
-1.670492e-07
-1.930004e-07
-7.380819e-08
-1.587257e-07
-1.349819e-07
-1.00154e-07
-9.703108e-08
-3.767873e-07
6.192e-08
8.094399e-08
-6.270859e-07
-6.340062e-07
-9.100596e-08
-9.14363e-08
-1.255633e-06
-2.888838e-07
-2.602725e-07
-1.554982e-06
-1.421531e-06
-1.273612e-06
-1.189498e-06
-7.802228e-07
-7.353808e-07
-6.89326e-07
-6.455359e-07
-5.218638e-07
-5.545385e-07
-7.064188e-07
-7.521457e-07
-1.545027e-06
-1.595513e-06
-1.173307e-06
-1.215011e-06
-1.231868e-06
-1.279335e-06
-1.241296e-06
-1.275477e-06
-3.286764e-07
-5.617308e-07
-6.041215e-07
-5.700898e-07
-4.294855e-07
-1.244051e-06
-1.329528e-06
-6.491571e-07
-6.050109e-07
-6.569326e-07
-2.835978e-07
-6.453685e-07
-3.024334e-07
-2.741861e-07
-3.290207e-07
3.640839e-08
-8.877908e-08
-8.541046e-08
4.501922e-07
-7.579969e-07
-7.540211e-07
-8.413287e-08
-6.456356e-08
-6.913605e-08
-1.145485e-07
-1.00537e-07
-4.079968e-07
-2.119445e-07
-1.094063e-06
-1.048796e-06
-2.321653e-08
2.719623e-08
-6.657319e-08
-6.871972e-08
-7.360548e-08
-1.193048e-06
-4.175756e-07
-3.117105e-07
-5.161367e-07
-3.815211e-07
-7.409857e-08
4.081041e-08
3.908107e-08
-6.57562e-08
-5.893657e-08
-2.424569e-07
-5.759854e-08
-6.338371e-08
-4.260857e-09
-5.232584e-09
-1.13868e-07
-9.756503e-08
-4.374939e-08
-5.18257e-08
-1.720281e-07
3.355035e-08
-1.105687e-07
-1.212902e-07
1.262603e-07
-1.264803e-07
-1.395276e-07
-2.362123e-08
-2.391432e-08
-7.300258e-07
-1.900325e-08
3.429287e-07
-2.187023e-07
1.036717e-07
2.0842e-07
-3.063308e-07
-4.099126e-07
-2.05735e-07
4.415918e-08
-5.972283e-07
-6.799828e-07
-5.429974e-08
-6.616161e-08