/*--------------------------------*- C++ -*----------------------------------*\
| =========                 |                                                 |
| \\      /  F ield         | OpenFOAM: The Open Source CFD Toolbox           |
|  \\    /   O peration     | Version:  2406                                  |
|   \\  /    A nd           | Website:  www.openfoam.com                      |
|    \\/     M anipulation  |                                                 |
\*---------------------------------------------------------------------------*/
FoamFile
{
    version     2.0;
    format      ascii;
    arch        "LSB;label=32;scalar=64";
    class       surfaceScalarField;
    location    "1.66";
    object      phi;
}
// * * * * * * * * * * * * * * * * * * * * * * * * * * * * * * * * * * * * * //

dimensions      [0 3 -1 0 0 0 0];

oriented        oriented;

internalField   nonuniform List<scalar> 
23794
(
-0.003307571
-0.000322852
0.003630424
-0.007272526
0.003964954
-0.008827498
0.001554972
-0.008760704
-6.679438e-05
-0.008212554
-0.00054815
-0.007529988
-0.000682566
-0.006709778
-0.0008202095
-0.005768968
-0.0009408099
-0.004815181
-0.0009537876
-0.003911725
-0.0009034563
-0.003123209
-0.0007885156
-0.002450915
-0.0006722939
-0.001932342
-0.0005185732
-0.001463509
-0.0004688322
-0.001010806
-0.0004527034
-0.0005558249
-0.0004549811
-7.602189e-06
-0.0005482226
0.0005797348
-0.0005873369
0.001026332
-0.000446597
0.000764104
0.000262228
-0.0005724357
0.00133654
-0.002110081
0.001537645
-0.003086813
0.0009767322
-0.003566212
0.0004793994
-0.002580882
-0.0009853305
-0.0002871629
-0.002293719
0.001506212
-0.001793375
0.002841499
-0.001335287
0.004775673
-0.001934173
0.00771426
-0.002938587
0.01012586
-0.002411604
0.008614743
0.00151112
0.0008260155
0.007788728
-0.004861447
0.005687463
-0.001905532
-0.002955915
0.002219955
-0.004125487
0.00460629
-0.002386334
0.004779926
-0.000173636
0.003083982
0.001695943
-0.0001129655
0.003196948
-0.004955315
0.004842349
-0.00901038
0.004055066
-0.01123118
0.0022208
-0.01233257
0.001101388
-0.01295395
0.0006213834
-0.01326484
0.000310887
-0.0134211
0.0001562625
-0.01348061
5.950893e-05
-0.01345646
-2.415399e-05
-0.01339986
-5.659901e-05
-0.01328268
-0.0001171797
-0.0131207
-0.0001619761
-0.01289918
-0.0002215249
-0.01265061
-0.0002485696
-0.01238086
-0.0002697443
-0.01205706
-0.0003237992
-0.01171121
-0.0003458567
-0.01135383
-0.0003573782
-0.01093413
-0.0004196953
-0.01049032
-0.0004438083
-0.01002057
-0.000469758
-0.009541412
-0.0004791545
-0.009040095
-0.0005013165
-0.00849163
-0.0005484653
-0.007947728
-0.0005439015
-0.007363155
-0.0005845735
-0.00676144
-0.0006017146
-0.006150436
-0.0006110048
-0.005529729
-0.0006207061
-0.004880437
-0.0006492928
-0.004227154
-0.0006532821
-0.003563982
-0.0006631723
-0.002885315
-0.0006786672
-0.002197538
-0.0006877767
-0.001532849
-0.0006646896
-0.0008139657
-0.0007188829
-0.0001392492
-0.0006747164
0.0005163915
-0.0006556407
0.00115423
-0.0006378386
0.001877973
-0.0007237429
0.00259937
-0.0007213971
0.003314981
-0.0007156109
0.004017431
-0.0007024502
0.004704079
-0.0006866476
0.005391288
-0.0006872092
0.006056564
-0.0006652761
0.006733251
-0.0006766869
0.00738998
-0.000656729
0.008010718
-0.0006207381
0.008635577
-0.0006248587
0.009248104
-0.0006125272
0.009837627
-0.0005895233
0.01042484
-0.00058721
0.0109986
-0.0005737661
0.01151703
-0.0005184237
0.01203324
-0.0005162138
0.01253516
-0.0005019231
0.01299611
-0.0004609481
0.01345931
-0.0004631987
0.01386916
-0.000409847
0.01425292
-0.0003837622
0.01459827
-0.0003453451
0.01490126
-0.0003029919
0.01520192
-0.0003006652
0.01546645
-0.0002645287
0.01569281
-0.0002263552
0.01587773
-0.0001849257
0.01602215
-0.0001444177
0.01613899
-0.0001168416
0.01619478
-5.579351e-05
0.01623231
-3.752371e-05
0.0161961
3.620323e-05
0.01599355
0.0002025594
0.01565916
0.0003343833
0.01519847
0.0004606925
0.014557
0.0006414743
0.01355979
0.0009972092
0.01181922
0.00174057
0.008487576
0.00333164
0.00317492
0.005312657
-0.0019389
0.00511382
-0.003652783
0.001713883
-0.002621144
-0.001031639
0.001341174
-0.003962318
0.003677566
-0.002336392
-0.003672086
0.007349653
-0.01217157
0.008499482
-0.01277574
0.000604175
-0.00909992
-0.003675824
-0.006040504
-0.003059416
-0.004404207
-0.001636297
-0.003425004
-0.0009792026
-0.001659444
-0.00176556
0.001811798
-0.003471243
0.005030429
-0.00321863
0.00510421
-7.37816e-05
0.00322314
0.00188107
0.0007932119
0.002429928
-0.001795583
0.002588795
-0.004520091
0.002724509
-0.006694282
0.002174191
-0.007337817
0.0006435346
-0.006088736
-0.001249081
-0.003346261
-0.002742475
-0.0001503253
-0.003195936
0.002815766
-0.002966092
0.00421315
-0.001397383
0.00261009
0.001603059
-0.0008005166
0.003410607
-0.002775137
0.001974621
-0.00211928
-0.0006558574
0.001150284
-0.003269564
0.003996351
-0.002846066
0.004449446
-0.0004530951
0.002742838
0.001706608
0.001531652
0.001211186
0.0012088
-0.009860087
0.003297191
0.01019332
-0.01239887
0.006503741
-0.0121251
0.001281202
-0.01151903
-0.000672865
-0.01079953
-0.001267654
-0.009853271
-0.001628823
-0.00879075
-0.00188273
-0.007598559
-0.002133002
-0.00639722
-0.002155126
-0.005263114
-0.002037562
-0.004266543
-0.001785087
-0.0033941
-0.001544737
-0.002684244
-0.00122843
-0.002026918
-0.001126158
-0.001385711
-0.001093911
-0.0007449135
-0.001095778
-9.982133e-07
-0.001292138
0.000764546
-0.001352881
0.0009911393
-0.0006731903
0.000443568
0.0008097994
-0.001020657
0.002800764
-0.00306953
0.003586519
-0.004782435
0.002689637
-0.00523226
0.0009292241
-0.003407875
-0.002809715
-0.0006059506
-0.005095643
0.001191157
-0.003590482
0.002548392
-0.002692522
0.004575736
-0.003961518
0.007860395
-0.006223246
0.01055579
-0.005106996
0.01091967
0.001147241
0.00408523
0.01462316
-0.003751281
0.01352397
-0.003636032
-0.003071165
-0.001872018
-0.005889501
-0.0004788038
-0.003779548
0.000652388
-0.001304828
-0.002955758
0.005304089
-0.01034023
0.01058142
-0.01629945
0.01080157
-0.0188739
0.006629517
-0.0194767
0.002823596
-0.01959076
0.001215449
-0.01958259
0.0006132175
-0.01944503
0.0001733256
-0.01927996
-8.810579e-06
-0.01910587
-0.0001145814
-0.01889589
-0.0002341329
-0.01866753
-0.0002849606
-0.01837517
-0.0004095419
-0.01803961
-0.0004975305
-0.01764025
-0.00062089
-0.01721303
-0.0006757887
-0.01676982
-0.000712948
-0.01626848
-0.0008251389
-0.01574097
-0.0008733658
-0.01520535
-0.0008930051
-0.01459847
-0.00102657
-0.0139684
-0.001073884
-0.01330835
-0.001129802
-0.01263741
-0.001150097
-0.01194549
-0.001193233
-0.01119825
-0.001295713
-0.01045797
-0.001284175
-0.009674814
-0.001367733
-0.008869773
-0.001406756
-0.008057141
-0.001423637
-0.007236923
-0.001440924
-0.00638182
-0.001504395
-0.00552128
-0.001513822
-0.004651039
-0.001533413
-0.00376359
-0.001566116
-0.002868185
-0.001583182
-0.001995353
-0.001537522
-0.001067349
-0.001646887
-0.0001872229
-0.001554842
0.0006687327
-0.001511596
0.001507234
-0.00147634
0.002440055
-0.001656564
0.003375576
-0.001656918
0.004305663
-0.001645698
0.005219973
-0.00161676
0.006119062
-0.001585736
0.007020903
-0.001589051
0.007897637
-0.00154201
0.008788243
-0.001567293
0.009656556
-0.001525042
0.01048084
-0.001445024
0.01131271
-0.001456723
0.0121348
-0.001434623
0.01292804
-0.001382765
0.01371889
-0.001378052
0.01449894
-0.001353823
0.0152137
-0.001233183
0.0159303
-0.001232809
0.01663095
-0.001202574
0.01728585
-0.001115854
0.01794548
-0.001122827
0.01854237
-0.001006739
0.01911765
-0.0009590393
0.01964975
-0.0008774488
0.02013532
-0.0007885614
0.02062544
-0.0007907808
0.02107706
-0.0007161464
0.02148672
-0.0006360144
0.02185409
-0.000552302
0.02217957
-0.0004698924
0.02247843
-0.0004157013
0.02271555
-0.0002929144
0.02295141
-0.0002733844
0.0231634
-0.00017579
0.02328563
8.032969e-05
0.02336611
0.0002539024
0.02341729
0.0004095108
0.02342306
0.0006357086
0.0233056
0.001114665
0.0229119
0.002134271
0.02144351
0.00480003
0.01699323
0.009762935
0.01035069
0.01175636
0.005186869
0.006877709
0.002713072
0.001442158
0.002395369
-0.003644615
-0.000142009
0.0002009859
-0.008309789
0.01551743
-0.01355812
0.01374781
-0.01171573
-0.001238215
-0.007928254
-0.007463295
-0.004767306
-0.006220364
-0.003350454
-0.003053149
-0.002537715
-0.001791942
-0.0008204249
-0.00348285
0.002687447
-0.006979114
0.006908629
-0.007439813
0.007540889
-0.0007060413
0.00428018
0.005141778
-0.000454907
0.007165016
-0.005114805
0.007248692
-0.008497882
0.006107587
-0.009751935
0.003428244
-0.009221474
0.0001130735
-0.007374921
-0.003095635
-0.004062388
-0.006055008
-0.0001616346
-0.007096689
0.003336347
-0.006464073
0.005540688
-0.003601725
0.005070334
0.002073413
0.0004941283
0.007986813
-0.003019569
0.005488318
-0.001710726
-0.001964701
0.002270115
-0.007250405
0.00544851
-0.006024461
0.006241923
-0.001246508
0.004839736
0.003108795
0.002299906
0.003751015
0.006805898
-0.01446269
0.009089405
0.0155666
-0.01479731
0.006838366
-0.01426479
0.000748673
-0.01374615
-0.001191499
-0.01282636
-0.002187442
-0.01171388
-0.002741304
-0.01045389
-0.003142718
-0.009048425
-0.003538471
-0.00763739
-0.00356616
-0.006308049
-0.003366903
-0.005145579
-0.002947557
-0.004127752
-0.002562564
-0.003297339
-0.002058842
-0.002520619
-0.001902878
-0.001750587
-0.001863943
-0.0009672556
-0.00187911
-6.654651e-05
-0.002192847
0.001063686
-0.002483113
0.001403052
-0.001012556
0.0004015956
0.001811256
-0.001139643
0.004342003
-0.002998179
0.005445055
-0.00494053
0.004631988
-0.005619603
0.001608297
-0.003848055
-0.004581262
-0.001353385
-0.007590313
-1.606183e-05
-0.004927806
0.001142681
-0.003851265
0.003209271
-0.006028107
0.007014908
-0.01002888
0.01021665
-0.00830874
0.01090486
0.0004590348
0.005638109
0.01988991
-0.002456316
0.0216184
-0.007582109
0.002054628
-0.01036807
-0.003103539
-0.01128732
-0.002860301
-0.01246462
-0.0001275279
-0.01621485
0.009054324
-0.02101905
0.01538562
-0.02310272
0.01288524
-0.02303504
0.006561843
-0.02293321
0.002721766
-0.02302439
0.001306622
-0.02309098
0.0006798068
-0.02301345
9.580024e-05
-0.02288181
-0.0001404496
-0.02270983
-0.0002865596
-0.0224718
-0.0004721635
-0.02220885
-0.0005479166
-0.0218684
-0.0007499903
-0.02147728
-0.0008886519
-0.02100946
-0.001088709
-0.02050733
-0.00117792
-0.01998745
-0.001232821
-0.01939559
-0.001417004
-0.01877253
-0.001496425
-0.01814109
-0.001524444
-0.01742188
-0.001745776
-0.01667517
-0.001820601
-0.01589231
-0.001912663
-0.01509618
-0.001946226
-0.01427496
-0.002014445
-0.01338507
-0.00218561
-0.01250481
-0.002164427
-0.01157094
-0.002301603
-0.01061109
-0.002366608
-0.00964144
-0.002393289
-0.008662291
-0.002420074
-0.007641079
-0.002525607
-0.006613171
-0.00254173
-0.005572773
-0.002573811
-0.004512226
-0.002626663
-0.003440863
-0.002654546
-0.002393087
-0.002585297
-0.00128326
-0.002756714
-0.0002283491
-0.002609753
0.0007950532
-0.002534998
0.001803693
-0.00248498
0.002920045
-0.002772915
0.004042003
-0.002778877
0.005157953
-0.002761647
0.006253889
-0.002712697
0.007331083
-0.00266293
0.008410606
-0.002668574
0.009458498
-0.002589902
0.01052235
-0.002631149
0.01155757
-0.002560262
0.0125392
-0.002426649
0.01352948
-0.002447005
0.01450648
-0.002411626
0.01544797
-0.002324254
0.01638682
-0.002316894
0.01731183
-0.002278842
0.01815745
-0.002078797
0.01900591
-0.002081273
0.01983426
-0.002030924
0.02060623
-0.001887823
0.02138592
-0.001902512
0.02208762
-0.001708444
0.02276452
-0.001635941
0.02338821
-0.001501139
0.02395422
-0.001354563
0.02452733
-0.001363897
0.02505213
-0.001240939
0.02552746
-0.001111345
0.02595084
-0.0009756842
0.02632392
-0.0008429745
0.02666516
-0.0007569393
0.02693163
-0.0005593839
0.02719571
-0.0005374715
0.02740441
-0.0003844897
0.02747037
1.437866e-05
0.0274739
0.0002503727
0.02744491
0.0004384913
0.02738483
0.0006957938
0.02728282
0.001216679
0.02722762
0.002189471
0.02746349
0.004564157
0.02699867
0.01022775
0.02437896
0.01437608
0.02068097
0.01057569
0.01669395
0.005429182
0.009582304
0.00346703
-1.39735e-05
0.009797264
-0.008112729
0.02361619
-0.01155099
0.01718607
-0.009322058
-0.00346715
-0.004710303
-0.01207505
-0.001192237
-0.00973843
-0.0001395525
-0.004105834
0.0002741209
-0.002205615
0.001212763
-0.004421492
0.004058462
-0.009824813
0.007787653
-0.011169
0.007793355
-0.0007117433
0.003710341
0.009224792
-0.001909865
0.01278522
-0.007285465
0.01262429
-0.01057418
0.009396301
-0.01147574
0.004329808
-0.01092031
-0.0004423611
-0.008775263
-0.005240681
-0.004775048
-0.01005522
-0.0002084662
-0.01166327
0.004002227
-0.01067477
0.006456598
-0.006056096
0.006605341
0.00192467
0.002549446
0.01204271
-0.001893172
0.009930936
-0.0009778146
-0.002880058
0.003166746
-0.01139497
0.006327396
-0.009185111
0.007083765
-0.002002877
0.0055382
0.00465436
0.0001834522
0.009105763
0.01607875
-0.0177615
0.01538403
0.01794408
-0.01713435
0.006211213
-0.01680684
0.0004211623
-0.01609742
-0.001900913
-0.01500511
-0.003279756
-0.01368252
-0.00406389
-0.01219611
-0.004629133
-0.01054937
-0.005185212
-0.008912193
-0.005203335
-0.007376174
-0.004902922
-0.006042571
-0.00428116
-0.004878824
-0.003726311
-0.003941579
-0.002996088
-0.003062396
-0.002782061
-0.0021824
-0.002743938
-0.001274809
-0.002786701
-0.000248814
-0.003218841
0.001188139
-0.003920066
0.002140735
-0.001965152
0.00134076
0.00261123
-0.0004517793
0.006134543
-0.002358158
0.007351434
-0.004360942
0.006634772
-0.005406916
0.002654272
-0.004353109
-0.005635069
-0.002823007
-0.009120415
-0.002251759
-0.005499054
-0.001479563
-0.004623461
0.001117995
-0.008625665
0.005439226
-0.01435011
0.00904975
-0.01191926
0.00927964
0.0002291447
0.004696892
0.02447266
-0.004419923
0.03073521
-0.01490983
0.01254454
-0.02151433
0.003500954
-0.02413836
-0.0002362668
-0.02594158
0.001675691
-0.02760208
0.01071483
-0.02822604
0.01600958
-0.02760674
0.01226593
-0.02731239
0.006267496
-0.02761722
0.003026594
-0.02784819
0.001537595
-0.02796156
0.0007931723
-0.02785046
-1.529698e-05
-0.02766673
-0.0003241767
-0.0274352
-0.0005180961
-0.02712722
-0.0007801412
-0.02679148
-0.0008836557
-0.02636633
-0.001175144
-0.025882
-0.001372976
-0.02530669
-0.001664024
-0.02469134
-0.001793273
-0.02405599
-0.001868164
-0.02333624
-0.002136761
-0.0225793
-0.002253356
-0.02181308
-0.002290672
-0.02094477
-0.002614078
-0.02004189
-0.00272349
-0.01909675
-0.002857801
-0.01813705
-0.002905918
-0.01714884
-0.003002663
-0.01607716
-0.003257283
-0.01501987
-0.003221722
-0.01389708
-0.003424389
-0.01274501
-0.00351868
-0.01158038
-0.003557915
-0.01040498
-0.003595477
-0.009179441
-0.003751147
-0.007946117
-0.003775055
-0.006697809
-0.00382212
-0.005428196
-0.003896276
-0.004143786
-0.003938956
-0.002886095
-0.003842988
-0.001551704
-0.004091105
-0.0002801686
-0.003881288
0.0009497194
-0.003764886
0.002167109
-0.00370237
0.003510348
-0.004116154
0.004860081
-0.00412861
0.00620555
-0.004107116
0.007524841
-0.004031988
0.008819394
-0.003957483
0.01011435
-0.003963528
0.01136941
-0.003844966
0.01264502
-0.003906756
0.01388312
-0.003798358
0.01506004
-0.003603573
0.01624869
-0.00363566
0.01741966
-0.003582592
0.01855196
-0.003456558
0.01968336
-0.003448292
0.0207952
-0.003390681
0.02181607
-0.003099671
0.02284135
-0.003106553
0.02384161
-0.003031178
0.024777
-0.002823215
0.02572228
-0.002847792
0.02657538
-0.002561545
0.02739884
-0.0024594
0.02815994
-0.002262239
0.02885567
-0.002050296
0.02955958
-0.002067804
0.03020571
-0.001887066
0.03079571
-0.001701346
0.03132252
-0.001502498
0.03179275
-0.001313207
0.03222759
-0.001191774
0.03257293
-0.000904727
0.03291745
-0.0008819903
0.03320023
-0.0006672726
0.03330915
-9.453655e-05
0.03332863
0.0002308883
0.03329133
0.0004757945
0.03318727
0.0007998525
0.03294954
0.001454407
0.03258518
0.002553829
0.03241385
0.004735491
0.03304398
0.009597619
0.03345822
0.01396184
0.03234349
0.01169042
0.02950666
0.008266015
0.02042705
0.01254664
0.005919656
0.02430465
-0.004061564
0.03359741
-0.006568063
0.01969257
-0.004544212
-0.005491001
0.0002337824
-0.01685304
0.004255985
-0.01376063
0.005690128
-0.005539976
0.005112414
-0.001627901
0.004782424
-0.004091503
0.006087206
-0.0111296
0.008107541
-0.01318934
0.006812075
0.0005837224
0.002220178
0.01381669
-0.003582536
0.01858794
-0.00922721
0.01826897
-0.01257539
0.01274448
-0.01360468
0.0053591
-0.01303298
-0.001014059
-0.01046904
-0.007804619
-0.005718795
-0.01480547
-0.0003389909
-0.01704307
0.004677069
-0.01569083
0.007566007
-0.008945034
0.008083821
0.001406855
0.004920714
0.01520581
0.0001218902
0.01472976
0.0001730988
-0.002931267
0.003570708
-0.01479258
0.006050602
-0.011665
0.006574007
-0.002526281
0.003126824
0.008101542
-0.006211421
0.01844401
0.02525136
-0.0205027
0.02090882
0.01753795
-0.01976175
0.005470269
-0.0194628
0.000122207
-0.01854309
-0.002820625
-0.01723359
-0.004589256
-0.01564482
-0.005652655
-0.01386911
-0.006404839
-0.01191365
-0.007140676
-0.01000701
-0.007109973
-0.008250999
-0.006658936
-0.006752318
-0.00577984
-0.00544659
-0.005032039
-0.00441604
-0.004026638
-0.003450972
-0.003747128
-0.002491614
-0.003703297
-0.001490086
-0.00378823
-0.0003185289
-0.004390398
0.00116812
-0.005406715
0.002603346
-0.003400377
0.002732548
0.002482028
0.001143547
0.007723544
-0.001162927
0.009657908
-0.003497659
0.008969504
-0.005009497
0.004166109
-0.005186693
-0.005457873
-0.005201582
-0.009105526
-0.005656021
-0.005044614
-0.005172523
-0.005106959
-0.00255151
-0.01124668
0.001885673
-0.0187873
0.005525496
-0.01555909
0.005368155
0.0003864857
0.001414691
0.02842612
-0.009456148
0.04160605
-0.02274749
0.02583588
-0.02980856
0.01056202
-0.03249946
0.002454639
-0.03431917
0.0034954
-0.03453522
0.01093087
-0.03334903
0.01482339
-0.03243186
0.01134876
-0.03252438
0.006360021
-0.03291305
0.003415265
-0.03315967
0.001784212
-0.03331596
0.0009494646
-0.03321596
-0.0001152983
-0.03302237
-0.0005177658
-0.03277127
-0.0007691918
-0.03241135
-0.001140066
-0.03203463
-0.001260373
-0.03153456
-0.001675221
-0.03096958
-0.001937953
-0.03028808
-0.002345526
-0.02955933
-0.002522016
-0.02880979
-0.00261771
-0.02795151
-0.002995035
-0.02704915
-0.003155715
-0.02613897
-0.00320086
-0.02510294
-0.003650104
-0.0240224
-0.003804031
-0.02289202
-0.003988181
-0.02174623
-0.004051712
-0.02056573
-0.004183159
-0.01927928
-0.004543736
-0.01801706
-0.00448394
-0.01667038
-0.004771069
-0.01529224
-0.004896817
-0.01389731
-0.004952846
-0.01249191
-0.00500088
-0.01102319
-0.005219862
-0.009544958
-0.005253288
-0.008046125
-0.005320953
-0.006526136
-0.005416264
-0.004987963
-0.005477129
-0.003484863
-0.005346088
-0.001880926
-0.005695042
-0.000344418
-0.005417796
0.001136483
-0.005245787
0.002606318
-0.005172206
0.004227245
-0.00573708
0.005853216
-0.005754581
0.007476926
-0.005730826
0.009059453
-0.005614515
0.01060539
-0.005503425
0.01214987
-0.005507999
0.0136449
-0.005339999
0.01517027
-0.005432128
0.01664466
-0.005272747
0.01805351
-0.005012418
0.01947953
-0.005061686
0.02087621
-0.004979267
0.02223265
-0.004813004
0.02359339
-0.004809022
0.02492071
-0.004718008
0.02614203
-0.00432099
0.02737116
-0.004335678
0.02856623
-0.004226255
0.02968032
-0.003937304
0.03081253
-0.003979997
0.03182772
-0.003576734
0.03280723
-0.003438918
0.03371045
-0.003165451
0.03453158
-0.00287143
0.03536601
-0.002902229
0.03612329
-0.002644354
0.0368186
-0.002396657
0.03743057
-0.002114469
0.03797476
-0.001857388
0.03847986
-0.001696883
0.0388626
-0.001287467
0.03925472
-0.001274108
0.03956178
-0.0009743327
0.03966046
-0.0001932165
0.03965349
0.000237858
0.03957396
0.0005553229
0.03942598
0.0009478403
0.03913876
0.001741627
0.03874973
0.00294285
0.03833149
0.005153731
0.03858648
0.009342635
0.03935397
0.01319435
0.03909853
0.01194586
0.03788687
0.009477676
0.03156169
0.01887182
0.016389
0.03947734
0.003784283
0.04620212
0.001385556
0.0220913
0.003655267
-0.007760713
0.008472942
-0.02167072
0.01207746
-0.01736515
0.01319044
-0.006652957
0.01200234
-0.0004397926
0.01015956
-0.002248726
0.008943388
-0.009913423
0.008022668
-0.01226862
0.004986902
0.003619489
0.0001480753
0.01865552
-0.005848657
0.02458467
-0.0115324
0.02395271
-0.01501685
0.01622893
-0.0162513
0.006593554
-0.01563822
-0.001627145
-0.01264998
-0.01079286
-0.007026326
-0.02042912
-0.0006698267
-0.02339957
0.005280384
-0.02164104
0.008886979
-0.01255163
0.009654274
0.0006395604
0.007238228
0.01762186
0.002717985
0.01925
0.00125842
-0.001471702
0.002802131
-0.01633629
0.002956186
-0.01181906
0.001020289
-0.000590385
-0.005733599
0.01485543
-0.01564257
0.02835298
0.03051761
-0.02340004
0.02517374
0.01576425
-0.02295797
0.005028203
-0.02248646
-0.0003493075
-0.02141456
-0.003892522
-0.01981405
-0.00618977
-0.01785625
-0.007610456
-0.01566006
-0.008601029
-0.01322383
-0.009576901
-0.01087297
-0.009460838
-0.008762495
-0.008769408
-0.007070467
-0.007471868
-0.005626555
-0.006475951
-0.004528058
-0.005125135
-0.003497455
-0.004777732
-0.002509716
-0.004691035
-0.001497255
-0.004800691
-0.0002282264
-0.005659427
0.001320573
-0.006955514
0.002864893
-0.004944698
0.003715851
0.00163107
0.002873065
0.008566331
0.0002495471
0.01228143
-0.002704455
0.01192351
-0.004974924
0.006436578
-0.006802737
-0.003630061
-0.008743676
-0.007164587
-0.0103952
-0.003393093
-0.0103787
-0.005123458
-0.008284993
-0.01334038
-0.004212266
-0.02286002
-0.001526564
-0.01824479
-0.001473346
0.0003332678
-0.006279511
0.03323229
-0.01794497
0.05327151
-0.03065219
0.0385431
-0.03582576
0.0157356
-0.038189
0.004817877
-0.04017136
0.005477765
-0.04033366
0.01109317
-0.0394541
0.01394384
-0.0390538
0.01094845
-0.03933212
0.006638348
-0.03974468
0.003827819
-0.03999217
0.002031705
-0.04015978
0.001117079
-0.03997471
-0.0003003688
-0.03972314
-0.000769339
-0.03940475
-0.001087587
-0.03894954
-0.001595275
-0.03849531
-0.001714604
-0.03788165
-0.002288877
-0.03719868
-0.002620918
-0.03637138
-0.003172825
-0.03548756
-0.003405843
-0.03458634
-0.003518927
-0.03354804
-0.004033334
-0.03246043
-0.004243329
-0.03137027
-0.004291018
-0.03012428
-0.00489609
-0.02882065
-0.005107664
-0.02746333
-0.005345497
-0.02608769
-0.005427358
-0.02467369
-0.005597161
-0.02312262
-0.006094799
-0.02161551
-0.00599105
-0.0199954
-0.006391179
-0.01834239
-0.006549834
-0.01666921
-0.006626022
-0.01498839
-0.006681695
-0.01323139
-0.006976867
-0.01146647
-0.007018202
-0.009667945
-0.007119483
-0.007848739
-0.00723547
-0.005998065
-0.007327803
-0.004208827
-0.007135326
-0.002287204
-0.007616664
-0.0004248133
-0.007280187
0.00136238
-0.007032981
0.003139857
-0.006949682
0.005104413
-0.007701636
0.007068536
-0.007718704
0.009015391
-0.007677681
0.01089558
-0.007494703
0.01272986
-0.007337711
0.01456744
-0.007345572
0.01635045
-0.007123014
0.01818424
-0.007265915
0.01994373
-0.007032239
0.02163936
-0.006708048
0.02336273
-0.00678505
0.02503354
-0.006650084
0.0266621
-0.006441566
0.02831301
-0.00645993
0.02990351
-0.006308509
0.03136843
-0.005785911
0.0328503
-0.005817542
0.0342881
-0.005664058
0.03562365
-0.005272854
0.03699013
-0.005346472
0.03821278
-0.004799393
0.03939331
-0.004619444
0.04047992
-0.004252056
0.0414734
-0.003864918
0.0424886
-0.003917424
0.04340054
-0.003556292
0.04425288
-0.003248995
0.04499508
-0.00285667
0.04566507
-0.002527383
0.04628928
-0.002321096
0.04677047
-0.001768656
0.04726025
-0.001763882
0.04764383
-0.001357913
0.04780461
-0.0003539979
0.04782882
0.0002136508
0.04778123
0.0006029085
0.04764258
0.001086494
0.04732093
0.002063276
0.04688836
0.003375422
0.04637957
0.005662515
0.04621254
0.009509664
0.0463852
0.01302169
0.04556009
0.01277097
0.0443513
0.01068647
0.04181744
0.02140568
0.03161628
0.04967851
0.01891186
0.05890654
0.01338832
0.02761485
0.01626399
-0.01063638
0.02062855
-0.02603529
0.02290474
-0.01964134
0.02306731
-0.006815527
0.02103211
0.001595405
0.01736935
0.001414038
0.01293026
-0.005474343
0.00809204
-0.007430393
0.002923562
0.008787967
-0.002455864
0.02403494
-0.008716988
0.03084579
-0.0143323
0.02956803
-0.01805677
0.0199534
-0.01950487
0.008041653
-0.01882478
-0.002307236
-0.01545562
-0.01416202
-0.008848908
-0.02703583
-0.001342825
-0.03090566
0.005716858
-0.02870072
0.01025858
-0.01709335
0.01126382
-0.0003656794
0.009230799
0.01965488
0.004863295
0.02361751
0.00179007
0.001601523
-0.0005332867
-0.01401293
-0.005185438
-0.007166908
-0.01151941
0.005743589
-0.01927405
0.02261006
-0.02501221
0.03409115
0.03067914
-0.02724829
0.02887484
0.0141377
-0.02707429
0.004854206
-0.02651524
-0.0009083634
-0.02523116
-0.005176602
-0.02327031
-0.008150621
-0.02082994
-0.01005082
-0.01805857
-0.01137241
-0.01491528
-0.01272018
-0.01186431
-0.01251181
-0.008985511
-0.01164821
-0.006898714
-0.009558664
-0.005216335
-0.008158331
-0.004064851
-0.006276618
-0.002980948
-0.005861635
-0.001996834
-0.00567515
-0.00109498
-0.005702544
0.0001431986
-0.006897605
0.001769438
-0.008581753
0.003333186
-0.006508446
0.004276355
0.0006879017
0.003859119
0.008983566
0.001214565
0.01492598
-0.002430516
0.01556859
-0.00589556
0.009901623
-0.009718885
0.0001932636
-0.0136828
-0.003200668
-0.01673201
-0.0003438854
-0.01771624
-0.004139223
-0.0171054
-0.01395122
-0.01442665
-0.02553878
-0.01197231
-0.02069913
-0.01210395
0.0004649138
-0.01895029
0.04007863
-0.03017594
0.06449716
-0.03902076
0.04738792
-0.04200731
0.01872214
-0.04477027
0.007580841
-0.04711826
0.007825752
-0.0476542
0.01162911
-0.0472333
0.01352293
-0.04696717
0.01068232
-0.04717755
0.006848728
-0.04761998
0.004270247
-0.04786208
0.002273809
-0.04807949
0.001334486
-0.04789879
-0.0004810715
-0.047608
-0.00106012
-0.04723329
-0.001462303
-0.04666429
-0.002164271
-0.04615446
-0.00222444
-0.04540418
-0.003039149
-0.04460159
-0.003423509
-0.04361
-0.004164416
-0.04254434
-0.004471503
-0.04147533
-0.004587935
-0.0402345
-0.005274172
-0.03892979
-0.005548038
-0.03762117
-0.005599635
-0.0361364
-0.006380862
-0.03457488
-0.006669188
-0.03294954
-0.006970833
-0.03128209
-0.007094808
-0.02961135
-0.007267898
-0.02773193
-0.007974225
-0.02593797
-0.00778501
-0.02398247
-0.008346679
-0.02200328
-0.008529023
-0.02000246
-0.008626839
-0.01795618
-0.008727981
-0.01586751
-0.009065536
-0.01376572
-0.009119985
-0.01161198
-0.009273226
-0.009458279
-0.009389172
-0.007199313
-0.00958677
-0.005088583
-0.009246056
-0.002788057
-0.00991719
-0.0005271649
-0.009541079
0.001640296
-0.009200442
0.003794103
-0.009103489
0.00618139
-0.01008892
0.008553119
-0.01009043
0.01083963
-0.009964188
0.01305924
-0.009714317
0.01524919
-0.009527662
0.017441
-0.009537377
0.01957782
-0.009259839
0.02180739
-0.009495488
0.02391712
-0.009141969
0.02595209
-0.00874301
0.02802467
-0.008857635
0.03004342
-0.008668837
0.0320023
-0.008400437
0.03397644
-0.008434073
0.03588687
-0.008218943
0.03763864
-0.007537675
0.03941332
-0.007592221
0.04111658
-0.007367318
0.04273129
-0.006887572
0.04437118
-0.006986353
0.0458247
-0.006252922
0.04725124
-0.006045983
0.04853378
-0.005534596
0.04972245
-0.005053581
0.05094324
-0.005138221
0.05201323
-0.004626278
0.0530435
-0.004279262
0.05390619
-0.003719363
0.05470679
-0.003327988
0.05545705
-0.003071356
0.05600121
-0.002312814
0.05658422
-0.002346888
0.05705857
-0.00183227
0.05721208
-0.0005075081
0.05722028
0.0002054551
0.05711595
0.0007072396
0.05693878
0.00126366
0.05655657
0.002445488
0.05611033
0.003821661
0.05563483
0.006138012
0.05543549
0.009709006
0.05538827
0.01306891
0.05428507
0.01387418
0.05217702
0.01279451
0.0516136
0.0219691
0.04960291
0.0516892
0.04227561
0.06623384
0.03609257
0.03379789
0.03590418
-0.01044799
0.03672938
-0.02686049
0.03633708
-0.01924904
0.03491185
-0.005390299
0.03169992
0.004807342
0.02625489
0.006859062
0.0183991
0.00238145
0.009175406
0.001793302
0.001286226
0.01667715
-0.005131011
0.03045218
-0.01189776
0.03761254
-0.01762274
0.035293
-0.0217121
0.02404276
-0.02315721
0.009486762
-0.02231562
-0.003148826
-0.01883175
-0.01764589
-0.01133496
-0.03453262
-0.002554068
-0.03968655
0.005817123
-0.03707191
0.01146185
-0.02273808
0.01282192
-0.001725758
0.01075763
0.02171918
0.006169531
0.02820561
0.0006876866
0.007083368
-0.007164801
-0.006160442
-0.01749705
0.003165341
-0.02632067
0.01456721
-0.03169414
0.02798354
-0.03183013
0.03422713
0.02772386
-0.03264675
0.03346413
0.01332032
-0.03256809
0.004775545
-0.03194104
-0.001535416
-0.03041668
-0.006700962
-0.028037
-0.0105303
-0.02502215
-0.01306567
-0.02154791
-0.01484664
-0.01745826
-0.01680984
-0.01360482
-0.01636525
-0.009523214
-0.01572982
-0.006565647
-0.01251623
-0.004319907
-0.01040407
-0.002938452
-0.007658073
-0.001751834
-0.007048252
-0.0007477125
-0.006679271
-1.540025e-05
-0.006434857
0.0009651477
-0.007878153
0.002529538
-0.01014614
0.00416023
-0.008139138
0.004919131
-7.099915e-05
0.004231283
0.009671415
0.001468487
0.01768878
-0.002649173
0.01968625
-0.00754059
0.01479304
-0.01404987
0.006702546
-0.02021022
0.002959681
-0.02497114
0.004417036
-0.02777329
-0.001337074
-0.02961629
-0.01210823
-0.02937795
-0.02577711
-0.02994344
-0.02013364
-0.03213512
0.002656586
-0.03948108
0.04742459
-0.04631311
0.07132919
-0.04860082
0.04967563
-0.05013885
0.02026016
-0.05368358
0.01112557
-0.05618171
0.01032388
-0.05696043
0.01240784
-0.05681323
0.01337573
-0.05662382
0.01049292
-0.05679282
0.007017729
-0.05734967
0.004827094
-0.05748135
0.00240549
-0.05775524
0.001608375
-0.05745641
-0.000779907
-0.05710264
-0.001413888
-0.05671397
-0.001850973
-0.05596229
-0.002915947
-0.05538568
-0.002801054
-0.05447282
-0.003952007
-0.05353611
-0.004360216
-0.05232759
-0.005372937
-0.05102052
-0.005778572
-0.04976095
-0.005847512
-0.04830145
-0.006733669
-0.04667923
-0.007170258
-0.04511471
-0.007164148
-0.0433598
-0.008135779
-0.04150512
-0.008523869
-0.03952471
-0.008951236
-0.03750261
-0.009116915
-0.03558915
-0.009181354
-0.03325109
-0.01031229
-0.03114819
-0.00988791
-0.02872866
-0.0107662
-0.02640871
-0.01084898
-0.02401946
-0.01101608
-0.02152321
-0.01122423
-0.01905436
-0.01153439
-0.01651112
-0.01166322
-0.01391046
-0.01187389
-0.01139359
-0.01190604
-0.008647367
-0.012333
-0.006182089
-0.01171133
-0.003395281
-0.012704
-0.0006671916
-0.01226917
0.00198233
-0.01184996
0.004617606
-0.01173876
0.007538417
-0.01300973
0.01027661
-0.01282863
0.0129318
-0.01261938
0.01559479
-0.0123773
0.01826828
-0.01220115
0.02091503
-0.01218413
0.02345387
-0.01179868
0.02620523
-0.01224684
0.02871714
-0.01165389