/*--------------------------------*- C++ -*----------------------------------*\
| =========                 |                                                 |
| \\      /  F ield         | OpenFOAM: The Open Source CFD Toolbox           |
|  \\    /   O peration     | Version:  2406                                  |
|   \\  /    A nd           | Website:  www.openfoam.com                      |
|    \\/     M anipulation  |                                                 |
\*---------------------------------------------------------------------------*/
FoamFile
{
    version     2.0;
    format      ascii;
    arch        "LSB;label=32;scalar=64";
    class       volVectorField;
    location    "1.66";
    object      U;
}
// * * * * * * * * * * * * * * * * * * * * * * * * * * * * * * * * * * * * * //

dimensions      [0 1 -1 0 0 0 0];

internalField   nonuniform List<vector> 
15536
(
(0.1500168 -0.9865727 -1.398796e-22)
(0.7408591 -6.133127 -6.767772e-19)
(1.22117 -8.799694 -1.404166e-18)
(1.50341 -9.106297 -1.382864e-18)
(1.734146 -8.574603 -2.034993e-20)
(1.919572 -7.911808 2.012793e-20)
(1.998076 -7.059428 1.561388e-20)
(1.977047 -6.093276 -1.577056e-20)
(1.87053 -5.092787 3.407847e-18)
(1.700714 -4.133369 3.196742e-18)
(1.497725 -3.269636 0)
(1.290894 -2.545424 0)
(1.100662 -1.967247 -2.774073e-20)
(0.9154612 -1.497418 7.383398e-18)
(0.7103025 -1.070713 3.85113e-18)
(0.4740029 -0.6675723 -8.169658e-18)
(0.1795364 -0.2597107 4.222206e-18)
(-0.2170868 0.2096231 3.183992e-20)
(-0.5688745 0.5815937 -6.105751e-20)
(-0.8177569 0.8391134 2.958056e-20)
(-0.2018705 0.2843418 0)
(1.156978 -0.893286 2.20764e-18)
(2.1307 -1.621079 0)
(2.993507 -2.10401 1.06161e-18)
(2.94489 -1.949277 -7.107164e-21)
(1.263412 -0.8528672 -1.121249e-20)
(-0.6778637 0.2962039 1.145095e-20)
(-2.09102 1.012047 -2.782137e-18)
(-3.59991 1.603939 -3.925228e-18)
(-5.856782 2.352457 0)
(-8.363302 3.086503 -4.759807e-20)
(-9.999137 3.49112 -6.88042e-18)
(-6.130768 2.26447 6.273112e-18)
(3.436891 -0.5538684 0)
(5.515965 -1.331655 -1.861214e-18)
(-0.6852758 -0.2129941 -1.491393e-20)
(-3.469893 0.1944204 2.282877e-18)
(-5.390044 0.4850438 -1.433046e-18)
(-4.597254 0.3864277 1.375413e-21)
(-2.497587 0.02218442 -3.448877e-19)
(2.658814 0.281761 1.247183e-18)
(7.814069 1.081716 -1.906699e-20)
(10.71211 1.825694 1.834189e-20)
(12.04959 2.48885 0)
(12.68821 3.138931 -4.822868e-18)
(12.98642 3.768454 -4.816754e-18)
(13.05054 4.355244 0)
(12.97139 4.90411 -9.222851e-18)
(12.77645 5.414903 8.991129e-18)
(12.51132 5.895481 8.658463e-18)
(12.18983 6.340436 3.132492e-20)
(11.80464 6.74248 -7.773472e-18)
(11.36524 7.097655 0)
(10.88109 7.40683 0)
(10.36189 7.666149 6.067996e-18)
(9.806021 7.868399 5.463232e-18)
(9.231228 8.023323 3.48808e-20)
(8.644081 8.129269 4.057846e-18)
(8.03316 8.169029 6.795653e-18)
(7.410908 8.150039 2.687794e-18)
(6.785465 8.075378 1.925392e-18)
(6.169337 7.953235 -1.246531e-20)
(5.559874 7.775052 0)
(4.95468 7.535725 -2.58885e-19)
(4.369265 7.248172 0)
(3.80067 6.900522 1.729754e-18)
(3.255769 6.499115 -2.727466e-20)
(2.744261 6.053471 -2.458651e-21)
(2.266179 5.561886 1.340729e-20)
(1.826331 5.029365 -4.34739e-18)
(1.429805 4.463226 -2.010137e-20)
(1.077548 3.861158 2.73588e-18)
(0.771123 3.223598 2.951576e-18)
(0.515528 2.563251 0)
(0.3105704 1.887163 0)
(0.1615459 1.190129 3.427709e-18)
(0.06268986 0.4836326 -1.499719e-23)
(0.0168019 -0.1957726 8.990419e-19)
(0.01780371 -0.8584005 1.61948e-21)
(0.07502659 -1.552677 -6.527521e-21)
(0.1847233 -2.281492 -1.607122e-18)
(0.3518067 -3.009126 0)
(0.5750896 -3.719002 2.804087e-18)
(0.8515008 -4.402989 0)
(1.179271 -5.057862 -2.257242e-18)
(1.556529 -5.68241 1.923579e-18)
(1.982037 -6.274078 1.387908e-20)
(2.452546 -6.831373 2.524804e-18)
(2.96512 -7.345762 5.385301e-21)
(3.514965 -7.81471 -1.017019e-18)
(4.099382 -8.239624 -1.935586e-19)
(4.716003 -8.614661 -1.947446e-21)
(5.361633 -8.943725 1.530191e-18)
(6.027787 -9.221609 -2.409234e-18)
(6.710598 -9.443565 2.903522e-20)
(7.398857 -9.596258 6.992607e-21)
(8.098027 -9.695225 -5.020834e-18)
(8.803837 -9.740594 0)
(9.507145 -9.723834 1.33506e-17)
(10.21069 -9.656206 7.436284e-18)
(10.89408 -9.52281 1.24773e-19)
(11.55418 -9.326726 -9.171476e-18)
(12.18721 -9.071431 0)
(12.79198 -8.760978 0)
(13.36783 -8.403797 0)
(13.9061 -7.997582 0)
(14.39665 -7.543254 1.250521e-17)
(14.83661 -7.044801 1.314819e-17)
(15.22685 -6.507031 2.935024e-20)
(15.56242 -5.937812 -1.404573e-17)
(15.82411 -5.332978 -7.157501e-18)
(16.01374 -4.701676 -7.387775e-18)
(16.07538 -4.038401 5.77749e-20)
(15.98583 -3.347444 7.532077e-18)
(15.73557 -2.641174 3.879289e-18)
(15.29737 -1.931681 -2.997404e-20)
(14.57288 -1.23964 -7.309018e-21)
(13.36536 -0.6218238 4.773511e-19)
(11.08185 -0.1298272 -9.171466e-19)
(6.752302 0.1408828 -2.207294e-20)
(-0.3897179 -0.08052397 1.555423e-20)
(-4.221809 -0.543899 4.228306e-18)
(-3.162012 -0.4617523 3.202705e-20)
(-1.541581 -0.01363166 0)
(5.357043 1.796985 -4.501819e-18)
(0.6067565 -0.2142543 -6.721282e-18)
(-9.419295 -4.194896 -1.127982e-20)
(-12.49075 -5.480428 1.968872e-17)
(-9.780941 -4.530071 -1.302689e-17)
(-6.834946 -3.474512 0)
(-4.767087 -2.689195 0)
(-3.589805 -2.206778 -4.890134e-18)
(-2.35751 -1.489645 0)
(-0.1918594 0.04827585 7.000299e-21)
(2.941566 2.428817 -2.775505e-19)
(4.587819 3.834591 -9.10284e-19)
(3.427021 3.020014 1.95825e-20)
(1.482256 1.32702 -6.413912e-18)
(-0.2756039 -0.468434 -8.547241e-20)
(-1.963071 -2.580303 1.49202e-17)
(-3.543602 -4.936652 8.428999e-18)
(-4.377621 -6.431499 8.421352e-18)
(-3.863236 -5.989478 7.148445e-18)
(-2.512996 -4.052471 0)
(-0.9735616 -1.485402 -1.1044e-20)
(0.497073 1.309943 -3.977893e-18)
(1.525617 3.451784 0)
(1.799378 4.071029 5.405174e-18)
(0.6344377 1.25411 -3.758194e-20)
(-0.7623556 -2.783798 1.76257e-20)
(-0.7790772 -2.982146 1.867215e-18)
(-0.2760952 -0.5764425 -2.205862e-21)
(0.3637308 2.717838 0)
(0.6681367 4.620237 1.664731e-18)
(0.5365587 4.067704 1.37572e-20)
(0.2119108 2.209894 2.79446e-21)
(0.03219589 1.450992 -2.968567e-21)
(0.6868462 -6.42739 -2.372187e-19)
(1.007088 -10.57116 5.064799e-19)
(1.036022 -10.57451 0)
(1.219088 -9.971362 1.118119e-18)
(1.515631 -9.48784 0)
(1.730795 -8.687568 3.858969e-18)
(1.855728 -7.762426 1.256012e-20)
(1.880879 -6.735097 -1.267437e-20)
(1.820819 -5.680892 -2.740114e-18)
(1.691037 -4.669441 -2.578057e-18)
(1.524462 -3.755071 0)
(1.342091 -2.974136 2.113588e-20)
(1.163212 -2.324562 1.103606e-21)
(0.968215 -1.774814 -3.010161e-18)
(0.7444812 -1.268333 -6.393019e-18)
(0.4831251 -0.7890218 3.328496e-18)
(0.1572122 -0.3160329 -3.386973e-18)
(-0.2745548 0.2211966 -2.677957e-20)
(-0.6282205 0.6242993 0)
(-0.4613265 0.5214712 0)
(0.09583147 0.1379851 0)
(1.418484 -0.9566156 1.778054e-18)
(2.723756 -1.985086 8.005889e-21)
(3.906531 -2.8025 -7.958801e-21)
(3.233959 -2.376433 5.494043e-21)
(1.200489 -1.11594 -5.492402e-21)
(-0.4379284 -0.03633868 0)
(-1.579192 0.5958147 0)
(-2.893451 1.044648 6.422059e-18)
(-4.890538 1.588116 5.447486e-20)
(-7.338041 2.319258 -5.258817e-20)
(-8.618837 2.807535 5.870972e-18)
(-8.617404 3.291668 4.745653e-18)
(0.6967732 0.6040975 -1.414196e-20)
(5.148522 -1.302496 -1.519573e-18)
(2.03813 -0.7879057 1.23313e-18)
(1.514236 -0.4854102 4.458455e-21)
(-0.411791 -0.1814549 1.261684e-18)
(-0.8526564 0.02313366 0)
(5.336631 0.5187795 2.461965e-19)
(12.21195 1.253903 1.675486e-18)
(15.71904 1.792076 1.68999e-18)
(16.46991 2.173197 1.782893e-18)
(16.52711 2.658248 -5.737351e-20)
(16.41408 3.240295 3.826923e-18)
(16.21194 3.835998 -2.934336e-20)
(15.94938 4.430794 0)
(15.62942 5.007946 7.355259e-18)
(15.26444 5.56771 0)
(14.86014 6.103733 -5.204894e-20)
(14.40025 6.596784 5.215123e-20)
(13.88546 7.045049 6.214411e-18)
(13.32273 7.441672 -4.311012e-20)
(12.71978 7.785963 5.339353e-18)
(12.08347 8.075197 -4.887831e-18)
(11.4177 8.305773 0)
(10.7327 8.48547 2.752193e-20)
(10.03537 8.609767 -3.334432e-18)
(9.321997 8.666515 -5.402596e-18)
(8.597521 8.657262 0)
(7.873957 8.591394 -1.548848e-18)
(7.159985 8.469899 -4.967227e-21)
(6.456504 8.285998 3.305212e-19)
(5.764018 8.040181 -4.252828e-21)
(5.090782 7.736848 4.302481e-21)
(4.441353 7.372439 -1.405551e-18)
(3.818341 6.95114 1.980025e-18)
(3.232209 6.477579 0)
(2.68417 5.95713 0)
(2.17959 5.393922 -1.347117e-20)
(1.722529 4.789715 0)
(1.315917 4.145943 0)
(0.961683 3.464818 0)
(0.6647286 2.756022 -2.599628e-18)
(0.4229613 2.030953 2.073419e-20)
(0.2506179 1.280926 1.104312e-20)
(0.1315228 0.5229648 -5.437763e-21)
(0.07873353 -0.2101333 -7.386939e-19)
(0.08475875 -0.9287272 2.883275e-21)
(0.1642546 -1.675441 -6.976929e-19)
(0.2992898 -2.455602 1.308785e-18)
(0.5002959 -3.232991 9.898777e-21)
(0.7647077 -3.990185 -2.27156e-18)
(1.088823 -4.720889 -3.255259e-20)
(1.471427 -5.422157 1.868228e-18)
(1.909028 -6.087504 -1.603804e-18)
(2.401892 -6.716222 0)
(2.942747 -7.30768 -4.129938e-18)
(3.530182 -7.847685 -9.051755e-21)
(4.160978 -8.339712 8.263982e-19)
(4.829333 -8.787029 1.626183e-19)
(5.532922 -9.176297 0)
(6.269464 -9.511338 0)
(7.03093 -9.796028 0)
(7.810433 -10.01282 2.290416e-20)
(8.602537 -10.15889 -2.275119e-20)
(9.406713 -10.24564 3.954196e-18)
(10.21761 -10.27121 5.640029e-21)
(11.03113 -10.23169 -5.399287e-18)
(11.84126 -10.13191 -8.239982e-20)
(12.63764 -9.966772 1.332459e-17)
(13.4122 -9.733829 7.293712e-18)
(14.16096 -9.435855 -5.894686e-20)
(14.88661 -9.079444 8.319008e-18)
(15.58413 -8.669488 6.76197e-20)
(16.24514 -8.201789 -7.575797e-20)
(16.86218 -7.681901 7.542942e-20)
(17.43177 -7.112344 8.221978e-20)
(17.95407 -6.499963 1.077654e-17)
(18.42475 -5.848968 -8.481107e-20)
(18.83138 -5.161706 0)
(19.17198 -4.442259 0)
(19.479 -3.706627 0)
(19.73753 -2.964822 0)
(19.9289 -2.221154 2.291837e-20)
(20.03714 -1.482168 -2.286191e-20)
(20.04263 -0.7523428 1.418309e-18)
(19.89884 -0.09878034 5.464602e-21)
(19.40578 0.384933 0)
(17.48989 0.6194148 -1.259481e-18)
(11.56253 0.5747881 2.667412e-18)
(5.631002 0.5757723 -3.129757e-18)
(3.068396 0.7433138 4.533358e-20)
(2.077238 0.9632349 -5.10908e-18)
(3.234827 1.031325 5.300882e-20)
(-3.652724 -2.159221 0)
(-11.11196 -4.943006 1.5437e-17)
(-9.42927 -3.695779 -3.352838e-17)
(-7.550827 -2.892976 -1.062933e-17)
(-4.834065 -1.975536 -2.72348e-20)
(-3.254667 -1.546108 -8.202184e-20)
(-2.415703 -1.307062 3.571899e-20)
(-1.486435 -0.6844446 0)
(0.1194989 0.6779603 1.22936e-18)
(2.934315 2.930645 2.081359e-19)
(5.428564 4.759667 -5.175546e-21)
(4.365814 3.720674 -1.496046e-18)
(1.363898 0.8700168 5.051141e-18)
(-1.471634 -2.174884 4.210966e-18)
(-3.755111 -5.000082 7.012119e-21)
(-4.945316 -6.683091 -6.571221e-18)
(-4.913193 -6.837088 -5.339269e-20)
(-4.09288 -5.879639 -5.78062e-18)
(-2.813861 -4.013574 2.825633e-20)
(-1.221531 -1.365702 8.889843e-21)
(0.3033299 1.468764 -3.806947e-20)
(1.332934 3.46709 0)
(2.125832 4.935183 0)
(1.667382 3.350799 -3.755487e-18)
(-0.5526076 -2.674021 0)
(-0.8101228 -2.532293 -3.091839e-18)
(-0.3776112 0.3504156 1.293641e-18)
(0.2462912 3.378351 -1.757587e-20)
(0.6667962 5.153793 1.791337e-20)
(0.7169143 5.083216 1.486726e-18)
(0.4088337 3.780274 -6.437265e-19)
(0.26507 0.5654373 -2.467651e-19)
(1.244989 -9.802024 1.780382e-19)
(1.222308 -10.79402 -4.090362e-19)
(1.194862 -10.11862 1.436345e-20)
(1.441258 -9.902686 -9.375884e-19)
(1.652271 -9.316633 0)
(1.805745 -8.555758 -3.148831e-18)
(1.878197 -7.649431 -2.051304e-20)
(1.864583 -6.651961 1.250444e-18)
(1.787544 -5.629208 2.243414e-18)
(1.654001 -4.647087 2.1107e-18)
(1.496535 -3.757949 2.10416e-18)
(1.327046 -2.999348 -1.674808e-20)
(1.163485 -2.367026 0)
(0.9711898 -1.832936 0)
(0.7454159 -1.337278 2.571309e-18)
(0.4769968 -0.8632437 2.754063e-18)
(0.1367418 -0.3909071 2.824204e-18)
(-0.3026702 0.1412777 4.383591e-20)
(-0.8004656 0.8011412 0)
(-0.44803 0.6018909 2.467767e-18)
(0.3459991 0.06236317 2.01329e-18)
(1.253615 -0.6090759 -1.453439e-18)
(2.331377 -1.492909 0)
(3.497812 -2.450183 6.918578e-19)
(2.807517 -2.256081 0)
(1.163008 -1.342388 -6.53135e-19)
(0.2075376 -0.5394272 0)
(-0.5102968 -0.05434077 -1.945044e-18)
(-1.495257 0.2469689 -5.338587e-18)
(-3.379252 0.6955692 0)
(-5.77131 1.538381 0)
(-6.876512 2.300937 3.926256e-20)
(-7.172314 3.350645 -3.838937e-18)
(-1.422934 1.71505 1.797598e-18)
(4.821962 -1.002413 2.517879e-18)
(7.030265 -1.462926 -9.649016e-19)
(8.140235 -1.209249 1.410747e-18)
(8.292632 -0.6766673 -9.150293e-19)
(9.288719 0.3833941 0)
(13.40981 1.27969 0)
(16.34475 1.866236 -1.2701e-18)
(16.44276 2.115005 -1.37653e-18)
(16.10173 2.486855 -2.903856e-18)
(16.03354 3.061007 2.999493e-18)
(15.92723 3.687421 7.227276e-20)
(15.76657 4.305293 -4.849084e-20)
(15.53714 4.905796 0)
(15.23651 5.470219 0)
(14.87354 6.007043 5.765574e-18)
(14.46401 6.515061 -5.558732e-18)
(14.00409 6.979466 0)
(13.49152 7.39771 0)
(12.93473 7.762988 7.066192e-20)
(12.33944 8.077142 -4.450755e-18)
(11.71379 8.33545 0)
(11.06196 8.534288 -3.4899e-18)
(10.392 8.6846 -3.066013e-18)
(9.712486 8.780436 -2.589836e-18)
(9.020563 8.808103 2.166728e-18)
(8.317646 8.772393 -2.281693e-20)
(7.616564 8.683242 1.217533e-18)
(6.925808 8.540898 0)
(6.248246 8.336665 -2.681174e-19)
(5.584536 8.071099 7.322186e-21)
(4.937909 7.752277 7.373171e-21)
(4.319145 7.372164 -1.217208e-18)
(3.7236 6.939627 0)
(3.164345 6.457065 -2.116848e-18)
(2.641094 5.930623 -2.117808e-20)
(2.161456 5.363361 2.94086e-18)
(1.726724 4.757949 1.65689e-18)
(1.340652 4.115014 -1.825697e-18)
(1.003897 3.436856 -1.981463e-18)
(0.721249 2.732191 2.114361e-18)
(0.4880542 2.012961 -2.235108e-18)
(0.3258245 1.2676 -1.133505e-18)
(0.2044899 0.5160063 2.367142e-18)
(0.1508536 -0.2083672 1.208269e-18)
(0.1556524 -0.920228 2.393231e-21)
(0.2384306 -1.661041 5.780898e-19)
(0.3653004 -2.436246 -8.588513e-21)
(0.5553487 -3.208525 0)
(0.8048164 -3.962029 -1.411218e-20)
(1.109557 -4.691031 -1.151803e-20)
(1.470603 -5.392045 -1.482656e-18)
(1.882571 -6.059037 2.636361e-18)
(2.351422 -6.689937 -1.106564e-18)
(2.863238 -7.286922 1.679457e-18)
(3.419247 -7.834582 1.140569e-20)
(4.020763 -8.335385 0)
(4.657257 -8.795332 1.918913e-19)
(5.328463 -9.199294 -1.029528e-20)
(6.035767 -9.549553 9.19405e-19)
(6.767135 -9.853641 0)
(7.51535 -10.093 2.058443e-18)
(8.279476 -10.26241 0)
(9.056441 -10.37562 -5.61861e-20)
(9.840198 -10.43062 3.752401e-18)
(10.63074 -10.42052 0)
(11.4174 -10.35435 -4.923605e-18)
(12.19267 -10.22467 -5.468389e-18)
(12.94858 -10.02832 -5.980674e-18)
(13.68073 -9.767428 0)
(14.39376 -9.447201 -1.390315e-17)
(15.08072 -9.075179 1.110754e-19)
(15.73407 -8.644702 0)
(16.3461 -8.162685 0)
(16.9135 -7.629885 0)
(17.43713 -7.052021 8.738094e-18)
(17.9091 -6.440417 -9.029161e-18)
(18.3214 -5.789421 0)
(18.66952 -5.101447 0)
(18.95165 -4.387065 4.74113e-18)
(19.17379 -3.647477 3.781567e-20)
(19.329 -2.888458 0)
(19.40759 -2.116882 0)
(19.414 -1.347032 -2.367664e-18)
(19.3788 -0.6006151 2.836293e-19)
(19.40994 0.04057589 0)
(19.8164 0.4639712 9.643131e-19)
(18.57838 0.8285227 3.209367e-20)
(15.78619 1.452044 2.654109e-20)
(13.31806 2.081292 -3.571043e-20)
(10.66648 2.420721 3.727633e-18)
(4.485857 0.9163355 2.81548e-18)
(-4.278668 -2.936065 5.002712e-20)
(-7.628749 -4.01106 1.013927e-19)
(-6.416595 -2.454232 1.432692e-17)
(-4.490365 -1.199704 9.037267e-18)
(-1.853715 -0.2366364 0)
(-0.3551456 0.1238214 4.232823e-18)
(-0.1776999 0.1052248 0)
(0.1704071 0.5477436 -2.824947e-20)
(0.9604116 1.600388 -9.55348e-19)
(2.730117 3.177957 5.829539e-21)
(4.864499 4.297479 -6.346617e-21)
(3.749684 2.777489 1.219906e-18)
(0.9865574 -0.07224035 -1.995562e-18)
(-1.853558 -3.167077 -3.282445e-18)
(-3.95163 -5.639894 -4.622568e-18)
(-4.765192 -6.657063 -5.373005e-18)
(-4.73747 -6.661199 0)
(-4.176314 -5.792734 -6.210635e-21)
(-3.020772 -3.802755 0)
(-1.490781 -1.168883 -2.566727e-18)
(0.0110192 1.5484 2.537772e-18)
(1.202935 3.626651 0)
(1.997103 4.568178 0)
(2.321138 4.236582 5.935481e-18)
(0.2602427 -1.091483 -1.323273e-18)
(-0.6905294 -1.734494 2.581795e-18)
(-0.5764384 0.9984638 -9.925554e-21)
(-0.01704116 3.471333 9.782767e-21)
(0.5442822 4.838134 0)
(0.7873999 4.800674 -1.214184e-18)
(0.6284613 3.585766 1.017876e-18)
(0.8062501 -3.266486 1.905131e-19)
(1.5381 -10.83246 -2.883239e-19)
(1.073999 -10.13271 -1.105104e-20)
(0.9733774 -9.967501 1.174104e-20)
(1.186111 -9.660741 -2.281473e-20)
(1.40745 -9.086552 2.281978e-20)
(1.568696 -8.338516 1.293099e-18)
(1.646225 -7.454151 -1.676446e-20)
(1.639584 -6.485415 -1.023812e-18)
(1.578717 -5.499629 3.033284e-20)
(1.466189 -4.557659 -1.693263e-18)
(1.338089 -3.704653 -3.172856e-20)
(1.198542 -2.977647 0)
(1.070781 -2.374945 0)
(0.9051955 -1.869428 -2.029855e-18)
(0.7039383 -1.39948 -2.147641e-18)
(0.455748 -0.9469084 -4.523472e-18)
(0.1236232 -0.4964285 -2.313258e-18)
(-0.3139644 -0.01505963 0)
(-0.8447549 0.7744905 0)
(-0.7494319 1.027806 -4.027829e-18)
(0.08058553 0.4812323 -3.308542e-18)
(0.9036556 -0.124421 1.59274e-20)
(1.751389 -0.8347322 -2.643991e-20)
(2.720903 -1.800886 -1.130247e-18)
(2.242771 -2.016109 -4.058368e-19)
(1.328654 -1.620473 5.456823e-19)
(1.158665 -1.145764 1.054568e-18)
(0.8519175 -0.8116141 1.513657e-18)
(0.007382956 -0.6167404 2.236828e-18)
(-1.944753 -0.2443052 0)
(-4.119765 0.6314201 -1.096632e-19)
(-5.053434 1.60589 -8.724601e-18)
(-4.487945 3.023354 7.148009e-20)
(-1.353381 2.373849 7.351825e-20)
(6.654578 -0.7305298 -9.440701e-19)
(11.9482 -1.723608 -7.330757e-19)
(13.79208 -1.557865 -3.252054e-20)
(14.88447 -0.8509807 -6.559113e-19)
(15.66697 0.4957415 -3.084788e-19)
(16.64346 1.475055 -2.229628e-21)
(16.53016 1.765601 0)
(15.9934 1.820489 -1.793435e-20)
(16.07916 2.14604 1.22993e-18)
(16.14244 2.659169 -4.966787e-18)
(16.09827 3.248203 3.918454e-20)
(15.96058 3.853456 -2.541102e-18)
(15.73447 4.453479 -7.696129e-20)
(15.43724 5.021483 -4.830553e-18)
(15.07796 5.565543 -7.868698e-21)
(14.6701 6.089997 4.587109e-18)
(14.21333 6.568624 -4.292613e-18)
(13.70281 7.005283 0)
(13.14711 7.389341 5.70274e-20)
(12.55047 7.725948 -5.734959e-20)
(11.92236 8.006931 0)
(11.26628 8.229274 2.87587e-18)
(10.59096 8.403096 6.096026e-20)
(9.904988 8.522395 2.164853e-18)
(9.206828 8.572191 -1.724072e-18)
(8.498794 8.555616 -1.333365e-18)
(7.789218 8.487072 -9.831998e-19)
(7.090624 8.364044 -5.522567e-19)
(6.405394 8.177852 -3.826725e-22)
(5.732606 7.929942 3.864182e-22)
(5.076994 7.628042 0)
(4.450075 7.263171 9.881465e-19)
(3.845724 6.845281 -2.428821e-20)
(3.278725 6.375862 1.763411e-18)
(2.748403 5.861335 2.060646e-18)
(2.264295 5.304229 -2.380222e-18)
(1.824921 4.708486 -1.359758e-18)
(1.435286 4.074672 -2.58744e-21)
(1.095562 3.405643 1.625098e-18)
(0.8129157 2.709412 2.761963e-20)
(0.5769413 1.999333 1.790113e-18)
(0.4176974 1.25924 1.483345e-20)
(0.2922023 0.5107341 -9.886498e-19)
(0.2363363 -0.2078992 -4.922371e-19)
(0.2400714 -0.915212 -5.922693e-23)
(0.3306795 -1.652225 4.592635e-19)
(0.4590966 -2.423104 7.038959e-21)
(0.6520447 -3.190447 -8.321484e-19)
(0.9068057 -3.938748 1.545102e-18)
(1.217098 -4.660971 0)
(1.58381 -5.353037 -4.744468e-21)
(2.001195 -6.008989 -1.08575e-18)
(2.477836 -6.627064 9.31086e-19)
(2.995646 -7.210987 -1.461378e-18)
(3.562491 -7.742189 1.288264e-20)
(4.176063 -8.225883 -1.27652e-20)
(4.819735 -8.670446 -1.577201e-19)
(5.501904 -9.055499 0)
(6.223803 -9.384642 -7.627456e-19)
(6.962633 -9.671296 3.740375e-20)
(7.720162 -9.889958 -7.392132e-20)
(8.495294 -10.03662 -2.064614e-18)
(9.281441 -10.12746 -2.651227e-18)
(10.0739 -10.15874 -1.491717e-20)
(10.87233 -10.12394 3.471384e-18)
(11.66793 -10.03076 -5.806715e-20)
(12.44954 -9.874822 -4.364109e-18)
(13.21122 -9.65043 0)
(13.94999 -9.359344 5.181307e-18)
(14.66645 -9.011999 5.647707e-18)
(15.35298 -8.616441 5.818334e-18)
(16.00534 -8.16117 -6.155146e-18)
(16.61483 -7.656055 6.561711e-18)
(17.17927 -7.100072 0)
(17.69959 -6.499768 -1.430354e-17)
(18.16732 -5.870715 1.490327e-17)
(18.57435 -5.201626 -1.763291e-19)
(18.91601 -4.501531 -3.821119e-18)
(19.19588 -3.771201 -3.886062e-18)
(19.40653 -3.029858 0)
(19.53846 -2.287329 2.002772e-18)
(19.58386 -1.539471 -1.987832e-18)
(19.52735 -0.8176195 9.807335e-19)
(19.37848 -0.1508898 -2.426424e-19)
(19.12769 0.3914991 -4.548646e-19)
(19.23886 0.6836623 1.302393e-20)
(19.7189 1.069758 -1.593855e-18)
(19.46753 1.960656 3.647867e-20)
(18.31215 2.840644 0)
(16.36608 3.112799 0)
(8.854009 1.169887 -8.233397e-20)
(-1.955947 -2.874769 8.068897e-20)
(-2.99082 -2.641623 0)
(-3.00162 -0.8179148 0)
(-1.300234 0.6929697 0)
(0.8235257 1.484088 4.602993e-18)
(2.399001 1.779601 -6.599712e-18)
(2.560714 1.74774 2.822002e-18)
(2.250048 1.931288 -1.992087e-18)
(2.120528 2.619777 -2.860986e-20)
(2.531176 3.293557 1.449161e-19)
(3.812328 3.335531 4.950667e-19)
(2.779923 1.395872 2.104119e-20)
(0.6375796 -1.07664 1.37176e-20)
(-1.892563 -3.849549 -3.320761e-20)
(-3.759559 -5.796683 -6.318468e-20)
(-4.599959 -6.529801 4.573749e-18)
(-4.763732 -6.551147 0)
(-4.293463 -5.639905 3.845025e-18)
(-3.287099 -3.606606 -2.727088e-18)
(-1.827521 -1.007403 2.107373e-18)
(-0.3343674 1.626592 0)
(1.003806 3.66362 0)
(1.89974 4.386208 -4.483654e-20)
(2.700952 4.431689 -2.404328e-18)
(1.183335 0.5820362 1.097317e-18)
(-0.4526742 -0.721514 -1.0848e-18)
(-0.792459 1.370991 0)
(-0.3757315 2.918834 0)
(0.271388 3.639387 0)
(0.7378017 3.733301 -1.01236e-18)
(0.9896663 0.2678944 -4.050539e-19)
(1.484495 -7.411701 -2.848322e-19)
(1.601053 -10.43339 1.217546e-19)
(1.04816 -9.616046 0)
(1.027461 -9.598216 -6.377882e-19)
(1.149151 -9.231431 0)
(1.29015 -8.677579 -1.15518e-18)
(1.401017 -7.942602 0)
(1.441737 -7.077372 0)
(1.408947 -6.130795 -8.231707e-19)
(1.341215 -5.177038 -1.497424e-18)
(1.230413 -4.282156 1.417779e-18)
(1.130752 -3.482662 -1.41003e-18)
(1.011847 -2.804047 1.457577e-18)
(0.9189843 -2.243397 0)
(0.7730135 -1.781174 3.345015e-18)
(0.5937637 -1.357957 1.766952e-18)
(0.3704176 -0.9558532 1.918612e-18)
(0.0530843 -0.5496159 -5.898067e-20)
(-0.3922905 -0.1037387 -5.766844e-20)
(-0.770315 0.5306186 -1.769904e-18)
(-0.908271 1.224952 3.329293e-18)
(-0.4264988 1.154148 1.348169e-18)
(0.3869923 0.5299889 2.631937e-20)
(1.249124 -0.2313534 6.452841e-19)
(2.019752 -1.150481 4.689241e-19)
(1.785501 -1.729062 3.394231e-19)
(1.724934 -1.91059 0)
(2.284481 -1.752188 -4.670259e-21)
(2.260642 -1.561829 0)
(1.424285 -1.500362 1.719369e-18)
(-0.2922521 -1.319068 2.875988e-18)
(-1.95435 -0.4581945 5.295442e-18)
(-2.511644 0.8125756 -2.652714e-19)
(-1.525136 2.525471 9.549219e-20)
(0.4328783 2.695254 -2.423284e-18)
(9.08903 -0.2825344 0)
(14.09118 -1.564547 -5.650444e-19)
(15.34757 -1.616011 -8.693867e-19)
(16.54801 -0.9469096 1.028026e-18)
(16.97939 0.3650644 2.397611e-19)
(16.58959 1.377379 0)
(15.90252 1.734151 4.410616e-19)
(15.74371 1.990584 0)
(15.85541 2.444171 0)
(15.87102 2.993344 2.073983e-18)
(15.81289 3.597563 -3.186546e-20)
(15.6752 4.186273 3.892231e-20)
(15.45585 4.766739 -2.012133e-18)
(15.16339 5.310497 4.056255e-18)
(14.80952 5.827718 -3.865127e-18)
(14.41 6.324424 -3.710394e-18)
(13.96801 6.764899 1.769859e-19)
(13.47078 7.169059 -1.068615e-19)
(12.93183 7.518897 -9.244062e-20)
(12.35147 7.826389 -2.634125e-18)
(11.74167 8.080544 -2.634411e-18)
(11.10443 8.276676 -6.693951e-20)
(10.44583 8.430263 2.098572e-18)
(9.780963 8.529082 0)
(9.105248 8.55885 1.419578e-18)
(8.414318 8.528626 1.09756e-18)
(7.72275 8.448359 7.320896e-19)
(7.044512 8.31479 4.543647e-19)
(6.378519 8.120606 0)
(5.724778 7.865388 0)
(5.084983 7.561017 -5.403185e-19)
(4.476329 7.193066 0)
(3.885023 6.776271 0)
(3.332607 6.308873 1.506445e-18)
(2.817289 5.797414 -3.801221e-20)
(2.341291 5.246933 -9.35843e-21)
(1.908417 4.657541 -3.654664e-20)
(1.525787 4.030166 2.500504e-18)
(1.193923 3.367659 0)
(0.9213436 2.67817 0)
(0.6817795 1.981783 1.512794e-18)
(0.5296965 1.250418 7.47822e-19)
(0.3984696 0.5051914 7.964445e-19)
(0.3383674 -0.2086112 -4.028092e-19)
(0.3408569 -0.911019 0)
(0.4446617 -1.642812 -1.862268e-22)
(0.5767328 -2.409732 2.217156e-20)
(0.7615375 -3.174167 6.600548e-19)
(1.008928 -3.91658 -1.266549e-18)
(1.313269 -4.629185 -3.452986e-20)
(1.673359 -5.31005 1.037367e-18)
(2.082681 -5.954758 3.003884e-20)
(2.550962 -6.563005 1.514799e-18)
(3.052251 -7.141301 -1.731755e-20)
(3.603122 -7.667517 -8.985308e-19)
(4.205096 -8.148022 2.166276e-20)
(4.831401 -8.593758 0)
(5.49058 -8.982465 -1.750266e-19)
(6.196468 -9.315014 0)
(6.919299 -9.607855 0)
(7.653117 -9.837533 -1.351433e-18)
(8.407475 -9.994994 3.407339e-18)
(9.175538 -10.09792 7.107638e-20)
(9.946167 -10.14546 -1.30025e-19)
(10.72373 -10.12819 -2.852783e-18)
(11.49774 -10.05719 -3.164758e-18)
(12.25832 -9.924967 3.713968e-18)
(12.99783 -9.728492 -3.9813e-18)
(13.71419 -9.468338 -7.999394e-20)
(14.41326 -9.149236 0)
(15.08202 -8.78677 -5.036825e-18)
(15.71886 -8.364226 1.055003e-17)
(16.31375 -7.895634 -5.583199e-18)
(16.86458 -7.377152 0)
(17.37511 -6.813827 9.836674e-20)
(17.83429 -6.221342 -5.972707e-18)
(18.23508 -5.585385 -9.526746e-20)
(18.57387 -4.916015 1.509612e-19)
(18.85047 -4.211724 -9.928726e-20)
(19.06149 -3.490725 0)
(19.19681 -2.759908 -3.193537e-18)
(19.24647 -2.025816 1.547672e-18)
(19.20537 -1.292601 7.711649e-19)
(19.07969 -0.5843841 -1.212622e-20)
(18.88527 0.04571121 3.67743e-19)
(18.73341 0.505796 6.832812e-19)
(19.00008 1.025854 0)
(19.23467 1.978318 1.37844e-18)
(18.62595 2.860815 -7.385629e-20)
(18.25356 3.013637 2.147118e-18)
(13.53531 1.246155 0)
(2.612657 -2.272884 0)
(0.8977784 -1.271102 0)
(1.165101 1.13245 1.380318e-19)
(2.485659 2.849366 6.066481e-18)
(3.94146 3.407443 -3.67719e-18)
(5.113645 3.409732 2.676754e-18)
(5.201135 3.291298 -4.376084e-18)
(4.48692 3.303882 1.619604e-18)
(3.502905 3.599248 0)
(2.461222 3.252912 -1.197487e-19)
(2.6918 2.115533 -4.050129e-19)
(1.905934 0.07266641 8.854664e-19)
(0.2369533 -2.128258 -3.433814e-20)
(-1.871974 -4.472497 -8.183472e-20)
(-3.522612 -5.918344 8.319874e-20)
(-4.461558 -6.499181 0)
(-4.756839 -6.490876 -3.892994e-18)
(-4.459188 -5.518032 8.506451e-20)
(-3.635136 -3.457706 4.362552e-18)
(-2.252333 -0.8846643 -1.749864e-18)
(-0.7740956 1.663257 1.130399e-19)
(0.7256345 3.615797 -2.237146e-18)
(1.818986 4.335257 0)
(2.880734 4.303419 -2.067413e-18)
(1.931114 1.759199 8.782835e-19)
(-0.08771599 0.3893355 -5.542605e-20)
(-0.9587417 1.449062 7.535118e-19)
(-0.754866 1.449239 -4.809798e-20)
(-0.1244343 1.067492 2.235105e-20)
(0.7774254 -0.1801694 8.339237e-19)
(1.546031 -5.125555 -4.274096e-21)
(2.020399 -10.08732 4.143681e-22)
(1.453868 -9.654269 6.950809e-21)
(0.9374482 -9.295903 2.411395e-19)
(0.8901069 -9.198462 5.291246e-19)
(0.9908678 -8.856607 -5.071143e-19)
(1.101268 -8.307324 9.537593e-19)
(1.174804 -7.574253 0)
(1.181583 -6.704278 7.223021e-19)
(1.11729 -5.745305 7.242246e-19)
(1.034503 -4.774986 1.235973e-18)
(0.9101265 -3.870995 0)
(0.8338432 -3.103391 0)
(0.738333 -2.480673 -1.204523e-18)
(0.6779063 -1.974149 -4.1626e-20)
(0.5511973 -1.565019 -1.339187e-18)
(0.3973301 -1.195803 -1.463736e-18)
(0.210593 -0.8747211 -1.542042e-18)
(-0.07592364 -0.5471246 1.579356e-18)
(-0.5076563 -0.1453124 -1.511096e-18)
(-0.7835562 0.3767952 1.402516e-18)
(-0.8690558 1.095054 -1.340355e-18)
(-0.6974018 1.520563 0)
(-0.05654176 1.165493 0)
(0.8768241 0.3092505 -5.522707e-19)
(1.594425 -0.6729147 0)
(1.612386 -1.525744 -1.002645e-20)
(2.369621 -2.196722 -6.752721e-21)
(3.481124 -2.303494 -6.525354e-19)
(3.639478 -2.293173 -2.633526e-20)
(2.958535 -2.463106 2.237435e-21)
(1.773824 -2.544611 -2.310014e-18)
(0.8106518 -1.740388 3.907889e-20)
(0.6086895 -0.1585269 3.268517e-18)
(1.391011 2.05325 -5.719406e-20)
(3.681199 2.795804 1.048276e-18)
(11.40572 0.3205229 -2.4892e-20)
(14.39442 -1.143775 1.854581e-18)
(14.92442 -1.384488 1.820162e-20)
(16.0949 -0.8193053 -1.637596e-20)
(16.41677 0.2990305 -3.937441e-19)
(16.07937 1.211626 -3.015583e-21)
(15.76489 1.588997 -3.709789e-19)
(15.79568 1.844684 -2.431348e-20)
(15.88466 2.232666 -7.691518e-19)
(15.91015 2.717607 1.619987e-18)
(15.85264 3.290334 -1.636792e-18)
(15.71309 3.86351 3.20806e-18)
(15.49108 4.444851 1.760844e-18)
(15.20167 4.996572 0)
(14.84587 5.532841 0)
(14.44616 6.050681 3.008664e-18)
(14.00427 6.509898 2.861255e-18)
(13.50662 6.93182 0)
(12.96974 7.292968 -7.409888e-20)
(12.38928 7.613633 2.388978e-18)
(11.77684 7.885382 2.098487e-18)
(11.14054 8.092066 1.801916e-18)
(10.48774 8.250206 -4.612188e-20)
(9.825193 8.359837 -1.290613e-18)
(9.147246 8.404053 3.031159e-20)
(8.460987 8.378795 -3.058855e-20)
(7.777803 8.301276 -6.158192e-19)
(7.102943 8.175823 3.213583e-19)
(6.433837 7.995445 0)
(5.788345 7.743525 0)
(5.151546 7.448053 8.931989e-19)
(4.55204 7.084902 -7.679916e-21)
(3.965126 6.675747 -7.324575e-21)
(3.428151 6.211566 -1.161537e-18)
(2.922129 5.705779 -2.806387e-18)
(2.440896 5.171302 1.531124e-18)
(2.011624 4.593853 -1.790628e-18)
(1.633568 3.977274 -9.776666e-19)
(1.308908 3.324089 -3.309627e-20)
(1.043969 2.638945 0)
(0.8000079 1.957983 -1.180979e-18)
(0.6647039 1.240375 -3.967992e-20)
(0.527525 0.4994199 -6.619012e-19)
(0.4622505 -0.2107295 3.451243e-19)
(0.4647449 -0.9074326 -6.277005e-23)
(0.5842262 -1.633371 -3.270681e-19)
(0.7126473 -2.400265 2.757638e-20)
(0.8909271 -3.159546 -5.762531e-19)
(1.128075 -3.886319 1.039802e-18)
(1.425704 -4.5807 -9.833575e-19)
(1.781214 -5.245458 2.987272e-21)
(2.18685 -5.875589 7.699547e-19)
(2.659544 -6.470171 -1.2073e-18)
(3.151751 -7.041416 9.742972e-19)
(3.691691 -7.561174 6.742285e-19)
(4.294536 -8.032806 8.693843e-21)
(4.928996 -8.466187 9.090117e-21)
(5.581371 -8.847618 1.443298e-19)
(6.271302 -9.181127 -4.067856e-19)
(6.994494 -9.46567 2.808249e-20)
(7.728035 -9.684819 9.995552e-19)
(8.475013 -9.835821 -2.754749e-18)
(9.235718 -9.934736 1.674137e-18)
(10.01196 -9.964262 -6.056345e-20)
(10.7873 -9.936626 -2.305249e-18)
(11.55418 -9.86098 5.215092e-18)
(12.31543 -9.71454 9.404739e-20)
(13.05237 -9.506705 3.087385e-18)
(13.7695 -9.229225 -3.563262e-18)
(14.47064 -8.892472 1.101152e-19)
(15.13816 -8.516285 -3.986004e-18)
(15.77529 -8.074529 -4.049873e-18)
(16.36896 -7.589469 1.385986e-19)
(16.92069 -7.04723 -4.61808e-18)
(17.43123 -6.461685 4.750646e-18)
(17.88953 -5.849793 0)
(18.28774 -5.196767 0)
(18.62185 -4.507737 2.561416e-18)
(18.8926 -3.801239 2.557536e-18)
(19.1011 -3.08307 0)
(19.23612 -2.358933 1.367396e-18)
(19.28749 -1.633734 1.249969e-18)
(19.24447 -0.9371496 -6.460119e-19)
(19.11212 -0.2865476 1.490837e-19)
(18.92123 0.264011 3.005108e-19)