/*--------------------------------*- C++ -*----------------------------------*\
| =========                 |                                                 |
| \\      /  F ield         | OpenFOAM: The Open Source CFD Toolbox           |
|  \\    /   O peration     | Version:  2406                                  |
|   \\  /    A nd           | Website:  www.openfoam.com                      |
|    \\/     M anipulation  |                                                 |
\*---------------------------------------------------------------------------*/
FoamFile
{
    version     2.0;
    format      ascii;
    arch        "LSB;label=32;scalar=64";
    class       volScalarField;
    location    "1.06";
    object      p;
}
// * * * * * * * * * * * * * * * * * * * * * * * * * * * * * * * * * * * * * //

dimensions      [0 2 -2 0 0 0 0];

internalField   nonuniform List<scalar> 
217010
(
-88.15547
-43.94359
-52.26638
-52.52412
-48.89934
-47.04459
-46.97629
-46.33242
-46.34734
-46.53098
-46.67931
-46.53593
-46.21932
-46.3015
-46.26389
-46.82937
-47.81822
-48.96181
-50.12137
-51.29201
-52.39271
-53.16603
-53.23562
-52.63478
-51.33362
-49.75911
-50.46411
-50.78762
-51.29667
-61.3334
-71.48525
-66.90311
-55.41189
-54.5125
-56.60985
-57.83819
-58.76924
-59.71729
-61.06615
-62.99439
-66.29276
-68.69747
-73.48119
-78.73801
-83.37661
-87.06798
-89.17399
-89.53123
-83.74189
-87.86116
-79.39566
-80.97238
-81.40488
-81.75424
-81.78367
-83.23159
-88.90973
-99.74816
-110.2502
-108.9807
-94.70264
-84.91578
-86.50431
-89.98996
-91.78898
-94.28989
-99.68833
-107.4248
-111.0499
-107.3813
-102.8062
-103.3153
-105.1563
-106.0308
-106.2803
-106.4796
-106.7418
-107.0223
-107.2891
-107.5085
-107.6457
-107.6725
-107.5677
-107.2938
-107.0229
-106.5263
-105.9027
-105.1655
-104.3406
-103.3752
-102.2841
-101.1341
-99.88053
-98.50595
-97.01468
-95.43585
-93.81591
-92.10886
-90.3066
-88.40179
-86.41433
-84.37632
-82.29571
-80.16839
-77.93999
-75.70268
-73.45306
-71.13557
-68.74101
-66.31411
-63.92879
-61.5483
-59.22462
-56.93095
-54.58113
-52.2378
-50.01255
-47.80123
-45.64334
-43.53733
-41.48494
-39.49014
-37.54464
-35.68345
-33.9149
-32.2149
-30.57588
-29.04184
-27.64331
-26.35871
-25.2001
-24.14832
-23.19036
-22.3033
-21.46115
-20.66187
-19.88938
-19.16682
-18.51165
-17.92686
-17.3874
-16.88324
-16.41742
-15.96971
-15.51203
-15.0227
-14.5336
-14.11591
-13.81917
-12.912
-13.97081
-14.99383
-15.26446
-14.14075
-11.00098
-6.568106
-2.277074
-0.1387928
-0.4585917
-2.340259
-5.775709
-9.73508
-14.05325
-18.14201
-21.45645
-23.73361
-25.19561
-25.77129
-25.22942
-23.57082
-21.63456
-19.59634
-15.80118
-16.56243
-28.57465
-35.0057
-27.05626
-16.5895
-11.67545
-10.12557
-9.57491
-9.622793
-9.826204
-10.07845
-10.0853
-9.878759
-9.465344
-8.56214
-7.604259
-7.957165
-8.299351
-8.597498
-8.771879
-8.921909
-9.174986
-9.472492
-8.998692
-10.98065
-8.403794
-32.86838
-2.114302
-0.6088179
3.403582
5.692239
7.838169
9.665226
11.30696
12.85335
14.2114
15.50143
16.70296
17.82993
18.91433
19.95833
20.95564
21.89892
22.80071
23.68223
24.53889
25.37081
26.18001
26.95934
27.7097
28.45724
29.19726
29.92913
30.63962
31.32159
31.98834
32.65327
33.318
33.97663
34.61016
35.23298
35.85805
36.47705
37.09502
37.71035
38.33214
38.93445
39.55391
40.15056
40.74638
41.3375
41.93036
42.51684
43.09712
43.68303
44.28304
44.88532
45.47718
46.0612
46.64618
47.25151
47.86801
48.47729
49.08985
49.70971
50.32981
50.95762
51.58726
52.21304
52.85462
53.53644
54.21164
54.84571
55.46799
56.09178
56.74075
56.6048
58.29097
35.80821
39.89617
39.21451
39.78765
41.14118
41.79565
41.59408
40.89278
40.10494
39.37557
38.66176
37.92568
37.18599
36.471
35.77345
35.07982
34.38245
33.68135
32.99434
32.31798
31.63117
30.94071
30.26009
29.57007
28.88402
28.18867
27.47162
26.75823
26.05909
25.35707
24.6428
23.87808
23.16987
22.4207
21.64878
20.88023
20.11134
19.31592
18.50786
17.70046
16.87778
16.01653
15.11979
14.22543
13.33687
12.4197
11.46382
10.48296
9.462943
8.408355
7.330918
6.219866
5.098333
3.911771
2.659066
1.36904
0.0109839
-1.401728
-2.905349
-4.513515
-6.202684
-7.990601
-9.956836
-12.07356
-14.48212
-17.0647
-19.96533
-23.46607
-27.21389
-33.92138
-36.52991
38.51004
39.66559
39.21045
39.65811
41.03399
41.76928
41.62967
40.96399
40.17943
39.44471
38.72843
37.99112
37.24828
36.5288
35.82785
35.13165
34.43208
33.7283
33.03855
32.35987
31.6711
30.97857
30.29597
29.60394
28.91636
28.21945
27.50089
26.7856
26.08455
25.38089
24.66555
23.89819
23.1906
22.43884
21.66553
20.89567
20.12555
19.32879
18.51958
17.71095
16.88717
16.02443
15.12623
14.23067
13.34104
12.42236
11.4652
10.48321
9.461537
8.405075
7.325744
6.212678
5.089908
3.900086
2.644585
1.352034
-0.009751649
-1.425409
-2.934006
-4.54746
-6.241047
-8.034736
-10.00752
-12.1316
-14.55992
-17.15321
-20.07436
-23.59495
-27.42511
-34.05303
-37.73659
-2.86287
-0.6984103
3.274609
5.611863
7.768815
9.608702
11.25629
12.81597
14.17857
15.47147
16.67725
17.80715
18.89429
19.94112
20.94133
21.88708
22.79045
23.67367
24.53213
25.3656
26.17626
26.9572
27.70849
28.45699
29.19801
29.93096
30.64267
31.32557
31.99326
32.65918
33.32495
33.98466
34.61926
35.24301
35.86922
36.48926
37.10844
37.72506
38.34884
38.95149
39.57255
40.17044
40.76772
41.36022
41.95444
42.54233
43.12421
43.71208
44.31401
44.91792
45.51116
46.09699
46.68446
47.29244
47.91126
48.52267
49.13772
49.76018
50.38305
51.01358
51.64575
52.27516
52.92206
53.60803
54.28422
54.91874
55.5451
56.16804
56.7711
56.65366
57.5737
-13.85747
-14.91559
-15.38228
-14.46263
-11.46009
-7.00183
-2.559306
-0.2194474
-0.399883
-2.167984
-5.527541
-9.46172
-13.78359
-17.90785
-21.28434
-23.6203
-25.14475
-25.78261
-25.29022
-23.66598
-21.72478
-19.70659
-15.83175
-16.3731
-28.49977
-35.21723
-27.28739
-16.67163
-11.68649
-10.12454
-9.57313
-9.621681
-9.82515
-10.07834
-10.08749
-9.881344
-9.465675
-8.559179
-7.603677
-7.960698
-8.30505
-8.602617
-8.775789
-8.926491
-9.18385
-9.471406
-9.030471
-10.97715
-8.991823
-29.29949
-79.61007
-80.85045
-81.35594
-81.72159
-81.70855
-82.89279
-88.14831
-98.75975
-109.7323
-109.5039
-95.82686
-85.32831
-86.36562
-89.7985
-91.62806
-94.02596
-99.27247
-107.0511
-111.0266
-107.6023
-102.9302
-103.2425
-105.0742
-105.9966
-106.2683
-106.4686
-106.732
-107.0152
-107.2848
-107.5074
-107.6491
-107.6799
-107.5784
-107.3052
-107.0338
-106.5415
-105.9201
-105.183
-104.359
-103.3947
-102.3021
-101.1511
-99.89715
-98.52175
-97.02921
-95.44709
-93.82504
-92.11604
-90.31133
-88.40344
-86.41253
-84.37137
-82.28695
-80.15663
-77.92423
-75.68277
-73.42921
-71.10741
-68.70864
-66.27711
-63.88825
-61.50423
-59.17667
-56.87878
-54.52475
-52.18147
-49.94537
-47.73395
-45.57375
-43.46503
-41.41012
-39.41301
-37.46596
-35.60407
-33.83479
-32.1341
-30.49586
-28.96436
-27.5691
-26.28822
-25.13332
-24.08477
-23.12909
-22.24289
-21.40109
-20.60125
-19.82949
-19.10906
-18.45767
-17.87541
-17.33756
-16.83465
-16.369
-15.91828
-15.45487
-14.96197
-14.47422
-14.06138
-13.73005
-12.91153
-81.55748
-44.87851
-52.09221
-52.64427
-49.01631
-47.06784
-46.98471
-46.34036
-46.34784
-46.5301
-46.68089
-46.53825
-46.22
-46.30236
-46.26491
-46.8314
-47.82094
-48.9656
-50.13111
-51.30397
-52.40483
-53.17385
-53.23692
-52.62719
-51.30163
-49.74419
-50.47536
-50.81926
-51.48861
-61.7546
-71.81884
-66.75224
-55.0932
-54.52452
-56.71023
-57.91355
-58.83464
-59.78944
-61.16919
-63.16879
-66.51378
-68.97697
-73.92146
-79.21656
-83.82249
-87.44545
-89.40404
-89.34393
-83.62331
-86.44704
-73.64243
-45.24591
-51.82972
-52.75596
-49.1369
-47.08589
-46.9925
-46.35116
-46.35198
-46.53265
-46.68583
-46.54046
-46.21777
-46.3039
-46.26812
-46.83971
-47.83011
-48.97398
-50.14037
-51.32008
-52.42673
-53.19371
-53.24866
-52.63406
-51.29323
-49.75195
-50.52044
-50.91394
-51.78886
-62.26986
-72.27648
-66.75609
-54.90597
-54.48056
-56.69712
-57.9853
-58.89835
-59.84756
-61.25488
-63.3022
-66.66657
-69.20799
-74.21601
-79.45134
-83.98989
-87.51985
-89.51411
-89.23296
-83.43633
-85.66395
-79.67047
-80.80942
-81.34483
-81.73136
-81.67668
-82.67319
-87.6467
-98.19442
-109.8705
-110.338
-96.82342
-85.39891
-86.21365
-89.70006
-91.59318
-93.93032
-99.06591
-106.9047
-111.0709
-107.795
-103.062
-103.2401
-105.0191
-105.9618
-106.2733
-106.4897
-106.7583
-107.0414
-107.3051
-107.5229
-107.6641
-107.6959
-107.5915
-107.3151
-107.035
-106.5513
-105.9325
-105.1935
-104.3705
-103.4087
-102.3127
-101.1616
-99.90895
-98.53341
-97.0385
-95.45474
-93.8338
-92.12486
-90.31988
-88.41106
-86.41816
-84.3762
-82.28937
-80.16056
-77.9253
-75.68179
-73.42835
-71.10517
-68.70431
-66.26776
-63.87872
-61.49271
-59.16299
-56.86528
-54.50741
-52.16022
-49.93444
-47.71383
-45.55104
-43.44139
-41.38453
-39.38659
-37.43799
-35.57521
-33.80578
-32.10472
-30.46529
-28.93253
-27.539
-26.25844
-25.10501
-24.05774
-23.10281
-22.21792
-21.37585
-20.57721
-19.8046
-19.08503
-18.43517
-17.85482
-17.31782
-16.81575
-16.35217
-15.90497
-15.44324
-14.94603
-14.46042
-14.05093
-13.73301
-12.91396
-13.79458
-14.88537
-15.51464
-14.63308
-11.66373
-7.300539
-2.817806
-0.3349502
-0.3903807
-2.085049
-5.416924
-9.342068
-13.69729
-17.86235
-21.28119
-23.63992
-25.18957
-25.83547
-25.41337
-23.86868
-21.8864
-19.70779
-15.7624
-16.15762
-28.53947
-35.62896
-27.58996
-16.75477
-11.67267
-10.11426
-9.567379
-9.619066
-9.82262
-10.08192
-10.0972
-9.890459
-9.475508
-8.564989
-7.606775
-7.964336
-8.310369
-8.606851
-8.777882
-8.929143
-9.189883
-9.467741
-9.030526
-10.99858
-9.224616
-24.81182
-2.966872
-0.7697236
3.221918
5.57448
7.738306
9.584535
11.23782
12.79276
14.16694
15.45983
16.66735
17.79819
18.88572
19.93392
20.93532
21.88261
22.78558
23.66954
24.52869
25.3629
26.17396
26.95609
27.70705
28.45599
29.19771
29.93141
30.64429
31.32724
31.99482
32.6609
33.32709
33.98801
34.62304
35.24602
35.87287
36.49311
37.11349
37.73048
38.35328
38.95793
39.57725
40.1762
40.77426
41.36681
41.9616
42.54995
43.13178
43.71957
44.32266
44.92793
45.52129
46.1073
46.69436
47.30326
47.92415
48.53593
49.15116
49.77521
50.39856
51.02995
51.66333
52.2941
52.94151
53.63061
54.30886
54.94186
55.57287
56.19217
56.76397
56.63359
57.10945
39.73025
39.62846
39.21314
39.60816
40.94534
41.73097
41.63903
40.98632
40.20066
39.46535
38.74793
38.00921
37.26456
36.54435
35.84245
35.14593
34.44561
33.73999
33.05
32.37154
31.68152
30.98838
30.30618
29.61259
28.92609
28.22883
27.50817
26.7924
26.09158
25.38792
24.67044
23.90524
23.19688
22.44612
21.67099
20.90071
20.13052
19.3321
18.52268
17.71452
16.89113
16.02688
15.12711
14.23148
13.34256
12.42282
11.46519
10.48291
9.459589
8.402106
7.321838
6.207942
5.086256
3.894055
2.637263
1.344871
-0.01959247
-1.4348
-2.94672
-4.562178
-6.256631
-8.051975
-10.02715
-12.16775
-14.5896
-17.19219
-20.12338
-23.65877
-27.51445
-34.15267
-37.83518
41.08497
39.65625
39.2092
39.48502
40.79559
41.65778
41.6356
41.025
40.25949
39.53088
38.81376
38.07482
37.32934
36.60706
35.90269
35.20361
34.50131
33.79253
33.10124
32.42035
31.72727
31.03218
30.34841
29.65172
28.96469
28.26527
27.54113
26.82478
26.12226
25.41725
24.6971
23.93431
23.21843
22.46914
21.69084
20.91966
20.14875
19.34717
18.53716
17.72844
16.9045
16.03679
15.13454
14.2385
13.34994
12.42747
11.46868
10.4856
9.459207
8.400114
7.318111
6.202029
5.081566
3.883886
2.623998
1.33106
-0.03930127
-1.454755
-2.973936
-4.594712
-6.292289
-8.092291
-10.07779
-12.22672
-14.65358
-17.27416
-20.22545
-23.77574
-27.70434
-34.23598
-38.01828
-3.139115
-0.8363082
3.104289
5.502841
7.671832
9.531581
11.19541
12.75467
14.13446
15.43099
16.64314
17.77632
18.86615
19.91774
20.92199
21.87273
22.77604
23.66215
24.52318
25.3591
26.17125
26.95595
27.70641
28.45629
29.1994
29.93441
30.64964
31.33336
32.00145
32.66801
33.33511
33.99826
34.63506
35.25764
35.88607
36.50709
37.12984
37.74822
38.36985
38.98296
39.59937
40.19959
40.79947
41.39363
41.98971
42.58018
43.16381
43.75345
44.35825
44.96569
45.5607
46.14909
46.73843
47.3492
47.97322
48.58719
49.20451
49.83109
50.45707
51.09063
51.72647
52.36096
53.0115
53.70286
54.38205
55.01304
55.64607
56.2576
56.76568
56.59786
56.48009
-13.62902
-14.92098
-15.78178
-15.07148
-12.16092
-7.801559
-3.200902
-0.5157869
-0.4094303
-1.984601
-5.235216
-9.106171
-13.46664
-17.65281
-21.11048
-23.50681
-25.10231
-25.85882
-25.543
-24.12293
-22.13839
-19.79065
-15.59696
-15.89572
-28.73579
-36.34418
-28.08723
-16.87935
-11.64126
-10.0929
-9.55391
-9.611242
-9.821347
-10.09475
-10.11337
-9.900557
-9.492221
-8.579229
-7.616031
-7.970502
-8.319442
-8.614023
-8.782582
-8.93372
-9.20597
-9.468048
-9.0407
-11.01846
-9.848991
-20.9747
-79.7913
-80.69888
-81.27219
-81.68949
-81.6238
-82.39469
-86.93988
-97.25721
-109.3135
-111.1451
-98.00517
-85.86914
-86.05075
-89.49121
-91.4651
-93.8051
-98.72034
-106.3462
-110.7631
-107.9437
-103.4247
-103.3806
-104.9808
-105.9231
-106.2896
-106.5313
-106.8049
-107.0849
-107.3389
-107.5489
-107.6893
-107.7226
-107.612
-107.3447
-107.0487
-106.5715
-105.9569
-105.2147
-104.3926
-103.4342
-102.3326
-101.1806
-99.92789
-98.55126
-97.05474
-95.46426
-93.84233
-92.13184
-90.32453
-88.41242
-86.41434
-84.36948
-82.27647
-80.1489
-77.9079
-75.65846
-73.40252
-71.07583
-68.67188
-66.22638
-63.83601
-61.44662
-59.11141
-56.81243
-54.45151
-52.09889
-49.86034
-47.64528
-45.47969
-43.36755
-41.30752
-39.30904
-37.35916
-35.49503
-33.7255
-32.02619
-30.38882
-28.85695
-27.46789
-26.19116
-25.0413
-23.99681
-23.04301
-22.15941
-21.31669
-20.51714
-19.74517
-19.0272
-18.38169
-17.80364
-17.26787
-16.76656
-16.3024
-15.84839
-15.37542
-14.89082
-14.41942
-14.00517
-13.61331
-12.88874
-67.32589
-46.13069
-51.42156
-52.92959
-49.34826
-47.10542
-47.0066
-46.36837
-46.36065
-46.53646
-46.69399
-46.54284
-46.213
-46.30652
-46.27129
-46.85284
-47.84449
-48.98599
-50.15181
-51.34021
-52.45897
-53.23664
-53.28845
-52.66937
-51.30735
-49.7807
-50.51702
-51.02127
-52.20032
-62.99515
-73.01082
-66.97188
-54.65368
-54.35036
-56.74392
-58.08705
-59.0031
-59.93989
-61.3902
-63.51063
-66.91782
-69.55759
-74.71073
-79.9511
-84.47712
-87.99532
-89.81623
-89.2459
-83.24343
-85.06582
-62.91053
-46.98267
-51.001
-53.23889
-49.6449
-47.12991
-47.02415
-46.39378
-46.37472
-46.54138
-46.70536
-46.54513
-46.20813
-46.31248
-46.27348
-46.87256
-47.86758
-49.00542
-50.16765
-51.36547
-52.50114
-53.30206
-53.3664
-52.75264
-51.34855
-49.82756
-50.36196
-50.99909
-52.61972
-63.83791
-73.93252
-67.2637
-54.48105
-54.35803
-56.8593
-58.24418
-59.14079
-60.06024
-61.56629
-63.76988
-67.234
-69.99145
-75.28907
-80.47918
-84.92832
-88.27575
-90.04402
-89.25055
-83.06822
-84.45414
-79.88183
-80.59323
-81.18516
-81.67499
-81.64128
-82.20813
-86.238
-96.21457
-108.769
-111.7922
-99.60294
-86.94801
-86.25386
-89.55323
-91.64828
-93.89834
-98.46565
-105.5212
-109.7715
-107.8099
-103.9487
-103.6833
-104.9863
-105.8849
-106.3022
-106.5715
-106.852
-107.1303
-107.3742
-107.5754
-107.715
-107.7506
-107.6311
-107.3735
-107.0653
-106.5934
-105.9848
-105.2378
-104.4172
-103.466
-102.3561
-101.2044
-99.95486
-98.57822
-97.08261
-95.4833
-93.86242
-92.15234
-90.34376
-88.42965
-86.42648
-84.38136
-82.28094
-80.15886
-77.90991
-75.65268
-73.39708
-71.06899
-68.66308
-66.20411
-63.81503
-61.42119
-59.07639
-56.77918
-54.4177
-52.05688
-49.82007
-47.59712
-45.42654
-43.3123
-41.24965
-39.25024
-37.29607
-35.42955
-33.66112
-31.96261
-30.32389
-28.78956
-27.40643
-26.13079
-24.98372
-23.9417
-22.98956
-22.10749
-21.26294
-20.46466
-19.69189
-18.97439
-18.33316
-17.75801
-17.22377
-16.7235
-16.2617
-15.81208
-15.35312
-14.85692
-14.37818
-13.94736
-13.50671
-12.82441
-13.41609
-14.99394
-16.12473
-15.49154
-12.69958
-8.429541
-3.717326
-0.7864315
-0.4946839
-1.923991
-5.082278
-8.904494
-13.29201
-17.52241
-21.05759
-23.50193
-25.19154
-25.99803
-25.7359
-24.44036
-22.50183
-20.05896
-15.6527
-15.83932
-29.05483
-37.3451
-28.77007
-17.02314
-11.58308
-10.05145
-9.527184
-9.603317
-9.826208
-10.12079
-10.13611
-9.914964
-9.524357
-8.606838
-7.632739
-7.985085
-8.332964
-8.623516
-8.787416
-8.939173
-9.227017
-9.44607
-9.061033
-11.04485
-10.4769
-18.24359
-3.326084
-0.8622425
3.00249
5.440125
7.611697
9.483924
11.15541
12.7165
14.10906
15.40588
16.62203
17.75655
18.8472
19.90155
20.9087
21.86386
22.76579
23.6533
24.5158
25.35336
26.16641
26.95465
27.70336
28.454
29.19813
29.93407
30.65236
31.33615
32.00348
32.67041
33.3386
34.00461
34.64252
35.26317
35.8936
36.51487
37.14003
37.75847
38.37864
38.99102
39.61106
40.21227
40.81348
41.40775
42.00501
42.59702
43.18095
43.77053
44.37748
44.98806
45.58358
46.17295
46.76242
47.37539
48.0041
48.61887
49.23697
49.86786
50.49559
51.13105
51.76956
52.40791
53.06054
53.75721
54.43906
55.06582
55.70307
56.30228
56.74383
56.51081
55.81058
42.77856
39.91915
39.33754
39.48925
40.65053
41.55003
41.6066
41.04701
40.29955
39.57647
38.8587
38.11851
37.36991
36.64491
35.93807
35.23775
34.53368
33.81979
33.12823
32.44746
31.75144
31.05486
30.37189
29.6709
28.98649
28.28595
27.55694
26.83992
26.13675
25.43194
24.70909
23.94631
23.22888
22.48247
21.70032
20.92877
20.15782
19.35252
18.54331
17.73582
16.91264
16.04025
15.13474
14.23989
13.35355
12.42748
11.46817
10.48534
9.454892
8.394172
7.310641
6.192724
5.076727
3.87113
2.607979
1.316064
-0.06091777
-1.472854
-3.001203
-4.626588
-6.324411
-8.12607
-10.12012
-12.28739
-14.71288
-17.34898
-20.31809
-23.8821
-27.86882
-34.24698
-38.20265
44.53252
40.57885
39.69932
39.65719
40.53872
41.40667
41.54268
41.05225
40.33979
39.63574
38.92122
38.18385
37.43811
36.7145
36.00543
35.30455
34.60082
33.88047
33.18851
32.506
31.80505
31.1065
30.42425
29.71652
29.03534
28.3329
27.59728
26.88047
26.17588
25.47037
24.74081
23.98486
23.26107
22.51509
21.72807
20.95658
20.18353
19.3695
18.55961
17.7535
16.93414
16.05502
15.14151
14.24662
13.36591
12.43425
11.47321
10.49205
9.455846
8.391749
7.30361
6.181697
5.076472
3.860345
2.593542
1.300748
-0.08746659
-1.490851
-3.034034
-4.666538
-6.366928
-8.167246
-10.17349
-12.36219
-14.78744
-17.44025
-20.43137
-24.00475
-28.04322
-34.22856
-38.46161
-3.564626
-0.8746119
2.89192
5.369655
7.535094
9.423066
11.10353
12.66985
14.07531
15.37073
16.59423
17.73156
18.82226
19.88181
20.8946
21.85552
22.75248
23.64203
24.50749
25.3486
26.16317
26.95613
27.70161
28.45378
29.19919
29.93818
30.66186
31.34416
32.0112
32.681
33.35046
34.0186
34.65824
35.27653
35.91048
36.53153
37.15998
37.77863
38.40132
39.02609
39.63964
40.24052
40.8445
41.44045
42.04031
42.63443
43.2184
43.80999
44.42148
45.03644
45.63121
46.22263
46.81279
47.4278
48.0623
48.67781
49.29789
49.93241
50.55967
51.19662
51.83787
52.48035
53.13093
53.8282
54.51354
55.1365
55.77489
56.34216
56.68677
56.31952
55.05476
-13.18397
-15.09436
-16.57605
-16.1127
-13.39097
-9.243649
-4.407612
-1.168798
-0.676515
-1.929057
-4.947488
-8.692482
-13.11448
-17.36892
-20.96639
-23.43471
-25.18745
-26.04873
-25.96154
-24.82091
-22.98202
-20.56755
-16.1782
-16.29411
-29.46232
-38.45279
-29.54569
-17.09505
-11.45909
-9.965393
-9.478237
-9.58789
-9.841814
-10.16354
-10.16677
-9.93477
-9.582767
-8.651853
-7.666517
-8.015889
-8.354525
-8.639163
-8.792359
-8.948507
-9.254564
-9.453751
-9.125119
-11.08403
-10.91921
-16.15877
-79.89149
-80.41644
-81.00111
-81.58647
-81.69083
-82.14794
-85.57151
-94.89434
-107.7349
-112.0989
-101.4253
-88.72004
-86.96349
-89.7239
-91.75855
-94.02155
-98.25026
-104.5688
-108.5069
-107.3751
-104.3876
-104.0183
-105.0262
-105.8575
-106.3167
-106.615
-106.9066
-107.1873
-107.4214
-107.6134
-107.752
-107.7928
-107.6635
-107.4106
-107.0918
-106.6245
-106.024
-105.2675
-104.4489
-103.5104
-102.3842
-101.2335
-99.98836
-98.60742
-97.11024
-95.49557
-93.87964
-92.17004
-90.35795
-88.44267
-86.42985
-84.38444
-82.26877
-80.15541
-77.89401
-75.62813
-73.38099
-71.04973
-68.63704
-66.15617
-63.77152
-61.36829
-59.01324
-56.73092
-54.36681
-51.98236
-49.74861
-47.52542
-45.34654
-43.23708
-41.16889
-39.16427
-37.207
-35.34359
-33.57834
-31.879
-30.24021
-28.70649
-27.33174
-26.05525
-24.91311
-23.87652
-22.92523
-22.0426
-21.19666
-20.40031
-19.62356
-18.90725
-18.27603
-17.70217
-17.1688
-16.66938
-16.20848
-15.75149
-15.2671
-14.7759
-14.32086
-13.87411
-13.3808
-12.69433
-59.22532
-47.54128
-50.75908
-53.75638
-50.017
-47.15068
-47.05205
-46.43285
-46.39936
-46.5491
-46.71966
-46.54688
-46.19942
-46.32447
-46.28705
-46.91491
-47.91339
-49.03897
-50.19213
-51.40022
-52.56137
-53.39421
-53.48433
-52.90213
-51.41996
-49.85114
-50.00736
-50.76147
-52.97815
-64.78133
-74.87534
-67.5027
-54.61115
-54.58938
-57.06442
-58.4693
-59.32848
-60.22879
-61.80489
-64.10951
-67.66302
-70.60231
-76.03388
-81.141
-85.5198
-88.81837
-90.45757
-89.29192
-82.98052
-83.81338
-55.73332
-47.80128
-50.92082
-54.35908
-50.65886
-47.09346
-47.07875
-46.49882
-46.4443
-46.56151
-46.73734
-46.55245
-46.2034
-46.34674
-46.34958
-47.0073
-47.9954
-49.08236
-50.21626
-51.44737
-52.63475
-53.5229
-53.66384
-53.14067
-51.52731
-49.80896
-49.43805
-50.3517
-53.42447
-65.85064
-75.71829
-67.66602
-55.20787
-55.17554
-57.40284
-58.80205
-59.65703
-60.50995
-62.16471
-64.59817
-68.2512
-71.60326
-77.11046
-82.02742
-86.26708
-89.42535
-90.93766
-89.38433
-83.04536
-83.27496
-79.89475
-80.2534
-80.82787
-81.51482
-81.83614
-82.28664
-85.00685
-93.17435
-105.737
-111.3594
-102.9143
-91.00439
-88.20139
-90.11522
-91.95832
-94.19883
-98.05965
-103.6116
-107.3456
-106.8894
-104.7029
-104.3311
-105.0981
-105.851
-106.344
-106.6696
-106.9746
-107.2615
-107.4834
-107.6627
-107.7976
-107.8498
-107.7093
-107.4566
-107.1297
-106.6666
-106.0796
-105.309
-104.4991
-103.5736
-102.4222
-101.2789
-100.0344
-98.64549
-97.15188
-95.52725
-93.92413
-92.20608
-90.39152
-88.4794
-86.44392
-84.40401
-82.26293
-80.17417
-77.90126
-75.6326
-73.39501
-71.03637
-68.61709
-66.11898
-63.74075
-61.32381
-58.98396
-56.71288
-54.32037
-51.90492
-49.69613
-47.45031
-45.27566
-43.1727
-41.07467
-39.07044
-37.12191
-35.26009
-33.48184
-31.78316
-30.15348
-28.62219
-27.24143
-25.97271
-24.83383
-23.8039
-22.84283
-21.96553
-21.11989
-20.32179
-19.53954
-18.82775
-18.20642
-17.6347
-17.10293
-16.60568
-16.15055
-15.69574
-15.22757
-14.73776
-14.25863
-13.78635
-13.24277
-12.5298
-12.97837
-15.25133
-17.11347
-16.89346
-14.30556
-10.40475
-5.381716
-1.766415
-0.9780118
-2.039907
-4.853811
-8.410693
-12.94214
-17.26869
-20.92464
-23.41654
-25.31361
-26.33157
-26.30095
-25.32841
-23.61869
-21.34711
-17.33742
-17.45486
-29.96853
-39.44514
-30.19539
-17.06683
-11.23631
-9.82862
-9.396058
-9.573614
-9.87379
-10.22619
-10.20626
-9.959734
-9.680719
-8.730769
-7.757065
-8.072893
-8.389364
-8.661824
-8.795516
-8.96401
-9.351967
-9.325398
-9.095022
-11.11194
-11.10335
-14.33089
-3.804248
-0.8384749
2.797816
5.309695
7.447588
9.361702
11.05565
12.62426
14.0342
15.3295
16.56977
17.70453
18.79184
19.86301
20.87989
21.84031
22.72955
23.62942
24.50015
25.34665
26.15873
26.95379
27.69741
28.45003
29.19691
29.94411
30.6664
31.34515
32.01692
32.6872
33.34982
34.01994
34.6701
35.28359
35.9214
36.54083
37.1748
37.79514
38.41837
39.03898
39.65341
40.25716
40.867
41.46401
42.06332
42.65708
43.24558
43.84104
44.45157
45.06583
45.66162
46.25917
46.85048
47.46702
48.10829
48.72864
49.34776
49.98441
50.61527
51.25904
51.90458
52.55318
53.19912
53.9014
54.60111
55.21506
55.8402
56.34697
56.55544
55.91178
54.20574
46.15326
41.63232
40.26665
39.95013
40.49301
41.24885
41.44096
41.03113
40.37321
39.70266
38.98654
38.241
37.49306
36.77467
36.06177
35.35386
34.64969
33.92413
33.23832
32.55302
31.8435
31.1439
30.46324
29.74448
29.07207
28.35923
27.61688
26.90198
26.19812
25.49833
24.75904
23.99384
23.2724
22.52623
21.73421
20.97313
20.20513
19.38171
18.57047
17.75874
16.94459
16.06643
15.14696
14.24268
13.36945
12.43661
11.47008
10.49035
9.45342
8.390067
7.295604
6.157325
5.065971
3.837172
2.579373
1.285767
-0.1254368
-1.508295
-3.072374
-4.70289
-6.415908
-8.215833
-10.22952
-12.43412
-14.85977
-17.52968
-20.54474
-24.11835
-28.18599
-34.11751
-38.68992
47.54393
43.14397
41.22873
40.53479
40.65699
41.17342
41.34013
40.98303
40.39462
39.7992
39.10782
38.35047
37.57712
36.86793
36.17425
35.45891
34.73157
33.9821
33.31861
32.63919
31.91224
31.2158
30.54634
29.79671
29.17445
28.43632
27.66569
26.9652
26.23407
25.55929
24.80872
24.07103
23.35101
22.58225
21.74612
20.98929
20.22767
19.40716
18.6148
17.79769
16.94747
16.06634
15.18109
14.26986
13.37128
12.45331
11.4895
10.47491
9.439882
8.390326
7.320041
6.168471
5.061977
3.782916
2.5535
1.28744
-0.1831423
-1.53028
-3.151243
-4.733413
-6.451097
-8.316432
-10.33837
-12.55107
-14.97605
-17.6673
-20.72524
-24.30741
-28.41041
-33.98056
-38.87821
-4.011681
-0.8393497
2.636146
5.200191
7.298896
9.300475
10.98492
12.53908
13.95532
15.2908
16.55067
17.65507
18.75233
19.84565
20.84444
21.80459
22.72029
23.63772
24.49479
25.34123
26.13551
26.93893
27.70565
28.43543
29.20182
29.9546
30.64961
31.35975
32.0385
32.68871
33.34457
34.05186
34.72466
35.29978
35.94793
36.56431
37.21063
37.82886
38.44568
39.06095
39.69819
40.31262
40.91765
41.51103
42.10152
42.71445
43.31554
43.89377
44.49063
45.1342
45.75234
46.34111
46.92984
47.53475
48.19793
48.83268
49.4192
50.08268
50.73403
51.36528
52.00652
52.65623
53.29168
54.01269
54.73541
55.29888
55.86799
56.28213
56.31906
55.40939
53.42919
-12.88197
-15.40187
-17.67822
-17.97933
-15.66198
-12.03596
-6.897636
-2.866416
-1.42199
-2.289584
-4.866854
-8.047441
-12.74755
-17.25741
-20.93757
-23.34369
-25.46904
-26.50518
-26.69159
-25.93556
-24.4672
-22.4579
-19.08233
-19.23526
-30.37394
-39.86908
-30.35154
-16.96958
-10.95105
-9.678691
-9.251985
-9.520825
-9.916933
-10.30835
-10.23265
-9.968206
-9.791476
-8.906607
-7.975441
-8.187098
-8.425852
-8.698965
-8.795917
-8.981833
-9.358043
-9.482465
-8.705658
-10.77818
-10.82839
-12.67005
-79.9407
-80.07463
-80.58869
-81.30534
-81.86727
-82.36818
-84.44325
-90.9675
-102.4133
-108.981
-103.32
-93.36234
-89.68994
-90.5882
-92.15344
-94.19644
-97.81153
-102.6216
-106.1874
-106.4408
-104.9399
-104.6047
-105.182
-105.8528
-106.3801
-106.7269
-107.0474
-107.3462
-107.5523
-107.7182
-107.8486
-107.9271
-107.77
-107.5152
-107.1806
-106.7242
-106.1513
-105.3664
-104.5545
-103.6177
-102.4976
-101.3345
-100.0798
-98.70673
-97.22885
-95.61059
-93.96615
-92.22247
-90.43567
-88.52171
-86.43999
-84.44395
-82.25728
-80.23114
-77.92586
-75.64988
-73.34909
-70.95889
-68.59555
-66.11972
-63.68346
-61.29727
-58.97935
-56.59305
-54.16856
-51.81335
-49.59162
-47.31583
-45.19527
-43.03517
-40.88599
-38.95379
-37.03447
-35.11949
-33.30968
-31.64723
-30.06728
-28.50241
-27.10156
-25.87835
-24.74207
-23.70546
-22.6994
-21.86626
-21.01998
-20.18415
-19.4309
-18.72935
-18.08019
-17.52713
-17.00781
-16.50689
-16.05135
-15.59345
-15.10615
-14.60185
-14.15472
-13.65341
-13.09061
-12.33779
-52.66827
-47.55642
-51.67537
-55.55867
-52.08203
-46.81407
-47.01503
-46.61504
-46.48732
-46.55276
-46.76073
-46.56084
-46.17497
-46.39234
-46.45271
-47.12496
-48.08211
-49.12201
-50.21099
-51.48565
-52.72585
-53.65801
-53.87719
-53.52233
-51.6578
-49.66881
-48.7935
-49.87889
-54.04812
-66.6159
-75.8617
-67.68248
-56.25957
-56.30899
-57.98115
-59.40807
-60.27294
-60.95067
-62.73457
-65.32385
-69.02237
-72.94787
-78.52899
-83.19381
-87.23067
-90.01614
-91.43474
-89.37619
-83.25013
-82.62541
-0.0155394
-0.004577395
-5.971
3.988079
0.9772273
-0.1483759
0.03365383
3.067903
1.743514
0.08852763
2.306233
1.029058
-0.004270877
23.44982
0.06205359
4.25432
10.46692
-21.00411
5.490097
2.794008
-0.8151716
5.691379
0.04906649
4.99884
-0.0419452
4.769536
5.020369
0.6423768
3.07732
-0.262138
8.709412
-0.5543243
-146.0274
-0.08181329
6.6774
0.1360776
0.06339784
7.843036
0.01674765
5.580813
8.722352
-0.003783644
-0.4152292
0.9455923
-0.09373474
3.767966
-0.005690852
-0.002683017
0.001301073
9.605698
-5.497194
-0.01429032
-0.9032506
-0.03675622
5.849349
0.08085291
-1.985926
6.098357
-7.295018
-0.002279614
0.1498118
5.900917
-0.1053107
0.4857315
10.01465
0.02250589
-0.09078483
3.872245
13.89837
-1.150843
-0.2804705
0.1016844
7.221818
0.689853
4.415332
5.449553
3.475461
3.336939
-0.007547954
6.992338
0.4709955
4.158453
0.2649265
-0.1029081
0.2071863
0.04778881
9.735263
0.05048985
-0.321223
-0.9383496
6.760185
7.648222
4.845206
0.9948187
-0.1022999
-3.352012
4.925782
5.528095
-138.4481
0.3927644
-0.172201
3.41895
15.77814
0.218374
-3.960502
3.738062
0.2083814
5.900445
0.08860397
3.275845
0.07167227
-226.0784
0.04106198
-1.137334
-4.241976
0.0172708
-0.1240065
1.979962
-10.78794
-0.3782721
-0.2432962
-1.543733
-0.2528955
0.07533829
2.92114
-0.1907767
0.0008713647
0.1009796
2.341682
0.08339446
14.30467
8.694486
3.901502
-0.3509687
0.06272181
-0.01155071
-4.1561
-129.4118
-26.00753
7.987721
4.009111
9.841734
4.035335
-2.202348
-0.06899146
0.4876518
6.86451
-0.7339347
0.01417016
-15.40659
-0.1758465
0.1281103
-0.2614495
3.378208
18.7032
2.807758
0.03494399
-0.745593
0.004524749
1.152075
1.933314
3.45189
-3.013975
0.02228584
8.127809
-0.04243301
-0.4504117
6.557741
-0.2988323
0.7432742
0.1469328
0.241082
0.0397281
-10.89059
-0.2811673
0.002995299
-0.2811014
-0.6455147
-0.1275834
5.008221
-0.1326121
4.649547
-11.5685
-0.8745659
-0.2679806
-5.242417
5.92428
5.503521
7.465882
-0.1197579
-3.363186
0.06988005
4.778875
0.07413041
13.10461
-0.2142777
-0.8075641
0.2885145
-16.69268
-0.1766524
-1.611796
-1.549279
-0.04365003
14.22233
-1.206291
-1.2318
0.01892101
-7.92817
-7.190197
-1.003438
0.02904398
-0.4356641
0.03404168
5.523784
0.01826366
0.04534266
-3.724244
-0.2025333
1.5744
1.816693
-8.919659
-5.963619
3.042326
0.1455399
27.34199
3.45099
4.225436
0.08773621
-4.091328
-16.88566
0.02385395
1.57666
-25.21576
5.723494
1.838165
0.606962
2.311284
5.143613
6.675269
0.07914026
-3.78022
0.2340688
0.02844992
-0.1356751
0.1864967
1.013137
-1.752735
-3.598631
4.319826
5.061128
5.041505
-167.5444
9.470467
-0.08440965
0.02679839
28.27524
-0.4147406
1.397227
-0.8744973
-0.7714858
1.997013
-0.2959494
0.08436105
0.9651005
6.549011
2.624972
0.1137517
1.066672
3.337324
-0.01641292
-1.113206
0.05970218
-0.2044048
0.03056093
8.218796
7.202275
5.585385
0.09852467
0.6107544
0.1041142
-2.01166
-34.5557
2.895803
-0.4394585
8.109427
0.01610012
-5.57021
6.888492
7.925571
2.575231
1.409926
0.04056076
-107.6508
5.629312
6.775224
7.475447
-0.01675329
11.24187
5.152308
-4.524159
-0.490077
5.612162
-2.323578