/*--------------------------------*- C++ -*----------------------------------*\
| =========                 |                                                 |
| \\      /  F ield         | OpenFOAM: The Open Source CFD Toolbox           |
|  \\    /   O peration     | Version:  2406                                  |
|   \\  /    A nd           | Website:  www.openfoam.com                      |
|    \\/     M anipulation  |                                                 |
\*---------------------------------------------------------------------------*/
FoamFile
{
    version     2.0;
    format      ascii;
    arch        "LSB;label=32;scalar=64";
    class       surfaceScalarField;
    location    "0.34";
    object      phi;
}
// * * * * * * * * * * * * * * * * * * * * * * * * * * * * * * * * * * * * * //

dimensions      [0 3 -1 0 0 0 0];

oriented        oriented;

internalField   nonuniform List<scalar> 
6749
(
5.228012e-09
4.07948e-09
-9.307492e-09
-1.757045e-09
-1.17334e-09
2.930385e-09
-1.129065e-10
-1.686704e-09
1.79961e-09
1.759752e-09
-5.423815e-10
-1.217371e-09
1.299698e-09
-1.3933e-09
9.360202e-11
-1.009729e-09
1.832899e-09
-8.231699e-10
1.230633e-09
2.561872e-10
-1.486821e-09
2.417064e-10
1.111909e-09
-1.353615e-09
-9.170342e-10
1.36354e-09
-4.465055e-10
-1.697054e-09
4.948232e-10
1.202231e-09
1.759559e-09
-1.020962e-09
-7.385973e-10
-8.078807e-10
-1.479905e-09
2.287786e-09
-2.238789e-09
-2.366145e-10
2.475403e-09
3.702074e-09
-1.238842e-09
-2.463232e-09
9.898143e-10
4.699831e-10
-1.459797e-09
-1.903909e-09
1.021292e-10
1.80178e-09
1.793445e-09
-1.907183e-11
-1.774373e-09
3.734639e-10
-1.429046e-09
1.055582e-09
-6.418087e-10
-6.150342e-10
1.256843e-09
1.839351e-09
1.601392e-10
-1.99949e-09
-7.936025e-10
1.652066e-09
-8.584632e-10
9.383926e-10
-1.793903e-09
8.555102e-10
1.491611e-09
6.111995e-10
-2.10281e-09
-1.199182e-09
2.489644e-10
9.502174e-10
9.048614e-10
9.362398e-10
-1.841101e-09
-5.882223e-10
-1.09747e-09
1.685692e-09
1.070466e-09
3.542433e-10
-1.424709e-09
3.443389e-10
9.366731e-10
-1.281012e-09
2.804644e-10
-1.37717e-09
1.096705e-09
1.305582e-09
1.344645e-10
-1.440047e-09
-3.311102e-09
1.911296e-09
1.399806e-09
1.470724e-09
2.23135e-09
-1.423958e-09
2.650435e-09
-1.226477e-09
-1.68469e-09
1.044859e-09
6.39831e-10
-7.680378e-10
-1.484061e-09
2.252099e-09
4.825853e-09
-1.007322e-08
5.24737e-09
1.164385e-10
-1.499034e-09
1.382595e-09
-1.682559e-09
1.915214e-09
-2.326542e-10
-9.593346e-10
2.879432e-09
-1.920098e-09
1.032397e-09
7.746253e-10
-1.807023e-09
6.541195e-09
-1.715342e-09
7.377969e-10
8.367714e-10
-1.574568e-09
6.058627e-10
-2.992093e-09
2.38623e-09
4.438298e-09
2.424209e-09
-6.862507e-09
1.293383e-09
-2.602814e-09
1.309431e-09
-1.020354e-09
-6.767001e-10
4.753586e-10
-1.930507e-09
1.455149e-09
-1.023614e-10
-1.159654e-09
1.262015e-09
-1.748512e-09
1.713511e-09
3.500091e-11
4.811845e-10
-1.827482e-09
1.346297e-09
1.597598e-09
-5.825324e-10
-1.015066e-09
1.707453e-09
3.261452e-09
-4.968905e-09
-1.40479e-09
-4.267266e-10
-1.2018e-09
-8.021184e-10
2.003919e-09
-4.449009e-10
1.856962e-09
-1.412061e-09
7.353717e-10
8.532175e-10
-1.588589e-09
6.406239e-09
-5.027756e-09
-1.378483e-09
1.955621e-09
2.20131e-10
-2.175752e-09
-9.967001e-10
1.22536e-09
-2.286596e-10
-3.189126e-10
1.824343e-09
-1.50543e-09
6.755867e-10
-1.701977e-09
1.026391e-09
-5.389015e-10
-1.093204e-09
1.632106e-09
-3.11041e-10
-1.511754e-09
1.822795e-09
-8.265682e-10
6.031586e-10
2.234096e-10
-8.971545e-10
1.347128e-09
-4.499736e-10
-6.78124e-10
-1.091109e-09
1.769233e-09
1.286154e-09
1.95899e-10
-1.482053e-09
-1.052141e-10
-1.999663e-09
2.104877e-09
-1.807845e-09
2.358035e-09
-5.501902e-10
1.012712e-10
1.323156e-09
-1.424427e-09
6.861142e-10
-1.93416e-09
1.248046e-09
1.434999e-09
6.321127e-10
-2.067111e-09
3.002949e-10
-1.312724e-09
1.012429e-09
-4.64159e-10
-1.277124e-09
1.741283e-09
1.189884e-09
4.632773e-10
-1.653161e-09
9.544149e-10
-1.74291e-09
7.884949e-10
2.147131e-09
-1.036858e-09
-1.110273e-09
6.657545e-10
-1.143516e-09
1.850442e-09
-1.07204e-09
-7.784027e-10
3.656752e-09
-2.776886e-09
-8.798662e-10
-1.760559e-11
1.830661e-09
-1.813055e-09
-1.892191e-09
1.172573e-09
7.196181e-10
1.777199e-09
-1.061348e-09
-7.158511e-10
-1.219092e-09
1.490073e-09
-2.709807e-10
-4.244823e-09
4.615545e-10
3.783268e-09
-4.174112e-10
1.692915e-09
-1.275504e-09
-1.674341e-09
3.419424e-10
1.332398e-09
-1.1164e-09
-3.958895e-10
1.512289e-09
1.456408e-09
-1.964895e-09
5.084873e-10
-1.880112e-09
4.144682e-10
1.465643e-09
6.739576e-09
-7.092353e-09
3.527773e-10
1.311119e-09
1.046355e-10
-1.415754e-09
9.359618e-10
9.354055e-10
-1.871367e-09
-1.999253e-09
1.964062e-09
3.519075e-11
-1.059471e-10
-1.660753e-09
1.7667e-09
1.747891e-09
-1.057637e-09
-9.9932e-10
1.885742e-09
-8.864218e-10
2.206913e-09
-3.326306e-09
1.119393e-09
-7.985788e-10
-6.911277e-10
1.489706e-09
-3.776955e-10
-1.10177e-09
1.479465e-09
-2.244924e-09
8.76504e-10
1.36842e-09
-1.325816e-09
-7.071959e-09
8.397776e-09
1.255405e-09
-1.768033e-09
5.126282e-10
-1.860822e-09
9.348448e-10
9.259767e-10
-6.893001e-11
6.912134e-09
-6.843204e-09
-1.230044e-09
-5.628199e-10
1.792864e-09
-9.651476e-10
-7.899582e-10
2.18826e-09
-6.132813e-09
3.944554e-09
1.845743e-10
-1.511209e-09
1.326635e-09
-2.17639e-09
8.997515e-10
1.276638e-09
1.091542e-09
-1.892119e-09
8.005765e-10
3.756471e-09
1.717219e-09
-5.473689e-09
1.648288e-09
-3.731744e-09
2.083456e-09
-8.721685e-10
-7.260585e-10
-2.002907e-09
2.563649e-09
-5.607424e-10
-1.322528e-09
7.72145e-11
1.245314e-09
6.374146e-10
1.119457e-09
-1.756871e-09
1.501605e-09
1.590203e-10
-1.660625e-09
4.994747e-10
1.214636e-09
-1.71411e-09
-9.564269e-10
-8.8753e-10
1.843957e-09
-4.954137e-09
4.949449e-09
4.688138e-12
-1.835443e-09
-8.579458e-10
2.693389e-09
-3.230838e-10
1.917698e-09
-1.594614e-09
-1.71231e-09
2.858992e-10
1.42641e-09
2.02866e-09
-1.093744e-09
-9.349166e-10
2.04343e-09
-2.326822e-10
-1.810748e-09
-3.980931e-10
1.265036e-09
-8.669428e-10
-4.218355e-10
1.34685e-09
-9.250146e-10
-1.623107e-09
2.435131e-09
-8.120239e-10
3.050695e-10
-1.202224e-09
4.750993e-10
-1.525115e-09
1.050016e-09
1.50792e-09
-1.321219e-09
-1.867011e-10
-1.310948e-09
2.530535e-10
1.057894e-09
-1.438082e-09
2.01672e-09
-5.786379e-10
-1.184428e-09
-5.061006e-10
1.690529e-09
9.957966e-10
3.362577e-10
-1.332054e-09
6.520976e-10
1.455801e-09
-2.107899e-09
4.76246e-10
-1.588526e-09
1.11228e-09
1.313237e-09
-1.445814e-09
1.325771e-10
1.084473e-09
-1.971151e-09
8.866785e-10
-1.244406e-09
1.725591e-09
2.201562e-10
-1.580319e-09
1.360163e-09
2.050069e-09
-6.854452e-10
-1.364624e-09
8.998533e-10
-2.105458e-09
2.082554e-09
-1.183011e-09
-8.99543e-10
-1.629302e-09
3.544247e-10
1.274877e-09
-1.354468e-09
7.032625e-10
6.51206e-10
-4.663263e-09
3.757562e-09
9.057009e-10
-2.024055e-09
-5.244122e-10
2.548468e-09
-7.023111e-10
-1.221398e-09
1.923709e-09
5.332856e-10
1.279217e-09
-1.812502e-09
7.818967e-10
1.022894e-09
-1.804791e-09
1.696094e-09
-1.654979e-09
-4.111447e-11
-1.666039e-09
7.926586e-10
8.733806e-10
-2.062732e-09
1.269604e-09
7.931279e-10
-3.717207e-10
-1.167148e-09
1.538869e-09
1.051512e-09
-1.758898e-09
7.073858e-10
-1.632188e-09
8.919675e-10
7.402203e-10
4.812946e-09
2.7782e-09
7.079846e-10
1.297049e-09
-2.005033e-09
-1.322768e-09
1.960182e-09
1.310479e-09
4.329751e-10
-1.743454e-09
-5.776329e-10
-7.693341e-10
1.346967e-09
5.339959e-10
-2.159332e-09
1.625336e-09
-1.663513e-09
1.4446e-09
2.189132e-10
1.741972e-09
-2.140206e-12
-1.739832e-09
5.194804e-10
-1.605493e-09
1.086012e-09
-8.920761e-10
-1.145769e-09
2.037845e-09
1.916788e-09
-1.42129e-09
-4.954986e-10
-1.255524e-09
1.647976e-09
-3.924522e-10
3.171168e-10
-1.98856e-09
1.671444e-09
1.600878e-09
-7.838914e-10
-8.169869e-10
-1.548969e-10
-1.141809e-09
1.296706e-09
2.06613e-09
-6.457357e-10
-1.420394e-09
1.084382e-09
1.083403e-09
-2.167784e-09
-1.76029e-09
-7.925095e-11
1.839541e-09
-8.705668e-10
-8.932994e-10
-1.178864e-09
-2.879271e-10
1.466791e-09
-1.563367e-09
-1.324566e-10
1.695823e-09
1.240672e-09
5.18153e-10
-1.758825e-09
1.521083e-09
7.424532e-10
-2.263536e-09
1.252957e-09
-2.935927e-10
-9.593639e-10
-1.219252e-09
1.083536e-09
1.357168e-10
2.002473e-09
-1.926563e-09
-7.59098e-11
4.07317e-10
1.338256e-09
-1.745573e-09
-4.185233e-10
2.135273e-09
-1.716749e-09
-2.19424e-09
4.382499e-09
-5.176807e-10
-1.179166e-09
1.696847e-09
-8.467765e-10
-2.269215e-09
3.115992e-09
2.074951e-10
-1.617799e-09
1.410304e-09
1.593854e-09
-1.002226e-09
-5.916281e-10
1.340583e-09
-1.933746e-09
5.931625e-10
1.413675e-09
6.983484e-10
-2.112023e-09
-1.288859e-09
1.862201e-09
-5.733416e-10
1.617545e-09
2.054995e-10
-1.823044e-09
2.66218e-09
-2.252161e-09
-4.100194e-10
-2.050403e-09
6.092857e-10
1.441117e-09
7.720884e-10
7.774234e-10
-1.549512e-09
8.078311e-10
-1.777905e-09
8.686543e-10
9.092507e-10
1.019748e-09
-1.396797e-09
3.770489e-10
8.1617e-10
1.493356e-10
-9.655057e-10
6.27873e-10
-1.423921e-09
7.960479e-10
1.570237e-09
-1.4918e-09
-7.843677e-11
5.37968e-09
-9.413816e-10
-1.919031e-09
9.773508e-10
9.4168e-10
-1.151233e-09
1.182393e-09
-3.115968e-11
-1.329497e-09
8.845962e-10
-1.349949e-09
-5.261408e-10
1.87609e-09
-4.628696e-10
1.997844e-09
-1.534974e-09
-1.071922e-09
-6.483157e-10
1.720238e-09
-1.462501e-09
1.15146e-09
2.068819e-09
-8.043448e-10
-1.264474e-09
-1.074025e-09
1.215771e-09
-1.417458e-10
-8.652202e-10
-5.879989e-10
1.453219e-09
1.998762e-09
-8.050323e-10
-1.19373e-09
1.349072e-09
-1.952098e-09
6.030255e-10
-1.259385e-09
-1.075026e-09
2.334411e-09
-4.430974e-10
1.481654e-09
-1.038557e-09
1.237128e-09
-4.975845e-10
-7.395439e-10
8.588192e-10
-5.89168e-10
-2.696513e-10
1.414425e-09
5.078501e-10
-1.922275e-09
9.195318e-10
8.250684e-10
-1.7446e-09
-1.120937e-09
1.816374e-09
-6.954372e-10
-1.355744e-09
-7.663335e-10
2.122078e-09
1.830043e-09
1.06769e-09
-2.897733e-09
2.02765e-09
-1.276493e-09
-7.511573e-10
1.531788e-09
-1.704233e-09
1.724452e-10
8.097969e-10
7.3264e-10
-1.542437e-09
4.165674e-09
-4.391528e-09
2.258542e-10
7.937117e-10
1.23752e-09
-2.031232e-09
-2.24613e-09
1.793135e-09
4.529951e-10
2.270223e-09
-1.478639e-09
-7.915845e-10
-1.738949e-09
9.568902e-10
7.820588e-10
8.929042e-10
-4.018708e-10
-4.910333e-10
-1.247269e-09
1.396071e-09
1.958661e-09
-3.103921e-10
-1.648268e-09
2.672761e-09
-3.159461e-09
4.867e-10
2.802031e-09
-4.000757e-09
1.198726e-09
2.960416e-10
-1.539265e-09
1.243224e-09
-1.020753e-09
-1.225377e-09
-2.217285e-09
1.116602e-09
-1.266104e-09
1.312409e-10
1.134863e-09
-1.525628e-10
1.435885e-09
-1.283322e-09
1.488092e-09
-8.807397e-10
-6.073518e-10
6.512206e-11
1.797166e-09
-1.862288e-09
1.177869e-09
7.581349e-10
-1.936004e-09
-7.596326e-10
2.016124e-09
-1.256492e-09
-3.559428e-10
-7.964206e-10
1.152363e-09
1.407139e-09
2.126806e-09
-3.533945e-09
9.172293e-11
1.73832e-09
5.614952e-10
9.212535e-10
-1.482749e-09
8.896033e-10
6.791821e-10
-1.568785e-09
1.257902e-10
-1.713561e-09
1.587771e-09
7.070138e-10
5.713734e-10
-1.278387e-09
-4.146276e-09
6.582229e-10
3.488053e-09
1.874603e-09
-9.550708e-10
-1.835321e-09
9.620562e-10
8.732647e-10
-9.124234e-10
1.648947e-09
-7.87096e-11
-1.150632e-09
-6.173985e-10
1.76803e-09
4.243003e-10
9.922639e-10
-1.416564e-09
2.87521e-09
-1.769673e-09
-1.105538e-09
8.95512e-10
5.147583e-10
-1.41027e-09
1.705349e-09
-1.405054e-09
-1.487966e-09
1.103543e-09
3.844234e-10
-5.805684e-10
-1.059228e-09
1.639796e-09
1.022165e-09
-1.633326e-09
6.111612e-10
2.389142e-09
-9.471287e-10
-1.442014e-09
-3.086891e-10
-1.218691e-09
1.527381e-09
2.591266e-10
1.260691e-09
-1.519818e-09
1.169454e-09
3.177705e-10
-1.487225e-09
-1.092363e-09
1.405592e-09
-3.132289e-10
-2.534888e-10
1.282343e-09
-1.028854e-09
-1.464143e-09
-2.68288e-10
1.732431e-09
-1.542756e-10
1.914863e-09
-1.760587e-09
6.60205e-10
8.348941e-10
-1.495099e-09
-6.647892e-10
1.606613e-09
-9.418238e-10
-1.521297e-09
1.691428e-09
-1.701312e-10
-3.924152e-10
1.897453e-09
-1.505038e-09
-1.480067e-09
3.927316e-10
1.087336e-09
-1.773871e-09
1.689617e-09
8.425458e-11
9.758448e-10
5.763731e-09
1.430402e-09
-1.514403e-09
8.400073e-11
1.346477e-09
6.584084e-10
-2.004885e-09
9.12968e-10
8.134206e-10
-1.726389e-09
-3.132838e-09
-6.940385e-09
1.642551e-09
-1.079881e-09
-5.626705e-10
-1.232187e-09
1.320345e-09
-8.815799e-11
-1.523776e-09
1.017167e-09
5.066091e-10
-1.898957e-10
-1.47491e-09
1.664806e-09
1.150038e-09
-6.737925e-10
1.847557e-09
-7.960444e-10
-6.610643e-10
-9.711235e-10
1.449546e-09
-9.155502e-10
-1.506148e-09
4.516574e-10
1.05449e-09
1.743908e-09
-6.464813e-10
-1.097427e-09
-2.131027e-09
1.864889e-09
2.661382e-10
-9.033487e-10
-4.785937e-10
1.381942e-09
2.584734e-09
-1.68683e-09
-8.979042e-10
-1.976675e-09
1.395391e-09
5.81284e-10
5.335474e-10
-1.612643e-09
1.079096e-09
-2.631584e-09
1.89086e-09
7.407236e-10
-1.291409e-09
-2.496966e-10
1.541105e-09
7.247989e-10
-2.407734e-09
1.682935e-09
-9.055426e-10
-8.579711e-10
1.763514e-09
-4.039966e-10
1.614096e-09
-1.210099e-09
1.305812e-09
3.367392e-10
8.800231e-10
-2.012498e-09
1.132475e-09
-7.816203e-10
-9.336291e-10
1.715249e-09
-1.883822e-09
2.165128e-09
-2.813062e-10
1.213563e-09
-2.637522e-09
-2.470257e-09
-2.193006e-09
2.082691e-10
1.502524e-09
-1.710793e-09
8.267491e-10
7.547069e-10
-1.581456e-09
-4.008533e-09
2.551031e-09
1.457502e-09
1.936218e-09
-6.110507e-10
-1.325167e-09
-8.595367e-10
1.597334e-09
2.630417e-11
1.465306e-09
8.244332e-10
5.239277e-10
-1.348361e-09
1.567435e-09
1.006613e-10
-1.668096e-09
1.050313e-09
-1.607685e-09
2.174785e-09
-1.078835e-10
-2.066902e-09
-9.898113e-10
2.310647e-09
-1.320836e-09
-1.11044e-09
8.980202e-10
2.124194e-10
1.338175e-09
-2.099968e-09
7.617928e-10
2.193791e-09
-7.190791e-09
4.996999e-09
9.565179e-10
1.147673e-09
-2.10419e-09
-8.101496e-10
1.624673e-09
-8.145233e-10
-9.172125e-10
1.618832e-09
-7.016198e-10
2.315852e-09
-1.686031e-09
-6.298215e-10
1.526164e-09
-1.358932e-09
-1.672312e-10
9.579914e-10
-2.498296e-09
1.540304e-09
-5.796484e-10
1.88112e-09
-1.301471e-09
2.163961e-09
-1.73966e-09
1.758074e-09
-8.479973e-10
-9.100764e-10
-1.586852e-09
6.312726e-10
9.555793e-10
8.416142e-10
-1.072732e-09
2.311179e-10
1.73898e-09
-1.6542e-09
-8.477927e-11
4.331827e-09
-2.435075e-09
-1.896752e-09
-1.210086e-09
1.837959e-09
-6.663309e-10
1.426861e-09
-7.605302e-10
1.954018e-09
-1.531048e-09
-4.229698e-10
-1.8035e-09
3.210639e-09
3.301049e-10
-1.422231e-09
1.092126e-09
-2.100151e-09
1.228877e-09
8.712738e-10
-2.224598e-09
-4.938448e-10
2.718443e-09
1.151462e-09
-1.9195e-09
8.761771e-10
1.189976e-09
-2.066153e-09
-1.895042e-10
-1.373862e-09
-1.08448e-09
1.664669e-09
-5.801885e-10
8.730858e-10
-2.191797e-09
1.318711e-09
1.542386e-09
-1.729735e-09
1.873495e-10
6.539554e-10
-1.813107e-09
1.159151e-09
-2.232743e-09
1.513392e-09
7.193511e-10
3.626005e-10
-1.723065e-09
1.360464e-09
-1.090282e-09
-8.464138e-10
1.17089e-09
-1.748882e-09
5.779917e-10
1.644428e-09
-2.943854e-09
1.299426e-09
1.659783e-09
-1.048584e-09
1.143965e-09
-1.937568e-09
9.62309e-10
-1.855929e-09
8.936202e-10
1.928081e-09
-9.096865e-10
-1.018395e-09
1.175447e-09
-2.842118e-09
1.666671e-09
1.20291e-09
-2.145513e-09
9.42603e-10
-6.946775e-10
1.588044e-09
-8.93366e-10
-1.72996e-09
2.093863e-10
1.520574e-09
-1.534654e-09
1.008921e-10
1.433762e-09
-7.48278e-09
6.124151e-09
1.358629e-09
-1.436037e-09
-3.909025e-10
1.826939e-09
-2.481173e-09
9.029526e-10
1.57822e-09
-2.301756e-10
-5.963926e-10
-1.71812e-09
6.979186e-10
1.020202e-09
-4.596712e-10
-1.699661e-09
1.984347e-09
-8.80146e-10
-1.104201e-09
-1.353954e-09
1.436003e-09
-8.204939e-11
1.897174e-09
-9.406556e-10
8.907058e-10
1.195753e-09
-2.086459e-09
-1.736944e-09
1.525658e-09
2.112862e-10
4.975112e-10
1.010409e-09
4.044401e-10
-1.779809e-09
1.375369e-09
1.619748e-09
-2.006608e-10
-1.419087e-09
-1.748598e-09
9.044426e-10
8.441553e-10
2.097905e-09
3.122762e-10
-2.410181e-09
-1.426382e-09
1.271485e-09
-8.805517e-10
1.441586e-09
-5.610343e-10
-1.196409e-09
1.481854e-09
-2.854449e-10
8.522619e-10
-2.534821e-09
1.384377e-09
-9.313279e-10
-4.530487e-10
-2.014744e-10
1.648279e-09
-1.446805e-09
-8.837384e-10
1.684008e-09
-8.002698e-10
-1.516737e-09
1.834981e-09
-3.182438e-10
-1.835714e-09
1.968974e-09
-3.078244e-09
1.10927e-09
-1.676803e-09
1.149347e-09
5.274562e-10
-3.451801e-10
-1.355524e-09
1.700704e-09
1.251689e-09
-1.93653e-09
6.848408e-10
2.380738e-10
1.396109e-09
-1.634183e-09
-3.196642e-09
4.834268e-09
-1.637626e-09
-7.551726e-10
1.903252e-09
-1.14808e-09
-3.835477e-10
-8.750988e-10
1.258647e-09
1.255066e-09
-1.718289e-09
4.632233e-10
-3.110624e-10
1.430519e-09
1.008614e-09
-1.625763e-09
6.17149e-10
-1.061328e-09
-3.132933e-10
1.374622e-09
8.220668e-10
1.120772e-09
-1.942839e-09
1.263805e-09
5.813898e-10
-1.800482e-09
-9.473283e-10
-9.186566e-10
1.865985e-09
-2.746857e-09
-2.063713e-09
7.147014e-10
1.349011e-09
7.453869e-10
-1.475528e-09
7.301411e-10
4.16595e-10
1.683188e-09
-2.099783e-09
1.201388e-09
-8.338384e-10
-3.6755e-10
-5.909059e-10
-1.003514e-09
1.59442e-09
-2.015536e-09
1.28289e-09
7.326454e-10
-2.533497e-09
3.084369e-10
2.22506e-09
-1.605346e-09
-9.722741e-11
1.702573e-09
8.019723e-10
-1.865781e-09
1.063809e-09
1.134803e-09
1.035988e-09
-2.170792e-09
1.305894e-09
-3.831876e-10
-9.227062e-10
-1.252462e-09
8.540042e-10
3.98458e-10
-1.319542e-09
-1.793785e-09
3.113326e-09
7.1828e-10
-1.655082e-09
9.368022e-10
-1.307454e-09
1.729362e-09
-4.219078e-10
-6.955712e-10
-1.194954e-09
1.890526e-09
2.035866e-09
-1.253969e-09
9.485694e-10
-1.804281e-09
8.557117e-10
-7.15615e-11
-1.116029e-09
1.187591e-09
1.853283e-09
-1.060269e-09
-7.930146e-10
-1.699903e-09
2.357605e-10
1.013104e-09
5.255985e-10
-1.538702e-09
2.171916e-11
-1.916635e-09
1.894916e-09
-8.414612e-10
1.8179e-09
-9.764388e-10
-1.312528e-09
-6.472058e-09
7.784586e-09
-1.951344e-09
6.157377e-10
1.335606e-09
-1.058849e-09
-8.673079e-10
1.534439e-09
-6.671309e-10
-1.291361e-09
-8.683075e-10
2.159668e-09
2.626481e-09
-2.748341e-09
1.2186e-10
1.693607e-09
-1.920027e-10
-1.859095e-09
1.391937e-09
4.671573e-10
-1.139354e-09
-3.411137e-10
1.480467e-09
1.053122e-09
-1.566103e-09
5.129815e-10
-8.793556e-10
-1.054045e-09
1.9334e-09
2.020125e-09
-5.634322e-10
-1.456693e-09
-2.451385e-09
3.744768e-09
4.437604e-10
-1.331285e-09
8.875246e-10
4.994566e-10
1.228264e-09
-1.727721e-09
9.533816e-09
-9.533816e-09
-1.505521e-09
1.143119e-09
3.624025e-10
1.761083e-09
-9.017832e-10
-8.593003e-10
1.089635e-09
-1.656171e-09
1.590335e-09
-9.270684e-10
-6.632671e-10
-1.614985e-09
-1.729641e-10
1.787949e-09
1.427009e-09
1.769619e-09
-3.196628e-09
1.623069e-09
-8.876971e-10
1.467658e-09
-8.459556e-10
-6.217026e-10
1.566206e-09
-7.092063e-10
-8.569993e-10
1.797329e-09
-5.431411e-10
-1.254188e-09
8.658848e-10
-1.626876e-09
7.609909e-10
1.917098e-09
-5.02673e-10
8.602307e-10
5.53199e-10
-1.41343e-09
-7.827503e-10
-5.467468e-10
1.810286e-09
-1.49923e-09
-3.110562e-10
1.694482e-09
4.571717e-11
-1.647056e-09
1.601339e-09
-2.85984e-10
1.576979e-09
-1.290995e-09
6.807282e-10
1.599971e-09
-1.192654e-09
-9.346165e-10
1.807702e-09
1.860039e-09
-1.272668e-09
-5.873712e-10
2.230422e-09
-1.276007e-09
1.308392e-09
-1.486862e-09
1.784699e-10
3.40197e-10
-1.896742e-09
1.556545e-09
-4.190183e-10
-1.484891e-09
-1.403267e-09
1.30855e-09
9.471613e-11
8.631854e-11
-1.399042e-09
7.360692e-09
-2.13268e-09
2.553276e-09
9.971865e-10
-3.550462e-09
-2.792677e-09
1.473135e-09
8.076598e-10
-1.733622e-09
3.442048e-10
-1.109134e-09
7.649288e-10
-1.157107e-09
1.212003e-09
-5.489646e-11
-3.468866e-10
1.775711e-09
-1.428824e-09
1.310784e-09
5.638184e-10
-1.228408e-09
1.727883e-09
7.855243e-10
-1.774809e-09
9.892844e-10
5.871422e-10
-3.055077e-09
2.467934e-09
-1.809161e-09
-5.710955e-10
3.736756e-09
2.260681e-09
-5.997437e-09
-1.81256e-09
3.140874e-10
1.498472e-09
-6.858656e-10
1.814434e-09
-1.128568e-09
-3.010669e-09
-1.529058e-09
4.539727e-09
-2.327137e-09
-1.989301e-09
4.316438e-09
9.902337e-10
-1.393372e-09
4.031386e-10
-3.483859e-09
7.109375e-10
2.772922e-09
-1.516826e-09
6.483788e-10
8.684473e-10
-9.220493e-10
2.056853e-09
2.560229e-09
-2.537252e-09
-2.297693e-11
1.124462e-09
6.336116e-10
-2.681893e-09
2.175028e-10
2.46439e-09
1.428585e-09
-3.02409e-10
-1.126177e-09
1.787792e-09
-5.686412e-10
-1.219151e-09
8.268948e-10
1.239235e-09
-1.69218e-09
2.551756e-09
-8.595766e-10
-4.627565e-10
-1.135727e-09
1.598483e-09
-1.645206e-09
8.92081e-10
7.531251e-10
-8.496045e-11
-3.398899e-09
3.029806e-11
-1.372736e-09
1.342438e-09
-1.181741e-09
2.047625e-09
-1.380127e-09
2.217216e-09
-8.370885e-10
-1.778148e-09
9.219969e-10
8.56151e-10
-1.192964e-09
1.545593e-09
-3.526294e-10
1.894234e-09
-1.10871e-09
-9.730603e-10
2.9006e-10
-9.662407e-10
1.885697e-09
-9.194565e-10
-9.33783e-11
-1.241172e-09
1.334551e-09
3.943431e-10
1.289138e-09
-1.683481e-09
5.463825e-10
-1.748183e-09
-6.554649e-10
2.090464e-09
-3.93533e-10
-7.783539e-10
1.171887e-09
1.616539e-09
-9.563339e-10
2.295273e-10
1.04657e-09
-1.276097e-09
-1.110354e-09
3.704635e-10
7.398908e-10
-4.440481e-10
1.510883e-09
-1.066835e-09
5.323556e-09
-3.625301e-09
-1.698255e-09
9.103102e-10
-1.616695e-09
7.063853e-10
-2.027313e-10
1.445665e-09
-1.242934e-09
1.304799e-09
-1.33108e-09
2.628152e-11
3.762832e-10
-1.722414e-09
2.383532e-10
5.229124e-09
-1.135051e-09
-4.094073e-09
2.46657e-11
1.207306e-09
-1.231971e-09
-3.025303e-10
1.594453e-09
-1.291922e-09
2.884654e-09
-2.872177e-10
-2.597436e-09
-1.13611e-09
2.114974e-09
-9.788639e-10
-1.014343e-09
1.733873e-09
-7.195306e-10
-1.5135e-09
2.610376e-10
2.597381e-09
-2.307321e-09
-1.245505e-10
1.42054e-09
-1.29599e-09
3.449492e-10
1.38537e-09
-1.730319e-09
6.026929e-10
-1.150402e-09
5.477091e-10
-3.752064e-10
-1.138293e-09
1.318606e-09
2.606286e-09
-3.924892e-09
1.522838e-10
1.605795e-09
-1.758079e-09
3.102929e-09
1.075202e-10
-3.210449e-09
-1.096896e-09
2.045662e-10
-3.850751e-10
-8.613583e-10
1.246433e-09
1.881119e-10
3.41562e-09
-3.603731e-09
-1.693071e-09
5.601245e-10
1.132946e-09
1.273793e-09
7.105533e-10
-1.52809e-09
-2.404409e-11
1.552134e-09
-3.336678e-09
3.313637e-09
2.304089e-11
-1.607364e-09
-3.311808e-09
4.919172e-09
-1.209832e-09
1.604175e-09
1.95486e-09
-1.117594e-09
-8.372656e-10
7.057401e-10
1.920741e-09
6.358887e-10
7.484879e-10
8.332843e-10
1.094797e-09
-2.806928e-10
-1.557278e-09
1.837971e-09
9.099774e-10
-2.587687e-09
1.677709e-09
-1.705815e-10
-1.11958e-09
1.290161e-09
-1.637435e-09
1.781517e-09
-1.440822e-10
1.640548e-09
-8.951607e-10
1.334206e-09
-1.914498e-09
5.802914e-10
1.523689e-09
-1.706555e-09
1.828658e-10
-6.053481e-10
-1.834037e-09
2.439385e-09
1.293389e-09
-1.49405e-09
-5.649767e-10
-8.710603e-10
1.256788e-09
6.032515e-10
1.147629e-09
-1.523792e-09
3.761634e-10
5.121525e-10
-1.100375e-09
-2.24606e-09
2.091784e-09
5.086546e-10
1.0502e-09
-1.558855e-09
-1.26692e-09
1.953781e-09
-6.868612e-10
2.222654e-09
8.137358e-10
-2.18177e-09
1.368034e-09
1.50682e-09
-2.186942e-09
6.801225e-10
6.103418e-10
1.304872e-09
-2.335728e-09
5.287127e-09
-2.951399e-09
-1.957411e-09
1.658194e-09
2.992164e-10
-7.438472e-10
-1.020254e-09
-9.12147e-10
1.932401e-09
-6.75124e-10
1.897561e-09
-1.222437e-09
8.309186e-11
1.610516e-09
1.007532e-09
5.840966e-10
-1.591629e-09
-3.500477e-09
-4.107911e-11
-1.350061e-09
1.39114e-09
1.904046e-09
-1.760776e-10
-1.727968e-09
7.808079e-10
-1.337262e-09
1.565674e-09
-8.33816e-10
-7.318581e-10
4.628903e-11
-1.368817e-09
-1.86107e-09
-2.958995e-10
2.15697e-09
7.094077e-09
-1.67907e-09
-5.415007e-09
9.831614e-10
1.066908e-09
-1.816531e-09
2.099324e-09
-2.827931e-10
3.664038e-09
-3.748999e-09
1.317532e-09
2.346506e-09
-1.806249e-09
1.637321e-09
1.689284e-10
-4.621673e-09
3.792177e-10
4.242455e-09
-9.008025e-10
-8.771025e-10
-9.045955e-10
-1.008852e-09
1.913448e-09
-1.220912e-10
-5.334994e-09
5.457085e-09
1.330278e-09
7.816768e-10
-2.111954e-09
9.867762e-10
-1.796926e-09
-4.998807e-10
1.425832e-09
-9.259516e-10
9.387996e-10
-1.603589e-09
-1.272178e-09
1.020661e-10
1.170112e-09
5.117618e-10
1.392284e-09
-3.892035e-10
1.557043e-09
-1.167839e-09
5.598001e-10
-1.003246e-09
-5.929255e-10
1.596171e-09
-1.259234e-09
1.094531e-09
1.647027e-10
-1.368637e-09
-4.415561e-10
1.810194e-09
-1.052972e-09
2.332658e-09
-1.279685e-09
-1.570264e-09
-4.537916e-10
-1.699343e-09
1.748419e-09
-4.907623e-11
1.569028e-09
2.004773e-09
1.150006e-10
-2.119773e-09
-1.991157e-09
1.64083e-09
3.503274e-10
-1.678336e-09
7.232656e-10
1.164542e-09
-1.672915e-09
5.083726e-10
1.613414e-09
-3.407199e-09
1.050446e-09
-1.840404e-09
1.527151e-09
-1.394601e-09
-1.325496e-10
3.128664e-09
-1.607499e-09
-1.521165e-09
2.740564e-10
1.24378e-09
-1.517836e-09
-9.814956e-10
-8.538253e-10
-1.086221e-09
1.849265e-09
-7.630441e-10
-2.993729e-09
3.699469e-09
-8.415383e-10
1.739815e-09
-8.98277e-10
9.015132e-10
1.973697e-09
-5.551243e-10
1.885402e-09
8.706862e-10
-1.53175e-09
-3.630048e-10
-1.276454e-09
1.639458e-09
-2.832478e-10
-1.8517e-09
2.134948e-09
1.596336e-09
-8.067932e-10
-7.895432e-10
-1.614022e-10
1.45373e-09
-1.292328e-09
2.267169e-09
-3.226503e-09
1.650905e-09
-1.931598e-09
-7.559906e-10
2.25608e-09
-1.500089e-09
-1.368463e-09
-5.116492e-10
2.017649e-09
-1.034406e-09
-9.832432e-10
1.416279e-09
-1.732284e-09
3.160057e-10
1.642696e-09
-5.204999e-10
-1.122196e-09
-5.212596e-10
1.776664e-09
-6.753541e-10
-1.150404e-09
1.825758e-09
-2.114046e-09
1.109335e-09
1.004711e-09
-1.408697e-09
-6.334182e-10
2.042115e-09
2.12847e-09
-5.109247e-10
-2.784959e-09
-4.396656e-09
7.181615e-09
-3.036842e-09
3.811858e-09
-7.750159e-10
-2.059624e-09
4.178712e-09
-2.119088e-09
1.890313e-09
-1.830263e-09
-6.005029e-11
1.271371e-09
-1.950839e-09
6.794676e-10
6.942556e-10
1.340989e-09
-2.035245e-09
-5.761389e-09
2.558981e-09
3.202409e-09
6.663343e-10
1.330055e-09
-1.99639e-09
-1.868189e-09
1.034464e-09
8.337258e-10
9.322975e-10
1.018041e-09
-1.950339e-09
1.364853e-09
-2.138156e-09
7.733022e-10
2.539027e-09
-2.718586e-10
1.827907e-09
6.475454e-09
-5.745904e-10
-1.510857e-09
2.085448e-09
-1.689172e-09
-4.462234e-10
2.135395e-09
2.155555e-09
-1.865813e-10
-6.953579e-10
1.413638e-09
-9.689637e-10
1.813851e-09
-8.448878e-10
-1.134373e-10
-1.4033e-09
-6.08969e-09
3.46331e-09
2.626381e-09
1.321158e-09
7.392147e-09
-8.704675e-09
-1.809272e-09
1.850594e-09
-4.132225e-11
1.982106e-09
-8.765192e-10
-1.105587e-09
-1.210894e-09
-3.659612e-10
1.576856e-09
-7.377064e-10
4.152475e-09
-3.414769e-09
-1.61869e-09
1.576341e-09
4.234826e-11
1.914188e-10
1.658131e-09
-1.84955e-09
1.125758e-09
2.274068e-09
-1.587954e-09
-5.745437e-10
1.792989e-09
-1.218446e-09
-1.080791e-09
-9.103663e-10
9.742502e-10
1.87935e-09
-2.8536e-09
-4.590657e-09
4.734142e-09
-1.434851e-10
-1.53213e-09
-1.950136e-11
1.551631e-09
-1.895546e-09
5.686544e-10
1.326891e-09
-1.87786e-09
1.130765e-09
7.470954e-10
-4.565989e-10
-1.421261e-09
1.047756e-09
-6.321999e-10
-4.155559e-10
-1.445629e-09
1.192247e-09
1.142086e-09
-1.719398e-09
5.773129e-10
9.547848e-10
-1.885328e-09
9.305429e-10
6.735404e-10
-1.956675e-09
1.283134e-09
-9.789452e-10
1.94639e-09
-9.674452e-10
-1.556989e-09
-2.500491e-10
1.807038e-09
-2.058086e-10
1.480094e-09
1.17504e-10
-1.499424e-09
9.188558e-10
1.930787e-10
1.078398e-09
-1.271477e-09
-9.551568e-11
-1.330759e-09
1.426274e-09
1.512246e-09
5.163562e-10
-2.028603e-09
1.075342e-09
-1.519638e-09
1.167165e-09
3.524728e-10
-9.914114e-10
1.773735e-09
-7.82324e-10
-1.074892e-09
-8.578362e-10
1.932728e-09
1.250203e-09
-3.235839e-09
1.985636e-09
1.051099e-10
-2.343899e-09
3.404136e-09
-7.419564e-10
1.719878e-09
-1.452922e-11
-7.756673e-10
1.714467e-09
6.46831e-10
-1.578159e-09
1.607171e-09
-7.973742e-10
1.84941e-09
-6.785195e-10
1.002346e-09
-1.465216e-09
5.386938e-10
3.671794e-09
-4.210488e-09
-1.04278e-09
-2.423296e-10
1.28511e-09
9.569575e-10
-1.53949e-09
2.758785e-09
4.335292e-09
-1.783132e-09
1.512626e-10
1.631869e-09
1.75934e-09
9.092898e-11
-1.850269e-09
-8.238433e-10
2.214059e-09
-1.390215e-09
-1.978403e-09
1.695155e-09
2.482089e-09
-8.535745e-10
-1.628514e-09
2.025058e-09
-1.096243e-09
-9.288145e-10
-2.460403e-09
8.672025e-10
1.5932e-09
-2.328915e-10
1.730971e-09
-1.498079e-09
3.730952e-10
1.441999e-09
-1.815094e-09
1.723255e-09
8.403936e-10
1.358054e-09
1.486324e-10
-1.506686e-09
2.273144e-09
-3.511987e-09
1.701743e-09
-1.335229e-09
-3.665138e-10
-1.581309e-09
1.468403e-09
-8.094452e-10
-1.049787e-09
1.859232e-09
1.438553e-09
-2.247998e-09
-1.389043e-09
1.573617e-09
1.79657e-09
-1.617903e-10
1.253857e-09
-1.092067e-09
-1.105759e-09
1.283733e-09
-1.779731e-10
-2.024034e-09
9.433842e-10
1.08065e-09
-9.373329e-10
-1.071038e-09
2.008371e-09
-1.318084e-09
2.30486e-09
-1.32124e-09
2.201406e-09
-8.801667e-10
1.320296e-09
1.685052e-09
-5.373789e-10
7.647621e-10
1.234e-09
-4.042941e-10
-1.370515e-09
1.806502e-09
-9.378475e-10
-1.971198e-09
6.339357e-10
1.547699e-09
4.16363e-10
-3.384972e-09
-3.843697e-10
3.769342e-09
-6.18777e-10
1.163582e-09
-5.448049e-10
-1.317589e-09
3.640165e-10
-1.772535e-09
1.408518e-09
1.99511e-09
-1.497805e-09
-4.973047e-10
1.383471e-09
-1.096774e-10
1.486361e-09
-9.453678e-10
-5.409929e-10
1.405823e-09
-8.808391e-10
-5.249843e-10
-1.383246e-09
1.413544e-09
-1.921545e-09
1.008634e-09
9.129117e-10
-2.200132e-09
-1.808401e-09
-1.346629e-09
-1.731615e-09
1.510391e-09
-1.115751e-10
1.76354e-09
1.293186e-09
-3.828753e-10
1.272151e-09
-1.384208e-09
1.120569e-10
2.189134e-09
-1.231143e-09
1.200265e-09
-1.871619e-10
-4.458358e-10
-1.877275e-09
2.32311e-09
9.771262e-10
-1.245794e-09
2.686678e-10
-1.755947e-09
2.883545e-10
1.467592e-09
5.951359e-10
7.409758e-10
-1.336112e-09
-1.653402e-09
4.899888e-10
1.163413e-09
-1.818066e-09
4.968266e-10
-9.520065e-09
3.323198e-09
6.196867e-09
1.424622e-09
-8.429131e-10
-5.817089e-10
-1.614851e-09
-6.401787e-10
-8.942957e-10
1.534474e-09
-1.941142e-09
-1.316975e-09
4.19342e-10
8.976329e-10
4.356665e-11
1.365168e-09
-1.408735e-09
-1.95625e-09
6.383301e-10
1.31792e-09
-1.620863e-09
5.471088e-10
1.073755e-09
-1.863449e-09
2.223295e-09
-4.641653e-09
2.418359e-09
-1.651213e-09
2.854539e-10
1.365759e-09
-3.551099e-10
1.783941e-09
-1.428831e-09
1.119595e-09
5.635872e-10
-1.683182e-09
8.006446e-10
-1.991656e-09
1.191011e-09
1.325434e-09
-2.043774e-09
7.183393e-10
-8.759783e-10
1.729144e-09
-8.531657e-10
8.753149e-10
-1.983458e-09
1.108143e-09
-1.003717e-09
1.523056e-09
-5.193391e-10
7.625535e-10
-1.881105e-09
-3.552954e-11
-5.812947e-10
2.47621e-09
4.569183e-10
1.504943e-09
-1.961861e-09
-1.781349e-09
1.026177e-09