/*--------------------------------*- C++ -*----------------------------------*\
| =========                 |                                                 |
| \\      /  F ield         | OpenFOAM: The Open Source CFD Toolbox           |
|  \\    /   O peration     | Version:  2406                                  |
|   \\  /    A nd           | Website:  www.openfoam.com                      |
|    \\/     M anipulation  |                                                 |
\*---------------------------------------------------------------------------*/
FoamFile
{
    version     2.0;
    format      ascii;
    arch        "LSB;label=32;scalar=64";
    class       surfaceScalarField;
    location    "2.6";
    object      phi;
}
// * * * * * * * * * * * * * * * * * * * * * * * * * * * * * * * * * * * * * //

dimensions      [0 3 -1 0 0 0 0];

oriented        oriented;

internalField   nonuniform List<scalar> 
326221
(
-0.002160579
-0.005260068
0.007420648
-0.001291465
-0.0008691142
0.0006816941
-0.001973159
-0.000535835
0.001217529
-0.0012152
0.0006793652
-0.0002268912
-0.0009883089
-0.0001194142
-0.000107477
-0.0002421324
0.0001227182
-0.000159795
-8.23374e-05
6.083067e-05
-0.0002206257
0.0005663842
-0.0005055535
0.001019618
-0.0004532336
0.001451453
-0.0004318348
0.001703028
-0.000251575
0.001614472
8.855559e-05
0.001053601
0.0005608713
0.0008670743
0.0001865265
0.001165767
-0.000298693
0.0006575459
0.0005082214
-0.001304009
0.001961555
-0.003370115
0.002066105
-0.004211575
0.00084146
-0.004166256
-4.531879e-05
-0.003763612
-0.000402644
-0.003227972
-0.00053564
-0.002392064
-0.0008359081
-0.001291884
-0.001100179
-8.686961e-05
-0.001205015
0.001241376
-0.001328245
0.002628377
-0.001387002
0.00337004
-0.0007416629
0.002751078
0.0006189618
0.001645292
0.001105787
0.0006568783
0.0009884136
5.353205e-05
0.0006033462
0.0001503746
-9.684256e-05
0.0004748109
-0.0003244363
0.0009737084
-0.0004988975
0.001764352
-0.0007906438
0.002327852
-0.0005635
0.00248856
-0.0001607079
0.002432488
5.607203e-05
0.001551931
0.0008805567
-0.0001796531
0.001731585
-0.001420431
0.001240778
-0.001612646
0.0001922151
-0.001060055
-0.000552591
-0.000543341
-0.0005167142
-0.001009049
0.0004657082
-0.004679207
0.003670157
-0.001685911
-0.002993296
2.551297e-05
-0.001711424
-0.0006267068
0.0006522198
-0.0012167
0.000589993
-0.001326207
0.0001095075
-0.001004341
-0.0003218668
-0.0008247038
-0.0001796367
-0.0006371989
-0.0001875049
-0.0004129037
-0.0002242952
-0.000119711
-0.0002931927
0.0001558433
-0.0002755543
0.0003399332
-0.0001840899
0.0006112475
-0.0002713144
0.0008534869
-0.0002422394
0.001090399
-0.0002369123
0.00135955
-0.0002691509
0.001647266
-0.0002877159
0.001917024
-0.0002697578
0.002176083
-0.0002590596
0.00240998
-0.0002338967
0.002620373
-0.0002103926
0.002799995
-0.000179622
0.002950141
-0.0001501466
0.003077048
-0.0001269064
0.003188148
-0.0001111003
0.003280573
-9.242487e-05
0.003360822
-8.024892e-05
0.003432819
-7.19976e-05
0.003502148
-6.932896e-05
0.003587605
-8.545676e-05
0.003672264
-8.465834e-05
0.003748688
-7.642399e-05
0.003831073
-8.238568e-05
0.00381566
1.541291e-05
0.003872796
-5.713609e-05
0.003925927
-5.31306e-05
0.003972862
-4.693506e-05
0.004034329
-6.146663e-05
0.004083308
-4.897942e-05
0.004113876
-3.056815e-05
0.004148127
-3.425053e-05
0.004164087
-1.596064e-05
0.004180166
-1.607891e-05
0.004202691
-2.252517e-05
0.004225294
-2.260277e-05
0.004256339
-3.104467e-05
0.00428204
-2.570101e-05
0.004320801
-3.876121e-05
0.004369732
-4.893091e-05
0.004423543
-5.381085e-05
0.004491347
-6.780413e-05
0.004566567
-7.521955e-05
0.004630648
-6.408142e-05
0.004648053
-1.740539e-05
0.004595251
5.280236e-05
0.00447073
0.000124521
0.004277856
0.0001928742
0.004018485
0.0002593708
0.003643769
0.0003747155
0.003054935
0.0005888341
0.00208665
0.0009682848
0.000726093
0.001360557
-0.0003626507
0.001088744
0.0002101685
-0.0005728192
0.0005275651
-0.0003173966
-0.001641374
0.002168939
-0.004412358
0.002770984
-0.004482572
7.021463e-05
-0.002987304
-0.001495268
-0.002084705
-0.000902599
-0.001696349
-0.0003883567
-0.001332371
-0.0003639778
-0.0002807315
-0.001051639
0.001515215
-0.001795947
0.002780752
-0.001265536
0.0008203362
0.001960415
-0.001335118
0.002155455
-0.001850086
0.0005149677
-0.001672011
-0.0001780756
-0.00119697
-0.000475041
-0.001017729
-0.0001792405
-0.001075013
5.728421e-05
-0.001120623
4.560966e-05
-0.0009144998
-0.0002061231
-0.0003847533
-0.0005297465
0.0002170921
-0.0006018454
0.0003276586
-0.0001105665
0.0001277864
0.0001998722
-0.0004062702
0.0005340566
-0.001357096
0.0009508256
-0.002121279
0.0007641836
-0.002036711
-8.456888e-05
-0.001155089
-0.0008816211
-0.0003702987
-0.0007847907
0.0007472523
-0.001117551
0.001981285
-0.001234032
0.003043651
-0.001062367
0.003910062
-0.0008664112
0.004838819
-0.0009287569
0.005330416
-0.0004915961
-0.004656365
0.009986781
-0.004922611
0.0002662462
-0.003596551
-0.00132606
-0.00309706
-0.0004994912
-0.003361382
0.0002643221
-0.003850479
0.0004890971
-0.003561686
-0.0002887938
-0.002222653
-0.001339032
-0.0008559781
-0.001366675
-0.0004666816
-0.0003892965
-0.001059292
0.0005926106
-0.002174786
0.001115494
-0.003281188
0.001106401
-0.003388031
0.0001068439
-0.002131976
-0.001256055
-0.0001864288
-0.001945547
0.001355731
-0.00154216
0.002309216
-0.0009534842
0.003171914
-0.0008626988
0.003988753
-0.000816839
0.004597739
-0.0006089851
0.005058282
-0.0004605438
0.005144214
-8.59314e-05
0.004993272
0.0001509417
0.00460979
0.0003834818
0.004021595
0.0005881953
0.002818332
0.001203263
0.0008324373
0.001985895
-0.000968811
0.001801248
-0.001994563
0.001025752
-0.00241978
0.0004252177
-0.001853178
-0.0005666028
-0.0008083278
-0.00104485
6.010863e-05
-0.0008684364
-0.0001442987
0.0002044074
-0.0009066289
0.0007623302
-0.0007691621
-0.0001374668
0.0001826814
-0.0009518436
0.0005363659
-0.0003536845
0.0003238533
0.0002125127
0.0003434721
-1.961877e-05
0.0004670448
-0.0001235727
-0.0001531741
0.0006202189
-0.0008663281
0.000713154
0.0003290217
-0.00119535
0.001750626
-0.001421604
0.001004346
0.0007462795
0.001925813
-0.0009214663
0.00252949
-0.0006036775
-0.006862726
0.009392216
-0.007099312
0.0002365862
-0.006061804
-0.001037508
-0.005683234
-0.0003785698
-0.00529661
-0.0003866244
-0.005008209
-0.0002884012
-0.004745356
-0.000262853
-0.004517397
-0.0002279587
-0.004215201
-0.0003021964
-0.004058017
-0.0001571838
-0.003922745
-0.0001352719
-0.003798215
-0.0001245299
-0.003687057
-0.0001111579
-0.003579878
-0.0001071788
-0.003478056
-0.0001018219
-0.003381235
-9.682088e-05
-0.003294266
-8.696901e-05
-0.003213805
-8.04616e-05
-0.003136592
-7.721334e-05
-0.003060706
-7.588571e-05
-0.002990027
-7.067833e-05
-0.002922045
-6.798292e-05
-0.002858254
-6.379053e-05
-0.00280031
-5.794442e-05
-0.002741603
-5.870644e-05
-0.002683297
-5.830606e-05
-0.002624642
-5.865509e-05
-0.00256973
-5.491245e-05
-0.002519639
-5.009045e-05
-0.002473514
-4.612522e-05
-0.002425695
-4.781934e-05
-0.002378708
-4.698619e-05
-0.002329318
-4.939057e-05
-0.002285147
-4.417044e-05
-0.002243737
-4.141024e-05
-0.002200909
-4.282798e-05
-0.002157802
-4.310671e-05
-0.002113861
-4.394136e-05
-0.002073631
-4.022986e-05
-0.00203571
-3.792096e-05
-0.002064404
2.869421e-05
-0.00203902
-2.538471e-05
-0.002009226
-2.979344e-05
-0.00197889
-3.033623e-05
-0.001951354
-2.753599e-05
-0.001922555
-2.87987e-05
-0.001895714
-2.684163e-05
-0.001869903
-2.581029e-05
-0.001844577
-2.5326e-05
-0.001815299
-2.927893e-05
-0.00178505
-3.024877e-05
-0.001757267
-2.778316e-05
-0.001730764
-2.650253e-05
-0.001705372
-2.539229e-05
-0.001675281
-3.009128e-05
-0.001641669
-3.361182e-05
-0.001607501
-3.416731e-05
-0.001572898
-3.460341e-05
-0.00153291
-3.998772e-05
-0.001490453
-4.245762e-05
-0.001441039
-4.941405e-05
-0.001382396
-5.864265e-05
-0.001307671
-7.472512e-05
-0.001205419
-0.0001022519
-0.001051684
-0.0001537353
-0.0008257261
-0.0002259575
-0.0005011962
-0.0003245298
-9.000862e-05
-0.0004111876
0.0002592171
-0.0003492257
0.0003669421
-0.000107725
-0.0002450509
0.000611993
-0.001716672
0.001471622
-0.000546445
-0.001170227
0.0006734816
-0.001219927
0.001024017
-0.0003505353
0.001075774
-5.175665e-05
0.001104521
-2.87475e-05
0.001145066
-4.054511e-05
0.001176888
-3.182188e-05
0.001194128
-1.724032e-05
0.001213081
-1.895272e-05
0.001246894
-3.381322e-05
0.001279371
-3.247678e-05
0.001308445
-2.907377e-05
0.001330671
-2.222608e-05
0.001351688
-2.101662e-05
0.001371658
-1.99709e-05
0.001393983
-2.232499e-05
0.00141473
-2.07468e-05
0.001430741
-1.601052e-05
0.001446665
-1.592447e-05
0.001465501
-1.883534e-05
0.001482518
-1.701782e-05
0.001498176
-1.565777e-05
0.001517131
-1.895507e-05
0.001532947
-1.581623e-05
0.001553907
-2.095998e-05
0.001578833
-2.492606e-05
0.001598005
-1.917122e-05
0.001613676
-1.567176e-05
0.001631214
-1.753719e-05
0.001651488
-2.0274e-05
0.001665461
-1.397372e-05
0.001636031
2.943019e-05
0.001661739
-2.570814e-05
0.001694262
-3.252239e-05
0.001726831
-3.256931e-05
0.00175971
-3.287902e-05
0.001795173
-3.546277e-05
0.001828545
-3.337238e-05
0.001858899
-3.035419e-05
0.00189189
-3.299067e-05
0.001929535
-3.764485e-05
0.001970509
-4.097385e-05
0.002005814
-3.530545e-05
0.00203924
-3.34256e-05
0.002075666
-3.642594e-05
0.002115205
-3.953911e-05
0.00215571
-4.050535e-05
0.002201132
-4.542183e-05
0.002248354
-4.722167e-05
0.002295746
-4.739262e-05
0.00234434
-4.859332e-05
0.002389746
-4.540628e-05
0.002444536
-5.478986e-05
0.002502406
-5.787046e-05
0.002562537
-6.013076e-05
0.002627245
-6.4708e-05
0.002693961
-6.671597e-05
0.002768458
-7.449751e-05
0.00285049
-8.203177e-05
0.002934261
-8.377054e-05
0.003025462
-9.120105e-05
0.00313031
-0.0001048481
0.003254312
-0.000124002
0.003490071
-0.0002357592
0.003666756
-0.0001766849
0.003868875
-0.0002021188
0.00409691
-0.0002280355
0.004394691
-0.0002977808
0.004691447
-0.0002967557
0.00546697
-0.0007755231
0.0002069016
-0.000638648
0.00182482
-0.002356399
0.000432112
-0.002290687
0.0008665712
-0.0007849945
0.0011146
-0.0002997858
0.001319574
-0.0002337214
0.001518715
-0.0002396862
0.0016898
-0.0002029067
0.001829822
-0.0001572624
0.001954205
-0.0001433353
0.002079856
-0.0001594646
0.002195832
-0.0001484526
0.002304286
-0.0001375274
0.002402029
-0.0001199693
0.002494573
-0.0001135607
0.002580824
-0.0001062218
0.002665485
-0.0001069862
0.002745812
-0.0001010735
0.002820351
-9.055003e-05
0.002891383
-8.695627e-05
0.002962135
-8.958751e-05
0.003029493
-8.43755e-05
0.003093472
-7.963707e-05
0.003158511
-8.399365e-05
0.0032189
-7.620549e-05
0.003281501
-8.356117e-05
0.003345323
-8.874791e-05
0.003405786
-7.963385e-05
0.003461959
-7.184518e-05
0.003519197
-7.477545e-05
0.003576351
-7.742761e-05
0.003631593
-6.921581e-05
0.003608071
5.295203e-05
0.00367243
-9.006699e-05
0.003740088
-0.00010018
0.003807524
-0.000100006
0.003875034
-0.0001003891
0.003943733
-0.0001041612
0.004011719
-0.000101358
0.004076595
-9.523105e-05
0.004143805
-0.0001002001
0.004212458
-0.0001062979
0.004285149
-0.0001136651
0.004353016
-0.0001031719
0.004420847
-0.000101257
0.004489551
-0.0001051298
0.004561032
-0.0001110201
0.004632581
-0.0001120543
0.004708152
-0.0001209931
0.004785576
-0.0001246455
0.004863319
-0.0001251354
0.004943392
-0.000128667
0.005020337
-0.0001223514
0.005105449
-0.0001399015
0.005191527
-0.0001439488
0.005281462
-0.0001500656
0.005373839
-0.0001570845
0.005469657
-0.0001625345
0.005570633
-0.0001754733
0.00567905
-0.0001904484
0.00578891
-0.0001936306
0.005906177
-0.0002084685
0.006034598
-0.0002332689
0.006179442
-0.0002688461
0.006494885
-0.0005512021
0.006691486
-0.0003732855
0.006918599
-0.0004292327
0.007167323
-0.0004767585
0.007496939
-0.0006273971
0.007788021
-0.0005878383
0.008652891
-0.001640393
0.008018476
0.0008413171
-0.01083311
0.01012513
0.0009445647
-0.009704963
-0.002165655
-0.009326327
-0.0007572053
-0.008908911
-0.000804041
-0.00859817
-0.0005991423
-0.008309473
-0.0005515492
-0.008061962
-0.0004754703
-0.007667371
-0.0006967872
-0.007486184
-0.0003383702
-0.007324979
-0.0002964777
-0.007172659
-0.0002768493
-0.007032688
-0.0002511287
-0.00689564
-0.0002442277
-0.006765066
-0.0002323956
-0.006637569
-0.000224318
-0.006519753
-0.0002047849
-0.006405273
-0.0001949419
-0.006295718
-0.0001867675
-0.006186039
-0.0001855649
-0.006082111
-0.0001746062
-0.005979334
-0.00017076
-0.005880661
-0.0001624643
-0.005785991
-0.0001526137
-0.005691197
-0.0001535004
-0.005597668
-0.0001518356
-0.005503644
-0.0001526793
-0.005413349
-0.0001452075
-0.005324993
-0.0001384461
-0.005240441
-0.0001306766
-0.005152786
-0.0001354751
-0.005067501
-0.0001322711
-0.004978783
-0.0001381087
-0.004894576
-0.0001283766
-0.004810458
-0.0001255283
-0.00472547
-0.0001278167
-0.004639314
-0.0001292624
-0.004552268
-0.0001309877
-0.004467142
-0.0001253558
-0.004382167
-0.0001228956
-0.004404461
5.098833e-05
-0.004331706
-9.813962e-05
-0.004258327
-0.0001031725
-0.004182723
-0.0001059402
-0.004109597
-0.0001006623
-0.004033397
-0.0001049989
-0.003958554
-0.0001016848
-0.003882207
-0.0001021569
-0.003805564
-0.0001019686
-0.003724547
-0.0001102962
-0.003642356
-0.0001124401
-0.003560291
-0.0001098478
-0.003476929
-0.0001098647
-0.003392341
-0.0001099798
-0.003301491
-0.0001209416
-0.003206355
-0.0001287481
-0.003107344
-0.000133178
-0.003005127
-0.0001368201
-0.002893942
-0.0001511731
-0.002776685
-0.0001597149
-0.002647175
-0.000178924
-0.002503073
-0.0002027443
-0.002335993
-0.0002418048
-0.002136327
-0.0003019186
-0.00188463
-0.0004054321
-0.001566944
-0.0005436435
-0.001158976
-0.0007324975
-0.0006460235
-0.0009241404
-0.0001206929
-0.0008745563
0.000130549
-0.0003589669
-0.0005415603
0.001284102
0.002754881
-0.003325402
-0.005542568
0.01885475
-0.00441456
0.001355404
-0.002965515
-0.002775105
-0.002283745
-0.001181261
-0.00318072
0.001161297
-0.004769449
0.002077826
-0.005134128
7.588575e-05
-0.003889798
-0.002583363
-0.002406268
-0.002850205
-0.001922829
-0.0008727359
-0.003039461
0.001709242
-0.004958692
0.003034725
-0.00589328
0.00204099
-0.004804698
-0.0009817381
-0.002611556
-0.003449197
-0.0002430351
-0.004314068
0.00164037
-0.003425565
0.002899466
-0.00221258
0.004011344
-0.001974576
0.005092077
-0.001897572
0.005953318
-0.001470226
0.006634568
-0.001141794
0.006911302
-0.0003626657
0.007007402
5.484251e-05
0.006861457
0.0005294266
0.006619652
0.00083
0.005977613
0.001845302
0.004027879
0.003935628
0.0005939384
0.005235189
-0.002080344
0.003700035
-0.002565655
0.0009105286
-0.001790046
-0.001342212
-0.0007372788
-0.002097617
-8.777629e-05
-0.001517939
-0.0006570405
0.0007736716
-0.001285686
0.001390976
-0.0007919775
-0.0006311758
0.0003571101
-0.002100931
0.0008616355
-0.00085821
0.0006134011
0.0004607471
0.0005694622
2.432019e-05
0.0005462792
-0.0001003898
-0.0004726589
0.001639157
-0.001077903
0.001318398
0.0006275316
-0.002900785
0.002414475
-0.003208548
0.002505268
0.0006554867
0.003184227
-0.001600426
0.0005947695
0.00198578
0.02011212
-0.002446557
0.004868528
-0.005415267
-0.0008912382
-0.003266743
-0.001268038
0.001029019
-0.001944091
0.001266047
-0.001767716
-6.686817e-05
-0.001277607
-0.0008119751
-0.001025676
-0.0004315682
-0.0007445943
-0.0004685862
-0.0004317879
-0.0005371017
-3.123934e-05
-0.0006937412
0.0003689914
-0.000675785
0.0006425465
-0.000457645
0.001014695
-0.0006434633
0.001357794
-0.0005853375
0.001701002
-0.0005801209
0.002077831
-0.0006459795
0.002481895
-0.0006917804
0.002878346
-0.0006662083
0.00327192
-0.0006526337
0.003645451
-0.0006074283
0.003997302
-0.0005622433
0.00431771
-0.0005000296
0.004605588
-0.0004380252
0.004865775
-0.0003870927
0.005107217
-0.0003525425
0.00533006
-0.000315268
0.005540833
-0.0002910219
0.005741575
-0.0002727394
0.005933858
-0.0002616124
0.006133728
-0.0002853262
0.006332406
-0.0002833367
0.006525286
-0.0002693038
0.006735008
-0.0002921075
0.00681637
-6.594936e-05
0.007036033
-0.000276799
0.007257059
-0.000274157
0.007472236
-0.0002621114
0.007685399
-0.0002746295
0.007854618
-0.0002181987
0.007945271
-0.0001212211
0.007956839
-4.581883e-05
0.007883191
5.768716e-05
0.00777318
9.39329e-05
0.00766212
8.853429e-05
0.007559156
8.036155e-05
0.007471625
5.648568e-05
0.007380781
6.514338e-05
0.007301423
4.05964e-05
0.007237401
1.509161e-05
0.007202593
-1.900266e-05
0.00722893
-9.414169e-05
0.007323997
-0.0001702863
0.007469613
-0.0002096972
0.007639494
-0.0001872864
0.007814584
-0.0001222875
0.007964343
-2.523869e-05
0.008056397
0.0001008209
0.008075253
0.0002405149
0.007983557
0.0004664111
0.007702327
0.0008700639
0.007024048
0.001646564
0.005685229
0.002699376
0.004042742
0.002731231
0.002153415
0.001316507
-0.0001047578
0.001940776
-0.002806224
0.004870405
-0.003903741
0.003868501
-0.00272237
-0.001111157
-0.001342159
-0.00287548
-0.0006017157
-0.001643042
-0.0003703363
-0.0006197361
-3.327716e-05
-0.0007010369
0.0007167535
-0.00180167
0.00264657
-0.003725763
0.003763865
-0.002382831
0.0001352722
0.005589008
-0.002710041
0.005000768
-0.002788516
0.0005934422
-0.00238229
-0.0005843015
-0.001400972
-0.001456358
-0.001175061
-0.0004051514
-0.001906215
0.0007884375
-0.002114137
0.0002535316
-0.00141777
-0.0009024892
-0.0005863024
-0.001361215
4.199508e-05
-0.001230143
0.0001048045
-0.0001733759
-0.0005962645
0.0009009412
-0.001850175
0.001787967
-0.002920071
0.002020721
-0.002996845
0.0008409579
-0.002325359
-0.0007560546
-0.001235982
-0.001970999
-0.0002742707
-0.001746502
0.001065028
-0.00245685
0.002508876
-0.002677879
0.003720228
-0.002273719
0.00481262
-0.001958803
0.00553197
-0.001648107
-0.0005021936
-0.0006334765
0.0160726
-0.002199247
0.0006966567
-0.000725913
-0.003446494
-0.001627841
0.002119457
-0.001868553
0.0009200777
-0.0004254944
-0.002431368
-0.0003172332
-0.0002157383
-0.0004074995
0.0002129845
-0.0002171771
-0.0002726598
7.039217e-05
-0.0005081949
0.000697431
-0.001132592
0.001232856
-0.0009886585
0.001747651
-0.0009466302
0.002164953
-0.0006688768
0.002325727
-7.221824e-05
0.001724244
0.001162354
0.001135401
0.0007753699
0.0005251168
0.0003115912
-0.001482745
0.002516083
-0.004389105
0.004867916
-0.005857643
0.003534642
-0.005821594
0.0008054117
-0.005469677
-0.0003972358
-0.004902843
-0.0009694778
-0.00411697
-0.001321514
-0.002997009
-0.001955869
-0.001586965
-0.002510224
-7.037048e-05
-0.002721609
0.00147396
-0.002872576
0.003091177
-0.003004218
0.00482671
-0.002477196
0.005339357
0.0001063153
0.003797493
0.00264765
0.001635502
0.003150405
0.0004518609
0.001786987
0.0006124247
-0.0002574063
0.001567595
-0.001279607
0.002674862
-0.001606164
0.003609506
-0.001725288
0.004155458
-0.001109453
0.004265271
-0.0002705203
0.003208486
0.001112856
9.333356e-05
0.00399571
-0.002602752
0.00442767
-0.003503272
0.002141298
-0.003455897
0.0001448398
-0.003035159
-0.0009733294
-0.002467246
-0.001084627
-0.002093794
9.225652e-05
0.006444891
0.001236554
-0.01015921
0.02499526
-0.002447778
0.004380988
-0.002085501
-0.003808771
-0.002542007
0.002575964
-0.002384228
0.0007622985
-0.0007141792
-0.004101417
-0.0004776651
-0.0004522523
-0.0006121219
0.0003474413
-0.0003324992
-0.0005522826
3.881074e-05
-0.0008795048
0.000679713
-0.001773495
0.001208049
-0.001516995
0.001660091
-0.001398672
0.001962475
-0.0009712603
0.002110012
-0.000219755
0.001512855
0.001759511
0.0005763844
0.00171184
-0.001348441
0.002236416
-0.004412066
0.005579708
-0.006690172
0.007146022
-0.007223842
0.004068312
-0.007072783
0.0006543529
-0.006755229
-0.0007147901
-0.006024785
-0.001699921
-0.005059838
-0.00228646
-0.003700482
-0.003315225
-0.002036895
-0.004173811
-0.0002073522
-0.004551151
0.001717035
-0.004796963
0.003526152
-0.004813335
0.005583566
-0.004534611
0.00694402
-0.001254139
0.005791672
0.003799999
0.003013133
0.005928943
0.001156617
0.003643503
0.001199313
-0.0003001023
0.002345174
-0.002425467
0.003770321
-0.003031311
0.004952223
-0.00290719
0.005608532
-0.001765761
0.005245251
9.276028e-05
0.002229362
0.004128746
-0.002220722
0.008445793
-0.0045102
0.006717148
-0.004912698
0.002543796
-0.004808238
4.03797e-05
-0.004428289
-0.001353278
-0.00386429
-0.001648627
-0.003663099
-0.0001089337
-0.005694082
0.008475874
-0.003706058
-0.007403291
-0.002362449
-0.004610351
-0.002324524
0.000991094
-0.002475809
0.001417331
-0.002090469
-0.0004522082
-0.001534833
-0.001367611
-0.001189665
-0.000776736
-0.0008567058
-0.0008015458
-0.000477866
-0.0009159414
1.657719e-05
-0.001188184
0.0005188756
-0.001178083
0.0008573659
-0.0007961354
0.001304253
-0.00109035
0.001720786
-0.001001871
0.002134474
-0.0009938087
0.002585418
-0.001096924
0.003073676
-0.001180039
0.003557376
-0.001149909
0.004040543
-0.001135801
0.004501562
-0.001068447
0.004939078
-0.0009997588
0.005340334
-0.0009012862
0.005703472
-0.0008011631
0.006033614
-0.0007172345
0.006342509
-0.0006614371
0.006630501
-0.0006032607
0.006905496
-0.0005660171
0.007168461
-0.0005357036
0.007418702
-0.0005118536
0.007675896
-0.0005425207
0.007929942
-0.0005373822
0.008177125
-0.000516487
0.008448473
-0.000563456
0.008557433
-0.000174909
0.00884432
-0.0005636859
0.009130733
-0.00056057
0.0094117
-0.0005430781
0.009705904
-0.0005688334
0.009988956
-0.0005012513
0.01024671
-0.0003789729
0.01048095
-0.0002800582
0.01063905
-0.0001004198
0.01069843
3.455288e-05
0.01063868
0.0001482879
0.01045624
0.0002628029
0.01019034
0.0003223863
0.009874261
0.0003812213
0.009579319
0.0003355382
0.009345933
0.0002484777
0.009202791
0.0001241393
0.009178685
-7.003553e-05
0.009266298
-0.0002578991
0.009433235
-0.0003766346
0.009634966
-0.0003890176
0.009836427
-0.0003237483
0.01001125
-0.0002000644
0.01014287
-3.079352e-05
0.01023277
0.000150615
0.01026887
0.0004303125
0.01025214
0.0008867899
0.01014898
0.001749724
0.009767156
0.003081199
0.008819518
0.003678869
0.006262049
0.003873976
0.001829483
0.006373342
-0.001687511
0.0083874
-0.001608915
0.003789904
0.0002154703
-0.002935541
0.001707231
-0.00436724
0.002642081
-0.002577892
0.002724559
-0.0007022134
0.002518024
-0.0004945025
0.002683441
-0.001967087
0.003859452
-0.004901774
0.003696606
-0.002219986
-0.0009853689
0.01027098
-0.004005622
0.008021021
-0.004053183
0.0006410035
-0.003679421
-0.0009580642
-0.002658205
-0.002477574
-0.002555204
-0.0005081531
-0.00309302
0.001326254
-0.002592385
-0.0002471038
-0.00142182
-0.002073054
-0.0005144938
-0.002268541
0.0001441081
-0.001888745
-9.148084e-05
6.221301e-05
-0.00147589
0.00228535
-0.003115788
0.003427865
-0.003863582
0.002768515
-0.003525704
0.0005030801
-0.002656528
-0.001625231
-0.001298783
-0.003328743
1.659237e-05
-0.003061877
0.001703618
-0.004143876
0.003509258
-0.004483519
0.005061794
-0.003826255
0.006341689
-0.003238698
0.007246995
-0.002553414
0.006735469
9.332983e-06
-0.00206051
0.02765073
-0.004540196
0.003835091
-0.003242344
-0.004072957
-0.002214467
-0.002209138
-0.002670624
0.001617454
-0.004656881
0.004064084
-0.006033544
0.001452548
-0.005586575
-0.003030331
-0.004589783
-0.003846997
-0.004441881
-0.001020637
-0.005879141
0.003146503
-0.007567924
0.004723508
-0.007529903
0.002002968
-0.005564869
-0.002946772
-0.003004409
-0.006009658
-0.0002452015
-0.007073276
0.002082507
-0.005753274
0.003662587
-0.003792661
0.005003218
-0.003315207
0.006302038
-0.003196392
0.007341552
-0.002509741
0.00818214
-0.001982382
0.008520608
-0.0007011335
0.008617201
-4.17507e-05
0.0084149
0.0007317277
0.008104488
0.001140412
0.007733559
0.002216232
0.006732767
0.00493642
0.003821069
0.008146887
0.0001263873
0.007394716
-0.001436364
0.00247328
-0.001218454
-0.001560122
-0.0005691459
-0.002746926
-0.0003035218
-0.001783563
-0.001056252
0.001526401
-0.001450387
0.001785111
-0.0007119724
-0.00136959
0.0006134387
-0.003426342
0.00119722
-0.001441991
0.0008977008
0.0007602662
0.0006919969
0.0002300241
0.0003557284
0.0002358788
-0.0007801568
0.002775042
-0.001094008
0.00163225
0.0009457645
-0.004940557
0.002781589
-0.005044373
0.003018302
0.0004187737
0.003131889
-0.001714012
-0.001568114
0.006685783
-0.01262116
0.03116516
-0.01326436
0.001587765
-0.01214472
-0.003285288
-0.01165349
-0.001248444
-0.01118713
-0.001270391
-0.01083829
-0.0009479837
-0.01051886
-0.0008709864
-0.01025113
-0.000743194
-0.009797699
-0.001150221
-0.009599275
-0.0005367938
-0.00941999
-0.0004757632
-0.00925005
-0.0004467892
-0.009093078
-0.0004081003
-0.008938551
-0.0003987547
-0.008791165
-0.0003797821
-0.008646154
-0.0003693288
-0.008511188
-0.0003397509
-0.008378546
-0.0003275835
-0.008251296
-0.0003140179
-0.008123082
-0.0003137793
-0.008001003
-0.0002966848
-0.007879308
-0.0002924549
-0.007761495
-0.0002802771
-0.00764743
-0.0002666795
-0.007532885
-0.0002680449
-0.007419947
-0.0002647734
-0.007306061
-0.0002665654
-0.00719592
-0.0002553484
-0.007086597
-0.0002477691
-0.006981115
-0.0002361592
-0.006871314
-0.0002452759
-0.006764676
-0.0002389088
-0.006653424
-0.0002493607
-0.006546841
-0.0002349597
-0.006439234
-0.0002331356
-0.006330397
-0.0002366537
-0.006220021
-0.0002396382
-0.006108089
-0.0002429192
-0.005996935
-0.00023651
-0.005883517
-0.000236314
-0.00590521
7.268133e-05
-0.005803853
-0.0001994964
-0.005707385
-0.0001996409
-0.005607501
-0.0002058238
-0.005510808
-0.0001973549
-0.005410148
-0.000205659
-0.005311332
-0.0002005009
-0.005210484
-0.0002030053
-0.00510967
-0.0002027822
-0.005004157
-0.0002158094
-0.004897974
-0.000218623
-0.004792302
-0.0002155196
-0.004685207
-0.0002169598
-0.004577282
-0.0002179047
-0.004463054
-0.0002351701
-0.004345306
-0.000246496
-0.004224283
-0.0002542004
-0.00410093
-0.0002601733
-0.003968457
-0.0002836466
-0.003831178
-0.0002969939
-0.003681824
-0.0003282773
-0.003518817
-0.0003657517
-0.003332914
-0.000427708
-0.003114109
-0.0005207231
-0.002840297
-0.0006792442
-0.002495218
-0.0008887229
-0.002049401
-0.001178314
-0.001477634
-0.001495907
-0.0008785376
-0.001473652
-0.0007972525
-0.000440252
-0.001506664
0.001993513
-0.002286331
0.003534548
-0.0008728033
-0.003769926
0.0002433603
-0.00340685
0.0007876266
-0.001329261
0.001183956
-0.0006961154
0.001492804
-0.0005425693
0.001775689
-0.000522571
0.002015302
-0.0004425202
0.002210524
-0.0003524836
0.0023816
-0.0003144112
0.002553003
-0.0003308682
0.002711416
-0.0003068657
0.002860726
-0.0002868371
0.00299601
-0.0002552537
0.003124771
-0.0002423218
0.003245476
-0.0002269264
0.003364162
-0.0002256726
0.003477982
-0.0002148929
0.003584843
-0.0001974109
0.003687418
-0.0001895312
0.003789415
-0.0001915852
0.003887484
-0.0001824447
0.003981156
-0.0001733084
0.004076223
-0.0001790613
0.004164958
-0.0001649398
0.004255561
-0.0001741642
0.004347207
-0.0001803946
0.004435335
-0.0001677619
0.004518704
-0.0001552139
0.004603049
-0.0001591199
0.004686004
-0.000160383
0.004773462
-0.0001566743
0.004762145
6.426939e-05
0.004855753
-0.000183675
0.004950159
-0.000194586
0.005042611
-0.0001924583
0.005134456
-0.0001922337
0.005226986
-0.0001966911
0.005318874
-0.0001932464
0.005407055
-0.0001834116
0.005497325
-0.00019047
0.005587652
-0.0001966251
0.005682504
-0.000208517
0.005772042
-0.0001927097
0.005861927
-0.0001911429
0.005951936
-0.0001951385
0.006044537
-0.0002036206
0.006136393
-0.0002039106
0.006232066
-0.000216666
0.0063293
-0.00022188
0.006426525
-0.0002223602
0.006526738
-0.0002288804
0.006622692
-0.0002183052
0.0067272
-0.0002444088
0.006831359
-0.0002481084
0.006939652
-0.0002583583
0.007049818
-0.0002672502
0.007163207
-0.0002759233
0.007281155
-0.000293422
0.007406551
-0.0003158441
0.007532932
-0.0003200117
0.00766654
-0.000342077
0.007811758
-0.0003784865
0.007970507
-0.0004275955
0.008332888
-0.0009135827
0.008544899
-0.0005852968
0.008794618
-0.0006789509
0.009071945
-0.0007540857
0.00943946
-0.000994912
0.009811395
-0.0009597739
0.010673
-0.002501993
0.0013551
-0.001134628
0.00273038
-0.005365677
1.813077e-05
-0.004559609
0.0007493128
-0.002060443
0.00129399
-0.001240793
0.00169603
-0.0009446097
0.002050906
-0.0008774465
0.002349213
-0.0007408275
0.002592367
-0.0005956376
0.002803829
-0.0005258728
0.003014552
-0.0005415916
0.003208921
-0.0005012341
0.003392919
-0.0004708356
0.003560175
-0.0004225101
0.003719375
-0.000401521
0.003868765
-0.0003763167
0.004015221
-0.0003721291
0.00415629
-0.0003559617
0.004288547
-0.0003296676
0.004415973
-0.0003169571
0.004542288
-0.0003179003
0.004663926
-0.0003040825
0.0047802
-0.0002895822
0.004898354
-0.0002972158
0.005008413
-0.0002749983
0.005120845
-0.0002865964
0.005234587
-0.0002941366
0.005343598
-0.000276773
0.005447701
-0.0002593165
0.005552458
-0.0002638773
0.005655547
-0.000263472
0.00576454
-0.0002656676
0.00575724
7.156985e-05
0.005870807
-0.0002972415
0.005987729
-0.0003115081
0.006100879
-0.0003056087
0.006213362
-0.0003047167
0.006326731
-0.0003100599
0.006438964
-0.0003054792
0.006546902
-0.0002913503
0.006657031
-0.0003005985
0.006767209
-0.0003068031
0.00688257
-0.000323878
0.006991537
-0.0003016769
0.007100873
-0.0003004788
0.007210515
-0.000304781
0.007322782
-0.0003158867
0.007434077
-0.0003152057
0.007549978
-0.0003325676
0.007667382
-0.0003392839
0.007784842
-0.0003398194
0.007905935
-0.0003499742
0.008021365
-0.000333735
0.008147661
-0.0003707044
0.008272603
-0.0003730509
0.008402276
-0.0003880315
0.00853453
-0.0003995044
0.008669494
-0.0004108871
0.00881065
-0.0004345777
0.008959761
-0.0004649553
0.009109782
-0.0004700322
0.009268321
-0.0005006161
0.009440629
-0.000550795
0.009829712
-0.0008166779
0.01006007
-0.001143939
0.0103089
-0.000834127
0.01060524
-0.0009752885
0.0109441
-0.001092947
0.01138124
-0.001432052
0.0119002
-0.001478738
0.01270685
-0.003308638
0.01249741
0.001564535
-0.01580971
0.0154694
0.001928083
-0.01475604
-0.004338962
-0.01408317
-0.001921314
-0.01353156
-0.001821999
-0.01310959
-0.001369954
-0.0127319
-0.001248681
-0.01241975
-0.001055336
-0.01213022
-0.00143976
-0.01164906
-0.001017945
-0.01144065
-0.0006841734
-0.01124286
-0.0006445788
-0.01106074
-0.0005902269
-0.0108814
-0.0005780907
-0.01071031
-0.0005508726
-0.01054206
-0.0005375802
-0.01038514
-0.0004966693
-0.0102313
-0.0004814216
-0.01008355
-0.000461767
-0.009934622
-0.0004627117
-0.009792843
-0.0004384644
-0.009651709
-0.0004335882
-0.009514582
-0.0004174041
-0.009382375
-0.0003988869
-0.009249374
-0.0004010452
-0.009118409
-0.0003957385
-0.008986431
-0.0003985441
-0.008858629
-0.0003831498
-0.008731709
-0.0003746892
-0.008609222
-0.0003586468