/*--------------------------------*- C++ -*----------------------------------*\
| =========                 |                                                 |
| \\      /  F ield         | OpenFOAM: The Open Source CFD Toolbox           |
|  \\    /   O peration     | Version:  2406                                  |
|   \\  /    A nd           | Website:  www.openfoam.com                      |
|    \\/     M anipulation  |                                                 |
\*---------------------------------------------------------------------------*/
FoamFile
{
    version     2.0;
    format      ascii;
    arch        "LSB;label=32;scalar=64";
    class       volScalarField;
    location    "4.52";
    object      p;
}
// * * * * * * * * * * * * * * * * * * * * * * * * * * * * * * * * * * * * * //

dimensions      [0 2 -2 0 0 0 0];

internalField   nonuniform List<scalar> 
15536
(
-44.80029
-43.62361
-41.97081
-35.75609
-36.28874
-46.32336
-53.06739
-53.27884
-49.39355
-45.31307
-40.47117
-37.74511
-36.1429
-35.05689
-31.2104
-22.38425
-9.282294
-5.433241
-4.171055
-4.130839
-14.21573
-28.10344
-38.25844
-48.44509
-68.50431
-111.1994
-168.8149
-173.9837
-103.9395
-41.92892
-58.63159
-85.76063
-115.7108
-144.3248
-146.634
-127.2071
-120.2278
-123.1881
-129.0275
-134.1051
-137.3123
-138.8997
-138.9755
-137.9761
-136.4202
-133.9756
-130.7352
-126.5451
-121.9796
-117.1848
-111.7382
-105.7505
-99.15687
-92.23989
-84.92383
-77.28247
-69.68828
-62.04024
-54.04851
-45.91272
-37.95197
-30.17352
-22.44291
-14.82084
-7.44767
-0.2160455
6.703801
13.27867
19.40005
25.08601
30.29397
35.03103
39.25262
42.88133
45.89623
48.40113
50.27281
51.57893
52.37526
52.54634
51.92626
50.71678
48.94954
46.60255
43.70108
40.26782
36.36383
31.91307
27.0646
21.87534
16.21248
10.2396
4.025557
-2.575151
-9.309115
-15.99305
-22.81463
-29.7471
-36.61733
-43.49965
-50.22937
-56.63701
-62.67657
-68.4133
-73.94585
-78.99602
-83.52553
-87.48324
-90.86393
-93.70778
-95.76431
-96.91206
-97.14874
-96.31725
-93.95127
-89.77974
-84.7987
-83.37476
-90.55906
-97.90459
-87.99325
-62.40766
-35.24137
-31.28588
-88.25968
-128.0294
-111.6254
-64.82543
-32.41184
-18.00311
-9.458637
-1.352331
2.368535
0.2005304
-3.792573
-9.35949
-15.73753
-19.54828
-21.28402
-21.97453
-22.15479
-22.1351
-21.6295
-20.60941
-19.54224
-18.48106
-17.56577
-17.26585
-18.43758
-21.86827
-26.95914
-33.08255
-39.54225
-45.33483
-49.47085
-50.8329
-48.69858
-44.82905
-43.65384
-42.01272
-35.78327
-36.23826
-46.31298
-53.09494
-53.25294
-49.32447
-45.28553
-40.48703
-37.77642
-36.16354
-35.05781
-31.21
-22.37584
-9.27989
-5.355119
-4.092019
-4.180026
-14.31271
-28.14301
-38.17051
-48.25041
-68.22783
-110.8673
-168.6385
-174.3216
-104.0859
-41.85107
-58.83756
-85.95807
-115.8113
-144.4463
-146.5608
-127.0771
-120.1767
-122.8052
-128.2166
-132.9229
-135.8458
-137.2953
-137.3087
-136.2665
-134.6947
-132.2426
-129.0191
-124.8533
-120.3148
-115.5625
-110.1613
-104.2269
-97.6892
-90.83613
-83.58999
-76.02013
-68.49735
-60.9257
-53.0163
-44.95792
-37.07482
-29.37492
-21.72153
-14.17234
-6.870166
0.2884286
7.137024
13.64685
19.70828
25.337
30.49348
35.18477
39.36571
42.96156
45.94808
48.43098
50.28704
51.58146
52.37178
52.54141
51.92599
50.72839
48.97821
46.65355
43.78015
40.38073
36.51551
32.10882
27.31113
22.17344
16.56691
10.65742
4.506218
-2.029574
-8.694332
-15.31286
-22.06764
-28.93021
-35.73153
-42.5464
-49.21082
-55.55438
-61.53422
-67.21988
-72.7051
-77.71091
-82.20481
-86.13103
-89.49102
-92.32845
-94.3883
-95.55676
-95.83692
-95.1208
-92.99668
-89.13023
-84.51951
-83.36421
-90.48369
-97.92241
-88.21706
-62.57944
-35.42062
-31.16094
-88.38898
-128.1674
-111.5382
-64.69343
-32.30438
-17.96908
-9.500727
-1.40647
2.368167
0.2620528
-3.734262
-9.345931
-15.75396
-19.56386
-21.29521
-21.99109
-22.1705
-22.14334
-21.62906
-20.6022
-19.52998
-18.46105
-17.53259
-17.21088
-18.34871
-21.7255
-26.73852
-32.7755
-39.13997
-44.83948
-48.95239
-50.44513
-48.50154
-45.1317
-43.79149
-42.0674
-35.72412
-35.99594
-46.20793
-53.18635
-53.30624
-49.28662
-45.29946
-40.54222
-37.85662
-36.22533
-35.11536
-31.29486
-22.52816
-9.433042
-5.366075
-4.122865
-4.360956
-14.54354
-28.27689
-38.14604
-48.09076
-67.99726
-110.8887
-169.4306
-176.1748
-105.4322
-41.39477
-58.68098
-85.97117
-115.8329
-144.4369
-146.5481
-127.3691
-120.0687
-122.3535
-127.3132
-131.759
-134.6787
-136.2284
-136.2915
-135.2702
-133.7356
-131.31
-128.1222
-123.9761
-119.4506
-114.734
-109.3504
-103.448
-96.94033
-90.12048
-82.91796
-75.3658
-67.87467
-60.35076
-52.46936
-44.44389
-36.59553
-28.9385
-21.3259
-13.80806
-6.550241
0.5777525
7.390255
13.86641
19.8954
25.49466
30.62069
35.28436
39.44055
43.01709
45.98165
48.44982
50.29443
51.57809
52.36174
52.5291
51.91882
50.7323
48.9952
46.68656
43.83293
40.45572
36.6162
32.2322
27.46389
22.35723
16.77732
10.90126
4.784877
-1.723247
-8.355323
-14.93342
-21.65634
-28.48853
-35.25022
-42.04443
-48.67802
-54.99629
-60.9526
-66.60219
-72.06702
-77.04028
-81.51604
-85.425
-88.7657
-91.58734
-93.62199
-94.75472
-95.00486
-94.20695
-92.08175
-88.44073
-84.22836
-83.26701
-90.42022
-97.81105
-87.91664
-62.5228
-35.27475
-30.99854
-89.41163
-129.2134
-111.9806
-64.77415
-32.20329
-17.93182
-9.581909
-1.520465
2.360857
0.295052
-3.700522
-9.358619
-15.80527
-19.63285
-21.31603
-21.99681
-22.19581
-22.16274
-21.63962
-20.60494
-19.52882
-18.45196
-17.51078
-17.16931
-18.28545
-21.63812
-26.60542
-32.60366
-38.93403
-44.61867
-48.74002
-50.3169
-48.61538
-45.65214
-44.01462
-41.98878
-35.51022
-35.58941
-46.08889
-53.3877
-53.42543
-49.24357
-45.35731
-40.65912
-38.00741
-36.3521
-35.24935
-31.45514
-22.86724
-9.836043
-5.509062
-4.11539
-4.644701
-14.85043
-28.44165
-38.13591
-47.90578
-67.77795
-111.2109
-170.77
-179.0805
-107.8897
-41.39529
-58.01048
-85.43204
-114.8158
-142.2794
-144.4394
-127.0456
-119.8749
-121.6852
-126.0407
-130.0927
-132.7485
-134.0786
-134.0819
-133.0087
-131.4953
-129.0952
-125.9673
-121.8539
-117.3783
-112.7349
-107.4368
-101.6245
-95.20358
-88.4728
-81.36677
-73.91323
-66.51165
-59.088
-51.32161
-43.38489
-35.62616
-28.06598
-20.54838
-13.114
-5.947237
1.101337
7.835245
14.24503
20.2066
25.74308
30.81351
35.42972
39.54453
43.08996
46.0204
48.46805
50.29732
51.56666
52.34195
52.50549
51.90058
50.72977
49.01078
46.72462
43.90039
40.55886
36.76341
32.42103
27.71012
22.66165
17.1384
11.33728
5.291119
-1.153181
-7.695247
-14.18951
-20.83758
-27.581
-34.25581
-40.96686
-47.51497
-53.74079
-59.60603
-65.1877
-70.58052
-75.47353
-79.88399
-83.72346
-87.02558
-89.81334
-91.82282
-92.95511
-93.25565
-92.66661
-90.75076
-87.45306
-83.75928
-82.92436
-89.34686
-95.65939
-86.14142
-61.88027
-34.84425
-31.21959
-91.27072
-130.8966
-112.8394
-65.05512
-32.10744
-17.86163
-9.625325
-1.625822
2.43278
0.3747447
-3.680846
-9.38692
-15.88998
-19.74895
-21.32011
-21.9752
-22.23328
-22.19256
-21.65788
-20.61067
-19.5303
-18.44365
-17.48585
-17.11955
-18.21119
-21.53877
-26.43932
-32.37153
-38.6242
-44.21782
-48.25999
-49.85262
-48.759
-46.25696
-44.3852
-41.84386
-35.09853
-35.17703
-46.03658
-53.77656
-53.67065
-49.21714
-45.49249
-40.8691
-38.26236
-36.5787
-35.50826
-31.7637
-23.41266
-10.51301
-5.763093
-3.926988
-4.863917
-15.10799
-28.48644
-38.06144
-47.72296
-67.67188
-111.9337
-172.7898
-182.6854
-111.0721
-43.19181
-57.83778
-84.58243
-112.41
-136.5372
-139.3645
-125.5561
-119.4957
-120.8821
-124.7345
-128.5041
-131.0767
-132.5362
-132.6047
-131.4941
-130.0178
-127.5519
-124.4617
-120.3608
-115.8513
-111.284
-105.9881
-100.2245
-93.81993
-87.1443
-80.11367
-72.68658
-65.33892
-58.00945
-50.31226
-42.42622
-34.73437
-27.2649
-19.82621
-12.44895
-5.369084
1.61857
8.281973
14.62779
20.51866
25.99875
31.01441
35.58206
39.648
43.1596
46.05307
48.4776
50.28988
51.54169
52.30648
52.46315
51.86423
50.7166
49.02162
46.76126
43.96931
40.66401
36.9147
32.61266
27.96541
22.97173
17.49192
11.77139
5.794822
-0.6130017
-7.078145
-13.49237
-20.08819
-26.77101
-33.36433
-40.03468
-46.53066
-52.70386
-58.52385
-64.05556
-69.42969
-74.283
-78.68745
-82.51485
-85.81168
-88.65201
-90.61884
-91.75576
-92.03991
-91.34346
-89.49706
-86.44001
-83.15892
-82.31802
-87.30773
-91.87455
-82.72148
-60.9976
-35.04631
-33.02509
-93.50762
-132.9952
-114.131
-65.59161
-32.10962
-17.72717
-9.569176
-1.607156
2.670427
0.5775439
-3.661011
-9.437549
-16.02114
-19.90614
-21.3485
-21.96215
-22.28687
-22.24035
-21.69259
-20.62777
-19.54613
-18.44966
-17.47296
-17.08133
-18.15341
-21.46541
-26.30049
-32.18009
-38.37193
-43.90808
-47.9595
-49.73025
-48.92384
-46.86701
-44.96281
-42.05949
-34.86483
-35.00778
-46.14213
-54.44154
-54.0774
-49.21009
-45.72945
-41.21874
-38.69418
-36.95472
-35.95562
-32.28869
-24.22585
-11.48184
-5.988518
-3.315947
-4.742844
-15.08339
-28.2845
-37.85202
-47.57871
-67.90416
-112.9771
-175.0049
-186.3388
-115.2616
-47.85527
-59.39575
-84.45797
-109.8101
-130.87
-133.7321
-123.4231
-118.6722
-119.661
-122.9162
-126.2539
-128.5082
-129.7234
-129.6929
-128.4445
-127.0263
-124.7347
-121.7867
-117.741
-113.2693
-108.8723
-103.6712
-98.04949
-91.74696
-85.17281
-78.26387
-70.9264
-63.70317
-56.52171
-48.92903
-41.13676
-33.56892
-26.21786
-18.89012
-11.59732
-4.644
2.262856
8.823864
15.06892
20.88026
26.30371
31.24974
35.75313
39.74982
43.22953
46.07816
48.47021
50.26638
51.49581
52.24693
52.39302
51.80645
50.68306
49.01999
46.79233
44.04024
40.78075
37.08187
32.82137
28.26576
23.34831
17.90392
12.28097
6.429044
0.07438433
-6.298681
-12.5872
-19.08684
-25.68732
-32.16803
-38.7435
-45.14048
-51.21184
-56.91623
-62.35384
-67.66112
-72.39365
-76.71967
-80.43878
-83.64452
-86.3789
-88.29054
-89.35611
-89.74987
-89.31736
-87.71116
-85.02311
-82.21733
-81.38596
-85.03364
-88.04967
-79.6803
-60.63524
-36.96907
-37.20247
-95.97431
-134.9176
-115.5636
-66.24077
-32.27144
-17.59281
-9.350441
-1.348964
3.125255
0.9401284
-3.633592
-9.507862
-16.22225
-20.12622
-21.44606
-21.99982
-22.37115
-22.31975
-21.75595
-20.65933
-19.57456
-18.4772
-17.48088
-17.06459
-18.13323
-21.43394
-26.19085
-32.01931
-38.14083
-43.60403
-47.64111
-49.44269
-49.04359
-47.54333
-45.71833
-42.8208
-35.55032
-35.52919
-46.78194
-55.5226
-54.76387
-49.2875
-45.97193
-41.77327
-39.40286
-37.56133
-36.67818
-33.12182
-25.41901
-12.71935
-6.007672
-2.096066
-4.05647
-14.61716
-27.71822
-37.52066
-47.59172
-68.71122
-114.1443
-176.3397
-188.4315
-120.3814
-55.40458
-62.75681
-84.52087
-106.9814
-125.3829
-128.5154
-121.1114
-117.5421
-118.3202
-121.0674
-124.0878
-126.1675
-127.4321
-127.5735
-126.1895
-124.9528
-122.2823
-119.3956
-115.3595
-110.8283
-106.5723
-101.3612
-95.88043
-89.60686
-83.05679
-76.29938
-69.10243
-61.95443
-54.84433
-47.40831
-39.76561
-32.2883
-24.99052
-17.86008
-10.64463
-3.843976
2.984054
9.401766
15.54759
21.34752
26.65428
31.4954
35.91027
39.8419
43.34329
46.09434
48.44502
50.22597
51.42337
52.15772
52.29664
51.72848
50.60077
48.96725
46.7826
44.08426
40.90417
37.27334
33.03428
28.57625
23.78441
18.41608
12.83349
7.082939
0.8807606
-5.416516
-11.61217
-17.99373
-24.43534
-30.8784
-37.37791
-43.62084
-49.63162
-55.21113
-60.56826
-65.8555
-70.485
-74.80448
-78.46051
-81.6901
-84.54034
-86.45223
-87.65489
-87.97314
-87.48164
-85.98805
-83.57579
-81.15002
-80.24625
-82.75719
-84.44497
-76.73069
-60.49631
-40.54201
-43.17828
-98.25159
-135.5331
-116.4876
-66.28934
-32.54976
-17.52417
-8.984841
-0.8035599
3.773562
1.435607
-3.593621
-9.617267
-16.52669
-20.44265
-21.67154
-22.11714
-22.53102
-22.43766
-21.84768
-20.71129
-19.61794
-18.53868
-17.52707
-17.08577
-18.17735
-21.51021
-26.17624
-31.96209
-38.00491
-43.36465
-47.36376
-49.2771
-49.31358
-48.26324
-46.60245
-44.1115
-37.55137
-37.27686
-48.27767
-57.35152
-56.13255
-49.51543
-46.13738
-42.48981
-40.49368
-38.61557
-37.86859
-34.3897
-27.13808
-14.25973
-5.865944
-0.4628812
-2.832629
-13.72056
-26.57071
-36.78078
-47.69685
-69.88239
-112.8278
-174.8741
-186.4184
-124.2704
-64.24143
-67.65748
-84.87903
-103.8515
-119.6812
-123.3187
-118.449
-115.8504
-116.3513
-118.4127
-121.0175
-122.7401
-123.6861
-123.9064
-122.2233
-120.9946
-118.7654
-116.0128
-112.2812
-107.4518
-103.4448
-98.41182
-93.15584
-86.84757
-80.39509
-74.06806
-67.06593
-59.63362
-52.72988
-45.7573
-38.30084
-30.61831
-23.46566
-16.79725
-9.54786
-2.990279
3.806479
9.954679
16.21052
22.00784
27.00951
31.71152
36.00827
39.94044
43.49272
46.05306
48.41594
50.15975
51.3171
52.04008
52.18255
51.59229
50.47023
48.8451
46.71268
44.07336
40.98444
37.52009
33.26818
28.88149
24.25028
19.16248
13.61546
7.651707
1.741507
-4.246654
-10.55918
-16.86579
-22.88072
-29.20239
-35.95571
-41.77465
-47.79127
-53.20641
-58.39767
-63.68077
-68.07934
-72.43044
-75.84594
-78.96127
-81.81012
-83.53872
-84.51812
-84.94536
-84.83895
-83.61741
-81.57238
-79.57179
-78.63545
-80.27052
-80.76426
-73.70739
-60.2532
-44.84181
-49.94913
-98.52424
-132.3805
-114.5571
-64.17281
-32.68773
-17.51475
-8.554091
-0.2772282
4.500964
1.908723
-3.549608
-9.756961
-16.8959
-20.91136
-22.08263
-22.36932
-22.7938
-22.58655
-21.93251
-20.80288
-19.70611
-18.65959
-17.64386
-17.14322
-18.21441
-21.73729
-26.3044
-32.05929
-38.04155
-43.30502
-47.19512
-49.08568
-49.64099
3.225348
2.493131
-48.72877
4.285207
9.534018
2.255284
2.28155
-0.1357443
6.168839
0.792473
-3.336499
-0.4627181
1.389153
1.735187
2.000681
1.842205
-10.54185
0.2675283
0.5956553
-0.6915066
-43.56055
1.981637
1.16214
0.778422
2.132251
0.06733625
-2.591033
1.195245
-2.471711
1.489022
1.015083
-31.92293
-1.535255
2.098544
1.5257
-0.777725
-8.222453
0.3252488
1.479138
-1.425086
-12.5059
2.960464
2.495443
5.344283
27.71868
2.068064
3.337157
1.930391
-3.496457
1.067444
-0.5385901
-4.060751
-15.49244
0.8741804
0.3526495
16.49237
4.175204
0.9736858
-6.454744
-6.794386
1.329134
0.04153048
-0.7150101
0.8617219
0.4711166
-0.1917061
-43.55318
0.3176961
2.5274
1.838161
1.586122
3.624338
-11.68726
-35.45676
23.05308
0.8389601
4.654384
0.8187289
-12.14518
0.9438232
-6.437183
0.3779667
2.876914
1.655728
-2.540534
2.505598
-0.4181357
-0.9392458
-12.11241
-0.2185541
-7.000328
26.29955
-7.951305
1.264421
2.320129
-0.2154126
-11.40124
7.11886
-74.84582
2.438766
0.2803782
-0.7953433
1.692414
-62.32679
0.08959336
-26.25136
2.484536
2.122788
-8.499094
-5.576156
-0.9501938
3.928255
6.055982
8.208359
-31.8012
-0.1524395
0.5474445
1.492137
25.76508
1.979559
2.577292
0.6235684
1.703082
-3.405403
-2.309738
2.390708
1.800185
-58.30577
2.481042
0.3672806
0.3831148
-2.948409
1.29621
2.103071
1.599421
-14.61016
0.2379687
2.462872
0.4622612
0.6270554
-55.66706
2.303132
-45.33753
2.559267
-3.679871
-14.85967
-1.222164
-29.84836
0.7588415
1.63933
-1.797216
-28.168
-55.74064
0.6939413
-43.47682
-82.19744
1.490989
1.365318
1.067434
-19.61721
1.165776
-19.14247
-12.2442
-2.455658
1.939891
-30.41567
-13.16044
2.72145
-44.55241
-0.8316246
2.296577
-21.50605
0.9670621
-63.71231
-2.471071
-7.04136
1.31763
2.229818
-17.89856
-12.69887
14.50596
-0.8829008
1.683807
1.885301
6.279228
-31.7357
1.776652
0.8150491
-17.77446
0.6556589
1.81704
0.1778749
-0.5604756
0.3176045
-1.484311
2.173928
2.137781
2.472711
2.583197
-21.61848
-1.070932
-9.123499
2.815327
5.983754
2.259701
-0.5759572
-2.338217
1.373173
-3.728736
-9.221116
0.7979526
2.471218
-13.61531
-10.23914
1.678237
-14.25391
-5.569419
-0.5785045
13.23635
0.6827888
2.123528
1.275048
2.460807
-11.35155
-0.2324229
-3.180292
2.128799
8.611652
2.15732
15.71063
-8.19168
-31.33099
0.4709246
-0.09170646
-58.27518
1.587405
20.97959
-2.654565
3.147437
2.468928
2.04347
0.6740877
-0.1647805
-17.67744
0.306221
-40.07378
2.137966
-59.48784
0.7861105
2.752898
-19.88237
2.510443
-1.511074
-0.550604
2.954215
-15.32105
2.883006
0.5986107
-23.93147
-1.355683
-11.35699
0.3287105
-2.627598
0.9488293
1.738716
1.553279
2.222261
0.6871524
-8.895199
-16.10365
1.003659
1.175831
12.48167
1.284309
1.696534
2.868659
0.785151
-40.44586
-58.40739
1.885148
2.148285
2.49718
-11.21924
1.369585
1.341431
0.9326966
39.81946
1.793882
1.245899
1.029407
-0.8301133
-0.0518046
2.182307
2.108221
-52.32021
0.9913439
6.658435
-1.119038
2.723596
2.283827
-28.22304
2.065707
-0.285122
-37.66085
2.11119
0.2380623
1.478962
2.063331
-2.835627
-4.425671
-0.9273748
-2.476555
1.700819
2.159164
1.889001
-5.939049
34.28651
-27.41961
-25.34775
-90.81933
1.95985
-16.65382
-2.167398
-17.59915
0.1810282
-0.5041385
1.508341
1.685728
1.9988
2.146987
19.89937
2.913444
-2.76405
-69.77166
2.394689
0.884554
2.692836
-11.06581
1.877584
2.650284
-63.24211
6.564062
2.958068
-0.9990836
-6.807148
5.929629
-16.02179
1.757337
-5.123886
0.3809144
1.699694
-6.610648
11.96744
1.105617
3.203023
-35.51669
-37.31688
-13.53199
0.7159005
-1.897841
1.927829
0.2413193
-9.98708
2.069738
-0.4506301
1.251418
0.476519
0.5272806
0.6353604
0.4074909
0.6428899
11.08656
-24.99301
1.951568
1.395082
2.580094
1.181844
2.148242
2.95486
-0.3498093
0.7430293
0.7684549
0.1243355
-21.36977
0.01660771
2.096231
1.914376
41.70653
2.182587
-0.866865
-5.175131
2.019219
3.897494
-84.17287
0.00717389
1.358217
2.854716
-4.496941
1.232429
1.938552
1.663362
-0.8262668
-17.96833
-7.568513
-2.929539
-4.488737
-51.26674
-36.35065
0.5613216
2.057919
1.124085
0.5663324
-1.429992
-0.1565817
1.375058
1.492749
4.352593
-39.40178
1.05791
-26.64121
-0.5137558
0.8258979
2.813306
1.688738
1.752085
-15.96491
1.263325
-0.3405123
-20.32833
-4.824083
-25.16465
1.3388
2.470013
1.026026
2.497512
2.686525
0.8691001
-1.527033
0.8232469
-0.6838578
2.304114
0.3214713
2.225029
1.756657
-0.3018898
0.7957537
0.9818455
-3.670899
3.151256
1.788651
-0.1460788
-55.13265
2.772733
-16.52642
1.953738
-8.585368
0.4416801
4.288709
0.7852464
-10.53857
2.313365
-51.69193
-1.831819
2.124133
2.024785
1.592282
29.68304
1.747684
2.196073
1.101038
-4.972304
0.6821184
0.7240215
7.342795
-8.002821
-17.75136
-1.332567
-50.07107
-6.389931
1.98586
-22.05111
2.557824
1.140738
1.947194
2.477083
2.224576
-1.696872
15.86737
1.024415
0.2787418
1.264761
-14.91585
-3.658445
-6.522399
-11.15395
0.5575311
1.039723
4.448392
2.419189
3.747381
1.018346
2.008738
1.531541
-0.8772044
3.102962
0.7733971
-0.2816022
2.456028
-1.569923
-14.0181
-13.21073
-0.6447875
8.325132
1.356323
2.159805
1.550251
0.838383
1.832186
-2.76234
0.7713834
0.7109812
1.44661
-1.579503
-4.906751
2.116257
0.8608768
0.7079974
-0.8717047
1.056183
1.502569
-16.58445
-6.426505
-13.17117
0.532421
4.092622
5.121515
3.871722
0.9916216
0.6683702
0.5981397
5.552081
0.8376621
2.595179
2.786318
-73.13522
2.175514
4.635585
-2.874186
-0.02788838
9.474434
1.376714
12.38497
-2.369509
-0.3837801
-6.078172
-0.4517308
-1.110963
-8.308976
15.59915
-13.73335
1.369131
-7.784002
0.7797362
-0.2584472
0.6403267
0.8723274
0.1017701
1.83391
26.82375
-9.898226
0.7814397
0.8880153
3.307891
-44.77374
1.463168
2.543755
2.184464
1.740023
2.193061
-1.27246
0.287325
1.210233
5.551803
0.1497179
-1.771486
-13.38071
1.888135
1.748684
-56.45653
-0.005867823
0.9217202
-30.62649
-3.104791
1.030151
0.8135992
0.9856024
0.6337747
-76.48569
0.7892373
0.7434304
0.7735313
1.712863
2.615892
0.6894459
2.789984
-27.72252
-13.90497
2.032802
-30.19858
1.921488
5.831945
1.556181
-71.57439
0.9625538
8.163584
-0.1615242
1.669915
-4.210002
-6.607901
2.87835
8.110824
-7.348638
0.2357993
1.251817
2.165666
17.83317
3.129659
1.641698
1.855579
0.4173609
4.609902
-22.3646
-7.275199
-47.29992
-21.80971
-2.603482
-1.532511
-0.2407329
1.875705
0.5835192
0.7785427
-8.13835
1.623203
-18.33067
1.97105
2.924042
2.070035
-41.72002
1.729744
25.25717
3.487609
-43.31094
-3.189318
-7.525201
7.494129
0.4841383
-34.31657
1.571184
-0.05673898
-27.84624
-1.525914
-1.629419
2.313197
2.498661
-7.246246
0.1959315
-2.926761
0.2801326
3.303618
-6.321995
0.9562483
1.567383
-55.53975
0.2702469
1.02395
-0.4761991
-6.126911
-1.430876
2.168109
11.04014
15.37151
16.18131
2.355684
0.7953316
0.7298023
-9.823043
1.849908
0.8955213
2.705969
1.473322
-31.29495
3.61313
-45.49363
-3.393541
2.611862
2.035421
-24.64994
2.974866
-0.2893566
-1.805482
1.50483
-2.021573
-7.956219
-7.301121
5.125481
-17.33797
0.6412749
0.7370882
-30.40699
1.688077
2.724245
2.343672
2.645866
0.7170399
-7.696002
1.80506
0.09066647
-20.59676
2.024661
1.958554
2.497799
0.893296
1.753265
0.7560989
2.030181
-0.3689
2.015731
-16.25081
0.7942727
0.8193534
-0.6158592
-0.2238748
0.8402859
1.976984
2.083067
3.803047
1.463338
2.559399
-86.84735
-0.8209527
0.1753457
2.462467
1.431643
1.752103
6.478357
1.671185
-36.81256
1.965609
-3.333506
5.145764
-1.305254
-23.53302
-2.835103
-0.4545231
1.469035
-20.49949
0.8885833
-15.12881
-24.31562
-0.6415405
-0.3680025
-2.373291
1.138297
15.15714
3.48851
2.895774
-9.21848
2.437612
0.451467
0.6866767
-2.266513
21.97672
-14.60284
0.5878727
1.53001
-0.8300571
1.603201
1.271347
-6.901908
0.3360282
-2.400666
1.879031
0.9530095
-5.421016
8.695491
0.1155045
1.244533
-3.339835
2.203164
1.702094
1.457911
-13.07604
30.80068
-4.647969
1.134835
2.101758
1.993593
1.650399
1.148233
-68.68057
1.957049
-48.54042
-11.99952
1.52806
-10.71629
1.261415
-12.10854
2.36609
1.40767
1.417559
0.8595218
-14.45797
-68.47122
1.503714
1.519399
-2.535531
1.264383
1.356389
1.22465
-15.64805
-0.2770995
13.01103
0.8063323
1.974808
1.711282
1.698029
3.139704
-1.804538
-0.2913014
-0.9611686
-47.91851
2.116149
9.277541
-22.51975
2.207613
0.7607981
-19.97033
0.7957943
1.897949
1.306458
-2.826118
-2.082058
0.7940988
1.771294
0.7830244
0.7552712
3.454528
1.459198
-7.828752
33.72265
1.795973
0.2038034
-2.475348
-87.23177
-0.4980465
0.8291423
3.040879
0.2352922
35.12994
1.621541
2.124323
1.485618
2.16801
-5.073126
0.6908308
0.8567076
0.8824341
-30.38013
-8.357242
1.062857
-3.90197
-18.51281
1.12181
2.934705
1.291271
-6.285587
4.857166
33.19478
-4.463344
0.2832254
1.803747
-18.74155
-16.5942
7.013575
1.089916
0.7337669
1.68887
1.557437
-0.06088217
1.580006
-9.928617
-10.93655
-7.85767
-36.33963
2.546062
-1.61333
1.668862
-15.81485
2.297716
-1.505829
-16.81231
-10.22159
-2.117916
13.4879
-6.957342
3.833096
2.362568
2.120561
-16.19865
23.96766
1.471252
0.4147973
-5.568197
-36.10477
0.3946227
0.9326882
0.9090904
2.63763
2.089663
-40.53798
-6.26763
2.852096
-11.93502
-14.6092
0.398165
-37.40342
-28.54461
-61.62919
2.313014
-29.24788
2.882991
1.422447
-24.41754
2.052227
1.517394
-18.87003
0.02558024
1.240675
-3.837498
2.908807
1.731633
-36.30207
-38.08797
2.60734
13.86998
2.507805
2.256282
-29.61926
23.34285
-65.98576
0.3367197
1.998856
2.531801
-9.327668
0.6218042
2.291252
2.133958
2.055647
-1.543333
-40.57016
-53.23819
2.288799
-1.912839
2.405043
1.302952
-0.005097663
2.882077
0.9542659
0.983387
0.6176328
0.4909516
0.7629902
-4.172511
0.8698962
-5.254013
2.772309
2.303784
-23.61465
2.673069
1.861089
-3.652663
-17.77654
0.1997756
0.3083257
2.770732
-18.53063
-49.72602
32.26736
47.03409
3.643814
-0.02714818
-9.495802
5.04435
2.625787
0.6746595
13.4
-22.05509
3.005432
2.039438
1.577746
2.501563
2.032659
2.153658
3.028001
-30.48378
-43.39389
-10.24252
1.188998
2.139821
2.978287
1.421149
-18.52115
1.467182
0.7940362
2.239153
-1.78362
-1.519858
2.043698
-50.66729
-31.57707
2.65091
1.310862
1.872719
3.301843
-7.229489
2.743327
0.6078786
-37.35822
2.459629
-31.0571
-13.18035
2.303976
1.836555
-49.85851
-89.97595
-1.240419
-2.846494
0.07904881
0.7331869
-2.366208
-10.49875
1.58993
1.994978
1.907315
-3.411805
1.118468
1.042921
2.135845
1.722724
-0.4776106
0.934841
0.8372252
-1.477535
-1.882654
0.8875953
0.2519852
-3.784784
-0.4838533
1.856491
3.315644
0.101259
0.3428268
4.781324
0.2996652
-2.221773
-37.7426
-28.067
1.004416
1.967315
0.642235
1.438491
-19.09869
-5.542216
-27.34024
-21.63702
24.58439
2.272003
4.455694
-10.06684
-13.09868
0.4475076
3.871873
-75.48515
0.2544364
2.889524
-38.00868
3.13548
3.592465
-0.7287455
1.970724
-29.98589
-10.60164
-29.57133
0.8795122
-2.011032
38.47539
-6.530262
-2.311338
0.780992
1.479607
-0.9604574
8.439094
1.801554
8.746834
-1.899349
-0.8361793
-12.20367
-6.941177
0.5023127
0.7374055
-26.67361
0.6137442
-87.81367
7.977825
2.026008
10.15753
2.160483
32.54157
-9.694365
-23.56335
1.465067
-1.472107
17.1563
-5.825584
-27.51668
1.868836
1.45051
1.871843
1.972257
-1.120888
-13.95137
-9.362625
1.078245
-43.06466
-2.089299
23.17417
-31.47321
3.573252
-20.62188
-21.2586
-6.517934
-44.64849
40.72163
4.171039
2.142664
-26.93112
1.194078
1.653109
-2.608438
2.413463
-26.19499
-53.17231
-7.960267
2.661915
3.22737
2.75769
0.9266024
1.902252
0.294253
1.695586
2.337935
0.8259471
1.669162
1.148789
-9.29854
-8.819674
-3.795215
0.3760924
0.3815161
-56.04831
0.1896397
0.5719964
1.0955
3.16944
-46.73095
2.690786
1.70462
1.032329
1.787325
1.904474
-5.932028
0.794941
1.159924
-20.36516
30.57227
1.034475
1.484691
2.725412
0.9452614
2.218766
1.948433
1.633796
1.790003
2.228145
7.699674
0.5133068
-9.085825
1.997301
-3.421137
4.147717
2.735871
1.187451
1.838738
-19.6829
-11.41498
-54.19868
-11.89216
1.398023
-4.178804
1.087697
-0.8009121
1.992348
-33.94463
0.2774812
1.843426
0.7556126
-12.55581
1.097308
-8.501574
3.782518
-70.98804
0.774014
2.028991
1.823722
-83.19695
2.573368
-23.75275
1.906406
1.89255
1.716517
1.733671
1.994198
-21.71077
-24.98645
0.9947871
1.069569
9.818969
0.9849029
2.239062
2.498258
4.161875
-1.885777
1.101765
0.6203649
-41.00746
-9.534438
-6.12984
1.947336
2.606781
1.042021
2.283862
2.343751
2.161884
-14.54943
1.674421
-2.324304
13.04623
2.64574
-6.339334
1.927606
-1.031165
0.9429962
-31.96028
-0.3119822
-1.655539
0.1965957
-10.81917
-16.99293
-21.83975
1.776423
-21.88118
0.4464358
-2.257927
-0.01103641
-0.657885
17.02774
2.369457
-21.41797
-57.29458
2.364878
2.283771
1.40119
2.058088
2.403886
2.506359
1.167058
-9.02358
1.918008
-8.588978
1.040404
2.321413
2.640783
2.989222
1.509999
2.137313
-1.493994
2.180226
2.823242
-3.123624
-1.066391
1.432743
-0.9297262
0.6478761
-15.36461
-16.27189
-4.663904
-10.1701
-0.3441409
-8.537764
-6.695561
-8.294429
3.506402
-0.7785055
0.3874711
10.23763
-40.01345
-22.94833
1.349843
1.934828
16.01164
1.562937
0.8960556
1.135579
-3.269282
-1.752064
-58.47644
-20.53346
-11.83118
15.83161
11.75312
1.091746
-27.56783
-33.37881
-51.59906
2.618164
-6.872614
-1.68566
2.040337
1.088972
0.2991919
1.239744
-0.5930927
0.9004188
1.126762
0.8742701
1.073497
-17.70837
1.16994
-0.4038298
2.009134
-54.11946
20.50919
0.5754004
-11.72455
-24.85024
-16.37934
13.16257
4.526333
-9.989048
-7.071144
-44.87282
0.7253707
-35.24574
2.523668
-62.09318
-28.62194
1.13233
2.354015
7.729674
0.7798179
15.22567
0.6573221
1.453168
2.324109
0.8933798
2.128526
1.803491
1.788156
0.01193695
2.455575
-22.90057
1.594715
2.123122
-0.5119652
0.6861627
0.7335127
-4.783687
-14.32797
-52.04595
-1.28526
0.8501636
28.17934
0.4108928
2.490123
-30.73147
-2.138995
-29.62073
1.458828
1.57439
1.984671
1.970546
-17.6439
-13.99161
2.253722
7.252094
0.8743836
2.062361
1.363599
16.84606
4.137119
-23.68999
10.54067
-15.12671
1.779802
-60.74458
1.941465
0.9305482
2.688421
2.366998
0.5004762
-39.92857
-17.8865
-54.92899
-0.2913616
-4.196571
-25.95992
0.8066897
-26.82797
1.934538
2.916945
-22.42316
-24.97973
-1.829759
-83.72603
2.311156
-7.273
0.800615
-24.54612
11.08902
1.639661
-0.9457954
2.410222
2.187345
1.329992
18.87565
-1.077584
-45.00974
1.621787
1.564091
0.889506
2.174167
0.08798682
1.788793
-1.099576
0.107158
0.3945891
0.3934853
-30.69246
2.007568
2.459347
-2.455832
-0.8575287
0.7308503
0.7174402
-0.2382357
0.1590933
2.435091
-53.97683
28.6347
-10.12181
2.055351
2.026238
-20.40947
0.9524793
0.1865707
0.7656222
-3.142929
1.524348
2.303017
0.2858209
-31.90808
1.662398
21.70751
31.93312
3.206493
-3.325741
1.897557
2.434602
2.650324
-9.70442
32.93473
-22.98606
1.928872
-1.587676
0.4297635
-2.118288
2.408674
-7.485063
3.114664
2.879351
1.880956
-29.4931
2.058771
1.220265
-1.839956
11.0835
-6.574467
0.3001232
0.4936196
-58.25286
32.98373
-24.35218
1.924906
-12.78752
-6.298165
1.073236
1.196911
33.09903
-5.35688
-8.045429
-9.309901
-0.6738812
0.7648826
4.599997
2.351754
-6.407699
1.061025
0.790766
20.63284
0.4694664
-8.231232
0.8312902
2.303477
-14.8209
21.70544
3.884149
10.48283
-58.1724
-37.54866
1.318163
0.7432911
-43.71379
-10.30802
-23.73378
-6.345405
2.69409
4.147216
-0.4460037
-5.370938
-6.510943
8.32496
-3.239225
-11.93733
1.617272
0.802833
-2.653155
-40.02579
-10.82232
2.139714
3.269818
0.1841717
1.05821
3.295683
0.6552405
2.166115
2.64723
-40.29112
-3.692783
0.6699499
0.7145725
-28.80609
1.006712
1.465968
-4.318955
4.518091
-0.8545305
1.247923
37.735
0.201158
1.872814
0.3772517
0.7305867
-12.88577
-31.59106
-47.26787
12.90604
2.948394
0.7732511
2.100127
2.102622
0.7645412
2.554244
1.562876
2.49359
2.33328
2.410679
1.948977
-0.5606308
12.88646
9.827751
2.983126
1.788201
1.261042
1.336005
1.934492
-29.90252
3.225887
-34.0762
-25.27674
0.7899422
2.084793
-54.84337
42.31942
-66.46456
1.058125
2.990662
4.582134
-10.90472
8.536319
-14.60621
1.316527
3.979931
1.777298
4.451931
1.959359
1.433318
2.156131
-54.44066
-0.534776
0.3957522
1.103577
2.241569
-75.19519
-30.15176
-34.16799
1.236199
14.70772
1.725833
0.9185813
0.5339123
2.607079
-34.68736
0.894344
3.931436
28.14112
2.147975
2.151588
2.127403
23.49189
-0.7910767
3.186228
3.652945
-11.85566
0.767037
0.9931339
-91.10795
1.281421
-100.4784
2.270081
-0.1132205
46.52989
-3.183552
1.072379
2.248711
4.643708
1.554082
2.949225
-58.93115
45.29785
4.118071
-4.946223
46.45224
1.976432
-0.1086342
0.6261655
-13.48472
0.3827927
2.424254
0.6050396
4.525459
-16.18397
-35.39456
2.001668
2.006779
1.503006
2.259817
13.87075
-0.0864286
1.970878
2.117113
1.67909
1.669815
1.805446
1.716981
1.252452
1.017846
-3.777604
-34.46252
-61.63404
-47.00691
-37.60558
-42.38493
2.11651
-5.588829
2.493216
0.8783681
4.353688
-22.61599
-13.9366
28.19228
-10.93368
2.569575
-1.475946
2.880679
-5.770336
-29.47752
-6.190629
3.217964
-94.17263
2.852967
1.501691
-1.432209
3.07799
0.9879217
1.80865
0.8273302
2.59276
0.3819594
2.068865
3.525558
3.414646
1.962976
-1.572236
-0.04753856
-17.8259
-6.318221
0.4884223
2.097552
1.364852
-3.202187
-53.78334
2.851712
0.07662689
0.740115
0.4997274
7.689257
15.6229
1.277604
-0.4217937
1.701875
-10.92908
-47.56252
-28.07186
1.037765
-14.90046
-10.62062
-15.41057
7.892754
-0.5777383
-7.91488
-0.2258781
-21.94015
-22.0169
-1.415837
-4.921584
-6.025245
-1.162113
28.95658
0.5737451
-14.78663
0.4131671
-0.1099539
-0.1664347
-30.7292
0.9554863
1.472034