/*--------------------------------*- C++ -*----------------------------------*\
| =========                 |                                                 |
| \\      /  F ield         | OpenFOAM: The Open Source CFD Toolbox           |
|  \\    /   O peration     | Version:  2406                                  |
|   \\  /    A nd           | Website:  www.openfoam.com                      |
|    \\/     M anipulation  |                                                 |
\*---------------------------------------------------------------------------*/
FoamFile
{
    version     2.0;
    format      ascii;
    arch        "LSB;label=32;scalar=64";
    class       volScalarField;
    location    "2.32";
    object      p;
}
// * * * * * * * * * * * * * * * * * * * * * * * * * * * * * * * * * * * * * //

dimensions      [0 2 -2 0 0 0 0];

internalField   nonuniform List<scalar> 
15536
(
-43.15598
-38.80347
-33.60298
-28.27805
-23.95292
-21.16713
-20.19186
-20.81726
-22.42736
-24.73469
-26.50341
-28.31054
-29.97887
-31.0972
-31.82981
-32.06476
-35.27235
-40.26473
-37.05741
-32.29089
-29.2779
-24.67952
-14.73177
-2.848178
4.375257
5.831771
-1.628277
-11.53666
-20.79558
-41.39267
-85.02073
-132.0661
-129.6148
-69.82427
-43.5244
-66.86045
-86.87118
-93.15702
-89.18035
-88.85279
-94.06737
-98.82251
-101.7571
-103.0098
-103.3265
-102.6087
-100.9621
-98.32985
-95.19696
-91.71153
-87.53058
-82.75935
-77.36283
-71.58652
-65.38008
-58.8158
-52.22816
-45.53598
-38.49889
-31.29858
-24.22332
-17.28735
-10.38389
-3.569326
3.021743
9.480156
15.64143
21.47993
26.89227
31.87874
36.40008
40.45807
44.01566
46.99775
49.36429
51.21779
52.43008
53.04281
53.12478
52.72074
51.52095
49.66745
47.24338
44.23649
40.66978
36.56574
31.98968
26.85559
21.32421
15.44004
9.054197
2.352217
-4.598683
-11.97892
-19.51688
-27.00374
-34.66079
-42.47256
-50.24907
-58.07553
-65.79213
-73.20993
-80.2843
-87.10445
-93.79754
-100.0488
-105.8374
-111.118
-115.9076
-120.2796
-123.9467
-126.8274
-128.9782
-130.3703
-130.8771
-130.1624
-127.9296
-123.8381
-118.5927
-115.6803
-121.2439
-133.0764
-131.4241
-108.9585
-79.35505
-52.60769
-69.22071
-150.3582
-177.0297
-138.286
-86.42642
-58.02436
-47.05806
-40.23546
-29.7318
-14.53907
-2.984529
-2.613853
-5.810076
-12.97961
-27.27107
-38.68294
-45.41596
-47.54403
-46.63267
-43.25987
-38.86654
-37.40207
-41.32692
-43.5805
-39.63904
-37.94088
-40.86178
-43.23491
-45.57212
-47.47646
-46.55016
-42.92218
-38.45652
-33.3082
-28.05878
-23.81443
-21.08639
-20.14902
-20.79823
-22.41951
-24.73595
-26.50963
-28.31232
-29.98028
-31.09898
-31.8276
-32.06703
-35.28546
-40.28906
-37.10635
-32.35214
-29.31487
-24.68751
-14.72778
-2.848418
4.403854
5.754068
-1.711834
-11.56276
-20.71778
-41.26707
-84.88356
-132.012
-129.772
-69.72984
-43.46602
-66.9455
-87.0829
-93.18007
-89.18226
-88.60542
-93.42622
-97.85872
-100.538
-101.6568
-101.9177
-101.175
-99.51944
-96.88978
-93.76757
-90.31102
-86.16374
-81.4344
-76.08266
-70.35746
-64.21049
-57.70778
-51.18248
-44.55774
-37.59347
-30.46214
-23.45652
-16.59113
-9.757292
-3.008707
3.518607
9.911174
16.00826
21.78803
27.14645
32.082
36.55779
40.57557
44.09787
47.05225
49.39536
51.23169
52.43331
53.04082
53.12134
52.71906
51.5272
49.69105
47.28964
44.31066
40.77756
36.71301
32.18118
27.09689
21.62226
15.79492
9.471257
2.839163
-4.043906
-11.35856
-18.82032
-26.23183
-33.81531
-41.54985
-49.24955
-57.00048
-64.64323
-71.98773
-78.99261
-85.7516
-92.38872
-98.58378
-104.3243
-109.5602
-114.3128
-118.6579
-122.3029
-125.1751
-127.3358
-128.7528
-129.3076
-128.6867
-126.6638
-122.9349
-118.0956
-115.5929
-121.1983
-133.0074
-131.5927
-109.1627
-79.49711
-52.71049
-69.34676
-150.5013
-177.0734
-138.0308
-86.11764
-57.76903
-46.87778
-40.16455
-29.78032
-14.6392
-3.034073
-2.567561
-5.726442
-12.96953
-27.27915
-38.67523
-45.35765
-47.51479
-46.62959
-43.2659
-38.88676
-37.43072
-41.33775
-43.55856
-39.61097
-37.92253
-40.8527
-43.22819
-45.53912
-47.42514
-46.44537
-42.69649
-38.30171
-33.16288
-27.95358
-23.74836
-21.05275
-20.13502
-20.79899
-22.42448
-24.75069
-26.52821
-28.3215
-29.98727
-31.10519
-31.82191
-32.03132
-35.28648
-40.42343
-37.23097
-32.4879
-29.4166
-24.77561
-14.87089
-3.004203
4.427708
5.676659
-1.821813
-11.60206
-20.63658
-41.23186
-85.11493
-132.8879
-130.8986
-69.71749
-43.03874
-66.51769
-86.63266
-92.52415
-88.79433
-88.28801
-92.7137
-96.90365
-99.56568
-100.7548
-101.0558
-100.3383
-98.719
-96.10722
-92.99697
-89.56935
-85.43434
-80.73012
-75.39999
-69.71024
-63.60219
-57.11505
-50.61801
-44.03534
-37.09744
-29.9967
-23.02345
-16.19733
-9.401477
-2.682858
3.803188
10.16678
16.22985
21.97814
27.30658
32.21411
36.66176
40.65416
44.15351
47.09078
49.4145
51.23823
52.43139
53.03362
53.11234
52.71138
51.52635
49.70486
47.31987
44.36012
40.85004
36.81066
32.30764
27.24857
21.80635
16.01297
9.718583
3.123149
-3.721474
-11.00312
-18.42716
-25.79484
-33.34377
-41.04443
-48.69959
-56.42633
-64.03399
-71.34842
-78.32497
-85.04104
-91.64684
-97.80644
-103.5231
-108.7336
-113.4625
-117.7914
-121.4115
-124.2564
-126.3857
-127.7754
-128.2998
-127.623
-125.5398
-121.9715
-117.5518
-115.3944
-121.0428
-132.8984
-131.3804
-108.9591
-79.33047
-52.36729
-69.65772
-152.1494
-178.1114
-138.2999
-85.9671
-57.55015
-46.78591
-40.20105
-29.93442
-14.87026
-3.202608
-2.573579
-5.755623
-13.1523
-27.45784
-38.74543
-45.43155
-47.535
-46.63094
-43.27258
-38.93138
-37.49902
-41.40891
-43.59592
-39.61826
-37.91543
-40.86728
-43.23796
-45.46473
-47.18634
-46.14975
-42.40836
-38.03018
-32.96534
-27.83454
-23.68959
-21.03169
-20.1327
-20.81217
-22.44124
-24.77104
-26.57302
-28.34356
-30.0033
-31.11755
-31.80796
-31.95017
-35.28164
-40.64527
-37.4432
-32.7204
-29.61529
-24.93025
-15.13218
-3.305681
4.618292
5.77427
-1.861878
-11.55143
-20.60008
-41.2688
-85.59597
-133.8852
-132.5361
-70.45967
-43.20535
-65.57283
-84.75543
-90.52208
-87.80144
-87.73468
-91.69266
-95.53218
-97.99318
-98.96379
-99.20132
-98.46024
-96.87084
-94.28792
-91.20441
-87.82503
-83.76265
-79.13619
-73.87993
-68.26384
-62.24066
-55.83976
-49.4221
-42.92936
-36.09314
-29.07146
-22.1787
-15.4397
-8.729582
-2.08534
4.318234
10.61108
16.60378
22.29205
27.56047
32.41242
36.81124
40.76216
44.22499
47.13654
49.43205
51.23959
52.42252
53.01857
53.09517
52.69449
51.51562
49.71471
47.35291
44.42087
40.94607
36.94839
32.49574
27.48369
22.10573
16.37617
10.14387
3.63115
-3.136425
-10.35035
-17.67774
-24.95374
-32.42143
-40.02516
-47.58426
-55.2202
-62.7343
-69.94624
-76.82149
-83.45971
-89.98775
-96.05556
-101.697
-106.8258
-111.4927
-115.7758
-119.3495
-122.1517
-124.2599
-125.6604
-126.2271
-125.6802
-123.8495
-120.5981
-116.7381
-114.9521
-120.1063
-130.6732
-128.5814
-107.6507
-78.71017
-51.91187
-70.72539
-154.8674
-179.6963
-138.9789
-85.93545
-57.33107
-46.67982
-40.26258
-30.11257
-15.1664
-3.435664
-2.512505
-5.945358
-13.6058
-27.79431
-38.87647
-45.51925
-47.57364
-46.61374
-43.27712
-39.00851
-37.60805
-41.48673
-43.65113
-39.67796
-37.97601
-40.8815
-43.2217
-45.36783
-46.94794
-45.83659
-42.21126
-37.84652
-32.83102
-27.77765
-23.68293
-21.05474
-20.16763
-20.85663
-22.48594
-24.80929
-26.64036
-28.39167
-30.03764
-31.14116
-31.80595
-31.85714
-35.30326
-40.91611
-37.77587
-33.0949
-29.94521
-25.22721
-15.4654
-3.633548
5.060346
6.184304
-1.729156
-11.4149
-20.6188
-41.45223
-86.22554
-134.9405
-134.056
-72.58967
-44.83916
-65.22047
-82.5492
-88.06535
-86.52654
-87.01885
-90.62386
-94.21809
-96.61804
-97.60515
-97.90728
-97.15206
-95.59387
-93.00684
-89.88044
-86.5576
-82.48505
-77.89287
-72.64846
-67.07853
-61.1187
-54.74079
-48.37212
-41.96259
-35.18964
-28.21519
-21.38535
-14.72855
-8.091383
-1.500903
4.822229
11.05847
16.9856
22.61378
27.81825
32.61878
36.96798
40.87501
44.29327
47.17622
49.44063
51.22929
52.40152
52.99073
53.06456
52.66105
51.48614
49.7151
47.38438
44.48389
41.04714
37.09133
32.69098
27.72412
22.41722
16.74704
10.56193
4.138373
-2.551922
-9.727121
-16.96973
-24.15525
-31.56449
-39.10123
-46.56886
-54.15498
-61.60967
-68.75771
-75.57597
-82.15382
-88.65119
-94.66025
-100.2795
-105.3733
-110.0131
-114.3179
-117.8449
-120.6551
-122.7767
-124.1871
-124.7527
-124.1193
-122.2856
-119.2272
-115.8003
-114.282
-118.4315
-126.6444
-124.0381
-105.1886
-78.39274
-52.53701
-73.57747
-157.7877
-181.5341
-140.032
-86.02501
-57.24024
-46.56169
-40.22585
-30.14613
-15.35957
-3.538982
-2.253033
-6.259382
-14.33056
-28.29772
-39.14149
-45.73053
-47.60784
-46.6008
-43.30327
-39.12549
-37.71604
-41.32165
-43.33008
-39.71413
-38.12176
-40.85421
-43.1939
-45.35519
-46.81888
-45.59364
-42.01078
-37.6781
-32.74717
-27.7718
-23.73978
-21.14589
-20.26563
-20.94968
-22.56966
-24.88369
-26.73923
-28.48559
-30.10564
-31.18374
-31.81981
-31.78885
-35.36318
-41.1969
-38.29402
-33.67967
-30.4491
-25.73796
-15.87402
-3.96773
5.695447
6.895025
-1.346644
-11.20799
-20.87809
-41.78801
-86.80176
-135.3542
-134.7118
-75.8559
-48.59234
-65.8224
-80.5143
-85.66383
-85.05989
-85.94915
-89.13543
-92.36822
-94.56392
-95.2738
-95.47695
-94.68897
-93.24683
-90.71531
-87.62521
-84.44519
-80.45781
-75.98661
-70.82838
-65.34477
-59.49147
-53.19246
-46.93379
-40.65233
-33.97253
-27.08336
-20.36537
-13.81268
-7.276943
-0.7630338
5.444991
11.60837
17.44253
22.97862
28.11267
32.86118
37.14786
40.99837
44.35501
47.21236
49.43754
51.19871
52.36172
52.9425
53.01183
52.6035
51.43566
49.69699
47.40831
44.54858
41.15847
37.2545
32.91129
27.99082
22.78695
17.20012
11.05317
4.736249
-1.816308
-8.933793
-16.07723
-23.12459
-30.42865
-37.87521
-45.22108
-52.70113
-60.04724
-67.08259
-73.77199
-80.24362
-86.66767
-92.54198
-98.07693
-103.0541
-107.6015
-111.8238
-115.2654
-117.9744
-119.9502
-121.3793
-122.0212
-121.6046
-120.0266
-117.3089
-114.4217
-113.2164
-116.4072
-122.5028
-119.5805
-103.0181
-79.07655
-55.64772
-78.65785
-160.1342
-182.9057
-140.8855
-86.49377
-57.36205
-46.4103
-39.99421
-29.83904
-15.18157
-3.209335
-1.631479
-6.596951
-15.33023
-29.02401
-39.61211
-46.15948
-47.83347
-46.64142
-43.37199
-39.25741
-37.76854
-40.79941
-42.40877
-39.47574
-38.26096
-40.71798
-43.22598
-45.47903
-46.73577
-45.35515
-41.90381
-37.62542
-32.76564
-27.79387
-23.89761
-21.35018
-20.45336
-21.0912
-22.68314
-25.04074
-26.89432
-28.65859
-30.2323
-31.25834
-31.86338
-31.79132
-35.46857
-41.49758
-38.99364
-34.54057
-31.25339
-26.45955
-16.39169
-4.33017
6.223299
7.723613
-0.9013721
-11.17787
-21.56101
-41.90879
-85.81873
-132.8113
-132.8167
-78.89949
-53.56806
-66.72955
-78.50122
-83.2984
-83.47442
-84.73988
-87.59438
-90.52734
-92.6704
-93.25181
-93.67713
-92.7164
-91.25603
-88.69125
-85.51245
-82.43811
-78.43183
-74.0737
-68.93557
-63.47079
-57.75109
-51.57503
-45.3811
-39.16402
-32.62728
-25.87335
-19.23739
-12.73309
-6.379364
0.06349235
6.131602
12.22368
17.92858
23.37366
28.49814
33.13694
37.32897
41.10183
44.39933
47.27868
49.41923
51.14625
52.29848
52.86516
52.92993
52.53171
51.38047
49.63238
47.377
44.57218
41.24609
37.43249
33.16647
28.2693
23.17557
17.7259
11.66379
5.389131
-1.054905
-8.003412
-15.06259
-22.01052
-29.18459
-36.45182
-43.75552
-51.1533
-58.3243
-65.28874
-71.83131
-78.20444
-84.59779
-90.33878
-95.85034
-100.716
-105.2452
-109.5255
-112.8891
-115.6326
-117.8238
-119.2532
-119.8554
-119.3399
-117.8575
-115.372
-112.941
-111.9236
-114.2253
-118.5274
-115.2576
-100.8219
-80.32605
-61.13028
-84.64979
-161.1237
-182.6722
-141.0174
-86.99156
-57.90223
-46.26384
-39.37131
-28.91279
-14.44845
-2.343482
-0.6449631
-6.887798
-16.61605
-30.08688
-40.37735
-46.85627
-48.19856
-46.77402
-43.4431
-39.3607
-37.73414
-40.02752
-41.21036
-38.9786
-38.24063
-40.47379
-43.38017
-45.69786
-46.67153
-45.17039
-42.00153
-37.82483
-32.94426
-28.00367
-24.2343
-21.6967
-20.72155
-21.2486
-22.84103
-25.30183
-27.16199
-28.96257
-30.466
-31.37366
-31.94119
-31.91133
-35.56221
-41.60563
-39.40624
-35.74668
-32.65001
-27.92792
-17.20854
-4.950274
6.214346
8.384415
-0.8880257
-11.38117
-22.36547
-41.13582
-81.42982
-123.1093
-124.4004
-80.10349
-58.24673
-67.27056
-76.37255
-80.77712
-81.50583
-83.03374
-85.48291
-87.98077
-90.14014
-90.17086
-90.40709
-89.64927
-88.32432
-86.00688
-82.59127
-79.72926
-75.85886
-71.68612
-66.51508
-61.13315
-55.78495
-49.77669
-43.33281
-37.30545
-31.1749
-24.58817
-17.77188
-11.40252
-5.461925
1.011555
6.857135
12.92212
18.38156
23.91795
29.03495
33.40821
37.47738
41.14584
44.42949
47.34758
49.33892
51.08161
52.20369
52.75133
52.8248
52.45315
51.27941
49.52442
47.26362
44.52652
41.27454
37.57074
33.49438
28.58234
23.56718
18.28421
12.54242
6.320426
-0.3765065
-7.013905
-13.70992
-20.79963
-27.89634
-34.69723
-41.84068
-49.54237
-56.23251
-63.20345
-69.56098
-75.74057
-82.13127
-87.59672
-93.15071
-97.74295
-102.1181
-106.4486
-109.6354
-112.2648
-114.1042
-115.576
-116.3867
-116.0257
-114.7963
-112.6227
-110.8195
-110.0623
-111.6245
-114.3539
-110.6929
-98.47448
-81.75983
-67.66551
-89.8842
-158.2928
-177.0867
-137.5698
-86.66894
-58.8104
-46.60401
-38.7046
-27.40197
-13.358
-1.118207
0.3697165
-7.300827
-18.18947
-31.54407
-41.45243
-48.05733
-49.05649
-46.96634
-43.35746
-39.42753
-37.49446
-38.96515
-39.67274
-38.15916
-37.90579
-40.18512
-43.64911
-45.9573
-46.64896
-45.10344
2.816861
2.205671
-33.03317
-14.98505
12.69618
-12.46419
2.618824
2.017075
11.62871
-0.3721579
0.06965024
2.476696
0.4157238
1.540547
1.076121
4.147665
-9.460076
-1.814312
1.494064
1.798408
-65.825
3.354502
3.435722
-0.5565314
2.132322
2.822009
2.225496
-0.1066608
-5.194362
2.295652
2.466386
-18.29665
-16.21008
3.104084
0.9838421
-3.470519
1.681572
0.5569688
-0.7601756
-4.621259
-21.1924
3.317872
2.055292
4.458578
33.62168
2.298873
-1.386038
3.214333
0.3475542
-0.1440986
-3.068044
4.142778
-4.877544
1.330991
0.1386656
22.96421
-3.346726
-3.064965
-11.61603
-18.77522
-0.01845782
0.006944191
-17.67251
2.406675
3.395355
3.549043
-28.37906
5.352102
3.017271
3.584419
0.5746916
-1.295142
8.862583
-26.36772
23.31319
1.972011
5.309829
-1.388984
3.407273
1.811651
-19.07763
0.2301026
4.477285
-6.142496
-9.894542
0.5998479
-9.560127
1.790981
-25.38149
-0.9663091
-15.85788
23.86493
1.131588
-0.5840751
1.405331
2.773131
-10.66531
6.981228
-39.93374
1.142459
2.270775
1.793093
-0.3368745
-89.80259
3.790251
-15.1474
-4.828845
1.578815
-2.341133
-5.425066
2.092461
2.024554
2.499948
8.566146
-19.46664
-0.04010722
0.1471287
3.01899
22.21004
1.62792
3.423626
0.9300483
0.7583727
2.308488
2.17796
2.850638
0.6614705
-27.34131
0.3336546
1.680266
0.5339755
1.310683
2.493077
0.7111337
3.607733
-32.99157
0.3869476
7.804299
2.30615
0.1689674
-31.6122
1.729669
-66.5693
2.328005
-0.266342
3.028771
1.533646
-42.67366
2.585774
0.6194648
-21.46507
-16.63462
-47.31441
3.224647
-1.208913
-40.97368
2.371982
-1.30959
1.922174
-33.38117
0.852656
-35.55871
1.40645
1.133752
2.224045
-34.27087
-21.52202
3.118004
-29.27964
-0.940013
2.265986
17.73625
2.562286
-32.43069
-4.594261
-23.64019
3.627706
1.756912
-53.09656
2.76436
16.93306
2.413891
3.009566
1.839603
4.755508
-47.01258
3.283137
1.606529
-2.022608
2.260365
0.9117758
2.125256
-7.950671
-0.4434496
-0.5108985
1.146894
3.357724
1.610695
-3.747738
-33.77611
1.65214
2.106769
2.559898
-23.58887
-0.2125737
0.7992339
-6.333559
3.121864
-7.945678
0.4602833
2.379719
-11.89457
-2.252216
-1.623189
-8.098742
-5.095493
-10.07721
1.856995
6.618242
1.553815
2.542323
-0.8399478
4.17809
-1.715223
-1.408079
0.2624203
2.964689
9.110789
-16.59372
19.84517
-1.930969
-25.46497
4.633095
2.517961
-80.32151
1.739603
26.97276
3.233158
3.6156
1.444968
0.6980586
2.293014
1.573693
-8.465857
2.003241
-43.26374
2.679261
-40.36873
0.02516685
1.771434
-33.24595
2.259292
1.787578
1.862107
4.23828
-26.73592
2.43151
0.7710511
-11.99625
-1.813898
-2.739443
0.1623574
2.020142
3.398372
0.9520271
3.578478
0.9505337
2.603487
3.23415
-25.88826
0.4105025
2.281243
13.81257
0.2737515
-5.800573
4.571835
2.885212
-24.0699
-37.19059
1.310712
2.945362
2.191999
3.092162
2.542144
2.714352
1.534951
37.60119
0.7763052
3.211198
3.518178
2.783522
6.197633
1.66377
2.80921
-35.95532
0.3185525
-10.33298
0.1750183
-0.1332018
1.313656
-43.54343
3.183672
-0.3307497
-31.06396
1.041658
4.323212
3.753644
2.546366
-22.99295
-7.498099
0.4461558
1.754242
3.194159
2.773114
1.032131
-11.81051
35.71868
-66.34619
-35.13563
-65.30769
0.6904569
2.231802
1.646921
1.87631
0.08434791
1.083692
2.532194
-1.798653
2.336438
4.943745
19.46332
-3.476461
-6.657791
-53.79411
2.931349
3.158814
3.064726
0.009066063
-3.04721
-12.20725
-43.59684
1.110423
2.108538
1.644113
-12.45828
5.549524
-10.4721
0.8108368
-10.13228
0.1689045
-7.160294
2.754447
14.53335
1.471243
0.7491633
-38.33267
-53.47372
-0.4263166
2.065853
3.113372
3.149798
4.183747
2.968763
3.467639
1.899938
3.297784
2.953767
1.099358
2.315237
2.622001
-1.937869
13.81593
-38.62044
2.368884
3.281227
2.415362
-1.128029
2.789361
-0.7996498
2.36989
3.023237
2.863036
5.472972
-10.79365
0.3315997
2.555346
3.041136
39.56336
3.358979
2.92855
-1.057845
1.218116
3.573302
-32.24024
1.939272
0.2136326
2.236905
-1.012979
2.598518
2.195949
3.279621
1.747133
-29.06601
3.528402
2.711866
-9.868008
-34.40337
-50.95864
3.224431
-0.2958077
2.218217
1.07593
1.627676
2.037066
3.189788
0.4358332
3.30853
-1.250353
1.060127
-35.45215
1.872748
2.228757
5.356736
3.085413
0.7752563
-26.17445
-0.0656038
2.443402
-31.67838
2.931506
9.973039
-6.499253
-17.39884
1.783423
0.266074
1.684704
4.777493
-4.568296
1.835028
1.811885
3.286838
4.443379
2.757215
2.057389
-3.456895
2.405643
-3.243312
1.081786
0.5726678
1.035631
2.036538
-23.37018
-0.8342768
-7.109338
2.677222
2.024272
-2.025015
5.973898
1.971226
-19.50159
0.7202471
-35.5725
1.480242
2.833706
0.923569
3.539029
27.8128
1.931545
4.91862
-0.4083112
-9.364289
0.6522912
2.213596
8.975992
3.329223
-6.857566
3.150397
-32.38814
-1.66473
1.303951
-6.801329
1.740104
2.619809
1.895338
1.937001
2.788202
1.135208
17.68194
0.3279141
2.926967
3.199362
-24.02819
0.2621084
0.2530515
-18.59607
2.265677
1.345498
5.144991
2.880678
4.953441
2.625233
1.904447
-0.2586245
-3.727699
3.487533
2.12652
1.966141
-1.427445
4.258214
2.406867
-24.05709
4.839292
15.67769
-0.7672689
2.387327
2.544792
0.6766749
3.420354
-2.927739
1.758092
2.327712
1.969093
-2.622845
2.762082
2.507013
1.405961
1.202426
3.229104
0.1558343
-2.495142
-26.40689
0.009478948
-25.42509
0.3032018
5.356795
5.673965
4.622845
0.01687928
2.856012
1.130212
5.735597
2.543099
1.715573
-0.2814873
-45.58373
3.866765
5.026586
2.819327
-2.268689
9.11544
2.530791
7.608169
-4.093002
-2.049569
-8.215912
1.882505
2.079921
-2.911308
17.13899
-3.79318
-0.3420439
-20.589
-1.152773
-3.555665
0.3076632
1.065246
2.296849
8.773711
32.01977
4.069642
2.319879
6.195296
4.836485
-62.37937
2.111161
4.076619
2.354178
4.05332
2.790294
3.25801
-0.5673249
3.231702
7.101755
2.78123
-6.470215
-22.35983
-0.3912763
-4.363506
-82.1999
-2.852007
0.6113382
-18.25026
1.32709
0.3560322
1.839803
0.07551457
2.306135
-50.30944
-1.766605
2.423356
2.31022
4.721903
-0.4739851
2.786997
-0.3912386
-15.25257
-6.380678
1.822699
-18.13194
3.332309
5.94734
3.467604
-40.38654
-0.05602062
9.983373
-7.405148
0.8081241
1.423055
-2.405167
5.250376
3.362169
3.031443
2.110848
-2.591863
2.419666
19.17135
3.832805
1.456399
3.072639
-1.14037
1.919509
-15.43189
-14.03258
-1.221096
-40.03606
-7.635417
-8.697998
1.976945
0.6955213
1.690467
2.210122
2.388912
-1.963918
-1.469948
3.256388
2.105187
2.675201
-28.10017
3.234455
26.81044
5.453754
-29.03588
0.7164001
3.664101
8.270764
-1.655808
-20.80222
3.482952
2.629403
-14.76216
1.569099
2.03712
1.727038
0.4446664
3.341505
0.2483787
-5.88278
3.551675
2.379845
-1.295967
1.512837
1.488109
-88.02194
3.387159
1.982308
5.670954
-24.87974
1.423209
1.359485
7.416363
15.2868
11.4909
3.336739
3.269667
1.338197
1.97501
2.627212
-1.568067
4.020596
2.560611
-18.97054
-0.5736079
-41.81144
3.259707
3.017243
2.840112
-36.40939
3.103724
2.006738
1.54341
3.773639
-9.553282
1.16838
-1.987143
5.310967
-23.61254
3.141622
2.191892
-18.2371
0.7482848
2.271217
1.818929
2.757866
1.213436
-1.225663
0.9614852
2.613765
-46.18132
2.984186
-6.74758
0.1236781
0.3525703
1.189147
2.091411
3.256539
1.956632
1.837141
-26.18906
1.748349
1.91039
2.175181
2.070766
2.364852
2.124825
3.011997
2.630758
3.474272
5.232021
-36.98458
2.112833
5.486882
-20.28792
-0.03887448
1.665806
3.995579
3.499132
-52.28607
3.8776
9.02506
9.897894
1.124403
-9.709408
-5.173145
0.3724667
0.3221913
-57.1298
-0.8681447
-7.234879
-13.80566
-4.72824
-3.212849
0.9091341
3.302227
14.19144
2.773952
0.06084972
-36.68947
2.07318
2.24056
2.132689
-9.165265
24.21617
1.867557
-3.978707
3.593468
2.17256
2.598243
-0.2259202
-0.8910301
2.822917
0.6128503
-0.04209971
0.3307765
1.233786
5.896182
2.354964
-2.692947
2.82314
2.431914
1.25403
0.3702148
13.36601
32.18725
2.797969
0.05032848
0.9967796
2.249012
-1.162531
2.565705
-54.05847
1.306385
-37.58491
-4.726571
0.4305674
2.834135
0.9661761
-2.990512
1.898124
-3.820462
1.827716
0.2892968
-4.623189
-48.00598
2.643871
0.1300032
1.415863
2.458658
0.1947288
3.564548
-2.985439
-2.087539
16.80727
2.551034
1.785254
0.7380983
0.9496034
3.2331
1.360333
2.130996
1.702018
-0.9132249
1.907964
9.686174
-34.66627
3.0265
-1.489353
-6.025836
2.51906
1.907865
2.567415
0.5146756
1.409622
3.107273
4.399651
3.131108
3.765528
4.930326
0.3994646
3.956453
31.89202
2.008358
-0.9130436
0.8140301
-57.52064
2.800446
1.864551
2.294439
2.204375
34.06723
0.5168106
2.646241
-1.178433
1.386125
2.560035
2.398117
1.837904
1.816568
-17.37626
-15.10848
2.035981
0.1725879
-30.73906
-0.07170093
-0.4104404
0.3690391
-11.10396
6.438325
31.02335
1.833858
2.165935
0.6714383
1.728613
1.648009
12.00181
-0.3766525
2.089126
-1.360437
0.5296178
2.058722
-3.248823
3.461482
-4.245432
-4.012208
-22.60727
4.382769
-7.523444
-7.94122
-11.11466
3.325379
6.134231
-6.380605
-0.7231995
3.071349
10.38464
-21.00439
7.163458
1.250066
1.358747
-7.613396
29.12179
-2.611169
4.865797
-1.098638
-33.13915
6.801294
0.02600411
4.839991
2.021763
1.404739
-24.00092
-1.09016
3.231732
2.152165
2.877639
0.1844847
-27.95396
-16.21695
-43.95369
4.242275
-44.62788
-0.2269809
0.4892236
-13.87216
1.664336
-0.1853853
-32.86184
0.688395
2.270578
-22.15091
3.192443
-1.030454
-31.93591
-37.75672
3.976759
18.27646
1.868085
-4.140337
-17.91331
18.38035
-34.71335
0.3219303
0.9019988
3.834295
1.908184
-2.457578
1.088586
2.872395
2.019657
1.504045
-65.97069
-77.9345
2.206158
-0.5564061
3.987128
-0.6177553
2.054796
4.133116
1.858409
0.8628044
2.316971
2.237918
0.5367617
5.100439
1.819328
-14.57959
2.037144
0.6396233
-31.49402
2.678223
1.859899
0.3855789
-30.0636
-0.5761147
-1.563642
3.947983
-8.85651
-30.98981
36.06804
49.1837
2.94047
1.999315
-2.511285
7.486336
2.665912
0.1620191
12.09942
-34.96108
2.827011
2.522896
0.4036887
3.564498
1.988603
4.775925
-0.6187667
-18.44177
-58.97466
-13.6156
3.111388
2.356307
3.244564
3.342925
-70.33557
1.643259
1.994579
0.8296596
1.77806
3.066404
3.0645
-29.54199
-18.03405
2.708374
2.759999
3.286478
2.915608
3.213751
2.849502
0.1669256
-19.08469
1.757206
-67.92369
-31.03122
1.106917
0.6009304
-38.36451
-71.48962
2.22986
1.124056
3.475398
1.744561
1.752881
-3.085925
-5.343647
2.200168
2.515406
-24.18093
0.8056023
-0.5121979
1.432169
3.210356
1.975528
0.9294849
0.6112113
1.869131
1.334115
1.464908
2.152269
-2.399136
1.864537
-15.06133
5.117424
-0.03597863
2.98938
0.8466334
0.1819471
4.220965
-24.4469
-16.50734
4.848885
2.269714
0.1291524
3.235916
-30.34439
-11.60653
4.77144
-33.11133
24.70816
3.115499
4.205323
1.929436
-21.79705
0.3943041
4.765287
-41.18679
-4.795428
1.843346
-1.361108
-1.423892
7.530028
1.956731
3.014161
28.33183
3.380213
-30.95434
2.913224
2.545331
36.56932
-11.81798
-6.452223
2.063227
3.512529
3.594319
9.377419
2.548082
8.713047
1.287899
3.162637
-4.528258
2.958516
-1.538723
1.982918
-15.22886
2.325896
-70.81892
9.575618
3.357287
17.928
2.701732
30.82933
3.915564
-15.18457
3.980092
1.35036
15.66303
-10.58489
-59.40863
2.898258
3.734744
1.557729
1.566696
3.787033
-6.335465
3.059262
-0.09543578
-26.21727
-13.04302
18.42698
-68.91471
3.215568
-28.43247
-11.61246
-0.8420684
-27.1811
39.48425
1.014626
2.663685
-40.43289
3.217863
-4.408592
0.8052602
0.6282212
-14.86005
-83.88325
-2.524839
1.948611
1.993273
0.3290156
1.873543
3.27574
3.114388
9.172679
4.82989
2.759885
0.2509701
1.798997
2.430959
-4.073082
3.181629
2.354943
2.223004
-39.29963
0.1121822
3.676884
1.428557
-0.06869426
-26.3043
3.010383
-2.288435
3.059223
0.0219724
3.681663
3.461843
1.796689
2.725437
-75.32515
25.95065
-1.29948
-1.517335
4.808168
-0.4415986
0.7992102
0.941359
-3.654279
0.6152289
3.433248
-5.752668
1.848073
-15.49533
-0.3086428
-26.29159
1.79063
0.3245619
0.1024253
0.6581179
-1.461456
-5.993858
-22.80823
-2.029857
-1.67348
2.871832
0.416029
-0.4647305
0.7406414
-30.82053
2.882886
1.740041
2.993182
-4.664991
1.74892
3.923087
3.852087
-47.11128
4.39239
-0.7748677
2.916682
-58.88375
3.005139
-35.87422
2.640818
2.97056
1.147043
0.8719954
4.144473
-33.08654
-27.75344
0.8090114
2.034701
-4.842176
3.12561
4.321776
3.832593
3.105273
1.795785
3.483304
2.043898
-43.02534
-5.172299
0.9671215
0.6828745
0.4335375
-0.00609723
1.64602
2.854667
0.9268607
-6.855549
0.594113
0.6315241
9.602214
0.4214775
-13.07753
2.004251
3.210736
-0.4206702
-19.53461
1.953436
1.428844
0.1721118
-18.3302
-71.33719
-54.36449
2.869827
-24.40811
2.749263
-5.405786
-2.045184
2.033911
17.73787
-0.1365233
-73.30619
-76.09408
-15.26061
-16.66211
-0.8463388
-16.00024
-16.17034
-15.65461
4.278664
1.380354
-5.136555
-15.27857
0.9126676
2.830251
1.017788
2.939556
0.01377017
0.874051
0.3913923
2.723814
1.700123
-18.71861
1.735746
3.889969
2.256365
4.339091
-31.15379
3.621545
-0.5676202
3.13664
3.13667
2.105741
-23.39874
-1.259464
2.807972
0.3624888
5.255964
13.43637
-58.80236
-12.80563
0.5925253
0.8685124
21.04107
-1.694889
1.778857
2.468947
0.6382629
2.646573
-37.7242
-31.98774
-19.78351
11.84489
9.007671
4.656004
-58.8614
-48.60618
-74.3409
3.644089
-1.770855
1.302999
2.092668
0.09893451
7.139865
2.576587
2.631162
2.434758
2.835623
2.495237
2.080315
-27.95596
1.760218
2.554877
0.788853
-44.89004
21.15264
0.1682379
-24.79684
-36.95044
-6.777838
7.453163
-3.48544
-3.672033
-12.97971
-68.22821
1.195881
-39.84385
2.298591
-45.04393
-16.60481
-2.354938
2.162647
-12.62359
0.9824314
15.71502
1.444385
-1.558381
3.895114
2.752897
3.116698
-16.11466
1.351184
2.054945
0.8312103
-43.07251
0.06806626
1.041627
3.948666
2.135794
2.521258
-19.08469
2.369432
-36.17888
1.739443
3.178649
23.29909
6.214686
2.170968
-30.64404
1.18146
-36.79732
3.892074
-2.471087
2.423285
2.184654
-40.84804
2.164668
2.6443
-0.099644
0.6365523
2.749786
3.958796
23.85648
3.276272
-12.34645
4.509816
-10.73822
2.59644
-81.59472
2.626172
2.425856
4.635647
3.47144
-5.120576
-57.34543
-64.41362
-46.88626
0.2939789
1.930475
-24.67207
2.948527
-7.626032
0.8437783
2.170213
-2.301576
-37.5753
-6.041771
-54.8699
1.432503
0.9470183
1.082886
-26.54642
10.79582
1.395146
1.830969
1.346823
3.309754
0.1645337
16.35968
1.620129
-26.28979
1.812549
3.496918
0.09967164
-0.2341201
-2.1987
0.3824321
3.228866
-8.273623
2.918683
4.31775
15.51135
2.715183
-0.5335169
-4.680016
-3.408769
2.248984
2.008091
-0.1972408
0.06941985
0.03517284
-73.65932
28.05131
-3.270797
-25.93753
-13.70454
-32.5487
3.108932
2.957407
4.290955
1.29371
0.4072939
1.760969
2.340837
-29.65505
0.3548184
22.52607
36.84045
2.638301
-1.139176
-0.4854699
2.59035
2.134574
-1.038086
34.94128
-61.95546
3.72774
5.144984
2.747089
-5.172211
3.045451
3.137779
4.044903
1.587494
2.486667
23.68705
1.447664
3.097312
3.14599
-8.836127
-13.19418
-1.789838
0.4166211
-80.28065
28.81759
-4.08567
1.164239
-5.350084
-0.9102684
1.840931
3.691408
33.61177
-8.563333
2.42313
-9.393833
1.876885
0.1803875
-19.68047
1.392099
-1.332921
1.566706
2.020649
20.88828
-1.482944
-10.76668
3.997743
-3.126655
-8.617969
20.7006
4.265559
7.142432
-42.09809
-32.80071
2.834445
0.3504779
-42.69185
3.016253
-41.62813
2.599697
-9.88577
1.378509
2.132035
-7.103145
-14.96836
1.821267
1.626211
-2.112938
0.1543459
1.892197
0.8264443
-61.90016
-18.07151
0.4323428
4.803014
0.08651197
3.93796
2.275343
-3.059706
0.7552348
0.7031942
-33.32801
-4.866451
-1.331591
-0.8009215
-12.84364
3.279387
3.385654
-10.3887
4.764571
4.98161
2.737172
37.18486
3.472496
2.128845
2.250347
2.34764
-14.17714
-19.29299
-31.52029
15.77565
2.284169
2.282083
1.14224
1.450029
0.2886125
1.776312
0.4157027
0.7228779
1.328647
1.362694
-0.4904333
2.492306
13.44535
9.233764
-4.143935
3.233784
-0.7110372
-0.3118078
3.187129
-2.282251
11.62805
-47.82885
-55.77303
2.322696
2.860742
-78.27985
44.26798
-92.57873
3.27046
2.420879
5.857232
-3.954626
10.79791
-23.76022
-0.1747533
5.330591
0.9822409
3.82291
2.03019
-2.544363
0.6098522
-27.63843
3.725041
-4.762386
-0.1095044
1.605839
-19.42486
-44.17868
-7.542825
2.599764
16.82938
3.323801
2.740553
2.892459
1.384132
-29.87074
1.854041
4.59366
33.34828
2.585859
1.910349
2.669308
28.45657
7.153027
1.221947
4.199573
2.855241
1.979086
2.25577
-66.02831
1.178443
-70.96053
0.7317033
1.649716
46.79141
1.980764
2.360708
2.899155
4.144696
-5.777689
2.536971
4.289385
43.62469
3.401149
-0.7993197
47.31989
3.335953
3.604259
5.593401
-22.27992
2.371494
0.3470134
-3.52499
1.62804
-7.956467
-27.58176
2.491534
2.48394
-3.118514
1.416453
19.63684
2.734928
1.380412
2.052242
1.533576
0.6075002
0.9821561
0.9867314
2.20574
2.69054
1.510572
-20.04979
-46.13136
-26.64833
-22.26446
16.1126
-0.002455251
3.640628
1.454351
1.847867
5.148997
-47.24066
-1.967698
28.67332
-20.05549
2.192373
-3.171079
1.548032
1.501083
-1.826148
-16.7275
3.268867
-67.06318
3.274256
0.4439559
1.588299
2.217977
2.488963
-18.11166
1.751321
2.332287
2.051716
2.44684
4.097356
-4.55615
1.234439
1.395905
2.05648
-31.99332
-11.88635
2.137374
-20.77243
2.116522
-7.242151
3.337276
-0.8175797
0.8997044
4.611025
2.273199
9.944207
18.10548
-0.4734263
0.08755454
1.375909
10.14463
-76.31398
-75.10881
2.735464
-6.843931
-0.392579
-38.30442
13.08571
2.176956
-2.375703
2.169702
3.241578
2.829305
-6.943528
3.254938
-1.047516
1.589378
29.9749
3.346783
-6.564805
3.307698
2.95661
2.737345
-43.39563
3.351369
3.839092
-9.343539
-8.993644
3.206783
-13.18446
-4.910957
6.903406
9.906052
1.457783
-34.53273
2.39658
39.44672
3.443414
8.764232
1.982119
-9.975025
2.962334
3.032034