/*--------------------------------*- C++ -*----------------------------------*\
| =========                 |                                                 |
| \\      /  F ield         | OpenFOAM: The Open Source CFD Toolbox           |
|  \\    /   O peration     | Version:  2406                                  |
|   \\  /    A nd           | Website:  www.openfoam.com                      |
|    \\/     M anipulation  |                                                 |
\*---------------------------------------------------------------------------*/
FoamFile
{
    version     2.0;
    format      ascii;
    arch        "LSB;label=32;scalar=64";
    class       volVectorField;
    location    "2.32";
    object      U;
}
// * * * * * * * * * * * * * * * * * * * * * * * * * * * * * * * * * * * * * //

dimensions      [0 1 -1 0 0 0 0];

internalField   nonuniform List<vector> 
15536
(
(0.3805477 -6.449004 -8.476466e-22)
(0.7783397 -8.395854 -6.096304e-19)
(0.9555118 -8.013192 -1.055487e-18)
(1.004906 -6.552235 -8.954785e-19)
(1.017968 -5.276375 -1.248331e-20)
(0.9446404 -4.06873 8.400274e-21)
(0.8001448 -2.945289 1.100997e-20)
(0.6255091 -1.996184 -1.118901e-20)
(0.4399326 -1.240679 3.201793e-18)
(0.2564371 -0.6447778 3.589345e-18)
(0.01224561 -0.06756658 0)
(-0.2151329 0.4236522 0)
(-0.1827146 0.3569364 -3.503015e-20)
(-0.09999092 0.1955676 9.190268e-18)
(0.04843027 -0.06394939 4.639286e-18)
(-0.355305 0.386249 -9.29525e-18)
(-0.8595258 1.11623 5.121273e-18)
(1.371185 -1.390257 4.24876e-20)
(1.710101 -1.889002 -8.052447e-20)
(0.07404084 -0.2275248 3.820997e-20)
(-1.140064 0.9988299 0)
(-1.818901 1.623522 3.480138e-18)
(-1.252465 1.190125 0)
(1.391548 -0.8230618 3.942651e-19)
(3.626582 -2.363104 8.224847e-22)
(2.097148 -1.418802 2.237665e-21)
(-0.7051016 0.2487345 -2.291156e-21)
(-2.450357 1.183629 -1.590056e-18)
(-3.941912 1.771634 -2.775579e-18)
(-6.193809 2.497112 0)
(-9.089442 3.335975 -5.034098e-20)
(-11.4765 3.981422 -7.731209e-18)
(-8.000411 2.855314 7.709942e-18)
(1.364354 -0.02677393 0)
(4.489791 -1.162834 -3.012679e-18)
(-1.838512 -0.02241437 -2.075766e-20)
(-3.019569 0.2360076 3.036754e-18)
(-3.896375 0.1962513 -1.617066e-18)
(-0.141252 0.05575388 1.463642e-21)
(6.378015 0.3825003 -3.527818e-19)
(10.22509 0.9412098 1.411394e-18)
(12.23035 1.55273 -2.288043e-20)
(13.25333 2.196683 2.252612e-20)
(13.82169 2.867843 0)
(14.12518 3.530691 -5.774575e-18)
(14.24197 4.16686 -5.747269e-18)
(14.18409 4.764933 0)
(14.01081 5.328694 -1.097222e-17)
(13.7469 5.858238 1.069265e-17)
(13.43836 6.364873 1.030994e-17)
(13.07297 6.831649 3.743298e-20)
(12.64643 7.254609 -9.308882e-18)
(12.16701 7.628801 0)
(11.64401 7.955875 0)
(11.08686 8.232292 7.408932e-18)
(10.49385 8.449951 6.742197e-18)
(9.883116 8.619521 4.405536e-20)
(9.261257 8.739297 5.184757e-18)
(8.615879 8.791133 8.928505e-18)
(7.959734 8.783139 3.684645e-18)
(7.300981 8.718368 2.845619e-18)
(6.65291 8.605877 -1.942254e-20)
(6.012674 8.436239 0)
(5.378087 8.203043 4.34892e-19)
(4.762169 7.922576 0)
(4.162334 7.581141 1.202217e-18)
(3.586737 7.185079 -3.005967e-20)
(3.045334 6.74465 -2.79614e-21)
(2.53774 6.25753 1.213623e-20)
(2.068426 5.728137 -4.152754e-18)
(1.642962 5.164458 -1.982099e-20)
(1.262111 4.5638 2.721998e-18)
(0.9275577 3.927569 2.98108e-18)
(0.6446398 3.270675 0)
(0.4131435 2.599106 0)
(0.2366832 1.909511 3.581718e-18)
(0.1120842 1.213456 -1.79248e-22)
(0.04256811 0.5428435 9.679568e-19)
(0.02428007 -0.1100815 1.777023e-21)
(0.06011569 -0.8443102 -7.329978e-21)
(0.1442198 -1.623813 -1.811174e-18)
(0.2876085 -2.378674 0)
(0.4874205 -3.099265 3.238193e-18)
(0.7399466 -3.788292 0)
(1.043571 -4.446281 -2.709694e-18)
(1.396114 -5.072732 2.380357e-18)
(1.796746 -5.666934 1.750371e-20)
(2.242215 -6.227941 3.468585e-18)
(2.729519 -6.746895 9.136499e-21)
(3.254385 -7.221749 -1.976868e-18)
(3.814167 -7.654159 -1.157985e-18)
(4.406288 -8.038171 5.489138e-21)
(5.029016 -8.376199 5.690211e-19)
(5.672297 -8.664687 -1.453358e-18)
(6.332131 -8.898529 2.169402e-20)
(6.997769 -9.064394 7.004191e-21)
(7.674501 -9.177233 -4.090139e-18)
(8.358038 -9.237228 0)
(9.039648 -9.236209 1.154259e-17)
(9.722106 -9.18527 6.549737e-18)
(10.38563 -9.070131 1.146291e-19)
(11.02668 -8.893336 -8.298716e-18)
(11.64142 -8.65809 0)
(12.22901 -8.36848 0)
(12.78869 -8.032812 0)
(13.31183 -7.648961 0)
(13.78865 -7.217986 1.170652e-17)
(14.21623 -6.743751 1.236044e-17)
(14.59544 -6.230976 2.89811e-20)
(14.92141 -5.6872 -1.329812e-17)
(15.17563 -5.108404 -6.796847e-18)
(15.35982 -4.503751 -7.034809e-18)
(15.41784 -3.867521 5.508205e-20)
(15.32469 -3.203651 7.205914e-18)
(15.06563 -2.523582 3.718653e-18)
(14.59507 -1.839668 -2.876463e-20)
(13.76678 -1.180713 -7.018164e-21)
(12.20589 -0.6063053 4.600592e-19)
(8.989066 -0.15577 -8.961863e-19)
(3.292302 0.05820924 -2.282913e-20)
(-2.57334 -0.3177118 1.591951e-20)
(-4.993993 -1.036738 4.398593e-18)
(-6.124629 -1.338206 3.424577e-20)
(-4.335665 -0.8386092 0)
(-1.571934 -0.045845 -5.278234e-18)
(5.404879 2.133797 -3.499218e-18)
(5.008793 1.604388 -7.406717e-21)
(-6.112988 -3.240568 1.810717e-17)
(-11.64437 -5.821924 -2.041378e-17)
(-10.38088 -5.405046 0)
(-7.888772 -4.443822 0)
(-5.750577 -3.581807 -7.391903e-18)
(-4.629945 -3.170071 0)
(-3.848082 -2.845628 3.652377e-20)
(-2.743382 -2.11722 -4.090559e-18)
(-0.9697835 -0.6829564 -2.018211e-18)
(1.532652 1.525395 2.998335e-21)
(3.312742 3.279224 -7.066176e-19)
(2.82148 2.946338 -1.444625e-20)
(0.7882738 0.7110202 3.630469e-18)
(-0.9595024 -1.514639 3.809172e-18)
(-1.738555 -2.617427 5.328777e-18)
(-1.853218 -2.916692 6.231333e-18)
(-1.609421 -2.719628 0)
(-1.223995 -2.214428 -2.469686e-20)
(-0.7924939 -1.511094 -6.092749e-18)
(-0.2770735 -0.4360597 0)
(0.3392121 1.091068 5.282589e-18)
(1.118635 3.077898 -4.423108e-20)
(1.002306 2.741292 2.286398e-20)
(0.2433489 0.7524628 2.838868e-18)
(0.04553014 0.2546873 6.123963e-22)
(0.02492886 -0.1160194 0)
(-0.0426255 -0.66329 1.556677e-18)
(-0.1034398 -1.02606 1.245451e-20)
(-0.171005 -1.758744 3.219231e-21)
(-0.03874224 -3.528083 -3.472691e-21)
(0.4056957 -10.44197 -2.665487e-19)
(0.471868 -9.477625 4.891649e-19)
(0.5471686 -7.890081 0)
(0.7175117 -6.748542 7.27066e-19)
(0.7896685 -5.482794 0)
(0.7464695 -4.19218 2.310747e-18)
(0.6384768 -3.031962 8.960734e-21)
(0.5008149 -2.060022 -9.135908e-21)
(0.3349484 -1.263025 -2.624696e-18)
(0.1605747 -0.6011941 -2.957005e-18)
(-0.1217334 0.07062257 0)
(-0.312908 0.5595957 2.74481e-20)
(-0.2707391 0.5330962 1.317211e-21)
(-0.2177516 0.4069904 -3.76912e-18)
(-0.0968147 0.1096682 -7.754593e-18)
(-0.4743751 0.5021881 3.829695e-18)
(0.1922535 0.03387909 -4.035269e-18)
(2.115115 -2.111027 -3.305489e-20)
(1.246841 -1.58393 0)
(-0.1647686 -0.239884 0)
(-1.333063 1.009839 0)
(-1.931546 1.62414 2.868102e-18)
(-1.974851 1.851402 7.710596e-21)
(0.5732668 0.06484396 -7.43981e-21)
(4.101831 -2.691833 -4.443387e-21)
(1.882516 -1.634069 4.291315e-21)
(-0.3181872 -0.2250069 0)
(-1.545113 0.5660177 0)
(-2.650312 0.9421478 4.609352e-18)
(-4.469687 1.380335 5.11199e-20)
(-7.237072 2.16078 -4.83142e-20)
(-9.012034 2.822413 6.669603e-18)
(-9.987505 3.607924 5.898015e-18)
(-2.524267 1.385851 -2.169633e-20)
(2.735907 -0.7238415 -2.534605e-18)
(1.719526 -0.6829152 1.892512e-18)
(2.493301 -0.3956938 2.9192e-21)
(4.96338 -0.08567921 1.175865e-18)
(10.57208 0.326345 0)
(15.91524 0.6961051 2.375165e-19)
(17.52032 1.035076 2.017299e-18)
(17.88911 1.507959 2.157767e-18)
(17.92975 2.10372 2.22482e-18)
(17.82852 2.75357 -7.001446e-20)
(17.644 3.410371 4.605644e-18)
(17.39529 4.065176 -3.517695e-20)
(17.09648 4.712866 0)
(16.74654 5.336344 8.734218e-18)
(16.34465 5.937245 0)
(15.89459 6.505986 -6.191147e-20)
(15.39352 7.030897 6.206383e-20)
(14.83752 7.508713 7.426447e-18)
(14.23422 7.933068 -5.192421e-20)
(13.59067 8.303858 6.454586e-18)
(12.91502 8.616668 -5.956147e-18)
(12.21047 8.869088 0)
(11.48731 9.069455 3.474725e-20)
(10.7525 9.213244 -4.251716e-18)
(10.00188 9.287686 -7.096933e-18)
(9.240259 9.29442 0)
(8.479937 9.24355 -2.284157e-18)
(7.729949 9.136487 -9.98056e-21)
(6.99111 8.965901 9.462549e-19)
(6.264574 8.730917 -1.975061e-22)
(5.556763 8.43763 1.999138e-22)
(4.872423 8.082544 -9.752661e-19)
(4.214863 7.669516 1.614809e-18)
(3.594634 7.203513 0)
(3.012843 6.689825 0)
(2.474503 6.132235 -1.806644e-20)
(1.983895 5.532451 0)
(1.543988 4.892023 0)
(1.156709 4.214433 0)
(0.826944 3.510938 -2.657132e-18)
(0.5533387 2.792373 2.131154e-20)
(0.3462942 2.052552 1.189943e-20)
(0.1956318 1.306656 -5.825971e-21)
(0.108659 0.5830351 -7.949581e-19)
(0.08672075 -0.1256388 3.195698e-21)
(0.1393712 -0.9123226 -7.788161e-19)
(0.2403874 -1.743061 1.474626e-18)
(0.4118735 -2.54807 1.120673e-20)
(0.6480173 -3.316888 -2.623405e-18)
(0.9434559 -4.053631 -3.823971e-20)
(1.297411 -4.758759 2.243282e-18)
(1.7061 -5.427145 -1.980081e-18)
(2.170048 -6.059346 0)
(2.68196 -6.655536 -5.662805e-18)
(3.240437 -7.201719 -1.511883e-20)
(3.842608 -7.701176 1.602911e-18)
(4.482801 -8.157432 9.451257e-19)
(5.15861 -8.557387 0)
(5.868477 -8.903916 0)
(6.603309 -9.20172 0)
(7.356554 -9.433378 1.700434e-20)
(8.122858 -9.595425 -1.688409e-20)
(8.90171 -9.698937 3.208856e-18)
(9.687779 -9.742278 5.664205e-21)
(10.47708 -9.721584 -4.665745e-18)
(11.26401 -9.641764 -7.836895e-20)
(12.03826 -9.498045 1.190643e-17)
(12.79175 -9.287575 6.592129e-18)
(13.52014 -9.01327 -5.354394e-20)
(14.22621 -8.681687 7.648907e-18)
(14.9053 -8.297451 6.239521e-20)
(15.54924 -7.856277 -7.071665e-20)
(16.15071 -7.363751 7.03979e-20)
(16.7062 -6.822406 7.740095e-20)
(17.21587 -6.238778 1.016425e-17)
(17.67531 -5.617488 -8.011231e-20)
(18.07261 -4.960537 0)
(18.40549 -4.271765 0)
(18.70587 -3.567106 0)
(18.95885 -2.856638 0)
(19.14612 -2.145976 2.195157e-20)
(19.25084 -1.441317 -2.188003e-20)
(19.24816 -0.7630585 1.355147e-18)
(19.0597 -0.2077046 5.189371e-21)
(18.16641 0.1414939 0)
(14.39984 0.2924763 -1.255761e-18)
(6.893712 0.2093614 2.910535e-18)
(-0.3671685 -0.09005657 -3.659581e-18)
(-0.8327201 0.06703318 5.688009e-20)
(1.736701 0.7696188 -6.231247e-18)
(2.388037 1.206115 3.880498e-20)
(5.264863 2.140581 0)
(2.26258 -0.008998824 6.635227e-18)
(-9.347739 -5.046279 -2.62858e-17)
(-10.41123 -4.952777 -1.670382e-17)
(-9.104595 -4.208417 -3.386596e-20)
(-6.821606 -3.323414 -1.423394e-19)
(-5.012167 -2.756264 5.933813e-20)
(-3.959627 -2.480374 0)
(-3.239611 -2.212028 4.477754e-18)
(-2.283646 -1.523736 3.306162e-18)
(-0.8185334 -0.1780051 1.1521e-20)
(1.475057 1.968228 -3.254053e-19)
(3.973083 4.21272 5.662269e-19)
(3.741269 3.75995 6.161908e-19)
(0.283204 -0.256205 8.399764e-21)
(-1.471542 -2.281517 -2.991898e-18)
(-1.877902 -2.70805 -2.907047e-20)
(-1.947179 -2.923209 -5.159989e-18)
(-1.825618 -2.890601 4.158269e-20)
(-1.565977 -2.645861 -2.004623e-21)
(-1.231971 -2.222279 -4.079041e-20)
(-0.8613109 -1.489714 0)
(-0.4148009 -0.2893763 0)
(0.3858466 1.518781 -4.754021e-18)
(1.13293 3.168163 0)
(0.7061985 1.975662 -4.544599e-18)
(-0.08021493 -0.744182 2.253288e-18)
(-0.1734707 -1.21492 -1.94664e-20)
(-0.1982559 -1.603676 1.90206e-20)
(-0.249762 -3.435232 1.263214e-18)
(-0.1404694 -6.915416 -6.228508e-19)
(0.1630675 -9.57996 -2.80031e-19)
(0.3597181 -9.99567 2.184479e-19)
(0.4606646 -8.616888 -4.034623e-19)
(0.5648308 -7.582185 1.001939e-20)
(0.6495499 -6.37647 -6.072981e-19)
(0.6588567 -5.067102 0)
(0.5900222 -3.805508 -1.89354e-18)
(0.4743351 -2.673788 -1.473094e-20)
(0.3405107 -1.736158 9.938215e-19)
(0.1736481 -0.9788342 2.163323e-18)
(0.005942376 -0.3636556 2.440146e-18)
(-0.3135572 0.34281 2.627724e-18)
(-0.4500086 0.7881464 -2.117134e-20)
(-0.3865453 0.7828694 0)
(-0.2992173 0.597459 0)
(-0.1209149 0.1907431 3.143518e-18)
(-0.2437414 0.2848611 3.201924e-18)
(1.154112 -0.9347307 3.286274e-18)
(2.147747 -2.029556 5.430799e-20)
(0.7437207 -1.286441 0)
(-0.5131544 -0.1638308 2.983017e-18)
(-1.53913 1.02291 2.730698e-18)
(-1.993571 1.680857 -2.364253e-18)
(-1.738997 1.832683 0)
(-0.5077176 1.237575 2.725251e-19)
(3.013539 -1.79896 0)
(1.333759 -1.541383 5.048879e-19)
(0.4798341 -0.8192826 0)
(0.05560513 -0.2971813 -1.134814e-18)
(-0.4783059 -0.1493363 -3.891627e-18)
(-2.163522 0.165342 0)
(-4.740334 0.9728411 0)
(-6.436893 2.007889 4.031313e-20)
(-7.381854 3.217658 -4.918851e-18)
(-3.499082 2.120004 2.706288e-18)
(4.248915 -0.6321477 3.896447e-18)
(9.633168 -1.402894 -1.394928e-18)
(11.87586 -0.8772243 1.684391e-18)
(14.19951 -0.1339624 -8.30863e-19)
(16.78778 0.6107494 0)
(17.86085 1.00484 0)
(17.45991 1.354631 -1.65964e-18)
(17.4121 1.935476 -1.807266e-18)
(17.37879 2.603208 -3.635466e-18)
(17.29343 3.283793 3.65598e-18)
(17.14437 3.968109 8.699311e-20)
(16.93226 4.629145 -5.809604e-20)
(16.65508 5.262646 0)
(16.30498 5.859499 0)
(15.89819 6.426507 6.848011e-18)
(15.44676 6.964532 -6.610993e-18)
(14.94671 7.456488 0)
(14.39451 7.900592 0)
(13.79841 8.290024 8.515203e-20)
(13.16374 8.627703 -5.381252e-18)
(12.49996 8.906929 0)
(11.81051 9.124791 -4.308432e-18)
(11.10344 9.293148 -3.842649e-18)
(10.38759 9.405911 -3.31269e-18)
(9.659726 9.448656 2.850409e-18)
(8.920827 9.426365 -3.24778e-20)
(8.184246 9.3497 1.818071e-18)
(7.458717 9.219318 0)
(6.746831 9.0262 -7.711575e-19)
(6.048825 8.770441 7.124324e-22)
(5.368374 8.459896 8.246688e-21)
(4.716574 8.086649 -8.685009e-19)
(4.088248 7.660001 0)
(3.496584 7.182791 -1.880579e-18)
(2.941683 6.660809 -1.995459e-20)
(2.430673 6.096801 2.808805e-18)
(1.964672 5.493457 1.620522e-18)
(1.547849 4.851367 -1.81747e-18)
(1.180718 4.174138 -2.001346e-18)
(0.8677732 3.472341 2.161355e-18)
(0.6062307 2.757361 -2.310642e-18)
(0.4123851 2.020748 -1.18386e-18)
(0.2655415 1.279205 2.495252e-18)
(0.1782972 0.5602762 1.300414e-18)
(0.1581545 -0.1442998 2.625032e-21)
(0.2218782 -0.9192205 6.442556e-19)
(0.3173105 -1.737314 -9.611866e-21)
(0.4793122 -2.530664 0)
(0.701966 -3.290808 -1.641258e-20)
(0.9790459 -4.021917 -1.39739e-20)
(1.312343 -4.723381 -1.775824e-18)
(1.696449 -5.390508 3.252128e-18)
(2.137303 -6.02251 -1.41743e-18)
(2.621233 -6.622317 2.297407e-18)
(3.149566 -7.174633 1.629129e-20)
(3.723581 -7.681692 0)
(4.333032 -8.149596 8.244761e-19)
(4.977655 -8.563437 -3.875882e-22)
(5.658262 -8.92522 2.815698e-19)
(6.363622 -9.241907 0)
(7.086568 -9.495382 1.439523e-18)
(7.825836 -9.679961 0)
(8.578338 -9.809086 -5.27322e-20)
(9.33803 -9.881043 3.149819e-18)
(10.105 -9.888856 0)
(10.86914 -9.841644 -4.331052e-18)
(11.62282 -9.732416 -4.883326e-18)
(12.35811 -9.557576 -5.404178e-18)
(13.07036 -9.319436 0)
(13.76424 -9.022901 -1.277854e-17)
(14.43312 -8.675351 1.024389e-19)
(15.06968 -8.27014 0)
(15.66638 -7.814252 0)
(16.21986 -7.308534 0)
(16.73101 -6.758415 8.235906e-18)
(17.19246 -6.17413 -8.539242e-18)
(17.5958 -5.55167 0)
(17.93677 -4.893208 0)
(18.21336 -4.208547 4.52162e-18)
(18.43108 -3.499052 3.610015e-20)
(18.58307 -2.770614 0)
(18.65783 -2.033751 0)
(18.67324 -1.303922 -2.262391e-18)
(18.6598 -0.6256446 2.688941e-19)
(18.96969 -0.1278192 0)
(18.9366 0.1702213 9.202868e-19)
(15.95525 0.4499378 3.958271e-20)
(11.18184 0.8535755 2.103596e-20)
(9.80954 1.891048 -4.265572e-20)
(9.615384 2.591694 4.392212e-18)
(8.645603 2.820217 3.21304e-18)
(5.945858 2.114099 4.584559e-20)
(-0.2463027 -1.663986 6.392032e-20)
(-7.837386 -5.047222 1.057256e-17)
(-7.378997 -3.724754 1.473383e-17)
(-6.588271 -2.760358 0)
(-4.353692 -1.714125 7.186821e-18)
(-2.824912 -1.334896 0)
(-2.225151 -1.285479 -6.435494e-20)
(-1.8551 -1.123666 -3.748123e-18)
(-1.232214 -0.5150138 3.277678e-20)
(-0.2609534 0.6178735 -3.125189e-20)
(1.421071 2.374016 2.635792e-19)
(3.857029 4.208383 -2.325611e-19)
(3.463715 3.023535 -4.934084e-19)
(-0.09138243 -1.24457 -1.154001e-18)
(-1.249373 -2.293634 -2.457763e-18)
(-1.719274 -2.664963 0)
(-1.929249 -3.026199 -7.500478e-21)
(-2.073393 -3.323618 0)
(-2.065047 -3.562149 -4.29686e-18)
(-1.877769 -3.491564 3.964378e-18)
(-1.569866 -2.837258 0)
(-1.137023 -1.665814 0)
(-0.522433 -0.3289891 7.736194e-18)
(0.7837941 2.243075 -2.10371e-18)
(0.784936 1.665145 3.699319e-18)
(-0.1509777 -1.801045 -1.473354e-20)
(-0.1861248 -1.677497 1.470258e-20)
(-0.2104106 -3.183393 0)
(-0.1970033 -6.814604 -9.417369e-19)
(-0.04151416 -10.31797 9.234211e-19)
(0.1974761 -11.16386 2.255793e-19)
(0.105919 -9.242954 -3.675554e-19)
(0.2135738 -8.315742 -9.573704e-21)
(0.3277153 -7.246299 9.575819e-21)
(0.4036119 -6.008316 -1.410377e-20)
(0.4087974 -4.708015 1.4473e-20)
(0.3384562 -3.432517 7.780051e-19)
(0.2255452 -2.282471 -1.213948e-20)
(0.1034158 -1.341707 -8.220333e-19)
(-0.05598289 -0.59396 2.695602e-20)
(-0.21799 -0.02421682 -1.972999e-18)
(-0.5433055 0.6615389 -2.766999e-20)
(-0.6223481 1.075587 0)
(-0.5285498 1.090216 0)
(-0.4063598 0.852586 -2.535942e-18)
(-0.1879618 0.3536349 -2.618454e-18)
(-0.08430658 0.2515532 -5.23579e-18)
(1.58469 -1.25104 -2.677302e-18)
(1.839263 -1.623216 0)
(0.1597584 -0.930396 0)
(-0.9060576 -0.0388922 -4.886889e-18)
(-1.790907 1.065467 -4.460907e-18)
(-2.085392 1.750781 2.468928e-20)
(-1.53017 1.783674 -3.440488e-20)
(-0.8842152 1.884055 -4.567773e-19)
(1.586677 -0.5398445 3.667214e-19)
(0.9882998 -1.392816 -4.252198e-19)
(1.648363 -1.466593 1.459367e-19)
(1.940483 -1.236892 8.71335e-19)
(1.645898 -1.249221 1.570353e-18)
(0.1686364 -1.115629 0)
(-1.930234 -0.4266862 -1.199645e-19)
(-3.459651 0.8784179 -1.010856e-17)
(-3.423385 2.444558 8.466151e-20)
(-1.58257 2.287285 9.028393e-20)
(8.409618 -0.5756616 -1.360368e-18)
(14.8817 -1.644384 -9.918238e-19)
(16.60332 -1.210822 -4.73403e-20)
(17.63621 -0.3168456 -6.298196e-19)
(17.80187 0.4842762 -2.975718e-19)
(17.34179 0.7682207 -2.448859e-21)
(17.25189 1.019848 0)
(17.44511 1.530816 -2.289305e-20)
(17.51221 2.13464 1.528217e-18)
(17.47828 2.779932 -6.041495e-18)
(17.35405 3.453372 4.700235e-20)
(17.15564 4.110438 -3.028241e-18)
(16.8787 4.754488 -9.135369e-20)
(16.53448 5.359127 -5.734469e-18)
(16.13046 5.940582 -8.009551e-21)
(15.68069 6.498951 5.453909e-18)
(15.1836 7.00867 -5.117516e-18)
(14.63342 7.473998 0)
(14.03856 7.884213 6.875561e-20)
(13.40313 8.245167 -6.917643e-20)
(12.73646 8.54945 0)
(12.04216 8.79331 3.549599e-18)
(11.32912 8.987443 7.139454e-20)
(10.60608 9.12588 2.769073e-18)
(9.871036 9.193035 -2.279515e-18)
(9.126296 9.191756 -1.850759e-18)
(8.380214 9.137609 -1.469171e-18)
(7.645995 9.028152 -9.934191e-19)
(6.925844 8.854231 5.581715e-21)
(6.218288 8.616921 -5.637867e-21)
(5.527667 8.324411 0)
(4.865954 7.967678 7.062456e-19)
(4.227192 7.556543 -2.096168e-20)
(3.626021 7.093123 1.56576e-18)
(3.06213 6.583573 1.917633e-18)
(2.544623 6.030096 -2.281365e-18)
(2.072038 5.436497 -1.329741e-18)
(1.64946 4.803245 -4.035224e-21)
(1.276987 4.1342 1.641269e-18)
(0.9615564 3.439027 2.840174e-20)
(0.6956356 2.730519 1.850825e-18)
(0.5022068 1.997648 1.557409e-20)
(0.352938 1.25813 -1.042286e-18)
(0.2625222 0.5407196 -5.2981e-19)
(0.2433335 -0.1655383 -6.521157e-23)
(0.3202008 -0.928019 5.108457e-19)
(0.4141798 -1.733089 7.868671e-21)
(0.5742763 -2.515397 -9.454797e-19)
(0.7983917 -3.266005 1.779462e-18)
(1.077644 -3.987326 0)
(1.414062 -4.678126 -3.613277e-21)
(1.801516 -5.333991 -1.337749e-18)
(2.248487 -5.954163 1.194243e-18)
(2.737026 -6.542752 -1.979485e-18)
(3.274762 -7.080975 2.099521e-20)
(3.859824 -7.573394 -2.079208e-20)
(4.475703 -8.02843 -6.775404e-19)
(5.130301 -8.425982 0)
(5.825279 -8.76868 -2.382252e-19)
(6.538326 -9.069663 2.144322e-20)
(7.270096 -9.304564 -6.216714e-20)
(8.019964 -9.468358 -1.570211e-18)
(8.781453 -9.576897 -2.14359e-18)
(9.549462 -9.627021 -1.862244e-20)
(10.32422 -9.611774 2.985535e-18)
(11.09708 -9.539289 -5.049711e-20)
(11.85698 -9.405427 -3.88881e-18)
(12.59795 -9.204147 0)
(13.31686 -8.937058 4.719334e-18)
(14.01459 -8.614129 5.189127e-18)
(14.68352 -8.243784 5.379013e-18)
(15.31943 -7.81479 -5.724026e-18)
(15.91391 -7.336817 6.132434e-18)
(16.4647 -6.808944 0)
(16.97266 -6.237254 -1.347947e-17)
(17.43002 -5.636087 1.409309e-17)
(17.82838 -4.996446 -1.671633e-19)
(18.16318 -4.326175 -3.634239e-18)
(18.43738 -3.627424 -3.706404e-18)
(18.64369 -2.917188 0)
(18.7727 -2.206517 1.917229e-18)
(18.81305 -1.494263 -1.904525e-18)
(18.75276 -0.8211377 9.382473e-19)
(18.59145 -0.2261741 -2.310181e-19)
(18.44197 0.1634106 -4.2869e-19)
(18.9921 0.3317545 1.220619e-20)
(19.25185 0.6742048 -1.578565e-18)
(18.1607 1.573901 4.187462e-20)
(17.19006 3.014664 0)
(15.97959 3.809093 0)
(14.2443 3.850759 -6.47802e-20)
(9.066133 2.378451 6.800889e-20)
(-0.07725219 -2.43741 0)
(-4.54651 -4.234288 0)
(-4.948677 -2.485598 0)
(-4.16295 -1.16434 9.425455e-18)
(-1.990878 0.02330479 -1.217794e-17)
(-0.008323301 0.5607821 4.513105e-18)
(0.362469 0.4636817 -3.718445e-18)
(0.1407327 0.3640683 -9.914349e-20)
(0.224297 0.7658653 2.350217e-18)
(0.6038811 1.625155 1.125967e-18)
(1.4403 2.814895 3.177474e-21)
(3.44047 3.868954 1.490288e-21)
(2.82301 1.73128 -4.589603e-21)
(-0.09765248 -1.842082 -2.261554e-20)
(-1.113756 -2.338419 2.060405e-18)
(-1.74292 -2.775004 0)
(-2.07233 -3.340646 3.465404e-18)
(-2.397195 -3.979574 -3.62935e-18)
(-2.505363 -4.43706 3.504006e-18)
(-2.329599 -4.313783 0)
(-2.047662 -3.585141 0)
(-1.754977 -2.692981 -4.488038e-20)
(-1.291863 -1.706855 -3.102592e-18)
(0.1270539 0.5938612 1.852808e-18)
(0.5029336 -0.2574628 -1.505298e-18)
(-0.1637473 -2.509491 0)
(-0.2460074 -2.69417 0)
(-0.1536762 -5.599286 0)
(-0.04994987 -9.407106 -7.105651e-19)
(0.01031095 -11.2838 -3.82222e-19)
(0.03837503 -10.52736 -3.793096e-19)
(0.008957057 -8.831872 1.513344e-19)
(0.09060017 -7.955463 0)
(0.1456521 -6.888996 -4.658487e-19)
(0.1811903 -5.696427 0)
(0.1728817 -4.402023 -7.000618e-19)
(0.0904771 -3.101013 0)
(-0.02858291 -1.91233 0)
(-0.1481719 -0.9476528 -6.701905e-19)
(-0.2975359 -0.2005861 -1.479785e-18)
(-0.482621 0.4351463 1.636593e-18)
(-0.8032354 1.039474 -1.729116e-18)
(-0.8273211 1.425367 1.877614e-18)
(-0.6893513 1.453433 0)
(-0.5423275 1.192025 4.134746e-18)
(-0.2787271 0.6299915 2.130685e-18)
(-0.07942143 0.5111306 2.185367e-18)
(1.63473 -1.108635 -6.557398e-20)
(1.373795 -1.15897 -7.993378e-20)
(-0.4596719 -0.5957471 -2.280534e-18)
(-1.321192 0.08244025 4.019452e-18)
(-2.055144 1.112184 1.826039e-18)
(-2.190248 1.853536 4.135355e-20)
(-1.489189 1.862883 9.310805e-19)
(-0.647863 1.990023 2.007762e-19)
(0.613457 0.4457762 -2.977122e-19)
(1.120503 -1.319121 0)
(3.083762 -2.097647 -1.533587e-20)
(3.940353 -2.163664 0)
(3.950737 -2.390294 1.201149e-18)
(2.903159 -2.563676 2.301413e-18)
(1.444071 -2.016933 5.052672e-18)
(0.2144924 -0.4236437 -2.74206e-19)
(0.3003768 1.576489 1.19342e-19)
(2.412522 2.17385 -3.451109e-18)
(12.53413 -0.2991204 0)
(16.56755 -1.443255 -7.520356e-19)
(17.01217 -1.218716 -1.021613e-18)
(17.48171 -0.3555791 1.039737e-18)
(17.17044 0.4711464 2.390211e-19)
(16.90752 0.8975548 0)
(17.03674 1.317494 5.581745e-19)
(17.17152 1.898166 0)
(17.21862 2.532102 0)
(17.17141 3.179634 2.522304e-18)
(17.04527 3.840158 -3.852963e-20)
(16.84847 4.47719 4.613076e-20)
(16.5759 5.097509 -2.391465e-18)
(16.2377 5.671851 4.81616e-18)
(15.83977 6.222752 -4.591153e-18)
(15.39923 6.751624 -4.41526e-18)
(14.91783 7.221035 2.094246e-19)
(14.3813 7.653015 -1.276888e-19)
(13.80364 8.028105 -1.115289e-19)
(13.18484 8.359299 -3.191347e-18)
(12.53724 8.635505 -3.220457e-18)
(11.86269 8.851754 -8.337413e-20)
(11.16722 9.024499 2.633396e-18)
(10.46631 9.141301 0)
(9.754895 9.187229 1.87698e-18)
(9.028168 9.171434 1.52348e-18)
(8.301008 9.104816 1.117321e-18)
(7.587942 8.984373 8.173251e-19)
(6.887862 8.802138 0)
(6.200531 8.556938 0)
(5.526805 8.261469 -2.835122e-19)
(4.884599 7.901108 0)
(4.259834 7.490628 0)
(3.674254 7.028619 1.351174e-18)
(3.126557 6.521184 -2.971809e-20)
(2.61843 5.973096 -1.300595e-20)
(2.153371 5.384788 -3.612101e-20)
(1.738789 4.756875 2.492199e-18)
(1.374908 4.0931 0)
(1.069029 3.40307 0)
(0.7993438 2.704235 1.565457e-18)
(0.6106821 1.976299 7.820305e-19)
(0.4588926 1.238695 8.401197e-19)
(0.3646386 0.5232417 -4.335759e-19)
(0.3464724 -0.1873943 0)
(0.4404744 -0.933534 -3.573912e-22)
(0.533654 -1.725309 2.502875e-20)
(0.6821371 -2.497489 7.498826e-19)
(0.8984714 -3.236724 -1.458419e-18)
(1.171839 -3.94596 -4.082166e-20)
(1.502537 -4.625778 1.239559e-18)
(1.883727 -5.272077 3.634752e-20)
(2.324321 -5.884628 1.928355e-18)
(2.798412 -6.469494 -1.460785e-20)
(3.322053 -7.004162 -1.330737e-18)
(3.897473 -7.494229 3.476321e-20)
(4.498122 -7.950584 0)
(5.1316 -8.351477 2.447291e-19)
(5.811831 -8.69716 0)
(6.510162 -9.003604 0)
(7.219458 -9.248605 -9.350563e-19)
(7.94953 -9.422147 2.583432e-18)
(8.693869 -9.541577 5.83745e-20)
(9.441189 -9.606446 -1.13881e-19)
(10.1958 -9.607365 -2.452085e-18)
(10.94809 -9.555237 -2.770834e-18)
(11.6878 -9.443356 3.309443e-18)
(12.40739 -9.268107 -3.585915e-18)
(13.10468 -9.03003 -7.644322e-20)
(13.78536 -8.733955 0)
(14.43669 -8.39537 -4.656406e-18)
(15.05726 -7.997596 9.806283e-18)
(15.63735 -7.554387 -5.216713e-18)
(16.17473 -7.062245 0)
(16.673 -6.525765 9.477045e-20)
(17.1215 -5.961041 -5.646112e-18)
(17.51344 -5.353685 -9.018058e-20)
(17.84529 -4.713464 1.443851e-19)
(18.11655 -4.039381 -9.452453e-20)
(18.32323 -3.348791 0)
(18.45483 -2.649964 -3.056811e-18)
(18.50133 -1.948038 1.482806e-18)
(18.45714 -1.256458 7.384913e-19)
(18.34102 -0.6084612 -1.157336e-20)
(18.16473 -0.08253394 3.489715e-19)
(18.27665 0.264218 6.539826e-19)
(18.99232 0.7593567 0)
(19.39144 1.891062 1.46382e-18)
(18.8815 3.338384 -8.693783e-20)
(17.49109 4.073729 2.68249e-18)
(16.32104 3.968846 0)
(12.16196 2.320978 0)
(2.224727 -2.568627 0)
(-0.4388647 -2.985234 1.376601e-19)
(-1.815942 -1.147657 1.178605e-17)
(-1.278028 0.6617486 -8.404886e-18)
(0.3724736 1.755893 5.172976e-18)
(2.17327 2.146224 -6.878253e-18)
(3.007713 2.197242 2.943727e-18)
(2.708159 2.094637 0)
(2.094852 2.215942 -1.861761e-18)
(1.736338 2.707294 -8.910744e-19)
(1.602422 3.220083 1.956771e-19)
(2.934771 3.221809 -5.787465e-21)
(2.16028 0.3176871 -1.816705e-20)
(0.08037321 -2.155215 1.839795e-20)
(-1.054792 -2.506786 0)
(-1.73337 -2.975324 -2.453781e-18)
(-2.131128 -3.681727 9.024598e-20)
(-2.537079 -4.387904 5.861745e-18)
(-2.666934 -4.732303 -2.969743e-18)
(-2.494678 -4.494852 1.637274e-19)
(-2.301587 -3.87363 -2.411966e-18)
(-2.154917 -3.385016 0)
(-1.856442 -3.069331 -2.441521e-18)
(-0.802232 -2.466295 1.430523e-18)
(0.1055142 -2.34114 -7.599809e-20)
(-0.1884415 -3.170853 1.241129e-18)
(-0.2562734 -4.579315 -5.586159e-20)
(0.007396836 -7.926834 1.751943e-20)
(0.1252756 -10.64367 5.768926e-19)
(0.02863017 -10.86353 -4.75168e-21)
(-0.06532399 -9.69934 5.933293e-21)
(-0.1522188 -8.389146 7.323132e-21)
(-0.09839492 -7.534617 2.126973e-19)
(-0.07463445 -6.547437 3.83443e-19)
(-0.07040239 -5.428756 -3.286171e-19)
(-0.09582066 -4.182593 5.740934e-19)
(-0.1889359 -2.875007 0)
(-0.3112982 -1.632685 4.892025e-19)
(-0.4273432 -0.5910615 5.861708e-19)
(-0.5634514 0.1096372 1.209543e-18)
(-0.7695 0.8738845 0)
(-1.079226 1.438449 0)
(-1.054479 1.819892 -1.529751e-18)
(-0.8691767 1.867118 -5.179408e-20)
(-0.7006869 1.610307 -1.627893e-18)
(-0.4135184 1.006146 -1.728212e-18)
(-0.2145949 1.018316 -1.708841e-18)
(1.519106 -0.7009611 1.832157e-18)
(0.9149185 -0.6939556 -2.207171e-18)
(-1.118262 -0.2971792 1.806726e-18)
(-1.734464 0.1834841 -1.59253e-18)
(-2.315868 1.167701 0)
(-2.308933 1.992221 0)
(-1.488413 2.042606 -7.950572e-19)
(-0.2183942 1.880331 0)
(0.3965988 0.9015506 9.860153e-21)
(1.892234 -1.386519 -5.820176e-21)
(4.782111 -2.634124 -7.333907e-20)
(6.016921 -2.989673 -9.706388e-21)
(6.307913 -3.520891 2.122058e-20)
(5.820118 -4.048799 -1.822825e-18)
(5.164962 -3.729767 -5.622679e-21)
(4.366601 -1.956743 3.333403e-18)
(4.348857 0.7259914 -7.134041e-20)
(8.062353 1.878118 1.41999e-18)
(15.32625 0.1178182 -3.439653e-20)
(16.19642 -1.114192 2.52761e-18)
(16.36849 -1.087517 2.297204e-20)
(16.9587 -0.3289755 -1.178745e-20)
(16.88406 0.3693546 -4.120163e-19)
(16.91279 0.7560858 -3.357134e-21)
(17.06569 1.122879 -4.612682e-19)
(17.19982 1.63386 -3.025065e-20)
(17.25452 2.219425 -9.44486e-19)
(17.20801 2.832982 1.965121e-18)
(17.07963 3.48905 -1.969433e-18)
(16.88634 4.114138 3.820638e-18)
(16.61541 4.748506 2.093214e-18)
(16.27915 5.338135 0)
(15.87956 5.907872 0)
(15.43906 6.458431 3.580618e-18)
(14.95805 6.947261 3.413359e-18)
(14.4215 7.397233 0)
(13.8464 7.783917 -8.948937e-20)
(13.22755 8.129194 2.894321e-18)
(12.57716 8.424352 2.566012e-18)
(11.90362 8.65207 2.234047e-18)
(11.21409 8.830113 -5.865131e-20)
(10.51521 8.959023 -1.664763e-18)
(9.801306 9.020596 4.125917e-20)
(9.079406 9.010473 -4.165218e-20)
(8.360741 8.947296 -9.41863e-19)
(7.650779 8.836064 6.157882e-19)
(6.947239 8.668841 0)
(6.26817 8.427847 0)
(5.597267 8.14236 4.832582e-19)
(4.964144 7.787888 -8.619407e-21)
(4.344072 7.386086 -8.257596e-21)
(3.774117 6.928536 -1.041862e-18)
(3.234981 6.428376 -2.623956e-18)
(2.720448 5.897075 1.469932e-18)
(2.258335 5.320827 -1.759395e-18)
(1.848534 4.703329 -9.747343e-19)
(1.493337 4.047604 -3.327205e-20)
(1.195318 3.361424 0)
(0.919398 2.675725 -1.221731e-18)
(0.7438072 1.956273 -4.106903e-20)
(0.5866748 1.220531 -6.9831e-19)
(0.4890554 0.5083954 3.713992e-19)
(0.4730171 -0.2081683 -1.783188e-23)
(0.5827177 -0.9351195 -3.632392e-19)
(0.6662133 -1.71717 3.099552e-20)
(0.8092043 -2.475768 -6.536162e-19)
(1.016622 -3.196351 1.195297e-18)
(1.283573 -3.890069 -1.148912e-18)
(1.609943 -4.558371 2.816184e-21)
(1.987235 -5.194161 9.413122e-19)
(2.432392 -5.795823 -1.535383e-18)
(2.89757 -6.375409 1.315404e-18)
(3.410214 -6.904811 9.964477e-19)
(3.986419 -7.386316 8.542778e-21)
(4.594687 -7.830437 8.976508e-21)
(5.220498 -8.22455 -1.897036e-19)
(5.883916 -8.571608 -6.646059e-20)
(6.582196 -8.869802 1.744889e-20)
(7.290352 -9.104935 6.741132e-19)
(8.012349 -9.272529 -2.073137e-18)
(8.748699 -9.388552 1.334008e-18)
(9.500904 -9.436149 -5.687413e-20)
(10.25275 -9.427391 -1.971946e-18)
(10.99728 -9.371593 4.560066e-18)
(11.73702 -9.246673 8.416314e-20)
(12.45343 -9.061359 2.781584e-18)
(13.15067 -8.807628 -3.242145e-18)
(13.83296 -8.495108 1.005443e-19)
(14.48277 -8.143932 -3.679621e-18)
(15.1034 -7.728092 -3.763601e-18)
(15.68205 -7.26981 1.297161e-19)
(16.22005 -6.755523 -4.329782e-18)
(16.71827 -6.198216 4.473909e-18)
(17.16583 -5.615144 0)
(17.55533 -4.991259 0)
(17.88262 -4.33212 2.435248e-18)
(18.14829 -3.654639 2.437302e-18)
(18.35295 -2.966147 0)
(18.48542 -2.272861 1.309058e-18)