/*--------------------------------*- C++ -*----------------------------------*\
| =========                 |                                                 |
| \\      /  F ield         | OpenFOAM: The Open Source CFD Toolbox           |
|  \\    /   O peration     | Version:  2406                                  |
|   \\  /    A nd           | Website:  www.openfoam.com                      |
|    \\/     M anipulation  |                                                 |
\*---------------------------------------------------------------------------*/
FoamFile
{
    version     2.0;
    format      ascii;
    arch        "LSB;label=32;scalar=64";
    class       surfaceScalarField;
    location    "0.38";
    object      phi;
}
// * * * * * * * * * * * * * * * * * * * * * * * * * * * * * * * * * * * * * //

dimensions      [0 3 -1 0 0 0 0];

oriented        oriented;

internalField   nonuniform List<scalar> 
6741
(
4.602743e-10
9.274184e-10
-1.387693e-09
-1.240308e-09
-4.785306e-11
1.288161e-09
1.720246e-09
-1.766093e-09
4.584629e-11
5.792662e-10
7.002574e-10
-1.279524e-09
1.541199e-09
-8.263591e-10
-7.148395e-10
1.998192e-09
-8.423753e-10
-1.155816e-09
-1.2216e-09
-1.994399e-10
1.42104e-09
-9.313248e-10
1.836172e-09
-9.048472e-10
6.445606e-11
2.108996e-09
-2.173452e-09
-1.532467e-09
3.57022e-10
1.175445e-09
-1.540646e-10
1.935162e-09
-1.781097e-09
1.350993e-09
-2.01542e-09
6.644273e-10
1.332474e-09
-1.919512e-09
5.87038e-10
1.862454e-09
-1.627671e-09
-2.347828e-10
-1.697177e-10
1.464701e-09
-1.294983e-09
3.477041e-09
-2.101569e-09
-1.375472e-09
-8.379449e-10
-6.217768e-10
1.459722e-09
1.304664e-09
-1.51877e-09
2.141059e-10
1.881592e-09
-1.751217e-09
6.978308e-10
-1.579067e-09
8.812357e-10
-2.36148e-09
1.247572e-09
1.113908e-09
4.023163e-10
-1.343633e-09
9.41317e-10
-1.735326e-09
1.455516e-09
2.798107e-10
3.855386e-10
1.534943e-09
-1.920481e-09
3.508324e-10
1.438392e-09
-1.789224e-09
1.6725e-09
-1.474227e-09
-1.982729e-10
1.807408e-09
-1.085794e-09
-7.216133e-10
-2.067076e-09
1.176237e-09
8.908395e-10
-1.244536e-09
1.374194e-09
-1.296586e-10
-4.893899e-09
7.098645e-10
4.184035e-09
-2.151859e-09
9.042621e-10
1.247597e-09
-1.55369e-09
1.185683e-09
3.68007e-10
1.717303e-09
-9.326629e-10
-7.846402e-10
2.821192e-09
-2.644634e-10
-2.556729e-09
4.206906e-09
2.02033e-09
-6.227236e-09
-1.314149e-09
1.599746e-09
-2.855974e-10
-1.511381e-09
-2.35822e-10
1.747203e-09
4.813157e-09
2.338044e-09
-7.151201e-09
1.769636e-09
-6.354611e-10
-1.134175e-09
-1.571255e-09
1.968789e-09
-3.975336e-10
1.442865e-09
7.489969e-10
-2.191862e-09
-8.447502e-10
-1.265785e-09
2.110535e-09
1.467167e-09
-2.371093e-10
-1.230057e-09
9.932867e-10
-1.510135e-09
5.168483e-10
-1.835709e-09
1.103607e-09
7.321022e-10
-1.273114e-09
4.800281e-10
7.930855e-10
-7.3839e-10
-1.072582e-09
1.810972e-09
-2.417889e-10
-1.548778e-09
1.790567e-09
-5.65525e-10
-1.413993e-09
1.979518e-09
6.298275e-10
1.205007e-09
-1.834835e-09
-1.527581e-09
1.618594e-09
-9.101286e-11
-1.283134e-09
4.315781e-10
8.515561e-10
1.395523e-09
-2.103271e-10
-1.185196e-09
1.950856e-09
-4.587088e-10
-1.492147e-09
-1.331429e-10
1.241821e-09
-1.108678e-09
4.418557e-10
1.342765e-09
-1.78462e-09
-1.623626e-09
1.43185e-09
1.917763e-10
-2.853431e-10
-1.599554e-09
1.884898e-09
-1.131901e-09
1.813355e-09
-6.814545e-10
5.50875e-10
-1.74591e-09
1.195035e-09
-7.83738e-10
-4.786708e-10
1.262409e-09
-1.501808e-09
1.143646e-09
3.581623e-10
-1.473329e-09
1.560206e-09
-8.687772e-11
3.714878e-10
1.464327e-09
-1.835815e-09
-2.383021e-09
1.162996e-09
1.220025e-09
1.541115e-09
-1.233909e-09
-3.072065e-10
-1.754797e-09
1.432151e-09
3.226459e-10
5.593491e-10
9.952066e-10
-1.554556e-09
6.793226e-09
-7.273062e-09
4.798365e-10
-1.990816e-09
4.08726e-10
1.58209e-09
5.280355e-10
-2.084649e-09
1.556614e-09
1.330345e-09
-1.589489e-09
2.591437e-10
1.513116e-09
-2.794215e-10
-1.233695e-09
1.407037e-09
-1.884763e-09
4.777262e-10
5.130593e-09
1.065729e-09
-6.196322e-09
-1.304064e-09
-1.909593e-11
1.32316e-09
2.228599e-09
-8.227417e-10
-1.405857e-09
1.607826e-09
-1.475919e-10
-1.460235e-09
-1.488255e-09
-3.674631e-10
1.855718e-09
1.945448e-09
-2.241185e-09
2.957363e-10
4.719269e-10
1.250735e-09
-1.722662e-09
1.039374e-09
-1.146536e-09
1.071617e-10
-7.948539e-10
-1.351545e-10
-1.57578e-09
-3.872572e-10
1.963038e-09
-1.60927e-09
1.181091e-09
4.281791e-10
-6.221802e-10
2.252147e-09
-1.629967e-09
9.390287e-10
-1.692787e-09
7.537584e-10
5.267203e-10
2.538421e-09
-3.065141e-09
-6.410624e-10
-1.112222e-09
1.753284e-09
8.035817e-10
-1.531084e-09
7.275026e-10
1.865477e-10
-1.449174e-09
1.262627e-09
1.264848e-09
3.298996e-10
-1.594748e-09
-3.02051e-10
2.007783e-09
-1.705732e-09
8.543178e-12
-1.78338e-09
1.774837e-09
-9.368582e-10
1.58896e-09
-6.521014e-10
-3.111047e-11
-2.92644e-09
2.95755e-09
8.621823e-10
-1.952587e-09
1.090405e-09
-1.136952e-10
1.229729e-09
-1.116034e-09
-1.232625e-09
-4.048823e-11
-6.319267e-09
4.085987e-09
2.23328e-09
1.210149e-09
-6.308823e-10
1.459042e-09
-1.83866e-09
3.796177e-10
-3.126432e-09
-3.429582e-11
3.160728e-09
-2.358688e-09
-3.082935e-09
5.441623e-09
4.311247e-10
-2.006905e-09
1.787378e-10
1.446778e-09
-1.625516e-09
-1.978567e-09
1.400795e-09
5.777715e-10
-2.24341e-09
6.901159e-10
-4.056054e-10
2.055623e-09
-1.650018e-09
1.174685e-09
-1.641854e-09
4.671686e-10
1.009269e-09
-7.674873e-10
-2.417819e-10
-1.957448e-09
1.119503e-09
-7.605707e-10
-7.226485e-10
1.483219e-09
-1.086411e-09
1.625804e-09
-5.393936e-10
1.110266e-09
3.29906e-12
-1.113565e-09
1.818998e-09
-3.058819e-10
-1.467686e-09
1.279958e-10
1.33969e-09
-1.949746e-09
9.654206e-10
9.843255e-10
-1.603478e-09
-6.38277e-11
1.667306e-09
-2.507243e-09
2.593143e-09
-8.589994e-11
-1.050176e-09
-1.54205e-10
1.204381e-09
3.403201e-09
9.643403e-10
-4.367541e-09
1.771e-09
-1.432592e-09
-3.384076e-10
-1.136594e-09
-6.991149e-10
1.078497e-09
-1.464425e-09
3.859277e-10
-1.010607e-09
-6.892282e-10
1.699836e-09
3.029754e-09
-3.186486e-09
1.567313e-10
-3.110908e-09
4.794121e-10
2.631496e-09
-1.794041e-09
1.6684e-09
1.256413e-10
2.136285e-09
-3.711368e-10
-1.765148e-09
-8.033864e-11
-1.177623e-09
1.257962e-09
-1.452379e-09
-6.126714e-10
2.06505e-09
4.515752e-10
1.078423e-09
-1.529998e-09
2.45937e-09
-2.20736e-09
-2.520102e-10
-1.560854e-09
8.744952e-10
6.863589e-10
1.565385e-09
-2.393555e-09
8.281706e-10
-1.845566e-09
1.399239e-09
4.463265e-10
-1.604502e-09
1.301701e-09
3.028017e-10
-8.678107e-10
-1.199266e-09
8.679948e-11
-2.760589e-09
2.673789e-09
3.509703e-09
-5.868391e-09
2.165135e-11
-1.804871e-09
1.78322e-09
9.98576e-10
-1.658164e-09
6.595875e-10
-1.133367e-09
-3.990992e-10
-1.226661e-09
2.33769e-09
-1.111029e-09
-1.788335e-09
2.33921e-09
-6.344072e-10
-1.084375e-09
1.718783e-09
1.182975e-09
-1.157877e-09
-2.509775e-11
-1.382875e-09
1.269179e-09
-7.502731e-10
-4.821297e-10
1.232403e-09
1.220347e-09
-1.047974e-09
-1.723728e-10
-2.68283e-09
1.171449e-09
-2.014987e-09
-1.581319e-10
2.173119e-09
4.226968e-09
-1.24458e-09
-2.982388e-09
1.038113e-09
8.103201e-10
-1.848434e-09
-2.5832e-11
-1.01163e-09
1.037462e-09
1.956074e-09
-1.211436e-09
-7.44637e-10
1.496382e-09
-7.414573e-11
-1.422237e-09
5.380207e-10
-1.96518e-09
1.427159e-09
1.747185e-09
-2.509245e-09
7.620601e-10
2.176585e-09
-1.855914e-09
-3.206705e-10
-1.929989e-09
6.743146e-09
1.995003e-09
-1.760051e-10
-7.676528e-10
1.545965e-09
-7.783123e-10
9.816144e-10
-1.159252e-09
-3.222329e-09
2.443398e-10
2.97799e-09
2.846337e-10
1.34866e-09
-1.633294e-09
1.555988e-09
5.760482e-10
-2.132036e-09
1.185319e-09
3.674899e-10
-1.552809e-09
8.651865e-10
6.204369e-10
-1.485623e-09
-1.943368e-09
5.820075e-10
1.361361e-09
3.028091e-09
-2.050574e-09
-9.775171e-10
7.69905e-09
-3.492144e-09
-8.80706e-10
6.29434e-10
1.530515e-09
-2.159949e-09
-4.24113e-10
-8.794139e-10
1.303527e-09
-1.895629e-09
1.69486e-09
2.007694e-10
-8.395249e-10
1.86707e-09
-1.027545e-09
-1.099619e-09
1.372307e-09
-2.726889e-10
-7.295761e-10
-1.247874e-09
1.977451e-09
-3.079379e-10
-1.351459e-09
1.659397e-09
2.058607e-09
-5.647285e-10
-1.493878e-09
-5.199669e-10
-8.197603e-10
1.339727e-09
-3.447514e-09
3.256026e-09
1.91488e-10
-1.007983e-09
1.881386e-09
-8.734026e-10
-2.572706e-10
-7.087729e-10
9.660435e-10
1.195123e-09
5.758765e-10
1.770495e-09
-1.141061e-09
-3.050741e-10
-1.084501e-09
1.389575e-09
1.6656e-09
-7.265717e-10
3.528396e-10
-1.805219e-09
-1.41311e-11
-1.230405e-09
7.485292e-10
-2.432943e-09
1.684413e-09
-1.500938e-09
-4.392995e-10
-1.253771e-09
-5.755791e-10
1.82935e-09
-1.618463e-09
5.410938e-10
1.077369e-09
-5.015943e-10
1.242114e-09
-7.405201e-10
-1.579959e-09
9.970254e-10
5.829339e-10
-1.121889e-09
-4.501155e-10
1.572005e-09
5.263892e-10
-2.011238e-09
1.484849e-09
8.715284e-10
5.613806e-10
-1.432909e-09
1.852504e-10
-1.687058e-09
1.724232e-09
-5.356842e-10
-1.188548e-09
-9.996296e-10
1.913467e-09
-9.138376e-10
5.126519e-09
-2.185949e-09
-2.94057e-09
-1.898077e-09
1.62281e-09
2.752668e-10
-7.541691e-10
1.569106e-09
-8.149368e-10
1.601872e-09
-1.996875e-09
3.950033e-10
1.678624e-09
-3.077962e-10
-1.370828e-09
-4.006987e-10
1.170105e-09
-7.694062e-10
-1.255201e-09
1.618233e-09
-3.630317e-10
-5.074714e-09
7.726655e-09
-2.651942e-09
3.232802e-11
1.754094e-09
-1.786422e-09
4.896111e-10
-1.486041e-09
9.964295e-10
1.027403e-09
7.705379e-10
-1.797941e-09
-8.592214e-10
-1.356196e-09
2.215418e-09
1.251863e-10
-1.598515e-09
2.27446e-09
-9.116988e-11
-2.18329e-09
-1.396943e-10
-1.463784e-09
1.164088e-09
4.881039e-10
-1.652192e-09
-1.755193e-09
1.649629e-09
1.055645e-10
-1.82561e-09
-5.119886e-10
2.337599e-09
-1.017784e-10
1.943486e-09
-1.841707e-09
2.21969e-09
-5.00767e-10
-1.718922e-09
-1.523893e-09
1.536788e-09
-1.289439e-11
-1.677358e-09
6.651263e-10
1.012232e-09
2.140016e-09
-5.623245e-10
-1.577692e-09
-1.099905e-09
-4.190533e-10
1.518958e-09
-1.423063e-09
-1.873415e-10
1.610405e-09
3.856721e-10
-1.441194e-09
1.055522e-09
1.568213e-09
-1.5186e-09
-4.96129e-11
1.141904e-10
1.446016e-09
2.052651e-09
-2.609033e-09
5.563823e-10
9.925711e-10
-1.712474e-09
7.199024e-10
1.783264e-09
-1.949888e-09
1.666245e-10
-7.744497e-10
1.754207e-09
-9.797568e-10
1.418056e-09
-6.986069e-10
-7.194491e-10
-1.305411e-09
1.555597e-09
-2.501863e-10
1.131791e-09
-4.995689e-11
-1.081835e-09
5.930665e-10
1.776794e-09
-2.369861e-09
1.270773e-09
-1.681169e-09
4.103964e-10
5.935003e-11
-1.387881e-09
1.328531e-09
3.350664e-09
-2.746665e-09
-6.039992e-10
1.389673e-09
5.565633e-12
-1.395239e-09
8.725976e-10
6.686011e-10
1.938852e-09
-9.68501e-09
7.746158e-09
-8.598827e-10
-2.406311e-09
3.266194e-09
3.148447e-10
-8.281066e-09
7.966221e-09
1.76718e-09
-1.7242e-09
-4.297997e-11
4.495301e-10
5.840446e-09
-6.289976e-09
2.104562e-09
-2.155478e-09
5.091606e-11
-1.520342e-09
-6.802277e-11
1.588365e-09
7.702523e-10
-1.253717e-09
4.834645e-10
1.059144e-09
-3.695917e-10
-6.89552e-10
-1.378222e-09
1.437572e-09
1.390029e-09
-5.491885e-10
-8.408404e-10
1.235693e-09
4.824439e-10
-1.718137e-09
-8.968019e-10
1.76833e-09
1.577959e-09
-8.659011e-10
-7.120577e-10
1.61914e-09
-6.813407e-10
-9.377994e-10
1.953884e-09
-1.107683e-09
-8.462006e-10
1.492726e-09
-1.026596e-09
-4.661293e-10
1.442663e-09
-1.413212e-09
-2.945146e-11
2.068461e-10
-1.26942e-09
1.062574e-09
7.742266e-10
2.350426e-10
-1.688114e-10
-1.566515e-09
-4.284657e-10
-8.030498e-09
8.458964e-09
-1.607759e-09
2.269543e-09
-6.617843e-10
1.617471e-09
-1.302248e-09
-3.15223e-10
1.127776e-09
4.909436e-10
-1.618719e-09
1.992794e-09
-2.725473e-10
-3.515709e-10
-1.972733e-09
2.324304e-09
7.299738e-10
6.495755e-10
-1.379549e-09
6.748869e-10
1.201272e-09
-1.876159e-09
-1.504676e-09
-1.148915e-10
1.619567e-09
-9.346108e-10
9.315397e-09
-8.380787e-09
-6.7689e-11
1.715312e-09
-1.647623e-09
-2.904434e-09
2.146461e-09
7.579736e-10
-8.668831e-10
2.013448e-09
-1.146565e-09
1.496635e-09
-9.229871e-10
-5.736478e-10
1.235864e-09
-1.524309e-09
2.884447e-10
1.386393e-09
-1.213917e-09
-1.72476e-10
-1.431998e-09
6.591151e-10
7.728834e-10
-1.924718e-09
-1.447179e-09
3.371897e-09
1.409747e-09
1.008757e-10
-1.510623e-09
-1.52871e-09
-2.264829e-10
6.339029e-10
-2.002951e-09
1.369048e-09
9.007603e-10
6.311938e-11
-9.638797e-10
3.90283e-09
-2.782209e-09
-1.120621e-09
-3.551685e-10
1.649307e-09
-1.294139e-09
-9.351517e-10
2.079357e-09
-1.144206e-09
2.169018e-09
-3.968516e-10
1.610507e-09
-1.213656e-09
1.826369e-10
-1.257292e-09
1.074655e-09
1.847103e-09
-2.654475e-10
-1.581655e-09
1.317611e-09
5.528038e-10
-1.870415e-09
1.008592e-09
5.325229e-10
-8.242909e-10
1.822867e-09
9.676758e-11
1.765717e-09
-1.862484e-09
1.878648e-09
-7.024106e-10
-3.822365e-10
-1.68198e-09
2.064217e-09
4.806357e-10
-1.787944e-09
1.307309e-09
-2.345722e-09
5.664744e-10
1.779247e-09
-4.514679e-10
1.698045e-09
-1.246577e-09
-9.964934e-10
1.186914e-09
-1.904205e-10
1.533155e-10
1.10188e-09
-1.255195e-09
-1.33507e-09
7.109531e-10
6.241167e-10
2.230256e-09
-4.382572e-09
2.152316e-09
-1.593606e-09
1.716472e-09
-1.228668e-10
4.411252e-10
-1.616053e-09
1.174928e-09
-1.024113e-09
1.900282e-09
-8.761688e-10
-4.860116e-10
-1.1426e-09
1.628611e-09
6.017032e-10
-1.711954e-09
1.11025e-09
-1.909521e-09
1.319271e-09
5.902501e-10
2.039591e-09
-1.118157e-09
-9.214333e-10
-4.800546e-10
-8.961313e-10
1.376186e-09
-4.229274e-11
-1.423118e-09
1.465411e-09
-1.680941e-09
-1.284089e-09
2.96503e-09
5.664721e-10
-1.50333e-09
1.158434e-09
8.07456e-10
-1.965891e-09
-2.472351e-09
-6.250177e-10
3.097368e-09
9.243822e-10
5.683435e-10
-6.39465e-10
-7.783062e-10
1.417771e-09
-9.136532e-10
-8.756639e-10
1.789317e-09
1.071007e-09
7.475435e-10
-1.818551e-09
-1.071243e-09
-4.467258e-10
-1.336654e-09
1.783379e-09
-1.156768e-09
1.801356e-09
-6.445883e-10
-1.57479e-09
7.069791e-10
-3.438539e-10
2.318691e-09
-1.974837e-09
1.679696e-09
-9.725266e-10
-7.071698e-10
2.383968e-09
-5.322885e-10
-1.851679e-09
1.245018e-10
-1.556548e-09
1.432046e-09
1.056663e-09
-2.06364e-09
1.006977e-09
9.452903e-10
5.429851e-10
-1.488275e-09
4.868219e-10
-2.10599e-09
1.619168e-09
-1.500908e-09
1.757616e-09
-2.567084e-10
1.56018e-09
-3.279113e-10
-1.232269e-09
1.34819e-09
-1.132323e-09
-2.15867e-10
1.227805e-09
1.082339e-10
-1.336039e-09
-1.187904e-09
-4.898707e-10
1.677775e-09
-1.046658e-09
-5.028122e-10
1.54947e-09
-1.590957e-09
-7.547649e-10
6.668712e-10
-1.982296e-09
1.315424e-09
2.338886e-10
-1.778184e-09
1.544295e-09
-1.509802e-09
5.306333e-10
9.791682e-10
8.121234e-10
-1.651648e-09
2.277527e-09
-2.116076e-09
-1.614515e-10
-2.286257e-10
-1.387808e-09
1.616433e-09
1.845761e-09
-1.551773e-09
-2.939885e-10
-3.313989e-10
-1.48165e-09
1.813049e-09
-2.47346e-10
-3.150464e-09
3.39781e-09
2.049955e-09
-1.301426e-09
-1.319324e-09
3.952468e-09
-2.633144e-09
-4.313648e-09
1.039282e-09
3.274366e-09
-1.724231e-09
1.282732e-09
4.414993e-10
-1.493828e-09
1.195687e-09
2.981415e-10
9.846966e-10
-1.486291e-09
1.586117e-09
-1.905936e-10
7.365761e-10
1.001633e-09
-1.73821e-09
-1.691795e-09
1.336626e-09
1.079035e-09
-2.305696e-09
1.255546e-09
-7.461752e-10
-5.093711e-10
7.216923e-10
-1.117293e-09
3.95601e-10
-2.191641e-09
1.399196e-09
7.924443e-10
-3.062532e-10
1.094856e-09
-7.886029e-10
-2.141952e-09
5.34193e-10
-6.513692e-11
1.444249e-09
-1.379112e-09
6.632284e-09
-4.693432e-09
-5.333335e-09
-7.745394e-10
6.107874e-09
1.062218e-09
-8.391481e-10
-2.230696e-10
-5.308422e-11
1.16335e-09
-1.816671e-09
2.222632e-09
-4.059606e-10
8.878963e-10
6.49469e-10
-1.537365e-09
-3.006178e-09
1.76087e-09
1.245308e-09
3.293709e-10
-1.843139e-09
1.513768e-09
6.882978e-10
8.644488e-10
-1.552747e-09
-1.621169e-09
9.935307e-11
1.521816e-09
-1.503634e-10
-1.419505e-09
1.569869e-09
7.234094e-11
-1.72196e-09
1.649619e-09
1.760349e-09
-1.319223e-09
4.442509e-11
-1.549355e-09
1.50493e-09
9.576818e-10
-2.239284e-09
1.281602e-09
4.710281e-10
-1.569516e-09
1.098488e-09
-9.128935e-10
1.984259e-09
-1.071366e-09
-1.943937e-09
6.296863e-11
1.880969e-09
1.945298e-09
2.312865e-10
1.255758e-09
1.152295e-10
-1.370987e-09
1.328814e-09
-6.096015e-10
-7.192122e-10
-8.090703e-10
-4.625909e-10
1.271661e-09
1.236435e-09
-1.973138e-09
7.367029e-10
-5.619049e-12
2.871763e-09
-2.866144e-09
1.962422e-09
-4.505284e-10
-1.511893e-09
1.196181e-09
-2.070029e-09
8.738476e-10
1.602197e-09
4.685319e-10
-2.070729e-09
2.082037e-09
-1.286897e-09
-7.951408e-10
1.274718e-09
3.074867e-10
-1.582205e-09
-6.13245e-10
1.795986e-09
-1.182741e-09
-1.40905e-09
9.532192e-10
4.558304e-10
-8.177663e-10
1.921373e-09
2.071578e-09
-1.033464e-09
-1.55257e-09
1.021109e-09
5.31461e-10
-8.206118e-11
-1.22739e-09
1.309451e-09
-1.410324e-09
1.296574e-09
1.137499e-10
7.174245e-10
-2.146199e-09
1.428775e-09
-2.361896e-11
1.696581e-09
-1.672962e-09
1.285731e-09
-1.160566e-09
-1.251646e-10
1.815938e-10
2.038096e-09
1.932085e-09
-1.476348e-09
-4.557372e-10
-2.864904e-09
4.635528e-09
-1.770623e-09
-5.405833e-10
-1.575346e-09
2.11593e-09
2.344152e-09
-1.105264e-09
-1.238888e-09
9.8806e-10
-1.67923e-09
6.911701e-10
1.809784e-09
-9.422832e-10
-8.675005e-10
-1.908445e-09
2.129191e-09
-2.207457e-10
-9.423102e-10
1.557334e-09
5.071844e-10
-2.064518e-09
1.159321e-09
6.952648e-10
-1.854585e-09
-1.47355e-09
1.590108e-09
-1.16558e-10
7.289171e-10
-1.038109e-09
3.091923e-10
-1.86201e-09
3.228432e-10
1.539166e-09
7.769337e-10
-1.903903e-09
1.126969e-09
4.231963e-09
-1.835879e-09
-2.396084e-09
-1.685304e-09
1.986167e-09
-3.008631e-10
2.065265e-09
-1.650266e-09
-4.149992e-10
-6.006467e-11
1.377676e-09
2.132333e-09
-1.660406e-09
1.817417e-09
-3.589954e-10
-1.458421e-09
2.004777e-09
-1.376103e-09
-6.286744e-10
5.586234e-11
1.645531e-09
-1.701393e-09
3.868728e-10
1.463759e-09
-1.850632e-09
1.421059e-09
-9.57769e-10
-4.632902e-10
-2.511903e-09
-2.381996e-09
-3.733495e-10
1.403581e-09
-1.030231e-09
-2.292214e-10
-1.83095e-09
2.060171e-09
-2.179366e-09
1.643788e-10
4.237838e-10
-1.917036e-09
1.493253e-09
-1.020621e-09
-5.298999e-10
1.550521e-09
-1.203468e-09
1.356914e-09
-1.534465e-10
1.829795e-09
-1.542101e-09
-2.876947e-10
1.41311e-09
-1.837905e-09
4.247953e-10
1.439395e-09
-1.036837e-09
-4.025573e-10
-1.586594e-09
1.531429e-09
5.516458e-11
8.125255e-10
-2.383276e-09
1.57075e-09
1.663487e-09
-1.695954e-09
3.246709e-11
-9.052219e-10
1.511648e-09
-6.064265e-10
-1.425355e-09
1.927294e-10
1.578846e-09
-5.097882e-10
-1.069058e-09
6.896501e-11
1.307239e-09
-1.376204e-09
-2.666459e-09
1.144848e-09
1.521612e-09
-2.485713e-10
1.567503e-09
-1.318932e-09
-5.719462e-10
-1.206991e-09
2.771507e-09
-1.564516e-09
-2.669924e-10
-1.065253e-09
1.332245e-09
1.999205e-09
-6.292397e-10
-1.369966e-09
1.19538e-09
-8.86195e-10
-3.091846e-10
-1.80251e-09
1.267144e-09
5.353657e-10
2.699834e-10
-2.417105e-09
2.147122e-09
-4.006248e-09
2.319337e-09
1.686911e-09
-4.831596e-09
1.520847e-09
3.310749e-09
2.942415e-09
-3.802298e-09
1.220595e-09
-2.087164e-09
8.66569e-10
-5.692498e-10
1.789845e-09
1.890991e-09
-9.000165e-10
-9.909746e-10
-2.187639e-09
1.328417e-09
1.357448e-09
-8.132178e-10
-5.442303e-10
8.558305e-10
-2.450247e-09
1.594416e-09
1.657401e-09
-1.285913e-09
-1.519929e-09
1.648367e-09
1.540183e-09
-9.751977e-11
-1.577599e-09
1.736142e-09
-1.585428e-10
-1.193091e-09
-4.305346e-10
4.143924e-10
-1.530313e-09
1.115921e-09
-1.791706e-09
1.398618e-09
3.930879e-10
2.075688e-09
-3.166985e-10
-1.758989e-09
-1.904925e-09
6.404641e-10
1.264461e-09
1.335166e-09
-5.9859e-10
1.343851e-09
4.09871e-10
-1.753722e-09
1.855651e-09
6.255034e-11
-1.918201e-09
-3.949747e-09
9.41414e-10
3.008333e-09
-1.30404e-09
-2.740351e-10
1.578075e-09
-6.452459e-09
1.728398e-09
4.724061e-09
-1.937847e-09
-2.565993e-10
2.194446e-09
3.404181e-10
-1.836612e-09
1.496193e-09
3.353205e-09
1.23836e-10
-2.40774e-09
1.706852e-09
7.008881e-10
1.201853e-09
-5.989666e-10
-6.028867e-10
-3.499706e-11
-1.886382e-09
1.921379e-09
1.438449e-09
4.031654e-10
-1.841614e-09
-1.674311e-09
1.125303e-09
5.49008e-10
1.476311e-10
-1.415868e-09
1.268237e-09
-1.996177e-09
6.498575e-10
1.34632e-09
4.39987e-10
-4.753635e-09
1.413469e-09
-1.008892e-09
-4.045764e-10
9.638386e-10
4.991926e-10
-1.463031e-09
8.937546e-10
-1.847869e-09
5.766202e-10
1.271249e-09
-4.5412e-09
6.64928e-10
3.876272e-09
1.555118e-09
2.156129e-10
-1.770731e-09
-1.695222e-10
1.74088e-09
-1.571357e-09
-7.993928e-10
1.201709e-09
7.296771e-10
1.186373e-09
-1.91605e-09
8.289809e-10
-1.606719e-09
7.777381e-10
-1.645614e-09
7.142887e-10
-1.910549e-09
1.051235e-09
8.593146e-10
-1.293713e-09
1.051924e-09
-9.042911e-10
9.343962e-10
-3.010511e-11
-1.251974e-09
2.092669e-09
-8.406953e-10
1.07744e-09
1.26025e-09
2.176929e-09
1.080894e-09
-3.257822e-09
-5.425067e-10
-1.497139e-09
2.039645e-09
-1.9211e-09
1.78337e-09
1.377302e-10
-6.367185e-10
-1.021445e-09
-7.956629e-10
3.15107e-09
-2.355407e-09
1.458423e-09
-2.076881e-10
1.269768e-09
-1.75029e-09
4.805217e-10
-8.911241e-10
1.712463e-09
-8.213391e-10
7.570758e-10
-1.946506e-09
1.189431e-09
-3.014058e-09
1.73752e-09
1.276539e-09
-1.994971e-10
-1.010929e-09
1.210426e-09
-9.687987e-11
1.188e-09
-1.09112e-09
-4.759869e-09
1.019592e-09
-2.035246e-09
1.015653e-09
-9.291034e-10
1.715755e-09
-7.866519e-10
9.741107e-12
1.405108e-09
-1.414849e-09
9.122517e-10
6.657071e-10
-1.778671e-09
9.43777e-10
8.34894e-10
1.651054e-09
-2.674046e-10
-1.38365e-09
6.127429e-10
5.490278e-10
-1.161771e-09
1.759493e-09
-6.614173e-10
-1.098076e-09
2.244265e-09
8.047824e-10
-3.049047e-09
1.767139e-09
-2.999726e-10
9.396368e-10
-2.179445e-10
-1.162049e-09
3.783105e-10
2.117763e-10
1.705282e-09
-1.917058e-09
-9.259901e-10
-8.305881e-10
1.756578e-09
1.052545e-09
-1.512053e-09
4.595078e-10
-8.353089e-10
1.700916e-09
-8.656069e-10
6.524213e-10
-1.384239e-09
7.318177e-10
2.919543e-10
1.184857e-09
-1.476812e-09
-1.534427e-09
7.643153e-10
7.701118e-10
9.031715e-10
-1.765616e-09
8.624446e-10
1.700806e-09
-5.380725e-10
-1.162733e-09
-8.433976e-10
1.806426e-09
-9.630287e-10
-1.307089e-09
2.231471e-09
-1.127918e-09
1.406371e-09
-2.784531e-10
-3.371002e-09
8.986517e-10
-1.511062e-09
1.328299e-09
1.827634e-10
-7.424095e-10
-1.521763e-09
2.264172e-09
1.059729e-09
-1.112813e-09
6.985544e-10
-1.61242e-09
9.138651e-10
1.262005e-09
6.899128e-10
-1.951918e-09
-7.764232e-10
-1.055803e-09
1.832226e-09
2.017289e-09
-6.662961e-10
-2.330017e-09
7.485318e-10
1.581485e-09
1.845202e-09
2.797072e-10
-2.124909e-09
1.928298e-09
-3.113401e-09
1.185103e-09
-3.156468e-10
-1.393709e-09
1.709356e-09
-1.088197e-09
-7.42049e-10
1.830246e-09
-7.885636e-10
-1.082846e-09
1.87141e-09
-2.023448e-09
6.13124e-10
-1.220226e-09
1.671801e-09
1.432233e-09
-8.194901e-10
6.472636e-10
-2.472874e-09
4.120539e-10
-1.28567e-09
9.103807e-10
3.752889e-10
-2.726335e-09
3.866009e-09
-1.139674e-09
5.00834e-10
1.450022e-09
1.631936e-09
-1.666671e-09
3.47343e-11
1.296806e-09
-2.492688e-10
-1.047537e-09
9.313992e-10
9.668855e-10
-1.898285e-09
1.376552e-09
3.906286e-10
1.905602e-09
-1.207047e-09
1.263405e-09
-1.294716e-09
3.131111e-11
1.387889e-09
-1.117678e-09
-2.702104e-10
1.690438e-09
-9.297914e-10
-7.606469e-10
1.204847e-09
1.98126e-11
-1.224659e-09
4.301609e-11
1.684946e-09
-1.727963e-09
9.201673e-10
-2.031196e-09
1.130494e-09
-8.309668e-10
1.36255e-09
-5.315837e-10
2.023727e-09
-1.363845e-09
-6.598814e-10
-1.519579e-09
1.590417e-09
-7.083791e-11
3.12011e-09
-5.909132e-09
2.789023e-09
-4.157379e-09
4.184246e-09
-2.686717e-11
1.299115e-09
-1.25469e-09
-1.019055e-09
-8.706624e-10
1.889717e-09
1.91382e-09
-1.257268e-09
-6.565525e-10
2.042831e-09
-3.758345e-10
-1.666997e-09
-6.963049e-10
-1.02971e-09
1.726015e-09
-1.574594e-09
-2.194468e-10
-8.273477e-11
-1.334557e-09
1.417292e-09
1.158337e-09
1.883936e-09
-3.042273e-09
4.882194e-10
-1.310743e-09
8.225238e-10
-7.022485e-10
-6.342165e-10
1.336465e-09
-9.689605e-10
-3.63849e-10
1.332809e-09
1.761235e-09
3.787813e-10
1.061239e-09
8.518498e-13
-1.062091e-09
1.636802e-09
-1.740899e-09
1.040976e-10
-9.5537e-10
1.185469e-09
-2.300989e-10
-1.330735e-09
4.33933e-10
-1.084014e-09
8.453816e-10
2.38632e-10
2.186441e-09
-7.881861e-10
-1.398255e-09
-1.989219e-09
1.088718e-09
9.005012e-10
-1.364993e-09
1.398072e-09
-3.307913e-11
-6.626973e-10
1.733705e-09
-1.008269e-09
1.606645e-09
-5.983761e-10
2.642649e-10
1.52799e-09
-1.792255e-09
-7.83242e-10
-7.687019e-10
1.551944e-09
-1.488275e-09
-2.573512e-10
1.745627e-09
-1.2575e-09
3.590052e-11
-1.833349e-09
4.517499e-10
1.381599e-09
3.269908e-11
-2.172475e-09
2.139776e-09
1.689751e-09
3.602038e-10
-1.239213e-09
2.424595e-10
9.967531e-10
-3.584422e-09
2.661979e-09
9.22443e-10
-1.197361e-09
1.68558e-09
1.34568e-10
-4.084315e-09
-1.620845e-09
-3.753323e-10
8.251532e-09
-8.251532e-09
1.639715e-09
-1.460977e-09
-1.797192e-09
5.941383e-10
1.203054e-09
1.157083e-09
7.353415e-10
-1.892425e-09
-1.419776e-09
4.822977e-09
1.189495e-09
6.819893e-09
-8.009388e-09
-1.187717e-09
1.851859e-09
-6.641421e-10
6.838525e-10
-1.803382e-09
1.11953e-09
1.040438e-09
-2.701856e-10
1.026956e-09
-1.479786e-09
4.528302e-10
9.596686e-10
-1.983782e-09
2.023208e-09
-4.439737e-10
-1.579235e-09
1.304457e-09
9.16908e-10
-2.221365e-09
2.045757e-09
-2.985718e-10
9.346034e-10
1.019281e-09
4.001584e-10
1.369478e-09
-1.905148e-09
1.858187e-09
-1.785846e-09
1.879686e-09
2.403547e-10
-2.120041e-09
1.447972e-09
1.51833e-10
-1.599805e-09
-1.17922e-09
1.680054e-09
-5.545946e-10
-4.549621e-09
5.104215e-09
-1.981788e-10
-1.352617e-09
1.550796e-09
8.713038e-10
-9.681837e-10
1.584572e-09
-1.60302e-09
5.823992e-10
2.801134e-09
1.212037e-10
-2.922337e-09
1.220255e-09
-8.81278e-10
-3.389775e-10
6.08553e-10
1.024883e-09
-1.633436e-09
1.056633e-10
1.332786e-09
1.357637e-09
-1.971706e-09
6.140687e-10
-1.881259e-10
-2.538209e-09
2.912217e-10
-1.436915e-09
1.145694e-09
-1.263486e-09
1.278636e-09
-1.125321e-09
-1.071203e-09
1.079138e-09
-7.934681e-12
1.889532e-09
4.317709e-10
-2.321303e-09
6.454255e-11
1.752874e-09
1.353155e-09
-1.310139e-09
4.219999e-10
-1.617809e-09
1.195809e-09
2.154616e-11
-1.352281e-09
2.298239e-10
1.179924e-09
-1.776981e-09
3.092953e-10
-1.76667e-09
1.413613e-09
3.530562e-10
-2.061308e-09
2.29715e-10
1.831593e-09
-1.931591e-10
-1.453496e-09
1.646656e-09
1.372748e-09
5.448254e-10
-1.917573e-09
2.091501e-10
-1.249047e-09
1.039897e-09
2.364327e-09
1.744726e-09
1.368658e-10
-1.247073e-09
1.679248e-10
1.079149e-09
-1.124446e-09
-1.811693e-09
2.936139e-09
5.019667e-10
1.574461e-09
-2.076427e-09
-2.177083e-09
3.211686e-10
4.773826e-10
-2.343269e-09
1.865886e-09
-6.348124e-10
-4.135847e-11
-1.391234e-09
1.789162e-09
-2.667356e-10
-1.522427e-09
8.342455e-10
-1.564638e-09
7.303925e-10
-4.547663e-09
4.584615e-09
-3.695194e-11
-1.633696e-09
1.341258e-09
3.759099e-09
-4.264681e-09
5.055818e-10
6.407626e-09
1.895254e-09
6.440987e-10
1.247519e-09
-1.891617e-09
1.686903e-09
-2.629213e-09
1.411363e-09
-1.745803e-09
3.344403e-10
9.454619e-10
4.119862e-10
6.692199e-10
8.320763e-10
-1.501296e-09
-1.789364e-09
2.458583e-09
-1.346516e-09
1.013476e-09
3.330398e-10
1.724942e-11
1.593794e-09
-1.611043e-09
1.807254e-09
-1.874943e-09
9.899202e-10
4.001087e-10
1.102711e-10
1.799105e-09
-1.909377e-09
4.119274e-10
1.375635e-09
-1.716384e-09
3.40749e-10
1.565779e-09
-2.187959e-09
1.152738e-10
9.444548e-10
-1.798349e-09
2.031429e-09
-2.330797e-10
6.159726e-10
1.484154e-09
-2.100127e-09
-1.180824e-09
-4.550467e-10
1.635871e-09
6.785867e-10
-3.524373e-10
-7.512221e-10
1.103659e-09
-6.552094e-11
1.620639e-09
3.56327e-10
-1.800848e-09
1.444521e-09
9.588124e-10
4.546563e-10
-1.160924e-09
-3.503755e-10
1.5113e-09
-1.48767e-10
1.611335e-09
-1.462568e-09
5.161381e-10
1.237952e-09
-1.75409e-09
-8.223762e-10
-8.1132e-10
-2.842981e-10
-2.580134e-09
-2.89234e-10
1.846989e-09
5.279107e-10
-1.188993e-09
6.610824e-10
-8.911812e-11
1.710858e-09
-1.62174e-09
7.104097e-10
-1.395096e-09
6.846861e-10
-2.211643e-09
6.687575e-10
1.542886e-09
-2.938902e-10
1.942417e-09
-1.648527e-09
1.171703e-09
1.396362e-10
-1.311339e-09
1.10622e-09
8.292394e-10
-1.93546e-09
-4.846442e-10
-1.238556e-09
1.7232e-09
1.180088e-09
-1.876393e-09
-1.265514e-09
-2.731605e-10
1.538674e-09
1.063055e-09
-1.929938e-09
-1.462779e-09
1.403325e-09
5.94547e-11
-1.545109e-09
-1.768512e-10
-1.581851e-09
1.775442e-09
-1.935914e-10
8.201732e-10
-1.745117e-09
9.249436e-10
-1.980441e-09
4.863484e-10
1.494093e-09
-9.56813e-11
1.048188e-09
-9.52507e-10
-8.144257e-10
8.393534e-09
-7.579108e-09
-1.095176e-09
1.306952e-09
-2.051308e-09
8.666553e-10
1.184653e-09
1.387008e-09
4.575409e-09
-4.191771e-10
-4.156232e-09
1.431274e-09
-1.996799e-09
3.072174e-09
-4.49195e-09
7.405811e-10
5.94585e-10
1.539218e-09
-1.940002e-09
6.636143e-10
1.276388e-09
8.776699e-09
-8.776699e-09
1.17984e-09
-1.220223e-09
4.038306e-11
1.763392e-11
-2.173112e-09
-1.786077e-10
-1.693199e-09
1.871806e-09
-1.416712e-09
1.357476e-09
5.923548e-11
2.469534e-10
1.271599e-09
-1.518553e-09
1.239117e-09
1.753148e-10
-1.414432e-09
-5.282273e-10
2.150973e-09
-1.622746e-09
-2.647073e-10
-1.164872e-09
1.42958e-09
-3.604048e-10
-1.487464e-09
1.96873e-09
-5.13214e-10
-1.318504e-09
1.167435e-09
1.510695e-10
-6.449015e-10
1.841813e-09
-1.196912e-09
-4.658766e-10
2.021864e-09
-1.925483e-10
-1.687083e-09
1.879632e-09
-5.907313e-10
-1.328553e-09
1.919284e-09
3.599351e-10
1.439991e-09
-1.799926e-09
5.618755e-10
1.103725e-09
-1.95527e-09
5.902777e-10
-1.221824e-09
-6.033017e-10
1.825126e-09
-1.77974e-09
3.889291e-10
1.390811e-09
-2.100359e-09
1.639472e-10
1.936412e-09
3.56713e-10
-1.96012e-09
1.603407e-09
-1.781488e-09
1.218527e-09
-1.84574e-09
6.272127e-10
-1.884687e-09
1.590797e-09
1.283396e-09
-2.757515e-09
1.474119e-09
-4.173957e-09
2.075555e-09
2.098402e-09
-1.971937e-09
-6.945224e-10
9.016135e-10
-1.483599e-09
5.819853e-10
1.786337e-09
-9.776398e-10
-8.086969e-10
-1.247491e-09
4.972182e-10
1.76788e-09
-2.089111e-09
3.212314e-10
-1.192526e-09
-9.06084e-11
6.80672e-09
-4.169149e-09
-2.637571e-09
-1.28348e-09
4.133216e-10
8.701583e-10
7.904126e-10
-1.564862e-09
-1.126797e-09
-3.958426e-10
1.522639e-09
1.052365e-09
-1.280949e-09
-7.777342e-10
-4.649709e-10
1.242705e-09
2.690176e-09
4.923776e-09
-9.602767e-10
1.815034e-09
-8.547569e-10
1.843819e-09
2.291203e-11
-1.866731e-09
8.119696e-10
-2.107946e-09
-2.723649e-09
-8.739465e-10
2.017592e-09
-1.57076e-09
1.549486e-09
-8.002374e-10
-7.492486e-10
2.698321e-10
1.251809e-09
-1.521641e-09
3.742621e-10
-9.707831e-10
-3.593437e-10
-1.053868e-09
-4.114415e-09
5.54625e-10
1.005555e-09
1.510367e-09
-1.354867e-09
-1.555006e-10
4.902823e-10
-1.53694e-09
1.50937e-09
-5.16083e-10
8.941748e-10
3.288809e-10
-1.223056e-09