/*--------------------------------*- C++ -*----------------------------------*\
| =========                 |                                                 |
| \\      /  F ield         | OpenFOAM: The Open Source CFD Toolbox           |
|  \\    /   O peration     | Version:  2406                                  |
|   \\  /    A nd           | Website:  www.openfoam.com                      |
|    \\/     M anipulation  |                                                 |
\*---------------------------------------------------------------------------*/
FoamFile
{
    version     2.0;
    format      ascii;
    arch        "LSB;label=32;scalar=64";
    class       volVectorField;
    location    "0.38";
    object      U;
}
// * * * * * * * * * * * * * * * * * * * * * * * * * * * * * * * * * * * * * //

dimensions      [0 1 -1 0 0 0 0];

internalField   nonuniform List<vector> 
4536
(
(0.008720701 -0.001500302 -1.039895e-23)
(0.01011542 0.0007395779 0)
(0.01099498 -0.0008805397 -1.078142e-24)
(0.007978038 -0.001622049 -5.176694e-24)
(0.009348792 -4.111527e-05 -2.569125e-23)
(0.009063453 -0.0003310268 1.778624e-23)
(0.01010001 0.0006744908 -7.785713e-24)
(0.01018214 0.0006679596 -1.424918e-23)
(0.01142519 0.0003363714 1.05653e-26)
(0.009751671 0.0007494762 4.352812e-24)
(0.01084201 -0.0009159625 0)
(0.01127499 -0.0005488925 0)
(0.009948776 -0.001389159 -2.335617e-24)
(0.009804153 0.0004558613 0)
(0.01010073 0.0008589415 -1.600603e-23)
(0.01083935 0.0005097633 1.407683e-23)
(0.00989671 0.001245899 9.853502e-24)
(0.01085871 -0.001011951 0)
(0.009526582 -0.0002112067 -3.239402e-24)
(0.008478494 0.002599482 1.010411e-23)
(0.01015009 0.0004340844 7.800665e-24)
(0.01023277 0.0006732061 1.205653e-23)
(0.0114221 -0.000100306 -6.173266e-26)
(0.0102932 0.001340408 -5.99688e-24)
(0.01152347 -5.574848e-05 0)
(0.00870578 0.0003542759 0)
(0.01036294 0.0007061525 5.556195e-24)
(0.01011715 0.0005200765 -3.396939e-26)
(0.007843887 -0.001491249 0)
(0.01110585 -5.805979e-05 -6.597904e-24)
(0.01102413 0.001254925 0)
(0.01103568 -0.0006686533 -1.335255e-25)
(0.009724926 0.0009197393 3.727368e-23)
(0.01100536 0.0004216336 5.322192e-24)
(0.010611 0.0003730403 3.323707e-24)
(0.009761538 0.000628386 0)
(0.01003267 0.0005397011 -5.5369e-24)
(0.009997403 0.0001656255 0)
(0.01011113 0.0005845339 6.407263e-24)
(0.01077578 0.0005182232 3.34251e-24)
(0.01063801 0.001282896 4.136387e-24)
(0.01124855 0.0006277031 2.209428e-26)
(0.01006067 0.0005548716 0)
(0.008791965 0.001290819 2.03051e-23)
(0.01037697 0.0004818908 5.37469e-24)
(0.008693074 -0.001452987 -6.226713e-24)
(0.01030899 0.001255066 0)
(0.01105255 0.0008650277 0)
(0.01068673 -0.001128416 0)
(0.009669788 0.001070704 -1.735069e-23)
(0.009568344 0.00254432 0)
(0.009233254 0.0008358492 2.187052e-23)
(0.01040699 0.0008054096 9.040518e-24)
(0.01127783 -0.0005828897 -1.349415e-24)
(0.008577747 -9.010175e-05 0)
(0.009797329 0.000417232 0)
(0.00929774 0.0006208168 3.668818e-23)
(0.01088623 0.001091149 0)
(0.009331082 -0.0006666544 0)
(0.01068584 -0.001097198 1.294872e-24)
(0.008934541 0.002224579 -3.335315e-24)
(0.01068693 0.001378647 5.048621e-24)
(0.01083167 -0.00101653 0)
(0.009958536 0.001336313 2.375965e-23)
(0.01061058 0.000686123 1.884418e-23)
(0.0113479 0.0002306745 -4.242296e-24)
(0.01012102 0.0007989939 -6.257436e-24)
(0.01131408 0.0004855574 4.373e-24)
(0.01009887 7.803269e-05 -4.07676e-24)
(0.01142102 0.0002139758 -1.648086e-25)
(0.01071807 0.00106892 0)
(0.009675016 0.0008134607 3.078266e-23)
(0.01146031 -0.0001030701 0)
(0.00973793 -0.001402557 0)
(0.01001407 0.000130733 6.937824e-24)
(0.01146129 -0.0002631148 0)
(0.01142366 0.0009609641 0)
(0.01005899 0.001041157 0)
(0.009269371 -0.001416448 0)
(0.0110056 -0.0003654219 -8.427943e-25)
(0.01082812 0.001206597 0)
(0.007575259 -6.285539e-05 0)
(0.005760032 0.002103118 3.662945e-23)
(0.01009918 -0.001303997 4.775122e-24)
(0.009437888 0.001260455 0)
(0.01067774 0.001152849 -1.299247e-23)
(0.01054888 0.0008331535 0)
(0.01043053 0.0005257691 -1.488512e-23)
(0.01079109 0.0009392126 0)
(0.008774838 0.002658505 1.160971e-23)
(0.01009005 0.0008041943 7.366807e-24)
(0.00949088 0.0003179508 -1.956729e-23)
(0.009615071 0.0006167874 0)
(0.01114858 0.001311346 1.749525e-24)
(0.01031466 0.00098822 1.140082e-23)
(0.00997018 0.0004192468 -8.829851e-24)
(0.01154855 6.921892e-05 -1.154993e-24)
(0.01012384 0.0008930018 1.970344e-23)
(0.008856191 -0.001386954 -8.732249e-24)
(0.0110252 -3.392671e-05 1.541269e-24)
(0.007751104 -0.001622864 0)
(0.01121553 -0.0003364863 7.595258e-25)
(0.01094587 0.0004613172 0)
(0.009958164 0.0002362307 1.710405e-24)
(0.0100381 -0.001303104 -9.630584e-24)
(0.01091877 -0.0009753685 0)
(0.01085845 0.0008308718 -7.292903e-24)
(0.01047051 -0.001211458 0)
(0.01063337 0.001627086 0)
(0.01056264 0.002028957 0)
(0.006535881 0.001442014 -3.300363e-23)
(0.009924193 0.00121256 -6.812552e-24)
(0.01025116 0.0006055922 1.542915e-23)
(0.009565526 0.0007321195 0)
(0.01003364 0.0006843148 2.524798e-24)
(0.01145197 -0.0001554007 3.461222e-25)
(0.009026353 -0.001561614 4.765392e-24)
(0.01036108 0.0006446953 9.467394e-24)
(0.009908971 0.0006192646 0)
(0.01116695 0.0003872584 7.803796e-26)
(0.01140915 2.107651e-06 4.520588e-25)
(0.01096286 0.0002785161 -6.611598e-24)
(0.01123928 -0.000450329 1.405408e-24)
(0.01041571 0.0006926225 0)
(0.01062227 0.001799745 7.430288e-25)
(0.007790757 0.002686271 -1.829063e-23)
(0.009892816 0.0003866583 -1.226862e-23)
(0.01065915 0.0005790538 -7.859491e-24)
(0.01140658 0.001043666 4.000888e-24)
(0.009692223 0.0004655456 0)
(0.008962059 -0.001549823 0)
(0.01137947 -0.0004436541 -3.237459e-25)
(0.008935758 0.0007388887 0)
(0.01028527 0.0005757978 1.538794e-23)
(0.008448276 0.0007564351 6.706539e-25)
(0.01018254 0.0005108209 9.790978e-25)
(0.009703109 -0.00144298 0)
(0.01154317 0.0003848708 1.001848e-24)
(0.01011139 0.0005077136 0)
(0.01094588 0.0005379 -4.110292e-24)
(0.009974581 0.0002239286 0)
(0.01097854 -0.0002091349 0)
(0.01115526 0.0005556992 0)
(0.009755291 0.0007163657 -1.462256e-23)
(0.01021765 0.0005146615 1.013129e-25)
(0.01071742 -0.001064813 -1.036304e-24)
(0.01100838 0.001569303 -1.044396e-24)
(0.009933682 0.002249544 2.653003e-24)
(0.01013411 0.0008744231 -1.221775e-23)
(0.008630807 5.656956e-05 -3.030098e-23)
(0.01026829 0.0007369294 0)
(0.01002049 0.0005241108 1.866985e-23)
(0.0112277 -0.0002406115 -2.301982e-25)
(0.01072211 0.0004787917 0)
(0.009322106 0.0001208623 2.989482e-23)
(0.009323784 0.0006911324 5.768404e-24)
(0.00949788 8.473585e-05 1.551621e-23)
(0.01117962 0.001398543 1.045485e-23)
(0.00997415 0.001024334 -1.675324e-24)
(0.01137239 -0.0004205049 1.693073e-25)
(0.01154055 0.0005795509 0)
(0.01000096 0.0002049022 4.894903e-25)
(0.01143737 -0.0001841182 0)
(0.009837206 0.0005100534 -3.028011e-23)
(0.006776173 0.002876151 2.760885e-23)
(0.01002167 0.0003323701 -2.323351e-23)
(0.01129468 0.0003795665 -3.026311e-24)
(0.01041461 0.0006123003 0)
(0.01114385 -0.0005823516 -1.778945e-25)
(0.008589423 0.002456684 -3.121959e-23)
(0.009542716 3.448532e-07 -3.033375e-23)
(0.009975589 0.0005206795 0)
(0.01063304 0.0003121688 -1.021651e-23)
(0.005653113 0.001812867 4.628681e-23)
(0.0106563 0.001047579 -2.763102e-25)
(0.009397177 -6.818555e-05 -8.122807e-24)
(0.01154968 0.0005527181 -1.915158e-24)
(0.01021161 0.0006230014 -1.745637e-24)
(0.01004606 0.001827764 0)
(0.01066888 0.0006897507 0)
(0.01092637 0.0007070702 -2.894553e-24)
(0.01012018 0.0004863278 -4.862594e-24)
(0.00723574 0.0005311857 0)
(0.009803078 0.0001052947 1.264984e-23)
(0.009137834 -0.0002402587 -1.50441e-23)
(0.007888679 0.0005201192 -2.638757e-23)
(0.01122205 -0.0004655646 -1.587807e-26)
(0.01068019 0.001012876 -1.405483e-23)
(0.01152073 0.0005821079 -2.302965e-24)
(0.01056035 0.0008552513 0)
(0.01138036 -0.0004367372 2.738301e-25)
(0.007956189 -0.001531159 -4.24165e-24)
(0.01152857 -5.419162e-05 0)
(0.009755347 -0.001420505 6.755761e-25)
(0.01109549 -0.0006099547 -5.219e-25)
(0.008409546 0.001418445 -2.325689e-23)
(0.008581999 0.001972877 0)
(0.009186447 0.001722679 1.851586e-23)
(0.009152713 0.001486473 0)
(0.009899696 0.0006719979 -5.674134e-24)
(0.01053163 0.00185414 -3.594086e-24)
(0.01063727 0.00135602 -3.973174e-24)
(0.01015333 0.0005999092 6.377497e-24)
(0.0101928 0.0007038728 0)
(0.01000802 0.000155033 0)
(0.01032735 0.001497975 0)
(0.01073497 0.001276323 1.19009e-23)
(0.01020223 -0.001301627 -6.860781e-24)
(0.01019897 0.001007765 0)
(0.008090298 0.002859196 -7.724383e-24)
(0.009969133 -0.001416089 4.867554e-24)
(0.01029892 0.0002499978 0)
(0.01123593 0.001299079 -6.876224e-24)
(0.008635542 0.0007556119 0)
(0.01077714 0.0006477057 0)
(0.01014061 0.000505587 -1.8917e-23)
(0.01092101 -0.000945027 1.346296e-24)
(0.01121629 0.0001632192 -3.467302e-24)
(0.009904699 0.0005929402 0)
(0.009761122 0.001007348 5.121426e-24)
(0.01131422 0.00121886 -4.737417e-24)
(0.01060173 0.0007457026 -7.015202e-24)
(0.01134819 0.0007989481 1.312587e-26)
(0.01137856 -0.0002579437 -2.048867e-24)
(0.01148591 -0.0001694379 3.509144e-26)
(0.01068112 0.0008530408 1.103956e-23)
(0.01054092 0.001096043 1.821343e-23)
(0.009348519 -0.001532749 -9.093199e-24)
(0.01032994 0.001405761 4.513067e-24)
(0.01061134 -0.001163096 0)
(0.01090525 0.0009827202 -5.433026e-24)
(0.01082251 -0.001027746 0)
(0.01121941 0.0001873173 0)
(0.009314198 0.00126374 1.862972e-23)
(0.01126837 0.001188042 2.388057e-24)
(0.009106535 0.001072687 0)
(0.006773954 2.854593e-05 -4.29827e-23)
(0.009761845 0.0008471975 -8.757732e-24)
(0.01027657 0.0006866582 -4.758114e-24)
(0.01127267 0.0008766316 4.273731e-24)
(0.0112803 -0.0005934359 4.666785e-25)
(0.009410289 0.0005293715 -1.983349e-23)
(0.01094955 0.0003868668 6.054953e-24)
(0.01080621 0.0008305777 -1.208441e-23)
(0.0093165 -4.56043e-05 5.252249e-25)
(0.01088146 -2.532654e-05 1.10442e-24)
(0.0112021 -8.444595e-05 -2.282267e-24)
(0.01024681 0.0001701919 1.452723e-24)
(0.01010007 0.0006082737 -1.160668e-23)
(0.01094353 0.0001867403 7.695034e-25)
(0.01133749 0.0004052996 -6.817264e-25)
(0.009580581 0.000447455 -2.847636e-23)
(0.007683621 0.000733595 -3.257448e-23)
(0.007161042 0.00197364 0)
(0.009437053 0.0005588409 -1.624218e-23)
(0.01048079 0.002094321 -1.001784e-23)
(0.01150089 0.0001595278 -2.492915e-24)
(0.0105296 0.001892478 0)
(0.0111991 -0.0004291109 -1.133095e-24)
(0.01131922 -0.0004101515 -7.444547e-25)
(0.0100851 0.000529189 -2.232274e-23)
(0.01029331 0.0008621831 1.903005e-23)
(0.009546491 0.0003881823 6.369244e-25)
(0.008417862 -0.001517602 6.484925e-24)
(0.006303963 0.001552752 -3.676116e-23)
(0.01142431 -6.995567e-05 2.56128e-24)
(0.01080895 0.0001078801 -6.098334e-24)
(0.01121268 0.001011192 8.181112e-24)
(0.009118511 0.000730658 -1.403215e-25)
(0.009743659 0.001066522 -1.205632e-25)
(0.01097996 -0.0008737263 1.67217e-24)
(0.01102662 0.0005181215 -6.441354e-24)
(0.008455554 -0.001610367 3.742856e-24)
(0.009539459 0.000987591 -8.834537e-24)
(0.01019615 0.0005967708 -3.880838e-24)
(0.01088515 2.605183e-05 -7.543116e-25)
(0.0112829 0.00128009 -1.134729e-24)
(0.01110111 0.000215216 6.015117e-24)
(0.009688025 0.0002657807 2.574439e-23)
(0.008992974 2.577564e-05 -2.126384e-23)
(0.01088417 0.001541266 8.389466e-24)
(0.009927751 0.001683413 2.453407e-24)
(0.008290096 0.001092155 1.774059e-23)
(0.01002559 0.0004333257 1.689056e-23)
(0.009397147 -0.00148842 0)
(0.01126824 0.001295245 5.0212e-24)
(0.0110676 0.001106136 -7.484863e-24)
(0.008208824 0.001659673 3.047225e-24)
(0.009931616 0.0004002316 6.504426e-24)
(0.01123379 -0.000405358 -1.537333e-24)
(0.01131553 -0.0005076119 0)
(0.01136082 0.0003128571 7.705541e-25)
(0.01078969 0.001641865 -6.651366e-24)
(0.0101869 0.001060766 3.092468e-23)
(0.01025168 0.001455478 0)
(0.01036317 0.001197458 1.58689e-23)
(0.01135579 0.0002057416 -6.408829e-24)
(0.01117688 0.000560298 6.448497e-24)
(0.01011846 0.001199439 1.183918e-23)
(0.01012721 0.0005208362 -5.446748e-24)
(0.01121937 0.0003948688 3.150895e-25)
(0.0112977 0.0002492496 0)
(0.01131541 0.0009166964 4.352224e-24)
(0.01099887 -0.0008602752 7.111315e-25)
(0.008527705 -0.001466082 5.994664e-24)
(0.008411626 -0.001550635 -8.92335e-25)
(0.00808466 -0.001615573 2.238864e-24)
(0.01106684 -0.0002794046 1.725597e-24)
(0.01143064 0.0008442752 0)
(0.009638415 0.0008688261 1.540857e-23)
(0.0104527 0.0007585952 0)
(0.008581446 0.0004421552 2.122461e-23)
(0.008929031 -0.0001070955 -5.277781e-23)
(0.01078447 0.0006917593 2.192357e-23)
(0.01001979 0.0005606261 8.60659e-25)
(0.01033909 0.0007424764 -1.765962e-23)
(0.01003686 0.001319669 7.645919e-24)
(0.009765509 0.000170568 -1.014501e-23)
(0.01031195 0.0009617894 8.909937e-24)
(0.01034366 0.0008674134 1.089881e-23)
(0.0101167 0.0003573513 0)
(0.01030989 0.0008763501 8.922635e-24)
(0.01029119 0.0007374963 9.263225e-24)
(0.01039089 0.0007360145 -1.228574e-23)
(0.009507124 0.0009062421 0)
(0.008544168 0.0007106765 -6.444584e-25)
(0.01111781 0.0009853852 2.003727e-24)
(0.01016028 0.0007620217 1.536022e-23)
(0.0101024 0.0005084507 -1.748498e-23)
(0.01121821 0.0007925295 3.264174e-24)
(0.01142298 6.051585e-05 0)
(0.01123199 0.0007059826 -8.361662e-24)
(0.01126537 -0.0004530658 0)
(0.01152923 6.010362e-05 -1.192748e-24)
(0.008316891 -0.001586667 4.56151e-24)
(0.0112867 -3.759841e-05 -2.24487e-24)
(0.01019462 0.001809451 -7.505125e-24)
(0.009593777 0.001475652 1.458007e-23)
(0.009982694 0.001758715 2.979229e-23)
(0.009876256 0.001479408 2.204938e-23)
(0.01144951 0.0003860786 0)
(0.009024803 0.001593149 1.586708e-23)
(0.01128255 0.000968561 -4.533362e-24)
(0.01021801 -0.000458873 0)
(0.01087953 0.001397915 0)
(0.008354779 0.000924796 -1.8334e-23)
(0.01019806 0.0006274227 0)
(0.01094924 0.0005999729 1.72013e-23)
(0.01014729 0.001077054 4.239195e-24)
(0.01026619 0.002086146 7.615549e-24)
(0.009437308 0.0003803784 4.171139e-23)
(0.01063076 0.0005103767 0)
(0.01150974 -0.0001026243 -7.184451e-26)
(0.0104123 0.000454678 9.472904e-24)
(0.009926349 0.000125621 3.376413e-23)
(0.009656467 0.0005059097 5.341098e-24)
(0.009535191 0.000566362 -2.039355e-23)
(0.008432883 0.0019184 -2.360553e-23)
(0.01041818 0.0008226213 0)
(0.008048304 -0.0002137766 -2.014411e-23)
(0.01123408 -0.0003744721 -2.117342e-24)
(0.01020634 0.0004878547 1.94161e-23)
(0.007708615 0.0004546665 -2.272626e-23)
(0.00965118 0.001930352 3.90989e-24)
(0.01025503 0.0005634561 -2.988333e-23)
(0.006234142 0.002764545 1.775286e-23)
(0.01117898 0.001003001 -9.228449e-24)
(0.009304517 -0.001253903 -1.08054e-24)
(0.01091588 -3.938619e-05 -5.025089e-24)
(0.01094409 -0.0001418618 -2.017524e-24)
(0.008994917 0.0001175137 -2.255729e-24)
(0.01003408 0.0007072574 -2.495971e-23)
(0.01147376 0.0008532313 0)
(0.009435156 0.002396508 0)
(0.01020215 0.000447134 -1.236469e-23)
(0.0105195 -0.001126212 0)
(0.00976793 0.001998956 -2.370993e-24)
(0.009254063 0.0009323662 -1.763093e-23)
(0.01132191 0.0002013913 -8.593954e-24)
(0.01115929 0.0004785787 3.00311e-24)
(0.009596084 0.0008635285 3.636405e-23)
(0.009952583 0.0008633922 0)
(0.01013845 0.001354173 -1.391931e-23)
(0.01028595 0.0008032677 1.730353e-23)
(0.01120721 0.0005950948 2.763389e-24)
(0.011324 0.0009913441 1.140231e-24)
(0.01155115 0.0005019062 0)
(0.009553748 0.0001547389 3.93101e-23)
(0.007718749 0.002320318 -4.26008e-23)
(0.006646596 0.001087591 -3.611292e-23)
(0.009633955 0.0004637568 0)
(0.01121134 8.446347e-05 3.854976e-25)
(0.01145755 -0.0001255054 3.56004e-25)
(0.009952351 0.0006885585 -8.316687e-24)
(0.01148647 0.0005172658 3.233961e-24)
(0.01132721 -0.0004378332 -5.626897e-25)
(0.009299826 0.000370928 4.318235e-24)
(0.00983759 0.002341763 0)
(0.009970549 0.002386708 2.287603e-24)
(0.01019463 0.0003381462 -3.993221e-24)
(0.009288239 7.853311e-05 -1.885266e-24)
(0.007928736 -0.001628568 4.696673e-24)
(0.009400415 0.0003279408 -6.970054e-24)
(0.009107583 0.0001344748 -1.431476e-23)
(0.01043714 0.0006903387 0)
(0.009596158 0.0002184385 1.377182e-23)
(0.00950901 0.000194932 -1.466569e-23)
(0.0113279 -0.0003445889 2.707376e-24)
(0.01129106 -0.000229621 -7.929908e-25)
(0.01012586 0.0002864151 2.396934e-23)
(0.0111332 -0.0007770204 1.71197e-24)
(0.01000028 0.0005045198 1.566287e-23)
(0.009123281 0.0003441666 -1.721655e-23)
(0.009183263 -6.19158e-05 -4.188221e-23)
(0.01095617 -0.0005741524 -3.216105e-24)
(0.01106862 -0.0003196998 -2.345898e-24)
(0.0111337 0.00140622 7.000247e-24)
(0.01069514 0.001878518 5.425956e-24)
(0.01095657 0.0007460517 8.682155e-24)
(0.009736934 -0.001464345 3.811862e-24)
(0.01066059 -0.001078437 0)
(0.01035561 0.001718487 0)
(0.009944419 0.0003217798 -1.110604e-23)
(0.01141647 0.0004557342 4.080918e-24)
(0.01016548 0.001256498 -7.082291e-24)
(0.01037773 0.001234553 -6.688536e-24)
(0.01084063 0.001163778 -7.40335e-24)
(0.01090369 0.001451519 0)
(0.01048823 0.001132684 -6.078542e-24)
(0.01051298 0.001317986 -5.952839e-24)
(0.009678228 0.0003737313 2.927662e-23)
(0.01086218 0.00174639 6.958153e-24)
(0.01110406 -1.48465e-05 2.696899e-25)
(0.01068604 -0.001127331 0)
(0.01152545 -2.593848e-06 -1.696699e-26)
(0.01121051 -0.0001842358 1.589742e-24)
(0.009984338 0.0006733461 -1.376487e-23)
(0.008533717 0.0002814535 3.391598e-23)
(0.01041226 -0.001264847 -2.287638e-24)
(0.009875218 0.000610012 -2.551486e-23)
(0.009886836 0.0007243652 1.382277e-23)
(0.00846106 0.0005567239 -1.433228e-25)
(0.009915441 -0.0008179375 -1.449404e-23)
(0.01038281 0.0005753232 0)
(0.01029765 0.001588091 -1.479291e-23)
(0.008973239 0.001276439 -1.606543e-23)
(0.008796742 -0.001365515 4.648221e-24)
(0.0106986 5.360336e-05 2.771616e-24)
(0.0110869 -0.000812706 3.989999e-24)
(0.009698752 0.0001309542 3.337415e-23)
(0.01012171 0.001755468 1.521975e-23)
(0.007277932 0.002831662 0)
(0.01017873 0.0004642219 1.122216e-23)
(0.008298259 -0.001458381 -5.629415e-24)
(0.009840177 0.0009126976 1.469604e-25)
(0.009229956 0.001884776 2.947904e-23)
(0.008829256 -0.0002148424 4.621454e-23)
(0.01003137 0.0004898805 0)
(0.009819071 4.075105e-05 -2.583407e-23)
(0.009921321 0.0002301592 -1.770431e-23)
(0.01117018 -6.379556e-05 -3.67531e-24)
(0.0110287 0.0009875451 0)
(0.01105624 0.001004853 -4.04826e-24)
(0.009909656 0.0009993232 0)
(0.01013921 0.000486135 0)
(0.008559206 0.002792275 0)
(0.00985419 0.0004600535 0)
(0.009916099 0.001370055 1.421392e-23)
(0.009391272 -0.0002611247 -1.874256e-23)
(0.009528121 0.0004224202 0)
(0.01009642 0.001094345 1.185004e-23)
(0.009344449 0.0005953249 0)
(0.007811299 0.002872815 1.266548e-23)
(0.01128364 -0.0004679177 0)
(0.01081771 0.001095288 -7.001235e-24)
(0.009797573 0.0005250854 0)
(0.007967996 -9.474482e-05 2.354965e-23)
(0.009802346 0.000653486 -1.525171e-23)
(0.01148406 0.0002788908 0)
(0.0111637 0.0001607338 -2.315438e-24)
(0.008982371 0.0004869542 -2.408069e-23)
(0.009985122 0.0002542142 0)
(0.0106949 -0.0007578665 4.235487e-25)
(0.0104479 -0.00119523 0)
(0.01087911 0.000505151 -8.598164e-24)
(0.01068634 0.0006436496 -2.909144e-24)
(0.008662239 -0.0001679988 0)
(0.01120682 -0.0005796932 4.391397e-26)
(0.01114661 0.0009952437 7.025693e-26)
(0.0100166 0.0005535514 -2.535467e-23)
(0.0100229 -0.001401844 0)
(0.01064323 0.0007905511 0)
(0.009948614 9.11697e-05 2.437769e-23)
(0.009235109 0.0005148503 0)
(0.01016564 0.002286331 -4.580195e-25)
(0.01038341 0.0007136967 -6.127422e-24)
(0.01128566 -0.0002978273 -2.958872e-24)
(0.01046701 0.0004050539 0)
(0.009444003 -0.0001514233 -1.798625e-23)
(0.01130931 0.001168185 -9.5117e-24)
(0.01023124 0.0006865429 -8.153431e-24)
(0.01050552 -0.0003813835 0)
(0.009857495 0.001037759 -5.722293e-24)
(0.01017087 0.000672501 0)
(0.0100603 0.001740227 0)
(0.01105213 0.0008968339 0)
(0.007982376 0.001004112 2.141008e-23)
(0.01016485 -0.0008668917 -1.966379e-23)
(0.01023311 0.0005266986 0)
(0.01119954 -8.30878e-06 -2.269245e-24)
(0.01130778 -0.0003302915 1.398306e-24)
(0.01047667 0.001662595 7.222502e-24)
(0.01113207 0.0005791703 -7.680836e-24)
(0.01021527 0.0003519548 0)
(0.01086542 0.001224671 -9.257076e-24)
(0.009480926 -1.771375e-05 1.761062e-23)
(0.009447797 0.0001320143 -1.137429e-23)
(0.009606192 0.0002872784 -1.556402e-23)
(0.0100842 0.000468619 -7.404116e-24)
(0.008762414 -0.0001146727 3.330202e-23)
(0.007950535 0.0001361041 1.238335e-23)
(0.01024472 0.0002070017 7.135865e-24)
(0.01149803 -0.00016859 0)
(0.01091233 0.001593343 0)
(0.01128504 -0.0001252879 -4.871838e-24)
(0.01118154 -0.000452094 8.522067e-25)
(0.01145736 0.0008950161 2.768562e-24)
(0.01003926 0.0008126615 -2.155674e-23)
(0.008944268 0.0002724342 -1.423842e-23)
(0.01139265 0.0005713868 0)
(0.01113127 0.0004512312 -1.286082e-24)
(0.01007175 0.0005739695 0)
(0.009629516 0.00197762 -8.16405e-24)
(0.009000367 0.002166075 -8.296161e-25)
(0.01018441 0.002281018 -1.716276e-23)
(0.009628669 0.002499796 -9.352608e-25)
(0.008805562 0.001640264 3.833338e-29)
(0.01015663 0.0009195843 7.952919e-24)
(0.0091922 0.002364561 5.752591e-24)
(0.009583667 0.001652955 7.792005e-24)
(0.01134274 0.0005076954 3.251627e-24)
(0.01067068 0.0008955597 0)
(0.01018058 0.0008920549 1.869577e-23)
(0.01116541 0.0008283242 0)
(0.01030891 0.0009020204 0)
(0.009999737 0.001615645 0)
(0.01010677 0.0003287605 0)
(0.01153141 0.0001451211 -1.207007e-24)
(0.0113338 0.0006947314 2.0651e-24)
(0.01002356 0.0007118165 0)
(0.01003564 0.001989512 8.361874e-24)
(0.01094307 0.001257039 4.331323e-24)
(0.01031353 0.0006407644 5.691812e-24)
(0.0112515 -0.0005596227 -1.020845e-26)
(0.01141358 -0.000350839 -3.791782e-25)
(0.01077006 -0.0008184429 -3.344331e-24)
(0.01020296 0.0004082019 0)
(0.01111625 -0.0007180772 9.723691e-26)
(0.008176316 0.0002932543 5.078808e-23)
(0.009231833 0.0002510941 -4.521743e-23)
(0.009155564 0.0001688276 5.91295e-23)
(0.008867136 0.0006943067 1.93601e-23)
(0.008942516 0.0003239519 0)
(0.01057999 0.0007213553 0)
(0.009678994 0.000502542 0)
(0.01063048 0.000969342 0)
(0.009821031 0.0001857158 0)
(0.01123088 -0.0006467136 0)
(0.01014398 0.0007020353 2.160973e-23)
(0.009714934 -0.001452421 2.252804e-24)
(0.01010631 0.0005348974 0)
(0.01011412 0.000624424 6.437209e-24)
(0.009977709 0.002047828 0)
(0.009850091 0.001096306 1.012327e-23)
(0.009833138 0.00128458 -3.467906e-23)
(0.00949289 0.001141614 0)
(0.01122683 0.0013386 -3.087027e-24)
(0.008426812 -0.001254318 6.247788e-24)
(0.01044793 0.001038745 8.56537e-24)
(0.01020756 0.000523653 -8.972066e-24)
(0.008138734 -0.001377115 3.554216e-24)
(0.008808206 0.0008167717 0)
(0.01108858 0.0005748949 0)
(0.01058925 -0.00115725 0)
(0.01001117 0.0002526043 1.788742e-23)
(0.01008407 0.0002698718 4.458338e-25)
(0.009928838 0.0008721225 0)
(0.009682616 0.001160581 0)
(0.010171 0.0005541917 1.097573e-23)
(0.01085318 0.0007320693 8.005057e-26)
(0.01019737 0.0008140149 0)
(0.01138366 0.001096628 -4.472904e-24)
(0.01138406 9.63189e-05 -5.425805e-24)
(0.01034049 0.0005731468 -9.671673e-24)
(0.009480052 -0.0003451222 0)
(0.007281369 0.002226502 0)
(0.006893791 0.002336261 -2.541224e-23)
(0.01058252 0.001091398 -2.275954e-23)
(0.008886464 -0.001500777 4.049667e-24)
(0.01038452 0.001628152 -1.077843e-23)
(0.009966424 0.001890208 -6.855926e-24)
(0.01044536 0.001939887 -1.017973e-23)
(0.009311489 0.002080179 -6.75053e-24)
(0.01123225 -0.000192943 -1.362559e-24)
(0.01046961 0.0008609414 4.837352e-24)
(0.01090026 0.0009212446 2.236086e-24)
(0.009461886 0.0009095978 -7.633207e-24)
(0.00962817 0.00122402 -1.963596e-23)
(0.01109688 0.001252091 0)
(0.009214065 0.001150148 1.572714e-23)
(0.009366973 0.0008873399 -3.210634e-23)
(0.01008697 0.0006611408 1.286852e-23)
(0.0100603 0.0005927537 -6.884455e-24)
(0.01047463 -0.0008044377 0)
(0.01148447 -0.0001827639 0)
(0.007287433 0.0013448 5.839196e-23)
(0.01057323 0.000508172 0)
(0.009668023 -0.0003434453 0)
(0.0111585 0.0002058488 -2.260504e-24)
(0.01062082 0.0007986039 0)
(0.01042078 3.127645e-05 -9.851026e-24)
(0.01096445 -0.0009379334 1.845345e-24)
(0.01065939 0.001786513 1.871179e-23)
(0.01154267 0.0001090654 -2.526525e-24)
(0.01100732 0.0002788505 8.723109e-24)
(0.0107557 0.0002436654 0)
(0.01028589 0.001080966 1.151951e-25)
(0.00972734 0.0003222317 -1.993618e-23)
(0.007668139 0.0008531303 0)
(0.008490268 0.001070541 2.320359e-23)
(0.01044106 0.0007332375 -5.346e-24)
(0.0100974 0.0004158097 1.253303e-23)
(0.01012686 0.0004502757 -1.871437e-23)
(0.01135366 -0.0004351086 -2.573211e-25)
(0.01009368 0.0005485758 -1.039727e-23)
(0.01012306 0.0005992559 0)
(0.01066269 -0.0007284054 4.136116e-24)
(0.01123851 0.0005007204 0)
(0.009632154 0.0003984823 -3.204368e-24)
(0.009965426 0.001461606 -1.738171e-23)
(0.01117911 -0.0006994307 0)
(0.01100799 6.546425e-05 0)
(0.01039332 -0.001256 0)
(0.007979308 0.0002311624 -2.468957e-23)
(0.01129208 0.00121803 9.734562e-24)
(0.008563481 0.0002031839 -3.059867e-23)
(0.01055045 0.0005657924 -2.120678e-25)
(0.01077634 0.0008064604 -5.020533e-24)
(0.01047948 -0.001221132 1.218115e-24)
(0.01119465 0.0009011593 -7.110215e-26)
(0.01151342 7.564816e-05 -2.51513e-24)
(0.009842302 0.000149483 0)
(0.01013424 0.0009606742 -8.388395e-24)
(0.00844574 -0.001478699 8.756361e-26)
(0.008236335 -0.001538265 8.615955e-25)
(0.008717827 -0.001503062 -3.344048e-24)
(0.0107332 0.0006229598 -9.293494e-24)
(0.01093995 0.00145974 -7.162865e-24)
(0.01043918 0.001068511 1.128001e-23)
(0.01045375 0.00199866 -1.233904e-23)
(0.01040181 0.001924405 -4.046332e-24)
(0.009306278 -0.001486927 0)
(0.008965124 -0.001572556 0)
(0.009863402 0.000686005 -1.735455e-23)
(0.01137449 0.0008472345 0)
(0.01112486 0.001179883 0)
(0.009319988 -0.001535875 2.315053e-24)
(0.01134911 -0.0003236511 -4.294409e-25)
(0.0109699 0.0005683838 -1.434522e-23)
(0.009489667 -0.0002040137 0)
(0.01111166 -0.0006961629 2.280087e-25)
(0.01006664 0.0003999222 1.110991e-23)
(0.01151725 0.0006839801 0)
(0.0115333 0.0006401886 2.069795e-24)
(0.01133694 0.0008180609 2.274532e-24)
(0.008144806 -0.001615827 -2.635957e-24)
(0.01125701 -0.0004106587 -8.866658e-25)
(0.01119423 -0.0007129738 1.210822e-24)
(0.009720318 0.001689023 -1.329709e-24)
(0.01101761 -0.0001303194 -3.255652e-24)
(0.008196846 0.002663998 5.840741e-24)
(0.01002509 0.00026468 4.331128e-24)
(0.01000023 3.038855e-05 2.052028e-23)
(0.009963395 0.0006436937 -2.37339e-23)
(0.0110941 -0.0003356148 1.699734e-24)
(0.01043492 0.001841057 8.34848e-25)
(0.008655951 0.002790922 -2.034004e-23)
(0.01133186 0.0001489432 -6.441562e-24)
(0.01131171 0.0001382067 7.649461e-24)
(0.01148439 0.0003146355 0)
(0.01125024 -0.0004879345 -1.188661e-24)
(0.0112622 0.00130737 -3.34446e-24)
(0.01055738 0.002044461 -1.699871e-23)
(0.01144244 0.0009561119 8.507117e-25)
(0.01145266 0.000891516 0)
(0.01105077 0.0006833886 0)
(0.01065128 0.001194811 0)
(0.01002305 0.0007292576 -1.748181e-23)
(0.01049002 0.001001091 -8.355173e-24)
(0.01046936 0.0009133466 0)
(0.01089047 -0.0009469475 0)
(0.01124716 0.0009685587 -5.32975e-24)
(0.008475255 0.002307116 0)
(0.009413488 -0.0001845314 4.650731e-23)
(0.009685986 0.0005650643 -4.225043e-24)
(0.009192788 0.0005439843 0)
(0.01137662 0.0009748984 0)
(0.008896564 -0.001576237 -1.089201e-23)
(0.008103266 0.001920349 0)
(0.008091534 0.00279097 -1.38656e-23)
(0.01040299 0.001673653 1.070884e-23)
(0.01098043 -0.0002549743 -1.367302e-24)
(0.01087842 0.001137542 1.632104e-23)
(0.009263815 -0.0003024579 7.526914e-24)
(0.009256765 -2.855828e-05 -2.385155e-23)
(0.01136492 0.0003731543 -2.623834e-24)
(0.0113674 -0.0004528928 8.272671e-26)
(0.01116472 -0.0006829401 3.614144e-25)
(0.008734556 -0.001261718 6.145174e-24)
(0.009341277 0.0002102565 0)
(0.009899097 0.0007827923 0)
(0.01020115 0.0007899433 0)
(0.01002437 0.0007715831 -8.67094e-24)
(0.009714045 0.0002809042 0)
(0.009495919 -0.00108485 7.196958e-24)
(0.01113227 0.0005830248 -2.250093e-24)
(0.01013929 0.0005689087 -1.445976e-23)
(0.01123846 0.0005087426 0)
(0.01107691 0.0004685353 -9.379765e-24)
(0.009149632 -0.001557723 0)
(0.01046563 0.0001796452 -1.199772e-23)
(0.01008862 0.002318693 0)
(0.01034718 -0.001278159 4.974668e-24)
(0.01111237 0.0005618932 0)
(0.01105306 -0.0001927277 -4.211173e-25)
(0.0106152 -0.00116863 -1.137776e-24)
(0.01103466 0.0003238495 5.573655e-24)
(0.007827229 -0.0001115517 0)
(0.01125675 0.0006626964 1.234124e-23)
(0.009007065 0.0006368794 -1.661917e-23)
(0.01082893 -3.491272e-06 -3.652655e-24)
(0.007955904 0.001342209 7.608689e-24)
(0.0113786 0.0005119371 0)
(0.01146177 4.614791e-05 -1.120925e-24)
(0.008684873 -0.001020583 5.30368e-24)
(0.01037575 0.0009592101 1.225069e-23)
(0.01099401 0.0008948392 0)
(0.009433506 0.0008218288 -2.949586e-23)
(0.01064823 -0.0005711306 9.110812e-24)
(0.0113043 -0.0002724183 1.451763e-24)
(0.01140185 -0.000135116 -1.296633e-24)
(0.009728836 0.0003636602 -1.953458e-23)
(0.009867368 0.0008751858 5.843279e-25)
(0.01043168 0.0006017673 0)
(0.01152739 0.0005283873 8.012968e-25)
(0.01020145 0.0005680831 -5.955985e-24)
(0.01072656 0.0008319293 -2.653656e-24)
(0.01058468 0.000856662 -1.228248e-23)
(0.0108701 0.000950979 0)
(0.009742562 0.0001539714 -1.883684e-24)
(0.009523283 -6.410263e-05 0)
(0.01079266 0.001411529 1.598432e-24)
(0.009845216 0.0007407987 -1.193961e-23)
(0.01093304 0.0007363625 -1.197579e-23)
(0.01058517 -0.001158803 1.932523e-24)
(0.01117823 -0.0006494171 -3.703139e-26)
(0.009944869 0.0005542868 2.561687e-24)
(0.009902321 0.0001899985 2.977038e-23)
(0.009730768 0.0001177824 -1.50423e-23)
(0.01081879 0.0009843594 0)
(0.01029563 -0.001316285 2.168137e-24)
(0.008683607 5.978542e-07 8.521627e-24)
(0.0111885 0.0004411398 7.359381e-24)
(0.009257731 0.0007736017 1.279535e-23)
(0.01005263 0.0001101206 8.408816e-24)
(0.009695033 0.0006910818 1.087393e-23)
(0.009059972 0.001016772 -1.11142e-23)
(0.009848848 0.0008565023 -4.491375e-24)
(0.007984221 -0.001398612 -5.61091e-24)
(0.008710985 0.002255123 -7.669095e-24)
(0.01000107 4.246043e-05 -1.321833e-23)
(0.009875618 0.0009542722 -3.789936e-24)
(0.01099422 0.001363747 2.22929e-24)
(0.01093878 -0.0009048752 0)
(0.009941447 0.0001969969 -1.465425e-23)
(0.01073227 0.001344289 5.363143e-24)
(0.0115432 2.646527e-05 8.235448e-25)
(0.008192071 0.002773574 5.236412e-23)
(0.01058063 0.0008148662 -1.468576e-23)
(0.00575116 0.0007547179 -4.246188e-24)
(0.00958256 0.0003788202 -1.664017e-23)
(0.009991456 0.0001931221 1.84297e-23)
(0.009620411 0.001511514 0)
(0.009266804 0.001387814 -8.726189e-24)
(0.008956958 0.001523767 -1.994596e-23)
(0.008839857 0.001374342 -2.030418e-23)
(0.00950597 0.001303303 0)