/*--------------------------------*- C++ -*----------------------------------*\
| =========                 |                                                 |
| \\      /  F ield         | OpenFOAM: The Open Source CFD Toolbox           |
|  \\    /   O peration     | Version:  2406                                  |
|   \\  /    A nd           | Website:  www.openfoam.com                      |
|    \\/     M anipulation  |                                                 |
\*---------------------------------------------------------------------------*/
FoamFile
{
    version     2.0;
    format      ascii;
    arch        "LSB;label=32;scalar=64";
    class       volScalarField;
    location    "0.4";
    object      p;
}
// * * * * * * * * * * * * * * * * * * * * * * * * * * * * * * * * * * * * * //

dimensions      [0 2 -2 0 0 0 0];

internalField   nonuniform List<scalar> 
4529
(
-1.766245e-06
-2.291693e-06
-1.382379e-06
-5.340688e-06
-2.587537e-06
-7.553662e-06
-1.521971e-06
-2.626694e-06
-2.625871e-06
-1.322647e-06
1.874591e-06
-1.099484e-06
-3.578452e-07
-8.912079e-07
-1.064791e-06
-4.2341e-07
-2.788518e-06
-1.146798e-06
2.894478e-07
-2.148808e-06
-1.449715e-07
-1.035638e-06
-9.850621e-07
-1.766067e-06
-1.295165e-07
-2.136617e-06
-4.319482e-06
-3.568364e-06
-3.73109e-06
-4.620725e-06
-3.357961e-07
-1.155159e-06
-7.088814e-07
-5.819003e-08
9.318072e-07
-1.90738e-06
-1.686409e-06
-1.934849e-06
-4.686059e-06
-5.585884e-07
-8.728189e-07
-6.532807e-07
-1.49874e-06
-1.648558e-07
5.384798e-08
2.429641e-07
-1.236194e-06
-2.001067e-06
2.811585e-07
-2.409743e-06
-5.836241e-06
-1.548301e-06
-7.071543e-06
-1.496028e-07
-3.224424e-06
-2.939409e-06
-2.392801e-06
2.878534e-06
-6.741623e-06
-8.003881e-06
-3.210256e-06
2.63056e-07
-7.176963e-07
-8.048794e-06
-1.69011e-06
3.939781e-07
-1.678201e-06
-1.023491e-06
-1.62931e-06
2.479091e-06
-1.753933e-06
-2.151084e-06
-3.826442e-06
-6.18603e-07
-8.873456e-06
-5.618941e-06
-2.479537e-07
1.274151e-06
-7.411768e-06
-2.3762e-06
-3.756222e-06
-1.653902e-06
4.992523e-07
-1.893721e-06
-2.040519e-06
-6.488621e-07
2.57492e-08
5.344472e-07
3.013281e-07
-2.216355e-06
-7.738529e-06
-7.678805e-07
3.829678e-07
-1.394609e-06
-9.627396e-07
-1.158304e-06
-5.743085e-06
-4.044806e-06
-5.829278e-06
-3.014475e-06
-9.445572e-07
-5.149182e-06
-2.129172e-06
-3.681681e-06
-1.202416e-06
5.047096e-07
-6.782286e-06
6.12247e-07
1.083587e-06
-6.564951e-07
-1.684185e-07
-1.19536e-06
-4.657944e-06
-4.357446e-06
-3.91303e-06
-9.48904e-07
-1.629284e-06
-3.031877e-06
-1.47474e-06
-5.195401e-07
-2.868261e-06
-1.961111e-06
-9.167105e-07
-1.707128e-06
-9.848337e-07
-2.606774e-06
-3.097323e-06
3.009527e-07
-8.061564e-07
-4.612429e-06
-1.691517e-06
-3.773706e-06
-8.818818e-06
-3.790001e-07
-4.47634e-07
3.584434e-07
5.185598e-07
-2.545096e-07
-1.413487e-06
-2.369838e-06
-3.354476e-06
-2.439675e-06
-1.022291e-06
-3.532908e-06
-5.181915e-06
-2.851107e-06
-7.561505e-07
-3.31968e-06
-2.717774e-06
-1.719136e-06
-1.900621e-06
-4.028573e-06
-3.621757e-06
-7.433198e-07
-4.510122e-06
-5.944373e-07
-2.654223e-07
-3.035081e-06
-1.219337e-06
-1.338453e-06
1.05101e-06
-3.809125e-07
-5.520785e-06
-4.022578e-06
-1.062533e-07
-1.043821e-08
-1.74995e-07
-2.307476e-06
-3.650945e-06
-2.104035e-06
-6.416147e-06
-1.537135e-06
-9.131706e-06
1.876876e-07
-2.848104e-07
-3.134893e-06
-2.156064e-06
-8.377983e-06
-9.183675e-06
8.889815e-07
2.924043e-07
-2.6649e-06
-1.717621e-06
-1.776882e-06
2.195323e-06
-9.760429e-06
-2.289423e-06
-6.374221e-07
-5.155367e-06
-7.74169e-07
-1.992764e-06
-7.323799e-06
1.074983e-06
-4.139827e-06
-1.635507e-06
4.92275e-07
2.620068e-07
-4.799713e-06
1.883907e-06
-1.01566e-07
-1.363571e-06
1.139276e-06
-1.465384e-06
-7.237021e-06
-9.139503e-07
-2.016468e-06
-5.789411e-06
-2.311197e-06
-2.867452e-06
-7.995083e-06
-6.279628e-08
-2.973175e-06
-9.211004e-07
-4.655975e-06
-2.328571e-06
-2.680958e-06
-1.793211e-06
-1.01531e-06
-2.162853e-06
5.643337e-06
-2.729043e-06
-3.579552e-07
-2.316274e-06
-5.430312e-07
-1.259057e-06
1.118769e-06
-8.595949e-07
-2.575424e-06
-6.571202e-06
-7.936741e-07
-5.086349e-06
-7.588888e-06
-1.129785e-05
-5.347387e-07
-2.879695e-06
-3.294921e-06
-2.215928e-06
-4.485974e-06
1.446319e-07
-1.66417e-06
-2.623656e-06
3.806162e-08
-5.32631e-07
-5.883815e-06
1.66739e-06
-3.26147e-06
-7.649962e-06
-9.849693e-07
-1.531682e-06
2.32177e-07
-5.584936e-06
9.150975e-07
-2.948069e-06
3.293856e-06
8.035837e-08
-1.331881e-06
-4.178271e-06
-6.418493e-06
-4.975418e-06
-1.085058e-06
1.142833e-06
-7.017917e-07
-1.093252e-06
-1.134909e-06
-1.438772e-06
-5.363961e-06
-1.618628e-06
-4.700899e-06
-2.839755e-06
-6.041642e-07
-2.082251e-06
-4.418846e-07
-1.092327e-06
-4.320719e-06
-6.584521e-06
-2.682498e-07
-2.770349e-07
-3.050835e-08
-5.347369e-06
-1.15965e-05
-1.157277e-06
-1.458205e-06
8.789227e-08
-3.384096e-06
4.056474e-08
-1.524555e-06
-2.218146e-06
-2.232294e-07
-2.812544e-06
-1.162689e-06
-4.794335e-06
-5.813111e-07
-7.717175e-07
-1.568457e-06
-2.328864e-06
-7.211582e-07
-1.149756e-06
-3.053907e-06
-1.064342e-06
-1.799056e-06
-1.177934e-06
-1.617645e-06
-2.730449e-06
2.99425e-06
-1.680743e-06
-2.984267e-06
-4.420222e-06
-9.889364e-07
-3.245409e-06
-1.077745e-06
-8.629772e-07
-2.026543e-06
5.101779e-07
-1.542808e-06
-3.218249e-06
-1.517311e-06
-1.551667e-06
-1.201099e-06
-7.568576e-06
1.119321e-06
-8.680821e-07
1.424634e-06
-2.15187e-06
-3.600919e-06
-1.366916e-06
-3.087528e-06
-3.720018e-06
-3.279994e-07
-6.996239e-07
-3.77413e-07
-1.299219e-07
-5.237712e-07
-4.547044e-07
-8.383092e-07
-2.013856e-07
-4.498587e-06
-3.764068e-06
-2.834656e-06
-3.455148e-07
-8.453321e-07
-9.566199e-07
-3.998391e-06
2.061767e-06
-4.619953e-06
-4.792796e-06
8.226768e-07
-1.787317e-06
-6.040009e-06
-4.498356e-06
-1.342116e-06
-1.212484e-06
1.962678e-06
-1.390289e-06
-1.46392e-06
-1.673018e-07
-3.158572e-06
-4.18825e-06
3.574033e-06
-1.70242e-06
-9.835869e-07
-5.616671e-07
-7.687824e-07
-2.506533e-06
-7.168146e-07
-3.210868e-07
-2.898926e-07
-2.733173e-07
-2.722614e-06
-1.539188e-06
-2.530058e-06
-3.405964e-08
-7.421774e-07
-2.272266e-06
7.565453e-07
-1.604812e-06
-2.653179e-07
8.333938e-07
-6.483313e-06
-9.061024e-06
-2.14125e-06
-9.089725e-07
1.015864e-07
5.315138e-07
-1.005215e-07
-6.962671e-07
-1.269268e-07
-4.821945e-06
1.985208e-06
-2.724835e-06
-2.757517e-08
-6.595601e-06
6.604942e-07
3.586961e-06
-2.140183e-06
-1.633554e-06
-2.197286e-06
-2.349559e-06
-3.215613e-06
-2.905293e-06
-3.101754e-06
-1.548241e-06
1.230656e-06
-6.126448e-06
-5.678163e-06
-5.954099e-06
-1.042962e-06
-5.995935e-06
-2.76225e-07
8.885448e-07
-1.708358e-06
-2.646925e-06
-1.097201e-06
-4.591355e-06
-1.930612e-06
-1.57288e-07
-1.020009e-06
-6.725279e-07
-2.691651e-06
-3.967924e-07
7.058023e-07
-6.761382e-06
-2.527972e-06
-6.614436e-06
-3.566542e-06
-9.121498e-06
-7.35657e-06
-5.525533e-06
-2.751806e-06
-1.803279e-06
-2.119393e-06
-5.094839e-07
-1.894474e-07
-8.93132e-06
-7.137197e-06
1.045344e-06
-1.158659e-06
6.221891e-07
1.491867e-07
-2.435089e-06
2.265016e-07
-2.022299e-06
-4.257049e-07
-5.793755e-06
-1.52768e-06
-1.372045e-06
-1.379565e-06
5.459628e-07
-1.458047e-06
-1.326313e-06
-2.310547e-06
-3.216521e-06
-2.236023e-06
-2.172309e-06
-1.303293e-06
-1.069198e-06
-5.124102e-06
-9.815427e-07
-4.668684e-06
-7.573847e-07
-9.062396e-07
5.156228e-08
-1.512584e-06
-1.364652e-06
1.768946e-06
-4.66624e-06
-3.384488e-06
-7.31844e-07
-4.462451e-07
-1.597405e-07
-3.745824e-07
-1.453456e-07
1.599748e-06
-1.877643e-06
-1.489141e-06
-4.065462e-06
-4.757456e-08
-4.205101e-06
-1.304664e-06
1.362536e-07
-9.832034e-07
8.349711e-07
-1.54988e-06
-2.492319e-06
-4.063894e-07
-1.95822e-06
7.241215e-07
-2.6444e-06
3.455186e-07
-1.753432e-06
-3.850279e-06
-1.169812e-05
-2.081966e-06
-2.101444e-06
-3.49391e-07
-1.272891e-06
-2.642347e-06
-2.505232e-06
-3.181958e-06
-1.591601e-06
-4.311655e-06
-2.430612e-06
-6.008131e-07
-2.766356e-06
-3.897379e-06
-1.065937e-06
-7.634633e-07
-3.201862e-07
-3.151954e-07
-3.894685e-07
-5.415499e-07
-3.468431e-07
-5.497195e-07
-3.222575e-06
1.123893e-06
-1.06697e-06
-3.794321e-06
-1.137262e-06
-1.779053e-06
3.291806e-07
-7.033643e-07
-1.186086e-06
-5.944275e-08
-2.085125e-06
-1.034645e-06
-1.167795e-06
-5.1501e-08
-7.079786e-07
-2.167214e-06
5.549079e-07
8.367157e-08
-1.373622e-06
-7.341994e-07
-6.588904e-07
-7.529817e-07
-3.428785e-07
-4.215263e-06
1.843182e-07
2.108475e-07
4.982364e-08
1.916398e-06
-1.015489e-05
-5.297453e-07
2.01391e-06
-5.743318e-07
-3.278545e-06
-1.401091e-07
-1.445064e-06
-2.838456e-06
-1.044497e-06
2.013217e-06
-2.373423e-06
-1.603471e-06
-1.821332e-06
-2.200538e-06
-9.477671e-07
-1.797105e-06
-4.816983e-06
-4.448477e-06
1.425996e-06
-3.1882e-06
1.785331e-07
-1.129897e-06
-3.463496e-06
-6.565636e-06
-3.707928e-06
-6.707929e-07
-1.178669e-06
-4.223246e-06
-3.440897e-06
-5.990267e-06
-8.176948e-07
9.471813e-07
2.370133e-07
-3.236276e-06
-1.94121e-06
-2.351879e-06
-2.162923e-06
-3.426534e-06
-2.288462e-07
1.583007e-08
-2.326784e-06
-3.744357e-06
-2.500909e-06
-9.132921e-07
-1.293281e-06
-3.001367e-06
-1.015765e-06
-3.256875e-06
-1.572951e-06
-3.367816e-07
8.039129e-07
-3.137278e-06
-1.256263e-06
3.918529e-06
-3.410771e-06
-1.177031e-06
-2.089884e-06
-2.098366e-06
8.08171e-07
1.210885e-06
-2.110035e-07
-1.673499e-06
1.948997e-07
-4.92944e-07
-3.695988e-07
1.392095e-07
1.976469e-07
-1.291557e-06
1.629823e-07
-2.068831e-06
-6.059652e-06
-1.51806e-06
-1.782209e-06
-9.433546e-07
-1.161167e-06
2.840873e-06
4.520621e-07
7.396877e-08
-5.562006e-06
-8.153101e-07
-5.608162e-07
-3.828409e-06
-4.065765e-06
-2.201447e-07
-4.087944e-06
-4.033633e-07
4.554417e-07
-1.346118e-06
-3.437135e-06
-1.158594e-06
-3.709702e-06
-6.143152e-06
-6.029825e-06
-1.089084e-06
-6.843595e-07
4.646029e-07
6.999493e-07
-1.018594e-06
-1.931367e-06
-1.302904e-06
-8.890149e-07
-8.81031e-08
1.259485e-06
3.395356e-06
-2.575867e-06
-2.197953e-07
-2.593668e-06
-3.748649e-06
-2.85179e-07
-1.523287e-06
1.862479e-07
-4.151964e-06
-3.637412e-06
-6.038046e-06
-1.241381e-06
-1.903823e-06
-1.360669e-07
-5.244523e-06
-8.214019e-07
-9.033487e-06
-1.433181e-06
-2.041546e-06
-5.014596e-06
-1.183955e-06
-4.054532e-06
-3.10354e-06
-2.390874e-06
-1.510993e-06
-9.352657e-06
-1.638825e-06
-1.91073e-06
1.258871e-06
-1.427144e-06
-1.117473e-07
-3.351083e-06
-1.156709e-06
-1.176627e-06
9.057302e-07
-2.813043e-06
-1.53131e-06
-1.104671e-06
-1.361009e-06
-1.593916e-06
-1.561514e-06
8.46498e-07
9.787854e-08
1.183067e-06
-1.89631e-06
-1.12402e-06
-6.1577e-06
-2.844061e-06
-2.300077e-06
-3.446888e-06
-3.535459e-06
-6.565676e-07
-1.585055e-07
-7.890775e-07
-4.185481e-06
-5.27284e-06
-6.616483e-07
-7.290254e-07
-6.409235e-07
-9.196566e-06
-1.042811e-06
-6.778463e-10
2.155275e-06
-2.308764e-06
-1.725482e-06
-1.557205e-06
-7.092625e-06
-6.328556e-06
-1.911332e-06
-6.212412e-06
-1.036996e-06
-1.751381e-06
-4.944266e-06
-1.114443e-06
-1.663255e-06
-2.513826e-06
-1.622287e-06
-5.456998e-06
-1.143232e-06
-2.468612e-06
-1.218117e-06
-6.027156e-07
-3.754635e-06
1.629393e-06
5.774203e-07
3.021657e-06
-1.647592e-06
-1.606516e-06
-2.092404e-06
-1.726388e-06
-1.081044e-06
-2.948333e-06
-2.557011e-06
-1.56369e-06
-5.599974e-06
-2.037229e-06
-6.324888e-06
-1.11558e-07
-5.663756e-06
-5.963149e-06
-7.792996e-06
-5.082198e-06
-1.82747e-06
-1.179279e-06
-1.443202e-06
-1.357638e-06
-8.62225e-06
-1.419343e-06
-2.050318e-06
-6.292103e-06
-2.238605e-06
-5.036359e-06
-2.495905e-06
-1.003583e-06
-1.021121e-05
-7.665608e-06
-8.692199e-06
-4.94475e-06
-3.842189e-06
2.72137e-07
-7.020709e-06
-8.142514e-07
-4.975747e-06
-6.387736e-06
-1.708437e-06
-4.670778e-06
-4.513616e-06
-2.855245e-06
-5.449967e-06
-7.096738e-06
-2.374741e-06
-1.992004e-06
-1.047363e-06
-4.257549e-08
-5.141992e-07
-3.483085e-06
-4.085534e-06
-9.518291e-06
-2.668738e-06
-8.580027e-07
-1.456872e-06
-8.332381e-07
-1.246602e-06
-5.965416e-06
-2.63971e-06
-1.457956e-06
-8.383768e-07
-2.438815e-06
-1.159687e-06
-4.318102e-06
2.672669e-09
-1.602262e-06
-7.915851e-07
-1.241621e-06
-7.087501e-06
-2.152094e-06
-2.182191e-06
6.58399e-07
-1.203207e-06
-5.280771e-06
-9.314955e-06
-2.867717e-06
-2.064337e-06
-1.210164e-06
-1.825184e-06
-1.220618e-06
4.571212e-08
-9.099611e-07
-1.171282e-06
-3.793101e-07
-1.23988e-06
-1.344408e-06
-2.12305e-06
-1.491859e-06
-1.267032e-06
-3.113664e-06
-3.649935e-07
-8.890403e-07
-5.266859e-06
-1.11556e-05
3.657973e-08
7.470735e-07
-1.475812e-06
-1.304258e-06
-7.524863e-07
-4.601714e-07
-2.390537e-06
-5.522054e-08
-7.704925e-07
-2.39393e-06
-2.554113e-06
-1.460485e-06
2.361792e-07
3.580425e-07
-3.293796e-06
-1.809754e-07
-2.984816e-06
-2.035407e-06
-4.262006e-06
-2.38753e-06
-5.817019e-06
-3.421171e-06
-7.112435e-06
-6.850191e-06
-3.584435e-06
-4.590304e-06
-8.45284e-07
5.06776e-07
8.903684e-07
-1.374855e-06
-1.714429e-06
-1.186807e-06
-2.086378e-06
-1.210824e-06
-1.335998e-06
-1.329677e-06
-1.514473e-06
-3.682437e-06
-2.139674e-06
-3.790153e-07
-1.715894e-06
-5.953524e-07
-9.849994e-07
-7.079495e-06
-4.575526e-06
-4.19165e-06
-6.066444e-06
-5.499649e-06
-2.850462e-06
-2.473721e-06
-7.673888e-06
-3.060051e-06
-5.798387e-06
7.160868e-07
-6.530252e-06
-3.77654e-07
-1.874184e-06
2.731324e-07
-5.051013e-06
-1.008726e-06
-3.599328e-06
-5.298249e-06
-8.273902e-06
-3.247852e-06
-2.61711e-06
-1.973691e-06
-9.023718e-07
-1.200845e-06
-4.278224e-07
-3.548618e-06
-3.698355e-06
-2.253844e-06
-6.593038e-06
-7.119126e-06
-6.246958e-06
-5.117534e-06
-8.554782e-06
-6.643463e-07
-1.354427e-06
-2.564458e-07
4.431207e-08
-1.701751e-06
-1.4006e-06
-2.496995e-06
-2.005571e-06
-5.109429e-06
-4.155614e-06
-3.777151e-06
-5.307885e-06
-4.682961e-06
-2.923386e-06
-3.66998e-06
-5.42792e-06
-3.985187e-06
3.404207e-08
-3.847666e-08
-4.818471e-06
-6.491079e-06
-8.458411e-06
-6.492673e-06
-2.162578e-06
-2.300095e-06
-8.095183e-06
-8.787073e-06
-9.135204e-06
-2.085096e-06
1.162312e-08
-4.415166e-06
-4.820491e-06
-9.348448e-07
-1.175538e-06
-1.007391e-06
-3.382941e-06
-6.632589e-06
-4.723872e-06
-4.838196e-06
-4.540121e-06
-4.86545e-06
-6.015816e-06
-5.353011e-06
-1.6806e-08
-5.226564e-06
-5.814847e-06
1.047795e-06
-4.096203e-06
-3.088947e-06
-3.251131e-06
-5.657308e-06
-2.643311e-06
-6.692803e-07
-4.856514e-06
-7.980442e-06
-8.162958e-07
-1.630844e-07
-7.664187e-06
1.225335e-06
-5.047168e-06
-1.184509e-06
-2.280331e-06
-4.513273e-06
-1.79328e-06
-4.50328e-07
-3.477537e-07
-5.464936e-06
-2.824891e-06
-4.481029e-06
-6.450975e-06
-3.554765e-06
-3.882518e-06
-4.00346e-06
-5.157279e-06
-1.103945e-06
-1.763958e-06
-1.952438e-06
-1.811832e-06
-3.854603e-06
-9.356638e-06
-8.038469e-06
-2.557475e-06
-8.826443e-07
-7.749149e-06
1.294195e-06
-6.67117e-06
-1.986267e-06
2.263456e-06
-2.605257e-07
-3.352207e-06
-8.116061e-06
-4.165521e-07
-2.865668e-07
-1.030639e-06
-5.623969e-06
-9.652293e-06
-1.50233e-06
-9.171349e-07
2.7618e-06
-1.747908e-06
-1.264552e-06
1.708866e-06
-1.613096e-06
4.865466e-07
-4.642915e-06
-2.010735e-06
-4.068826e-06
-8.130479e-07
-1.019766e-06
-3.900977e-06
-9.792607e-06
-4.287616e-07
-7.606913e-06
-5.044957e-06
-4.903506e-06
-2.635102e-06
-8.898904e-07
-5.092715e-06
-1.740489e-06
-2.080883e-06
-2.029502e-06
-2.057124e-06
1.504275e-06
-9.513231e-06
-9.402375e-06
-7.413733e-06
-1.090853e-05
-9.512525e-06
-9.529765e-06
-1.175734e-05
-3.277849e-06
-6.990415e-06
2.388374e-07
4.811176e-07
-1.314848e-07
9.978105e-08
-3.6147e-06
-2.538115e-06
-5.247875e-06
-1.45094e-06
-1.214417e-06
-1.248533e-06
-1.334909e-06
-1.405949e-06
-6.542168e-07
-7.738019e-08
-2.522317e-07
9.025515e-08
-7.908229e-08
-6.146591e-08
-4.155635e-06
-1.869697e-06
-6.230974e-07
-2.217246e-07
1.82237e-06
-1.080608e-06
-2.364171e-07
-1.965902e-06
-5.799746e-06
-1.067777e-06
-6.550377e-06
-8.333632e-06
-5.907783e-06
-2.454489e-06
-1.883644e-06
-4.826429e-06
-3.141651e-06
-6.576716e-06
-3.147992e-06
-7.36274e-07
1.679296e-06
-2.665002e-06
-3.601013e-06
-8.152091e-07
-1.001316e-06
6.68917e-07
-1.199521e-06
-9.560963e-07
-1.010142e-06
-1.066253e-06
-3.818746e-07
-9.744756e-08
-4.837148e-07
-5.358781e-08
-1.325015e-06
2.750093e-08
-3.676727e-07
-4.289981e-07
-8.830739e-09
-8.734749e-08
-4.313294e-08
-2.669224e-06
-1.763924e-06
-2.155375e-06
-6.542477e-06
-8.438799e-06
-5.534232e-06
-1.180389e-06
-9.068341e-06
-5.735911e-06
-7.569463e-06
-9.617986e-07
-1.308415e-06
-4.298961e-06
8.209334e-07
-2.942277e-07
-1.907007e-06
-1.542629e-06
-1.017835e-06
-2.007183e-06
-1.768778e-06
-2.423556e-06
-8.93628e-08
-3.243318e-06
7.207903e-07
-6.599252e-07
-6.324412e-07
-1.257322e-06
-1.366158e-06
-1.393894e-06
-5.876867e-06
-1.450741e-06
-1.986795e-06
-2.873947e-06
-3.534973e-06
-3.915404e-06
-4.728349e-06
-8.650268e-06
-8.613004e-06
-9.393899e-07
-8.802367e-06
-7.22587e-08
1.417409e-07
3.395331e-09
-1.882197e-07
-3.461239e-09
2.956472e-07
-6.102984e-06
-5.933833e-06
-9.595364e-07
-3.328164e-06
-2.96749e-06
-5.012255e-06
-1.669205e-06
-1.858394e-06
-1.867605e-06
-5.643458e-06
-4.159424e-07
-8.972149e-06
-2.894697e-06
-1.569516e-06
-2.989742e-07
-1.811315e-06
-2.266515e-06
-5.814218e-07
-6.656546e-07
-2.954365e-06
-1.157656e-06
-1.710024e-06
-2.235979e-06
-2.049641e-06
-1.628996e-06
1.680614e-07
-2.501435e-06
-2.413075e-06
-1.950856e-06
-1.268421e-06
-2.431934e-06
-2.56816e-06
-1.387458e-06
-6.650882e-07
-4.648558e-06
-7.243543e-07
-5.133837e-06
-2.364435e-06
-3.482771e-06
-3.238985e-06
-6.86245e-07
-1.901825e-06
-2.071749e-06
-6.019303e-06
-1.461115e-06
8.433301e-08
-1.239138e-06
-5.346287e-06
-1.445704e-06
-1.574362e-06
-2.763573e-07
-1.630716e-07
-1.621594e-06
-1.511803e-06
8.916595e-07
-5.613941e-06
-8.130514e-06
-6.181873e-06
-1.356102e-06
7.224412e-07
6.769553e-07
-1.028186e-06
-7.128519e-07
-1.277878e-06
-5.389125e-07
-2.083575e-06
-7.163597e-07
-2.039849e-06
-3.829079e-06
-4.166336e-06
-1.805156e-06
-2.314242e-06
-2.73233e-06
-7.316272e-07
-1.715913e-06
-2.134981e-06
-5.997853e-06
-3.961125e-06
-3.626103e-06
2.510879e-07
1.470581e-06
-2.822386e-07
-4.020395e-06
-5.349723e-06
-9.208854e-07
-4.698994e-07
-1.720512e-06
-6.054717e-07
-7.775617e-07
-1.137873e-06
-3.262851e-07
2.360947e-07
-8.62253e-07
-3.040108e-07
-6.592635e-07
-1.861169e-06
-1.193999e-06
-4.752767e-06
-1.708881e-06
-1.024649e-06
-2.544997e-06
1.295032e-07
-8.004598e-07
-6.307846e-07
-9.755582e-07
-4.559338e-06
-5.74642e-06
-1.278291e-06
-9.622334e-07
-1.286533e-06
-5.124233e-09
-1.752205e-06
2.570539e-07
-3.365269e-06
-2.389235e-06
-2.63457e-06
-9.587133e-06
-6.211841e-06
-9.985582e-07
-4.331118e-06
-6.778779e-06
-6.765268e-06
-8.265911e-07
-6.291922e-07
-1.263044e-06
-3.619265e-07
-2.679216e-06
-5.140732e-07
2.977922e-07
-1.761617e-06
-9.225147e-06
-7.03274e-07
1.04083e-07
-1.247093e-06
-1.005743e-06
-1.937405e-06
-7.520515e-07
-3.972953e-06
-5.842219e-06
-1.626798e-06
-4.44333e-06
-1.796176e-07
6.260507e-07
-7.058106e-07
-8.013443e-06
-1.311231e-06
-1.871063e-06
-6.808328e-07
-1.738092e-06
2.768755e-06
-2.243905e-06
-4.378746e-06
-4.118932e-07
-2.200007e-06
-1.884775e-06
6.634954e-07
3.397925e-07
-1.689454e-07
-1.188518e-06
1.155907e-08
-9.083793e-08
-8.502056e-07
-7.527922e-06
-5.468403e-07
-3.726486e-07
-2.827236e-07
-6.443925e-07
-1.103428e-06
-5.586568e-07
-5.934007e-07
-3.500608e-07
-7.835449e-07
-6.498055e-07
-1.820909e-07
-6.17094e-07
-2.217147e-06
-4.666781e-07
-2.283333e-07
2.012659e-07
-3.746556e-07
-4.736146e-07
-4.751711e-07
-5.286627e-07
7.959138e-07
-5.283856e-07
-4.121127e-06
1.329908e-06
1.075311e-06
-1.57954e-06
-4.016291e-06
-2.944187e-06
-4.163687e-06
-1.182149e-06
-6.430203e-06
-1.584152e-06
-6.685216e-07
1.294272e-06
-1.801857e-08
-3.817705e-07
-2.809831e-07
-1.643315e-06
-8.695743e-07
-3.415795e-06
-3.02795e-06
-8.506691e-06
-3.382249e-06
-2.968678e-06
-3.063979e-06
-2.170003e-06
-3.43115e-06
-3.090897e-06
-3.879462e-06
-3.136766e-06
-2.59287e-06
1.814794e-07
-5.876e-06
-4.556461e-06
-2.446597e-06
3.761969e-07
-5.49694e-06
5.973472e-07
-1.546059e-06
6.669948e-08
-5.36837e-06
-4.517356e-06
-5.536873e-06
-8.465422e-06
-8.32306e-06
-2.858813e-06
-1.143269e-06
-1.271615e-06
-1.464611e-06
-1.340859e-06
-2.602549e-06
-7.983622e-08
-6.922812e-06
-1.944173e-06
-3.620285e-07
-2.485076e-07
1.4193e-06
-5.14568e-06
-6.684687e-06
-4.286248e-06
-4.849151e-06
-4.508438e-06
-4.287061e-06
-2.760942e-06
-1.126248e-06
-3.717025e-06
9.154516e-07
3.96652e-07
-1.761745e-07
-5.11056e-06
-4.61859e-06
-5.421217e-06
-4.998701e-06
-2.93169e-06
-4.79468e-06
-6.513495e-06
-6.69511e-06
-5.418873e-06
-4.016023e-06
-1.587387e-06
-4.616132e-06
-9.006571e-07
-8.290876e-06
4.830616e-07
-2.693859e-07
-4.685455e-06
-2.927663e-07
2.577436e-07
1.676059e-06
-1.856452e-06
2.634055e-06
1.996158e-06
-2.213289e-06
-4.811747e-06
-8.077288e-06
5.834458e-07
1.827737e-07
5.016843e-08
-4.702449e-07
-5.524689e-06
-5.089739e-06
-5.316724e-06
-4.034361e-07
-1.054406e-07
-5.64605e-06
-8.417543e-06
-8.636445e-06
-3.655874e-06
-3.009557e-06
-5.86372e-06
-7.31282e-06
-1.705341e-06
-2.501063e-06
-3.761741e-06
-2.829154e-06
-2.52891e-06
-7.726128e-07
-9.279106e-06
4.450583e-08
-1.408636e-06
1.283123e-06
-1.842313e-07
-2.246352e-06
5.009566e-07
-3.325332e-06
2.40158e-08
-6.548383e-06
-1.233509e-06
-2.72985e-06
6.224205e-07
-1.492257e-06
7.42481e-08
-5.31753e-07
-1.255787e-06
-2.463608e-06
-1.428767e-06
-1.58305e-06
-1.730385e-06
-1.129898e-06
-1.178453e-06
-1.952713e-06
-6.667524e-06
-2.635157e-06
-1.303313e-06
-3.561986e-06
8.288183e-07
8.340077e-07
-4.989809e-06
-9.877769e-08
-3.808598e-06
-2.09293e-06
-1.809464e-06
-9.634809e-07
-1.350525e-06
2.164144e-06
-3.932332e-07
1.281244e-07
-4.962792e-06
4.01278e-06
-7.980753e-07
-2.878856e-06
-9.638974e-07
-9.58296e-07
-7.144781e-07
-7.705446e-07
-1.566035e-06
-9.370717e-07
-8.266504e-07
3.620241e-06
-1.738874e-08
-5.218683e-08
-1.360398e-06
-2.214203e-06
-2.830159e-06
-1.176471e-06
-1.482301e-06
-1.902396e-07
1.782844e-07
4.321256e-07
-8.216665e-07
-1.196648e-06
2.389359e-06
1.831605e-06
-4.054454e-07
3.527212e-07
-2.394311e-07
-1.209027e-06
-1.360121e-06
-2.225144e-06
-1.348493e-06
-4.887362e-07
-6.618515e-07
-5.134852e-06
-8.084196e-07
-9.355824e-07
7.694794e-07
9.243459e-07
-5.428033e-06
-1.567811e-06
-2.032541e-06
4.348926e-07
1.631203e-07
-8.443544e-06
-3.122833e-06
-4.256902e-06
-4.652165e-06
-8.691407e-07
-1.210334e-06
-1.171168e-07
-1.275124e-06
-9.895485e-06
7.097497e-07
-4.814529e-06
1.555149e-06
-6.118986e-07
-1.283212e-06
-1.573639e-06
-3.586902e-07
-4.746829e-07
-2.98941e-06
-8.5226e-07
4.250392e-07
4.054872e-07
-5.504137e-06
-7.776894e-06
-1.081187e-09
-1.385792e-07
-2.608193e-06
-4.109531e-07
-2.709753e-07
-3.721835e-06
-9.955717e-06
-2.07938e-07
2.064042e-07
-2.193784e-06
-4.898234e-06
-5.507689e-06
-4.276507e-06
-5.296309e-07
-5.526971e-07
-2.774246e-06
-1.93027e-06
-2.835741e-07
-3.101644e-07
8.675384e-08
-4.10491e-07
4.387477e-07
1.617487e-06
1.484844e-06
-1.636344e-07
-2.199954e-06
-3.916047e-06
-3.031398e-06
-3.181422e-06
1.778173e-06
-6.802341e-06
-1.901703e-06
-2.015658e-06
-2.287104e-06
-7.849885e-07
-1.8998e-06
-1.678841e-06
-4.944202e-06
-5.951635e-06
-2.746219e-08
-4.603496e-06
1.260545e-06
-1.474593e-06
-2.428571e-08
-8.845379e-07
-8.137876e-06
-7.688206e-06
-1.039287e-07
-2.100073e-06
-2.712573e-06
-3.797036e-06
4.005189e-07
-4.648762e-07
-2.414825e-06
-1.869214e-06
-1.654957e-06
2.86096e-06
3.242547e-06
-1.875768e-08
-9.632445e-08
-4.327758e-06
-3.159309e-07
-1.205272e-06
-1.504794e-06
-4.521416e-06
-5.562899e-06
-6.898589e-07
-1.039097e-07
-1.482296e-06
-1.254274e-06
1.960291e-07
-4.102727e-06
3.198283e-08
-5.131978e-07
-8.217368e-06
-1.052683e-06
1.980833e-06
3.976488e-06
-1.395752e-06
-1.375982e-06
1.09651e-07
2.628449e-07
-9.838732e-07
7.072249e-07
1.613882e-06
5.129031e-07
2.138983e-07
-8.819334e-07
-8.286754e-07
3.589829e-06
1.735822e-06
-2.311025e-06
-4.772082e-08
1.325357e-06
-4.839494e-06
-1.646995e-06
-2.159436e-06
-2.22413e-06
-7.855033e-07
-1.023714e-06
-1.828886e-06
-2.589127e-06
-2.120935e-06
-2.371292e-06
-3.30023e-06
-2.621186e-06
-2.887248e-06
-5.051201e-06
-1.265454e-06
-2.454048e-06
-2.632345e-06
-3.067354e-06
-3.094158e-06
-3.027189e-06
-2.299522e-06
-2.876519e-06
-2.501965e-06
-2.312105e-06
-1.887649e-06
-6.083827e-08
-1.68126e-06
-2.049435e-06
-3.985073e-06
-4.041516e-06
-1.308214e-06
7.60972e-07
-3.527692e-06
-4.787587e-06
2.466727e-07
-1.033217e-06
-4.931515e-06
-1.223042e-06
-3.12489e-06
-2.569424e-06
-2.249918e-06
-2.309869e-06
-2.422804e-06
-1.135611e-06
-2.644675e-06
-2.582061e-06
-3.490152e-06
-2.392542e-06
-2.377784e-06
-3.529204e-06
-4.248569e-07
6.025269e-08
3.310884e-09
1.562166e-06
4.407386e-07
-1.106263e-06
-1.071314e-06
-1.666751e-07
-8.003669e-07
-1.625228e-06
3.955766e-08
-5.40746e-06
-4.202779e-06
-2.347049e-06
-7.837188e-07
-5.321701e-07
1.084013e-07
6.875192e-07
7.31195e-07
-1.138081e-06
-1.44483e-06
-1.342501e-06
-4.352556e-06
-3.139069e-06
-1.660848e-06
-2.108737e-06
-1.091172e-06
-2.792334e-06
9.050136e-07
-2.302918e-06
-1.375063e-06
-3.932822e-06
-1.851121e-06
3.062499e-07
-2.654744e-06
-2.490943e-07
-1.648273e-06
-1.645162e-06
-1.555398e-06
3.327274e-08
-2.772257e-06
-7.284975e-06
2.88491e-07
7.363889e-07
7.118181e-07
9.177156e-07
-6.641201e-08
-1.554396e-06
-7.103343e-07
-1.403965e-06
-6.904893e-07
-3.565535e-06
-7.028202e-08
1.691983e-07
-1.660938e-06
-3.649546e-06
-8.562125e-07
-1.919429e-06
-1.70447e-06
3.692067e-06
-7.139655e-06
-6.591167e-06
-1.075257e-06
-1.236426e-06
-2.777418e-06
-9.933697e-07
-4.74716e-06
-1.874015e-06
-2.697319e-06
-1.190184e-06
-1.362085e-06
-1.207753e-06
-1.373919e-06
-1.168533e-06
-1.926593e-06
-3.390786e-06
-1.70332e-06
-1.965327e-06
-5.411933e-07
1.562175e-07
-8.572885e-06
-4.924241e-06
-4.79619e-06
4.974979e-08
-2.27101e-06
1.517617e-07
1.385869e-06
1.560426e-06
-1.395363e-06
-5.901385e-07
-1.547449e-06
-2.481988e-06
-5.071505e-07
8.792168e-07
-7.112885e-06
-6.085114e-06
-7.382027e-07
-5.983191e-07
-8.349585e-07
-4.863669e-06
-4.689793e-06
-6.490523e-06
-8.128833e-08
-1.321095e-07
-8.908239e-06
1.607334e-06
-4.14308e-06
-2.637074e-06
1.391427e-07
-1.392245e-06
-9.63097e-07
-6.733176e-07
-2.426488e-06
-2.557642e-06
4.629317e-07
-1.974612e-06
-1.352376e-06
1.051801e-06
-9.547835e-06
-5.833743e-06
-2.858236e-06
-1.471912e-06
-1.668022e-06
-8.069785e-07
-1.281454e-06
-2.342034e-06
-1.684221e-06
-1.953835e-06
-1.68203e-06
3.25957e-07
1.14589e-08
-7.128084e-06
-6.649733e-06
1.565277e-06
-2.670546e-07
-4.406933e-07
-3.456726e-07
-1.411724e-07
-3.222536e-06
-2.924755e-07
-7.18034e-07
-1.238396e-06
-1.478169e-06
3.934062e-06
-1.396062e-06
6.875363e-07
1.511028e-07
-1.868688e-06
-4.442508e-06
-8.924915e-07
-6.293814e-07
-1.25299e-06
-1.782533e-06
-1.95566e-06
-3.336245e-06
-5.879007e-06
-2.515235e-06
-7.344775e-06
-8.055201e-06
-1.842408e-07
-1.813491e-06
-9.827891e-07
-8.756855e-06
-2.008501e-06
-8.137102e-06
-2.482814e-07
-8.969438e-07
2.739483e-07
8.498336e-07
-3.824505e-07
-7.826127e-07
3.698216e-07
5.902198e-08
-2.019755e-06
-2.177016e-06
-2.15431e-06
-4.132342e-07
4.880062e-07
-7.977306e-06
-2.875974e-07
-4.155167e-08
-3.525093e-06
-3.578103e-06
-4.108372e-06
-2.803702e-06
-6.775487e-07
-7.644315e-07
-5.140125e-07
-3.641001e-06
-5.420014e-06
-1.293117e-06
-6.14453e-06
-5.231492e-06
-5.625396e-06
-6.12787e-06
-6.258589e-07
-5.941789e-06
-1.606969e-07
-3.609183e-06
-3.674012e-06
-3.7609e-06
-8.408241e-06
-3.671064e-06
-2.245109e-06
-2.772658e-06
-3.16763e-06
-6.280882e-06
-2.700465e-07
-1.733012e-06
-1.364545e-06
-3.772786e-07
-8.361224e-06
-1.0258e-05
-8.758424e-06
-2.264068e-06
-6.986854e-06
-8.949954e-06
-9.811347e-06
-1.072738e-06
-1.874967e-06
-1.441179e-06
-2.934196e-06
-2.305286e-06
-4.717112e-06
-3.266602e-06
8.153363e-07
-6.592393e-06
-1.787919e-06
9.598471e-07
1.19479e-06
-1.883933e-06
-8.325152e-08
-4.44834e-06
-1.408589e-08
-1.121626e-06
-1.221592e-06
-4.638145e-07
-2.195381e-06
5.809485e-07
-1.723108e-06
-8.924206e-06
-4.329722e-06
-6.834138e-06
-7.818546e-06
-6.916497e-06
-9.377197e-07
-6.845718e-06
-4.276603e-06
-3.620061e-06
-1.851525e-06
-1.627022e-06
-1.47249e-06
-1.67115e-06
-4.572544e-07
-3.255692e-06
-3.43844e-06
-7.295804e-06
-5.695137e-06
-4.45718e-06
-4.390978e-06
3.025431e-07
-7.890285e-07
-1.257279e-06
2.19016e-06
-2.887544e-06
-3.335036e-06
-3.23039e-06
-7.491102e-07
-5.239995e-07
-4.628311e-06
-2.743599e-06
-3.035436e-07
-4.016735e-06
-1.992742e-06
-1.982507e-06
-2.133162e-06
-3.102243e-06
-5.628426e-06
-9.62463e-07
-1.25712e-06
5.644227e-07
5.108115e-07
-3.136383e-07
-3.057355e-07
-3.633079e-07
-2.378713e-07
-3.928523e-07
-3.755344e-07
-1.498872e-06
-3.803785e-06
-6.314201e-06
-3.887176e-07
-1.39587e-06
-9.20105e-07
-9.830974e-07
-1.464945e-06
9.958013e-07
-5.334061e-07
-9.600231e-07
-1.751711e-06
-1.616731e-06
-1.560607e-06
-1.793908e-06
-4.690987e-07
-4.7724e-07
3.676517e-07
3.921846e-07
5.045246e-07
-5.780149e-06
-1.119032e-06
-9.625365e-08
6.746734e-08
-6.909533e-07
-2.066778e-06
-2.425624e-06
-8.944318e-07
-7.372029e-07
1.38359e-06
8.123697e-07
-7.231205e-07
1.759767e-06
-5.174444e-06
-7.202304e-06
-3.06761e-07
-2.182581e-06
-9.649199e-07
-1.583973e-06
1.828182e-07
-6.655484e-07
-1.141878e-06
-2.78265e-06
-4.137221e-06
-3.947871e-06
-1.306892e-06
-7.154445e-07
-8.819141e-06
-2.531181e-06
-5.659787e-06
4.145751e-07
-2.488551e-06
-2.721934e-06
-1.147656e-07
-1.161164e-07
-9.785093e-07
-1.037472e-06
-1.346859e-06
2.285197e-08
-1.557029e-06
-2.32543e-06
-2.0372e-06
-2.846882e-06
-1.282897e-06
-1.317683e-06
-1.3304e-06
-1.11996e-06
2.75605e-06
1.847359e-06
-1.648476e-06
-5.802191e-07
-1.677046e-07
-1.560898e-06
-1.268743e-06
-3.15001e-06
-2.261906e-06
-1.72735e-06
-1.470419e-06
-1.922404e-06
-2.238589e-06
-6.853128e-06
-7.433072e-06
-4.761771e-06
-4.578407e-06
-1.445968e-06
-1.428836e-06
3.422146e-07
-9.661844e-06
-8.866288e-06
-9.085636e-06
-3.575727e-06
7.28716e-07
-6.911304e-07
-7.363865e-07
3.956206e-07
1.028801e-06
-7.828601e-07
1.281501e-06
-1.89926e-06
-1.626592e-06
-1.441262e-06
-1.450627e-06
-1.224865e-06
-9.050608e-07
-7.509642e-07
-4.408096e-07
-1.102656e-06
-1.54083e-06
-1.771902e-06
-1.931443e-07
-7.020832e-08
-1.60782e-06
-1.54161e-06
8.640696e-07
-4.455162e-06
-4.973551e-06
-4.763371e-06
-5.392997e-06
-5.11081e-06
-5.838649e-06
-6.574573e-06
-5.494845e-06
-4.940734e-06
-6.386844e-06
-8.54229e-06
-8.503611e-08
-1.926616e-06
-1.823851e-06
-5.460156e-06
-2.298959e-06
-1.558739e-06
-9.117219e-07
-8.963393e-07
-1.495318e-07
-4.829536e-08
-1.097503e-06
-4.76527e-07
-2.498676e-06
-1.663169e-06