/*--------------------------------*- C++ -*----------------------------------*\
| =========                 |                                                 |
| \\      /  F ield         | OpenFOAM: The Open Source CFD Toolbox           |
|  \\    /   O peration     | Version:  2406                                  |
|   \\  /    A nd           | Website:  www.openfoam.com                      |
|    \\/     M anipulation  |                                                 |
\*---------------------------------------------------------------------------*/
FoamFile
{
    version     2.0;
    format      ascii;
    arch        "LSB;label=32;scalar=64";
    class       volVectorField;
    location    "0.4";
    object      U;
}
// * * * * * * * * * * * * * * * * * * * * * * * * * * * * * * * * * * * * * //

dimensions      [0 1 -1 0 0 0 0];

internalField   nonuniform List<vector> 
4529
(
(0.01042136 -0.0009435664 0)
(0.009219557 -0.0003468723 1.080521e-24)
(0.009357454 0.000141539 -1.018317e-24)
(0.008297758 -0.0005707936 -2.807794e-24)
(0.008846162 0.000275745 1.375078e-24)
(0.008994348 0.00128358 0)
(0.009527403 0.0004977319 0)
(0.009504074 0.001147676 -1.680686e-25)
(0.00902283 -9.566363e-05 -1.03538e-24)
(0.009604446 -0.0004701096 6.043669e-26)
(0.01052232 -0.0001750076 -1.676157e-25)
(0.01001888 -0.0007338991 -4.700976e-25)
(0.009917916 -0.0004169105 2.917914e-25)
(0.01000783 -0.0007017254 -4.469977e-25)
(0.009594867 -0.0002628573 0)
(0.009817919 -0.000365123 3.200324e-25)
(0.009027964 -0.0006780716 0)
(0.009779031 -0.0005596633 5.065947e-25)
(0.01011633 -0.0002937936 0)
(0.009629835 -0.0008756948 -6.047391e-26)
(0.01003428 -0.0003275172 2.869292e-28)
(0.009683441 -0.0004102633 8.924968e-25)
(0.009646791 -8.604599e-05 -2.695934e-25)
(0.009406618 -0.0002981134 0)
(0.01002103 -0.0002921982 1.509294e-26)
(0.009432651 -0.0004803017 -1.821192e-26)
(0.009862581 0.001299839 -3.688454e-25)
(0.008832577 0.0006370687 -8.62522e-25)
(0.009197752 0.0009967206 1.163959e-24)
(0.008605982 0.000142803 -1.247873e-24)
(0.01011063 -0.0005251597 1.43261e-25)
(0.009634634 9.190924e-05 3.650901e-25)
(0.009822038 -0.000294395 0)
(0.01019802 -0.0004698198 0)
(0.01085833 -0.0005572962 0)
(0.009270805 0.0005646138 1.608542e-24)
(0.009423596 -0.0002799989 -3.444496e-25)
(0.009991067 -0.0008764835 0)
(0.008899512 -0.0008683815 -2.224978e-24)
(0.01066081 -0.0008577426 5.314223e-25)
(0.009618413 -0.0001633969 -2.472216e-26)
(0.009830112 -0.0002651542 -3.314241e-25)
(0.009568685 -0.0001464883 -5.799359e-25)
(0.01010449 -0.0004048025 0)
(0.01009467 -0.0003696648 1.090571e-26)
(0.01063694 -0.0006904995 -3.131091e-25)
(0.009553815 6.394131e-05 0)
(0.009257762 -0.0002963231 0)
(0.01011006 -0.0002577436 -6.091115e-27)
(0.009060555 0.0001091944 -1.237212e-24)
(0.007541379 -0.0002746426 5.294777e-24)
(0.009529778 -0.0003718506 -3.018907e-25)
(0.007480281 0.0003794156 0)
(0.0104099 -0.0006619293 2.352448e-26)
(0.009436565 -0.001020839 2.070862e-25)
(0.009030793 -0.0002637612 -8.437294e-25)
(0.009085202 -9.077292e-05 0)
(0.01061731 -0.0001031535 1.870343e-24)
(0.008294485 0.000978778 5.778983e-24)
(0.008055598 -0.0009430794 -4.132868e-24)
(0.009402206 0.000922046 9.735676e-25)
(0.01050943 -0.0006095445 0)
(0.009909695 -0.0002910522 -2.653422e-25)
(0.008039969 -0.001035145 0)
(0.009434289 0.0003030779 0)
(0.01033924 -0.0006345904 6.621575e-27)
(0.01014547 -0.0009833385 7.345112e-25)
(0.009670898 -0.0002267256 3.06529e-25)
(0.00940214 6.930937e-05 0)
(0.01097829 -0.000415197 0)
(0.009442718 -1.325808e-05 1.916876e-24)
(0.009158995 -0.0002528223 1.154317e-24)
(0.008583787 -0.0001158255 -9.94923e-25)
(0.009840506 -0.0002867625 -4.204663e-25)
(0.007536851 0.0003326647 -1.586902e-24)
(0.008693016 -0.0009207201 -3.08438e-24)
(0.01075664 -0.0008147909 3.26903e-25)
(0.01040214 -0.0002242718 0)
(0.008611093 -0.001260337 3.74771e-24)
(0.009127651 0.0001968296 2.697676e-25)
(0.008735811 -8.838318e-05 1.990968e-24)
(0.009528605 0.0001811826 6.704427e-25)
(0.01019541 -0.0003473292 -5.485815e-26)
(0.009626008 -0.0004658452 -1.670577e-25)
(0.009256812 -0.0006584977 -7.23889e-25)
(0.009829684 -0.0004176687 8.873336e-25)
(0.01010005 -0.0002950426 0)
(0.01039205 -0.0004822637 0)
(0.01062146 -0.0006303309 0)
(0.01040218 -0.001059211 1.085083e-24)
(0.007662502 -0.000580331 1.958262e-24)
(0.009768282 -0.0002240716 0)
(0.01017003 -0.000304971 -4.388984e-26)
(0.009553655 0.0003265983 -2.185723e-25)
(0.009714665 -0.0002046189 0)
(0.01009031 -0.0007593304 -5.071223e-25)
(0.008206845 -0.0002879597 -2.917733e-24)
(0.009586815 -0.001118829 -2.166609e-25)
(0.009501281 0.001289761 6.591957e-24)
(0.009354566 -0.0006577554 -9.859897e-25)
(0.009842183 -0.0003636615 0)
(0.008789932 -0.0005934189 -1.30349e-25)
(0.009275004 0.0003261619 9.802053e-25)
(0.009615679 -0.001100119 -2.043054e-25)
(0.009654408 -0.0003215168 -4.76445e-25)
(0.01065677 -0.0007165666 -7.110063e-26)
(0.009779899 -0.001384394 4.03852e-24)
(0.01071242 -0.0006765642 5.052168e-26)
(0.01037594 -0.0004570625 -8.722568e-25)
(0.01025193 -0.0007550959 7.151188e-26)
(0.009971364 -0.0002734613 4.29299e-26)
(0.0096075 0.0002257964 2.986666e-25)
(0.008521955 0.0006704496 0)
(0.008923556 0.0008252363 5.592545e-24)
(0.008526322 -0.0002090382 0)
(0.009684368 -0.0002639185 -5.082751e-25)
(0.01001035 -0.00108819 -1.615664e-24)
(0.009393706 0.0009474691 1.436835e-24)
(0.009533986 -0.000441343 -4.708308e-25)
(0.009986612 -0.0004750773 0)
(0.009782212 -0.001200159 0)
(0.009425375 0.0002586763 -9.158301e-26)
(0.01047231 -0.0009163434 0)
(0.01007418 -0.0009641803 -9.816979e-25)
(0.009666901 -0.0002783355 2.723282e-25)
(0.008978657 -0.0006862179 0)
(0.009493716 0.0009299552 0)
(0.01033274 -0.0005088359 -1.28433e-25)
(0.009574743 -0.0002832186 0)
(0.008841201 -0.00102429 -2.273584e-24)
(0.009468883 0.0003637704 4.271799e-26)
(0.00945459 0.001249936 3.924524e-24)
(0.007612627 -0.000627525 -4.84561e-24)
(0.0103991 -0.0008140177 1.588648e-25)
(0.01065947 -0.0008321484 0)
(0.01023807 -0.00048679 -1.63622e-25)
(0.01027654 -0.0004713523 0)
(0.01005527 -0.0004054839 -3.869299e-26)
(0.01006512 -0.0008235856 0)
(0.009457687 -0.0007241485 0)
(0.009807118 -0.001091072 1.566791e-24)
(0.009855993 -0.0008973122 -2.460975e-24)
(0.009868848 -0.0005080986 -3.888656e-25)
(0.009137927 -0.0008165053 -2.1766e-24)
(0.008179485 3.07683e-05 2.921609e-25)
(0.009492729 0.001106631 1.562577e-24)
(0.01048589 -0.0008899096 -7.162721e-25)
(0.008513068 0.0001526698 1.25239e-24)
(0.00952906 0.0008077578 0)
(0.009485303 -0.0004366257 4.300802e-25)
(0.009293933 -6.50362e-05 4.60982e-25)
(0.008957609 0.0007371965 -5.348015e-25)
(0.009337583 -0.0009301189 1.474585e-24)
(0.009834983 -0.0003267914 3.307591e-25)
(0.009398859 0.001324775 4.706501e-24)
(0.009951276 -0.0005077459 -3.503897e-25)
(0.01021576 -0.0005857473 0)
(0.009495435 -0.001146711 0)
(0.009841858 -0.0005731857 -6.23079e-25)
(0.009356177 0.0001629564 1.046111e-24)
(0.01099459 -0.00060938 0)
(0.009988886 -0.0003592482 2.221044e-25)
(0.009061759 -0.001157963 -1.363966e-25)
(0.01001549 -0.001218761 1.134287e-24)
(0.01004445 -0.0003144352 4.992817e-26)
(0.0100991 -0.0003032182 0)
(0.01007578 -0.0003967933 2.048423e-26)
(0.009533408 -0.0007990743 0)
(0.01019817 -0.001230823 0)
(0.009469825 0.0005425699 -1.350973e-24)
(0.008504438 0.001029003 0)
(0.009554035 0.000162738 0)
(0.007714747 -0.0008827797 3.057787e-24)
(0.01021898 -0.000393935 -3.191137e-27)
(0.01081857 -0.0008238233 0)
(0.009223439 0.0008651206 -7.875821e-25)
(0.01001324 -0.0009614959 -1.651021e-24)
(0.008397919 -0.001229805 -3.798234e-24)
(0.007535646 -0.0007264195 -2.666398e-25)
(0.0110516 -0.0006457069 0)
(0.01023211 -0.0004161579 -2.008101e-25)
(0.009348511 -0.0005225429 0)
(0.009427115 4.273731e-05 1.70509e-24)
(0.00951668 9.897736e-06 9.645372e-25)
(0.01108628 -0.0004288311 -6.121852e-25)
(0.007787935 -0.001101491 -3.503337e-24)
(0.009581391 -0.001014815 -1.15945e-24)
(0.009983644 -0.0004612385 -3.836746e-25)
(0.008532328 -4.028351e-05 5.804062e-25)
(0.009997457 -0.0005043708 0)
(0.009312754 0.0009737181 4.074086e-25)
(0.007768359 -0.0003824282 0)
(0.01033285 -0.0004421666 0)
(0.009413599 0.001194654 -7.816182e-26)
(0.009450864 -0.0005401533 0)
(0.01066653 -0.0006413477 7.181369e-26)
(0.01015588 -0.0003925702 0)
(0.008090407 -0.0002806025 0)
(0.01105579 -0.000479367 1.385957e-24)
(0.01005286 -0.000330417 5.114759e-28)
(0.009559627 0.0002923694 7.297488e-25)
(0.0105755 -0.0004652566 5.328695e-25)
(0.009591377 3.632474e-05 -2.010766e-25)
(0.007791268 0.0002629451 0)
(0.009710285 -0.0002681987 0)
(0.009278632 -0.0003738743 -1.049562e-24)
(0.008855986 -0.00106628 0)
(0.009256686 -0.000347429 0)
(0.009071844 0.0005352635 0)
(0.007948647 -0.0009249194 3.762692e-24)
(0.01024359 -0.0005107403 -4.156865e-27)
(0.008967396 0.0003554238 3.116927e-25)
(0.01019722 -0.0006595269 0)
(0.009290923 -0.00100931 2.281347e-24)
(0.009481827 -0.0007309305 1.433071e-24)
(0.009382899 0.0007484806 0)
(0.009667007 -0.0006911215 0)
(0.00976775 -0.0004367626 -1.029692e-24)
(0.009264971 0.0002705759 0)
(0.01082418 -1.274664e-05 -2.610838e-24)
(0.00938358 -0.0007515115 -1.090375e-24)
(0.009940929 -0.0003358755 5.664782e-26)
(0.009626114 -0.0007502403 -7.368593e-25)
(0.01004466 -0.0005289572 -1.488175e-27)
(0.01010144 -0.000793903 -1.355119e-24)
(0.01072123 -0.000534283 -7.003969e-26)
(0.009692822 -0.0002308314 -9.026749e-25)
(0.009127837 -0.0001299491 -4.986305e-25)
(0.009012395 -0.001287792 3.092996e-24)
(0.009854609 -0.0002692389 7.804339e-25)
(0.009520237 0.001337819 0)
(0.007861349 0.0006629272 5.267961e-24)
(0.00906778 -0.001461518 0)
(0.01013109 -0.0006267058 -1.913129e-25)
(0.009041432 -0.0004776647 -7.480707e-25)
(0.009357753 0.0008951875 1.374951e-24)
(0.01016827 -0.001115653 1.519544e-25)
(0.009191689 -0.001108516 -2.040894e-24)
(0.01015814 -0.0003818616 4.565666e-26)
(0.009264778 0.0001748866 5.369245e-25)
(0.009046418 0.0003345324 0)
(0.01013587 -0.0003641457 0)
(0.009863513 -0.0004064641 5.363516e-25)
(0.008050252 -0.0004879664 2.811127e-24)
(0.0104978 -0.0002740792 7.625129e-26)
(0.009295696 -0.001042057 -2.683451e-25)
(0.008669262 -0.001332453 3.286043e-24)
(0.009700282 -0.0004626344 0)
(0.009895536 -0.0008160373 -4.548474e-25)
(0.01021912 -0.0003477072 0)
(0.009964606 -0.001271659 -2.68202e-25)
(0.01032626 -0.0003313109 0)
(0.008654456 -0.0003327226 -1.923357e-24)
(0.0106549 -2.307703e-05 0)
(0.01102739 -0.0006734059 1.10619e-25)
(0.0102164 -0.000832166 4.224699e-25)
(0.008689876 -2.328822e-05 0)
(0.008037688 0.0007583168 -1.399143e-24)
(0.008557504 -0.0005851921 0)
(0.009649662 -0.000478433 4.814373e-25)
(0.01034822 -0.0001888909 0)
(0.009801866 -0.0002345146 -3.263764e-25)
(0.009604294 -0.0002344996 -4.847293e-25)
(0.009971416 -0.0006020175 3.699619e-25)
(0.009409604 0.0001799431 0)
(0.008553853 0.0009141096 3.013348e-24)
(0.009413477 -0.0002579599 3.807456e-25)
(0.01037108 -0.001196617 -5.439736e-26)
(0.00917172 -0.0003768471 8.719257e-25)
(0.009783976 -0.0003897785 2.728427e-25)
(0.009485983 -0.000623702 0)
(0.009986832 -0.0004061105 -2.563406e-25)
(0.01053949 -0.0009013151 0)
(0.01028876 -0.001254853 -2.471396e-24)
(0.008121076 0.0009256477 9.493228e-25)
(0.0100174 -0.0003298701 -1.144078e-25)
(0.01005716 -0.0003831784 0)
(0.01012591 -0.0004187798 6.661331e-27)
(0.008703285 -0.0007948594 4.824074e-25)
(0.009089186 -0.001447136 0)
(0.009981231 -0.0007574371 3.615275e-25)
(0.009578241 0.0002529518 5.066359e-25)
(0.01021058 -0.0005319524 1.248091e-26)
(0.009614066 -0.001190901 0)
(0.01007941 -0.0003290209 1.26279e-26)
(0.009381067 0.0001328445 -6.527587e-25)
(0.009466168 0.0007059807 0)
(0.01008194 -0.0004104467 -1.088802e-25)
(0.009144177 -0.0005629485 0)
(0.009719802 -0.0007395359 -5.159242e-25)
(0.009871566 -0.001369595 0)
(0.01051689 -0.0008701618 7.237715e-25)
(0.01017538 -0.0008270232 5.833488e-25)
(0.009385295 -0.0001061658 5.618374e-25)
(0.009171817 0.0001541098 2.852448e-26)
(0.01033953 -0.0007851683 3.336019e-25)
(0.009537013 7.279465e-05 0)
(0.009523006 -0.0009600628 0)
(0.009834336 -0.0004055614 -8.682371e-26)
(0.009817057 -0.000896328 -1.609185e-24)
(0.009493474 -3.967763e-05 -3.078759e-25)
(0.009394561 -0.0001922908 0)
(0.009107146 0.000469487 8.676348e-25)
(0.01083764 -0.0003494087 0)
(0.0101518 -0.0009572471 -7.111861e-25)
(0.009283015 0.0008291743 3.093033e-24)
(0.009854465 -0.001306761 0)
(0.009628999 -0.0003520733 6.825353e-25)
(0.009067842 -0.0006103362 0)
(0.009883701 -0.0005736331 4.143994e-26)
(0.009805606 -0.0005004242 0)
(0.009505447 0.0004825879 0)
(0.01029994 -0.0003577663 -2.08018e-25)
(0.009434893 -0.0004403253 0)
(0.01013067 -0.001221286 0)
(0.01022292 -0.0009698054 0)
(0.009503825 0.0003025241 8.08963e-25)
(0.009590363 0.0002804505 0)
(0.008387361 0.001196538 -1.593505e-24)
(0.01060299 -0.0005287197 4.072842e-25)
(0.01030284 -0.0007335243 0)
(0.01072268 -0.0004853919 -1.026419e-24)
(0.009233275 0.000269799 0)
(0.008810531 -0.0004828762 1.073909e-24)
(0.01002811 -0.0007958545 -1.190922e-24)
(0.009052414 -0.0001608334 -2.437063e-24)
(0.009911424 0.001211802 1.651272e-24)
(0.009994783 -0.0002789795 2.786293e-25)
(0.009900529 -0.0003794561 2.834056e-25)
(0.01002617 -0.0003091972 1.652371e-25)
(0.01002635 -0.0003565223 3.703824e-26)
(0.00995149 -0.0003252549 0)
(0.009897909 -0.0002781831 0)
(0.009471237 -1.899645e-05 -2.782077e-26)
(0.01054198 -0.0006581325 0)
(0.008481496 0.0003781918 0)
(0.008725385 0.0005855408 -8.266774e-26)
(0.009274031 0.0006948273 0)
(0.009927798 -0.0002614851 2.429518e-25)
(0.009738866 -0.0003293052 4.236311e-25)
(0.009660509 -0.0002177737 0)
(0.009617706 -0.001057518 -2.266613e-24)
(0.01099656 -0.0004882098 -1.88753e-24)
(0.009007252 0.001059088 -8.1298e-26)
(0.009470586 -0.001255997 0)
(0.01057738 -0.0005255369 -1.923567e-26)
(0.009320338 0.0002694415 0)
(0.008810289 0.001125402 6.006999e-26)
(0.008697837 0.0006304074 -1.849449e-24)
(0.009602374 3.417442e-05 1.654116e-25)
(0.009709033 -0.0004348447 -1.464197e-25)
(0.01059298 -0.000431577 4.190115e-25)
(0.009571087 0.0001925895 4.05364e-25)
(0.009537243 0.0002240917 -7.567753e-25)
(0.01066446 -0.0007377683 -5.55955e-26)
(0.008959871 -0.0004382446 1.496359e-24)
(0.009041208 0.001124753 -3.876162e-25)
(0.01071321 -9.757793e-05 1.348902e-24)
(0.009460567 -0.000397469 0)
(0.009522093 -0.000181839 -1.300572e-24)
(0.009874872 -0.0002938445 -3.970221e-25)
(0.01088984 -0.0008661155 5.170449e-25)
(0.009214088 -0.0001078609 0)
(0.009899906 -0.0004536846 3.393905e-25)
(0.01003634 -0.0006436604 -1.664244e-25)
(0.01020525 -0.0004942933 0)
(0.01021269 -0.0006212335 -1.903726e-25)
(0.008949073 -1.079815e-05 1.067945e-24)
(0.009534464 0.0005454625 6.964795e-25)
(0.0105371 -0.001103176 2.442177e-24)
(0.01023356 -0.0005568412 0)
(0.009916463 -0.0005171152 -3.724349e-25)
(0.009727141 -0.0008439713 0)
(0.01037063 -0.000420857 2.053565e-25)
(0.009616752 -0.0006377631 3.789132e-25)
(0.009940665 -0.0002298798 -1.226986e-25)
(0.01026158 -0.0001821091 0)
(0.008053824 -0.0003762095 3.369553e-24)
(0.007533441 -0.0001623053 -1.603901e-24)
(0.009750358 -0.0009204148 -5.088916e-25)
(0.009804106 -0.0005794545 4.978426e-25)
(0.01043829 -0.0006197263 5.522067e-26)
(0.01021015 -0.0003253274 -2.301992e-25)
(0.01012539 -0.0004400776 6.480502e-26)
(0.01093431 -0.0008111189 1.463522e-25)
(0.0100962 -0.000413186 5.730933e-26)
(0.009626266 -0.001394315 -1.70661e-24)
(0.01099282 -0.0004384273 0)
(0.008939809 0.0001003529 -1.270838e-24)
(0.0100614 -0.0002772637 0)
(0.008013714 0.0004876725 1.056e-25)
(0.010793 -0.0006314905 9.670359e-26)
(0.01090534 -0.000258162 2.361077e-24)
(0.009309715 0.0004646077 0)
(0.01064956 -0.0009965449 0)
(0.009299401 0.0005209868 1.217455e-24)
(0.009408419 0.0005610941 5.655566e-25)
(0.00944016 0.0008059537 -8.931319e-25)
(0.009383896 0.0005052073 0)
(0.009037796 0.0005006165 0)
(0.009612238 0.0006193479 0)
(0.01068811 -0.0005384816 -1.170595e-25)
(0.008003625 0.0002635221 0)
(0.008159691 0.0004311874 0)
(0.008049867 0.0002235558 -2.641181e-24)
(0.0098615 -0.0005470442 -2.434336e-25)
(0.008238849 0.0005586878 -2.034058e-24)
(0.009857678 -0.0003295365 -1.506567e-26)
(0.01083291 -0.0006211342 0)
(0.009384586 -0.0002523966 -7.397674e-25)
(0.00898818 -3.305679e-05 1.071023e-24)
(0.009679285 -0.0003921208 -5.740874e-25)
(0.008626918 0.0006279224 1.82361e-24)
(0.00948117 7.262727e-06 -7.3891e-25)
(0.01025359 -0.0004496823 -8.538935e-26)
(0.009854824 -0.0003463276 0)
(0.009832112 -0.0004940167 5.299065e-25)
(0.009130806 -0.0004715929 -1.138083e-24)
(0.01006781 -0.0005094165 3.267431e-25)
(0.01043281 -0.0005111966 8.749891e-27)
(0.008360192 -0.001063048 -2.334649e-24)
(0.01019023 -0.001201943 0)
(0.008078782 -0.0007076812 3.575687e-24)
(0.009073961 0.000930949 0)
(0.008308247 -0.00126723 -4.755895e-24)
(0.007660473 -0.0002345649 -1.059338e-24)
(0.009406958 0.001287458 0)
(0.00975494 -0.001034001 1.372972e-24)
(0.01088477 -0.0009189947 -2.490548e-25)
(0.009318232 -0.0006432524 -3.779926e-25)
(0.00990399 -0.0003156623 2.004294e-25)
(0.01083257 -0.0007473941 9.355089e-27)
(0.008165334 -0.001183772 -3.742345e-24)
(0.007788262 0.0003913228 3.652397e-24)
(0.01050166 -0.0005400379 -4.342817e-25)
(0.009676079 -0.0003015623 -6.960768e-25)
(0.01027446 -0.0004319854 -2.047641e-25)
(0.01016203 -0.0004110481 -4.281732e-26)
(0.008954415 -0.0003686748 0)
(0.01033579 -0.0005204029 -2.27439e-26)
(0.01041961 -0.001122093 -1.533176e-25)
(0.01007557 -0.0005361914 2.09528e-25)
(0.00973985 -0.001342004 0)
(0.009451792 -0.0002839604 0)
(0.009586045 0.0004388902 -3.724349e-26)
(0.009619258 0.0004260371 0)
(0.01052064 -0.000555599 6.420202e-25)
(0.009543038 0.000400026 -2.181847e-25)
(0.009542804 0.0002979067 -4.592118e-25)
(0.009203037 0.0004781489 0)
(0.009066257 -0.001094096 -1.557005e-24)
(0.009694289 -0.0008308301 1.643359e-24)
(0.009362641 -0.0007931956 6.52462e-25)
(0.009859627 -0.0006560279 3.193192e-25)
(0.009971102 -0.0007251218 -8.452502e-25)
(0.009940894 -0.001337293 -1.964739e-24)
(0.009691745 -0.0002005678 0)
(0.009433951 -0.001142426 2.788597e-24)
(0.01075433 -0.0008738302 -3.575773e-25)
(0.009873404 -0.0004811119 9.339312e-25)
(0.010548 -0.000731297 1.037595e-25)
(0.01036927 -0.0009899354 9.926263e-26)
(0.009471732 4.334573e-05 0)
(0.01106707 -0.0004886835 0)
(0.009533715 0.001068388 2.527462e-25)
(0.008905109 0.0004581145 -4.600552e-25)
(0.009760199 -0.0002422865 0)
(0.009930865 -0.0006752564 2.124696e-25)
(0.01026568 -0.0007039522 2.526367e-25)
(0.009930239 -0.0002768251 8.917233e-26)
(0.01021004 -0.0004814986 0)
(0.01100251 -0.0005818653 9.81331e-25)
(0.009231598 0.0005986913 0)
(0.009459462 -0.000136226 0)
(0.008400738 -0.0001363417 0)
(0.0100537 -0.0002713667 0)
(0.008847073 0.0004925535 6.285573e-26)
(0.009555519 -7.465967e-05 -4.633548e-25)
(0.01022804 -0.000477462 -2.795323e-26)
(0.009697102 -0.0002728332 -6.494173e-26)
(0.01105798 -0.0006176017 -5.321188e-25)
(0.01085293 -0.0009341971 2.062381e-25)
(0.01082505 -0.000917654 0)
(0.00995386 -0.000289007 2.149228e-25)
(0.009545338 -0.0002721968 0)
(0.01081059 -0.0006921994 0)
(0.009100336 0.0004045927 0)
(0.0102968 -0.0004115739 -5.860701e-26)
(0.009555661 -0.0006880423 7.080817e-25)
(0.009417396 0.001084152 0)
(0.007672133 -0.00119467 6.507596e-25)
(0.009281138 -1.836005e-05 -5.695698e-25)
(0.009183345 9.885084e-05 0)
(0.009928512 -0.0002391612 2.303168e-25)
(0.009569077 0.0004930535 5.264472e-25)
(0.009022585 0.0002973204 1.086948e-24)
(0.008957238 3.016667e-05 3.371277e-24)
(0.008786209 0.0001357916 2.261718e-24)
(0.009446349 0.0004252167 -6.806303e-25)
(0.008705321 0.0004932263 -1.327898e-24)
(0.009121417 0.0002544705 0)
(0.009868827 -0.0002577709 -2.418538e-25)
(0.00949068 -0.0007514727 -1.071307e-24)
(0.0106788 -0.00106897 0)
(0.01065147 -0.0009620074 0)
(0.009803616 -0.0003264124 1.861434e-25)
(0.009988154 -0.0002908906 0)
(0.00996165 -0.0002854325 -1.926478e-25)
(0.009871158 -0.0002769463 -1.886903e-26)
(0.009886943 -0.0004184298 -4.110551e-25)
(0.009944862 -0.0003010198 -1.97248e-25)
(0.0100047 -0.0003545887 -1.627573e-25)
(0.009079317 -0.0001492382 -1.427781e-24)
(0.01039522 -0.0002804362 -5.488322e-25)
(0.009499539 -0.0002812538 -7.17033e-25)
(0.009247268 -0.0008910888 -6.186183e-25)
(0.009744676 -0.0003027844 4.597272e-25)
(0.01057514 -0.0009181932 0)
(0.01088481 -0.0007136973 0)
(0.01082651 -0.0007844104 2.22103e-25)
(0.009597601 7.05005e-05 0)
(0.01020244 -0.0004564112 0)
(0.00958753 0.0006857108 0)
(0.009583304 6.188005e-05 0)
(0.009607589 1.773817e-05 0)
(0.009992038 -0.0003100271 2.189126e-26)
(0.01008005 -0.0007784624 6.376495e-25)
(0.00916244 -0.0001709767 0)
(0.01044381 -0.0005741093 0)
(0.01011683 -0.000275936 -4.411024e-26)
(0.009753764 -0.0006296557 -9.058249e-25)
(0.009999416 -0.0006095119 5.514524e-25)
(0.009931731 -0.0005435637 -1.069587e-25)
(0.009880382 -0.000594829 -5.302607e-25)
(0.009962809 -0.0004158816 -2.341402e-25)
(0.008794039 0.0005930788 6.681034e-25)
(0.01018791 -0.0003129057 0)
(0.01013503 -0.0003540067 1.865169e-26)
(0.01014892 -0.0003773686 7.987049e-27)
(0.01088747 -0.0005305366 0)
(0.008649653 -0.001386759 -1.344237e-25)
(0.009923628 -0.0003705792 5.611064e-26)
(0.01112368 -0.0004669968 -5.629698e-25)
(0.009952695 -0.0004254621 -2.296743e-25)
(0.009341488 0.0008148356 7.773521e-25)
(0.01007004 -0.0003407461 -4.635428e-26)
(0.009537416 -0.0005130756 -3.993183e-25)
(0.009054402 0.0005701622 0)
(0.009812588 -0.0007304687 -3.613381e-25)
(0.01090745 -0.0005392621 0)
(0.009164441 0.0002068403 3.788409e-26)
(0.009512872 0.0003364195 0)
(0.009421516 -0.0005112382 0)
(0.009210612 -0.0002110507 8.067704e-25)
(0.01018203 -0.0007856653 3.115318e-25)
(0.0100977 -0.0009141183 0)
(0.008696847 0.001175489 3.153894e-24)
(0.009344745 0.001151817 -2.250055e-24)
(0.01078101 -0.0005857129 -6.421567e-25)
(0.009768455 -0.001070348 0)
(0.0105086 -0.0006310125 8.919023e-27)
(0.009645432 -0.0002565126 -9.340533e-25)
(0.009429813 -0.0008915559 4.126914e-25)
(0.008662944 -0.001177699 1.003631e-25)
(0.008517385 0.0002011755 3.857495e-24)
(0.00964326 -0.0001209707 6.956839e-25)
(0.009585856 -1.814015e-05 -3.434173e-25)
(0.009096885 0.001111396 0)
(0.008923874 0.0001671095 -2.145164e-24)
(0.009337928 0.001385708 -3.919714e-24)
(0.01030235 -0.0007511036 0)
(0.01037385 -0.0003300755 -8.113542e-25)
(0.01035574 -0.00053126 3.819185e-26)
(0.009867918 -0.001029412 1.225494e-25)
(0.009299342 -0.0004781511 -3.839788e-26)
(0.009181237 0.0002380751 -1.254144e-24)
(0.009228597 0.0003537447 -1.236464e-25)
(0.009668803 0.001309608 4.604208e-24)
(0.01008476 -0.0003890199 3.473357e-26)
(0.01006426 -0.0002610705 0)
(0.009557983 0.0008479633 0)
(0.009591034 -0.001166969 0)
(0.009624369 -0.0007921011 0)
(0.01004302 -0.000675234 3.324814e-25)
(0.009618253 -0.0002172853 -6.800357e-25)
(0.009227225 0.0006915993 -3.243158e-25)
(0.01012639 -0.0006869543 0)
(0.01034531 -0.001179478 -1.327134e-24)
(0.00924676 0.0001320852 -1.121478e-24)
(0.01092964 -0.0007149859 1.194064e-26)
(0.01095209 -0.000594501 0)
(0.01015096 -0.001158378 -1.117855e-24)
(0.01026834 -0.0009245405 -5.816679e-25)
(0.01077202 -0.0001687859 1.762999e-24)
(0.009192508 -0.0007845492 1.66376e-24)
(0.009463095 -7.69732e-05 -4.58581e-25)
(0.009272894 -0.0007167752 -1.619512e-24)
(0.00921583 2.71307e-05 1.09362e-24)
(0.01085421 -0.000580351 -8.577949e-25)
(0.0106837 -0.0004902749 0)
(0.009953212 -0.0002335497 0)
(0.009260644 -1.043353e-06 -5.52406e-25)
(0.01057879 -0.0007200037 0)
(0.01055437 -0.0008227032 -2.455106e-25)
(0.0104877 -0.0007164927 -6.031165e-26)
(0.01046356 -0.0006858039 -1.034009e-25)
(0.01031862 -0.0004129416 0)
(0.009951474 -0.0007627032 -7.089197e-25)
(0.01058396 -0.0006864065 0)
(0.009598619 0.0007478196 -1.173078e-25)
(0.008331492 -0.0008440282 1.884263e-24)
(0.009853008 -0.0007753382 1.207039e-24)
(0.009907493 -0.0007913031 0)
(0.009857425 -0.0004824886 -5.506346e-25)
(0.01036228 -0.0008548502 -5.503803e-25)
(0.01070488 -0.000284405 -1.105812e-24)
(0.01017703 -0.0002023665 6.311972e-26)
(0.01018186 -0.0004729941 0)
(0.00802447 -0.0001260717 3.719886e-24)
(0.01009818 -0.0006586359 -2.809573e-25)
(0.01016642 -0.0007313959 0)
(0.008840286 -0.0007901441 0)
(0.008657646 -0.0006986869 1.504567e-24)
(0.01068449 -0.0008065252 -6.144089e-26)
(0.009796681 -0.001267069 5.154002e-25)
(0.009915401 -0.0002474319 -1.919989e-25)
(0.01048311 -0.0004841648 0)
(0.009591669 -0.000164729 1.318706e-24)
(0.0103368 -0.001258016 0)
(0.009531364 -0.0003485166 5.212515e-25)
(0.009044324 0.0007843571 0)
(0.008625245 -0.0009219293 5.996623e-24)
(0.009110336 -0.001300113 -2.322313e-25)
(0.00959553 0.000199131 -1.553434e-25)
(0.00976672 -0.0003317142 3.920234e-26)
(0.01045074 -0.0005425182 2.599934e-25)
(0.01020597 -0.0002501644 5.251543e-25)
(0.00972155 -0.0004048721 -8.30436e-25)
(0.009422071 0.0005446313 -9.014249e-25)
(0.009848358 -0.0005164922 0)
(0.009773864 -0.0004097042 1.289231e-25)
(0.009971315 -0.000250518 0)
(0.01094473 -0.0005631394 -1.301379e-25)
(0.01102717 -0.0003648489 2.159925e-24)
(0.009733043 -0.0008979778 0)
(0.009991308 -0.0003432046 2.649268e-25)
(0.009289181 0.0006671886 8.295013e-26)
(0.008730843 -3.759661e-05 -1.664151e-24)
(0.01017522 -0.0005861378 0)
(0.01011996 -0.0009480654 -5.945807e-25)
(0.01016525 -0.0002868126 9.818527e-26)
(0.008745775 -0.0006025569 1.010061e-24)
(0.01026096 -0.001161376 -2.139756e-24)
(0.009350828 0.001345333 -2.168816e-24)
(0.009666026 -0.000422918 0)
(0.009668359 -0.0007899799 0)
(0.01014723 -0.0004115166 0)
(0.008494982 0.0007218668 0)
(0.009794118 -0.0002531944 -2.404699e-25)
(0.00724649 -0.0001905921 -1.170894e-24)
(0.009727949 -0.000375868 -6.146795e-25)
(0.009460407 0.0007665618 -5.445409e-25)
(0.008338526 -0.0003362085 -5.219686e-24)
(0.009629313 -0.0002381584 0)
(0.01031891 -0.001202341 1.016418e-24)
(0.008870188 -0.000152838 1.307088e-24)
(0.009256597 -0.000545242 1.114026e-24)
(0.009464674 6.240572e-05 1.90715e-25)
(0.00771742 0.0007111044 -1.02685e-25)
(0.009351748 -1.858019e-05 -3.644101e-25)
(0.009320903 -5.609506e-05 -3.893731e-25)
(0.01106364 -0.0005414771 1.070759e-25)
(0.009605747 0.0004782903 -4.343072e-25)
(0.01002817 -0.0002670071 0)
(0.009894814 -0.001199302 0)
(0.009548731 0.0006391554 -8.290572e-25)
(0.009569889 2.46378e-05 -7.463403e-25)
(0.01066521 -0.0006046541 -1.413756e-25)
(0.009197461 0.0007956374 -1.652934e-25)
(0.009522886 -2.840444e-05 -5.044698e-25)
(0.009739977 -0.000411377 -4.62729e-25)
(0.009558058 0.0001226233 0)
(0.009390886 -8.193569e-05 -5.516041e-25)
(0.009309283 -0.0001107746 4.039359e-25)
(0.0108185 -0.0006668241 0)
(0.01077657 -0.0007352517 -1.419686e-26)
(0.01053331 -0.0005413458 -1.780112e-25)
(0.009916584 -0.0009172273 -5.543878e-25)
(0.009869472 -0.0008625702 9.483001e-25)
(0.009542568 0.001310279 -2.983278e-24)
(0.009028175 0.0002334536 2.190012e-24)
(0.009595661 0.0007949196 0)
(0.009048043 0.0008523694 -1.935945e-25)
(0.009097931 0.0007930786 -1.622657e-24)
(0.009801252 -0.0004058827 -7.139862e-26)
(0.01084298 -0.0007078448 0)
(0.009868994 -0.0004183767 -2.694474e-25)
(0.008627169 0.0008745875 -3.066182e-24)
(0.008420454 -0.0008062771 3.421001e-24)
(0.009771908 -0.0002453401 -3.286425e-25)
(0.009788187 -0.0003002916 -7.268526e-27)
(0.009772007 -0.000453543 5.989603e-25)
(0.007503387 -0.0005926769 0)
(0.009642325 -5.504037e-05 0)
(0.01018507 -0.0004207672 0)
(0.01089194 -0.000472366 -4.291559e-25)
(0.009427695 0.0007128585 5.304232e-25)
(0.009420935 -0.0004201731 8.012424e-25)
(0.009445064 6.323793e-05 -1.803239e-25)
(0.008786742 0.001382985 0)
(0.009143819 0.001393146 1.449662e-25)
(0.009544733 0.001035003 -2.168096e-25)
(0.00961382 0.001141223 -3.795775e-24)
(0.009711272 -0.0005186489 1.150223e-25)
(0.00953936 0.0005804389 0)
(0.009541564 -0.001293613 2.790546e-24)
(0.00966278 -0.0006052984 5.74841e-25)
(0.009528252 -0.0006746338 1.255328e-24)
(0.009376854 -0.0006211418 6.459156e-26)
(0.00952226 -0.0005515545 1.302389e-24)
(0.008367992 9.846472e-05 -2.356203e-24)
(0.009656367 -0.0007122614 6.805877e-25)
(0.009358708 -0.0006884983 0)
(0.009935905 -0.0006213958 -1.062616e-24)
(0.009905868 -0.0003604105 0)
(0.008890967 0.0004956226 0)
(0.0110873 -0.0004747186 1.524154e-25)
(0.01055342 -0.0005427776 2.764485e-25)
(0.01094164 -0.0003578871 0)
(0.009576468 -0.0005446619 1.274048e-24)
(0.009544483 -0.0005361798 0)
(0.0108011 -0.000975023 9.950161e-25)
(0.009587249 -0.0005680018 -1.471581e-24)
(0.01005085 -0.0009524492 0)
(0.009065205 -0.0005370034 1.327763e-24)
(0.009441575 -0.0006515089 1.352489e-24)
(0.009400367 -0.0005884022 -1.414707e-24)
(0.008136726 0.000754224 1.375861e-24)
(0.01026143 -0.000998507 0)
(0.008940628 -0.001302139 -3.088548e-24)
(0.01023115 -0.0007026444 -1.226766e-25)
(0.008312896 -0.0008880807 -5.135103e-24)
(0.008209059 -0.0006903272 1.411008e-24)
(0.008487979 -0.0009663079 0)
(0.009571239 -0.001390626 -2.279729e-24)
(0.009658636 -0.0007481823 1.122569e-24)
(0.009574553 0.0001284908 0)
(0.009569644 0.0001637686 0)
(0.009572938 -0.0003811406 2.834896e-25)
(0.007331465 1.541129e-05 -2.102733e-24)
(0.009466696 0.0001561939 5.739142e-25)
(0.009391866 -0.0004834387 5.039798e-25)
(0.008302831 0.0006549122 1.802881e-24)
(0.009564757 0.0007768789 0)
(0.008979433 0.001165384 -1.553708e-25)
(0.009013754 -0.0005384778 1.371282e-24)
(0.009589567 -6.919864e-05 0)
(0.00766432 -0.001035108 -1.164267e-24)
(0.008154972 -0.001003157 -4.063675e-24)
(0.008036323 -0.001081206 0)
(0.009022769 0.0009769498 6.71702e-25)
(0.008695265 0.0008794749 1.628543e-24)
(0.01087609 -0.0006958441 2.300164e-25)
(0.007778462 0.0005823549 -2.577969e-24)
(0.01032283 -0.0008190468 0)
(0.008547413 -0.000716959 -2.078704e-24)
(0.008906929 0.001106084 -2.657768e-24)
(0.009515134 -0.0002556122 6.121231e-25)
(0.008484451 0.0004758557 0)
(0.01023441 -0.001266253 2.411296e-24)
(0.01059644 -0.001075569 -1.141867e-24)
(0.009086336 -0.001002464 -6.415282e-25)
(0.007991642 -0.000348615 -2.462998e-24)
(0.01035363 -0.001084711 3.678502e-26)
(0.009333541 -0.0002626689 -6.471513e-26)
(0.009683799 -0.0002509807 5.627809e-25)
(0.01029674 -0.000454312 -1.154084e-25)
(0.00975269 -0.0002817586 -4.655989e-25)
(0.008886013 -0.000459771 0)
(0.008967269 -0.0005821102 -2.599915e-24)
(0.007458359 -0.0006410412 0)