/*--------------------------------*- C++ -*----------------------------------*\
| =========                 |                                                 |
| \\      /  F ield         | OpenFOAM: The Open Source CFD Toolbox           |
|  \\    /   O peration     | Version:  2406                                  |
|   \\  /    A nd           | Website:  www.openfoam.com                      |
|    \\/     M anipulation  |                                                 |
\*---------------------------------------------------------------------------*/
FoamFile
{
    version     2.0;
    format      ascii;
    arch        "LSB;label=32;scalar=64";
    class       surfaceScalarField;
    location    "4.2";
    object      phi;
}
// * * * * * * * * * * * * * * * * * * * * * * * * * * * * * * * * * * * * * //

dimensions      [0 3 -1 0 0 0 0];

oriented        oriented;

internalField   nonuniform List<scalar> 
23794
(
6.141063e-05
-0.002483819
0.002422409
0.0006847996
-0.000623389
0.00151157
-0.0008267703
-0.001533533
0.003045103
-0.00690043
0.005366898
-0.008991094
0.002090663
-0.00745247
-0.001538623
-0.005011557
-0.002440913
-0.002959823
-0.002051734
-0.001517772
-0.001442051
-0.0005769475
-0.0009408245
0.0003174822
-0.0008944297
0.001483197
-0.001165715
0.003198741
-0.001715544
0.005126277
-0.001927535
0.006669401
-0.001543124
0.007344799
-0.0006753987
0.00626428
0.001080519
0.002741242
0.003523038
-0.001949955
0.004691197
-0.004890251
0.002940296
-0.00316088
-0.001729371
0.0007245479
-0.003885427
0.003381994
-0.002657446
0.004419171
-0.001037178
0.005359441
-0.0009402694
0.007222121
-0.001862681
0.01035663
-0.00313451
0.01272041
-0.002363782
0.009647625
0.003072788
0.0008520197
0.008795605
-0.003106892
0.003958912
0.0001851559
-0.003292048
0.003062827
-0.002877671
0.003073283
-1.045597e-05
0.0002857648
0.002787518
-0.005353458
0.005639223
-0.009868013
0.004514555
-0.01238444
0.00251643
-0.01369625
0.001311804
-0.01447114
0.0007748876
-0.01499567
0.0005245333
-0.0153685
0.0003728304
-0.01562565
0.0002571494
-0.0157932
0.0001675504
-0.01579392
7.19884e-07
-0.01573567
-5.824685e-05
-0.01565123
-8.444382e-05
-0.01552471
-0.0001265168
-0.01538765
-0.0001370613
-0.01519532
-0.0001923251
-0.01496623
-0.000229095
-0.01468097
-0.0002852613
-0.01437524
-0.0003057287
-0.0140553
-0.0003199422
-0.01368308
-0.0003722146
-0.01329365
-0.0003894373
-0.01289858
-0.0003950681
-0.01244052
-0.0004580544
-0.01196156
-0.000478967
-0.01145895
-0.0005026058
-0.01095168
-0.0005072678
-0.01042497
-0.0005267157
-0.009849442
-0.0005755251
-0.0092836
-0.0005658421
-0.008677637
-0.0006059631
-0.008055038
-0.000622599
-0.007428739
-0.000626299
-0.006795494
-0.0006332446
-0.006131877
-0.0006636173
-0.005468033
-0.0006638441
-0.004798001
-0.0006700319
-0.004116662
-0.0006813393
-0.00344045
-0.000676212
-0.002784486
-0.0006559636
-0.002094331
-0.0006901546
-0.001422283
-0.0006720483
-0.0007588671
-0.000663416
-2.06962e-05
-0.0007381709
0.0007746402
-0.0007953364
0.001507361
-0.0007327209
0.002216529
-0.0007091682
0.002913215
-0.0006966859
0.003591479
-0.0006782638
0.00426857
-0.0006770905
0.004925819
-0.0006572497
0.005594387
-0.0006685679
0.006242666
-0.0006482787
0.006856701
-0.0006140348
0.007474117
-0.0006174165
0.008078096
-0.0006039793
0.008659164
-0.0005810672
0.009236337
-0.0005771736
0.009798095
-0.0005617577
0.0103064
-0.0005083057
0.01080896
-0.000502562
0.0112956
-0.0004866405
0.01174072
-0.000445121
0.01218544
-0.0004447193
0.01257817
-0.0003927252
0.01294251
-0.0003643375
0.0132673
-0.0003247966
0.0135488
-0.0002814948
0.01382377
-0.0002749701
0.0140605
-0.000236735
0.01425669
-0.0001961881
0.01440924
-0.0001525477
0.0145173
-0.0001080661
0.01459294
-7.563239e-05
0.01459866
-5.72687e-06
0.01455143
4.723154e-05
0.01438771
0.0001637206
0.01401793
0.0003697851
0.01340743
0.0006104997
0.01239581
0.001011621
0.01052009
0.001875718
0.007050258
0.00346983
0.002336285
0.004713973
0.0002713303
0.002064955
0.001216381
-0.0009450505
-0.0009296648
0.002146046
-0.00677809
0.005848425
-0.00926852
0.00249043
-0.006863434
-0.002405086
-0.003982738
-0.002880696
-0.00241451
-0.001568229
-0.001602346
-0.0008121633
0.0001605194
-0.001762866
0.003021791
-0.002861272
0.004317068
-0.001295277
0.0001908056
0.004126263
-0.003531468
0.003722274
-0.004932588
0.00140112
-0.00555476
0.0006221719
-0.004347987
-0.001206773
-0.002607155
-0.001740832
-0.0001326807
-0.002474474
0.002333898
-0.002466578
0.003080415
-0.0007465178
0.002242553
0.000837862
0.001276335
0.0009662188
0.000143872
0.001132463
-0.0009060544
0.001049926
-0.001768314
0.0008622593
-0.002417775
0.0006494615
-0.002816369
0.0003985938
-0.002748021
-6.834839e-05
-0.002130519
-0.0006175017
-0.001037166
-0.001093353
0.0002835513
-0.001320718
0.001600719
-0.001317168
0.002996149
-0.00139543
0.00439373
-0.001397582
0.00563746
-0.001243729
0.006484844
-0.0008473841
0.00566613
0.0008187137
0.003182311
0.004005452
-0.007898871
0.006315827
0.001255271
0.002126792
-0.0008262292
0.00125473
-0.005566567
0.00778544
-0.01035813
0.01015846
-0.01075121
0.002483741
-0.00829624
-0.003993593
-0.00551221
-0.005224942
-0.003386509
-0.004177435
-0.002104615
-0.002723945
-0.001255303
-0.001790136
-5.732121e-05
-0.002092412
0.001710389
-0.002933425
0.004036682
-0.004041837
0.006453936
-0.00434479
0.008366936
-0.003456124
0.009363843
-0.001672305
0.009079572
0.00136479
0.006598396
0.006004214
-9.204532e-06
0.0112988
-0.005921767
0.008852858
-0.004324682
-0.003326456
4.664598e-06
-0.008214774
0.002619886
-0.005272667
0.003430944
-0.001848235
0.004045201
-0.001554526
0.005661984
-0.003479464
0.008990681
-0.006463207
0.01218577
-0.005558869
0.01183927
0.003419288
0.004459158
0.01617571
-0.001104791
0.009522862
-0.002098807
-0.002298032
-0.003951325
-0.001025154
-0.007473055
0.003511274
-0.01308149
0.008395958
-0.01879331
0.01135103
-0.02179944
0.007520691
-0.02260329
0.003320274
-0.02282607
0.001534587
-0.02286702
0.0008158368
-0.02282987
0.0004873887
-0.02275055
0.0002935021
-0.02264333
0.0001499315
-0.02251997
4.419251e-05
-0.02229514
-0.0002241105
-0.02205068
-0.0003027091
-0.02178549
-0.0003496337
-0.02147916
-0.0004328413
-0.02116231
-0.0004539117
-0.02078788
-0.0005667609
-0.02037709
-0.000639885
-0.01990516
-0.0007571916
-0.01941159
-0.0007992922
-0.01890987
-0.0008216647
-0.01835159
-0.0009304985
-0.01777183
-0.0009691911
-0.01719081
-0.0009760956
-0.01653723
-0.001111629
-0.01586411
-0.001152089
-0.01516361
-0.001203108
-0.01445704
-0.001213836
-0.0137338
-0.001249955
-0.01295246
-0.001356861
-0.01218378
-0.00133452
-0.01137359
-0.001416161
-0.01054181
-0.001454375
-0.009709027
-0.001459083
-0.008872588
-0.001469683
-0.007999009
-0.001537197
-0.007124249
-0.001538603
-0.006245122
-0.00154916
-0.005353816
-0.001572645
-0.004470838
-0.00155919
-0.003610342
-0.001516459
-0.002714486
-0.001586011
-0.001837303
-0.001549231
-0.0009664995
-0.001534219
-1.102104e-05
-0.001693649
0.001008508
-0.001814866
0.001960334
-0.001684546
0.002884457
-0.001633291
0.003791116
-0.001603345
0.004678536
-0.001565684
0.005565884
-0.001564438
0.006430437
-0.001521803
0.007308125
-0.001546256
0.00816359
-0.001503744
0.008977709
-0.001428153
0.009797999
-0.001437707
0.01060693
-0.001412912
0.01138735
-0.00136149
0.01216377
-0.001353593
0.01292768
-0.001325661
0.01362821
-0.001208836
0.01432647
-0.001200827
0.01500704
-0.00116721
0.01564133
-0.00107941
0.01627728
-0.001080673
0.01685243
-0.0009678723
0.01740301
-0.0009149157
0.01790953
-0.0008313162
0.01836865
-0.0007406178
0.01882731
-0.0007336225
0.01924566
-0.000655086
0.01961995
-0.0005704801
0.01994995
-0.000482552
0.02023506
-0.0003931765
0.02048746
-0.0003280312
0.02067913
-0.0001973975
0.02087852
-0.0001521531
0.02105634
-1.41041e-05
0.02114316
0.0002829636
0.02116569
0.0005879687
0.0210955
0.001081813
0.02073064
0.002240585
0.01901728
0.005183187
0.01526107
0.008470182
0.0100202
0.007305821
0.004317986
0.004757166
-0.001928488
0.008392519
-0.006591251
0.01051119
-0.00665641
0.002555589
-0.003440953
-0.005620543
-0.0005819499
-0.005739699
0.0007520256
-0.002902204
0.001041297
-0.001101435
0.00206078
-0.002782348
0.004908045
-0.005708536
0.005167445
-0.001554677
-0.001137072
0.01043078
-0.005572305
0.008157506
-0.006696468
0.002525284
-0.0072272
0.001152904
-0.005615619
-0.002818354
-0.003356615
-0.003999836
-0.0003262637
-0.005504826
0.002795096
-0.005587938
0.004716024
-0.002667446
0.004384106
0.00116978
0.002028917
0.003321408
-0.0004263994
0.003587779
-0.001810478
0.002434005
-0.002684088
0.001735869
-0.003312976
0.00127835
-0.003640432
0.0007260492
-0.003463607
-0.0002451727
-0.002683551
-0.001397558
-0.001326615
-0.002450288
0.0003232132
-0.002970546
0.001976965
-0.002970919
0.003708296
-0.003126761
0.005506214
-0.0031955
0.007009626
-0.002747141
0.008345231
-0.002182989
0.009328607
-0.0001646616
0.004612047
0.00889901
-0.01149733
0.008914144
0.003463204
0.007562598
-0.002024991
0.006742925
-0.007546793
0.01330724
-0.01145752
0.01406919
-0.01158059
0.002606813
-0.0087904
-0.006783783
-0.005378128
-0.008637214
-0.002818901
-0.006736662
-0.001430277
-0.004112568
-0.0007373546
-0.002483059
0.0004757708
-0.003305537
0.002554937
-0.005012592
0.005272987
-0.006759886
0.007988365
-0.007060168
0.010108
-0.005575764
0.01114777
-0.002712073
0.01055067
0.001961892
0.0086866
0.007868284
0.002987919
0.01699748
-0.004381972
0.01622275
-0.00477637
-0.002932059
-0.001350081
-0.01164106
-7.112317e-05
-0.006551625
0.0001882442
-0.002107603
0.0001972951
-0.001563577
0.001598318
-0.004880487
0.005535457
-0.01040035
0.00889379
-0.008917201
0.009533222
0.002779856
0.004927473
0.02078146
-0.004226515
0.01867685
-0.01281703
0.006292481
-0.01875892
0.004916738
-0.02221596
0.006968314
-0.02539045
0.01157045
-0.02685029
0.01281087
-0.02677854
0.007448946
-0.0266206
0.003162332
-0.02670887
0.001622852
-0.02677432
0.0008812942
-0.02680747
0.000520539
-0.02680009
0.0002861173
-0.0267544
0.000104244
-0.02667843
-3.178097e-05
-0.02644199
-0.0004605481
-0.0261624
-0.0005823034
-0.02586134
-0.0006506953
-0.02550898
-0.0007851982
-0.02514676
-0.0008161338
-0.0247125
-0.001001018
-0.02423582
-0.001116564
-0.02368444
-0.001308576
-0.02310644
-0.001377292
-0.02251979
-0.001408311
-0.0218624
-0.001587887
-0.02117919
-0.001652406
-0.02049591
-0.001659372
-0.01972263
-0.001884905
-0.01892602
-0.001948702
-0.0180961
-0.00203303
-0.01725848
-0.002051453
-0.01640075
-0.002107687
-0.01547089
-0.002286719
-0.01455763
-0.002247779
-0.01359162
-0.002382178
-0.0125997
-0.002446292
-0.01160554
-0.002453243
-0.01060621
-0.002469016
-0.009561235
-0.00258217
-0.00851403
-0.002585808
-0.007460047
-0.002603143
-0.006391183
-0.002641509
-0.00533045
-0.002619923
-0.004295712
-0.002551197
-0.003220511
-0.002661213
-0.002167954
-0.002601788
-0.001124745
-0.002577428
9.912064e-06
-0.002828306
0.001216285
-0.003021239
0.002352867
-0.002821128
0.003458204
-0.002738628
0.004541889
-0.00268703
0.005602788
-0.002626584
0.006662948
-0.002624597
0.00769506
-0.002553915
0.008742725
-0.002593922
0.009762871
-0.00252389
0.01073339
-0.002398669
0.01171112
-0.002415444
0.01267415
-0.002375938
0.01360263
-0.002289966
0.01452661
-0.002277577
0.01543431
-0.002233365
0.01626523
-0.002039753
0.01709397
-0.002029564
0.01790069
-0.00197393
0.01865056
-0.001829287
0.01940425
-0.001834364
0.0200827
-0.001646321
0.02073263
-0.001564845
0.0213287
-0.00142738
0.02186619
-0.001278113
0.02240486
-0.001272288
0.02289272
-0.001142952
0.02332922
-0.001006972
0.02371165
-0.0008649858
0.02404019
-0.0007217137
0.02433099
-0.0006188348
0.02454511
-0.0004115178
0.02474521
-0.0003522538
0.02488413
-0.0001530229
0.02489353
0.0002735609
0.02483498
0.0006465223
0.02475723
0.001159564
0.0248334
0.00216441
0.02506314
0.00495345
0.02456598
0.008967347
0.02143209
0.01043971
0.01282106
0.0133682
0.001740934
0.01947265
-0.002390662
0.01464278
-0.0002281447
0.0003930717
0.00237199
-0.008220677
0.005664957
-0.009032666
0.006953429
-0.004190675
0.006523211
-0.0006712172
0.006005369
-0.002264506
0.006819849
-0.006523017
0.004779066
0.0004861056
-0.002295538
0.01750538
-0.006463142
0.01232511
-0.007951545
0.004013687
-0.008713441
0.0019148
-0.006823604
-0.004708191
-0.004152025
-0.006671415
-0.0006861268
-0.008970724
0.00282477
-0.009098834
0.005342232
-0.005184909
0.005195795
0.001316217
0.00195148
0.006565723
-0.001012012
0.006551271
-0.002346042
0.003768035
-0.003330716
0.002720544
-0.004093025
0.002040659
-0.004535734
0.001168758
-0.004364806
-0.000416101
-0.003435183
-0.002327181
-0.001793597
-0.004091874
0.0002040634
-0.004968206
0.002200613
-0.004967469
0.004283976
-0.005210124
0.006404481
-0.005316004
0.008289841
-0.004632502
0.009616811
-0.003509959
0.01088733
-0.001435185
0.004002054
0.01295398
-0.01389149
0.009851652
0.006883443
0.01363314
-0.001161974
0.01478834
-0.007618941
0.01976421
-0.01194273
0.01839297
-0.01244312
0.00310721
-0.009161431
-0.01006547
-0.005116479
-0.01268217
-0.002021236
-0.009831905
-0.000198063
-0.005935742
0.0007124832
-0.003393605
0.001823758
-0.004416812
0.00394669
-0.007135523
0.006867764
-0.009680961
0.009769821
-0.009962224
0.01203079
-0.007836729
0.01308697
-0.003768253
0.01207983
0.002969033
0.009953193
0.009994917
0.005652794
0.02129788
-0.001737556
0.0236131
-0.004984552
0.0003149374
-0.004109908
-0.01251571
-0.004541119
-0.006120415
-0.005807441
-0.0008412805
-0.0062409
-0.001130118
-0.004279357
-0.00684203
-0.000220302
-0.0144594
0.003572381
-0.01270988
0.004489131
0.001863106
0.0008519345
0.02441866
-0.01232386
0.03185265
-0.02531088
0.0192795
-0.03077875
0.0103846
-0.0324414
0.008630963
-0.03284235
0.01197141
-0.03209424
0.01206276
-0.0317378
0.007092505
-0.03203681
0.003461341
-0.03232342
0.001909461
-0.03247307
0.001030939
-0.03252277
0.0005702411
-0.03250897
0.0002723129
-0.03242711
2.23914e-05
-0.03230757
-0.0001513202
-0.03199299
-0.0007751342
-0.03163396
-0.0009413276
-0.03124746
-0.001037194
-0.03080151
-0.001231154
-0.03034681
-0.001270833
-0.02980744
-0.001540389
-0.02921896
-0.001705045
-0.0285418
-0.001985732
-0.02783354
-0.002085549
-0.02711646
-0.002125396
-0.02631658
-0.002387762
-0.02548596
-0.002483029
-0.02465594
-0.002489393
-0.02372175
-0.002819098
-0.02275766
-0.00291279
-0.02175483
-0.003035864
-0.0207442
-0.003062076
-0.01971082
-0.003141069
-0.01858959
-0.003407946
-0.01749096
-0.00334641
-0.01632794
-0.003545202
-0.01513543
-0.003638799
-0.01393912
-0.003649556
-0.01273722
-0.003670915
-0.01148049
-0.0038389
-0.01022059
-0.003845707
-0.008951383
-0.00387235
-0.007664894
-0.003927997
-0.006384473
-0.003900345
-0.005135616
-0.003800053
-0.003836995
-0.003959834
-0.002565449
-0.003873334
-0.001309654
-0.003833224
3.576198e-05
-0.004173722
0.001467391
-0.004452867
0.002826973
-0.00418071
0.004153934
-0.004065589
0.005452988
-0.003986085
0.006723959
-0.003897554
0.007993977
-0.003894615
0.009230508
-0.003790445
0.01048824
-0.003851649
0.01171069
-0.003746347
0.01287643
-0.003564408
0.01405206
-0.003591077
0.01520823
-0.003532102
0.01632612
-0.003407857
0.01744026
-0.003391719
0.01853218
-0.003325283
0.01953556
-0.003043129
0.02053719
-0.003031194
0.02151132
-0.00294806
0.02241941
-0.002737378
0.02333286
-0.002747818
0.0241568
-0.002470256
0.02494667
-0.00235472
0.02567306
-0.002153767
0.02633254
-0.001937598
0.0269932
-0.001932941
0.02759336
-0.001743119
0.02813492
-0.001548527
0.02861081
-0.001340875
0.02902595
-0.001136851
0.02939829
-0.0009911755
0.02967901
-0.0006922374
0.02994751
-0.000620756
0.030141
-0.000346516
0.03016257
0.0002519902
0.03006511
0.0007439816
0.02986665
0.001358026
0.02959861
0.002432456
0.02961316
0.004938893
0.03003047
0.008550038
0.0296009
0.01086928
0.02369498
0.01927411
0.01231422
0.0308534
0.0054271
0.02152991
0.006628262
-0.0008080899
0.0109204
-0.01251282
0.01394899
-0.01206126
0.01489083
-0.00513251
0.01390166
0.0003179472
0.01177037
-0.0001332102
0.009650304
-0.004402953
0.004618669
0.005517741
-0.002959169
0.02508322
-0.006860449
0.01622639
-0.008884951
0.006038189
-0.009980802
0.00301065
-0.007770581
-0.006918411
-0.004770872
-0.009671125
-0.0009549494
-0.01278665
0.002778607
-0.01283239
0.005527693
-0.007933995
0.005036027
0.001807883
0.00123732
0.01036443
-0.00164619
0.009434782
-0.00301004
0.005131885
-0.00422129
0.003931793
-0.005163825
0.002983195
-0.005734405
0.001739338
-0.0055205
-0.0006300063
-0.004316193
-0.003531488
-0.00225516
-0.006152906
0.0001747621
-0.007398129
0.002575747
-0.007368454
0.00507556
-0.007709937
0.007610117
-0.007850562
0.009853648
-0.006876032
0.01148842
-0.005144735
0.01265916
-0.002605922
0.002769728
0.01631464
-0.01619199
0.009728995
0.01108476
0.01886302
0.001657673
0.02421542
-0.006376998
0.02779888
-0.01188708
0.02390306
-0.01291872
0.004138843
-0.009258891
-0.0137253
-0.004749656
-0.0171914
-0.00110209
-0.01347947
0.001303926
-0.008341758
0.00274285
-0.00483253
0.004058718
-0.00573268
0.006028899
-0.009105704
0.008888744
-0.01254081
0.01187066
-0.01294414
0.01427577
-0.01024184
0.01533382
-0.004826305
0.01385849
0.004444365
0.01088478
0.01296863
0.007298536
0.02488412
0.0004985156
0.03041312
-0.005609356
0.006422809
-0.008538072
-0.00958699
-0.01143496
-0.003223525
-0.01389155
0.001615311
-0.01464418
-0.0003774892
-0.01295884
-0.008527371
-0.008895858
-0.01852238
-0.004692777
-0.01691296
-0.003993725
0.001164054
-0.01041534
0.03084027
-0.02431968
0.04575698
-0.03535613
0.03031596
-0.03793571
0.01296418
-0.03854879
0.009244046
-0.03834931
0.01177193
-0.03765339
0.01136684
-0.03767522
0.00711434
-0.03807845
0.003864569
-0.0383926
0.002223613
-0.03857956
0.001217897
-0.03867381
0.0006644894
-0.03869368
0.0002921889
-0.03861771
-5.35788e-05
-0.03851638
-0.0002526527
-0.03815754
-0.001133971
-0.03775415
-0.001344718
-0.03731597
-0.001475373
-0.03679282
-0.001754304
-0.03627579
-0.00178787
-0.0356407
-0.002175473
-0.03495314
-0.002392608
-0.03415124
-0.002787627
-0.03331282
-0.002923975
-0.03246742
-0.002970793
-0.03151459
-0.003340592
-0.03052549
-0.003472127
-0.02954085
-0.003474032
-0.02842749
-0.003932465
-0.02727496
-0.004065318
-0.02607685
-0.004233972
-0.02487181
-0.004267119
-0.02363918
-0.004373701
-0.02229449
-0.004752629
-0.02098416
-0.00465674
-0.01959018
-0.004939185
-0.018164
-0.005064984
-0.01673067
-0.005082882
-0.01529238
-0.005109206
-0.01378433
-0.005346945
-0.01227207
-0.005357971
-0.0107452
-0.005399224
-0.009199399
-0.005473793
-0.007655461
-0.005444283
-0.006149561
-0.005305954
-0.004578241
-0.005531153
-0.003037945
-0.00541363
-0.001523686
-0.005347482
7.139239e-05
-0.005768801
0.001766965
-0.006148439
0.003393211
-0.005806957
0.004985513
-0.005657891
0.006539127
-0.005539699
0.008059088
-0.005417516
0.009580836
-0.005416363
0.01106214
-0.005271749
0.0125733
-0.005362806
0.01403536
-0.005208412
0.01543537
-0.004964421
0.01684946
-0.005005161
0.01823153
-0.004914174
0.01957262
-0.004748946
0.02091413
-0.004733231
0.02221955
-0.0046307
0.02342102
-0.004244598
0.02462258
-0.004232759
0.0257873
-0.004112775
0.02686946
-0.003819538
0.02796406
-0.00384242
0.02894528
-0.003451483
0.02988543
-0.003294866
0.03074826
-0.003016592
0.03152743
-0.002716772
0.03231134
-0.002716856
0.03301529
-0.002447062
0.03365375
-0.002186988
0.03420665
-0.001893779
0.03468639
-0.001616594
0.03511866
-0.001423439
0.03542599
-0.0009995707
0.03572671
-0.0009214724
0.03592855
-0.0005483544
0.03592379
0.0002567424
0.03578486
0.0008829126
0.03555646
0.001586428
0.03523718
0.002751739
0.03500379
0.005172281
0.03494819
0.008605643
0.03528461
0.01053286
0.03394371
0.02061501
0.02757025
0.03722687
0.02130627
0.02779388
0.02039756
0.00010062
0.02303574
-0.015151
0.02453184
-0.01355735
0.02455148
-0.005152155
0.02289887
0.001970559
0.01928807
0.003477595
0.01383067
0.001054442
0.005547967
0.01380045
-0.002801212
0.0334324
-0.006747858
0.02017304
-0.009260237
0.008550569
-0.01082601
0.004576418
-0.008217691
-0.009526725
-0.005041901
-0.01284692
-0.00113205
-0.0166965
0.0024517
-0.01641614
0.00492974
-0.01041203
0.003701022
0.003036601
-6.256455e-05
0.01412802
-0.002401156
0.01177337
-0.003962235
0.006692963
-0.005428063
0.005397622
-0.006586282
0.004141414
-0.007282913
0.002435969
-0.006899676
-0.001013244
-0.005246992
-0.005184171
-0.002669315
-0.008730584
0.00024305
-0.01031049
0.003095134
-0.01022054
0.006061965
-0.01067677
0.009100714
-0.01088931
0.01176696
-0.009542277
0.01378997
-0.007167749
0.01504913
-0.003865083
0.001626875
0.01964505
-0.01910926
0.009193204
0.01591016
0.02259791
0.006164623
0.03396096
-0.004083722
0.03804722
-0.01095595
0.03077528
-0.01206333
0.005246225
-0.008288839
-0.01749979
-0.004005122
-0.02147512
-0.000190019
-0.01729457
0.002742788
-0.01127456
0.004642747
-0.006732489
0.006429436
-0.00751937
0.008437272
-0.01111354
0.01120522
-0.01530875
0.01433882
-0.01607774
0.01705877
-0.01296179
0.01822648
-0.005994015
0.01610054
0.006570308
0.01187678
0.01719239
0.007869661
0.02889124
0.001366443
0.03691634
-0.007642696
0.01543195
-0.01500978
-0.002219902
-0.02064206
0.002408751
-0.0242171
0.005190349
-0.02557048
0.0009758933
-0.02494739
-0.009150462
-0.02229551
-0.02117426
-0.01841386
-0.02079462
-0.01922258
0.00197278
-0.02742614
0.03904383
-0.03826689
0.05659773
-0.04323628
0.03528535
-0.04402761
0.0137555
-0.04520714
0.01042358
-0.04549923
0.01206402
-0.04533733
0.01120494
-0.045604
0.00738101
-0.04604455
0.004305118
-0.04640223
0.002581299
-0.04659118
0.001406842
-0.04665243
0.0007257438
-0.04665036
0.0002901123
-0.0465091
-0.0001948373
-0.04636011
-0.00040164
-0.04591438
-0.001579702
-0.04541678
-0.001842317
-0.04487105
-0.002021106
-0.04421439
-0.002410959
-0.04359403
-0.002408236
-0.04281471
-0.002954787
-0.04198435
-0.00322297
-0.04101128
-0.003760694
-0.03999443
-0.003940833
-0.03897791
-0.003987306
-0.03782524
-0.004493269
-0.03663283
-0.004664531
-0.03545335
-0.004653514
-0.0341146
-0.005271216
-0.0327241
-0.005455815
-0.03128556
-0.005672508
-0.02983906
-0.005713621
-0.02836359
-0.005849171
-0.02674284
-0.006373377
-0.02517944
-0.00622014
-0.02350388
-0.00661475
-0.02179497
-0.006773892
-0.02007783
-0.006800022
-0.01835797
-0.006829065
-0.01655164
-0.00715328
-0.01474286
-0.007166752
-0.01290695
-0.007235132
-0.01105212
-0.007328618
-0.009186749
-0.007309658
-0.007375816
-0.007116886
-0.005476252
-0.007430717
-0.003603844
-0.007286039
-0.001775459
-0.007175868
0.0001179745
-0.007662233
0.002125861
-0.008156326
0.004075791
-0.007756887
0.005977248
-0.007559348
0.00783266
-0.007395111
0.009653135
-0.00723799
0.01147892
-0.007242151
0.0132554
-0.007048223
0.01507625
-0.007183656
0.01682481
-0.006956975
0.0185101
-0.006649715
0.02021793
-0.006712988
0.02187072
-0.006566965
0.02347999
-0.006358211
0.02510565
-0.006358899
0.02666921
-0.006194255
0.0281084
-0.005683785
0.02955525
-0.005679611
0.03095508
-0.005512605
0.03225027
-0.005114732
0.03356997
-0.005162121
0.03475046
-0.004631964
0.03588216
-0.004426575
0.03691924
-0.004053666
0.03786064
-0.003658172
0.03881342
-0.003669638
0.03966008
-0.003293718
0.04044216
-0.002969066
0.04111244
-0.002564067
0.04170309
-0.00220724
0.04223708
-0.001957426
0.04262651
-0.001389002
0.04300146
-0.00129643
0.04327419
-0.0008210827
0.04332206
0.0002088744
0.04318876
0.001016209
0.04294741
0.001827779
0.04259646
0.003102688
0.04225836
0.005510383
0.04186342
0.009000583
0.04142339
0.01097289
0.04257433
0.01946407
0.04304119
0.03676001
0.04073146
0.03010361
0.03831899
0.002513091
0.03728209
-0.0141141
0.03611307
-0.01238833
0.03463297
-0.003672063
0.03213812
0.004465409
0.02748144
0.008134274
0.019191
0.009344886
0.007977072
0.02501437
-0.001489613
0.04289909
-0.005871586
0.02455501
-0.00890204
0.01158102
-0.01108766
0.006762036
-0.008019739
-0.01259464
-0.004789313
-0.01607734
-0.0009791444
-0.02050667
0.001870659
-0.01926594
0.003247992
-0.01178937
0.001254057
0.005030537
-0.00185634
0.01723841
-0.003407862
0.0133249
-0.005257061
0.008542163
-0.007023773
0.007164333
-0.008417358
0.005534998
-0.00917002
0.003188631
-0.008448058
-0.001735205
-0.006236776
-0.007395454
-0.003115105
-0.01185226
0.0003223993
-0.013748
0.003671565
-0.0135697
0.007202868
-0.01420807
0.0108996
-0.01458605
0.01413947
-0.01278214
0.01659416
-0.009622435
0.01818864
-0.005459571
0.000706261
0.02354078
-0.02304303
0.008695462
0.02156602
0.02457266
0.01245601
0.04307098
-0.0002136058
0.05071684
-0.006129213
0.03669089
-0.006200611
0.005317622
-0.003726461
-0.01997394
-0.001279453
-0.02392212
0.001400821
-0.01997485
0.003991746
-0.01386549
0.006036021
-0.008776765
0.008075491
-0.009558839
0.01036396
-0.01340201
0.01347606
-0.01842085
0.01721039
-0.01981207
0.02056814
-0.01631954
0.02202776
-0.007453634
0.01907248
0.009525583
0.01321197
0.02305291
0.007284329
0.03481887
0.0002012274
0.04399944
-0.01190642
0.0275396
-0.02367154
0.009545222
-0.03147035
0.01020756
-0.03606239
0.009782383
-0.03832762
0.003241125
-0.03970021
-0.007777874
-0.0402456
-0.02062887
-0.04034233
-0.02069788
-0.04329865
0.0049291
-0.04899312
0.0447383
-0.0518801
0.0594847
-0.05114629
0.03455154
-0.05221089
0.01482011
-0.05396519
0.01217788
-0.05442355
0.01252238
-0.05439675
0.01117814
-0.05463806
0.007622313
-0.05505376
0.004720827
-0.05545759
0.002985128
-0.05568136
0.001630608
-0.05577937
0.000823751
-0.05584881
0.0003595563
-0.05564539
-0.0003982577
-0.055552
-0.0004950345
-0.05496425
-0.002167451
-0.05439488
-0.00241168
-0.05375984
-0.002656153
-0.05295458
-0.003216213
-0.05224889
-0.003113927
-0.05130124
-0.003902443
-0.05032526
-0.004198942
-0.04915932
-0.004926635
-0.04793348
-0.005166681
-0.0467283
-0.005192483
-0.04535163
-0.005869941
-0.04392108
-0.006095078
-0.04250575
-0.006068846
-0.04091151
-0.00686545
-0.03924679
-0.007120541
-0.03752473
-0.007394565
-0.03577228
-0.007466071
-0.03403182
-0.007589636
-0.0320688
-0.008336395
-0.03020989
-0.008079045
-0.02818828
-0.008636363
-0.02614463
-0.008817542
-0.02409372
-0.008850931
-0.02200692
-0.00891587
-0.01986265
-0.009297548
-0.01770859
-0.009320809
-0.01550862
-0.009435109
-0.01330382
-0.009533415
-0.01101913
-0.009594347
-0.008866201
-0.009269817
-0.006570293
-0.009726625
-0.004285504
-0.009570828
-0.00207546
-0.009385912
0.0001811678
-0.009918862
0.002560038
-0.0105352
0.004900969
-0.01009782
0.007145489
-0.009803868
0.009372897
-0.009622519
0.01156746
-0.009432555
0.01375216
-0.009426845
0.01588126
-0.00917733
0.01809159
-0.009393982
0.02018897
-0.009054357
0.02220705
-0.008667792
0.02425846
-0.0087644
0.02625618
-0.008564683
0.02819059
-0.008292622
0.03013165
-0.008299954
0.03201053
-0.008073139
0.03372921
-0.007402469
0.03546186
-0.007412257
0.03711974
-0.007170485
0.0386854
-0.00668039
0.04026962
-0.006746346
0.04167437
-0.006036708
0.0430423
-0.005794505
0.04426763
-0.005279
0.0453945
-0.004785037
0.04654139
-0.004816532
0.04753538
-0.004287709
0.04848181
-0.00391549
0.04926204
-0.003344299
0.04996885
-0.00291405
0.05061326
-0.002601835
0.05105269
-0.001828432
0.05150989
-0.001753634
0.05183163
-0.001142821
0.05183414
0.0002063598
0.05167087
0.001179482
0.05138718
0.002111472
0.05102975
0.003460113
0.05066892
0.005871211
0.05041882
0.009250684
0.04950133
0.01189039
0.05074632
0.01821908
0.05510854
0.03239778
0.05623834
0.02897381
0.05332993
0.00542151
0.04945131
-0.01023548
0.04618238
-0.0091194
0.04336081
-0.0008504986
0.04015832
0.007667906
0.03520217
0.01309042
0.02543388
0.01911318
0.01215076
0.0382975
0.001015574
0.05403427
-0.004010385
0.02958097
-0.007841513
0.01541215
-0.01078657
0.009707095
-0.007462386
-0.01591883
-0.0042359
-0.01930383
-0.0003085713
-0.02443399
0.001383857
-0.02095837
0.0007985892
-0.0112041
-0.00171423
0.007543356
-0.003631857
0.01915604
-0.0048254
0.01451844
-0.006982062
0.01069882
-0.009126516
0.009308788
-0.01068703
0.007095511
-0.0113669
0.003868498
-0.01020319
-0.002898911
-0.007448281
-0.01015036
-0.003742922
-0.01555761
0.0002978077
-0.01778873
0.004235847
-0.01750774
0.008551034
-0.01852326
0.01319535
-0.01923036
0.01720588
-0.01679268
0.02019627
-0.01261282
0.02225574
-0.007519036
-8.103405e-05
0.02852265
-0.028413
0.008585807
0.02830383
0.02479149
0.02257012
0.04880469
0.01165189
0.06163506
0.005194951
0.04314783
0.005635695
0.004876878
0.006803419
-0.02114167
0.00622873
-0.02334744
0.005010466
-0.01875658
0.005684243
-0.01453927
0.006682738
-0.00977526
0.008340168
-0.01121627
0.0112479
-0.01630975
0.01547176
-0.02264471
0.02037557
-0.02471588
0.02446495
-0.02040891
0.02602115
-0.009009834
0.02250139
0.01304533
0.01547036
0.03008394
0.006633215
0.04365602
-0.003165964
0.05379862
-0.01866152
0.04303515
-0.03392873
0.02481244
-0.04242633
0.01870515
-0.04778274
0.0151388
-0.05089139
0.006349771
-0.05474691
-0.003922349
-0.05899618
-0.01637961
-0.0640741
-0.01561995
-0.06851613
0.009371129
-0.06915002
0.04537219
-0.06427827
0.05461295
-0.06116549
0.03143876
-0.06314248
0.0167971
-0.06481362
0.01384902
-0.06537407
0.01308283
-0.06550642
0.01131049
-0.06582126
0.007937149
-0.06623919
0.005138756
-0.06669215
0.003438096
-0.06692703
0.001865485
-0.06694733
0.0008440462
-0.06706587
0.0004780984
-0.0667509
-0.0007132298
-0.06660906
-0.0006368758
-0.06597165
-0.002804855
-0.06524751
-0.003135816
-0.06455057
-0.003353094
-0.06348752
-0.004279273
-0.06269142
-0.003910024
-0.06153795
-0.005055907
-0.06039677
-0.005340123
-0.05897521
-0.006348199
-0.05747172
-0.006670166
-0.05605102
-0.006613184
-0.05443163
-0.007489331
-0.05264886
-0.007877855
-0.050959
-0.007758704
-0.04907486
-0.008749595
-0.0470977
-0.009097701
-0.04499336
-0.0094989
-0.04287057
-0.009588864
-0.04088266
-0.009577546
-0.03843932
-0.01077973
-0.03626307
-0.0102553
-0.03376217
-0.01113726
-0.03137474
-0.01120498
-0.02891509
-0.01131058
-0.02637562
-0.01145534
-0.02385252
-0.01182064
-0.02124824
-0.01192509
-0.01860576
-0.01207759
-0.01602063
-0.01211854
-0.01322397
-0.01239101
-0.01071277
-0.01178101
-0.007893519
-0.01254588
-0.005122955
-0.01234139
-0.002446307
-0.01206256
0.0002767572
-0.01264193
0.003129974
-0.01338841
0.005843045
-0.01281089
0.008495608
-0.01245643
0.01120562
-0.01233253
0.01387268
-0.01209962
0.01650073
-0.01205489
0.01902623
-0.01170283
0.02174897
-0.01211673
0.02424724
-0.01155262
0.02667543
-0.01109598
0.02911991
-0.01120888
0.03152908
-0.01097385
0.03387485
-0.01063839
0.03612812