/*--------------------------------*- C++ -*----------------------------------*\
| =========                 |                                                 |
| \\      /  F ield         | OpenFOAM: The Open Source CFD Toolbox           |
|  \\    /   O peration     | Version:  2406                                  |
|   \\  /    A nd           | Website:  www.openfoam.com                      |
|    \\/     M anipulation  |                                                 |
\*---------------------------------------------------------------------------*/
FoamFile
{
    version     2.0;
    format      ascii;
    arch        "LSB;label=32;scalar=64";
    class       volScalarField;
    location    "0.36";
    object      p;
}
// * * * * * * * * * * * * * * * * * * * * * * * * * * * * * * * * * * * * * //

dimensions      [0 2 -2 0 0 0 0];

internalField   nonuniform List<scalar> 
4529
(
-1.568402e-06
-2.296414e-06
-1.460194e-06
-5.248593e-06
-2.642476e-06
-7.268745e-06
-1.54749e-06
-2.405487e-06
-2.648358e-06
-1.341626e-06
2.001465e-06
-1.028582e-06
-3.774653e-07
-8.388406e-07
-1.109763e-06
-4.718008e-07
-2.786556e-06
-1.131783e-06
2.983077e-07
-2.090034e-06
-1.251089e-07
-1.063206e-06
-1.018557e-06
-1.791653e-06
-1.205179e-07
-2.119751e-06
-4.076175e-06
-3.560044e-06
-3.62142e-06
-4.558719e-06
-2.845162e-07
-1.170806e-06
-7.149946e-07
8.316925e-09
1.140486e-06
-1.955488e-06
-1.713086e-06
-1.801289e-06
-4.552912e-06
-3.250816e-07
-9.331544e-07
-6.610909e-07
-1.495087e-06
-1.227873e-07
6.966918e-08
4.351481e-07
-1.270818e-06
-2.036035e-06
2.910173e-07
-2.446692e-06
-5.68668e-06
-1.559534e-06
-6.897435e-06
-2.270014e-08
-3.130869e-06
-2.93292e-06
-2.42483e-06
3.013189e-06
-6.560899e-06
-7.826837e-06
-3.073218e-06
4.02712e-07
-6.83582e-07
-7.839557e-06
-1.715426e-06
4.60727e-07
-1.52853e-06
-1.046741e-06
-1.666555e-06
2.698845e-06
-1.761187e-06
-2.207127e-06
-3.810779e-06
-6.292388e-07
-8.699968e-06
-5.484839e-06
-1.021097e-09
1.362177e-06
-7.203865e-06
-2.398378e-06
-3.734519e-06
-1.647598e-06
5.176983e-07
-1.839415e-06
-2.072272e-06
-6.686638e-07
5.472916e-08
6.262027e-07
4.684695e-07
-1.980946e-06
-7.570673e-06
-7.851025e-07
4.066831e-07
-1.418527e-06
-9.752059e-07
-1.056898e-06
-5.651344e-06
-3.896976e-06
-5.568005e-06
-2.933646e-06
-9.172128e-07
-5.021001e-06
-2.152103e-06
-3.513567e-06
-1.212598e-06
6.685385e-07
-6.518949e-06
7.920692e-07
1.142393e-06
-5.415097e-07
-1.750803e-07
-1.221753e-06
-4.577715e-06
-4.24992e-06
-3.899895e-06
-9.779521e-07
-1.580342e-06
-2.947674e-06
-1.492112e-06
-4.931328e-07
-2.703417e-06
-1.952938e-06
-7.315993e-07
-1.590739e-06
-1.017633e-06
-2.633506e-06
-3.01097e-06
3.847504e-07
-8.92929e-07
-4.505072e-06
-1.707412e-06
-3.617867e-06
-8.628746e-06
-2.410756e-07
-2.492127e-07
3.926565e-07
5.647452e-07
-2.246412e-07
-1.303143e-06
-2.329914e-06
-3.225665e-06
-2.309042e-06
-9.907923e-07
-3.487914e-06
-5.117118e-06
-2.776219e-06
-6.217722e-07
-3.340588e-06
-2.631733e-06
-1.7294e-06
-1.935776e-06
-3.972146e-06
-3.511051e-06
-7.433366e-07
-4.337741e-06
-5.801165e-07
-1.929259e-07
-2.901291e-06
-1.182255e-06
-1.423537e-06
1.326404e-06
-3.578004e-07
-5.343921e-06
-3.771104e-06
-8.970272e-08
2.292418e-08
-1.403761e-07
-2.242233e-06
-3.370522e-06
-2.082359e-06
-6.244445e-06
-1.534975e-06
-8.923458e-06
2.504184e-07
-4.412587e-08
-3.07106e-06
-2.04196e-06
-8.132664e-06
-8.981156e-06
1.182319e-06
3.474207e-07
-2.604443e-06
-1.735949e-06
-1.754705e-06
2.475849e-06
-9.525924e-06
-2.221692e-06
-6.0255e-07
-5.072187e-06
-7.165074e-07
-1.960253e-06
-7.190287e-06
1.094702e-06
-4.011048e-06
-1.660024e-06
6.8289e-07
2.832838e-07
-4.736793e-06
2.124038e-06
-8.208593e-08
-1.386288e-06
1.273921e-06
-1.456172e-06
-7.093118e-06
-9.389883e-07
-2.039375e-06
-5.627132e-06
-2.311853e-06
-2.854181e-06
-7.794327e-06
9.797095e-09
-2.980296e-06
-8.006815e-07
-4.487668e-06
-2.282081e-06
-2.62186e-06
-1.747537e-06
-1.009716e-06
-2.179821e-06
5.866969e-06
-2.673063e-06
-3.620647e-07
-2.239756e-06
-4.971096e-07
-1.161628e-06
1.303917e-06
-8.960164e-07
-2.579536e-06
-6.33634e-06
-7.727704e-07
-4.85446e-06
-7.443863e-06
-1.085443e-05
-4.674199e-07
-2.875672e-06
-3.232175e-06
-2.023306e-06
-4.308728e-06
1.854877e-07
-1.737154e-06
-2.638655e-06
7.77576e-08
-5.516051e-07
-5.779562e-06
1.764366e-06
-3.207373e-06
-7.381899e-06
-1.009975e-06
-1.457151e-06
2.961611e-07
-5.312434e-06
9.673622e-07
-2.977337e-06
3.451187e-06
3.670554e-07
-1.186198e-06
-4.12495e-06
-6.238477e-06
-4.870554e-06
-1.115616e-06
1.215068e-06
-7.14121e-07
-1.132224e-06
-1.052643e-06
-1.497898e-06
-5.246178e-06
-1.655541e-06
-4.400772e-06
-2.807083e-06
-6.429376e-07
-2.048477e-06
-4.28054e-07
-8.913476e-07
-3.969465e-06
-6.431429e-06
-2.500204e-07
-2.432693e-07
5.211214e-09
-5.223868e-06
-1.118582e-05
-1.092351e-06
-1.460455e-06
1.436043e-07
-3.251569e-06
5.622204e-08
-1.580425e-06
-2.187705e-06
-1.826297e-07
-2.800949e-06
-1.167081e-06
-4.578734e-06
-4.267986e-07
-6.832918e-07
-1.619424e-06
-2.352211e-06
-6.013348e-07
-1.201822e-06
-2.999512e-06
-1.031922e-06
-1.715159e-06
-1.241737e-06
-1.659592e-06
-2.728676e-06
3.168957e-06
-1.532775e-06
-2.932719e-06
-4.145854e-06
-1.035803e-06
-3.19899e-06
-1.031749e-06
-8.560385e-07
-1.998632e-06
5.74897e-07
-1.587304e-06
-3.014526e-06
-1.358578e-06
-1.571298e-06
-1.232467e-06
-7.361461e-06
1.253037e-06
-7.322299e-07
1.602277e-06
-2.176333e-06
-3.578528e-06
-1.286241e-06
-3.058699e-06
-3.532444e-06
-3.019359e-07
-6.786243e-07
-3.35451e-07
-1.22951e-07
-4.979797e-07
-4.626529e-07
-9.537028e-07
-4.24344e-08
-4.452357e-06
-3.729879e-06
-2.781014e-06
-3.486552e-07
-8.70143e-07
-9.920855e-07
-3.827207e-06
2.29705e-06
-4.490092e-06
-4.581903e-06
9.718894e-07
-1.834026e-06
-5.837424e-06
-4.421367e-06
-1.344744e-06
-1.207837e-06
2.048152e-06
-1.402831e-06
-1.4799e-06
1.325812e-08
-3.15183e-06
-4.088416e-06
3.745715e-06
-1.720725e-06
-1.065988e-06
-5.636523e-07
-4.653561e-07
-2.500712e-06
-7.037123e-07
-3.115179e-07
-2.027124e-07
-1.959211e-07
-2.750164e-06
-1.55598e-06
-2.238668e-06
3.801978e-08
-7.220597e-07
-2.218618e-06
8.209157e-07
-1.598501e-06
-2.712158e-07
8.813078e-07
-6.361879e-06
-8.887858e-06
-2.077669e-06
-9.120995e-07
2.276991e-07
5.651596e-07
-5.969635e-08
-3.64045e-07
-9.218321e-08
-4.578303e-06
2.231794e-06
-2.749266e-06
-8.086712e-09
-6.474364e-06
8.70269e-07
3.806395e-06
-2.147234e-06
-1.377896e-06
-2.203423e-06
-2.324047e-06
-3.122848e-06
-2.818159e-06
-3.080372e-06
-1.545632e-06
1.39665e-06
-6.023972e-06
-5.577075e-06
-5.85311e-06
-1.017673e-06
-5.868217e-06
-3.243e-07
1.114302e-06
-1.743699e-06
-2.672135e-06
-1.115666e-06
-4.508245e-06
-1.901531e-06
-5.434895e-08
-9.754583e-07
-6.886331e-07
-2.687582e-06
-3.545303e-07
8.090595e-07
-6.596156e-06
-2.354176e-06
-6.473344e-06
-3.472617e-06
-8.865791e-06
-7.206272e-06
-5.265016e-06
-2.622705e-06
-1.448222e-06
-2.134581e-06
-5.086005e-07
6.490993e-08
-8.710816e-06
-6.993876e-06
1.146542e-06
-1.166374e-06
6.665063e-07
1.813954e-07
-2.487503e-06
3.207323e-07
-1.744348e-06
-3.826501e-07
-5.509581e-06
-1.564682e-06
-1.388583e-06
-1.383206e-06
6.835818e-07
-1.477046e-06
-1.35847e-06
-2.336736e-06
-3.127549e-06
-2.154319e-06
-2.174196e-06
-1.258712e-06
-1.013583e-06
-4.838201e-06
-1.000554e-06
-4.477587e-06
-5.022821e-07
-8.818286e-07
2.070527e-07
-1.320516e-06
-1.411213e-06
2.021207e-06
-4.449851e-06
-3.362918e-06
-7.578582e-07
-4.55396e-07
-7.799016e-08
-3.738708e-07
-6.799509e-08
1.829589e-06
-2.036435e-06
-1.524142e-06
-4.049138e-06
-2.877015e-08
-4.116993e-06
-1.330638e-06
1.902449e-07
-1.001835e-06
1.116205e-06
-1.220182e-06
-2.19113e-06
-3.940185e-07
-1.913471e-06
9.445818e-07
-2.648305e-06
4.212968e-07
-1.747038e-06
-3.705494e-06
-1.142898e-05
-2.10021e-06
-2.143415e-06
-3.508711e-07
-1.312712e-06
-2.662949e-06
-2.548504e-06
-3.199301e-06
-1.629832e-06
-4.237138e-06
-2.450737e-06
-5.990064e-07
-2.672499e-06
-3.50977e-06
-8.610745e-07
-7.734827e-07
-3.087259e-07
-3.07674e-07
-4.141776e-07
-5.496109e-07
-3.459825e-07
-5.010028e-07
-3.177072e-06
1.209293e-06
-1.143146e-06
-3.686069e-06
-1.121501e-06
-1.538406e-06
5.702824e-07
-4.620689e-07
-1.211362e-06
7.347736e-09
-2.036052e-06
-1.084028e-06
-1.191248e-06
-6.744629e-08
-6.615569e-07
-2.208603e-06
6.602537e-07
1.154612e-07
-1.35332e-06
-7.024143e-07
-6.460625e-07
-7.494728e-07
-3.397348e-07
-4.151334e-06
2.425392e-07
2.314863e-07
8.89936e-08
2.104865e-06
-9.850943e-06
-5.204525e-07
2.277289e-06
-5.568182e-07
-3.192791e-06
-1.095195e-07
-1.470946e-06
-2.829781e-06
-1.025079e-06
2.22412e-06
-2.391787e-06
-1.615551e-06
-1.833332e-06
-2.225719e-06
-8.411239e-07
-1.651973e-06
-4.698441e-06
-4.267899e-06
1.600653e-06
-3.017156e-06
3.31957e-07
-1.150823e-06
-3.346318e-06
-6.353306e-06
-3.704185e-06
-7.483054e-07
-1.209313e-06
-4.089728e-06
-3.410701e-06
-5.754707e-06
-6.720879e-07
1.021824e-06
3.318394e-07
-3.045928e-06
-1.978537e-06
-2.367775e-06
-2.193298e-06
-3.341874e-06
-1.883318e-07
3.366393e-08
-2.277905e-06
-3.579418e-06
-2.414892e-06
-8.434612e-07
-1.301683e-06
-2.956393e-06
-8.866182e-07
-2.988388e-06
-1.655863e-06
-6.997261e-08
1.068463e-06
-2.877916e-06
-1.12637e-06
4.087284e-06
-3.334401e-06
-1.251685e-06
-2.096099e-06
-2.130858e-06
1.035847e-06
1.380693e-06
-2.176074e-07
-1.744821e-06
3.464743e-07
-3.128525e-07
-2.119064e-07
2.660279e-07
3.089285e-07
-1.223137e-06
3.221543e-07
-2.014571e-06
-5.942074e-06
-1.458792e-06
-1.68076e-06
-9.253742e-07
-9.944992e-07
2.973573e-06
4.8634e-07
1.196491e-07
-5.476199e-06
-7.431525e-07
-4.808851e-07
-3.77134e-06
-4.026864e-06
-6.423368e-09
-3.876593e-06
-4.046815e-07
5.860278e-07
-1.35459e-06
-3.149642e-06
-1.214402e-06
-3.641065e-06
-5.986444e-06
-5.791085e-06
-1.132365e-06
-7.178908e-07
5.818599e-07
7.166622e-07
-1.031553e-06
-1.940853e-06
-1.249746e-06
-9.003498e-07
-1.015631e-07
1.49373e-06
3.624982e-06
-2.463066e-06
-2.159211e-07
-2.573684e-06
-3.729744e-06
-2.234915e-07
-1.404829e-06
2.263503e-07
-4.085317e-06
-3.387058e-06
-5.834578e-06
-1.247248e-06
-1.856784e-06
-7.715586e-08
-5.133962e-06
-8.207398e-07
-8.843533e-06
-1.387659e-06
-2.013018e-06
-4.945357e-06
-1.201469e-06
-3.754154e-06
-3.111445e-06
-2.393037e-06
-1.542234e-06
-9.162634e-06
-1.689192e-06
-1.939807e-06
1.53196e-06
-1.436904e-06
-9.769898e-08
-3.149156e-06
-1.222257e-06
-1.213277e-06
1.065459e-06
-2.775086e-06
-1.539126e-06
-1.10119e-06
-1.379815e-06
-1.637234e-06
-1.630733e-06
1.031751e-06
3.239428e-07
1.278286e-06
-1.778636e-06
-1.088833e-06
-5.904785e-06
-2.848059e-06
-2.236108e-06
-3.405348e-06
-3.466032e-06
-6.858945e-07
9.859598e-08
-7.778451e-07
-4.1046e-06
-5.179188e-06
-6.924179e-07
-7.462185e-07
-6.826333e-07
-8.999922e-06
-1.069668e-06
6.511688e-08
2.370874e-06
-2.283877e-06
-1.757436e-06
-1.588585e-06
-6.851722e-06
-6.099571e-06
-1.834857e-06
-5.903567e-06
-1.060338e-06
-1.756438e-06
-4.707171e-06
-1.13739e-06
-1.666344e-06
-2.476781e-06
-1.634646e-06
-5.37906e-06
-1.159436e-06
-2.432659e-06
-1.149412e-06
-5.91358e-07
-3.691684e-06
1.91759e-06
7.377826e-07
3.239462e-06
-1.643511e-06
-1.616256e-06
-1.763799e-06
-1.705043e-06
-1.015523e-06
-2.925111e-06
-2.509495e-06
-1.613235e-06
-5.49302e-06
-1.853333e-06
-6.109526e-06
-5.495365e-08
-5.541148e-06
-5.845933e-06
-7.560298e-06
-4.834451e-06
-1.79622e-06
-1.215692e-06
-1.447062e-06
-1.380877e-06
-8.438138e-06
-1.463927e-06
-2.053254e-06
-6.151919e-06
-2.19371e-06
-4.873326e-06
-2.527395e-06
-1.056544e-06
-1.000487e-05
-7.451226e-06
-8.476973e-06
-4.836173e-06
-3.802141e-06
5.076279e-07
-6.857328e-06
-6.758114e-07
-4.88013e-06
-6.188705e-06
-1.703095e-06
-4.615145e-06
-4.249777e-06
-2.57601e-06
-5.282466e-06
-6.948072e-06
-2.145015e-06
-2.010317e-06
-1.06275e-06
6.912756e-08
-5.716944e-07
-3.459334e-06
-3.993851e-06
-9.324337e-06
-2.710677e-06
-9.09597e-07
-1.452287e-06
-8.748588e-07
-1.284531e-06
-5.796241e-06
-2.440446e-06
-1.500431e-06
-7.281898e-07
-2.386886e-06
-1.078949e-06
-4.260388e-06
-1.05742e-08
-1.60564e-06
-8.569655e-07
-1.234735e-06
-6.921298e-06
-2.1585e-06
-2.180188e-06
8.741403e-07
-1.209679e-06
-5.207973e-06
-9.004334e-06
-2.794403e-06
-2.070747e-06
-1.221245e-06
-1.876794e-06
-1.193417e-06
6.882509e-08
-9.791299e-07
-1.222189e-06
-3.705356e-07
-1.281031e-06
-1.376595e-06
-2.108731e-06
-1.527889e-06
-1.222042e-06
-2.936711e-06
-3.388848e-07
-9.327608e-07
-5.161366e-06
-1.08584e-05
5.845167e-08
8.131106e-07
-1.286002e-06
-1.354444e-06
-7.047586e-07
-4.042865e-07
-2.142753e-06
4.520515e-10
-7.087405e-07
-2.188611e-06
-2.377572e-06
-1.338677e-06
2.8185e-07
3.751876e-07
-3.291607e-06
-1.368452e-07
-2.773871e-06
-1.960962e-06
-4.205361e-06
-2.341963e-06
-5.723354e-06
-3.430017e-06
-6.983498e-06
-6.680802e-06
-3.601008e-06
-4.453883e-06
-5.745058e-07
6.198845e-07
1.00248e-06
-1.425208e-06
-1.748507e-06
-1.095509e-06
-1.937004e-06
-1.239958e-06
-1.361091e-06
-1.36473e-06
-1.55542e-06
-3.511646e-06
-1.97656e-06
-3.838786e-07
-1.768552e-06
-5.020046e-07
-8.629365e-07
-6.866307e-06
-4.348789e-06
-4.020233e-06
-5.913068e-06
-5.363239e-06
-2.56709e-06
-2.41416e-06
-7.489888e-06
-3.07112e-06
-5.535398e-06
7.331202e-07
-6.397593e-06
-2.51204e-07
-1.741683e-06
4.885559e-07
-4.869037e-06
-1.045256e-06
-3.576406e-06
-5.148534e-06
-8.09308e-06
-3.210567e-06
-2.661507e-06
-2.025162e-06
-8.799373e-07
-1.167701e-06
-4.366415e-07
-3.473519e-06
-3.62868e-06
-2.282938e-06
-6.405731e-06
-6.826558e-06
-6.00857e-06
-4.878759e-06
-8.35352e-06
-6.837147e-07
-1.389185e-06
-2.772948e-07
9.358055e-08
-1.580947e-06
-1.285248e-06
-2.480674e-06
-2.007312e-06
-5.041432e-06
-4.129589e-06
-3.749102e-06
-5.230391e-06
-4.600252e-06
-2.965573e-06
-3.657883e-06
-5.331866e-06
-3.955797e-06
5.122351e-08
-1.774855e-08
-4.748671e-06
-6.272182e-06
-8.254381e-06
-6.344788e-06
-2.213752e-06
-2.356422e-06
-7.828594e-06
-8.517992e-06
-8.874831e-06
-2.103048e-06
1.062825e-07
-4.214149e-06
-4.600332e-06
-9.378174e-07
-1.142685e-06
-1.037991e-06
-3.286388e-06
-6.455948e-06
-4.666691e-06
-4.764446e-06
-4.504352e-06
-4.802912e-06
-5.91323e-06
-5.271509e-06
4.259628e-08
-5.064737e-06
-5.630524e-06
1.108e-06
-4.016623e-06
-3.028776e-06
-3.193181e-06
-5.552085e-06
-2.568478e-06
-4.811558e-07
-4.62193e-06
-7.779084e-06
-8.198471e-07
-1.127863e-07
-7.497038e-06
1.308209e-06
-4.940714e-06
-1.185659e-06
-2.257232e-06
-4.413426e-06
-1.795857e-06
-4.723469e-07
-3.518472e-07
-5.360954e-06
-2.876914e-06
-4.427497e-06
-6.329741e-06
-3.538687e-06
-3.85463e-06
-3.969982e-06
-5.089349e-06
-9.725946e-07
-1.60918e-06
-1.745147e-06
-1.818593e-06
-3.820378e-06
-9.124707e-06
-7.819602e-06
-2.285651e-06
-8.331018e-07
-7.516809e-06
1.503437e-06
-6.461477e-06
-1.916545e-06
2.532191e-06
-2.436556e-07
-3.252941e-06
-7.891873e-06
-3.592836e-07
-2.445142e-07
-1.026214e-06
-5.408369e-06
-9.351713e-06
-1.597363e-06
-6.580559e-07
2.931473e-06
-1.536363e-06
-1.006904e-06
1.860451e-06
-1.652573e-06
5.371349e-07
-4.443895e-06
-1.98653e-06
-3.943627e-06
-8.216736e-07
-1.001659e-06
-3.783864e-06
-9.52824e-06
-3.716566e-07
-7.470786e-06
-4.924354e-06
-4.820509e-06
-2.532718e-06
-9.138935e-07
-4.828325e-06
-1.784581e-06
-2.095278e-06
-2.061684e-06
-2.078665e-06
1.658236e-06
-9.288623e-06
-9.190398e-06
-7.218362e-06
-1.062282e-05
-9.266214e-06
-9.310658e-06
-1.147828e-05
-3.031349e-06
-6.7764e-06
3.116542e-07
6.090335e-07
-1.485858e-07
1.248731e-07
-3.55118e-06
-2.55177e-06
-5.054264e-06
-1.507753e-06
-1.266706e-06
-1.26843e-06
-1.148938e-06
-1.44209e-06
-6.658229e-07
3.277773e-08
-1.669298e-07
2.16268e-07
4.726946e-08
7.059275e-08
-3.872003e-06
-1.736796e-06
-4.736955e-07
-8.304935e-08
1.948655e-06
-1.126281e-06
-2.424048e-07
-1.976967e-06
-5.692542e-06
-7.824225e-07
-6.364521e-06
-8.104209e-06
-5.819499e-06
-2.383295e-06
-1.883399e-06
-4.660034e-06
-3.09751e-06
-6.410753e-06
-3.169832e-06
-7.541353e-07
1.861879e-06
-2.634145e-06
-3.369058e-06
-8.424991e-07
-1.054098e-06
7.793436e-07
-9.333457e-07
-1.006757e-06
-1.048094e-06
-1.076386e-06
-3.708673e-07
-4.668722e-08
-4.309872e-07
-4.499207e-08
-1.261014e-06
4.623006e-08
-3.266187e-07
-3.811942e-07
4.822632e-09
-6.667995e-08
-2.440887e-08
-2.591263e-06
-1.754107e-06
-2.059248e-06
-6.39516e-06
-8.126021e-06
-5.254954e-06
-1.209839e-06
-8.892896e-06
-5.588267e-06
-7.35867e-06
-9.531008e-07
-1.326519e-06
-4.115121e-06
8.863944e-07
-2.784498e-07
-1.895463e-06
-1.588687e-06
-9.178152e-07
-1.912772e-06
-1.796369e-06
-2.413191e-06
-8.203245e-08
-3.163617e-06
7.667294e-07
-6.547402e-07
-6.196148e-07
-1.244718e-06
-1.388869e-06
-1.36067e-06
-5.517341e-06
-1.243263e-06
-1.749802e-06
-2.58587e-06
-3.267037e-06
-3.618414e-06
-4.419753e-06
-8.464668e-06
-8.419651e-06
-9.589173e-07
-8.624908e-06
-3.832097e-08
1.638918e-07
3.426987e-08
-1.622656e-07
3.693391e-08
3.129429e-07
-5.989147e-06
-5.834808e-06
-6.697372e-07
-3.301345e-06
-2.976925e-06
-4.94568e-06
-1.655933e-06
-1.854509e-06
-1.85652e-06
-5.478169e-06
-3.659569e-07
-8.7286e-06
-2.820626e-06
-1.575311e-06
-2.698142e-07
-1.839872e-06
-2.178293e-06
-5.87762e-07
-6.875042e-07
-2.807848e-06
-1.12104e-06
-1.683828e-06
-2.209449e-06
-2.028051e-06
-1.656045e-06
2.006231e-07
-2.429838e-06
-2.323019e-06
-1.893142e-06
-1.249789e-06
-2.403378e-06
-2.552276e-06
-1.406349e-06
-7.03145e-07
-4.456612e-06
-7.22455e-07
-4.961973e-06
-2.308585e-06
-3.431538e-06
-3.15972e-06
-6.260568e-07
-1.886771e-06
-2.090983e-06
-5.741642e-06
-1.501177e-06
2.632562e-07
-1.27325e-06
-5.228264e-06
-1.510669e-06
-1.611972e-06
-2.50301e-07
5.001948e-08
-1.623962e-06
-1.517588e-06
9.912952e-07
-5.39759e-06
-7.90704e-06
-6.002301e-06
-1.351185e-06
7.583975e-07
7.167846e-07
-1.036595e-06
-7.093777e-07
-1.300018e-06
-4.767161e-07
-2.061683e-06
-4.360501e-07
-2.011897e-06
-3.687403e-06
-4.018118e-06
-1.589223e-06
-2.312792e-06
-2.657474e-06
-6.217775e-07
-1.71895e-06
-2.125463e-06
-5.722068e-06
-3.830109e-06
-3.503887e-06
2.60153e-07
1.611198e-06
-1.930525e-07
-3.973533e-06
-5.152581e-06
-8.671727e-07
-3.952474e-07
-1.697387e-06
-3.851184e-07
-8.423404e-07
-1.162566e-06
-1.981197e-07
3.624662e-07
-7.667454e-07
-2.089054e-07
-6.199915e-07
-1.821127e-06
-1.225993e-06
-4.615353e-06
-1.500887e-06
-8.851959e-07
-2.555806e-06
1.458017e-07
-8.027479e-07
-6.447533e-07
-9.818684e-07
-4.317951e-06
-5.572485e-06
-1.32918e-06
-1.034144e-06
-1.314858e-06
1.685413e-08
-1.749642e-06
3.681052e-07
-3.321203e-06
-2.262841e-06
-2.404956e-06
-9.302063e-06
-6.106312e-06
-9.902685e-07
-4.23437e-06
-6.602612e-06
-6.627354e-06
-8.298539e-07
-6.771872e-07
-1.305769e-06
-3.702946e-07
-2.695869e-06
-5.191298e-07
3.661004e-07
-1.795916e-06
-8.864526e-06
-7.238065e-07
2.255939e-07
-1.214538e-06
-9.991496e-07
-1.924847e-06
-7.295138e-07
-3.963864e-06
-5.7504e-06
-1.701762e-06
-4.378372e-06
-7.218819e-08
9.212741e-07
-6.739847e-07
-7.833716e-06
-1.272111e-06
-1.79076e-06
-6.237422e-07
-1.629155e-06
3.013656e-06
-2.269118e-06
-4.25127e-06
-3.888951e-07
-2.181418e-06
-1.918874e-06
8.592764e-07
5.578337e-07
-1.466712e-07
-1.25667e-06
1.565423e-07
-2.777331e-08
-9.57162e-07
-7.234029e-06
-5.05494e-07
-3.56274e-07
-3.267077e-07
-6.354104e-07
-1.050123e-06
-5.567826e-07
-6.087757e-07
-3.537235e-07
-7.382375e-07
-6.474882e-07
-2.176167e-07
-5.577762e-07
-2.247015e-06
-4.485826e-07
-4.991858e-08
3.659367e-07
-1.161203e-07
-3.588031e-07
-3.213587e-07
-3.706765e-07
9.234285e-07
-3.792829e-07
-4.079189e-06
1.438362e-06
1.155924e-06
-1.455167e-06
-3.990927e-06
-2.946671e-06
-4.12419e-06
-1.147218e-06
-6.222277e-06
-1.367293e-06
-6.801042e-07
1.462012e-06
1.102604e-08
-3.262745e-07
-3.222176e-07
-1.667374e-06
-9.011722e-07
-3.287386e-06
-2.936543e-06
-8.312914e-06
-3.312846e-06
-2.963492e-06
-3.058381e-06
-2.261793e-06
-3.432209e-06
-3.127574e-06
-3.775919e-06
-3.103421e-06
-2.570009e-06
2.186661e-07
-5.437836e-06
-4.303963e-06
-2.314172e-06
4.16276e-07
-5.280009e-06
7.126873e-07
-1.566141e-06
3.913806e-08
-5.143649e-06
-4.367582e-06
-5.351982e-06
-8.234132e-06
-8.086311e-06
-2.787153e-06
-1.140006e-06
-1.251048e-06
-1.497365e-06
-1.385799e-06
-2.572852e-06
1.540632e-09
-6.733658e-06
-1.971747e-06
-2.021256e-07
-2.535245e-07
1.667214e-06
-5.004598e-06
-6.430103e-06
-4.05003e-06
-4.785354e-06
-4.450309e-06
-3.993797e-06
-2.731225e-06
-9.27548e-07
-3.642004e-06
1.190438e-06
6.527647e-07
1.381104e-07
-4.905826e-06
-4.493297e-06
-5.329014e-06
-4.913418e-06
-2.896544e-06
-4.604145e-06
-6.288732e-06
-6.498175e-06
-5.184749e-06
-3.919715e-06
-1.542089e-06
-4.54552e-06
-9.413025e-07
-8.034863e-06
6.566133e-07
-2.354472e-07
-4.534383e-06
-1.750974e-07
3.216799e-07
1.916866e-06
-1.82565e-06
2.801148e-06
2.134142e-06
-2.187084e-06
-4.658145e-06
-7.814115e-06
6.715655e-07
2.74963e-07
1.495103e-07
-4.726958e-07
-5.327196e-06
-4.937138e-06
-5.081934e-06
-3.662978e-07
-8.596811e-08
-5.551756e-06
-8.223904e-06
-8.483514e-06
-3.604287e-06
-2.931109e-06
-5.638e-06
-7.083046e-06
-1.650617e-06
-2.368667e-06
-3.607692e-06
-2.840608e-06
-2.561433e-06
-7.658884e-07
-9.028497e-06
6.550611e-08
-1.465084e-06
1.402287e-06
-1.630519e-07
-2.295183e-06
6.415453e-07
-3.185084e-06
8.877986e-08
-6.431269e-06
-1.236875e-06
-2.772476e-06
7.097581e-07
-1.302774e-06
1.292756e-07
-4.852054e-07
-1.114959e-06
-2.489643e-06
-1.433562e-06
-1.652074e-06
-1.702447e-06
-1.148e-06
-1.195506e-06
-1.929988e-06
-6.484722e-06
-2.55749e-06
-1.104753e-06
-3.448965e-06
8.908402e-07
8.810724e-07
-4.752382e-06
-8.029853e-08
-3.717005e-06
-2.056176e-06
-1.847015e-06
-1.01576e-06
-1.39423e-06
2.310966e-06
-3.911403e-07
2.104908e-07
-4.794016e-06
4.199e-06
-7.519412e-07
-2.582519e-06
-8.948051e-07
-8.819821e-07
-6.798481e-07
-7.403018e-07
-1.53253e-06
-8.842441e-07
-7.923837e-07
3.866165e-06
1.408043e-08
-2.890991e-08
-1.303606e-06
-2.247424e-06
-2.805576e-06
-1.20763e-06
-1.410004e-06
-9.844353e-08
2.385383e-07
4.910307e-07
-8.971317e-07
-1.213878e-06
2.676899e-06
2.110927e-06
-2.12711e-07
3.891585e-07
-2.890545e-07
-1.250665e-06
-1.388835e-06
-2.214355e-06
-1.436346e-06
-2.842032e-07
-5.034455e-07
-5.067556e-06
-8.467546e-07
-9.446535e-07
8.121496e-07
9.514303e-07
-5.215963e-06
-1.61076e-06
-2.052429e-06
5.002869e-07
2.383962e-07
-8.233185e-06
-3.117839e-06
-4.192801e-06
-4.444678e-06
-8.476818e-07
-1.165847e-06
-1.002217e-07
-1.235009e-06
-9.702147e-06
7.606979e-07
-4.737296e-06
1.728673e-06
-6.485857e-07
-1.219262e-06
-1.623175e-06
-3.404171e-07
-4.751846e-07
-3.010145e-06
-8.7269e-07
5.179116e-07
5.171406e-07
-5.183791e-06
-7.616104e-06
8.104823e-08
-1.639314e-07
-2.643915e-06
-3.316251e-07
-2.605394e-07
-3.681437e-06
-9.676217e-06
-1.107764e-07
3.46678e-07
-2.144714e-06
-4.722709e-06
-5.306738e-06
-4.227871e-06
-4.971478e-07
-5.034972e-07
-2.778389e-06
-1.938438e-06
-2.094779e-07
-2.248144e-07
1.620471e-07
-3.275818e-07
4.907633e-07
1.812121e-06
1.663199e-06
-1.737877e-07
-1.984857e-06
-3.635012e-06
-2.764819e-06
-3.127228e-06
2.014949e-06
-6.583599e-06
-1.907097e-06
-2.035873e-06
-2.309936e-06
-4.953183e-07
-1.919919e-06
-1.70952e-06
-4.829727e-06
-5.771311e-06
4.894175e-09
-4.535726e-06
1.498781e-06
-1.228614e-06
-3.872329e-08
-8.582064e-07
-7.987024e-06
-7.536267e-06
-1.013149e-07
-2.022941e-06
-2.55327e-06
-3.65482e-06
5.309511e-07
-4.539652e-07
-2.392732e-06
-1.900812e-06
-1.660289e-06
3.059411e-06
3.442113e-06
-4.860438e-09
-8.208251e-08
-4.153582e-06
-2.679382e-07
-1.230729e-06
-1.50143e-06
-4.400312e-06
-5.462556e-06
-6.349848e-07
-1.053457e-07
-1.487464e-06
-1.293478e-06
2.149649e-07
-4.068967e-06
9.194384e-08
-5.183229e-07
-7.903242e-06
-1.121306e-06
2.157113e-06
4.19672e-06
-1.380109e-06
-1.303362e-06
1.621379e-07
3.105955e-07
-9.777332e-07
9.948934e-07
1.884631e-06
5.839375e-07
3.136203e-07
-7.896259e-07
-7.075259e-07
3.778131e-06
1.855356e-06
-2.29907e-06
1.419841e-07
1.383202e-06
-4.600665e-06
-1.657562e-06
-2.178201e-06
-2.229366e-06
-8.574727e-07
-1.011976e-06
-1.872033e-06
-2.527941e-06
-2.13948e-06
-2.380802e-06
-3.27685e-06
-2.632626e-06
-2.899461e-06
-4.959895e-06
-1.387008e-06
-2.481518e-06
-2.645413e-06
-3.069383e-06
-3.063586e-06
-3.047708e-06
-2.319875e-06
-2.874441e-06
-2.53822e-06
-2.292732e-06
-1.891661e-06
-6.538084e-08
-1.712635e-06
-2.026949e-06
-3.956814e-06
-3.965937e-06
-1.001029e-06
9.179365e-07
-3.340447e-06
-4.721999e-06
2.737642e-07
-1.059908e-06
-4.704265e-06
-1.264472e-06
-2.876517e-06
-2.588085e-06
-2.254001e-06
-2.323251e-06
-2.449622e-06
-1.062183e-06
-2.670796e-06
-2.612336e-06
-3.465932e-06
-2.414892e-06
-2.354799e-06
-3.359148e-06
-4.139992e-07
1.019862e-07
3.655226e-08
1.652235e-06
4.725023e-07
-1.132569e-06
-1.102451e-06
-1.039655e-07
-7.207383e-07
-1.648624e-06
5.873692e-08
-5.322012e-06
-3.906071e-06
-2.346527e-06
-5.266008e-07
-3.179756e-07
3.612702e-07
7.689754e-07
8.238502e-07
-1.206074e-06
-1.470262e-06
-1.389619e-06
-4.318138e-06
-2.959159e-06
-1.707494e-06
-2.123528e-06
-1.108425e-06
-2.512668e-06
1.157674e-06
-2.024141e-06
-1.112908e-06
-3.71773e-06
-1.815336e-06
3.528151e-07
-2.502269e-06
-2.585311e-07
-1.621127e-06
-1.666422e-06
-1.580976e-06
5.243009e-08
-2.594053e-06
-7.149857e-06
5.276722e-07
9.711385e-07
9.440472e-07
1.064878e-06
-1.715522e-08
-1.59206e-06
-5.733521e-07
-1.367159e-06
-6.897465e-07
-3.442538e-06
5.227878e-08
2.704973e-07
-1.555328e-06
-3.440312e-06
-8.532982e-07
-1.915054e-06
-1.730504e-06
3.864267e-06
-6.995147e-06
-6.461093e-06
-1.116653e-06
-1.266719e-06
-2.707462e-06
-1.052369e-06
-4.513296e-06
-1.916183e-06
-2.643514e-06
-1.007869e-06
-1.33549e-06
-1.106989e-06
-1.315301e-06
-1.155981e-06
-1.945755e-06
-3.310623e-06
-1.602523e-06
-1.835714e-06
-5.184182e-07
1.932665e-07
-8.396737e-06
-4.858208e-06
-4.719874e-06
9.271155e-08
-2.285288e-06
1.840114e-07
1.458185e-06
1.664462e-06
-1.398604e-06
-6.039753e-07
-1.553145e-06
-2.399084e-06
-5.085336e-07
9.699556e-07
-6.876708e-06
-5.830944e-06
-7.105667e-07
-5.969515e-07
-8.554806e-07
-4.726156e-06
-4.502581e-06
-6.345439e-06
3.091429e-08
-8.4191e-09
-8.726583e-06
1.719496e-06
-3.960397e-06
-2.574802e-06
1.596823e-07
-1.412402e-06
-9.455992e-07
-6.814639e-07
-2.447586e-06
-2.56318e-06
5.541841e-07
-1.906336e-06
-1.321562e-06
1.233932e-06
-9.243566e-06
-5.609345e-06
-2.876523e-06
-1.490758e-06
-1.686625e-06
-8.814693e-07
-1.256367e-06
-2.241356e-06
-1.703044e-06
-1.924602e-06
-1.664656e-06
3.44416e-07
8.696675e-08
-6.949837e-06
-6.522126e-06
1.831303e-06
-2.842827e-07
-4.563547e-07
-2.776179e-07
-8.069056e-08
-3.196523e-06
-2.690154e-07
-6.61964e-07
-1.248684e-06
-1.474409e-06
4.148025e-06
-1.427026e-06
8.762937e-07
3.456539e-07
-1.86772e-06
-4.364239e-06
-7.427919e-07
-5.181899e-07
-1.291122e-06
-1.755057e-06
-2.002523e-06
-3.310486e-06
-5.739141e-06
-2.470004e-06
-7.175219e-06
-7.879441e-06
-1.735765e-07
-1.835385e-06
-1.00679e-06
-8.538865e-06
-2.071784e-06
-7.968227e-06
-2.27796e-07
-9.956286e-07
4.270138e-07
1.016521e-06
-2.254637e-07
-5.432091e-07
6.214491e-07
1.665555e-07
-2.071845e-06
-2.146959e-06
-2.119877e-06
-2.550313e-07
6.41891e-07
-7.836548e-06
-2.161054e-07
-1.777208e-08
-3.312279e-06
-3.358841e-06
-4.042577e-06
-2.832899e-06
-7.283825e-07
-6.557843e-07
-5.287157e-07
-3.567656e-06
-5.274699e-06
-1.323152e-06
-6.003038e-06
-5.147848e-06
-5.476809e-06
-5.957718e-06
-3.482351e-07
-5.645542e-06
-1.541549e-07
-3.487521e-06
-3.585667e-06
-3.636335e-06
-8.2173e-06
-3.398891e-06
-2.165276e-06
-2.720663e-06
-3.071272e-06
-6.044579e-06
-2.110997e-07
-1.523145e-06
-1.359117e-06
-3.620737e-07
-8.169702e-06
-1.003986e-05
-8.565511e-06
-2.211409e-06
-6.77834e-06
-8.713705e-06
-9.563537e-06
-1.103189e-06
-1.860759e-06
-1.483869e-06
-2.84217e-06
-2.235197e-06
-4.667443e-06
-3.225275e-06
1.054213e-06
-6.449356e-06
-1.812237e-06
1.201824e-06
1.3658e-06
-1.902521e-06
-5.174777e-08
-4.364923e-06
6.048028e-08
-1.133172e-06
-1.225183e-06
-4.371314e-07
-2.164246e-06
6.413998e-07
-1.7642e-06
-8.686661e-06
-4.165705e-06
-6.641e-06
-7.674045e-06
-6.80032e-06
-9.384833e-07
-6.685318e-06
-4.229441e-06
-3.602167e-06
-1.883538e-06
-1.646728e-06
-1.508987e-06
-1.511079e-06
-4.371033e-07
-3.192761e-06
-3.174843e-06
-7.167751e-06
-5.493766e-06
-4.380161e-06
-4.324763e-06
3.251624e-07
-7.71209e-07
-1.214166e-06
2.415103e-06
-2.808006e-06
-3.327297e-06
-3.229989e-06
-6.776338e-07
-5.358006e-07
-4.560532e-06
-2.674514e-06
-3.319272e-07
-3.962612e-06
-2.071165e-06
-2.060039e-06
-2.197186e-06
-3.085443e-06
-5.497398e-06
-9.941503e-07
-1.285138e-06
7.200722e-07
6.551781e-07
-2.546737e-07
-2.42492e-07
-3.119833e-07
-2.222699e-07
-3.298754e-07
-2.468663e-07
-1.527756e-06
-3.715069e-06
-6.096071e-06
-3.939417e-07
-1.384095e-06
-9.469362e-07
-1.005999e-06
-1.496193e-06
1.053642e-06
-5.616729e-07
-9.885417e-07
-1.784814e-06
-1.609378e-06
-1.566677e-06
-1.562458e-06
-4.830003e-07
-4.823899e-07
4.574762e-07
4.930362e-07
6.174166e-07
-5.626007e-06
-1.111652e-06
3.057787e-09
1.740086e-07
-6.806773e-07
-1.921499e-06
-2.27191e-06
-9.401818e-07
-7.742797e-07
1.543441e-06
1.015077e-06
-7.407556e-07
1.960985e-06
-5.072375e-06
-6.989211e-06
-2.677294e-07
-2.183025e-06
-8.585373e-07
-1.519645e-06
2.584194e-07
-5.86395e-07
-1.169862e-06
-2.619985e-06
-4.064082e-06
-3.901324e-06
-1.260177e-06
-6.693495e-07
-8.521522e-06
-2.358605e-06
-5.491567e-06
4.331597e-07
-2.510747e-06
-2.703593e-06
-8.121427e-08
-6.411798e-08
-1.026715e-06
-1.059068e-06
-1.317983e-06
7.736536e-08
-1.606224e-06
-2.333557e-06
-2.053405e-06
-2.767201e-06
-1.306128e-06
-1.42345e-06
-1.333449e-06
-1.17665e-06
2.893125e-06
2.115895e-06
-1.67818e-06
-3.548006e-07
-2.560724e-08
-1.498905e-06
-1.239861e-06
-3.066724e-06
-2.0597e-06
-1.777095e-06
-1.214104e-06
-1.593984e-06
-2.25446e-06
-6.730579e-06
-7.296827e-06
-4.699813e-06
-4.518864e-06
-1.463626e-06
-1.450319e-06
3.870314e-07
-9.400768e-06
-8.669763e-06
-8.885229e-06
-3.469174e-06
7.80213e-07
-7.225289e-07
-7.550564e-07
4.249034e-07
1.198058e-06
-8.021487e-07
1.413729e-06
-1.829731e-06
-1.517956e-06
-1.489117e-06
-1.476504e-06
-1.298271e-06
-8.482924e-07
-6.971516e-07
-3.728462e-07
-9.37944e-07
-1.378982e-06
-1.619189e-06
1.082191e-08
1.558822e-07
-1.652132e-06
-1.56209e-06
1.014135e-06
-4.306093e-06
-4.892108e-06
-4.69363e-06
-5.305518e-06
-5.03118e-06
-5.73167e-06
-6.465399e-06
-5.412754e-06
-4.871306e-06
-6.254912e-06
-8.38553e-06
1.421806e-07
-1.952754e-06
-1.855691e-06
-5.260962e-06
-2.129729e-06
-1.413239e-06
-8.833339e-07
-8.490957e-07
-1.038311e-07
-2.025247e-09
-9.329737e-07
-3.361262e-07
-2.336019e-06
-1.517842e-06
-7.153199e-09
-9.4443e-06