/*--------------------------------*- C++ -*----------------------------------*\
| =========                 |                                                 |
| \\      /  F ield         | OpenFOAM: The Open Source CFD Toolbox           |
|  \\    /   O peration     | Version:  2406                                  |
|   \\  /    A nd           | Website:  www.openfoam.com                      |
|    \\/     M anipulation  |                                                 |
\*---------------------------------------------------------------------------*/
FoamFile
{
    version     2.0;
    format      ascii;
    arch        "LSB;label=32;scalar=64";
    class       surfaceScalarField;
    location    "0.36";
    object      phi;
}
// * * * * * * * * * * * * * * * * * * * * * * * * * * * * * * * * * * * * * //

dimensions      [0 3 -1 0 0 0 0];

oriented        oriented;

internalField   nonuniform List<scalar> 
6710
(
-1.358415e-09
1.716046e-09
-3.576304e-10
1.509146e-09
-1.514009e-09
4.863351e-12
-5.757426e-10
1.580954e-09
-1.005212e-09
-1.087962e-09
1.386784e-09
-2.988219e-10
-1.264244e-09
2.961688e-10
9.680752e-10
2.331517e-10
1.47796e-09
-1.711112e-09
1.431189e-10
1.301314e-09
-1.444433e-09
1.07939e-09
-1.168562e-09
8.917149e-11
-2.881744e-10
1.68239e-09
-1.394216e-09
1.721293e-09
-1.904534e-09
1.83241e-10
-5.745943e-09
2.945136e-09
2.800807e-09
-1.730339e-09
1.537335e-09
1.93004e-10
-5.158535e-10
-1.134947e-09
1.6508e-09
-1.676831e-09
1.408603e-10
1.535971e-09
1.195044e-09
-1.150242e-09
-4.48014e-11
1.300871e-09
-1.495347e-09
1.944759e-10
-1.206651e-09
1.286697e-09
-8.004574e-11
-1.014791e-09
1.602e-10
8.545908e-10
1.743201e-09
-1.299276e-09
-4.439248e-10
-1.475761e-09
1.233078e-09
2.426835e-10
3.078374e-10
-1.40594e-09
1.098102e-09
1.568256e-09
-1.62836e-09
6.010405e-11
-1.4648e-09
5.727873e-10
8.920129e-10
1.628816e-09
-4.750269e-10
-1.15379e-09
-1.614085e-09
2.824522e-11
1.58584e-09
-1.165581e-09
5.89582e-10
5.759989e-10
-1.500483e-09
1.153889e-09
3.465939e-10
3.948159e-10
-1.384657e-09
9.898411e-10
-8.919189e-10
1.744228e-09
-8.523093e-10
1.616433e-09
-1.37195e-09
-2.444831e-10
1.693567e-09
-3.427533e-10
-1.350813e-09
-1.152507e-09
-1.733617e-10
1.81605e-09
-8.064368e-10
-1.009613e-09
-1.755887e-09
1.022493e-09
7.333935e-10
-1.998176e-09
4.011705e-10
1.597006e-09
3.63588e-10
7.922347e-10
-1.155823e-09
3.440331e-10
1.284783e-09
-1.230646e-10
1.413839e-09
-1.290775e-09
-1.439886e-09
1.421577e-10
1.297728e-09
9.904148e-10
-2.05401e-09
1.063595e-09
1.160133e-09
-1.015598e-09
-1.445358e-10
-1.642017e-09
1.423088e-09
2.18929e-10
1.578587e-09
-1.873752e-09
2.951649e-10
-7.936131e-10
-9.011144e-10
1.694727e-09
-1.583494e-09
1.979095e-09
-3.956007e-10
-2.483238e-10
-1.094886e-09
1.34321e-09
-1.760776e-09
1.330928e-09
4.298475e-10
-2.505697e-10
-1.263706e-09
1.514275e-09
1.535475e-09
-5.307426e-10
-1.004732e-09
-1.395878e-09
-1.342223e-10
1.5301e-09
-3.725669e-10
-6.201166e-10
9.926835e-10
1.551898e-09
3.217803e-10
-1.873678e-09
8.298515e-10
-9.292714e-11
-7.369244e-10
1.178127e-09
-5.640039e-10
-6.141233e-10
-1.015419e-09
-2.917931e-10
1.307212e-09
-1.668812e-09
4.768665e-10
1.191946e-09
-1.678272e-09
1.418486e-09
2.597867e-10
7.919762e-09
-7.927738e-09
7.976067e-12
-5.619857e-10
1.472753e-09
-9.107676e-10
-1.110621e-09
-3.363618e-10
1.446982e-09
-1.725831e-09
6.800353e-10
1.045796e-09
-1.061535e-09
2.122723e-09
-1.061188e-09
4.967074e-10
8.716818e-10
-1.368389e-09
-1.49777e-09
3.425017e-10
1.155269e-09
-1.530536e-09
1.438997e-09
9.153871e-11
1.592396e-09
-1.56021e-09
-3.218609e-11
1.549048e-09
-1.731229e-09
1.82181e-10
-7.144785e-10
-1.065589e-09
1.780068e-09
-1.427649e-09
9.00288e-10
5.273607e-10
-5.234076e-10
3.049474e-09
-2.526066e-09
-1.315298e-09
-1.37401e-10
1.452699e-09
-1.57788e-09
1.317427e-09
2.604532e-10
-9.245736e-10
-3.119353e-10
1.236509e-09
-6.789183e-10
-1.157142e-09
1.83606e-09
1.00415e-09
-1.74298e-10
-1.07786e-09
1.365343e-09
-2.874821e-10
-1.332344e-09
-4.497439e-10
1.782088e-09
3.349899e-09
-5.043586e-09
1.693687e-09
-1.135042e-09
1.554419e-09
-4.193765e-10
1.392019e-09
1.556011e-10
-1.547621e-09
-1.283165e-10
1.417519e-09
-1.289202e-09
-1.726327e-09
1.823267e-10
1.544001e-09
1.762686e-09
-2.243948e-09
4.812622e-10
-2.149958e-10
1.936289e-09
7.573815e-10
9.731769e-10
-1.730558e-09
2.032186e-09
-1.619685e-09
-4.125017e-10
-1.5028e-09
-3.379664e-11
1.536596e-09
1.714923e-09
-8.766952e-10
-8.382282e-10
2.085563e-09
-9.846335e-10
-1.10093e-09
6.12845e-10
-1.922967e-09
1.310122e-09
-1.385214e-09
1.000675e-09
3.845389e-10
-1.570553e-09
3.474479e-10
-1.845351e-09
1.145207e-09
7.001439e-10
1.348279e-09
-1.296615e-10
-1.218618e-09
4.719684e-10
-1.852336e-09
1.380368e-09
-1.31937e-09
1.478156e-09
-1.587865e-10
1.127734e-09
-2.829177e-10
-8.448164e-10
1.365282e-09
-1.45012e-09
8.483779e-11
3.627096e-10
-1.508882e-09
1.146173e-09
-2.038287e-10
-1.111392e-09
1.315221e-09
1.986875e-09
-4.183011e-10
-1.568574e-09
-1.819818e-09
7.923913e-10
1.027427e-09
7.701987e-11
1.473367e-09
-1.550386e-09
-8.458117e-11
1.449864e-09
1.678744e-09
-2.958367e-10
-1.382908e-09
-6.130639e-10
1.637421e-09
-1.024357e-09
-4.234853e-10
1.335973e-09
-9.124873e-10
-1.586127e-09
5.866989e-12
1.58026e-09
-8.211922e-10
2.231419e-09
-1.410227e-09
2.66816e-10
-1.449426e-09
1.18261e-09
-6.780148e-10
1.785723e-09
-1.107708e-09
1.258696e-09
-1.626977e-09
-1.235661e-09
8.321008e-11
1.152451e-09
-7.551217e-10
-5.63431e-10
1.318553e-09
5.870828e-10
3.857298e-10
-9.728125e-10
5.769976e-11
1.397306e-09
-1.455006e-09
2.918274e-10
1.095227e-09
-1.387055e-09
-5.615282e-10
-1.164303e-09
1.415303e-09
-7.377923e-11
-1.341523e-09
1.988115e-09
-1.137425e-09
-8.506896e-10
1.540069e-09
-1.821132e-09
2.810637e-10
1.291669e-10
1.607923e-09
-1.73709e-09
4.190041e-10
1.308757e-09
-1.727761e-09
-3.78553e-10
1.915375e-09
-1.536822e-09
-3.256335e-10
1.56637e-09
-1.240736e-09
-1.056313e-09
-1.503381e-10
8.008301e-10
-1.501106e-09
7.002758e-10
-7.814971e-10
1.274722e-09
-4.932246e-10
-4.785827e-10
1.209511e-09
-7.309287e-10
-1.473431e-09
1.248691e-09
2.247402e-10
-1.299955e-09
1.644899e-09
-3.449436e-10
-6.431216e-10
-8.745453e-10
1.517667e-09
-1.096925e-09
-2.882895e-10
-1.35056e-09
1.339454e-09
1.110525e-11
-1.0151e-09
2.005515e-09
1.885628e-09
-7.675035e-10
-1.118124e-09
1.100295e-09
-1.639223e-09
5.389286e-10
-1.569735e-09
8.892606e-10
6.804745e-10
-1.425624e-09
1.329724e-09
9.58996e-11
1.099082e-10
9.947611e-10
-1.104669e-09
1.550425e-09
-1.352326e-09
-1.980988e-10
1.382921e-10
-1.391992e-09
1.2537e-09
-1.152876e-09
7.417385e-10
4.111375e-10
2.145891e-10
9.509177e-10
-1.165507e-09
1.370109e-09
4.818692e-11
-1.418296e-09
1.146621e-09
-8.977672e-10
-2.488542e-10
-1.407649e-09
1.826653e-09
-1.046614e-10
1.044998e-09
-9.403364e-10
-5.552163e-10
1.49855e-09
-9.433333e-10
-1.871704e-09
2.615337e-10
1.61017e-09
1.688558e-09
-5.434736e-10
-1.145085e-09
4.559052e-10
-1.311614e-09
8.557088e-10
1.009919e-09
-1.904693e-09
8.947741e-10
1.037429e-09
-2.082369e-09
1.04494e-09
-1.179995e-09
-3.902461e-10
1.570241e-09
6.257963e-10
-1.73495e-09
1.109154e-09
1.730978e-10
-1.758387e-09
1.585289e-09
4.934647e-10
1.001573e-09
-1.495038e-09
-1.517404e-09
5.917265e-10
9.256771e-10
8.756735e-10
-1.451416e-09
-2.561485e-10
1.671679e-09
-1.415531e-09
1.206988e-10
-1.208271e-09
1.087573e-09
2.759773e-10
1.307547e-09
-1.583525e-09
2.316327e-10
6.197996e-10
-8.514323e-10
-1.615482e-09
1.535577e-09
7.990477e-11
-1.538851e-09
3.605082e-11
-1.685164e-09
7.515337e-10
9.336305e-10
-9.860714e-10
-6.733718e-10
1.659443e-09
-1.799649e-09
6.397961e-10
1.159853e-09
4.688596e-10
-1.529739e-09
1.06088e-09
-1.591504e-09
1.25035e-10
1.466469e-09
1.820082e-09
-7.73036e-10
-1.047046e-09
1.411426e-09
-1.087615e-09
-3.238108e-10
1.607394e-09
-1.080461e-09
-5.269322e-10
5.091665e-10
1.346535e-09
-1.855702e-09
-1.519944e-09
9.446247e-10
5.753188e-10
-6.082643e-10
-7.12828e-10
1.321092e-09
-3.293001e-10
-1.123109e-09
1.452409e-09
2.9895e-10
1.068673e-09
-1.367623e-09
1.81925e-09
-1.530879e-10
-1.531015e-09
1.635135e-10
1.367501e-09
1.842684e-10
-1.378275e-09
1.194007e-09
7.463398e-10
-1.806852e-09
1.060512e-09
-2.380165e-10
1.591453e-09
-1.353437e-09
-6.269853e-10
2.409456e-09
-1.782471e-09
3.505072e-10
-1.445059e-09
1.094552e-09
-1.958947e-10
1.369687e-09
-1.173792e-09
8.9998e-10
1.088135e-09
-1.243113e-09
1.457038e-09
-2.139254e-10
8.82025e-10
-1.039405e-09
1.573803e-10
1.307343e-09
-1.477756e-09
1.70413e-10
-1.108554e-09
-1.179527e-10
1.226506e-09
2.769567e-09
-1.386469e-09
-1.383098e-09
1.220318e-09
-1.425177e-09
2.048588e-10
9.920962e-10
1.755199e-10
-1.167616e-09
-9.34795e-11
-1.390303e-09
1.483782e-09
9.084692e-10
-1.437029e-09
5.285603e-10
-6.403287e-10
-3.516109e-10
9.919396e-10
-8.445495e-10
-8.033145e-10
1.647864e-09
1.307644e-09
2.156763e-10
-1.523321e-09
-1.207667e-09
2.603684e-10
9.472987e-10
-8.924649e-10
-1.511064e-09
2.403529e-09
1.941127e-09
-7.812189e-10
-1.159908e-09
1.292133e-09
-2.251786e-10
-1.066954e-09
-1.566172e-09
1.670499e-10
1.399123e-09
9.464327e-12
1.263358e-09
-1.272822e-09
-1.400044e-09
-7.338704e-11
1.51861e-09
2.162602e-10
-1.533433e-09
1.317173e-09
-1.454118e-09
3.434975e-10
-1.629081e-09
1.778122e-09
-1.490407e-10
1.725091e-10
1.368921e-09
-1.54143e-09
-4.855113e-10
1.729109e-09
-1.243597e-09
-1.351716e-09
1.020741e-09
3.309746e-10
-7.94806e-10
9.047141e-10
1.31233e-09
5.668051e-10
-1.879135e-09
-1.202501e-09
6.175898e-10
5.849109e-10
-1.86459e-09
-4.272567e-11
1.907315e-09
-1.520182e-09
2.493606e-10
1.270822e-09
9.215295e-09
1.618244e-09
-3.184346e-10
-1.29981e-09
-1.103004e-10
-1.457111e-09
1.567411e-09
2.37807e-10
1.286926e-09
-1.524733e-09
-1.589139e-09
1.494974e-09
9.416534e-11
1.880065e-09
-1.666473e-10
-1.713418e-09
2.408604e-09
-1.32139e-09
-1.087214e-09
1.806348e-09
-1.209727e-09
-5.96621e-10
-1.150402e-09
-1.113167e-10
1.261719e-09
-2.571209e-10
-1.211109e-09
1.46823e-09
-1.297591e-09
1.178778e-09
1.188126e-10
-6.905603e-10
1.615175e-09
-9.246146e-10
1.512152e-11
-1.447402e-09
1.432281e-09
1.469833e-09
-2.702908e-10
1.873978e-09
-1.739021e-09
-1.349574e-10
-1.213087e-09
1.332672e-09
-1.195842e-10
1.600016e-09
-9.199811e-10
1.263209e-09
-1.577942e-09
3.14733e-10
1.669432e-09
-9.343715e-10
-7.350601e-10
1.36337e-09
-4.549012e-10
-1.186555e-09
2.85398e-10
9.011572e-10
1.691487e-10
1.381499e-09
-1.550647e-09
1.503125e-09
-1.390156e-09
-1.129695e-10
-1.831101e-09
3.996205e-10
1.43148e-09
-3.277838e-10
-1.12869e-09
1.456474e-09
-2.042672e-09
5.730706e-09
-3.688035e-09
-7.921045e-10
-5.596114e-10
3.143289e-10
1.331535e-09
-1.645864e-09
-2.102032e-10
-1.146257e-09
1.356461e-09
1.767074e-09
-1.8124e-09
4.532613e-11
8.181133e-10
1.32255e-09
-2.140664e-09
1.573566e-09
-1.439881e-09
-1.336845e-10
-3.782355e-09
2.169105e-09
1.61325e-09
1.185347e-09
-1.26885e-09
8.350362e-11
-8.01816e-09
8.01816e-09
2.836024e-10
1.535648e-09
-8.14975e-10
1.349037e-09
-5.340618e-10
1.491935e-09
-5.632912e-10
-9.286437e-10
1.166416e-09
3.153291e-11
-1.197949e-09
1.685505e-11
1.479445e-09
-1.4963e-09
-1.423188e-09
1.208192e-09
-5.882951e-09
4.278081e-09
1.60487e-09
-1.714015e-09
2.514786e-10
1.462537e-09
2.205532e-10
-1.084913e-09
8.643595e-10
1.109768e-09
-9.33735e-10
-1.760328e-10
1.322449e-09
-4.303267e-10
-8.921218e-10
-1.392401e-09
4.373308e-11
1.348668e-09
-1.129663e-09
1.473696e-09
1.74338e-09
-6.566688e-10
-1.086711e-09
1.499654e-09
-1.236053e-09
-2.636006e-10
-1.342213e-09
5.400028e-10
8.022101e-10
1.659649e-09
-3.479409e-10
-1.311708e-09
-9.083973e-10
-1.03084e-09
1.939237e-09
6.565212e-10
1.203979e-09
-1.860501e-09
1.699428e-09
-1.795828e-09
9.640036e-11
-1.249078e-09
1.24619e-09
2.888939e-12
1.015847e-09
5.290377e-10
-1.544885e-09
1.237018e-09
-1.822891e-09
5.858733e-10
-8.371857e-10
1.718505e-09
-8.813191e-10
1.583865e-09
-1.574548e-09
-9.316795e-12
1.158655e-09
3.111782e-10
-5.948345e-12
-1.377177e-09
1.383126e-09
1.543458e-09
-9.05984e-10
-6.374743e-10
-1.743687e-09
2.111876e-12
1.741575e-09
1.84873e-09
-1.10282e-09
-7.459101e-10
1.356254e-09
-5.516908e-11
-1.301085e-09
7.555257e-10
8.254286e-10
-1.082659e-09
-5.807334e-10
1.663393e-09
-9.017115e-10
-7.834527e-10
1.399776e-09
-1.476565e-09
7.678936e-11
5.940432e-11
-1.221947e-09
1.162542e-09
-1.600627e-09
1.177141e-09
8.066206e-10
-2.21427e-09
-4.811873e-10
1.471819e-09
-9.906319e-10
7.401453e-10
-1.753686e-09
1.01354e-09
-1.098647e-10
-1.483396e-09
1.593261e-09
1.310991e-09
-1.287301e-09
-2.369035e-11
-3.802171e-10
-1.380558e-09
-1.178874e-09
2.074818e-10
9.713927e-10
1.09562e-09
9.365665e-10
1.496993e-09
-1.358701e-09
1.354257e-09
-1.190174e-09
-1.64083e-10
-6.019629e-10
-9.5705e-10
1.559013e-09
-2.250382e-10
-1.356233e-09
1.581271e-09
4.522628e-09
-3.746721e-09
-7.75907e-10
1.734831e-09
-1.857832e-10
-1.508034e-09
8.868786e-10
6.211558e-10
-1.384795e-09
-2.601524e-10
1.644948e-09
4.455388e-10
-1.773793e-09
1.328254e-09
-1.498677e-10
-1.54054e-09
1.690408e-09
-2.131671e-09
1.201035e-09
9.306362e-10
1.061974e-09
-1.793058e-10
-8.826679e-10
-1.21634e-09
1.359459e-09
-2.728096e-09
2.365278e-09
3.628175e-10
7.502739e-10
8.343149e-10
-1.584589e-09
-7.373493e-10
-8.044076e-10
1.541757e-09
1.561247e-09
2.975281e-10
-1.858775e-09
-1.359671e-09
1.431068e-09
-7.139746e-11
-4.233162e-10
-1.123844e-09
1.54716e-09
-1.632072e-09
2.566402e-10
1.375431e-09
2.426518e-09
-1.254942e-09
-1.171576e-09
-1.436707e-09
1.848201e-09
-4.114942e-10
2.80271e-09
-1.447216e-09
-1.355493e-09
-1.402051e-09
-1.181315e-10
1.392922e-09
-1.265036e-10
-1.266418e-09
-1.864434e-09
1.051295e-09
8.131393e-10
1.728299e-09
-1.297373e-09
-4.309266e-10
1.133933e-09
-1.929591e-09
4.411666e-10
-1.165303e-09
7.241362e-10
-4.448559e-10
-1.141411e-09
1.586267e-09
1.527931e-09
-4.071095e-11
-1.48722e-09
-1.185441e-09
-4.642234e-10
1.649665e-09
1.369031e-09
-6.548882e-10
-7.14143e-10
-1.707744e-09
1.889622e-09
-1.818776e-10
9.34007e-10
5.546815e-11
-9.894751e-10
4.66047e-10
1.320533e-09
-1.78658e-09
1.091141e-10
1.297665e-09
-1.406779e-09
-1.473917e-09
1.313522e-09
1.603948e-10
-1.077901e-09
1.597845e-09
-5.199447e-10
1.819481e-09
-5.256957e-10
-1.293785e-09
-5.492997e-10
1.575184e-09
-1.025884e-09
9.436172e-10
-1.658096e-09
-3.642494e-10
-1.197586e-09
1.561835e-09
1.442888e-09
7.481947e-10
-2.191082e-09
-1.89877e-10
1.328629e-09
-1.138752e-09
-3.834456e-10
-1.111729e-09
1.495175e-09
1.185809e-09
1.240709e-09
1.660218e-09
-1.340321e-09
-3.19897e-10
7.334581e-10
-1.714662e-09
9.812043e-10
-1.291335e-09
-1.825819e-10
6.168627e-10
1.324264e-09
1.541189e-09
1.430505e-10
-1.68424e-09
3.776531e-09
-4.668995e-09
-1.549823e-09
4.714061e-10
1.078416e-09
-1.199316e-09
1.724286e-09
-5.249704e-10
-1.670026e-09
1.056962e-09
-1.301725e-09
1.552208e-09
-2.50483e-10
1.144642e-09
8.068259e-11
-1.225324e-09
-7.151673e-09
-8.401058e-10
7.991778e-09
-1.385297e-09
1.325859e-09
5.943783e-11
-1.20388e-10
-1.06317e-09
1.183558e-09
1.32933e-09
-1.434415e-09
1.050846e-10
1.287156e-09
4.209167e-10
-1.708072e-09
5.641607e-10
-1.615446e-09
1.051286e-09
-1.764819e-09
3.796501e-10
1.385169e-09
-1.967974e-09
1.359808e-09
6.08166e-10
9.456643e-10
5.600793e-10
-1.505744e-09
1.670722e-09
-1.410416e-09
-2.60306e-10
1.444431e-09
3.717587e-11
-1.481607e-09
-6.625306e-10
1.188025e-09
-5.254947e-10
-1.3218e-09
-6.146146e-10
1.936414e-09
-1.826665e-09
1.680372e-09
1.462934e-10
1.718592e-09
-1.225407e-09
-4.931853e-10
8.522382e-10
5.018135e-10
-1.354052e-09
-2.808127e-09
-2.191316e-10
3.027258e-09
1.768148e-09
-4.973774e-10
-1.270771e-09
3.934573e-10
-1.634037e-09
1.240579e-09
-4.987081e-09
4.529691e-09
4.573898e-10
-1.184759e-09
1.401757e-09
-2.169979e-10
-6.385909e-10
9.74589e-10
-3.35998e-10
1.343597e-09
-4.976655e-10
-8.459311e-10
-2.08493e-10
-1.023329e-09
1.231822e-09
1.123995e-09
-1.634899e-09
5.109037e-10
1.456936e-09
6.481848e-10
-2.10512e-09
1.673257e-09
-8.574023e-10
-8.158547e-10
-1.798185e-09
6.845974e-10
1.113588e-09
-1.695325e-09
1.660523e-09
-2.349964e-10
-1.425526e-09
-2.464136e-09
1.940728e-09
-1.176023e-09
-3.442674e-10
1.520291e-09
1.530899e-09
-3.122749e-11
-1.499672e-09
-6.604305e-11
-1.100866e-09
1.166909e-09
1.274838e-09
-1.41277e-09
1.379316e-10
-3.02245e-09
5.248223e-09
-2.225773e-09
4.41321e-10
6.960186e-10
-1.13734e-09
-3.180743e-10
1.557311e-09
-1.239237e-09
-4.943513e-10
-9.235984e-10
1.41795e-09
1.828562e-09
-1.060346e-09
-7.682158e-10
-3.905809e-10
1.283041e-09
-8.924605e-10
2.72149e-10
1.228991e-09
-1.50114e-09
-1.334414e-09
1.550675e-09
9.763214e-10
-1.80807e-09
1.575296e-09
8.33308e-10
1.342399e-09
-1.24261e-09
-9.978813e-11
1.155132e-09
1.638247e-10
-1.318957e-09
1.258767e-09
8.363196e-11
-1.792762e-09
1.283681e-09
5.090809e-10
1.516644e-09
-8.285931e-10
-6.880506e-10
4.243285e-10
-1.436864e-09
1.012535e-09
2.570834e-11
1.3871e-09
-1.412808e-09
4.919603e-10
-1.621624e-09
1.505676e-09
-6.124559e-11
-2.935779e-10
1.861834e-09
-1.406326e-09
1.149907e-10
2.47202e-10
1.160649e-09
-1.407851e-09
-6.06613e-10
1.605566e-09
-9.989533e-10
-9.964147e-10
-3.218828e-10
1.318297e-09
-9.965794e-10
-2.677698e-10
1.264349e-09
-1.858697e-10
1.548585e-09
-1.362715e-09
-1.680537e-09
3.407772e-10
1.339759e-09
-1.636542e-09
4.467682e-11
1.591865e-09
1.167721e-09
-1.533157e-09
3.654362e-10
-1.784075e-09
1.046725e-09
-3.655085e-10
1.325551e-09
-9.600429e-10
7.796143e-10
1.107476e-09
-1.88709e-09
-1.042965e-09
1.507035e-09
-4.640697e-10
-8.934676e-10
-3.087356e-10
1.202203e-09
1.77121e-09
-1.4085e-09
1.782071e-09
-1.66082e-09
-1.212507e-10
2.078617e-09
-1.031086e-09
-1.431987e-09
1.228158e-09
-2.107737e-10
1.401457e-09
-1.190683e-09
1.117885e-09
-1.563073e-09
4.451878e-10
-3.83926e-10
-1.20331e-09
1.587236e-09
-1.104914e-09
-1.022458e-10
1.20716e-09
1.92034e-09
-9.660773e-10
-9.542631e-10
-1.453342e-09
1.651993e-09
-1.986506e-10
2.07957e-09
-5.759775e-10
-1.503593e-09
7.31349e-10
1.097656e-09
-1.829005e-09
-1.251844e-09
-9.196491e-11
1.343809e-09
2.292168e-10
-1.010714e-09
-4.375952e-11
1.762448e-09
-1.718689e-09
-1.63844e-09
2.876468e-10
1.350794e-09
1.477815e-09
-1.418351e-09
-5.946419e-11
-3.740445e-10
1.658828e-09
-1.54827e-09
7.960603e-10
7.522097e-10
-1.640043e-09
7.814787e-10
-4.109454e-10
-7.938768e-10
1.204822e-09
-9.959672e-10
-5.89622e-10
1.585589e-09
-5.028245e-11
-1.157385e-09
4.77915e-10
-1.714277e-09
1.236362e-09
1.1339e-09
-7.828856e-10
-3.510139e-10
1.838212e-09
-9.859736e-10
-9.425061e-10
1.126943e-09
-1.844365e-10
1.722284e-09
-1.352259e-09
-3.700251e-10
1.484939e-10
1.427636e-09
-1.57613e-09
3.257926e-10
-9.670557e-10
6.412631e-10
6.571048e-10
1.300096e-09
-1.957201e-09
-8.595412e-10
1.353006e-09
4.424471e-10
-1.930503e-09
1.488056e-09
-6.93695e-10
1.738096e-09
-1.044401e-09
1.483751e-09
-7.024408e-10
-7.813104e-10
-5.836907e-10
-1.294623e-09
1.878314e-09
-1.060367e-09
-7.294618e-10
1.789829e-09
-1.456409e-09
6.118597e-10
1.329142e-09
-6.393861e-10
-6.897562e-10
-1.265956e-09
1.325872e-09
-5.991597e-11
4.282416e-10
-1.527748e-09
1.099507e-09
1.182604e-09
4.963886e-10
-1.678993e-09
1.425366e-09
-1.006253e-09
-4.191131e-10
-9.315522e-10
1.60467e-09
-6.73118e-10
-8.102224e-10
-1.576064e-09
1.319915e-09
-1.239423e-11
-1.295747e-09
1.308142e-09
-1.348355e-09
5.797336e-10
7.68621e-10
6.032982e-10
1.791561e-10
-7.824543e-10
1.694949e-09
-1.640501e-10
1.386895e-09
3.721493e-11
-1.424109e-09
-1.881762e-09
1.037439e-09
8.443223e-10
1.075405e-09
-1.508473e-09
1.320581e-09
-1.473669e-09
8.985298e-10
1.180088e-09
6.08193e-11
-1.236649e-09
1.17583e-09
7.624201e-10
-1.593041e-09
8.306205e-10
-1.740111e-09
6.136361e-11
1.678747e-09
2.00468e-10
1.596049e-09
-1.796517e-09
1.56628e-09
-1.376805e-09
-1.894744e-10
-1.946229e-09
2.344329e-09
-3.980999e-10
5.495423e-10
1.164525e-09
-1.714067e-09
4.673145e-10
-1.137987e-09
6.706728e-10
1.229211e-09
-1.785137e-10
-1.174497e-09
1.556386e-09
-3.818893e-10
1.546455e-09
-7.065159e-11
-1.475803e-09
1.346226e-09
-1.809032e-09
4.628064e-10
-1.037323e-09
-4.371281e-10
1.474451e-09
-1.374858e-09
1.544006e-09
1.394945e-09
-1.357769e-09
8.374285e-10
-1.528741e-09
6.913129e-10
1.603288e-09
-1.986606e-10
-1.404627e-09
1.646571e-09
-1.572244e-09
-7.432698e-11
-1.552913e-09
1.397977e-09
1.549353e-10
-8.286602e-10
-6.999196e-10
1.52858e-09
1.899982e-10
-9.848041e-10
1.509242e-09
5.516985e-10
1.19828e-09
-1.634299e-09
4.360192e-10
-6.562871e-10
-1.336991e-09
1.993278e-09
-1.58163e-09
3.675214e-10
1.214109e-09
1.651351e-09
-8.889308e-10
-1.221442e-09
-7.690426e-11
1.298346e-09
-5.983728e-11
-1.509839e-09
1.569676e-09
6.81616e-10
9.723445e-10
-1.653961e-09
8.730263e-10
-1.338164e-09
4.651373e-10
8.37684e-10
8.906152e-10
2.23258e-09
-5.317256e-09
3.084676e-09
1.35236e-09
-1.133203e-09
-2.191571e-10
6.137179e-10
-1.281305e-09
6.675871e-10
-9.938509e-10
-6.751621e-10
1.669013e-09
2.108904e-10
-1.397351e-09
1.186461e-09
8.934576e-10
-2.07319e-09
1.179732e-09
2.807075e-10
-1.457905e-09
1.177198e-09
-1.677546e-09
-3.154648e-10
1.993011e-09
-7.329052e-10
1.755398e-09
6.172479e-10
-1.43523e-09
-1.645613e-09
-3.193322e-11
-1.073467e-09
1.69033e-09
-1.501073e-09
2.180923e-10
1.28298e-09
5.606958e-10
-2.121136e-10
1.333082e-09
-1.120969e-09
-1.290519e-09
1.56878e-09
-2.782616e-10
-1.496634e-09
-1.538897e-10
1.650523e-09
-1.437971e-09
2.392222e-10
1.198749e-09
1.105207e-09
-1.759299e-10
-9.292772e-10
1.928107e-09
-1.308437e-09
-6.1967e-10
-5.161101e-10
-1.615561e-09
-8.824259e-10
-7.339076e-10
1.616334e-09
1.708338e-09
9.014857e-10
-2.13605e-09
1.234564e-09
1.088417e-10
1.394283e-09
1.603751e-09
-2.403803e-10
-2.68733e-09
6.891542e-10
-1.36256e-09
1.460613e-09
-9.805306e-11
-1.375772e-09
-2.393378e-10
1.61511e-09
-2.955592e-10
1.514949e-09
7.060636e-10
-1.58849e-09
3.640609e-10
-1.58957e-09
1.225509e-09
-1.046449e-09
-3.150437e-10
1.361493e-09
-1.344014e-09
-2.454355e-10
1.58945e-09
-2.492323e-10
-1.2842e-09
2.864346e-10
1.18423e-09
-1.470665e-09
-2.843887e-09
1.565569e-10
-1.415318e-11
1.406173e-09
-1.401644e-09
1.358444e-09
4.320073e-11
2.687667e-10
8.760863e-10
-1.144853e-09
-1.29593e-09
-2.918451e-10
1.587775e-09
3.451216e-10
9.942865e-10
-1.339408e-09
1.47962e-10
-1.559669e-09
1.411707e-09
-1.29382e-09
1.45287e-09
-1.590502e-10
-1.398651e-10
1.557733e-09
-1.417868e-09
-1.74549e-09
1.563197e-09
1.822931e-10
-1.75942e-11
1.568019e-09
1.202297e-09
-2.263832e-09
6.69806e-10
9.090899e-10
-1.578896e-09
-3.468926e-10
-1.212641e-09
1.559534e-09
2.354819e-10
-1.431807e-09
1.196325e-09
1.212353e-09
-1.317014e-09
4.136626e-10
6.435419e-10
-1.057204e-09
-6.291408e-10
-9.044685e-10
1.533609e-09
-2.429282e-10
1.38757e-09
1.240007e-09
-1.298689e-10
-1.110138e-09
8.555031e-10
8.531754e-10
2.670296e-10
-1.703737e-09
2.071945e-09
2.103935e-09
-4.175881e-09
-1.225159e-09
-1.056775e-10
1.330836e-09
1.641458e-09
-2.662098e-10
-1.375248e-09
1.363826e-09
-1.490204e-11
-1.348924e-09
-1.413176e-09
1.399023e-09
-1.322838e-12
-1.399603e-09
1.400925e-09
4.605277e-12
-1.477622e-09
1.473017e-09
-1.124138e-09
1.875671e-09
-1.531635e-09
9.1436e-12
1.267444e-09
-6.490671e-10
-6.183768e-10
1.423488e-09
4.252427e-10
4.109299e-10
-2.012548e-09
1.601618e-09
1.64522e-09
-1.68768e-09
4.245995e-11
6.301646e-10
-1.131618e-09
5.014539e-10
-1.829576e-09
7.516748e-10
5.173397e-10
-1.525464e-09
1.008124e-09
-1.18663e-09
2.002027e-09
-8.15397e-10
9.096739e-10
-1.510102e-09
6.00428e-10
4.485629e-10
1.361258e-09
-1.80982e-09
-3.241358e-10
1.230657e-09
-9.065209e-10
1.573293e-09
-3.156384e-12
-1.570137e-09
1.944603e-10
1.740747e-09
-1.935207e-09
-6.990168e-10
7.116792e-09
-6.417775e-09
2.543971e-10
1.389447e-09
-1.643845e-09
9.889691e-10
8.613373e-10
-1.850306e-09
-1.252294e-09
4.657113e-10
7.865824e-10
-1.379828e-09
1.334488e-09
4.533996e-11
1.815064e-09
-1.413894e-09
1.823601e-09
9.79109e-10
1.494859e-09
-1.370161e-09
-1.246983e-10
1.779805e-10
-1.352477e-09
-7.876168e-10
-7.053459e-10
1.492963e-09
1.142318e-09
8.415603e-10
-1.983879e-09
-7.792328e-10
1.364247e-09
-5.850142e-10
-1.153109e-09
-5.184441e-10
1.671553e-09
-1.528576e-09
-4.176531e-10
1.595167e-09
-1.601116e-09
-7.518812e-10
-5.87115e-10
1.338996e-09
1.717679e-09
-9.601656e-10
-1.654903e-09
3.662834e-10
1.288619e-09
-1.243143e-09
1.473417e-09
-2.302736e-10
1.676994e-09
9.008023e-11
8.238546e-10
-1.51755e-09
1.661552e-09
-3.016705e-10
-1.359881e-09
-5.037081e-09
-1.607516e-09
6.644598e-09
-2.736879e-09
-1.025273e-09
1.86971e-09
-1.136316e-09
-1.479106e-09
1.24714e-09
2.319662e-10
2.011347e-09
-1.693266e-09
-3.180812e-10
-1.32983e-09
-3.61812e-10
1.691642e-09
2.027729e-10
1.24939e-09
-1.452163e-09
-1.363438e-09
-2.2287e-10
1.586308e-09
9.011085e-10
-1.916209e-09
-1.759763e-09
4.421454e-10
1.317618e-09
-1.807658e-09
5.139809e-10
1.293677e-09
-5.329279e-11
-2.002688e-09
2.055981e-09
1.338016e-09
2.750372e-10
-1.613054e-09
1.075464e-09
8.007115e-10
1.709802e-09
-1.579043e-10
8.524794e-10
6.67969e-10
-1.520448e-09
-1.241673e-09
1.638128e-10
-1.442516e-09
1.185395e-09
-1.446897e-09
6.21303e-10
8.255937e-10
2.444057e-10
1.063179e-09
-1.307585e-09
1.771558e-09
-3.452338e-10
-1.426324e-09
-3.414259e-09
1.321204e-09
2.093055e-09
5.852923e-11
1.542764e-09
-1.601293e-09
1.143886e-09
6.846751e-10
-9.837784e-10
-5.980247e-11
1.043581e-09
1.452974e-09
2.109891e-10
-1.663963e-09
1.510366e-09
-8.411726e-10
-6.691934e-10
-8.575874e-10
-1.124159e-09
1.981746e-09
-3.12287e-09
3.395395e-09
-2.725258e-10
-5.804862e-11
1.401645e-09
8.728214e-10
6.798885e-10
-1.55271e-09
8.168514e-10
7.809941e-10
1.363618e-09
-1.688854e-09
1.511964e-09
1.7689e-10
1.356278e-09
1.945065e-09
5.196253e-12
-1.950261e-09
-1.588739e-09
-2.310789e-10
-1.775751e-09
4.745737e-10
1.301178e-09
-1.261717e-09
8.172253e-11
-3.217905e-10
-1.306569e-09
-1.150615e-09
1.561545e-09
1.564915e-09
-8.335663e-10
-1.295419e-09
5.975807e-11
1.315159e-09
-1.587456e-09
2.722967e-10
1.699194e-10
9.443217e-10
-1.799245e-09
6.387878e-10
1.160457e-09
3.885443e-10
1.177165e-09
-1.565709e-09
1.142733e-09
-1.335947e-09
1.932135e-10
-1.497612e-09
8.460727e-10
6.515393e-10
5.567502e-10
1.424806e-09
-1.473579e-09
4.877295e-11
4.170151e-11
-1.36888e-09
1.327178e-09
-1.774004e-09
7.136361e-10
-1.566815e-09
1.428744e-09
1.380708e-10
-1.711357e-09
1.272113e-09
4.392436e-10
4.461676e-10
1.242391e-09
1.427552e-09
-1.178993e-09
-2.485586e-10
-6.239399e-10
1.480102e-09
-8.561625e-10
-1.537636e-09
-1.514598e-10
1.689096e-09
-1.855305e-09
5.17794e-10
1.337511e-09
-6.82489e-10
-6.682134e-10
1.350702e-09
1.576238e-09
-4.644125e-10
-1.111825e-09
-1.55589e-09
2.28167e-09
-7.2578e-10
3.706758e-10
-1.507482e-09
1.136806e-09
8.345573e-10
1.112608e-09
-1.947165e-09
1.60401e-09
-1.545481e-09
1.516458e-09
-1.82023e-09
3.037723e-10
1.921002e-09
-1.180856e-09
1.561325e-09
-4.556123e-10
-1.105713e-09
1.610431e-09
-1.409963e-09
1.42936e-09
7.98729e-12
-1.437347e-09
-2.029293e-09
1.618348e-09
1.222049e-10
-1.416929e-09
1.294724e-09
1.492573e-09
2.069462e-10
-1.69952e-09
-1.224929e-09
-2.839537e-10
-1.380922e-09
1.538171e-09
-1.572488e-10
6.750526e-10
-1.479751e-09
8.701177e-10
-1.788868e-09
9.187505e-10
1.555031e-09
-7.025519e-10
-1.107613e-10
-1.287213e-09
1.397975e-09
-1.844353e-09
6.948059e-10
1.149547e-09
-1.890938e-09
6.92223e-10
5.824333e-10
-1.274656e-09
1.077833e-09
-1.294601e-09
2.167682e-10
-1.2035e-09
1.631741e-09
-1.747705e-09
9.796847e-10
7.680202e-10
-4.319652e-10
-1.432624e-09
-1.371158e-09
2.742332e-10
-1.003128e-09
-5.829219e-10
-1.426117e-09
8.734051e-10
5.527123e-10
1.608939e-09
1.838968e-09
-3.447906e-09
-1.700875e-09
6.182153e-10
-1.018082e-09
1.768355e-09
-1.027664e-09
-1.523591e-09
8.090254e-10
7.145656e-10
7.263894e-10
8.852773e-10
-1.611667e-09
1.36699e-09
-3.784795e-11
1.296687e-09
-1.333515e-09
1.586246e-09
-1.397674e-09
-1.885714e-10
1.492303e-09
-8.531735e-10
-6.391294e-10
-1.628425e-09
1.290416e-09
3.38009e-10
-1.336896e-09
-3.078727e-10
1.644769e-09
-7.848977e-10
1.33444e-09
-1.265133e-09
1.296542e-09
-3.140819e-11
1.583526e-09
-1.347563e-09
-2.35963e-10
9.011913e-10
-1.65213e-09
7.509389e-10
-1.204264e-10
-1.082074e-09
1.05674e-10
-1.217066e-09
3.119271e-10
1.169732e-09
-1.481659e-09
-1.312209e-09
1.588302e-09
-2.760929e-10
1.209385e-10
-1.354416e-09
-1.019933e-10
-8.434844e-10
-3.743943e-09
2.592168e-09
1.151775e-09
-2.395116e-10
-1.577238e-09
1.816749e-09
1.894675e-09
-9.961457e-10
2.014225e-10
-1.77866e-09
1.307111e-09
-1.480324e-09
9.634152e-11
1.383982e-09
-1.534207e-09
3.506404e-10
1.183567e-09
8.788951e-10
2.297997e-10
-1.108695e-09
1.206238e-09
-3.982135e-11
-1.012506e-09
-1.283783e-10
1.140884e-09
-1.56784e-09
3.567309e-10
-7.614398e-10
-9.067329e-10
1.668173e-09
-1.155923e-09
-4.989794e-10
1.407453e-09
-1.013075e-09
-3.943773e-10
1.90392e-09
-8.127801e-10
-1.09114e-09
1.361501e-09
2.990212e-10
-1.162286e-09
1.400093e-09
-3.549232e-11
1.55195e-09
1.76958e-09
5.050186e-11
-1.839002e-09
1.548088e-09
2.909134e-10
-1.981157e-10
1.150602e-09
1.17834e-09
-1.962028e-09
7.836886e-10
2.894946e-10
9.606424e-10
-1.250137e-09
-1.097352e-09
1.434395e-09
-3.370439e-10
1.586529e-09
-9.114761e-10
8.740666e-10
8.933374e-10
-1.767404e-09
-1.645857e-09
1.655336e-10
-9.294526e-10
-5.194217e-10
1.448874e-09
1.415602e-09
-1.49492e-09
1.158558e-09
-1.131707e-09
-3.66063e-10
-3.794485e-10
1.547064e-09
-1.167616e-09
-3.353981e-10
1.027621e-09
-9.508952e-10
1.35139e-09
-1.336268e-09
-1.003722e-10
-1.466416e-09
1.566788e-09
1.786159e-09
-8.198834e-10
-9.662751e-10
3.400886e-10
-1.626795e-09
1.286707e-09
-8.464904e-10
1.568532e-09
-7.220413e-10
1.290162e-09
1.256762e-10
-1.415838e-09
1.154492e-09
5.449361e-10
-1.609824e-09
2.880242e-10
-9.424387e-10
1.5153e-09
-5.728614e-10
7.210085e-11
-1.25686e-09
1.885852e-09
-1.273007e-09
-1.590287e-09
1.199735e-09
3.905521e-10
-3.953588e-10
1.792665e-09
6.607014e-10
-1.696704e-09
1.036002e-09
3.266633e-10
8.96841e-10
-1.223504e-09
-1.220585e-09
1.468403e-09
-2.478174e-10
1.795725e-09
-1.269397e-09
-5.263275e-10
2.230087e-10
-1.221724e-09
9.987152e-10
-1.033719e-09
1.447382e-09
7.638134e-10
-1.693266e-09
1.965035e-09
-1.406894e-09
-5.581412e-10
1.309564e-09
-1.589888e-09
2.803242e-10
1.248188e-09
-1.481112e-09
2.329245e-10
-1.233416e-09
-3.079773e-10
1.541393e-09
1.481176e-09
-2.557338e-10
-1.225443e-09
-1.79287e-09
9.150231e-11
1.701368e-09
-1.633112e-09
6.656465e-10
9.674659e-10
-1.499584e-09
7.396085e-11
-1.007088e-09
9.545849e-10
5.250354e-11
7.809059e-10
-1.966347e-09
-1.87807e-09
1.710276e-09
1.677938e-10
6.432964e-10