/*--------------------------------*- C++ -*----------------------------------*\
| =========                 |                                                 |
| \\      /  F ield         | OpenFOAM: The Open Source CFD Toolbox           |
|  \\    /   O peration     | Version:  2406                                  |
|   \\  /    A nd           | Website:  www.openfoam.com                      |
|    \\/     M anipulation  |                                                 |
\*---------------------------------------------------------------------------*/
FoamFile
{
    version     2.0;
    format      ascii;
    arch        "LSB;label=32;scalar=64";
    class       volVectorField;
    location    "0.36";
    object      U;
}
// * * * * * * * * * * * * * * * * * * * * * * * * * * * * * * * * * * * * * //

dimensions      [0 1 -1 0 0 0 0];

internalField   nonuniform List<vector> 
4529
(
(0.01038442 -0.0008950992 0)
(0.009317444 -0.0003117031 1.07754e-24)
(0.009441978 0.0001248538 -1.048661e-24)
(0.008461145 -0.0005503066 -2.75734e-24)
(0.008980653 0.0002544895 1.383395e-24)
(0.009099965 0.001261231 0)
(0.009585773 0.0004426604 0)
(0.009564743 0.001096735 -1.574213e-25)
(0.009143423 -8.665829e-05 -1.048173e-24)
(0.009653082 -0.0004155364 6.095422e-26)
(0.01046519 -0.0001611976 -1.787188e-25)
(0.0100119 -0.0006647797 -4.385386e-25)
(0.009924707 -0.0003659141 2.928932e-25)
(0.01000186 -0.0006332275 -4.188113e-25)
(0.009647704 -0.0002290157 0)
(0.0098388 -0.0003186778 3.367592e-25)
(0.009139123 -0.0006304369 0)
(0.009803065 -0.0004965199 4.937169e-25)
(0.01010033 -0.0002596153 0)
(0.009672659 -0.0008065628 -5.692511e-26)
(0.01002756 -0.0002878281 8.761848e-28)
(0.009722198 -0.0003598182 9.121035e-25)
(0.009694166 -7.427094e-05 -2.796083e-25)
(0.009483396 -0.0002633812 0)
(0.01001656 -0.0002563008 1.661374e-26)
(0.009503295 -0.0004287641 -1.413938e-26)
(0.009901338 0.001273104 -3.482585e-25)
(0.00896129 0.0005977446 -8.552248e-25)
(0.009287579 0.0009433476 1.121841e-24)
(0.008759129 0.0001337531 -1.24188e-24)
(0.010092 -0.0004684102 1.232715e-25)
(0.00968365 7.947153e-05 3.76562e-25)
(0.009843299 -0.0002558608 0)
(0.0101697 -0.000420074 0)
(0.01078031 -0.0005380254 0)
(0.009359246 0.0005125705 1.622445e-24)
(0.009498507 -0.0002468348 -3.511448e-25)
(0.009990535 -0.0008069818 0)
(0.009017704 -0.0008244923 -2.169019e-24)
(0.01060554 -0.0008238293 3.855889e-25)
(0.009669118 -0.0001415448 -2.656454e-26)
(0.009850648 -0.0002301401 -3.364409e-25)
(0.009626245 -0.00012714 -5.924952e-25)
(0.01008796 -0.0003584471 0)
(0.0100799 -0.0003266795 1.306597e-26)
(0.01057177 -0.0006515926 -5.150448e-25)
(0.00961387 5.551518e-05 0)
(0.009352184 -0.0002648643 0)
(0.01009545 -0.0002275721 -6.640376e-27)
(0.009177495 9.875209e-05 -1.254404e-24)
(0.007730544 -0.0002722572 5.178702e-24)
(0.009589752 -0.0003273794 -3.048168e-25)
(0.007668505 0.0003771205 0)
(0.01036021 -0.0006092758 1.934909e-26)
(0.009502109 -0.0009617159 2.013809e-25)
(0.00914918 -0.0002397906 -8.284042e-25)
(0.009199814 -8.178499e-05 0)
(0.01055377 -9.650133e-05 1.965864e-24)
(0.00844683 0.000960838 5.619619e-24)
(0.008217869 -0.0009331913 -4.035501e-24)
(0.009471387 0.0008599223 9.432161e-25)
(0.01045065 -0.0005643864 0)
(0.00991929 -0.0002535951 -2.498458e-25)
(0.008199603 -0.001029263 0)
(0.009507585 0.0002674179 0)
(0.01029573 -0.0005796044 8.167893e-27)
(0.01013341 -0.0009224554 6.694279e-25)
(0.009713766 -0.0001965642 3.110147e-25)
(0.009481641 6.086031e-05 0)
(0.01089593 -0.0004100408 0)
(0.009517281 -1.152817e-05 1.924456e-24)
(0.009264601 -0.0002273777 1.179463e-24)
(0.008738475 -0.0001086164 -9.938046e-25)
(0.009859384 -0.0002492052 -4.276088e-25)
(0.007725252 0.000329712 -1.555079e-24)
(0.008825109 -0.0008860503 -3.007741e-24)
(0.01069572 -0.0007882636 1.5553e-25)
(0.01035544 -0.0002034966 0)
(0.00874037 -0.001248972 3.633108e-24)
(0.009237252 0.0001772804 2.725172e-25)
(0.008880311 -8.196689e-05 1.976065e-24)
(0.009591178 0.0001579612 6.786736e-25)
(0.01016919 -0.0003091766 -6.394553e-26)
(0.009671807 -0.0004112185 -1.677075e-25)
(0.009345093 -0.0006028906 -7.372224e-25)
(0.00984829 -0.0003659476 9.011433e-25)
(0.01008597 -0.0002603659 0)
(0.01034325 -0.0004387028 0)
(0.01055523 -0.0005913181 0)
(0.01037856 -0.001020467 9.656107e-25)
(0.00784457 -0.000575353 1.915714e-24)
(0.00979775 -0.000193958 0)
(0.01014748 -0.0002707588 -4.743378e-26)
(0.00961113 0.0002863818 -2.212873e-25)
(0.009751741 -0.0001770235 0)
(0.01007543 -0.0006913781 -4.664806e-25)
(0.008379347 -0.0002769994 -2.870074e-24)
(0.009638622 -0.001064203 -2.096758e-25)
(0.009567486 0.001257104 6.300092e-24)
(0.009431781 -0.0005986965 -9.621926e-25)
(0.009859786 -0.0003174733 0)
(0.00892283 -0.000556932 -1.215449e-25)
(0.009367066 0.000291623 9.884218e-25)
(0.009663835 -0.001042867 -1.939347e-25)
(0.009698349 -0.000280425 -4.796663e-25)
(0.01059181 -0.0006790638 -1.321531e-25)
(0.009836028 -0.001378973 3.856007e-24)
(0.01064323 -0.0006436239 7.822186e-26)
(0.01032902 -0.0004148932 -1.013554e-24)
(0.01021935 -0.0006927503 7.500673e-26)
(0.009973397 -0.000238906 4.568233e-26)
(0.009659061 0.0001963223 3.059397e-25)
(0.008671377 0.0006414836 0)
(0.009040536 0.0007799405 5.448764e-24)
(0.008683837 -0.0001970449 0)
(0.009724939 -0.0002291749 -5.194592e-25)
(0.010018 -0.001032063 -1.571972e-24)
(0.009463739 0.000886321 1.39179e-24)
(0.009592339 -0.0003904717 -4.767867e-25)
(0.009983771 -0.0004196926 0)
(0.009818614 -0.001153828 0)
(0.009500368 0.000227867 -8.342346e-26)
(0.01043009 -0.0008697316 0)
(0.01006802 -0.0008998501 -9.136218e-25)
(0.009709693 -0.0002420073 2.842057e-25)
(0.009094099 -0.0006403669 0)
(0.009552626 0.0008652568 0)
(0.01028967 -0.000460868 -1.674853e-25)
(0.009630025 -0.0002473319 0)
(0.008960568 -0.0009873227 -2.213383e-24)
(0.009536878 0.0003213432 3.889574e-26)
(0.009522948 0.001211547 3.736739e-24)
(0.007794307 -0.0006238879 -4.740064e-24)
(0.01035526 -0.0007592328 1.263865e-25)
(0.01060196 -0.0007969918 0)
(0.01020511 -0.00043697 -1.800871e-25)
(0.01023956 -0.0004241102 0)
(0.01004472 -0.000357937 -3.180816e-26)
(0.01005453 -0.0007546929 0)
(0.009521849 -0.0006599811 0)
(0.009834789 -0.001032 1.499779e-24)
(0.009872031 -0.0008270322 -2.329703e-24)
(0.009881141 -0.0004486697 -3.78238e-25)
(0.009235759 -0.0007622955 -2.14502e-24)
(0.008354897 2.947422e-05 2.878195e-25)
(0.009553968 0.001052406 1.508254e-24)
(0.01044052 -0.0008428672 -5.666238e-25)
(0.008671835 0.0001438867 1.247103e-24)
(0.00958394 0.0007402833 0)
(0.009550032 -0.0003872024 4.28845e-25)
(0.009386326 -5.751669e-05 4.688111e-25)
(0.009073753 0.0006909188 -5.276461e-25)
(0.009413702 -0.0008702864 1.436845e-24)
(0.009854056 -0.0002846038 3.301447e-25)
(0.009475155 0.001299201 4.526894e-24)
(0.009952742 -0.0004490753 -3.392228e-25)
(0.01018483 -0.0005281856 0)
(0.009557087 -0.001096055 0)
(0.009857315 -0.0005090479 -6.109854e-25)
(0.009440669 0.0001438293 1.063114e-24)
(0.01091935 -0.0006024855 0)
(0.009987305 -0.0003152324 2.110396e-25)
(0.009162554 -0.001120736 -1.320978e-25)
(0.01003438 -0.001181318 1.052106e-24)
(0.01003674 -0.0002764049 4.245542e-26)
(0.01008498 -0.0002676003 0)
(0.01006285 -0.000350562 1.662849e-26)
(0.009587787 -0.0007313631 0)
(0.01020908 -0.001206997 0)
(0.009534891 0.000485836 -1.33829e-24)
(0.008645318 0.001005509 0)
(0.009613424 0.0001415445 0)
(0.007887261 -0.0008813303 2.986464e-24)
(0.01018934 -0.0003517434 -1.362939e-26)
(0.01075888 -0.0008043249 0)
(0.009312108 0.0008083196 -7.673219e-25)
(0.01001319 -0.0008954495 -1.552298e-24)
(0.008538046 -0.001223697 -3.682362e-24)
(0.007715604 -0.0007258361 -2.65005e-25)
(0.01098258 -0.0006464092 0)
(0.01020069 -0.0003722265 -2.20899e-25)
(0.00942873 -0.0004705155 0)
(0.0095036 3.745096e-05 1.744182e-24)
(0.009581742 8.650526e-06 9.676924e-25)
(0.01100554 -0.0004332058 -6.871017e-25)
(0.007951396 -0.001106782 -3.42344e-24)
(0.009631542 -0.0009521424 -1.124629e-24)
(0.009981324 -0.0004070213 -3.562398e-25)
(0.008690407 -3.786375e-05 5.702991e-25)
(0.009992997 -0.0004466776 0)
(0.009391355 0.0009164816 3.958914e-25)
(0.007952574 -0.0003761706 0)
(0.01029037 -0.0003994086 0)
(0.009484513 0.0011512 -7.645808e-26)
(0.009518316 -0.000484012 0)
(0.01059809 -0.0006053212 1.207901e-25)
(0.01013349 -0.0003487641 0)
(0.008267311 -0.0002715681 0)
(0.01097569 -0.0004796604 1.539745e-24)
(0.01004384 -0.0002907455 2.860719e-27)
(0.009616781 0.0002557449 7.44241e-25)
(0.01051111 -0.0004312406 5.905902e-25)
(0.009646472 3.147397e-05 -2.005216e-25)
(0.007976635 0.0002578012 0)
(0.009747223 -0.0002327949 0)
(0.009369504 -0.0003349086 -1.060458e-24)
(0.008973445 -0.001030833 0)
(0.009350461 -0.0003112937 0)
(0.009181749 0.0004916867 0)
(0.008114647 -0.0009178606 3.67405e-24)
(0.01020982 -0.0004592961 -6.012195e-27)
(0.009090365 0.0003259218 3.1146e-25)
(0.01016871 -0.0005975173 0)
(0.00937155 -0.0009539978 2.188223e-24)
(0.00954285 -0.0006658064 1.39505e-24)
(0.009455669 0.000686261 0)
(0.009705066 -0.000622887 0)
(0.009794615 -0.0003832261 -1.037091e-24)
(0.009358933 0.000241516 0)
(0.01075468 -1.341078e-05 -2.712758e-24)
(0.009456256 -0.0006890804 -1.08602e-24)
(0.009945862 -0.0002936528 5.343025e-26)
(0.009669291 -0.0006812623 -7.072111e-25)
(0.01003406 -0.0004703239 -1.37722e-27)
(0.01008596 -0.0007259237 -1.247569e-24)
(0.01064769 -0.0005056277 -8.622137e-26)
(0.009732621 -0.0002000444 -9.291557e-25)
(0.009237943 -0.0001167524 -5.205623e-25)
(0.009116757 -0.001266131 2.984988e-24)
(0.009871808 -0.0002338735 7.595024e-25)
(0.009588118 0.001315023 0)
(0.00803734 0.0006534895 5.169486e-24)
(0.009171878 -0.001468452 0)
(0.0101099 -0.000564106 -1.678972e-25)
(0.009155293 -0.000438016 -7.455657e-25)
(0.009432174 0.0008340654 1.348529e-24)
(0.01016489 -0.001068793 1.304834e-25)
(0.009281542 -0.00106301 -1.969857e-24)
(0.01013565 -0.0003391796 6.056908e-26)
(0.009359808 0.0001555782 5.549753e-25)
(0.009162354 0.0003046669 0)
(0.01011626 -0.0003227584 0)
(0.009877699 -0.0003559918 5.386362e-25)
(0.008225112 -0.0004751624 2.758683e-24)
(0.01044175 -0.0002513073 8.0667e-26)
(0.009375826 -0.0009885481 -2.582547e-25)
(0.008794351 -0.001327381 3.173444e-24)
(0.00973602 -0.0004073296 0)
(0.009905004 -0.0007446618 -4.321128e-25)
(0.01019019 -0.0003101673 0)
(0.009993411 -0.001242813 -2.556313e-25)
(0.01028591 -0.00029834 0)
(0.008802274 -0.0003117847 -1.910732e-24)
(0.01058968 -2.180111e-05 0)
(0.01095933 -0.0006719593 2.619105e-25)
(0.01018982 -0.0007684941 3.774695e-25)
(0.008837809 -2.165503e-05 0)
(0.008206516 0.000744639 -1.365675e-24)
(0.008706677 -0.0005567028 0)
(0.009692074 -0.0004224379 4.838512e-25)
(0.01030714 -0.0001705252 0)
(0.009826605 -0.0002031506 -3.313104e-25)
(0.00965616 -0.0002039268 -4.949238e-25)
(0.009969812 -0.0005371593 3.491721e-25)
(0.009487403 0.000158212 0)
(0.008694886 0.000885039 2.936644e-24)
(0.009489934 -0.000227326 3.928574e-25)
(0.01037208 -0.001181529 -5.088138e-26)
(0.009274248 -0.000340348 8.619864e-25)
(0.009809178 -0.0003407763 2.835665e-25)
(0.009547856 -0.0005620307 0)
(0.009984864 -0.0003571284 -2.436589e-25)
(0.01049264 -0.0008591444 0)
(0.01030408 -0.001247339 -2.298948e-24)
(0.008281758 0.0009123757 9.241943e-25)
(0.01001275 -0.0002895931 -1.064416e-25)
(0.01004671 -0.0003379296 0)
(0.0101066 -0.00037162 -1.162457e-27)
(0.008837812 -0.0007584742 4.695049e-25)
(0.009191543 -0.001451265 0)
(0.009979275 -0.0006872084 3.410728e-25)
(0.009633425 0.0002205523 5.090288e-25)
(0.01018035 -0.0004777783 3.868484e-26)
(0.009665577 -0.001143047 0)
(0.01006719 -0.0002900734 2.529477e-26)
(0.009462799 0.0001169384 -6.670449e-25)
(0.009529478 0.0006419562 0)
(0.01006805 -0.0003629974 -8.616807e-26)
(0.00924619 -0.0005152814 0)
(0.009750939 -0.0006693318 -5.214002e-25)
(0.009921232 -0.001363743 0)
(0.01046869 -0.0008246727 5.571086e-25)
(0.01015287 -0.0007615884 5.183439e-25)
(0.009466661 -9.326139e-05 5.78599e-25)
(0.009277192 0.0001381513 2.869518e-26)
(0.01029957 -0.000726914 2.783459e-25)
(0.009599262 6.326848e-05 0)
(0.009578621 -0.0008954311 0)
(0.009852439 -0.0003550544 -9.371657e-26)
(0.009837663 -0.0008261283 -1.541085e-24)
(0.009561521 -3.450257e-05 -3.270224e-25)
(0.009474118 -0.0001692625 0)
(0.009214763 0.0004283308 8.666821e-25)
(0.01075886 -0.000336938 0)
(0.0101377 -0.0008952278 -6.481242e-25)
(0.009365937 0.0007699425 3.018317e-24)
(0.009895263 -0.001281959 0)
(0.009675963 -0.0003079912 7.185848e-25)
(0.009176532 -0.0005633626 0)
(0.009893557 -0.0005096764 4.032795e-26)
(0.009826494 -0.0004414726 0)
(0.009566927 0.0004291736 0)
(0.01026196 -0.0003214613 -2.357067e-25)
(0.009505952 -0.0003918581 0)
(0.01014326 -0.001190746 0)
(0.01020296 -0.0009114044 0)
(0.009568207 0.000265662 8.243687e-25)
(0.009643568 0.000244754 0)
(0.008528982 0.001187433 -1.547488e-24)
(0.01053658 -0.0004926599 4.652845e-25)
(0.0102646 -0.0006738442 0)
(0.01064876 -0.0004588529 -1.14627e-24)
(0.009330804 0.000241436 0)
(0.008944314 -0.0004500816 1.066266e-24)
(0.01002111 -0.000726273 -1.11714e-24)
(0.00916977 -0.0001455523 -2.437363e-24)
(0.009937585 0.001169954 1.562823e-24)
(0.009993779 -0.0002441498 2.606371e-25)
(0.009910134 -0.0003320402 2.67588e-25)
(0.01002078 -0.0002714303 1.486711e-25)
(0.01002015 -0.000313469 3.846498e-26)
(0.009955235 -0.0002843696 0)
(0.009909242 -0.0002421097 0)
(0.009542175 -1.651403e-05 -2.640399e-26)
(0.01048167 -0.0006129602 0)
(0.008639323 0.000358725 0)
(0.00886353 0.0005515165 -8.207894e-26)
(0.009359867 0.0006373273 0)
(0.009935505 -0.0002277698 2.44282e-25)
(0.009771086 -0.0002867969 4.31123e-25)
(0.009704913 -0.0001887861 0)
(0.009664567 -0.000996545 -2.165867e-24)
(0.01091568 -0.0004826367 -2.118738e-24)
(0.00911313 0.001017017 -7.885065e-26)
(0.009537851 -0.001218972 0)
(0.01051277 -0.0004881146 -2.991741e-26)
(0.009407939 0.0002394005 0)
(0.008930093 0.001095164 5.817379e-26)
(0.008836916 0.0005961531 -1.816863e-24)
(0.009655988 2.959729e-05 1.649552e-25)
(0.009743936 -0.0003819034 -1.444563e-25)
(0.01052758 -0.0004004346 4.397481e-25)
(0.009627928 0.000167554 4.173455e-25)
(0.009598255 0.0001955983 -7.746149e-25)
(0.0106003 -0.0007009024 -1.030698e-25)
(0.009081998 -0.0004034794 1.488734e-24)
(0.009143723 0.001085454 -3.771916e-25)
(0.01064432 -9.313869e-05 1.412402e-24)
(0.009529044 -0.0003519881 0)
(0.00958551 -0.0001585002 -1.331381e-24)
(0.009889048 -0.0002557159 -3.964131e-25)
(0.0108397 -0.0008597828 3.514351e-25)
(0.0093152 -9.614459e-05 0)
(0.009908634 -0.0003990614 3.352059e-25)
(0.01002659 -0.0005778813 -1.569486e-25)
(0.0101759 -0.0004428032 0)
(0.01018218 -0.0005616444 -1.481447e-25)
(0.009076624 -9.793527e-06 1.078418e-24)
(0.009591156 0.0004869699 6.985445e-25)
(0.01051805 -0.001085274 2.196618e-24)
(0.01020067 -0.0005017512 0)
(0.009922396 -0.0004573577 -3.595842e-25)
(0.009757711 -0.0007728361 0)
(0.01032462 -0.0003810497 2.463356e-25)
(0.009661755 -0.0005724083 3.738311e-25)
(0.009947171 -0.000200184 -1.261633e-25)
(0.01022982 -0.0001631567 0)
(0.008230695 -0.0003652957 3.302088e-24)
(0.007723692 -0.000160789 -1.574222e-24)
(0.009779132 -0.0008508994 -4.949069e-25)
(0.009824594 -0.0005149882 4.998898e-25)
(0.01038551 -0.0005702514 1.666489e-25)
(0.01018265 -0.0002898589 -2.574904e-25)
(0.01010582 -0.0003909069 3.452669e-26)
(0.01087803 -0.0008060575 -6.133343e-27)
(0.01008053 -0.0003657988 4.748274e-26)
(0.00969209 -0.00138574 -1.633238e-24)
(0.01091084 -0.0004339884 0)
(0.009067934 9.16802e-05 -1.27809e-24)
(0.0100523 -0.0002438581 0)
(0.008189743 0.0004754456 1.036753e-25)
(0.01071921 -0.0006055728 1.318446e-25)
(0.01082548 -0.0002542783 2.500608e-24)
(0.009395552 0.000417749 0)
(0.01061203 -0.0009740034 0)
(0.009385413 0.000470466 1.220196e-24)
(0.009480811 0.0005049842 5.622044e-25)
(0.009505746 0.0007411877 -8.717478e-25)
(0.009460204 0.0004532697 0)
(0.009151604 0.0004599261 0)
(0.009657942 0.0005549761 0)
(0.0106164 -0.0005074525 -1.396507e-25)
(0.008183591 0.0002559102 0)
(0.008331776 0.0004169693 0)
(0.008228824 0.0002165067 -2.598138e-24)
(0.009874461 -0.000484726 -2.398678e-25)
(0.008405149 0.0005399226 -1.99287e-24)
(0.009873682 -0.0002871592 -1.3813e-26)
(0.01075774 -0.0005988219 0)
(0.00946468 -0.0002228657 -7.558485e-25)
(0.009112195 -2.997947e-05 1.079406e-24)
(0.00971887 -0.0003434619 -5.881182e-25)
(0.008770849 0.0005961346 1.79148e-24)
(0.009550838 6.382321e-06 -7.434097e-25)
(0.01021938 -0.0004034684 -1.197707e-25)
(0.009871002 -0.0003020659 0)
(0.009849541 -0.0004355634 5.453155e-25)
(0.009235965 -0.0004295954 -1.13842e-24)
(0.0100545 -0.0004527987 2.915256e-25)
(0.01038009 -0.0004674191 1.06612e-26)
(0.00850687 -0.001046894 -2.274348e-24)
(0.01019713 -0.001171717 0)
(0.008247384 -0.0006928272 3.501024e-24)
(0.00917606 0.0008811385 0)
(0.008450922 -0.00126767 -4.621401e-24)
(0.007848491 -0.0002314035 -1.038382e-24)
(0.009480906 0.001255648 0)
(0.009786213 -0.0009703685 1.306735e-24)
(0.01084572 -0.0009198084 -1.983833e-25)
(0.009399985 -0.0005860031 -3.754165e-25)
(0.00991401 -0.0002752813 2.039365e-25)
(0.0107653 -0.0007262017 -2.66454e-26)
(0.008315863 -0.001182217 -3.647989e-24)
(0.007971861 0.0003844801 3.582932e-24)
(0.01044295 -0.0004978735 -5.086549e-25)
(0.009717307 -0.0002624999 -7.008016e-25)
(0.01023821 -0.0003880398 -2.224886e-25)
(0.01013863 -0.0003655784 -6.187634e-26)
(0.009078212 -0.0003384393 0)
(0.01029233 -0.0004717868 -3.677499e-26)
(0.01040521 -0.001094911 -1.355406e-25)
(0.01006111 -0.000477733 1.873041e-25)
(0.009791929 -0.001322223 0)
(0.009523109 -0.0002498861 0)
(0.009637549 0.0003873035 -2.91501e-26)
(0.009666517 0.000375036 0)
(0.01046047 -0.0005135521 7.425222e-25)
(0.009600846 0.0003526893 -2.180889e-25)
(0.009602125 0.0002609203 -4.68521e-25)
(0.009300555 0.0004335724 0)
(0.00916692 -0.001051778 -1.510643e-24)
(0.009728952 -0.0007598842 1.586301e-24)
(0.009437178 -0.0007311125 6.569359e-25)
(0.009872429 -0.0005876525 3.059971e-25)
(0.009969966 -0.0006553391 -8.015967e-25)
(0.009980399 -0.001323307 -1.858435e-24)
(0.009732025 -0.0001735723 0)
(0.009501442 -0.001092625 2.671002e-24)
(0.01069985 -0.0008505574 -2.447444e-25)
(0.009885385 -0.0004238685 9.156141e-25)
(0.01048971 -0.0006856716 2.138601e-25)
(0.01033977 -0.0009415031 9.659076e-26)
(0.009542566 3.78568e-05 0)
(0.0109876 -0.0004898418 0)
(0.009589674 0.001009788 2.414407e-25)
(0.009031715 0.0004238795 -4.564804e-25)
(0.009790577 -0.0002099031 0)
(0.009934537 -0.0006065933 2.068998e-25)
(0.01023055 -0.0006431728 1.831337e-25)
(0.009937406 -0.0002413067 9.069432e-26)
(0.01018025 -0.000431174 0)
(0.01092575 -0.0005757863 1.118533e-24)
(0.009323869 0.0005460412 0)
(0.009531383 -0.0001190789 0)
(0.008565723 -0.0001294632 0)
(0.01004564 -0.0002385064 0)
(0.008977765 0.0004583845 6.210719e-26)
(0.009615291 -6.47195e-05 -4.790096e-25)
(0.01019627 -0.0004280536 -3.24504e-26)
(0.009735808 -0.0002369536 -6.655823e-26)
(0.01098668 -0.0006184016 -7.276998e-25)
(0.01081417 -0.000932126 1.642778e-25)
(0.01078063 -0.0009087957 0)
(0.009957842 -0.0002523579 2.089593e-25)
(0.009604626 -0.0002379286 0)
(0.0107396 -0.0006676691 0)
(0.009209834 0.0003680247 0)
(0.01025843 -0.0003701627 -7.051043e-26)
(0.009608025 -0.0006222012 7.090689e-25)
(0.009485595 0.001029783 0)
(0.007833693 -0.001208972 6.346585e-25)
(0.009375104 -1.620346e-05 -5.74885e-25)
(0.009287856 8.845134e-05 0)
(0.009936432 -0.0002081807 2.32902e-25)
(0.009622078 0.0004374416 5.344438e-25)
(0.009141345 0.0002709258 1.089758e-24)
(0.009084049 2.75384e-05 3.402945e-24)
(0.008926692 0.0001255821 2.278712e-24)
(0.009516232 0.0003776916 -6.777942e-25)
(0.008846815 0.0004633212 -1.303598e-24)
(0.00923103 0.0002296877 0)
(0.009884273 -0.0002239022 -2.42575e-25)
(0.009550423 -0.0006858728 -1.042884e-24)
(0.01066009 -0.00106583 0)
(0.01060874 -0.000935751 0)
(0.009826962 -0.0002841503 1.827499e-25)
(0.00998777 -0.000254567 0)
(0.009964702 -0.0002493296 -1.873025e-25)
(0.009886044 -0.0002407822 -1.961089e-26)
(0.009897823 -0.0003669869 -4.157169e-25)
(0.00994982 -0.0002628291 -1.94592e-25)
(0.01000122 -0.0003113422 -1.511779e-25)
(0.009194125 -0.0001347042 -1.452812e-24)
(0.01034863 -0.0002542514 -5.938998e-25)
(0.00956475 -0.0002466916 -7.526329e-25)
(0.009333024 -0.0008338062 -6.07219e-25)
(0.009776449 -0.0002632178 4.587883e-25)
(0.01052855 -0.0008804284 0)
(0.01081525 -0.0006969107 0)
(0.01076277 -0.0007638962 -2.609054e-26)
(0.009651763 6.105322e-05 0)
(0.01017379 -0.000407946 0)
(0.009635844 0.0006191733 0)
(0.009639421 5.364061e-05 0)
(0.009660525 1.537671e-05 0)
(0.009990891 -0.0002715156 2.169104e-26)
(0.01006674 -0.0007100813 5.881089e-25)
(0.009268638 -0.0001532994 0)
(0.01039019 -0.0005270493 0)
(0.01010111 -0.0002438116 -6.055949e-26)
(0.009780663 -0.0005627823 -9.002547e-25)
(0.009994174 -0.0005447551 5.211166e-25)
(0.009935446 -0.0004820273 -1.080161e-25)
(0.009890537 -0.0005295446 -5.400649e-25)
(0.009963787 -0.0003655662 -2.255116e-25)
(0.008926863 0.0005563724 6.624506e-25)
(0.01016314 -0.0002782528 0)
(0.0101157 -0.0003136625 2.00381e-26)
(0.01012758 -0.0003348964 -2.438289e-26)
(0.01080823 -0.000514353 0)
(0.008775062 -0.00138925 -1.099975e-25)
(0.009930312 -0.0003243585 5.546305e-26)
(0.011046 -0.0004745785 -6.425167e-25)
(0.009954849 -0.0003740585 -2.176471e-25)
(0.009418152 0.0007531937 7.644192e-25)
(0.01005873 -0.0003003282 -3.173729e-26)
(0.009594251 -0.000456558 -4.026044e-25)
(0.009165271 0.0005253719 0)
(0.009831764 -0.0006597552 -3.499014e-25)
(0.01082817 -0.0005246457 0)
(0.009270127 0.0001857529 3.815846e-26)
(0.009575577 0.000295841 0)
(0.009493 -0.0004578013 0)
(0.009311269 -0.0001887135 8.247068e-25)
(0.01015744 -0.0007203715 2.77887e-25)
(0.01008685 -0.0008481711 0)
(0.008823088 0.001153412 3.070681e-24)
(0.009420911 0.001104945 -2.165825e-24)
(0.0107059 -0.0005596996 -7.556724e-25)
(0.009799438 -0.001009534 0)
(0.01045018 -0.0005849366 2.063108e-26)
(0.009691436 -0.0002229399 -9.418644e-25)
(0.00949598 -0.0008280739 4.024099e-25)
(0.008791027 -0.001157235 9.724498e-26)
(0.008675503 0.0001896547 3.847477e-24)
(0.00969091 -0.0001045323 7.405124e-25)
(0.00964173 -1.565391e-05 -3.520034e-25)
(0.009194952 0.001069123 0)
(0.009052927 0.0001529692 -2.136215e-24)
(0.00942206 0.001373626 -3.765299e-24)
(0.01026463 -0.0006909471 0)
(0.01032869 -0.0002985926 -8.772395e-25)
(0.01031026 -0.0004827036 5.321452e-26)
(0.009886756 -0.0009654891 1.155144e-25)
(0.009386055 -0.0004304872 -4.678018e-26)
(0.009284802 0.0002137105 -1.263412e-24)
(0.00932544 0.0003178751 -1.250772e-25)
(0.009723147 0.001282004 4.430046e-24)
(0.01007087 -0.0003437773 2.520691e-26)
(0.01005511 -0.0002296278 0)
(0.009609404 0.0007802016 0)
(0.009644017 -0.001116956 0)
(0.009667611 -0.0007227671 0)
(0.01003264 -0.0006082203 3.065623e-25)
(0.009668428 -0.0001886692 -6.773273e-25)
(0.009318229 0.0006359572 -3.172595e-25)
(0.0101062 -0.0006216951 0)
(0.01034261 -0.001156884 -1.219427e-24)
(0.009344181 0.0001175773 -1.132563e-24)
(0.010861 -0.0007030879 3.338814e-25)
(0.01087506 -0.000583397 0)
(0.01015369 -0.001116822 -1.018639e-24)
(0.01024155 -0.0008660287 -5.174341e-25)
(0.01069907 -0.0001626732 1.852628e-24)
(0.009285391 -0.0007287361 1.628873e-24)
(0.009534924 -6.715487e-05 -4.759665e-25)
(0.009358426 -0.0006587731 -1.613024e-24)
(0.009317072 2.422765e-05 1.110124e-24)
(0.01077704 -0.0005604112 -1.034045e-24)
(0.01061198 -0.0004610163 0)
(0.009958083 -0.0002035747 0)
(0.009356947 -8.705727e-07 -5.683088e-25)
(0.01051808 -0.0006765962 0)
(0.01050052 -0.0007785126 -1.640114e-25)
(0.01043294 -0.0006671458 1.053207e-25)
(0.0104099 -0.0006354133 -1.344158e-25)
(0.0102779 -0.0003721583 0)
(0.009953294 -0.0006920037 -6.709705e-25)
(0.01052176 -0.0006436205 0)
(0.009645094 0.0006793501 -1.15209e-25)
(0.008486243 -0.0008220183 1.846184e-24)
(0.009867322 -0.0007040038 1.16937e-24)
(0.009915122 -0.0007200664 0)
(0.009871531 -0.0004250479 -5.381257e-25)
(0.01032355 -0.0007987329 -4.605256e-25)
(0.0106336 -0.0002685183 -1.156231e-24)
(0.01015506 -0.0001799457 6.791842e-26)
(0.01015535 -0.0004224844 0)
(0.008205024 -0.0001222562 3.655781e-24)
(0.01008099 -0.0005937124 -2.562014e-25)
(0.0101422 -0.0006662187 0)
(0.008964843 -0.0007482868 0)
(0.008797651 -0.0006643951 1.481607e-24)
(0.01062417 -0.0007728172 -7.25436e-27)
(0.009837063 -0.001232174 4.967697e-25)
(0.009924887 -0.0002152832 -1.935696e-25)
(0.01042603 -0.0004446178 0)
(0.009645987 -0.0001428891 1.33977e-24)
(0.0103557 -0.001259871 0)
(0.009591487 -0.0003063529 5.366908e-25)
(0.009151709 0.0007343375 0)
(0.008761659 -0.0008899954 5.84806e-24)
(0.009207862 -0.001277095 -2.164919e-25)
(0.009649009 0.0001730423 -1.630434e-25)
(0.009795083 -0.0002888401 4.007948e-26)
(0.01039642 -0.000497504 3.211049e-25)
(0.01018007 -0.0002227871 5.458999e-25)
(0.009755111 -0.000354619 -8.339949e-25)
(0.00949302 0.0004891058 -9.206706e-25)
(0.009863328 -0.0004563419 0)
(0.009800198 -0.0003587488 1.289363e-25)
(0.009973701 -0.0002187223 0)
(0.01086622 -0.0005517866 -1.848007e-25)
(0.01094466 -0.0003657702 2.308313e-24)
(0.009763537 -0.0008279187 0)
(0.00998969 -0.0003009664 2.606375e-25)
(0.009373756 0.0006102037 8.351943e-26)
(0.008875873 -3.484513e-05 -1.666099e-24)
(0.01014883 -0.0005271663 0)
(0.01010849 -0.000884463 -5.447641e-25)
(0.01014356 -0.0002544586 1.328384e-25)
(0.008881874 -0.0005674028 9.826605e-25)
(0.01025767 -0.00112726 -1.988186e-24)
(0.009431846 0.001324164 -2.093269e-24)
(0.009706978 -0.0003715003 0)
(0.009706166 -0.0007198641 0)
(0.01012554 -0.0003656111 0)
(0.00864459 0.0006931989 0)
(0.009819691 -0.0002195098 -2.330704e-25)
(0.007438101 -0.0001906855 -1.145437e-24)
(0.009760978 -0.0003284391 -6.024639e-25)
(0.009523907 0.0007015372 -5.324037e-25)
(0.008504468 -0.000321328 -5.149002e-24)
(0.009677748 -0.0002069174 0)
(0.01032142 -0.001183027 9.466471e-25)
(0.009003881 -0.0001403525 1.312921e-24)
(0.009346953 -0.0004947514 1.114571e-24)
(0.009536353 5.451602e-05 1.946073e-25)
(0.007895163 0.0007058476 -1.005034e-25)
(0.009437474 -1.630272e-05 -3.686267e-25)
(0.009410197 -4.94818e-05 -3.959866e-25)
(0.01098682 -0.0005420603 1.311777e-25)
(0.009654042 0.0004231061 -4.333956e-25)
(0.0100233 -0.0002341833 0)
(0.009921476 -0.00115488 0)
(0.009602454 0.0005751813 -8.565753e-25)
(0.009627898 2.138729e-05 -7.6429e-25)
(0.0105959 -0.0005695085 -1.973652e-25)
(0.00928973 0.0007395605 -1.628316e-25)
(0.00958712 -2.463332e-05 -5.199252e-25)
(0.009770936 -0.0003603787 -4.568968e-25)
(0.009617226 0.0001065133 0)
(0.009471703 -7.189232e-05 -5.680604e-25)
(0.009399689 -9.796115e-05 4.216749e-25)
(0.01074586 -0.0006429517 0)
(0.01070894 -0.0007082448 -3.174752e-26)
(0.01047209 -0.0005007802 -2.07917e-25)
(0.009925873 -0.0008478337 -5.18644e-25)
(0.009883081 -0.0007914179 9.114036e-25)
(0.009606382 0.001280565 -2.855003e-24)
(0.009147195 0.000212198 2.198448e-24)
(0.009642397 0.0007260897 0)
(0.009153792 0.0008022144 -1.902021e-25)
(0.009200116 0.0007408253 -1.591544e-24)
(0.009823861 -0.00035527 -7.254867e-26)
(0.0107725 -0.0006863817 0)
(0.009882288 -0.0003667836 -2.718382e-25)
(0.008764937 0.0008416677 -3.003971e-24)
(0.008571543 -0.0007805025 3.366666e-24)
(0.009800629 -0.0002125809 -3.464228e-25)
(0.009813978 -0.0002609872 -4.874907e-27)
(0.00979806 -0.0003984997 6.116182e-25)
(0.00768725 -0.00059095 0)
(0.009690447 -4.747661e-05 0)
(0.01015884 -0.000375044 0)
(0.01081136 -0.0004582274 -4.942608e-25)
(0.009495638 0.0006498054 5.230153e-25)
(0.009494081 -0.0003736665 8.040554e-25)
(0.009519232 5.532512e-05 -1.840042e-25)
(0.008905226 0.001380884 0)
(0.009240872 0.001384563 1.398883e-25)
(0.009599034 0.0009742469 -2.071132e-25)
(0.009663436 0.001088021 -3.598805e-24)
(0.009744825 -0.0004588374 1.17761e-25)
(0.009594974 0.0005197569 0)
(0.009604698 -0.001261909 2.659132e-24)
(0.009702044 -0.0005407051 5.752757e-25)
(0.009584159 -0.0006098379 1.238009e-24)
(0.009451998 -0.0005629343 5.309695e-26)
(0.009580579 -0.00049287 1.299472e-24)
(0.008534857 9.356135e-05 -2.33564e-24)
(0.009695667 -0.000643532 6.928144e-25)
(0.009434918 -0.0006282546 0)
(0.009938732 -0.0005551371 -1.007085e-24)
(0.009915034 -0.0003150742 0)
(0.009018036 0.0004598943 0)
(0.01100809 -0.0004782831 1.746013e-25)
(0.01049062 -0.0005034032 3.548568e-25)
(0.01085978 -0.0003523101 0)
(0.009627811 -0.0004852303 1.264004e-24)
(0.009600097 -0.0004779448 0)
(0.01076724 -0.0009713796 8.268349e-25)
(0.009636869 -0.0005069008 -1.459465e-24)
(0.01004661 -0.0008869414 0)
(0.00917563 -0.0004933734 1.328543e-24)
(0.009508469 -0.0005899797 1.339239e-24)
(0.009473256 -0.0005309776 -1.420976e-24)
(0.00830213 0.0007375149 1.342951e-24)
(0.01024027 -0.0009442238 0)
(0.00904988 -0.001284621 -2.980692e-24)
(0.01019949 -0.000640518 -6.399668e-26)
(0.008467239 -0.0008672864 -5.020978e-24)
(0.008373293 -0.0006713893 1.382767e-24)
(0.008631224 -0.0009408326 0)
(0.009639722 -0.001379596 -2.165637e-24)
(0.009697595 -0.0006786428 1.097502e-24)
(0.009631469 0.0001115174 0)
(0.009626958 0.0001422975 0)
(0.009627054 -0.0003349866 2.877649e-25)
(0.00752368 1.524131e-05 -2.057281e-24)
(0.009537543 0.0001366301 5.795605e-25)
(0.00946753 -0.0004327737 5.053969e-25)
(0.008464014 0.0006333035 1.763369e-24)
(0.009615385 0.0007088514 0)
(0.009086445 0.001131912 -1.502829e-25)
(0.00912903 -0.0004965443 1.356833e-24)
(0.009644807 -5.986284e-05 0)
(0.007832442 -0.001040541 -1.138549e-24)
(0.008311916 -0.0009920427 -3.955277e-24)
(0.008194453 -0.001077711 0)
(0.009128718 0.000930779 6.282197e-25)
(0.008828448 0.0008438916 1.604507e-24)
(0.01080482 -0.0006775401 3.434846e-25)
(0.00795831 0.0005745696 -2.517549e-24)
(0.01028569 -0.0007601124 0)
(0.008694001 -0.0006865266 -2.048644e-24)
(0.009019973 0.001070748 -2.580155e-24)
(0.009578644 -0.0002236509 6.154022e-25)
(0.008640354 0.0004526481 0)
(0.01025259 -0.001256248 2.243043e-24)
(0.01057326 -0.001059951 -1.020829e-24)
(0.009186432 -0.0009542425 -6.239251e-25)
(0.008170914 -0.0003394134 -2.412556e-24)
(0.01033559 -0.001045601 2.745953e-26)
(0.009419664 -0.0002329659 -6.098726e-26)
(0.009724608 -0.0002177814 5.753608e-25)
(0.01025784 -0.0004092217 -1.0952e-25)
(0.009783619 -0.000244622 -4.890324e-25)
(0.009014115 -0.0004259956 0)
(0.009085901 -0.0005398443 -2.548316e-24)
(0.007641395 -0.0006407573 0)
(0.009003183 -0.000562794 1.746767e-24)