/*--------------------------------*- C++ -*----------------------------------*\
| =========                 |                                                 |
| \\      /  F ield         | OpenFOAM: The Open Source CFD Toolbox           |
|  \\    /   O peration     | Version:  2406                                  |
|   \\  /    A nd           | Website:  www.openfoam.com                      |
|    \\/     M anipulation  |                                                 |
\*---------------------------------------------------------------------------*/
FoamFile
{
    version     2.0;
    format      ascii;
    arch        "LSB;label=32;scalar=64";
    class       volScalarField;
    location    "2.64";
    object      p;
}
// * * * * * * * * * * * * * * * * * * * * * * * * * * * * * * * * * * * * * //

dimensions      [0 2 -2 0 0 0 0];

internalField   nonuniform List<scalar> 
15536
(
-60.38807
-56.07382
-50.53538
-44.38911
-38.45919
-33.30704
-28.94909
-25.29276
-22.43257
-20.29041
-18.71434
-17.93398
-16.69468
-15.40234
-13.6934
-10.99793
-6.824544
-1.394487
2.651323
3.4177
4.463019
6.131017
2.485624
-5.816073
-16.56622
-31.43834
-56.25084
-83.68164
-93.05428
-32.4891
3.163783
-13.34026
-27.72671
-42.11543
-71.84936
-113.908
-118.9514
-82.9527
-71.0962
-77.58171
-82.27651
-88.06063
-92.16889
-94.43988
-95.48847
-95.35909
-94.24327
-92.09132
-89.39145
-86.30066
-82.49574
-78.07821
-73.02289
-67.56969
-61.67158
-55.39997
-49.08315
-42.64762
-35.85902
-28.89545
-22.04074
-15.31255
-8.606863
-1.981098
4.433237
10.72084
16.71929
22.40393
27.67065
32.51867
36.90861
40.84113
44.27988
47.14967
49.4073
51.15374
52.26198
52.77489
52.75625
52.25475
50.96364
49.01778
46.49971
43.39898
39.73911
35.54194
30.87239
25.64318
20.01589
14.03292
7.545728
0.7421507
-6.314372
-13.80692
-21.45642
-29.05607
-36.83048
-44.76407
-52.66347
-60.61849
-68.46604
-76.01482
-83.22118
-90.17637
-97.00865
-103.4009
-109.3308
-114.7532
-119.6858
-124.202
-128.0091
-131.0259
-133.3079
-134.8237
-135.4379
-134.8011
-132.6051
-128.6404
-123.7111
-120.8929
-115.7638
-125.709
-162.6647
-163.2758
-122.0962
-89.42839
-75.90568
-65.14185
-44.1959
-26.31133
-76.46424
-132.939
-132.1383
-111.4362
-85.70184
-65.45162
-50.25317
-38.11474
-27.92413
-23.16466
-23.4408
-25.52344
-29.21225
-34.4186
-37.57922
-37.33182
-36.23438
-39.50157
-45.43988
-49.4244
-51.96943
-55.60187
-58.9614
-61.53948
-63.31223
-63.94552
-63.03641
-60.01594
-55.74737
-50.27862
-44.20573
-38.3363
-33.22485
-28.8888
-25.24082
-22.37477
-20.23138
-18.67679
-17.91653
-16.69121
-15.40335
-13.69129
-11.00059
-6.824534
-1.364844
2.693537
3.47997
4.541811
6.155838
2.43979
-5.834853
-16.55802
-31.37671
-56.11991
-83.70996
-93.53395
-32.57653
3.275236
-13.47273
-27.85731
-42.15702
-71.88414
-113.8934
-118.9031
-82.74599
-71.0349
-77.41815
-81.85831
-87.3241
-91.14674
-93.20951
-94.16312
-93.99506
-92.86282
-90.70618
-88.01066
-84.94333
-81.16837
-76.78942
-71.77582
-66.3709
-60.52951
-54.31714
-48.06042
-41.69008
-34.97231
-28.07597
-21.2892
-14.63004
-7.992453
-1.430371
4.920093
11.14283
17.07825
22.70519
27.91892
32.71692
37.06212
40.95518
44.3593
47.20195
49.43671
51.16649
52.26453
52.77267
52.7529
52.2535
50.97084
49.04289
46.54804
43.47577
39.85005
35.6929
31.06812
25.88928
20.31931
14.39369
7.969289
1.236224
-5.751738
-13.17726
-20.75041
-28.27408
-35.97418
-43.82973
-51.65152
-59.53022
-67.3031
-74.77772
-81.91383
-88.80719
-95.58229
-101.9176
-107.7988
-113.1759
-118.0709
-122.5597
-126.3441
-129.3524
-131.6448
-133.1865
-133.8515
-133.3212
-131.3583
-127.7479
-123.1968
-120.6921
-115.6888
-125.5277
-162.5966
-163.2545
-122.1296
-89.42836
-75.95175
-65.2446
-44.32676
-26.12065
-76.58331
-133.3233
-131.9435
-111.1497
-85.52503
-65.36546
-50.24463
-38.14184
-27.95692
-23.13459
-23.35984
-25.45892
-29.16713
-34.39222
-37.5831
-37.33529
-36.22928
-39.52069
-45.46563
-49.42294
-51.96276
-55.60426
-58.89111
-61.348
-63.03196
-63.59701
-62.65069
-59.83748
-55.56199
-50.10984
-44.06859
-38.22631
-33.12639
-28.79292
-25.1446
-22.29676
-20.19018
-18.64192
-17.91336
-16.69737
-15.41151
-13.70328
-11.01968
-6.849113
-1.361116
2.734341
3.564928
4.546072
6.132927
2.330964
-5.89416
-16.56769
-31.33961
-56.17577
-84.24791
-95.56651
-33.50334
3.549154
-13.46461
-27.90496
-42.22969
-72.08521
-114.5065
-119.2953
-83.11166
-70.98327
-77.06745
-81.36348
-86.53365
-90.21319
-92.2931
-93.32239
-93.17934
-92.08648
-89.94993
-87.26673
-84.2265
-80.46324
-76.10732
-71.11401
-65.74275
-59.93872
-53.74069
-47.51091
-41.18148
-34.48897
-27.62222
-20.86684
-14.24605
-7.645743
-1.112931
5.19782
11.39229
17.29433
22.89043
28.07475
32.8453
37.16294
41.03111
44.4127
47.23865
49.45445
51.17197
52.26189
52.76517
52.74403
52.24639
50.97083
49.05781
46.57958
43.52675
39.92424
35.79239
31.19655
26.04298
20.50555
14.61398
8.218907
1.522697
-5.42667
-12.8196
-20.3549
-27.83437
-35.49976
-43.32141
-51.09827
-58.9529
-66.69047
-74.1349
-81.24249
-88.09275
-94.83795
-101.1365
-106.9934
-112.3449
-117.2156
-121.6887
-125.4479
-128.4284
-130.6888
-132.203
-132.8359
-132.2391
-130.2228
-126.7792
-122.5324
-120.1023
-115.4866
-125.9001
-162.9107
-163.9386
-122.3608
-89.53006
-75.92658
-65.1676
-44.22565
-25.75936
-77.72832
-135.0799
-132.2433
-111.0943
-85.40671
-65.29714
-50.27736
-38.25142
-28.06212
-23.10965
-23.29539
-25.3792
-29.12353
-34.40598
-37.65098
-37.37453
-36.13724
-39.5078
-45.4969
-49.43983
-52.00342
-55.57708
-58.75485
-61.14147
-62.79421
-63.38364
-62.48906
-59.43678
-55.23826
-49.85718
-43.88026
-38.07512
-32.98809
-28.66298
-25.02307
-22.19023
-20.13402
-18.59443
-17.92154
-16.71756
-15.43065
-13.722
-11.05825
-6.88831
-1.388349
2.733377
3.640612
4.574627
6.071512
2.177191
-5.970743
-16.58354
-31.33637
-56.43271
-85.21496
-99.25914
-35.56304
3.903833
-13.10164
-27.7421
-42.29787
-72.21254
-114.2518
-119.1788
-84.4428
-71.53874
-76.70352
-80.65583
-85.41723
-88.83311
-90.6996
-91.57263
-91.37712
-90.29867
-88.1801
-85.52081
-82.52662
-78.82912
-74.5476
-69.62621
-64.32611
-58.60396
-52.4905
-46.33814
-40.0961
-33.50332
-26.71424
-20.03772
-13.50228
-6.986142
-0.5268289
5.702667
11.82757
17.66024
23.1973
28.32265
33.03849
37.30812
41.13549
44.48117
47.282
49.47025
51.17205
52.25217
52.7498
52.72707
52.23028
50.96116
49.0692
46.61454
43.58994
40.02329
35.93377
31.38891
26.28296
20.81055
14.98336
8.651133
2.038516
-4.833233
-12.15757
-19.5948
-26.98186
-34.56514
-42.28872
-49.96855
-57.73129
-65.37412
-72.71477
-79.71987
-86.49158
-93.15711
-99.36255
-105.1434
-110.4122
-115.22
-119.6444
-123.3577
-126.2951
-128.5338
-130.0595
-130.7399
-130.2965
-128.5344
-125.4054
-121.5748
-119.3444
-115.6908
-127.0084
-162.6242
-163.3566
-122.3096
-89.62212
-75.73558
-64.67257
-43.70016
-25.62465
-80.06602
-138.0469
-132.8397
-111.2085
-85.32449
-65.2292
-50.33567
-38.44659
-28.23914
-23.04758
-23.18298
-25.27496
-29.07464
-34.43271
-37.78621
-37.44363
-35.96502
-39.43466
-45.46474
-49.44671
-52.14044
-55.59536
-58.58565
-60.8609
-62.44554
-62.9595
-61.99218
-59.10847
-54.92881
-49.60753
-43.68924
-37.89995
-32.81088
-28.49559
-24.87508
-22.0621
-20.07976
-18.54185
-17.95405
-16.76256
-15.47125
-13.76605
-11.13165
-6.95902
-1.461615
2.693864
3.700858
4.635722
5.985657
1.969426
-6.009385
-16.60696
-31.41564
-56.94203
-86.76394
-104.505
-38.54033
3.79731
-12.45021
-27.38831
-42.27684
-71.48752
-111.1017
-116.0986
-85.19242
-72.7124
-76.40961
-79.88874
-84.30754
-87.55678
-89.34346
-90.32164
-90.13977
-89.08126
-86.97051
-84.25911
-81.31383
-77.60195
-73.34868
-68.4344
-63.17674
-57.51491
-51.42202
-45.31551
-39.15382
-32.62201
-25.87859
-19.26276
-12.80755
-6.362632
0.04434226
6.195052
12.26456
18.03279
23.51103
28.57364
33.23892
37.45985
41.24411
44.54602
47.31898
49.47681
51.1603
52.23025
52.72168
52.69686
52.19783
50.93279
49.07135
46.64825
43.65567
40.12757
36.08036
31.5883
26.52793
21.12709
15.3594
9.074788
2.552154
-4.242256
-11.52793
-18.87959
-26.1759
-33.7006
-41.35681
-48.94417
-56.65761
-64.24058
-71.517
-78.46492
-85.17551
-91.81054
-97.95726
-103.7159
-108.9494
-113.7298
-118.1777
-121.8435
-124.7896
-127.0448
-128.5808
-129.257
-128.7125
-126.9593
-124.0136
-120.5229
-118.6
-116.3397
-127.4106
-158.8485
-159.0342
-120.9392
-89.509
-75.39075
-63.88938
-42.77523
-26.53515
-83.23735
-142.0541
-133.8949
-111.579
-85.30327
-65.13805
-50.36763
-38.6931
-28.45778
-22.86927
-22.96791
-25.14748
-29.02313
-34.51636
-38.01487
-37.55204
-35.75643
-39.28513
-45.31426
-49.46369
-52.39944
-55.67606
-58.42687
-60.58248
-62.1227
-62.65229
-61.70849
-58.74562
-54.61343
-49.37233
-43.50357
-37.70738
-32.60194
-28.29418
-24.70159
-21.91113
-20.02708
-18.48636
-18.01771
-16.84597
-15.55007
-13.85409
-11.25771
-7.079682
-1.594418
2.629631
3.809917
4.854449
5.935768
1.760548
-5.985468
-16.64227
-31.67444
-57.75365
-89.32371
-111.3759
-42.52655
2.334643
-12.16087
-27.23878
-42.25025
-69.60176
-103.8771
-108.4868
-84.03531
-73.61707
-75.88766
-78.83174
-82.77376
-85.74093
-87.23604
-88.07727
-87.75977
-86.78136
-84.71918
-82.05188
-79.24316
-75.61888
-71.48345
-66.65389
-61.4808
-55.92265
-49.90644
-43.90643
-37.87056
-31.4301
-24.76987
-18.26318
-11.91057
-5.565194
0.7665952
6.804238
12.80226
18.47903
23.86696
28.8602
33.47418
37.63369
41.36255
44.60403
47.35202
49.47139
51.12812
52.18932
52.67314
52.64472
52.14151
50.88336
49.05537
46.67514
43.72401
40.24309
36.24815
31.81379
26.8003
21.50362
15.81959
9.573493
3.158904
-3.496631
-10.72478
-17.97576
-25.13253
-32.55112
-40.11664
-47.58001
-55.18667
-62.65984
-69.82188
-76.63931
-83.24253
-89.803
-95.81286
-101.4855
-106.6005
-111.2868
-115.6497
-119.2288
-122.071
-124.1736
-125.7316
-126.4963
-126.1848
-124.6941
-122.0816
-119.0909
-117.5601
-116.5987
-125.9642
-150.643
-150.3532
-118.0867
-89.17077
-75.06673
-63.35749
-42.75512
-29.40264
-87.3176
-147.0336
-135.5973
-112.2152
-85.34953
-64.99121
-50.30809
-38.93682
-28.70089
-22.51644
-22.58204
-24.98916
-28.95406
-34.65449
-38.37532
-37.75494
-35.64816
-39.10862
-45.2063
-49.60604
-52.72323
-55.75026
-58.24567
-60.25528
-61.71914
-62.20634
-61.27847
-58.39574
-54.34569
-49.16836
-43.28577
-37.52301
-32.39844
-28.09301
-24.54412
-21.77458
-19.96248
-18.47063
-18.09863
-16.98577
-15.69695
-14.02081
-11.46588
-7.238481
-1.762434
2.547459
4.062849
5.361909
6.04913
1.669344
-5.761581
-16.52719
-32.16847
-59.02503
-93.64284
-119.5019
-47.98439
-1.120403
-12.86056
-27.59758
-42.3983
-67.26312
-95.68526
-99.71225
-81.73685
-73.89435
-75.20488
-77.7409
-81.22569
-84.03609
-85.30867
-86.24927
-85.94636
-84.93711
-82.81112
-80.03093
-77.31754
-73.66322
-69.62979
-64.81635
-59.65924
-54.22741
-48.32856
-42.39107
-36.41775
-30.1153
-23.58649
-17.16
-10.85509
-4.687305
1.574859
7.475179
13.40348
18.95337
24.25152
29.23483
33.74135
37.80803
41.46093
44.64382
47.41308
49.45016
51.07365
52.1242
52.59509
52.56319
52.07217
50.83125
48.99335
46.64659
43.75151
40.33545
36.43177
32.07515
27.08512
21.89986
16.35367
10.19269
3.820608
-2.72508
-9.783359
-16.94935
-24.0059
-31.29325
-38.67862
-46.09954
-53.62304
-60.91969
-68.01026
-74.67966
-81.18393
-87.7135
-93.58917
-99.23834
-104.2418
-108.9108
-113.3334
-116.8338
-119.7141
-122.0436
-123.6002
-124.3145
-123.9032
-122.5136
-120.1281
-117.5963
-116.3345
-116.1837
-123.4595
-141.6647
-141.0573
-114.8313
-88.85489
-74.85259
-63.32664
-44.25104
-34.69818
-92.82302
-152.4038
-138.4187
-113.053
-85.44717
-64.83681
-50.11794
-39.07836
-28.89045
-21.99552
-21.99993
-24.77615
-28.92674
-34.8929
-38.92871
-38.15843
-35.81832
-39.17112
-45.39274
-49.93808
-53.07944
-55.83676
-58.11642
-59.9882
-61.384
-61.84097
-60.88032
-58.18806
-54.2601
-48.98965
-43.08542
-37.43983
-32.25802
-27.92009
-24.43144
-21.66734
-19.89992
-18.56446
-18.24797
-17.23736
-15.9883
-14.32793
-11.78661
-7.641994
-2.074293
2.387663
4.529825
6.196023
6.588193
2.051883
-5.125386
-16.37044
-32.00976
-61.08915
-98.078
-127.4795
-55.27233
-6.659949
-15.07943
-28.52303
-42.57963
-64.45649
-87.83668
-91.95805
-79.38124
-73.46064
-74.11697
-76.20917
-79.08437
-81.77529
-82.46312
-83.31065
-82.91738
-82.05511
-80.17698
-77.20091
-74.68197
-71.16026
-67.30422
-62.46005
-57.38022
-52.30642
-46.57005
-40.39183
-34.60091
-28.6937
-22.32818
-15.72791
-9.552941
-3.789442
2.501947
8.183958
14.08572
19.39492
24.77943
29.75711
34.00362
37.94988
41.50048
44.6669
47.4739
49.36701
51.00621
52.02732
52.48059
52.45839
51.99813
50.73637
48.88768
46.53344
43.70803
40.36798
36.57617
32.41121
27.40586
22.29928
16.92135
11.0865
4.764683
-2.037945
-8.779351
-15.58025
-22.78095
-29.99031
-36.90175
-44.16485
-51.99493
-58.80471
-65.90216
-72.38441
-78.69301
-85.21933
-90.81626
-96.50768
-101.2322
-105.745
-110.217
-113.5371
-116.2974
-118.2595
-119.8656
-120.8073
-120.5614
-119.4356
-117.3676
-115.5037
-114.6134
-115.0178
-120.7622
-133.7199
-131.9897
-110.7811
-88.69583
-75.00508
-63.54777
-47.32116
-42.09582
-99.80027
-156.4081
-142.1646
-114.2252
-85.30464
-64.76049
-49.69942
-38.84576
-28.68187
-21.06933
-21.1635
-24.50424
-29.0321
-35.09226
-39.66602
-38.88078
-36.49221
-39.84155
-46.08749
-50.50739
-53.47444
-55.95352
-58.03082
-59.72593
-61.02993
-61.50097
-60.5651
1.911683
1.255295
-29.62045
-17.99277
12.88772
-14.82024
-2.629456
1.424271
12.37991
-1.691098
-1.478908
2.353755
-0.6023661
-0.08518047
0.1031817
3.961662
-2.579193
-3.315358
1.487149
1.240198
-55.94198
1.393491
3.204866
-1.891229
-0.5771945
2.000375
2.750148
-1.408339
-7.185165
0.2446215
1.748025
-13.15414
0.1721628
0.8672075
0.07485861
-5.128809
1.57746
0.02108696
-0.2683341
-6.358362
-23.56841
2.606692
1.066862
3.545184
34.17816
-0.4031592
3.448795
-1.414143
-2.516419
-1.38886
-26.86958
3.562386
-9.451252
1.508818
1.514087
23.74682
-5.072845
1.935571
-13.95849
-22.28643
-1.323599
0.1978716
-7.300926
1.997044
2.602654
2.193534
-24.81917
0.2281631
0.2662072
0.925649
-0.5578518
4.198126
-7.522363
-61.71004
22.87916
0.2201619
4.752829
-2.823278
2.751085
1.597659
-22.7556
1.65898
4.122632
-3.219549
-11.76665
1.238232
0.6950175
1.461592
-26.54379
-0.4500194
-17.8453
22.93761
-9.633726
-2.788308
-0.1273209
2.69424
-6.36285
6.291551
-34.31887
0.01435917
1.292145
1.384563
-0.8977371
-94.38205
0.07279347
-12.35733
1.903151
-0.1071104
-1.49641
-4.677102
1.95258
0.8597584
1.158267
8.02138
-16.83644
0.1443112
-1.208159
0.5218736
21.10853
-0.1147468
2.093273
1.350833
-0.5014423
1.116144
0.9519543
4.877238
-0.005099488
-21.2953
-0.3483834
1.932549
0.9813577
-14.73618
1.271391
0.4252034
-1.689363
-35.19968
0.5856701
8.548545
1.485438
2.138176
-24.93514
0.6702516
-70.65924
1.405833
0.5173986
0.03162684
0.7270178
-45.19144
0.2691475
-0.4664367
0.04800346
-13.8716
-61.73066
1.576431
-17.05371
-43.49855
0.2811652
0.1686464
1.466537
-37.42587
2.62171
-35.52966
-2.144172
1.009935
2.741306
-16.41981
-24.31151
2.402511
-25.76802
0.5316411
-1.59398
12.05775
1.161635
-27.8549
-6.713189
-9.501544
3.417674
-0.4637759
-24.94542
2.190399
16.95797
2.400727
0.6022104
-0.09096164
3.751569
-50.42405
-1.294648
0.1566832
-15.61928
1.872458
-0.1675536
1.56432
-9.766252
-2.015023
0.7221745
0.3377221
1.25383
0.5286578
-5.442338
-37.0233
1.197359
-5.165694
1.660904
-27.98593
-10.57853
-1.386545
-8.158479
0.8575754
-9.960174
0.9534418
2.046537
-18.03002
-15.15926
3.157397
-1.215036
-3.377629
-12.42534
1.414239
5.076834
1.541933
2.297657
-13.69039
3.839978
-7.17522
-3.09921
-1.171985
-0.4135842
8.609116
-4.612404
20.25582
-3.407519
11.60584
5.011809
0.2699955
-83.61747
0.002778996
27.63803
-3.510437
2.94634
0.3335496
0.2882553
1.819067
0.3493819
-6.884824
1.773746
-18.67082
-0.04669155
-35.91107
1.833231
0.7001722
-37.05844
1.323428
1.688559
1.355963
3.793087
-30.46598
1.487164
1.475465
-47.4245
-3.958766
-1.159703
1.574047
-2.439378
-1.526391
-0.3449164
3.292694
0.5921972
0.2642259
-4.241739
-28.8858
2.181347
1.434979
13.56243
-0.8141304
-20.55814
4.245825
2.584849
-18.57919
-38.36574
-0.09576694
-0.3892333
1.238464
0.6416228
1.941633
2.348446
2.17312
36.75387
-0.1887021
2.891265
1.021247
2.908066
0.2668666
-0.248722
-0.3850561
-32.40311
-16.61092
-11.81863
0.2429601
2.287763
0.1881355
-47.13759
1.186816
0.8130795
-57.97502
-0.1248206
0.162526
0.9721897
-0.02520682
-0.3173043
-3.751902
-6.425938
2.031311
0.7017154
-2.368288
-0.1759017
-13.91451
35.51859
-67.27166
-25.1918
-59.50266
-0.5180319
1.553096
1.740395
1.43299
-1.947837
2.668512
0.3466646
0.9061686
-0.141083
0.2015019
18.87282
2.45469
-8.544014
-64.54113
0.1437707
2.912758
0.837306
0.9257909
-4.658596
-18.61646
-39.10468
-0.4364217
1.079932
0.5055047
-14.7327
4.775117
-8.115461
-0.2584702
-12.24289
-10.99505
-3.456599
1.940686
14.58071
1.409398
-0.5327834
-35.83609
-56.77854
0.9982073
1.905895
2.390745
-1.063507
-2.010806
2.326352
3.019394
1.359105
3.002795
2.746527
1.998434
1.706707
2.341977
-3.41598
13.90388
-42.02426
0.02963592
2.946125
1.513967
2.956488
2.133596
1.198911
2.173735
2.273451
2.561745
0.1319403
-8.742652
0.08546446
-0.8443656
-1.399483
38.73219
2.852599
1.221286
-14.60195
0.0746333
2.72897
-50.87817
0.1460878
-1.001586
1.25035
-0.4419678
2.183176
-0.07852239
2.879653
1.151306
-32.40179
2.81466
1.255416
-2.615962
-30.5093
-53.84418
3.084972
2.613743
1.792019
1.256275
0.8136845
1.699659
2.831591
-0.7749945
2.326929
-13.40675
1.500199
-16.01242
0.4073741
0.2500029
5.280908
0.630222
-0.2817009
-29.47171
1.055473
2.272903
-50.23329
-3.564251
-22.02206
-6.705642
-13.08447
2.086787
2.130053
2.921974
0.5085886
-6.331273
0.1985353
1.341734
1.579657
0.6628606
2.136234
0.0227888
-5.06111
2.064412
1.38194
2.31937
-9.899759
-0.2446505
1.222058
-26.0269
1.551753
-5.284667
0.354146
1.150466
2.158392
5.689885
2.060531
-21.6422
0.8423565
-32.12083
1.314043
0.4549549
3.29554
0.7376114
26.99522
0.002797782
4.876231
-1.753501
-11.58828
-0.8926192
1.927893
8.742079
2.612879
-5.051491
-2.564573
-27.87277
0.7877093
-0.004424892
-4.780516
-5.179855
2.171628
-0.1389302
-2.645471
0.2593466
2.500271
17.56714
-12.79683
2.762775
1.392751
-26.78581
-0.01937955
1.206982
-21.43842
1.722629
2.318294
4.592094
0.08898566
4.516787
1.508047
-0.1829763
-10.89593
-5.398799
2.791035
2.03874
1.456455
-20.83279
-2.147657
-3.841433
-27.73923
5.62528
16.69398
-2.138057
2.625367
2.101701
3.349263
0.8696933
0.5657781
1.709493
1.767654
0.1254682
-4.77452
1.456452
-0.8886987
-0.1611028
0.08948872
4.757229
2.181425
-2.980729
-29.00331
1.041121
-29.39078
2.06284
4.94668
5.104755
4.063779
2.129252
2.157321
1.315757
5.085492
2.099967
0.6462413
1.251825
-36.46115
3.509674
4.398887
1.339004
1.504979
8.431024
2.121157
6.222984
-12.86303
-3.702328
-4.381791
0.743718
1.988587
-30.92691
16.95997
-2.081365
-6.102865
-0.06927725
2.110857
1.482231
2.633442
2.216022
2.021011
9.853704
32.51299
3.974022
1.99891
6.929872
1.297377
-65.71155
0.5134473
3.690063
-1.053537
3.864872
0.3533169
1.877021
1.793148
1.488051
6.811907
0.09612173
-3.962503
-24.7613
2.372883
-1.591719
-86.76267
-4.414465
-0.7814109
-11.24026
2.151923
-0.6732812
2.085029
3.493623
1.72586
-43.70065
2.098793
2.081548
2.031917
0.6905034
1.097648
0.2744219
0.8494501
-10.82089
-5.153106
-0.1770961
-15.17221
-2.240456
5.288434
0.6970646
-59.05083
2.41168
9.810471
-9.392359
-0.4725356
2.212982
1.163018
5.124587
1.921059
2.173442
1.699752
-2.005124
-1.097439
18.95391
3.23295
-0.09983911
0.6936751
-2.603707
-2.344131
-4.264014
-16.17639
-39.5905
-49.49221
-9.474088
-10.93886
1.389355
-0.5214996
2.050938
2.010326
2.03849
2.069264
-18.92289
1.229484
1.080198
-0.484833
-43.1341
-1.116362
26.65067
5.226443
-26.33084
0.673291
-14.19711
7.818938
-3.127838
-12.91168
0.6150215
2.450239
-2.744164
1.326633
2.117736
0.668325
1.577017
2.239021
0.6119031
-30.02891
3.612533
1.361259
-1.122527
2.19141
1.653533
-94.80828
-2.631388
1.857906
6.626187
-26.27736
2.761918
0.2350346
6.164722
14.73822
10.16351
2.782679
-4.685482
2.09505
2.127023
0.3584643
-3.012788
3.573908
2.195142
-16.50721
4.409475
-60.41902
2.189779
0.5422535
-1.098079
-45.34073
2.325569
1.650076
1.411281
-1.990708
-11.41356
2.662385
-1.881434
4.647461
-4.272778
2.952275
1.938374
-15.17834
-18.15931
1.310293
0.7787883
2.290092
1.414795
-0.1797356
-0.1989285
2.392249
-55.84439
0.6698832
-5.430098
-2.874884
2.819996
-0.2138058
1.969339
1.045321
1.003366
-0.1783366
-28.60838
2.109798
2.015193
1.971795
1.755374
1.913486
-0.1616601
0.729185
1.593032
-1.375445
5.187055
-32.83985
1.941725
0.1594144
-11.78238
3.007591
-0.07938913
2.825965
0.7814476
-55.41904
3.576851
8.345238
10.49027
2.672401
-4.538425
-7.512915
-6.153112
-13.05758
5.854382
0.3112786
-5.832475
-11.42419
-6.404098
-4.815177
0.3468484
3.037039
13.45527
1.81485
2.140806
-37.10716
-3.093542
1.657211
1.900085
-11.01887
24.20302
-0.867258
1.48522
3.317606
2.032067
0.37241
-4.124052
-3.419141
2.07654
3.435076
-1.340656
2.381415
2.34058
4.722108
2.080886
2.293507
1.836002
2.484733
-0.1836484
-0.883764
-19.53659
31.98519
1.798097
1.810676
0.3112907
-0.1607715
-11.96966
0.3325582
-66.27101
-0.04202297
-62.42963
-4.52914
-0.5300391
2.236974
1.040865
-1.352319
0.8744777
2.042996
2.326426
2.257218
-2.885739
-43.38877
1.876662
-1.159799
1.534293
0.3200323
-1.050919
3.358589
-12.54565
-3.702173
17.15522
1.299509
-0.1583353
-0.3395433
-0.3621868
2.455274
1.043143
0.5056874
1.231234
-21.5134
-0.3234159
9.176809
-37.39835
-0.04651764
2.30919
-3.533485
0.737502
-0.08826074
2.158167
-0.6366435
1.314178
-0.3829006
4.311808
2.901295
3.757155
4.560179
-0.5807152
3.177003
31.09189
-0.02198933
-2.45558
1.91811
-51.49794
2.820788
2.064872
1.295822
1.423872
33.40246
-0.4432732
-0.03955528
-5.055977
0.0799542
1.756441
1.544949
1.885553
2.001115
-12.90204
-17.37928
1.880598
0.007925109
-6.406483
-9.979994
2.42817
2.863614
-13.56892
6.140006
30.16562
2.304235
1.63572
-0.5595675
1.405009
1.603566
12.64401
-1.715243
1.919521
-5.351973
-0.6141254
1.724448
-0.519601
2.635813
-3.301101
-18.54834
-19.12466
4.084122
-13.15958
-4.386044
2.815953
1.457732
7.371822
-4.564359
0.8865739
-1.353211
9.246753
-25.1391
7.348729
0.07718646
0.08090286
-6.369308
29.64356
-32.63889
0.2609134
-2.170871
-40.32101
0.3329767
3.392491
5.152605
1.012156
0.2608178
-14.81395
-0.6940177
2.51827
-2.218422
-2.538276
1.717437
-51.42754
-12.37669
-40.2082
3.962047
-48.19439
0.7577756
-0.4999182
-11.32474
-0.1354806
-1.495063
-37.01517
0.01367504
1.215029
-0.9811745
2.289709
-12.30685
-46.44755
-58.60084
2.167162
18.75361
0.8360424
1.695695
-9.135162
17.08577
-23.41156
1.11307
0.1643148
1.690272
1.653445
-1.438161
-17.39452
-3.691208
-0.3089214
1.201778
-69.47072
-81.54979
-1.413813
1.470654
3.60876
-2.751536
1.602158
3.674454
1.960462
1.69332
1.633661
1.709319
2.068371
6.494091
2.025178
-17.56961
1.016186
0.6895586
-58.31463
1.838876
-0.07440513
0.303921
-33.78908
-7.949579
-3.043921
1.857524
-6.927709
-25.57672
36.30647
49.04644
1.992424
-0.01007573
3.606125
7.431435
1.832772
-14.76773
11.27792
-38.4042
1.965212
-0.006741975
-0.8659756
3.038559
-0.2506296
-0.1042949
-2.063441
-15.77103
-61.85945
1.812051
2.776933
-0.8236261
2.508826
3.020329
-29.53286
2.174648
2.001651
0.6325701
1.785276
-1.877742
-0.7426784
-22.89512
-12.66801
1.882365
2.421645
1.615444
2.022643
2.452879
2.04598
3.06998
-41.53706
0.7033308
-19.95373
-60.66954
-0.05071695
-0.6302246
-63.01747
-69.89044
2.257782
3.15696
2.405789
1.693945
1.9833
-4.088047
-2.126939
-0.1841328
0.2219929
-0.4077242
2.546337
-1.868089
0.3065941
1.150796
1.636636
1.725744
2.152495
1.80365
1.047239
1.526904
1.598095
-1.493492
1.068205
-2.719765
4.836055
0.4996057
2.829499
-3.313076
0.6408103
1.757712
-13.10163
-13.62522
0.6496661
-0.09423699
-9.893553
0.5717851
-33.56519
-13.64767
16.63026
-36.00812
24.25006
1.004674
3.406961
-0.7753709
-24.90401
1.472538
4.245659
-65.3027
-17.10873
0.7698255
-38.19206
0.744387
7.889603
1.677229
-0.8535342
21.77223
2.383614
-24.9108
2.599354
6.046546
35.76837
-14.087
-8.270618
1.997239
3.225673
2.189967
8.981842
2.507408
8.08807
0.9492286
-3.522012
-3.105389
-2.829916
-3.00077
1.8977
-12.93658
1.606916
-67.83962
9.343504
1.833898
18.93148
0.1454655
30.04587
3.691535
2.665808
0.7522159
-0.1409484
14.84337
-8.166604
12.88482
0.5618678
0.9300576
-0.1024232
-0.0916327
4.384635
-5.008016
-1.073094
2.435003
-21.0219
0.1869854
17.15311
-31.06648
2.346657
-33.70984
-9.466932
-0.1233945
-32.3744
38.79479
-0.326275
0.009252962
-43.6118
-1.347817
-5.875833
0.3076418
-0.6085795
-12.56794
-90.99835
-15.65065
0.9205223
2.399229
1.713135
1.850393
1.295127
3.012257
10.3225
4.721995
0.3003191
0.7566617
2.223155
-4.468554
-16.13434
2.160296
1.155875
1.545248
-35.75428
-5.470289
1.937996
1.41388
-1.462561
-16.06538
2.267106
-8.309384
2.747887
-1.696988
0.9473512
-1.697242
1.752106
2.245433
-70.77121
24.75109
-2.720537
3.232568
4.590551
-1.774719
0.6534441
0.05666752
-7.346467
-0.1149997
1.233076
-0.8426065
1.702754
-18.22807
0.5724662
-6.202347
0.5617017
1.390171
-1.049792
0.04762655
-29.56112
-8.118696
-6.703686
-8.810312
-0.0912587
1.938391
-0.8270033
2.321766
0.1933895
-30.17317
2.704031
-0.08615259
0.3078775
-3.176793
1.403394
4.12821
3.10535
-41.34516
0.4152947
-0.8901168
0.5699309
-53.3995
0.5737855
-38.78815
0.31833
0.6292958
-0.2399055
-0.3054533
3.91694
-35.45092
-66.96603
1.719197
1.552846
1.893911
1.810587
4.084331
3.386153
2.108422
1.852489
0.475169
1.838364
-38.13662
-4.705928
-12.12241
0.1585908
1.107194
-1.223479
0.5689175
0.2737287
0.4596506
-5.60163
-0.1887487
-5.730412
8.405515
1.632194
-15.14321
-0.1070619
1.699726
-1.748168
-16.6461
1.286393
1.095476
0.7286098
-21.25621
-40.33173
-41.60789
0.5300606
-56.03883
2.488583
-7.665812
-3.588092
1.777159
17.37607
-8.696767
-53.83001
-79.34062
-15.56235
-9.61769
-2.225932
-4.244328
-14.13286
-17.37313
-2.842517
2.030511
-4.447776
-18.18924
-0.4417242
0.1512626
-12.21236
2.314563
-1.277301
0.4559674
3.834857e-05
-0.03023588
0.6050161
-22.84168
1.418333
3.732312
2.187434
0.7629409
-39.18662
3.253637
-1.694621
1.168679
0.8960412
2.156951
-29.61981
-0.04171068
-1.017965
-7.185014
0.2618605
13.63883
-62.61926
-10.51499
-0.4699828
-0.3296433
21.62443
-3.168075
2.039982
1.940245
0.5584327
1.090784
-32.18853
-35.06526
-22.34004
10.60044
7.901891
0.6926273
-62.39787
-51.87454
-78.47897
3.110473
-2.332871
0.6889104
-1.358935
2.241514
0.3770622
1.537533
0.8709266
2.028493
2.342204
2.069872
1.591222
-30.47813
2.238235
2.445705
-0.4090347
-14.64464
20.79051
1.267977
-17.34987
-39.62796
-5.722453
5.980196
-5.206935
-2.946645
-15.23605
-72.76
0.08885545
-24.07026
1.372944
-41.67096
-14.34114
-1.65482
-1.722115
-14.37044
2.140724
15.29201
1.473378
-6.5992
3.507114
0.3223962
1.577883
-2.630007
-0.135044
1.626225
0.9696383
-48.62352
-13.94696
0.338954
-2.090954
2.078398
2.085401
-23.09942
-3.837256
-32.90618
1.514311
2.947118
22.05546
0.4826332
1.212506
-0.1603743
0.8887869
-52.623
-2.486951
-9.339546
0.02232102
-0.1309869
-0.7120392
1.748933
2.26389
-1.761489
2.116733
0.3689348
0.6855399
24.6811
2.321633
-10.28143
2.975551
-10.50025
0.339897
-85.11777
0.3066642
2.007996
4.374201
2.949661
-13.13712
-60.83952
-72.96965
-63.7131
0.07505008
-7.302025
-80.38182
2.659216
6.524636
0.2937985
1.162049
-26.81914
-40.57727
0.921798
-47.81747
0.3259612
2.377371
1.565375
-3.343926
10.15524
-0.1147091
1.539649
-0.4762725
1.320524
-1.06575
15.37456
1.108903
-5.813001
0.008974675
-1.472109
4.242419
2.051841
-11.70616
-0.8655831
1.703695
-10.08604
2.720729
0.2356869
-13.82778
-0.7653502
3.105079
-6.757171
-5.089829
1.924221
1.883243
3.152097
-2.913599
-4.562425
-77.12634
27.46254
-2.150195
-6.018152
-4.410311
-35.91369
0.3779109
2.830375
-2.251808
2.925746
-0.6025666
0.7063967
0.9417542
-19.87577
-0.8999092
22.20415
37.23476
1.693617
1.960697
2.45326
2.349947
1.149337
0.8947674
34.85425
-66.64042
0.9657746
6.235742
2.094023
-26.01347
0.1530365
2.350914
0.8950927
0.4666799
2.526687
-7.30923
-0.006312068
2.75111
-4.00188
-5.199727
-15.28492
-3.284937
1.671946
-84.03561
27.68305
-40.07843
-0.05161886
-4.038173
-0.3646505
1.438059
3.533985
33.23835
1.029104
2.071744
-17.43367
1.522127
-10.26346
-21.33217
-0.215123
0.6771125
2.25167
1.992177
20.44468
-30.19918
1.742284
-2.048379
2.677167
-1.58125
20.00598
3.606089
5.925331
-43.77636
-5.804754
1.587939
2.580309
-57.39205
-1.018196
-46.13129
4.040113
-15.59171
0.0907489
1.869813
-23.70412
-16.95625
0.2181238
-2.109698
-0.451567
-11.64127
1.930899
0.4255086
-66.17656
-20.78168
-0.8150329
4.443878
0.9187747
0.5118559
2.548333
1.770953
0.5525845
-0.5413166
-55.84161
-23.22663
-2.778361
-2.188199
-44.23688
3.039458
3.061994
-12.34791
4.095059
5.859384
1.555854
36.61453
0.9080494
-0.01726717
1.536025
1.725324
-4.723159
-16.63138
-27.95804
15.90405
1.296144
2.050784
0.2350337
-0.002619202
2.910451
0.7226468
-0.1896137
1.222572
0.2056769
0.241117
-6.517059
2.407529
13.01536
8.503335
-14.33477
1.23988
-2.076603
-1.639554
1.033699
-14.03745
12.81525
-50.51296
-14.37338
1.952868
-1.385472
-82.39894
44.12587
-96.72342
3.015913
1.456888
5.466541
-0.9581523
10.7466
-26.75507
-12.40361
4.941703
-0.2898921
2.933772
-0.1516048
-3.793605
-0.6168946
-51.05165
4.111032
1.19228
-1.365189
-0.2562086
-35.83729
-5.376342
18.78882
1.772423
16.78296
-1.595783
2.176386
2.125784
0.2550049
-58.06076
1.832355
4.012004
33.82687
-1.252069
-0.4124832
-0.2051495
28.95865
8.406049
2.386311
3.575783
-1.166794
1.934698
0.2700712
-60.33352
0.9676024
-70.36759
0.7495992
-1.241013
46.35314
2.625632
0.3044616
-0.1884293
3.293552
1.126412
2.454577
-21.76272
42.87322
2.476704
-2.311346
46.98812
1.139364
0.7517129
0.4287836
-25.34699
1.332199
3.400177
-5.123445
0.335097
-6.42416
-60.40992
0.09172267
0.04364081
-2.86856
-0.01560993
20.3679
2.603639
-0.03690336
-0.4622319
-0.09168956
-0.3848377
-0.2752536
-0.329187
2.041163
1.133914
3.174973
-13.44107
-67.30819
-5.447035
-16.97862
15.51393
-1.304164
5.077218
0.3437144
1.851987
4.619507
-49.71183
-4.026618
28.29353
-22.1872
1.231025
-18.09695
2.939747
-0.2873198
-25.77977
-1.312525
2.483687
-60.90471
2.365281
-0.8108541
1.30524
1.195214
2.057906
-3.593514
1.694217
1.404614
0.155234
-0.3707453
3.473711
-6.30242
0.03045349
0.9263694
1.712895
-36.42803
-14.082
1.814562
-6.963964
0.8956069
-9.662201
-5.072401
0.8483111
1.811914
0.4142852
1.527124
9.881322
18.14681
0.8210661
0.3344833
0.7195209
-11.8939
-74.76467
-68.77813
0.3473487
-5.302775
1.179566
-0.6364014
13.76952
1.963035
-2.186901
1.88812
2.562379