/*--------------------------------*- C++ -*----------------------------------*\
| =========                 |                                                 |
| \\      /  F ield         | OpenFOAM: The Open Source CFD Toolbox           |
|  \\    /   O peration     | Version:  2406                                  |
|   \\  /    A nd           | Website:  www.openfoam.com                      |
|    \\/     M anipulation  |                                                 |
\*---------------------------------------------------------------------------*/
FoamFile
{
    version     2.0;
    format      ascii;
    arch        "LSB;label=32;scalar=64";
    class       surfaceScalarField;
    location    "0.3";
    object      phi;
}
// * * * * * * * * * * * * * * * * * * * * * * * * * * * * * * * * * * * * * //

dimensions      [0 3 -1 0 0 0 0];

oriented        oriented;

internalField   nonuniform List<scalar> 
7340
(
2.649764e-14
-4.307146e-14
1.657382e-14
1.877162e-14
7.72602e-15
1.755461e-14
1.217006e-15
1.592602e-14
1.628593e-15
1.585161e-14
7.440464e-17
1.478389e-14
1.067722e-15
1.473484e-14
4.905424e-17
1.425266e-14
4.821814e-16
1.355319e-14
6.994651e-16
1.358918e-14
-3.599018e-17
1.326393e-14
3.252521e-16
1.285451e-14
4.094146e-16
1.239758e-14
4.569327e-16
1.307996e-14
-6.823775e-16
1.315305e-14
-7.309055e-17
1.302157e-14
1.314829e-16
1.289666e-14
1.249119e-16
1.315136e-14
-2.547051e-16
1.371935e-14
-5.679919e-16
1.36968e-14
2.255045e-17
1.423882e-14
-5.420199e-16
1.518569e-14
-9.468732e-16
1.492175e-14
2.639497e-16
1.625193e-14
-1.330188e-15
2.781593e-14
-1.1564e-14
2.386695e-15
2.542924e-14
1.012234e-15
1.374461e-15
1.962593e-15
-9.503585e-16
1.204253e-15
7.583406e-16
1.01952e-15
1.847327e-16
7.72023e-16
2.474968e-16
5.086748e-16
2.633483e-16
3.407554e-16
1.679194e-16
3.870132e-16
-4.62578e-17
2.667455e-16
1.202678e-16
1.912308e-16
7.551468e-17
1.611025e-16
3.012837e-17
1.316047e-16
2.949778e-17
7.571912e-17
5.588563e-17
5.884009e-17
1.687906e-17
5.009836e-17
8.741759e-18
3.717515e-17
1.292323e-17
2.657699e-17
1.059818e-17
3.519809e-18
2.30572e-17
-1.15689e-17
1.508873e-17
-1.142139e-17
-1.474978e-19
-2.673159e-17
1.531022e-17
-2.388093e-17
-2.850644e-18
-1.761776e-17
-6.263147e-18
-9.716333e-18
-7.901408e-18
-1.677099e-18
-8.039214e-18
3.957399e-18
-5.634477e-18
5.873111e-18
-1.915693e-18
7.247327e-18
-1.374194e-18
2.505796e-18
4.741548e-18
6.220249e-18
-3.714433e-18
-2.138479e-17
2.760506e-17
-3.890806e-17
1.752328e-17
-5.194458e-17
1.303655e-17
-9.837927e-17
4.64347e-17
-9.393638e-17
-4.442871e-18
-9.069965e-17
-3.236707e-18
-1.067354e-16
1.603575e-17
-1.764011e-16
6.96657e-17
-2.471108e-16
7.070977e-17
-3.484796e-16
1.013688e-16
-4.568519e-16
1.083723e-16
-7.374571e-16
2.806053e-16
-9.094033e-16
1.719462e-16
-1.228524e-15
3.191207e-16
-1.719538e-15
4.910137e-16
-1.391594e-15
-3.279438e-16
-1.800769e-15
4.091755e-16
-2.784617e-14
2.60454e-14
-1.669288e-14
-1.115329e-14
-1.516527e-14
-1.527608e-15
-1.508389e-14
-8.138079e-17
-1.428746e-14
-7.964319e-16
-1.34773e-14
-8.101608e-16
-1.336938e-14
-1.079209e-16
-1.314801e-14
-2.213665e-16
-1.313131e-14
-1.670773e-17
-1.26574e-14
-4.739023e-16
-1.277556e-14
1.181609e-16
-1.293156e-14
1.559996e-16
-1.26771e-14
-2.544631e-16
-1.319095e-14
5.13852e-16
-1.328765e-14
9.669709e-17
-1.358546e-14
2.978071e-16
-1.375769e-14
1.722305e-16
-1.443907e-14
6.813771e-16
-1.490309e-14
4.640269e-16
-1.536099e-14
4.57898e-16
-1.522446e-14
-1.365265e-16
-1.578952e-14
5.650564e-16
-1.790373e-14
2.114213e-15
-1.964314e-14
1.739412e-15
-2.592737e-14
6.284221e-15
-4.259879e-14
1.667142e-14
-2.675275e-14
-1.584603e-14
-1.851684e-14
-8.235916e-15
-1.773223e-14
-7.846111e-16
-1.569136e-14
-2.040864e-15
-1.472322e-14
-9.681422e-16
-1.43893e-14
-3.33919e-16
-1.415908e-14
-2.302273e-16
-1.330194e-14
-8.571337e-16
-1.305401e-14
-2.479335e-16
-1.306589e-14
1.18825e-17
-1.232856e-14
-7.373325e-16
-1.173364e-14
-5.949161e-16
-1.153134e-14
-2.023006e-16
-1.187077e-14
3.39426e-16
-1.144682e-14
-4.239513e-16
-1.091278e-14
-5.340391e-16
-1.085752e-14
-5.526055e-17
-1.066883e-14
-1.886866e-16
-1.053513e-14
-1.337013e-16
-1.073134e-14
1.962067e-16
-1.074778e-14
1.644408e-17
-1.071985e-14
-2.793534e-17
-1.097139e-14
2.515434e-16
-1.069535e-14
-2.760398e-16
-1.062355e-14
-7.179998e-17
-1.053411e-14
-8.943462e-17
-1.050754e-14
-2.657906e-17
-1.073475e-14
2.272176e-16
-1.096307e-14
2.283162e-16
-1.099622e-14
3.315273e-17
-1.116831e-14
1.720881e-16
-1.124447e-14
7.616211e-17
-1.180878e-14
5.643093e-16
-1.295526e-14
1.146477e-15
-1.294791e-16
-1.282578e-14
1.287286e-14
-1.300234e-14
1.17289e-14
1.143969e-15
1.116647e-14
5.624306e-16
1.110149e-14
6.497918e-17
1.093079e-14
1.706951e-16
1.09023e-14
2.849406e-17
1.06984e-14
2.038943e-16
1.047994e-14
2.184667e-16
1.051836e-14
-3.842282e-17
1.062449e-14
-1.061354e-16
1.07181e-14
-9.360943e-17
1.10142e-14
-2.960941e-16
1.077576e-14
2.384349e-16
1.083428e-14
-5.851556e-17
1.084519e-14
-1.091336e-17
1.066434e-14
1.808484e-16
1.082751e-14
-1.631671e-16
1.097924e-14
-1.517277e-16
1.099738e-14
-1.814586e-17
1.150078e-14
-5.03395e-16
1.190519e-14
-4.044122e-16
1.156118e-14
3.44007e-16
1.176871e-14
-2.075213e-16
1.236768e-14
-5.98979e-16
1.309962e-14
-7.319346e-16
1.307576e-14
2.385818e-17
1.330433e-14
-2.285663e-16
1.410797e-14
-8.036425e-16
1.426273e-14
-1.547574e-16
1.455676e-14
-2.940326e-16
1.539316e-14
-8.364021e-16
1.776523e-14
-2.372067e-15
1.909612e-14
-1.330894e-15
2.594097e-14
-6.844844e-15
-1.713049e-14
4.488329e-14
4.347855e-16
-5.832042e-14
4.509632e-14
9.30932e-16
4.294324e-14
2.715511e-15
4.261816e-14
3.900636e-16
4.208557e-14
7.032822e-16
4.190774e-14
2.06323e-16
4.125556e-14
8.560761e-16
4.037274e-14
1.101288e-15
4.046696e-14
-1.326439e-16
4.086037e-14
-4.995448e-16
4.125256e-14
-4.858027e-16
4.228378e-14
-1.327306e-15
4.156543e-14
9.567836e-16
4.160868e-14
-1.017657e-16
4.181521e-14
-2.174484e-16
4.101558e-14
9.804814e-16
4.1633e-14
-7.805858e-16
4.228028e-14
-7.990066e-16
4.237712e-14
-1.149845e-16
4.418142e-14
-2.307703e-15
4.563828e-14
-1.861265e-15
4.46284e-14
1.353881e-15
4.539965e-14
-9.78773e-16
4.762233e-14
-2.82165e-15
5.02083e-14
-3.317909e-15
5.045527e-14
-2.231134e-16
5.137155e-14
-1.144845e-15
5.431726e-14
-3.749356e-15
5.510048e-14
-9.379761e-16
5.626583e-14
-1.459379e-15
5.97145e-14
-4.285071e-15
6.909035e-14
-1.174792e-14
7.432504e-14
-6.565581e-15
1.032181e-13
-3.573787e-14
1.546964e-13
-6.860882e-14
-1.057784e-13
1.524497e-13
-6.251729e-14
-7.267562e-14
-4.133871e-14
-6.895997e-14
-4.500266e-15
-6.22224e-14
-8.778429e-15
-5.701839e-14
-6.172148e-15
-5.556567e-14
-1.786642e-15
-5.451449e-14
-1.281412e-15
-5.136749e-14
-4.004128e-15
-5.037594e-14
-1.239483e-15
-5.008187e-14
-2.821856e-16
-4.747613e-14
-3.343077e-15
-4.5267e-14
-2.804048e-15
-4.451322e-14
-9.560768e-16
-4.55044e-14
1.330607e-15
-4.397323e-14
-1.95512e-15
-4.205494e-14
-2.452333e-15
-4.181375e-14
-2.964505e-16
-4.10434e-14
-9.590343e-16
-4.052106e-14
-6.560422e-16
-4.138872e-14
1.063864e-15
-4.128604e-14
-8.62383e-17
-4.135384e-14
3.987312e-17
-4.212606e-14
1.023765e-15
-4.117112e-14
-1.23098e-15
-4.086162e-14
-3.813051e-16
-4.053136e-14
-4.196897e-16
-4.048032e-14
-7.762353e-17
-4.140448e-14
1.151379e-15
-4.214073e-14
9.645667e-16
-4.233813e-14
2.30555e-16
-4.287882e-14
7.127738e-16
-4.32478e-14
4.451451e-16
-4.54047e-14
2.721207e-15
-4.532333e-14
1.065103e-15
-5.771432e-14
-7.350695e-14
9.428786e-14
-3.193419e-14
-5.928859e-14
-1.574597e-14
-5.901474e-14
-3.552368e-16
-5.566538e-14
-4.145793e-15
-5.258743e-14
-3.888109e-15
-5.169902e-14
-9.963269e-16
-5.099561e-14
-9.247767e-16
-5.073655e-14
-2.757693e-16
-4.90938e-14
-2.116651e-15
-4.932439e-14
3.487458e-16
-4.98659e-14
6.97514e-16
-4.899358e-14
-1.126782e-15
-5.072264e-14
2.242912e-15
-5.134203e-14
7.160889e-16
-5.238023e-14
1.336002e-15
-5.318777e-14
9.797707e-16
-5.556072e-14
3.054329e-15
-5.753667e-14
2.439975e-15
-5.917713e-14
2.098362e-15
-5.901751e-14
-2.961515e-16
-6.132009e-14
2.86764e-15
-6.949266e-14
1.028678e-14
-7.635039e-14
8.597147e-15
-1.028419e-13
3.277573e-14
6.62792e-14
2.395327e-14
-9.442163e-14
9.589759e-14
5.587984e-15
1.973975e-14
8.244051e-15
-3.606425e-15
5.449685e-15
3.552706e-15
4.39193e-15
1.242488e-15
3.33564e-15
1.303787e-15
2.282314e-15
1.316674e-15
1.581374e-15
8.688604e-16
1.610186e-15
-7.507016e-17
1.186031e-15
5.444227e-16
8.566011e-16
4.049447e-16
7.221488e-16
1.645807e-16
5.818992e-16
1.697475e-16
3.699306e-16
2.678543e-16
2.851217e-16
1.01688e-16
2.390821e-16
5.478143e-17
1.826675e-16
6.933783e-17
1.332863e-16
5.997938e-17
4.210485e-17
1.142387e-16
-1.80796e-17
7.527322e-17
-2.919693e-17
1.096987e-17
-8.432859e-17
7.044193e-17
-8.407483e-17
-3.104367e-18
-6.420543e-17
-2.613251e-17
-4.02141e-17
-3.18927e-17
-1.357455e-17
-3.467873e-17
2.034977e-18
-2.124397e-17
5.352762e-18
-5.233442e-18
3.472659e-18
5.059532e-19
-1.618661e-17
2.440085e-17
-1.639123e-17
-3.50977e-18
-1.193422e-16
1.305561e-16
-1.961204e-16
9.430148e-17
-2.682188e-16
8.513499e-17
-4.371436e-16
2.153596e-16
-4.437507e-16
2.164192e-18
-4.496657e-16
2.678381e-18
-5.442243e-16
1.105944e-16
-8.19526e-16
3.449674e-16
-1.140675e-15
3.918588e-16
-1.551281e-15
5.119744e-16
-2.106453e-15
6.635451e-16
-3.15478e-15
1.328932e-15
-4.046403e-15
1.063569e-15
-5.385687e-15
1.658405e-15
-7.629504e-15
2.734831e-15
-6.472268e-15
-1.485181e-15
-2.211073e-14
1.604764e-14
9.822252e-14
1.048818e-13
6.638837e-14
7.372739e-14
3.888047e-14
6.97284e-14
5.215999e-15
6.197952e-14
9.377477e-15
6.107056e-14
9.833584e-16
5.735525e-14
4.783032e-15
5.671854e-14
6.857664e-16
5.495088e-14
2.249842e-15
5.236929e-14
3.281055e-15
5.226392e-14
6.938449e-17
5.1194e-14
1.395173e-15
4.953701e-14
2.066402e-15
4.808748e-14
1.906463e-15
5.04584e-14
-3.053302e-15
5.080659e-14
-4.212732e-16
5.024982e-14
6.882464e-16
4.988003e-14
4.947023e-16
5.103792e-14
-1.412592e-15
5.302322e-14
-2.55329e-15
5.336863e-14
-3.228641e-16
5.551478e-14
-2.688173e-15
5.92599e-14
-4.691989e-15
5.83704e-14
1.15345e-15
7.1874e-14
-1.483379e-14
-3.411163e-14
2.335583e-13
-3.251493e-13
1.579793e-13
1.662509e-13
1.061879e-13
1.548407e-13
1.662619e-14
1.37584e-13
2.663418e-14
1.346228e-13
3.94456e-15
1.268074e-13
1.259843e-14
1.248222e-13
2.67102e-15
1.209724e-13
6.099606e-15
1.154316e-13
8.821828e-15
1.149024e-13
5.986041e-16
1.127409e-13
3.556693e-15
1.091375e-13
5.669747e-15
1.063468e-13
4.697201e-15
1.1131e-13
-8.016455e-15
1.120677e-13
-1.178992e-15
1.108222e-13
1.933715e-15
1.102486e-13
1.068299e-15
1.131021e-13
-4.266057e-15
1.173499e-13
-6.801121e-15
1.18705e-13
-1.677954e-15
1.2391e-13
-7.893217e-15
1.319848e-13
-1.276672e-14
1.324629e-13
6.752824e-16
1.667623e-13
-4.913315e-14
1.917158e-13
-5.906512e-14
7.148602e-14
2.161274e-13
1.853117e-14
7.269461e-14
1.961508e-14
-4.690344e-15
1.36519e-14
9.515889e-15
1.066464e-14
4.229749e-15
8.112555e-15
3.855873e-15
5.697887e-15
3.731342e-15
4.009336e-15
2.557411e-15
3.843382e-15
9.088391e-17
2.925549e-15
1.462255e-15
2.146779e-15
1.183715e-15
1.801531e-15
5.098292e-16
1.450983e-15
5.202954e-16
9.759225e-16
7.429148e-16
7.558717e-16
3.217389e-16
6.274052e-16
1.83248e-16
4.869659e-16
2.097773e-16
3.62408e-16
1.845373e-16
1.552846e-16
3.213621e-16
1.503671e-17
2.155212e-16
-2.720226e-17
5.320889e-17
-1.489711e-16
1.922109e-16
-1.655608e-16
1.348533e-17
-1.342631e-16
-5.743007e-17
-9.380815e-17
-7.234764e-17
-4.597832e-17
-8.25085e-17
-2.36268e-17
-4.359541e-17
-2.71886e-17
-1.671584e-18
-4.380121e-17
1.711863e-17
-9.586031e-17
7.646e-17
-1.187892e-16
1.941921e-17
-3.458421e-16
3.57609e-16
-5.355119e-16
2.839713e-16
-7.295493e-16
2.791725e-16
-1.098034e-15
5.83844e-16
-1.148752e-15
5.288291e-17
-1.207629e-15
6.155553e-17
-1.471071e-15
3.740356e-16
-2.112089e-15
9.859858e-16
-2.895798e-15
1.175568e-15
-3.883915e-15
1.500091e-15
-5.309286e-15
2.088916e-15
-7.675564e-15
3.69521e-15
-9.962128e-15
3.350133e-15
-1.337831e-14
5.07459e-15
-1.85707e-14
7.927218e-15
-1.981382e-14
-2.420556e-16
-6.784122e-14
6.407504e-14
-1.910984e-13
2.214797e-13
-1.701271e-13
-5.290548e-14
-1.345416e-13
-5.133145e-14
-1.316343e-13
-3.262563e-15
-1.24251e-13
-1.1529e-14
-1.171044e-13
-1.103472e-14
-1.144601e-13
-3.640693e-15
-1.129069e-13
-2.477972e-15
-1.121559e-13
-1.02679e-15
-1.086722e-13
-5.600277e-15
-1.088197e-13
4.962508e-16
-1.098957e-13
1.773485e-15
-1.080275e-13
-2.994963e-15
-1.115278e-13
5.743178e-15
-1.131617e-13
2.350004e-15
-1.154152e-13
3.58952e-15
-1.172739e-13
2.838458e-15
-1.222066e-13
7.987061e-15
-1.267378e-13
6.971153e-15
-1.303377e-13
5.698232e-15
-1.305096e-13
-1.242828e-16
-1.362655e-13
8.623545e-15
-1.573951e-13
3.141638e-14
-1.711549e-13
2.235702e-14
-2.292094e-13
9.083016e-14
-3.199951e-13
1.570649e-13
-2.352592e-13
-1.472532e-13
-1.637888e-13
-1.12809e-13
-1.528676e-13
-1.542144e-14
-1.380734e-13
-2.357272e-14
-1.260036e-13
-1.824189e-14
-1.224597e-13
-5.330574e-15
-1.199075e-13
-3.833622e-15
-1.131863e-13
-1.072527e-14
-1.108765e-13
-3.549283e-15
-1.097314e-13
-1.427322e-15
-1.042927e-13
-8.781733e-15
-9.967646e-14
-7.420324e-15
-9.798091e-14
-2.651624e-15
-9.968022e-14
3.029916e-15
-9.642204e-14
-5.213309e-15
-9.247672e-14
-6.397645e-15
-9.192478e-14
-8.483932e-16
-9.013995e-14
-2.74387e-15
-8.90233e-14
-1.772691e-15
-9.105541e-14
3.095974e-15
-9.06614e-14
-4.802422e-16
-9.099269e-14
3.711579e-16
-9.247599e-14
2.507065e-15
-9.047592e-14
-3.231047e-15
-8.978458e-14
-1.07265e-15
-8.909438e-14
-1.109888e-15
-8.91206e-14
-5.140717e-17
-9.120767e-14
3.238452e-15
-9.267863e-14
2.435533e-15
-9.314915e-14
7.010722e-16
-9.41998e-14
1.763422e-15
-9.517258e-14
1.417921e-15
-9.887138e-14
6.420015e-15
-9.043278e-14
-7.373504e-15
-8.782342e-16
-1.472689e-13
8.932948e-14
-1.485281e-13
9.815887e-14
-7.898463e-15
9.449446e-14
6.379929e-15
9.361824e-14
1.266276e-15
9.259209e-14
1.729434e-15
9.216279e-14
6.356258e-16
9.086465e-14
2.15421e-15
8.88779e-14
3.088038e-15
8.894479e-14
-1.995292e-16
8.977043e-14
-1.325186e-15
9.06411e-14
-1.35647e-15
9.280875e-14
-3.494956e-15
9.144692e-14
2.318611e-15
9.134852e-14
-3.360169e-18
9.19706e-14
-8.39531e-16
9.009632e-14
2.854762e-15
9.14014e-14
-2.085665e-15
9.293987e-14
-2.337476e-15
9.317894e-14
-3.540623e-16
9.687836e-14
-6.007117e-15
9.997603e-14
-4.958935e-15
9.823351e-14
3.096401e-15
9.996272e-14
-2.707984e-15
1.046055e-13
-7.46442e-15
1.10002e-13
-8.714412e-15
1.110425e-13
-1.263647e-15
1.131849e-13
-3.287215e-15
1.194801e-13
-1.004456e-14
1.21464e-13
-2.92184e-15
1.243136e-13
-4.308991e-15
1.354123e-13
-1.538385e-14
1.532217e-13
-2.955728e-14
1.666862e-13
-2.003005e-14
2.303989e-13
-9.945063e-14
-1.633592e-13
1.481643e-13
1.552212e-15
-2.982447e-13
1.784634e-13
-3.819751e-14
1.756142e-13
9.229115e-15
1.739651e-13
2.915404e-15
1.722787e-13
3.415799e-15
1.715609e-13
1.35341e-15
1.693029e-13
4.412192e-15
1.655648e-13
6.826159e-15
1.653842e-13
-1.893854e-17
1.668325e-13
-2.77343e-15
1.684144e-13
-2.938424e-15
1.724008e-13
-7.481296e-15
1.700886e-13
4.630778e-15
1.697095e-13
3.757512e-16
1.710343e-13
-2.164352e-15
1.674289e-13
6.460151e-15
1.697189e-13
-4.375629e-15
1.727979e-13
-5.416541e-15
1.732632e-13
-8.192978e-16
1.796114e-13
-1.235538e-14
1.852813e-13
-1.062878e-14
1.828173e-13
5.560352e-15
1.861938e-13
-6.084489e-15
1.942608e-13
-1.55314e-14
2.039439e-13
-1.839746e-14
2.066497e-13
-3.969455e-15
2.109571e-13
-7.594688e-15
2.224644e-13
-2.155177e-14
2.265388e-13
-6.996237e-15
2.325493e-13
-1.031957e-14
2.550947e-13
-3.792922e-14
2.874568e-13
-6.19194e-14
3.181679e-13
-5.074111e-14
4.304022e-13
-2.116849e-13
5.830061e-13
-3.159631e-13
-4.384615e-13
5.735221e-13
-2.823138e-13
-3.137317e-13
-2.375389e-13
-2.866897e-13
-4.246339e-14
-2.591272e-13
-5.113528e-14
-2.354726e-13
-4.189651e-14
-2.283556e-13
-1.244758e-14
-2.232386e-13
-8.950537e-15
-2.109801e-13
-2.298381e-14
-2.063579e-13
-8.171492e-15
-2.034565e-13
-4.328715e-15
-1.936965e-13
-1.854173e-14
-1.856732e-13
-1.544363e-14
-1.823505e-13
-5.97436e-15
-1.847302e-13
5.409649e-15
-1.78769e-13
-1.11745e-14
-1.719693e-13
-1.319736e-14
-1.709392e-13
-1.878467e-15
-1.674325e-13
-6.250614e-15
-1.654714e-13
-3.73373e-15
-1.693772e-13
7.001746e-15
-1.684792e-13
-1.378185e-15
-1.692711e-13
1.162963e-15
-1.718105e-13
5.046502e-15
-1.681377e-13
-6.903819e-15
-1.668842e-13
-2.326131e-15
-1.656796e-13
-2.31452e-15
-1.660331e-13
3.020434e-16
-1.699696e-13
7.174986e-15
-1.725332e-13
4.999175e-15
-1.733183e-13
1.486101e-15
-1.750665e-13
3.511625e-15
-1.768967e-13
3.248139e-15
-1.798991e-13
9.42243e-15
-1.503431e-13
-3.692949e-14
-2.960598e-13
-3.205272e-13
3.376078e-13
-6.998608e-14
-2.612726e-13
-1.105861e-13
-2.488628e-13
-1.567231e-14
-2.355587e-13
-2.483317e-14
-2.209643e-13
-2.562909e-14
-2.148909e-13
-9.714111e-15
-2.116276e-13
-5.74123e-15
-2.101133e-13
-2.541094e-15
-2.036137e-13
-1.209987e-14
-2.032626e-13
1.451122e-16
-2.05045e-13
3.555929e-15
-2.014746e-13
-6.565424e-15
-2.076252e-13
1.189377e-14
-2.109539e-13
5.678766e-15
-2.153081e-13
7.943727e-15
-2.186871e-13
6.21745e-15
-2.275431e-13
1.684304e-14
-2.361393e-13
1.556734e-14
-2.43112e-13
1.267093e-14
-2.442313e-13
9.950081e-16
-2.566478e-13
2.104009e-14
-2.957586e-13
7.052718e-14
-3.263343e-13
5.293269e-14
-4.276481e-13
1.92144e-13
3.029389e-13
1.561055e-13
-3.391445e-13
3.991664e-13
5.138756e-14
1.774125e-13
4.056216e-14
6.135055e-15
2.916625e-14
2.09118e-14
2.219281e-14
1.12032e-14
1.685872e-14
9.189955e-15
1.210709e-14
8.48298e-15
8.60402e-15
6.060479e-15
7.890878e-15
8.040256e-16
6.119211e-15
3.233923e-15
4.578516e-15
2.72441e-15
3.818128e-15
1.270217e-15
3.087689e-15
1.250735e-15
2.162883e-15
1.667721e-15
1.690748e-15
7.938737e-16
1.391829e-15
4.821679e-16
1.091923e-15
5.09683e-16
8.281692e-16
4.482912e-16
4.254719e-16
7.240595e-16
1.435078e-16
4.974853e-16
3.528566e-17
1.614311e-16
-2.0305e-16
4.305466e-16
-2.64239e-16
7.467447e-17
-2.359852e-16
-8.568381e-17
-1.855115e-16
-1.228212e-16
-1.21082e-16
-1.469379e-16
-1.041428e-16
-6.053452e-17
-1.36645e-16
3.083074e-17
-1.913434e-16
7.181719e-17
-3.141102e-16
1.992269e-16
-3.94688e-16
9.99971e-17
-8.290179e-16
7.919391e-16
-1.228885e-15
6.838385e-16
-1.6539e-15
7.041874e-16
-2.357227e-15
1.287172e-15
-2.515963e-15
2.116192e-16
-2.733253e-15
2.788448e-16
-3.328828e-15
9.696107e-16
-4.627297e-15
2.284455e-15
-6.23401e-15
2.782281e-15
-8.315763e-15
3.581844e-15
-1.132479e-14
5.097945e-15
-1.60331e-14
8.403523e-15
-2.088473e-14
8.201759e-15
-2.860324e-14
1.27931e-14
-3.883457e-14
1.815854e-14
-5.299259e-14
1.391596e-14
-1.498376e-13
1.609201e-13
4.092498e-13
4.355703e-13
3.054152e-13
3.183319e-13
2.234262e-13
2.907502e-13
4.420796e-14
2.583429e-13
5.904141e-14
2.514754e-13
1.081214e-14
2.371023e-13
2.697152e-14
2.32603e-13
7.170319e-15
2.253462e-13
1.335635e-14
2.151806e-13
1.898747e-14
2.138368e-13
1.942357e-15
2.100129e-13
7.380623e-15
2.036114e-13
1.207122e-14
1.989489e-13
9.359683e-15
2.079832e-13
-1.70507e-14
2.092067e-13
-2.402448e-15
2.069264e-13
4.213964e-15
2.063557e-13
1.639031e-15
2.122479e-13
-1.015831e-14
2.202604e-13
-1.481361e-14
2.237163e-13
-5.133827e-15
2.347893e-13
-1.896624e-14
2.492672e-13
-2.724465e-14
2.572174e-13
-7.274856e-15
3.148416e-13
-1.067574e-13
-8.336801e-14
7.459541e-13
-9.644391e-13
5.239002e-13
5.630008e-13
4.063795e-13
5.045709e-13
1.026378e-13
4.480418e-13
1.155706e-13
4.341149e-13
2.473902e-14
4.093327e-13
5.175371e-14
4.002926e-13
1.621042e-14
3.875125e-13
2.613651e-14
3.701794e-13
3.632058e-14
3.673843e-13
4.737382e-15
3.611564e-13
1.360858e-14
3.508196e-13
2.2408e-14
3.437036e-13
1.647572e-14
3.590145e-13
-3.236168e-14
3.60682e-13
-4.069956e-15
3.568672e-13
8.028828e-15
3.568685e-13
1.637761e-15
3.682322e-13
-2.152211e-14
3.824562e-13
-2.903757e-14
3.902294e-13
-1.290699e-14
4.119396e-13
-4.067643e-14
4.36709e-13
-5.201409e-14
4.607136e-13
-3.12795e-14
5.384248e-13
-1.844685e-13
5.561834e-13
-1.011267e-13
2.978023e-13
6.575475e-13
1.222443e-13
3.529705e-13
8.086206e-14
4.751734e-14
5.817982e-14
4.359403e-14
4.335371e-14
2.602931e-14
3.274081e-14
1.980285e-14
2.39533e-14
1.727049e-14
1.718161e-14
1.283218e-14
1.517982e-14
2.805814e-15
1.191199e-14
6.501758e-15
9.075631e-15
5.560766e-15
7.531387e-15
2.814461e-15
6.117338e-15
2.664784e-15
4.424359e-15
3.3607e-15
3.4922e-15
1.726033e-15
2.856464e-15
1.117904e-15
2.259269e-15
1.106877e-15
1.742147e-15
9.654138e-16
1.009592e-15
1.456615e-15
4.801021e-16
1.026975e-15
2.402768e-16
4.012567e-16
-2.011504e-16
8.719739e-16
-3.643924e-16
2.379166e-16
-3.779951e-16
-7.208093e-17
-3.408744e-16
-1.599418e-16
-2.80582e-16
-2.072301e-16
-3.013207e-16
-3.979565e-17
-4.118629e-16
1.413731e-16
-5.524465e-16
2.12401e-16
-8.211278e-16
4.679083e-16
-1.027892e-15
3.067619e-16
-1.808228e-15
1.572275e-15
-2.594286e-15
1.469897e-15
-3.447908e-15
1.557809e-15
-4.713265e-15
2.552529e-15
-5.113387e-15
6.117409e-16
-5.709457e-15
8.749152e-16
-6.939522e-15
2.199676e-15
-9.410912e-15
4.755845e-15
-1.248702e-14
5.85839e-15
-1.660622e-14
7.701047e-15
-2.248796e-14
1.097968e-14
-3.133398e-14
1.724955e-14
-4.105107e-14
1.791885e-14
-5.723391e-14
2.897593e-14
-7.806075e-14
3.898538e-14
-1.23936e-13
5.979124e-14
-2.878569e-13
3.24841e-13
-5.531799e-13
6.745728e-13
-5.469278e-13
-7.623811e-14
-4.680924e-13
-1.894215e-13
-4.363809e-13
-4.738381e-14
-4.136495e-13
-4.756457e-14
-3.859529e-13
-5.332571e-14
-3.731647e-13
-2.250228e-14
-3.665826e-13
-1.232335e-14
-3.638692e-13
-5.254489e-15
-3.525081e-13
-2.346091e-14
-3.506759e-13
-1.68707e-15
-3.533359e-13
6.215925e-15
-3.468442e-13
-1.305713e-14
-3.569098e-13
2.195936e-14
-3.630121e-13
1.178103e-14
-3.708955e-13
1.582714e-14
-3.764106e-13
1.173251e-14
-3.911446e-13
3.157711e-14
-4.0613e-13
3.055267e-14
-4.188854e-13
2.542633e-14
-4.221478e-13
4.257403e-15
-4.465165e-13
4.540881e-14
-5.131853e-13
1.37196e-13
-5.746381e-13
1.143855e-13
-7.326354e-13
3.501413e-13
-9.488838e-13
5.191873e-13
-7.506152e-13
-4.805825e-13
-5.5521e-13
-4.32944e-13
-4.970732e-13
-1.006001e-13
-4.491413e-13
-9.906727e-14
-4.062682e-13
-8.476952e-14
-3.931295e-13
-2.558631e-14
-3.837336e-13
-1.834644e-14
-3.629932e-13
-4.372418e-14
-3.543724e-13
-1.679236e-14
-3.481158e-13
-1.058525e-14
-3.318262e-13
-3.483138e-14
-3.191604e-13
-2.810938e-14
-3.131156e-13
-1.201916e-14
-3.158338e-13
8.127776e-15
-3.056988e-13
-2.130946e-14
-2.950529e-13
-2.384331e-14
-2.933064e-13
-3.624916e-15
-2.869345e-13
-1.262253e-14
-2.838337e-13
-6.834548e-15
-2.906928e-13
1.386087e-14
-2.889158e-13
-3.155162e-15
-2.905365e-13
2.783606e-15
-2.946133e-13
9.123295e-15
-2.882793e-13
-1.323782e-14
-2.861957e-13
-4.40967e-15
-2.843229e-13
-4.187347e-15
-2.855281e-13
1.507268e-15
-2.923751e-13
1.402193e-14
-2.964712e-13
9.09535e-15
-2.974679e-13
2.482793e-15
-3.000094e-13
6.053114e-15
-3.021698e-13
5.408504e-15
-2.97492e-13
4.744683e-15
-2.259022e-13
-1.085193e-13
-2.545562e-15
-5.194164e-13
2.220481e-13
-5.228384e-13
2.948117e-13
-1.109611e-13
2.999055e-13
4.135369e-15
2.980777e-13
4.743205e-15
2.956755e-13
5.818008e-15
2.947736e-13
2.255319e-15
2.911766e-13
8.009181e-15
2.846877e-13
1.331502e-14
2.837803e-13
8.884438e-16
2.860544e-13
-5.047547e-15
2.886921e-13
-5.576089e-15
2.955695e-13
-1.435866e-14
2.918811e-13
8.319141e-15
2.909308e-13
1.326081e-15
2.934475e-13
-4.68103e-15
2.871153e-13
1.279232e-14
2.907542e-13
-8.014565e-15
2.964341e-13
-1.109637e-14
2.972466e-13
-1.631839e-15
3.071271e-13
-2.223589e-14
3.16777e-13
-2.027868e-14
3.139085e-13
8.428833e-15
3.200301e-13
-1.220608e-14
3.327611e-13
-2.826236e-14
3.489208e-13
-3.455716e-14
3.548396e-13
-9.888338e-15
3.629179e-13
-1.567294e-14
3.824492e-13
-4.108304e-14
3.900623e-13
-1.460937e-14
4.01531e-13
-2.178831e-14
4.43619e-13
-8.00172e-14
4.982767e-13
-1.165771e-13
5.613936e-13
-1.138579e-13
7.382801e-13
-3.885714e-13
-5.421221e-13
3.097931e-13
3.967765e-15
-8.365993e-13
4.559955e-13
-2.571635e-13
4.853496e-13
-2.521868e-14
4.866394e-13
3.453363e-15
4.840782e-13
8.379264e-15
4.835436e-13
2.789887e-15
4.783477e-13
1.320505e-14
4.675127e-13
2.415002e-14
4.648956e-13
3.505551e-15
4.680935e-13
-8.245439e-15
4.723103e-13
-9.792858e-15
4.838559e-13
-2.590429e-14
4.782309e-13
1.394408e-14
4.76039e-13
3.518058e-15
4.80616e-13
-9.258038e-15
4.700532e-13
2.335511e-14
4.754228e-13
-1.338413e-14
4.854433e-13
-2.111693e-14
4.86768e-13
-2.956528e-15
5.010845e-13
-3.655236e-14
5.168524e-13
-3.604664e-14
5.145513e-13
1.072994e-14
5.25125e-13
-2.277974e-14
5.439307e-13
-4.706807e-14
5.698783e-13
-6.050476e-14
5.816554e-13
-2.166546e-14
5.962949e-13
-3.031242e-14
6.281299e-13
-7.291804e-14
6.41554e-13
-2.803345e-14
6.623785e-13
-4.261277e-14
7.373439e-13
-1.549827e-13
8.263847e-13
-2.056179e-13
9.453788e-13
-2.328521e-13
1.204455e-12
-6.476472e-13
1.518442e-12
-8.561091e-13
-1.222297e-12
1.494906e-12
-7.531912e-13
-9.374419e-13
-7.177993e-13
-8.249109e-13
-2.131312e-13
-7.441251e-13
-1.79853e-13
-6.697043e-13
-1.591903e-13
-6.465115e-13
-4.877909e-14
-6.301493e-13
-3.470871e-14
-5.964772e-13
-7.739623e-14
-5.809555e-13
-3.231408e-14
-5.686189e-13
-2.292186e-14
-5.424616e-13
-6.098867e-14
-5.237466e-13
-4.682435e-14
-5.132734e-13
-2.249235e-14
-5.153214e-13
1.017572e-14
-4.987872e-13
-3.784363e-14
-4.832338e-13
-3.939676e-14
-4.80441e-13
-6.41769e-15
-4.693417e-13
-2.372184e-14
-4.648194e-13
-1.135688e-14
-4.762747e-13
2.531623e-14
-4.729243e-13
-6.505535e-15
-4.761445e-13
6.003761e-15
-4.823977e-13
1.537648e-14
-4.717543e-13
-2.388118e-14
-4.684282e-13
-7.735792e-15
-4.658557e-13
-6.759842e-15
-4.689635e-13
4.615048e-15
-4.804127e-13
2.547118e-14
-4.863832e-13
1.506579e-14
-4.87034e-13
3.133591e-15
-4.898907e-13
8.909888e-15
-4.892185e-13
4.736262e-15
-4.607389e-13
-2.37349e-14
-3.161725e-13
-2.530857e-13
-8.316212e-13
-8.785579e-13
8.630865e-13
-6.076665e-14
-7.961066e-13
-2.718729e-13
-7.342621e-13
-1.092283e-13
-6.963501e-13
-8.547656e-14
-6.46402e-13
-1.032739e-13
-6.202448e-13
-4.865945e-14
-6.073927e-13
-2.517547e-14
-6.02733e-13
-9.914154e-15
-5.837761e-13
-4.241781e-14
-5.781218e-13
-7.341353e-15
-5.818453e-13
9.93938e-15
-5.703223e-13
-2.458012e-14
-5.861283e-13
3.776539e-14
-5.967306e-13
2.238327e-14
-6.103727e-13
2.946931e-14
-6.18854e-13
2.021376e-14
-6.421783e-13
5.490139e-14
-6.671953e-13
5.556969e-14
-6.898705e-13
4.810153e-14
-6.974178e-13
1.180468e-14
-7.426663e-13
9.065734e-14
-8.516566e-13
2.461863e-13
-9.653016e-13
2.280304e-13
-1.193785e-12
5.786246e-13
8.203083e-13
5.246619e-13
-8.677743e-13
1.00066e-12
2.603568e-13
6.172756e-13
1.595822e-13
1.48292e-13
1.124922e-13
9.068395e-14
8.238154e-14
5.614002e-14
6.153849e-14
4.064591e-14
4.567449e-14
3.313448e-14
3.310246e-14
2.540421e-14
2.82909e-14
7.617376e-15
2.237516e-14
1.24175e-14
1.729895e-14
1.063697e-14
1.431537e-14
5.798049e-15
1.166993e-14
5.310221e-15
8.656663e-15
6.373967e-15
6.896131e-15
3.486566e-15
5.614131e-15
2.399904e-15
4.468779e-15
2.252229e-15
3.49519e-15
1.939003e-15
2.201939e-15
2.749866e-15
1.242894e-15
1.98602e-15
7.505967e-16
8.935546e-16
-4.433322e-17
1.666904e-15
-4.247701e-16
6.183538e-16
-5.680365e-16
7.118569e-17
-6.031355e-16
-1.248425e-16
-6.021801e-16
-2.081853e-16
-7.338357e-16
9.186021e-17
-1.025481e-15
4.330184e-16
-1.345165e-15
5.320858e-16
-1.90455e-15
1.027293e-15
-2.366312e-15
7.685242e-16
-3.727865e-15
2.933828e-15
-5.219315e-15
2.961347e-15
-6.862744e-15
3.201238e-15
-9.073797e-15
4.763583e-15
-9.983632e-15
1.521576e-15
-1.139628e-14
2.287564e-15
-1.38169e-14
4.620292e-15
-1.838006e-14
9.319005e-15
-2.41031e-14
1.158143e-14
-3.198848e-14
1.558643e-14
-4.311882e-14
2.211001e-14
-5.927311e-14
3.340384e-14
-7.851567e-14
3.716141e-14
-1.110495e-13
6.150981e-14
-1.552315e-13
8.316737e-14
-2.618153e-13
1.66375e-13
-5.09645e-13
5.726707e-13
1.028014e-12
1.215195e-12
8.271467e-13
9.500782e-13
6.714963e-13
8.37774e-13
2.14942e-13
7.426912e-13
2.106534e-13
7.165653e-13
5.086491e-14
6.753127e-13
9.300629e-14
6.581846e-13
3.333855e-14
6.365314e-13
4.778966e-14
6.080548e-13
6.479719e-14
6.027955e-13
9.996673e-15
5.933807e-13
2.30234e-14
5.775481e-13
3.824059e-14
5.675569e-13
2.646691e-14
5.923616e-13
-5.716634e-14
5.942669e-13
-5.975305e-15
5.881673e-13
1.412849e-14
5.900994e-13
-2.94323e-16
6.115244e-13
-4.294715e-14
6.358675e-13
-5.338069e-14
6.52442e-13
-2.94815e-14
6.926456e-13
-8.087999e-14
7.342973e-13
-9.36658e-14
7.829351e-13
-7.991729e-14
8.67289e-13
-2.688224e-13
-1.01612e-13
1.916496e-12
-2.310392e-12
1.221043e-12
1.553246e-12
1.034746e-12
1.353991e-12
4.141973e-13
1.196513e-12
3.681319e-13
1.151375e-12
9.600245e-14
1.082756e-12
1.616255e-13
1.051484e-12
6.461075e-14
1.01661e-12
8.266327e-14
9.696595e-13
1.117477e-13
9.605106e-13
1.914555e-14
9.47335e-13
3.6199e-14
9.246493e-13
6.092633e-14
9.108188e-13
4.02974e-14
9.509529e-13
-9.730047e-14
9.5175e-13
-6.772351e-15
9.4223e-13
2.36485e-14
9.490818e-13
-7.146139e-15
9.89056e-13
-8.292138e-14
1.030843e-12
-9.516776e-14
1.063513e-12
-6.215191e-14
1.136691e-12
-1.540579e-13
1.203174e-12
-1.60148e-13
1.279027e-12
-1.557705e-13
1.343346e-12
-3.331419e-13
1.304203e-12
-6.246897e-14
8.783438e-13
1.426519e-12
5.094221e-13
9.861973e-13
3.1205e-13
3.456641e-13
2.151501e-13
1.875838e-13
1.549721e-13
1.16318e-13
1.139499e-13
8.166815e-14
8.554762e-14
6.153676e-14
6.251933e-14
4.843251e-14
5.198144e-14
1.815527e-14
4.125432e-14
2.314462e-14
3.224423e-14
1.964706e-14
2.667257e-14
1.136971e-14
2.180136e-14
1.018143e-14
1.648818e-14
1.168715e-14
1.32519e-14
6.722848e-15
1.074902e-14
4.902779e-15
8.597559e-15
4.403694e-15
6.809754e-15
3.726808e-15
4.550205e-15
5.009417e-15
2.841027e-15
3.695199e-15
1.888073e-15
1.846509e-15
4.686981e-16
3.086279e-15
-3.534944e-16
1.440547e-15
-8.091276e-16
5.268194e-16
-1.047905e-15
1.139357e-16
-1.226993e-15
-2.909724e-17
-1.626581e-15
4.914488e-16
-2.304501e-15
1.110939e-15
-2.988123e-15
1.215709e-15
-4.108544e-15
2.147715e-15
-5.057151e-15
1.717133e-15
-7.410293e-15
5.286971e-15
-1.01834e-14
5.73446e-15
-1.327807e-14
6.295905e-15
-1.711898e-14
8.604497e-15
-1.903893e-14
3.441523e-15
-2.211972e-14
5.368357e-15
-2.673906e-14
9.23963e-15
-3.506911e-14
1.764905e-14
-4.56107e-14
2.212303e-14
-6.044523e-14
3.042096e-14
-8.118559e-14
4.285037e-14
-1.105203e-13
6.273853e-14
-1.485897e-13
7.523088e-14
-2.129795e-13
1.258996e-13
-3.051215e-13
1.753093e-13
-5.110858e-13
3.723394e-13
-8.569091e-13
9.184939e-13