/*--------------------------------*- C++ -*----------------------------------*\
| =========                 |                                                 |
| \\      /  F ield         | OpenFOAM: The Open Source CFD Toolbox           |
|  \\    /   O peration     | Version:  2406                                  |
|   \\  /    A nd           | Website:  www.openfoam.com                      |
|    \\/     M anipulation  |                                                 |
\*---------------------------------------------------------------------------*/
FoamFile
{
    version     2.0;
    format      ascii;
    arch        "LSB;label=32;scalar=64";
    class       volScalarField;
    location    "2.42";
    object      p;
}
// * * * * * * * * * * * * * * * * * * * * * * * * * * * * * * * * * * * * * //

dimensions      [0 2 -2 0 0 0 0];

internalField   nonuniform List<scalar> 
217010
(
-202.7288
-128.6133
-133.0284
-134.4503
-135.8231
-133.081
-130.2861
-125.58
-128.0088
-129.7152
-126.5314
-124.725
-126.4749
-126.8892
-126.5855
-126.162
-128.7658
-131.5824
-131.7303
-132.1645
-135.283
-139.89
-143.6515
-145.4575
-143.7757
-139.2628
-132.3827
-122.9398
-111.2303
-109.5474
-108.4358
-108.0603
-111.3758
-114.1883
-110.2738
-112.7889
-115.5843
-121.4866
-143.6807
-163.2334
-169.7568
-166.8109
-157.9851
-145.4752
-128.9718
-109.4672
-91.83056
-76.56334
-63.81303
-55.31121
-43.81426
-45.60229
-44.8869
-44.14869
-43.41083
-44.13146
-46.50559
-49.71025
-50.37483
-51.28236
-52.96234
-52.89486
-50.90058
-51.86474
-54.78781
-58.04026
-58.88146
-55.53342
-48.94063
-46.40456
-47.26163
-46.09209
-48.11315
-54.08977
-62.30091
-72.29629
-79.34695
-71.2991
-62.5733
-59.71329
-61.70739
-72.68107
-90.80397
-101.9593
-87.84241
-66.45248
-67.08086
-75.5662
-78.6664
-79.54807
-80.24929
-81.91339
-84.51423
-87.03132
-89.07539
-90.68559
-91.91435
-92.80106
-93.43835
-93.8391
-94.01946
-94.00433
-93.82521
-93.48783
-92.96923
-92.31473
-91.54368
-90.63483
-89.56606
-88.38548
-87.14664
-85.8285
-84.47622
-83.07466
-81.57597
-80.02448
-78.51554
-76.9711
-75.43465
-73.90749
-72.38334
-70.88432
-69.4242
-67.99772
-66.56358
-65.13227
-63.72897
-62.36123
-61.02594
-59.87103
-58.8515
-57.93977
-57.07436
-56.33944
-55.81331
-55.66522
-55.96505
-56.49952
-56.80885
-57.6872
-59.13686
-60.82439
-62.51907
-64.06839
-65.24437
-65.89121
-66.50382
-66.029
-60.99146
-76.6628
-41.48829
-43.39766
-41.85597
-44.04677
-47.77617
-54.08002
-63.58103
-76.12399
-91.11098
-108.6531
-126.7067
-143.6751
-157.2721
-166.4892
-170.0484
-166.5571
-156.1766
-139.7403
-118.1086
-94.96044
-81.92273
-77.34743
-74.896
-80.38488
-92.09756
-94.05026
-85.88317
-74.44602
-60.93694
-55.40095
-61.30954
-79.70248
-102.1374
-124.9747
-144.4505
-156.2846
-158.2609
-150.1664
-136.1313
-126.2557
-128.1193
-123.1056
-112.3222
-106.7454
-104.2573
-104.8947
-106.07
-107.7114
-101.9981
-163.1062
-81.87459
-71.92092
-59.558
-52.30804
-46.06297
-40.89649
-36.43072
-32.38476
-28.85764
-25.65304
-22.73791
-20.06888
-17.55273
-15.1744
-12.94552
-10.87883
-8.943737
-7.08365
-5.303976
-3.601691
-1.972695
-0.4268328
1.038096
2.477943
3.887454
5.265267
6.585938
7.835113
9.042071
10.23211
11.40888
12.56323
13.66351
14.73327
15.79561
16.8382
17.8702
18.88893
19.91078
20.89244
21.88985
22.8441
23.79064
24.72364
25.6531
26.56621
27.46333
28.36378
29.28114
30.19716
31.09286
31.97339
32.85207
33.75747
34.67685
35.58471
36.49607
37.41832
38.34507
39.28724
40.23379
41.17771
42.16019
43.2278
44.32816
45.42923
46.55193
47.67388
48.88051
50.4203
52.74153
48.94376
47.75117
46.7782
45.54697
44.32378
43.22346
42.17283
41.1659
40.24311
39.36003
38.42836
37.47297
36.54079
35.65208
34.78161
33.9065
33.01646
32.12473
31.25627
30.39287
29.50995
28.62319
27.74448
26.84829
25.95538
25.0425
24.09135
23.15056
22.22764
21.29456
20.33095
19.31568
18.33421
17.30617
16.24981
15.18739
14.11341
12.99309
11.84966
10.69976
9.518055
8.268233
6.954988
5.633232
4.311912
2.933581
1.480767
-0.02529944
-1.607559
-3.261732
-4.972672
-6.756155
-8.576667
-10.52952
-12.62374
-14.81249
-17.15229
-19.61733
-22.28977
-25.19844
-28.31071
-31.67284
-35.44549
-39.6701
-44.49174
-49.8731
-56.14234
-63.89878
-72.95124
-88.40674
-101.4802
49.21656
47.91567
46.91697
45.70219
44.46832
43.35168
42.28966
41.27226
40.33947
39.45143
38.51816
37.5594
36.62118
35.72647
34.85188
33.97387
33.08112
32.18576
31.31377
30.44752
29.56225
28.67292
27.79175
26.89314
25.99839
25.08355
24.13071
23.18745
22.26179
21.32696
20.36211
19.3441
18.36246
17.33176
16.27335
15.20927
14.13377
13.01162
11.86666
10.71512
9.531958
8.28009
6.964765
5.641272
4.318487
2.937899
1.483149
-0.02463797
-1.609379
-3.266481
-4.980554
-6.76736
-8.590065
-10.54838
-12.64762
-14.84109
-17.18774
-19.65838
-22.34044
-25.25945
-28.38129
-31.75587
-35.54503
-39.78665
-44.64559
-50.05848
-56.37711
-64.1925
-73.43077
-88.85022
-103.8617
-83.84267
-72.29438
-59.94878
-52.54812
-46.25877
-41.05139
-36.56097
-32.48241
-28.94152
-25.72578
-22.79877
-20.12144
-17.59801
-15.21247
-12.97659
-10.90391
-8.965017
-7.101005
-5.317435
-3.61173
-1.979706
-0.430576
1.036261
2.477849
3.889293
5.269106
6.592007
7.842779
9.051319
10.24304
11.42158
12.57771
13.6797
14.75085
15.81498
16.85918
17.89308
18.91388
19.93837
20.92087
21.92059
22.87649
23.82498
24.76016
25.69154
26.60665
27.50606
28.40936
29.32948
30.24781
31.14543
32.02857
32.91092
33.82016
34.743
35.65408
36.56932
37.49571
38.42712
39.37374
40.32463
41.27521
42.26774
43.34505
44.4526
45.56039
46.68973
47.82092
49.06138
50.6758
52.68998
-43.08577
-43.38315
-41.84303
-43.76053
-47.31354
-53.37678
-62.63276
-74.97939
-89.83299
-107.2939
-125.4079
-142.5685
-156.4328
-165.9862
-169.9657
-166.8097
-156.7364
-140.5874
-119.0709
-95.72145
-82.28227
-77.48979
-74.88651
-80.26348
-91.97342
-94.12558
-86.08457
-74.71649
-61.09834
-55.48487
-61.35945
-79.75033
-102.1938
-125.0488
-144.5426
-156.4239
-158.4397
-150.3271
-136.127
-126.2042
-128.1225
-122.9934
-112.1786
-106.6662
-104.2343
-104.9387
-106.1274
-107.731
-103.5825
-151.7891
-44.09292
-45.4863
-44.97715
-44.28049
-43.43143
-44.00583
-46.23306
-49.49211
-50.30238
-51.14526
-52.90989
-53.02281
-50.96331
-51.75577
-54.57844
-57.89007
-58.96451
-55.85741
-49.28175
-46.46985
-47.28337
-46.08827
-47.97128
-53.80491
-61.92768
-72.00452
-79.48754
-71.69168
-62.8629
-59.85182
-61.66944
-72.40977
-90.58692
-102.292
-88.46462
-66.67135
-67.10361
-75.55936
-78.64436
-79.53897
-80.21452
-81.85918
-84.47888
-87.02053
-89.0738
-90.68651
-91.91592
-92.80313
-93.4418
-93.84308
-94.02308
-94.00775
-93.82813
-93.49044
-92.97049
-92.31047
-91.53521
-90.62305
-89.55096
-88.36654
-87.12447
-85.80305
-84.44721
-83.0417
-81.53886
-79.98682
-78.46665
-76.92269
-75.38357
-73.85319
-72.32621
-70.82506
-69.36287
-67.93359
-66.49627
-65.06274
-63.65756
-62.28924
-60.95704
-59.80828
-58.79292
-57.88399
-57.02243
-56.29661
-55.78991
-55.66943
-55.99416
-56.53052
-56.85398
-57.78524
-59.28363
-60.99527
-62.6967
-64.23488
-65.36303
-65.99488
-66.49593
-65.76142
-61.75792
-72.91395
-187.7726
-130.6664
-133.1671
-134.4709
-135.9366
-133.2265
-130.4196
-125.6369
-128.0159
-129.749
-126.5695
-124.7212
-126.4613
-126.8919
-126.5905
-126.1623
-128.7735
-131.5959
-131.7304
-132.161
-135.3082
-139.933
-143.7021
-145.4764
-143.7397
-139.1414
-132.2422
-122.6276
-111.0218
-109.4744
-108.4056
-108.1199
-111.5135
-114.1616
-110.2619
-112.9678
-115.924
-122.5588
-145.2488
-164.1822
-169.845
-166.1345
-156.8339
-143.9329
-127.118
-107.5191
-90.01407
-74.97615
-62.60433
-54.08385
-172.2792
-131.4274
-133.4139
-134.4083
-136.0489
-133.4705
-130.61
-125.7494
-128.0783
-129.8687
-126.6519
-124.7176
-126.4487
-126.8985
-126.6099
-126.1773
-128.8029
-131.6339
-131.7373
-132.15
-135.3227
-139.9813
-143.7554
-145.5299
-143.7578
-139.1299
-132.2213
-122.4232
-110.8126
-109.436
-108.3319
-108.1566
-111.6645
-114.1614
-110.2819
-113.2359
-116.2964
-124.1911
-147.8779
-165.7665
-170.4859
-166.3994
-156.7974
-143.6388
-126.5602
-106.665
-89.20065
-74.29024
-62.01905
-52.85096
-44.11511
-45.42159
-45.0598
-44.35691
-43.47734
-43.94043
-46.1007
-49.48768
-50.2781
-51.12631
-52.90419
-53.13667
-51.06895
-51.72703
-54.50637
-57.89848
-59.18834
-56.29945
-49.63433
-46.50716
-47.3386
-46.13686
-47.91716
-53.65824
-61.73915
-71.9832
-80.06717
-72.5803
-63.16548
-60.09874
-61.74425
-72.2405
-90.74156
-103.2745
-89.22575
-66.5128
-67.0002
-75.55744
-78.62914
-79.56975
-80.30284
-81.96828
-84.55844
-87.07098
-89.10494
-90.70728
-91.93114
-92.81605
-93.45575
-93.85673
-94.03526
-94.0201
-93.83969
-93.5021
-92.98194
-92.31896
-91.54051
-90.6274
-89.55374
-88.3656
-87.12323
-85.80024
-84.44254
-83.03617
-81.52949
-79.97442
-78.46768
-76.91274
-75.37043
-73.83934
-72.31066
-70.80843
-69.34518
-67.91571
-66.47689
-65.04147
-63.63338
-62.26583
-60.93033
-59.78429
-58.76965
-57.86407
-57.00128
-56.27902
-55.7827
-55.68014
-56.02417
-56.55761
-56.89383
-57.85913
-59.3735
-61.07891
-62.76523
-64.27958
-65.44596
-66.09642
-66.46849
-65.53538
-61.98774
-69.84699
-43.61106
-43.47087
-41.86224
-43.61374
-47.05452
-52.97429
-62.11795
-74.39563
-89.19268
-106.7229
-124.9335
-142.3168
-156.3902
-166.2263
-170.3775
-167.3011
-157.477
-141.6088
-120.3598
-96.82421
-82.73388
-77.55545
-74.95902
-80.22756
-92.02426
-94.32797
-86.51415
-75.19217
-61.34013
-55.7282
-61.54785
-79.94849
-102.4037
-125.2686
-144.7693
-156.6424
-158.7039
-150.7996
-136.7212
-126.4777
-128.3172
-123.0813
-112.1036
-106.6192
-104.258
-104.9411
-106.0991
-107.7775
-104.1597
-139.6064
-83.77771
-72.54335
-60.12809
-52.66944
-46.3514
-41.12236
-36.61415
-32.54027
-28.97476
-25.75654
-22.8238
-20.14359
-17.61839
-15.22935
-12.99043
-10.91424
-8.975669
-7.109941
-5.324769
-3.617445
-1.984575
-0.4329698
1.033482
2.475962
3.888721
5.269842
6.594799
7.845526
9.053879
10.24598
11.42518
12.5831
13.6857
14.75568
15.82082
16.86523
17.901
18.92246
19.94506
20.92999
21.92723
22.88485
23.83446
24.76944
25.7016
26.61722
27.51633
28.41922
29.34093
30.26117
31.15863
32.04175
32.92307
33.83351
34.7592
35.67047
36.58545
37.51403
38.44573
39.39333
40.34568
41.29735
42.29012
43.37415
44.48722
45.594
46.72557
47.85709
49.12378
50.80023
52.59583
49.3253
47.97918
46.95411
45.7384
44.50488
43.38559
42.31591
41.29196
40.35958
39.4752
38.53957
37.57856
36.63698
35.74177
34.867
33.98962
33.09529
32.19783
31.32658
30.46075
29.57397
28.68438
27.8038
26.90319
26.01055
25.09524
24.13891
23.19548
22.2705
21.33578
20.3677
19.35351
18.36929
17.3415
16.28059
15.21597
14.14052
13.01611
11.87095
10.72012
9.537601
8.283805
6.966215
5.64247
4.320813
2.938656
1.483104
-0.02505945
-1.612195
-3.27094
-4.986696
-6.775047
-8.596181
-10.5584
-12.65996
-14.85376
-17.20508
-19.6754
-22.36369
-25.28693
-28.41145
-31.79061
-35.58701
-39.85648
-44.7098
-50.14509
-56.48925
-64.34716
-73.65386
-89.1405
-103.594
49.47945
48.14132
47.07945
45.88246
44.6582
43.52723
42.44372
41.41189
40.47297
39.58249
38.64237
37.67868
36.7326
35.83167
34.9522
34.07049
33.17298
32.27136
31.39735
30.52714
29.63664
28.74461
27.86139
26.95703
26.0636
25.14526
24.18449
23.2409
22.31322
21.37656
20.4052
19.39588
18.39919
17.37444
16.3092
15.24337
14.16695
13.03826
11.89222
10.7405
9.557206
8.299101
6.977971
5.653318
4.332206
2.946145
1.488701
-0.02060167
-1.612142
-3.273421
-4.992026
-6.784086
-8.60347
-10.57449
-12.68129
-14.87696
-17.23832
-19.70975
-22.41121
-25.34461
-28.47646
-31.86633
-35.68679
-39.96753
-44.84231
-50.31536
-56.70694
-64.61214
-74.07347
-89.39492
-103.7885
-84.02606
-72.76896
-60.47307
-52.88266
-46.53664
-41.26508
-36.7275
-32.63382
-29.05754
-25.82553
-22.87984
-20.1929
-17.66137
-15.26428
-13.01852
-10.93451
-8.994507
-7.124244
-5.335176
-3.624239
-1.989242
-0.4327304
1.033073
2.477424
3.892813
5.276293
6.605462
7.85737
9.06656
10.25962
11.44038
12.60182
13.70721
14.77657
15.84426
16.88985
17.92942
18.95317
19.97347
20.97249
21.96453
22.92389
23.87622
24.81383
25.74781
26.66668
27.56846
28.47442
29.39879
30.32231
31.22227
32.10905
32.99428
33.90767
34.83828
35.75329
36.67254
37.60536
38.54206
39.49373
40.45142
41.41067
42.41056
43.50162
44.62261
45.73223
46.86287
47.99539
49.29045
50.96602
52.43912
-44.75747
-43.59918
-41.89969
-43.40807
-46.68274
-52.3784
-61.30312
-73.39286
-88.06219
-105.5487
-123.777
-141.319
-155.5874
-165.7034
-170.1827
-167.7153
-158.2661
-142.7791
-122.0563
-98.70352
-83.6127
-77.70468
-74.98505
-80.09336
-91.87692
-94.54353
-87.29747
-75.97332
-61.76774
-56.18247
-61.95073
-80.39265
-102.8233
-125.6756
-145.1871
-157.0461
-159.1305
-151.534
-138.0144
-127.4222
-128.418
-122.9795
-111.9604
-106.5564
-104.2977
-105.0015
-106.0813
-107.7356
-105.7109
-130.9178
-43.93963
-45.26546
-45.16722
-44.52133
-43.55893
-43.87782
-45.88553
-49.24958
-50.20133
-50.95502
-52.93991
-53.35882
-51.23389
-51.72545
-54.3987
-57.83858
-59.3219
-56.89392
-50.18782
-46.66102
-47.41585
-46.23514
-47.88912
-53.48
-61.4788
-71.87203
-80.85221
-73.97989
-63.39753
-60.19852
-61.74171
-71.93738
-90.79232
-104.4313
-90.05855
-66.02657
-66.66609
-75.21851
-78.54807
-79.66427
-80.56155
-82.25928
-84.75683
-87.17273
-89.15401
-90.73606
-91.95065
-92.83023
-93.47063
-93.87042
-94.04612
-94.03128
-93.84248
-93.50578
-92.98334
-92.3156
-91.53187
-90.61605
-89.53931
-88.34396
-87.09945
-85.77293
-84.41076
-83.00195
-81.4919
-79.93363
-78.40431
-76.86105
-75.31619
-73.7827
-72.25116
-70.74776
-69.28277
-67.8521
-66.41135
-64.97537
-63.56495
-62.20168
-60.8665
-59.72837
-58.71652
-57.81733
-56.95667
-56.24353
-55.76869
-55.696
-56.06574
-56.59291
-56.94617
-57.97066
-59.5341
-61.25988
-62.95886
-64.49164
-65.61317
-66.22909
-66.3971
-65.13914
-62.32739
-67.78593
-161.8786
-133.4051
-133.4442
-134.0671
-136.139
-133.8818
-130.9421
-125.9571
-128.179
-130.0622
-126.7966
-124.7377
-126.4366
-126.9159
-126.6531
-126.2193
-128.861
-131.7081
-131.755
-132.123
-135.3321
-140.0483
-143.8351
-145.6303
-143.8064
-139.106
-132.2544
-122.1318
-110.5404
-109.4071
-108.0932
-108.1654
-112.0096
-114.1073
-110.1686
-113.6048
-117.1182
-127.0684
-151.256
-167.4418
-170.3613
-165.5407
-155.5474
-142.063
-124.8142
-104.797
-87.54605
-72.96272
-60.88477
-50.86485
-154.6639
-135.3116
-133.2014
-133.2945
-136.1586
-134.4933
-131.4745
-126.3389
-128.3309
-130.3262
-127.0149
-124.812
-126.4409
-126.9501
-126.7329
-126.2958
-128.9601
-131.8298
-131.7868
-132.0733
-135.3308
-140.1361
-143.9473
-145.8067
-143.9459
-139.2085
-132.4579
-121.7614
-110.292
-109.3853
-107.6866
-108.1746
-112.6278
-113.9752
-109.7338
-114.111
-118.9253
-131.7783
-155.517
-169.5731
-171.3955
-165.6189
-154.9774
-141.0166
-123.4351
-103.0658
-86.04812
-71.66252
-59.56428
-48.77058
-43.50584
-44.98405
-45.23773
-44.70083
-43.70302
-43.8657
-45.69916
-49.16567
-50.15241
-50.78575
-52.96393
-53.63792
-51.46282
-51.79719
-54.34143
-57.8666
-59.70684
-57.71039
-51.1064
-46.98492
-47.50198
-46.37685
-47.91371
-53.32524
-61.25628
-71.85441
-81.91297
-75.86316
-63.41352
-59.95665
-61.58704
-71.51967
-90.75906
-105.5283
-90.98737
-65.83579
-66.00236
-74.84485
-78.436
-79.85125
-80.95759
-82.62249
-84.9771
-87.28838
-89.21802
-90.77899
-91.98389
-92.8561
-93.49769
-93.89614
-94.07052
-94.06028
-93.86881
-93.53264
-93.0057
-92.33063
-91.54131
-90.62498
-89.54629
-88.34133
-87.09701
-85.76657
-84.39741
-82.98707
-81.47479
-79.91192
-78.39108
-76.83287
-75.28312
-73.74756
-72.21351
-70.70875
-69.24018
-67.80892
-66.36627
-64.9285
-63.51104
-62.15286
-60.81292
-59.68297
-58.67154
-57.78072
-56.91929
-56.2133
-55.76193
-55.72411
-56.12094
-56.63925
-57.01065
-58.10962
-59.72347
-61.45381
-63.14529
-64.64436
-65.77381
-66.37531
-66.27622
-64.72179
-62.56102
-65.84609
-45.88284
-43.86213
-41.98929
-43.23974
-46.33959
-51.78988
-60.45633
-72.37674
-86.94666
-104.4649
-122.7861
-140.6599
-155.2069
-165.8579
-171.0224
-168.573
-159.485
-144.4037
-124.2678
-101.5613
-85.30996
-77.95222
-74.81819
-79.68514
-91.31457
-94.62539
-88.44298
-77.14209
-62.43119
-56.96456
-62.73181
-81.23715
-103.5593
-126.3344
-145.9036
-157.7496
-159.8108
-152.4835
-139.7624
-128.908
-128.1844
-122.3574
-111.6351
-106.4624
-104.3374
-105.0594
-106.0397
-107.609
-107.27
-124.8888
-84.20248
-72.8769
-60.76967
-53.07343
-46.70829
-41.39692
-36.83648
-32.72833
-29.12443
-25.88788
-22.93043
-20.23884
-17.70396
-15.29998
-13.04694
-10.95298
-9.015146
-7.14182
-5.349519
-3.634884
-1.998049
-0.4347616
1.028011
2.473813
3.891198
5.276303
6.611079
7.862856
9.070521
10.26436
11.44693
12.61291
13.71996
14.78613
15.85696
16.90277
17.94609
18.96976
19.98676
20.98437
21.98243
22.94291
23.89703
24.8344
25.76983
26.69065
27.59259
28.49783
29.42481
30.35243
31.25253
32.14031
33.025
33.94125
34.87831
35.79381
36.71312
37.65174
38.59089
39.54553
40.50706
41.47116
42.47499
43.58224
44.71525
45.81935
46.95192
48.09771
49.43111
51.07616
52.2018
49.59774
48.27326
47.16516
45.97124
44.75525
43.62145
42.51909
41.4701
40.52775
39.64283
38.69738
37.72912
36.77437
35.87091
34.99015
34.10878
33.20782
32.30126
31.42873
30.55876
29.66494
28.77189
27.88957
26.97992
26.09103
25.17107
24.20322
23.2596
22.3314
21.39555
20.4215
19.40828
18.41249
17.39217
16.32211
15.25607
14.18
13.04663
11.90168
10.75154
9.568995
8.305221
6.979493
5.656266
4.338216
2.946999
1.488512
-0.02030555
-1.617694
-3.281573
-5.002766
-6.798096
-8.610697
-10.59441
-12.70682
-14.90219
-17.27466
-19.74106
-22.4591
-25.40177
-28.5362
-31.93169
-35.77268
-40.08243
-44.96837
-50.47391
-56.90882
-64.85826
-74.4344
-89.50317
-103.7864
49.67651
48.41414
47.27926
46.09477
44.89964
43.77504
42.65736
41.59781
40.65588
39.77299
38.81898
37.85061
36.88849
35.97885
35.09266
34.21018
33.30452
32.38864
31.51436
30.64032
29.74062
28.84541
27.96264
27.04434
26.16011
25.23756
24.2596
23.31755
22.38645
21.44889
20.46734
19.46889
18.45887
17.43767
16.36155
15.29551
14.21651
13.07159
11.92579
10.77798
9.600381
8.32798
6.990419
5.667272
4.357488
2.957857
1.496438
-0.009429184
-1.615175
-3.284324
-5.013022
-6.814994
-8.610625
-10.61098
-12.7297
-14.92829
-17.31884
-19.7717
-22.51568
-25.47223
-28.6135
-32.00866
-35.87606
-40.22124
-45.11948
-50.65972
-57.14426
-65.12501
-74.79182
-89.47984
-103.7567
-84.39768
-72.89207
-61.06414
-53.27169
-46.91607
-41.55886
-36.96989
-32.8405
-29.20763
-25.97093
-22.99355
-20.29415
-17.75808
-15.34189
-13.07554
-10.96904
-9.041132
-7.163303
-5.364571
-3.642272
-2.002499
-0.4303477
1.026506
2.475137
3.895001
5.285559
6.63045
7.878949
9.085775
10.28492
11.46975
12.63891
13.74851
14.81096
15.88752
16.93283
17.98136
19.00547
20.02656
21.04466
22.03167
22.99145
23.94957
24.88968
25.8292
26.75385
27.65551
28.56349
29.49782
30.43333
31.33275
32.22347
33.10973
34.02937
34.97607
35.8933
36.81703
37.76329
38.70347
39.66048
40.62834
41.60064
42.60464
43.71993
44.86101
45.95316
47.08779
48.24234
49.57523
51.11127
51.86579
-46.99268
-44.25499
-42.1451
-43.08985
-46.00737
-51.15537
-59.53388
-71.22175
-85.67104
-103.2092
-121.5936
-139.91
-154.7468
-165.8429
-171.2092
-169.4739
-160.9686
-146.4514
-126.9392
-105.2156
-88.16984
-78.52997
-74.16741
-78.88529
-89.90123
-94.51448
-89.9061
-78.79813
-63.44898
-58.28129
-64.03767
-82.57629
-104.8776
-127.454
-147.0701
-158.927
-160.8804
-153.6857
-141.8531
-130.605
-127.3284
-120.5688
-110.9746
-106.3475
-104.3847
-105.1109
-106.029
-107.3049
-108.1033
-119.1484
-42.96607
-44.59949
-45.2764
-44.94847
-43.91414
-43.93087
-45.52703
-49.06942
-50.13921
-50.6577
-52.95578
-53.98524
-51.763
-51.9708
-54.37377
-57.93461
-60.16081
-58.74467
-52.40144
-47.52047
-47.51285
-46.43934
-47.92693
-53.1234
-60.98668
-71.84705
-83.14691
-78.11312
-63.3444
-59.31398
-61.26744
-71.00458
-90.447
-106.4344
-92.09076
-66.57401
-65.9668
-74.67031
-78.45296
-80.10784
-81.40646
-83.0056
-85.2146
-87.42435
-89.29659
-90.83358
-92.02861
-92.88883
-93.52941
-93.92077
-94.0911
-94.08193
-93.88466
-93.55197
-93.0201
-92.33739
-91.54337
-90.62643
-89.54292
-88.32165
-87.07809
-85.73888
-84.36046
-82.95542
-81.43967
-79.85899
-78.33117
-76.77977
-75.22263
-73.69091
-72.15384
-70.64444
-69.17319
-67.74852
-66.30532
-64.86499
-63.43835
-62.09693
-60.74834
-59.62972
-58.61839
-57.74301
-56.87757
-56.17914
-55.76548
-55.77223
-56.193
-56.698
-57.09389
-58.29359
-59.96568
-61.70146
-63.39189
-64.90672
-66.02812
-66.54909
-66.13073
-64.22975
-62.72228
-63.80737
-147.2673
-136.0251
-132.5831
-132.334
-136.128
-135.3534
-132.3678
-127.0335
-128.5931
-130.6394
-127.3032
-124.9725
-126.4814
-127.0161
-126.8629
-126.431
-129.1383
-132.0054
-131.8377
-131.9947
-135.3059
-140.2574
-144.0896
-146.0986
-144.2566
-139.5229
-132.8082
-121.3577
-110.1852
-109.3744
-107.203
-108.2883
-113.6017
-113.8645
-108.9623
-114.7524
-122.5793
-138.1164
-160.425
-171.84
-171.5097
-165.2095
-153.9465
-139.5007
-121.679
-100.9131
-84.17113
-70.00649
-57.87466
-46.77048
-139.1354
-135.1379
-131.6856
-131.1695
-135.925
-136.3229
-133.7671
-128.0584
-129.0086
-130.9434
-127.6066
-125.2442
-126.5612
-127.1033
-127.1005
-126.6847
-129.4208
-132.1897
-131.9076
-131.905
-135.2946
-140.4359
-144.2353
-146.5862
-144.8856
-140.1869
-133.4571
-121.3086
-110.3957
-109.267
-106.6737
-108.6351
-114.5991
-113.6779
-108.2156
-116.2646
-128.5392
-145.7421
-166.0297
-175.03
-172.6672
-164.9902
-152.7465
-137.6725
-119.6047
-98.20376
-81.46553
-67.77993
-55.81407
-45.15746
-42.36192
-44.10055
-45.22624
-45.24263
-44.17233
-44.10403
-45.41937
-48.96175
-50.22417
-50.64758
-52.92171
-54.1718
-52.15926
-52.2098
-54.5457
-58.00532
-60.69664
-60.00067
-54.02259
-48.34428
-47.25825
-46.16399
-47.7246
-52.74406
-60.47242
-71.60087
-84.54974
-80.41974
-63.54337
-58.66498
-60.75597
-70.22903
-89.93729
-106.8542
-93.47939
-68.9237
-67.15609
-75.03875
-78.67219
-80.40012
-81.91045
-83.43526
-85.50345
-87.61218
-89.42007
-90.92986
-92.10887
-92.94805
-93.59282
-93.98271
-94.13952
-94.13103
-93.92006
-93.59516
-93.05974
-92.37288
-91.57014
-90.64377
-89.55467
-88.31797
-87.07672
-85.72685
-84.3561
-82.95769
-81.42252
-79.81599
-78.30739
-76.73551
-75.1777
-73.65236
-72.09332
-70.58113
-69.11667
-67.70164
-66.24191
-64.80076
-63.36457
-62.05392
-60.67044
-59.57467
-58.55949
-57.70902
-56.82445
-56.14249
-55.7966
-55.85677
-56.28613
-56.77561
-57.25751
-58.5931
-60.31143
-62.03992
-63.71824
-65.21389
-66.31921
-66.74847
-65.9797
-63.93959
-62.73208
-62.07463
-48.13175
-44.85009
-42.40919
-42.96402
-45.62785
-50.34417
-58.62313
-69.92862
-84.19644
-101.7435
-120.1848
-138.8952
-154.2876
-166.2214
-172.4681
-170.9317
-163.1196
-149.1788
-130.1428
-109.4615
-92.1713
-79.99296
-74.22925
-77.89236
-88.38011
-94.33745
-91.70083
-81.10822
-64.94024
-60.29397
-65.97679
-84.49153
-107.2921
-129.5744
-148.7146
-160.6174
-162.4257
-155.1551
-144.1753
-132.2889
-126.0473
-118.0651
-110.0054
-106.3196
-104.4782
-105.2951
-106.1195
-106.9524
-107.938
-113.0901
-84.42684
-72.72884
-61.30834
-53.44501
-47.15866
-41.72523
-37.09076
-32.95183
-29.30876
-26.06742
-23.04637
-20.35364
-17.82399
-15.38067
-13.10393
-10.9985
-9.085457
-7.185534
-5.376736
-3.643277
-2.008837
-0.4330851
1.020829
2.470295
3.892817
5.298598
6.641165
7.882381
9.097494
10.29778
11.47072
12.64238
13.76946
14.82442
15.90698
16.94934
18.00653
19.0338
20.05635
21.06231
22.05299
23.0167
23.98389
24.92542
25.86409
26.78702
27.69424
28.60879
29.54211
30.47514
31.37295
32.27294
33.16065
34.08316
35.03919
35.96138
36.88581
37.83297
38.77671
39.74606
40.72251
41.70544
42.7041
43.837
45.00675
46.09173
47.23528
48.38247
49.66881
51.03797
51.42415
49.67364
48.52998
47.40263
46.22861
45.04385
43.92336
42.77037
41.68869
40.74734
39.87247
38.89322
37.92251
36.95499
36.05025
35.15364
34.26803
33.36237
32.44437
31.57572
30.69501
29.78704
28.89163
28.00922
27.07891
26.20424
25.27011
24.28315
23.34579
22.4169
21.48537
20.49103
19.46637
18.47878
17.45329
16.37179
15.32018
14.24808
13.09014
11.9418
10.78625
9.616905
8.347687
6.999573
5.662519
4.365318
2.963541
1.492671
-0.0096348
-1.61621
-3.284488
-5.023615
-6.852026
-8.625033
-10.64536
-12.7501
-14.95348
-17.38073
-19.80027
-22.5806
-25.53452
-28.70225
-32.0984
-35.98416
-40.35808
-45.269
-50.84755
-57.38643
-65.37969
-75.08178
-89.20414
-103.3231
49.541
48.56103
47.5185
46.39938
45.2647
44.19711
42.98632
41.8533
40.93182
40.10224
39.11754
38.10835
37.09153
36.19812
35.3243
34.4175
33.47219
32.53471
31.6962
30.81414
29.88584
28.9982
28.12323
27.15648
26.35239
25.37222
24.35459
23.43185
22.47109
21.57145
20.56336
19.57842
18.59802
17.53077
16.3902
15.34441
14.28348
13.129
12.00847
10.84055
9.621601
8.354237
7.053005
5.701422
4.370604
2.991983
1.51979
-0.03076623
-1.63386
-3.28083
-4.981216
-6.83518
-8.630318
-10.73043
-12.7893
-14.95213
-17.47756
-19.83698
-22.71704
-25.5858
-28.77093
-32.28638
-36.19152
-40.58171
-45.50113
-51.12968
-57.76376
-65.78362
-75.52113
-88.79931
-102.9216
-84.19834
-72.55196
-61.73163
-53.75208
-47.5645
-41.88019
-37.26392
-33.1623
-29.50297
-26.15482
-23.08499
-20.46496
-17.9088
-15.41443
-13.17584
-11.07056
-9.099232
-7.163348
-5.384569
-3.650392
-2.05054
-0.4584789
1.041425
2.44696
3.906002
5.322175
6.615125
7.912851
9.140122
10.3044
11.46607
12.70114
13.86675
14.85674
15.95574
16.99288
18.06976
19.09383
20.10691
21.10465
22.12941
23.11116
24.06926
25.00584
25.93017
26.88193
27.81044
28.69757
29.60925
30.58569
31.51891
32.40618
33.2906
34.19581
35.18344
36.12944
37.00525
37.99317
38.9715
39.92317
40.89514
41.88404
42.87113
44.05238
45.27988
46.29496
47.39868
48.48291
49.68676
50.88236
50.92032
-49.43425
-45.73132
-42.79462
-42.9934
-45.26244
-49.48768
-57.72667
-68.50379
-82.50318
-100.1634
-118.6994
-137.0052
-153.1264
-166.7829
-173.7965
-172.591
-165.8309
-153.0039
-134.5332
-114.5687
-97.71998
-83.21768
-75.46008
-77.19703
-86.98159
-94.73623
-94.1063
-84.24108
-66.86584
-62.83811
-69.07376
-87.83422
-110.3185
-132.8333
-150.8749
-162.4841
-164.4864
-156.8923
-146.7543
-133.8316
-124.48
-115.0487
-108.6885
-105.7864
-104.2324
-106.0275
-106.2057
-106.3479
-106.6535
-107.2428
-41.78443
-43.45313
-45.07166
-45.59664
-44.5976
-44.45087
-45.40706
-48.8414
-50.44353
-50.76554
-52.8282
-54.50588
-52.59682
-52.24613
-54.71413
-58.21358
-61.24366
-61.24019
-55.82027
-49.48565
-46.66639
-45.36807
-47.1996
-52.08053
-59.72162
-70.77974
-85.31621
-82.43442
-64.28712
-58.41433
-59.97523
-69.13172
-88.24357
-105.2995
-94.46636
-72.54268
-69.61869
-75.89394
-79.05878
-80.75218
-82.4396
-83.89611
-85.84227
-87.83582
-89.56833
-90.99269
-92.14616
-93.01651
-93.662
-94.05334
-94.18685
-94.19393
-93.96222
-93.65984
-93.11553
-92.42201
-91.57057
-90.63811
-89.57083
-88.3389
-87.06141
-85.72771
-84.36657
-82.88827
-81.32701
-79.7537
-78.2346
-76.64156
-75.12028
-73.5551
-71.96092
-70.50212
-69.06147
-67.61854
-66.12368
-64.71773
-63.29092
-62.00497
-60.54479
-59.5158
-58.4923
-57.6703
-56.7426
-56.11646
-55.87936
-55.97729
-56.39999
-56.89839
-57.57821
-59.05337
-60.78603
-62.48173
-64.17888
-65.64967
-66.68596
-66.95954
-65.76287
-63.42393
-62.40447
-60.85786
-131.486
-132.1493
-130.8956
-131.3451
-136.4836
-138.198
-135.3484
-128.8133
-129.0539
-131.4753
-127.9195
-125.6594
-126.7062
-127.264
-127.4984
-127.0775
-129.6292
-132.5877
-131.9995
-131.8248
-135.3009
-140.7963
-144.4377
-147.3943
-146.1268
-141.5922
-135.1985
-122.2545
-111.4198
-108.8391
-106.2
-109.3492
-117.7118
-114.6159
-107.9765
-120.646
-137.5676
-154.4375
-171.9165
-178.3745
-172.6261
-163.4117
-150.7172
-135.2036
-117.1314
-94.83939
-78.08809
-65.39125
-53.6311
-43.55538
-0.3106947
-0.07398857
2.99827
4.112753
-25.91165
-1.762822
-16.88502
3.788276
1.891142
0.3874511
5.075837
-97.48657
-0.1049033
4.183475
6.514587
4.211586
6.523185
0.3113888
3.679686
2.443523
3.463143
3.6649
-11.6634
3.537588
-0.8848976
4.360371
3.471751
3.205032
3.861982
-1.135123
1.33662
-0.1725378
-10.43096
0.1314579
4.264106
-0.9152139
-1.680694
5.220864
-1.932351
4.44939
5.266913
-0.09701559
-3.637797
-25.8532
0.6889571
-109.0807
-0.3285482
-0.1208934
-0.3987222
5.524265
1.060707
-3.711903
0.7486415
-7.044164
4.306238
0.08993891
1.09288
1.107317
-0.3475503
-0.08781165
-32.86466
3.380605
-1.950752
-8.102333
5.789805
-15.25694
-1.569197
7.067578
5.207624
2.441129
-26.29103
-2.69881
4.514949
3.00282
3.110001
3.25049
2.699256
2.515513
-0.5695242
3.454893
-5.870893
2.373035
-3.886242
-1.862035
-19.82226
-24.82797
6.766056
-11.21932
-1.087749
0.4555138
5.302004
5.7011
4.467039
3.320105
-5.345349
0.9375099
4.509603
3.8797
-60.67447
-0.03780582
-2.745684
-6.807908
6.031785
-13.33652
1.642988
4.056863
1.328078
4.446787
5.341483
3.864833
-0.08943342
-74.87127
-21.18199
2.563093
4.024999
-0.09383761
-1.736365
-23.00638
5.595513
2.955233
-0.1061801
3.349173
-1.243926
-14.57877
3.820603
1.139152
-0.3231139
-135.7088
-264.0493
-1.584473
9.51265
6.038551
4.087801
4.334864
4.025701
-0.4268832
0.9624411
-24.50745
0.3460147
5.165855
4.114742
5.722873
4.174407
0.3100124
0.0647981
-13.20028
4.179945
-0.2291749
-4.574063
-18.31503
-37.17933
-176.1079
-1.075809
3.956305
7.0408
3.765965
-14.23583
6.662501
0.5481431
1.66602
7.97286
3.975725
0.93858
-8.391422
5.872148
-0.2402414
-0.006488731
5.139843
0.6796234
2.817749
-43.80052
-7.337715
-20.92414
1.501902
-0.8079569
0.3513738
-0.5246605
0.4532946
-1.96141
-2.564044
-3.361329
4.397647
0.9611869
2.891997
0.3473363
1.915967
4.735654
4.526459
5.662058
-0.3589944
0.9492698
-1.150369
2.563254
-179.2865
-6.316551
-0.01855476
1.855992
0.9541046
3.635005
0.09269907
-37.12037
0.6660131
0.4639347
7.316051
0.4357907
2.833514
3.466479
4.15855
-0.09746478
0.7110572
-7.544163
0.03308723
6.468292
4.40924
-2.629887
-1.212641
1.30527
-1.637298
3.466732
-12.38859
2.491278
0.8954108
3.853689
-79.44395
17.21881
-30.20841
3.018651
0.03316753
0.9891497
0.6154421
-14.49314
1.722008
0.1086404
4.389462
-29.30769
-21.71402
3.654709
3.559382
-50.41286
-24.20027
1.74407
-10.39055
-6.464625
0.2999495
-23.08615
-1.536197
3.463214
0.9712118
1.79744
3.561299
3.562386
-152.5554
6.298921
1.074494
-0.1949264
2.805903
1.147156
3.408373
1.997961
1.001258
3.420371
-5.964505
3.098565
-46.36773
4.59075
2.26918
-46.37764
-136.3295
3.930694
0.7258037
5.192327
-62.4039
-1.52624
-2.473416
5.884433
-183.0198
4.397814
-17.5869
-4.30189
-4.513643
0.6715661
1.63541
3.593908
1.015452
5.967032
-14.20576
1.177251
4.601015
4.849699
2.248863
-50.00567
9.659153
-47.07469
3.961527