/*--------------------------------*- C++ -*----------------------------------*\
| =========                 |                                                 |
| \\      /  F ield         | OpenFOAM: The Open Source CFD Toolbox           |
|  \\    /   O peration     | Version:  2406                                  |
|   \\  /    A nd           | Website:  www.openfoam.com                      |
|    \\/     M anipulation  |                                                 |
\*---------------------------------------------------------------------------*/
FoamFile
{
    version     2.0;
    format      ascii;
    arch        "LSB;label=32;scalar=64";
    class       volScalarField;
    location    "3.7";
    object      p;
}
// * * * * * * * * * * * * * * * * * * * * * * * * * * * * * * * * * * * * * //

dimensions      [0 2 -2 0 0 0 0];

internalField   nonuniform List<scalar> 
15536
(
-6.718894
-10.31982
-12.04517
-12.13229
-11.90688
-12.24953
-13.6736
-16.13115
-19.60933
-23.14609
-25.80301
-27.68103
-29.05461
-29.39748
-28.59303
-27.01126
-24.97694
-22.85367
-21.71299
-21.11916
-20.50489
-22.77715
-29.13389
-38.41108
-51.47008
-70.01506
-98.53171
-113.5136
-87.18168
-22.94599
-23.96986
-42.56114
-53.83351
-65.3045
-91.42341
-127.6933
-131.0813
-99.69503
-88.22196
-92.57407
-95.54617
-99.87607
-102.8036
-104.0051
-104.1233
-103.1594
-101.2698
-98.41673
-95.08555
-91.41659
-87.08415
-82.19343
-76.70554
-70.86493
-64.61629
-58.03311
-51.43962
-44.75451
-37.74606
-30.59548
-23.57838
-16.7056
-9.877013
-3.151063
3.342427
9.689537
15.73211
21.44582
26.72577
31.57303
35.9468
39.84828
43.24453
46.06421
48.26817
49.95841
50.99982
51.4444
51.3356
50.73111
49.37457
47.34664
44.72451
41.51296
37.73321
33.40538
28.60127
23.22916
17.4575
11.3321
4.695253
-2.257689
-9.461484
-17.10737
-24.90619
-32.64929
-40.57344
-48.65864
-56.70842
-64.81505
-72.80731
-80.49446
-87.83214
-94.91544
-101.8798
-108.3959
-114.4436
-119.9758
-125.0168
-129.6509
-133.5695
-136.6925
-139.0889
-140.7565
-141.5861
-141.3251
-139.8157
-136.7116
-131.8455
-125.4719
-120.2687
-116.5639
-132.6723
-160.2249
-149.113
-107.9075
-78.46852
-59.45893
-34.28899
-30.68235
-109.99
-156.5872
-130.5194
-90.54973
-58.54718
-38.37787
-23.50625
-9.736195
-6.215437
-8.678124
-6.311066
-15.66135
-28.8876
-33.77173
-28.94905
-18.91249
-13.10049
-11.69005
-14.99637
-17.10186
-20.77932
-18.47358
-15.09511
-14.02885
-4.396225
0.158484
-2.935855
-6.701817
-10.26269
-11.92143
-12.0176
-11.83315
-12.20961
-13.65929
-16.12886
-19.61406
-23.14631
-25.80559
-27.68304
-29.05905
-29.40136
-28.58954
-26.99634
-24.95431
-22.81533
-21.65676
-21.06026
-20.46392
-22.77924
-29.15773
-38.41592
-51.43614
-69.93717
-98.46856
-113.677
-87.53234
-22.85268
-24.06524
-42.6619
-53.90933
-65.31676
-91.44485
-127.6794
-131.0454
-99.53012
-88.1601
-92.39459
-95.09408
-99.1066
-101.7408
-102.7427
-102.7805
-101.787
-99.88668
-97.03514
-93.71453
-90.07399
-85.77422
-80.92387
-75.4798
-69.69101
-63.50041
-56.97725
-50.44462
-43.82514
-36.88749
-29.80405
-22.85462
-16.05027
-9.286943
-2.626018
3.803771
10.08724
16.06824
21.72571
26.95419
31.75329
36.08428
39.94829
43.31204
46.10674
48.28988
49.96556
50.99909
51.441
51.33351
50.73351
49.38765
47.37899
44.78217
41.60148
37.85841
33.5735
28.81714
23.49856
17.78757
11.72259
5.151792
-1.727086
-8.859339
-16.43611
-24.15407
-31.8178
-39.66433
-47.66794
-55.6367
-63.66346
-71.57757
-79.18711
-86.45102
-93.46933
-100.3735
-106.8292
-112.8248
-118.3082
-123.3082
-127.9112
-131.8022
-134.911
-137.3136
-138.9983
-139.8638
-139.6645
-138.2712
-135.393
-130.8896
-124.9158
-120.0712
-116.5124
-132.4211
-160.1513
-149.1695
-107.942
-78.55796
-59.62179
-34.51358
-30.57372
-110.2524
-156.8201
-130.2427
-90.2374
-58.34608
-38.30598
-23.56673
-9.843888
-6.229504
-8.611995
-6.257392
-15.63386
-28.86688
-33.69313
-28.92224
-18.93898
-13.12651
-11.718
-14.98593
-17.10278
-20.77814
-18.52814
-15.14507
-14.04217
-4.362965
0.1796882
-2.93799
-6.818264
-10.29928
-11.89305
-11.96995
-11.79905
-12.19314
-13.66084
-16.1351
-19.62843
-23.15585
-25.82111
-27.6929
-29.07929
-29.42314
-28.59916
-26.99227
-24.94511
-22.77918
-21.58568
-21.00179
-20.44597
-22.83346
-29.22813
-38.44205
-51.40901
-69.91431
-98.70114
-114.6329
-89.10849
-23.05164
-23.92814
-42.5927
-53.89196
-65.36964
-91.63791
-128.2153
-131.3513
-99.87573
-88.06918
-91.96452
-94.55492
-98.30268
-100.8088
-101.8594
-101.9541
-100.985
-99.12083
-96.28762
-92.97903
-89.36575
-85.07833
-80.25378
-74.83498
-69.07472
-62.92076
-56.41322
-49.90843
-43.32989
-36.41808
-29.36443
-22.44678
-15.68111
-8.954882
-2.321932
4.068942
10.32428
16.27227
21.89958
27.09923
31.87141
36.17566
40.01562
43.35774
46.13672
48.30191
49.96649
50.99317
51.43211
51.32641
50.73107
49.393
47.39963
44.82063
41.66077
37.94214
33.68387
28.95808
23.66596
17.9889
11.95958
5.41925
-1.421351
-8.513466
-16.05591
-23.73483
-31.35293
-39.16372
-47.13228
-55.05446
-63.05669
-70.9339
-78.51235
-85.74664
-92.71956
-99.59199
-106.0097
-111.9799
-117.4359
-122.41
-126.9968
-130.8606
-133.941
-136.3138
-137.9702
-138.8002
-138.5563
-137.0803
-134.1595
-129.8222
-124.2377
-119.6912
-116.5755
-132.8199
-160.4157
-149.6155
-108.1524
-78.56076
-59.5572
-34.37022
-30.792
-112.0815
-158.3464
-130.4298
-90.12107
-58.18405
-38.25297
-23.73208
-10.12731
-6.363554
-8.701278
-6.35982
-15.83904
-29.01523
-33.78412
-29.00934
-19.03341
-13.19883
-11.80832
-15.0674
-17.2297
-20.88076
-18.76439
-15.32588
-14.15963
-4.249273
0.2913858
-2.928438
-7.024274
-10.32699
-11.81308
-11.90812
-11.7679
-12.18478
-13.67464
-16.1525
-19.65801
-23.17609
-25.85061
-27.72018
-29.12447
-29.47093
-28.62644
-26.99881
-24.9516
-22.76265
-21.5184
-20.93264
-20.42123
-22.93406
-29.3305
-38.46693
-51.3784
-69.97256
-99.29588
-116.377
-92.26799
-23.65768
-23.42965
-42.15745
-53.67701
-65.39735
-91.6228
-127.7386
-131.0431
-100.8053
-88.4154
-91.4537
-93.77733
-97.15516
-99.39611
-100.2047
-100.1806
-99.17885
-97.3429
-94.53628
-91.25041
-87.68956
-83.47401
-78.72446
-73.37787
-67.69293
-61.6219
-55.19818
-48.77075
-42.27977
-35.46644
-28.48968
-21.64996
-14.96865
-8.325644
-1.765238
4.545905
10.73338
16.61374
22.18397
27.32654
32.04614
36.30462
40.1059
43.41419
46.17011
48.30971
49.96054
50.97923
51.4149
51.31188
50.72152
49.39091
47.41926
44.86578
41.73675
38.05656
33.84391
29.17287
23.93156
18.32364
12.36261
5.888534
-0.8640841
-7.874617
-15.3452
-22.92128
-30.4431
-38.16786
-46.0336
-53.85492
-61.76056
-69.53869
-77.00877
-84.13567
-91.0268
-97.81592
-104.1358
-110.0258
-115.3947
-120.3019
-124.8334
-128.6485
-131.6821
-134.0182
-135.6754
-136.5313
-136.3399
-135.0525
-132.3529
-128.3388
-123.2779
-119.2371
-117.0246
-133.1341
-159.1735
-148.4304
-107.861
-78.32811
-59.06949
-33.78745
-31.6608
-115.62
-160.9189
-131.0006
-90.13642
-58.01644
-38.19046
-23.95838
-10.56095
-6.618479
-8.921736
-6.767147
-16.36223
-29.31385
-33.91977
-29.24187
-19.24921
-13.3522
-11.98025
-15.2437
-17.56381
-20.8963
-18.92922
-15.73638
-14.45711
-4.10186
0.4042076
-3.010532
-7.300756
-10.39672
-11.79452
-11.87375
-11.76099
-12.19916
-13.71534
-16.19743
-19.71541
-23.22336
-25.90831
-27.77956
-29.20335
-29.55438
-28.67726
-27.01674
-24.97215
-22.77082
-21.4462
-20.81067
-20.33372
-23.04962
-29.43216
-38.46132
-51.35414
-70.21027
-100.3547
-119.0149
-96.84504
-25.01509
-22.88632
-41.41404
-53.28007
-65.28249
-90.65309
-124.2471
-127.5985
-100.9008
-89.13919
-90.96394
-92.92135
-96.00899
-98.11017
-98.87983
-98.9538
-97.94047
-96.12767
-93.31472
-89.988
-86.47931
-82.25429
-77.53898
-72.20266
-66.56233
-60.55358
-54.1526
-47.77292
-41.36341
-34.61172
-27.68105
-20.9025
-14.30115
-7.728088
-1.219773
5.01346
11.14614
16.96309
22.47605
27.55718
32.22796
36.43972
40.19973
43.46626
46.19596
48.30687
49.94143
50.95199
51.38441
51.28507
50.69798
49.37188
47.43072
44.91094
41.81679
38.17751
34.01028
29.39574
24.20247
18.66964
12.77113
6.346772
-0.3120763
-7.242569
-14.67298
-22.15985
-29.58795
-37.25228
-45.04794
-52.77382
-60.62889
-68.34446
-75.74845
-82.81595
-89.64284
-96.39973
-102.6576
-108.5237
-113.8537
-118.7296
-123.284
-127.045
-130.0807
-132.4483
-134.1059
-134.9576
-134.7405
-133.3345
-130.6501
-126.8602
-122.2371
-118.7403
-117.4735
-131.5692
-153.3742
-143.4379
-106.4054
-77.85954
-58.42174
-33.42851
-34.01048
-120.2006
-164.4832
-132.0854
-90.32438
-57.84831
-38.07478
-24.12352
-10.99064
-6.827819
-9.168962
-7.518452
-17.20706
-29.8149
-34.28808
-29.68294
-19.63713
-13.62562
-12.24599
-15.57457
-17.95393
-20.43161
-18.63763
-16.38938
-15.06384
-4.042608
0.4059808
-3.292323
-7.644001
-10.47881
-11.80362
-11.86042
-11.78036
-12.24555
-13.80136
-16.29013
-19.81651
-23.30675
-25.97385
-27.88499
-29.34043
-29.69251
-28.76572
-27.05216
-25.00278
-22.78883
-21.32999
-20.53623
-20.09479
-23.14491
-29.48385
-38.38036
-51.35804
-70.76073
-101.9056
-122.4702
-102.5956
-27.84436
-23.06389
-41.05674
-52.95907
-65.06232
-88.61173
-117.351
-120.3253
-99.2517
-89.49249
-90.22147
-91.75418
-94.41798
-96.24889
-96.71506
-96.62182
-95.56274
-93.8676
-91.10988
-87.81937
-84.45186
-80.31037
-75.71405
-70.46318
-64.90833
-59.00278
-52.67818
-46.40638
-40.1225
-33.46039
-26.61248
-19.94318
-13.44377
-6.967656
-0.5336588
5.588523
11.65109
17.37881
22.804
27.81723
32.43944
36.59275
40.30035
43.50951
46.21604
48.29035
49.90045
50.90422
51.33268
51.2373
50.65239
49.33258
47.42559
44.95194
41.90341
38.31406
34.20267
29.65038
24.50658
19.08338
13.27329
6.889963
0.3445435
-6.441509
-13.81164
-21.19194
-28.47531
-36.02937
-43.72942
-51.32631
-59.06991
-66.66992
-73.95467
-80.88526
-87.59969
-94.2781
-100.3923
-106.168
-111.3728
-116.1503
-120.6163
-124.2848
-127.2126
-129.3977
-131.0659
-131.9423
-131.8068
-130.6737
-128.2066
-124.814
-120.7798
-117.8648
-117.2887
-128.2615
-144.8154
-136.3096
-104.2232
-77.51258
-58.61233
-34.45598
-38.90393
-125.2907
-168.7431
-133.8165
-90.69198
-57.66852
-37.87324
-24.07259
-11.25762
-6.577202
-9.116735
-8.550868
-18.39836
-30.61887
-34.93345
-30.44444
-20.20856
-14.02694
-12.64443
-16.09493
-18.27671
-19.3963
-17.804
-17.32233
-16.14184
-4.268358
0.04451326
-3.79493
-8.09678
-10.63794
-11.87155
-11.89874
-11.85577
-12.34564
-13.94594
-16.4356
-19.92656
-23.48813
-26.18052
-28.08711
-29.57934
-29.90842
-28.91138
-27.12021
-25.0452
-22.7875
-21.12962
-20.05671
-19.65144
-23.15296
-29.37392
-38.07815
-51.4031
-71.47618
-103.9598
-126.6731
-108.6694
-33.08049
-24.84359
-41.36141
-52.90303
-64.89023
-86.19582
-109.9215
-112.4525
-96.75289
-89.25598
-89.30177
-90.52396
-92.79745
-94.49865
-94.78602
-94.92678
-93.69238
-91.97161
-89.17363
-85.79934
-82.53484
-78.37209
-73.88652
-68.6558
-63.11981
-57.34336
-51.13924
-44.93341
-38.71144
-32.18698
-25.47118
-18.88353
-12.4312
-6.130071
0.2340572
6.221127
12.21494
17.81871
23.15581
28.16154
32.67877
36.74243
40.37746
43.53089
46.26107
48.25624
49.8364
50.83109
51.25052
51.15954
50.59435
49.29383
47.3781
44.93949
41.95176
38.43029
34.41481
29.94583
24.82695
19.52188
13.85581
7.560384
1.061621
-5.610018
-12.80525
-20.09398
-27.27431
-34.69246
-42.20539
-49.75799
-57.41526
-64.83164
-72.04258
-78.81884
-85.4304
-92.0761
-98.04979
-103.8
-108.8856
-113.6421
-118.1661
-121.7448
-124.699
-127.1113
-128.7931
-129.671
-129.461
-128.26
-125.8563
-122.778
-119.2538
-116.7674
-116.5089
-124.6197
-136.5407
-129.3638
-101.8657
-77.33524
-59.66791
-37.80592
-46.41438
-130.7589
-172.5989
-136.4261
-91.38975
-57.29882
-37.54057
-23.76287
-11.27915
-5.435187
-8.229049
-9.826472
-19.89548
-31.86647
-36.16705
-31.81407
-21.12237
-14.63094
-13.31884
-16.89444
-18.67399
-18.19705
-16.70416
-18.68703
-17.79105
-5.057938
-0.9357101
-4.533204
-8.671914
-10.87652
-12.09135
-12.07872
-12.06038
-12.53956
-14.14302
-16.62291
-20.05088
-23.88653
-26.35749
-28.40769
-29.97193
-30.20253
-29.16178
-27.24707
-25.12211
-22.78797
-20.88848
-19.52008
-18.94633
-22.80962
-28.8918
-37.38582
-51.54483
-71.63059
-106.4697
-132.7143
-114.7097
-40.01915
-28.56222
-42.61078
-53.10293
-64.60926
-83.2703
-102.7613
-105.4817
-94.23576
-88.3137
-87.91876
-88.81132
-90.55502
-92.19225
-91.8833
-91.78955
-90.73806
-89.14896
-86.59747
-82.9964
-79.92812
-75.90524
-71.60281
-66.33922
-60.88496
-55.47324
-49.43534
-42.98782
-36.94267
-30.8171
-24.26682
-17.50709
-11.17945
-5.27984
1.112997
6.884339
12.85294
18.21824
23.63944
28.64892
32.90989
36.85713
40.39319
43.52832
46.30063
48.15892
49.75689
50.72642
51.1324
51.05591
50.53405
49.21886
47.2896
44.84083
41.92737
38.48623
34.59021
30.32317
25.1893
19.96969
14.47736
8.519443
2.080592
-4.8556
-11.72695
-18.631
-25.96096
-33.2982
-40.32169
-47.70856
-55.68123
-62.59347
-69.81123
-76.39021
-82.79873
-89.43903
-95.12149
-100.9142
-105.7041
-110.2973
-114.872
-118.2574
-121.094
-123.1575
-124.7666
-125.7248
-125.6255
-124.6777
-122.5019
-119.9922
-117.1034
-115.1313
-115.103
-121.0264
-128.8126
-122.2235
-99.30488
-77.41203
-61.0994
-43.34127
-55.37294
-135.3415
-173.8394
-139.1016
-92.39614
-56.45777
-37.19578
-23.16987
-10.89072
-3.266755
-6.363639
-11.20614
-21.83933
-34.04311
-38.33936
-34.10033
-23.13605
-15.84852
-14.68116
-18.21029
-19.32432
-16.97302
-15.34979
-20.89171
-20.16428
-6.594194
-2.781115
-5.583552
1.958111
1.524724
-35.30276
-14.34866
11.12169
-13.43854
0.5441462
1.946051
9.934775
-0.3056505
0.9250076
1.657288
0.9828497
1.479481
1.661213
3.109486
-11.28912
-2.290855
1.17627
1.639174
-63.10453
3.013941
2.517499
-0.5596802
1.804332
2.285088
0.8008608
-0.2871912
-5.951169
2.011667
2.723044
-20.96468
0.4737006
2.979905
1.271544
-4.104681
-5.05021
0.4585486
0.7475419
-5.361111
-23.33992
2.444134
1.375498
3.355593
32.82895
1.852815
0.7504712
1.327243
-10.25609
-0.02050912
-3.327935
-4.087831
-21.12552
0.9562098
0.2445118
21.88936
-6.835488
1.049064
-12.60147
-17.81633
-0.3472172
0.01991451
-13.99193
2.258707
-2.655933
2.472344
-31.34343
3.062133
2.736802
3.508828
0.7966063
0.7924091
17.83765
8.536773
21.64622
1.582926
4.221545
-2.06437
3.31491
1.206938
-17.6753
0.2971244
3.450693
0.9127098
-12.55881
2.291061
0.9774965
1.367715
-37.75891
-2.304494
-19.43908
21.79196
-6.739842
0.7462675
2.188797
1.854956
-30.8259
5.766664
-51.03243
2.417232
2.472381
1.476837
1.380925
-96.63079
1.769589
-17.50586
0.5279505
1.882488
-3.752692
-27.5382
1.355745
0.9588677
0.9713129
7.278401
-21.7472
-0.5824301
0.3340523
2.671295
19.80091
1.728977
4.223223
0.7394318
0.5032302
3.213557
4.565648
-4.285513
1.610442
-41.00892
2.862904
2.059673
0.4496099
-9.062559
1.241404
1.831181
0.9709009
-25.72144
0.3004359
6.088285
2.477461
0.416727
-39.06306
1.139737
-71.26347
1.612084
-2.916574
2.167413
1.545634
-47.54895
1.96858
0.9194782
0.6320315
-19.17441
-18.52086
3.311723
-12.54255
-56.34874
2.077487
0.950169
1.150921
-31.46686
1.417448
-28.82457
-5.182342
0.4929999
2.712987
-38.73058
-22.90781
2.272997
-32.12656
5.685367
1.248316
17.09577
5.344834
-44.77645
-5.544257
-11.74081
2.666611
1.943223
-58.29034
-4.650202
15.3492
1.481439
2.74535
1.729048
3.537665
-50.33648
1.844124
1.330705
-8.813496
2.104853
1.296543
2.074778
-10.87353
-0.5056373
-0.8783155
2.004308
3.34697
0.9137443
-6.204938
-35.84635
1.373682
-5.613097
1.776517
-22.70193
0.1761657
-0.9158052
-7.253079
3.056782
-8.818711
-5.036545
2.123972
-2.538313
-16.58355
-5.687531
1.242131
-7.003829
-11.03635
1.595232
3.11923
1.19487
3.139599
-25.31759
3.184925
-11.09962
-1.722872
0.9721612
2.307934
7.794665
-1.866334
18.2378
-0.1994259
-40.501
3.195327
5.59628
-85.53992
1.571878
25.88254
-0.2944144
2.702124
0.7265636
1.707968
2.255262
6.030155
-8.988637
1.658556
-42.45332
2.245357
-43.76996
0.4553615
0.9868022
-34.61585
1.564727
1.046119
1.665444
3.249158
-27.40807
1.642297
0.6368366
-2.193328
-2.931441
-4.627763
0.2483855
-9.715962
-8.131491
0.7672238
2.656987
2.065827
1.934436
9.193278
-27.45762
0.7988116
1.218219
12.32429
0.7232721
-1.122057
3.53191
2.136852
-28.05012
-51.73101
1.515067
2.339441
1.507591
2.623973
2.881641
2.692504
1.605715
35.23481
1.252954
2.374172
4.511917
1.680322
6.591146
1.927191
2.157753
-38.15571
0.3393139
-12.45512
-0.1371497
2.219865
0.6638642
-46.182
3.169795
-0.3524936
-52.00533
0.4346602
2.36406
4.463832
2.156747
0.3611126
-3.396689
7.463516
0.5998948
2.955369
0.6711612
0.6460222
-13.06936
34.06722
-65.87435
-33.44544
-68.04423
0.0758907
-3.109989
0.6965908
-2.859944
0.1117028
-1.392783
2.222804
0.315939
1.974449
1.502533
17.82161
0.863424
-7.517574
-39.98531
2.571908
2.303803
2.946145
-5.398424
-4.721027
-0.2338271
-46.75606
-1.14385
1.291623
1.860644
-13.53228
4.401652
-54.33266
1.167795
-11.1343
0.1743695
-0.4082993
-5.131386
12.97804
1.059463
-0.3404058
-34.57829
-57.66697
-2.364579
1.827008
2.779624
1.774589
-1.356497
-3.583833
2.583216
1.749771
2.434597
2.11795
1.845995
2.394999
1.955401
-2.722201
12.25578
-40.98986
2.055589
2.430068
1.683407
1.325434
3.567785
1.517569
1.654124
2.530785
2.12288
2.744682
-12.67002
1.733729
1.676111
1.335553
37.1775
2.491632
3.292988
-6.194056
1.714288
2.614946
-64.44966
3.488217
0.2770124
1.453492
-5.42159
2.587288
1.917395
2.42984
1.607102
-30.58233
-5.650952
2.854956
-2.775945
-37.40723
-55.64214
2.285565
2.265488
1.330261
0.809957
5.10686
1.67778
2.366672
0.501569
2.28194
-14.04877
0.9625245
-17.08857
2.253594
1.765268
4.159531
2.819474
1.142254
-27.49811
0.9780193
1.681665
-29.62532
-3.509469
9.292686
0.0882109
-0.6935636
1.467141
2.796566
2.459999
3.84499
-5.247266
1.486364
1.574747
2.872266
5.835879
3.299697
1.831982
-4.305044
2.137839
0.209137
-1.853095
-7.537742
0.7958706
2.116599
-42.13766
0.9767603
-9.116691
2.405618
1.760132
-0.3002929
4.803267
1.847857
-22.51216
2.114177
-37.60518
0.855125
2.583697
1.669826
3.275447
25.8003
1.74436
3.738322
-0.7532185
-10.26546
0.8350744
1.993152
7.637457
-4.040835
-7.627861
-8.897941
-36.14836
0.3855945
1.677292
-18.26073
-0.4613718
2.53819
1.772321
1.031835
2.471108
-1.614321
16.10839
0.3427268
2.058711
3.289216
-25.71745
-0.1385962
-4.612979
-19.78282
2.268619
1.509934
4.07087
2.47035
3.891939
2.970091
1.798475
0.7710169
-4.397914
2.590009
1.924233
1.798904
-2.005157
-7.245956
-3.209458
-24.32313
3.126685
14.54083
-1.521908
2.716243
2.864969
1.957621
3.26794
3.431176
1.361371
2.387262
1.728576
-5.505098
0.4073446
1.608544
1.796601
1.01475
4.941404
0.801542
0.9571465
-28.7168
-1.756477
-24.56205
0.4357414
4.258343
4.555141
3.598558
0.6351444
2.362853
0.8504079
4.603761
2.258909
0.9799553
1.948491
-50.97106
2.91481
3.958754
2.042728
-0.4636184
7.774385
2.685707
5.315891
-3.077275
-2.390191
-10.53688
5.389333
1.290326
13.62132
15.57392
-5.089879
0.8070138
1.653189
1.411333
1.747639
0.4936227
1.643874
1.767886
7.126662
30.87843
-1.009761
2.077002
4.496279
4.164181
-67.4486
1.272128
3.100631
1.538507
3.02983
2.508674
3.340738
-0.268144
3.291842
5.862448
1.353478
-12.20554
-24.60748
1.957888
1.409601
-88.17364
-3.634438
1.000689
-21.1257
2.686189
0.2025314
1.794639
0.7029027
2.357553
-55.77718
1.347422
2.1243
2.053302
2.823728
0.719074
2.057988
1.785224
-17.08536
-7.737683
1.79814
-20.79209
-0.1471566
4.79962
3.171455
-53.30543
1.462062
8.589808
-10.04791
0.6743291
-0.1900056
-7.566781
4.082522
1.319265
-1.806229
1.944563
-0.4662444
1.548664
17.57566
2.895152
1.361302
2.859316
-1.345826
2.946413
-44.1891
-15.60763
-15.42728
-44.09657
-8.916089
-10.93441
1.88913
0.1576445
1.918678
1.978452
-6.61929
1.331054
-8.047855
3.255641
1.29634
1.973728
-33.87865
2.306807
25.1743
4.30773
-29.91095
-4.733439
14.55644
6.990441
-2.22677
-23.80446
1.404417
1.834124
-16.05397
1.029618
1.056377
1.128665
2.961794
3.274379
0.1896247
-17.1103
2.425474
1.494704
-2.023531
1.572689
1.381963
-94.33401
1.567089
1.374997
3.892323
-35.40357
-2.615392
0.8061143
5.610356
13.74915
9.02438
2.466743
-15.052
1.797728
-4.704278
2.356336
-2.35935
3.05807
2.715321
-20.78622
0.6103038
-17.84416
2.712447
2.813012
1.500831
-39.41947
2.25311
1.656452
0.8727152
0.1819497
-12.42317
-0.1322086
-2.526557
4.212612
-12.79207
2.249604
1.976429
-20.93658
-16.92429
1.520416
1.208858
3.737879
0.8796039
-2.932922
1.26812
1.878449
-51.36697
2.787642
-6.519513
2.03967
0.6979588
1.211981
1.852463
3.180133
2.089855
1.797676
-29.01596
1.833791
1.727702
1.508517
1.658567
2.324984
1.863705
2.849413
1.660302
1.7055
4.03129
-40.61709
1.41185
2.75216
-0.7166649
1.336551
1.571289
2.656204
3.279074
-56.62282
2.913285
1.535207
8.216918
-1.468353
-9.972805
-7.307457
-24.20467
0.5055893
-13.56519
0.03081311
-8.726834
-16.17469
-5.852327
-3.941129
0.7200814
2.425441
12.63284
1.872372
2.284079
-37.95185
0.8159534
2.256227
1.907892
-11.52795
22.5987
5.196971
1.052751
2.666189
1.423335
2.30477
0.7626628
1.80378
2.248539
2.569929
-0.8382
1.504477
-0.5924946
4.422121
1.796099
1.017199
-3.293248
2.915069
1.159955
0.2956891
22.91654
30.53377
-3.515165
0.8592432
1.837958
1.923608
0.9595673
2.147198
-35.34326
1.625972
-11.66475
-4.487102
0.9397158
-4.419868
1.075525
-4.723659
1.283308
0.8619456
1.387361
1.558105
-6.107781
-50.88413
3.089238
-0.3423233
0.4668339
2.103124
0.1824438
2.61212
-12.57464
-2.4561
15.16661
2.894544
1.756333
1.07051
0.8457069
2.360253
0.9282802
6.535676
1.445061
-25.31628
1.827212
8.340439
-31.53334
2.650506
-0.275097
-5.486281
2.778978
1.771224
2.635512
0.8724655
0.7074062
2.908643
3.286984
2.270327
2.669763
3.861192
0.9371418
-7.012938
29.78705
1.804253
-1.002421
-1.683994
-64.57052
1.78918
1.773295
1.46476
2.313622
32.09764
0.9829798
2.221543
0.4329625
1.97588
-10.15141
2.630097
1.50236
1.587579
-19.86021
-16.50394
1.370042
-0.3387655
-20.84668
0.5853079
0.741637
1.357717
-12.156
5.241823
28.85321
-3.036161
2.101915
0.2011497
-3.874438
-4.126896
10.31773
-0.6861643
1.858342
0.9122202
0.7371852
1.717809
1.202011
1.953892
-5.55587
-16.92228
-25.62971
3.355221
-5.171918
0.8883167
3.156983
3.128114
4.520542
-7.602567
-2.038038
2.668861
8.596289
-18.18547
5.732408
2.315331
1.903535
-8.058335
27.85728
-5.939469
2.992447
-0.4235727
-34.55279
4.352816
0.6003625
3.439363
1.295696
0.9314321
-28.06776
-2.102203
2.37425
-18.35995
0.09148766
0.2869421
-45.22837
-18.47381
-45.57544
3.225779
-47.44134
1.814624
1.124848
-16.08071
1.791875
-0.8264514
-33.78678
0.330029
1.189699
0.337794
4.107055
0.8148008
-45.73657
-14.15772
4.457929
16.65965
1.182133
0.3449427
-20.39926
15.40241
-35.66678
0.3101876
1.645124
4.194979
-5.586022
-0.6090239
-12.89387
-0.7507117
1.813501
1.042201
-68.73673
-82.6918
1.403775
2.379341
3.021467
0.8072958
1.870186
3.159135
1.483949
0.8805817
2.444939
2.217432
0.667889
4.317282
1.636835
-15.2251
1.268954
2.026399
-28.92882
1.902756
1.728975
-0.2383875
-31.16543
7.188577
-1.953733
4.393925
-10.95627
-35.41588
34.69628
47.70213
2.016621
2.702237
-3.381764
6.159968
1.89517
0.34836
10.57672
-36.89516
1.997855
2.149135
0.05827097
2.667196
1.810144
1.348706
-1.960859
-20.926
-64.52669
2.244707
2.304693
1.663582
2.377317
2.478927
-37.26035
1.368092
1.786206
2.005439
0.9111192
2.726995
2.214309
-35.55249
-20.61662
1.933363
2.781246
3.028513
2.042511
-7.71402
2.048838
0.4057226
-27.39118
1.084715
-29.30905
-47.67409
0.3985553
0.06169407
-16.10058
-82.07919
1.281333
3.002154
2.791299
1.379887
0.6482658
-1.429843
1.039118
1.892275
2.225983
-0.1713011
1.441139
-0.8794363
0.9210766
3.224242
1.587984
0.8626861
0.7138216
1.073007
0.8682258
1.04166
2.110072
-2.304175
1.902307
1.242825
4.014811
0.04445195
2.107302
1.242556
0.2226418
-7.15199
-26.8016
-19.04797
4.449258
1.954455
0.3444191
2.864225
-32.11056
-13.03002
-1.248632
-35.63638
23.02005
3.085984
3.183683
-14.87361
-22.94255
0.4202161
3.725893
-89.24166
-1.41286
1.021486
-13.44983
0.7704892
5.998039
1.44634
1.92043
17.5731
3.349279
-28.27892
2.16305
-5.189025
34.36941
-12.86805
-7.416294
1.848815
2.600468
2.657772
8.046282
2.912336
7.405129
0.8798255
1.923654
-6.443458
1.870303
-2.059188
1.720359
-17.18313
2.47951
-75.32018
8.210621
3.991727
17.18285
2.349256
28.78187
-3.198439
1.539964
3.744632
1.86241
14.00867
-26.59618
-16.39795
2.653858
1.362082
1.595546
1.704835
2.228734
-7.89124
-0.5436937
0.7509611
-30.32424
1.67255
15.58608
-55.51834
2.301062
-51.2438
-13.69522
-2.239464
-17.99345
37.35531
-0.2980618
2.257386
-43.36776
2.644373
0.736509
0.5638811
-0.2269825
-16.88749
-90.31436
-13.03317
1.20716
2.930957
2.407152
1.418799
3.283301
2.165438
7.703285
3.688132
2.134798
1.40008
1.4245
-6.697663
-14.45343
1.550372
2.634571
2.296431
-41.07161
0.08123002
3.772231
1.033039
-1.313026
-32.44035
2.188315
0.7990118
2.260172
1.5375
3.642722
-8.852222
1.400753
2.59375
-69.67001
22.77827
-2.064828
1.223094
3.713852
-0.580746
2.002355
1.559245
0.8583531
1.363282
3.49019
-10.00469
1.538686
-16.62073
2.485279
-7.101835
0.6391574
2.333895
0.4222655
1.597116
-10.30284
-20.8539
-34.6657
-8.316795
0.969259
-2.945911
0.85945
-0.8452876
1.62089
-37.89437
2.038399
1.671247
2.243504
-6.633408
1.100294
-0.9955796
2.89081
-52.02668
3.274974
0.6990202
2.668124
-62.13785
2.806462
-38.72351
2.360954
2.748193
1.054773
1.10432
3.122953
-37.31635
-7.998997
0.8758459
1.199347
-9.288303
1.627521
3.282568
2.894283
2.101969
0.8718142
2.877451
1.791124
-47.52571
-9.720744
-6.825257
1.604364
2.227351
0.2642051
1.059826
2.53759
1.926659
-8.111704
1.401904
6.862332
7.752123
2.456838
-14.78907
1.817038
3.323543
-0.5135851
-22.19055
1.923354
1.012428
0.1822165
-19.45588
-40.55662
-72.41693
2.607505
-5.574623
2.013573
-7.963187
-2.446898
1.480585
16.18023
1.353343
-69.40567
-82.56871
1.140485
-0.2347785
-1.647637
0.8476167
-0.9966392
0.533107
-2.387539
-2.767397
1.618396
-16.36587
1.466864
2.462275
-2.18481
4.177507
-0.527647
1.895131
-7.549224
2.287755
0.8835749
-16.20789
1.28323
2.869828
1.40409
5.393036
-20.19132
2.574479
0.04244703
2.807131
3.062608
-5.430337
-16.75622
-3.114398
3.935141
7.642228
3.159329
11.85024
-62.91187
-15.10269
1.255248
0.349555
19.51838
-2.793879
1.605162
2.62421
-0.004981972
3.666594
-42.28803
-34.09659
-21.28722
9.692141
7.375349
4.463537
-60.17334
-52.32723
-79.81897
2.737254
-1.522349
1.160386
3.772745
0.8204178
5.474745
1.287841
5.123218
2.281148
2.63773
2.247218
1.225747
-30.70129
1.414079
1.699825
0.1715408
-34.76329
19.54499
0.3770503
-15.96366
-40.49607
-6.394787
4.611014
-7.582209
-4.759654
-14.11565
-72.67805
1.007414
-39.28184
1.596174
-45.70191
-17.99918
-1.633153
1.106172
-14.0112
1.697228
14.18626
1.111541
0.8524844
2.943068
2.170441
1.864903
1.261823
1.393885
1.850317
2.693128
-45.14663
0.6100303
1.891646
-1.090908
1.979649
2.174177
-16.87395
-3.994818
-37.7146
1.175986
2.306691
20.09006
5.611359
1.492613
-30.22392
0.7280821
-13.53322
-1.213171
0.9238187
2.090887
1.899617
-1.980049
-3.969822
3.386816
-3.758362
0.7614017
2.476207
3.598222
23.0829
2.281923
-13.64208
1.630096
-12.25345
2.320792
-88.21982
2.346674
2.329841
3.574013
2.587701
-0.9927773
-61.69566
-70.49356
-26.94371
-0.1428731
-8.961059
4.087107
2.174051
-10.27037
2.08832
1.367334
-12.26454
-40.46586
2.21209
-61.07685
0.7896686
-0.8043219
0.8624811
-8.694758
9.378465
1.26866
1.346835
2.309536
3.293901
0.1904408
14.48061
1.40117
-21.99984
1.63418
1.393679
0.6295528
2.643682
-4.418151
-0.2257684
3.360316
-12.2744
2.078939
2.627438
11.30283
1.753674
0.2533441
-5.573242
-3.963623
2.064917
1.746636
-0.3615719
0.05502411
1.899759
-79.64247
26.24973
-4.916002
1.489475
1.277472
-34.36432
2.468002
2.053798
-2.273214
2.837163
0.8173923
1.173013
2.657442
-27.4564
-0.1502961
20.91198
35.77989
1.785199
-4.392869
0.3326073
3.339889
1.405738
-0.4725732
33.33737
-64.68503
3.783258
3.366049
2.193349
-21.01257
2.768009
-0.4631423
4.112319
0.7379488
2.808464
18.26135
1.800542
2.29483
1.232409
-12.42809
-14.8022
-2.295466
0.4330311
-86.61235
25.80665
2.070606
0.7998583
-7.051544
-2.105299
1.106105
2.696294
31.87308
2.432001
-7.138097
-16.11031
1.492195
0.4371526
-23.50655
2.188492
-3.39271
1.484173
1.809217
19.26039
-6.914046
2.539727
-0.1905075
0.4616662
-17.96797
18.98528
3.272622
5.436943
-50.73381
-25.40399
1.323971
0.5846075
-57.83992
2.519529
-43.29102
1.348228
-2.881928
0.147457
1.578107
-15.93309
-18.14173
-1.217941
-8.790142
-3.314419
0.575834
1.633483
0.4996293
-65.65433
-19.27083
-0.3562675
3.743365
0.1264973
3.242322
3.081364
1.19548
1.924739
-0.2187451
2.961512
-13.5013
-1.861824
-0.9978905
-24.90297
2.399034
2.510435
-11.93613
3.716145
3.232499
3.14831
35.26618
4.998555
1.889807
2.346666
2.45926
-31.84372
-21.66756
-34.25288
14.18337
1.477881
2.025391
1.87564
1.856811
0.5843809
1.062816
1.26927
2.480724
0.6553945
0.654698
0.833007
1.625301
11.97668
7.877422
-4.912483
3.242284
-1.390712
-0.8677257
3.13954
-8.605432
10.79545
-52.72759
-24.6386
2.166274
1.189802
-84.177
42.72284
-99.85039
2.395306
1.609253
4.716368
-12.19231
9.346164
-25.1659
0.6364977
4.231152
0.7396836
2.802541
1.825207
0.6690037
-0.1432224
-61.18492
2.331908
1.023573
-0.06538271
1.977723
-42.55787
-37.93626
-24.05029
2.976604
15.25909
2.014622
2.437249
2.315387
0.5979916
6.154322
1.426436
3.571686
32.2622
1.384478
1.827517
2.14898
27.12447
5.716062
2.143665
3.216885
-5.291156
1.730164
1.855572
-68.47714
1.105606
-85.08731
2.42432
3.405779
44.96303
0.4614071
1.968246
2.375598
3.106659
0.8360917
3.610534
-8.542354
41.30114
2.415395
0.3110724
45.59517
3.759199
6.091198
4.15709
-23.50483
2.626756
0.06424314
-4.804421
0.3449457
-9.489334
-10.50239
2.165174
2.142474
0.9406432
2.079234
18.18676
1.872673
1.661382
1.811821
1.440193
1.031041
0.7002992
0.8552704
1.373702
3.332015
3.236654
-23.0819
-97.56519
-30.42795
-25.84652
-2.082173
-0.8949133
2.669357
0.7252849
1.459107
4.074562
-62.69362
-4.666698
26.97284
-23.23337
1.48554
-3.641124
2.48683
-1.67431
-11.17524
-4.732185
2.387169
-70.2945
4.528488
0.3626532
1.101109
1.377453
2.387652
0.8859777
1.306037
1.61395
1.368779
1.916382
3.128218
-8.464638
0.8508299
1.12555
1.734025
-30.94457
-12.97741
1.920886
1.222487
1.221673
-9.402796
-20.44215
1.938199
2.005526
3.406682
2.414059
8.52018
16.5049
0.9503704
5.223195
3.633562
17.78569
-74.99964
-67.79721
2.236903
-8.696924
-0.9288248
-1.081436
11.40457
1.534552
-2.953561
1.665886
1.279745
-1.685019
-1.625399
-5.267528
-1.819618
1.390812
28.30089
2.362359
-6.752268
2.305416
1.978957
1.850698
-43.3857
2.434468
2.834792
-12.65571
0.4591932
3.219936
-15.21637
2.122353
5.357448
8.390112
2.475736
-28.23462
1.76221
37.6787
3.444872
7.447327
1.668686
-11.7855
2.189887
2.227592
0.2634705
20.80623
3.101787
3.082837
-2.268083
2.49926