/*--------------------------------*- C++ -*----------------------------------*\
| =========                 |                                                 |
| \\      /  F ield         | OpenFOAM: The Open Source CFD Toolbox           |
|  \\    /   O peration     | Version:  2406                                  |
|   \\  /    A nd           | Website:  www.openfoam.com                      |
|    \\/     M anipulation  |                                                 |
\*---------------------------------------------------------------------------*/
FoamFile
{
    version     2.0;
    format      ascii;
    arch        "LSB;label=32;scalar=64";
    class       surfaceScalarField;
    location    "2.24";
    object      phi;
}
// * * * * * * * * * * * * * * * * * * * * * * * * * * * * * * * * * * * * * //

dimensions      [0 3 -1 0 0 0 0];

oriented        oriented;

internalField   nonuniform List<scalar> 
23794
(
-0.003028091
0.001859374
0.001168718
-0.003889819
0.0008617273
-0.003141998
-0.0007478211
-0.001266899
-0.001875099
0.001016734
-0.002283632
0.002259115
-0.001242381
0.001954031
0.0003050836
0.001072418
0.0008816125
-0.0008582127
0.001930631
-0.002733458
0.001875246
-0.00247684
-0.0002566183
-0.0007026958
-0.001774144
0.001021499
-0.001724194
0.002403003
-0.001381504
0.003307225
-0.0009042225
0.00375436
-0.0004471343
0.003087948
0.0006664119
0.0009189212
0.002169027
-0.001624276
0.002543197
-0.00322781
0.001603534
-0.003426637
0.000198826
-0.001222544
-0.002204092
0.001620683
-0.002843227
0.003532902
-0.00191222
0.005799206
-0.002266304
0.009405585
-0.003606379
0.01246571
-0.003060122
0.01104428
0.001421431
0.0009763242
0.01006795
-0.006530492
0.007506816
-0.003095234
-0.003435258
0.001792993
-0.004888227
0.005210239
-0.003417246
0.007986541
-0.002776302
0.007195278
0.0007912632
0.003626095
0.003569183
0.0005975504
0.003028545
-0.003713284
0.004310834
-0.008582459
0.004869175
-0.0115989
0.003016442
-0.01315339
0.001554491
-0.01404692
0.0008935244
-0.01463147
0.0005845576
-0.01503092
0.000399445
-0.0153048
0.0002738833
-0.01539119
8.638746e-05
-0.01538752
-3.664627e-06
-0.01533964
-4.788805e-05
-0.0152468
-9.283325e-05
-0.01513862
-0.0001081798
-0.01497256
-0.0001660598
-0.01476668
-0.0002058829
-0.01450315
-0.0002635262
-0.01421676
-0.0002863982
-0.01391435
-0.0003024064
-0.01355839
-0.0003559597
-0.01318345
-0.0003749373
-0.01280163
-0.0003818214
-0.01235617
-0.0004454641
-0.0118887
-0.000467468
-0.01139658
-0.0004921203
-0.01089896
-0.0004976181
-0.01038134
-0.0005176216
-0.009814326
-0.0005670136
-0.0092561
-0.0005582253
-0.008657404
-0.0005986964
-0.008041585
-0.0006158189
-0.007421453
-0.0006201315
-0.006793439
-0.000628014
-0.006134484
-0.0006589557
-0.00547432
-0.0006601633
-0.004807106
-0.0006672143
-0.004127204
-0.0006799024
-0.003449396
-0.0006778078
-0.00278832
-0.000661076
-0.002087997
-0.0007003224
-0.001398296
-0.0006897014
-0.0007066524
-0.0006916436
5.898739e-05
-0.0007656398
0.0008424652
-0.0007834778
0.001545325
-0.0007028601
0.002232945
-0.00068762
0.002915102
-0.0006821562
0.003582136
-0.0006670341
0.004251544
-0.0006694083
0.004903715
-0.0006521714
0.00556833
-0.0006646142
0.006213497
-0.0006451673
0.00682576
-0.0006122631
0.007441886
-0.0006161262
0.008044902
-0.0006030156
0.008625607
-0.0005807048
0.00920304
-0.0005774331
0.00976529
-0.0005622498
0.0102742
-0.0005089124
0.01077766
-0.0005034592
0.0112656
-0.0004879413
0.01171211
-0.0004465042
0.01215877
-0.0004466664
0.01255406
-0.0003952911
0.01292118
-0.0003671135
0.01324928
-0.0003281052
0.01353469
-0.0002854031
0.01381423
-0.0002795411
0.01405626
-0.0002420292
0.01425854
-0.0002022801
0.01441822
-0.0001596877
0.01453466
-0.0001164367
0.01461946
-8.479815e-05
0.01463884
-1.937678e-05
0.01461284
2.599775e-05
0.01447552
0.0001373196
0.01413368
0.0003418381
0.01355042
0.000583257
0.01254989
0.001000529
0.01063245
0.00191745
0.007054532
0.003577913
0.002177356
0.004877176
-0.000297683
0.002475039
0.00109616
-0.001393843
0.001807621
-0.0007114612
-0.00201896
0.003826581
-0.007918262
0.005899303
-0.009086953
0.001168691
-0.006369532
-0.002717422
-0.003917415
-0.002452117
-0.00283455
-0.001082865
-0.002355146
-0.0004794034
-0.001141005
-0.001214142
0.001233314
-0.002374318
0.003450921
-0.002217607
0.002698303
0.0007526184
-8.423069e-05
0.002782533
-0.002826045
0.002741814
-0.004413447
0.001587402
-0.004838489
0.0004250417
-0.003719599
-0.00111889
-0.001770357
-0.001949242
-0.0003365567
-0.0014338
0.0004742894
-0.0008108461
0.001049912
-0.0005756225
0.001478082
-0.0004281703
0.001622645
-0.0001445625
0.001433803
0.0001888422
0.0009912886
0.000442514
0.0004305944
0.0005606942
-0.0002066076
0.0006372021
-0.0008043932
0.0005977856
-0.00131288
0.0005084863
-0.001760667
0.0004477878
-0.002044147
0.0002834797
-0.002089548
4.540075e-05
-0.001890837
-0.0001987111
-0.001564603
-0.000326234
-0.001150539
-0.0004140633
-0.001263001
0.0001124618
0.0005963724
-0.005096959
0.003195679
0.003069998
-0.005244703
0.001009472
-0.004056079
-0.001936445
-0.002182876
-0.003748302
0.0003641858
-0.004830695
0.002182878
-0.003061074
0.002196056
0.0002919062
0.0001938754
0.002883793
-0.003099881
0.005224387
-0.004287183
0.003062548
-0.002980282
-0.00156352
-0.0007932132
-0.003961213
0.001362256
-0.003879664
0.003101742
-0.00312099
0.004274249
-0.00207673
0.004946334
-0.00111922
0.004635463
0.0009772834
0.002630489
0.004174
-0.001333893
0.00650758
-0.004848741
0.005118382
-0.004676577
2.666188e-05
-0.001251224
-0.005629445
0.0018919
-0.005986351
0.003792721
-0.00381304
0.006186476
-0.004660059
0.01017319
-0.007593088
0.01342308
-0.006310018
0.01432648
0.0005180363
0.005290513
0.01910391
-0.005574122
0.01837145
-0.005104432
-0.003904949
-0.002019047
-0.007973612
-0.0002598672
-0.005176426
0.002078302
-0.005114471
0.004562364
-0.001692798
0.001615386
0.006516161
-0.008191976
0.01283591
-0.01660396
0.01272282
-0.02059528
0.008860494
-0.02185981
0.004280973
-0.02217677
0.001871446
-0.0222597
0.0009764552
-0.02224853
0.0005733901
-0.02218666
0.0003375725
-0.02209408
0.0001813081
-0.02189654
-0.0001111526
-0.02168552
-0.0002146886
-0.02145964
-0.0002737687
-0.02118569
-0.0003667833
-0.02089791
-0.0003959559
-0.02055014
-0.0005138347
-0.02016325
-0.0005927661
-0.01971408
-0.0007126943
-0.01924088
-0.0007596068
-0.01875779
-0.0007854936
-0.01821693
-0.0008968184
-0.01765284
-0.0009390224
-0.01708618
-0.000948486
-0.01644639
-0.001085251
-0.015786
-0.001127861
-0.01509718
-0.001180936
-0.01440146
-0.001193337
-0.01368853
-0.001230556
-0.01291695
-0.001338594
-0.01215723
-0.001317948
-0.01135558
-0.001400339
-0.01053198
-0.001439425
-0.009706795
-0.001445316
-0.008877018
-0.001457791
-0.008009558
-0.001526416
-0.007139899
-0.001529823
-0.006264876
-0.001542236
-0.005376
-0.001568779
-0.004491952
-0.001561856
-0.0036261
-0.001526928
-0.002718478
-0.001607944
-0.001819654
-0.001588526
-0.0009163718
-0.001594925
6.826992e-05
-0.001750282
0.00107396
-0.001789168
0.001991575
-0.001620475
0.002889382
-0.001585427
0.003778304
-0.001571078
0.004652371
-0.001541101
0.005530489
-0.001547527
0.006388863
-0.001510545
0.007261816
-0.001537567
0.008113564
-0.001496916
0.008925521
-0.001424219
0.009744227
-0.001434832
0.01055191
-0.001410699
0.01133176
-0.001360554
0.01210829
-0.001353961
0.01287251
-0.001326474
0.01357355
-0.001209953
0.01427257
-0.001202472
0.01495431
-0.001169687
0.01558984
-0.001082037
0.0162276
-0.001084423
0.0168052
-0.0009728878
0.01735839
-0.000920305
0.01786805
-0.0008377664
0.01833092
-0.0007482698
0.01879393
-0.0007425524
0.01921736
-0.0006654613
0.01959746
-0.0005823832
0.0199343
-0.0004965238
0.02022711
-0.0004092436
0.02048898
-0.0003466685
0.020689
-0.0002193983
0.02089405
-0.0001790523
0.02108012
-4.875154e-05
0.0211797
0.0002422557
0.02122371
0.0005392474
0.02119052
0.001033721
0.02086728
0.002240692
0.01912977
0.005315424
0.01532892
0.008678025
0.01088249
0.006921468
0.006311178
0.003177467
0.001787861
0.003811856
-0.003879972
0.009494414
-0.007641792
0.009661123
-0.006717077
0.0002439758
-0.003775922
-0.005658577
-0.001341026
-0.004887012
-0.0006377197
-0.001786172
-0.0004604458
-0.0006566773
0.0002932558
-0.001967843
0.002513271
-0.004594334
0.004865102
-0.004569438
0.002634442
0.002983279
-0.001781756
0.007198731
-0.004714166
0.005674224
-0.005862789
0.002736025
-0.005989867
0.0005521195
-0.004414321
-0.002694436
-0.001786504
-0.004577059
0.0004537144
-0.003674019
0.001496258
-0.00185339
0.001955028
-0.001034392
0.002275511
-0.0007486532
0.002539637
-0.0004086887
0.002536339
0.0001921399
0.002105616
0.0008732376
0.001321055
0.001345255
0.0003199786
0.001638278
-0.000611325
0.001529089
-0.00134462
0.001241782
-0.001944636
0.001047803
-0.002315745
0.0006545888
-0.002402104
0.0001317597
-0.002183219
-0.0004175956
-0.00175822
-0.000751233
-0.001208492
-0.0009637914
-0.001441529
0.0003454987
0.002350522
-0.005676649
0.00337821
0.005368437
-0.005413179
0.0007460013
-0.004155526
-0.003194098
-0.002611245
-0.005292583
-0.0002939689
-0.00714797
0.001472633
-0.004827676
0.0009776995
0.0007868401
-0.002085671
0.005947163
-0.005102681
0.008241398
-0.005084208
0.003044075
-0.003331145
-0.003316582
-0.0008003469
-0.006492011
0.001853721
-0.006533732
0.004000948
-0.005268216
0.005453442
-0.003529224
0.006269287
-0.001935065
0.005826549
0.001420021
0.003897377
0.006103172
-0.0001633878
0.01056834
-0.004696247
0.009651241
-0.004933458
0.0002638731
-0.001295042
-0.009267861
0.001457289
-0.008738683
0.002985944
-0.005341696
0.005358095
-0.00703221
0.009834626
-0.01206962
0.01374042
-0.01021581
0.01518888
-0.000930427
0.008046853
0.02624594
-0.003255018
0.02967332
-0.0085673
0.001407334
-0.0102341
-0.006306814
-0.01020237
-0.00520816
-0.007762461
-0.007554376
-0.006643634
-0.002811625
-0.01180079
0.01167332
-0.02080521
0.02184032
-0.02555946
0.01747707
-0.02602675
0.00932778
-0.0259024
0.004156632
-0.02598614
0.001955185
-0.02608292
0.001073234
-0.02614768
0.0006381478
-0.02616122
0.0003511141
-0.02613618
0.0001562697
-0.02595478
-0.0002925552
-0.02572484
-0.0004446326
-0.02546768
-0.0005309285
-0.02515426
-0.0006801971
-0.02482608
-0.0007241393
-0.02442309
-0.0009168245
-0.02397454
-0.00104132
-0.02344956
-0.001237672
-0.02289567
-0.00131349
-0.02233083
-0.001350341
-0.02169369
-0.001533955
-0.02102861
-0.0016041
-0.02036197
-0.001615129
-0.01960459
-0.001842632
-0.01882259
-0.001909858
-0.01800604
-0.001997484
-0.01718083
-0.002018553
-0.01633488
-0.002076507
-0.01541618
-0.002257292
-0.01451322
-0.002220907
-0.01355721
-0.00235635
-0.01257502
-0.00242162
-0.01159016
-0.002430173
-0.01059938
-0.002448566
-0.00956287
-0.002562929
-0.008523557
-0.002569135
-0.007477014
-0.002588779
-0.006414487
-0.002631306
-0.005356894
-0.002619449
-0.00432119
-0.002562631
-0.003237914
-0.002691221
-0.002164766
-0.002661674
-0.001087159
-0.002672532
7.739591e-05
-0.002914836
0.001267906
-0.002979678
0.002366459
-0.002719028
0.003443437
-0.002662404
0.00450946
-0.002637102
0.005557891
-0.002589532
0.00660996
-0.002599596
0.007637094
-0.002537679
0.008681091
-0.002581564
0.009698366
-0.002514191
0.01066753
-0.002393383
0.01164431
-0.00241161
0.01260655
-0.00237294
0.01353486
-0.002288869
0.01445939
-0.002278483
0.0153678
-0.002234885
0.01619954
-0.002041697
0.01702934
-0.002032274
0.01783762
-0.001977966
0.0185891
-0.001833513
0.01934506
-0.001840385
0.02002657
-0.001654399
0.02067972
-0.001573453
0.02127965
-0.001437698
0.02182176
-0.001290382
0.02236589
-0.001286677
0.02285983
-0.001159407
0.02330344
-0.001025992
0.0236941
-0.000887186
0.02403216
-0.0007473004
0.02433391
-0.0006484165
0.02456031
-0.0004458003
0.02477468
-0.000393417
0.02492958
-0.000203656
0.02495379
0.0002180463
0.02491163
0.0005814098
0.02485353
0.001091823
0.02498073
0.002113482
0.0252933
0.005002861
0.0249069
0.009064426
0.02281678
0.009011583
0.01726425
0.008730003
0.007645101
0.013431
-0.001239782
0.0183793
-0.003636407
0.01205775
-0.001912176
-0.001480255
0.001173136
-0.008743889
0.004169032
-0.007882908
0.005019912
-0.002637052
0.004335523
2.771214e-05
0.003725362
-0.001357682
0.004452198
-0.00532117
0.005305725
-0.005422966
0.001821957
0.006467048
-0.002847361
0.01186805
-0.005584966
0.008411829
-0.006936528
0.004087587
-0.007230205
0.000845796
-0.005404811
-0.004519829
-0.002361445
-0.007620425
0.0004298376
-0.006465301
0.001962901
-0.003386454
0.002595372
-0.001666862
0.002842381
-0.0009956624
0.003022048
-0.0005883561
0.003037374
0.0001768146
0.002667241
0.00124337
0.001902995
0.002109501
0.0008186385
0.002722635
-0.0003593732
0.002707101
-0.001423137
0.002305545
-0.002343305
0.001967971
-0.002960318
0.001271603
-0.003153915
0.0003253567
-0.002901018
-0.0006704933
-0.00240165
-0.001250601
-0.001661945
-0.001703496
-0.001401585
8.51382e-05
0.004327148
-0.004673362
0.002557698
0.007484101
-0.004250966
0.0003236052
-0.003205822
-0.004239242
-0.002655139
-0.005843265
-0.0009318813
-0.008871228
0.0003533899
-0.006112947
-0.001247591
0.002387821
-0.00486626
0.009565833
-0.006701824
0.01007696
-0.005965452
0.002307703
-0.004086277
-0.005195757
-0.001028184
-0.009550105
0.002169241
-0.009731157
0.004836819
-0.007935794
0.006634988
-0.005327393
0.007696207
-0.002996285
0.007188371
0.001927857
0.005029302
0.008262242
0.001270182
0.01432747
-0.003375386
0.01429681
-0.004436951
0.001325438
-0.001542301
-0.01216251
5.412164e-05
-0.01033511
0.001172896
-0.00646047
0.003633212
-0.009492525
0.008899558
-0.01733597
0.01357951
-0.01489577
0.01463488
-0.001985788
0.008332676
0.03254814
-0.00312471
0.04113071
-0.01445268
0.01273531
-0.02107377
0.0003142698
-0.02340337
-0.002878558
-0.02360851
-0.007349239
-0.02467323
-0.0017469
-0.02790649
0.01490658
-0.03097206
0.02490589
-0.03119545
0.01770047
-0.03073701
0.008869332
-0.03105868
0.004478306
-0.03140182
0.002298322
-0.03160838
0.001279801
-0.03170854
0.0007383053
-0.03171725
0.0003598202
-0.03166984
0.0001088627
-0.03142041
-0.0005419824
-0.03111808
-0.0007469666
-0.03078436
-0.0008646496
-0.03038309
-0.001081465
-0.02996791
-0.001139321
-0.02946575
-0.001418982
-0.02891044
-0.001596627
-0.0282645
-0.001883613
-0.02758443
-0.001993563
-0.02689286
-0.002041908
-0.02611679
-0.002310027
-0.02530735
-0.002413544
-0.02449657
-0.002425906
-0.02358074
-0.002758457
-0.02263339
-0.00285721
-0.0216457
-0.002985179
-0.02064893
-0.003015321
-0.01962854
-0.003096892
-0.01851948
-0.003366359
-0.01743179
-0.003308591
-0.01627928
-0.003508868
-0.01509688
-0.003604018
-0.01391021
-0.00361684
-0.01271715
-0.003641626
-0.01146953
-0.003810553
-0.01021867
-0.003819988
-0.0089589
-0.003848553
-0.007682
-0.003908206
-0.00640909
-0.00389236
-0.00516505
-0.003806671
-0.003864835
-0.003991436
-0.002577926
-0.003948584
-0.001290082
-0.003960376
8.725536e-05
-0.004292174
0.001498312
-0.004390735
0.002818664
-0.00403938
0.004118482
-0.003962222
0.005402316
-0.003920936
0.006663115
-0.003850331
0.007926905
-0.003863386
0.009159737
-0.003770512
0.01041442
-0.003836243
0.01163411
-0.003733884
0.01279843
-0.003557702
0.01397275
-0.003585931
0.01512768
-0.003527874
0.01624502
-0.003406205
0.01735942
-0.003392886
0.01845182
-0.00332728
0.01945583
-0.003045711
0.02045846
-0.003034902
0.0214342
-0.002953707
0.02234394
-0.002743251
0.02325994
-0.002756385
0.02408732
-0.002481776
0.02488084
-0.002366973
0.02561167
-0.002168532
0.02627644
-0.001955149
0.02694333
-0.001953569
0.02755053
-0.00176661
0.02810041
-0.001575868
0.02858588
-0.001372657
0.02901172
-0.001173138
0.0293969
-0.001033599
0.02969182
-0.0007407181
0.0299762
-0.000677799
0.03018924
-0.0004166941
0.03023057
0.0001767129
0.03016153
0.0006504481
0.02999384
0.001259514
0.02976528
0.002342042
0.02989966
0.004868484
0.03045485
0.008509231
0.03038195
0.009084485
0.02751875
0.0115932
0.01788169
0.02306806
0.006974349
0.02928664
0.002992745
0.01603935
0.004911464
-0.003398974
0.008708412
-0.01254084
0.01156015
-0.01073465
0.01229768
-0.003374581
0.01131674
0.001008652
0.009501532
0.0004575269
0.007894391
-0.003714029
0.006125197
-0.003653772
0.001465888
0.01112636
-0.003084219
0.01641816
-0.006092965
0.01142057
-0.007855416
0.005850038
-0.008361008
0.001351388
-0.006298816
-0.006582021
-0.00290041
-0.01101883
0.0002432534
-0.009608965
0.002165191
-0.005308391
0.003094612
-0.002596284
0.003455335
-0.001356385
0.003611527
-0.0007445477
0.003534268
0.0002540734
0.003058122
0.001719517
0.002219281
0.002948342
0.001018813
0.003923103
-0.0004235539
0.004149468
-0.001858335
0.003740327
-0.003130668
0.003240304
-0.003942987
0.002083921
-0.00412408
0.0005064504
-0.003718618
-0.001075956
-0.003042709
-0.001926509
-0.002077217
-0.002668988
-0.001292014
-0.0007000646
0.005592831
-0.001495717
0.0009382679
0.00804155
-0.001352062
0.0001799502
-0.001048111
-0.004543193
-0.002142766
-0.00474861
-0.001741182
-0.009272813
-0.001492332
-0.006361797
-0.004165314
0.005060803
-0.007471301
0.01287182
-0.008199542
0.0108052
-0.007202837
0.001310998
-0.005157867
-0.007240727
-0.001503085
-0.01320489
0.002310234
-0.01354448
0.005557433
-0.01118299
0.007769172
-0.007539131
0.009223223
-0.004450336
0.008790459
0.002360621
0.006269079
0.01078362
0.002843885
0.01775266
-0.001398288
0.01853898
-0.003238545
0.003165695
-0.002172655
-0.0132284
-0.002155176
-0.01035258
-0.001967117
-0.006648529
0.0008908259
-0.01235047
0.006534058
-0.0229792
0.0115433
-0.019905
0.0122112
-0.002653694
0.006209512
0.03854983
-0.005918861
0.05325908
-0.02133883
0.02815528
-0.03057952
0.009554961
-0.03423784
0.0007797594
-0.03659372
-0.004993358
-0.03871033
0.0003697086
-0.03932106
0.01551731
-0.03783884
0.02342367
-0.03644507
0.01630669
-0.03644678
0.008871045
-0.03695208
0.004983602
-0.0373266
0.002672848
-0.03757658
0.001529779
-0.03772812
0.0008898436
-0.03776293
0.0003946276
-0.0377413
8.72371e-05
-0.03746832
-0.0008149669
-0.03713354
-0.001081742
-0.0367597
-0.001238492
-0.0362914
-0.001549767
-0.03582253
-0.001608189
-0.03523239
-0.002009118
-0.034585
-0.002244016
-0.03382109
-0.002647524
-0.03301696
-0.002797698
-0.03220252
-0.002856349
-0.03127853
-0.003234011
-0.03031499
-0.003377089
-0.02935355
-0.003387348
-0.02826221
-0.003849792
-0.02712974
-0.003989683
-0.02594955
-0.00416537
-0.02476073
-0.004204138
-0.02354318
-0.004314436
-0.02221234
-0.004697207
-0.02091411
-0.004606819
-0.0195314
-0.00489158
-0.01811563
-0.005019783
-0.01669189
-0.005040582
-0.01526173
-0.005071783
-0.01376195
-0.005310332
-0.01225783
-0.005324109
-0.01073991
-0.005366478
-0.009204636
-0.005443476
-0.007670856
-0.00542614
-0.006175404
-0.005302122
-0.004610645
-0.005556194
-0.00306417
-0.005495058
-0.001525464
-0.005499082
9.977293e-05
-0.005917411
0.001771652
-0.006062614
0.00336125
-0.005628978
0.004931164
-0.005532136
0.006473661
-0.005463433
0.007985843
-0.005362513
0.009502418
-0.00537996
0.01097986
-0.005247955
0.01248691
-0.005343289
0.01394481
-0.005191789
0.0153423
-0.004955194
0.01675398
-0.004997611
0.01813397
-0.00490786
0.01947398
-0.004746219
0.02081561
-0.004734509
0.02212148
-0.004633152
0.02332367
-0.004247898
0.02452649
-0.004237724
0.02569323
-0.004120448
0.02677736
-0.003827383
0.02787516
-0.003854186
0.02886066
-0.003467271
0.02980525
-0.003311565
0.03067358
-0.003036863
0.03145928
-0.002740844
0.03225091
-0.002745204
0.03296353
-0.00247923
0.03361219
-0.002224522
0.03417679
-0.001937263
0.03466983
-0.001666173
0.03511759
-0.001481365
0.03544261
-0.001065733
0.03576372
-0.0009989141
0.03598917
-0.0006421388
0.03601091
0.0001549698
0.03590004
0.0007613231
0.03571151
0.001448043
0.03543997
0.002613576
0.0353139
0.004994553
0.03551412
0.008309015
0.03547585
0.009122756
0.03518478
0.01188427
0.03032655
0.02792629
0.02101529
0.0385979
0.01536307
0.02169157
0.01631961
-0.004355515
0.0196415
-0.01586272
0.02160706
-0.01270021
0.02176603
-0.003533546
0.02037403
0.002400645
0.01744987
0.003381691
0.01324998
0.0004858577
0.008206074
0.001390137
0.002108549
0.01722388
-0.002629561
0.02115627
-0.006317755
0.01510877
-0.008638988
0.008171271
-0.009509763
0.002222163
-0.007166099
-0.008925685
-0.003332596
-0.01485233
0.000113337
-0.0130549
0.002298504
-0.007493558
0.003558525
-0.003856305
0.004147622
-0.001945483
0.004345438
-0.0009423636
0.004153228
0.0004462836
0.00347093
0.002401815
0.002424054
0.003995218
0.0009837497
0.005363407
-0.0008098427
0.00594306
-0.002705094
0.005635578
-0.00433117
0.00486638
-0.005167818
0.002920569
-0.00514132
0.0004799523
-0.004456657
-0.001760619
-0.003516232
-0.002866934
-0.002361165
-0.003824056
-0.001550122
-0.001511107
0.004980977
0.002391709
-0.0006405789
0.00629042
0.002192542
0.000379117
0.00128504
-0.003635692
-0.00118856
-0.00227501
-0.002740924
-0.007720449
-0.003903965
-0.005198755
-0.007144382
0.00830122
-0.009812415
0.01553985
-0.01000132
0.01099411
-0.008991014
0.0003006937
-0.006626718
-0.009605024
-0.002323234
-0.01750837
0.002169648
-0.01803736
0.006101022
-0.01511437
0.008938428
-0.01037654
0.01108044
-0.006592343
0.01083736
0.002603699
0.007879597
0.01374138
0.004250584
0.02138167
0.0006368493
0.02215272
-0.001902904
0.005705449
-0.003583133
-0.01154817
-0.005816565
-0.008119151
-0.006613847
-0.005851246
-0.004612005
-0.01435231
0.0007177139
-0.02830892
0.005839061
-0.02502635
0.006822373
-0.003637006
0.001598035
0.04377417
-0.01220596
0.06706308
-0.02894778
0.0448971
-0.03760272
0.0182099
-0.04115261
0.004329649
-0.04452138
-0.00162458
-0.04710352
0.002951841
-0.04685628
0.01527007
-0.04460158
0.02116897
-0.04371474
0.01541985
-0.04413427
0.009290568
-0.04467882
0.005528153
-0.04510242
0.003096456
-0.04536435
0.001791706
-0.04552436
0.001049855
-0.04550016
0.0003704281
-0.04544934
3.641733e-05
-0.04509426
-0.001170046
-0.0446788
-0.00149721
-0.04420989
-0.001707398
-0.04361885
-0.002140806
-0.04305492
-0.002172117
-0.04233025
-0.002733787
-0.04154759
-0.00302668
-0.04062015
-0.003574965
-0.03964452
-0.003773325
-0.03866516
-0.003835707
-0.03754746
-0.004351717
-0.0363858
-0.004538748
-0.03523437
-0.004538774
-0.03392245
-0.005161714
-0.0325564
-0.005355731
-0.03113956
-0.005582213
-0.02971274
-0.005630955
-0.02825559
-0.005771589
-0.02665149
-0.006301307
-0.02510241
-0.006155896
-0.02343994
-0.00655405
-0.02174271
-0.00671702
-0.02003588
-0.006747404
-0.01832376
-0.006783904
-0.0165248
-0.007109293
-0.01472231
-0.007126603
-0.01289272
-0.007196064
-0.01104609
-0.007290111
-0.009189516
-0.007282712
-0.007392004
-0.007099634
-0.005506542
-0.007441657
-0.00363959
-0.00736201
-0.001799802
-0.007338871
0.0001174594
-0.007834672
0.002100381
-0.008045535
0.004020318
-0.007548915
0.0059064
-0.007418218
0.007754749
-0.007311783
0.009567761
-0.007175525
0.01138691
-0.007199111
0.01315712
-0.007018167
0.01497121
-0.007157373
0.0167135
-0.006934085
0.01839526
-0.00663695
0.02009992
-0.006702266
0.02175018
-0.006558124
0.02335824
-0.006354282
0.02498437
-0.00636064
0.0265487
-0.006197478
0.02798879
-0.005687985
0.02943729
-0.005686227
0.0308397
-0.005522861
0.03213706
-0.005124743
0.03346069
-0.005177809
0.03464631
-0.004652894
0.03578322
-0.004448473
0.03682689
-0.004080536
0.03777597
-0.003689921
0.03873791
-0.003707147
0.03959472
-0.00333604
0.04038882
-0.003018618
0.04107296
-0.002621403
0.04167919
-0.002272411
0.04223185
-0.002034021
0.04264187
-0.001475757
0.04304184
-0.001398877
0.04333709
-0.000937395
0.04341522
7.684362e-05
0.04332212
0.0008544216
0.04312744
0.001642723
0.04284742
0.002893596
0.04259532
0.00524665
0.04253046
0.008373881
0.0417679
0.009885308
0.04181664
0.01183553
0.04216845
0.02757449
0.03902296
0.04174339
0.03490038
0.02581415
0.03348626
-0.002941395
0.03378084
-0.0161573
0.03367391
-0.01259329
0.03272148
-0.002581119
0.03075282
0.004369308
0.02699725
0.007137256
0.02063899
0.006844116
0.01215516
0.009873973
0.00410684
0.0252722
-0.00151515
0.02677826
-0.006302598
0.01989622
-0.00946749
0.01133616
-0.01082183
0.003576501
-0.008048646
-0.01169887
-0.003659956
-0.01924102
0.0001708043
-0.01688566
0.002532261
-0.009855015
0.004088754
-0.005412798
0.004933926
-0.002790655
0.0051897
-0.001198137
0.00486003
0.000775954
0.003903129
0.003358715
0.002550586
0.005347761
0.0007166226
0.00719737
-0.001647083
0.008306766
-0.00407624
0.008064735
-0.005835593
0.006625734
-0.006409687
0.003494662
-0.006052906
0.0001231713
-0.005019661
-0.002793864
-0.003725246
-0.004161348
-0.002302703
-0.005246599
-0.001536528
-0.002277282
0.00280387
0.003809815
-0.001522786
0.004003391
0.003867852
0.0003210796
0.002750872
-0.002518712
-0.0004943117
0.0009701744
-0.003950393
-0.004264368
-0.006473105
-0.002676044
-0.009927077
0.01175519
-0.01220345
0.01781622
-0.01236976
0.01116041
-0.01141477
-0.0006542938
-0.008703035
-0.01231676
-0.003544764
-0.02266664
0.001691623
-0.02327375
0.006609726
-0.02003247
0.01049281
-0.01425962
0.01368087
-0.009780411
0.01369696
0.00258761
0.01012261
0.01731574
0.005517566
0.02598671
0.001697178
0.0259731
-0.001569891
0.008972518
-0.006268077
-0.006849987
-0.01125839
-0.003128838
-0.01354167
-0.003567966
-0.0132085
-0.01468548
-0.008790548
-0.03272687
-0.004507636
-0.02930926
-0.002726533
-0.005418109
-0.009420375
0.05046801
-0.02298932
0.08063202
-0.03785646
0.05976424
-0.04440043
0.02475386
-0.04795724
0.007886465
-0.05190911
0.002327288
-0.05466877
0.005711497
-0.05476286
0.01536416
-0.0531487
0.01955482
-0.05263295
0.0149041
-0.05296231
0.009619928
-0.05347768
0.006043519
-0.05392918
0.003547955
-0.05422807
0.002090604
-0.05446137
0.001283155
-0.05443403
0.0003430885
-0.05444905
5.143107e-05
-0.05398268
-0.001636415
-0.05350865
-0.001971242
-0.05296617
-0.002249879
-0.05223861
-0.00286836
-0.05160121
-0.002809524
-0.05071936
-0.003615633
-0.04980027
-0.003945773
-0.04868967
-0.004685557
-0.04751401
-0.00494899
-0.04635349
-0.00499623
-0.04501925
-0.005685957
-0.04362604
-0.005931952
-0.04224531
-0.005919509
-0.0406837
-0.006723323
-0.03904903
-0.006990396
-0.03735367
-0.007277575
-0.03562605
-0.007358573
-0.03390813
-0.007489508
-0.03196605
-0.008243394
-0.03012515
-0.007996795
-0.02812006
-0.008559136
-0.026091
-0.008746083
-0.02405254
-0.00878586
-0.02197501
-0.008861439
-0.01983831
-0.009245992
-0.01768999
-0.009274921
-0.01549439
-0.009391662
-0.0132944
-0.009490106
-0.01101341
-0.009563699
-0.008870957
-0.009242088
-0.00659342
-0.009719195
-0.004325694
-0.009629735
-0.002121682
-0.009542883
0.0001460838
-0.01010244
0.002502041
-0.01040149
0.004823424
-0.009870297
0.00705889
-0.009653685
0.009281144
-0.009534036
0.01146479
-0.009359173
0.01363908
-0.009373395
0.01575906
-0.009138155
0.01796054
-0.009358846
0.02005073
-0.009024276
0.0220652
-0.008651422
0.02411314
-0.00875021
0.02610878
-0.008553762
0.02804209
-0.008287591
0.02998402
-0.008302573
0.03186451
-0.00807797
0.0335842
-0.007407666
0.03531907
-0.007421098
0.03698006
-0.00718385
0.03854842
-0.00669311
0.04013766
-0.006767041
0.04154889
-0.006064125
0.04292329
-0.00582288
0.04415674
-0.005313979
0.04529298
-0.004826163
0.04645115
-0.004865322
0.0474574
-0.00434229
0.04841859
-0.003979805
0.04921541
-0.003418226
0.04994105
-0.002998047
0.05060773
-0.002700697
0.05107166
-0.001939693
0.05155631
-0.001883528
0.05191379
-0.001294866
0.05195444
3.61877e-05
0.05183433
0.0009745317
0.05160323
0.001873825
0.05132986
0.003166965
0.05105992
0.005516593
0.05103445
0.008399352
0.05020246
0.01071729
0.049498
0.01253999
0.05226833
0.02480416
0.05523767
0.03877406
0.05423698
0.02681484
0.05101016
0.0002854246
0.04794204
-0.01308917
0.04553108
-0.01018233
0.04329845
-0.0003484838
0.04077848
0.006889278
0.03664133
0.0112744
0.02914169
0.01434375
0.01817827
0.0208374
0.007896458
0.03555401
0.0003475987
0.03432712
-0.005952215
0.02619603
-0.0105107
0.01589465
-0.01237657
0.005442363
-0.00886164
-0.01521379
-0.003883367
-0.0242193
0.0004343352
-0.02120336
0.002991607
-0.01241229
0.004770643
-0.007191834
0.005785501
-0.003805513
0.006060964
-0.0014736
0.005551032
0.001285886
0.004214924
0.004694822
0.002415732
0.007146954
-6.977871e-05
0.009682881
-0.003195218
0.0114322
-0.005922383
0.0107919
-0.007408671
0.008112022
-0.007549438
0.00363543
-0.006857081
-0.0005691861
-0.005383099
-0.004267846
-0.003584521
-0.005959927
-0.001793696
-0.007037423
-0.0007249653
-0.003346013
0.000556119
0.004623716
-0.002430104
0.001809779
0.004806044
0.0001387519
0.003593197
-0.001305865
-0.000155449
0.004718821
-0.005494488
0.00107467
-0.009157932
0.000987401
-0.01267867
0.01527593
-0.01486693
0.02000449
-0.01530621
0.01159969
-0.01463505
-0.001325454
-0.01149061
-0.01546119
-0.005207012
-0.02895024
0.0009986972
-0.02947945
0.007416915
-0.02645069
0.01284298
-0.01968568
0.01720336
-0.01414079
0.01746272
0.00232825
0.01329324
0.02148522
0.007450742
0.03182921
0.002443416
0.03098043
-0.002239708
0.01365564
-0.01067432
0.001584624
-0.01912666
0.005323502
-0.02318408
0.0004894605
-0.02570536
-0.01216421
-0.02413407
-0.03429815
-0.02152
-0.03192333
-0.01829963
-0.008638486
-0.02819252
0.0603609
-0.04027747
0.09271697
-0.04906656
0.06855334
-0.05292921
0.02861651
-0.05723141
0.01218866
-0.06154462
0.006640498
-0.06447516
0.008642037
-0.06507132
0.01596032
-0.06393804
0.01842153
-0.06354055
0.01450661
-0.06381791
0.009897293
-0.06439123
0.006616832
-0.06488292
0.00403965
-0.06512736
0.002335046
-0.06547414
0.001629935
-0.06530357
0.0001725118
-0.06528506
3.291869e-05
-0.06479282
-0.002128649
-0.06418741
-0.002576656
-0.06359622
-0.002841066
-0.06263355
-0.003831034
-0.06191523
-0.003527845
-0.06084091
-0.004689945
-0.05976622
-0.005020467
-0.05841217
-0.006039604
-0.05696889
-0.006392271
-0.05560079
-0.006364334
-0.05403176
-0.007254986
-0.0522949
-0.00766881
-0.0506468
-0.007567613
-0.0488013
-0.008568818
-0.04686041
-0.008931283
-0.04478936
-0.009348632
-0.04269767
-0.009450263
-0.0407365
-0.009450676
-0.03832052
-0.01065938
-0.03616648
-0.01015083
-0.03368769
-0.01103793
-0.03131835
-0.01111543
-0.02887558
-0.01122863
-0.02634938
-0.01138764
-0.02383392
-0.01176145
-0.02123699
-0.01187185
-0.01859872
-0.01202994
-0.01601907
-0.01206975
-0.01322257
-0.0123602
-0.0107111
-0.01175356
-0.007909862
-0.01252043
-0.005164219
-0.01237538
-0.002511063
-0.01219604
0.000204768
-0.01281827
0.003038922
-0.01323565
0.005742953
-0.01257433
0.008390019
-0.01230075
0.01109307
-0.01223708
0.01374349
-0.0120096
0.01635871
-0.01198862
0.01887393