/*--------------------------------*- C++ -*----------------------------------*\
| =========                 |                                                 |
| \\      /  F ield         | OpenFOAM: The Open Source CFD Toolbox           |
|  \\    /   O peration     | Version:  2406                                  |
|   \\  /    A nd           | Website:  www.openfoam.com                      |
|    \\/     M anipulation  |                                                 |
\*---------------------------------------------------------------------------*/
FoamFile
{
    version     2.0;
    format      ascii;
    arch        "LSB;label=32;scalar=64";
    class       volScalarField;
    location    "0.46";
    object      p;
}
// * * * * * * * * * * * * * * * * * * * * * * * * * * * * * * * * * * * * * //

dimensions      [0 2 -2 0 0 0 0];

internalField   nonuniform List<scalar> 
4531
(
-0.0004808096
-4.368855e-05
-0.0001273782
-9.647699e-05
-7.011231e-05
-8.903604e-05
-5.344215e-05
-6.680995e-05
-6.374922e-05
-4.928507e-05
-6.215769e-05
-4.959763e-05
-5.724532e-05
-3.06853e-05
-3.95201e-05
-3.205445e-05
-3.290875e-05
-3.069321e-05
-1.810899e-05
-3.114354e-05
-6.470508e-06
-1.533583e-05
4.327109e-05
-0.0001211484
0.0005720858
-0.000969528
-0.0002014797
-0.000316788
-0.0002567242
-0.0002396819
-0.0002244827
-0.000214168
-0.0002036338
-0.0001914841
-0.0001888903
-0.0001817473
-0.0001773697
-0.000172657
-0.0001700351
-0.000166305
-0.00016379
-0.0001616922
-0.0001597437
-0.000158355
-0.0001570514
-0.0001556365
-0.0001551842
-0.000154065
-0.0001538288
-0.0001535832
-0.0001537681
-0.0001540709
-0.0001547669
-0.0001555264
-0.0001568323
-0.0001578714
-0.0001600728
-0.0001616472
-0.0001635636
-0.0001670362
-0.0001690467
-0.0001731081
-0.0001773443
-0.0001833959
-0.0001881471
-0.0001962226
-0.0002020944
-0.0002166537
-0.0002222171
-0.0002454304
-0.0002483577
-0.0003319307
-0.0001820461
-0.0009820977
0.0005721934
-0.000121981
5.169171e-05
-1.585311e-05
-1.297931e-06
-2.732498e-05
-1.673066e-05
-3.34545e-05
-2.532444e-05
-4.243836e-05
-4.331947e-05
-3.991391e-05
-5.533799e-05
-4.053049e-05
-5.673547e-05
-5.212469e-05
-7.09321e-05
-5.822294e-05
-7.205773e-05
-6.125035e-05
-8.759414e-05
-9.411686e-05
-0.0001481303
-1.332085e-05
-0.000474552
0.0005483301
0.0001297411
0.0002058436
0.0001643329
0.0001655899
0.0001558341
0.0001468346
0.0001532883
0.000144295
0.0001324905
0.000152677
0.0001471426
0.0001433266
0.0001302041
0.0001466549
0.000149606
0.0001442296
0.0001438018
0.0001450078
0.0001497002
0.0001416003
0.0001542882
0.0001460664
0.0001591812
0.0001573511
0.0001619897
0.0001658388
0.0001706316
0.0001717511
0.0001852395
0.0001895518
0.0002029622
0.0002208614
0.0002268713
0.0003293904
0.0003377008
0.000227268
0.0002232771
0.0002048569
0.0001915472
0.0001872167
0.0001742073
0.0001727088
0.0001681469
0.0001642398
0.0001595983
0.0001613506
0.000147931
0.0001562793
0.0001432387
0.0001506294
0.0001464828
0.0001434252
0.0001440436
0.0001489663
0.0001460958
0.0001297378
0.000142933
0.0001466508
0.0001518994
0.0001315538
0.0001430876
0.0001519454
0.0001451186
0.0001567815
0.0001648574
0.0001691903
0.000228953
9.614087e-05
0.0005741946
0.0003409503
0.000231665
0.0002242313
0.0002060768
0.0001921079
0.0001876429
0.0001748478
0.0001728687
0.0001683266
0.0001644048
0.0001594264
0.0001614362
0.0001481228
0.0001562021
0.0001434707
0.0001502651
0.0001465384
0.0001435037
0.0001438685
0.0001487437
0.0001459476
0.0001298033
0.0001429209
0.0001461455
0.0001512839
0.0001316479
0.0001427433
0.0001513809
0.0001450209
0.0001563607
0.0001642398
0.0001686073
0.0002265282
9.733826e-05
0.000548835
0.0005230665
0.0001300136
0.0002042393
0.0001635148
0.0001650939
0.000155299
0.0001466694
0.0001526874
0.0001439373
0.0001325757
0.0001520581
0.0001466398
0.0001433173
0.0001302666
0.0001464919
0.0001493582
0.0001440265
0.0001438416
0.0001450719
0.0001493524
0.0001418408
0.0001542314
0.0001462662
0.0001592764
0.0001571947
0.000162166
0.0001660315
0.0001707953
0.0001724119
0.0001856818
0.0001901169
0.0002041771
0.0002218714
0.0002310176
0.0003331064
0.0005265238
-0.0001015082
4.772231e-05
-1.484546e-05
-1.652515e-06
-2.709774e-05
-1.677446e-05
-3.333191e-05
-2.551241e-05
-4.215781e-05
-4.327073e-05
-3.96399e-05
-5.51225e-05
-4.048337e-05
-5.651994e-05
-5.196135e-05
-7.044303e-05
-5.782909e-05
-7.164482e-05
-6.125536e-05
-8.712309e-05
-9.274346e-05
-0.0001462552
-1.39625e-05
-0.0004504686
-0.0009262704
-0.0002271928
-0.000315026
-0.0002588145
-0.0002404349
-0.0002249931
-0.0002145012
-0.0002040312
-0.0001918031
-0.0001889986
-0.0001818929
-0.000177488
-0.0001727377
-0.0001700785
-0.0001663618
-0.0001638285
-0.0001617199
-0.0001597603
-0.0001583573
-0.0001570566
-0.0001556439
-0.0001551815
-0.0001540707
-0.0001538351
-0.0001535903
-0.0001537759
-0.0001540786
-0.0001547743
-0.0001555371
-0.0001568425
-0.0001578932
-0.0001600839
-0.0001616666
-0.0001636063
-0.0001670689
-0.0001691242
-0.0001732248
-0.0001774919
-0.0001835346
-0.0001883386
-0.0001964387
-0.0002024736
-0.0002169625
-0.0002228626
-0.0002459251
-0.000250902
-0.0003294375
-0.000208217
-0.000939878
-0.0004557851
-4.377164e-05
-0.0001258496
-9.567827e-05
-6.974323e-05
-8.82535e-05
-5.332774e-05
-6.638923e-05
-6.323803e-05
-4.928377e-05
-6.1971e-05
-4.933114e-05
-5.697843e-05
-3.065001e-05
-3.961872e-05
-3.186948e-05
-3.28032e-05
-3.064177e-05
-1.850827e-05
-3.090953e-05
-6.52867e-06
-1.450624e-05
3.954138e-05
-0.0001002761
0.0005268686
-0.0004252682
-4.304577e-05
-0.0001233025
-9.467473e-05
-6.904452e-05
-8.727086e-05
-5.305759e-05
-6.581308e-05
-6.259036e-05
-4.923388e-05
-6.173998e-05
-4.895819e-05
-5.66927e-05
-3.055742e-05
-3.975996e-05
-3.162849e-05
-3.268331e-05
-3.062591e-05
-1.89915e-05
-3.071594e-05
-6.642446e-06
-1.371905e-05
3.577565e-05
-7.905642e-05
0.0004745093
-0.000873745
-0.0002540425
-0.0003136875
-0.0002611788
-0.0002413169
-0.0002255726
-0.0002148735
-0.0002044911
-0.0001921665
-0.0001891276
-0.0001820574
-0.000177624
-0.0001728275
-0.0001701261
-0.0001664249
-0.0001638712
-0.0001617514
-0.000159777
-0.0001583572
-0.0001570604
-0.0001556499
-0.0001551773
-0.0001540755
-0.0001538418
-0.0001535981
-0.0001537848
-0.0001540871
-0.0001547822
-0.0001555488
-0.0001568533
-0.0001579165
-0.0001600949
-0.0001616867
-0.0001636523
-0.0001671066
-0.0001692129
-0.0001733616
-0.0001776633
-0.0001836948
-0.0001885562
-0.0001966874
-0.0002029021
-0.0002173223
-0.000223588
-0.0002465303
-0.0002537507
-0.00032732
-0.0002355961
-0.0008885135
0.0004737077
-8.079634e-05
4.366309e-05
-1.386682e-05
-2.126201e-06
-2.692337e-05
-1.683054e-05
-3.323799e-05
-2.571962e-05
-4.185925e-05
-4.321835e-05
-3.928805e-05
-5.484941e-05
-4.036775e-05
-5.626209e-05
-5.169312e-05
-6.983222e-05
-5.727926e-05
-7.106296e-05
-6.114917e-05
-8.629644e-05
-9.118661e-05
-0.0001433565
-1.388608e-05
-0.0004208969
0.000492098
0.0001294658
0.0002018608
0.0001622305
0.0001644735
0.0001545029
0.0001463695
0.0001519171
0.0001434343
0.000132593
0.0001512673
0.0001459937
0.0001432866
0.0001302759
0.0001462784
0.0001490573
0.0001437586
0.0001438736
0.0001451409
0.0001489298
0.0001421027
0.0001541738
0.0001464872
0.0001593888
0.0001569939
0.0001623819
0.0001662632
0.0001710281
0.0001732115
0.0001862377
0.0001908357
0.0002056659
0.0002231208
0.0002361724
0.0003349601
0.0003422531
0.0002370773
0.0002254239
0.0002075684
0.0001928207
0.0001881785
0.000175622
0.0001730943
0.0001685416
0.0001646053
0.0001592049
0.0001615347
0.0001483318
0.000156118
0.000143719
0.0001498182
0.0001465982
0.0001435831
0.0001436386
0.000148476
0.0001457538
0.0001298174
0.0001428871
0.0001454969
0.0001504978
0.0001316776
0.0001422593
0.0001506581
0.0001448082
0.0001556863
0.0001635328
0.0001674727
0.0002232607
9.780708e-05
0.0005177933
0.000340206
0.0002430729
0.0002267111
0.0002092021
0.0001936574
0.0001887779
0.0001764932
0.0001733941
0.0001687901
0.0001648248
0.0001589681
0.0001616043
0.0001485745
0.0001560304
0.0001439564
0.0001493226
0.0001466756
0.0001436425
0.0001433619
0.0001482159
0.0001455333
0.0001297408
0.0001428028
0.0001448217
0.0001496483
0.000131598
0.000141651
0.0001498379
0.0001445091
0.000154795
0.0001627518
0.0001660903
0.0002187155
9.909593e-05
0.0004824928
0.0004571012
0.0001298022
0.0001982167
0.0001607243
0.0001636886
0.0001535411
0.0001459712
0.0001510488
0.000142803
0.000132499
0.0001504119
0.0001453199
0.000143204
0.000130193
0.000146036
0.0001487597
0.0001434406
0.0001438831
0.0001452256
0.0001484617
0.0001423567
0.0001541143
0.0001467447
0.0001594752
0.0001567805
0.0001626186
0.000166531
0.0001713373
0.0001741113
0.0001868596
0.0001916812
0.0002072966
0.0002244694
0.0002419199
0.0003335343
0.0004160311
-6.088099e-05
3.90647e-05
-1.269425e-05
-2.782676e-06
-2.680263e-05
-1.69168e-05
-3.313239e-05
-2.595156e-05
-4.157749e-05
-4.315958e-05
-3.885777e-05
-5.458816e-05
-4.02055e-05
-5.59072e-05
-5.141298e-05
-6.914735e-05
-5.660645e-05
-7.037192e-05
-6.092093e-05
-8.50621e-05
-8.989484e-05
-0.0001388111
-1.464328e-05
-0.000387188
-0.0008130479
-0.0002805153
-0.0003121557
-0.0002638393
-0.0002422582
-0.0002261937
-0.0002152849
-0.0002049882
-0.0001925442
-0.000189268
-0.0001822401
-0.0001777666
-0.0001729226
-0.0001701762
-0.0001664907
-0.0001639129
-0.0001617841
-0.0001597917
-0.0001583548
-0.0001570616
-0.0001556533
-0.0001551708
-0.0001540776
-0.0001538456
-0.0001536041
-0.0001537918
-0.0001540939
-0.0001547884
-0.0001555595
-0.0001568623
-0.0001579384
-0.0001601055
-0.0001617051
-0.0001636974
-0.0001671473
-0.000169307
-0.0001735063
-0.0001778499
-0.0001838679
-0.0001887934
-0.0001969493
-0.0002033657
-0.0002177075
-0.000224372
-0.000247161
-0.0002569194
-0.0003249554
-0.0002626487
-0.0008289699
-0.0003906689
-4.317771e-05
-0.0001193914
-9.372228e-05
-6.810434e-05
-8.613325e-05
-5.264419e-05
-6.516286e-05
-6.184329e-05
-4.909805e-05
-6.148276e-05
-4.861964e-05
-5.638485e-05
-3.04225e-05
-3.985934e-05
-3.135072e-05
-3.258538e-05
-3.064809e-05
-1.957431e-05
-3.055739e-05
-6.893833e-06
-1.272818e-05
3.154421e-05
-5.848373e-05
0.0004170849
-0.0003511212
-4.437225e-05
-0.0001138434
-9.294412e-05
-6.726289e-05
-8.455954e-05
-5.211177e-05
-6.464341e-05
-6.0714e-05
-4.871175e-05
-6.126776e-05
-4.861891e-05
-5.586769e-05
-3.042653e-05
-3.966782e-05
-3.093196e-05
-3.254723e-05
-3.083603e-05
-2.053881e-05
-3.027344e-05
-7.468712e-06
-1.121261e-05
2.684216e-05
-3.891341e-05
0.0003532974
-0.0007423384
-0.0003058819
-0.0003105998
-0.0002669049
-0.0002433176
-0.000226888
-0.0002158043
-0.0002055183
-0.0001929607
-0.000189406
-0.0001824488
-0.0001779227
-0.0001730295
-0.0001702337
-0.0001665641
-0.0001639544
-0.000161819
-0.0001598053
-0.0001583508
-0.00015706
-0.0001556561
-0.0001551604
-0.0001540757
-0.0001538447
-0.0001536069
-0.0001537962
-0.0001540974
-0.0001547908
-0.0001555664
-0.0001568709
-0.0001579612
-0.0001601174
-0.0001617228
-0.00016374
-0.0001671881
-0.0001694196
-0.000173669
-0.0001780647
-0.0001840634
-0.0001890663
-0.0001972359
-0.0002038799
-0.0002181023
-0.0002252643
-0.0002478137
-0.0002605036
-0.0003223149
-0.0002886464
-0.0007595825
0.0003527977
-4.258795e-05
3.370217e-05
-1.098048e-05
-3.900909e-06
-2.672637e-05
-1.699449e-05
-3.271434e-05
-2.651293e-05
-4.125372e-05
-4.296082e-05
-3.808407e-05
-5.456497e-05
-4.00327e-05
-5.509999e-05
-5.148197e-05
-6.830438e-05
-5.554852e-05
-6.987476e-05
-6.0684e-05
-8.344316e-05
-8.893901e-05
-0.000132319
-1.671191e-05
-0.0003486254
0.0004175931
0.0001316687
0.0001929412
0.0001589715
0.0001626575
0.0001524847
0.0001456888
0.0001499178
0.000141963
0.0001322685
0.0001495989
0.0001446593
0.0001430709
0.0001299937
0.0001457642
0.0001484676
0.0001430188
0.0001438721
0.0001453208
0.0001478991
0.0001426436
0.0001541272
0.0001472182
0.0001593849
0.0001564882
0.0001628723
0.0001668826
0.0001718376
0.0001752525
0.0001874294
0.0001926441
0.0002089977
0.0002261492
0.0002480171
0.0003281472
0.0003341101
0.0002494034
0.0002283227
0.0002109065
0.0001946086
0.0001893231
0.0001776017
0.0001738825
0.0001691185
0.0001650594
0.0001586494
0.0001614946
0.0001490304
0.0001560148
0.0001442259
0.0001487384
0.0001467678
0.0001436788
0.0001429791
0.0001479639
0.0001452835
0.0001295492
0.0001426693
0.0001441612
0.0001488434
0.0001313852
0.0001408402
0.000148748
0.0001443412
0.0001537869
0.0001616707
0.0001646023
0.000212415
0.0001017824
0.0004420659
0.0003236867
0.0002552385
0.0002306235
0.0002125975
0.0001956617
0.0001895932
0.0001789802
0.0001747008
0.0001696164
0.0001653208
0.0001581675
0.0001610539
0.0001498808
0.000156261
0.000144675
0.0001480152
0.0001467566
0.000143663
0.0001424191
0.0001478501
0.0001450387
0.0001290866
0.0001425129
0.0001436861
0.0001482362
0.0001309081
0.0001397288
0.0001472592
0.0001445451
0.0001527344
0.0001601343
0.0001631982
0.0002043732
0.0001058222
0.0003965147
0.0003725663
0.0001351229
0.0001858829
0.0001568414
0.0001613687
0.0001514227
0.0001457503
0.0001484105
0.0001408154
0.0001317689
0.0001489806
0.0001441814
0.000142913
0.0001295228
0.0001455011
0.0001483115
0.0001424333
0.000143817
0.0001453071
0.000147182
0.0001431083
0.0001543975
0.0001480857
0.0001589645
0.0001560334
0.0001631541
0.0001674081
0.0001726714
0.0001766654
0.000187727
0.0001937126
0.000210686
0.0002285258
0.000253652
0.0003185189
0.0002836125
-2.778301e-05
2.760637e-05
-8.380766e-06
-5.70044e-06
-2.668293e-05
-1.703962e-05
-3.13619e-05
-2.784867e-05
-4.072793e-05
-4.247847e-05
-3.66295e-05
-5.491125e-05
-3.986058e-05
-5.331845e-05
-5.240931e-05
-6.723604e-05
-5.385176e-05
-6.992192e-05
-6.058989e-05
-8.149495e-05
-8.854903e-05
-0.0001237433
-2.00476e-05
-0.0003051433
-0.0006587402
-0.0003278257
-0.0003094852
-0.000270405
-0.0002445785
-0.0002277031
-0.0002165209
-0.0002060659
-0.00019348
-0.0001895211
-0.0001826855
-0.0001781029
-0.0001731559
-0.000170306
-0.0001666503
-0.0001639948
-0.0001618582
-0.0001598176
-0.0001583442
-0.0001570563
-0.0001556604
-0.0001551417
-0.000154065
-0.0001538358
-0.0001536035
-0.0001537981
-0.0001540933
-0.0001547845
-0.0001555627
-0.0001568822
-0.0001579886
-0.0001601342
-0.0001617401
-0.0001637784
-0.000167226
-0.0001695758
-0.0001738705
-0.0001783313
-0.0001842983
-0.0001893947
-0.0001975675
-0.0002044605
-0.0002184987
-0.0002263586
-0.0002484913
-0.0002645844
-0.0003196918
-0.000310923
-0.000677582
-0.0003059913
-4.616715e-05
-0.0001063722
-9.243653e-05
-6.684116e-05
-8.225238e-05
-5.148958e-05
-6.431897e-05
-5.889095e-05
-4.790605e-05
-6.119997e-05
-4.922405e-05
-5.490435e-05
-3.074894e-05
-3.88902e-05
-3.020448e-05
-3.262065e-05
-3.136046e-05
-2.211622e-05
-2.96204e-05
-8.477225e-06
-9.025306e-06
2.177185e-05
-2.183442e-05
0.0002825608
-0.0002527458
-5.055532e-05
-9.595928e-05
-9.098378e-05
-6.386283e-05
-8.095195e-05
-5.021127e-05
-6.202177e-05
-5.826751e-05
-4.756188e-05
-6.087609e-05
-4.842695e-05
-5.468911e-05
-2.980532e-05
-3.901167e-05
-2.96741e-05
-3.269137e-05
-3.147673e-05
-2.232578e-05
-2.98842e-05
-8.253412e-06
-9.024363e-06
1.452552e-05
-1.014995e-05
0.0002014913
-0.0005526095
-0.0003426298
-0.000307302
-0.0002730332
-0.0002460086
-0.0002284773
-0.0002171213
-0.000206801
-0.0001940445
-0.0001897043
-0.0001829549
-0.0001782868
-0.0001732722
-0.0001703746
-0.0001667226
-0.0001640158
-0.0001618963
-0.0001598096
-0.0001583191
-0.0001570438
-0.0001556366
-0.0001551093
-0.0001540312
-0.0001538069
-0.0001535875
-0.0001537873
-0.0001540747
-0.0001547582
-0.0001555483
-0.0001568745
-0.0001579994
-0.0001601514
-0.0001617383
-0.0001638175
-0.0001672933
-0.0001697192
-0.0001740807
-0.0001786359
-0.0001845746
-0.0001897376
-0.0001979202
-0.0002051284
-0.0002191338
-0.0002274939
-0.0002494432
-0.0002683175
-0.0003170057
-0.0003244431
-0.0005721758
0.0002000761
-1.61588e-05
2.095454e-05
-7.449654e-06
-6.024901e-06
-2.701049e-05
-1.746495e-05
-3.031023e-05
-2.805537e-05
-4.023906e-05
-4.264594e-05
-3.613358e-05
-5.369771e-05
-3.923547e-05
-5.236156e-05
-5.202317e-05
-6.654885e-05
-5.329663e-05
-6.805803e-05
-5.944289e-05
-7.885555e-05
-8.857358e-05
-0.000114591
-2.332139e-05
-0.0002553404
0.0003159354
0.0001388015
0.0001768557
0.0001542899
0.0001595798
0.0001498723
0.0001442403
0.0001478546
0.0001395787
0.0001303464
0.0001479271
0.0001442483
0.0001425248
0.0001281539
0.0001453588
0.0001488532
0.0001419591
0.000143498
0.0001449204
0.0001465763
0.0001436322
0.0001547843
0.0001480842
0.0001592684
0.0001558981
0.0001635472
0.0001680549
0.0001732964
0.0001771009
0.0001886264
0.0001951547
0.0002127449
0.0002311542
0.0002565067
0.000307323
0.000311614
0.0002582219
0.0002331549
0.0002146478
0.0001970795
0.0001904466
0.000179397
0.0001753046
0.0001702318
0.0001656925
0.0001580092
0.0001613386
0.0001498648
0.0001566327
0.0001451654
0.0001473541
0.0001463681
0.0001434206
0.0001419751
0.0001484537
0.0001449178
0.0001277302
0.0001421338
0.0001437608
0.0001471912
0.0001295075
0.0001385197
0.000146707
0.0001432285
0.0001510437
0.0001579856
0.0001621247
0.0001955586
0.0001096341
0.0003462625
0.000307236
0.0002537947
0.0002321982
0.0002187444
0.0001994566
0.0001974543
0.0001747958
0.0001730171
0.000170129
0.0001662531
0.0001603564
0.0001670178
0.0001432595
0.0001551709
0.0001433665
0.000148077
0.000145802
0.0001425758
0.0001431428
0.0001503767
0.0001449122
0.000124644
0.0001403583
0.0001441074
0.0001423912
0.0001257748
0.0001383335
0.000152296
0.0001316591
0.0001462549
0.0001547283
0.0001602088
0.0001865236
0.0001074655
0.0002900386
0.0002368778
0.0001378386
0.0001648485
0.0001513552
0.0001557641
0.0001454846
0.0001324993
0.0001533021
0.0001394268
0.0001266174
0.0001431379
0.0001445806
0.0001407155
0.0001250283
0.0001452713
0.0001506368
0.0001429095
0.0001423657
0.0001443825
0.0001477014
0.0001419588
0.000153368
0.0001415408
0.0001649861
0.000158278
0.0001641343
0.000167985
0.0001710435
0.0001724811
0.0001957234
0.0001975795
0.0002168959
0.0002303391
0.0002521158
0.0003038913
8.090168e-05
-3.739772e-07
1.431334e-05
-2.13608e-05
4.20022e-06
-2.97927e-05
-1.947999e-05
-4.063837e-05
-1.646755e-05
-4.260922e-05
-4.747856e-05
-4.486183e-05
-4.388134e-05
-3.634248e-05
-6.287929e-05
-3.821624e-05
-6.882064e-05
-6.13498e-05
-5.294601e-05
-5.141431e-05
-7.354187e-05
-8.560893e-05
-0.0001091573
-2.165805e-05
-0.0001928323
-0.0004207379
-0.0003453618
-0.0002960993
-0.0002684876
-0.0002468318
-0.0002279738
-0.0002156782
-0.0002085441
-0.000193661
-0.0001903978
-0.0001832671
-0.0001783084
-0.0001731874
-0.0001703073
-0.000166638
-0.0001639465
-0.0001618858
-0.0001597072
-0.0001582204
-0.0001569796
-0.0001554538
-0.0001550773
-0.0001539536
-0.0001537324
-0.0001535501
-0.0001537143
-0.0001540451
-0.0001547093
-0.0001555748
-0.0001567337
-0.0001578723
-0.0001601129
-0.0001616322
-0.0001638579
-0.0001675219
-0.0001693934
-0.0001740028
-0.0001787206
-0.0001847406
-0.0001897519
-0.0001979905
-0.0002057472
-0.0002208073
-0.0002267585
-0.0002516472
-0.000265874
-0.0003126943
-0.0003236477
-0.0004353726
-0.0001862316
-6.84373e-05
-8.017506e-05
-8.351442e-05
-4.550493e-05
-8.874466e-05
-4.5487e-05
-5.030002e-05
-6.741471e-05
-5.13863e-05
-5.826994e-05
-3.782275e-05
-6.148664e-05
-2.053583e-05
-4.775486e-05
-3.231304e-05
-3.206724e-05
-2.766414e-05
-1.321623e-05
-3.848877e-05
1.779008e-08
-2.301943e-05
-7.666474e-07
-9.240658e-06
0.0001053965
-2.051788e-05
6.115294e-06
-1.154706e-05
-4.576333e-05
-0.0001100035
-3.492301e-05
-0.0001707688
-0.0001638494
-1.67301e-05
-0.0001518335
-2.289562e-05
-2.616223e-05
-9.870827e-06
-2.943994e-05
-2.796975e-05
-0.0001495554
-0.0001820391
7.432881e-05
5.542108e-05
2.565605e-05
-0.0001507872
-0.0001515467
-0.0001422039
9.874718e-05
0.0001335367
-1.226619e-05
6.903179e-06
0.0001246054
8.397985e-05
-2.322133e-05
0.0001110387
-1.576466e-05
0.0001409776
0.0001411735
-5.218547e-05
-1.199235e-05
0.0001547269
-1.475037e-05
0.0001589518
7.587851e-05
-2.315032e-05
0.0001365579
-3.166115e-06
-6.424272e-05
-2.210946e-05
-6.318471e-05
-0.0001657222
0.0001213098
-9.970469e-05
-2.459229e-05
4.619082e-05
-7.863844e-05
-4.702345e-05
-3.277278e-05
6.102265e-05
-2.681959e-05
-1.961601e-05
8.584618e-05
0.0001210244
-4.987933e-05
-3.218156e-05
-4.165719e-05
-1.252503e-05
7.510577e-05
-3.091171e-05
-4.807727e-05
-0.0001423724
-2.269957e-05
-2.333058e-05
-0.0001418251
-0.0001250375
9.951793e-05
-6.823877e-05
-8.263891e-06
-0.0001828362
-3.153346e-05
-0.0001528728
-4.692268e-05
-0.0001927891
-9.263471e-05
7.30825e-05
-2.791728e-05
-1.665225e-05
-9.69514e-06
-4.694487e-05
-0.0001539675
-1.654129e-05
-1.398178e-05
-4.095911e-06
-1.412604e-05
-1.298858e-05
-4.203833e-05
-1.505853e-05
-1.107875e-05
-1.60729e-05
-0.0001270859
-8.689252e-05
-4.113753e-05
-1.445829e-05
-4.370676e-05
-2.283185e-05
0.0001193656
-8.48247e-06
-2.744932e-05
-6.901951e-05
-4.932054e-05
-1.870953e-05
9.769576e-05
-1.325864e-05
-5.347849e-05
-2.680285e-05
-9.706865e-05
-5.99062e-05
-4.350375e-05
-4.528283e-05
9.604938e-05
-0.0001696005
-1.8248e-05
-4.529708e-05
0.0001541712
0.0001783599
-1.358635e-05
-7.309859e-05
-1.874782e-05
-1.771826e-05
-3.319196e-05
0.0001105293
-2.840438e-05
-1.372319e-05
-3.483103e-05
-1.22423e-05
0.000144928
-1.176285e-05
-3.257928e-05
-5.583235e-05
8.503837e-05
-3.303826e-05
-1.626879e-05
-3.615639e-05
0.0001161774
-6.821882e-05
0.000192606
-2.239521e-05
-2.793587e-05
-1.301511e-05
-4.924453e-05
-0.0001208394
9.15713e-05
-3.1295e-05
-1.996552e-05
-2.652964e-05
-6.451743e-06
-9.972875e-06
1.331024e-05
0.0001375529
-5.091653e-05
0.0002005306
-3.322645e-05
-4.853837e-05
-2.227032e-05
0.0001529647
7.395316e-06
-5.983103e-05
3.817746e-06
-1.632011e-05
-3.82114e-05
6.182462e-05
-0.0001363043
-3.090549e-05
-4.360261e-05
-1.748989e-05
-9.198957e-05
0.0001085696
-2.880794e-05
5.215829e-05
5.696808e-05
-3.382805e-05
-0.0001000353
-4.270644e-05
-8.507731e-05
-3.448157e-05
-8.499515e-05
0.0001293881
-1.458366e-05
-0.0001604211
-0.0001703082
-2.211263e-05
-6.217556e-05
0.0001173688
-1.646494e-05
0.0001160678
-1.535342e-05
1.534929e-05
0.0001019572
-0.0001035279
-2.389772e-05
-1.461113e-05
0.0001354339
0.0001625674
-2.562781e-05
-2.245738e-05
-8.581304e-06
0.0001133952
-1.504729e-05
-1.786358e-05
-0.0001555733
-2.617343e-05
-6.748401e-05
-4.918724e-05
-2.776685e-05
8.277377e-05
-1.334098e-05
-0.0001054301
2.179377e-05
2.34654e-05
-0.0001200087
-0.000126695
3.709502e-05
0.0001378537
-9.564184e-06
-4.899854e-05
-0.0001526481
-1.818038e-05
-3.577104e-05
-5.587318e-05
-0.0001564652
0.0001212659
2.877837e-05
-0.0001169388
0.0001364895
-0.0001573123
-8.077282e-05
-0.0001811696
-0.0002014566
-4.102731e-05
-0.0001581855
-2.183456e-05
-0.000170833
7.173857e-05
0.000126204
8.315177e-05
-6.327157e-05
-2.652966e-05
-2.797602e-05
4.81453e-06
-4.796935e-05
-2.8312e-05
-4.144266e-05
1.442069e-06
-9.27745e-06
-0.0001365005
2.010386e-06
-2.512958e-05
8.591469e-05
-3.961478e-05
0.0002132039
-3.855261e-05
-1.703547e-05
-3.86857e-05
8.874987e-05
-3.196434e-05
-1.381882e-05
0.000130305
-0.0001877933
-3.91695e-05
-2.35684e-05
-3.926276e-05
9.803345e-05
0.000119834
6.425257e-05
0.000112151
-7.588707e-05
6.407261e-06
-0.0001496238
-4.071375e-05
-3.856239e-05
0.0001756791
-0.0001594414
-1.727723e-05
-0.0001487424
-9.586841e-05
-3.492873e-05
-0.0001793349
-3.151878e-05
-1.783404e-05
-2.02903e-05
0.0001253532
-1.847748e-05
-7.493948e-05
-9.275451e-07
0.0001828867
8.093987e-05
-0.0001319167
-2.942514e-05
-0.0001242851
-1.287661e-05
-3.395097e-05
-4.296005e-05
-7.754183e-05
-0.0001493935
0.0001675442
-2.418813e-05
-3.573288e-05
4.522394e-05
-2.075632e-05
-0.0001078439
-6.88859e-05
-9.917714e-05
-3.965596e-05
-3.03301e-05
-2.35068e-05
0.0001255962
0.0001519001
0.0001427107
-0.0001367096
-1.063411e-05
-2.289903e-05
3.06352e-06
-7.303364e-05
-4.864631e-05
-0.000148037
4.82201e-06
0.0001034214
-4.422618e-05
-1.862875e-06
-3.491564e-05
-0.0001086795
2.559115e-05
-0.0001934122
0.0001190602
-1.701506e-05
-0.0001465481
-1.458505e-05
-1.17935e-05
-1.103616e-05
-1.252448e-05
-1.595653e-05
-5.968302e-05
-4.047421e-05
-3.284732e-05
0.0001339378
-4.595013e-05
9.611771e-05
7.130431e-05
-1.441727e-05
-2.207357e-05
0.0001328551
0.0001093985
0.0001126598
9.95538e-05
0.0001412354
-2.44213e-05
-3.607189e-05
-3.815847e-05
-8.185244e-05
-9.25159e-05
0.0001589724
0.0001459146
0.0001464763
0.0001616684
-6.062089e-05
-0.0001691255
-0.0001399894
-2.525203e-05
-5.440957e-05
6.370442e-05
-2.727054e-05
-2.925264e-05
-3.822763e-05
-1.969972e-05
-1.769977e-05
2.587791e-05
-4.441823e-05
-4.709833e-05
-3.880467e-05
-2.839691e-05
-3.714439e-05
0.000184377
-5.337807e-05
-1.633795e-05
-3.316693e-05
-3.392307e-05
-1.082054e-05
-9.28382e-06
0.0001252958
-2.932287e-05
-3.326949e-05
0.0001466662
0.0001304789
-0.0001545209
0.0001233738
1.599754e-05
-1.931013e-05
-2.878721e-05
0.0001284998
-2.407954e-05
-1.178156e-05
-0.0001086001
-1.349035e-05
-1.621305e-05
-1.321046e-05
2.057388e-05
4.428978e-07
0.0001342034
0.0001769177
-2.912956e-05
5.875481e-05
-1.170826e-05
-0.0001585381
-0.0001506513
-0.0001374927
0.0001311445
-1.426607e-05
-0.0001556777
-1.232422e-05
9.517298e-05
-2.797776e-05
-4.670124e-05
-2.9008e-05
-2.430456e-05
-2.37371e-05
-1.609107e-05
0.0001366373
7.727378e-05
-5.915052e-05
-3.414182e-05
-3.243264e-05
-2.076538e-05
-2.676757e-05
3.496318e-05
-2.583186e-05
-6.189987e-05
-7.737415e-05
-5.698096e-05
5.225109e-05
-0.0001509625
-3.497077e-05
-4.052646e-05
-1.989065e-05
-2.417081e-05
-3.162406e-05
-4.353121e-05
-6.907896e-05
0.0001347027
-1.375702e-05
-5.213458e-06
-3.504644e-05
-4.027733e-05
-3.255056e-05
-1.550033e-05
-6.413347e-05
0.0001511821
1.18887e-05
-3.125106e-05
-3.752772e-05
-3.28222e-05
-2.219268e-05
-1.703575e-05
-2.315717e-05
-2.671571e-05
-1.388726e-05
-6.402428e-05
-1.533072e-05
7.375228e-05
-4.07586e-05
-6.830802e-05
-2.526263e-05
-4.732149e-05
-4.418099e-05
-1.172383e-05
0.000145424
-2.499218e-05
-1.86697e-05
-0.0001404301
0.0001536565
-0.0001501921
-0.0001506107
-1.270606e-05
-2.214265e-05
8.22533e-05
-1.372781e-05
-1.541565e-05
0.0001008969
-3.760623e-05
0.000147076
0.0001540881
-0.0001483861
0.0001097365
0.0001425227
0.000123249
-0.0001407376
0.0001239234
-1.92366e-05
0.000102354
-2.671277e-05
-7.108254e-05
-1.964742e-05
-3.533087e-05
0.0001193061
1.703597e-06
-2.12018e-05
-9.057982e-05
6.280513e-05
-0.0001152983
-3.090379e-05
0.0001207198
0.0001361881
-5.673144e-05
6.799726e-05
9.071085e-05
-7.551572e-05
-2.023466e-06
-2.324101e-05
-1.521021e-05
-1.427294e-05
-6.479283e-05
-3.677633e-05
3.104371e-05
0.0001807745
-2.527157e-05
-4.17534e-05
0.0001787318
0.0001205294
-2.655189e-05
7.986672e-05
-0.0001058454
-3.355973e-05
-4.82783e-05
-0.0001102321
-5.747305e-06
0.0001447445
0.0001524366
0.0001457225
-7.577511e-05
-3.373078e-05
-4.096725e-05
-2.461761e-05
-2.515038e-05
-2.027889e-05
-1.657812e-05
-1.703769e-05
-1.756096e-05
-1.518176e-05
-1.308462e-05
-5.569949e-05
-0.0001565625
-0.0002277007
-8.527524e-05
5.334158e-05
-2.585627e-05
-2.741437e-05
-2.776667e-05
0.000191134
-1.118967e-05
-2.457264e-05
-1.242798e-05
-1.047222e-05
-1.135091e-05
1.006965e-05
-0.0001966126
-7.26202e-05
-8.229446e-06
-4.911312e-05
-5.166966e-05
2.379564e-05
7.312629e-05
-5.048923e-05
-5.6068e-05
-8.768623e-05
0.0001261869
-4.086013e-05
-2.129404e-05
-1.411256e-05
-3.405151e-05
-0.0001650121
-2.915109e-05
0.0001167758
0.0001262928
-1.060809e-05
-5.752036e-05
-5.384105e-05
1.644993e-05
-8.658614e-07
-2.987092e-05
0.0001270489
-1.8139e-05
7.333953e-05
-1.227761e-05
8.952828e-05
0.0001151953
1.316079e-05
-1.4804e-06
-2.875103e-06
-0.0001118081
7.118562e-05
0.0001082492
-3.151898e-05
9.777837e-05
-1.243073e-05
-2.033166e-05
-0.0001508998
3.047095e-05
-0.0001077095
-3.627871e-05
-2.078774e-05
-0.0001709195
6.19059e-05
0.0001735472
-0.0001893296
-1.393081e-05
-2.266956e-05
-5.766571e-05
2.444127e-05
-3.183125e-05
-1.975661e-05
-1.869886e-05
-3.084889e-05
-0.0001494687
-8.516525e-05
-0.0001194877
-0.0001526887
-0.0001504182
-2.390584e-05
4.395857e-05
3.854329e-05
-2.487321e-06
8.771204e-05
0.0001915131
0.0001083393
-1.756169e-05
-2.07416e-05
-1.270844e-05
-1.316565e-05
-1.58997e-05
-1.143823e-05
-1.701201e-05
0.0001110695
-2.457413e-05
0.0001852251
-1.072758e-05
-3.107649e-05
-3.870603e-05
8.041975e-05
-3.143915e-05
-3.167615e-05
-0.0001741215
-0.0001194041
-0.0001775075
-0.0001279234
8.132064e-05
-0.0002387722
-3.01383e-05
-2.864497e-05
-5.76959e-05
-3.877558e-05
-0.0001187058
-0.0001446289
-0.0001021726
9.568062e-05
-0.000155747
-3.979612e-05
-3.609537e-05
-2.015306e-06
-3.083313e-05
0.0001093958
-4.572757e-05
-3.95226e-05
-0.0001641218
-2.341791e-05
-3.045944e-05
-0.0001012736
-3.88717e-05
-1.742117e-05
-0.0001072617
-2.255469e-05
7.205283e-05
-2.631357e-05
-2.910011e-05
-2.308671e-05
0.0001500629
-0.0001238861
-1.087974e-05
-1.022124e-05
3.374425e-05
-0.0001058276
-0.0001142724
-8.788129e-06
-3.936598e-05
7.31703e-05
-1.984754e-05
-0.0001415081
-2.599472e-05
-2.572315e-05
-5.943413e-05
-0.0001757279
-0.0001780769
0.000123359
-4.367373e-05
-3.446461e-05
0.0001296351
-9.580425e-05
9.674451e-05
-3.894844e-05
-5.892553e-05
0.0001175824
-0.0001534469
-2.204884e-05
2.393653e-07
-2.164917e-05
-0.0001585721
-1.09941e-05
-9.250288e-06
0.0001292423
0.0001000482
0.0001132584
0.0001159197
0.0001325283
0.0001543712
-1.330442e-05
7.971186e-06
-7.40009e-06
-3.185865e-05
-3.017129e-05
-3.400827e-05
-3.116266e-05
-0.0001504079
-1.321696e-05
-1.228604e-05
-2.555759e-05
-3.226333e-05
0.0001738237
0.0001625695
0.0001181538
0.0001282485
-3.300418e-05
-5.331649e-05
-2.460634e-05
-2.387083e-05
7.320475e-05
-2.378788e-05
-7.912085e-06
-3.711282e-06
-4.33883e-05
0.0001172205
0.000147193
-1.580921e-05
-1.200059e-05
3.752733e-05
-5.005055e-05
-0.0001294028
-2.405013e-05
7.488684e-05
-8.877514e-06
-3.519892e-05
-1.873176e-05
-6.792152e-05
-1.685768e-05
6.162361e-05
-0.0001316044
0.0001762183
-2.663904e-05
7.195195e-05
3.089526e-05
3.569124e-05
-0.0001525579
-4.324569e-05
-0.0001738828
5.619105e-07
-3.098934e-05
-9.167416e-05
-4.907737e-05
-1.775133e-05
-1.030945e-05
-2.598567e-05
-1.782625e-05
-2.240474e-05
4.141155e-05
8.23248e-05
-5.295568e-05
-7.665003e-05
-2.592312e-05
3.512785e-05
-6.875095e-05
-0.0001576687
-3.903148e-05
-1.488185e-05
-0.0001375659
3.594166e-05
-1.175278e-05
-3.487565e-06
-2.673628e-05
-4.109377e-05
0.0001800326
0.0001574672
0.0001760192
0.0001457567
-0.0001572497
-1.458123e-05
1.502296e-05
-3.976537e-05
-0.0001180722