/*--------------------------------*- C++ -*----------------------------------*\
| =========                 |                                                 |
| \\      /  F ield         | OpenFOAM: The Open Source CFD Toolbox           |
|  \\    /   O peration     | Version:  2406                                  |
|   \\  /    A nd           | Website:  www.openfoam.com                      |
|    \\/     M anipulation  |                                                 |
\*---------------------------------------------------------------------------*/
FoamFile
{
    version     2.0;
    format      ascii;
    arch        "LSB;label=32;scalar=64";
    class       surfaceScalarField;
    location    "0.46";
    object      phi;
}
// * * * * * * * * * * * * * * * * * * * * * * * * * * * * * * * * * * * * * //

dimensions      [0 3 -1 0 0 0 0];

oriented        oriented;

internalField   nonuniform List<scalar> 
7340
(
2.535726e-14
-4.129534e-14
1.593807e-14
1.793321e-14
7.424058e-15
1.675884e-14
1.174364e-15
1.51894e-14
1.569447e-15
1.510873e-14
8.066544e-17
1.407808e-14
1.030656e-15
1.402083e-14
5.724665e-17
1.355127e-14
4.69556e-16
1.287637e-14
6.749091e-16
1.289939e-14
-2.302311e-17
1.258356e-14
3.158293e-16
1.218587e-14
3.976915e-16
1.174238e-14
4.434841e-16
1.237778e-14
-6.353962e-16
1.243671e-14
-5.892561e-17
1.230451e-14
1.321988e-16
1.217483e-14
1.296792e-16
1.240551e-14
-2.306801e-16
1.292971e-14
-5.242019e-16
1.289599e-14
3.37201e-17
1.339308e-14
-4.9709e-16
1.425986e-14
-8.667859e-16
1.401384e-14
2.460189e-16
1.523724e-14
-1.223406e-15
2.577969e-14
-1.054245e-14
2.049408e-15
2.373028e-14
7.917089e-16
1.257703e-15
1.691796e-15
-9.000891e-16
9.988628e-16
6.929345e-16
8.386515e-16
1.602119e-16
6.170782e-16
2.21573e-16
3.823068e-16
2.347711e-16
2.36319e-16
1.459875e-16
2.826209e-16
-4.630226e-17
1.79433e-16
1.031878e-16
1.155348e-16
6.389816e-17
9.28088e-17
2.272596e-17
7.053106e-17
2.22777e-17
2.472245e-17
4.580861e-17
1.344168e-17
1.128081e-17
9.52564e-18
3.916074e-18
2.945589e-18
6.580069e-18
-3.019363e-18
5.964954e-18
-1.965492e-17
1.663557e-17
-2.896231e-17
9.307418e-18
-2.565022e-17
-3.312066e-18
-3.498988e-17
9.339677e-18
-2.817699e-17
-6.812867e-18
-1.858346e-17
-9.593513e-18
-7.5393e-18
-1.104414e-17
3.786341e-18
-1.132562e-17
1.321831e-17
-9.431957e-18
1.908399e-17
-5.865662e-18
2.438189e-17
-5.297906e-18
2.419289e-17
1.889835e-19
3.089741e-17
-6.704551e-18
1.037387e-17
2.052348e-17
-2.563965e-20
1.039945e-17
-7.284097e-18
7.258398e-18
-4.483963e-17
3.755549e-17
-3.661422e-17
-8.225491e-18
-2.90812e-17
-7.533137e-18
-3.900781e-17
9.926438e-18
-9.747454e-17
5.846645e-17
-1.567374e-16
5.926253e-17
-2.436464e-16
8.690854e-17
-3.361522e-16
9.250539e-17
-5.849357e-16
2.487832e-16
-7.381646e-16
1.532285e-16
-1.023036e-15
2.848706e-16
-1.466022e-15
4.429867e-16
-1.147325e-15
-3.186983e-16
-1.505411e-15
3.580905e-16
-2.580533e-14
2.429992e-14
-1.564991e-14
-1.015543e-14
-1.424133e-14
-1.408592e-15
-1.41739e-14
-6.74273e-17
-1.343959e-14
-7.343121e-16
-1.269019e-14
-7.494035e-16
-1.260112e-14
-8.906592e-17
-1.240251e-14
-1.986115e-16
-1.239821e-14
-4.305125e-18
-1.196138e-14
-4.368334e-16
-1.208296e-14
1.215819e-16
-1.223981e-14
1.568554e-16
-1.200902e-14
-2.307945e-16
-1.250513e-14
4.96115e-16
-1.26054e-14
1.002637e-16
-1.289855e-14
2.931487e-16
-1.307272e-14
1.741726e-16
-1.373102e-14
6.58302e-16
-1.418418e-14
4.531586e-16
-1.462768e-14
4.434962e-16
-1.450729e-14
-1.203877e-16
-1.506013e-14
5.528413e-16
-1.709018e-14
2.030054e-15
-1.876966e-14
1.679473e-15
-2.481056e-14
6.040899e-15
-4.084557e-14
1.603501e-14
-2.570071e-14
-1.514486e-14
-1.781603e-14
-7.884683e-15
-1.707145e-14
-7.445782e-16
-1.511844e-14
-1.953009e-15
-1.419457e-14
-9.238694e-16
-1.388067e-14
-3.139064e-16
-1.366388e-14
-2.167819e-16
-1.284331e-14
-8.205783e-16
-1.261008e-14
-2.332279e-16
-1.26262e-14
1.611815e-17
-1.191874e-14
-7.074568e-16
-1.134769e-14
-5.710466e-16
-1.115538e-14
-1.923088e-16
-1.14869e-14
3.31514e-16
-1.10808e-14
-4.060992e-16
-1.056709e-14
-5.137102e-16
-1.051612e-14
-5.096834e-17
-1.033545e-14
-1.806753e-16
-1.020851e-14
-1.269328e-16
-1.040065e-14
1.921377e-16
-1.041857e-14
1.791631e-17
-1.039371e-14
-2.485885e-17
-1.063923e-14
2.455253e-16
-1.037339e-14
-2.658412e-16
-1.030555e-14
-6.784504e-17
-1.022033e-14
-8.522012e-17
-1.019597e-14
-2.435998e-17
-1.041756e-14
2.21592e-16
-1.064029e-14
2.227362e-16
-1.06734e-14
3.311156e-17
-1.084123e-14
1.67831e-16
-1.09161e-14
7.487033e-17
-1.146448e-14
5.483789e-16
-1.257781e-14
1.113331e-15
-1.260201e-16
-1.245179e-14
1.249794e-14
-1.262396e-14
1.138718e-14
1.110757e-15
1.084073e-14
5.464536e-16
1.077682e-14
6.391082e-17
1.061038e-14
1.664354e-16
1.058181e-14
2.857717e-17
1.038274e-14
1.990614e-16
1.016967e-14
2.130751e-16
1.020555e-14
-3.587826e-17
1.030698e-14
-1.014362e-16
1.0396e-14
-8.901382e-17
1.068131e-14
-2.853156e-16
1.044848e-14
2.328346e-16
1.05029e-14
-5.442249e-17
1.051139e-14
-8.492731e-18
1.033398e-14
1.774162e-16
1.048927e-14
-1.552875e-16
1.063409e-14
-1.448268e-16
1.064902e-14
-1.493232e-17
1.113322e-14
-4.841983e-16
1.152056e-14
-3.873332e-16
1.118468e-14
3.358779e-16
1.138206e-14
-1.97379e-16
1.195705e-14
-5.749933e-16
1.265931e-14
-7.022619e-16
1.263159e-14
2.772593e-17
1.284624e-14
-2.146572e-16
1.36154e-14
-7.691574e-16
1.375979e-14
-1.443846e-16
1.403497e-14
-2.751837e-16
1.483244e-14
-7.974754e-16
1.710621e-14
-2.273768e-15
1.837208e-14
-1.26587e-15
2.492515e-14
-6.553073e-15
-1.637018e-14
4.357555e-14
4.231652e-16
-5.662267e-14
4.378212e-14
9.041839e-16
4.169023e-14
2.638343e-15
4.137165e-14
3.824991e-16
4.08517e-14
6.863804e-16
4.067555e-14
2.047323e-16
4.003811e-14
8.36494e-16
3.917713e-14
1.074054e-15
3.926323e-14
-1.219749e-16
3.963897e-14
-4.771798e-16
4.00125e-14
-4.62536e-16
4.100553e-14
-1.278352e-15
4.030245e-14
9.359171e-16
4.033567e-14
-8.763671e-17
4.052767e-14
-2.004972e-16
3.974426e-14
9.608242e-16
4.033197e-14
-7.429999e-16
4.095025e-14
-7.63107e-16
4.103391e-14
-9.858638e-17
4.276836e-14
-2.218649e-15
4.416316e-14
-1.782131e-15
4.317384e-14
1.325195e-15
4.390678e-14
-9.303149e-16
4.603946e-14
-2.707682e-15
4.851929e-14
-3.182085e-15
4.873949e-14
-1.924734e-16
4.960056e-14
-1.07573e-15
5.241889e-14
-3.587483e-15
5.315426e-14
-8.797611e-16
5.42452e-14
-1.366121e-15
5.753551e-14
-4.08779e-15
6.651911e-14
-1.125737e-14
7.150085e-14
-6.247606e-15
9.915682e-14
-3.420904e-14
1.48317e-13
-6.553034e-14
-1.016034e-13
1.461735e-13
-5.971499e-14
-6.991533e-14
-3.957274e-14
-6.638451e-14
-4.275399e-15
-5.994621e-14
-8.39131e-15
-5.49675e-14
-5.902578e-15
-5.359839e-14
-1.683015e-15
-5.260602e-14
-1.209156e-15
-4.95942e-14
-3.832396e-15
-4.866092e-14
-1.166509e-15
-4.839512e-14
-2.496813e-16
-4.589626e-14
-3.206318e-15
-4.377673e-14
-2.690572e-15
-4.306079e-14
-9.082476e-16
-4.403228e-14
1.303002e-15
-4.25661e-14
-1.872278e-15
-4.072182e-14
-2.357995e-15
-4.049809e-14
-2.746993e-16
-3.976036e-14
-9.184029e-16
-3.926408e-14
-6.232123e-16
-4.011279e-14
1.040842e-15
-4.002105e-14
-7.382391e-17
-4.009519e-14
4.92883e-17
-4.085044e-14
1.000774e-15
-3.993146e-14
-1.184821e-15
-3.96382e-14
-3.611104e-16
-3.932378e-14
-3.996378e-16
-3.927968e-14
-6.846101e-17
-4.018085e-14
1.122763e-15
-4.08998e-14
9.416842e-16
-4.109501e-14
2.28328e-16
-4.162302e-14
6.958362e-16
-4.198463e-14
4.364851e-16
-4.408062e-14
2.644366e-15
-4.400283e-14
1.035543e-15
-5.603145e-14
-6.875646e-14
8.738033e-14
-2.87793e-14
-5.565785e-14
-1.450721e-14
-5.543894e-14
-2.863454e-16
-5.235286e-14
-3.820387e-15
-4.950798e-14
-3.594284e-15
-4.872248e-14
-8.745741e-16
-4.810011e-14
-8.209766e-16
-4.790025e-14
-2.041656e-16
-4.639086e-14
-1.94622e-15
-4.664791e-14
3.786268e-16
-4.719672e-14
7.056661e-16
-4.641014e-14
-1.017376e-15
-4.808429e-14
2.170269e-15
-4.870565e-14
7.216241e-16
-4.973145e-14
1.318944e-15
-5.053952e-14
9.822475e-16
-5.283679e-14
2.955565e-15
-5.476119e-14
2.377563e-15
-5.635349e-14
2.035793e-15
-5.624056e-14
-2.333135e-16
-5.8489e-14
2.801274e-15
-6.634103e-14
9.882092e-15
-7.29595e-14
8.297939e-15
-9.842532e-14
3.150672e-14
6.378322e-14
2.163346e-14
-8.751176e-14
8.960858e-14
4.613611e-15
1.827755e-14
7.147196e-15
-3.433676e-15
4.598846e-15
3.241285e-15
3.65952e-15
1.099538e-15
2.711719e-15
1.169373e-15
1.7704e-15
1.17609e-15
1.156889e-15
7.594979e-16
1.199986e-15
-8.939923e-17
8.366637e-16
4.665103e-16
5.558348e-16
3.447271e-16
4.509988e-16
1.27562e-16
3.410722e-16
1.322043e-16
1.671165e-16
2.197644e-16
1.057294e-16
7.266796e-17
7.949681e-17
3.014867e-17
4.773174e-17
3.834517e-17
1.71373e-17
3.655941e-17
-4.927109e-17
8.304399e-17
-8.742082e-17
4.745719e-17
-8.480602e-17
-5.926832e-18
-1.178215e-16
4.235516e-17
-1.012143e-16
-2.342e-17
-6.819602e-17
-4.261175e-17
-3.155259e-17
-4.768754e-17
8.021371e-18
-5.089955e-17
3.866333e-17
-4.007388e-17
5.753195e-17
-2.473426e-17
7.142215e-17
-1.918808e-17
6.912112e-17
2.490017e-18
8.2087e-17
-1.967044e-17
5.713511e-18
9.689694e-17
-4.300704e-17
5.911997e-17
-9.075516e-17
5.500648e-17
-2.26518e-16
1.733183e-16
-2.164912e-16
-1.825228e-17
-2.045436e-16
-1.948086e-17
-2.728121e-16
7.819487e-17
-5.047249e-16
2.90379e-16
-7.776787e-16
3.322161e-16
-1.131311e-15
4.4054e-16
-1.613674e-15
5.748683e-16
-2.544549e-15
1.179658e-15
-3.344847e-15
9.53526e-16
-4.544902e-15
1.484926e-15
-6.578496e-15
2.476581e-15
-5.445639e-15
-1.451558e-15
-1.992013e-14
1.483258e-14
9.176013e-14
1.00379e-13
6.387609e-14
7.044245e-14
3.736056e-14
6.657131e-14
5.045504e-15
5.911616e-14
9.024598e-15
5.820932e-14
9.875041e-16
5.461902e-14
4.620961e-15
5.397025e-14
7.060175e-16
5.224762e-14
2.192186e-15
4.97536e-14
3.168921e-15
4.961175e-14
1.18836e-16
4.856677e-14
1.360805e-15
4.695913e-14
2.005327e-15
4.554466e-14
1.857953e-15
4.774767e-14
-2.838402e-15
4.803815e-14
-3.494049e-16
4.747882e-14
6.915279e-16
4.70854e-14
5.230972e-16
4.813836e-14
-1.283635e-15
4.99657e-14
-2.351542e-15
5.024066e-14
-2.412465e-16
5.2205e-14
-2.461422e-15
5.563836e-14
-4.300148e-15
5.479869e-14
1.085687e-15
6.723047e-14
-1.36552e-14
-3.082374e-14
2.235491e-13
-3.117383e-13
1.520653e-13
1.588634e-13
1.020463e-13
1.47838e-13
1.607093e-14
1.312349e-13
2.562762e-14
1.283183e-13
3.904111e-15
1.207613e-13
1.217796e-14
1.187751e-13
2.692233e-15
1.150224e-13
5.944896e-15
1.09666e-13
8.525283e-15
1.090723e-13
7.126146e-16
1.06953e-13
3.480029e-15
1.034554e-13
5.50301e-15
1.0072e-13
4.593317e-15
1.053261e-13
-7.444543e-15
1.05957e-13
-9.802998e-16
1.047034e-13
1.945126e-15
1.040643e-13
1.162253e-15
1.066661e-13
-3.88541e-15
1.105701e-13
-6.255583e-15
1.117306e-13
-1.401791e-15
1.164963e-13
-7.227078e-15
1.238992e-13
-1.170305e-14
1.242835e-13
7.014128e-16
1.557957e-13
-4.516741e-14
1.776892e-13
-5.27173e-14
6.512167e-14
2.021761e-13
1.595477e-14
6.744446e-14
1.708622e-14
-4.565127e-15
1.165406e-14
8.673446e-15
8.975424e-15
3.778174e-15
6.680327e-15
3.46447e-15
4.517759e-15
3.338658e-15
3.031971e-15
2.245285e-15
2.918393e-15
2.417845e-17
2.131252e-15
1.253651e-15
1.464461e-15
1.011518e-15
1.188223e-15
4.037998e-16
9.080599e-16
4.123674e-16
5.167494e-16
6.110749e-16
3.512936e-16
2.381238e-16
2.68939e-16
1.125034e-16
1.836742e-16
1.2361e-16
1.020241e-16
1.182096e-16
-5.037273e-17
2.354409e-16
-1.420098e-16
1.390943e-16
-1.519602e-16
4.023559e-18
-2.257158e-16
1.161109e-16
-2.047836e-16
-4.435218e-17
-1.435001e-16
-1.038952e-16
-7.425106e-17
-1.169365e-16
2.747625e-18
-1.278982e-16
5.895467e-17
-9.628087e-17
9.05103e-17
-5.628983e-17
1.0961e-16
-3.82877e-17
9.613763e-17
1.596236e-17
1.045624e-16
-2.809518e-17
-6.454029e-17
2.659996e-16
-1.910499e-16
1.856295e-16
-3.281697e-16
1.921263e-16
-6.24139e-16
4.692875e-16
-6.35275e-16
-7.116279e-18
-6.512518e-16
-3.504104e-18
-8.522853e-16
2.792282e-16
-1.395228e-15
8.33322e-16
-2.066506e-15
1.003494e-15
-2.922503e-15
1.296537e-15
-4.170668e-15
1.823033e-15
-6.277027e-15
3.286016e-15
-8.335977e-15
3.012476e-15
-1.141122e-14
4.560168e-15
-1.612333e-14
7.188691e-15
-1.716505e-14
-4.098403e-16
-6.17264e-14
5.939393e-14
-1.771024e-13
2.071361e-13
-1.58938e-13
-4.694364e-14
-1.262277e-13
-4.721755e-14
-1.2363e-13
-2.884081e-15
-1.168344e-13
-1.061591e-14
-1.102299e-13
-1.019881e-14
-1.078571e-13
-3.247398e-15
-1.064869e-13
-2.191196e-15
-1.058777e-13
-8.13336e-16
-1.026819e-13
-5.141989e-15
-1.029093e-13
6.060312e-16
-1.040094e-13
1.805711e-15
-1.023278e-13
-2.698915e-15
-1.057241e-13
5.566568e-15
-1.073501e-13
2.347549e-15
-1.095782e-13
3.547059e-15
-1.114346e-13
2.838656e-15
-1.162163e-13
7.73722e-15
-1.206248e-13
6.786121e-15
-1.241219e-13
5.5329e-15
-1.243745e-13
1.923289e-17
-1.299801e-13
8.406913e-15
-1.502668e-13
3.016878e-14
-1.63569e-13
2.160015e-14
-2.193863e-13
8.7324e-14
-3.068176e-13
1.512146e-13
-2.259477e-13
-1.405849e-13
-1.57544e-13
-1.079764e-13
-1.471468e-13
-1.46726e-14
-1.330124e-13
-2.252573e-14
-1.214636e-13
-1.745133e-14
-1.181175e-13
-5.029201e-15
-1.157052e-13
-3.621447e-15
-1.092744e-13
-1.026318e-14
-1.070978e-13
-3.343133e-15
-1.060324e-13
-1.315008e-15
-1.008187e-13
-8.420008e-15
-9.639203e-14
-7.117274e-15
-9.478153e-14
-2.518753e-15
-9.645383e-14
2.975309e-15
-9.33345e-14
-4.99161e-15
-8.954324e-14
-6.149256e-15
-8.903061e-14
-7.87333e-16
-8.732093e-14
-2.628084e-15
-8.62604e-14
-1.683741e-15
-8.824723e-14
3.02767e-15
-8.788279e-14
-4.382625e-16
-8.822232e-14
3.888236e-16
-8.967513e-14
2.453583e-15
-8.775118e-14
-3.108776e-15
-8.709589e-14
-1.016402e-15
-8.643949e-14
-1.056031e-15
-8.647681e-14
-3.11466e-17
-8.851189e-14
3.157843e-15
-8.994921e-14
2.379004e-15
-9.041392e-14
6.930445e-16
-9.144094e-14
1.722857e-15
-9.239259e-14
1.38813e-15
-9.598783e-14
6.239612e-15
-8.779803e-14
-7.154263e-15
-8.547767e-16
-1.429747e-13
8.672604e-14
-1.442035e-13
9.529776e-14
-7.667541e-15
9.173689e-14
6.199213e-15
9.087991e-14
1.239479e-15
8.987717e-14
1.689126e-15
8.945264e-14
6.292654e-16
8.818293e-14
2.106201e-15
8.624534e-14
3.011644e-15
8.629858e-14
-1.752161e-16
8.708651e-14
-1.265105e-15
8.791584e-14
-1.291872e-15
9.000249e-14
-3.365004e-15
8.866732e-14
2.271087e-15
8.855291e-14
2.677321e-17
8.913758e-14
-7.851581e-16
8.730235e-14
2.796049e-15
8.854401e-14
-1.984661e-15
9.001449e-14
-2.233586e-15
9.02236e-14
-3.076921e-16
9.377783e-14
-5.772887e-15
9.674296e-14
-4.747258e-15
9.502941e-14
3.038747e-15
9.667271e-14
-2.573612e-15
1.011252e-13
-7.160159e-15
1.062983e-13
-8.355175e-15
1.072624e-13
-1.156585e-15
1.092783e-13
-3.091682e-15
1.152997e-13
-9.608848e-15
1.171668e-13
-2.74685e-15
1.198415e-13
-4.040806e-15
1.304609e-13
-1.470722e-14
1.475053e-13
-2.830179e-14
1.603322e-13
-1.907443e-14
2.213034e-13
-9.518033e-14
-1.559652e-13
1.438451e-13
1.510831e-15
-2.895594e-13
1.732604e-13
-3.708288e-14
1.704887e-13
8.97096e-15
1.688762e-13
2.851912e-15
1.672267e-13
3.338634e-15
1.665154e-13
1.340621e-15
1.643056e-13
4.316031e-15
1.606598e-13
6.657385e-15
1.604629e-13
2.169326e-17
1.618435e-13
-2.645734e-15
1.633497e-13
-2.798051e-15
1.671865e-13
-7.201753e-15
1.649168e-13
4.540769e-15
1.64514e-13
4.295673e-16
1.657634e-13
-2.034588e-15
1.622341e-13
6.32534e-15
1.644105e-13
-4.161083e-15
1.673554e-13
-5.178463e-15
1.677637e-13
-7.159491e-16
1.73859e-13
-1.186819e-14
1.792857e-13
-1.017397e-14
1.768494e-13
5.475088e-15
1.800594e-13
-5.78367e-15
1.877905e-13
-1.489121e-14
1.9707e-13
-1.763469e-14
1.996063e-13
-3.692856e-15
2.036663e-13
-7.151708e-15
2.146704e-13
-2.061292e-14
2.185096e-13
-6.586055e-15
2.241672e-13
-9.698417e-15
2.45743e-13
-3.628304e-14
2.767054e-13
-5.926423e-14
3.059903e-13
-4.835935e-14
4.13363e-13
-2.02553e-13
5.589527e-13
-3.015549e-13
-4.210633e-13
5.498976e-13
-2.694192e-13
-3.017178e-13
-2.273219e-13
-2.759359e-13
-4.045455e-14
-2.49607e-13
-4.885459e-14
-2.269718e-13
-4.008658e-14
-2.202445e-13
-1.175651e-14
-2.154047e-13
-8.461211e-15
-2.036786e-13
-2.198932e-14
-1.993164e-13
-7.705291e-15
-1.96591e-13
-4.040449e-15
-1.872373e-13
-1.777363e-14
-1.795488e-13
-1.480581e-14
-1.763912e-13
-5.676339e-15
-1.787471e-13
5.331211e-15
-1.730404e-13
-1.069828e-14
-1.665099e-13
-1.267985e-14
-1.655537e-13
-1.743514e-15
-1.621935e-13
-5.988285e-15
-1.603332e-13
-3.544048e-15
-1.641511e-13
6.845641e-15
-1.633139e-13
-1.275467e-15
-1.641157e-13
1.19058e-15
-1.666055e-13
4.943385e-15
-1.630731e-13
-6.641128e-15
-1.618858e-13
-2.203784e-15
-1.607417e-13
-2.200061e-15
-1.611068e-13
3.338835e-16
-1.649453e-13
6.996348e-15
-1.674516e-13
4.885315e-15
-1.682286e-13
1.470115e-15
-1.699392e-13
3.433436e-15
-1.717292e-13
3.178132e-15
-1.74652e-13
9.162354e-15
-1.459629e-13
-3.584333e-14
-2.874268e-13
-2.991819e-13
3.128845e-13
-6.064628e-14
-2.44927e-13
-1.014724e-13
-2.33666e-13
-1.414514e-14
-2.214438e-13
-2.28381e-14
-2.079551e-13
-2.368751e-14
-2.024649e-13
-8.737633e-15
-1.995733e-13
-5.082765e-15
-1.983334e-13
-2.053224e-15
-1.923743e-13
-1.110108e-14
-1.922103e-13
4.420196e-16
-1.940534e-13
3.648823e-15
-1.908371e-13
-5.915231e-15
-1.968155e-13
1.154496e-14
-2.001176e-13
5.649702e-15
-2.044176e-13
7.846984e-15
-2.077979e-13
6.21897e-15
-2.163909e-13
1.633025e-14
-2.247515e-13
1.514672e-14
-2.315253e-13
1.230671e-14
-2.327613e-13
1.255215e-15
-2.448247e-13
2.04703e-14
-2.82382e-13
6.772613e-14
-3.11908e-13
5.112616e-14
-4.093512e-13
1.847671e-13
2.91761e-13
1.428006e-13
-3.143344e-13
3.737099e-13
4.54153e-14
1.648298e-13
3.555026e-14
5.299913e-15
2.516211e-14
1.90616e-14
1.886797e-14
1.007231e-14
1.405722e-14
8.27522e-15
9.790761e-15
7.60512e-15
6.692455e-15
5.343591e-15
6.112124e-15
6.045091e-16
4.586868e-15
2.778907e-15
3.262324e-15
2.336063e-15
2.640179e-15
1.025945e-15
2.047071e-15
1.005476e-15
1.280796e-15
1.37735e-15
9.158245e-16
6.030953e-16
7.081125e-16
3.202155e-16
5.135534e-16
3.181691e-16
3.325525e-16
2.992106e-16
3.255391e-17
5.354396e-16
-1.578907e-16
3.295391e-16
-2.030322e-16
4.916511e-17
-3.51858e-16
2.649368e-16
-3.407343e-16
-5.54758e-17
-2.540173e-16
-1.906121e-16
-1.481214e-16
-2.228323e-16
-2.774574e-17
-2.482737e-16
5.384428e-17
-1.778708e-16
8.888464e-17
-9.133011e-17
1.024333e-16
-5.183628e-17
5.32752e-17
6.512049e-17
3.473316e-17
-9.553133e-18
-2.915989e-16
5.923316e-16
-5.705873e-16
4.646179e-16
-8.837053e-16
5.052443e-16
-1.450689e-15
1.036271e-15
-1.530784e-15
7.297894e-17
-1.659539e-15
1.252515e-16
-2.130523e-15
7.502118e-16
-3.238099e-15
1.940897e-15
-4.623587e-15
2.388982e-15
-6.43954e-15
3.112489e-15
-9.089994e-15
4.473487e-15
-1.32953e-14
7.491319e-15
-1.767646e-14
7.393638e-15
-2.465939e-14
1.154309e-14
-3.396227e-14
1.649157e-14
-4.693457e-14
1.256246e-14
-1.369533e-13
1.494127e-13
3.830673e-13
4.169328e-13
2.940852e-13
3.04229e-13
2.1475e-13
2.77618e-13
4.268194e-14
2.464361e-13
5.680957e-14
2.397058e-13
1.063437e-14
2.258039e-13
2.60799e-14
2.21338e-13
7.158114e-15
2.142642e-13
1.301868e-14
2.044333e-13
1.835617e-14
2.02987e-13
2.158981e-15
1.992275e-13
7.239477e-15
1.930044e-13
1.172618e-14
1.884152e-13
9.182452e-15
1.967939e-13
-1.582319e-14
1.977891e-13
-1.97554e-15
1.954861e-13
4.248182e-15
1.947625e-13
1.885765e-15
2.001475e-13
-9.270342e-15
2.075056e-13
-1.361367e-14
2.105336e-13
-4.429772e-15
2.206841e-13
-1.737768e-14
2.33945e-13
-2.496393e-14
2.411395e-13
-6.493095e-15
2.938731e-13
-9.790092e-14
-7.317861e-14
7.140826e-13
-9.246338e-13
5.046365e-13
5.381359e-13
3.906967e-13
4.818171e-13
9.900072e-14
4.27421e-13
1.112056e-13
4.138131e-13
2.424229e-14
3.898397e-13
5.005336e-14
3.80914e-13
1.60838e-14
3.684582e-13
2.547441e-14
3.516922e-13
3.512223e-14
3.48743e-13
5.108194e-15
3.426016e-13
1.338089e-14
3.325312e-13
2.17965e-14
3.254904e-13
1.622324e-14
3.396824e-13
-3.001517e-14
3.409755e-13
-3.268653e-15
3.371059e-13
8.117784e-15
3.367819e-13
2.20983e-15
3.471921e-13
-1.968057e-14
3.602469e-13
-2.666849e-14
3.67152e-13
-1.133482e-14
3.870743e-13
-3.730006e-14
4.097289e-13
-4.76185e-14
4.315329e-13
-2.829708e-14
5.02167e-13
-1.68535e-13
5.154987e-13
-8.65104e-14
2.731884e-13
6.160202e-13
1.096525e-13
3.283657e-13
7.14372e-14
4.351517e-14
5.069104e-14
3.980776e-14
3.724172e-14
2.352163e-14
2.763808e-14
1.787886e-14
1.972395e-14
1.551924e-14
1.370494e-14
1.13626e-14
1.199743e-14
2.312018e-15
9.168375e-15
5.607966e-15
6.718858e-15
4.78558e-15
5.431866e-15
2.312937e-15
4.266386e-15
2.170956e-15
2.853346e-15
2.790391e-15
2.115727e-15
1.340715e-15
1.647492e-15
7.884505e-16
1.237155e-15
7.285058e-16
8.677227e-16
6.686433e-16
3.139995e-16
1.089163e-15
-5.56834e-17
6.992221e-16
-1.822662e-16
1.75748e-16
-4.685001e-16
5.511709e-16
-5.028577e-16
-2.111811e-17
-4.105496e-16
-2.8292e-16
-2.746823e-16
-3.586994e-16
-1.14921e-16
-4.080349e-16
-2.122054e-17
-2.715711e-16
-1.108553e-17
-1.01465e-16
-3.110112e-17
-3.182058e-17
-1.690096e-16
2.03029e-16
-2.629903e-16
8.442757e-17
-8.563936e-16
1.185735e-15
-1.427617e-15
1.035841e-15
-2.077468e-15
1.155096e-15
-3.10389e-15
2.062692e-15
-3.35949e-15
3.285789e-16
-3.78551e-15
5.512713e-16
-4.78521e-15
1.749912e-15
-6.909448e-15
4.065135e-15
-9.580234e-15
5.059767e-15
-1.319852e-14
6.730772e-15
-1.840764e-14
9.682613e-15
-2.633854e-14
1.542222e-14
-3.514192e-14
1.619702e-14
-4.984676e-14
2.624793e-14
-6.886826e-14
3.551307e-14
-1.11258e-13
5.495216e-14
-2.638968e-13
3.020515e-13
-5.12675e-13
6.318455e-13
-5.101082e-13
-6.32131e-14
-4.384126e-13
-1.73168e-13
-4.095752e-13
-4.298254e-14
-3.887478e-13
-4.366545e-14
-3.63149e-13
-4.928637e-14
-3.515247e-13
-2.036186e-14
-3.456576e-13
-1.094993e-14
-3.434314e-13
-4.279413e-15
-3.330174e-13
-2.151511e-14
-3.315825e-13
-9.928079e-16
-3.343766e-13
6.442842e-15
-3.285165e-13
-1.177533e-14
-3.383169e-13
2.134538e-14
-3.443596e-13
1.16924e-14
-3.521319e-13
1.561928e-14
-3.57667e-13
1.175406e-14
-3.719773e-13
3.064056e-14
-3.865496e-13
2.9719e-14
-3.98936e-13
2.469314e-14
-4.023436e-13
4.662824e-15
-4.259776e-13
4.410433e-14
-4.900101e-13
1.317586e-13
-5.493061e-13
1.104222e-13
-7.013381e-13
3.367991e-13
-9.097845e-13
5.002074e-13
-7.207543e-13
-4.584494e-13
-5.338515e-13
-4.142247e-13
-4.783762e-13
-9.592982e-14
-4.325957e-13
-9.463505e-14
-3.915681e-13
-8.111423e-14
-3.791378e-13
-2.418678e-14
-3.702464e-13
-1.735266e-14
-3.504115e-13
-4.182417e-14
-3.422631e-13
-1.585376e-14
-3.363542e-13
-9.94928e-15
-3.207467e-13
-3.338116e-14
-3.086204e-13
-2.693209e-14
-3.028731e-13
-1.142364e-14
-3.055965e-13
8.054583e-15
-2.958946e-13
-2.040017e-14
-2.856773e-13
-2.289711e-14
-2.840584e-13
-3.362449e-15
-2.779506e-13
-1.209606e-14
-2.750146e-13
-6.480048e-15
-2.817188e-13
1.354978e-14
-2.800546e-13
-2.939631e-15
-2.816845e-13
2.820432e-15
-2.856853e-13
8.944194e-15
-2.795939e-13
-1.273254e-14
-2.776218e-13
-4.175889e-15
-2.758473e-13
-3.974544e-15
-2.770546e-13
1.541256e-15
-2.837312e-13
1.367289e-14
-2.877383e-13
8.892411e-15
-2.88732e-13
2.463859e-15
-2.912228e-13
5.92422e-15
-2.933423e-13
5.297608e-15
-2.888143e-13
4.63438e-15
-2.193207e-13
-1.053369e-13
-2.477868e-15
-5.042696e-13
2.155732e-13
-5.076105e-13
2.862145e-13
-1.077242e-13
2.911509e-13
4.034545e-15
2.893575e-13
4.645324e-15
2.87004e-13
5.692189e-15
2.861033e-13
2.241319e-15
2.825805e-13
7.838866e-15
2.762517e-13
1.29861e-14
2.75334e-13
9.394169e-16
2.774983e-13
-4.809993e-15
2.800082e-13
-5.307946e-15
2.86627e-13
-1.382058e-14
2.830024e-13
8.165327e-15
2.820206e-13
1.41138e-15
2.843992e-13
-4.413162e-15
2.782018e-13
1.252278e-14
2.816548e-13
-7.614171e-15
2.870905e-13
-1.061407e-14
2.878035e-13
-1.429006e-15
2.972825e-13
-2.134722e-14
3.065182e-13
-1.940963e-14
3.036512e-13
8.342134e-15
3.094736e-13
-1.16061e-14
3.216634e-13
-2.708102e-14
3.371458e-13
-3.311707e-14
3.427281e-13
-9.275217e-15
3.503556e-13
-1.477912e-14
3.690287e-13
-3.928604e-14
3.762081e-13
-1.376548e-14
3.87025e-13
-2.051527e-14
4.273073e-13
-7.656535e-14
4.795863e-13
-1.115433e-13
5.398122e-13
-1.085853e-13
7.089712e-13
-3.717119e-13
-5.172176e-13
3.007567e-13
3.862557e-15
-8.122297e-13
4.42694e-13
-2.496615e-13
4.711789e-13
-2.445034e-14
4.724013e-13
3.422871e-15
4.698794e-13
8.214131e-15
4.693188e-13
2.801855e-15
4.642233e-13
1.293443e-14
4.536557e-13
2.355368e-14
4.51055e-13
3.540129e-15
4.540885e-13
-7.843485e-15
4.580989e-13
-9.318383e-15
4.692111e-13
-2.493281e-14
4.63677e-13
1.369948e-14
4.614527e-13
3.635692e-15
4.65787e-13
-8.747532e-15
4.554503e-13
2.285952e-14
4.605334e-13
-1.269727e-14
4.701288e-13
-2.020951e-14
4.712883e-13
-2.588426e-15
4.850072e-13
-3.506618e-14
5.000982e-13
-3.450066e-14
4.977184e-13
1.072195e-14
5.077791e-13
-2.166674e-14
5.257632e-13
-4.506517e-14
5.506182e-13
-5.797206e-14
5.617694e-13
-2.042642e-14
5.756163e-13
-2.862606e-14
6.060461e-13
-6.971576e-14
6.187117e-13
-2.643115e-14
6.383844e-13
-4.018795e-14
7.101389e-13
-1.483198e-13
7.952822e-13
-1.966866e-13
9.088701e-13
-2.221732e-13
1.156505e-12
-6.193471e-13
1.455742e-12
-8.16454e-13
-1.173543e-12
1.433284e-12
-7.1819e-13
-9.012095e-13
-6.865587e-13
-7.937805e-13
-2.033588e-13
-7.166283e-13
-1.717873e-13
-6.454074e-13
-1.523351e-13
-6.234485e-13
-4.614568e-14
-6.079596e-13
-3.284157e-14
-5.757652e-13
-7.401857e-14
-5.610709e-13
-3.054809e-14
-5.493788e-13
-2.164132e-14
-5.24322e-13
-5.843805e-14
-5.064263e-13
-4.482775e-14
-4.964644e-13
-2.138557e-14
-4.986022e-13
1.019242e-14
-4.827745e-13
-3.622789e-14
-4.678622e-13
-3.780937e-14
-4.652788e-13
-5.945878e-15
-4.546357e-13
-2.273919e-14
-4.503666e-13
-1.074913e-14
-4.615622e-13
2.474537e-14
-4.584127e-13
-6.089129e-15
-4.61631e-13
6.038806e-15
-4.677738e-13
1.508698e-14
-4.575373e-13
-2.296907e-14
-4.543912e-13
-7.32195e-15
-4.519653e-13
-6.400517e-15
-4.550431e-13
4.619092e-15
-4.662073e-13
2.483705e-14
-4.720543e-13
1.473941e-14
-4.727299e-13
3.139506e-15
-4.755426e-13
8.736885e-15
-4.749254e-13
4.680451e-15
-4.472981e-13
-2.299296e-14
-3.069614e-13
-2.456736e-13
-8.073685e-13
-8.188185e-13
7.999022e-13
-4.429673e-14
-7.449317e-13
-2.470548e-13
-6.887991e-13
-9.91152e-14
-6.541941e-13
-7.827043e-14
-6.080405e-13
-9.543996e-14
-5.841519e-13
-4.425048e-14
-5.726321e-13
-2.246971e-14
-5.688052e-13
-8.106382e-15
-5.514333e-13
-3.888698e-14
-5.465936e-13
-5.832487e-15
-5.505874e-13
1.043661e-14
-5.40156e-13
-2.220669e-14
-5.555722e-13
3.676154e-14
-5.660575e-13
2.217776e-14
-5.794872e-13
2.904892e-14
-5.880359e-13
2.030273e-14
-6.107153e-13
5.331998e-14
-6.350398e-13
5.404352e-14
-6.570428e-13
4.669616e-14
-6.647399e-13
1.235992e-14
-7.085642e-13
8.792858e-14
-8.132629e-13
2.364573e-13
-9.228685e-13
2.200278e-13
-1.142863e-12
5.567935e-13
7.906286e-13
4.823247e-13
-8.043012e-13
9.379967e-13
2.356803e-13
5.750101e-13
1.422045e-13
1.369911e-13
9.893327e-14
8.307895e-14
7.149904e-14
5.095586e-14
5.257138e-14
3.680652e-14
3.82342e-14
2.985643e-14
2.700664e-14
2.259015e-14
2.280548e-14
6.513181e-15
1.764999e-14
1.076346e-14
1.324318e-14
9.192388e-15
1.071836e-14
4.837758e-15
8.506464e-15
4.382849e-15
5.97041e-15
5.326445e-15
4.548434e-15
2.762692e-15
3.562136e-15
1.774749e-15
2.735376e-15
1.555266e-15
2.014533e-15
1.389486e-15
1.020793e-15
2.082903e-15
3.29375e-16
1.39064e-15
3.090838e-17
4.742149e-16
-5.055214e-16
1.087601e-15
-6.653109e-16
1.386716e-16
-6.242796e-16
-3.23951e-16
-4.90764e-16
-4.922147e-16
-3.202276e-16
-5.785711e-16
-2.573734e-16
-3.34425e-16
-3.415623e-16
-1.72759e-17
-4.572976e-16
8.39149e-17
-7.930547e-16
5.387863e-16
-1.059319e-15
3.506921e-16
-2.11e-15
2.236415e-15
-3.234123e-15
2.159964e-15
-4.520221e-15
2.441194e-15
-6.328235e-15
3.870705e-15
-6.983067e-15
9.834116e-16
-8.081927e-15
1.650131e-15
-1.00931e-14
3.761081e-15
-1.404614e-14
8.018181e-15
-1.905031e-14
1.006393e-14
-2.602279e-14
1.370326e-14
-3.593258e-14
1.95924e-14
-5.047392e-14
2.996356e-14
-6.797005e-14
3.369315e-14
-9.765054e-14
5.592841e-14
-1.382217e-13
7.608421e-14
-2.370581e-13
1.537886e-13
-4.682762e-13
5.332696e-13
9.634714e-13
1.163348e-12
7.970306e-13
9.08247e-13
6.457973e-13
8.000647e-13
2.07183e-13
7.085639e-13
2.027064e-13
6.83086e-13
4.97202e-14
6.431766e-13
8.996275e-14
6.263351e-13
3.29253e-14
6.052377e-13
4.657181e-14
5.776908e-13
6.266911e-14
5.722063e-13
1.05927e-14
5.628808e-13
2.270638e-14
5.474162e-13
3.726108e-14
5.374516e-13
2.618787e-14
5.604294e-13
-5.299294e-14
5.617535e-13
-4.592729e-15
5.555367e-13
1.433455e-14
5.568095e-13
9.370812e-16
5.764887e-13
-3.935984e-14
5.988172e-13
-4.899698e-14
6.136873e-13
-2.620494e-14
6.506005e-13
-7.421324e-14
6.886126e-13
-8.563055e-14
7.326724e-13
-7.235696e-14
8.082741e-13
-2.441367e-13
-8.253745e-14
1.834835e-12
-2.214936e-12
1.177132e-12
1.485055e-12
9.95577e-13
1.29318e-12
3.990585e-13
1.141629e-12
3.542575e-13
1.097644e-12
9.370524e-14
1.031273e-12
1.563337e-13
1.000627e-12
6.357136e-14
9.66639e-13
8.055937e-14
9.212442e-13
1.080639e-13
9.117597e-13
2.00772e-14
8.986136e-13
3.585248e-14
8.763654e-13
5.950929e-14
8.624475e-13
4.010571e-14
8.996169e-13
-9.016234e-14
8.995926e-13
-4.568406e-15
8.898376e-13
2.408953e-14
8.953919e-13
-4.617179e-15
9.322064e-13
-7.617442e-14
9.705289e-13
-8.731947e-14
9.999991e-13
-5.567507e-14
1.067218e-12
-1.414317e-13
1.127635e-12
-1.460475e-13
1.195806e-12
-1.405282e-13
1.250999e-12
-2.993299e-13
1.208831e-12
-4.03695e-14
8.08845e-13
1.337983e-12
4.63929e-13
9.19926e-13
2.803408e-13
3.205793e-13
1.908973e-13
1.725225e-13
1.358459e-13
1.060073e-13
9.8462e-14
7.419038e-14
7.269009e-14
5.562833e-14
5.203462e-14
4.324562e-14
4.269887e-14
1.584893e-14
3.328468e-14
2.017765e-14
2.541666e-14
1.706041e-14
2.064064e-14
9.613771e-15
1.65119e-14
8.511596e-15
1.199925e-14
9.839087e-15
9.337568e-15
5.42438e-15
7.345814e-15
3.766503e-15
5.726125e-15
3.174955e-15
4.359967e-15
2.755644e-15
2.592155e-15
3.850716e-15
1.321533e-15
2.661263e-15
6.884815e-16
1.107267e-15
-3.085696e-16
2.084653e-15
-7.611386e-16
5.912409e-16
-9.036119e-16
-1.814773e-16
-8.615163e-16
-5.343098e-16
-7.592429e-16
-6.808442e-16
-8.349843e-16
-2.586834e-16
-1.164201e-15
3.11942e-16
-1.5099e-15
4.296144e-16
-2.257092e-15
1.285978e-15
-2.877207e-15
9.708083e-16
-4.723941e-15
4.08315e-15
-6.882586e-15
4.318609e-15
-9.3621e-15
4.920708e-15
-1.253283e-14
7.041437e-15
-1.401748e-14
2.46806e-15
-1.653205e-14
4.164704e-15
-2.043969e-14
7.66872e-15
-2.77125e-14
1.529099e-14
-3.699566e-14
1.934709e-14
-5.019489e-14
2.690249e-14
-6.875614e-14
3.815364e-14
-9.526791e-14
5.647534e-14
-1.30019e-13
6.844428e-14
-1.88975e-13
1.148844e-13
-2.739998e-13
1.611089e-13
-4.654476e-13
3.452364e-13
-7.887681e-13
8.565901e-13
-1.204317e-12
1.37902e-12