/*--------------------------------*- C++ -*----------------------------------*\
| =========                 |                                                 |
| \\      /  F ield         | OpenFOAM: The Open Source CFD Toolbox           |
|  \\    /   O peration     | Version:  2406                                  |
|   \\  /    A nd           | Website:  www.openfoam.com                      |
|    \\/     M anipulation  |                                                 |
\*---------------------------------------------------------------------------*/
FoamFile
{
    version     2.0;
    format      ascii;
    arch        "LSB;label=32;scalar=64";
    class       volVectorField;
    location    "0.32";
    object      U;
}
// * * * * * * * * * * * * * * * * * * * * * * * * * * * * * * * * * * * * * //

dimensions      [0 1 -1 0 0 0 0];

internalField   nonuniform List<vector> 
4531
(
(3.413534e-05 6.880758e-07 0)
(1.286857e-05 -1.255292e-07 1.086452e-28)
(1.62622e-05 2.360173e-08 0)
(1.304839e-05 1.472615e-08 0)
(1.318983e-05 -6.899769e-09 0)
(1.249523e-05 1.757318e-08 0)
(1.177418e-05 -7.475241e-09 0)
(1.201836e-05 6.996863e-09 -1.68994e-28)
(1.111026e-05 8.484734e-09 0)
(1.095595e-05 -4.479519e-09 0)
(1.100367e-05 5.879471e-09 -1.124613e-27)
(1.068465e-05 3.047337e-10 2.106907e-27)
(1.021168e-05 9.519072e-09 1.731199e-27)
(1.030688e-05 -4.015323e-09 -1.737658e-27)
(1.078299e-05 8.023475e-10 0)
(1.058652e-05 1.528777e-09 0)
(1.048999e-05 2.386027e-09 0)
(1.038935e-05 5.000126e-09 0)
(1.100072e-05 -1.080709e-08 0)
(1.106097e-05 1.365343e-08 0)
(1.131759e-05 -3.565762e-09 5.31252e-31)
(1.146978e-05 3.765263e-08 0)
(1.398107e-05 -1.376647e-07 -6.104162e-27)
(7.098429e-06 7.572819e-07 7.246007e-27)
(2.725025e-05 -1.156605e-06 0)
(1.034824e-06 -1.700874e-05 -1.133697e-24)
(-8.793423e-07 4.626467e-06 -4.494888e-27)
(9.046068e-08 -2.938663e-06 9.593816e-26)
(-5.622162e-08 -8.622989e-07 -9.772127e-26)
(-1.876402e-08 -9.324536e-07 -3.952487e-26)
(-1.336599e-08 -6.849149e-07 7.68955e-26)
(-8.661756e-09 -5.093199e-07 -3.736845e-26)
(-9.392418e-09 -2.780845e-07 0)
(-8.785097e-09 -2.805378e-07 -3.239694e-26)
(-1.843474e-09 -2.789066e-07 3.24022e-26)
(-4.078943e-09 -1.468669e-07 0)
(-2.70456e-09 -1.338725e-07 0)
(-2.248032e-09 -1.137723e-07 -1.459702e-26)
(-1.008732e-09 -7.389991e-08 1.459829e-26)
(-1.544678e-09 -3.994154e-08 0)
(-9.531761e-10 -4.086553e-08 1.386351e-26)
(-6.408719e-10 -2.809867e-08 -2.741867e-26)
(-4.857599e-10 -2.424627e-08 3.35584e-27)
(-1.462454e-10 -9.739665e-09 3.312755e-27)
(-1.452895e-10 1.08892e-08 -1.720134e-27)
(-3.098145e-10 9.933979e-09 -8.278366e-27)
(1.308669e-10 1.610782e-08 4.126798e-27)
(-2.195439e-10 2.555448e-08 -2.456802e-27)
(-8.019447e-11 1.595705e-08 1.229272e-27)
(-1.422313e-10 1.161603e-08 4.122281e-28)
(-1.126507e-10 4.113949e-09 -2.456549e-27)
(-1.556197e-10 -3.458197e-09 8.177968e-28)
(-1.266348e-10 -4.649232e-09 -3.296597e-27)
(-2.67923e-10 -9.389016e-09 3.290572e-27)
(-1.734475e-10 -5.025823e-09 4.999395e-27)
(-6.319042e-10 -8.052614e-09 -6.637265e-27)
(-2.342525e-10 -4.570253e-09 -6.759437e-27)
(-5.335097e-10 2.86888e-08 6.797327e-27)
(-1.256454e-09 2.077624e-08 0)
(-6.301408e-10 5.794446e-08 0)
(-1.972028e-09 7.780599e-08 -1.457486e-26)
(-2.548589e-09 6.328595e-08 1.457359e-26)
(-3.614979e-09 6.359812e-08 0)
(-3.12741e-09 9.967373e-08 0)
(-5.14741e-09 1.534781e-07 -3.275126e-26)
(-4.843593e-09 2.377157e-07 3.274594e-26)
(-1.076342e-08 2.708722e-07 0)
(-6.177877e-09 4.891245e-07 3.738782e-26)
(-1.886451e-08 5.881495e-07 -3.737826e-26)
(-8.435513e-09 9.598645e-07 0)
(-7.462481e-08 6.862285e-07 -9.888449e-26)
(1.200709e-07 3.048076e-06 1.005431e-25)
(-9.021788e-07 -4.594804e-06 -2.069635e-25)
(1.024461e-06 1.646447e-05 1.32697e-24)
(2.766077e-05 1.169271e-06 6.695778e-25)
(7.461932e-06 -7.521752e-07 6.597577e-27)
(1.390347e-05 1.455588e-07 -5.882283e-28)
(1.148937e-05 -4.487793e-08 -3.703163e-27)
(1.131261e-05 1.037431e-08 -3.12987e-31)
(1.072438e-05 -1.442774e-08 0)
(1.077246e-05 4.769499e-09 0)
(1.065417e-05 -7.533793e-09 0)
(1.050463e-05 6.459483e-09 -2.634871e-27)
(1.01001e-05 -8.722009e-09 6.03791e-27)
(1.058049e-05 -1.015816e-09 -3.403059e-27)
(1.033115e-05 -2.012218e-09 0)
(1.060474e-05 -6.52862e-09 0)
(1.082678e-05 4.51547e-09 7.985468e-28)
(1.091192e-05 -6.034022e-09 0)
(1.106162e-05 1.814428e-09 3.114438e-28)
(1.137013e-05 -1.083346e-08 -3.11671e-28)
(1.193207e-05 -9.985843e-10 -1.465288e-28)
(1.237228e-05 -7.769799e-09 2.082956e-27)
(1.249744e-05 7.312286e-09 2.287208e-27)
(1.248127e-05 -3.664999e-09 -6.695552e-27)
(1.330045e-05 -1.178667e-08 3.667339e-27)
(1.680006e-05 -4.517077e-08 -6.526283e-27)
(1.343081e-05 1.484372e-07 2.694578e-26)
(3.281936e-05 -6.676224e-07 1.298408e-25)
(2.447522e-05 -2.352896e-05 0)
(8.990878e-06 -9.166232e-06 2.790439e-24)
(1.115212e-05 -1.110462e-05 -4.451498e-24)
(9.283628e-06 -9.292436e-06 2.746594e-26)
(8.834359e-06 -8.818242e-06 -3.572281e-24)
(8.25583e-06 -8.250698e-06 3.359778e-24)
(8.270143e-06 -8.27226e-06 3.106534e-24)
(7.937967e-06 -7.924089e-06 3.298631e-24)
(7.338941e-06 -7.332928e-06 -3.076546e-24)
(7.55517e-06 -7.564829e-06 2.854847e-24)
(7.307233e-06 -7.290745e-06 -3.346006e-24)
(6.800823e-06 -6.791364e-06 2.511772e-26)
(6.523532e-06 -6.522528e-06 -2.312093e-26)
(6.720241e-06 -6.727813e-06 2.314376e-26)
(6.73499e-06 -6.730333e-06 0)
(6.368836e-06 -6.362419e-06 0)
(6.208201e-06 -6.204618e-06 -3.058765e-24)
(6.22538e-06 -6.227247e-06 5.80157e-29)
(6.109548e-06 -6.112506e-06 -3.152697e-24)
(6.107306e-06 -6.096525e-06 2.443901e-26)
(6.136965e-06 -6.147593e-06 0)
(6.094664e-06 -6.089128e-06 2.539403e-26)
(6.182787e-06 -6.1922e-06 -2.505403e-26)
(6.239046e-06 -6.239865e-06 0)
(6.032488e-06 -6.030723e-06 0)
(6.029782e-06 -6.034554e-06 -1.666358e-27)
(5.988913e-06 -5.994487e-06 0)
(6.008431e-06 -6.010427e-06 -1.549904e-27)
(6.198216e-06 -6.218488e-06 3.687048e-24)
(6.273842e-06 -6.283894e-06 -1.504745e-26)
(6.28558e-06 -6.302796e-06 4.032097e-24)
(6.361353e-06 -6.394699e-06 -1.773183e-26)
(6.415754e-06 -6.437115e-06 1.773243e-26)
(7.135509e-06 -7.288291e-06 0)
(6.897404e-06 -7.04125e-06 6.168933e-24)
(6.759873e-06 6.887926e-06 6.327544e-24)
(7.124334e-06 7.289117e-06 -5.862971e-27)
(6.358672e-06 6.377407e-06 1.791083e-26)
(6.323843e-06 6.357631e-06 -4.407663e-24)
(6.248491e-06 6.265596e-06 4.053004e-24)
(6.235324e-06 6.245074e-06 -4.010144e-24)
(6.170802e-06 6.190435e-06 -1.508746e-26)
(5.992225e-06 5.994393e-06 1.513578e-27)
(5.975213e-06 5.980443e-06 0)
(6.025435e-06 6.030028e-06 0)
(6.038433e-06 6.036397e-06 0)
(6.259738e-06 6.26042e-06 0)
(6.210096e-06 6.219504e-06 0)
(6.13263e-06 6.126632e-06 0)
(6.198272e-06 6.208839e-06 0)
(6.173146e-06 6.162367e-06 0)
(6.199309e-06 6.201743e-06 3.135186e-24)
(6.312384e-06 6.315484e-06 3.04482e-24)
(6.263725e-06 6.26051e-06 0)
(6.408599e-06 6.402731e-06 3.193009e-24)
(6.75744e-06 6.753039e-06 -3.096693e-24)
(6.737028e-06 6.744625e-06 0)
(6.541321e-06 6.540213e-06 2.446856e-26)
(6.823193e-06 6.813639e-06 3.120527e-24)
(7.32895e-06 7.312531e-06 2.412247e-26)
(7.572248e-06 7.582034e-06 -2.384316e-26)
(7.346e-06 7.340209e-06 -3.076089e-24)
(7.933754e-06 7.920475e-06 5.516971e-27)
(8.209391e-06 8.213362e-06 -6.216369e-24)
(8.180454e-06 8.175456e-06 5.221867e-26)
(8.695534e-06 8.683781e-06 -3.546342e-24)
(9.055468e-06 9.066873e-06 0)
(1.156263e-05 1.147722e-05 0)
(8.934049e-06 9.162151e-06 1.160334e-26)
(2.392059e-05 2.2958e-05 1.160978e-23)
(2.1188e-05 2.005858e-05 -2.243041e-23)
(2.241164e-05 2.26737e-05 0)
(2.034861e-05 2.044672e-05 0)
(2.016816e-05 2.021577e-05 2.861853e-26)
(1.996095e-05 1.998412e-05 -7.093813e-24)
(1.992104e-05 1.991784e-05 1.394656e-23)
(1.972303e-05 1.979545e-05 6.436071e-24)
(1.91743e-05 1.919248e-05 -1.272685e-23)
(1.910805e-05 1.910806e-05 -6.210813e-24)
(1.926544e-05 1.926252e-05 0)
(1.932859e-05 1.92823e-05 0)
(2.000604e-05 1.997106e-05 -4.493654e-26)
(1.986375e-05 1.990627e-05 5.530873e-24)
(1.962164e-05 1.959219e-05 -4.425135e-26)
(1.98245e-05 1.985337e-05 0)
(1.978812e-05 1.973014e-05 5.47767e-24)
(1.982509e-05 1.981228e-05 -5.398405e-24)
(2.020082e-05 2.021113e-05 0)
(2.008357e-05 2.006097e-05 0)
(2.054858e-05 2.047486e-05 -5.583192e-24)
(2.156808e-05 2.15073e-05 -5.322688e-24)
(2.154624e-05 2.159255e-05 -3.972687e-26)
(2.102188e-05 2.101211e-05 8.174362e-26)
(2.193906e-05 2.180276e-05 -5.469493e-24)
(2.345379e-05 2.329374e-05 4.351425e-26)
(2.420509e-05 2.42379e-05 0)
(2.365009e-05 2.35623e-05 5.232857e-24)
(2.548889e-05 2.532482e-05 1.134656e-23)
(2.633541e-05 2.630736e-05 5.328231e-24)
(2.634565e-05 2.623074e-05 0)
(2.79973e-05 2.782348e-05 6.074215e-24)
(2.956893e-05 2.922309e-05 0)
(3.67582e-05 3.645475e-05 0)
(3.17356e-05 3.049007e-05 -7.178001e-24)
(7.394175e-05 6.917378e-05 -2.01125e-23)
(7.545379e-05 -7.090539e-05 1.809671e-23)
(3.200885e-05 -3.047292e-05 4.855736e-26)
(3.561137e-05 -3.542418e-05 4.808423e-27)
(3.025593e-05 -2.996797e-05 -5.298365e-26)
(2.854048e-05 -2.834966e-05 0)
(2.659089e-05 -2.646232e-05 1.958442e-26)
(2.652566e-05 -2.648251e-05 5.336747e-24)
(2.550994e-05 -2.533506e-05 0)
(2.363113e-05 -2.353952e-05 -5.278389e-24)
(2.415347e-05 -2.418379e-05 -8.126017e-26)
(2.338669e-05 -2.322565e-05 -1.998857e-27)
(2.186901e-05 -2.173348e-05 4.308313e-26)
(2.096481e-05 -2.0956e-05 0)
(2.149216e-05 -2.153765e-05 0)
(2.149689e-05 -2.143208e-05 0)
(2.04248e-05 -2.034483e-05 4.265629e-26)
(1.990929e-05 -1.987943e-05 5.264485e-24)
(1.993084e-05 -1.993326e-05 4.124579e-26)
(1.954208e-05 -1.953483e-05 5.302986e-24)
(1.957716e-05 -1.952324e-05 0)
(1.963166e-05 -1.966562e-05 -4.284513e-26)
(1.950025e-05 -1.947709e-05 5.82529e-24)
(1.977676e-05 -1.98218e-05 -8.693234e-26)
(1.994096e-05 -1.990992e-05 9.0263e-26)
(1.930977e-05 -1.926787e-05 -4.570828e-26)
(1.927965e-05 -1.928002e-05 5.944272e-24)
(1.915143e-05 -1.915389e-05 0)
(1.922697e-05 -1.924678e-05 6.309404e-24)
(1.981101e-05 -1.988841e-05 -4.926237e-26)
(2.004333e-05 -2.00411e-05 6.882898e-24)
(2.007942e-05 -2.010275e-05 -6.944844e-24)
(2.029059e-05 -2.034055e-05 7.53237e-24)
(2.052615e-05 -2.062461e-05 8.217766e-24)
(2.247026e-05 -2.272835e-05 -3.168115e-26)
(2.15989e-05 -2.053782e-05 -3.290422e-23)
(8.443731e-05 4.430821e-06 -3.332989e-24)
(2.935077e-05 2.969789e-08 -1.978723e-27)
(4.358218e-05 5.120353e-08 -1.743855e-26)
(3.743084e-05 1.077901e-07 1.18238e-26)
(3.642208e-05 1.150737e-07 -2.813424e-30)
(3.451786e-05 1.251315e-08 0)
(3.456727e-05 3.086203e-08 6.505281e-27)
(3.421019e-05 4.065511e-10 1.223379e-27)
(3.374474e-05 6.712681e-08 -1.679124e-26)
(3.2468e-05 -1.815569e-08 9.052421e-27)
(3.386831e-05 -2.240617e-08 0)
(3.315861e-05 -1.441522e-08 -6.475093e-27)
(3.395722e-05 -5.171633e-08 1.023367e-26)
(3.467738e-05 5.013691e-10 -4.700541e-27)
(3.501678e-05 -3.286385e-08 3.336726e-27)
(3.551254e-05 -2.000961e-08 0)
(3.644804e-05 -9.55772e-08 7.138936e-28)
(3.822226e-05 -7.069728e-08 6.929062e-28)
(3.964834e-05 -7.263204e-08 -5.897995e-27)
(4.012622e-05 4.625843e-09 5.688481e-27)
(4.020185e-05 -9.896737e-08 1.257116e-26)
(4.309093e-05 -3.434433e-07 -1.25249e-26)
(5.333331e-05 -1.420073e-07 0)
(4.581961e-05 -8.430973e-07 6.648575e-26)
(0.0001001656 -3.196725e-06 -3.2223e-25)
(5.29157e-06 -5.222362e-05 2.006474e-24)
(-4.757921e-10 8.153805e-06 -2.163828e-25)
(-1.314605e-07 -8.566216e-06 1.606123e-25)
(9.099118e-08 -3.494526e-06 0)
(2.111817e-08 -3.244902e-06 -5.498464e-28)
(3.038421e-08 -2.415312e-06 0)
(3.375165e-08 -1.814773e-06 -1.224491e-25)
(2.071848e-08 -1.06753e-06 1.225174e-25)
(-7.96206e-09 -1.001575e-06 -4.387977e-28)
(1.534059e-08 -9.705067e-07 5.430492e-26)
(9.515222e-09 -5.587448e-07 -5.411675e-26)
(3.319602e-09 -4.935523e-07 0)
(3.4814e-09 -4.181702e-07 0)
(7.159687e-09 -2.837723e-07 0)
(1.930897e-09 -1.722868e-07 0)
(8.715539e-10 -1.630312e-07 -2.385694e-26)
(1.295994e-09 -1.177477e-07 1.465768e-28)
(1.305613e-09 -1.004571e-07 5.778476e-27)
(3.010445e-09 -4.997279e-08 1.720228e-26)
(1.88353e-09 1.601333e-08 -8.628656e-27)
(-1.153769e-10 1.896939e-08 8.507207e-27)
(1.929432e-09 4.067532e-08 -1.844358e-26)
(-4.881206e-10 7.247792e-08 7.073025e-27)
(-9.907785e-10 4.782534e-08 -7.035275e-28)
(-1.183095e-09 3.680053e-08 5.763811e-30)
(-1.228049e-09 1.650597e-08 7.007407e-28)
(-8.893725e-10 -4.330365e-09 7.050075e-27)
(-4.009761e-10 -5.00488e-09 2.830438e-27)
(-3.154963e-10 -1.597758e-08 0)
(4.553361e-10 -1.79021e-10 8.569063e-27)
(-6.680226e-10 -3.898873e-09 0)
(3.545795e-09 1.152161e-08 0)
(1.942815e-09 1.162641e-07 -2.364049e-26)
(1.473502e-09 1.044757e-07 4.806481e-26)
(5.94577e-09 2.257187e-07 2.504121e-26)
(-1.10074e-09 2.914131e-07 -4.925959e-26)
(-1.188147e-09 2.592007e-07 5.158547e-26)
(1.379911e-09 2.766623e-07 -5.137278e-26)
(8.562363e-09 3.995697e-07 -2.101143e-28)
(8.529247e-09 5.899685e-07 4.311002e-28)
(1.231675e-08 8.679753e-07 0)
(1.285373e-08 1.030522e-06 1.227785e-25)
(3.59947e-08 1.737919e-06 5.469839e-27)
(1.995709e-08 2.13024e-06 -1.291033e-25)
(3.987445e-08 3.286052e-06 0)
(5.406953e-08 3.000584e-06 0)
(-4.52967e-08 8.866175e-06 -3.01651e-27)
(-1.318444e-07 -8.154793e-06 6.923496e-27)
(5.315607e-06 5.058564e-05 1.8361e-24)
(0.0001041264 3.211715e-06 6.953799e-26)
(4.427022e-05 1.05298e-06 -7.168746e-26)
(5.198528e-05 7.642092e-08 3.322087e-26)
(4.23995e-05 2.681393e-07 -4.005564e-27)
(4.230842e-05 3.595243e-08 -1.702839e-26)
(4.014758e-05 1.661876e-07 1.046055e-26)
(3.785095e-05 1.613801e-08 -7.029675e-27)
(3.842712e-05 7.185468e-08 1.219353e-27)
(3.568883e-05 9.896196e-08 1.373871e-28)
(3.509266e-05 -9.149098e-09 8.486604e-28)
(3.523457e-05 3.611867e-08 -3.855446e-27)
(3.423812e-05 4.423748e-08 5.51779e-27)
(3.281671e-05 4.509157e-08 -3.909471e-27)
(3.313621e-05 -4.692648e-08 -4.694471e-27)
(3.45425e-05 -1.017325e-08 4.726306e-27)
(3.394323e-05 1.946061e-08 -8.550265e-27)
(3.360662e-05 1.807673e-08 8.613066e-27)
(3.341583e-05 -3.50839e-08 -6.309433e-27)
(3.530024e-05 -8.058758e-08 6.305768e-27)
(3.555439e-05 6.38176e-09 0)
(3.643234e-05 -7.661601e-08 -9.117803e-31)
(3.735151e-05 -1.299082e-07 0)
(4.379341e-05 -7.960177e-10 3.047322e-27)
(2.817652e-05 -3.128903e-11 -2.718729e-26)
(8.32203e-05 -4.446819e-06 0)
(0.0001828665 9.112423e-06 0)
(8.571817e-05 3.921712e-06 3.484694e-27)
(9.49818e-05 4.119741e-07 -2.094245e-26)
(7.848703e-05 8.803962e-07 0)
(7.747938e-05 2.001142e-07 -1.291511e-26)
(7.361994e-05 5.320367e-07 5.751405e-27)
(6.942508e-05 1.063391e-07 2.450974e-27)
(7.014423e-05 2.442468e-07 2.734926e-28)
(6.540922e-05 3.272144e-07 -1.630563e-28)
(6.414235e-05 -6.805026e-09 -1.007219e-27)
(6.44013e-05 1.083764e-07 -4.550525e-27)
(6.262279e-05 1.634965e-07 5.345995e-28)
(6.018429e-05 1.209297e-07 -2.379554e-27)
(6.079762e-05 -1.309224e-07 7.035894e-27)
(6.317914e-05 -4.226875e-08 1.141123e-26)
(6.213219e-05 7.188589e-08 -1.148362e-26)
(6.147244e-05 5.169607e-08 0)
(6.135239e-05 -1.406401e-07 -3.002422e-28)
(6.46999e-05 -2.492202e-07 0)
(6.527695e-05 -3.183835e-08 -1.071024e-26)
(6.70203e-05 -2.730674e-07 1.069607e-26)
(6.931956e-05 -4.845964e-07 0)
(7.903722e-05 2.849744e-08 -3.602892e-27)
(5.951183e-05 -1.734623e-06 2.287146e-25)
(0.0001453855 -1.215148e-05 -2.717622e-25)
(1.540851e-05 -9.216362e-05 8.649462e-24)
(2.007997e-06 4.627671e-06 4.376339e-25)
(-3.188969e-07 -1.502799e-05 0)
(3.43363e-07 -7.597863e-06 -3.472924e-25)
(1.291069e-07 -6.460959e-06 3.484001e-25)
(1.298046e-07 -4.829689e-06 0)
(1.3107e-07 -3.658089e-06 -2.329586e-27)
(8.696424e-08 -2.27399e-06 -2.219257e-27)
(-5.462347e-09 -2.026799e-06 5.201285e-28)
(5.264197e-08 -1.920163e-06 -1.02647e-27)
(4.035616e-08 -1.180449e-06 -2.468318e-28)
(1.64527e-08 -1.022191e-06 0)
(1.686158e-08 -8.640654e-07 0)
(2.616868e-08 -6.047575e-07 0)
(1.015506e-08 -3.95449e-07 5.741117e-26)
(5.353801e-09 -3.573661e-07 -7.859612e-28)
(5.727882e-09 -2.658953e-07 -3.681968e-28)
(6.004098e-09 -2.256881e-07 -1.371637e-26)
(1.110658e-08 -1.2572e-07 -2.718239e-26)
(7.158229e-09 -4.671435e-09 5.429871e-26)
(1.045649e-09 1.106052e-08 -2.709676e-26)
(6.531638e-09 5.438664e-08 1.342216e-26)
(-4.89791e-10 1.158133e-07 -1.34389e-26)
(-2.824322e-09 8.135658e-08 1.673785e-27)
(-3.367923e-09 6.658638e-08 1.658427e-27)
(-3.673794e-09 3.623982e-08 -1.003754e-26)
(-2.349501e-09 4.246761e-09 -6.564354e-30)
(-7.739146e-10 8.964613e-09 -3.358778e-27)
(-1.745257e-10 -3.652476e-09 0)
(2.168833e-09 2.892248e-08 -6.779466e-27)
(-3.243902e-10 3.272006e-08 -1.360756e-26)
(1.26053e-08 6.812136e-08 -2.749416e-26)
(8.231497e-09 2.58064e-07 1.675831e-25)
(8.415335e-09 2.596604e-07 9.546052e-28)
(2.077442e-08 4.864376e-07 -5.749431e-26)
(3.191355e-10 6.114625e-07 -9.19166e-28)
(4.094351e-10 5.781007e-07 -1.176969e-27)
(1.128839e-08 6.390478e-07 0)
(3.410374e-08 8.77776e-07 1.305486e-25)
(3.920161e-08 1.259333e-06 -1.297463e-25)
(5.091466e-08 1.787214e-06 1.386723e-25)
(6.7295e-08 2.181936e-06 -1.385777e-25)
(1.307664e-07 3.500513e-06 5.881925e-28)
(1.075326e-07 4.34503e-06 -1.819094e-27)
(1.671793e-07 6.464488e-06 0)
(2.677805e-07 6.805098e-06 0)
(-1.222906e-07 1.548005e-05 -3.867153e-25)
(1.65135e-06 -4.769355e-06 1.154655e-24)
(1.548216e-05 8.939263e-05 -5.41783e-24)
(0.0001474138 1.207059e-05 2.827183e-25)
(6.167186e-05 1.82788e-06 0)
(7.86967e-05 1.216216e-07 1.720787e-26)
(6.950067e-05 4.308721e-07 -1.657628e-26)
(6.701969e-05 3.916179e-07 3.24083e-27)
(6.344107e-05 1.002127e-07 1.301896e-26)
(6.335036e-05 9.077249e-08 -1.310647e-26)
(6.272343e-05 2.661583e-08 -9.117123e-27)
(6.189335e-05 2.070239e-07 1.967729e-26)
(5.956928e-05 -3.465758e-08 3.044583e-27)
(6.190234e-05 -7.067064e-08 -1.37784e-26)
(6.073882e-05 -5.807543e-08 2.014576e-26)
(6.206776e-05 -1.58782e-07 -1.209581e-26)
(6.33931e-05 -2.605201e-08 0)
(6.412911e-05 -1.00101e-07 -4.432134e-27)
(6.506125e-05 -8.82525e-08 4.440576e-27)
(6.667236e-05 -3.042039e-07 1.14554e-28)
(6.987962e-05 -2.602662e-07 -5.680408e-27)
(7.252448e-05 -2.464477e-07 2.655717e-27)
(7.353433e-05 -2.816221e-08 9.692525e-27)
(7.387986e-05 -3.762434e-07 -1.216245e-26)
(7.983872e-05 -1.161009e-06 0)
(9.708879e-05 -5.305726e-07 4.738225e-26)
(8.816217e-05 -3.306273e-06 0)
(0.000176103 -9.107846e-06 -1.071469e-24)
(0.000135023 -0.0001219332 -4.14281e-23)
(6.332694e-05 -5.76468e-05 -2.129149e-25)
(6.521119e-05 -6.443733e-05 0)
(5.619118e-05 -5.509652e-05 0)
(5.257985e-05 -5.19492e-05 -7.227367e-24)
(4.887891e-05 -4.84031e-05 -1.343432e-23)
(4.856105e-05 -4.837902e-05 -6.588816e-24)
(4.679553e-05 -4.621546e-05 1.03307e-25)
(4.341039e-05 -4.308495e-05 6.312511e-24)
(4.407243e-05 -4.412397e-05 0)
(4.273337e-05 -4.22073e-05 0)
(4.012277e-05 -3.9669e-05 0)
(3.843309e-05 -3.840145e-05 0)
(3.923038e-05 -3.93395e-05 9.553466e-26)
(3.916109e-05 -3.894772e-05 6.286147e-24)
(3.737524e-05 -3.712002e-05 0)
(3.643639e-05 -3.633103e-05 0)
(3.641135e-05 -3.641014e-05 0)
(3.566597e-05 -3.563547e-05 0)
(3.582866e-05 -3.566148e-05 -9.843622e-26)
(3.582596e-05 -3.591298e-05 2.017583e-25)
(3.561074e-05 -3.555195e-05 -6.909176e-24)
(3.609682e-05 -3.622088e-05 -6.386196e-24)
(3.63765e-05 -3.627642e-05 0)
(3.527964e-05 -3.513351e-05 6.877126e-24)
(3.517418e-05 -3.51718e-05 -1.116723e-25)
(3.494807e-05 -3.495378e-05 -7.33718e-24)
(3.511148e-05 -3.518724e-05 5.608607e-26)
(3.611746e-05 -3.634546e-05 7.621518e-24)
(3.653505e-05 -3.652436e-05 -1.633173e-23)
(3.658251e-05 -3.663878e-05 6.681121e-26)
(3.687839e-05 -3.702709e-05 -8.921232e-24)
(3.739372e-05 -3.768608e-05 -5.586768e-26)
(4.002012e-05 -4.043156e-05 3.762572e-26)
(3.794384e-05 -3.403629e-05 2.661454e-23)
(3.726045e-05 3.316001e-05 1.361492e-23)
(3.986367e-05 4.026031e-05 1.005478e-23)
(3.707944e-05 3.737207e-05 -9.708964e-24)
(3.665031e-05 3.679058e-05 -1.418436e-25)
(3.636666e-05 3.642176e-05 8.369417e-24)
(3.631383e-05 3.629984e-05 -8.175712e-24)
(3.5957e-05 3.616941e-05 -7.693323e-24)
(3.501388e-05 3.50828e-05 7.514243e-24)
(3.487e-05 3.486766e-05 7.423453e-24)
(3.514785e-05 3.51342e-05 7.163471e-24)
(3.531391e-05 3.515275e-05 -6.972531e-24)
(3.649355e-05 3.637978e-05 1.067344e-25)
(3.625489e-05 3.636968e-05 -1.313048e-23)
(3.583237e-05 3.575283e-05 1.050203e-25)
(3.617219e-05 3.624133e-05 -6.326058e-24)
(3.621441e-05 3.603179e-05 -1.204337e-25)
(3.617583e-05 3.612843e-05 2.058618e-27)
(3.688826e-05 3.691142e-05 9.835737e-26)
(3.674755e-05 3.666743e-05 0)
(3.759404e-05 3.735992e-05 -6.45199e-24)
(3.928914e-05 3.908956e-05 6.173158e-24)
(3.93293e-05 3.944152e-05 9.520122e-26)
(3.853735e-05 3.85029e-05 -9.958435e-26)
(4.024798e-05 3.9792e-05 1.285188e-23)
(4.285167e-05 4.232898e-05 -9.813416e-26)
(4.416126e-05 4.422151e-05 -5.69874e-24)
(4.343828e-05 4.312624e-05 -6.362066e-24)
(4.674421e-05 4.620068e-05 -6.592279e-24)
(4.821859e-05 4.808567e-05 1.023354e-25)
(4.841853e-05 4.799744e-05 -6.906812e-24)
(5.160181e-05 5.099196e-05 7.29285e-24)
(5.513141e-05 5.386266e-05 -7.273446e-24)
(6.706385e-05 6.600559e-05 -1.357866e-25)
(6.26576e-05 5.777931e-05 8.680224e-24)
(0.0001326743 0.0001189348 -2.124171e-23)
(5.520989e-05 4.536638e-05 1.62693e-23)
(5.958788e-05 5.989514e-05 -1.190254e-23)
(5.694335e-05 5.753087e-05 1.155994e-23)
(5.62364e-05 5.657168e-05 1.0692e-23)
(5.59688e-05 5.608741e-05 -9.779355e-24)
(5.59448e-05 5.59112e-05 0)
(5.540093e-05 5.587589e-05 0)
(5.403798e-05 5.421865e-05 -8.888505e-24)
(5.378739e-05 5.378723e-05 -1.355517e-25)
(5.419582e-05 5.416412e-05 -8.319895e-24)
(5.454231e-05 5.415484e-05 1.643468e-23)
(5.628342e-05 5.601257e-05 -1.261357e-25)
(5.593686e-05 5.61777e-05 1.075013e-25)
(5.53145e-05 5.514518e-05 0)
(5.578623e-05 5.591638e-05 -1.317444e-25)
(5.604987e-05 5.562343e-05 -1.513828e-23)
(5.580049e-05 5.568768e-05 0)
(5.694909e-05 5.698469e-05 7.365279e-24)
(5.685186e-05 5.6652e-05 1.175596e-25)
(5.815329e-05 5.762428e-05 7.623564e-24)
(6.048965e-05 6.001784e-05 0)
(6.070638e-05 6.08997e-05 -6.669772e-24)
(5.974166e-05 5.964904e-05 -1.112189e-25)
(6.244519e-05 6.137375e-05 -7.515547e-24)
(6.620799e-05 6.497975e-05 -1.155438e-25)
(6.813543e-05 6.820019e-05 1.216215e-25)
(6.748664e-05 6.670591e-05 1.182144e-25)
(7.253605e-05 7.12492e-05 -7.93759e-24)
(7.468902e-05 7.43139e-05 0)
(7.530384e-05 7.422996e-05 4.857956e-26)
(8.052221e-05 7.901294e-05 -8.49315e-24)
(8.711445e-05 8.396063e-05 -8.233973e-26)
(0.0001037827 0.0001009176 -1.116328e-23)
(0.0001041072 9.215269e-05 -4.897208e-24)
(0.0002012987 0.0001716365 2.491857e-23)
(0.000204334 -0.0001760979 2.405611e-23)
(0.0001053927 -9.175001e-05 -2.367348e-25)
(0.0001013415 -9.902242e-05 1.472864e-25)
(8.822869e-05 -8.54763e-05 -1.40238e-26)
(8.185836e-05 -8.033983e-05 -8.533166e-26)
(7.603532e-05 -7.482917e-05 1.728274e-25)
(7.52097e-05 -7.471886e-05 -7.626881e-24)
(7.263604e-05 -7.126316e-05 -1.201867e-25)
(6.745558e-05 -6.664203e-05 2.308003e-25)
(6.800791e-05 -6.805138e-05 -2.266252e-25)
(6.603278e-05 -6.479631e-05 -5.104664e-27)
(6.225672e-05 -6.11898e-05 7.625947e-24)
(5.958108e-05 -5.949425e-05 1.115561e-25)
(6.055408e-05 -6.073939e-05 -2.24356e-25)
(6.029638e-05 -5.979149e-05 -7.426103e-24)
(5.782912e-05 -5.724957e-05 7.636743e-24)
(5.638515e-05 -5.612447e-05 7.510468e-24)
(5.624053e-05 -5.622074e-05 -1.157815e-25)
(5.502424e-05 -5.494932e-05 1.167667e-25)
(5.545353e-05 -5.506623e-05 7.454793e-24)
(5.526159e-05 -5.543549e-05 -2.260054e-27)
(5.497277e-05 -5.485205e-05 -1.747914e-27)
(5.56943e-05 -5.595829e-05 7.658831e-24)
(5.610534e-05 -5.586787e-05 -1.285158e-25)
(5.448954e-05 -5.413817e-05 -8.113103e-24)
(5.423715e-05 -5.423228e-05 1.281128e-25)
(5.3906e-05 -5.392506e-05 8.514761e-24)
(5.41906e-05 -5.438942e-05 -2.995224e-27)
(5.564793e-05 -5.615871e-05 -8.781761e-24)
(5.628311e-05 -5.62573e-05 9.787338e-24)
(5.630123e-05 -5.642424e-05 -1.502527e-25)
(5.659517e-05 -5.695057e-05 -1.058977e-23)
(5.741698e-05 -5.800819e-05 -1.134599e-23)
(5.989842e-05 -6.026729e-05 -1.202886e-23)
(5.615278e-05 -4.671952e-05 1.584865e-23)
(0.0002163458 2.517241e-05 2.789558e-24)
(0.0001067588 5.796132e-06 1.549334e-25)
(0.0001209048 6.294822e-07 -2.746903e-26)
(0.000109201 1.046273e-06 2.769642e-26)
(0.0001044693 9.755337e-07 -1.15108e-29)
(9.867377e-05 3.171064e-07 0)
(9.823295e-05 2.111046e-07 0)
(9.729775e-05 8.886714e-08 1.532551e-27)
(9.605578e-05 4.701413e-07 8.901391e-28)
(9.244241e-05 -4.460985e-08 -1.619085e-26)
(9.568936e-05 -1.586784e-07 1.568784e-26)
(9.409107e-05 -1.515714e-07 -1.477581e-26)
(9.593508e-05 -3.598894e-07 9.067552e-27)
(9.799092e-05 -9.934553e-08 -1.674308e-26)
(9.933039e-05 -2.343867e-07 0)
(0.000100813 -2.344716e-07 -2.494808e-27)
(0.0001031174 -7.053937e-07 1.966258e-27)
(0.0001080302 -6.495702e-07 -6.366141e-27)
(0.0001122024 -6.060915e-07 -6.644475e-27)
(0.0001139955 -1.33831e-07 2.709768e-26)
(0.0001148547 -9.959925e-07 -4.849494e-26)
(0.0001251984 -2.723496e-06 7.943789e-26)
(0.0001496163 -1.568078e-06 -1.012801e-25)
(0.0001428991 -8.087502e-06 -2.711954e-27)
(0.000261033 -1.956236e-05 1.268315e-24)
(3.323777e-05 -0.0001368138 -9.575028e-24)
(6.622348e-06 -8.2359e-06 -1.298902e-24)
(-1.614229e-07 -2.351107e-05 -1.258036e-25)
(8.134405e-07 -1.379681e-05 4.115184e-25)
(3.908044e-07 -1.104014e-05 -7.940748e-25)
(3.427486e-07 -8.237677e-06 3.822402e-25)
(3.304436e-07 -6.281414e-06 3.405855e-25)
(2.269727e-07 -4.098769e-06 -3.411052e-25)
(1.448522e-08 -3.501773e-06 0)
(1.259234e-07 -3.242577e-06 1.210677e-27)
(1.039214e-07 -2.108887e-06 0)
(4.588352e-08 -1.800383e-06 0)
(4.599127e-08 -1.51916e-06 1.406941e-25)
(6.483293e-08 -1.090772e-06 -1.407614e-25)
(2.864047e-08 -7.562857e-07 0)
(1.627593e-08 -6.61113e-07 -6.689224e-26)
(1.538768e-08 -5.027884e-07 8.411401e-28)
(1.662864e-08 -4.259842e-07 6.523459e-26)
(2.794967e-08 -2.567439e-07 -3.223691e-26)
(1.851106e-08 -6.778015e-08 0)
(4.731589e-09 -2.591527e-08 3.180842e-26)
(1.60457e-08 4.785076e-08 -3.186542e-26)
(7.875121e-10 1.496749e-07 -1.580173e-26)
(-5.372712e-09 1.147172e-07 1.186278e-26)
(-6.756746e-09 1.018128e-07 -4.070799e-27)
(-7.607584e-09 6.700111e-08 -1.383983e-26)
(-4.326518e-09 2.827814e-08 1.975438e-26)
(-6.008814e-10 4.678182e-08 0)
(9.821327e-10 4.030814e-08 -4.78919e-26)
(6.529704e-09 9.800095e-08 3.189627e-26)
(1.999704e-09 1.225176e-07 1.60733e-26)
(3.09939e-08 1.892468e-07 9.776984e-26)
(2.206836e-08 4.832645e-07 -1.97068e-25)
(2.457332e-08 5.24829e-07 -6.792021e-26)
(5.012994e-08 8.869401e-07 7.002645e-26)
(5.425319e-09 1.091161e-06 -1.08613e-27)
(6.686406e-09 1.084715e-06 -1.113244e-27)
(3.401224e-08 1.229568e-06 -1.482952e-25)
(8.712756e-08 1.624912e-06 -9.652739e-28)
(1.043096e-07 2.276967e-06 1.525896e-25)
(1.339083e-07 3.136438e-06 0)
(1.866494e-07 3.914557e-06 0)
(3.238217e-07 6.016136e-06 0)
(3.000496e-07 7.539546e-06 2.854083e-27)
(4.606865e-07 1.093805e-05 0)
(6.800207e-07 1.274044e-05 -3.284748e-27)
(1.994881e-07 2.40345e-05 4.735016e-25)
(5.873873e-06 7.845115e-06 -1.324154e-24)
(3.341376e-05 0.000132939 9.821552e-24)
(0.000270622 1.950621e-05 0)
(0.0001397095 9.424236e-06 -4.107116e-27)
(0.000146687 1.384118e-06 2.314878e-26)
(0.0001227178 2.060492e-06 0)
(0.0001200439 5.967833e-07 -1.316518e-26)
(0.0001142044 1.244277e-06 8.529247e-27)
(0.0001076932 3.287857e-07 5.737735e-27)
(0.0001082775 5.928218e-07 -7.350423e-27)
(0.0001013771 7.748647e-07 0)
(9.910944e-05 1.787181e-08 0)
(9.954794e-05 2.451288e-07 -1.069242e-26)
(9.686513e-05 3.993118e-07 1.065886e-26)
(9.336112e-05 2.480724e-07 0)
(9.436001e-05 -2.719527e-07 -2.252694e-26)
(9.774028e-05 -1.027686e-07 0)
(9.619365e-05 1.811569e-07 -2.384519e-26)
(9.509104e-05 1.047809e-07 2.382687e-26)
(9.529526e-05 -3.660691e-07 1.776707e-27)
(0.0001003499 -5.75052e-07 -1.795363e-26)
(0.000101435 -1.451691e-07 4.328019e-26)
(0.0001044199 -7.030158e-07 -2.530458e-26)
(0.0001088476 -1.152142e-06 0)
(0.0001213953 -2.879041e-07 1.347476e-26)
(0.000103395 -5.586819e-06 -3.47581e-25)
(0.0002135371 -2.538493e-05 5.143636e-24)
(0.0003675544 3.558798e-05 -1.132892e-24)
(0.0002090184 1.853203e-05 9.264489e-26)
(0.0002091154 3.623426e-06 -9.996332e-26)
(0.000176973 4.067193e-06 -8.53567e-26)
(0.0001716746 1.343339e-06 4.604988e-26)
(0.0001635094 2.519865e-06 0)
(0.0001541193 7.753368e-07 0)
(0.0001541884 1.18581e-06 -3.598337e-27)
(0.0001449467 1.588586e-06 4.45875e-27)
(0.0001411933 1.057173e-07 -1.803844e-26)
(0.0001419621 4.686512e-07 1.253453e-26)
(0.000138225 7.612613e-07 0)
(0.00013364 4.589503e-07 -2.508924e-26)
(0.0001351469 -5.14486e-07 5.718579e-26)
(0.000139522 -1.619583e-07 -3.100301e-26)
(0.0001374096 3.900067e-07 0)
(0.0001356814 1.669813e-07 0)
(0.000136605 -8.117315e-07 -1.666334e-27)
(0.0001437034 -1.177752e-06 -2.179176e-27)
(0.000145555 -3.863014e-07 2.997447e-26)
(0.0001503608 -1.580898e-06 -1.797804e-26)
(0.0001578248 -2.259206e-06 -5.512622e-26)
(0.000173182 -1.579456e-06 3.813221e-26)
(0.000162066 -1.288995e-05 6.756088e-25)
(0.0002872152 -4.532055e-05 -1.306549e-24)
(6.081649e-05 -0.0001857916 -1.040066e-23)
(1.573572e-05 -3.282723e-05 0)
(1.184727e-06 -3.600469e-05 4.373694e-25)
(1.696509e-06 -2.307236e-05 9.678171e-25)
(9.645425e-07 -1.770007e-05 -9.712832e-25)
(7.680296e-07 -1.310806e-05 4.08617e-25)
(6.995725e-07 -1.004417e-05 -4.293885e-25)
(5.067183e-07 -6.841004e-06 3.811267e-25)
(8.159959e-08 -5.646126e-06 -3.700859e-25)
(2.638971e-07 -5.109707e-06 0)
(2.237949e-07 -3.485187e-06 0)
(1.073832e-07 -2.94782e-06 0)
(1.035459e-07 -2.484724e-06 -5.197813e-27)
(1.367261e-07 -1.821308e-06 0)
(6.606422e-08 -1.324274e-06 -5.009005e-27)
(4.044562e-08 -1.129986e-06 -1.568286e-25)
(3.488697e-08 -8.733039e-07 4.641394e-25)
(3.802156e-08 -7.407435e-07 0)
(5.927077e-08 -4.726047e-07 -3.751789e-26)
(4.050683e-08 -1.982474e-07 1.132031e-25)
(1.324423e-08 -1.105342e-07 0)
(3.407293e-08 6.405942e-09 -1.866229e-26)
(5.389803e-09 1.64932e-07 0)
(-7.469226e-09 1.447865e-07 1.389603e-26)
(-1.07517e-08 1.435217e-07 -9.119267e-27)
(-1.260882e-08 1.142607e-07 4.633083e-27)
(-5.793881e-09 7.668948e-08 -2.791716e-26)
(1.829421e-09 1.230286e-07 3.714926e-26)
(5.128716e-09 1.351848e-07 9.37042e-26)
(1.628681e-08 2.309845e-07 -1.502772e-25)
(8.981239e-09 2.969226e-07 -7.822773e-28)
(6.488304e-08 4.105596e-07 7.572706e-26)
(4.949388e-08 8.360014e-07 -1.552242e-25)
(5.861555e-08 9.572511e-07 1.566735e-25)
(1.04506e-07 1.497556e-06 1.594253e-25)
(1.88184e-08 1.810589e-06 -1.592994e-25)
(2.631388e-08 1.876501e-06 2.606917e-27)
(8.252571e-08 2.166113e-06 0)