/*--------------------------------*- C++ -*----------------------------------*\
| =========                 |                                                 |
| \\      /  F ield         | OpenFOAM: The Open Source CFD Toolbox           |
|  \\    /   O peration     | Version:  2406                                  |
|   \\  /    A nd           | Website:  www.openfoam.com                      |
|    \\/     M anipulation  |                                                 |
\*---------------------------------------------------------------------------*/
FoamFile
{
    version     2.0;
    format      ascii;
    arch        "LSB;label=32;scalar=64";
    class       surfaceScalarField;
    location    "0.48";
    object      phi;
}
// * * * * * * * * * * * * * * * * * * * * * * * * * * * * * * * * * * * * * //

dimensions      [0 3 -1 0 0 0 0];

oriented        oriented;

internalField   nonuniform List<scalar> 
6770
(
8.948058e-11
-1.782888e-09
1.693408e-09
-1.467346e-09
3.405665e-10
1.12678e-09
-1.479515e-09
1.362632e-09
1.168825e-10
1.685427e-09
-1.009277e-09
-6.761494e-10
7.768718e-09
-7.042548e-09
-7.261696e-10
6.250237e-10
8.523047e-10
-1.477328e-09
-1.11713e-09
1.583137e-09
-4.660065e-10
-1.264747e-09
1.211341e-09
5.340646e-11
-8.826982e-10
-8.130698e-10
1.695768e-09
-1.181552e-09
1.223147e-09
-4.159511e-11
1.937628e-10
-1.263781e-09
1.070018e-09
7.561645e-10
-1.678869e-09
9.227046e-10
1.342479e-09
-1.398622e-09
5.614311e-11
1.101864e-09
-1.648636e-09
5.467716e-10
-2.437685e-10
1.885972e-09
1.819464e-09
-4.911727e-09
3.092263e-09
4.514891e-10
1.339746e-09
-1.791235e-09
-2.321088e-09
5.41854e-10
1.779234e-09
-1.268198e-09
9.714611e-10
2.967364e-10
-6.616277e-10
-1.153273e-09
1.814901e-09
-8.310007e-10
-1.015174e-09
1.846175e-09
5.625529e-10
-1.507192e-09
9.446393e-10
9.132936e-10
-1.792232e-09
8.789383e-10
1.514377e-09
-1.120061e-09
-3.943155e-10
-1.195882e-09
9.018757e-10
2.940067e-10
-1.329253e-09
-2.853579e-10
1.614611e-09
1.21028e-09
3.952782e-10
-1.605559e-09
7.859607e-10
9.488072e-10
-1.734768e-09
-1.549821e-09
7.750588e-10
1.87719e-10
-1.074268e-09
8.865486e-10
3.158674e-10
-1.385235e-09
1.069367e-09
1.886548e-09
-1.554522e-09
-3.320267e-10
1.491838e-09
-2.867646e-10
-1.205073e-09
-2.211e-10
1.693856e-09
-1.472756e-09
-2.116604e-09
2.005423e-09
1.111808e-10
-6.617701e-09
5.03802e-09
1.579681e-09
7.819478e-10
-1.695347e-09
9.133991e-10
-2.034256e-09
1.39468e-09
6.395753e-10
-1.001383e-09
2.169228e-09
-1.167844e-09
3.11197e-09
-2.673858e-09
-4.38112e-10
1.581478e-09
-1.484279e-09
-9.719858e-11
1.734925e-09
-7.496685e-10
-9.852562e-10
-1.942064e-09
1.626559e-09
3.15505e-10
-1.58857e-09
1.011601e-09
5.769693e-10
-1.271425e-09
8.593152e-10
4.121095e-10
-1.950064e-09
1.630314e-09
3.197496e-10
-1.220634e-09
8.193648e-10
4.012696e-10
-7.92083e-10
-8.215388e-10
1.613622e-09
-5.509449e-10
-1.436981e-09
1.987926e-09
-1.572567e-09
-5.841536e-10
2.15672e-09
5.732909e-10
9.331618e-10
-1.506453e-09
-1.197257e-09
3.561764e-10
8.410807e-10
-5.922883e-09
2.310716e-10
5.691812e-09
-1.183264e-09
-4.032937e-10
1.586558e-09
1.617784e-09
7.692615e-10
-2.387046e-09
-1.556392e-09
1.041015e-09
5.153765e-10
1.445825e-09
-2.490951e-10
-1.19673e-09
-1.533743e-09
1.154764e-09
3.789791e-10
3.465009e-10
1.429441e-09
-1.775941e-09
-4.956454e-10
-2.438739e-09
2.934384e-09
-1.509559e-09
1.43521e-09
7.434879e-11
-1.160826e-09
2.582519e-10
9.025738e-10
3.650444e-10
1.298494e-09
-1.663539e-09
-3.656469e-10
-1.433801e-09
1.799448e-09
-1.649556e-09
1.829418e-09
-1.742688e-09
9.964729e-10
7.462147e-10
-2.0401e-13
-1.731399e-09
1.731603e-09
1.015218e-09
-1.76209e-09
7.468719e-10
-6.85578e-11
-1.444877e-09
1.513435e-09
-1.487323e-09
9.303691e-10
5.569537e-10
-5.868014e-10
-1.015383e-09
1.602184e-09
2.182434e-09
-9.4285e-10
-1.239584e-09
1.233265e-09
5.977534e-10
-1.831019e-09
-9.02334e-10
-8.339123e-10
1.736246e-09
-3.617761e-10
1.871619e-09
-1.509843e-09
4.832451e-10
1.930502e-09
-2.413747e-09
-1.095774e-09
1.56582e-09
-4.700456e-10
-1.69533e-09
3.897301e-10
1.3056e-09
1.858816e-09
-4.14814e-10
-1.444002e-09
-1.638044e-10
3.474338e-09
-3.310533e-09
-4.836761e-09
8.471354e-09
-3.634593e-09
-1.236677e-09
-3.268254e-09
4.504931e-09
-2.099896e-09
1.423961e-09
6.759348e-10
-5.900035e-10
1.795773e-09
-1.20577e-09
-1.686085e-09
1.464985e-09
-1.078662e-09
-7.098742e-10
1.788536e-09
7.159952e-10
1.286748e-09
-2.002743e-09
-1.410811e-09
5.928559e-10
8.179546e-10
-1.432906e-10
-1.20942e-09
1.35271e-09
-1.704861e-09
3.543914e-10
1.35047e-09
-9.451418e-10
-1.116528e-09
2.06167e-09
7.297276e-10
-1.626887e-09
8.971596e-10
-1.189681e-09
-4.660618e-10
1.655742e-09
1.522824e-09
-3.365467e-10
-1.186277e-09
9.447139e-10
6.182431e-10
-1.562957e-09
1.19037e-09
-3.267844e-10
-8.63586e-10
8.027249e-10
-1.667554e-09
8.648289e-10
-1.281718e-09
1.16214e-09
1.195777e-10
6.074853e-10
-1.487278e-09
9.3077e-10
8.362005e-10
-1.76697e-09
-6.203465e-10
1.530612e-09
-9.102653e-10
-1.043664e-09
1.708067e-09
-6.644029e-10
1.651102e-09
-4.082633e-10
-1.242839e-09
-1.78625e-09
1.062502e-09
7.23748e-10
1.548799e-09
-1.258686e-09
-2.901131e-10
1.167224e-09
-1.043181e-09
-1.240437e-10
-1.335923e-09
1.20094e-09
1.349827e-10
2.097744e-09
-1.524796e-09
-5.729478e-10
9.833194e-10
-1.402564e-09
4.19245e-10
6.191314e-09
-9.45871e-10
-5.245443e-09
1.737132e-09
-4.061469e-10
-1.330985e-09
1.596627e-09
-4.848734e-10
-1.111754e-09
-9.120972e-10
1.458374e-09
-5.462771e-10
1.631697e-09
-1.248522e-09
-3.831754e-10
9.966891e-10
1.009307e-09
-2.005996e-09
1.046016e-09
6.889085e-10
-2.534289e-10
-4.579951e-09
4.83338e-09
-4.615383e-11
-1.353792e-09
1.399946e-09
-1.505221e-09
4.464624e-10
1.058758e-09
-1.28866e-09
1.090897e-09
1.977621e-10
9.911339e-10
1.661355e-09
-2.652489e-09
-6.873535e-10
1.712346e-09
-1.024993e-09
-1.539215e-09
1.681502e-09
-1.422866e-10
1.818715e-09
-1.256256e-09
-5.624593e-10
7.691753e-10
1.073351e-09
-1.842527e-09
-3.924518e-10
1.710888e-09
-1.318437e-09
5.930047e-10
-1.913682e-09
1.320677e-09
-1.255715e-09
1.636465e-09
-3.807494e-10
1.958954e-09
-1.01424e-09
-1.996547e-09
1.441196e-09
5.553511e-10
1.047904e-09
8.44116e-10
-1.89202e-09
-7.949725e-10
-5.109848e-10
1.305957e-09
1.559218e-09
-3.919935e-10
-5.549332e-10
-8.175612e-10
1.372494e-09
1.560918e-09
-4.253583e-10
-1.13556e-09
2.083678e-09
-1.047612e-09
-1.036066e-09
1.235078e-09
4.457989e-10
-1.680877e-09
-1.666273e-09
1.412876e-09
2.533971e-10
4.535013e-09
8.703316e-10
-5.405344e-09
1.5292e-09
-1.448433e-09
-8.076763e-11
-1.628031e-09
9.305895e-10
6.974412e-10
1.132124e-09
-4.993588e-09
3.861464e-09
-1.551463e-09
3.053604e-10
1.246103e-09
1.231228e-09
7.814304e-10
9.523478e-10
6.44801e-10
-1.597149e-09
1.709307e-09
-1.414968e-09
-2.94339e-10
7.38042e-10
-1.348472e-09
6.104304e-10
5.754447e-10
-1.368854e-09
7.934094e-10
1.861378e-09
-1.468267e-09
-3.931114e-10
-7.787159e-09
1.864275e-09
2.234968e-10
1.072103e-09
-1.2956e-09
-1.150816e-09
6.981808e-10
4.526357e-10
6.199321e-10
9.574853e-10
-1.577417e-09
7.57967e-10
8.745217e-10
-1.632489e-09
1.542973e-09
-9.627616e-10
-5.802112e-10
-1.371434e-11
2.640925e-09
-2.627211e-09
-1.692598e-09
9.116096e-10
7.809883e-10
-9.636543e-10
1.947167e-09
-9.835123e-10
1.49417e-09
4.464306e-10
-1.940601e-09
-1.582885e-09
-2.760621e-10
1.858947e-09
1.161168e-09
-1.763548e-09
6.023806e-10
-2.015275e-09
2.49852e-09
1.258519e-09
-1.001463e-09
-2.570562e-10
4.425797e-10
-1.528303e-09
1.085723e-09
-2.386504e-10
1.52225e-09
-1.2836e-09
-1.792968e-09
2.36577e-10
-1.564919e-09
2.804838e-10
1.284436e-09
3.717546e-10
-1.748063e-09
1.376309e-09
-1.682508e-09
6.440557e-10
1.038452e-09
-5.849204e-10
2.454372e-09
-1.869452e-09
-1.958654e-09
1.127654e-09
1.41905e-09
-1.727903e-11
-1.40177e-09
8.67468e-10
7.657004e-10
-1.633168e-09
2.955138e-10
-1.633506e-09
1.337992e-09
-7.610042e-10
1.816993e-09
-1.055988e-09
-5.341888e-10
2.028359e-09
1.206053e-09
-1.57786e-09
3.718065e-10
9.734017e-11
-1.636555e-09
1.158663e-11
1.287581e-09
-1.299168e-09
-1.469047e-09
6.691814e-10
7.998652e-10
1.362508e-09
-1.59178e-09
2.29272e-10
1.478868e-10
-1.607242e-09
1.459355e-09
-9.009906e-10
1.639033e-09
2.898131e-09
-1.395661e-09
7.491292e-10
6.465317e-10
2.283249e-10
8.175735e-10
-1.045898e-09
1.058791e-09
-1.526918e-09
4.681268e-10
3.66085e-10
1.308143e-09
-1.674228e-09
-1.243328e-09
1.8964e-09
-6.530719e-10
9.824028e-10
-1.205264e-09
2.228617e-10
1.513941e-09
-6.136352e-10
-9.003056e-10
1.118284e-09
5.837509e-10
-1.702035e-09
-1.689477e-09
1.12547e-09
5.640071e-10
3.637114e-10
-1.334962e-09
9.712508e-10
-1.668596e-09
9.919686e-10
6.766274e-10
-2.605586e-10
-1.208488e-09
-1.760326e-09
1.297493e-09
4.628334e-10
-7.983002e-10
1.72907e-09
-1.749672e-09
1.164752e-09
1.077233e-09
7.078665e-10
-1.785099e-09
6.365121e-10
-2.029383e-09
1.392871e-09
-7.665669e-10
-1.100526e-09
1.867093e-09
-1.625458e-09
4.869929e-10
1.138466e-09
2.10211e-10
-1.195617e-09
9.854057e-10
1.034725e-09
1.135306e-10
-1.148256e-09
-1.794042e-10
1.551774e-09
-1.37237e-09
1.660658e-09
-1.375885e-09
-2.847725e-10
2.086926e-09
-1.010491e-09
-1.076435e-09
3.427218e-10
1.374927e-09
-1.717648e-09
8.842267e-10
8.731437e-10
-1.75737e-09
-1.120585e-09
-5.501205e-10
1.670705e-09
4.815219e-10
-1.318895e-09
8.373727e-10
1.760694e-09
-7.197659e-10
-1.040928e-09
9.808322e-10
4.842202e-10
-1.465052e-09
2.470327e-10
9.486371e-10
-1.19567e-09
1.392684e-09
6.942422e-10
-4.876909e-10
-1.218357e-09
1.706048e-09
-1.288819e-09
-2.634538e-10
1.552273e-09
1.529558e-09
-4.790153e-10
-1.050543e-09
8.253293e-10
-1.993786e-09
1.168457e-09
-1.400882e-09
3.529421e-10
1.04794e-09
1.104421e-09
-1.694738e-09
5.903171e-10
-4.540517e-11
-1.867835e-09
1.91324e-09
3.132793e-09
-1.515009e-09
1.405833e-09
-1.133941e-09
-2.718921e-10
-1.565646e-09
9.45721e-10
6.199249e-10
-8.889344e-10
1.155922e-09
-2.669875e-10
1.868659e-10
-1.372593e-09
1.185727e-09
8.753439e-10
-1.827428e-09
9.520838e-10
-1.530256e-09
-5.376252e-10
2.067881e-09
-1.316974e-09
-1.503726e-10
-1.705458e-09
9.853209e-10
7.201374e-10
8.077454e-10
1.023173e-09
-1.830919e-09
1.472651e-09
-2.133768e-09
6.611173e-10
-1.060746e-09
1.596396e-09
-5.356507e-10
1.712836e-09
-4.777582e-10
-1.730532e-09
2.540822e-10
1.47645e-09
-1.070109e-09
2.008756e-09
-9.386469e-10
-7.886424e-10
-1.113228e-09
1.901871e-09
-1.246543e-09
2.201451e-09
-9.549083e-10
-1.77488e-09
1.986433e-09
-1.200472e-09
-1.181745e-09
1.76948e-09
-5.87735e-10
-1.214437e-09
3.381073e-10
8.7633e-10
1.832427e-09
-1.311747e-09
-5.206805e-10
2.117555e-09
-1.678445e-09
-4.391109e-10
1.737189e-09
-6.258191e-10
-1.11137e-09
-1.281068e-09
-3.483013e-10
1.629369e-09
1.180347e-09
3.492113e-10
1.529832e-09
2.308619e-10
1.577536e-09
-9.29829e-10
-6.477072e-10
8.411769e-10
-1.852277e-09
1.0111e-09
1.489401e-09
4.645042e-11
-1.535851e-09
-8.794015e-10
-5.764958e-10
1.455897e-09
1.427582e-09
-1.060204e-09
-3.673785e-10
-1.219887e-09
-5.028843e-10
1.722771e-09
2.03278e-10
-1.225017e-09
1.021739e-09
-1.653625e-09
1.670649e-09
-1.7024e-11
-1.074774e-09
-7.00106e-10
-9.876472e-10
-2.871213e-10
1.274769e-09
-1.979947e-09
8.282566e-10
1.15169e-09
1.863315e-09
-1.439314e-09
-4.240012e-10
1.07047e-09
9.317844e-10
-2.002255e-09
-1.658794e-09
3.845149e-10
1.274279e-09
1.818335e-09
-3.471262e-10
-1.471209e-09
6.488213e-10
1.264874e-09
-1.418104e-09
1.532298e-10
-1.433048e-09
-3.685797e-10
1.801628e-09
1.217431e-09
9.021453e-10
-2.119576e-09
-2.107679e-09
9.528412e-10
1.154837e-09
-8.028375e-10
1.597791e-09
-7.949532e-10
8.312827e-10
-1.128868e-09
2.975849e-10
-2.260549e-10
-1.469174e-09
1.695229e-09
-4.826945e-09
3.590268e-09
1.78603e-09
-5.220223e-09
3.434193e-09
-1.72821e-09
1.278441e-09
4.497691e-10
-1.744285e-09
1.491853e-09
2.524322e-10
1.395754e-09
-3.245174e-11
-1.363303e-09
-1.724385e-09
1.39315e-09
3.312351e-10
-3.09281e-09
-2.414692e-11
3.116957e-09
-4.82296e-10
1.916269e-09
-1.433973e-09
1.362196e-09
-2.367954e-09
1.005758e-09
1.14237e-11
1.375124e-09
-1.386548e-09
-1.342477e-09
-4.956569e-10
1.838134e-09
-1.566758e-09
1.789979e-09
-2.232207e-10
2.355839e-09
-1.24123e-09
-1.114608e-09
-1.619869e-09
4.578867e-10
1.161983e-09
-1.58206e-09
8.981159e-10
6.839443e-10
2.825532e-10
1.455048e-09
-1.737601e-09
-1.601099e-09
1.014298e-09
1.410935e-09
6.483863e-11
-1.475774e-09
1.565015e-09
-7.985733e-10
-7.664418e-10
-1.193013e-10
1.178405e-09
-1.059104e-09
-8.237913e-10
-1.00046e-09
1.824251e-09
-1.861034e-09
6.992162e-10
1.161817e-09
1.272192e-09
-8.937159e-12
-1.263254e-09
1.046488e-09
1.279681e-09
-2.326169e-09
1.099386e-09
1.168067e-09
-1.340775e-09
1.72708e-10
2.649754e-09
-7.34795e-09
4.698196e-09
1.851358e-09
3.180271e-11
-1.883161e-09
-1.47397e-09
9.733627e-10
5.006071e-10
1.686885e-09
-8.002207e-10
-8.866647e-10
1.002503e-09
-1.224337e-09
2.218338e-10
-5.019373e-09
-2.767785e-09
-5.469134e-10
1.498e-09
-9.510862e-10
1.721765e-09
-9.398173e-10
-1.822403e-09
-8.677414e-11
1.909177e-09
1.994251e-10
1.454527e-09
-1.653952e-09
1.07006e-09
-1.909198e-10
-8.791398e-10
-8.663371e-10
-5.30342e-10
1.396679e-09
-1.665239e-09
-1.325015e-09
2.990253e-09
-1.030178e-09
-9.611772e-10
1.991355e-09
1.005102e-09
-1.623933e-09
6.188317e-10
2.127275e-11
-1.315767e-09
1.294495e-09
-5.428772e-10
-1.163683e-09
1.70656e-09
-6.787897e-10
1.794989e-09
-1.1162e-09
1.646843e-09
-2.648227e-09
1.603805e-09
-1.835628e-09
2.318229e-10
1.397551e-09
-2.144735e-09
7.471838e-10
7.836038e-10
2.495791e-10
-1.033183e-09
2.193782e-09
7.043486e-10
-3.613579e-10
-1.616959e-09
1.978317e-09
2.694224e-10
-1.785159e-09
1.515737e-09
-7.071446e-10
-8.874155e-10
1.59456e-09
1.581897e-09
-1.628051e-09
-3.512103e-10
1.476076e-09
-1.124866e-09
9.346995e-11
-1.531375e-09
1.437905e-09
-1.188496e-09
-5.041023e-10
-8.739449e-10
1.080077e-09
-2.061319e-10
1.541409e-09
-1.905545e-09
3.641368e-10
2.751595e-09
-2.760683e-09
9.088728e-12
1.487467e-09
-1.112417e-09
-3.750497e-10
-1.519378e-09
1.119227e-09
4.001516e-10
1.674268e-09
-1.235523e-09
3.441091e-10
1.330159e-09
1.090721e-09
-1.547545e-09
4.568243e-10
9.637575e-10
-1.181229e-09
2.174717e-10
-7.459985e-10
8.153005e-10
9.743146e-10
-1.789615e-09
9.904672e-10
-1.198638e-09
2.08171e-10
-1.409821e-09
1.582412e-09
-1.725908e-10
1.470108e-09
-3.518243e-10
-1.864667e-09
8.196405e-10
1.045027e-09
1.933907e-09
-2.403164e-10
-1.693591e-09
-6.507264e-12
1.236417e-09
-1.22991e-09
-1.397047e-10
1.30676e-09
-1.167055e-09
-1.506969e-09
-5.063534e-11
1.557605e-09
-1.442148e-09
1.485274e-09
-4.312551e-11
-1.407243e-09
1.032025e-09
3.752172e-10
1.206472e-09
-9.943618e-10
-2.121102e-10
1.91523e-09
-1.605362e-09
-3.098682e-10
-1.391097e-09
1.942034e-10
1.196893e-09
1.831011e-09
-1.158295e-09
-6.727164e-10
-8.945659e-10
-1.948172e-09
2.528421e-10
-6.19452e-10
-1.058688e-09
1.67814e-09
-8.597184e-10
1.079418e-09
-2.196999e-10
1.627344e-09
-1.954469e-09
3.271254e-10
-1.221123e-09
2.132732e-09
1.736589e-09
-9.556012e-10
-1.23671e-09
-3.904489e-10
1.627159e-09
-3.405737e-10
-9.30851e-10
8.395705e-10
2.436351e-09
-3.275922e-09
-1.097951e-09
1.690956e-09
2.095689e-09
-1.50753e-09
-5.881593e-10
8.926429e-10
8.524334e-10
-1.745076e-09
1.757191e-09
-1.130892e-10
-1.644102e-09
-8.561477e-11
-1.324605e-09
1.41022e-09
-1.04048e-09
-5.792504e-10
1.619731e-09
7.937892e-11
1.614208e-09
-1.693587e-09
-1.46114e-09
1.790366e-09
-3.292253e-10
1.115682e-09
5.728717e-10
-1.688554e-09
-4.512085e-10
1.333728e-09
-8.825199e-10
-1.84124e-09
1.524912e-09
3.163285e-10
-1.223479e-09
1.284856e-09
-6.137717e-11
-4.406135e-10
-7.75932e-10
1.216545e-09
2.025562e-09
-1.239055e-09
-7.865074e-10
-5.218584e-10
-7.204972e-10
1.242356e-09
-8.751571e-12
1.100465e-09
-1.091713e-09
1.350239e-09
-1.44397e-09
9.373149e-11
1.436962e-09
2.721131e-10
-1.709075e-09
5.679898e-10
7.003822e-10
-1.268372e-09
-4.828553e-10
-8.554612e-10
1.338317e-09
-9.105862e-10
1.595329e-09
-6.847425e-10
1.303567e-09
-1.131962e-10
-7.393746e-10
2.108451e-09
-1.369077e-09
8.023538e-10
6.692933e-10
-1.471647e-09
1.864184e-09
-9.910322e-10
-8.731522e-10
-4.46251e-10
-1.20851e-09
1.654761e-09
-8.739887e-10
1.573906e-09
-6.999175e-10
2.389785e-09
-6.454229e-10
-1.744362e-09
1.879327e-09
-1.129387e-09
-7.499403e-10
1.434413e-09
3.823285e-10
-1.816742e-09
-3.094873e-09
-2.472069e-09
5.566942e-09
1.764679e-09
-5.291844e-09
3.527165e-09
-1.269982e-09
-4.605504e-10
1.60455e-09
1.028724e-09
-1.480977e-09
4.522533e-10
1.293808e-09
-1.321138e-09
2.732936e-11
-9.415472e-10
-1.0384e-09
1.647497e-09
-8.729192e-10
-1.687623e-09
2.264827e-10
-9.830085e-10
-4.551272e-10
1.438136e-09
9.11362e-10
1.507712e-09
-2.419074e-09
8.472263e-10
4.729533e-10
-1.32018e-09
1.801682e-09
-6.115461e-10
6.059168e-10
-6.071201e-10
1.509674e-09
-9.025539e-10
4.444593e-10
-1.700174e-09
8.223034e-11
1.470372e-09
-1.552602e-09
-1.137414e-10
1.475593e-09
-1.361851e-09
-6.575266e-09
1.786789e-09
4.788477e-09
-1.237327e-09
1.418442e-09
-1.811157e-10
-1.461245e-09
1.456356e-09
4.889193e-12
1.592001e-09
-5.776071e-10
-1.014394e-09
-1.800062e-09
1.425824e-09
3.742378e-10
6.98055e-10
-1.817505e-09
1.11945e-09
-1.36328e-09
-8.492786e-10
-6.380442e-10
4.134095e-10
-8.789752e-10
4.655657e-10
1.383034e-09
-1.619769e-10
-1.221057e-09
-1.568895e-09
1.380437e-09
1.512753e-09
1.852114e-10
-1.697964e-09
-7.10637e-11
-1.542473e-09
1.292959e-09
-1.620831e-09
3.278721e-10
-5.688117e-12
1.548661e-09
-1.630363e-09
-3.197006e-10
-1.783594e-09
-3.337022e-10
2.117296e-09
-1.283996e-09
-1.232467e-10
-9.805773e-10
-1.053678e-09
5.794815e-11
1.491058e-09
-1.549007e-09
1.280518e-09
-1.721131e-09
-1.625255e-09
-3.104926e-10
1.935748e-09
1.870898e-09
-9.046697e-10
-9.662284e-10
-3.162629e-10
-4.648112e-09
4.964374e-09
1.380199e-09
-1.184134e-09
-1.960659e-10
-5.02581e-10
-1.219277e-09
1.721858e-09
-1.53942e-09
1.721636e-09
-1.822164e-10
-8.69994e-10
-6.008408e-10
1.470835e-09
-1.661828e-09
2.1296e-10
1.448868e-09
1.452103e-09
-1.411877e-09
-4.022595e-11
6.053526e-10
-1.649017e-09
3.416106e-10
-1.807495e-09
1.465885e-09
1.649413e-09
1.602256e-10
-1.809639e-09
1.750147e-09
-6.864512e-11
8.15559e-10
-2.232907e-09
1.417348e-09
-1.30763e-09
1.357492e-09
-4.986247e-11
-7.640451e-10
1.648272e-09
1.171932e-09
4.791701e-10
1.459444e-09
-1.063135e-10
-1.353131e-09
-4.933636e-09
5.488576e-10
4.384778e-09
-1.04571e-09
1.663954e-09
2.29473e-10
-1.842453e-09
1.61298e-09
4.084932e-11
1.411254e-09
-1.099849e-09
-6.919902e-10
1.791839e-09
5.143388e-10
1.366516e-09
1.739486e-09
-1.31053e-09
-4.289557e-10
1.928501e-09
-8.239803e-10
-1.104521e-09
-2.143545e-09
-1.54568e-10
2.298113e-09
-1.033129e-09
-4.608135e-10
1.493943e-09
1.525969e-09
-1.757305e-10
-4.457551e-10
1.607173e-09
-1.161418e-09
7.397026e-10
9.655228e-10
-1.705225e-09
1.189634e-09
-1.685511e-09
4.958769e-10
1.127503e-09
4.271701e-10
-1.554673e-09
-1.404661e-09
8.880041e-10
5.166567e-10
1.148774e-09
1.443064e-09
-5.037945e-11
-1.715675e-09
6.743902e-10
1.041285e-09
6.837465e-10
-2.080192e-09
1.396446e-09
5.683746e-10
-1.583549e-09
5.333415e-10
8.496924e-10
3.231578e-10
-1.762307e-09
6.552448e-10
-2.843017e-09
2.187772e-09
-1.439407e-09
-1.136434e-09
-4.387356e-10
1.575169e-09
-1.028091e-10
1.445288e-09
2.003129e-10
1.409786e-09
-1.610098e-09
-1.304987e-09
-4.584238e-10
1.763411e-09
-4.257789e-11
1.285078e-09
-1.2425e-09
1.293702e-09
-8.59115e-10
-4.345871e-10
1.853487e-09
-1.765613e-09
-8.787451e-11
3.637073e-09
2.319888e-10
-3.869061e-09
-1.66772e-09
-3.288266e-10
-3.240425e-09
2.501312e-09
7.391132e-10
-1.645452e-09
2.470164e-10
1.398435e-09
1.344483e-09
-1.790238e-09
-1.253324e-09
1.14854e-10
-1.585829e-09
1.470975e-09
1.494803e-09
-1.630088e-09
1.352847e-10
1.492417e-09
-3.947006e-10
-1.097716e-09
1.344955e-09
-1.422715e-09
7.77606e-11
-1.258345e-09
-3.952802e-10
2.708283e-10
-1.35951e-09
1.088682e-09
5.748831e-10
-1.715487e-09
1.140604e-09
-2.363717e-10
1.521538e-09
-1.285167e-09
-7.653849e-11
1.282592e-09
1.482018e-09
-4.855451e-10
-1.041242e-09
1.201391e-09
-1.601487e-10
-1.311395e-09
1.002274e-09
3.091211e-10
-1.571436e-09
5.597694e-10
1.011666e-09
-9.949476e-10
1.20154e-09
-2.065925e-10
-1.094566e-09
-8.717903e-11
1.535825e-09
-4.770337e-10
-1.085952e-09
1.669703e-09
1.59182e-09
-4.115399e-10
-1.18028e-09
-9.3534e-10
-7.666947e-10
-2.910532e-10
1.203531e-09
-9.12478e-10
-1.025883e-09
-8.886501e-10
1.914533e-09
-1.214377e-09
1.010349e-09
2.040271e-10
-2.059604e-10
1.196428e-09
-1.577639e-09
8.201153e-10
7.575238e-10
1.61374e-09
-1.396991e-09
-2.16749e-10
3.914983e-10
1.043633e-09
-1.435131e-09
5.635639e-10
-1.970018e-09
1.406454e-09
-4.474107e-09
6.260137e-09
-8.020274e-10
1.8966e-09
-1.094572e-09
-3.212787e-09
1.197511e-09
-2.218543e-09
1.104295e-09
1.114248e-09
-8.493173e-10
3.462365e-09
-2.613048e-09
5.248216e-10
8.204664e-10
-1.345288e-09
1.8261e-09
-7.656442e-10
1.742127e-09
-9.764826e-10
1.852114e-09
-1.277231e-09
-1.308286e-09
-2.90132e-10
1.598418e-09
-1.587417e-09
2.080897e-09
-4.934794e-10
5.245687e-09
-4.082468e-10
-4.837441e-09
-1.835488e-09
1.30847e-11
1.991409e-09
-1.051211e-09
-1.95628e-09
1.204302e-09
-8.754646e-10
-7.324632e-10
1.607928e-09
1.958958e-09
-1.852139e-09
-1.068191e-10
1.522611e-09
-6.379713e-10
-8.846401e-10
1.851501e-10
1.210604e-09
1.481815e-09
1.058789e-10
-1.587693e-09
1.047224e-09
4.201147e-10
-1.467339e-09
-9.537219e-10
-8.875185e-10
4.643772e-10
-1.616795e-09
1.152418e-09
-5.23971e-10
1.722484e-09
-1.198513e-09
-2.003915e-09
-3.068618e-09
5.072533e-09
-1.646629e-09
8.0788e-10
8.38749e-10
-1.569664e-09
8.056192e-10
-6.488829e-10
1.736459e-09
-1.087576e-09
-6.25118e-10
3.696043e-09
-3.070925e-09
-1.51693e-09
-5.283731e-10
2.045303e-09
1.956192e-09
2.189484e-09
-7.168333e-10
-8.494763e-10
1.618652e-09
-6.762695e-10
1.799569e-09
-1.123299e-09
9.28148e-10
3.656602e-10
1.26997e-09
3.324008e-10
-1.60237e-09
1.306157e-09
3.992448e-10
-1.705401e-09
-1.334042e-09
1.588124e-09
1.562378e-09
5.050991e-10
-2.067477e-09
7.500487e-10
-1.785336e-09
1.035287e-09
-1.822341e-09
1.269901e-09
5.5244e-10
-1.168146e-09
-1.31991e-09
2.488057e-09
1.772563e-09
-2.435725e-09
6.631622e-10
4.703579e-10
-1.795613e-09
1.325255e-09
2.171759e-09
-8.325159e-10
-1.339244e-09
-5.573008e-10
-1.35958e-09
1.91688e-09
-4.1979e-10
-9.788317e-10
-8.604514e-10
-7.566381e-10
-1.006908e-09
-1.009967e-10
1.107905e-09
-9.407214e-10
1.411079e-09
-1.150108e-09
-8.033928e-10
1.953501e-09
1.237292e-09
-4.75955e-10
-1.130445e-09
1.6064e-09
1.745645e-09
-3.112317e-10
-5.426835e-11
-9.788608e-10
-3.102623e-10
-1.277155e-09
2.12115e-10
-1.762194e-09
1.550079e-09
-1.05661e-09
-7.17288e-10
1.773898e-09
8.083543e-09
-8.083543e-09
-1.896405e-10
1.405934e-09
-1.216293e-09
-7.118432e-10
1.401925e-09
-6.900814e-10
3.327002e-10
-1.798321e-09
1.46562e-09
-1.048569e-09
-8.651127e-10
1.600986e-09
-5.589896e-10
-1.041997e-09
-1.203297e-09
-2.179422e-10
1.421239e-09
4.321455e-10
1.701575e-09
-1.297167e-09
-4.044075e-10
-1.031794e-09
1.588218e-09
-1.584036e-09
4.311776e-10
1.152858e-09
1.150467e-09
7.263228e-10
-1.87679e-09
-1.042131e-09
1.549429e-09
-5.072979e-10
-1.063832e-09
2.179514e-09
1.880462e-09
-1.434031e-09
-1.436733e-09
1.44832e-09
-3.596928e-10
-7.850774e-10
1.14477e-09
-7.175863e-09
1.766286e-09
5.409577e-09
9.794169e-10
5.566263e-10
-1.536043e-09
8.72306e-10
-1.256039e-09
3.837327e-10
-1.836356e-09
1.005747e-09
8.306094e-10
7.611176e-10
-1.386149e-09
6.25031e-10
-1.526447e-09
6.120552e-10
9.143923e-10
2.289674e-11
1.535324e-09
-1.558221e-09
-1.092051e-09
2.18367e-09
-1.091619e-09
4.648651e-10
9.668221e-10
2.345244e-11
-9.902746e-10
-3.704047e-10
1.311614e-09
-9.412093e-10
-9.432602e-10
1.35667e-09
-8.984296e-10
2.047118e-09
-1.148688e-09
8.113402e-09
-6.462198e-09
-1.651204e-09
-1.154466e-09
-9.793024e-10
-4.495338e-10
-1.622696e-09
2.07223e-09
-7.577297e-10
-8.691575e-10
-1.36945e-09
9.200675e-11
1.277444e-09
1.845159e-09
-1.251763e-09
-5.933959e-10
1.340564e-09
-1.410779e-09
7.02155e-11
1.495731e-09
-1.324418e-09
1.749456e-09
-4.250379e-10
7.931375e-10
-1.546379e-09
2.963659e-10
1.250014e-09
-1.742594e-09
9.848711e-10
7.577225e-10
1.395063e-09
-5.198872e-09
4.964491e-09
2.343813e-10
-1.439669e-09
1.822885e-09
-1.509445e-09
-3.134404e-10
6.960214e-10
1.051663e-09
-1.747685e-09
1.401847e-09
-1.500838e-09
9.899122e-11
-1.645371e-09
8.091925e-10
8.36178e-10
1.491987e-09
-3.324035e-10
-1.159584e-09
-1.717942e-10
-1.115006e-09
1.286801e-09
-3.100144e-09
6.961353e-09
-3.861208e-09
2.247522e-09
2.145577e-09
-4.393098e-09
-2.047374e-09
8.792274e-10
1.013877e-09
9.674266e-10
-1.981303e-09
-1.530374e-09
1.179164e-09
-1.83082e-09
5.457256e-10
1.285094e-09
1.793429e-09
-7.324144e-10
-1.061014e-09
-1.036967e-09
1.078913e-09
-4.19459e-11
-1.687487e-09
2.476493e-10
-1.076772e-09
1.378303e-09
-3.015309e-10
1.779906e-09
-7.45181e-10
1.45742e-09
2.882249e-10
-1.642455e-09
-3.634504e-10
2.005906e-09
6.614933e-10
-1.611312e-09
9.498187e-10
1.046551e-09
9.447463e-10
-1.991297e-09
-1.675291e-09
3.446527e-11
1.640826e-09
7.639822e-10
-2.315496e-09
1.551514e-09
7.573464e-10
7.565944e-10
1.31839e-09
-3.818506e-10
-9.365393e-10
1.984488e-09
-1.616029e-10
-3.142054e-10
1.373623e-09
-1.059417e-09
-1.705065e-09
1.145759e-09
-1.824549e-09
3.970137e-10
1.353133e-09
-1.807272e-09
1.40498e-09
4.022919e-10
-1.831621e-09
1.89166e-10
1.414729e-09
2.400268e-10
-1.654756e-09
1.485121e-09
3.024731e-10
-1.787594e-09
-1.975166e-09
1.611716e-09
3.808038e-10
-1.990814e-09
1.610011e-09
-7.665772e-10
-7.598703e-10
-1.185351e-09
1.04206e-09
-1.099715e-09
-3.851588e-10
1.484874e-09
-1.401801e-09
1.798815e-09
-1.770542e-09
7.57854e-10
1.012688e-09
-1.002656e-09
1.402323e-09
-3.996666e-10
-1.108226e-09
-4.694457e-10
1.577672e-09
-1.181131e-10
1.579031e-09
-1.460917e-09
-1.304954e-09
1.263376e-09
4.847573e-10
-1.748133e-09
-1.583633e-09
1.612389e-09
-2.875517e-11
-5.191425e-10
2.622587e-09
-2.103445e-09
1.835803e-09
-6.890677e-10
-1.146735e-09
4.142902e-09
-4.306706e-09
-1.715536e-09
1.64634e-09
6.919551e-11
1.936639e-09
-9.799948e-10
-9.56644e-10
-1.18412e-09
1.004716e-09
1.930998e-10
1.358675e-09
-4.098741e-09
3.473623e-09
-1.669418e-09
1.365234e-09
3.041842e-10
1.391694e-09
-4.635464e-10
-1.055043e-09
-1.18671e-09
2.241753e-09
-1.15563e-09
1.847126e-09
-6.914964e-10
-2.708329e-09
6.249185e-10
2.08341e-09
1.302491e-09
-2.106177e-09
8.036859e-10
5.929082e-10
8.483142e-10
-1.441222e-09
-7.495146e-10
-4.236725e-10
1.173187e-09
3.792999e-10
1.181264e-09
-1.560564e-09
1.161109e-09
-1.555904e-09
3.947956e-10
-3.872517e-10
-1.274576e-09
1.921193e-09
-8.751375e-12
-1.912441e-09
-1.989537e-09
3.971539e-10
1.273847e-09
-1.671001e-09
1.523561e-09
-1.139046e-09
-1.264493e-09
-2.886731e-10
1.553166e-09
7.698924e-10
7.951227e-10
3.302784e-10
-1.607594e-09
1.277316e-09
-1.727678e-09
6.070935e-10
1.378575e-09
-1.511095e-09
1.325194e-10
1.797041e-09
-7.082315e-10
-1.088809e-09
-1.365395e-09
4.324677e-10
9.329269e-10
-1.776589e-09
9.690539e-10
8.075349e-10
1.332527e-09
-1.558581e-09
-1.510752e-09
9.195018e-10
5.912499e-10
-1.122831e-10
2.088733e-09
-1.97645e-09
-7.386122e-10
1.718029e-09
1.321998e-09
-5.658335e-10
9.08621e-10
-1.881002e-09
9.723813e-10
-6.46162e-10
-4.224247e-10
1.068587e-09
-1.448878e-09
9.673648e-10
4.81513e-10
-7.734853e-10
-1.031522e-09
1.890837e-09
-6.516084e-10
1.565204e-09
-9.135955e-10
1.309095e-09
1.857079e-10
1.212559e-09
6.395557e-10
-7.821211e-10
-9.132258e-10
-5.323544e-10
1.448175e-09
-9.158208e-10
-6.242226e-10
1.43164e-09
-8.074173e-10
9.373704e-10
-1.839704e-09
-1.77736e-11
1.087833e-09
-4.971054e-10
1.887402e-09
-1.390297e-09
-1.148204e-09
3.949521e-10
-8.853421e-10
1.482203e-09
-5.968609e-10
-9.907507e-10
1.748718e-09
-2.008245e-09
1.697013e-09
1.316268e-09
-1.787287e-09
4.71019e-10
1.445501e-09
-1.534601e-09
8.909926e-11
1.35945e-09
9.99944e-11
-7.353784e-10
-7.698424e-10
-1.356598e-09
5.67956e-10
4.102645e-10
1.081723e-09
-5.975741e-10
-1.410671e-09
1.570387e-09
-1.760027e-09
-1.179426e-09
1.276486e-09
-9.706027e-11
4.159672e-09
-3.482017e-09
-6.776553e-10
-1.668534e-09
1.287558e-09
3.809759e-10
1.300865e-09
-1.476927e-09
1.760617e-10
-1.290988e-09
-3.7843e-10
-1.445501e-09
3.372752e-10
1.84218e-09
-1.329207e-09
-5.129729e-10
3.636e-09
8.736245e-10
-4.509624e-09
1.043695e-09
1.243721e-10
5.788851e-10
-1.551201e-09
-4.843605e-10
1.073187e-09
-1.066862e-09
4.703935e-09
-1.275162e-09
-5.321098e-10
-2.195836e-09
3.237579e-10
1.872078e-09
-1.27056e-09
2.636518e-10
-1.274443e-09
1.371783e-09
1.430723e-09
8.578142e-10
-2.288537e-09
-2.785105e-10
3.621232e-10
2.017596e-09
-2.379719e-09
-7.483761e-10
-7.691758e-10
-2.647169e-09
3.416345e-09
-1.255217e-09
1.011732e-09
2.434849e-10
-1.892045e-09
6.388805e-10
1.253165e-09
2.202596e-10
-1.849621e-09
6.030779e-10
5.129412e-10
1.292584e-09
-1.805525e-09
1.428546e-09
-1.062461e-09
-8.623762e-10
-9.599646e-10
-5.777785e-10
1.009545e-09
-4.317667e-10
1.983865e-09
-1.158163e-09
-1.055687e-09
2.21385e-09
-1.582076e-09
-1.689712e-10
1.751047e-09
-1.339058e-09
3.749659e-10
9.640918e-10
1.957064e-09
-1.636985e-09
-3.200789e-10
1.26053e-09
6.103684e-10
1.709772e-09
-6.64263e-10
-1.045509e-09
1.030797e-09
-2.209007e-09
1.178211e-09
7.53375e-10
-5.876387e-10
-1.032231e-09
1.860235e-09
-1.286434e-09
-5.738009e-10
-1.631192e-10
1.393931e-09
-1.230811e-09
-5.700982e-09
8.350736e-09
-6.929858e-10
1.231473e-09
-5.384871e-10
-1.331097e-09
6.124671e-11
1.269851e-09
-1.160135e-09
1.442688e-09
1.7268e-09
-1.395536e-09
-3.31264e-10
-1.881912e-09
1.115335e-09
-1.991216e-09
9.211068e-10
-1.006568e-09
-1.013879e-09
1.929472e-09
-9.155932e-10
-1.073117e-09
2.010701e-09
-9.37584e-10
5.820241e-09
-4.688118e-09
2.551988e-09
5.54693e-10
-1.557349e-09
-6.737745e-10
-9.429283e-10
1.428666e-09
-1.290267e-09
-1.383991e-10
1.232795e-09
-3.715253e-10
-8.612696e-10
9.026774e-10
9.615071e-10
-6.39189e-11
1.601061e-09
-1.537142e-09
-8.488602e-10
1.0328e-09
-1.839399e-10
1.590896e-09
-1.301056e-09
-2.898405e-10
4.738039e-10
-1.436565e-09
-1.211092e-09
1.479321e-09
-2.682284e-10
1.100215e-09
-1.487785e-09
1.360383e-09
1.274024e-10
1.148154e-10
1.3637e-09
-1.478516e-09
1.260378e-09
-1.782237e-09
3.874232e-09
-2.385161e-10
-3.635716e-09
-2.358262e-09
-8.821638e-10
-1.447949e-09
-7.142918e-11
-8.234313e-10
-1.079818e-09
1.903249e-09
1.060505e-09
-1.426302e-09
3.657969e-10
-1.327429e-09
3.262651e-10
1.001164e-09
-1.997537e-10
-1.613896e-09
1.81365e-09
-1.751233e-09
1.644919e-09
9.370683e-10
1.071688e-09
8.01154e-10
1.146013e-09
3.834737e-11
1.59335e-09