/*--------------------------------*- C++ -*----------------------------------*\
| =========                 |                                                 |
| \\      /  F ield         | OpenFOAM: The Open Source CFD Toolbox           |
|  \\    /   O peration     | Version:  2406                                  |
|   \\  /    A nd           | Website:  www.openfoam.com                      |
|    \\/     M anipulation  |                                                 |
\*---------------------------------------------------------------------------*/
FoamFile
{
    version     2.0;
    format      ascii;
    arch        "LSB;label=32;scalar=64";
    class       surfaceScalarField;
    location    "2.2";
    object      phi;
}
// * * * * * * * * * * * * * * * * * * * * * * * * * * * * * * * * * * * * * //

dimensions      [0 3 -1 0 0 0 0];

oriented        oriented;

internalField   nonuniform List<scalar> 
23794
(
0.001318881
-0.004368846
0.003049965
-0.0009529829
0.002271864
-0.0002040121
-0.0007489709
-0.0002672617
6.324959e-05
-0.002771003
0.002503741
-0.003411936
0.0006409337
-0.0006326494
-0.002779287
0.001874546
-0.002507196
0.001018667
0.0008558787
-0.001646489
0.002665157
-0.003775161
0.002128672
-0.003648986
-0.0001261755
-0.00238737
-0.001261616
-0.001084442
-0.001302928
-0.000892913
-0.0001915293
-0.001721612
0.0008286987
-0.002559752
0.0008381399
-0.002032735
-0.0005270168
-7.029234e-05
-0.001962443
0.002030694
-0.002100986
0.003686404
-0.00165571
0.005309979
-0.001623575
0.007265231
-0.001955253
0.00959305
-0.002327818
0.01154313
-0.001950083
0.008641966
0.002901167
-0.0009291102
0.009571076
-0.006056573
0.005127462
-0.00255148
-0.003505092
0.0009301146
-0.003481595
0.003363251
-0.002433137
0.006440275
-0.003077024
0.009368665
-0.002928391
0.008009747
0.001358918
0.002861466
0.005148281
0.0004540072
0.002407459
-0.001774001
0.002228008
-0.006553625
0.004779624
-0.01052012
0.0039665
-0.01274141
0.002221284
-0.01392549
0.001184084
-0.01465242
0.0007269277
-0.01514439
0.0004919647
-0.01548266
0.0003382792
-0.01571033
0.0002276648
-0.01575766
4.733216e-05
-0.01572898
-2.867733e-05
-0.01566411
-6.487034e-05
-0.01555558
-0.0001085301
-0.01543405
-0.0001215314
-0.01525553
-0.0001785188
-0.01503853
-0.0002170075
-0.01476442
-0.0002741057
-0.01446851
-0.0002959076
-0.01415761
-0.0003109052
-0.01379361
-0.0003639988
-0.01341166
-0.0003819534
-0.01302375
-0.0003879094
-0.0125721
-0.0004516463
-0.01209917
-0.0004729268
-0.0116023
-0.0004968725
-0.01110069
-0.0005016109
-0.01057961
-0.0005210829
-0.01000939
-0.0005702158
-0.009448808
-0.0005605832
-0.008848312
-0.0006004962
-0.008230816
-0.0006174964
-0.007610139
-0.0006206767
-0.006982556
-0.0006275827
-0.006324056
-0.0006585005
-0.005665526
-0.0006585296
-0.005001123
-0.0006644032
-0.004325417
-0.0006757055
-0.00365451
-0.0006709077
-0.002999398
-0.0006551119
-0.002304758
-0.0006946394
-0.001616995
-0.0006877639
-0.0009182584
-0.0006987362
-0.0001416159
-0.0007766426
0.0006251546
-0.0007667705
0.001325504
-0.0007003497
0.002014874
-0.0006893695
0.00269852
-0.0006836459
0.003367063
-0.0006685431
0.004036173
-0.0006691104
0.00468657
-0.0006503962
0.005348267
-0.0006616975
0.005989621
-0.000641354
0.00659708
-0.0006074584
0.007207517
-0.0006104379
0.007804195
-0.0005966775
0.008377804
-0.0005736085
0.00894689
-0.0005690861
0.009500069
-0.0005531794
0.009999848
-0.0004997789
0.01049304
-0.0004931889
0.01096941
-0.0004763776
0.01140406
-0.0004346504
0.01183702
-0.0004329506
0.01221777
-0.000380752
0.01256916
-0.0003513945
0.01288026
-0.0003111015
0.01314725
-0.0002669876
0.0134056
-0.0002583508
0.01362431
-0.0002187052
0.01380079
-0.0001764859
0.01393133
-0.0001305376
0.01401596
-8.463141e-05
0.01405762
-4.165508e-05
0.01401062
4.699721e-05
0.01389235
0.0001182674
0.01363687
0.0002554782
0.01312185
0.0005150233
0.0122228
0.0008990475
0.01053605
0.001686752
0.007269573
0.003266478
0.002430911
0.004838661
-0.001737681
0.004168593
-0.003661514
0.001923832
-0.003686942
2.542848e-05
-0.001252595
-0.002434347
0.002680834
-0.003933429
0.003239911
-0.0005590774
-0.004047343
0.007287255
-0.01013234
0.006085001
-0.009706015
-0.0004263294
-0.00654981
-0.003156205
-0.003949286
-0.002600525
-0.002515269
-0.001434016
-0.001516744
-0.0009985252
0.0001636854
-0.00168043
0.002544391
-0.002380705
0.003770708
-0.001226317
0.002943819
0.000826889
0.001662619
0.0012812
8.345451e-05
0.001579164
-0.001271819
0.001355273
-0.001758751
0.0004869322
-0.00160618
-0.0001525709
-0.0008835667
-0.0007226136
-6.702054e-06
-0.0008768646
0.0006860014
-0.0006927035
0.001231177
-0.0005451754
0.001607902
-0.0003767251
0.001842026
-0.0002341239
0.002007521
-0.0001654952
0.002159525
-0.000152004
0.002399647
-0.0002401223
0.002785088
-0.000385441
0.003303258
-0.0005181694
0.003927139
-0.0006238811
0.004620156
-0.0006930172
0.005304548
-0.000684392
0.005897042
-0.0005924945
0.006260365
-0.0003633224
0.005996041
0.0002643235
0.001627195
0.006424486
-0.008977551
0.00560303
0.002007567
0.006688782
-0.0007781175
0.002036714
-0.00218579
0.001470922
-0.004464749
0.004782701
-0.004806019
0.0009822038
-0.001890553
-0.005694753
0.001831566
-0.006229315
0.001161799
0.001525646
-0.003231396
0.007058351
-0.005214135
0.00411141
-0.004286878
-0.001053432
-0.002893714
-0.002654779
-0.001218833
-0.002977808
-0.0008368866
-0.0005734759
-0.002537736
0.002529548
-0.004398002
0.002698407
-0.003384539
-0.00154048
-0.0004576074
-0.004889374
0.002102719
-0.004661312
0.00398315
-0.003536141
0.005820732
-0.003461157
0.008017915
-0.004152436
0.01066234
-0.004972241
0.01302862
-0.004316368
0.01209597
0.003833816
0.001491286
0.02017576
-0.007128183
0.01374693
-0.005312968
-0.005320307
-0.002960606
-0.005833958
-0.001695718
-0.003698024
0.0008040293
-0.00557677
0.004046074
-0.006170436
0.005869721
-0.0004647282
0.00292421
0.008093792
-0.005450182
0.01078185
-0.01426508
0.01104291
-0.01960782
0.01012236
-0.02195055
0.006309232
-0.02258053
0.002851263
-0.02274831
0.001351867
-0.02276955
0.0007481639
-0.02272506
0.0004474786
-0.02264136
0.0002545792
-0.02253404
0.0001203387
-0.02232269
-0.000164015
-0.02209568
-0.000255688
-0.02185098
-0.0003095668
-0.02156138
-0.0003981334
-0.02125964
-0.0004232742
-0.02089866
-0.0005394905
-0.0204998
-0.0006158717
-0.02003904
-0.0007348675
-0.01955527
-0.0007796705
-0.01906274
-0.0008034364
-0.01851287
-0.0009138726
-0.01794078
-0.0009540441
-0.01736718
-0.0009615077
-0.01672026
-0.001098563
-0.01605351
-0.001139677
-0.01535909
-0.001191299
-0.01465856
-0.001202139
-0.01394149
-0.00123815
-0.01316586
-0.001345844
-0.01240326
-0.001323188
-0.01159908
-0.001404676
-0.01077311
-0.001443464
-0.009946883
-0.001446906
-0.009117241
-0.001457224
-0.00824991
-0.001525832
-0.007381678
-0.001526761
-0.006509528
-0.001536553
-0.005625022
-0.001560211
-0.004748246
-0.001547684
-0.003888899
-0.001514459
-0.002987077
-0.001596461
-0.002089482
-0.001585359
-0.001176813
-0.001611405
-0.0001792443
-0.001774212
0.0008076692
-0.001753684
0.001721138
-0.001613818
0.002620316
-0.001588548
0.003510706
-0.001574035
0.00438603
-0.001543868
0.005263321
-0.001546401
0.006119281
-0.001506356
0.00698834
-0.001530756
0.007835245
-0.00148826
0.008641349
-0.001413562
0.009453017
-0.001422105
0.01025286
-0.001396521
0.01102415
-0.001344897
0.01179064
-0.001335581
0.01254387
-0.00130641
0.01323428
-0.001190183
0.01392107
-0.001179979
0.01458931
-0.001144621
0.01521103
-0.001056368
0.01583296
-0.001054879
0.01639399
-0.0009417831
0.01692931
-0.0008867109
0.01741989
-0.0008016905
0.01786232
-0.000709412
0.01830197
-0.0006979976
0.01870009
-0.0006168266
0.01905253
-0.0005289287
0.01935924
-0.000437245
0.01961743
-0.0003428206
0.01984486
-0.0002690932
0.02002027
-0.000128404
0.02020063
-6.209664e-05
0.02035359
0.0001025204
0.02040241
0.0004662014
0.0203482
0.0009532554
0.02005341
0.001981545
0.01861364
0.004706245
0.01428896
0.009163347
0.007834477
0.01062307
0.002765364
0.006992945
0.001529261
0.001261531
0.002262646
-0.003167732
0.003549745
-0.005220528
0.0004968874
0.00249378
-0.007686749
0.01547089
-0.01155683
0.009955078
-0.009530056
-0.0024531
-0.006146433
-0.006539828
-0.003439657
-0.0053073
-0.002111526
-0.002762147
-0.001221697
-0.001888354
0.0003988756
-0.003301003
0.00328574
-0.005267569
0.005344045
-0.003284623
0.00437891
0.001792024
0.002405949
0.003254162
0.0002805817
0.003704531
-0.00164898
0.003284835
-0.00234291
0.001180862
-0.002027918
-0.0004675627
-0.001052233
-0.001698298
6.626572e-05
-0.001995363
0.0009699277
-0.001596365
0.001720661
-0.001295909
0.002283487
-0.0009395508
0.002693083
-0.0006437199
0.003007578
-0.0004799906
0.003264901
-0.0004093269
0.003574801
-0.0005500221
0.004022447
-0.0008330875
0.004622287
-0.001118009
0.00536548
-0.001367074
0.006226016
-0.001553554
0.007124456
-0.001582831
0.007953028
-0.001421067
0.008629897
-0.001040191
0.009182432
-0.0002882113
0.001832076
0.01047132
-0.011181
0.006312716
0.006532519
0.01062758
0.0007128141
0.007856419
-0.003209739
0.005393475
-0.005596784
0.007169746
-0.005948894
0.001334313
-0.002931766
-0.008711881
0.001504561
-0.01066564
0.0006777147
0.002352492
-0.004607935
0.012344
-0.006249332
0.005752808
-0.004970253
-0.002332511
-0.003378897
-0.004246136
-0.001418241
-0.004938464
-0.0007617558
-0.001229962
-0.002712287
0.004480079
-0.005285978
0.005272097
-0.004291805
-0.002534653
-0.0009732261
-0.008207952
0.001652788
-0.007287326
0.003513932
-0.005397286
0.005380486
-0.005327711
0.007685999
-0.006457949
0.0106657
-0.007951939
0.01325048
-0.006901148
0.01314843
0.003935859
0.003808974
0.02951522
-0.006765138
0.02432104
-0.009524773
-0.002560672
-0.01041429
-0.004944444
-0.01053567
-0.003576646
-0.008407996
-0.00770444
-0.0044765
-0.01010193
-0.0005513957
-0.004389833
-0.004933508
0.0124759
-0.01713742
0.02298577
-0.02501714
0.01892263
-0.0266607
0.01176592
-0.0265691
0.006217631
-0.02652466
0.002806823
-0.02662126
0.00144847
-0.02669449
0.0008213926
-0.02672967
0.0004826554
-0.02671809
0.0002430007
-0.02667154
7.37849e-05
-0.0264647
-0.0003708549
-0.02621173
-0.0005086569
-0.02593393
-0.0005873615
-0.02560218
-0.0007298821
-0.025258
-0.0007674609
-0.02483982
-0.0009576704
-0.0243775
-0.001078189
-0.02383916
-0.001273205
-0.02327308
-0.001345756
-0.02269741
-0.001379099
-0.02204988
-0.001561402
-0.02137559
-0.001628343
-0.020701
-0.001636092
-0.01993533
-0.001864231
-0.01914594
-0.001929069
-0.01832282
-0.002014417
-0.01749192
-0.002033039
-0.01664101
-0.002089059
-0.0157173
-0.002269554
-0.01481066
-0.002229837
-0.01385134
-0.002363993
-0.01286579
-0.002429009
-0.01187901
-0.002433693
-0.01088754
-0.00244869
-0.009850045
-0.002563328
-0.00881112
-0.002565686
-0.007766543
-0.00258113
-0.006707644
-0.002619109
-0.005657146
-0.002598182
-0.004628088
-0.002543517
-0.003550933
-0.002673617
-0.002479175
-0.002657117
-0.001391054
-0.002699526
-0.0002109846
-0.002954281
0.0009593348
-0.002924003
0.002052671
-0.002707155
0.00313026
-0.002666137
0.004196671
-0.002640446
0.005244972
-0.002592169
0.006294544
-0.002595973
0.007317645
-0.002529457
0.008356058
-0.002569169
0.009366925
-0.002499127
0.01032869
-0.002375325
0.0112968
-0.002390219
0.0122496
-0.002349322
0.01316775
-0.00226305
0.0140804
-0.002248227
0.01497599
-0.002201995
0.01579528
-0.002009475
0.01661074
-0.001995442
0.0174032
-0.001937083
0.01813858
-0.001791747
0.018876
-0.001792293
0.01953816
-0.001603949
0.02017044
-0.001518993
0.02074815
-0.001379392
0.02126643
-0.0012277
0.02178312
-0.001214687
0.02224767
-0.001081376
0.02265908
-0.0009403313
0.02301453
-0.0007927031
0.02331311
-0.0006414022
0.02357081
-0.0005267926
0.02374855
-0.0003061394
0.02390603
-0.0002195816
0.02400418
4.374612e-06
0.0239705
0.0004998817
0.02387951
0.001044244
0.02387534
0.001985713
0.02415584
0.004425752
0.02352377
0.009795412
0.02050981
0.01363703
0.01677349
0.01072927
0.01426966
0.003765364
0.01124622
-0.0001442963
0.00675956
-0.0007338678
-0.0005813302
0.009834671
-0.007603444
0.022493
-0.01038559
0.01273723
-0.008401256
-0.004437436
-0.004346515
-0.01059457
-0.001361202
-0.008292614
-0.0003291157
-0.003794233
0.0001221408
-0.00233961
0.001098744
-0.004277606
0.003627864
-0.00779669
0.005553305
-0.005210064
0.004344949
0.00300038
0.00249712
0.00510199
0.0007911683
0.005410483
-0.001364321
0.005440324
-0.002622758
0.002439299
-0.002402424
-0.0006878966
-0.001247298
-0.002853425
4.043916e-05
-0.0032831
0.001108965
-0.002664891
0.001989442
-0.002176386
0.002653576
-0.001603685
0.003144902
-0.001135046
0.003528366
-0.000863455
0.00384099
-0.0007219503
0.004209982
-0.0009190143
0.004730819
-0.001353925
0.00542106
-0.00180825
0.006276082
-0.002222097
0.007273476
-0.002550947
0.008324561
-0.002633917
0.009318848
-0.002415354
0.01013172
-0.001853062
0.01068981
-0.0008463022
0.001340885
0.0131997
-0.01288012
0.00599313
0.0108653
0.01296198
0.00368041
0.01504131
-0.002900812
0.0119747
-0.006194366
0.0104633
-0.006806048
0.001945996
-0.003986787
-0.01153114
-9.686208e-05
-0.01455557
-0.001263215
0.003518846
-0.006282662
0.01736345
-0.007272646
0.006742791
-0.005838035
-0.003767122
-0.003922687
-0.006161484
-0.001655759
-0.007205392
-0.0007336225
-0.002152098
-0.002551442
0.006297898
-0.005731269
0.008451925
-0.005193245
-0.003072678
-0.001824055
-0.01157714
0.0005790553
-0.009690436
0.002214082
-0.007032313
0.003991799
-0.007105427
0.006554252
-0.009020403
0.01027298
-0.01167067
0.01365382
-0.01028199
0.01338055
0.004209133
0.004678437
0.03821733
-0.00740591
0.03640539
-0.01530744
0.005340857
-0.01954713
-0.0007047511
-0.02102626
-0.00209752
-0.02002511
-0.008705584
-0.01724318
-0.01288387
-0.01626656
-0.005366451
-0.02149602
0.01770536
-0.02935564
0.03084539
-0.03204823
0.02161522
-0.03155805
0.01127574
-0.03159825
0.006257827
-0.03196419
0.003172771
-0.03223132
0.001715593
-0.03237289
0.0009629622
-0.03242247
0.0005322372
-0.03239235
0.0002128862
-0.03231334
-5.229045e-06
-0.0320326
-0.0006515917
-0.03170383
-0.0008374312
-0.0313453
-0.0009458901
-0.03092224
-0.00115294
-0.03048832
-0.001201384
-0.02996791
-0.001478077
-0.02939616
-0.001649939
-0.02873425
-0.001935114
-0.02803962
-0.00204039
-0.02733515
-0.002083572
-0.02654668
-0.002349865
-0.02572628
-0.002448752
-0.02490608
-0.002456287
-0.0239805
-0.002789815
-0.02302441
-0.002885155
-0.022029
-0.003009833
-0.02102559
-0.003036443
-0.0199994
-0.003115245
-0.01888448
-0.003384482
-0.01779239
-0.003321922
-0.01663589
-0.003520494
-0.0154494
-0.003615499
-0.01426018
-0.003622916
-0.01306596
-0.003642904
-0.01181659
-0.003812707
-0.01056532
-0.003816947
-0.009306681
-0.003839774
-0.0080324
-0.003893391
-0.006766008
-0.003864573
-0.005528203
-0.003781322
-0.004233872
-0.003967948
-0.00294808
-0.003942909
-0.001648747
-0.003998858
-0.0002524979
-0.00435053
0.001137056
-0.004313557
0.002450852
-0.00402095
0.003749088
-0.003964374
0.005030944
-0.003922302
0.006289565
-0.003850791
0.007548859
-0.003855267
0.008775926
-0.003756524
0.0100233
-0.00381654
0.01123503
-0.003710862
0.01239033
-0.003530625
0.01355435
-0.003554234
0.01469818
-0.003493151
0.01580349
-0.003368362
0.01690378
-0.003348518
0.01798095
-0.003279165
0.01897005
-0.002998572
0.0199555
-0.002980889
0.02091228
-0.002893863
0.02180268
-0.002682148
0.0226963
-0.002685917
0.02350035
-0.002408004
0.02426872
-0.002287363
0.02497273
-0.002083394
0.02560878
-0.001863754
0.02624269
-0.001848599
0.02681459
-0.001653271
0.0273256
-0.001451349
0.02776886
-0.001235961
0.02814886
-0.001021397
0.02848041
-0.0008583507
0.02871892
-0.0005446502
0.028936
-0.0004366571
0.02907354
-0.0001331669
0.02902565
0.0005477769
0.02883276
0.001237127
0.02852998
0.002288497
0.02850881
0.004446923
0.02917494
0.009129281
0.02945267
0.0133593
0.02842728
0.01175466
0.02650036
0.005692285
0.02256321
0.003792852
0.01364495
0.008184387
0.001525133
0.02195449
-0.005272936
0.02929107
-0.007674185
0.01513848
-0.005796364
-0.006315257
-0.001452994
-0.01493794
0.002149429
-0.01189504
0.00332072
-0.004965525
0.002901023
-0.001919913
0.002853168
-0.004229751
0.004199997
-0.009143519
0.005209473
-0.00621954
0.00372922
0.004480633
0.002297042
0.006534168
0.001069624
0.006637901
-0.001211087
0.007721036
-0.003011862
0.004240073
-0.002899104
-0.0008006546
-0.001505859
-0.004246669
-2.75886e-05
-0.004761371
0.001226468
-0.003918948
0.002250282
-0.003200199
0.003026517
-0.00237992
0.003607572
-0.001716102
0.00407064
-0.001326523
0.004446749
-0.001098059
0.004871375
-0.00134364
0.005441277
-0.001923827
0.006193284
-0.002560257
0.00715104
-0.003179852
0.008299915
-0.003699822
0.009535977
-0.003869978
0.01071876
-0.003598135
0.01171376
-0.00284806
0.01240104
-0.001533589
0.0008618101
0.01528023
-0.01469751
0.005410412
0.01451227
0.01372994
0.007815075
0.02173851
-0.001207919
0.02099769
-0.005914566
0.01516995
-0.006986444
0.003017874
-0.005074557
-0.01344303
-0.003192477
-0.01643765
-0.005118871
0.005445239
-0.008084067
0.02032864
-0.008241214
0.006899938
-0.006823619
-0.005184717
-0.004501733
-0.008483369
-0.001872839
-0.009834287
-0.000721121
-0.003303816
-0.002099728
0.007676505
-0.005811223
0.01216342
-0.006083143
-0.002800759
-0.00307551
-0.01458478
-0.001170168
-0.01159578
-6.022547e-05
-0.008142256
0.001764228
-0.00892988
0.004929318
-0.01218549
0.00947805
-0.0162194
0.0133075
-0.01411144
0.01223195
0.005284687
0.003670886
0.0467784
-0.009889217
0.04996549
-0.02241628
0.01786792
-0.02919049
0.006069465
-0.0320844
0.0007963828
-0.03333035
-0.007459629
-0.03415031
-0.01206391
-0.03586621
-0.003650552
-0.0379985
0.01983766
-0.03861995
0.03146684
-0.03751699
0.02051225
-0.03713443
0.01089318
-0.03756312
0.006686519
-0.03799372
0.003603368
-0.0382995
0.002021368
-0.03848052
0.001143986
-0.03858141
0.0006331307
-0.03856699
0.0001984644
-0.03851061
-6.160653e-05
-0.03819904
-0.0009631643
-0.03783196
-0.001204516
-0.03742824
-0.00134961
-0.03693376
-0.00164742
-0.03644248
-0.001692662
-0.03583059
-0.002089965
-0.03516368
-0.002316848
-0.03438073
-0.002718065
-0.03355928
-0.002861838
-0.03272959
-0.002913261
-0.03179091
-0.003288552
-0.03081445
-0.003425209
-0.02984205
-0.00342869
-0.02873931
-0.003892556
-0.02759662
-0.004027839
-0.02640752
-0.004198935
-0.02521118
-0.00423278
-0.02398706
-0.004339366
-0.02264959
-0.004721957
-0.02134652
-0.004624987
-0.01995944
-0.00490757
-0.01853911
-0.005035835
-0.01711249
-0.005049533
-0.01568117
-0.005074226
-0.01417934
-0.005314537
-0.01267477
-0.005321512
-0.01115809
-0.005356456
-0.009625284
-0.005426198
-0.008098007
-0.00539185
-0.006608381
-0.005270949
-0.005049162
-0.005527167
-0.003503335
-0.005488736
-0.001952201
-0.005549992
-0.000303456
-0.005999276
0.001345025
-0.005962038
0.002926527
-0.005602452
0.004491541
-0.005529388
0.00602954
-0.0054603
0.007538071
-0.005359322
0.009048557
-0.005365752
0.01051879
-0.005226761
0.01201705
-0.005314792
0.01346588
-0.005159693
0.01485301
-0.004917758
0.01625295
-0.004954179
0.01762029
-0.004860489
0.01894628
-0.00469435
0.02027111
-0.004673348
0.02155905
-0.004567103
0.02274351
-0.004183037
0.02392577
-0.004163145
0.0250698
-0.004037898
0.02613096
-0.003743304
0.02720187
-0.003756827
0.02815945
-0.003365582
0.02907403
-0.003201946
0.02991028
-0.002919646
0.03066163
-0.0026151
0.03141367
-0.00260064
0.03208409
-0.002323685
0.03268613
-0.002053397
0.03320045
-0.00175028
0.03363799
-0.001458933
0.03402252
-0.001242878
0.03427743
-0.0007995605
0.03451543
-0.0006746632
0.03464972
-0.000267452
0.03456107
0.0006364265
0.03433438
0.001463814
0.03400945
0.002613427
0.03372935
0.004727025
0.03410694
0.008751692
0.03508604
0.0123802
0.03528853
0.01155217
0.03408269
0.006898126
0.03124959
0.006625952
0.02230592
0.01712806
0.008522079
0.03573833
-0.0006891386
0.03850229
-0.002311097
0.01676043
-2.408301e-05
-0.008602271
0.003689255
-0.01865128
0.007242226
-0.01544801
0.008324104
-0.006047403
0.00734977
-0.0009455789
0.005976252
-0.002856233
0.005379068
-0.008546334
0.004858118
-0.005698591
0.003057485
0.006281267
0.00194183
0.007649823
0.0008593777
0.007720354
-0.001552993
0.01013341
-0.003612333
0.006299413
-0.003444413
-0.0009685746
-0.001748754
-0.005942328
-7.151445e-05
-0.00643861
0.001338973
-0.005329435
0.002509638
-0.004370864
0.003405441
-0.003275722
0.004083599
-0.00239426
0.004619568
-0.001862492
0.005009362
-0.001487853
0.005408277
-0.001742556
0.005959842
-0.002475391
0.006767336
-0.003367752
0.007884332
-0.004296848
0.009269822
-0.005085312
0.0107715
-0.005371659
0.01220403
-0.005030659
0.01339163
-0.00403566
0.01425388
-0.002395846
0.0004181779
0.01733921
-0.01694066
0.005011869
0.01762941
0.01343973
0.01288086
0.02648706
0.002637689
0.03124087
-0.004099925
0.02190756
-0.005810942
0.004728891
-0.005832339
-0.01342163
-0.006710024
-0.01555996
-0.00874252
0.007477735
-0.009643315
0.02122944
-0.009157783
0.006414406
-0.007883537
-0.006458963
-0.00510694
-0.01125997
-0.002013589
-0.01292764
-0.0006927086
-0.004624697
-0.001475111
0.008458908
-0.00557212
0.01626043
-0.006984734
-0.001388145
-0.004924473
-0.01664504
-0.003982809
-0.01253744
-0.003416122
-0.008708943
-0.001463214
-0.01088279
0.002492529
-0.01614124
0.007302267
-0.02102914
0.01079525
-0.01760443
0.008852872
0.007227068
0.0008570136
0.05477425
-0.01445358
0.06527609
-0.02945004
0.03286437
-0.03677977
0.0133992
-0.04036669
0.004383298
-0.04324054
-0.004585776
-0.04655593
-0.008748528
-0.04970409
-0.000502389
-0.04933074
0.01946431
-0.04611457
0.02825067
-0.04453002
0.0189277
-0.0449095
0.01127266
-0.04543249
0.007209513
-0.04593275
0.004103628
-0.04626768
0.002356298
-0.04644904
0.00132534
-0.04653498
0.000719077
-0.04646168
0.0001251621
-0.04636681
-0.0001564719
-0.0459702
-0.001359778
-0.04551623
-0.001658482
-0.04501117
-0.001854678
-0.04438828
-0.002270306
-0.04379805
-0.002282893
-0.04304671
-0.002841301
-0.04224066
-0.003122906
-0.04129017
-0.003668548
-0.04029356
-0.003858448
-0.03929582
-0.003911004
-0.03816021
-0.004424167
-0.03698293
-0.00460248
-0.03581834
-0.004593282
-0.03449261
-0.005218286
-0.03311413
-0.005406321
-0.03168663
-0.00562644
-0.03025089
-0.005668513
-0.02878587
-0.00580439
-0.0271739
-0.006333928
-0.02561921
-0.00617968
-0.02395174
-0.006575037
-0.02224925
-0.006738328
-0.02053913
-0.006759649
-0.0188257
-0.006787652
-0.01702383
-0.00711641
-0.01522054
-0.007124805
-0.01339245
-0.007184546
-0.01154899
-0.007269651
-0.009700402
-0.007240441
-0.007908948
-0.007062403
-0.00602925
-0.007406865
-0.004163285
-0.007354702
-0.002310866
-0.00740241
-0.0003637993
-0.007946343
0.001591645
-0.007917483
0.003502923
-0.00751373
0.005381519
-0.007407984
0.007224175
-0.007302957
0.009032767
-0.007167914
0.01084377
-0.007176753
0.01260492
-0.006987915
0.0144086
-0.007118474
0.01614108
-0.006892172
0.01781077
-0.006587445
0.01950145
-0.006644858
0.02113672
-0.006495764
0.02272794
-0.00628557
0.02433322
-0.006278627
0.02587585
-0.006109736
0.02729447
-0.005601649
0.02871794
-0.005586617
0.03009277
-0.005412728
0.03136268
-0.005013219
0.03265376
-0.005047901
0.03380572
-0.004517545
0.03490662
-0.004302848
0.03591179
-0.003924808
0.03681966
-0.003522975
0.03773388
-0.003514858
0.03854038
-0.003130188
0.03927838
-0.002791399
0.03990231
-0.002374208
0.04044211
-0.001998734
0.04091665
-0.001717417
0.04124481
-0.001127722
0.04154715
-0.000976996
0.04175447
-0.0004747769
0.04169734
0.0006935567
0.04145253
0.001708626
0.04110867
0.002957283
0.04076533
0.00507037
0.04075118
0.008765836
0.041202
0.01192938
0.04112237
0.0116318
0.03967066
0.008349839
0.03780792
0.008488687
0.03198101
0.02295497
0.01974058
0.04797876
0.009612413
0.04863046
0.005624835
0.02074801
0.007844355
-0.01082179
0.01171594
-0.02252286
0.01455436
-0.01828642
0.01517528
-0.006668328
0.01363983
0.0005898742
0.01077632
7.270847e-06
0.007683052
-0.005453062
0.005053657
-0.003069196
0.002553233
0.008781691
0.001403604
0.008799452
0.0001758579
0.0089481
-0.002429017
0.01273828
-0.004436973
0.008307368
-0.004002765
-0.001402782
-0.001969515
-0.007975578
-0.0001255166
-0.008282609
0.001417291
-0.006872243
0.002729263
-0.005682836
0.003692329
-0.004238789
0.004389403
-0.003091334
0.004909386
-0.002382475
0.005213238
-0.001791705
0.005548188
-0.002077505
0.006145006
-0.003072209
0.007156921
-0.004379666
0.008612248
-0.005752176
0.01039842
-0.006871483
0.01229903
-0.007272268
0.01407467
-0.006806299
0.01550494
-0.005465933
0.01648591
-0.003376812
-3.657826e-05
0.01997876
-0.02001802
0.005051128
0.02057934
0.01283915
0.01860317
0.02846323
0.009468884
0.04037515
0.0004141312
0.03096231
-0.002164521
0.007307543
-0.005015788
-0.01057036
-0.00875062
-0.01182513
-0.01087473
0.00960185
-0.01063599
0.02099069
-0.01000124
0.005779657
-0.008910869
-0.00754933
-0.005736031
-0.0144348
-0.002087899
-0.01657577
-0.0006869521
-0.006025644
-0.0009184667
0.008690423
-0.005218901
0.02056086
-0.008158352
0.001551306
-0.007782318
-0.01702107
-0.008134355
-0.0121854
-0.008023175
-0.008820123
-0.006042976
-0.01286299
-0.002111898
-0.02007231
0.00231715
-0.02545819
0.004385372
-0.01967265
0.001848799
0.009763642
-0.00669222
0.06331527
-0.02174956
0.08033343
-0.03667929
0.04779411
-0.04331154
0.02003144
-0.04713718
0.00820894
-0.05075989
-0.000963065
-0.05505234
-0.004456073
-0.05871069
0.003155962
-0.05788835
0.01864196
-0.05453551
0.02489783
-0.05355881
0.01795101
-0.05400239
0.01171624
-0.05440261
0.007609729
-0.05493552
0.004636537
-0.05530244
0.002723218
-0.05552059
0.001543495
-0.05568627
0.000884752
-0.05558458
2.347296e-05
-0.0555519
-0.0001891514
-0.05502854
-0.001883138
-0.05451055
-0.002176474
-0.05392491
-0.00244031
-0.05315945
-0.003035772
-0.05249086
-0.002951481
-0.05157682
-0.003755337
-0.0506301
-0.004069629
-0.04949177
-0.004806881
-0.04829065
-0.005059566
-0.04710819
-0.005093468
-0.04575243
-0.005779926
-0.04434038
-0.006014522
-0.04294361
-0.005990057
-0.04136535
-0.006796541
-0.03971555
-0.007056122
-0.03800728
-0.007334716
-0.03626868
-0.007407108
-0.03454148
-0.007531588
-0.03258985
-0.008285558
-0.03074231
-0.008027226
-0.0287311
-0.008586246
-0.02669572
-0.00877371
-0.02465334
-0.008802026
-0.02257457
-0.008866421
-0.02043415
-0.00925683
-0.01828396
-0.009275
-0.01608898
-0.009379525
-0.01389152
-0.009467108
-0.01162018
-0.009511777
-0.009485993
-0.009196595
-0.007215548
-0.00967731
-0.004950608
-0.009619641
-0.002737322
-0.009615696
-0.0004324728
-0.01025119
0.001889971
-0.01023993
0.00420481
-0.009828569
0.006434501
-0.009637675
0.008650545
-0.009519001
0.01082714
-0.009344504
0.01298968
-0.009339296
0.01509863
-0.009096866
0.01728819
-0.009308039
0.01936778
-0.008971753
0.02136741
-0.008587079
0.02339838
-0.008675828
0.02537535
-0.008472732
0.0272879
-0.00819812
0.02920416
-0.008194893
0.03105814
-0.007963713
0.03275197
-0.007295478
0.03445683
-0.007291473
0.03608517
-0.007041072
0.03762045
-0.006548504
0.03917051
-0.00659796
0.04054164
-0.005888675
0.04187255
-0.00563375
0.04306039
-0.005112653
0.04414727
-0.00460986
0.04524795
-0.00461553
0.0461947
-0.004076936
0.04708798
-0.003684687
0.04781428
-0.003100508
0.04846085
-0.002645297
0.04903639
-0.002292958
0.04940662
-0.001497956
0.04978229
-0.00135266
0.04998501
-0.000677502
0.04989806
0.000780504
0.04961536
0.001991332
0.04924901
0.003323626
0.04895034
0.005369046
0.04890695
0.008809227
0.04910823
0.01172809
0.04867707
0.01206297
0.04669237
0.01033454
0.04454837
0.01063269
0.04236218
0.02514117
0.03523935
0.05510159
0.02580308
0.05806673
0.01995157
0.02659952
0.02138508
-0.0122553
0.02339421
-0.024532
0.02448854
-0.01938074
0.02391577
-0.006095566
0.02168284
0.002822806
0.0174452
0.004244916
0.01167967
0.0003124653
0.006409285
0.002201187
0.002404462
0.01278651
0.0005755683
0.01062835
-0.0009492568
0.01047292
-0.00370912
0.01549814
-0.005432446
0.01003069
-0.004672642
-0.002162586
-0.002316997
-0.01033122
-0.00031418
-0.01028543
0.001365668
-0.008552091
0.002789289
-0.007106456
0.003631533
-0.005081033
0.00413939
-0.003599191
0.004552589
-0.002795674
0.004784315
-0.002023431
0.005234752
-0.002527943
0.006123201
-0.003960658
0.00758416
-0.005840625
0.009604351
-0.007772366
0.01198074
-0.00924787
0.01444283
-0.009734359
0.01669203
-0.009055495
0.01846925
-0.00724316
0.01960398
-0.004511543
-0.0004506133
0.02404175
-0.02447196
0.005481343
0.02404969
0.01283121
0.02462359
0.02788933
0.02005609
0.04494266
0.01175622
0.03926218
0.005223591
0.01384017
-0.001393662
-0.003953112
-0.008335554
-0.004883239
-0.01142815
0.01269445
-0.01103674
0.02059927
-0.01039852
0.005141434
-0.009624637
-0.008323208
-0.006328682
-0.01773076
-0.00213051
-0.02077394
-0.0007634267
-0.007392727
-0.0003780331
0.008305029
-0.004518155
0.02470098
-0.009899563
0.006932714
-0.01240909
-0.01451154
-0.01429427
-0.01030023
-0.01463158
-0.008482808
-0.01293063
-0.01456394
-0.009679642
-0.0233233
-0.00634078
-0.02879705
-0.005596665
-0.02041676
-0.008664416
0.01283139
-0.01932563
0.07397649
-0.03340983
0.09441763
-0.04563646
0.06002074
-0.05119446
0.02558944
-0.05566428
0.01267876
-0.05998517
0.003357828
-0.06439849
-4.275032e-05
-0.06816343
0.006920895
-0.06791392
0.01839245
-0.06541896
0.02240288
-0.06477206
0.0173041
-0.06511218
0.01205636
-0.0655141
0.008011651
-0.06611096
0.005233393
-0.06650874
0.003120997
-0.06666455
0.001699306
-0.06691979
0.001139992
-0.06667795
-0.000218366
-0.06660607
-0.0002610294
-0.06604916
-0.002440049
-0.06538766
-0.002837981
-0.06474773
-0.003080239
-0.06373488
-0.004048617
-0.06298128
-0.003705078
-0.06186819
-0.004868434
-0.06076124
-0.005176574
-0.05937339
-0.006194735
-0.05789931
-0.00653364
-0.0565055
-0.006487288
-0.0549114
-0.007374019
-0.05315024
-0.007775682
-0.05148309
-0.007657214
-0.04961836
-0.008661265
-0.04765947
-0.009015011
-0.04557102
-0.009423167
-0.04346578
-0.009512351
-0.04149475
-0.009502619
-0.03906618
-0.01071413
-0.03690466
-0.01018875
-0.03441771
-0.01107319
-0.03204223
-0.01114919
-0.02959216
-0.0112521
-0.02706372
-0.01139487
-0.02454635
-0.01177419
-0.02194593
-0.01187542
-0.01930856
-0.0120169
-0.0167272
-0.01204846
-0.01393703
-0.01230195
-0.01144069
-0.01169294
-0.008647038
-0.01247096
-0.005907556
-0.01235912
-0.003255076
-0.01226818
-0.0005058162
-0.01300045
0.002300125
-0.01304587
0.005008018
-0.01253646
0.00765237
-0.01228203
0.01034414
-0.01221077
0.01298009
-0.01198045
0.0155801
-0.01193931