/*--------------------------------*- C++ -*----------------------------------*\
| =========                 |                                                 |
| \\      /  F ield         | OpenFOAM: The Open Source CFD Toolbox           |
|  \\    /   O peration     | Version:  2406                                  |
|   \\  /    A nd           | Website:  www.openfoam.com                      |
|    \\/     M anipulation  |                                                 |
\*---------------------------------------------------------------------------*/
FoamFile
{
    version     2.0;
    format      ascii;
    arch        "LSB;label=32;scalar=64";
    class       surfaceScalarField;
    location    "1.24";
    object      phi;
}
// * * * * * * * * * * * * * * * * * * * * * * * * * * * * * * * * * * * * * //

dimensions      [0 3 -1 0 0 0 0];

oriented        oriented;

internalField   nonuniform List<scalar> 
23794
(
-0.007761197
0.003416025
0.004345173
-0.009861749
0.002100552
-0.01019496
0.0003332099
-0.009906585
-0.0002883743
-0.009418893
-0.0004876918
-0.008807126
-0.0006117666
-0.008083272
-0.0007238537
-0.007212494
-0.0008707779
-0.006274805
-0.0009376895
-0.005349513
-0.000925292
-0.00441191
-0.0009376024
-0.00354539
-0.0008665203
-0.002747118
-0.0007982719
-0.001940295
-0.0008068231
-0.00115822
-0.0007820754
-0.0004662004
-0.0006920192
0.0001808786
-0.0006470789
0.0007493564
-0.0005684778
0.00142274
-0.0006733831
0.001943196
-0.0005204564
0.001438787
0.0005044093
0.0002177929
0.001220994
-0.0006601558
0.0008779487
-0.00179587
0.001135715
-0.003156393
0.001360523
-0.00339294
0.000236547
-0.00144749
-0.001945451
0.0006740596
-0.002121549
0.001932494
-0.001258435
0.003153828
-0.001221334
0.005451125
-0.002297297
0.00870381
-0.003252685
0.01015973
-0.001455923
0.005990425
0.004169307
-0.001220069
0.007210494
-0.002718232
0.001498163
0.0006569877
-0.003375219
0.00287204
-0.002215052
0.002784868
8.717248e-05
0.0004417388
0.002343129
-0.004402018
0.004843757
-0.008607293
0.004205275
-0.01099115
0.00238386
-0.0121856
0.001194451
-0.01285687
0.0006712698
-0.0131996
0.0003427304
-0.01337932
0.0001797161
-0.01345714
7.781934e-05
-0.01344456
-1.258003e-05
-0.01339588
-4.868096e-05
-0.01328656
-0.0001093173
-0.01313151
-0.0001550529
-0.01291652
-0.00021499
-0.01267399
-0.0002425294
-0.01240994
-0.0002640475
-0.01209145
-0.000318495
-0.01175042
-0.000341026
-0.01139783
-0.0003525938
-0.01098256
-0.0004152623
-0.01054289
-0.0004396704
-0.01007698
-0.0004659162
-0.009601681
-0.0004752969
-0.009104119
-0.0004975621
-0.008558969
-0.0005451499
-0.008018305
-0.0005406634
-0.007436902
-0.0005814033
-0.00683806
-0.000598842
-0.006229916
-0.0006081437
-0.005612069
-0.0006178469
-0.004965115
-0.0006469543
-0.00431412
-0.000650995
-0.003653172
-0.0006609478
-0.002976548
-0.0006766247
-0.002291686
-0.0006848612
-0.001628516
-0.0006631702
-0.0009138241
-0.0007146921
-0.0002357852
-0.0006780388
0.0004187916
-0.0006545768
0.001051299
-0.0006325069
0.001776123
-0.0007248245
0.002497781
-0.0007216582
0.003213198
-0.000715417
0.003915615
-0.0007024164
0.004601962
-0.0006863473
0.005288392
-0.0006864301
0.005952814
-0.0006644216
0.006628509
-0.0006756955
0.00728423
-0.0006557211
0.007904413
-0.0006201825
0.008528636
-0.0006242232
0.00914063
-0.0006119943
0.009730359
-0.0005897287
0.0103178
-0.0005874431
0.01089213
-0.0005743323
0.01141167
-0.0005195332
0.0119291
-0.0005174317
0.01243251
-0.0005034156
0.0128951
-0.0004625835
0.01336044
-0.0004653448
0.01377297
-0.0004125246
0.01415967
-0.0003867032
0.01450834
-0.0003486719
0.01481523
-0.0003068883
0.01512028
-0.0003050538
0.01538968
-0.0002693997
0.01562167
-0.000231986
0.01581302
-0.0001913518
0.01596472
-0.0001516965
0.01609019
-0.0001254702
0.01615492
-6.473373e-05
0.01620581
-5.089034e-05
0.01618973
1.608649e-05
0.01601207
0.000177654
0.01570654
0.0003055361
0.01528325
0.0004232911
0.01469204
0.0005912082
0.01377158
0.0009204538
0.01217953
0.001592052
0.009156246
0.003023285
0.004459407
0.004696839
0.0008395251
0.003619882
0.000420245
0.0004192801
-0.002502016
0.002922261
-0.009021075
0.006519059
-0.01012791
0.001106834
-0.006449056
-0.003678853
-0.003635062
-0.002813994
-0.002156648
-0.001478414
-0.0002651969
-0.001891451
0.003345476
-0.003610673
0.005739394
-0.002393918
-0.001295328
0.007034722
-0.008828463
0.007533135
-0.01078858
0.001960121
-0.009190846
-0.001597738
-0.007448897
-0.001741949
-0.005701589
-0.001747308
-0.003752453
-0.001949136
-0.001440135
-0.002312318
0.001485618
-0.002925753
0.003607628
-0.002122009
0.003967337
-0.0003597095
0.004259683
-0.0002923462
0.005513659
-0.001253975
0.007155166
-0.001641508
0.008522621
-0.001367455
0.008585587
-6.296562e-05
0.006453703
0.002131884
0.00303778
0.003415923
0.0007852508
0.002252529
0.0003323037
0.0004529471
0.0005715248
-0.0002392212
0.0009901739
-0.0004186491
0.001509549
-0.0005193752
0.001597864
-8.831479e-05
0.0003532931
0.001244571
0.003769318
-0.0140845
0.01137598
0.007053688
-0.01395649
0.001972541
-0.01341241
-0.0002108657
-0.01291577
-0.0007850141
-0.01219945
-0.001204007
-0.0113496
-0.001461626
-0.0103876
-0.001685848
-0.009266749
-0.00199163
-0.008073256
-0.002131182
-0.006902065
-0.002096483
-0.005733378
-0.002106289
-0.00464568
-0.001954219
-0.003632388
-0.001811563
-0.002614929
-0.001824282
-0.001622582
-0.001774422
-0.0007156471
-0.001598955
0.000154294
-0.00151702
0.0009614977
-0.001375681
0.001685042
-0.001396927
0.002012565
-0.0008479792
0.00124435
0.001272624
0.0001093169
0.002356027
-0.0004066382
0.001393904
-0.001854336
0.002583412
-0.004313011
0.003819198
-0.004848457
0.0007719932
-0.002297286
-0.004496622
-7.130935e-05
-0.004347526
0.001079763
-0.002409507
0.002219452
-0.002361023
0.004593184
-0.004671028
0.008217498
-0.006876999
0.01088186
-0.004120285
0.008809293
0.006241875
0.001316106
0.01470368
-0.002578646
0.005392915
-0.002153803
-0.003800062
-0.00276292
-0.001605936
-0.005318147
0.0026424
-0.01046663
0.007491616
-0.01585322
0.01023034
-0.01870737
0.007059429
-0.01942007
0.003096557
-0.01956623
0.001340613
-0.01956944
0.0006744819
-0.01943862
0.0002119098
-0.0192787
1.979691e-05
-0.01910954
-9.134289e-05
-0.01890648
-0.0002156377
-0.01868653
-0.0002686387
-0.0184017
-0.0003941443
-0.01807314
-0.0004836157
-0.01768044
-0.0006076918
-0.01725947
-0.0006634963
-0.01682224
-0.0007012727
-0.01632654
-0.0008141965
-0.0158042
-0.0008633692
-0.01527372
-0.000883073
-0.01467163
-0.001017352
-0.01404606
-0.001065236
-0.01339019
-0.001121792
-0.01272344
-0.001142041
-0.01203557
-0.001185438
-0.01129194
-0.001288774
-0.01055518
-0.001277424
-0.009775444
-0.001361142
-0.00897346
-0.001400826
-0.00816389
-0.001417714
-0.007346769
-0.001434968
-0.006494162
-0.001499561
-0.005636072
-0.001509085
-0.004768322
-0.001528698
-0.003883216
-0.00156173
-0.002991168
-0.00157691
-0.002120472
-0.001533867
-0.001197166
-0.001637998
-0.0003134662
-0.001561738
0.0005424587
-0.001510502
0.001375829
-0.001465877
0.002310667
-0.001659663
0.003247026
-0.001658018
0.004177087
-0.001645477
0.005091131
-0.001616461
0.005989382
-0.001584598
0.006889683
-0.001586731
0.007764715
-0.001539454
0.008653364
-0.001564345
0.009519695
-0.001522052
0.01034253
-0.001443016
0.01117282
-0.001454513
0.01199336
-0.001432537
0.0127857
-0.001382069
0.01357618
-0.00137792
0.01435583
-0.001353981
0.01507099
-0.001234697
0.01578804
-0.001234478
0.01648947
-0.001204853
0.01714536
-0.001118469
0.01780651
-0.001126497
0.01840557
-0.001011586
0.01898327
-0.0009643977
0.0195182
-0.000883602
0.02000722
-0.0007959072
0.02050125
-0.0007990877
0.02095725
-0.0007254012
0.02137206
-0.0006467942
0.02174534
-0.0005646354
0.0220776
-0.0004839487
0.02238427
-0.0004321412
0.02263044
-0.0003109102
0.02287434
-0.000294787
0.02309252
-0.0002020924
0.02322321
4.69588e-05
0.02331418
0.0002145668
0.02338047
0.000357008
0.02340834
0.0005633336
0.02332466
0.001004136
0.02301972
0.001896988
0.0218114
0.004231604
0.01833604
0.008172204
0.01225256
0.009703365
0.004420217
0.008251619
-0.003432385
0.01077486
-0.006890708
0.009977382
-0.004691312
-0.001092562
-0.001004082
-0.007366083
0.001400295
-0.005218371
0.00224708
-0.002325199
0.002835736
-0.002480107
0.005765354
-0.006540291
0.005791484
-0.002420048
-0.004987627
0.01781383
-0.01231558
0.01486108
-0.01260727
0.00225181
-0.01067131
-0.003533697
-0.008688819
-0.003724436
-0.006671592
-0.003764535
-0.004432353
-0.004188375
-0.001856855
-0.004887816
0.001611574
-0.006394183
0.005021553
-0.005531988
0.006668966
-0.002007122
0.007079578
-0.0007029585
0.007705892
-0.001880289
0.008914664
-0.00285028
0.01027844
-0.002731234
0.01150584
-0.001290364
0.01118523
0.002452499
0.008197928
0.006403222
0.004485605
0.005964851
0.002544272
0.002394281
0.002431834
-0.0001267831
0.002645219
-0.0006320345
0.002598503
-0.0004726591
0.0001883495
0.002321839
-0.005476811
0.006909731
0.009668488
-0.01681198
0.01687692
0.00698875
-0.01621993
0.001380498
-0.01594667
-0.0004841268
-0.01535015
-0.001381535
-0.01449792
-0.002056241
-0.01348858
-0.002470961
-0.01234003
-0.002834399
-0.01100017
-0.003331491
-0.009570857
-0.003560495
-0.008169114
-0.003498227
-0.006774023
-0.003501379
-0.005479665
-0.003248577
-0.004279544
-0.003011684
-0.003080902
-0.003022924
-0.001919549
-0.002935775
-0.0008596631
-0.00265884
0.0001519396
-0.002528623
0.001108318
-0.002332059
0.001703566
-0.001992176
0.001425306
-0.0005697192
0.0007730459
0.001924884
0.0004135302
0.002715543
8.82691e-05
0.001719165
-0.001267615
0.003939296
-0.004051392
0.006602975
-0.005297739
0.00201834
-0.003273208
-0.006521153
-0.001619861
-0.006000872
-0.00116518
-0.002864189
-0.000111844
-0.003414359
0.002461114
-0.007243986
0.006661641
-0.01107753
0.009277279
-0.006735922
0.008025599
0.007493554
0.002248628
0.02048065
-0.005438052
0.01307959
-0.01133289
0.002094772
-0.0153044
0.002365583
-0.01821074
0.005548739
-0.02139097
0.01067184
-0.02305847
0.01189784
-0.02306088
0.007061841
-0.02290392
0.002939588
-0.02299047
0.001427163
-0.02306075
0.0007447654
-0.02299378
0.0001449445
-0.02287288
-0.0001011071
-0.02271226
-0.0002519663
-0.02248454
-0.0004433497
-0.02223108
-0.0005221015
-0.02189983
-0.000725398
-0.02151705
-0.0008663973
-0.02105723
-0.001067505
-0.02056263
-0.001158104
-0.02005
-0.0012139
-0.01946493
-0.001399268
-0.01884808
-0.001480219
-0.01822291
-0.001508235
-0.01750947
-0.001730801
-0.01676819
-0.001806507
-0.01599035
-0.001899636
-0.01519928
-0.001933108
-0.01438294
-0.002001781
-0.01349729
-0.002174419
-0.01262122
-0.002153501
-0.01169135
-0.002291006
-0.01073505
-0.002357135
-0.009768905
-0.002383854
-0.008793292
-0.002410582
-0.007774798
-0.002518055
-0.006749495
-0.002534389
-0.005711709
-0.002566484
-0.004653567
-0.002619872
-0.003585916
-0.002644561
-0.002541018
-0.002578764
-0.001436969
-0.002742046
-0.000378831
-0.002619877
0.0006460926
-0.002535425
0.001651313
-0.002471097
0.00277109
-0.00277944
0.003894355
-0.002781283
0.005009958
-0.00276108
0.006104846
-0.002711349
0.007180176
-0.002659928
0.008256981
-0.002663536
0.009302033
-0.002584506
0.01036282
-0.002625137
0.01139511
-0.002554334
0.01237459
-0.002422496
0.01336267
-0.002442593
0.01433759
-0.002407462
0.01527804
-0.002322521
0.01621632
-0.002316197
0.01714078
-0.002278445
0.0179869
-0.002080811
0.01883594
-0.002083519
0.01966533
-0.002034246
0.02043858
-0.001891713
0.02122023
-0.001908148
0.02192469
-0.001716045
0.02260465
-0.001644359
0.02323206
-0.001511014
0.02380243
-0.001366281
0.02438039
-0.001377043
0.02491063
-0.001255645
0.02539236
-0.001128524
0.02582305
-0.0009953224
0.02620445
-0.0008653459
0.02655564
-0.0007833336
0.02683265
-0.0005879216
0.0271091
-0.000571237
0.02733125
-0.0004242402
0.02741152
-3.330953e-05
0.0274292
0.0001968817
0.02741686
0.0003693467
0.02737458
0.0006056192
0.02728291
0.001095805
0.02723558
0.00194432
0.02742611
0.004041073
0.02721214
0.008386171
0.02414931
0.01276619
0.01399045
0.01841048
0.0006669943
0.02409831
-0.001512884
0.01215726
0.003313518
-0.005918964
0.007455735
-0.0115083
0.009932307
-0.007694943
0.01014142
-0.002534311
0.008994236
-0.001332925
0.008645553
-0.006191608
0.004543945
0.001681561
-0.00701524
0.02937302
-0.01301001
0.02085586
-0.01337378
0.00261558
-0.01126497
-0.005642509
-0.009216205
-0.0057732
-0.007092109
-0.005888631
-0.004706264
-0.006574221
-0.001992541
-0.007601539
0.001727578
-0.0101143
0.005760707
-0.009565117
0.008051746
-0.004298162
0.008674142
-0.001325354
0.009200935
-0.002407083
0.01042827
-0.004077611
0.01183403
-0.004136996
0.01289423
-0.002350562
0.01309522
0.002251504
0.01106643
0.008432013
0.007317415
0.009713866
0.004407239
0.005304457
0.003432253
0.0008482023
0.00279075
9.468532e-06
-0.000537703
0.002855794
-0.00709646
0.008880596
-0.01360904
0.01342231
0.01293636
-0.01956472
0.02039723
0.006156232
-0.01933713
0.001152909
-0.01897585
-0.0008454091
-0.0182558
-0.00210158
-0.01725037
-0.003061676
-0.01604539
-0.003675934
-0.01467821
-0.004201578
-0.01307977
-0.004929937
-0.01136779
-0.005272475
-0.009685832
-0.005180183
-0.008002639
-0.005184573
-0.006437326
-0.004813889
-0.004993139
-0.004455871
-0.003559161
-0.004456902
-0.002186686
-0.00430825
-0.0009520818
-0.003893445
0.0002041302
-0.003684835
0.001282645
-0.003410574
0.001901023
-0.002610553
0.001368182
-3.687778e-05
0.00101179
0.002281276
0.001158551
0.002568782
0.0006749981
0.002202718
-0.0006438759
0.00525817
-0.003342487
0.009301587
-0.005434366
0.004110219
-0.004843267
-0.007112252
-0.004416044
-0.006428094
-0.004691539
-0.002588693
-0.0039731
-0.004132798
-0.001016209
-0.01020088
0.003310494
-0.01540423
0.006174406
-0.009599835
0.005122857
0.008545104
3.034624e-05
0.02557316
-0.01191331
0.02502325
-0.02185682
0.01203828
-0.02606651
0.006575275
-0.02775053
0.007232758
-0.02830598
0.0112273
-0.02768558
0.01127744
-0.02729339
0.006669651
-0.02754987
0.003196066
-0.02779976
0.001677055
-0.02792882
0.0008738191
-0.02783229
4.841535e-05
-0.02766238
-0.000271017
-0.02744404
-0.0004703051
-0.02714774
-0.0007396521
-0.02682318
-0.0008466606
-0.02640856
-0.001140014
-0.02593395
-0.001341008
-0.02536809
-0.001633368
-0.0247616
-0.001764593
-0.0241347
-0.001840796
-0.02342303
-0.002110938
-0.02267347
-0.002229783
-0.02191461
-0.002267098
-0.02105319
-0.002592221
-0.02015679
-0.002702902
-0.01921761
-0.002838821
-0.01826392
-0.002886795
-0.01728148
-0.002984222
-0.01621489
-0.003241005
-0.01516248
-0.00320591
-0.01404439
-0.003409102
-0.0128964
-0.003505118
-0.01173575
-0.003544508
-0.01056433
-0.003582005
-0.009341743
-0.003740638
-0.008111136
-0.003764996
-0.00686544
-0.003812179
-0.005597881
-0.003887431
-0.00431691
-0.003925532
-0.00306209
-0.003833584
-0.001734836
-0.004069299
-0.0004614242
-0.003893289
0.0007711808
-0.00376803
0.001987344
-0.00368726
0.003335207
-0.004127303
0.004685865
-0.00413194
0.006029687
-0.004104902
0.007346196
-0.004027858
0.008637098
-0.003950831
0.009927717
-0.003954155
0.01117871
-0.003835503
0.01245032
-0.003896741
0.01368485
-0.003788869
0.01485932
-0.003596965
0.0160455
-0.003628771
0.01721423
-0.003576191
0.01834546
-0.003453751
0.01947629
-0.003447023
0.02058767
-0.003389827
0.0216093
-0.003102447
0.02263535
-0.003109566
0.02363692
-0.003035816
0.02457384
-0.00282863
0.02552146
-0.002855773
0.02637778
-0.002572367
0.02720483
-0.002471409
0.02797018
-0.002276361
0.02867089
-0.002066988
0.02938043
-0.002086581
0.03003293
-0.001908154
0.03063041
-0.001726003
0.03116578
-0.001530689
0.03164561
-0.001345171
0.03209113
-0.001228856
0.03244929
-0.0009460853
0.0328077
-0.0009296435
0.03310561
-0.0007221519
0.03323351
-0.0001612058
0.03327341
0.0001569826
0.03326076
0.0003819923
0.0331892
0.0006771741
0.0329813
0.001303713
0.03265489
0.002270725
0.03241141
0.004284558
0.03265938
0.008138202
0.03260837
0.0128172
0.02662576
0.02439309
0.01556935
0.03515473
0.01053553
0.01719108
0.01379761
-0.009181042
0.01811163
-0.01582232
0.01999949
-0.009582809
0.01957069
-0.002105504
0.01682609
0.001411671
0.0125948
-0.001960323
0.003968615
0.01030775
-0.007571444
0.04091308
-0.01270122
0.02598564
-0.01376509
0.00367945
-0.01120851
-0.00819909
-0.009069485
-0.007912228
-0.006942661
-0.008015455
-0.004496188
-0.009020694
-0.001746112
-0.01035162
0.002009624
-0.01387004
0.006366437
-0.01392193
0.008956523
-0.006888248
0.00965879
-0.002027621
0.01033026
-0.003078552
0.01177956
-0.005526917
0.01332091
-0.005678343
0.01421948
-0.003249129
0.01420059
0.002270397
0.01225206
0.01038053
0.008587379
0.01337855
0.005083696
0.00880814
0.002980639
0.002951259
-0.001531498
0.004521606
-0.009516436
0.01084073
-0.0167449
0.01610906
-0.02030338
0.0169808
0.01303021
-0.02303236
0.02358766
0.005600933
-0.02289711
0.001017656
-0.02242987
-0.001312648
-0.02158031
-0.002951138
-0.02038903
-0.004252959
-0.01896329
-0.005101668
-0.01734624
-0.005818629
-0.01545412
-0.006822059
-0.01342504
-0.007301556
-0.01144098
-0.007164241
-0.009430919
-0.007194636
-0.007546944
-0.006697863
-0.005799018
-0.006203797
-0.004057997
-0.006197924
-0.002409111
-0.005957135
-0.000949371
-0.005353185
0.0004054513
-0.005039657
0.00163002
-0.004635143
0.002551658
-0.003532191
0.002316421
0.0001983596
0.002056551
0.002541146
0.002099299
0.002526033
0.001327377
0.002974641
-0.0002465939
0.006832141
-0.002730192
0.01178519
-0.005680467
0.007060494
-0.007242318
-0.005550401
-0.008554205
-0.005116207
-0.009745798
-0.001397101
-0.009433847
-0.004444748
-0.006787027
-0.0128477
-0.00248484
-0.01970642
-0.0002371355
-0.01184754
-0.000377655
0.008685623
-0.007960788
0.0331563
-0.02082357
0.03788604
-0.03011084
0.02132554
-0.03261304
0.009077475
-0.03343261
0.008052332
-0.03321798
0.01101267
-0.0324915
0.01055096
-0.03245552
0.006633675
-0.03283715
0.00357769
-0.03309744
0.001937352
-0.03326881
0.00104518
-0.03318829
-3.210313e-05
-0.03301234
-0.0004469592
-0.03277756
-0.0007050938
-0.03243207
-0.001085138
-0.03206932
-0.00120941
-0.03158223
-0.001627104
-0.03102922
-0.001894016
-0.03035932
-0.002303271
-0.02964152
-0.00248239
-0.02890251
-0.002579813
-0.02805424
-0.002959205
-0.02716093
-0.003123088
-0.02625995
-0.003168084
-0.02523246
-0.00361971
-0.02416008
-0.003775275
-0.02303712
-0.003961789
-0.02189893
-0.004024986
-0.02072577
-0.004157376
-0.01944579
-0.004520985
-0.01818984
-0.004461859
-0.01684917
-0.004749777
-0.01547631
-0.004877973
-0.01408634
-0.004934477
-0.01268583
-0.00498252
-0.01122066
-0.005205805
-0.009745579
-0.005240079
-0.008249715
-0.005308043
-0.006731645
-0.005405501
-0.005196406
-0.005460772
-0.003694962
-0.005335028
-0.002098641
-0.00566562
-0.000561968
-0.005429962
0.0009228691
-0.005252867
0.002393924
-0.005158316
0.00401964
-0.005753019
0.005644545
-0.005756845
0.007263874
-0.005724231
0.008841024
-0.005605008
0.01038159
-0.005491396
0.01192088
-0.00549345
0.01341171
-0.005326333
0.01493318
-0.005418209
0.01640427
-0.005259958
0.01781104
-0.005003736
0.01923474
-0.00505247
0.02062928
-0.00497073
0.02198492
-0.00480939
0.02334527
-0.004807373
0.02467233
-0.004716885
0.02589478
-0.004324901
0.02712495
-0.004339734
0.02832176
-0.004232625
0.02943771
-0.003944579
0.03057295
-0.003991014
0.03159206
-0.003591473
0.03257602
-0.00345537
0.03348446
-0.003184799
0.03431172
-0.002894255
0.0351531
-0.002927959
0.03591812
-0.002673176
0.0366225
-0.002430384
0.0372448
-0.002152987
0.03780052
-0.001900889
0.03831914
-0.001747478
0.03871739
-0.001344339
0.03912608
-0.001338327
0.03945446
-0.001050534
0.03957426
-0.0002810052
0.0395913
0.0001399461
0.03954332
0.0004299665
0.03942575
0.0007947449
0.03917595
0.001553514
0.03881218
0.0026345
0.03841405
0.004682687
0.03810913
0.008443121
0.03870538
0.01222094
0.03826635
0.02483212
0.03446413
0.03895696
0.03090309
0.02075212
0.03043252
-0.008710465
0.03143962
-0.01682943
0.03135913
-0.009502322
0.02986747
-0.0006138367
0.02586054
0.005418594
0.01800433
0.005895886
0.005105674
0.02320641
-0.007102467
0.05312122
-0.0122292
0.03111237
-0.01393863
0.005388883
-0.01063677
-0.01150095
-0.008200052
-0.01034895
-0.005995987
-0.01021952
-0.003479088
-0.01153759
-0.0007368269
-0.01309388
0.002644603
-0.01725147
0.006785531
-0.01806286
0.009254239
-0.009356956
0.009998828
-0.00277221
0.01108238
-0.004162104
0.01281229
-0.007256829
0.01435707
-0.007223123
0.01514218
-0.00403424
0.01489239
0.002520191
0.01247523
0.0127977
0.008452394
0.01740139
0.004203369
0.01305716
-0.001503585
0.008658213
-0.01118711
0.01420513
-0.02046157
0.02011519
-0.02463958
0.02028707
-0.02474765
0.01708887
0.01187022
-0.02729183
0.02761599
0.005276771
-0.0270413
0.0007671272
-0.026464
-0.001889947
-0.02547244
-0.003942697
-0.02404888
-0.005676516
-0.02234402
-0.006806526
-0.02041499
-0.007747658
-0.01815349
-0.009083567
-0.01573014
-0.009724902
-0.01340196
-0.009492418
-0.01104054
-0.009556057
-0.008815792
-0.008922614
-0.006729577
-0.008290012
-0.00460199
-0.008325511
-0.002584362
-0.007974763
-0.0008394318
-0.007098115
0.0007712135
-0.006650302
0.002126915
-0.005990844
0.003583634
-0.004988911
0.004182307
-0.0004003133
0.004026267
0.002697186
0.003564566
0.002987735
0.002252474
0.004286732
-7.800256e-05
0.009162618
-0.002613112
0.01432029
-0.006635455
0.01108284
-0.01086391
-0.001321942
-0.01430036
-0.001679756
-0.01665229
0.0009548219
-0.01707896
-0.004018077
-0.01535041
-0.01457625
-0.01163458
-0.02342224
-0.008485228
-0.01499689
-0.01115443
0.01135482
-0.02007806
0.04207993
-0.03111672
0.0489247
-0.03658422
0.02679305
-0.0379009
0.01039415
-0.03909608
0.009247512
-0.03929443
0.01121102
-0.03905143
0.01030796
-0.03924121
0.006823448
-0.03966077
0.003997251
-0.03992363
0.002200216
-0.04011148
0.001233033
-0.03994765
-0.000195932
-0.03971267
-0.0006819465
-0.03941383
-0.001003936
-0.03897636
-0.001522605
-0.03853785
-0.001647919
-0.03793999
-0.002224963
-0.03727097
-0.00256304
-0.03645735
-0.003116883
-0.03558642
-0.003353322
-0.03469751
-0.003468723
-0.03367107
-0.003985647
-0.03259394
-0.004200224
-0.03151477
-0.004247246
-0.03027894
-0.004855546
-0.02898502
-0.005069197
-0.02763644
-0.005310364
-0.02627011
-0.005391321
-0.02486505
-0.005562431
-0.02332198
-0.006064059
-0.02182274
-0.005961092
-0.02021032
-0.006362196
-0.01856438
-0.006523917
-0.01689785
-0.006601005
-0.01522362
-0.006656749
-0.01347128
-0.00695815
-0.01171035
-0.00700101
-0.009915574
-0.007102817
-0.008098509
-0.007222566
-0.006251033
-0.007308248
-0.004461478
-0.007124583
-0.00254665
-0.007580448
-0.0006853314
-0.007291281
0.001107421
-0.007045619
0.002888284
-0.006939179
0.004855405
-0.007720139
0.006814317
-0.007715757
0.008753009
-0.007662923
0.01062607
-0.007478066
0.01245515
-0.007320478
0.01428851
-0.007326807
0.0160683
-0.007106124
0.01789859
-0.0072485
0.019655
-0.007016372
0.02134866
-0.006697394
0.02306929
-0.006773096
0.0247375
-0.00663894
0.02636509
-0.006436985
0.02801546
-0.006457744
0.02960546
-0.006306884
0.03107169
-0.005791135
0.03255472
-0.005822758
0.03399467
-0.005672578
0.03533209
-0.005281998
0.03670232
-0.005361245
0.03792956
-0.004818707
0.03911527
-0.004641082
0.04020805
-0.004277579
0.0412087
-0.003894906
0.042232
-0.003951265
0.04315291
-0.003594084
0.04401589
-0.003293364
0.04477023
-0.002907326
0.0454538
-0.002584458
0.04609391
-0.002387586
0.04659296
-0.001843394
0.04710273
-0.001848093
0.04750764
-0.001455443
0.04769547
-0.0004688352
0.04774608
8.933849e-05
0.04773405
0.0004419958
0.04763997
0.0008888182
0.04736461
0.001828877
0.04695394
0.00304517
0.0464768
0.005159824
0.04589917
0.009020757
0.04558149
0.01253862
0.04759915
0.02281445
0.05032776
0.03622835
0.04948772
0.02159216
0.04607889
-0.005301628
0.0435996
-0.01435014
0.04134513
-0.007247853
0.03871422
0.002017074
0.03412614
0.01000668
0.02433699
0.01568503
0.008548267
0.03899513
-0.005067839
0.06673732
-0.0111007
0.03714523
-0.01332829
0.007616472
-0.009345208
-0.01548403
-0.006680613
-0.01301355
-0.004123454
-0.01277668
-0.001340485
-0.01432056
0.001271577
-0.01570594
0.003949516
-0.01992941
0.007082113
-0.02119545
0.008843438
-0.01111828
0.009699667
-0.003628439
0.01137007
-0.00583251
0.01307198
-0.008958731
0.0143594
-0.008510549
0.01503269
-0.004707533
0.0147844
0.002768486
0.01174012
0.01584198
0.006847591
0.02229391
0.0002420195
0.01966274
-0.0109597
0.01985993
-0.02318129
0.02642673
-0.02939429
0.02632818
-0.02980764
0.02070042
-0.02852806
0.01580929
0.01095815
-0.03233925
0.03265235
0.004963669
-0.03201676
0.0004446414
-0.03130879
-0.002597915
-0.03013034
-0.005121146
-0.02843006
-0.007376803
-0.02638071
-0.008855872
-0.02405531
-0.01007305
-0.02131779
-0.01182109
-0.01837268
-0.01267001
-0.01554013
-0.01232497
-0.01279208
-0.0123041
-0.01017334
-0.01154136
-0.007785937
-0.01067742
-0.005213153
-0.01089829
-0.002719639
-0.01046828
-0.0006134615
-0.009204293
0.001290472
-0.008554235
0.002773474
-0.007473846
0.004709873
-0.00692531
0.0063878
-0.00207824
0.006837671
0.002247316
0.005942611
0.003882794
0.00378209
0.006447254
0.0001156943
0.01282901
-0.003263596
0.01769958
-0.008909946
0.01672919
-0.01602688
0.005794996
-0.0216848
0.003978161
-0.02523436
0.004504381
-0.02677187
-0.002480564
-0.02694006
-0.01440806
-0.02566675
-0.02469555
-0.02438898
-0.01627467
-0.02856062
0.01552646
-0.0364438
0.04996311
-0.04198409
0.05446499
-0.04328285
0.02809181
-0.04481016
0.01192146
-0.04653286
0.01097021
-0.04698572
0.01166388
-0.04690106
0.0102233
-0.04706615
0.006988532
-0.04751443
0.004445531
-0.04777565
0.00246144
-0.04801227
0.001469645
-0.04786246
-0.0003457346
-0.04759549
-0.0009489234
-0.04724336
-0.001356064
-0.04669338
-0.002072585
-0.04620355
-0.00213775
-0.04547179
-0.002956725
-0.04468576
-0.00334907
-0.04371078
-0.00409186
-0.04266083
-0.004403272
-0.04160641
-0.004523142
-0.04037977
-0.005212287
-0.03908763
-0.005492359
-0.03779235
-0.005542525
-0.03631946
-0.006328441
-0.03476946
-0.006619194
-0.03315438
-0.006925449
-0.03149823
-0.007047467
-0.02983806
-0.0072226
-0.02796829
-0.007933831
-0.02618397
-0.007745414
-0.02423792
-0.008308248
-0.02226783
-0.008494007
-0.0202755
-0.008593336
-0.01823885
-0.008693392
-0.01615673
-0.009040269
-0.01406077
-0.009096973
-0.01191264
-0.009250953
-0.009761336
-0.009373866
-0.007506926
-0.009562658
-0.005394061
-0.009237449
-0.003098835
-0.009875674
-0.0008389032
-0.009551212
0.001335865
-0.009220387
0.003494003
-0.009097317
0.005878203
-0.01010434
0.00823926
-0.01007681
0.01051522
-0.009938887
0.01272978
-0.009692618
0.01491712
-0.009507827
0.01710608
-0.009515759
0.01923993
-0.009239976
0.02146518
-0.009473756
0.02357121
-0.0091224
0.02560339
-0.008729577
0.02767218
-0.008841878
0.02968761
-0.008654369
0.03164506
-0.008394438
0.03361844
-0.008431125
0.03552843
-0.008216878
0.0372817
-0.007544406
0.03905788
-0.007598937
0.04076393
-0.007378629
0.04238081
-0.006898871
0.04402525
-0.007005685
0.04548451
-0.006277966
0.04691715
-0.006073728
0.04820709
-0.005567513
0.04940426
-0.005092082
0.05063474
-0.005181742
0.05171541
-0.004674752
0.05275839
-0.004336344
0.05363561
-0.003784549
0.05445231
-0.003401152
0.05522155
-0.003156833
0.05578712
-0.002408964
0.05639364
-0.002454614
0.05689558
-0.001957379
0.05708247
-0.0006557265
0.05712789
4.39192e-05
0.05706216
0.0005077289
0.05693256
0.001018414
0.05659859
0.002162845
0.05617444
0.003469328
0.05568917
0.005645086
0.05529637
0.009413555
0.05455253
0.01328247
0.05643861
0.02092837
0.06130263
0.03136433
0.06192162
0.02097316
0.05706342
-0.0004434198
0.05281306
-0.01009978
0.04934259
-0.003777385
0.04595994
0.005399726
0.04135934
0.01460728
0.03153704
0.02550733
0.01495202
0.05558015
0.0001593083
0.08153003
-0.006806054
0.0441106
-0.01037149
0.01118191
-0.006379676
-0.01947585
-0.00413465
-0.01525857
-0.0009141059
-0.01599722
0.002405518
-0.01764019
0.004857789
-0.01815821
0.006263466
-0.02133508
0.007600537
-0.02253253
0.008028198
-0.01154594
0.008919077
-0.004519318
0.01066267
-0.007576105
0.01148052
-0.00977658
0.0120889
-0.00911893
0.01333316
-0.005951796
0.01379257
0.002309079
0.00967398
0.01996057
0.003157631
0.02881026
-0.008683238
0.03150361
-0.02413411
0.0353108
-0.03391646
0.03620908
-0.03544814
0.02785986
-0.03410517
0.01935745
-0.03321907
0.01492319
0.01039143
-0.0383563
0.03863894
0.004681025
-0.03800876
9.710644e-05
-0.03712634
-0.003480334
-0.0357597
-0.006487794
-0.03375186
-0.009384639
-0.03128361
-0.01132412
-0.02845391
-0.01290275
-0.02513562
-0.01513938
-0.0215336
-0.01627203
-0.01799399
-0.01586458
-0.01468861
-0.01560948
-0.01154732
-0.01468264
-0.008900814
-0.01332393
-0.00582772
-0.01397139
-0.002794226
-0.01350177
-0.0002202791
-0.01177824
0.001988297
-0.01076281
0.003605542
-0.009091091
0.005738067
-0.009057835
0.008069614
-0.004409787
0.009566884
0.0007500459
0.008895862
0.004553816
0.005975875
0.009367242
0.000743675
0.01806121
-0.004268743
0.022712
-0.01273483
0.02519528
-0.02307985
0.01614001
-0.03009
0.01098831
-0.0346635
0.00907788
-0.037773
0.0006289431
-0.04080677
-0.0113743
-0.04368411
-0.02181821
-0.04720084
-0.01275794
-0.0522687
0.02059433
-0.05500765
0.05270206
-0.05301211
0.05246944
-0.05176106
0.02684077
-0.05407813
0.01423853
-0.05581572
0.0127078
-0.05642553
0.01227369
-0.05649095
0.01028872
-0.05665351
0.007151094
-0.05722615
0.005018174
-0.05738064
0.002615931
-0.05768905
0.00177805
-0.05740246
-0.000632319
-0.05708214
-0.001269244
-0.05672197
-0.001716236
-0.05599967
-0.002794883
-0.05544385
-0.002693571
-0.05455432
-0.003846259
-0.05363687
-0.004266516
-0.05244875
-0.005279985
-0.05116005
-0.005691964
-0.04991768
-0.005765512
-0.04847491
-0.006655061
-0.04686802
-0.007099245
-0.04531869
-0.007091856
-0.04357797
-0.008069164
-0.04173674
-0.008460421
-0.03976849
-0.008893699
-0.03775901
-0.009056948
-0.03585784
-0.009123773
-0.03353139
-0.01026028
-0.03143946
-0.009837341
-0.02903158
-0.01071613
-0.0267225
-0.01080309
-0.02434339
-0.01097245
-0.02185879
-0.01117799
-0.01939935
-0.01149971
-0.01686449
-0.01163183
-0.01427335
-0.01184209
-0.01176049
-0.01188673
-0.009019672
-0.01230347
-0.006553035
-0.01170408
-0.003768391
-0.01266032
-0.001040732
-0.01227887
0.001616826
-0.01187794
0.004255377
-0.01173587
0.007164453
-0.01301342
0.009889605
-0.01280197
0.01253637
-0.01258565
0.0151998
-0.01235604
0.01787157
-0.0121796
0.02051404
-0.01215824
0.02304829
-0.01177422
0.02579338
-0.01221885
0.02830079
-0.01162982
0.03075112