/*--------------------------------*- C++ -*----------------------------------*\
| =========                 |                                                 |
| \\      /  F ield         | OpenFOAM: The Open Source CFD Toolbox           |
|  \\    /   O peration     | Version:  2406                                  |
|   \\  /    A nd           | Website:  www.openfoam.com                      |
|    \\/     M anipulation  |                                                 |
\*---------------------------------------------------------------------------*/
FoamFile
{
    version     2.0;
    format      ascii;
    arch        "LSB;label=32;scalar=64";
    class       volScalarField;
    location    "0.58";
    object      p;
}
// * * * * * * * * * * * * * * * * * * * * * * * * * * * * * * * * * * * * * //

dimensions      [0 2 -2 0 0 0 0];

internalField   nonuniform List<scalar> 
15536
(
-8.356876
-7.260766
-7.55116
-9.150282
-12.61987
-16.81778
-21.0095
-24.63746
-26.71935
-26.59139
-25.21533
-24.70283
-23.43775
-20.94325
-19.4705
-19.46765
-19.8622
-21.16294
-23.4184
-26.01415
-29.47846
-39.07868
-54.09504
-70.65068
-76.38464
-62.78182
-37.46391
-13.5344
-11.01117
-26.60193
-39.95318
-46.94957
-54.56092
-78.40453
-120.1235
-138.8564
-106.094
-75.97043
-87.1162
-92.59818
-93.39173
-97.05509
-100.241
-101.9139
-102.4324
-101.8052
-100.2294
-97.66153
-94.59008
-91.16977
-87.06942
-82.39608
-77.11904
-71.47207
-65.40144
-58.98024
-52.5339
-45.98219
-39.085
-32.02349
-25.07882
-18.26223
-11.46571
-4.752438
1.748817
8.122892
14.21152
19.98592
25.3402
30.27712
34.7529
38.76762
42.28382
45.22738
47.56212
49.38709
50.57241
51.16318
51.20312
50.77073
49.57308
47.70892
45.26284
42.2376
38.65329
34.53405
29.95251
24.82425
19.31467
13.4751
7.156172
0.5470127
-6.280693
-13.50226
-20.84377
-28.10102
-35.49126
-42.99079
-50.4142
-57.83508
-65.08487
-71.98615
-78.49481
-84.69293
-90.68939
-96.18074
-101.1385
-105.51
-109.3055
-112.5796
-115.054
-116.637
-117.3306
-117.1204
-115.688
-112.5531
-107.7411
-102.3947
-101.8428
-101.6369
-85.94191
-67.35098
-105.0665
-151.6317
-135.7015
-84.39522
-48.91206
-34.82105
-26.55471
-13.32811
1.504172
1.987849
-16.33521
-39.80411
-53.23561
-52.1004
-39.31063
-26.2336
-18.60366
-15.72544
-12.55458
-9.264359
-7.479471
-7.265673
-7.02883
-6.177436
-5.957295
-5.968735
-4.334692
-4.243099
-6.143945
-8.165322
-11.58194
-14.09479
-14.32048
-12.74141
-10.52354
-8.340026
-7.263452
-7.561995
-9.16053
-12.61288
-16.77648
-20.93525
-24.54773
-26.66462
-26.56735
-25.22172
-24.70643
-23.43448
-20.94439
-19.46807
-19.46271
-19.85514
-21.15305
-23.40701
-26.00472
-29.48856
-39.10317
-54.09741
-70.59097
-76.3193
-62.76624
-37.48847
-13.45959
-10.99688
-26.67966
-40.02999
-46.94978
-54.51561
-78.36575
-120.1999
-138.9606
-105.9251
-75.94364
-87.0316
-92.48395
-93.06723
-96.4013
-99.29899
-100.7293
-101.1369
-100.4688
-98.87655
-96.30455
-93.23808
-89.84178
-85.77121
-81.13566
-75.89966
-70.30067
-64.28562
-57.92231
-51.53467
-45.04677
-38.21891
-31.22317
-24.34501
-17.59609
-10.86569
-4.215385
2.222773
8.533051
14.55971
20.27738
25.57956
30.46741
34.8994
38.87555
42.3581
45.27543
47.5881
49.39723
50.57325
51.16033
51.20043
50.77099
49.58243
47.736
45.31354
42.3173
38.76771
34.68926
30.15323
25.07602
19.62435
13.84249
7.586468
1.047762
-5.711952
-12.86792
-20.13359
-27.31641
-34.63421
-42.05798
-49.40676
-56.75444
-63.93339
-70.76502
-77.20849
-83.35122
-89.29756
-94.73893
-99.65528
-103.9895
-107.7578
-111.0179
-113.4869
-115.0819
-115.8018
-115.6518
-114.3527
-111.4826
-107.0065
-102.0652
-101.8202
-101.7193
-85.88485
-67.26888
-104.9313
-151.7449
-135.6903
-84.29856
-48.80935
-34.77861
-26.61566
-13.40933
1.472268
2.07162
-16.33208
-39.80988
-53.15308
-52.00194
-39.32865
-26.28916
-18.63831
-15.71356
-12.51425
-9.22624
-7.449023
-7.235209
-7.00251
-6.164345
-5.960888
-5.961415
-4.312701
-4.237219
-6.155513
-8.167838
-11.55571
-14.03067
-14.21392
-12.65439
-10.47486
-8.341108
-7.280542
-7.589993
-9.191674
-12.62655
-16.75984
-20.90211
-24.51726
-26.66055
-26.62539
-25.29655
-24.74303
-23.46162
-20.94705
-19.46394
-19.45796
-19.85092
-21.13499
-23.37467
-25.99341
-29.5385
-39.20216
-54.19592
-70.71257
-76.49356
-63.00365
-37.84468
-13.61421
-10.87678
-26.71299
-40.05441
-46.92822
-54.56878
-78.48531
-120.5269
-139.4116
-106.2011
-76.14802
-86.34155
-91.71666
-92.53265
-95.67741
-98.39381
-99.81923
-100.3066
-99.66528
-98.11188
-95.55999
-92.50601
-89.13734
-85.07798
-80.4661
-75.25172
-69.68429
-63.70582
-57.35683
-50.99594
-44.54862
-37.74556
-30.77878
-23.93154
-17.22073
-10.52687
-3.905021
2.494288
8.776642
14.77039
20.45782
25.73091
30.59169
34.99652
38.94814
42.40861
45.30954
47.60355
49.40083
50.56919
51.15227
51.19276
50.76622
49.58452
47.75251
45.34702
42.37064
38.84445
34.79167
30.28503
25.23328
19.81421
14.0666
7.839712
1.33745
-5.384091
-12.50761
-19.73647
-26.87627
-34.1607
-41.55194
-48.85786
-56.18369
-63.32918
-70.13353
-76.55058
-82.65021
-88.56813
-93.97886
-98.87578
-103.19
-106.9357
-110.1811
-112.6268
-114.189
-114.8783
-114.6943
-113.3052
-110.4395
-106.1834
-101.5807
-101.1075
-100.577
-85.07978
-67.29143
-105.2442
-152.5892
-136.2059
-84.48793
-48.79918
-34.75583
-26.6427
-13.50069
1.533297
2.115066
-16.65152
-40.1167
-53.27632
-52.09582
-39.45825
-26.44421
-18.74108
-15.7399
-12.46183
-9.14366
-7.393125
-7.22142
-6.985961
-6.112058
-5.963291
-5.966408
-4.259239
-4.209223
-6.185844
-8.256384
-11.63299
-14.02382
-14.18566
-12.61425
-10.45457
-8.359516
-7.318082
-7.643231
-9.251311
-12.66807
-16.76287
-20.87759
-24.47904
-26.65064
-26.73526
-25.47582
-24.79181
-23.4479
-20.92802
-19.44685
-19.44912
-19.85129
-21.10805
-23.33478
-25.98659
-29.65881
-39.40667
-54.42322
-71.04903
-76.93126
-63.46971
-38.6651
-14.06309
-10.56372
-26.51758
-39.86414
-46.83179
-54.68996
-78.71719
-120.8647
-139.7741
-107.0549
-77.11634
-85.66251
-90.55263
-91.71203
-94.64544
-97.08059
-98.27994
-98.59467
-97.89758
-96.35967
-93.82738
-90.79592
-87.47129
-83.47954
-78.94041
-73.79614
-68.29945
-62.40121
-56.13465
-49.8492
-43.48771
-36.78237
-29.89145
-23.12126
-16.49448
-9.883166
-3.33359
2.985865
9.199798
15.12536
20.75512
25.97012
30.77729
35.13516
39.04694
42.47255
45.349
47.61603
49.39832
50.55765
51.13623
51.17759
50.75363
49.57813
47.76641
45.38503
42.43769
38.94785
34.93841
30.48387
25.48053
20.12737
14.44513
8.281358
1.862812
-4.780943
-11.83602
-18.96762
-26.01644
-33.21984
-40.51454
-47.72669
-54.96211
-62.01583
-68.72005
-75.03864
-81.06693
-86.91112
-92.2343
-97.05907
-101.2974
-105.0031
-108.2079
-110.6141
-112.1583
-112.8627
-112.7674
-111.5787
-108.9292
-105.0133
-100.7821
-99.73426
-98.56803
-84.34542
-68.21682
-106.3703
-153.5422
-136.7623
-84.83005
-48.88711
-34.72511
-26.56038
-13.43206
1.809062
2.086899
-17.34747
-40.65804
-53.55369
-52.3653
-39.72645
-26.72314
-18.93183
-15.80736
-12.40191
-9.037727
-7.319952
-7.198115
-6.970637
-6.03172
-5.969752
-5.981305
-4.180179
-4.160299
-6.243635
-8.461389
-11.75558
-13.98676
-14.12521
-12.56532
-10.44509
-8.405988
-7.385191
-7.733513
-9.348233
-12.74714
-16.79951
-20.88523
-24.48297
-26.68654
-26.88903
-25.74167
-24.82224
-23.33355
-20.86506
-19.40729
-19.43139
-19.85655
-21.07347
-23.28067
-25.96487
-29.85572
-39.74518
-54.82204
-71.69556
-77.77685
-64.235
-39.93189
-14.87509
-10.14098
-25.98722
-39.23947
-46.67242
-54.91613
-78.76944
-120.3748
-139.0179
-107.7521
-79.25909
-85.52714
-89.40789
-90.78738
-93.56416
-95.8389
-96.94198
-97.36455
-96.67747
-95.16299
-92.63179
-89.55189
-86.27879
-82.273
-77.76345
-72.62682
-67.17269
-61.33435
-55.0879
-48.84746
-42.56588
-35.92032
-29.07373
-22.36291
-15.81573
-9.273757
-2.775544
3.466456
9.62573
15.48787
21.06016
26.21289
30.97053
35.28072
39.15022
42.53306
45.38187
47.61881
49.38347
50.53348
51.10726
51.14985
50.72625
49.5543
47.77138
45.42198
42.50763
39.05667
35.0906
30.68996
25.73261
20.45131
14.82929
8.712913
2.3835
-4.183952
-11.20076
-18.24856
-25.20928
-32.35647
-39.5861
-46.71093
-53.90127
-60.89908
-67.54586
-73.81443
-79.78771
-85.60746
-90.88283
-95.69721
-99.91585
-103.6055
-106.8536
-109.2211
-110.7629
-111.4693
-111.3306
-110.0823
-107.4949
-103.8026
-99.82394
-98.24762
-96.61723
-84.48047
-70.89542
-108.1765
-153.8247
-137.2426
-85.21981
-49.15303
-34.76313
-26.26914
-13.08382
2.289345
1.935534
-18.31709
-41.43429
-54.11394
-52.88749
-40.1994
-27.16469
-19.23014
-15.91434
-12.33381
-8.907882
-7.232137
-7.168623
-6.952694
-5.92579
-5.99099
-6.018272
-4.1174
-4.104497
-6.392084
-8.761327
-11.91903
-14.00637
-14.111
-12.53754
-10.46211
-8.495436
-7.492743
-7.868382
-9.527207
-12.88307
-16.88475
-20.93771
-24.54006
-26.77016
-27.08012
-26.07028
-24.85304
-23.12425
-20.71623
-19.34287
-19.40009
-19.86133
-21.02484
-23.186
-25.87503
-30.09164
-40.23094
-55.45939
-72.79013
-79.20144
-65.44135
-41.7188
-16.2574
-9.928459
-25.17236
-38.47497
-46.49005
-55.19178
-78.04683
-116.9143
-134.0835
-106.5403
-81.65128
-85.50652
-88.16032
-89.58583
-92.07147
-94.08428
-94.8835
-95.15845
-94.33992
-92.91263
-90.43145
-87.38899
-84.25212
-80.33123
-75.93717
-70.88388
-65.51336
-59.77621
-53.60415
-47.46849
-41.31187
-34.75511
-27.98957
-21.38608
-14.94105
-8.495684
-2.071351
4.059605
10.14843
15.92058
21.40441
26.4882
31.19651
35.44692
39.26226
42.5861
45.41006
47.60903
49.34767
50.48997
51.05781
51.1009
50.67607
49.51012
47.75881
45.45279
42.58123
39.17772
35.26523
30.92389
26.01388
20.83717
15.30015
9.22276
3.001132
-3.428841
-10.38803
-17.33554
-24.15957
-31.20344
-38.34319
-45.3488
-52.43564
-59.3264
-65.86372
-72.00697
-77.87925
-83.62788
-88.77452
-93.5065
-97.60964
-101.2078
-104.3592
-106.6551
-108.0981
-108.8091
-108.8595
-107.8009
-105.4551
-102.1223
-98.491
-96.64646
-94.74519
-85.27275
-74.92205
-109.3875
-151.9195
-135.9855
-84.92167
-49.56257
-34.94923
-25.85551
-12.4159
2.756608
1.434615
-19.53471
-42.55287
-55.10337
-53.86611
-41.06694
-27.84915
-19.62265
-16.00779
-12.21755
-8.752978
-7.129564
-7.130161
-6.934929
-5.787842
-6.040293
-6.10522
-4.131655
-4.169521
-6.692994
-9.14207
-12.11777
-14.06344
-14.15363
-12.54657
-10.5173
-8.663947
-7.668902
-8.084941
-9.867246
-13.12006
-17.03789
-21.04354
-24.6742
-26.93691
-27.32281
-26.46532
-24.94181
-22.92078
-20.57199
-19.27067
-19.36767
-19.85589
-20.93375
-22.99038
-25.63549
-30.28484
-40.79365
-56.40875
-74.56081
-81.50438
-67.26466
-44.02385
-18.78614
-10.47905
-24.64294
-37.6093
-46.31646
-55.49286
-76.38363
-109.8046
-124.0791
-102.5184
-83.13161
-85.14695
-86.86116
-88.3004
-90.519
-92.40848
-92.98548
-93.37917
-92.5336
-91.08191
-88.54331
-85.39791
-82.36001
-78.40954
-74.11832
-69.0813
-63.72674
-58.11401
-52.05835
-45.98448
-39.88948
-33.46791
-26.83208
-20.30716
-13.90991
-7.638208
-1.282771
4.713118
10.73281
16.37945
21.77536
26.85066
31.45325
35.61224
39.35271
42.62006
45.46683
47.58348
49.28978
50.42278
50.97936
51.02292
50.61149
49.46232
47.7019
45.43009
42.61563
39.2766
35.45631
31.19455
26.30852
21.24438
15.84586
9.851885
3.674716
-2.645793
-9.43918
-16.30082
-23.0272
-29.94379
-36.90941
-43.87545
-50.88349
-57.60597
-64.07777
-70.08428
-75.86916
-81.59413
-86.62466
-91.34445
-95.36424
-98.9734
-102.2191
-104.4809
-106.036
-106.8395
-106.7536
-105.6934
-103.4636
-100.4033
-97.01908
-94.99408
-92.83626
-85.90468
-78.68718
-108.0649
-144.075
-129.9148
-83.07997
-50.04372
-35.32934
-25.52885
-11.94543
2.706255
0.1464569
-21.21631
-44.20434
-56.84097
-55.66437
-42.56822
-28.84676
-19.98764
-15.99606
-12.01352
-8.588311
-7.028202
-7.096257
-6.895616
-5.573742
-5.941502
-6.314846
-4.367881
-4.523683
-7.173828
-9.627786
-12.39798
-14.20971
-14.30101
-12.60528
-10.63748
-8.980674
-8.003214
-8.479074
-10.38157
-13.51624
-17.30618
-21.27106
-24.92152
-27.22715
-27.6216
-27.00576
-25.15767
-22.81458
-20.49249
-19.23754
-19.35513
-19.80858
-20.78088
-22.66613
-25.15516
-30.24024
-41.15126
-57.56679
-77.38143
-85.0994
-70.0536
-47.33482
-22.51334
-12.00411
-24.59131
-37.17103
-46.57111
-55.88349
-74.14711
-101.2901
-113.036
-97.57036
-83.51426
-84.15718
-85.27284
-86.57387
-88.37897
-90.20408
-90.18321
-90.45989
-89.57769
-88.25777
-85.96973
-82.61344
-79.76482
-75.95104
-71.83589
-66.76592
-61.48938
-56.2342
-50.34062
-44.02267
-38.1062
-32.07952
-25.60585
-18.90399
-12.63508
-6.764267
-0.3792269
5.400983
11.39473
16.80147
22.28682
27.36228
31.7037
35.74348
39.38242
42.63589
45.52494
47.49592
49.21856
50.32417
50.86417
50.92096
50.54147
49.37192
47.60189
45.32502
42.58011
39.31637
35.60933
31.54042
26.64005
21.65754
16.42725
10.75199
4.630564
-1.938183
-8.424617
-14.92506
-21.79058
-28.63052
-35.1401
-41.95354
-49.25405
-55.51332
-61.99188
-67.81901
-73.42558
-79.14531
-83.92319
-88.67963
-92.43755
-95.92177
-99.18995
-101.2762
-102.6501
-103.2182
-103.5863
-102.734
-100.7333
-98.05507
-94.9669
-92.98562
-90.74978
-85.87395
-81.17693
-104.0571
-129.5052
-117.9214
-79.49772
-50.8924
-35.48044
-25.33117
-12.04366
1.500867
-2.38492
-23.4913
-46.81248
-59.64315
-58.39767
-44.46903
-29.97388
-20.12332
-15.71515
-11.70376
-8.326193
-7.012132
-7.139547
-6.99398
-5.328239
-6.21652
-6.805585
-5.005061
-5.345757
-7.885643
-10.26789
-12.80834
-14.4873
-14.60887
-12.69123
-10.91572
1.035203
0.3698221
-35.86746
-37.74199
10.14528
-28.50579
0.3365957
-0.9676671
8.677355
-2.70076
-4.635405
-0.5907547
-1.714498
-0.3164564
-0.3896113
1.478287
0.2740898
-3.540838
-0.08807493
-1.390624
-102.4238
0.04553436
0.7116439
-2.724554
0.1155424
0.3180737
-1.247763
-1.90617
-7.859162
-0.03135104
-0.2058812
-25.32276
0.3018068
0.04109295
0.06322236
-5.058247
0.0644015
-0.07555523
0.03996793
-5.893683
-19.29676
1.30033
0.1770518
2.988782
31.75252
0.06117341
0.01237915
0.2318812
0.4388911
-2.250926
0.1871625
0.1179634
2.811653
0.02087122
0.01808616
20.80021
-3.94887
0.1911172
-12.50763
-21.95498
-1.792405
0.004059135
-23.72712
0.001073633
-12.51266
0.3659775
-32.38279
0.001610538
0.1005979
0.03614982
-1.183053
0.02162563
-8.798457
-46.24273
21.72649
-0.02869644
3.224191
-2.83195
0.08153879
0.01520416
-23.96139
0.01148543
2.028526
0.04286023
-9.407825
0.1489639
0.2626243
-1.350053
-78.34939
0.05947769
-15.62459
22.64186
0.2093134
0.02648555
0.1855552
-0.2635737
7.934967
5.275789
-41.8358
0.292396
-0.8495783
-1.336956
0.0863569
-76.87151
-0.005092409
-20.76839
0.003843518
-0.02434378
-6.677728
8.201896
-1.105414
0.8968455
2.169264
6.768227
-22.94687
0.002197536
0.009761799
0.002916585
20.9673
-0.1538568
0.9336691
-0.04247189
-0.9908744
0.02253653
0.01411073
-13.33536
-1.021053
-39.19585
0.600123
0.2744332
-0.01033302
0.1636968
0.07062593
-0.469839
0.2552588
-4.079652
-0.01562564
4.717016
-0.6363733
0.01310304
-37.87969
-0.01058511
-56.9795
0.4758578
0.008877705
0.1364623
-2.013709
-41.12607
-0.01479158
-1.098184
0.3150184
-21.58816
-19.0089
0.0797679
1.500465
-37.68063
-0.0008592817
0.03703023
0.02215535
-13.22561
0.1297655
-0.6726121
3.835993
-2.455326
0.6370048
14.68759
-19.79917
1.068641
-33.02234
0.004116794
0.2696726
-24.87739
0.1331739
-40.47448
-8.549586
5.410129
0.900594
0.149105
-46.37906
0.06129159
14.67741
-0.7669853
-0.0001913834
-0.1505589
3.577481
-41.10171
0.2027358
-0.01247059
2.008411
-0.1768157
-0.6987038
-0.6987718
-7.802852
-3.757485
0.008584405
-0.08873247
0.04958678
-0.05337673
-3.617008
-29.24002
-1.627393
0.2144494
0.7231029
-70.25046
0.5963054
-6.789372
-6.98614
0.1132498
-8.870621
0.02175686
0.1006824
0.1427832
1.203788
1.024695
0.06782024
-8.375627
-11.89821
-1.213944
5.454724
-0.06004954
0.4759278
0.5220047
1.692259
0.2326273
-4.643703
-4.307609
0.1307607
7.298589
0.06851703
17.27961
-8.948032
-38.3644
1.519511
0.007098708
-62.79517
-0.1855923
24.82755
0.2306384
1.552426
-0.1660356
-0.5682808
-0.2607009
0.002387923
-15.97662
-0.3012673
15.3256
0.04475183
-43.9646
0.01666343
0.1709685
-26.65808
0.3996898
-1.54203
-1.216454
1.937555
-21.98073
0.6635297
0.06627977
-21.67334
-7.420315
-6.050862
0.01533489
0.4222103
0.1289031
-0.8421866
0.9221019
-0.1050215
-0.00736503
-8.356221
-23.08412
0.02849689
0.04491175
11.87767
-1.920099
0.1888779
2.120694
0.2686974
-30.19528
-43.75091
-0.3970889
0.1207627
0.3056323
0.1289734
0.05528988
0.3770576
0.1112169
35.88207
-0.817212
0.5632959
0.03344767
-0.4589122
0.0004738823
0.06019437
0.1082237
-38.59069
0.007158823
-32.85823
0.004213816
0.8655535
-0.3577254
-36.71504
0.0644194
0.04515289
-42.64805
-0.6254549
7.485282e-07
0.02268976
0.03129145
0.3459309
0.2407116
-0.8659247
-1.766916
0.03038738
0.315128
-0.7348271
-11.33958
33.84822
-34.61444
-37.67561
-67.14393
-0.9237081
0.02584908
-1.831451
0.02922102
0.001393535
0.03925507
0.01243768
-0.001990046
-0.008747533
3.734795
18.07414
0.00272568
-7.575376
-34.44648
0.09545874
0.3991802
0.07415981
0.01620264
-2.877407
0.1057171
-46.76477
0.9903374
0.4747336
-2.022516
-12.54655
3.90341
10.08725
-0.8280281
-10.51242
0.004517405
0.05755518
0.04605899
12.20723
0.06591625
-0.1179005
-38.50993
-47.91677
0.01142859
-0.04977784
0.4801804
0.1956847
0.3082169
0.06373111
1.059847
-1.158798
0.6336725
0.1471193
0.2295436
-0.3993024
-0.1954721
-3.122051
11.41328
-33.0483
-0.03695069
0.6737137
0.4790896
0.1530922
0.4958491
1.131275
-0.6425679
0.3264806
0.05757349
-0.005283326
-13.86349
-0.001601203
0.1601399
0.2361001
37.79512
1.030581
0.02720593
0.2038133
-0.2798358
1.814285
-37.43949
0.004641329
-1.642655
0.5251331
1.21936
0.2179115
-0.04700664
0.7811651
-1.515057
-25.10815
0.0798202
0.03027942
0.2559763
-37.98447
-47.52252
0.3121314
0.924692
0.05159076
-0.01821189
0.005938876
-0.7965437
0.6019973
-1.369354
1.828913
1.412184
0.01558793
-4.555393
-1.786251
-0.01345291
2.674739
0.01702001
-0.8763919
-23.06968
0.03398031
-0.6050856
-10.78792
0.2306254
-25.84971
0.1811306
0.1313332
0.07906925
0.600212
0.8060697
-0.003503018
-6.081243
-0.03776825
-1.298399
0.04519554
0.01852455
1.713278
-0.1114892
-4.384764
0.1175397
-0.0036749
0.02219367
0.1131362
-0.9031352
-1.114407
-43.75847
1.201079
-10.58057
0.00418853
0.02467653
0.01159002
3.596917
0.1126872
-18.38185
-0.110432
-38.04694
-1.915015
0.03205042
0.8892157
0.02195679
26.45536
-0.1496641
2.157734
-2.179492
-10.79069
-3.007069
-0.07262298
6.812867
0.07210662
-8.760388
0.414388
-36.97113
0.01686974
-0.2741034
4.385986
0.4474097
0.21946
-0.08894415
0.3674935
0.04470486
0.02581654
15.62048
0.008822969
0.00313897
0.07988055
-21.72429
-3.731806
0.01030135
-18.13705
-0.3948167
0.1223604
3.042493
0.0853372
2.664684
-0.3286426
-0.06336714
0.01957715
-5.154702
1.460145
0.08770003
-1.023779
0.6986744
0.3770268
0.1658249
-20.49354
1.545901
13.36791
-2.079763
0.6192926
0.2167322
0.8693243
0.03121563
0.007473369
0.01046073
-0.3156901
-0.06240711
-12.4975
0.0360771
0.1628929
-2.479819
-0.02873957
1.308237
0.0286339
0.0477158
-23.88205
-3.746737
-19.18774
0.02557081
3.102004
3.679204
2.47602
0.01843586
0.2679387
0.04423343
3.882074
0.154235
0.05028879
0.8765827
-48.36824
1.374067
2.999197
0.0303813
0.005743323
7.586526
0.180816
7.10172
0.2021156
-4.786512
5.821369
0.01876326
-1.137862
7.804013
15.16254
-6.207015
0.02189748
0.4688274
0.2008465
0.3014598
0.02046108
0.1742359
-0.4344188
5.841208
29.93309
0.1074287
0.01905403
3.029516
1.874255
-56.75171
0.06684452
1.656637
0.1851956
1.404356
0.03818461
0.07696875
1.530737
0.07176449
4.857789
-0.002942642
2.408958
-20.36253
0.9267191
0.08008048
-70.00339
-3.982297
-2.593097
-26.7306
0.4598734
-0.000110799
0.1217643
0.01772864
-0.3795395
-54.7302
0.2107928
0.1698837
0.07513245
2.739635
0.01964923
-0.007412804
0.8550877
-23.0686
-11.66213
-0.0570784
-23.15635
0.3152059
4.100081
0.01538377
-32.3653
0.1735614
7.77604
-20.82597
-0.946238
-2.183444
3.563438
2.627685
3.157272
0.06224093
-0.5033271
0.05555797
0.2037329
17.26103
1.734847
-0.285523
0.006328484
-3.381228
3.140132
8.527649
-13.00566
1.617712
-25.63761
-7.431596
-20.23162
-1.031219
-0.9752386
0.2262754
0.05796568
0.03092893
0.1370634
1.416264
0.04607952
0.4734394
0.1186128
-40.40816
0.1723079
24.90256
2.968579
-30.68921
0.06440458
-0.926075
6.31457
-3.235396
-26.46636
0.08749558
-0.3250866
-28.22284
-1.793108
-1.305531
-0.1264433
0.5406642
0.0788019
0.08938737
0.6897511
0.5049416
0.8776272
-5.717676
0.1011278
0.1025356
-72.65153
0.2109208
0.0417945
2.440599
-79.05974
0.03477513
-0.3540007
6.961525
13.78799
10.69353
1.07693
0.4550244
0.1908554
0.04921509
-0.003141155
-2.749148
1.66363
0.2543552
-21.73826
0.02384789
-25.16807
0.06163802
0.08568248
0.2102189
-20.95654
1.131624
-0.9081515
-1.856587
0.292733
-9.232662
-1.311479
-6.875678
3.411429
-5.854439
0.2992276
-0.03008695
-23.46764
0.5744006
0.4690057
0.05316628
0.7747464
0.01013579
-5.154093
-0.6919515
-0.3875066
-30.06452
0.03247796
0.07507995
0.6368236
0.01774896
-0.5699275
0.02509366
0.0425585
-1.369632
-0.0748919
-24.10992
0.1656746
0.05621184
-0.8225493
-0.787985
-0.0997604
-0.04044558
0.04021502
1.231739
0.2281636
2.502766
-26.27445
-1.015605
-0.006227576
0.0880689
0.1198088
-0.2301086
3.236366
0.01970083
-47.55765
1.30755
-3.639841
6.942183
0.02832757
-22.17099
-12.91019
0.5152254
0.01527131
-14.27205
1.271993
-12.50042
-18.56721
-4.969339
-4.461689
-2.869953
0.5975105
12.95777
1.114247
0.6979495
-87.5998
0.3735651
-0.5011833
-0.08337519
-8.586681
22.11028
-14.73429
0.1917238
0.9396181
-0.9737786
-0.003215347
0.01495463
-7.967428
0.2945814
0.7604403
-1.336853
0.174095
-2.30644
5.294009
-0.4425159
0.1864457
0.04757882
0.5572489
-0.4951385
-1.418608
-4.391171
30.3366
0.04162672
0.03050874
-0.2525625
-0.00708107
0.03263956
-0.003181939
-35.02954
-0.3170534
-60.08482
-11.77699
-1.422138
0.06464217
0.03425093
-5.976568
0.07596355
0.1726873
0.1081587
0.1781344
-7.255635
-50.7172
0.09901471
-1.605985
-2.167222
-0.01717455
-1.65066
0.8161613
2.245847
-4.504406
14.186
-0.5146868
-0.1232549
-0.9345049
-0.8113109
1.30302
-2.069685
0.006570739
-1.551747
1.315948
0.03332447
7.949027
-7.646435
0.1143913
0.01616603
-19.2135
-2.420311
-0.1169497
0.2056135
-3.80256
-2.06711
0.1361762
1.644782
0.337642
0.8078128
2.53577
-1.562641
0.08629511
30.39456
-0.08052375
-3.847958
0.05286516
-63.25093
-0.3409957
0.08908507
0.6587212
-0.7990869
32.50027
-1.228908
0.047009
0.840514
-0.01533778
0.07378755
-0.4997996
0.006402545
0.05041835
-24.36258
-14.17627
0.05693137
-3.833153
-15.44368
0.006733408
0.01672377
0.1413374
-13.05124
4.141219
29.55009
0.025219
-0.5929657
-1.035004
0.0254066
0.02557979
9.096116
-2.196575
-0.04175667
0.02029093
-1.249518
-0.7008376
0.06479866
0.07963634
-9.05866
0.9452515
-27.53772
1.862788
7.403383
0.05892717
0.6319674
0.05237485
3.240062
-8.682822
0.01208481
0.1416871
9.736383
-25.19329
4.399907
0.2213176
-0.09033673
-14.77085
26.90053
0.6978555
0.002467103
-6.442867
-16.8419
-0.003729901
0.0164491
1.786307
0.2605856
-0.2878163
-29.36834
-5.3117
1.198434
0.2549855
0.1637801
0.01657439
-35.59147
-23.10678
-45.8004
1.683553
-37.97435
0.6075684
-1.668963
-19.4046
-0.08051623
-1.742048
-24.73927
-0.0009612776
0.05620111
0.3557707
1.50018
0.02988017
-47.15731
-20.78885
1.701107
15.63177
0.1159954
0.00120811
-29.46261
17.0064
-23.263
0.01052829
-0.471588
0.8814362
0.0636654
0.05828276
0.5535839
0.3850375
0.002964444
-1.839682
-49.18721
-60.81423
0.2542546
0.4021711
1.52138
0.01976984
-0.7650327
1.857897
0.041949
0.02378459
-0.464147
-0.4575738
0.0293006
3.114817
0.05900678
-20.85907
0.3486596
-0.2270514
-13.63801
0.7365136
-0.162194
-3.531144
-24.42029
2.375197
-3.43261
1.153979
-12.51708
-36.1983
33.96502
47.29297
1.32959
-1.646733
0.8848679
4.973801
0.7102107
0.009168505
10.9549
-29.58845
0.9650208
0.01769987
-1.352225
1.287573
-0.02938978
3.165906
-0.9201848
-22.45071
-55.96783
0.5441148
0.5199778
0.1569705
1.268265
0.7280884
9.227318
0.105701
0.05399346
-0.1588853
-1.619776
0.1565436
0.1519732
-35.53505
-25.2214
0.7504551
0.4156102
0.04246746
1.130096
0.07550668
0.8947985
0.001953535
-62.79149
0.01637674
3.847066
-61.3183
-0.4868114
-1.072963
-55.14519
-86.87738
-1.038379
0.6755677
0.4345325
-0.03679102
-1.739481
-10.90947
0.0452637
-0.01249323
0.005211907
0.3301485
0.1434279
-2.293143
-0.3521956
0.05012771
-0.9583971
0.008593655
0.007593994
-1.447687
-2.130912
0.0119688
-0.635968
1.695734
-1.385384
0.07676847
2.643034
0.02742897
0.07064204
3.209296
0.008862445
0.1306992
-26.65966
-21.85732
0.01913628
-0.01799945
0.01160976
-0.001569088
-26.37889
-10.91797
-24.98123
-29.55672
23.146
0.07739718
2.460152
0.3289478
-20.26996
0.01216528
2.610709
-90.98822
0.204179
0.2982189
1.679399
1.317347
4.653981
-1.118236
0.1752395
-31.46184
0.08532027
-34.65434
0.03804988
-12.49969
34.93346
-12.31092
-6.950578
0.04190908
0.8756717
0.4257996
7.423267
0.5028519
7.096349
-2.194841
0.1971972
-8.745051
0.1743986
-3.145613
-0.03172823
-18.30536
-0.4871952
-84.48653
7.406402
0.5070064
15.97017
0.03538995
29.37175
0.08619868
0.6680099
0.02741172
-2.637591
14.57338
0.626001
-35.30813
0.01497075
0.06427325
-0.2812098
-0.2084749
0.4816261
-11.32487
3.313645
0.02725925
-31.94366
0.3580994
17.12978
-42.06537
1.428061
-85.93762
-16.79249
-4.847793
-24.34833
37.75477
0.5033333
0.04193619
-35.61087
0.1665674
0.04359713
-3.009933
-0.673366
-18.07351
-69.67397
1.064401
0.2194141
1.352988
0.4758616
0.0283985
0.05843153
0.1581315
6.490321
2.131778
-0.001981618
0.09602376
0.09361697
0.1584539
0.8411339
0.06254442
-0.8690207
-0.6377872
-41.41071
0.0005718757
-1.907428
0.06284802
-0.5545261
-32.64081
0.9784839
0.04293839
0.3833734
0.0919805
0.03954108
0.2877918
-0.02052024
0.2936623
-27.90032
24.19981
-2.584711
0.1499778
2.259612
-2.400068
-0.1999859
-0.5187502
0.04283321
-0.9768238
0.04364497
-25.48862
-0.1811446
-16.29746
0.7527577
3.204146
0.8957949
0.4446845
-2.066282
-0.9362592
1.710156
2.708205
-51.64904
2.233012
0.0380709
0.05065403
-2.319958
0.01689099
-0.5963098
-45.9935
-0.008974803
-0.1889979
-0.0001171225
-8.804991
0.0304259
0.1162619
1.975077
-51.39943
0.004761017
0.02806682
0.0233985
-61.36805
0.07749197
-32.12982
0.009457351
0.01821931
-0.6383782
-0.8240577
1.532575
-31.8184
-21.93303
0.02007226
0.04014183
-20.14221
0.05291813
1.726069
1.449288
1.652773
-1.643889
0.002952275
-0.1524191
-43.27853
0.2434007
0.1921614
-0.715056
0.1852317
-2.29777
-0.1368653
0.06452645
-0.2104013
-12.42641
-1.245297
-2.871937
9.027332
0.4131889
-12.08141
-0.09480843
0.1055133
-2.412639
-23.95611
-1.131564
-1.96198
0.04510448
-18.19716
5.021545
-5.671739
-0.007225712
-12.28334
0.03345145
-14.89689
-4.009432
-1.003082
16.03757
0.6652076
-2.511312
-71.45886
0.1032662
0.1383331
-2.088113
0.1355828
0.1381026
0.116312
0.3539127
0.05461605
0.1013087
-17.30412
-2.244609
0.07079385
0.5497528
1.106019
-1.60386
-0.2808149
0.07117931
0.0618534
0.1968636
-32.36586
-1.466855
1.151402
-0.9541764
0.01353626
-16.8043
0.09283829
-5.501251
0.1326461
0.1349355
0.03743085
-45.5626
-5.056945
1.478412
0.3747919
-0.002733903
10.89653
-50.71073
-17.70651
-1.808885
-0.8377371
18.48053
-2.255732
0.06783016
-0.01710513
-3.125001
0.02447222
-42.35385
-28.08629
-18.22554
11.15514
8.331441
0.009897908
-35.17275
-43.24838
-64.36189
1.39666
-7.216809
-2.281586
-0.2231927
0.02473272
0.004632874
0.06459468
0.01572869
0.03510892
0.3651099
0.1062535
0.05067742
-25.56069
0.09439813
-0.4832202
-0.8234436
10.56647
19.48753
0.01391412
-25.60793
-34.07578
-15.53502
6.672001
-4.574045
-8.566579
-12.72729
-56.45761
-0.002123182
-35.13729
0.4215841
-46.21903
-18.92498
0.06082832
0.2867335
-37.47401
0.1929439
14.05707
-0.07481919
0.02358218
1.435811
-0.003689876
0.0441989
0.06779183
-0.4162023
-0.7110121
0.3716852
-28.94639
0.01367563
-0.2029869
0.2747871
0.1942303
0.161576
-29.72801
0.1671959
-38.1779
-1.438574
0.392076
21.61414
0.005453645
0.3444587
-40.13276
-2.355018
-75.74067
0.3346508
0.02200747
0.001097093
-0.0356313
0.5400819
0.02224521
0.5437451
-1.038657
-0.000510069
0.01844235
0.004605184
21.91721
1.728551
-14.64183
3.867114
0.6983631
-0.01405135
-75.2093
-0.00121482
0.01281061
2.114011
1.170947
0.1999747
-50.84119
-28.47097
-39.56911
0.003505267
0.1453295
-32.92299
0.1943423
-26.11049
-0.7910488
0.5066669
2.104022
-33.4837
0.3708331
-59.89654
-0.2636963
-2.138691
0.002188093
0.6340016
9.310684
-0.3664397
-1.333616
0.2983866
0.03517365
-1.706481
15.41299
-1.667669
4.048184
-0.1666416
0.2504383
0.0108342
0.8407464
0.9178947
-1.189365
0.09857566
-8.997208
0.01538821
0.002430464
-30.94172
0.1663651
0.01482823
-8.303638
-5.227856
-0.07548662
-0.05175368
0.9691431
0.00218745
0.6146849
-67.41197
26.57671
-7.654249
0.07101593
0.1256132
-27.80778
-0.003435366
0.0009487773
0.33789
0.594491
-1.402896
-0.05960137
-1.030285
-11.62492
-1.365342
20.82431
34.87091
0.9107676
1.240825
1.420021
0.6329869
0.3390797
0.007062404
32.97972
-32.10736
0.03561515
1.944981
0.262081
0.625347
0.1173565
0.06681231
1.166165
0.148311
0.5278367
-30.54524
-0.1425666
0.4893134
0.2038708
-35.27438
-12.249
-3.512967
0.01576531
-72.26752
27.06348
-19.00614
-0.6002149
-9.954744
-5.001335
0.005624832
0.9036739
31.89045
0.4747007
0.03255601
0.6553303
-1.173668
0.01029931
-71.31698
0.2203589
0.01004234
0.09524186
0.04327755
19.31617
0.1675328
0.5091386
0.2883501
0.01738764
0.3011267
19.43944
2.223129
6.644811
-44.21289
-22.06303
0.07479858
0.02765923
-46.09801
0.1524697
-30.12428
0.1805698
0.09967237
0.6988828
-0.8597375
0.6770697
-14.42871
1.231633
0.4058143
-4.429804
0.01506891
0.02177878
-2.951343
-50.40364
-17.43669
-0.9335734
2.387337
0.01226069
0.002074813
0.9705608
0.208618
-0.3212223
-0.4897679
-68.29392
0.9440601
-2.9535
-2.783992
-65.048
0.5113492
0.7879949
-9.654249
2.802017
1.698461
-0.1595259
35.52192
0.01846664
-0.09024566
-0.6508796
-0.342791
8.288001
-22.9637
-34.96078
13.37589
0.5960737
0.1113454
-0.1830651
-0.08654271
0.009384304
0.05670856
0.08087801
0.2628322
-0.3063189
-0.2457345
0.0268708
-0.6145551
11.74243
7.796882
0.1141065
0.06102995
-2.147116
-1.943344
0.05357595
1.630196
9.585558
-45.5024
-7.594359
-0.05466557
0.2416049
-68.16625
42.37655
-81.90012
0.5004848
0.6995902
3.610397
0.338913
8.473638
-21.53827
0.01908753
3.035624
-0.9635068
2.212649
-0.07387901
0.04707798
-0.8058174
-81.29121
0.4949548
0.2184644
-2.116548
0.108015
-45.78512
-42.91507
-32.53887
-0.08955887
14.6678
0.1955299
0.2171594
0.269776
-0.1140908
-63.87509
0.02858485
2.466735
31.31404
0.2176143
0.08523658
0.07092311
26.17379
4.514147
1.415379
2.160839
0.1470321
-0.01121826
-0.02343221
-67.65639
0.05010196
-76.74049