/*--------------------------------*- C++ -*----------------------------------*\
| =========                 |                                                 |
| \\      /  F ield         | OpenFOAM: The Open Source CFD Toolbox           |
|  \\    /   O peration     | Version:  2406                                  |
|   \\  /    A nd           | Website:  www.openfoam.com                      |
|    \\/     M anipulation  |                                                 |
\*---------------------------------------------------------------------------*/
FoamFile
{
    version     2.0;
    format      ascii;
    arch        "LSB;label=32;scalar=64";
    class       volScalarField;
    location    "0.14";
    object      p;
}
// * * * * * * * * * * * * * * * * * * * * * * * * * * * * * * * * * * * * * //

dimensions      [0 2 -2 0 0 0 0];

internalField   nonuniform List<scalar> 
4529
(
-3.16817e-07
-1.222426e-07
1.084779e-07
3.21589e-08
-6.638232e-07
-2.715528e-08
-1.208873e-06
6.7206e-08
-8.113104e-07
-1.981496e-08
-4.315181e-07
-1.375422e-08
-1.803507e-08
-2.686121e-08
-1.314967e-07
-2.428899e-07
1.313362e-07
-9.670875e-07
-2.401297e-07
3.896987e-07
-7.728176e-07
-2.513623e-07
-4.625275e-07
-2.920145e-07
-7.168539e-08
1.243723e-07
-7.673875e-11
-4.849225e-07
2.923684e-08
-1.11103e-07
-5.26246e-07
-2.968538e-07
-7.733088e-09
6.181072e-09
-3.338302e-07
-7.781487e-07
-2.707858e-08
-1.550305e-07
-2.631656e-08
1.435425e-08
-1.219076e-08
-6.407072e-08
-1.661915e-07
-3.484664e-07
-8.658498e-08
-7.128021e-08
-2.047552e-07
-2.071264e-07
-3.298443e-07
-8.744747e-07
-1.408691e-07
-2.715559e-08
-2.192699e-07
5.053692e-08
6.963687e-08
3.161633e-07
1.682814e-08
-4.266568e-07
-6.107152e-07
-5.754833e-07
4.810765e-08
-1.456677e-07
-1.083653e-06
-3.951514e-07
7.970621e-09
-1.56227e-07
7.591984e-10
-9.246854e-08
-1.372231e-07
-8.51095e-07
-5.094371e-07
4.147947e-09
-2.151163e-07
9.015521e-08
-2.610249e-07
1.115283e-08
5.652475e-09
-1.730063e-07
-1.536499e-07
1.579764e-07
-5.101072e-07
1.573876e-08
-5.723061e-07
-1.131959e-08
-7.297432e-07
-1.083776e-06
-4.735269e-07
-4.122421e-07
1.031143e-08
4.481792e-08
-2.17368e-07
-4.274954e-07
-1.696533e-07
-3.418137e-07
-7.710997e-07
-1.391498e-06
-9.383511e-07
-6.551034e-07
-2.648318e-07
-4.291944e-07
-1.679033e-07
-1.018717e-07
-1.673667e-08
-5.854779e-07
-4.312406e-07
-1.147348e-07
-1.670435e-07
3.159595e-08
-1.500755e-07
-3.965381e-07
-4.357253e-09
-2.082846e-07
-9.98207e-07
-4.3626e-07
1.220047e-07
-4.322879e-08
-2.083845e-07
-3.683549e-07
-1.005841e-06
-1.143897e-07
-1.125607e-07
-5.94929e-09
-6.526388e-08
-1.886443e-07
4.250931e-08
-1.197916e-06
-1.354944e-08
-4.987816e-08
-4.122217e-08
-8.211496e-08
-3.644837e-08
-2.031418e-07
-1.680854e-07
-4.177498e-07
-5.368396e-07
-7.971384e-09
-4.309188e-08
-1.068838e-06
-1.1439e-07
-2.247701e-08
1.843177e-08
1.098409e-08
-4.88758e-07
1.591369e-09
-3.472442e-08
2.165756e-07
-7.566711e-07
-1.03792e-06
-1.401158e-07
-1.026406e-06
-1.93543e-08
-9.107096e-08
9.565279e-09
-1.523144e-07
-1.098845e-06
-7.512178e-07
-2.610051e-08
-3.918252e-08
1.628754e-07
-3.668176e-09
-2.754023e-08
-1.023504e-07
-3.55353e-07
-2.014206e-07
-7.376891e-08
-3.73205e-07
-1.018451e-06
1.429101e-07
-5.652959e-07
7.10943e-08
-7.645324e-08
-4.652098e-07
-1.320087e-06
-8.979087e-08
-3.597741e-07
-6.230993e-07
3.333781e-08
-2.416924e-07
-6.004831e-08
-1.004352e-06
-5.483191e-08
-2.791983e-07
-2.249182e-07
5.892416e-08
-1.673527e-07
2.481461e-07
2.619505e-07
-1.795208e-07
-1.450514e-07
-9.057161e-07
-1.613516e-07
-1.473488e-07
3.130254e-08
-2.801238e-07
-2.598352e-07
-2.058307e-07
-4.953011e-07
1.497118e-08
-1.845389e-07
-2.52466e-07
-1.62693e-07
-1.739902e-07
-1.535738e-07
-3.390898e-07
8.566933e-08
-2.533238e-07
-2.000861e-07
-1.300095e-07
2.262029e-08
-1.177027e-06
-1.073629e-06
-6.457127e-08
-3.132338e-07
-7.194291e-07
-9.078591e-08
-8.894934e-08
-9.642103e-07
-4.667794e-07
-1.187662e-06
-7.496237e-07
1.864753e-08
-6.269919e-07
-7.214201e-08
1.061205e-07
-6.239488e-07
-4.473627e-07
-3.209986e-07
-4.572333e-07
-2.019995e-07
-2.253145e-07
-1.255983e-06
-1.4918e-07
1.621431e-08
-4.240069e-07
-1.261132e-07
-1.0992e-07
-7.601852e-09
-7.230156e-08
-3.560787e-07
-3.611618e-08
1.272468e-08
-4.138175e-07
1.817163e-08
-3.890158e-07
-4.015384e-07
-4.802947e-07
-3.583081e-07
-1.252712e-06
-8.579112e-08
-8.149018e-08
-2.153103e-07
-2.487402e-07
-9.686325e-07
7.36375e-09
-5.653628e-07
-1.206727e-08
3.667325e-09
-1.126714e-07
-6.135388e-08
-6.778918e-07
-2.721332e-07
-1.563245e-07
-4.700035e-07
-2.869516e-08
1.191297e-08
-8.106175e-09
-3.626535e-08
-1.824936e-07
-1.584114e-07
-8.798422e-08
-5.31184e-07
-4.595244e-07
-1.33363e-07
-3.757193e-07
1.81445e-08
-7.17189e-07
-3.166003e-07
-9.556125e-09
-3.59928e-07
4.234786e-08
4.037284e-08
4.923257e-10
2.286261e-08
1.912475e-08
1.495253e-07
-7.535475e-07
-1.349245e-08
-2.628737e-07
-3.139969e-07
5.398599e-07
-9.365179e-07
7.278765e-07
-3.641784e-08
3.881952e-08
-5.514244e-08
-3.32491e-07
-3.013369e-07
-1.269335e-09
-1.108819e-06
-9.390223e-07
-7.521534e-08
-4.610396e-07
-4.919948e-07
-4.851822e-07
-3.082962e-07
3.855771e-07
-1.152053e-07
-1.257109e-06
-5.632451e-07
-1.202169e-07
1.17639e-07
-9.884953e-08
-8.511502e-07
-2.883827e-07
-2.795413e-07
-1.32697e-07
-3.956679e-09
-5.615473e-07
-7.859078e-07
1.156657e-07
-2.985024e-08
6.470439e-08
-1.41703e-07
-1.573599e-07
-3.708945e-08
-4.694128e-08
-5.008667e-07
-1.551915e-07
-1.535467e-07
-2.322539e-07
-2.351723e-07
-5.677279e-08
-2.209415e-08
-3.673036e-07
1.69121e-08
-8.060009e-08
4.187689e-08
-1.448435e-07
-3.093567e-07
-1.792983e-08
-7.407963e-08
-1.228434e-06
-9.567567e-07
-2.370205e-07
-3.518291e-07
-2.015177e-07
-1.780355e-08
-2.487959e-08
-8.781086e-07
1.980942e-08
3.954745e-08
1.992483e-08
-1.290167e-06
-9.322761e-08
-1.535182e-08
6.56105e-07
-5.304015e-08
-1.431304e-07
-6.265094e-09
-1.42383e-07
5.869651e-08
-4.160722e-07
-2.581876e-07
-7.606793e-07
-5.202544e-07
-8.73654e-08
-1.140814e-07
-2.859202e-07
8.941028e-08
-7.760027e-07
-3.104351e-07
-7.842779e-07
-3.071104e-07
6.970004e-08
1.299335e-07
-5.873569e-07
-3.837445e-07
4.63853e-08
2.491072e-08
-1.940427e-07
-2.352364e-07
6.313985e-07
5.850602e-08
-4.057009e-08
-1.109925e-07
-7.072181e-08
-4.014452e-08
-1.813049e-07
-5.336699e-07
1.134839e-07
-7.731336e-07
-1.652635e-07
-2.322637e-07
-9.664629e-09
1.599974e-07
-9.821848e-08
2.519766e-07
-8.537595e-08
-4.083784e-08
2.03903e-09
-1.321172e-07
-2.989024e-08
-2.055545e-07
-1.295247e-07
-1.177647e-06
1.323865e-07
-7.175131e-08
-2.443594e-07
1.684442e-08
-5.118404e-07
-8.220504e-08
-3.610382e-07
-6.757816e-07
1.720052e-07
-2.105047e-07
-9.483922e-08
3.386659e-08
-8.780423e-08
7.645799e-07
-1.503708e-07
-1.136011e-07
-8.365986e-08
-5.010262e-08
6.032752e-09
-5.3302e-08
1.5383e-07
-1.142802e-06
2.459555e-07
-1.001249e-06
-9.764231e-07
-1.459037e-07
-6.052309e-07
-6.040198e-08
-5.508356e-07
7.267849e-08
-4.140017e-08
-6.081374e-07
-1.645894e-07
-1.663068e-07
9.046314e-09
-1.187121e-10
-2.94695e-08
-4.159199e-08
-9.4915e-08
-2.758994e-07
-6.967423e-09
-8.185455e-07
-7.706866e-07
-5.930746e-08
-1.528404e-07
-1.684762e-07
-1.772507e-07
-1.081077e-07
-1.251538e-07
-8.355303e-08
-2.238957e-07
-1.986581e-07
-1.19736e-07
-1.059229e-07
-2.160863e-07
-4.129292e-08
-1.682572e-07
-1.683761e-07
-1.038894e-07
-5.951627e-07
-2.666028e-07
-9.439608e-07
5.691063e-08
3.419925e-09
2.134207e-08
-2.198117e-07
-2.400565e-08
-2.33243e-08
1.201699e-07
-2.552837e-07
-7.160317e-07
-8.487265e-07
-9.660708e-07
1.571331e-08
8.54556e-08
-2.678389e-07
1.337521e-09
8.263472e-09
-5.060811e-07
-7.552839e-09
-1.063675e-06
-2.150642e-07
-1.238908e-07
-1.157445e-06
-2.655387e-08
-7.311845e-08
5.647757e-08
3.722253e-08
-3.432663e-07
-4.484951e-07
-5.949219e-07
-6.441027e-07
-8.017801e-07
3.902035e-09
2.988398e-09
-2.193731e-07
-1.009764e-06
-7.102982e-08
-4.533569e-08
-8.373978e-09
2.41424e-08
-1.483276e-07
-1.351505e-07
-7.1427e-09
-1.006899e-06
-2.261977e-07
-7.564483e-08
-1.297309e-07
-3.722011e-07
-3.062849e-07
-7.143677e-07
-2.156044e-07
-1.111723e-07
-1.965774e-07
-5.601908e-07
6.355295e-07
-6.623896e-07
-2.468351e-07
8.352646e-07
1.71329e-07
4.40231e-08
1.91159e-07
-3.538406e-07
-3.313918e-07
-3.002015e-07
-6.545161e-07
-7.336224e-07
-6.976707e-07
-1.140199e-07
-8.204282e-08
1.69505e-08
-4.941298e-08
-5.910025e-08
-8.432027e-08
-6.138385e-08
-7.614599e-09
-1.013265e-07
-2.248988e-07
-3.940457e-08
9.002252e-10
1.220245e-07
-6.886232e-08
-1.986779e-07
-6.31421e-07
-3.67547e-07
-3.199381e-07
-3.367447e-07
-2.837957e-07
-2.7403e-07
4.740028e-08
5.03533e-09
-3.794588e-07
-1.037693e-06
-5.012371e-07
-4.264071e-07
-4.514889e-08
-6.372029e-08
-2.477502e-07
-5.023087e-07
-3.596021e-08
-2.709235e-07
-2.414185e-07
-2.268577e-07
-1.759454e-07
1.03651e-08
-2.783837e-07
-2.409596e-07
-4.455843e-08
-6.951612e-07
1.133627e-07
-3.831502e-07
-1.235161e-07
-1.066947e-06
4.579502e-07
-2.463468e-07
-3.969919e-08
-2.355809e-08
-6.427925e-07
-2.01958e-07
-6.112184e-07
-5.406757e-09
2.026369e-09
3.056704e-09
-9.069975e-07
-1.366413e-07
-4.85168e-08
-5.751138e-09
-4.722519e-08
-8.750527e-08
-9.383704e-08
-9.232011e-08
1.045069e-07
6.970002e-08
2.193245e-07
-8.543784e-07
-7.795444e-07
-2.589093e-08
2.511631e-07
-3.761628e-07
6.759529e-08
-2.056887e-08
-1.690312e-08
1.680815e-07
-1.471184e-07
9.562033e-08
-1.603807e-07
2.116145e-07
-1.202828e-06
-4.307591e-07
1.298011e-09
-5.878159e-07
-2.536495e-08
-1.850924e-08
-1.407436e-07
4.897866e-07
-1.149086e-07
-8.096282e-07
-5.052626e-07
-3.38492e-07
-4.404235e-07
-3.319124e-07
-2.725083e-07
3.091799e-07
2.21585e-08
-2.186192e-07
3.808828e-07
-5.862486e-08
-3.287205e-07
-1.848516e-07
1.673998e-08
-1.172656e-07
-5.347353e-08
-1.798824e-07
-2.68341e-07
-1.433797e-07
-2.258222e-07
1.766942e-08
8.895402e-08
5.92918e-07
-6.16362e-07
4.014159e-08
-1.189697e-07
-7.116054e-07
3.259025e-08
1.647669e-08
8.813738e-08
-6.814878e-07
-3.378902e-07
-3.069971e-07
-3.27301e-07
-6.968224e-07
-5.58696e-08
-1.748146e-08
-9.398026e-09
-5.884908e-07
-6.401629e-07
-2.314322e-07
-6.56961e-07
-6.502859e-07
-6.338664e-07
6.094722e-09
-1.188724e-06
8.111844e-08
-9.903616e-08
-4.401362e-08
-1.135873e-07
-7.880292e-07
-3.431368e-07
1.141462e-08
-6.74933e-08
-2.558033e-09
-5.028242e-08
4.693083e-09
-4.69242e-09
2.407585e-09
-6.721751e-07
-1.420475e-07
-3.471737e-07
-1.298227e-07
-1.26907e-07
-1.065829e-07
-3.583386e-07
1.797838e-08
1.835135e-08
-9.067036e-07
4.59855e-08
1.153534e-07
4.328102e-08
3.869269e-09
-1.176551e-09
-2.005792e-07
1.791966e-08
-1.778826e-07
-3.174635e-07
-1.435589e-07
-2.820156e-07
-1.601794e-07
-4.16036e-07
-7.442782e-08
-4.0656e-07
1.977573e-07
-1.952046e-07
-3.307051e-07
-1.008618e-08
-5.852528e-07
-4.173617e-07
-3.789349e-07
-2.063645e-07
-2.084484e-07
-4.625585e-07
-4.595282e-07
-2.399153e-07
-1.080904e-07
-3.422652e-08
-3.859965e-07
-2.856912e-07
-5.79264e-08
-2.745073e-07
-9.150841e-07
-2.917068e-07
-1.136955e-06
-2.035945e-07
-2.042822e-09
-2.069869e-08
-8.316351e-08
-1.239442e-07
-1.016967e-07
-1.057224e-07
-1.271245e-07
4.003687e-07
-5.705516e-07
-2.354139e-07
-7.888121e-07
5.603669e-08
1.180647e-08
2.880399e-08
3.404488e-08
-9.631037e-08
-1.333268e-07
1.363512e-07
9.372686e-08
-8.498283e-08
-2.792783e-08
-5.106169e-07
-5.786657e-07
-5.232974e-07
-5.003997e-09
8.219141e-08
-3.686257e-08
-3.003437e-08
-3.429366e-08
-6.067741e-08
-9.06026e-08
-5.428907e-08
-7.162735e-08
-1.198276e-07
3.615813e-08
-3.71565e-07
-4.058744e-08
1.508061e-08
-6.996394e-07
-3.843333e-07
-3.132623e-07
-1.24538e-08
6.906433e-10
1.572785e-09
4.607895e-08
-3.406906e-08
-2.017063e-08
-4.481725e-08
-9.12885e-08
1.612015e-07
-5.054638e-07
-6.096116e-07
-1.153509e-06
-9.447209e-07
-1.23221e-07
-4.387846e-07
-4.977776e-07
-4.282157e-07
-3.17898e-07
-1.004205e-06
-7.686947e-07
-1.028978e-06
-9.193063e-07
-1.096169e-06
-1.276655e-06
-5.515683e-07
-5.672448e-07
-5.997793e-07
-5.147257e-07
-5.392334e-08
-6.494987e-08
-2.218499e-08
-8.708381e-08
1.105501e-09
-8.186535e-07
-7.790772e-07
-3.104807e-08
-7.996467e-08
-5.22703e-08
-8.584345e-08
-5.199135e-07
-2.969557e-08
-5.960164e-08
-1.75662e-08
-1.573226e-07
-1.059653e-08
-5.81765e-07
-4.275952e-07
-6.809467e-08
-1.017466e-07
-5.192766e-07
-5.615861e-07
-4.020099e-07
-4.687652e-07
-3.665122e-07
7.527609e-08
4.389747e-09
-4.074906e-07
-2.764874e-07
2.00483e-07
-3.280039e-07
-4.161856e-08
4.722676e-08
-3.174881e-07
3.334387e-07
-6.233505e-09
-2.22211e-08
-1.170908e-06
-1.484594e-08
4.026654e-08
-2.476951e-08
2.583983e-07
3.547789e-09
-4.418674e-07
2.25634e-08
-1.113275e-06
-1.034159e-07
-4.883587e-08
4.237553e-07
-1.126267e-07
-1.559956e-07
-2.676996e-07
-3.251968e-07
-5.077918e-07
-4.758221e-07
-8.782235e-10
-5.107864e-07
-2.714714e-07
-1.090829e-06
2.025061e-08
-8.319274e-08
-1.937462e-07
-7.276817e-07
-5.240481e-07
-5.188893e-07
-6.365289e-07
-4.889928e-08
-2.265397e-08
-1.530138e-08
-7.734659e-07
1.960384e-07
9.328983e-09
6.794884e-08
-2.95573e-07
-3.484826e-07
-6.191091e-07
-7.704961e-08
-8.994248e-07
-7.333313e-07
-1.851086e-07
-1.310957e-06
-4.952506e-07
-5.474555e-07
1.142225e-08
-6.081747e-07
-1.032985e-06
-4.286553e-07
-1.462096e-08
-2.014091e-07
1.011145e-08
-2.21969e-07
-5.21371e-07
-4.298006e-07
-4.715869e-07
-4.643519e-07
-3.665621e-08
-5.298859e-07
-3.711292e-07
-8.796112e-08
-4.348109e-07
-6.1279e-08
-4.151728e-07
-6.913412e-08
-2.597364e-07
-4.447685e-08
-1.172304e-07
-1.312338e-07
-1.647946e-07
3.095968e-08
-3.249052e-08
-1.808621e-07
-8.589395e-07
5.060665e-08
-2.799305e-07
-4.671944e-08
-3.272459e-07
-3.500778e-07
-6.401432e-07
2.057163e-07
-1.005677e-07
-8.759393e-08
-1.263038e-07
-1.002475e-07
-9.058684e-07
-5.623475e-08
-1.496116e-09
-1.973147e-08
2.120079e-08
-3.566361e-07
-2.309638e-07
-2.126784e-07
-4.80852e-07
-5.997824e-09
7.070605e-08
-5.974316e-07
-6.616468e-07
-1.42851e-07
-9.779201e-08
-1.062891e-07
-8.481943e-08
-1.218818e-07
-5.717042e-07
-1.087557e-06
-1.877012e-07
-4.922891e-08
-4.787129e-08
-1.07432e-08
-6.653495e-07
-7.65085e-07
-6.513154e-07
-7.124319e-07
-8.427984e-07
-8.334815e-07
-4.85847e-07
-8.099474e-07
-7.172564e-07
-8.999987e-07
-6.157345e-07
-1.829427e-07
-1.185509e-07
-1.760772e-07
3.348511e-07
1.807162e-07
-4.744521e-07
-4.429116e-07
-2.877779e-07
-7.99084e-07
6.911836e-08
-4.104333e-07
-3.807239e-07
-3.47258e-07
-9.947481e-07
-5.410162e-07
-5.553667e-09
2.67299e-09
-2.85743e-08
-5.104554e-08
2.140334e-08
-6.672266e-08
5.326088e-08
-4.359482e-07
-6.512919e-08
-6.221506e-08
-5.252735e-08
-4.945174e-08
-7.698482e-08
-1.585613e-07
-2.095688e-07
-1.252902e-07
-1.322831e-07
-8.308382e-08
-6.600718e-08
-9.987722e-08
-6.744091e-07
-5.767606e-07
-3.612804e-07
-4.203775e-07
-1.671819e-07
2.075784e-07
1.738043e-07
-1.204238e-06
1.582826e-08
-1.880892e-07
-4.457355e-07
-4.364749e-07
-2.696589e-07
-3.354595e-07
-2.627593e-07
6.857311e-09
-7.887349e-08
-6.142963e-07
-2.148912e-07
-2.210869e-07
-2.591804e-07
4.240233e-07
9.300749e-09
-1.093218e-07
-1.322956e-07
4.201249e-08
-5.445986e-08
-2.707874e-07
-2.629398e-07
2.646174e-07
-1.355656e-06
1.048369e-08
-1.984878e-07
-1.9381e-07
-2.825708e-08
-7.965103e-07
1.779691e-07
-5.919789e-07
-1.27202e-07
-7.222199e-07
-4.479437e-07
-3.101143e-07
-6.220389e-08
-1.094841e-07
-2.278643e-08
-3.911788e-07
-3.14493e-07
-3.508331e-07
-4.367343e-07
-3.847591e-08
-8.367947e-07
-6.068209e-07
-6.978447e-07
-5.338804e-08
-8.486455e-08
-2.993827e-07
-2.494626e-07
-4.172541e-07
-2.357878e-08
-4.788955e-08
-2.601382e-07
3.984199e-07
-3.541432e-07
1.544172e-07
-2.208503e-08
-5.361391e-09
-5.2569e-08
-6.916216e-08
-2.98449e-07
-2.368221e-07
8.710188e-08
-2.175071e-07
-2.163661e-07
-1.56914e-07
-5.4751e-08
-1.470058e-08
-9.646212e-09
2.785115e-07
-1.099064e-06
2.136734e-09
-3.303247e-09
-4.04663e-08
-3.044747e-08
-7.022343e-07
-3.783723e-07
-2.455756e-07
1.530538e-07
-1.21099e-07
-1.183911e-07
-9.735787e-08
-2.483401e-08
-5.114865e-08
-3.596052e-08
-1.210492e-06
-1.139046e-06
-1.014448e-06
-1.020107e-06
-9.176001e-07
-9.402325e-07
-1.153908e-06
1.001024e-07
2.37365e-08
-5.33448e-07
3.012835e-07
2.766089e-07
-3.76184e-07
-5.889288e-07
5.78759e-09
-3.208334e-07
-2.65045e-07
-3.337749e-07
-3.486844e-07
-3.680835e-07
-3.558001e-07
1.567733e-07
6.638659e-08
1.677168e-07
-9.184905e-07
-2.822298e-07
-3.680079e-07
-3.011347e-07
-2.482062e-07
-3.500623e-07
-6.855883e-07
-7.391115e-07
1.028731e-08
3.569804e-08
2.368301e-08
-2.864129e-07
-2.884442e-07
-3.08183e-07
-3.072837e-07
-1.946592e-07
-1.071518e-07
-1.241611e-06
-1.94025e-07
-2.260663e-07
2.431735e-08
-4.410984e-07
-4.70958e-07
-4.281748e-07
-2.368849e-08
-9.642111e-08
-3.256148e-08
-1.353346e-07
3.025195e-07
-1.76355e-08
1.005014e-07
9.287121e-08
-1.62454e-07
-6.226021e-07
-6.591838e-07
-4.906374e-07
-5.37652e-07
-6.283642e-07
-2.594243e-07
-1.863086e-07
-6.194216e-08
1.222148e-08
-2.086875e-07
-1.790692e-07
-6.130192e-07
-7.878118e-07
-4.421826e-07
-3.166202e-08
-1.20717e-08
-1.246274e-06
8.656719e-09
3.51489e-08
3.159785e-08
3.734439e-08
-4.705524e-07
-2.455956e-07
-6.64226e-08
-3.099134e-07
-1.228755e-07
-2.155967e-07
-3.898663e-07
-1.821326e-07
-1.484487e-07
-7.870742e-08
-8.169445e-08
2.472502e-07
-8.947528e-07
-8.570464e-07
-2.85851e-08
2.519063e-07
-9.437275e-07
-1.161038e-10
-3.693972e-08
-3.785863e-09
-1.33121e-07
-2.763833e-07
-3.591922e-07
1.599613e-07
-2.147348e-07
-1.846152e-07
-7.350737e-08
-1.492656e-07
-1.341831e-06
-1.400381e-06
-3.531265e-07
-2.717e-07
-1.160695e-08
1.420394e-07
1.443525e-07
7.119406e-07
-8.883912e-07
-4.014159e-07
-1.76437e-08
-4.281848e-07
-1.844758e-08
-6.159173e-07
2.484972e-08
-9.968889e-08
-9.992185e-08
-4.286172e-08
-1.25582e-06
5.097297e-08
-1.0182e-06
2.597056e-09
-2.372286e-08
-2.581952e-08
-2.073382e-07
1.976459e-07
-9.468526e-07
-9.69749e-07
-7.308393e-07
-3.150711e-07
-3.060255e-07
-5.720784e-08
-7.350159e-08
-2.001461e-08
-1.811907e-07
-1.386745e-07
-3.343713e-08
8.739303e-08
1.32253e-07
-2.736543e-07
-1.778481e-07
1.927028e-08
-2.962811e-07
-2.376818e-08
2.429278e-07
-1.541099e-07
-2.142338e-07
-1.736536e-07
-3.97152e-08
-5.223404e-08
-2.576765e-07
-2.24082e-07
-8.085533e-07
3.457857e-07
3.719502e-07
-7.815031e-07
-1.132202e-06
1.929085e-07
-4.836867e-07
-1.734642e-07
-7.199723e-08
-1.717156e-08
-4.059161e-07
-3.654693e-07
-1.978363e-07
-1.516732e-07
1.584716e-07
-7.690894e-09
-8.680032e-07
-4.963021e-08
-9.022617e-08
-7.944248e-07
2.315851e-07
-1.731625e-07
-6.962221e-08
2.223308e-07
-9.807153e-07
-1.009789e-06
-1.029777e-06
-2.471463e-07
-7.841632e-08
-9.313466e-08
-1.954749e-07
-1.856741e-07
1.400528e-07
-1.186908e-07
-8.724051e-07
-4.304678e-07
-1.261837e-06
-2.342661e-07
2.677593e-07
-6.441132e-07
1.074051e-07
-3.664794e-07
-3.539983e-07
6.043113e-08
4.608437e-08
-3.752456e-08
-3.324381e-08
-1.367871e-06
5.053815e-07
-7.802454e-07
-1.325231e-06
-8.85281e-08
-6.236941e-08
-3.157679e-07
2.223177e-08
-7.494141e-07
-1.524901e-08
-1.519449e-08
-2.428177e-07
-5.105189e-07
3.6367e-08
-1.250626e-07
-4.734655e-08
-1.497494e-07
-1.273343e-07
-2.318558e-07
-5.805648e-07
-4.849233e-07
-7.862943e-08
-8.884908e-08
-7.334359e-08
1.647173e-08
-4.933021e-08
-6.107836e-07
-6.331458e-07
-3.900816e-07
-4.08797e-07
-4.213682e-07
-6.284998e-07
-1.091985e-07
-9.960414e-08
-1.383866e-06
-8.970765e-08
1.768957e-08
-6.671686e-07
-5.262293e-08
-3.474304e-07
-2.753753e-07
-2.746657e-07
-2.403462e-07
-1.776725e-07
-4.383294e-07
1.032643e-09
-6.428398e-07
-1.227309e-06
4.266405e-09
-4.68038e-07
-5.082904e-07
-3.626972e-08
-1.110199e-06
7.606659e-08
2.711253e-07
-3.55537e-08
-1.977641e-07
4.558648e-09
-3.054615e-07
-1.810191e-07
2.854402e-09
-7.09071e-08
-2.401143e-08
-5.05748e-08
-1.416128e-06
-6.322877e-07
-2.442331e-07
-2.233577e-08
-1.149377e-07
-1.79985e-07
-4.604993e-08
-5.383645e-08
-5.01831e-07
-2.761595e-07
1.772074e-07
-8.965098e-08
-3.113028e-08
-1.044336e-07
3.480258e-09
-4.219408e-08
1.247703e-08
-4.076181e-07
-8.741107e-07
5.108285e-10
-2.14359e-07
-4.519898e-07
-1.84402e-07
8.64987e-09
-4.47579e-07
-3.87933e-07
-3.408279e-07
-3.433617e-07
-1.793541e-07
-1.044149e-07
-7.821526e-08
-2.545014e-08
5.352195e-07
-3.054532e-08
4.068351e-07
4.588274e-07
-2.556027e-08
-1.417806e-07
-1.044117e-07
-7.825813e-08
-2.972745e-08
-2.634867e-08
-2.346014e-07
-2.812285e-07
-1.358696e-07
-8.420196e-09
-4.359484e-07
2.002408e-09
-1.14834e-07
-6.86325e-08
-4.782159e-07
-1.586708e-07
1.066959e-07
-9.722414e-07
-8.002129e-07
-3.563385e-08
-3.077603e-09
-5.381649e-07
-6.215165e-07
-7.537328e-07
-1.202485e-06
-1.729423e-07
-9.246366e-09
-3.501676e-08
-4.822571e-08
-1.108298e-07
1.571352e-08
5.428895e-08
4.465235e-08
1.8726e-08
1.147881e-08
-9.284909e-08
-8.24091e-08
1.310473e-08
9.274774e-08
-6.88877e-08
-1.377602e-07
-2.747353e-07
-1.34037e-07
-1.089167e-07
-1.053192e-07
-7.712341e-08
-2.572389e-07
-1.063936e-06
-2.977307e-08
-2.680096e-08
-2.622359e-08
-2.348041e-07
3.266737e-07
-7.385023e-07
-7.28782e-07
-2.459714e-08
-1.194173e-09
-1.134759e-08
-2.898602e-08
-4.625648e-08
-5.732552e-08
-6.127914e-07
1.357941e-08
-7.203684e-08
-1.070701e-07
-1.901232e-07
-1.877532e-07
-1.55845e-07
-1.739183e-07
-1.519513e-07
-1.392983e-07
-6.016274e-08
-5.501366e-08
-3.360912e-08
2.93411e-08
4.534192e-08
1.541201e-07
-4.852121e-08
-7.194336e-08
-7.818562e-08
-9.868772e-08
-1.998632e-08
-1.359577e-07
-2.465256e-07
-1.338471e-07
-9.854027e-07
-7.380849e-08
-5.22293e-10
-6.889373e-07
-3.149829e-07
-2.585965e-07
-2.588652e-09
-4.132555e-09
-4.3178e-07
-4.511412e-07
8.540009e-07
-2.152872e-07
5.567086e-08
1.487686e-08
-3.172604e-07
-1.499812e-08
-8.194814e-09
-2.200038e-08
-6.203532e-08
-5.77124e-07
-5.50774e-07
-2.237887e-07
-8.137828e-07
-3.357211e-07
-6.140627e-07
5.031032e-07
5.50535e-07
-1.800627e-07
-1.214859e-07
-1.288498e-06
2.239076e-08
1.109177e-08
-2.78979e-07
-2.411761e-07
1.975092e-08
1.988454e-08
-1.295544e-08
3.367554e-08
3.558393e-08
-4.980872e-08
-3.237443e-07
-4.91296e-07
-7.844843e-07
1.175746e-07
1.166409e-07
1.320495e-07
8.514388e-08
3.198487e-08
5.910206e-08
-3.736012e-07
-4.590827e-07
-5.180829e-07
-6.007004e-07
1.850623e-08
3.610787e-07
-2.342863e-07
-2.073498e-07
2.294322e-08
-6.604053e-08
-2.624549e-08
-1.147152e-07
-1.101862e-07
-5.484282e-08
-7.218808e-08
-1.675707e-07
-1.259129e-07
-1.313829e-07
-1.453859e-07
1.843145e-08
1.482982e-07
-3.096738e-07
1.108944e-07
5.59919e-09
5.272794e-09
3.578351e-09
1.33097e-08
-1.37145e-06
-1.263856e-06
2.45009e-08
-3.381679e-07
-3.288831e-07
1.313918e-07
9.328269e-08
-1.629288e-07
-2.860543e-07
-5.0466e-10
-3.266962e-07
-2.560496e-08
-2.409303e-07
-4.243554e-07
-4.808229e-07
-5.001518e-07
3.090302e-07
8.34618e-08
-2.338963e-07
-1.953935e-07
-2.349023e-08
8.487666e-08
-3.762246e-07
-4.473775e-08
-3.655865e-08
-1.464538e-07
5.065832e-08
-1.393234e-07
-1.005095e-06
-1.062337e-08
4.928673e-09
-1.310226e-08
-1.394657e-08
-3.222044e-07
-3.725941e-07
-3.398949e-07
-2.444413e-07
-2.612926e-07
-7.544764e-07
6.383982e-08
-7.268341e-08
-3.102393e-08
-9.123911e-08
-8.0135e-08
-7.319123e-08
-9.250738e-08
-1.453403e-07
-1.700053e-07
-1.704639e-07
-1.489292e-07
-1.185856e-07
-1.453726e-07
-1.502513e-07
-1.265968e-07
-1.427098e-07
-1.236387e-07
-1.638305e-07
-7.779148e-08
-1.333166e-07
-5.761335e-08
-1.330316e-07
-1.166972e-07
-6.448682e-08
-9.855207e-08
-1.29763e-07
-1.548961e-07
-1.377333e-07
-1.756685e-07
-1.221736e-06
-7.078924e-07
-1.211831e-06
2.64469e-09
-4.564122e-07
4.794045e-08
-2.326795e-07
1.541072e-08
2.284353e-07
3.5543e-07
4.173266e-07
-2.576127e-07
4.486929e-07
2.042679e-07
5.672663e-08
-5.026688e-08
-1.109826e-07
-1.08965e-07
-1.350413e-07
-7.609863e-08
-7.980399e-08
-1.112e-07
-1.548353e-07
-1.179797e-07
1.567234e-07
1.010084e-07
1.44197e-07
7.442732e-08
2.088573e-07
1.97149e-07
-5.248447e-07
-5.07591e-07
-1.135553e-06
-1.105604e-06
-9.65988e-07
-3.994221e-08
-8.722076e-07
-1.148188e-08
-8.909194e-07
-5.453401e-07
-6.68051e-07
-5.602075e-07
-6.18123e-07
-5.41212e-07
2.769252e-08
-4.329582e-09
-5.564433e-07
-1.035075e-06
-9.467008e-07
-5.267015e-07
-1.000033e-06
-9.925206e-07
-1.152332e-06
-1.127061e-06
-8.860774e-07
2.434831e-08
-1.891228e-07
-1.070396e-06
-4.431647e-07
-1.665422e-07
-9.490334e-07
-4.868162e-07
-1.206465e-06
-1.302975e-06
3.821734e-07
3.484998e-08
-2.685057e-07
-2.419714e-07
-2.538717e-07
-2.886092e-07
-3.781811e-08
-1.009637e-06
-8.21829e-07
-8.688881e-07
-1.023797e-07
-8.368129e-08
-1.023978e-07
-9.064213e-09
1.122827e-07
-6.259056e-08
-6.211351e-07
-5.950317e-07
-8.15617e-07
-2.091076e-07
-1.740959e-07
-2.537728e-08
1.15731e-08
6.890087e-09
-2.213647e-08
-4.429959e-08
-2.085032e-07
-2.787251e-07
-3.04682e-07
-2.517878e-07
2.54127e-07
-3.929517e-09
4.91305e-11
-1.983604e-08
-1.484148e-07
-1.38617e-07
4.845737e-08
-4.68394e-09
-5.901907e-08
-3.349859e-08
-2.25539e-07
-9.380126e-08
3.958941e-08
-8.856537e-08
-1.315994e-08
1.16851e-07
-3.946363e-07
1.927853e-07
-2.852677e-07
5.446595e-08
1.157435e-07
-8.692168e-07
6.00205e-07
-2.624673e-08
8.259098e-09
-2.355397e-08
1.433174e-07
-1.7398e-07
-8.522009e-08
-5.985941e-08
-4.207905e-08
-3.601385e-08
2.292627e-08
7.128163e-08
-4.095694e-09
-3.185973e-07
-1.219385e-07
-1.308811e-07
-9.626451e-08
5.816707e-07
-8.83119e-07
1.269954e-08
8.667785e-09
-3.004463e-08
-3.182215e-08
-2.806313e-08
-3.752632e-08
-2.693452e-08
-8.645939e-07
-8.852507e-07
-1.847757e-08
-2.209222e-08
-1.964317e-07
-1.882139e-07
-9.603893e-08
-1.370315e-08
-1.655524e-08
-1.058059e-06
-1.024285e-06
-9.408089e-07
-1.57134e-07
-7.868926e-07
-2.687009e-07
-1.586482e-07
-1.91678e-07
-1.482908e-07
-1.108618e-07
-9.501511e-08
-1.387668e-07
-1.206098e-07
-1.273826e-07
-1.463668e-07
-8.441397e-08
-1.027252e-07
-1.066439e-07
-1.264178e-07
-5.949393e-08
-7.749344e-08
-1.770011e-07
-1.237248e-07
-1.574858e-07
-2.119453e-07
-2.388057e-07
-8.389495e-08
-9.510093e-08
-9.178413e-08
-7.280382e-08
-1.603247e-07
-1.435681e-07
-1.527022e-07
-1.666634e-07
-1.313354e-07
-1.160895e-07
-1.337176e-07
-1.511346e-07
-3.698882e-07
-2.472348e-07
-1.064182e-07
-1.233552e-07
-1.144995e-07
-9.633884e-08
-5.997912e-08
-5.547893e-08
-1.307712e-07
-1.089396e-07
-4.189999e-09
-1.04056e-08
9.553622e-09
-1.715934e-07
-1.776463e-07
2.92993e-08
-6.303436e-07
-6.364486e-07
-1.070534e-06
-3.638137e-07
-4.836979e-07
-1.881093e-07
-1.311763e-07
-6.27244e-07
-3.504628e-07
-3.356621e-07
-7.075393e-08
-3.006062e-08
-3.065087e-08
-3.494175e-08
-1.114982e-07
-1.332829e-07
-1.177865e-07
-1.541556e-07
-1.431148e-07
-5.735815e-08
-1.971197e-07
-1.62835e-07
-5.42387e-07
-9.630499e-08
-2.529998e-08
-1.904775e-08
-1.904319e-07
-2.057389e-07
-1.69439e-08
-4.142604e-07
-4.912302e-07
-3.498107e-07
-8.857473e-08
5.079264e-08
2.486673e-08
-8.594079e-07
-8.987896e-07
6.903274e-08
1.706098e-08
-3.090256e-08
-2.530854e-08
-1.410344e-06
-2.797986e-07
-3.130427e-07
-5.372468e-07
1.483836e-08
-2.53753e-07
-5.579193e-07
-4.022397e-07
-8.519706e-08
-2.600015e-07
-6.457311e-07
-1.783152e-07
1.901766e-08
-4.408704e-07
-2.944258e-07
8.850577e-08
-3.453317e-07
-3.667855e-07
-8.487068e-09
-4.81525e-07
-8.131892e-07
-8.399838e-07
-8.29381e-07
-7.564534e-08
-1.552434e-07
-1.887032e-07
-2.269027e-07
-1.612388e-07
-7.191458e-08
-1.019616e-06
-2.489338e-07
-3.464441e-07
1.764978e-10
4.041843e-07
-1.76806e-07
-4.515334e-07
-5.44584e-07
-5.273675e-08
-1.455263e-07
-5.83631e-07
-1.176975e-07
-5.726936e-08
-4.873908e-08
-7.262756e-08
-5.966413e-08
-4.126384e-08
-6.239622e-08
4.480216e-07
-4.050833e-08
-3.639294e-08
-2.116859e-08
-3.168461e-07
-2.714841e-07
-4.948824e-07
-1.572505e-07
-9.887946e-08
-7.502555e-08
1.933847e-07
-9.284394e-08
-8.503282e-08
-1.051547e-07
-1.221404e-07
-1.106384e-07
-1.39566e-07
-1.068313e-07
-9.634544e-08
-8.109922e-08
-2.138704e-09
-2.855586e-08
-3.821924e-08
-1.497837e-09
-2.374127e-07
-3.331405e-07
-1.926332e-07
-1.168689e-08
4.580192e-07
3.327056e-08
-4.583547e-08
-1.107861e-07
-6.83423e-08
-7.246056e-08
3.027267e-08
-1.145712e-06
-7.610179e-09
1.217301e-07
-4.7121e-07
-7.099416e-08
-1.148586e-07
-1.407991e-08
-7.541972e-07
-2.89161e-07
-1.21772e-06
-1.18405e-06
-1.068941e-06
-1.04365e-06
-1.588725e-08
-7.726435e-09
-2.042628e-07
-3.47463e-10
-5.615924e-07
-5.366108e-07
-6.23973e-07
-6.44681e-07
3.872299e-09
-5.86556e-10
-1.084451e-09
1.866548e-09
1.049345e-08
1.059924e-07
6.445756e-08
5.981497e-08
-1.998004e-07
-9.690829e-08
-3.234662e-07
-3.68812e-07
-1.876521e-08
-9.708585e-08
-1.307625e-07
-1.929578e-08
-3.457487e-08
-4.092656e-08
4.471592e-09
1.534282e-07
-4.051865e-07
-3.848601e-07
-4.22786e-07
-1.399886e-07
-1.31153e-07
-4.345983e-08
2.067011e-08
-6.231614e-07
-4.138611e-07
-3.305212e-07
-2.498819e-07
2.448504e-09
6.606856e-09
2.780859e-09
-1.209283e-08
-2.353988e-07
-4.130141e-07
-6.10224e-08
-5.504191e-08
-2.048113e-07
-7.15168e-07
-2.102642e-07
-1.717938e-07
-8.489538e-07
7.10591e-08
-6.147873e-08
-6.155555e-08
-1.26635e-07
-1.518312e-07
-5.596658e-08
-1.227554e-07
-1.01917e-07
-7.659122e-08
-7.055004e-08
-3.166108e-07
2.883005e-08
4.177334e-08
-4.964974e-07
-5.037256e-07
-6.955831e-08
-7.093698e-08
-9.854565e-07
-2.299494e-07
-2.061124e-07
-1.240594e-06
-1.124849e-06
-9.950139e-07
-9.310769e-07
-6.139927e-07
-5.803463e-07
-5.453917e-07
-5.081949e-07
-4.162276e-07
-4.382849e-07
-5.585877e-07
-5.938104e-07
-1.206666e-06
-1.235402e-06
-9.226891e-07
-9.497299e-07
-9.72226e-07
-1.010106e-06
-9.823696e-07
-9.880928e-07
-2.640441e-07
-4.446706e-07
-4.749667e-07
-4.513353e-07
-3.233813e-07
-9.745008e-07
-1.034396e-06
-5.188651e-07
-4.77664e-07
-5.189554e-07
-2.326213e-07
-4.832462e-07
-2.413746e-07
-2.177013e-07
-2.583085e-07
1.742727e-08
-6.664291e-08
-6.162233e-08
3.254937e-07
-5.887289e-07
-5.898705e-07
-7.097467e-08
-4.016751e-08
-4.654872e-08
-9.88814e-08
-8.758303e-08
-3.186985e-07
-1.726183e-07
-8.556817e-07
-8.156081e-07
-2.636177e-08
6.210655e-09
-5.167944e-08
-4.854834e-08
-5.118933e-08
-9.357239e-07
-3.324795e-07
-2.606494e-07
-4.12738e-07
-3.150594e-07
-5.606788e-08
6.354348e-09
9.321074e-09
-4.937091e-08
-4.540576e-08
-2.11458e-07
-4.28381e-08
-4.593352e-08
1.441083e-09
3.086115e-09
-8.600732e-08
-7.1011e-08
-3.463517e-08
-4.082939e-08
-1.28495e-07
1.470517e-08
-9.179592e-08
-9.721794e-08
8.217699e-08
-1.054858e-07
-1.157407e-07
-2.415495e-08
-2.128619e-08
-5.884131e-07
-7.106643e-08
2.414846e-07
-1.680505e-07
5.881729e-08
1.203467e-07
-2.424833e-07
-3.199201e-07
-1.753163e-07
2.235569e-08
-4.933733e-07
-5.719304e-07
-2.782822e-08