/*--------------------------------*- C++ -*----------------------------------*\
| =========                 |                                                 |
| \\      /  F ield         | OpenFOAM: The Open Source CFD Toolbox           |
|  \\    /   O peration     | Version:  2406                                  |
|   \\  /    A nd           | Website:  www.openfoam.com                      |
|    \\/     M anipulation  |                                                 |
\*---------------------------------------------------------------------------*/
FoamFile
{
    version     2.0;
    format      ascii;
    arch        "LSB;label=32;scalar=64";
    class       volVectorField;
    location    "0.14";
    object      U;
}
// * * * * * * * * * * * * * * * * * * * * * * * * * * * * * * * * * * * * * //

dimensions      [0 1 -1 0 0 0 0];

internalField   nonuniform List<vector> 
4529
(
(0.00997639 -3.400812e-05 -1.095229e-26)
(0.009995622 -3.826587e-05 -3.139915e-26)
(0.01002407 -2.953622e-05 7.143274e-26)
(0.0100159 -8.854904e-06 0)
(0.009944968 4.146661e-06 1.629166e-25)
(0.009985668 -4.447094e-06 0)
(0.009903592 3.61589e-05 1.494902e-25)
(0.01001858 -1.223083e-05 0)
(0.009935829 -5.445179e-05 -5.458141e-26)
(0.009989068 -6.14953e-06 -5.934614e-27)
(0.009962772 1.231696e-05 3.103651e-25)
(0.009984929 3.01416e-06 0)
(0.009983309 -9.194423e-07 -1.251656e-26)
(0.009983413 1.711052e-06 0)
(0.009982688 -9.446055e-06 -5.892954e-26)
(0.009982037 -6.01048e-05 0)
(0.01002321 -1.135513e-05 -1.274083e-25)
(0.009921105 -1.95592e-05 0)
(0.009977935 -2.319356e-05 -2.021408e-25)
(0.01004571 -7.528464e-05 -2.351441e-25)
(0.009936844 6.133212e-06 -3.944354e-25)
(0.009977124 -1.899036e-05 -1.007828e-25)
(0.009962125 -2.829293e-05 -1.982953e-25)
(0.009971554 6.023339e-06 1.518794e-26)
(0.00998192 5.841302e-08 2.111039e-26)
(0.01002371 -8.127703e-05 0)
(0.009990807 -5.755128e-06 1.338251e-27)
(0.009959596 -3.619792e-05 3.26139e-25)
(0.01001469 -1.227358e-05 -1.373588e-26)
(0.01000227 -6.984777e-05 0)
(0.009958179 -2.699107e-05 -2.833721e-25)
(0.009970722 -7.713365e-06 1.718491e-25)
(0.01000249 -1.80904e-05 0)
(0.01000619 -1.333454e-05 2.08379e-27)
(0.009982253 -5.803718e-05 -1.768574e-25)
(0.009932945 2.92488e-05 2.946261e-25)
(0.009983006 3.960881e-07 1.222086e-26)
(0.00998187 1.086866e-05 -7.232904e-26)
(0.01000505 -5.911595e-05 -3.221361e-26)
(0.01000548 -1.56794e-05 1.425075e-28)
(0.009988116 4.858137e-06 2.209535e-27)
(0.009987688 -8.819145e-06 -2.122004e-26)
(0.009979428 -8.803092e-06 0)
(0.009969754 -2.16995e-05 0)
(0.009993382 -1.830364e-05 0)
(0.009999449 -3.225686e-05 2.982729e-27)
(0.009991189 -7.518783e-05 2.974721e-25)
(0.009984185 -2.500831e-05 0)
(0.009972148 -2.413047e-05 0)
(0.009929624 -5.043036e-05 -2.443547e-25)
(0.009979072 2.411652e-06 8.510389e-27)
(0.009992113 -7.701441e-06 1.21831e-26)
(0.009980645 -2.251922e-05 1.31429e-25)
(0.01002022 -3.40963e-05 2.780315e-26)
(0.01001755 -1.590684e-05 2.795488e-26)
(0.01004199 -7.273803e-05 1.298691e-25)
(0.009984068 -8.551708e-07 1.452821e-28)
(0.009962379 4.123505e-07 -5.271319e-28)
(0.009949063 -6.476664e-06 0)
(0.00995482 -4.004359e-05 -1.732013e-25)
(0.0100155 -5.39231e-05 -4.618687e-26)
(0.009978632 3.157485e-06 -8.547782e-27)
(0.009910305 2.373163e-05 2.242573e-25)
(0.009964062 -5.2495e-07 0)
(0.009994818 -6.879291e-06 3.998576e-27)
(0.009978506 3.582065e-06 -7.046117e-26)
(0.01000465 -1.113077e-05 0)
(0.009986215 -1.07117e-05 -5.872946e-26)
(0.009983209 1.128652e-05 6.539992e-26)
(0.009930805 -1.140143e-05 -1.016899e-25)
(0.009956709 1.3393e-05 0)
(0.01000211 -8.391425e-06 0)
(0.009990936 -5.930767e-05 0)
(0.0100058 1.003303e-06 0)
(0.009983603 -6.127357e-05 -1.543946e-26)
(0.01001098 -1.075871e-05 5.515851e-27)
(0.01001384 -9.865885e-06 5.558801e-27)
(0.009980298 -1.160216e-05 0)
(0.009981118 -9.630194e-06 0)
(0.01002521 -1.563904e-05 8.786817e-26)
(0.009955415 1.817978e-05 -1.997608e-25)
(0.01000422 -1.695687e-05 -1.399434e-27)
(0.00995236 1.744736e-05 0)
(0.009987789 -5.05172e-06 -2.774078e-27)
(0.009942627 -4.997774e-05 -1.299502e-26)
(0.009911302 -5.520693e-05 -1.060709e-24)
(0.009959582 7.231944e-06 1.853051e-25)
(0.009963619 3.919425e-06 -1.314136e-25)
(0.01000839 -9.601328e-06 8.539461e-27)
(0.01001116 -1.597238e-05 1.882015e-26)
(0.009982192 -2.350264e-05 5.855598e-26)
(0.009963381 -2.149304e-05 -2.112614e-25)
(0.009980602 1.159877e-05 0)
(0.009990459 -7.917465e-05 0)
(0.009937501 6.827152e-07 0)
(0.009886295 2.309074e-05 -7.303879e-25)
(0.009928324 2.880622e-05 -2.553374e-25)
(0.009946467 -2.11415e-05 3.318713e-25)
(0.009973061 6.364425e-06 -1.270046e-25)
(0.00996583 -2.960956e-05 6.165082e-26)
(0.00997765 -1.808451e-06 -1.567222e-26)
(0.009985981 8.717979e-06 -7.178593e-26)
(0.01000083 -1.390312e-05 -9.449225e-27)
(0.009952387 -1.720726e-05 -5.261723e-25)
(0.009963185 -1.895799e-05 1.314963e-25)
(0.009995433 -3.705737e-05 1.360597e-25)
(0.009977181 -3.116072e-07 -1.601543e-25)
(0.01001125 -1.965328e-05 8.809549e-27)
(0.009978743 -2.960977e-06 -3.608082e-26)
(0.009968278 -4.16802e-05 9.95452e-26)
(0.009997271 -8.77391e-06 -3.292614e-27)
(0.009975951 -4.382342e-06 0)
(0.009918091 2.290894e-05 -7.128837e-25)
(0.009961145 5.251737e-06 0)
(0.01002194 -4.305425e-05 0)
(0.009988477 -7.306955e-06 1.527488e-26)
(0.009979948 -2.572987e-05 2.027775e-25)
(0.009967518 -1.697521e-05 -1.811016e-25)
(0.009918835 -3.274179e-05 4.015209e-27)
(0.009982576 -7.662034e-06 0)
(0.00999759 -6.819938e-05 3.922201e-26)
(0.00999893 -9.352745e-06 -9.870062e-28)
(0.009993328 -1.450181e-05 -2.049054e-26)
(0.009978955 1.054701e-05 0)
(0.01001358 -1.28306e-05 2.2513e-26)
(0.009909884 -5.828229e-05 5.170416e-25)
(0.009986606 -4.464948e-06 -7.055655e-27)
(0.009990577 -9.791806e-06 1.646919e-26)
(0.009986824 5.589902e-06 -2.848667e-26)
(0.009981481 -1.789243e-06 6.199346e-26)
(0.009983679 2.655259e-06 2.323135e-26)
(0.009979857 -1.855344e-05 5.872289e-26)
(0.009978409 5.206411e-06 -1.202832e-25)
(0.009962199 4.869077e-06 4.735766e-25)
(0.009955178 -1.826364e-05 0)
(0.01000491 -2.097052e-05 0)
(0.009995484 -1.850224e-05 -2.438902e-26)
(0.009910845 1.586587e-05 0)
(0.009991272 -2.380299e-05 -8.996205e-26)
(0.01000628 -1.768004e-05 0)
(0.009990802 5.09322e-06 -7.552011e-27)
(0.009999842 -8.055932e-06 0)
(0.009957954 -1.143266e-06 -1.861177e-25)
(0.01001126 -4.45906e-05 -6.890538e-27)
(0.01000316 -2.523541e-05 -1.487235e-26)
(0.01003246 -7.693785e-05 -8.348747e-26)
(0.009942226 -4.071751e-05 0)
(0.00992468 -4.771546e-05 0)
(0.009980104 -6.138292e-06 -3.743289e-26)
(0.009917918 3.956774e-06 -5.628225e-25)
(0.009994309 -8.346604e-06 0)
(0.009985175 8.617463e-06 -5.068479e-27)
(0.01000963 -1.007669e-05 5.776468e-27)
(0.009995388 -6.160648e-05 -8.232006e-26)
(0.009909934 -1.732843e-05 0)
(0.00993949 -2.733205e-05 3.825782e-25)
(0.01000308 -2.345135e-05 0)
(0.009982538 -8.886729e-08 -1.192843e-26)
(0.01002869 -6.842992e-05 0)
(0.009994339 -7.734144e-06 -9.304221e-28)
(0.009998336 -1.244315e-05 -8.702871e-27)
(0.0100029 -7.466305e-05 3.782637e-26)
(0.009968682 -1.374291e-05 2.904434e-25)
(0.009978737 -1.462413e-05 0)
(0.009981851 8.272642e-07 1.426512e-26)
(0.009972611 -4.029697e-05 3.060032e-25)
(0.00992359 -5.35011e-05 6.370478e-26)
(0.01002521 -6.202631e-05 -5.521108e-26)
(0.009952765 -2.055134e-05 0)
(0.01001858 -3.329849e-05 0)
(0.009995436 -2.157028e-05 -1.754454e-26)
(0.00995945 -7.043411e-06 0)
(0.009893991 1.659067e-05 4.863548e-25)
(0.009990812 -1.637098e-05 -6.454117e-26)
(0.009967448 1.078864e-05 3.85651e-26)
(0.009952495 9.414584e-06 2.211469e-25)
(0.01001194 -1.550671e-05 0)
(0.009982773 -4.040779e-05 5.618329e-26)
(0.009982629 -2.544013e-06 2.11025e-26)
(0.009918864 -1.750093e-05 0)
(0.009997899 -2.142838e-05 2.560463e-26)
(0.009971911 -2.477751e-06 0)
(0.009977464 -1.284932e-05 -9.092403e-26)
(0.01001633 -1.893843e-05 0)
(0.009980625 1.102708e-05 -2.314692e-26)
(0.01002453 -5.072675e-06 -2.332315e-25)
(0.0100423 -5.831228e-05 -2.459634e-26)
(0.009978544 6.403901e-06 8.040601e-26)
(0.009981842 -1.203414e-05 -1.039766e-25)
(0.009926152 2.693505e-05 -3.504349e-25)
(0.009993517 -5.850275e-05 0)
(0.009979267 -4.304736e-06 5.930039e-26)
(0.01001291 -1.356937e-05 1.920071e-26)
(0.009981599 -5.196212e-05 0)
(0.009973077 -3.734798e-06 0)
(0.009976449 -6.140335e-06 0)
(0.009958208 1.292953e-05 0)
(0.009989325 4.785473e-06 0)
(0.009980328 -1.103178e-05 0)
(0.009974316 -9.236367e-06 -1.56756e-25)
(0.009979248 5.079171e-06 0)
(0.009980088 9.037956e-06 0)
(0.009979852 7.445517e-06 -4.753511e-26)
(0.009968574 5.157296e-06 3.764483e-26)
(0.01001969 -4.313821e-05 3.608361e-26)
(0.009973042 -2.526436e-07 -1.162758e-25)
(0.009977349 7.738804e-06 0)
(0.009983816 1.145145e-05 6.799278e-26)
(0.01000794 -1.437805e-05 -6.703201e-27)
(0.009903018 -9.583513e-06 9.23141e-25)
(0.009912396 -2.847819e-06 9.491043e-27)
(0.009985804 6.598012e-06 5.524221e-27)
(0.009971681 -1.843161e-05 0)
(0.009941576 1.388107e-05 3.215035e-25)
(0.009987938 -1.19809e-05 0)
(0.009987157 -1.002693e-05 7.204248e-26)
(0.009922461 -1.188023e-06 3.612917e-25)
(0.009959797 1.105009e-05 -1.354439e-26)
(0.009904751 -4.31502e-05 1.065249e-24)
(0.009938909 -7.694323e-07 1.913664e-25)
(0.009986173 -3.212427e-06 -8.202306e-27)
(0.009948266 -2.38828e-05 -5.931961e-25)
(0.009984435 5.638005e-06 5.402514e-26)
(0.01002106 -1.854348e-05 -7.45285e-26)
(0.009951671 -5.591519e-05 7.504096e-26)
(0.009968601 -4.600729e-05 -4.612212e-25)
(0.00996939 -4.409535e-06 -7.903548e-26)
(0.009960023 9.720511e-06 0)
(0.009983454 -3.007277e-05 2.385902e-27)
(0.009974856 3.916246e-07 0)
(0.009896856 -7.63513e-06 -5.61835e-25)
(0.009979733 -6.891198e-06 1.404517e-25)
(0.01000908 -1.482592e-05 -8.249972e-27)
(0.009971598 -5.965164e-05 -5.316404e-25)
(0.009979617 -7.510875e-07 -5.868972e-26)
(0.009980538 2.418771e-06 0)
(0.009998054 -8.761655e-06 8.557838e-28)
(0.009982267 2.65014e-06 0)
(0.009970238 -2.345088e-05 0)
(0.009986154 -5.239717e-06 -1.377686e-26)
(0.009992576 -6.173622e-06 7.941175e-29)
(0.009963473 4.913917e-07 0)
(0.009986624 -3.499024e-06 -7.907714e-27)
(0.009964633 -4.575621e-06 0)
(0.009964037 1.525441e-06 0)
(0.00996719 -7.351508e-05 -2.15946e-25)
(0.009976913 -6.656822e-05 1.469644e-25)
(0.00990202 3.786643e-06 6.138167e-25)
(0.009983638 6.067635e-06 4.33843e-26)
(0.009982069 -3.446139e-06 -8.977627e-28)
(0.00997579 8.637759e-07 2.307732e-27)
(0.009986995 -5.880835e-05 0)
(0.009924956 -6.228257e-05 1.40419e-25)
(0.0100134 -9.711943e-06 2.978858e-28)
(0.009957058 -4.453457e-05 0)
(0.01000126 -1.199942e-05 0)
(0.009986008 -3.496775e-06 0)
(0.009981717 5.777964e-06 0)
(0.009991335 -1.090484e-05 0)
(0.009943438 -8.7816e-06 0)
(0.009978832 -4.363523e-05 0)
(0.009989643 -3.719023e-05 -8.192126e-26)
(0.009960135 1.618086e-05 2.233983e-25)
(0.01000025 -1.877396e-05 0)
(0.01000755 -1.952445e-05 1.296473e-27)
(0.009995411 -8.212804e-06 7.594905e-28)
(0.009997961 -1.63096e-05 -2.085684e-26)
(0.009977883 2.750684e-06 0)
(0.009978948 6.006459e-06 1.077681e-25)
(0.01000012 -6.687408e-05 -8.519488e-26)
(0.009953171 1.166072e-05 -2.616149e-25)
(0.009960098 -2.137247e-06 0)
(0.00999172 -4.465239e-05 2.179385e-26)
(0.009972193 -5.606132e-05 -1.238077e-26)
(0.01001042 -1.202858e-05 0)
(0.009941553 -1.79355e-05 -3.389263e-25)
(0.009970686 -5.669541e-06 1.228755e-25)
(0.00998639 3.866032e-06 4.291541e-27)
(0.009975928 -6.921409e-05 -1.791575e-25)
(0.01001405 -1.608559e-05 2.581785e-26)
(0.01001249 -1.399834e-05 4.813437e-28)
(0.01001354 -9.468431e-06 7.232382e-28)
(0.01000923 -1.135226e-05 1.518559e-26)
(0.009984197 8.999521e-07 7.6945e-27)
(0.01002596 -5.160111e-05 0)
(0.00993948 -2.296744e-05 -3.186657e-25)
(0.009983274 2.432264e-07 -1.427116e-26)
(0.009972898 1.645356e-06 2.90769e-25)
(0.00996907 8.108332e-07 2.381848e-26)
(0.01005067 -3.537206e-05 -7.021103e-26)
(0.009924825 -1.10566e-06 -3.36792e-25)
(0.01005346 -4.003897e-05 -2.245037e-25)
(0.009984525 3.561399e-06 2.719736e-26)
(0.01001544 -4.003747e-05 5.929163e-27)
(0.009996599 -2.544734e-05 1.145262e-27)
(0.009969905 1.161281e-05 -3.113868e-25)
(0.009975459 -2.135886e-05 -1.583531e-25)
(0.009986677 -3.976892e-06 0)
(0.0099095 1.331109e-05 8.007747e-25)
(0.00992406 -1.84983e-05 0)
(0.009998727 -2.53077e-05 -2.967164e-26)
(0.00995904 4.913335e-06 0)
(0.009958106 -3.613394e-06 0)
(0.009958989 1.531913e-05 2.061772e-25)
(0.00997069 -8.672248e-06 -2.672241e-27)
(0.01003878 -1.721141e-05 -1.400453e-25)
(0.009994402 -3.179832e-05 0)
(0.009899856 1.954716e-05 7.95193e-26)
(0.009956087 -4.147459e-05 3.306894e-25)
(0.009984437 -1.139718e-05 -7.388786e-26)
(0.01002352 -5.176287e-05 -4.800229e-26)
(0.009991526 -2.028205e-05 4.075257e-26)
(0.009935368 -4.992702e-05 -6.306984e-26)
(0.009974234 -1.955057e-05 2.269842e-25)
(0.00997579 -2.620469e-05 1.646502e-25)
(0.009999879 -6.49175e-05 -7.593336e-26)
(0.009990897 -6.251767e-06 -1.403573e-27)
(0.009951409 -8.98177e-06 0)
(0.009936007 -5.521914e-06 -1.930313e-25)
(0.01002467 -1.407117e-05 0)
(0.009987449 5.361365e-06 1.285672e-26)
(0.01001851 -8.92284e-06 0)
(0.009978836 7.183745e-07 1.446846e-27)
(0.009979116 -5.179723e-06 -5.155836e-26)
(0.009983855 -3.000782e-06 3.557222e-26)
(0.009997173 -1.508276e-05 -2.972616e-26)
(0.009957499 1.592326e-05 -2.02694e-25)
(0.009978143 -3.460163e-07 6.951293e-26)
(0.009978517 1.097982e-06 -3.95794e-26)
(0.009974574 2.648818e-06 0)
(0.009974065 -7.629754e-07 2.545528e-26)
(0.01000796 -7.54845e-05 1.745589e-26)
(0.009987577 5.063776e-06 0)
(0.00996665 -1.441014e-05 -1.619108e-26)
(0.009984609 -1.834173e-06 0)
(0.009998094 -3.290073e-05 -3.116788e-26)
(0.01001304 -5.39859e-05 -2.020428e-27)
(0.009990778 -3.019244e-05 -1.906232e-25)
(0.009970574 9.029664e-06 0)
(0.009986899 -4.692745e-06 4.744713e-27)
(0.009982767 3.230104e-06 0)
(0.009900831 -4.43586e-05 -2.685209e-25)
(0.009922046 -4.373322e-05 0)
(0.009975482 8.876137e-06 -1.132703e-25)
(0.009968348 1.269696e-05 5.72681e-27)
(0.00998561 -3.22788e-05 0)
(0.009986727 4.409646e-06 0)
(0.009985093 3.581894e-06 -1.737699e-26)
(0.009929984 -4.032012e-05 4.757235e-25)
(0.01001499 -6.604451e-05 -4.052802e-27)
(0.01001618 -1.230724e-05 -2.487243e-26)
(0.01000964 -4.046317e-05 -2.67416e-27)
(0.009894817 3.067364e-05 0)
(0.009992333 -2.096829e-05 5.151164e-27)
(0.009998723 -1.045646e-05 0)
(0.01004674 -3.291752e-05 -8.366109e-26)
(0.009994294 -1.369455e-05 0)
(0.009994384 -5.31134e-05 -2.703612e-26)
(0.01001276 -9.231473e-06 8.748835e-27)
(0.009988151 -2.925265e-05 -3.956707e-27)
(0.01001852 -2.525199e-05 1.336546e-26)
(0.009965688 -3.764189e-05 0)
(0.009978491 -3.80113e-05 -1.406907e-25)
(0.009938038 1.542731e-05 0)
(0.009955165 8.38837e-06 0)
(0.009980974 -6.237256e-07 2.44831e-26)
(0.009996241 -4.093583e-05 0)
(0.009971512 3.86755e-06 -1.365438e-25)
(0.01001566 -5.511342e-06 0)
(0.009936266 2.334574e-05 3.078338e-25)
(0.009978823 -4.553569e-05 5.322648e-26)
(0.0099375 -2.622445e-05 -3.846596e-25)
(0.009979941 -3.867996e-05 3.216606e-25)
(0.01001746 -2.455166e-05 2.723789e-27)
(0.01002482 -2.466953e-05 0)
(0.009950899 -6.157591e-06 -2.352915e-27)
(0.009965969 -9.738736e-06 3.998917e-26)
(0.01001414 -2.131616e-05 -1.096789e-26)
(0.01000949 -2.770716e-05 -2.31177e-27)
(0.009987554 -4.108898e-05 -3.996334e-26)
(0.00998508 -4.801123e-05 0)
(0.01005715 -4.561626e-05 7.491344e-26)
(0.01001432 -1.818095e-05 4.89674e-26)
(0.009997683 -1.71676e-05 1.375382e-26)
(0.009980292 -9.22545e-07 2.751275e-26)
(0.01000057 -3.898127e-05 0)
(0.01000212 -4.168133e-05 5.000013e-26)
(0.009991448 -3.489041e-05 1.4801e-26)
(0.009964075 -7.306842e-05 0)
(0.01002262 -3.98302e-05 -8.089134e-26)
(0.009937998 -3.299062e-05 -4.055838e-25)
(0.009978418 4.620383e-06 4.157996e-26)
(0.009974802 4.371101e-06 0)
(0.01000272 -1.339907e-05 3.252674e-27)
(0.01002704 -3.518253e-05 -7.717893e-26)
(0.009984849 -8.947824e-06 8.770605e-26)
(0.01003588 -2.556698e-05 1.454462e-25)
(0.009982742 -4.467607e-06 -2.91655e-26)
(0.009984642 3.85032e-06 -2.038983e-26)
(0.009987192 3.92679e-06 1.745412e-27)
(0.009992093 -3.063248e-05 3.651249e-26)
(0.009998064 -1.408838e-05 -7.187739e-28)
(0.009986988 -3.832071e-05 -5.737742e-26)
(0.009993225 -4.569158e-05 -1.381457e-25)
(0.0099015 3.113004e-05 3.738119e-25)
(0.0100273 -2.139964e-05 -9.999477e-26)
(0.01000584 -6.141443e-05 0)
(0.009975342 1.182537e-05 0)
(0.01000855 -1.848206e-05 1.374138e-26)
(0.009956667 -7.948189e-06 -3.694365e-25)
(0.009981372 1.863594e-06 1.934697e-26)
(0.009977797 -7.117281e-05 -2.00016e-26)
(0.009944856 -2.020096e-05 -2.876129e-25)
(0.01000333 1.384648e-06 0)
(0.009981754 -1.966414e-05 0)
(0.009988163 -1.389987e-05 0)
(0.01000913 -1.269489e-05 1.918117e-26)
(0.00998992 -1.367909e-05 5.86074e-26)
(0.0100593 -4.555371e-05 6.050221e-25)
(0.009989325 -2.587791e-05 -9.878764e-26)
(0.009989587 -1.977125e-05 7.903552e-26)
(0.009994223 -2.159493e-05 1.974593e-26)
(0.009995105 -1.556531e-05 -3.512587e-26)
(0.01000536 -1.018883e-05 -4.052211e-27)
(0.0099824 -7.64801e-07 0)
(0.01002636 -6.654009e-05 9.236735e-29)
(0.009907504 -1.481999e-05 0)
(0.01003587 -4.961135e-05 0)
(0.009919103 1.431531e-06 0)
(0.009919878 -1.44375e-05 0)
(0.00999623 -5.036771e-05 -1.340322e-26)
(0.009952923 -4.030313e-05 0)
(0.01000408 -3.472525e-05 0)
(0.009962204 -4.300064e-05 5.842337e-26)
(0.0100136 -2.462692e-05 -1.31617e-26)
(0.009983948 -3.299287e-06 3.376899e-26)
(0.009960466 -6.946488e-05 -4.749683e-25)
(0.009979197 -6.622515e-06 -8.834071e-26)
(0.009977549 3.121406e-06 0)
(0.01001261 -5.95764e-05 -1.392529e-26)
(0.01000331 -1.663912e-05 3.090426e-27)
(0.009987861 -6.078998e-06 0)
(0.009984826 -4.321549e-06 0)
(0.01000012 -4.171506e-05 0)
(0.009973796 -1.293577e-05 2.261802e-27)
(0.009986745 -4.333041e-06 1.484973e-28)
(0.009932335 1.858483e-05 -4.610096e-26)
(0.00993592 9.514443e-06 0)
(0.009994237 -1.431642e-05 4.378411e-26)
(0.009993111 -4.093258e-05 -8.776007e-26)
(0.009982131 -1.328008e-05 0)
(0.009981258 -1.807216e-05 -1.501483e-25)
(0.009989917 -1.887918e-05 -1.139486e-25)
(0.009987335 -1.758951e-05 -8.833298e-26)
(0.00998972 -1.440879e-05 -5.970418e-26)
(0.0099764 -1.014036e-05 -1.010236e-25)
(0.009978446 -1.0426e-05 1.020007e-25)
(0.009987709 -1.677824e-05 0)
(0.009986991 -1.262567e-05 0)
(0.009977155 -1.047085e-05 -5.592299e-27)
(0.009985688 -5.185254e-06 -1.434521e-26)
(0.009981044 -1.310673e-05 3.661414e-26)
(0.009983044 -1.784646e-05 6.545793e-26)
(0.009988408 -1.52411e-05 -7.344153e-26)
(0.009951226 9.210858e-06 -2.524365e-25)
(0.009979881 -2.903868e-05 4.13769e-26)
(0.009927786 -6.095587e-05 -2.634384e-25)
(0.01001799 -4.454759e-05 -2.655594e-26)
(0.009983714 -5.107792e-07 0)
(0.0100093 -1.639048e-05 6.751615e-27)
(0.009987304 -5.016975e-05 -1.036916e-25)
(0.009989208 5.91098e-06 -2.422824e-26)
(0.009989899 -6.919161e-06 0)
(0.01002409 -3.830038e-05 4.777592e-26)
(0.009975171 -1.28409e-05 1.120007e-25)
(0.009945278 -5.327728e-05 -5.434267e-25)
(0.009930056 -5.152027e-06 0)
(0.009922164 -2.774124e-05 -3.660221e-25)
(0.01001244 -1.007553e-05 -9.026616e-27)
(0.01002129 -2.066034e-05 0)
(0.00997886 -3.082504e-05 0)
(0.01000878 -1.05358e-05 -3.193121e-27)
(0.01000861 -1.004759e-05 -1.693742e-27)
(0.009957536 -2.221735e-05 -2.665436e-25)
(0.0100021 -9.279364e-06 3.511995e-27)
(0.009913179 -2.939481e-05 -8.225763e-25)
(0.009981027 -1.999718e-05 1.796124e-26)
(0.009980696 -5.015525e-06 5.607228e-26)
(0.00990713 3.474007e-05 -6.496862e-25)
(0.00998783 5.656439e-06 -1.194796e-26)
(0.009982768 -3.687959e-06 3.837905e-27)
(0.01001838 -1.151171e-05 2.476289e-27)
(0.0100145 -1.155657e-05 2.021198e-26)
(0.009972309 -2.964851e-05 -4.347801e-26)
(0.009964243 -2.775207e-05 -2.491354e-25)
(0.009950276 5.005471e-06 0)
(0.009949646 -4.688837e-05 -5.247433e-25)
(0.009938298 -5.296771e-05 4.596488e-25)
(0.01000136 -8.335618e-06 0)
(0.01000035 -8.500019e-06 -2.78935e-29)
(0.009984278 -3.386905e-05 -1.5871e-25)
(0.00991786 -1.226605e-05 0)
(0.009983604 4.555887e-06 -2.248718e-26)
(0.009999161 -1.901935e-05 -8.451822e-27)
(0.009989947 -5.929473e-06 1.683745e-28)
(0.01001103 -1.362682e-05 -4.907121e-27)
(0.009978553 2.352638e-06 0)
(0.009979654 4.339258e-06 -5.33022e-26)
(0.00998367 9.863123e-07 -1.303222e-27)
(0.009919284 -4.781128e-05 6.07215e-25)
(0.009977678 -1.663829e-05 0)
(0.009981943 -2.652773e-06 -1.081947e-25)
(0.009979532 -1.668691e-06 0)
(0.00996752 1.427469e-05 -1.960241e-25)
(0.009970187 5.522106e-06 0)
(0.009941751 -1.372288e-05 0)
(0.009985619 -3.897951e-05 4.639243e-26)
(0.009981739 -4.775532e-06 -4.342999e-26)
(0.009983711 -2.312444e-05 9.927286e-26)
(0.009956366 -4.643166e-05 0)
(0.01005945 -6.093204e-05 0)
(0.009949539 -6.263335e-05 -1.302003e-25)
(0.00997371 6.834903e-06 -1.16669e-25)
(0.01007198 -6.832072e-05 0)
(0.01002644 -1.580648e-05 -9.514422e-28)
(0.01001675 -1.074906e-05 0)
(0.01001068 6.116139e-07 0)
(0.009976036 -5.572624e-05 1.84306e-25)
(0.009975146 -4.584729e-05 0)
(0.009972415 -8.720629e-06 -1.104969e-28)
(0.009945595 -1.294546e-05 3.500817e-25)
(0.009939867 -1.659168e-05 0)
(0.009945013 -4.284502e-05 4.105462e-25)
(0.009990892 -2.213036e-05 0)
(0.00999672 -2.867623e-05 -2.481118e-27)
(0.01000701 -2.535917e-05 4.057445e-28)
(0.009999582 -2.271414e-05 2.790686e-26)
(0.009984356 -4.985615e-06 0)
(0.009983878 -7.313259e-06 1.330614e-27)
(0.009987333 6.825773e-06 -1.326549e-26)
(0.01001173 -9.417883e-06 0)
(0.009981168 3.337452e-06 6.19224e-26)
(0.009979448 -1.987577e-05 7.358533e-26)
(0.009986444 -5.641046e-06 1.378322e-26)
(0.01000528 -1.462967e-05 0)
(0.01002531 -1.248767e-05 -2.778481e-26)
(0.009990136 -1.231598e-05 2.790783e-26)
(0.009976145 -6.358967e-07 8.201436e-26)
(0.009946959 -2.708769e-05 0)
(0.009970988 -4.02024e-05 -1.159025e-25)
(0.009975708 -3.494504e-05 0)
(0.009968889 7.58616e-06 2.08247e-25)
(0.00997259 -1.21873e-05 7.012521e-26)
(0.009973791 -1.2051e-05 -1.459648e-25)
(0.01001455 -3.594739e-05 1.417488e-26)
(0.01001513 -5.040127e-05 -1.516862e-26)
(0.009965335 -6.59134e-06 0)
(0.009916464 2.585446e-05 3.506066e-25)
(0.00995946 -1.830979e-05 1.787059e-25)
(0.009964095 -1.946672e-05 0)
(0.009995213 -1.35343e-05 0)
(0.009985835 -6.904997e-06 -4.324141e-26)
(0.009973093 8.722003e-06 0)
(0.009958953 -2.119724e-05 4.596926e-26)
(0.009983492 1.999498e-06 -1.41145e-26)
(0.00997275 -7.314393e-06 0)
(0.009974299 -3.938509e-06 0)
(0.009974973 -2.979833e-06 -2.709499e-26)
(0.009977614 -4.656182e-06 -6.479672e-26)
(0.01000752 -1.781122e-05 0)
(0.009977902 -2.536724e-05 1.434439e-25)
(0.009977167 -2.186587e-05 5.131308e-26)
(0.009983233 -2.484722e-06 0)
(0.009943314 -1.715804e-05 3.083829e-25)
(0.01002239 -1.884325e-05 5.674535e-26)
(0.009971759 -4.621763e-05 0)
(0.009979922 -2.436909e-06 0)
(0.009915025 1.367017e-05 -5.139915e-25)
(0.01005159 -5.709055e-05 3.184492e-25)
(0.009974786 -8.2337e-06 -4.003519e-27)
(0.009982982 -1.763356e-06 0)
(0.009987601 -5.3155e-06 8.033158e-27)
(0.009946103 2.854496e-06 0)
(0.009992287 -7.11875e-05 -8.064251e-26)
(0.009953292 -4.346641e-05 3.254104e-25)
(0.009989806 5.312031e-06 0)
(0.01001468 -9.048935e-06 2.396798e-27)
(0.01000116 -8.52321e-06 0)
(0.009926524 -1.028632e-05 4.972835e-25)
(0.009988522 -2.26535e-05 -9.533306e-26)
(0.009998107 -2.378254e-05 0)
(0.01000033 -1.023605e-05 3.324994e-27)
(0.009990647 -8.653538e-06 4.829607e-26)
(0.009984713 -7.840068e-06 -8.141118e-26)
(0.009981215 -2.36806e-06 0)
(0.009980923 -9.967226e-07 2.248283e-26)
(0.0100236 -1.803053e-05 -4.191284e-26)
(0.01001672 -2.803142e-05 -1.651433e-26)
(0.01003219 -4.178258e-05 0)
(0.009929702 -1.639845e-05 0)
(0.009935661 -2.068902e-05 0)
(0.009990714 -8.148085e-06 9.993527e-27)
(0.01003881 -2.086479e-05 0)
(0.009971255 -3.779935e-05 0)
(0.01002075 -8.106337e-05 -3.787502e-26)
(0.009996985 -1.12015e-05 3.231751e-27)
(0.01000091 -1.337908e-05 8.594179e-27)
(0.01002733 -2.348888e-05 1.013437e-25)
(0.009980813 -7.340363e-06 -5.855133e-26)
(0.01002513 -1.853816e-05 4.902629e-26)
(0.00998124 1.06583e-05 2.215648e-26)
(0.01003448 -5.77586e-05 -2.087912e-25)
(0.009897673 -2.326356e-05 -3.541244e-25)
(0.009967616 -4.317855e-05 -1.164602e-25)
(0.01001156 -9.719423e-06 -2.027687e-28)
(0.009952433 -2.872459e-05 0)
(0.009995384 -9.931515e-06 2.103872e-26)
(0.009991288 -8.855639e-06 -5.287451e-28)
(0.009988846 -2.432784e-05 7.025961e-26)
(0.01005208 -4.952971e-05 -3.661774e-25)
(0.009994378 -3.081223e-05 0)
(0.009932341 1.447792e-06 5.170773e-25)
(0.009957147 1.745571e-05 0)
(0.009970311 -1.974497e-05 0)
(0.00996425 -2.064591e-05 1.533362e-25)
(0.009970898 -2.145081e-05 -1.767793e-25)
(0.009975225 -1.904912e-05 -1.830924e-25)
(0.01003416 -1.253291e-05 0)
(0.01000048 -7.890704e-06 0)
(0.009975249 9.071794e-07 -1.173121e-25)
(0.01005038 -4.557858e-05 5.240413e-25)
(0.009982149 -8.179727e-07 -2.855033e-26)
(0.009971708 -2.217921e-05 -1.839122e-25)
(0.009979664 9.295207e-06 0)
(0.01000634 -3.159429e-05 2.608849e-27)
(0.009981437 -4.764571e-06 4.185804e-26)
(0.009984199 -4.581489e-06 2.333002e-26)
(0.009993429 -6.292591e-05 8.651586e-26)
(0.009973869 1.173395e-05 -1.173692e-25)
(0.009978906 -5.417068e-07 -9.96987e-26)
(0.009986469 -4.52133e-05 4.935152e-26)
(0.0100158 -3.847314e-05 -1.496065e-26)
(0.01002018 -3.977882e-05 9.311552e-26)
(0.01004364 -2.836709e-05 9.458695e-26)
(0.009947577 -5.015522e-05 2.293628e-25)
(0.01001106 -1.50028e-05 -1.549524e-26)
(0.009982137 7.800378e-06 3.339474e-26)
(0.009947002 -6.471316e-05 -4.11004e-25)
(0.01000987 -1.735919e-05 0)
(0.01000667 -2.242434e-05 0)
(0.01001982 -1.916398e-05 0)
(0.009944175 -1.16702e-05 -2.986566e-25)
(0.0099678 -5.763647e-08 3.336781e-25)
(0.009970322 2.735593e-07 1.626915e-26)
(0.009969115 -7.374473e-06 1.504386e-25)
(0.009946413 -4.093742e-05 -1.75299e-25)
(0.009983695 -4.15622e-06 -1.281815e-26)
(0.01000038 -1.17823e-05 -1.126147e-26)
(0.009999497 -1.072743e-05 -5.165709e-27)
(0.009950588 -3.404934e-06 2.994146e-26)
(0.009945423 1.433409e-06 2.016729e-25)
(0.009976689 -1.255482e-05 8.80493e-26)
(0.009946366 -9.758235e-06 3.314911e-25)
(0.009946055 -5.45938e-06 3.36425e-25)
(0.009947913 -5.218586e-06 0)
(0.010008 -9.777351e-06 -5.632116e-27)
(0.009904748 1.596929e-05 1.366229e-25)
(0.01001848 -1.795264e-05 3.558416e-26)
(0.009980727 2.085264e-06 -3.841578e-26)
(0.00998274 1.52609e-06 3.041032e-28)
(0.009983584 -9.639129e-06 0)
(0.009936092 -1.597362e-05 0)
(0.009969952 -2.697721e-05 -1.880346e-25)
(0.01000316 -9.357784e-06 0)
(0.009986521 8.815157e-06 2.763163e-26)
(0.01001882 -7.09518e-05 -8.342691e-27)
(0.01000327 -4.297719e-05 -3.341942e-26)
(0.01000714 -4.274873e-05 0)
(0.01000648 -2.853856e-05 0)
(0.01000376 -1.126636e-05 -9.745763e-28)
(0.009944201 1.046729e-05 2.867122e-25)
(0.009989616 -3.250378e-05 -1.802405e-26)
(0.009967846 -1.306326e-05 1.265019e-25)
(0.009980183 3.731758e-06 0)
(0.009982155 8.447418e-06 -8.736808e-26)
(0.00998208 6.090283e-06 0)
(0.009972967 -3.802785e-05 0)
(0.009984857 -1.98057e-06 -9.764976e-27)
(0.01000735 -1.52723e-05 0)
(0.009930206 2.801804e-05 -3.646738e-25)
(0.01001245 -1.704277e-05 0)
(0.01002808 -2.968216e-05 -5.847829e-26)
(0.01000898 -2.07646e-05 0)
(0.01000845 -1.916982e-05 -1.837786e-27)
(0.01001518 -7.870416e-05 1.791367e-26)
(0.009975836 -1.435385e-07 1.604139e-25)
(0.009991349 -5.465109e-06 7.996334e-27)
(0.009989193 -3.494592e-05 -9.820287e-26)
(0.009971391 -3.397639e-05 -2.382083e-25)
(0.009982372 9.79501e-06 0)
(0.009971745 -9.244063e-06 -3.501424e-25)
(0.009979976 -9.48667e-06 -6.027441e-26)
(0.009963602 -1.173875e-05 -3.43134e-27)
(0.009982493 -4.265821e-06 3.023351e-26)
(0.009963654 -1.627117e-06 -4.354188e-26)
(0.0100356 -3.954757e-05 -1.456213e-25)
(0.009976651 3.130103e-06 -2.766842e-26)
(0.009968839 9.589064e-06 -9.012895e-26)
(0.009998027 -9.743142e-06 1.137946e-27)
(0.009954974 -3.612016e-05 2.417834e-25)
(0.00996353 -1.289207e-05 -1.921732e-25)
(0.009966127 -8.488296e-06 0)
(0.009978147 -1.234167e-05 1.553514e-25)
(0.00997779 -1.010061e-05 7.445678e-27)
(0.009960301 -9.531381e-06 0)
(0.009960309 -4.429107e-06 0)
(0.009975714 -1.059215e-05 0)
(0.009988742 -1.66662e-05 7.624745e-26)
(0.009982804 -6.097931e-07 -2.748193e-26)
(0.009965059 -3.826025e-07 5.254504e-25)
(0.009970836 1.020038e-06 0)
(0.009982972 -3.023321e-06 0)
(0.009982813 -4.561232e-05 0)
(0.009924913 -1.557813e-05 -3.593218e-25)
(0.009970737 -1.947363e-06 -1.368609e-25)
(0.009914091 1.915619e-05 5.587586e-25)
(0.009976452 5.409306e-06 -4.764943e-26)
(0.009987845 -4.604629e-06 0)
(0.01000107 -1.646835e-05 -1.149952e-26)
(0.009984545 6.100105e-06 -2.782926e-27)
(0.009982598 7.435675e-06 0)
(0.009983828 7.874682e-06 -2.363675e-26)
(0.009981028 1.381986e-06 -2.828577e-27)
(0.009982824 8.721858e-06 0)
(0.01004829 -3.882336e-05 0)
(0.009952958 -2.211111e-05 -2.381565e-25)
(0.009974429 3.300668e-06 -1.002395e-25)
(0.009933095 6.923721e-06 -4.129616e-25)
(0.01001694 -3.390058e-05 -3.085517e-26)
(0.01001506 -8.222787e-06 0)
(0.01001241 -1.32232e-05 -3.779985e-27)
(0.01001248 -1.2664e-05 0)
(0.009980749 1.486696e-07 0)
(0.009982542 -9.862247e-06 -2.307764e-26)
(0.01002536 -4.804985e-05 7.11761e-26)
(0.01002137 -5.796736e-05 -3.624963e-26)
(0.009984197 6.294173e-06 0)
(0.01000068 -1.494203e-05 -1.635225e-26)
(0.009955137 -1.621509e-05 1.699683e-25)
(0.009952109 -7.582141e-06 1.951782e-25)
(0.009955722 -2.695016e-06 1.989982e-25)
(0.01000029 -1.059971e-05 2.267055e-27)
(0.0100198 -1.496739e-05 5.467315e-27)
(0.009998092 -1.481471e-05 3.068824e-26)
(0.009999009 -1.38636e-05 -1.290737e-26)
(0.0100089 -6.944393e-05 3.361685e-26)
(0.009983773 4.047379e-06 -3.260458e-26)
(0.009983186 5.457569e-06 4.22955e-26)
(0.009984555 4.351609e-06 0)
(0.009983639 4.898498e-06 -2.153464e-26)
(0.009981217 5.930222e-06 -5.704125e-26)
(0.0100109 -2.737558e-05 -1.458308e-26)
(0.009966162 6.376651e-06 2.349661e-26)
(0.009997048 -1.181347e-05 -3.036683e-26)
(0.01000998 -1.360961e-05 -6.146031e-27)
(0.009945368 -5.554709e-05 6.774434e-25)
(0.009964911 7.48377e-06 -2.21541e-25)
(0.009971514 7.90677e-06 6.995671e-26)
(0.01000039 -9.606088e-06 6.861431e-30)
(0.01000328 -1.060497e-05 2.21936e-29)
(0.00999965 -8.24451e-06 0)
(0.01001622 -5.788788e-05 -4.352511e-28)
(0.009993523 -1.222624e-05 1.09786e-26)
(0.009992801 -9.500718e-06 -1.014785e-26)
(0.009985022 -4.723862e-06 0)
(0.009984205 -6.670642e-06 0)
(0.01002798 -3.673988e-05 0)