/*--------------------------------*- C++ -*----------------------------------*\
| =========                 |                                                 |
| \\      /  F ield         | OpenFOAM: The Open Source CFD Toolbox           |
|  \\    /   O peration     | Version:  2406                                  |
|   \\  /    A nd           | Website:  www.openfoam.com                      |
|    \\/     M anipulation  |                                                 |
\*---------------------------------------------------------------------------*/
FoamFile
{
    version     2.0;
    format      ascii;
    arch        "LSB;label=32;scalar=64";
    class       surfaceScalarField;
    location    "0.44";
    object      phi;
}
// * * * * * * * * * * * * * * * * * * * * * * * * * * * * * * * * * * * * * //

dimensions      [0 3 -1 0 0 0 0];

oriented        oriented;

internalField   nonuniform List<scalar> 
6770
(
8.232285e-11
-1.777533e-09
1.69521e-09
-1.467162e-09
3.396514e-10
1.127511e-09
-1.477705e-09
1.364596e-09
1.131083e-10
1.6858e-09
-1.010557e-09
-6.75243e-10
7.729895e-09
-7.000891e-09
-7.290038e-10
6.240566e-10
8.531716e-10
-1.477228e-09
-1.118453e-09
1.591984e-09
-4.735313e-10
-1.265528e-09
1.214208e-09
5.131979e-11
-8.824282e-10
-8.155292e-10
1.697957e-09
-1.181164e-09
1.223992e-09
-4.282867e-11
2.026581e-10
-1.268382e-09
1.065724e-09
7.514556e-10
-1.67677e-09
9.253144e-10
1.34774e-09
-1.399102e-09
5.136186e-11
1.103584e-09
-1.64778e-09
5.441955e-10
-2.424571e-10
1.874212e-09
1.820481e-09
-4.908855e-09
3.088374e-09
4.505974e-10
1.344864e-09
-1.795461e-09
-2.321014e-09
5.472356e-10
1.773778e-09
-1.276832e-09
9.738654e-10
3.029667e-10
-6.572574e-10
-1.156239e-09
1.813496e-09
-8.278868e-10
-1.021792e-09
1.849679e-09
5.594401e-10
-1.507371e-09
9.479311e-10
9.075945e-10
-1.79451e-09
8.869157e-10
1.514528e-09
-1.119183e-09
-3.953456e-10
-1.196268e-09
9.010254e-10
2.952424e-10
-1.325013e-09
-2.936592e-10
1.618673e-09
1.210405e-09
3.983073e-10
-1.608713e-09
7.832465e-10
9.520825e-10
-1.735329e-09
-1.556887e-09
7.863625e-10
1.81298e-10
-1.068914e-09
8.87616e-10
3.218712e-10
-1.386903e-09
1.065032e-09
1.88659e-09
-1.5535e-09
-3.330894e-10
1.490985e-09
-2.835367e-10
-1.207449e-09
-2.150655e-10
1.695999e-09
-1.480934e-09
-2.109065e-09
2.004668e-09
1.043975e-10
-6.606328e-09
5.033755e-09
1.572573e-09
7.918632e-10
-1.700428e-09
9.085646e-10
-2.035787e-09
1.397363e-09
6.38424e-10
-1.002696e-09
2.16911e-09
-1.166414e-09
3.107251e-09
-2.674437e-09
-4.328139e-10
1.584517e-09
-1.48935e-09
-9.516708e-11
1.735466e-09
-7.506936e-10
-9.847722e-10
-1.949946e-09
1.62842e-09
3.215263e-10
-1.589115e-09
1.010465e-09
5.786507e-10
-1.271458e-09
8.60165e-10
4.112932e-10
-1.956984e-09
1.631698e-09
3.252869e-10
-1.220285e-09
8.203275e-10
3.99957e-10
-7.915403e-10
-8.225103e-10
1.614051e-09
-5.524501e-10
-1.4366e-09
1.98905e-09
-1.575082e-09
-5.752542e-10
2.150336e-09
5.721615e-10
9.348904e-10
-1.507052e-09
-1.194736e-09
3.513594e-10
8.433766e-10
-5.914543e-09
2.372787e-10
5.677264e-09
-1.183e-09
-4.11792e-10
1.594792e-09
1.614936e-09
7.714544e-10
-2.38639e-09
-1.54731e-09
1.03569e-09
5.116198e-10
1.453867e-09
-2.56069e-10
-1.197798e-09
-1.543492e-09
1.156412e-09
3.870801e-10
3.529428e-10
1.429805e-09
-1.782748e-09
-4.95101e-10
-2.422123e-09
2.917224e-09
-1.508388e-09
1.436438e-09
7.194968e-11
-1.164002e-09
2.672885e-10
8.967137e-10
3.712496e-10
1.297594e-09
-1.668843e-09
-3.595983e-10
-1.434814e-09
1.794412e-09
-1.652223e-09
1.834771e-09
-1.735619e-09
9.969228e-10
7.386958e-10
4.50919e-12
-1.734123e-09
1.729614e-09
1.018908e-09
-1.759855e-09
7.409473e-10
-6.093847e-11
-1.447058e-09
1.507996e-09
-1.487181e-09
9.328242e-10
5.543571e-10
-5.973862e-10
-1.01421e-09
1.611596e-09
2.183852e-09
-9.451157e-10
-1.238736e-09
1.222562e-09
6.019311e-10
-1.824493e-09
-9.050013e-10
-8.329899e-10
1.737991e-09
-3.673267e-10
1.878107e-09
-1.510781e-09
4.900696e-10
1.915373e-09
-2.405443e-09
-1.090087e-09
1.566409e-09
-4.763219e-10
-1.695976e-09
3.875612e-10
1.308415e-09
1.858788e-09
-4.21814e-10
-1.436974e-09
-1.661567e-10
3.45271e-09
-3.286553e-09
-4.80793e-09
8.418175e-09
-3.610245e-09
-1.242394e-09
-3.246738e-09
4.489132e-09
-2.096299e-09
1.424729e-09
6.715695e-10
-5.881332e-10
1.795974e-09
-1.207841e-09
-1.689748e-09
1.474683e-09
-1.078479e-09
-7.111666e-10
1.789645e-09
7.151265e-10
1.287186e-09
-2.002313e-09
-1.411402e-09
5.910898e-10
8.203127e-10
-1.460492e-10
-1.210034e-09
1.356084e-09
-1.706859e-09
3.583586e-10
1.3485e-09
-9.441046e-10
-1.119292e-09
2.063397e-09
7.287888e-10
-1.626702e-09
8.979128e-10
-1.193048e-09
-4.62892e-10
1.65594e-09
1.521775e-09
-3.33336e-10
-1.188439e-09
9.520526e-10
6.083073e-10
-1.56036e-09
1.190115e-09
-3.330942e-10
-8.570208e-10
8.03545e-10
-1.667437e-09
8.638916e-10
-1.282602e-09
1.164112e-09
1.184904e-10
6.192406e-10
-1.497233e-09
9.401399e-10
8.339616e-10
-1.774101e-09
-6.241414e-10
1.529274e-09
-9.051321e-10
-1.037712e-09
1.712841e-09
-6.751286e-10
1.650833e-09
-4.064079e-10
-1.244425e-09
-1.789667e-09
1.067677e-09
7.219894e-10
1.549136e-09
-1.25377e-09
-2.953652e-10
1.173947e-09
-1.040566e-09
-1.33381e-10
-1.337001e-09
1.204248e-09
1.327533e-10
2.095899e-09
-1.526332e-09
-5.69567e-10
9.82162e-10
-1.40358e-09
4.214177e-10
6.188505e-09
-9.489187e-10
-5.239586e-09
1.74078e-09
-4.13288e-10
-1.327492e-09
1.5943e-09
-4.891043e-10
-1.105195e-09
-9.071122e-10
1.457677e-09
-5.505646e-10
1.641684e-09
-1.251154e-09
-3.905306e-10
9.968291e-10
1.001273e-09
-1.998102e-09
1.045636e-09
6.898295e-10
-2.447456e-10
-4.55445e-09
4.799195e-09
-4.216697e-11
-1.357699e-09
1.399866e-09
-1.511635e-09
4.571613e-10
1.054474e-09
-1.291607e-09
1.089621e-09
2.019854e-10
9.805025e-10
1.664415e-09
-2.644917e-09
-6.903455e-10
1.715612e-09
-1.025267e-09
-1.540672e-09
1.681597e-09
-1.409248e-10
1.819395e-09
-1.254713e-09
-5.646819e-10
7.772198e-10
1.070058e-09
-1.847277e-09
-3.895775e-10
1.709569e-09
-1.319991e-09
5.907795e-10
-1.91426e-09
1.32348e-09
-1.257565e-09
1.636001e-09
-3.784367e-10
1.957129e-09
-1.005076e-09
-1.988179e-09
1.442733e-09
5.454453e-10
1.041773e-09
8.476777e-10
-1.88945e-09
-7.943686e-10
-5.123397e-10
1.306708e-09
1.556607e-09
-3.826605e-10
-5.54077e-10
-8.184235e-10
1.372501e-09
1.561148e-09
-4.305826e-10
-1.130566e-09
2.073101e-09
-1.040319e-09
-1.032783e-09
1.234476e-09
4.552074e-10
-1.689684e-09
-1.665381e-09
1.414207e-09
2.511743e-10
4.517247e-09
8.73573e-10
-5.39082e-09
1.529439e-09
-1.44771e-09
-8.172912e-11
-1.624216e-09
9.333538e-10
6.908621e-10
1.141469e-09
-4.980353e-09
3.838884e-09
-1.551639e-09
3.067499e-10
1.24489e-09
1.224998e-09
7.789926e-10
9.456192e-10
6.541446e-10
-1.599764e-09
1.70806e-09
-1.417807e-09
-2.902526e-10
7.333714e-10
-1.351646e-09
6.182747e-10
5.742217e-10
-1.369389e-09
7.951671e-10
1.857245e-09
-1.471404e-09
-3.858409e-10
-7.764923e-09
1.850381e-09
2.224177e-10
1.073014e-09
-1.295432e-09
-1.152507e-09
7.061308e-10
4.46376e-10
6.172221e-10
9.598342e-10
-1.577056e-09
7.52835e-10
8.766096e-10
-1.629445e-09
1.543339e-09
-9.639462e-10
-5.793927e-10
-2.235885e-11
2.64009e-09
-2.617731e-09
-1.693914e-09
9.108397e-10
7.830745e-10
-9.580527e-10
1.939877e-09
-9.818241e-10
1.497533e-09
4.407025e-10
-1.938235e-09
-1.582022e-09
-2.776162e-10
1.859639e-09
1.157208e-09
-1.767192e-09
6.099845e-10
-1.995436e-09
2.485505e-09
1.252874e-09
-1.002649e-09
-2.502247e-10
4.433557e-10
-1.529079e-09
1.085724e-09
-2.402697e-10
1.524204e-09
-1.283934e-09
-1.783161e-09
2.35851e-10
-1.562495e-09
2.776378e-10
1.284857e-09
3.70604e-10
-1.747235e-09
1.376631e-09
-1.689763e-09
6.544144e-10
1.035348e-09
-5.90351e-10
2.44941e-09
-1.859059e-09
-1.961461e-09
1.133574e-09
1.419045e-09
-2.017166e-11
-1.398874e-09
8.561453e-10
7.687859e-10
-1.624931e-09
2.923938e-10
-1.632128e-09
1.339734e-09
-7.712032e-10
1.818154e-09
-1.046951e-09
-5.29657e-10
2.02719e-09
1.206042e-09
-1.578822e-09
3.727803e-10
9.606925e-11
-1.636742e-09
5.914917e-12
1.291738e-09
-1.297653e-09
-1.470854e-09
6.715225e-10
7.993316e-10
1.362864e-09
-1.591349e-09
2.284849e-10
1.542033e-10
-1.614741e-09
1.460537e-09
-9.102753e-10
1.643647e-09
2.879601e-09
-1.390881e-09
7.400963e-10
6.507844e-10
2.240098e-10
8.196224e-10
-1.043632e-09
1.066087e-09
-1.523844e-09
4.577563e-10
3.717001e-10
1.302403e-09
-1.674103e-09
-1.242874e-09
1.898081e-09
-6.552063e-10
9.856346e-10
-1.201489e-09
2.158543e-10
1.513353e-09
-6.043344e-10
-9.090186e-10
1.121859e-09
5.757911e-10
-1.69765e-09
-1.685996e-09
1.128563e-09
5.574329e-10
3.61543e-10
-1.33382e-09
9.722767e-10
-1.66473e-09
9.967577e-10
6.679721e-10
-2.62338e-10
-1.208516e-09
-1.769041e-09
1.300345e-09
4.686961e-10
-7.946447e-10
1.734785e-09
-1.745357e-09
1.155006e-09
1.076266e-09
7.088827e-10
-1.785148e-09
6.382529e-10
-2.030558e-09
1.392305e-09
-7.747137e-10
-1.094465e-09
1.869179e-09
-1.625824e-09
4.911204e-10
1.134703e-09
2.025026e-10
-1.192215e-09
9.897124e-10
1.030889e-09
1.228445e-10
-1.153733e-09
-1.813333e-10
1.552223e-09
-1.37089e-09
1.650055e-09
-1.371687e-09
-2.783676e-10
2.076384e-09
-1.002846e-09
-1.073538e-09
3.369125e-10
1.37385e-09
-1.710763e-09
8.833573e-10
8.76334e-10
-1.759691e-09
-1.119647e-09
-5.510824e-10
1.67073e-09
4.876216e-10
-1.317283e-09
8.296616e-10
1.761837e-09
-7.211524e-10
-1.040685e-09
9.794058e-10
4.859931e-10
-1.465399e-09
2.405075e-10
9.501059e-10
-1.190613e-09
1.388255e-09
6.881297e-10
-4.853722e-10
-1.219911e-09
1.705284e-09
-1.289464e-09
-2.626387e-10
1.552103e-09
1.530568e-09
-4.853852e-10
-1.045183e-09
8.237618e-10
-1.986817e-09
1.163055e-09
-1.400168e-09
3.51222e-10
1.048946e-09
1.103776e-09
-1.690944e-09
5.871683e-10
-3.732212e-11
-1.865934e-09
1.903256e-09
3.13147e-09
-1.516535e-09
1.406843e-09
-1.141332e-09
-2.655105e-10
-1.570189e-09
9.544595e-10
6.157299e-10
-8.950162e-10
1.152948e-09
-2.579317e-10
1.803122e-10
-1.372445e-09
1.192133e-09
8.775061e-10
-1.822006e-09
9.445e-10
-1.535761e-09
-5.364063e-10
2.072167e-09
-1.317756e-09
-1.494059e-10
-1.711045e-09
9.829414e-10
7.281041e-10
8.10955e-10
1.016634e-09
-1.827589e-09
1.466678e-09
-2.137267e-09
6.705894e-10
-1.061009e-09
1.598058e-09
-5.370489e-10
1.720736e-09
-4.862594e-10
-1.739408e-09
2.612889e-10
1.478119e-09
-1.069142e-09
2.00131e-09
-9.321672e-10
-7.909489e-10
-1.106662e-09
1.897611e-09
-1.246847e-09
2.205156e-09
-9.583096e-10
-1.77825e-09
1.988025e-09
-1.204779e-09
-1.186408e-09
1.763974e-09
-5.775659e-10
-1.21643e-09
3.433899e-10
8.730402e-10
1.829933e-09
-1.314041e-09
-5.158917e-10
2.105294e-09
-1.66639e-09
-4.38904e-10
1.738327e-09
-6.238484e-10
-1.114479e-09
-1.275128e-09
-3.577001e-10
1.632828e-09
1.175537e-09
3.550314e-10
1.529738e-09
2.320992e-10
1.577961e-09
-9.294703e-10
-6.48491e-10
8.437132e-10
-1.852309e-09
1.008596e-09
1.488077e-09
4.890513e-11
-1.536982e-09
-8.808982e-10
-5.750802e-10
1.455978e-09
1.426822e-09
-1.057958e-09
-3.688645e-10
-1.221431e-09
-4.99407e-10
1.720838e-09
2.018623e-10
-1.224461e-09
1.022598e-09
-1.656353e-09
1.677688e-09
-2.133502e-11
-1.078389e-09
-6.998616e-10
-9.794981e-10
-2.967352e-10
1.276233e-09
-1.977174e-09
8.335636e-10
1.14361e-09
1.865278e-09
-1.439294e-09
-4.259844e-10
1.064244e-09
9.349175e-10
-1.999161e-09
-1.657598e-09
3.815309e-10
1.276067e-09
1.806759e-09
-3.389413e-10
-1.467818e-09
6.540362e-10
1.265355e-09
-1.41784e-09
1.52485e-10
-1.434082e-09
-3.622649e-10
1.796347e-09
1.215894e-09
9.037907e-10
-2.119685e-09
-2.107611e-09
9.518927e-10
1.155719e-09
-8.038687e-10
1.598152e-09
-7.942838e-10
8.29752e-10
-1.129726e-09
2.999744e-10
-2.201728e-10
-1.474411e-09
1.694584e-09
-4.814535e-09
3.572141e-09
1.791537e-09
-5.199741e-09
3.408204e-09
-1.728821e-09
1.278128e-09
4.506936e-10
-1.744491e-09
1.490923e-09
2.535684e-10
1.395541e-09
-3.129017e-11
-1.364251e-09
-1.721526e-09
1.393413e-09
3.281129e-10
-3.068705e-09
-3.107783e-11
3.099783e-09
-4.888081e-10
1.918648e-09
-1.42984e-09
1.361042e-09
-2.367975e-09
1.006933e-09
8.331181e-12
1.378452e-09
-1.386783e-09
-1.346801e-09
-4.925836e-10
1.839385e-09
-1.562376e-09
1.790795e-09
-2.284195e-10
2.354211e-09
-1.243033e-09
-1.111178e-09
-1.618762e-09
4.562292e-10
1.162533e-09
-1.582455e-09
8.970396e-10
6.854154e-10
2.840983e-10
1.454422e-09
-1.738521e-09
-1.610457e-09
1.013071e-09
1.407103e-09
7.227122e-11
-1.479374e-09
1.565075e-09
-8.012366e-10
-7.638388e-10
-1.277934e-10
1.182196e-09
-1.054403e-09
-8.127184e-10
-1.006327e-09
1.819045e-09
-1.860977e-09
6.975871e-10
1.16339e-09
1.270152e-09
-1.318987e-12
-1.268833e-09
1.05307e-09
1.272532e-09
-2.325602e-09
1.101408e-09
1.164338e-09
-1.346814e-09
1.824763e-10
2.648681e-09
-7.321774e-09
4.673093e-09
1.847185e-09
3.654002e-11
-1.883726e-09
-1.474626e-09
9.696996e-10
5.049265e-10
1.68377e-09
-8.043512e-10
-8.794189e-10
1.003294e-09
-1.219217e-09
2.15923e-10
-5.010242e-09
-2.754681e-09
-5.56349e-10
1.498159e-09
-9.418104e-10
1.725703e-09
-9.338403e-10
-1.821261e-09
-8.850186e-11
1.909763e-09
1.939174e-10
1.459439e-09
-1.653357e-09
1.069683e-09
-1.845035e-10
-8.8518e-10
-8.688546e-10
-5.296727e-10
1.398527e-09
-1.653667e-09
-1.329501e-09
2.983168e-09
-1.028966e-09
-9.54068e-10
1.983034e-09
1.004184e-09
-1.634384e-09
6.301999e-10
1.502906e-11
-1.313127e-09
1.298098e-09
-5.377742e-10
-1.166206e-09
1.70398e-09
-6.780982e-10
1.795266e-09
-1.117168e-09
1.645724e-09
-2.648421e-09
1.601999e-09
-1.825971e-09
2.239727e-10
1.397519e-09
-2.145915e-09
7.483956e-10
7.834041e-10
2.506678e-10
-1.034072e-09
2.180067e-09
6.995345e-10
-3.601434e-10
-1.617937e-09
1.978081e-09
2.678885e-10
-1.784936e-09
1.517048e-09
-7.148636e-10
-8.807784e-10
1.595642e-09
1.585489e-09
-1.627656e-09
-3.410212e-10
1.476416e-09
-1.135395e-09
8.517128e-11
-1.527044e-09
1.441872e-09
-1.190878e-09
-5.030364e-10
-8.693979e-10
1.082281e-09
-2.128828e-10
1.542263e-09
-1.903372e-09
3.611093e-10
2.750397e-09
-2.753857e-09
3.460262e-12
1.485857e-09
-1.114547e-09
-3.713099e-10
-1.516699e-09
1.120492e-09
3.962068e-10
1.685964e-09
-1.236866e-09
3.527201e-10
1.333244e-09
1.09162e-09
-1.547514e-09
4.55894e-10
9.699329e-10
-1.179379e-09
2.094465e-10
-7.387896e-10
8.174203e-10
9.67387e-10
-1.784807e-09
9.943439e-10
-1.19491e-09
2.005657e-10
-1.401213e-09
1.580851e-09
-1.796386e-10
1.466338e-09
-3.444789e-10
-1.863691e-09
8.153038e-10
1.048388e-09
1.934604e-09
-2.395362e-10
-1.695068e-09
-5.547198e-12
1.235787e-09
-1.23024e-09
-1.404304e-10
1.307182e-09
-1.166752e-09
-1.506144e-09
-5.650772e-11
1.562652e-09
-1.438108e-09
1.492509e-09
-5.440017e-11
-1.408181e-09
1.034072e-09
3.741097e-10
1.202189e-09
-9.970069e-10
-2.051824e-10
1.917173e-09
-1.601905e-09
-3.152683e-10
-1.390789e-09
1.929524e-10
1.197837e-09
1.832504e-09
-1.160488e-09
-6.720161e-10
-8.954591e-10
-1.951412e-09
2.554356e-10
-6.177574e-10
-1.061185e-09
1.678943e-09
-8.569482e-10
1.079908e-09
-2.229598e-10
1.629111e-09
-1.96091e-09
3.31799e-10
-1.223213e-09
2.134053e-09
1.738306e-09
-9.552318e-10
-1.236137e-09
-3.915975e-10
1.627735e-09
-3.414067e-10
-9.300514e-10
8.323202e-10
2.436872e-09
-3.269192e-09
-1.100659e-09
1.691438e-09
2.10214e-09
-1.508315e-09
-5.938251e-10
8.921434e-10
8.54985e-10
-1.747128e-09
1.762483e-09
-1.187247e-10
-1.643758e-09
-8.216531e-11
-1.328123e-09
1.410288e-09
-1.043197e-09
-5.770764e-10
1.620273e-09
8.33418e-11
1.616881e-09
-1.700223e-09
-1.463224e-09
1.797612e-09
-3.343886e-10
1.115767e-09
5.784902e-10
-1.694257e-09
-4.591706e-10
1.332926e-09
-8.737555e-10
-1.833542e-09
1.52533e-09
3.082125e-10
-1.223276e-09
1.285396e-09
-6.212019e-11
-4.459217e-10
-7.753896e-10
1.221311e-09
2.029035e-09
-1.247074e-09
-7.819605e-10
-5.177347e-10
-7.234834e-10
1.241218e-09
-1.240027e-11
1.102898e-09
-1.090498e-09
1.351477e-09
-1.443221e-09
9.174454e-11
1.438292e-09
2.640559e-10
-1.702348e-09
5.584724e-10
7.067124e-10
-1.265185e-09
-4.837009e-10
-8.547133e-10
1.338414e-09
-9.025852e-10
1.59262e-09
-6.90035e-10
1.311305e-09
-1.211898e-10
-7.319468e-10
2.105619e-09
-1.373672e-09
8.032421e-10
6.686427e-10
-1.471885e-09
1.865078e-09
-9.933876e-10
-8.716899e-10
-4.438989e-10
-1.211391e-09
1.65529e-09
-8.763353e-10
1.574187e-09
-6.978514e-10
2.391201e-09
-6.436611e-10
-1.74754e-09
1.879858e-09
-1.130481e-09
-7.493773e-10
1.433824e-09
3.742871e-10
-1.808111e-09
-3.089075e-09
-2.450439e-09
5.539514e-09
1.766133e-09
-5.268666e-09
3.502533e-09
-1.271534e-09
-4.678742e-10
1.615633e-09
1.027865e-09
-1.481326e-09
4.534602e-10
1.301332e-09
-1.325158e-09
2.382581e-11
-9.331648e-10
-1.044009e-09
1.652414e-09
-8.725857e-10
-1.694746e-09
2.315228e-10
-9.785413e-10
-4.593395e-10
1.437881e-09
9.074237e-10
1.49653e-09
-2.403954e-09
8.491489e-10
4.67191e-10
-1.31634e-09
1.802222e-09
-6.093744e-10
6.167235e-10
-6.026042e-10
1.512599e-09
-9.099951e-10
4.423817e-10
-1.699946e-09
7.527598e-11
1.473425e-09
-1.548701e-09
-1.103051e-10
1.474243e-09
-1.363938e-09
-6.572259e-09
1.787505e-09
4.784754e-09
-1.233667e-09
1.421622e-09
-1.879552e-10
-1.46284e-09
1.451749e-09
1.109124e-11
1.591865e-09
-5.765604e-10
-1.015305e-09
-1.807953e-09
1.428494e-09
3.794588e-10
7.008134e-10
-1.817818e-09
1.117005e-09
-1.365204e-09
-8.523488e-10
-6.348325e-10
4.151403e-10
-8.795382e-10
4.643979e-10
1.384668e-09
-1.6341e-10
-1.221258e-09
-1.57229e-09
1.386898e-09
1.513321e-09
1.907338e-10
-1.704054e-09
-7.175385e-11
-1.542124e-09
1.288291e-09
-1.621964e-09
3.336728e-10
-4.60451e-12
1.547943e-09
-1.631739e-09
-3.252452e-10
-1.785726e-09
-3.375836e-10
2.123309e-09
-1.286731e-09
-1.214504e-10
-9.829078e-10
-1.052879e-09
5.225012e-11
1.497109e-09
-1.549359e-09
1.282184e-09
-1.728106e-09
-1.627298e-09
-3.136323e-10
1.94093e-09
1.874695e-09
-9.083527e-10
-9.663422e-10
-3.20749e-10
-4.640557e-09
4.961306e-09
1.379223e-09
-1.184628e-09
-1.945944e-10
-5.007884e-10
-1.220894e-09
1.721682e-09
-1.550332e-09
1.725183e-09
-1.748513e-10
-8.774216e-10
-5.965802e-10
1.474002e-09
-1.660326e-09
2.093493e-10
1.450977e-09
1.452568e-09
-1.410598e-09
-4.197019e-11
6.179647e-10
-1.655677e-09
3.503489e-10
-1.812531e-09
1.462182e-09
1.639644e-09
1.588499e-10
-1.798494e-09
1.751381e-09
-6.978397e-11
8.170024e-10
-2.228107e-09
1.411105e-09
-1.306923e-09
1.357707e-09
-5.078375e-11
-7.667694e-10
1.650127e-09
1.1735e-09
4.773321e-10
1.464581e-09
-1.126882e-10
-1.351893e-09
-4.930746e-09
5.471613e-10
4.383585e-09
-1.053085e-09
1.661392e-09
2.220421e-10
-1.83349e-09
1.611448e-09
4.251898e-11
1.410049e-09
-1.101822e-09
-6.913174e-10
1.79314e-09
5.133947e-10
1.360321e-09
1.745069e-09
-1.309636e-09
-4.354332e-10
1.935076e-09
-8.326668e-10
-1.10241e-09
-2.138576e-09
-1.607686e-10
2.299344e-09
-1.028734e-09
-4.552364e-10
1.48397e-09
1.525813e-09
-1.743362e-10
-4.491931e-10
1.609614e-09
-1.160421e-09
7.518036e-10
9.636218e-10
-1.715425e-09
1.190772e-09
-1.696128e-09
5.053558e-10
1.127371e-09
4.283584e-10
-1.55573e-09
-1.404572e-09
8.886713e-10
5.159006e-10
1.150629e-09
1.434655e-09
-4.640011e-11
-1.718917e-09
6.775029e-10
1.041414e-09
6.817367e-10
-2.08085e-09
1.399113e-09
5.656948e-10
-1.587486e-09
5.349652e-10
8.497029e-10
3.244791e-10
-1.763944e-09
6.599641e-10
-2.830535e-09
2.170571e-09
-1.439864e-09
-1.139675e-09
-4.349111e-10
1.574586e-09
-9.728745e-11
1.445027e-09
2.068962e-10
1.408453e-09
-1.615349e-09
-1.301565e-09
-4.652275e-10
1.766793e-09
-3.812399e-11
1.282427e-09
-1.244303e-09
1.293966e-09
-8.513856e-10
-4.425804e-10
1.857698e-09
-1.761893e-09
-9.580499e-11
3.609022e-09
2.377146e-10
-3.846737e-09
-1.668391e-09
-3.197873e-10
-3.227095e-09
2.50042e-09
7.26675e-10
-1.638093e-09
2.394787e-10
1.398614e-09
1.344098e-09
-1.793292e-09
-1.257197e-09
1.11336e-10
-1.583917e-09
1.472581e-09
1.495302e-09
-1.629697e-09
1.343951e-10
1.492434e-09
-3.938302e-10
-1.098604e-09
1.343216e-09
-1.425008e-09
8.179219e-11
-1.256235e-09
-4.001176e-10
2.796892e-10
-1.360547e-09
1.080858e-09
5.708154e-10
-1.713337e-09
1.142522e-09
-2.43114e-10
1.523441e-09
-1.280327e-09
-7.759536e-11
1.283637e-09
1.476023e-09
-4.791006e-10
-1.042088e-09
1.196099e-09
-1.540109e-10
-1.305758e-09
1.00276e-09
3.029974e-10
-1.562517e-09
5.521721e-10
1.010345e-09
-9.981555e-10
1.197503e-09
-1.993474e-10
-1.091312e-09
-9.509574e-11
1.534086e-09
-4.679982e-10
-1.090441e-09
1.666232e-09
1.581875e-09
-4.044547e-10
-1.17742e-09
-9.392515e-10
-7.583987e-10
-2.855332e-10
1.198071e-09
-9.125374e-10
-1.023644e-09
-8.829452e-10
1.906589e-09
-1.209252e-09
1.012051e-09
1.972003e-10
-1.984752e-10
1.192819e-09
-1.569052e-09
8.22408e-10
7.466441e-10
1.604779e-09
-1.395413e-09
-2.093661e-10
3.936004e-10
1.043258e-09
-1.436859e-09
5.560114e-10
-1.96212e-09
1.406109e-09
-4.44366e-09
6.235197e-09
-8.042561e-10
1.898191e-09
-1.093934e-09
-3.196188e-09
1.200753e-09
-2.216789e-09
1.100761e-09
1.116028e-09
-8.506362e-10
3.462158e-09
-2.611521e-09
5.154066e-10
8.280578e-10
-1.343464e-09
1.816342e-09
-7.732496e-10
1.745134e-09
-9.718842e-10
1.849804e-09
-1.278988e-09
-1.307743e-09
-2.949008e-10
1.602644e-09
-1.584775e-09
2.074387e-09
-4.896124e-10
5.234663e-09
-4.013427e-10
-4.83332e-09
-1.836501e-09
1.524004e-11
1.99898e-09
-1.052509e-09
-1.966925e-09
1.213893e-09
-8.685199e-10
-7.416551e-10
1.610175e-09
1.964882e-09
-1.854668e-09
-1.102139e-10
1.522092e-09
-6.283931e-10
-8.936988e-10
1.841714e-10
1.21137e-09
1.478221e-09
1.150718e-10
-1.593292e-09
1.050986e-09
4.17431e-10
-1.468417e-09
-9.429499e-10
-8.905922e-10
4.557268e-10
-1.613327e-09
1.1576e-09
-5.326477e-10
1.723694e-09
-1.191046e-09
-2.00042e-09
-3.042293e-09
5.042713e-09
-1.648719e-09
8.069051e-10
8.418139e-10
-1.572096e-09
8.053268e-10
-6.504744e-10
1.736979e-09
-1.086505e-09
-6.217783e-10
3.692867e-09
-3.071089e-09
-1.520586e-09
-5.263108e-10
2.046897e-09
1.961515e-09
2.194002e-09
-7.273242e-10
-8.456539e-10
1.622874e-09
-6.848157e-10
1.809675e-09
-1.124859e-09
9.30495e-10
3.708369e-10
1.272386e-09
3.398557e-10
-1.612242e-09
1.312019e-09
3.946835e-10
-1.706703e-09
-1.335915e-09
1.597204e-09
1.560597e-09
5.10921e-10
-2.071518e-09
7.610747e-10
-1.79059e-09
1.029515e-09
-1.824659e-09
1.269629e-09
5.550301e-10
-1.1689e-09
-1.318474e-09
2.487374e-09
1.771768e-09
-2.423755e-09
6.519866e-10
4.653417e-10
-1.791031e-09
1.325689e-09
2.175181e-09
-8.409147e-10
-1.334266e-09
-5.528116e-10
-1.362217e-09
1.915028e-09
-4.254834e-10
-9.736182e-10
-8.613076e-10
-7.5581e-10
-1.006376e-09
-1.01956e-10
1.108332e-09
-9.43994e-10
1.409336e-09
-1.151921e-09
-8.026546e-10
1.954575e-09
1.239747e-09
-4.73528e-10
-1.133096e-09
1.606624e-09
1.737853e-09
-3.040288e-10
-5.711046e-11
-9.716233e-10
-3.118982e-10
-1.272876e-09
2.104442e-10
-1.761687e-09
1.551243e-09
-1.054664e-09
-7.260048e-10
1.780668e-09
8.075051e-09
-8.075051e-09
-1.959967e-10
1.404928e-09
-1.208931e-09
-7.032784e-10
1.398754e-09
-6.954754e-10
3.250802e-10
-1.793381e-09
1.468301e-09
-1.046574e-09
-8.676858e-10
1.602391e-09
-5.622179e-10
-1.040173e-09
-1.199087e-09
-2.250358e-10
1.424123e-09
4.392146e-10
1.70212e-09
-1.296466e-09
-4.056543e-10
-1.031976e-09
1.590319e-09
-1.589234e-09
4.418543e-10
1.14738e-09
1.149639e-09
7.275013e-10
-1.87714e-09
-1.041385e-09
1.549666e-09
-5.082808e-10
-1.06894e-09
2.184706e-09
1.877975e-09
-1.437272e-09
-1.441359e-09
1.447274e-09
-3.697448e-10
-7.792631e-10
1.149008e-09
-7.129093e-09
1.750469e-09
5.378624e-09
9.760687e-10
5.673549e-10
-1.543424e-09
8.645933e-10
-1.25693e-09
3.923371e-10
-1.836093e-09
1.002497e-09
8.335961e-10
7.650852e-10
-1.385887e-09
6.208021e-10
-1.52128e-09
6.044044e-10
9.168757e-10
2.069454e-11
1.536145e-09
-1.55684e-09
-1.083351e-09
2.183034e-09
-1.099683e-09
4.659827e-10
9.646762e-10
2.982466e-11
-9.945009e-10
-3.807486e-10
1.317378e-09
-9.366298e-10
-9.432796e-10
1.35842e-09
-9.054874e-10
2.043809e-09
-1.138322e-09
8.100595e-09
-6.446908e-09
-1.653687e-09
-1.148296e-09
-9.889708e-10
-4.547844e-10
-1.622243e-09
2.077028e-09
-7.566524e-10
-8.700492e-10
-1.370288e-09
9.3784e-11
1.276504e-09
1.837229e-09
-1.240386e-09
-5.968434e-10
1.339478e-09
-1.412704e-09
7.322612e-11
1.497647e-09
-1.314346e-09
1.739456e-09
-4.251103e-10
7.909477e-10
-1.545446e-09
3.002957e-10
1.24515e-09
-1.747674e-09
9.821454e-10
7.655282e-10
1.39247e-09
-5.174337e-09
4.951816e-09
2.225214e-10
-1.442201e-09
1.820154e-09
-1.509898e-09
-3.102554e-10
6.907793e-10
1.053669e-09
-1.744448e-09
1.402671e-09
-1.500422e-09
9.775092e-11
-1.645155e-09
8.081308e-10
8.370242e-10
1.492174e-09
-3.342963e-10
-1.157878e-09
-1.695257e-10
-1.116313e-09
1.285839e-09
-3.092938e-09
6.953638e-09
-3.860701e-09
2.245819e-09
2.146637e-09
-4.392456e-09
-2.047134e-09
8.78234e-10
1.015625e-09
9.604417e-10
-1.976066e-09
-1.52586e-09
1.184839e-09
-1.837814e-09
5.531577e-10
1.284656e-09
1.795954e-09
-7.421279e-10
-1.053826e-09
-1.037887e-09
1.078542e-09
-4.065507e-11
-1.692907e-09
2.50558e-10
-1.07931e-09
1.378318e-09
-2.990088e-10
1.785125e-09
-7.542361e-10
1.458045e-09
2.798082e-10
-1.64288e-09
-3.698013e-10
2.012681e-09
6.520173e-10
-1.607624e-09
9.556064e-10
1.03709e-09
9.537106e-10
-1.990801e-09
-1.676214e-09
3.582013e-11
1.640394e-09
7.617211e-10
-2.314475e-09
1.552753e-09
7.644875e-10
7.488656e-10
1.31568e-09
-3.740265e-10
-9.416538e-10
1.983915e-09
-1.637615e-10
-3.169751e-10
1.373709e-09
-1.056734e-09
-1.702349e-09
1.147293e-09
-1.825391e-09
3.98283e-10
1.353098e-09
-1.808351e-09
1.405086e-09
4.032658e-10
-1.838511e-09
1.95631e-10
1.41693e-09
2.447128e-10
-1.661643e-09
1.485568e-09
3.097267e-10
-1.795294e-09
-1.982963e-09
1.613162e-09
3.867058e-10
-1.994009e-09
1.607304e-09
-7.692216e-10
-7.520584e-10
-1.188227e-09
1.042178e-09
-1.101508e-09
-3.833671e-10
1.484875e-09
-1.401255e-09
1.799538e-09
-1.768521e-09
7.525535e-10
1.015967e-09
-9.986586e-10
1.407563e-09
-4.089045e-10
-1.111104e-09
-4.629221e-10
1.574026e-09
-1.190428e-10
1.579588e-09
-1.460545e-09
-1.304066e-09
1.265322e-09
4.81056e-10
-1.746378e-09
-1.583857e-09
1.610046e-09
-2.618841e-11
-5.160287e-10
2.620665e-09
-2.104636e-09
1.835768e-09
-6.898345e-10
-1.145934e-09
4.113737e-09
-4.279894e-09
-1.717742e-09
1.64694e-09
7.080224e-11
1.945366e-09
-9.902932e-10
-9.550727e-10
-1.184542e-09
1.003209e-09
1.949568e-10
1.357266e-09
-4.094699e-09
3.472921e-09
-1.672467e-09
1.359905e-09
3.125616e-10
1.399002e-09
-4.685075e-10
-1.056067e-09
-1.186167e-09
2.242233e-09
-1.15673e-09
1.847607e-09
-6.908767e-10
-2.693222e-09
6.13304e-10
2.079918e-09
1.300091e-09
-2.093877e-09
7.937855e-10
5.951258e-10
8.471331e-10
-1.442259e-09
-7.491969e-10
-4.251438e-10
1.174341e-09
3.754567e-10
1.18311e-09
-1.558567e-09
1.154216e-09
-1.554923e-09
4.00707e-10
-3.836093e-10
-1.276717e-09
1.920682e-09
-7.446025e-12
-1.913236e-09
-1.981697e-09
4.009793e-10
1.273081e-09
-1.67406e-09
1.522438e-09
-1.140907e-09
-1.267541e-09
-2.852237e-10
1.552765e-09
7.671503e-10
7.979251e-10
3.323267e-10
-1.608742e-09
1.276415e-09
-1.727703e-09
6.080553e-10
1.373719e-09
-1.499949e-09
1.2623e-10
1.797992e-09
-7.160322e-10
-1.081959e-09
-1.359857e-09
4.241735e-10
9.356831e-10
-1.773133e-09
9.724674e-10
8.00666e-10
1.33848e-09
-1.558653e-09
-1.510812e-09
9.202988e-10
5.905129e-10
-1.181327e-10
2.081357e-09
-1.963224e-09
-7.506576e-10
1.726726e-09
1.320476e-09
-5.690208e-10
9.034871e-10
-1.878933e-09
9.75446e-10
-6.468212e-10
-4.21731e-10
1.068552e-09
-1.44922e-09
9.66779e-10
4.824408e-10
-7.72385e-10
-1.030827e-09
1.890992e-09
-6.487016e-10
1.563602e-09
-9.149002e-10
1.308802e-09
1.865002e-10
1.214981e-09
6.348226e-10
-7.767572e-10
-9.236706e-10
-5.425305e-10
1.448833e-09
-9.06303e-10
-6.298447e-10
1.430564e-09
-8.007195e-10
9.369843e-10
-1.841986e-09
-2.302807e-11
1.092712e-09
-4.99115e-10
1.888744e-09
-1.389629e-09
-1.153502e-09
4.030128e-10
-8.860744e-10
1.482101e-09
-5.960269e-10
-9.926467e-10
1.745482e-09
-1.999971e-09
1.695942e-09
1.31574e-09
-1.791944e-09
4.762036e-10
1.450526e-09
-1.53455e-09
8.402373e-11
1.358778e-09
1.05803e-10
-7.468029e-10
-7.648322e-10
-1.352537e-09
5.615883e-10
4.113836e-10
1.080791e-09
-5.891778e-10
-1.410793e-09
1.563868e-09
-1.759865e-09
-1.174982e-09
1.267523e-09
-9.254066e-11
4.135848e-09
-3.457203e-09
-6.78645e-10
-1.661623e-09
1.276809e-09
3.848139e-10
1.301521e-09
-1.47667e-09
1.75149e-10
-1.284936e-09
-3.875304e-10
-1.440057e-09
3.289533e-10
1.850731e-09
-1.328314e-09
-5.224171e-10
3.615162e-09
8.640253e-10
-4.479187e-09
1.048627e-09
1.157115e-10
5.799913e-10
-1.552115e-09
-4.929954e-10
1.070255e-09
-1.067143e-09
4.676165e-09
-1.27516e-09
-5.33191e-10
-2.203774e-09
3.288309e-10
1.874943e-09
-1.270765e-09
2.643884e-10
-1.275771e-09
1.37184e-09
1.427873e-09
8.481751e-10
-2.276048e-09
-2.879135e-10
3.709849e-10
2.003489e-09
-2.374474e-09
-7.476367e-10
-7.719645e-10
-2.628784e-09
3.400749e-09
-1.255302e-09
1.010628e-09
2.446736e-10
-1.881014e-09
6.404744e-10
1.240539e-09
2.17741e-10
-1.852964e-09
6.061176e-10
5.102147e-10
1.293611e-09
-1.803825e-09
1.428387e-09
-1.056687e-09
-8.615221e-10
-9.631371e-10
-5.832136e-10
1.011009e-09
-4.277951e-10
1.985077e-09
-1.157596e-09
-1.058156e-09
2.215752e-09
-1.58105e-09
-1.700285e-10
1.751079e-09
-1.340732e-09
3.765095e-10
9.642222e-10
1.963099e-09
-1.637528e-09
-3.255718e-10
1.260874e-09
6.138208e-10
1.712849e-09
-6.630831e-10
-1.049766e-09
1.029168e-09
-2.208297e-09
1.17913e-09
7.623655e-10
-5.857527e-10
-1.03301e-09
1.860904e-09
-1.29366e-09
-5.67244e-10
-1.646789e-10
1.394352e-09
-1.229673e-09
-5.67308e-09
8.321761e-09
-6.854954e-10
1.230973e-09
-5.454773e-10
-1.330016e-09
5.923713e-11
1.270779e-09
-1.159014e-09
1.443112e-09
1.729659e-09
-1.387672e-09
-3.419877e-10
-1.875811e-09
1.10659e-09
-1.984494e-09
9.153513e-10
-9.983051e-10
-1.017273e-09
1.924647e-09
-9.07374e-10
-1.078448e-09
2.007091e-09
-9.286427e-10
5.802417e-09
-4.660947e-09
2.555679e-09
5.633503e-10
-1.562009e-09
-6.729873e-10
-9.437803e-10
1.422847e-09
-1.291288e-09
-1.315584e-10
1.232272e-09
-3.747332e-10
-8.575388e-10
9.051479e-10
9.599296e-10
-5.726556e-11
1.597436e-09
-1.54017e-09
-8.508895e-10
1.031331e-09
-1.804418e-10
1.584538e-09
-1.301486e-09
-2.83052e-10
4.726763e-10
-1.436623e-09
-1.212021e-09
1.478267e-09
-2.662463e-10
1.102248e-09
-1.486254e-09
1.362639e-09
1.236153e-10
1.11272e-10
1.36556e-09
-1.476832e-09
1.263446e-09
-1.781181e-09
3.864137e-09
-2.499206e-10
-3.614216e-09
-2.340347e-09
-8.867476e-10
-1.448092e-09
-6.860695e-11
-8.143686e-10
-1.086956e-09
1.901325e-09
1.057554e-09
-1.417515e-09
3.599606e-10
-1.327048e-09
3.201295e-10
1.006919e-09
-2.049375e-10
-1.610098e-09
1.815035e-09
-1.757162e-09
1.644474e-09
9.304354e-10
1.070874e-09
7.961074e-10