/*--------------------------------*- C++ -*----------------------------------*\
| =========                 |                                                 |
| \\      /  F ield         | OpenFOAM: The Open Source CFD Toolbox           |
|  \\    /   O peration     | Version:  2406                                  |
|   \\  /    A nd           | Website:  www.openfoam.com                      |
|    \\/     M anipulation  |                                                 |
\*---------------------------------------------------------------------------*/
FoamFile
{
    version     2.0;
    format      ascii;
    arch        "LSB;label=32;scalar=64";
    class       volScalarField;
    location    "2.04";
    object      p;
}
// * * * * * * * * * * * * * * * * * * * * * * * * * * * * * * * * * * * * * //

dimensions      [0 2 -2 0 0 0 0];

internalField   nonuniform List<scalar> 
217010
(
-158.1266
-96.23003
-101.3988
-103.1215
-102.0218
-97.58409
-98.02414
-98.2573
-97.51421
-96.32353
-96.06935
-96.3901
-97.54889
-100.5127
-101.6699
-101.058
-102.0188
-105.5334
-109.3658
-114.8119
-119.4996
-121.2359
-118.7197
-111.4668
-101.8905
-93.66084
-87.32279
-88.55013
-95.59621
-99.87603
-104.9408
-107.4398
-107.044
-106.3914
-99.99489
-100.5994
-104.0118
-109.2599
-126.3058
-142.8874
-150.6829
-151.4021
-145.8607
-134.5136
-119.0561
-103.6109
-90.27658
-75.2249
-61.04644
-53.40711
-39.50336
-41.07805
-39.79687
-36.10718
-29.7699
-22.37331
-17.18254
-15.83874
-16.26804
-19.01502
-21.54248
-21.98433
-18.72385
-12.34636
-6.415543
-1.933678
-5.09422
-18.10778
-24.85284
-20.55536
-10.53592
-1.674246
2.639974
3.143106
2.409668
1.710207
-1.861565
-7.523231
-15.74291
-27.78971
-43.41675
-59.89812
-66.28381
-50.94183
-16.37166
-8.196996
-18.9418
-28.62157
-33.89782
-37.72717
-47.51042
-68.05911
-86.94992
-78.13427
-56.99878
-59.59195
-65.85941
-67.33197
-67.72929
-68.99169
-70.46697
-71.63284
-72.35947
-72.65267
-72.49772
-72.08734
-71.41973
-70.45104
-69.28568
-68.06039
-66.89408
-65.79592
-65.07012
-64.5045
-64.0594
-64.0133
-64.43428
-65.02484
-65.96036
-66.93576
-67.89076
-69.004
-70.17019
-71.30714
-72.37954
-73.66734
-74.79377
-76.89861
-79.29919
-82.53001
-87.74433
-93.66835
-99.10316
-104.2994
-109.7048
-115.6602
-122.448
-130.2265
-137.8554
-144.0139
-148.0616
-149.3418
-147.4795
-143.1634
-137.2681
-131.107
-124.7847
-117.8721
-103.2264
-154.7624
-58.99999
-62.90206
-51.63525
-47.19189
-44.4112
-44.3162
-46.67253
-51.57337
-58.58491
-68.2361
-79.50076
-91.53851
-103.0938
-118.1737
-137.3219
-155.0305
-170.6427
-183.9757
-194.5599
-201.0264
-201.3939
-194.3167
-179.6477
-157.8064
-136.7692
-128.8761
-130.164
-132.2539
-140.0759
-149.5056
-147.6166
-137.0627
-124.0536
-109.8819
-112.6931
-116.2429
-119.3757
-130.1023
-135.3493
-135.3024
-133.3116
-129.7642
-127.3707
-128.1033
-125.2573
-126.2902
-128.9835
-131.4573
-124.2839
-193.9406
-101.3066
-88.85078
-74.46641
-66.02847
-58.84319
-52.92245
-47.82722
-43.23168
-39.23313
-35.61565
-32.3326
-29.33511
-26.51599
-23.85606
-21.36824
-19.06735
-16.91791
-14.85485
-12.88403
-11.00239
-9.205666
-7.503319
-5.891849
-4.311632
-2.769604
-1.263087
0.1797021
1.541936
2.856782
4.150854
5.427777
6.678506
7.869929
9.02649
10.17253
11.29536
12.40519
13.49968
14.59644
15.64741
16.71385
17.73149
18.74013
19.73329
20.72095
21.68961
22.63999
23.59203
24.56006
25.5245
26.46609
27.39089
28.31267
29.26004
30.21937
31.16586
32.11499
33.0741
34.03678
35.01177
35.98661
36.95993
37.9809
39.08598
40.19351
41.27115
42.43849
43.78068
45.13667
46.07336
47.09766
52.70531
50.68698
49.63531
48.62721
47.59892
46.5958
45.60116
44.65955
43.81254
43.00514
42.14778
41.26821
40.41245
39.59839
38.80179
38.00173
37.18895
36.37586
35.5861
34.80268
34.00271
33.20061
32.4076
31.59968
30.79587
29.97403
29.11826
28.27554
27.45114
26.61839
25.7594
24.8563
23.98552
23.0754
22.13995
21.20066
20.25334
19.26694
18.26152
17.25222
16.21682
15.12422
13.97841
12.82687
11.67731
10.4806
9.221784
7.919174
6.553736
5.129213
3.658446
2.128436
0.5694845
-1.099137
-2.884671
-4.746093
-6.730796
-8.817397
-11.07322
-13.52227
-16.135
-18.94882
-22.09614
-25.60156
-29.59548
-34.03108
-39.17215
-45.50171
-52.81744
-65.27974
-75.21308
52.59115
50.88099
49.768
48.75284
47.72299
46.71295
45.7104
44.75753
43.90018
43.08836
42.2299
41.34721
40.48571
39.66606
38.86564
38.06292
37.24758
36.43109
35.63799
34.85192
34.04976
33.24527
32.44997
31.63984
30.83429
30.01077
29.15344
28.30836
27.48149
26.64714
25.78704
24.88153
24.01037
23.09787
22.16063
21.21985
20.27116
19.28313
18.27635
17.26557
16.22888
15.13447
13.98684
12.83377
11.68292
10.48426
9.223758
7.919658
6.55207
5.12501
3.651576
2.11875
0.5579516
-1.115335
-2.905114
-4.770472
-6.760926
-8.852199
-11.11607
-13.57373
-16.19429
-19.01836
-22.17901
-25.69845
-29.72336
-34.18396
-39.36493
-45.74135
-53.20604
-65.63599
-77.19413
-103.4999
-89.28699
-74.91797
-66.30484
-59.06702
-53.09897
-47.97475
-43.34216
-39.32783
-35.69747
-32.40087
-29.39389
-26.56655
-23.89847
-21.40276
-19.09513
-16.94145
-14.87401
-12.89885
-11.01338
-9.213303
-7.507364
-5.8938
-4.311622
-2.767505
-1.258837
0.1864056
1.550361
2.86692
4.162815
5.441644
6.694273
7.887522
9.045562
10.19352
11.31804
12.42989
13.52663
14.62621
15.67778
16.74674
17.76615
18.77692
19.77232
20.76195
21.7327
22.68544
23.64043
24.61127
25.57807
26.52164
27.44916
28.37471
29.32596
30.28885
31.2387
32.19185
33.15523
34.12261
35.10192
36.08131
37.06209
38.09344
39.20632
40.3183
41.40627
42.59481
43.95054
45.27665
46.21723
47.53548
-63.31378
-63.49517
-52.60115
-47.59978
-44.5682
-44.26015
-46.39364
-51.10511
-57.95289
-67.46606
-78.67372
-90.73058
-102.3045
-117.2415
-136.3062
-154.1178
-169.8922
-183.3745
-194.136
-200.8397
-201.5016
-194.6577
-180.2362
-158.4126
-137.1315
-128.9236
-130.1543
-132.2196
-140.0579
-149.543
-147.7004
-137.2175
-124.2347
-109.8722
-112.7129
-116.3301
-119.4531
-130.2065
-135.4176
-135.329
-133.3125
-129.7139
-127.3449
-128.0842
-125.2599
-126.3655
-129.0871
-131.4653
-126.0537
-180.6924
-39.81721
-41.0666
-40.20234
-36.81363
-30.59453
-23.04551
-17.51358
-15.90423
-16.14086
-18.78703
-21.39528
-22.10889
-19.16215
-12.92704
-6.874751
-1.960361
-4.474061
-17.5142
-25.01382
-21.17019
-11.09005
-2.014403
2.523297
3.151816
2.434053
1.779803
-1.713361
-7.288212
-15.40758
-27.35752
-42.94045
-59.62678
-66.61165
-51.83442
-17.12625
-8.283402
-18.88284
-28.56574
-33.82369
-37.60805
-47.31352
-67.95207
-87.08761
-78.35094
-57.04746
-59.53107
-65.84388
-67.34159
-67.75835
-69.02699
-70.49787
-71.65414
-72.37262
-72.66202
-72.50231
-72.08861
-71.41645
-70.44061
-69.2704
-68.04178
-66.87686
-65.77879
-65.05648
-64.49526
-64.05519
-64.01698
-64.44824
-65.04486
-65.98869
-66.96959
-67.92799
-69.04785
-70.21773
-71.35735
-72.43417
-73.72609
-74.87321
-77.01598
-79.45007
-82.7615
-88.08418
-94.05021
-99.47495
-104.6847
-110.1265
-116.1514
-123.0369
-130.9076
-138.5244
-144.5947
-148.4876
-149.4917
-147.357
-142.6859
-136.5625
-130.3307
-123.8154
-116.8542
-105.7206
-144.2889
-146.2139
-97.90165
-101.4794
-103.1607
-102.1674
-97.65708
-98.02539
-98.26933
-97.53342
-96.33781
-96.07082
-96.38892
-97.54237
-100.5176
-101.6784
-101.0434
-102.0101
-105.5569
-109.4052
-114.8774
-119.5637
-121.2475
-118.6526
-111.3495
-101.7778
-93.59484
-87.29192
-88.66655
-95.83346
-100.0635
-105.0809
-107.4795
-107.0397
-106.2244
-99.86137
-100.7212
-104.3289
-110.1052
-127.6077
-143.8143
-150.9542
-151.0188
-144.9142
-133.1376
-117.4996
-102.0412
-88.64215
-73.61031
-59.94388
-50.98859
-133.6403
-98.52687
-101.5977
-103.0896
-102.3011
-97.75209
-98.03355
-98.28448
-97.54312
-96.33146
-96.07105
-96.39484
-97.54708
-100.543
-101.698
-101.009
-101.9859
-105.5994
-109.5415
-115.0441
-119.673
-121.3211
-118.7277
-111.3535
-101.7528
-93.60824
-87.28643
-88.81467
-96.14572
-100.3615
-105.2467
-107.5871
-107.1042
-106.1698
-99.75357
-100.899
-104.6745
-111.4249
-129.8071
-145.2491
-151.571
-151.3945
-144.9955
-132.8687
-116.9836
-101.3566
-88.04486
-72.97367
-59.24496
-49.19057
-39.67526
-40.95302
-40.23494
-36.98709
-31.06632
-23.61286
-17.87936
-16.03621
-16.11937
-18.75059
-21.42999
-22.39832
-19.8209
-13.76682
-7.285395
-1.975348
-4.044223
-17.01515
-25.26006
-21.45972
-11.47586
-2.317273
2.411672
3.181726
2.455113
1.806609
-1.65039
-7.159032
-15.18132
-27.08284
-42.70596
-59.7005
-67.52117
-53.84764
-18.15151
-8.251082
-18.8091
-28.49897
-33.80485
-37.56375
-47.2001
-67.87099
-87.33577
-78.74473
-57.1907
-59.36798
-65.7153
-67.36161
-67.9211
-69.1758
-70.59274
-71.71102
-72.40755
-72.68894
-72.52215
-72.10421
-71.4333
-70.45397
-69.27922
-68.04422
-66.88328
-65.77988
-65.06057
-64.50391
-64.06335
-64.02632
-64.46913
-65.06652
-66.01562
-67.00104
-67.95664
-69.07748
-70.24765
-71.39028
-72.47014
-73.76785
-74.92714
-77.08316
-79.5477
-82.91412
-88.28035
-94.21566
-99.61712
-104.8415
-110.3208
-116.3963
-123.3386
-131.2247
-138.7587
-144.6936
-148.5007
-149.5564
-147.2515
-142.415
-136.2539
-129.9488
-123.4425
-115.9808
-106.8206
-132.5914
-64.69019
-63.79463
-53.19208
-47.98461
-44.81108
-44.32876
-46.298
-50.88361
-57.61861
-67.07956
-78.29672
-90.41328
-101.8683
-116.7974
-135.9741
-153.8519
-169.8065
-183.4042
-194.2627
-201.1033
-201.8163
-195.2009
-181.195
-159.6287
-137.8173
-128.9924
-130.1744
-132.2639
-140.1267
-149.6746
-147.9159
-137.7089
-124.6757
-109.8567
-112.7744
-116.5411
-119.6011
-130.3633
-135.5299
-135.3789
-133.3454
-129.7134
-127.3457
-128.0967
-125.2834
-126.4504
-129.1021
-131.4189
-126.7036
-166.6733
-103.3184
-89.57304
-75.12753
-66.44658
-59.17421
-53.18084
-48.03606
-43.40772
-39.36586
-35.73248
-32.42923
-29.41889
-26.58947
-23.91748
-21.41829
-19.1067
-16.95337
-14.884
-12.90705
-11.01977
-9.218726
-7.510072
-5.896925
-4.313623
-2.768176
-1.258182
0.1893568
1.553224
2.869601
4.165933
5.445465
6.699937
7.893834
9.050645
10.19964
11.32435
12.43817
13.53563
14.63287
15.6882
16.75347
17.77471
18.78662
19.78181
20.77226
21.74345
22.69583
23.65027
24.62278
25.59155
26.53484
27.46225
28.38655
29.33903
30.30474
31.25462
32.20728
33.17283
34.14018
35.12027
36.10083
37.08241
38.11387
39.23331
40.34993
41.43841
42.63364
43.99068
45.31235
46.27623
47.71667
52.45646
50.98008
49.81259
48.78409
47.7561
46.74645
45.73703
44.77781
43.92012
43.11127
42.25058
41.36585
40.50126
39.68101
38.88034
38.07806
37.26122
36.44271
35.65021
34.86442
34.0608
33.25599
32.4612
31.64923
30.84566
30.02155
29.16087
28.31581
27.48955
26.6553
25.79236
24.88951
24.01692
23.10667
22.16717
21.22596
20.27729
19.28723
18.28025
17.27011
16.23393
15.13781
13.98817
12.83491
11.68505
10.48502
9.223799
7.919346
6.54968
5.121199
3.646351
2.112279
0.5528539
-1.123785
-2.915555
-4.781109
-6.775499
-8.866422
-11.13551
-13.59667
-16.21931
-19.04699
-22.2134
-25.75655
-29.77558
-34.2544
-39.45571
-45.8656
-53.38406
-65.87064
-77.03611
52.25648
51.09554
49.928
48.89314
47.87623
46.86902
45.85241
44.8854
44.02048
43.20649
42.34232
41.45549
40.58666
39.7613
38.95636
38.15034
37.33054
36.50828
35.71324
34.92351
34.11649
33.30943
32.51228
31.69688
30.89264
30.06567
29.201
28.35583
27.52713
26.69108
25.8253
24.92732
24.04296
23.13502
22.19177
21.2496
20.30011
19.30626
18.29852
17.28764
16.25072
15.1508
13.99805
12.84403
11.69468
10.49126
9.22837
7.92291
6.549459
5.118804
3.641507
2.104338
0.5464455
-1.137757
-2.93403
-4.801036
-6.803932
-8.895705
-11.17585
-13.64555
-16.27411
-19.11053
-22.2965
-25.84937
-29.88525
-34.39514
-39.63472
-46.08178
-53.7267
-66.07489
-77.23137
-103.5258
-89.8293
-75.52144
-66.69138
-59.38529
-53.34303
-48.16458
-43.51306
-39.45914
-35.80987
-32.49187
-29.47377
-26.63721
-23.95623
-21.44928
-19.12892
-16.974
-14.89962
-12.91836
-11.02703
-9.223614
-7.509632
-5.897177
-4.311534
-2.763358
-1.250934
0.2013284
1.566425
2.883738
4.181156
5.462431
6.720599
7.917516
9.073712
10.22549
11.35147
12.46946
13.56961
14.66405
15.73338
16.79398
17.81723
18.832
19.83007
20.8224
21.79707
22.75226
23.70999
24.68528
25.65754
26.60353
27.53484
28.46342
29.41896
30.38994
31.34381
32.30136
33.27128
34.24397
35.22819
36.21488
37.2051
38.24362
39.36721
40.48986
41.5901
42.8009
44.14396
45.43378
46.45897
48.01126
-67.04508
-64.979
-54.28481
-48.60668
-45.19076
-44.46419
-46.1881
-50.55566
-57.0898
-66.40712
-77.56213
-89.67501
-101.1
-116.0308
-135.1687
-152.9646
-169.064
-182.7546
-193.7646
-200.8712
-202.066
-195.8278
-182.4073
-161.4899
-139.2508
-129.2893
-130.1299
-132.3449
-140.1146
-149.4751
-148.1698
-138.5623
-125.3928
-109.8576
-112.8788
-116.929
-119.8949
-130.655
-135.7292
-135.4839
-133.4281
-129.7675
-127.3865
-128.0639
-125.3091
-126.6093
-129.1208
-131.2382
-128.4373
-156.9379
-39.65027
-40.9054
-40.67941
-37.74299
-31.94744
-24.44992
-18.40865
-16.26204
-16.1076
-18.66374
-21.36314
-22.57426
-20.57313
-14.92059
-8.05197
-1.975051
-3.246844
-16.53198
-25.77004
-22.34766
-12.1235
-2.757673
2.236479
3.205104
2.493523
1.858604
-1.56883
-6.955628
-14.8318
-26.66385
-42.33214
-59.71439
-68.66387
-56.91381
-19.47018
-7.920498
-18.48598
-28.27684
-33.72941
-37.60496
-47.19235
-67.80866
-87.41788
-79.04825
-58.06076
-59.68966
-65.67305
-67.40799
-68.14205
-69.35867
-70.70043
-71.77327
-72.44381
-72.70669
-72.53312
-72.10922
-71.43876
-70.45472
-69.27683
-68.03303
-66.88274
-65.77153
-65.05883
-64.51412
-64.07639
-64.03963
-64.50363
-65.10133
-66.05957
-67.05596
-68.00828
-69.13349
-70.30669
-71.45692
-72.53742
-73.84227
-75.0212
-77.2108
-79.71609
-83.16299
-88.64676
-94.62115
-100.0148
-105.2543
-110.7656
-116.9171
-123.9685
-131.9665
-139.4935
-145.3936
-149.1769
-149.7946
-147.2642
-142.2695
-135.9237
-129.2514
-122.0291
-114.5822
-107.8183
-123.9499
-124.8848
-100.1743
-101.4966
-102.8228
-102.4636
-97.91101
-98.04278
-98.31732
-97.57143
-96.33306
-96.06468
-96.40054
-97.5558
-100.5841
-101.7207
-100.9363
-101.9219
-105.6507
-109.8264
-115.3173
-119.8363
-121.4426
-118.8131
-111.3831
-101.7926
-93.72656
-87.31068
-89.06616
-96.62302
-100.8694
-105.4459
-107.6473
-107.2815
-106.0879
-99.46449
-101.0858
-105.3457
-113.835
-132.68
-146.7852
-151.7667
-150.7929
-143.9589
-131.5239
-115.5226
-99.75898
-86.55275
-71.71309
-57.93298
-46.25325
-118.7549
-101.7447
-101.1782
-102.2861
-102.6953
-98.14975
-98.05917
-98.37695
-97.6142
-96.31504
-96.04805
-96.39982
-97.57467
-100.667
-101.7742
-100.8393
-101.7898
-105.7546
-110.26
-115.7168
-120.0988
-121.6587
-119.0189
-111.5442
-102.0034
-94.05603
-87.42451
-89.45349
-97.30009
-101.5569
-105.5188
-107.3207
-107.6839
-106.0761
-98.82318
-101.2934
-106.8293
-117.8124
-136.2876
-148.6861
-152.8522
-151.2257
-143.6355
-130.611
-114.3003
-98.27013
-85.35804
-70.47695
-56.29075
-43.90985
-39.29495
-40.68758
-40.83585
-38.32889
-32.96423
-25.52676
-19.15298
-16.634
-16.1877
-18.67849
-21.42454
-22.96127
-21.50364
-16.46674
-9.54393
-2.431865
-2.695729
-15.95836
-26.48037
-23.26101
-12.89193
-3.314553
1.979811
3.199553
2.59742
1.984108
-1.465052
-6.697461
-14.42232
-26.22147
-42.01856
-59.96342
-70.46982
-61.07616
-21.23066
-7.333456
-17.9511
-27.91805
-33.80909
-37.92036
-47.41747
-67.4785
-86.43093
-78.93218
-59.86328
-60.71165
-65.7889
-67.48008
-68.37167
-69.56281
-70.83523
-71.86344
-72.51003
-72.76988
-72.57644
-72.14248
-71.47518
-70.48326
-69.30026
-68.03869
-66.9061
-65.77744
-65.07173
-64.54502
-64.10883
-64.06405
-64.55969
-65.15226
-66.12095
-67.13234
-68.07406
-69.20381
-70.37964
-71.54022
-72.61714
-73.93158
-75.13579
-77.3601
-79.90196
-83.45234
-89.06912
-95.02704
-100.3706
-105.6339
-111.2099
-117.4593
-124.6411
-132.7624
-140.1906
-145.8786
-149.2874
-149.9453
-147.2015
-142.003
-135.3835
-128.222
-120.6301
-113.2813
-108.5336
-117.7142
-69.84044
-66.00611
-55.61004
-49.46632
-45.7592
-44.76751
-46.18951
-50.29036
-56.57702
-65.7351
-76.86285
-89.04589
-100.3239
-115.2787
-134.517
-152.2784
-168.7042
-182.599
-193.8848
-201.4521
-202.7565
-196.8542
-184.0898
-164.0861
-141.8882
-130.1289
-130.3025
-132.4056
-139.8735
-148.4638
-148.2606
-139.6261
-126.4239
-109.8925
-112.9956
-117.4842
-120.462
-131.2051
-136.0471
-135.6517
-133.5644
-129.8514
-127.4635
-127.9714
-125.3284
-126.8451
-129.169
-130.9933
-130.1784
-150.1587
-103.6171
-89.94726
-75.85881
-66.91038
-59.58124
-53.49335
-48.28835
-43.61957
-39.53465
-35.88016
-32.54867
-29.5251
-26.68473
-23.99605
-21.48077
-19.14927
-16.99684
-14.91903
-12.93415
-11.03866
-9.233177
-7.511895
-5.90284
-4.315199
-2.765118
-1.251169
0.2074134
1.572231
2.887888
4.186203
5.469431
6.732301
7.93095
9.08377
10.23882
11.36494
12.48678
13.58672
14.6769
15.74728
16.81239
17.83654
18.85319
19.85088
20.84464
21.82115
22.77643
23.73316
24.71101
25.68729
26.63312
27.56525
28.49292
29.45129
30.42859
31.38253
32.33966
33.31517
34.28981
35.27674
36.26695
37.26172
38.30352
39.44256
40.57746
41.68133
42.90446
44.23817
45.5182
46.62111
48.26621
51.97984
51.1645
50.02434
48.97213
47.95564
46.95477
45.92712
44.94508
44.07503
43.26492
42.39583
41.50495
40.62796
39.79977
38.99331
38.18735
37.36417
36.53706
35.74307
34.95334
34.14313
33.335
32.53859
31.71832
30.91828
30.08963
29.21827
28.37324
27.54398
26.70859
25.84022
24.93745
24.05599
23.15138
22.20362
21.26121
20.31194
19.31386
18.30703
17.29755
16.26118
15.15627
13.99945
12.84668
11.7
10.4921
9.228263
7.923162
6.544674
5.111766
3.632207
2.092333
0.5402569
-1.154833
-2.955922
-4.82248
-6.834781
-8.922222
-11.21628
-13.69374
-16.32411
-19.16509
-22.36778
-25.9452
-29.98926
-34.52565
-39.80006
-46.28215
-54.02118
-66.15904
-77.28252
51.60063
51.16387
50.11864
49.07406
48.06338
47.07596
46.04255
45.05418
44.18392
43.37615
42.49969
41.6099
40.72683
39.89371
39.0824
38.27589
37.44871
36.61349
35.81803
35.02467
34.2091
33.39901
32.60232
31.77421
30.97863
30.14733
29.26666
28.42348
27.59172
26.7548
25.87993
24.99011
24.0953
23.19034
22.23728
21.295
20.34321
19.33495
18.32736
17.31999
16.28782
15.17539
14.00824
12.85559
11.7161
10.50093
9.234534
7.931907
6.546258
5.108825
3.622832
2.077496
0.5399449
-1.169485
-2.976055
-4.84503
-6.872666
-8.948573
-11.26448
-13.75366
-16.3892
-19.22989
-22.45436
-26.0615
-30.11486
-34.67958
-39.99435
-46.50142
-54.3166
-66.14245
-77.31614
-103.7114
-89.94345
-76.1878
-67.13486
-59.81648
-53.67684
-48.43862
-43.7452
-39.62767
-35.97306
-32.61879
-29.58629
-26.7446
-24.0423
-21.51195
-19.16649
-17.02521
-14.94235
-12.95027
-11.04619
-9.237415
-7.50659
-5.904155
-4.312685
-2.76022
-1.240661
0.2293188
1.590381
2.905223
4.209408
5.495164
6.761206
7.962664
9.111657
10.27286
11.39842
12.52576
13.62649
14.72135
15.81313
16.86653
17.8902
18.91104
19.91187
20.91003
21.89079
22.84582
23.80538
24.79118
25.77625
26.72173
27.65701
28.58663
29.5487
30.53645
31.49244
32.45486
33.4389
34.41503
35.40421
36.402
37.40605
38.44742
39.59248
40.73752
41.84169
43.06768
44.36998
45.636
46.82244
48.4967
-73.01302
-67.96039
-57.30031
-50.6394
-46.61625
-45.33383
-46.33243
-50.10219
-56.0478
-64.97652
-76.02635
-88.37217
-99.47033
-114.5084
-133.8629
-151.4784
-168.1851
-182.1963
-193.7898
-201.5032
-203.4689
-198.1125
-186.2637
-167.3935
-145.8146
-132.1062
-130.9273
-132.4593
-139.4371
-147.033
-148.2128
-140.8291
-127.7594
-109.9079
-113.2366
-118.4106
-121.3436
-132.2384
-136.5331
-135.9142
-133.7764
-129.9504
-127.5652
-127.7771
-125.347
-127.2181
-129.2336
-130.5153
-131.101
-143.4723
-38.86861
-40.42543
-41.18082
-39.11429
-34.21545
-26.97102
-20.24818
-17.2496
-16.4197
-18.77836
-21.52906
-23.43787
-22.50652
-18.33824
-11.79755
-3.956255
-2.690682
-15.49726
-27.59752
-24.63825
-13.88405
-4.113258
1.599081
3.102683
2.773388
2.237989
-1.282947
-6.346396
-13.92197
-25.70536
-41.7107
-60.37563
-72.22107
-66.1592
-23.79713
-7.15784
-17.42554
-27.65492
-34.02979
-38.50463
-47.91715
-66.5482
-83.12059
-77.49727
-61.83711
-62.04187
-66.00533
-67.60951
-68.6285
-69.79341
-70.99251
-71.97224
-72.57064
-72.83424
-72.62025
-72.17535
-71.52192
-70.51971
-69.3324
-68.04231
-66.94581
-65.78668
-65.09599
-64.6008
-64.16496
-64.09812
-64.64318
-65.22263
-66.20505
-67.24003
-68.16257
-69.30027
-70.47948
-71.65738
-72.72663
-74.05673
-75.29645
-77.56215
-80.15411
-83.82432
-89.62407
-95.56519
-100.8487
-106.1384
-111.7873
-118.1677
-125.5013
-133.8039
-141.1281
-146.7024
-150.2581
-150.3736
-147.239
-141.6939
-134.6872
-127.0327
-119.169
-111.9323
-108.8024
-112.1172
-112.7266
-102.4096
-100.5734
-101.7722
-103.082
-98.47957
-98.08777
-98.47841
-97.67782
-96.28168
-96.02154
-96.39804
-97.60204
-100.8084
-101.8769
-100.7503
-101.6287
-105.9988
-110.8729
-116.2756
-120.508
-121.9974
-119.4188
-111.968
-102.5533
-94.77415
-87.66486
-89.84653
-98.10445
-102.2508
-105.2326
-106.309
-108.4927
-106.4168
-97.80588
-101.6264
-109.9568
-123.1316
-140.3872
-150.6908
-153.0021
-150.9956
-142.9266
-129.317
-112.7347
-96.37792
-83.92613
-68.77169
-54.05567
-41.47022
-106.2403
-101.8517
-99.82707
-101.2108
-103.5449
-99.02822
-98.04289
-98.63573
-97.79049
-96.22712
-96.00784
-96.42392
-97.62788
-101.0229
-102.0328
-100.7553
-101.5667
-106.4626
-111.7541
-117.0796
-121.1387
-122.4959
-120.1451
-112.8528
-103.6556
-96.12452
-87.95045
-90.27589
-98.94779
-102.7719
-104.6054
-105.004
-109.2594
-107.1083
-97.07013
-103.0583
-115.0971
-129.5981
-145.0839
-153.4827
-154.6401
-151.3269
-142.2037
-127.7492
-110.9022
-94.01484
-81.91011
-66.28307
-51.29519
-39.44821
-38.40322
-40.05096
-41.44063
-39.95197
-35.77855
-28.98508
-21.88767
-18.23076
-16.9136
-19.03613
-21.649
-24.06443
-23.77444
-20.48298
-14.70402
-6.941184
-3.740302
-15.63915
-29.33431
-26.59337
-15.4361
-5.306225
1.078844
2.88926
3.08548
2.573278
-0.9127383
-5.812611
-13.181
-24.80887
-40.97701
-60.51255
-74.13188
-71.57667
-27.64834
-8.105085
-17.59488
-27.62334
-34.3858
-39.2724
-48.6806
-65.28109
-78.69859
-75.00223
-63.35161
-63.32003
-66.32074
-67.83504
-68.9533
-70.08681
-71.20942
-72.15423
-72.68031
-72.9519
-72.70433
-72.24294
-71.61325
-70.58425
-69.39783
-68.06532
-67.03123
-65.81077
-65.15657
-64.69928
-64.25689
-64.14319
-64.77028
-65.32784
-66.32495
-67.40695
-68.30217
-69.43736
-70.61565
-71.82977
-72.91201
-74.25279
-75.53902
-77.79526
-80.57641
-84.3196
-90.3503
-96.20858
-101.4443
-106.7819
-112.4597
-119.1209
-126.6835
-135.1425
-142.3023
-147.6751
-150.8363
-150.7593
-147.2509
-141.3743
-133.9206
-125.772
-117.6833
-110.806
-108.4948
-107.4527
-76.42529
-70.06524
-59.57524
-52.40237
-48.05476
-46.40488
-46.76685
-50.08383
-55.51875
-64.1176
-75.00442
-87.41108
-98.5472
-113.9147
-133.012
-150.5036
-167.7522
-181.8662
-194.0827
-202.4938
-204.8511
-199.9779
-189.2581
-171.5156
-150.9377
-135.8415
-132.5565
-132.8747
-139.0021
-145.5694
-148.4928
-142.1456
-129.2022
-110.1663
-113.8241
-120.0769
-122.5294
-134.0214
-137.2218
-136.3029
-134.0993
-130.034
-127.665
-127.4407
-125.3091
-127.9978
-129.7401
-129.9512
-130.808
-136.2959
-103.5812
-89.72199
-76.45543
-67.32973
-60.09088
-53.86505
-48.57406
-43.86994
-39.74086
-36.08091
-32.67712
-29.65215
-26.81752
-24.08504
-21.54294
-19.19865
-17.07388
-14.9664
-12.96325
-11.04681
-9.244077
-7.509441
-5.910381
-4.316948
-2.761974
-1.226701
0.2410809
1.59406
2.918027
4.223495
5.496298
6.764741
7.985108
9.126174
10.29369
11.41607
12.5526
13.65744
14.75512
15.82794
16.88771
17.91587
18.94633
19.94864
20.94585
21.92424
22.8849
23.85137
24.83623
25.81814
26.76067
27.70554
28.63644
29.60166
30.59866
31.55873
32.52242
33.50615
34.48483
35.48731
36.49463
37.50934
38.5424
39.7039
40.88249
41.99449
43.23163
44.49875
45.76918
47.05238
48.65293
51.09933
51.04148
50.17542
49.17866
48.18084
47.20607
46.14962
45.14446
44.27302
43.4711
42.57144
41.67961
40.79103
39.96182
39.14094
38.33127
37.50313
36.66563
35.87535
35.07581
34.25241
33.44206
32.64571
31.80651
31.02021
30.17748
29.28817
28.44976
27.61967
26.78817
25.90225
24.99266
24.11187
23.20391
22.24631
21.31683
20.37111
19.3513
18.34146
17.32744
16.30227
15.1926
14.01607
12.85146
11.72291
10.5058
9.231182
7.931546
6.545176
5.108343
3.613219
2.045559
0.5275652
-1.19905
-2.994052
-4.866768
-6.925509
-8.973134
-11.31964
-13.80712
-16.46398
-19.30512
-22.5447
-26.17593
-30.23906
-34.83487
-40.19365
-46.71049
-54.55761
-65.93118
-77.02767
50.53241
50.77338
50.15487
49.26979
48.33188
47.41789
46.32733
45.28548
44.43334
43.67368
42.76888
41.8421
40.91034
40.09185
39.29159
38.46301
37.59931
36.7434
35.98038
35.17994
34.33792
33.53431
32.74506
31.87272
31.15119
30.2664
29.34801
28.52451
27.66508
26.86257
25.96387
25.0848
24.21637
23.27165
22.26104
21.33669
20.40121
19.38407
18.39855
17.37327
16.3048
15.19744
14.06119
12.88369
11.7265
10.52939
9.252993
7.912265
6.529072
5.110535
3.648495
2.058549
0.5219616
-1.272533
-3.028432
-4.866663
-7.008523
-9.004969
-11.43517
-13.85148
-16.52355
-19.46314
-22.71814
-26.3632
-30.43294
-35.06961
-40.506
-47.04466
-54.92535
-65.64375
-76.93281
-103.113
-89.46663
-76.92051
-67.67327
-60.5471
-54.03694
-48.76694
-44.10581
-39.95796
-36.17647
-32.71911
-29.77538
-26.91036
-24.12156
-21.62166
-19.2771
-17.0871
-14.9408
-12.97092
-11.05353
-9.288735
-7.53572
-5.886368
-4.340629
-2.745154
-1.201657
0.2138901
1.629355
2.965621
4.232022
5.493055
6.830194
8.091301
9.162812
10.34793
11.46477
12.62203
13.72334
14.8121
15.87835
16.97168
18.01936
19.03998
20.03747
21.0193
22.0282
23.01203
23.94932
24.91143
25.93841
26.91904
27.85101
28.77914
29.72618
30.75599
31.74117
32.65428
33.68097
34.69644
35.68014
36.68308
37.70335
38.72184
39.93593
41.185
42.23916
43.43011
44.62503
45.92719
47.27317
48.66536
-80.46945
-73.3791
-62.60424
-55.14853
-50.17748
-47.96312
-47.63452
-50.33657
-55.08383
-63.22467
-73.85332
-85.4285
-97.15159
-113.25
-131.736
-148.9555
-167.2308
-180.8822
-193.7319
-203.1492
-206.5144
-202.2966
-193.0924
-176.5944
-157.6809
-141.8569
-135.7439
-134.0776
-139.4657
-144.6162
-149.2422
-143.1237
-131.0905
-112.1212
-114.6666
-122.3901
-124.4006
-136.8358
-138.0278
-136.7026
-134.5492
-130.1084
-127.7616
-126.7421
-124.6694
-129.2644
-130.1149
-129.1799
-129.1752
-129.3313
-38.00276
-39.50881
-41.65779
-40.87466
-37.62865
-31.48493
-23.93856
-19.51836
-17.74307
-19.74895
-21.91846
-24.74853
-25.27696
-22.90876
-18.2322
-11.42531
-6.749641
-16.86934
-31.45776
-29.86985
-17.30722
-6.217932
0.4608412
2.785748
3.477979
3.020236
-0.2516671
-4.970933
-11.98785
-23.42073
-39.5894
-59.72543
-76.76367
-76.81165
-32.83965
-10.62881
-18.73345
-27.73744
-34.8323
-40.34476
-49.13476
-63.80289
-74.87213
-72.78047
-64.56084
-64.38499
-66.76741
-68.16682
-69.33047
-70.41798
-71.45032
-72.33598
-72.79415
-73.12352
-72.82511
-72.347
-71.73812
-70.66788
-69.51404
-68.12989
-67.16129
-65.87071
-65.27123
-64.84469
-64.41117
-64.20414
-64.99482
-65.52031
-66.52311
-67.68914
-68.54299
-69.64415
-70.81395
-72.08659
-73.21404
-74.54271
-75.88109
-78.0735
-81.19516
-84.97885
-91.30321
-97.04383
-102.388
-107.8855
-113.5648
-120.6313
-128.6808
-137.1877
-143.9888
-149.2688
-152.0944
-151.352
-147.2084
-140.9066
-132.9324
-124.2563
-116.0935
-109.5845
-106.6962
-104.204
-100.1188
-99.7089
-99.39651
-101.7218
-105.2945
-99.95296
-97.79942
-98.88854
-98.00904
-96.18092
-96.02168
-96.46834
-97.64969
-101.1792
-102.1942
-100.9105
-101.7437
-107.2279
-113.06
-118.2853
-122.1225
-123.2981
-121.4984
-114.4436
-105.6761
-98.21633
-88.53403
-92.11971
-99.88379
-103.0666
-103.8859
-104.136
-114.4279
-109.4542
-97.36891
-107.7558
-123.008
-137.2242
-150.1064
-156.4982
-154.9721
-150.7029
-140.8615
-125.6285
-108.5369
-90.89416
-78.76684
-63.82604
-48.63282
-37.83835
-0.2631676
-0.06043124
1.513026
4.174719
-100.6704
-1.914383
1.147343
4.756601
1.244876
3.141007
-11.16791
-28.18214
-0.09664029
-0.3581002
1.158653
5.435807
6.404027
-1.21558
3.072707
-28.32699
-7.854595
2.963301
1.8015
3.006335
-0.7475846
4.543956
2.870594
2.655114
3.761204
-1.813383
-1.283314
-0.8890781
-3.342348
-0.5701642
3.705509
4.525297
2.349075
5.075422
1.03543
4.416919
4.766454
-0.07301329
-3.082059
-121.1514
1.724967
-14.15151
0.1070949
-0.07846313
-0.1513263
4.880337
2.169738
-1.399408
0.516568
-4.900208
4.08309
2.888708
0.425589
-1.267813
-2.537509
-0.05808723
1.215186
2.352129
-1.790678
-44.54261
5.197935
-3.51016
-1.42882
-25.23195
12.42694
-2.815232
-4.676926
-9.756694
3.961299
3.790468
2.427184
2.267678
2.069954
1.675094
-0.2856853
2.154186
-17.42123
1.064407
-78.52416
-1.711498
-5.245555
-2.133366
7.650877
1.83907
-2.047966
0.1945097
6.28861
6.585272
5.06066
2.556221
-23.66913
2.505352
5.387674
3.432455
-37.66964
-90.47496
-3.932492
-46.93784
3.860109
-13.09455
3.013866
4.190744
-11.76209
4.320334
-9.21642
4.836686
2.66401
-87.21351
1.47778
-1.780025
-0.8881685
0.5975713
-1.738806
-30.41358
7.347995
2.139929
-0.7372962
-4.923713
-1.912681
-0.009262995
3.698905
-12.42332
-0.1140676
2.660559
-8.794491
1.030894
10.34806
6.475251
4.135052
-8.743978
0.934419
0.5776717
1.072931
3.379045
-0.2055191
4.895841
4.158923
5.147801
4.700825
-1.530455
-0.4621231
-35.91963
3.47357
-1.195401
-0.9322147
-5.50272
3.131355
-2.80229
-1.741116
4.215208
4.525582
4.186093
-1.632437
-8.213005
0.1467297
1.049306
-11.75903
4.445583
1.166336
0.9570509
6.548934
-0.2203756
-3.400527
5.740151
-2.27185
4.309993
2.263366
-20.48196
1.447751
3.612928
-1.507944
0.1056235
-1.214528
-0.08810274
-1.960515
-123.3184
-5.729108
5.031001
4.591296
0.9105311
-0.1741995
2.402908
4.938644
4.610408
7.205481
-4.742637
0.3309759
2.546234
1.231186
2.42003
-24.5421
-0.6333309
-3.190092
-45.31761
10.5238
-0.5042356
-1.980897
2.220616
-0.07374676
6.199666
0.8063888
0.342067
0.5188714
3.424899
-2.032216
2.98825
0.9833774
4.609798
1.080105
4.353692
-0.4321233
1.884542
4.332053
-2.096003
2.976027
-3.469568
3.674638
0.798171
3.776949
2.946335
15.93704
-21.10869
2.330809
3.15258
3.541676
0.1596919
-5.700677
1.140112
1.864124
4.264905
4.673812
2.915034
3.485512
2.987738
-177.2544
-0.3322038
2.950557
-13.6201
-0.8069429
-1.028547
1.063421
1.495564
-4.413725
2.555668
0.04242359
3.025057
3.035276
-187.9871
6.5351
0.6455121
0.01085954
-3.795523
-7.99568
3.021457
-3.090986
0.6978893
4.298098
-18.96294
1.72281
-79.99843
4.373328
1.644791
2.030746
-15.9674
3.86846
-0.763686
-6.780839
1.999771
-1.975428
-0.2485163
6.48236
-15.51554
4.3162
1.375332
-0.430251
3.357567
1.9042
-4.366215
-12.32544
-2.943441
7.060637
-4.172262
2.915112
4.261685
4.309432
1.599371
5.009002
1.295728
-59.18922
3.544475
6.01923
-88.81581
0.01430214