/*--------------------------------*- C++ -*----------------------------------*\
| =========                 |                                                 |
| \\      /  F ield         | OpenFOAM: The Open Source CFD Toolbox           |
|  \\    /   O peration     | Version:  2406                                  |
|   \\  /    A nd           | Website:  www.openfoam.com                      |
|    \\/     M anipulation  |                                                 |
\*---------------------------------------------------------------------------*/
FoamFile
{
    version     2.0;
    format      ascii;
    arch        "LSB;label=32;scalar=64";
    class       surfaceScalarField;
    location    "2.04";
    object      phi;
}
// * * * * * * * * * * * * * * * * * * * * * * * * * * * * * * * * * * * * * //

dimensions      [0 3 -1 0 0 0 0];

oriented        oriented;

internalField   nonuniform List<scalar> 
326221
(
-0.002462458
-0.005808397
0.008270856
-0.001725147
-0.0007373111
0.001114821
-0.002839969
0.001238904
-0.0001240828
-0.0001441629
0.001383067
-0.0005375582
0.0003933953
-0.0002670216
-0.0002705366
-0.0001991331
-6.78885e-05
-0.0002183861
1.925299e-05
-0.0002300216
1.163551e-05
1.464557e-05
-0.0002446672
0.0004504313
-0.0004357858
0.0009502302
-0.0004997988
0.001129541
-0.000179311
0.0009545909
0.0001749503
0.000705745
0.0002488459
0.0008868092
-0.0001810642
0.0006459846
0.0002408246
-0.0004457157
0.0010917
-0.00132312
0.0008774045
-0.001350255
2.713515e-05
-0.001218485
-0.0001317704
-0.001195952
-2.253302e-05
-0.0009244113
-0.0002715406
-0.0001764356
-0.0007479757
0.0008147068
-0.0009911424
0.001886308
-0.001071601
0.002487501
-0.0006011935
0.001616628
0.0008708736
0.0004970418
0.001119586
-0.0002018905
0.0006989324
5.378654e-05
-0.0002556771
0.000452677
-0.0003988904
0.0003488433
0.0001038337
0.0009887091
-0.0006398658
0.001795246
-0.0008065366
0.001735473
5.97728e-05
-0.0002836328
0.002019106
-0.003344528
0.003060895
-0.005198801
0.001854273
-0.005785394
0.0005865939
-0.005874656
8.926132e-05
-0.005727792
-0.0001468633
-0.005403827
-0.0003239654
-0.004885335
-0.0005184917
-0.004226328
-0.0006590072
-0.003706592
-0.0005197357
-0.002928553
-0.0007780391
-0.001630847
-0.001297706
-0.001444692
-0.0001861546
-0.00123482
-0.0002098726
-0.001600659
0.000365839
-0.002015563
0.0004149037
-0.001902465
-0.0001130975
-0.001318067
-0.0005843981
-0.0003891952
-0.0009288718
0.0006346025
-0.001023798
0.001431203
-0.0007966001
0.002233873
-0.0008026709
0.002803013
-0.0005691392
0.003182076
-0.0003790629
0.002969964
0.000212111
0.001562263
0.001407701
-0.000353181
0.001915444
-0.001137661
0.0007844801
-0.0002705102
-0.0008671508
4.431279e-06
-0.0002749415
-0.001186793
0.001191224
-0.00268866
0.001501867
-0.00299664
0.0003079807
-0.002373676
-0.0006229648
-0.0014577
-0.000915976
-0.0006792395
-0.0007784601
-0.0004517544
-0.0002274851
-0.0005697573
0.0001180028
-5.988313e-05
-0.0005098741
0.0007282239
-0.000788107
0.001403801
-0.0006755774
0.002125788
-0.0007219872
0.002899526
-0.0007737373
0.003674259
-0.0007747336
0.004153685
-0.0004794257
0.003128941
0.001024744
-0.0003152139
0.003444155
-0.00248631
0.002171096
-0.001053812
-0.001432498
0.0004545128
-0.001508325
0.001082534
-0.0006280216
0.001361372
-0.0002788377
0.001861178
-0.000499806
0.00282992
-0.0009687415
0.003570294
-0.000740374
0.002399942
0.001170352
0.0002388509
0.002161091
-0.0002945158
0.0005333667
0.0004812046
-0.0007757205
0.000473886
7.318669e-06
-0.0003416757
0.0008155617
-0.001324476
0.0009827999
-0.002086442
0.0007619666
-0.002620763
0.000534321
-0.002990979
0.0003702161
-0.003256734
0.0002657551
-0.003454761
0.0001980261
-0.00358955
0.0001347896
-0.003672308
8.275802e-05
-0.003699053
2.674486e-05
-0.003663057
-3.599613e-05
-0.003577178
-8.587894e-05
-0.003452532
-0.0001246456
-0.003300141
-0.0001523917
-0.003106875
-0.0001932657
-0.002899193
-0.0002076823
-0.002670514
-0.0002286784
-0.002411593
-0.0002589214
-0.002148452
-0.0002631409
-0.001948719
-0.0001997326
-0.001689237
-0.0002594821
-0.001459292
-0.0002299456
-0.001237329
-0.0002219628
-0.001001641
-0.0002356878
-0.0007978571
-0.000203784
-0.000615024
-0.000182833
-0.0004389092
-0.0001761148
-0.0002155796
-0.0002233296
2.361441e-05
-0.000239194
0.0003395112
-0.0003158968
0.0005778795
-0.0002383683
0.0009313394
-0.0003534599
0.001412908
-0.0004815685
0.001765317
-0.0003524095
0.001973903
-0.0002085852
0.002156143
-0.0001822407
0.002372337
-0.0002161934
0.002676586
-0.0003042492
0.003068819
-0.0003922332
0.00353148
-0.0004626609
0.003940595
-0.0004091147
0.004241191
-0.0003005967
0.004330665
-8.947365e-05
0.003982111
0.0003485541
0.003068425
0.000913686
0.001753561
0.001314864
0.0004175368
0.001336024
-0.0006132207
0.001030758
-0.001423641
0.0008104202
-0.001375546
-4.809539e-05
0.0006847161
-0.002060262
0.002844336
-0.002159619
-0.004247819
0.007092155
-0.005089333
0.0008415133
-0.005418258
0.0003289258
-0.004653141
-0.0007651177
-0.003752281
-0.0009008594
-0.002787032
-0.0009652494
-0.001846988
-0.0009400436
-0.000948997
-0.0008979914
-0.0001922445
-0.0007567524
0.0005267101
-0.0007189546
0.001130763
-0.0006040525
0.001641305
-0.0005105424
0.002054732
-0.0004134272
0.002853257
-0.000798525
0.003745881
-0.0008926243
0.004300973
-0.0005550912
0.00468126
-0.0003802878
0.004869418
-0.0001881578
0.004966093
-9.667481e-05
0.005005219
-3.912626e-05
0.004902457
0.0001027627
0.004523658
0.0003787991
0.003669197
0.0008544602
0.001924675
0.001744522
-0.0003268231
0.002251499
-0.001969423
0.0016426
-0.002029147
5.972399e-05
-0.001587515
-0.0004416325
-0.0007063399
-0.0008811749
0.0002266543
-0.0009329941
0.0004821045
-0.0002554502
-0.0005934911
0.001075596
-0.002442565
0.001849074
-0.003463939
0.001021374
-0.002529091
-0.0009348482
-0.001690373
-0.0008387177
-0.0006153453
-0.001075028
0.0005298293
-0.001145175
0.0008847821
-0.0003549528
0.001176866
-0.0002920835
0.001288496
-0.0001116301
0.0006445732
0.0006439224
-5.192623e-05
0.0006964994
-0.0003692961
0.0003173699
-0.0004844945
0.0001151984
0.0002266491
-0.0007111436
-4.104897e-05
0.000267698
-0.0006261271
0.0005850781
0.00167836
-0.002304487
0.002532368
-0.0008540074
-0.006151463
0.008683831
-0.006409302
0.0002578392
-0.005507133
-0.0009021688
-0.005159577
-0.000347556
-0.004810733
-0.000348844
-0.004550145
-0.0002605879
-0.004312714
-0.0002374311
-0.004106682
-0.0002060327
-0.003831605
-0.0002750764
-0.003689708
-0.0001418975
-0.003569349
-0.0001203582
-0.003458682
-0.0001106673
-0.003360276
-9.840575e-05
-0.003265629
-9.464769e-05
-0.003175522
-9.010696e-05
-0.003089691
-8.583109e-05
-0.003013198
-7.649306e-05
-0.002943202
-6.999592e-05
-0.002876038
-6.716345e-05
-0.002809791
-6.624703e-05
-0.002748118
-6.167327e-05
-0.002689012
-5.910619e-05
-0.002634169
-5.484322e-05
-0.002585142
-4.90264e-05
-0.002534964
-5.017819e-05
-0.002484916
-5.004784e-05
-0.002434363
-5.055295e-05
-0.002386858
-4.750559e-05
-0.002344723
-4.213497e-05
-0.002306568
-3.815486e-05
-0.002266527
-4.004118e-05
-0.002227005
-3.952145e-05
-0.002185319
-4.168633e-05
-0.002148844
-3.647435e-05
-0.002114903
-3.394103e-05
-0.002079318
-3.558528e-05
-0.002043365
-3.595318e-05
-0.002006439
-3.692548e-05
-0.001973476
-3.296299e-05
-0.001943476
-3.000093e-05
-0.001976572
3.309673e-05
-0.001961112
-1.546042e-05
-0.00193967
-2.144198e-05
-0.001918134
-2.153567e-05
-0.001899562
-1.857236e-05
-0.001880367
-1.919461e-05
-0.001863599
-1.67679e-05
-0.001848801
-1.479803e-05
-0.001835009
-1.379208e-05
-0.001818111
-1.689809e-05
-0.001801082
-1.702912e-05
-0.001788119
-1.296339e-05
-0.00177793
-1.018818e-05
-0.0017706
-7.329955e-06
-0.001759705
-1.089542e-05
-0.001746211
-1.349408e-05
-0.001735429
-1.078169e-05
-0.001727197
-8.231785e-06
-0.001717077
-1.012006e-05
-0.001709533
-7.544339e-06
-0.001700405
-9.128234e-06
-0.00168989
-1.051469e-05
-0.001679086
-1.080378e-05
-0.001664555
-1.453174e-05
-0.001629999
-3.455568e-05
-0.001581729
-4.826967e-05
-0.001531441
-5.028851e-05
-0.00146445
-6.69907e-05
-0.001359818
-0.0001046316
-0.00116379
-0.0001960289
-0.0008914745
-0.0002723152
-0.0005439473
-0.0003475272
0.000254293
-0.0007982403
0.0007285935
-0.0004743005
0.001007098
-0.0002785045
0.001150213
-0.000143115
0.001238592
-8.837916e-05
0.001311947
-7.335446e-05
0.001362146
-5.019959e-05
0.001387798
-2.565205e-05
0.001407655
-1.985691e-05
0.001437568
-2.991318e-05
0.001464942
-2.737338e-05
0.001487376
-2.243473e-05
0.001502516
-1.513954e-05
0.001516588
-1.407211e-05
0.001530533
-1.394463e-05
0.001547772
-1.723943e-05
0.001563833
-1.606106e-05
0.00157617
-1.233684e-05
0.001589356
-1.318563e-05
0.001606267
-1.691094e-05
0.001621946
-1.567911e-05
0.001637058
-1.511234e-05
0.001655784
-1.872572e-05
0.001671872
-1.608778e-05
0.001693496
-2.162404e-05
0.001718685
-2.518975e-05
0.001738921
-2.023546e-05
0.001755754
-1.683343e-05
0.001774673
-1.891909e-05
0.001796523
-2.184936e-05
0.001811662
-1.51396e-05
0.001779818
3.184459e-05
0.001808508
-2.868984e-05
0.001843866
-3.535868e-05
0.001879744
-3.5878e-05
0.001916101
-3.635704e-05
0.001955287
-3.918522e-05
0.001992661
-3.737466e-05
0.002027186
-3.452485e-05
0.002064518
-3.7332e-05
0.002106264
-4.174568e-05
0.002151817
-4.555357e-05
0.002192325
-4.050786e-05
0.002231177
-3.885228e-05
0.002272916
-4.17389e-05
0.002318135
-4.521862e-05
0.002364489
-4.635364e-05
0.002415967
-5.147877e-05
0.002469593
-5.362554e-05
0.002523829
-5.423564e-05
0.002580054
-5.622585e-05
0.002633139
-5.308422e-05
0.002695876
-6.273757e-05
0.002761694
-6.581826e-05
0.0028304
-6.8706e-05
0.002904427
-7.402648e-05
0.002980947
-7.651982e-05
0.003065774
-8.482742e-05
0.003158603
-9.282891e-05
0.003254
-9.539734e-05
0.003357634
-0.0001036333
0.003475756
-0.0001181225
0.003614023
-0.0001382669
0.003874903
-0.0002608797
0.004071442
-0.0001965392
0.00429538
-0.0002239377
0.00454636
-0.0002509801
0.004873332
-0.0003269725
0.005191148
-0.0003178156
0.006024043
-0.000832895
0.0002156455
0.0003764714
0.0005782566
-0.001752968
0.0009409781
-0.001038807
0.001368329
-0.000705855
0.001659379
-0.0004341657
0.001872396
-0.0003013956
0.002056188
-0.0002571468
0.00221167
-0.000205682
0.002337991
-0.0001519728
0.002448821
-0.0001306864
0.002560069
-0.0001411613
0.002663219
-0.0001305236
0.002759361
-0.000118577
0.002845572
-0.0001013506
0.002927435
-9.593493e-05
0.003003957
-9.046644e-05
0.003079979
-9.326107e-05
0.003152049
-8.813156e-05
0.00321945
-7.973815e-05
0.003284111
-7.784621e-05
0.003349303
-8.210263e-05
0.003411747
-7.812316e-05
0.00347172
-7.508523e-05
0.003533229
-8.023553e-05
0.003590782
-7.364023e-05
0.003651245
-8.208689e-05
0.003712778
-8.672343e-05
0.003771928
-7.938495e-05
0.00382707
-7.197588e-05
0.003883793
-7.564197e-05
0.003940793
-7.884909e-05
0.003995693
-7.003918e-05
0.00396444
6.309731e-05
0.004030866
-9.511624e-05
0.004100773
-0.0001052657
0.004170952
-0.0001060568
0.004241439
-0.0001068441
0.004313317
-0.0001110633
0.004384841
-0.0001088984
0.004453428
-0.0001031117
0.004524725
-0.0001086294
0.004597282
-0.0001143023
0.004674396
-0.0001226682
0.004747086
-0.0001131978
0.004820163
-0.000111929
0.004894102
-0.0001156779
0.004971307
-0.0001224233
0.005048796
-0.0001238431
0.005130609
-0.0001332913
0.005214635
-0.0001376515
0.005299354
-0.000138955
0.005387148
-0.0001440201
0.005471914
-0.0001378495
0.00556531
-0.0001561338
0.005659686
-0.0001601947
0.005758585
-0.0001676045
0.005860418
-0.00017586
0.005966244
-0.0001823455
0.006077632
-0.0001962152
0.006196976
-0.0002121731
0.006318373
-0.0002167942
0.006447909
-0.0002331692
0.00658936
-0.0002595734
0.006748168
-0.000297075
0.00709226
-0.0006049724
0.007307396
-0.0004116744
0.007555507
-0.0004720494
0.007826521
-0.0005219939
0.008184852
-0.0006853029
0.008497708
-0.0006306717
0.009426604
-0.001761792
0.008710612
0.0009316381
-0.009954473
0.009171955
0.001040357
-0.008947057
-0.001909584
-0.008608891
-0.0006857225
-0.008230042
-0.0007276926
-0.007948951
-0.0005416791
-0.00768736
-0.0004990218
-0.007463128
-0.0004302652
-0.007101902
-0.0006363027
-0.006938879
-0.0003049197
-0.006795087
-0.0002641501
-0.006659453
-0.0002463014
-0.006535258
-0.0002226007
-0.006413988
-0.000215918
-0.00629863
-0.0002054646
-0.006186019
-0.0001984428
-0.006082689
-0.0001798226
-0.005982861
-0.0001698239
-0.005887679
-0.0001623457
-0.005792329
-0.0001615974
-0.005702356
-0.0001516455
-0.005613665
-0.0001477972
-0.005529203
-0.0001393053
-0.005448836
-0.000129394
-0.005368246
-0.0001307681
-0.005288949
-0.0001293441
-0.005209348
-0.0001301548
-0.005133171
-0.0001236821
-0.005059545
-0.0001157607
-0.004989838
-0.000107862
-0.00491723
-0.0001126496
-0.00484702
-0.0001097315
-0.004773928
-0.0001147784
-0.004705513
-0.0001048886
-0.004637308
-0.0001021468
-0.00456844
-0.0001044527
-0.004498774
-0.0001056189
-0.004428527
-0.0001071734
-0.004360805
-0.000100684
-0.00429409
-9.671673e-05
-0.004332187
7.119394e-05
-0.004279195
-6.845214e-05
-0.004224652
-7.598513e-05
-0.004168733
-7.745501e-05
-0.004115646
-7.165905e-05
-0.004060171
-7.467009e-05
-0.004006587
-7.035105e-05
-0.003952219
-6.916684e-05
-0.003898065
-6.794539e-05
-0.003840376
-7.458693e-05
-0.003782172
-7.523359e-05
-0.003725125
-7.001012e-05
-0.003667499
-6.781467e-05
-0.003609686
-6.51424e-05
-0.003546572
-7.401013e-05
-0.003480307
-7.975911e-05
-0.003412553
-7.853502e-05
-0.003343713
-7.707213e-05
-0.003268729
-8.510362e-05
-0.003192095
-8.417907e-05
-0.003108232
-9.2991e-05
-0.003018207
-0.0001005393
-0.00292116
-0.0001078513
-0.002815075
-0.0001206169
-0.002686596
-0.0001630346
-0.002541566
-0.0001932998
-0.002387113
-0.0002047416
-0.002209524
-0.0002445793
-0.001983384
-0.0003307713
-0.001640993
-0.00053842
-0.001163744
-0.0007495642
-0.0009330146
-0.007673219
0.005487283
0.003027449
-0.007386316
4.202284e-05
-0.00613362
-0.002017814
-0.004926395
-0.002108084
-0.003704109
-0.002187535
-0.002540767
-0.002103386
-0.001432265
-0.002006493
-0.0004688415
-0.001720176
0.0004491651
-0.001636961
0.001263655
-0.001418542
0.001971985
-0.001218873
0.002554875
-0.0009963168
0.003555
-0.00179865
0.004713106
-0.002050731
0.005534345
-0.00137633
0.006142006
-0.0009879496
0.006498167
-0.0005443182
0.006708303
-0.0003068107
0.006833651
-0.0001644749
0.006864399
7.201482e-05
0.006753262
0.0004899367
0.006391745
0.001215977
0.005084271
0.003051996
0.002049508
0.005286262
-0.001721607
0.005413715
-0.003307888
0.001646005
-0.00282044
-0.0009290811
-0.001688894
-0.002012721
-0.0005785784
-0.00204331
-0.0003589576
-0.000475071
-0.002346381
0.003063019
-0.004900608
0.004403301
-0.00495356
0.001074326
-0.003061149
-0.002827259
-0.002081354
-0.001818513
-0.0007317051
-0.002424677
0.0007359423
-0.002612822
0.001196244
-0.0008152545
0.001518153
-0.0006139924
0.001942645
-0.0005361226
0.001654704
0.0009318637
0.00055721
0.001793994
-0.0003749603
0.00124954
-0.0004740118
0.0002142499
0.0005784458
-0.001763601
0.0008470921
-9.482337e-07
0.0007742814
0.0006578888
0.002617488
-0.004147694
0.0008346264
0.0009288546
0.01869041
-0.002047363
0.00175319
8.430024e-05
-0.002393825
0.0007123013
-0.002522205
0.0005432832
-0.002201483
-0.0004338197
-0.001509593
-0.001276288
-0.0004358746
-0.00200259
0.0007768366
-0.002236509
0.001767512
-0.001787275
0.002795158
-0.001830317
0.003600866
-0.001374847
0.004231631
-0.001009827
0.004717964
-0.0002742215
0.004264019
0.001861646
0.001878834
0.004300628
-0.0007525646
0.003415879
-0.001463309
-0.0001564066
-0.001639132
-9.911869e-05
-0.003118979
0.002671071
-0.004207331
0.002590219
-0.003895277
-4.073879e-06
-0.002975822
-0.001542419
-0.001891887
-0.001999911
-0.0009969966
-0.001673351
-0.0008683074
-0.0003561743
-0.001012676
0.000262371
-0.0001511371
-0.001371413
0.0008948288
-0.001834073
0.001667856
-0.001448605
0.002475721
-0.001529852
0.003355722
-0.001653738
0.004286826
-0.001705838
0.005002815
-0.001195414
0.004789849
0.00123771
0.000686309
0.007547695
-0.002968241
0.005825646
-0.001830489
-0.00257025
-0.0004107276
-0.002928087
1.780431e-05
-0.001056554
0.0001687773
-0.0004298107
0.0004667763
-0.0007978049
0.001284593
-0.001786558
0.002633953
-0.002089735
0.002750638
0.001053667
0.0009569586
0.00395477
-0.0008144151
0.00230474
-0.002084874
0.0004947383
-0.00335562
0.001278065
-0.004600619
0.002060561
-0.005683757
0.002065937
-0.006311903
0.001390113
-0.006618374
0.0008407916
-0.006746757
0.000498599
-0.006769141
0.0002881396
-0.006721897
0.0001507816
-0.006614434
2.732717e-05
-0.006466752
-6.492378e-05
-0.006287953
-0.0001520548
-0.006073202
-0.0002507464
-0.005821102
-0.0003379792
-0.005533825
-0.0004119228
-0.005223225
-0.0004629918
-0.004877328
-0.0005391622
-0.004521792
-0.0005632187
-0.004150294
-0.0006001761
-0.00375673
-0.0006524858
-0.00336487
-0.0006550007
-0.003065667
-0.0004989354
-0.002694974
-0.0006301755
-0.002358175
-0.0005667448
-0.002032643
-0.0005474949
-0.001700823
-0.0005675073
-0.001402878
-0.0005017293
-0.001119331
-0.0004663799
-0.0008344214
-0.0004610243
-0.0004922449
-0.0005655061
-0.0001490602
-0.0005823787
0.0002999489
-0.0007649059
0.000653722
-0.0005921414
0.001153323
-0.0008530607
0.001793378
-0.001121624
0.002269697
-0.0008287275
0.002577719
-0.0005166075
0.002853982
-0.0004585041
0.003162892
-0.0005251031
0.003568586
-0.0007099434
0.004073723
-0.0008973703
0.00466077
-0.001049708
0.00519898
-0.0009473241
0.005615925
-0.0007175416
0.005925502
-0.0003990512
0.006076276
0.0001977807
0.005830652
0.001159309
0.004951976
0.002193541
0.003518927
0.002769073
0.001937111
0.002612573
0.0009186513
0.00182888
0.0008579064
1.264944e-05
0.001608714
-0.002811069
0.002514169
-0.003065074
0.01509361
-0.0008471514
0.01782862
-0.00246945
0.0008849873
-0.0003519866
-0.004957432
5.928932e-05
-0.0005353587
-0.0008587143
0.002301071
-0.00100479
0.000539471
-0.000472775
-0.0008025516
-0.0003654812
-0.0001751823
-0.0003001926
-4.60356e-05
-0.000337208
4.865083e-05
-6.253224e-05
-0.0005193429
0.0005064012
-0.001004719
0.001102776
-0.001096173
0.001378496
-0.0004550318
0.00136087
0.0001925766
0.001205226
0.0004044896
0.001186416
-0.0001622542
2.373245e-05
0.001403509
-0.001715454
0.002830887
-0.002199803
0.001361753
-0.001929617
-0.0002430505
-0.001809946
-0.0002514418
-0.001706965
-0.0001255142
-0.001312921
-0.0006655841
-0.0003217545
-0.001739142
0.0009438579
-0.002256755
0.002262276
-0.002390019
0.003625583
-0.0019645
0.003463509
0.001032948
0.001571755
0.003011339
0.0002186169
0.002052071
0.000716326
-0.0007533862
0.001187448
-0.0008700124
0.001058764
0.0002325171
0.002071833
-0.001652935
0.002931825
-0.001666528
0.0008350171
0.002156581
-0.003968503
0.006822626
-0.007309958
0.006402351
-0.008004016
0.00254833
-0.007874386
0.0004569643
-0.007660845
-0.0001242805
-0.007294907
-0.0005128006
-0.006752182
-0.0008666904
-0.00601911
-0.001251564
-0.005151597
-0.001526519
-0.004416271
-0.001255062
-0.003283198
-0.001911112
-0.001694113
-0.002886792
-0.0001270774
0.001169897
-0.01097493
0.02763365
-0.002706438
0.004761323
-0.001466047
-0.006197823
-0.001036373
-0.0009650333
-0.00176033
0.003025028
-0.001434558
0.0002136985
-0.0007982966
-0.001438812
-0.0005956821
-0.0003777968
-0.0003579117
-0.000283806
-0.0003131823
3.921429e-06
-0.0001118878
-0.0007206375
0.0004673157
-0.001583923
0.001094312
-0.00172317
0.001306568
-0.0006672879
0.001229517
0.0002696275
0.001113744
0.0005202626
0.0005345224
0.0004169678
-0.001344608
0.003282639
-0.002827593
0.004313872
-0.002855553
0.001389713
-0.00258949
-0.000509114
-0.002486609
-0.0003543228
-0.002385035
-0.0002270879
-0.001897264
-0.001153355
-0.0007517856
-0.002884621
0.0008215293
-0.00383007
0.002436549
-0.004005039
0.004166949
-0.0036949
0.00473249
0.0004674068
0.0028894
0.00485443
0.00106879
0.003872681
0.001666564
-0.00135116
0.002191369
-0.001394818
0.002040813
0.0003830736
0.003179294
-0.002791416
0.002609268
-0.001096502
-0.002236135
0.007001983
-0.007663897
0.01225039
-0.009430665
0.008169118
-0.009457301
0.002574966
-0.009437936
0.0004375994
-0.009264735
-0.000297481
-0.008853815
-0.0009237213
-0.008212742
-0.001507763
-0.007361341
-0.002102965
-0.006378713
-0.002509148
-0.005532788
-0.002100987
-0.004128616
-0.003315283
-0.002443791
-0.004571617
-0.002277635
-0.0002932327
-0.002588248
0.000394913
-0.003001678
0.001125731
-0.003159936
0.0007015414
-0.002767876
-0.0008258799
-0.001954281
-0.002089883
-0.0007022825
-0.003254588
0.0007642061
-0.003702997
0.001997592
-0.003020661
0.003265706
-0.003098432
0.004284123
-0.002393265
0.005063018
-0.001788722
0.005639699
-0.0008509025
0.005991924
0.001509421
0.00467483
0.005617723
0.001215734
0.006874975
-0.001626141
0.002685469
-0.002859928
0.001134668
-0.004254407
0.004065551
-0.005047671
0.003383483
-0.004632938
-0.0004188065
-0.003656256
-0.002519101
-0.002348737
-0.00330743
-0.001180711
-0.002841377
-0.0009324853
-0.0006044005
-0.001076634
0.00040652
-0.0001269983
-0.002321049
0.0009388027
-0.002899874
0.001680806
-0.002190608
0.002494566
-0.002343611
0.00345564
-0.002614813
0.004545142
-0.00279534
0.005285802
-0.001936074
0.005567938
0.0009555733
0.002027937
0.0110877
-0.002406819
0.0102604
-0.002754904
-0.002222165
-0.002317637
-0.003365353
-0.002518173
-0.0008560183
-0.002725094
-0.0002228895
-0.00245146
-0.001071439
-0.001464457
-0.00277356
-0.0002597141
-0.003294478
0.001120545
-0.0003265921
0.000107844
0.004967471
-0.003714656
0.00612724
-0.006510185
0.003290267
-0.007717483
0.002485363
-0.008369996
0.002713074
-0.008657376
0.002353317
-0.008706142
0.001438879
-0.008661657
0.0007963072
-0.008576516
0.0004134583
-0.008459455
0.0001710785
-0.008316078
7.404148e-06
-0.00813794
-0.0001508107
-0.007929982
-0.0002728816
-0.007686351
-0.0003956862
-0.007399084
-0.0005380137
-0.007072058
-0.0006650048
-0.00670791
-0.000776071
-0.006320005
-0.0008508962
-0.005892731
-0.0009664369
-0.005456648
-0.0009993016
-0.005003144
-0.00105368
-0.00452559
-0.001130041
-0.004051831
-0.001128759
-0.00368986
-0.0008609061
-0.003243234
-0.001076802
-0.002838178
-0.0009718
-0.002445713
-0.0009399607
-0.002046376
-0.0009668437
-0.001687868
-0.0008602375
-0.0013438
-0.0008104478
-0.00099518
-0.0008096443
-0.0005793679
-0.0009813182
-0.0001549812
-0.001006765
0.0003897321
-0.001309619
0.0008244873
-0.001026897
0.00143987
-0.001468443
0.002215636
-0.00189739
0.002793306
-0.001406398
0.003177054
-0.0009003549
0.00352346
-0.0008049103
0.00391026
-0.0009119036
0.004413759
-0.001213442
0.005038607
-0.001522218
0.005757585
-0.001768686
0.006411079
-0.001600818
0.006927458
-0.001233921
0.007267563
-0.0007391558
0.007385403
7.994015e-05
0.007273172
0.001271541
0.006859658
0.002607055
0.005955266
0.003673464
0.004627934
0.003939906
0.003472262
0.002984552
0.002753276
0.0007316351
0.002650525
-0.002708318
0.002170905
-0.002585454
-0.006336907
0.02360142
-0.009435613
0.006126156
-0.008929994
-0.0004635965
-0.007484146
-0.003463662
-0.005993879
-0.003598351
-0.004514234
-0.00366718
-0.003084485
-0.003533136
-0.001700182
-0.003390796
-0.0004844675
-0.00293589
0.0006783282
-0.002799757
0.001696181
-0.002436395
0.002574391
-0.002097082
0.00323105
-0.001652976
0.004344146
-0.002911745
0.00573329
-0.003439875
0.006792173
-0.002435213
0.00760703
-0.001802807
0.008095602
-0.00103289
0.008382913
-0.000594122
0.00854159
-0.0003231521
0.008547974
6.563095e-05
0.008351756
0.0006861545
0.007964293
0.00160344
0.007083559
0.003932731
0.004857057
0.007512763
0.0001289562
0.01014182
-0.00365222
0.005427182
-0.004154113
-0.0004271881
-0.003166454
-0.00300038
-0.002143166
-0.003066598
-0.002357645
-0.0002605919
-0.00476982
0.005475194
-0.006647416
0.006280896
-0.005648458
7.536834e-05
-0.003349639
-0.005126077
-0.002212839
-0.002955313
-0.0005624768
-0.004075039
0.001130798
-0.004306096
0.001627053
-0.00131151
0.00191054
-0.0008974799
0.002362602
-0.0009881842
0.002337356
0.0009571094
0.00130172
0.00282963
-9.43728e-05
0.002645633
-0.0002835709
0.000403448
0.0008214997
-0.002868672
0.001506483
-0.0006859312
0.002047467
0.0001169045
0.002874028
-0.004974256
-0.00128622
0.005089103
-0.01153199
0.02893618
-0.01223271
0.001741082
-0.0112241
-0.002918191
-0.01079115
-0.001118673
-0.0103697
-0.001149152
-0.01005588
-0.0008554897
-0.00976752
-0.0007873871
-0.00952608
-0.0006717044
-0.009111986
-0.001050397
-0.008934282
-0.000482624
-0.00877359
-0.0004248418
-0.008621454
-0.0003984376
-0.008481093
-0.0003629612
-0.008343162
-0.0003538489
-0.008211741
-0.0003368857
-0.008082353
-0.0003278309
-0.007962456
-0.0002997197
-0.007844984
-0.0002872963
-0.007732554
-0.0002747752
-0.007619196
-0.0002749554
-0.007511568
-0.0002592737
-0.007404452
-0.0002549132
-0.007301282
-0.0002424754
-0.007201866
-0.0002288103
-0.007101907
-0.0002307267
-0.007003655
-0.0002275957
-0.006904774
-0.0002290366
-0.006809262
-0.0002191935
-0.00671518
-0.0002098424
-0.006624919
-0.0001981239
-0.006530674
-0.0002068943
-0.006439679
-0.0002007262
-0.006344746
-0.000209712
-0.006254614
-0.0001950201
-0.006163584
-0.0001931771
-0.006071645
-0.000196392
-0.005978701
-0.0001985628
-0.005884558
-0.0002013159
-0.005791362
-0.0001938803
-0.005696309
-0.0001917699
-0.005726759
0.0001016437
-0.005642504
-0.0001527067
-0.005564555
-0.0001539341
-0.005483462
-0.0001585483
-0.005405777
-0.0001493435
-0.005324573
-0.0001558748
-0.005245383
-0.0001495406
-0.005164579
-0.0001499707
-0.005084004
-0.0001485202
-0.004999338
-0.0001592535
-0.004914167
-0.0001604043
-0.004829982
-0.0001541959
-0.004744394
-0.0001534023
-0.004658491
-0.0001510457
-0.004566662
-0.0001658386
-0.004471605
-0.0001748164
-0.004375192
-0.0001749479
-0.004277681
-0.0001745827
-0.004172914
-0.0001898711
-0.004067132
-0.0001899613
-0.003953588
-0.0002065348
-0.003834339
-0.0002197884
-0.003707915
-0.0002342748
-0.003572574
-0.0002559579
-0.003412204
-0.0003234045
-0.003236517
-0.000368987
-0.003053501
-0.0003877569
-0.002839407
-0.0004586741
-0.002563085
-0.0006070925
-0.002157187
-0.0009443188
-0.001568419
-0.001338332
-0.0007351986
-0.001766235
0.0004743172
-0.002962484
0.00122669
-0.00179118
0.001726202
-0.001205368
0.002082386
-0.0007903489
0.002346401
-0.0005654109
0.002575657
-0.0004864026
0.00277326
-0.0004032852
0.00293726
-0.0003159732
0.003082066
-0.0002754926
0.003228486
-0.0002875806
0.003365989
-0.0002680271
0.003496753
-0.0002493411
0.003615872
-0.0002204692
0.003730276
-0.0002103393
0.003838209
-0.0001983993
0.003945724
-0.0002007763
0.004049016
-0.0001914229
0.004146855
-0.0001775773
0.004241273
-0.0001722643
0.004335994
-0.0001768239
0.00442748
-0.0001696087
0.004515581
-0.0001631863
0.004605511
-0.0001701653
0.004689857
-0.0001579868
0.004776842
-0.0001690716
0.004864566
-0.000174447
0.004949983
-0.0001648023
0.005030845
-0.0001528376
0.005113306
-0.0001581029
0.005194574
-0.0001601175
0.005280969
-0.0001564338
0.005259176
8.488993e-05
0.005353796
-0.0001897362
0.005449228
-0.0002006977
0.005543098
-0.0001999269
0.005636543
-0.000200289
0.005730837
-0.0002053567
0.005824856
-0.0002029182
0.005915298
-0.0001935537
0.006008277
-0.0002016078
0.006101066
-0.0002070911
0.006198918
-0.0002205203
0.00629177
-0.0002060497
0.00638543
-0.0002055892
0.006479178
-0.0002094259
0.006576072
-0.0002193175
0.006672441
-0.0002202122
0.006772988
-0.000233838
0.00687548
-0.0002401439
0.006978322
-0.0002417971
0.007084934
-0.0002506316
0.007187367
-0.0002402823
0.007298996
-0.0002677634
0.007410318
-0.0002715163
0.007526537
-0.0002838234
0.007645169
-0.0002944924
0.007767654
-0.0003048301
0.007895259
-0.0003238201
0.008030958
-0.0003478722
0.008168355
-0.0003541913
0.008313896
-0.0003787104
0.00847208
-0.0004177576
0.008645254
-0.0004702487
0.009039255
-0.0009989738
0.009270758
-0.0006431775
0.009543528
-0.0007448189
0.009846428
-0.0008248937
0.01024691
-0.001085782
0.0106514
-0.001035162
0.0115825
-0.002692897
0.00153921
0.0004920019
0.0008409559
-0.004295442
0.001403322
-0.0027025
0.001979976
-0.001782022
0.002406274
-0.001216646
0.002731247
-0.0008903841
0.003013887
-0.0007690425
0.003258025
-0.0006474229
0.003463184
-0.0005211327
0.00364458
-0.0004568883
0.003826953
-0.0004699532
0.003997792
-0.0004388665
0.004160822
-0.0004123711
0.004310144
-0.0003697906
0.004453413
-0.0003536089
0.00458886
-0.0003338459
0.004723049
-0.0003349659
0.004852565
-0.0003209384
0.004974941
-0.0002999536
0.005093477
-0.0002907999
0.00521182
-0.0002951676
0.005326225
-0.0002840131
0.005436396
-0.0002733579
0.005548848
-0.0002826168
0.005654046
-0.0002631848
0.005762461
-0.0002774865
0.005871724
-0.0002837105
0.005977685
-0.0002707633
0.006078901
-0.0002540531
0.006181475
-0.0002606773
0.006282556
-0.0002611985
0.006390853
-0.0002647309
0.006370598
0.0001051456
0.006485409
-0.0003045481
0.006603323
-0.000318611
0.006717919
-0.0003145232
0.006831979
-0.0003143489
0.006947108
-0.0003204857
0.00706149
-0.0003173003
0.007171706
-0.0003037698
0.007284622
-0.000314524
0.007397243
-0.0003197118
0.007515666
-0.0003389435
0.007628042
-0.0003184257
0.007741277
-0.0003188245
0.007854765
-0.0003229133
0.007971527
-0.0003360798
0.008087549
-0.0003362342
0.008208605
-0.000354894
0.008331603
-0.0003631422
0.008455059
-0.000365253
0.008583078
-0.0003786501
0.008705477
-0.0003626814
0.008839568
-0.0004018548
0.00897233
-0.0004042784
0.009110755
-0.0004222487
0.009252435
-0.0004361716
0.009397533
-0.0004499289
0.009549602
-0.0004758888
0.00971036
-0.0005086297
0.009872967
-0.0005167986
0.01004521
-0.0005509548
0.0102326
-0.0006051469
0.01065574
-0.0008933873
0.01090718
-0.001250417
0.01117938
-0.0009153776
0.0115036
-0.001069036
0.01187445
-0.001195744
0.01235176
-0.001563088
0.01291731
-0.00160071
0.01379103
-0.003566622
0.01350734
0.0018229
-0.0145617
0.01418213
0.002120643
-0.01360842
-0.003871468
-0.01300785
-0.001719241
-0.01250742
-0.001649578
-0.01212497
-0.001237945
-0.0117814
-0.001130955
-0.01149728
-0.0009558301
-0.01123397
-0.001313698
-0.01079246
-0.0009241392
-0.01060265
-0.0006146463
-0.01042228
-0.0005788091
-0.01025602
-0.0005292217
-0.01009247
-0.0005174025
-0.009936311
-0.0004930437
-0.009782509
-0.0004816328
-0.009639276
-0.0004429527
-0.009499199
-0.0004273734
-0.009364661
-0.0004093131
-0.009228937
-0.00041068
-0.009099789
-0.0003884212
-0.008971364
-0.0003833379
-0.008846933
-0.0003669072
-0.008727376
-0.0003483667
-0.008606848
-0.0003512553