# Force and moment coefficients
# dragDir     : (1.000000e+00 0.000000e+00 0.000000e+00)
# sideDir     : (0.000000e+00 0.000000e+00 -1.000000e+00)
# liftDir     : (0.000000e+00 1.000000e+00 0.000000e+00)
# rollAxis    : (1.000000e+00 0.000000e+00 0.000000e+00)
# pitchAxis   : (0.000000e+00 0.000000e+00 -1.000000e+00)
# yawAxis     : (0.000000e+00 1.000000e+00 0.000000e+00)
# magUInf     : 2.000000e+01
# lRef        : 1.000000e+00
# Aref        : 7.900000e-01
# CofR        : (0.000000e+00 0.000000e+00 0.000000e+00)
#
# Time        	Cd            	Cd(f)         	Cd(r)         	Cl            	Cl(f)         	Cl(r)         	CmPitch       	CmRoll        	CmYaw         	Cs            	Cs(f)         	Cs(r)         
0.001         	2.307112e-08	1.153556e-08	1.153556e-08	-8.630839e-09	-4.314267e-09	-4.316572e-09	1.152408e-12	3.271027e-31	-3.012054e-31	1.071931e-27	5.356643e-28	5.362668e-28
0.002         	-2.663373e-08	-1.331686e-08	-1.331686e-08	5.785147e-08	2.892183e-08	2.892964e-08	-3.905988e-12	-1.884978e-29	1.735339e-29	-6.174221e-26	-3.085375e-26	-3.088846e-26
0.003         	-1.656840e-05	-8.284200e-06	-8.284200e-06	-2.858516e-05	-1.428876e-05	-1.429640e-05	3.817655e-09	4.173359e-28	-3.934380e-28	1.365087e-24	6.821503e-25	6.829372e-25
0.004         	1.644134e-03	8.220668e-04	8.220668e-04	1.030787e-03	5.152623e-04	5.155247e-04	-1.311864e-07	-3.799099e-26	3.473790e-26	-1.237408e-22	-6.183565e-23	-6.190513e-23
