# Force and moment coefficients
# dragDir     : (1.000000e+00 0.000000e+00 0.000000e+00)
# sideDir     : (0.000000e+00 0.000000e+00 -1.000000e+00)
# liftDir     : (0.000000e+00 1.000000e+00 0.000000e+00)
# rollAxis    : (1.000000e+00 0.000000e+00 0.000000e+00)
# pitchAxis   : (0.000000e+00 0.000000e+00 -1.000000e+00)
# yawAxis     : (0.000000e+00 1.000000e+00 0.000000e+00)
# magUInf     : 2.000000e+01
# lRef        : 1.000000e+00
# Aref        : 7.900000e-01
# CofR        : (0.000000e+00 0.000000e+00 0.000000e+00)
#
# Time        	Cd            	Cd(f)         	Cd(r)         	Cl            	Cl(f)         	Cl(r)         	CmPitch       	CmRoll        	CmYaw         	Cs            	Cs(f)         	Cs(r)         
0.0001        	6.331039e-08	3.165520e-08	3.165520e-08	-2.172965e-08	-1.086219e-08	-1.086746e-08	2.633092e-12	7.225419e-31	-6.795441e-31	2.364908e-27	1.181775e-27	1.183134e-27
0.0002        	8.124726e-09	4.062363e-09	4.062363e-09	8.380461e-07	4.189344e-07	4.191118e-07	-8.870292e-11	-6.433124e-30	6.144472e-30	-2.072281e-26	-1.035526e-26	-1.036755e-26
0.0003        	-1.733869e-06	-8.669345e-07	-8.669345e-07	-1.563279e-05	-7.814142e-06	-7.818651e-06	2.254478e-09	1.013253e-28	-9.540570e-29	3.221396e-25	1.609744e-25	1.611652e-25
0.0004        	5.676033e-04	2.838016e-04	2.838016e-04	8.373993e-04	4.185885e-04	4.188108e-04	-1.111131e-07	-7.171474e-27	6.612689e-27	-2.302847e-23	-1.150762e-23	-1.152085e-23
