/*--------------------------------*- C++ -*----------------------------------*\
| =========                 |                                                 |
| \\      /  F ield         | OpenFOAM: The Open Source CFD Toolbox           |
|  \\    /   O peration     | Version:  2406                                  |
|   \\  /    A nd           | Website:  www.openfoam.com                      |
|    \\/     M anipulation  |                                                 |
\*---------------------------------------------------------------------------*/
FoamFile
{
    version     2.0;
    format      ascii;
    arch        "LSB;label=32;scalar=64";
    class       volScalarField;
    location    "1.1";
    object      p;
}
// * * * * * * * * * * * * * * * * * * * * * * * * * * * * * * * * * * * * * //

dimensions      [0 2 -2 0 0 0 0];

internalField   nonuniform List<scalar> 
15536
(
-23.20298
-23.71459
-23.98897
-22.76392
-18.92657
-14.92749
-20.11391
-21.97826
-13.02495
-11.26509
-15.36438
-18.95847
-19.39695
-17.02927
-15.65271
-15.96928
-18.66446
-22.38011
-25.95999
-25.14795
-16.81827
-1.783166
6.229622
10.68068
8.683674
-2.583416
-13.21566
-26.56046
-56.79403
-110.4689
-151.4035
-126.4806
-54.2996
-42.47445
-74.62265
-98.91748
-105.4202
-99.75813
-97.57757
-102.977
-109.0357
-113.5167
-115.9486
-116.8542
-116.9208
-115.9698
-114.0963
-111.2063
-107.8223
-104.1029
-99.66644
-94.62202
-88.92851
-82.84781
-76.3196
-69.41863
-62.50397
-55.48782
-48.10078
-40.53267
-33.09542
-25.80317
-18.53373
-11.34119
-4.369213
2.481795
9.041302
15.27879
21.08998
26.48061
31.40987
35.88045
39.85041
43.24348
46.02513
48.30202
49.95987
51.06217
51.63759
51.52364
50.65827
49.2416
47.27558
44.71987
41.61073
37.96847
33.84723
29.17163
24.09232
18.65745
12.73223
6.484663
-0.01698433
-6.930772
-14.00078
-21.03484
-28.22669
-35.56021
-42.85548
-50.19366
-57.42063
-64.35391
-70.94889
-77.28178
-83.46504
-89.20969
-94.48635
-99.25167
-103.5115
-107.3193
-110.4181
-112.7253
-114.2609
-114.9978
-114.7068
-112.933
-109.6335
-105.5273
-105.7689
-110.0605
-103.9689
-86.3141
-69.68508
-98.34332
-150.634
-148.4013
-104.331
-66.48715
-50.11572
-43.7467
-36.46273
-24.40421
-17.5192
-19.87806
-30.05321
-44.68011
-54.99793
-58.77147
-57.33238
-53.04386
-47.71257
-42.37079
-38.93087
-37.19322
-35.65395
-34.91161
-36.71251
-36.23849
-36.23858
-36.83518
-37.12158
-36.51284
-34.31485
-30.81822
-27.04795
-24.37303
-23.23841
-23.16298
-23.6298
-23.88139
-22.69381
-18.88467
-14.92502
-20.06723
-22.05153
-13.08299
-11.2492
-15.35213
-18.96742
-19.36488
-16.98382
-15.62019
-15.95839
-18.68092
-22.40637
-25.9826
-25.13889
-16.83709
-1.770418
6.275825
10.67704
8.590996
-2.674902
-13.1936
-26.42651
-56.60501
-110.3113
-151.4477
-126.5345
-54.29922
-42.57248
-74.79764
-99.17796
-105.4007
-99.77231
-97.43478
-102.4153
-108.1011
-112.2599
-114.5167
-115.3308
-115.3544
-114.3837
-112.5077
-109.6258
-106.2568
-102.5704
-98.17155
-93.17332
-87.52876
-81.50294
-75.03782
-68.2028
-61.35454
-54.41022
-47.10095
-39.60625
-32.2431
-25.02599
-17.83093
-10.71048
-3.806111
2.975822
9.466281
15.64028
21.39293
26.72753
31.60631
36.03195
39.96182
43.32242
46.07588
48.33072
49.97261
51.06306
51.63312
51.51919
50.65938
49.25516
47.30603
44.77257
41.69152
38.08302
34.00055
29.36915
24.34085
18.95781
13.08937
6.905877
0.4678613
-6.380922
-13.38396
-20.3484
-27.47189
-34.73387
-41.95802
-49.2265
-56.38544
-63.2514
-69.78305
-76.06057
-82.19248
-87.88743
-93.12277
-97.85044
-102.0802
-105.8687
-108.9565
-111.2685
-112.8236
-113.606
-113.4182
-111.8645
-108.8797
-105.1505
-105.7328
-110.0866
-104.1029
-86.36889
-69.57932
-98.23699
-150.7727
-148.3566
-104.2241
-66.36573
-50.03655
-43.74194
-36.53218
-24.47409
-17.53172
-19.80605
-30.06262
-44.69668
-55.01293
-58.77167
-57.34657
-53.05249
-47.71998
-42.36947
-38.92722
-37.17732
-35.64136
-34.90579
-36.71309
-36.24083
-36.22795
-36.82594
-37.10878
-36.49408
-34.29943
-30.8226
-27.06202
-24.38686
-23.2346
-23.15172
-23.59341
-23.84239
-22.71832
-19.03836
-15.10854
-20.18673
-22.24806
-13.08062
-10.99978
-15.29701
-19.05737
-19.37456
-16.93456
-15.59965
-15.9774
-18.74249
-22.48483
-26.08435
-25.24138
-17.01014
-1.973759
6.171575
10.68317
8.389006
-2.817943
-13.17797
-26.30409
-56.57648
-110.6513
-152.4317
-127.7908
-54.24746
-42.27364
-74.42247
-98.74371
-104.9633
-99.44476
-97.20042
-101.7819
-107.1122
-111.1755
-113.5057
-114.3669
-114.427
-113.4843
-111.6446
-108.7798
-105.4242
-101.7694
-97.38391
-92.4124
-86.78991
-80.80082
-74.38039
-67.56158
-60.74276
-53.84363
-46.56132
-39.09847
-31.76895
-24.59323
-17.43778
-10.34781
-3.487989
3.262983
9.717836
15.85842
21.57922
26.88443
31.73301
36.13129
40.03629
43.37759
46.10892
48.34862
49.9783
51.05731
51.62123
51.50758
50.65405
49.26138
47.32485
44.80728
41.74625
38.1601
34.10355
29.49534
24.49706
19.14551
13.30449
7.155283
0.7530305
-6.066923
-13.03422
-19.95705
-27.04781
-34.27793
-41.46062
-48.70621
-55.83274
-62.67079
-69.17643
-75.41562
-81.52308
-87.1832
-92.39685
-97.10247
-101.312
-105.0861
-108.1515
-110.4342
-111.9584
-112.7127
-112.4546
-110.8673
-108.052
-104.668
-105.212
-109.0832
-103.481
-85.96967
-69.36818
-98.35324
-151.6887
-149.0047
-104.431
-66.32899
-49.97988
-43.74977
-36.61324
-24.61605
-17.53627
-19.77863
-30.2726
-44.89998
-55.12521
-58.84679
-57.40425
-53.08262
-47.7356
-42.37355
-38.92435
-37.18663
-35.64914
-34.91806
-36.75088
-36.2424
-36.19949
-36.82155
-37.10936
-36.496
-34.30562
-30.84761
-27.10076
-24.42493
-23.25483
-23.154
-23.55251
-23.77702
-22.71724
-19.34607
-15.64212
-20.48594
-22.54689
-12.99908
-10.58688
-15.19049
-19.20219
-19.43225
-16.9051
-15.60343
-16.03887
-18.87147
-22.64339
-26.30651
-25.45378
-17.3211
-2.441141
5.946918
10.9174
8.233799
-2.907032
-13.11248
-26.19269
-56.66062
-111.3832
-153.9355
-129.8344
-54.8804
-42.06902
-73.11832
-96.37025
-102.803
-98.36874
-96.7191
-100.8594
-105.7115
-109.512
-111.6474
-112.3462
-112.3814
-111.4239
-109.625
-106.794
-103.4677
-99.86692
-95.55955
-90.67192
-85.12953
-79.21863
-72.88691
-66.16094
-59.42665
-52.62284
-45.45006
-38.07163
-30.82805
-23.74549
-16.68194
-9.671949
-2.89991
3.774511
10.1532
16.22863
21.88388
27.12794
31.92232
36.27431
40.13826
43.44906
46.14649
48.36518
49.97845
51.04212
51.5984
51.4849
50.63838
49.26207
47.34264
44.84696
41.81535
38.26447
34.25174
29.68515
24.74436
19.45075
13.66643
7.592752
1.261294
-5.495086
-12.37257
-19.21037
-26.22584
-33.36629
-40.45959
-47.62152
-54.66118
-61.40446
-67.81678
-73.98396
-80.01792
-85.59415
-90.73998
-95.37177
-99.52667
-103.2664
-106.2923
-108.5454
-110.0726
-110.8742
-110.7805
-109.3997
-106.8797
-103.9072
-104.0991
-106.9236
-101.7037
-85.3037
-69.73961
-99.28802
-152.8866
-149.7016
-104.7923
-66.37318
-49.92956
-43.70793
-36.60661
-24.67082
-17.37088
-19.71714
-30.73365
-45.29892
-55.29533
-59.00957
-57.52052
-53.14039
-47.76994
-42.37954
-38.92216
-37.18142
-35.68301
-34.97719
-36.84687
-36.25379
-36.16004
-36.82264
-37.11968
-36.51226
-34.33388
-30.90352
-27.17489
-24.4989
-23.30332
-23.18922
-23.53753
-23.75562
-22.79997
-19.78602
-16.48298
-20.76287
-22.598
-12.77812
-10.09818
-15.04575
-19.36653
-19.53172
-16.8965
-15.61866
-16.15049
-19.08363
-22.92213
-26.71459
-25.88209
-17.79152
-3.088426
5.809363
11.55378
8.337356
-2.836183
-12.96918
-26.09222
-56.99663
-112.4455
-155.5654
-131.9661
-57.45571
-43.0621
-72.16845
-93.26394
-99.70843
-96.85528
-96.03574
-99.85582
-104.3424
-107.9965
-110.1599
-110.9084
-110.9668
-109.9905
-108.2233
-105.3926
-102.0254
-98.48906
-94.17278
-89.32287
-83.79318
-77.93242
-71.66932
-64.96666
-58.28314
-51.56782
-44.46133
-37.13188
-29.95363
-22.95812
-15.9719
-9.018356
-2.331507
4.2832
10.59266
16.60409
22.19063
27.37915
32.1196
36.42393
40.23915
43.5171
46.17775
48.37253
49.96726
51.0119
51.55851
51.4435
50.60502
49.25323
47.35666
44.88588
41.88672
38.37178
34.40513
29.8795
25.00357
19.76503
14.0246
8.033254
1.774053
-4.945392
-11.74428
-18.49788
-25.4584
-32.53609
-39.54379
-46.65963
-53.64426
-60.32855
-66.68911
-72.80157
-78.80981
-84.3358
-89.46479
-94.07024
-98.2076
-101.9754
-104.965
-107.2292
-108.7554
-109.5609
-109.3716
-108.017
-105.6792
-102.9857
-102.7765
-104.5659
-99.82843
-85.31521
-71.64742
-101.2148
-153.7713
-150.3655
-105.233
-66.52418
-49.96804
-43.57807
-36.38618
-24.48057
-16.89832
-19.5406
-31.39181
-45.86652
-55.65188
-59.30811
-57.73305
-53.24435
-47.83724
-42.403
-38.92886
-37.18415
-35.75659
-35.1162
-37.02568
-36.27989
-36.11016
-36.83466
-37.14927
-36.56089
-34.39784
-31.00573
-27.29928
-24.63897
-23.40601
-23.27896
-23.56002
-23.77737
-22.90892
-20.31325
-17.45083
-20.78859
-22.01121
-12.42281
-9.682301
-14.88564
-19.58822
-19.72061
-16.94482
-15.64445
-16.30351
-19.37161
-23.31424
-27.38318
-26.63448
-18.51865
-3.855066
5.867465
12.75461
8.811103
-2.504264
-12.79695
-26.1902
-57.55362
-113.3637
-156.6521
-133.5942
-62.26335
-46.42862
-72.04711
-90.32777
-96.65291
-95.13718
-94.97939
-98.42946
-102.437
-105.7887
-107.7924
-108.2213
-108.2686
-107.3184
-105.6754
-102.8993
-99.56749
-96.18494
-91.96001
-87.23995
-81.80274
-76.03432
-69.88573
-63.26762
-56.70043
-50.12322
-43.11712
-35.87786
-28.81815
-21.93458
-15.05703
-8.185039
-1.621377
4.91488
11.1243
17.03624
22.54642
27.67816
32.34992
36.59146
40.33803
43.58581
46.20116
48.36246
49.93881
50.95905
51.49276
51.37512
50.55132
49.22513
47.35931
44.92007
41.96108
38.49129
34.5744
30.09069
25.30777
20.14543
14.43981
8.546452
2.414781
-4.250766
-10.95856
-17.58333
-24.44567
-31.44016
-38.33399
-45.35203
-52.23655
-58.81656
-65.05878
-71.07351
-77.01439
-82.41648
-87.46748
-91.96615
-96.0165
-99.70187
-102.6172
-104.7835
-106.2443
-107.1521
-107.1778
-106.0375
-104.0164
-101.6684
-101.2457
-102.2364
-98.03179
-86.07646
-75.19777
-103.322
-153.5236
-149.9606
-105.2627
-66.79315
-50.22228
-43.34389
-35.74712
-23.93946
-16.10956
-19.30211
-32.18837
-46.61165
-56.24585
-59.81849
-58.09958
-53.42281
-47.97535
-42.47216
-38.95971
-37.19863
-35.89158
-35.36127
-37.2863
-36.30968
-36.05019
-36.86562
-37.20985
-36.65618
-34.51219
-31.18565
-27.50824
-24.88511
-23.60036
-23.45516
-23.6578
-23.89155
-23.15498
-20.90625
-18.46548
-20.6868
-21.06533
-11.99874
-9.535934
-14.73755
-19.9062
-20.09021
-17.09261
-15.71593
-16.50884
-19.71298
-23.81228
-28.45061
-27.8581
-19.65345
-4.718682
6.034739
13.90074
9.519223
-1.812358
-12.74833
-26.59009
-57.66807
-112.9947
-156.0247
-133.722
-67.91494
-51.70445
-72.33215
-87.5159
-93.69444
-93.31467
-93.73167
-96.928
-100.538
-103.6564
-105.6766
-106.0836
-106.3051
-105.1144
-103.4791
-100.6838
-97.26297
-93.99962
-89.75625
-85.15827
-79.74303
-73.99417
-67.98763
-61.49975
-54.99918
-48.49105
-41.63657
-34.53985
-27.56532
-20.73352
-14.04904
-7.251563
-0.837091
5.622659
11.69246
17.50721
23.00538
28.02086
32.58986
36.74551
40.42704
43.69556
46.21458
48.33369
49.89127
50.87716
51.39481
51.28548
50.48301
49.14805
47.30858
44.91199
42.00829
38.61842
34.76911
30.30654
25.6219
20.58661
14.96017
9.104631
3.074529
-3.432504
-10.0652
-16.59507
-23.33619
-30.16433
-37.01886
-43.95923
-50.68201
-57.19632
-63.30412
-69.22872
-75.14306
-80.42586
-85.45908
-89.86551
-93.90979
-97.66394
-100.529
-102.7657
-104.3902
-105.2249
-105.1835
-104.1068
-102.3127
-100.2033
-99.5916
-99.87665
-96.1145
-86.83692
-79.12222
-104.1301
-149.669
-145.6863
-103.3759
-66.81007
-50.80631
-43.14823
-34.95636
-23.05547
-15.30578
-19.23144
-33.19168
-47.61271
-57.2118
-60.65189
-58.67131
-53.69371
-48.22278
-42.53351
-39.00167
-37.25072
-36.12075
-35.72511
-37.5074
-36.29649
-35.98623
-36.92685
-37.3158
-36.80924
-34.69209
-31.49234
-27.8623
-25.18703
-23.88535
-23.77652
-23.93177
-24.18729
-23.60799
-21.56297
-19.54214
-20.76512
-20.23717
-11.8744
-10.00399
-14.67255
-20.68616
-20.78823
-17.33374
-15.81947
-16.72302
-20.23446
-24.75328
-30.30415
-29.80061
-21.49845
-5.813483
5.971963
14.68486
10.17545
-1.137689
-13.25628
-27.01886
-56.53294
-108.1948
-148.7943
-128.6754
-72.89338
-57.41777
-72.39085
-84.63429
-90.59908
-91.14438
-91.92743
-94.83502
-97.94931
-100.6582
-102.7587
-102.5836
-102.6812
-101.7833
-100.2823
-97.75238
-94.07185
-91.04223
-86.94712
-82.54935
-77.10093
-71.43955
-65.83062
-59.52128
-52.75033
-46.44854
-40.02789
-33.10626
-25.93454
-19.25053
-13.00746
-6.176762
0.001006449
6.430243
12.23881
18.15816
23.64149
28.36704
32.80125
36.84323
40.52058
43.83073
46.17028
48.29976
49.81663
50.76021
51.26732
51.18189
50.36002
49.02392
47.18437
44.8415
41.99928
38.70186
35.02182
30.545
25.93005
21.05458
15.71949
9.901485
3.643621
-2.566525
-8.87558
-15.5308
-22.19831
-28.58856
-35.30435
-42.52056
-48.79865
-55.31896
-61.25756
-67.0037
-72.91693
-77.94925
-83.02132
-87.181
-91.09014
-94.88367
-97.5895
-99.69368
-101.0027
-102.1498
-102.3363
-101.4477
-99.9611
-98.11517
-97.52144
-97.29463
-93.98643
-87.06695
-82.26187
-102.3196
-139.2484
-134.6956
-98.47017
-65.71094
-51.37366
-42.97618
-34.17193
-22.44476
-15.06203
-19.88962
-34.35841
-48.99214
-58.76615
-62.01173
-59.55594
-54.07372
-48.49979
-42.43091
-39.03372
-37.36132
-36.55401
-36.16184
-37.45944
-36.16963
-35.95356
-37.03626
-37.47421
-37.00816
-34.9903
-31.92174
-28.36865
-25.38712
-24.20608
1.535721
0.88789
-39.52182
-5.564453
10.33096
-6.666003
-1.139389
-0.1877437
8.384341
-1.042778
-4.150391
0.05208727
0.2990634
-0.1562265
0.04414322
1.997341
-0.1969498
-2.59827
0.1148245
-0.6047097
-24.99004
-0.02831475
1.272919
-1.234263
-0.5501156
0.2671501
-0.6807478
-0.965728
-6.139922
-0.08733238
0.7783698
-22.09369
-0.1876197
-0.06262477
0.04763226
-4.175945
-0.00413214
-0.03761839
0.002479875
-5.227605
-19.48449
1.793783
0.7869424
3.339709
29.08323
-0.3428554
-0.00609431
-0.3703005
-0.6594111
-0.7165049
-0.01318684
-0.03565317
-33.19856
0.09581416
0.01238936
18.54081
-0.5131328
-0.002053833
-11.89493
-15.29434
-0.9231238
-0.000300435
19.62002
0.6456688
1.366319
0.4266228
-33.89587
-0.01078601
-0.1020161
-0.034552
-0.1829279
0.001477879
-19.11802
-42.59215
21.97005
-0.03813865
3.711071
-2.162328
-0.05529132
0.1348048
-14.93251
0.02117085
2.562595
0.02650104
-7.972963
1.093847
-0.1000404
-0.635626
-10.49618
0.01164232
-12.6299
23.80243
-0.01101009
0.01659323
-0.9436567
0.3554365
-13.92758
5.650414
-51.4727
-1.377402
0.02054541
-0.5873577
0.0541067
-79.21321
-0.005976073
-19.38853
-0.00026061
-0.3590275
-5.725494
-8.6099
-0.3931251
1.206688
2.384543
7.091775
-24.67387
-0.00118856
0.01504409
-0.05417017
22.83375
-0.2326705
2.395942
0.07080828
-0.2943314
-0.01455975
-0.01746493
6.289051
1.090132
-30.23374
-5.395509
0.219369
0.03929663
-0.02027978
0.07320892
1.124992
-0.2852616
-25.87457
0.02099105
4.717004
0.2440275
0.01500692
-36.02246
0.5114626
-59.49351
0.994049
-0.0002709744
-0.03162092
-1.226207
-37.22277
-0.03782558
-0.08477182
-0.254341
-21.01309
-31.62042
-0.05016161
-1.103105
-59.28194
-0.08548562
0.0372514
0.09051408
-31.96431
0.1079203
-29.31747
-5.020877
-1.637478
1.953518
-3.655237
-20.68598
1.581386
-34.98237
-0.009381004
-0.9199972
-36.42529
2.300271
-38.1455
-5.879174
-3.329677
1.461305
-0.7915187
-47.41213
-0.0005509577
14.79277
-0.1151085
-0.05572102
-0.1691357
3.868479
-42.69957
-0.2022426
-0.04906566
-1.367246
0.4648047
0.01513019
0.10951
-5.753635
-1.364907
0.002590069
-0.1394659
-0.04332042
0.4717208
-2.284808
-31.37705
-0.852123
-0.06793672
1.230957
0.2787004
-5.31276
-2.033648
-6.701018
-0.06471788
-8.369437
0.00268215
0.5267614
-0.004514148
-39.24333
1.100464
0.0372878
-9.536379
-10.64225
-0.4691119
9.239206
0.1361071
1.847991
-2.002209
2.217344
-0.05150816
-2.455733
-3.822751
-0.1677611
7.60033
0.02129499
16.97984
-8.604192
-68.06915
1.946436
-0.005312758
-78.74312
-0.1374086
22.73436
-0.07005291
2.060075
0.3507033
0.9747292
0.4825971
-0.006357934
-13.9313
0.03539274
-3.902723
-0.1606652
-47.00412
0.01097667
0.6627413
-31.06354
0.9312081
-0.8038229
-0.4639024
2.420219
-25.22539
1.16146
0.06715006
-32.27481
-3.794798
-6.989547
0.0193366
-0.6651728
-0.01267955
-0.1920524
1.503825
0.1914231
-0.03011808
-13.15793
-24.53742
0.03597658
0.09457033
12.05394
0.03895582
-0.02314189
2.623046
0.7585308
-28.01875
-91.51637
-0.1503247
-0.1707333
0.8798126
-0.04568611
1.126458
1.253339
0.1939142
37.72912
0.1365019
1.144563
-0.02123137
0.19223
-0.009422714
-0.5374323
-0.2127746
-42.76211
0.001659432
-2.966046
-0.002864059
-3.125142
0.2107267
-39.80039
-0.05855299
0.001475555
-3.024166
-0.02722037
-0.005268074
-0.02339776
-0.1791043
-0.4072487
-0.1257048
-6.15232
-1.046315
-0.05278709
-1.032358
-0.1381514
-11.53387
33.85285
-49.41916
-24.96462
-74.85779
-0.3168195
-0.006689114
-1.079006
-0.004612733
0.003222108
0.0002674892
-0.08158793
0.003550551
-0.2234659
1.498706
18.37675
-0.00349706
-7.105694
-51.13662
-0.115278
0.9859943
-0.07422739
-0.006414161
-2.657689
0.008731338
-50.67982
2.149576
0.9594736
-1.314044
-12.45538
4.291001
-6.230936
0.01962423
-10.28216
0.005800491
0.02032906
-0.009207404
12.34831
0.07688326
0.09125482
-49.17149
-48.09462
-0.004859782
0.3270663
0.3129036
-0.2684606
-0.2254811
-0.001342929
1.5999
-0.4168909
1.208115
0.7070631
0.1572846
0.4629019
0.4074821
-2.630727
11.58667
-35.57194
-0.168574
1.244112
1.056021
0.05057389
1.86237
2.797484
0.01152507
0.8062128
0.7436685
-0.005097171
-15.81847
-0.004025174
-0.4866626
-0.5444019
39.6875
1.566849
-0.01750485
-0.05489912
0.002480624
2.271529
-47.34262
-0.002068124
-0.5290939
1.017689
4.235586
1.053098
-0.1959135
1.339595
-0.7349149
-27.44108
-0.01592836
-0.01424807
-0.1403841
-40.56281
-45.37815
0.9296087
-10.07655
0.116885
0.06792543
-0.01675788
-0.139478
1.172336
-0.3818378
2.234126
-0.1726277
0.05892671
12.08407
-1.165457
-0.03911754
3.158464
-0.05717121
-0.002104933
-24.97357
0.04208882
0.06772143
-37.1584
-0.0909978
-46.28778
-0.01556956
0.003704038
0.1609965
-3.596693
2.575805
-0.02661208
-5.246777
-0.03983569
-0.5634232
-0.03096488
-0.01313352
3.675318
-0.1556137
-4.014673
0.5336143
-0.002362408
-0.0008955914
-0.009740205
-0.1397939
-0.3033089
-96.15745
-1.178156
-11.50992
-0.1113826
-0.01253743
0.002460451
4.054194
0.3136135
-16.85683
1.090327
-42.46364
-1.165335
-0.1019127
2.734167
-0.04514145
27.50973
-0.1432603
2.653795
-1.270196
-9.871949
-0.3137155
0.4539712
7.097543
-0.0230344
-13.23072
-0.5449948
-37.91622
-0.01220604
-0.1461161
-13.97865
-2.115678
0.9946234
-0.2241436
-1.559429
-0.1255367
-0.003509782
15.75741
0.00326065
0.6233583
-0.05452027
-22.70204
-2.871676
-0.004626896
-18.28547
0.4082285
0.1489267
3.531321
-0.1323933
3.173154
0.678395
-0.2758384
0.009006638
-4.401821
1.955936
0.3693532
-0.2815248
-7.065896
-0.458045
-0.03088946
-22.59698
1.76432
10.99671
-1.562271
1.977446
1.323899
2.312513
-0.04564771
-0.009095931
0.1641696
0.5379297
-0.1019662
-4.709133
-0.01236059
-0.4725987
0.3493411
-0.05249635
2.24907
0.03701362
0.02789128
-24.29926
-3.318635
-23.07824
0.02049374
3.559628
4.114008
2.984549
0.02033863
0.6035483
0.09766386
4.294911
0.6367389
0.5798165
3.072265
-52.15385
1.909561
3.510026
-0.01546722
-0.0005576525
7.891221
1.141672
8.489431
-0.05659648
-2.972829
-2.393816
-0.01220944
-0.4491846
-13.9441
15.31671
-9.250825
0.0182151
-1.588265
0.05774447
-0.04293838
0.02192811
0.174995
0.0760041
4.853193
28.13715
-0.06581349
0.4765709
3.148599
2.406389
-55.79173
0.05509474
2.178703
-0.6511301
1.897797
-0.1122359
-0.05139997
4.480205
-0.0514586
5.236842
-0.003366332
-14.70862
-20.48874
-13.42704
0.04229705
-72.77709
-3.485089
-0.0136736
-18.08841
-0.2223363
0.001442144
0.2860601
0.023338
0.4589352
-57.39752
0.03882833
0.4807675
0.4532405
2.781355
0.002059593
-0.03008719
3.807338
-19.79828
-10.29333
-0.2898939
-22.57802
-0.5986513
4.529125
-0.04264956
12.64094
0.09401949
8.0514
-5.986123
-0.2703797
-1.694732
1.448794
3.103552
4.012387
-0.02263571
0.1769096
0.0140479
-0.6819367
17.42245
2.206119
-0.1342554
-0.06813547
-1.902816
-0.9837549
-6.623594
-13.28327
-13.53573
-40.91026
-7.52453
-7.617927
-0.2660591
-0.3345857
0.2347605
0.4286556
-0.003652271
0.04728685
-43.60985
-0.05279113
0.9479347
-0.2759544
-65.34879
-0.1616375
24.94417
3.437258
-36.4782
0.002734028
-14.52532
6.66619
-2.436695
-20.9534
0.06148738
0.2949255
-18.72869
-1.016451
-0.6169409
0.5074655
-3.44429
-0.06471894
-0.01877572
-3.47186
1.089142
1.25608
-4.724273
0.1827687
0.06382351
-77.11807
-0.1054871
0.147668
2.316283
-7.791858
-0.002351399
0.2035852
7.529163
14.03156
12.51854
1.613193
-0.9889269
0.2168785
-0.008170686
-0.09629776
-2.282392
2.188618
1.244654
-24.71064
0.0003095827
-39.20271
-0.04308594
-0.09557014
-0.4652642
-41.65771
1.651031
-0.2476636
-1.101012
-0.384799
-7.379031
-3.917059
-5.733223
3.864268
15.07377
0.8956065
0.3998772
-22.63405
-2.575152
1.003992
0.5862274
2.405073
0.07259978
-4.577209
-0.04147235
0.3314776
-41.76185
-0.07457546
-0.0007399131
-6.231607
0.02809515
-0.1037147
0.3647917
-0.04889202
-0.5796027
-0.2891147
-23.52846
0.2805911
0.2825816
-0.2239691
-0.08426166
0.6109205
-0.2344261
-0.07185485
1.582691
-0.2833013
2.990804
2.025402
-0.3388299
-0.007558916
0.01914383
0.06499219
-0.1573624
3.450341
-0.04168668
-46.90245
1.847954
3.789855
7.000337
0.0002692483
-18.4671
-6.820385
-1.291524
0.008708601
-68.26586
-15.033
-11.16234
-18.03502
-4.946995
-3.869609
-2.047576
1.172614
13.24896
1.584376
0.2446279
-9.319386
-1.596218
0.3078581
0.3604894
-7.651727
22.08595
-17.22914
-0.0168673
1.505601
-0.2939015
-0.08206096
0.01189199
-8.440219
0.3882092
1.572426
-0.8876399
0.1167724
-2.196644
5.521904
0.170734
0.02258803
-0.01575462
1.87832
-0.1394428
-0.53557
-23.44149
30.35442
-0.008221213
0.03696373
0.1953613
-0.2346531
0.01148184
-0.04166557
-45.22198
-0.1164231
-43.9026
-10.21884
0.183912
-0.006075515
0.05842614
-7.643418
0.6430493
0.007365124
0.07813475
0.116361
-9.810605
-55.66085
1.229921
-0.8205031
-1.365187
-0.06879619
-0.6273561
1.385754
-11.95169
-2.945079
14.15665
0.3471109
-0.2494411
-0.01410113
-0.1959842
1.792221
-1.298744
-0.01196951
-0.7799592
-11.7444
-0.4053199
8.215536
-33.61802
-0.1050217
0.0003652702
-17.53837
0.7825552
-0.1886762
1.079372
-3.112026
-1.286893
-0.06876104
2.153901
0.9325349
1.383696
3.062511
0.2397193
-0.0449762
31.64361
-0.1672173
-1.756622
0.00212016
-65.50672
0.2948886
0.2917569
1.117914
0.06670111
33.42367
0.1396514
-0.1730915
-18.89986
-0.3666989
-0.02836501
0.4437435
0.1990194
0.2185238
-21.5053
-14.53209
0.1326053
-2.947187
-56.00038
0.01258725
0.001749846
0.07909402
-11.65273
4.556781
30.9564
-0.003680001
0.1899363
-0.3618787
-0.006179728
-0.005609436
8.956847
-1.236615
0.3374646
0.005036571
-0.1927579
-0.1715309
0.04535863
-0.03685706
-7.894524
-11.61085
-27.33447
2.389609
-4.276729
0.01708538
-0.9706215
-0.03418145
1.900954
-12.10923
-0.01410941
-0.0627076
10.32092
-15.63715
4.745684
-1.054816
-0.2836498
-12.89571
25.39702
-6.855456
-0.01166672
-5.662518
-48.44274
-0.01595269
0.02259114
2.221379
0.8038263
0.2133269
-24.74328
-4.361052
1.696431
-0.06866979
-0.007351492
0.01761026
-5.016975
-20.59457
-51.81127
2.214611
-40.7331
4.242942
0.4655631
-18.07313
-0.2909108
-1.076459
-30.62388
-0.0005293391
0.07588109
-0.3923518
3.506004
0.01571619
-4.975526
-39.41872
3.522557
15.32381
0.6639046
0.002081145
-16.79328
20.00204
-10.51013
0.03912625
0.2959495
1.968001
-0.0001082933
0.003407473
-2.585721
-1.351487
-0.348513
-1.078995
-58.40465
-74.1047
-0.9086285
-0.2512209
2.070801
0.02179851
-0.03838422
2.321562
0.1827825
0.05411747
0.4244771
0.3520785
0.05538418
-0.6744136
0.2386041
-12.69788
0.8551141
1.642926
-37.82665
1.264476
-0.168476
-2.631964
-28.33736
-5.27751
-2.377109
2.440774
-13.23723
-35.96976
32.97376
46.79028
1.74982
-1.390949
0.910469
5.342057
1.242165
0.008873216
11.26356
-32.48118
1.47341
-0.1782486
-0.5647305
1.815999
-0.3058398
3.697777
-0.820419
-23.26827
-52.25669
-1.11308
1.055101
-0.5292215
1.752913
1.297099
-24.09219
0.07260927
0.3160949
0.5779476
-0.8739915
-0.05649678
-0.1904437
-33.57152
-21.69964
1.276763
1.327435
-0.03878867
1.628049
-0.002919647
1.401903
0.01211335
-53.17542
0.5691091
-47.79473
-47.66818
0.06671071
-0.4173512
-44.57389
-56.44642
-0.3619769
1.044096
0.6956419
0.1850158
-1.025472
-10.33114
0.02332388
-0.2462831
-0.1244994
-0.2872152
0.1106686
-1.370246
0.2554318
-0.05331406
-0.3134509
0.04704166
0.01295299
-0.725152
-1.341763
0.09871497
0.1648445
4.278501
-0.5929698
0.03781381
3.146533
0.01502074
0.6896275
-1.281312
0.005526196
-0.02046676
-22.10547
-20.80775
-0.02574415
-0.205585
0.01350226
-0.05577131
-28.45885
-11.14398
-42.74031
-30.42995
23.42588
-0.05975965
2.883836
-0.2771179
-21.13486
0.02890788
3.083145
-69.86884
-0.03729434
0.7534707
-21.09605
3.615541
4.923373
-0.4505055
-0.2667475
-70.01579
-0.04912111
-26.8256
0.8077157
8.064049
36.44806
-11.94887
-6.758334
0.3415258
1.434586
0.3033858
7.725365
1.674663
7.37688
-1.404323
-0.07877297
-8.164358
-0.03039046
-2.334667
0.2843592
-20.48613
0.4234394
-53.16566
7.714033
1.574154
12.65299
-0.1445234
30.49203
-0.1116774
-0.4575636
-0.03185741
-2.161361
14.95948
-1.738781
-33.87055
-0.07842108
0.07568206
-0.1931694
-0.2356374
0.8850898
-10.1265
-2.744648
0.02561553
-30.59231
-0.4092029
19.84428
-16.08599
1.919424
-21.94294
-15.66439
-4.05986
-29.12991
39.02826
0.6592232
-0.1646983
-36.8931
-0.09457865
0.01991113
-2.187053
-0.2513396
-19.9886
-74.68269
-33.22725
0.7638085
3.876174
1.096229
0.1698931
-0.04737767
0.7661002
4.822625
2.637917
-0.03170233
0.05475923
0.1278862
-0.02122049
-6.422681
0.006555287
-0.009081908
0.2216903
-46.68115
0.005662505
1.337742
0.07688734
-0.443086
-26.90557
1.494484
0.01847172
0.9666852
0.0440279
-0.03787844
-0.1427975
0.1805371
1.076257
-45.01471
27.66738
-2.045442
0.05018794
2.745057
-1.217707
0.7464323
0.1882409
0.02280054
0.6433281
-0.03288239
9.670039
0.1828261
-15.57599
-12.4041
-5.237975
1.124109
2.810023
-0.2716933
1.047122
-24.72928
-31.92143
-18.82018
-5.650525
0.03273996
-0.01536432
0.0439587
-0.0005294675
0.6911734
-9.500249
0.5914753
-0.2023191
-0.02749517
-8.359576
0.0713902
-0.0298237
2.427047
-54.08359
-0.02235128
0.005172362
-0.08024125
-67.62571
-0.09230627
-32.72801
-0.1237064
-0.07153276
-0.1384955
-0.08116179
2.043292
-28.62849
-37.39454
0.05050414
0.09804628
17.41007
-0.02385758
2.246709
1.996494
2.028229
-0.8824475
-0.03481329
0.2931434
-67.47779
-0.1329063
-0.06051959
0.8517928
2.177495
-0.4555991
0.4394599
-0.1169135
0.3366784
-10.91279
0.8304272
-7.123011
9.696044
1.279293
-12.20966
-0.2029415
-0.04469778
-1.169215
-24.25698
-0.3625034
-1.201052
0.01195848
-18.07442
-20.64951
-38.56323
-0.07490413
-17.49689
0.5495899
-6.577277
-2.846168
-0.353878
16.20402
-6.484161
-27.15192
-67.75604
0.02330028
0.004449575
-1.611426
0.01585788
0.004205373
0.008887366
-0.6070091
-0.01006835
0.03883541
-15.37459
0.3762733
-0.1310158
-3.199704
2.944333
-0.9157087
0.4916252
-0.009817558
-0.1662569
0.6321487
-12.03861
-0.7184166
1.683165
-0.2559472
-0.01745546
-23.87698
-0.09790386
-4.861874
-0.04554517
-0.04503937
0.003998064
-14.58548
-4.766026
-0.8142359
-6.298653
-0.009893661
11.04949
-52.87753
-16.93138
0.5363915
-0.1925729
17.69404
-2.137848
0.2215372
0.9122888
-2.294385
-0.01626423
-43.55633
-29.71754
-18.87572
12.35833
8.715297
-0.02649272
-47.80597
-43.90725
-66.16923
1.904411
-6.201187
-1.480811
-1.761718
0.02886807
-0.01174903
0.09372685
-0.01768079
0.7324029
1.121685
0.6427009
0.104816
-25.31369
0.1197831
0.1330818
-0.2345365
3.261348
19.64895
0.01434825
8.759097
-33.09056
-13.76709
9.139499
0.111684
-7.354324
-12.83896
-60.89754
-0.05708669
-16.01962
0.9621676
-53.66884
-22.69486
0.01380101
-0.9692797
-2.450869
0.1721964
14.25845
0.1301914
0.01898097
1.97534
-0.04435158
-0.01794565
0.02308416
-0.1262663
0.02094167
-1.664787
-39.07006
0.007336926
0.1091261
-0.1295092
0.3367332
0.5127704
-13.22149
-0.0355399
-43.48967
-0.806081
0.9890899
25.12944
-0.01465474
0.866206
-25.92623
-1.558633
-26.24277
-0.5553249
0.01387607
-0.1663182
-0.2209107
-2.259448
-0.005033176
2.002396
2.880401
0.0208255
-0.1074715
-0.03951213
18.89094
2.140144
-18.30489
6.316869
-2.654818
-0.09198066
-72.69659
-0.1197993
0.7147662
2.607953
1.700726
-0.03045429
-51.52492
-42.86641
-42.91824
0.002663471
-0.02806333
-37.93976
0.8153892
-27.75919
1.763713
0.9919865
-15.30035
-34.28266
-0.2729874
-62.30067
0.3005803
-3.326505
0.06940447
-1.920616
9.582618
-0.1258326
-0.6087586
-1.497274
-0.02131577
-0.599996
16.17844
-0.9129817
7.413408
-0.1457062
-0.298295
0.0258767
-11.55374
-25.03472
-0.5815968
-0.05522676
-4.69708
0.6546183
-0.008689999
-53.79807
-0.2997634
-0.004598279
-5.895283
-4.164821
0.4846193
0.2715762
2.729532
-0.0007504481
-5.735605
-65.69225
27.09644
-6.755409
0.01996106
0.02371837
-30.37628
-0.04272839
0.6180981
-0.2939151
0.6678431
0.02761093
0.5370931
-0.2504618
-48.71847
-0.621738
20.95554
32.96517
1.402985
4.570653
4.500971
2.223101
0.8871648
-0.01614381
32.80801
-45.96365
-0.03228799
1.525161
0.4011343
-3.183786
-0.1009209
0.01086482
1.150353
0.5684673
1.681902
-53.65966
-0.1739524
1.056362
-0.0764169
5.088436
-12.44419
-2.569048
0.01897368
-71.4757
30.22882
-37.25736
0.01384705
-8.990044
-4.14381
0.06101793
1.468462
32.18546
-0.8426194
-0.002596103
-2.913369
-0.5121318
0.01238816
-0.8952756
-1.09913
-0.00423671
0.1522129
0.3250696
19.53683
-0.0260748
-1.267315
-0.3095951
0.005069667
-0.2272258
19.85945
2.743247
7.095523
-82.68817
-25.2031
0.08453955
0.02773894
5.32157
-0.01307781
-37.95707
-2.502445
0.007445735
0.8663805
-0.2045505
-4.083104
-12.26406
3.916102
-0.5346272
-7.68146
0.0061119
0.2488801
-2.120621
-55.44403
-17.72474
-0.4725727
2.915588
0.007103073
-0.03701812
3.134512
-0.0009340018
0.9696832
-0.1280485
-37.40257
-15.43457
-2.12802
-1.581778
-81.70626
1.110122
1.338231
-9.817978
3.291351
1.767245
0.8460511
36.30964
-0.02108721
-0.1780866
0.2264255
0.5367607
-7.45927
-24.37281
-37.54074
13.48688
1.080279
0.4355738
-0.03475458
-0.2462742
0.02678565
0.6118909
0.06324172
-0.3526226
0.231207
0.2773164
0.01008205
0.03784433
11.94595
8.093814
-0.006921621
-0.04607044
-1.541584
-1.203052
-0.05472497
0.9239464
6.220283
-42.1744
-48.67428
0.5666182
-0.53296
-69.56324
42.04431
-81.98186
1.126003
1.187103
4.066816
-0.3279738
8.72739
-22.73806
0.01189074
3.506768
-0.1867816
2.618672
-0.2358829
0.01165886
-0.3336565
-65.39176
0.9953978
-0.0382709
-0.7843362
-0.6427445
-105.1505
-25.85214
-75.47172
0.967657
14.79838
-0.1802926