/*--------------------------------*- C++ -*----------------------------------*\
| =========                 |                                                 |
| \\      /  F ield         | OpenFOAM: The Open Source CFD Toolbox           |
|  \\    /   O peration     | Version:  2406                                  |
|   \\  /    A nd           | Website:  www.openfoam.com                      |
|    \\/     M anipulation  |                                                 |
\*---------------------------------------------------------------------------*/
FoamFile
{
    version     2.0;
    format      ascii;
    arch        "LSB;label=32;scalar=64";
    class       volVectorField;
    location    "2.88";
    object      U;
}
// * * * * * * * * * * * * * * * * * * * * * * * * * * * * * * * * * * * * * //

dimensions      [0 1 -1 0 0 0 0];

internalField   nonuniform List<vector> 
15536
(
(0.003623773 1.362879 -2.773439e-23)
(0.02243863 1.044228 -1.79756e-19)
(0.09012492 -0.3807757 -2.041079e-19)
(0.2419761 -1.559017 -1.390421e-19)
(0.5778694 -2.67035 -3.175889e-21)
(0.8127699 -3.471855 1.63945e-21)
(0.3860118 -1.886395 -1.569416e-21)
(-0.3173604 0.7074896 1.572865e-21)
(-0.8866454 2.611648 4.945606e-19)
(-0.747784 2.002024 2.378508e-19)
(0.4790825 -0.7649784 0)
(1.904145 -3.404975 0)
(2.293685 -4.012086 -9.937464e-21)
(1.770121 -2.92273 2.559141e-18)
(0.9773311 -1.545256 1.441224e-18)
(-0.1564758 0.08680574 -4.050832e-18)
(-1.41087 1.701298 3.144827e-18)
(-2.56054 3.001434 3.739112e-20)
(-3.245854 3.64741 -7.541943e-20)
(-2.777169 3.060714 3.809307e-20)
(-0.9189522 1.12251 0)
(2.039236 -1.580338 8.826023e-19)
(3.53369 -2.728201 0)
(1.992066 -1.551969 7.379654e-20)
(-0.683221 0.3171349 -4.713104e-21)
(-2.425574 1.422952 -2.477714e-20)
(-3.897949 2.149702 2.407542e-20)
(-6.031126 3.018204 -5.902442e-18)
(-8.97315 4.117098 -1.055307e-17)
(-11.56242 5.014218 0)
(-9.560472 4.165286 -5.568082e-20)
(-0.1789154 0.5286211 -5.646341e-18)
(6.193128 -1.959872 2.968528e-18)
(-0.3382758 -0.335804 0)
(-4.095535 0.5796192 -6.103595e-18)
(-5.351261 0.9478481 -2.838946e-20)
(-4.248178 0.5611596 3.676162e-18)
(-0.3363176 0.06447536 -1.686273e-18)
(6.188812 0.1277049 1.595257e-21)
(10.41925 0.5456265 -3.963042e-19)
(12.64112 1.096847 1.615982e-18)
(13.78447 1.724969 -2.587126e-20)
(14.44419 2.404798 2.559968e-20)
(14.81805 3.087139 0)
(15.00319 3.757988 -6.453717e-18)
(15.03144 4.403187 -6.404506e-18)
(14.90112 5.011171 0)
(14.67266 5.586287 -1.219746e-17)
(14.37627 6.13349 1.188696e-17)
(14.03562 6.654825 1.147284e-17)
(13.64099 7.135722 4.179965e-20)
(13.18656 7.571854 -1.041703e-17)
(12.68051 7.958257 0)
(12.13197 8.296846 0)
(11.55029 8.58417 8.445085e-18)
(10.93337 8.811942 7.759924e-18)
(10.29979 8.991337 5.17921e-20)
(9.656079 9.120707 6.15868e-18)
(8.989104 9.181221 1.086107e-17)
(8.311804 9.181364 4.63931e-18)
(7.632324 9.12425 3.788886e-18)
(6.964299 9.019396 -2.676261e-20)
(6.304557 8.85696 0)
(5.650683 8.630044 1.337728e-18)
(5.016416 8.355429 0)
(4.397628 8.019694 3.280572e-19)
(3.802938 7.629285 -2.880245e-20)
(3.242933 7.194744 -2.892807e-21)
(2.716962 6.713618 8.831762e-21)
(2.22928 6.190042 -3.338021e-18)
(1.785748 5.632635 -1.674777e-20)
(1.387015 5.038933 2.327886e-18)
(1.034714 4.411073 2.600006e-18)
(0.7342203 3.764804 0)
(0.4850773 3.104707 0)
(0.2901498 2.427403 3.241547e-18)
(0.1468315 1.739926 -3.5353e-22)
(0.05863774 1.052575 8.911075e-19)
(0.02823211 0.3300585 1.656581e-21)
(0.04906027 -0.4663687 -6.987542e-21)
(0.1175849 -1.244484 -1.73223e-18)
(0.2436118 -1.969005 0)
(0.4244383 -2.663212 3.143678e-18)
(0.6574942 -3.336481 0)
(0.9417004 -3.986113 -2.676657e-18)
(1.274733 -4.608463 2.378041e-18)
(1.656081 -5.202015 1.760244e-20)
(2.082358 -5.764665 3.577094e-18)
(2.550327 -6.28634 9.896882e-21)
(3.055972 -6.764891 -2.196157e-18)
(3.596584 -7.201965 -1.433191e-18)
(4.169427 -7.59136 7.836726e-21)
(4.772636 -7.935299 1.856589e-19)
(5.398142 -8.228576 -1.018099e-18)
(6.038655 -8.467829 1.770829e-20)
(6.684281 -8.639987 6.579792e-21)
(7.340236 -8.759275 -3.505194e-18)
(8.002116 -8.825752 0)
(8.661483 -8.831794 1.018894e-17)
(9.320808 -8.788153 5.831712e-18)
(9.96061 -8.681053 1.033478e-19)
(10.57706 -8.512839 -7.473434e-18)
(11.16612 -8.286699 0)
(11.72669 -8.006932 0)
(12.25793 -7.681326 0)
(12.75087 -7.308158 0)
(13.1955 -6.888773 1.065123e-17)
(13.58847 -6.427123 1.124938e-17)
(13.92951 -5.927733 2.611121e-20)
(14.21356 -5.398458 -1.209073e-17)
(14.41878 -4.83579 -6.171734e-18)
(14.51781 -4.240091 -6.372352e-18)
(14.46463 -3.609645 4.987715e-20)
(14.21633 -2.949103 6.494036e-18)
(13.70258 -2.272582 3.335806e-18)
(12.72332 -1.618798 -2.580177e-20)
(10.7261 -0.9924686 -6.221982e-21)
(6.582891 -0.3971924 4.204893e-19)
(1.294502 0.0450312 -8.770046e-19)
(-0.9386215 -0.1822887 -2.344297e-20)
(-4.897826 -0.9624358 1.513263e-20)
(-7.61109 -1.369136 4.274367e-18)
(-6.129737 -1.128652 3.055098e-20)
(-4.145729 -0.8203897 0)
(-1.73972 -0.2628045 -4.683352e-18)
(2.152193 0.9381458 -3.479687e-18)
(6.935117 2.647512 6.38897e-21)
(2.378493 0.5926558 8.431236e-18)
(-6.683607 -3.680244 -1.571298e-17)
(-9.620255 -5.160832 0)
(-7.985099 -4.484924 0)
(-5.50911 -3.315708 -9.189553e-18)
(-3.321841 -2.15376 0)
(-1.748 -1.21492 3.977144e-20)
(-0.3895212 -0.2480817 -4.688658e-18)
(1.088829 0.957193 -3.662503e-18)
(2.091393 1.906034 2.396031e-20)
(2.059479 2.017051 -6.12309e-18)
(1.498645 1.613638 -5.179996e-20)
(0.8541926 0.9823696 7.427248e-18)
(0.6082567 0.7756332 4.394461e-18)
(0.6878449 0.9580757 5.093293e-18)
(0.880219 1.368187 5.494686e-18)
(1.139548 1.887242 0)
(1.231087 2.151916 -2.528213e-20)
(0.9177986 1.627539 -6.295347e-18)
(-0.02200566 -0.2407546 0)
(-0.7078486 -1.929205 6.079906e-18)
(-0.6877805 -2.067836 -4.473685e-20)
(-0.5214631 -1.672053 2.159726e-20)
(-0.3381449 -1.244073 2.499249e-18)
(-0.2170523 -0.942216 -3.961156e-23)
(-0.1366013 -0.7024232 0)
(-0.07108616 -0.4035537 9.683494e-19)
(-0.01032712 0.05170202 7.156871e-21)
(0.02811421 0.5454794 1.327289e-21)
(0.02446034 0.9953988 -1.338492e-21)
(-0.07571954 1.970075 -1.019607e-19)
(-0.04460687 2.199574 1.457927e-19)
(0.08604855 1.063108 0)
(0.4507844 -2.179709 1.126137e-19)
(0.7978185 -3.716356 0)
(0.8119908 -3.663776 6.278621e-19)
(0.2623342 -2.185644 -1.224516e-21)
(-0.3420649 -0.08636077 1.223142e-21)
(-1.023823 2.811233 -4.154658e-19)
(-0.427678 1.665527 -1.895443e-19)
(1.945716 -3.371757 0)
(2.725677 -5.090225 7.262924e-21)
(2.173625 -4.226949 5.245529e-22)
(1.619103 -3.104785 -1.031938e-18)
(0.7904913 -1.639726 -2.359981e-18)
(-0.3645343 0.02244954 1.604592e-18)
(-1.611401 1.664269 -2.469184e-18)
(-2.767915 2.997939 -2.342947e-20)
(-3.409371 3.686244 0)
(-3.378106 3.675402 0)
(-2.208092 2.589782 0)
(1.659924 -0.9161299 6.914144e-19)
(4.194347 -3.342014 6.292104e-22)
(1.763511 -1.797534 -6.056336e-22)
(-0.6202135 -0.03039909 1.15403e-20)
(-1.842615 0.8868461 -1.172176e-20)
(-3.05181 1.435904 0)
(-4.765996 1.966407 0)
(-7.465497 2.894105 1.722599e-17)
(-9.434201 3.667807 1.12197e-19)
(-11.07924 4.811001 -1.030971e-19)
(-4.367009 2.477066 4.269915e-18)
(4.345555 -1.232081 2.500994e-18)
(1.708608 -0.9481691 -3.191327e-20)
(1.249951 -0.5843655 -5.183379e-18)
(-0.2388532 -0.1318075 3.204784e-18)
(3.261103 -0.09032095 -8.108252e-22)
(10.56817 -0.05709476 1.111858e-18)
(16.35879 0.0959098 0)
(18.28991 0.3801858 2.818017e-19)
(18.75496 0.8457397 2.387249e-18)
(18.85713 1.463055 2.499572e-18)
(18.80561 2.148016 2.537017e-18)
(18.65216 2.836231 -7.911387e-20)
(18.43152 3.534164 5.168455e-18)
(18.15417 4.223784 -3.935689e-20)
(17.836 4.902825 0)
(17.46205 5.553983 9.714078e-18)
(17.02657 6.175326 0)
(16.54821 6.764461 -6.902839e-20)
(16.01931 7.308355 6.921367e-20)
(15.43649 7.804028 8.311926e-18)
(14.80701 8.245018 -5.857706e-20)
(14.13785 8.631533 7.306849e-18)
(13.43722 8.959063 -6.789582e-18)
(12.70834 9.225065 0)
(11.96154 9.438541 4.093735e-20)
(11.20375 9.594942 -5.04966e-18)
(10.43046 9.680994 -8.649964e-18)
(9.646278 9.698499 0)
(8.86373 9.657983 -3.040504e-18)
(8.091986 9.560997 -1.575557e-20)
(7.331677 9.399935 1.686813e-18)
(6.58381 9.173817 5.416173e-21)
(5.85527 8.88853 -5.481029e-21)
(5.150048 8.541096 -2.661103e-19)
(4.471552 8.135563 9.150139e-19)
(3.830659 7.677087 0)
(3.228419 7.171095 0)
(2.669627 6.621232 -2.049415e-20)
(2.158622 6.029373 0)
(1.698395 5.3975 0)
(1.29072 4.729941 0)
(0.9403591 4.038247 -2.354208e-18)
(0.6460988 3.332183 1.898458e-20)
(0.4167701 2.605703 1.114512e-20)
(0.2436899 1.86832 -5.454847e-21)
(0.1345699 1.127293 -7.313006e-19)
(0.09912413 0.34911 2.996588e-21)
(0.1252677 -0.4975203 -7.409829e-19)
(0.2024471 -1.329541 1.412115e-18)
(0.3521015 -2.107307 1.077303e-20)
(0.5655089 -2.852001 -2.549583e-18)
(0.8378659 -3.574352 -3.745962e-20)
(1.169072 -4.271811 2.21808e-18)
(1.555103 -4.937023 -1.977985e-18)
(1.996746 -5.569416 0)
(2.486588 -6.168244 -5.841327e-18)
(3.023035 -6.718688 -1.633215e-20)
(3.603383 -7.223327 1.781662e-18)
(4.221919 -7.685667 1.169141e-18)
(4.876094 -8.092828 0)
(5.564262 -8.44711 0)
(6.278351 -8.752211 0)
(7.009584 -8.992623 1.384916e-20)
(7.753421 -9.164092 -1.375552e-20)
(8.509402 -9.277248 2.748661e-18)
(9.272046 -9.330579 5.324604e-21)
(10.03744 -9.320449 -4.12232e-18)
(10.79999 -9.251856 -7.132939e-20)
(11.54934 -9.120121 1.068093e-17)
(12.27738 -8.922454 5.941724e-18)
(12.97963 -8.661874 -4.83623e-20)
(13.65853 -8.3448 6.938311e-18)
(14.30902 -7.976527 5.666717e-20)
(14.9235 -7.552089 -6.437714e-20)
(15.49436 -7.077342 6.411155e-20)
(16.01771 -6.555128 7.049885e-20)
(16.49307 -5.992037 9.259029e-18)
(16.91556 -5.392218 -7.2969e-20)
(17.27366 -4.759775 0)
(17.58174 -4.104431 0)
(17.85139 -3.439259 0)
(18.06555 -2.777111 0)
(18.20124 -2.119183 1.940889e-20)
(18.20392 -1.512989 -1.925156e-20)
(17.95403 -1.046136 1.157168e-18)
(16.19778 -0.6837221 4.449002e-21)
(11.62937 -0.270943 0)
(3.338403 -0.1736881 -1.389373e-18)
(-4.937131 -0.8024202 3.530633e-18)
(-2.216113 -0.3868282 -3.873458e-18)
(-0.4330645 0.217861 4.353997e-20)
(0.8127132 0.529024 -4.866814e-18)
(1.958472 0.9156303 2.978563e-20)
(3.695967 1.718299 0)
(7.422052 2.870516 3.86317e-18)
(-0.1784813 -1.104971 -1.242643e-17)
(-8.855577 -4.990806 -1.166268e-17)
(-8.836579 -4.482172 -8.315207e-21)
(-7.521327 -3.798039 -1.648107e-19)
(-5.166527 -2.728322 7.208752e-20)
(-3.128062 -1.761014 0)
(-1.727702 -1.004737 4.583849e-18)
(-0.5659987 -0.1440715 3.72922e-18)
(0.8737146 1.076822 4.683478e-21)
(2.454576 2.479092 -2.442237e-18)
(3.224797 3.200703 4.920064e-18)
(2.488135 2.547068 2.595362e-18)
(1.0227 1.056528 -2.501377e-21)
(0.5136755 0.6501027 -3.61822e-18)
(0.655832 0.9615 -3.062673e-20)
(0.8518746 1.458559 -4.501659e-18)
(1.163651 2.053891 3.937751e-20)
(1.272895 2.322496 1.458998e-21)
(1.361298 2.440019 -4.256542e-20)
(0.6983881 0.9823167 0)
(-0.4850449 -1.466606 0)
(-0.3759106 -0.8909745 -4.870856e-18)
(-0.2438546 -0.5055528 0)
(-0.1212069 -0.2258875 -4.216486e-18)
(-0.04429531 -0.007583388 1.971367e-18)
(-0.009587663 0.1541018 -1.340865e-20)
(-0.0008821663 0.3643502 1.325531e-20)
(0.004352553 0.7245584 7.037511e-19)
(0.004021009 1.162031 -3.078463e-19)
(-0.03329658 1.625081 -1.229965e-19)
(-0.06943579 2.134154 8.267549e-20)
(0.0069172 2.405283 -1.184089e-19)
(0.1773728 2.281407 1.734759e-21)
(0.5937783 -1.436743 -9.18351e-20)
(0.9020614 -3.747174 0)
(0.7281833 -3.420219 -5.263831e-19)
(0.008577203 -2.10641 1.870698e-21)
(-0.5364373 -0.5653851 -1.262756e-19)
(-1.00423 2.789915 3.467218e-19)
(0.625571 -0.002092713 1.477883e-19)
(2.898395 -4.750721 3.580207e-19)
(2.6444 -4.834283 -4.23886e-21)
(1.985331 -3.969311 0)
(1.39098 -2.935765 0)
(0.5611862 -1.59223 9.378912e-19)
(-0.5923862 -0.01712514 1.314757e-18)
(-1.791977 1.590175 2.028212e-18)
(-2.898127 2.933995 3.81636e-20)
(-3.410224 3.720522 0)
(-3.132277 3.606085 3.012757e-18)
(-2.253089 3.008305 1.667968e-18)
(0.518648 0.5704864 -5.455288e-19)
(3.495843 -2.688023 0)
(1.292155 -1.789154 6.177346e-20)
(-0.01876965 -0.6413911 0)
(-0.519402 -0.01830561 -1.75516e-18)
(-1.2584 0.3221252 0)
(-2.648386 0.6385112 -4.107498e-18)
(-5.244701 1.5662 -1.433219e-17)
(-7.198398 2.684965 0)
(-7.915796 3.983601 0)
(-5.12283 3.332252 2.826701e-20)
(2.814988 -0.363137 -1.898856e-18)
(7.21821 -2.071428 2.587714e-18)
(9.444045 -1.953395 7.589935e-18)
(10.72415 -1.218042 -2.142867e-18)
(13.55564 -0.4572413 1.870583e-18)
(17.40511 0.03003013 -8.236999e-19)
(18.6896 0.3394055 0)
(18.32546 0.7079085 0)
(18.27547 1.301154 -1.983531e-18)
(18.28106 2.002706 -2.096568e-18)
(18.23534 2.723673 -4.146816e-18)
(18.11406 3.439002 4.131637e-18)
(17.9299 4.150409 9.765036e-20)
(17.68449 4.832025 -6.495365e-20)
(17.37088 5.488336 0)
(16.98865 6.104757 0)
(16.55099 6.691496 7.628308e-18)
(16.07089 7.24851 -7.372102e-18)
(15.54373 7.757458 0)
(14.96513 8.217575 0)
(14.34329 8.621884 9.613478e-20)
(13.6833 8.973728 -6.092283e-18)
(12.9949 9.266214 0)
(12.28146 9.496214 -4.97675e-18)
(11.55101 9.676262 -4.500448e-18)
(10.81253 9.800251 -3.95057e-18)
(10.06241 9.853154 3.480017e-18)
(9.301308 9.840171 -4.22202e-20)
(8.542934 9.772409 2.44594e-18)
(7.79612 9.650644 0)
(7.063342 9.465512 -1.376721e-18)
(6.344493 9.217157 -8.505056e-21)
(5.643146 8.913668 8.47366e-21)
(4.970945 8.546753 -2.81033e-19)
(4.322503 8.126038 0)
(3.710938 7.654877 -1.318983e-18)
(3.136566 7.139069 -1.571221e-20)
(2.606297 6.581214 2.263092e-18)
(2.121042 5.984315 1.35534e-18)
(1.685252 5.349337 -1.558918e-18)
(1.299242 4.680851 -1.749372e-18)
(0.9672972 3.989958 1.916135e-18)
(0.6874936 3.286999 -2.073182e-18)
(0.4742258 2.564117 -1.072463e-18)
(0.3093962 1.832953 2.278959e-18)
(0.2065447 1.100631 1.196334e-18)
(0.1795263 0.3338336 2.443121e-21)
(0.2095803 -0.4922266 6.130714e-19)
(0.2781946 -1.311718 -9.186226e-21)
(0.4200818 -2.080404 0)
(0.6229856 -2.81918 -1.601095e-20)
(0.8800487 -3.537901 -1.38736e-20)
(1.193466 -4.232873 -1.754714e-18)
(1.557534 -4.897458 3.24841e-18)
(1.978259 -5.529963 -1.433448e-18)
(2.44214 -6.132408 2.368377e-18)
(2.950382 -6.688691 1.6986e-20)
(3.504204 -7.200448 0)
(4.093476 -7.673732 1.000415e-18)
(4.717862 -8.0939 3.205661e-21)
(5.37795 -8.462547 3.507082e-20)
(6.062012 -8.78664 0)
(6.763635 -9.047901 1.130318e-18)
(7.48135 -9.24062 0)
(8.211861 -9.378028 -4.766316e-20)
(8.949 -9.458565 2.745647e-18)
(9.692816 -9.475508 0)
(10.43334 -9.437982 -3.85889e-18)
(11.16285 -9.339132 -4.37979e-18)
(11.8734 -9.175406 -4.870389e-18)
(12.56026 -8.9492 0)
(13.22769 -8.665446 -1.158968e-17)
(13.86872 -8.331832 9.301978e-20)
(14.47654 -7.941103 0)
(15.04344 -7.500483 0)
(15.56574 -7.01114 0)
(16.04352 -6.47841 7.501477e-18)
(16.46864 -5.913609 -7.771473e-18)
(16.83376 -5.31181 0)
(17.13084 -4.676222 0)
(17.36623 -4.012446 4.076553e-18)
(17.53932 -3.327839 3.245322e-20)
(17.6443 -2.63996 0)
(17.6803 -1.959954 0)
(17.79958 -1.379559 -1.913816e-18)
(18.09332 -0.9861127 2.209265e-19)
(17.40811 -0.665583 0)
(11.81986 -0.4763789 9.119504e-19)
(3.519459 -0.2282539 5.271495e-20)
(3.999399 0.9125419 5.777044e-21)
(6.341964 1.806934 -4.023519e-20)
(7.306808 2.160359 3.500728e-18)
(7.415241 2.382226 2.807052e-18)
(6.743812 2.691886 3.852933e-20)
(6.609977 2.257917 3.509467e-20)
(-1.980925 -2.657371 4.813857e-18)
(-7.222621 -4.75928 9.517409e-18)
(-7.664988 -3.9508 0)
(-6.433934 -2.929091 8.760371e-18)
(-4.190737 -1.829884 0)
(-2.323328 -1.014799 -6.415786e-20)
(-1.24613 -0.519633 -3.725697e-18)
(-0.4815302 0.1005154 4.326256e-20)
(0.5338907 1.0399 -4.212423e-20)
(1.999546 2.28134 2.00411e-18)
(3.184481 3.183837 -2.038625e-18)
(2.71267 2.580437 -2.09948e-18)
(1.041417 0.8476587 -2.473331e-18)
(0.5181309 0.6268702 -2.978621e-18)
(0.6419376 0.9900625 0)
(0.793528 1.505388 -1.557284e-21)
(1.131457 2.066616 0)
(1.290738 2.33468 -4.302583e-18)
(1.400763 2.388922 4.175661e-18)
(1.277372 1.891854 0)
(0.4035611 0.3612541 0)
(0.1471241 0.5647765 8.103503e-18)
(0.1014909 0.6425431 -1.843273e-18)
(0.1166414 0.674374 3.448016e-18)
(0.1255609 0.7302421 -1.205063e-20)
(0.109671 0.7479887 1.204525e-20)
(0.05861886 0.7742008 0)
(0.008599048 0.9601345 -5.725993e-19)
(-0.009791219 1.310332 4.935363e-19)
(-0.04932625 1.727059 1.027003e-19)
(-0.1332554 2.083647 -1.36257e-19)
(-0.02959059 2.334076 -2.450834e-21)
(0.299289 2.89882 2.31062e-21)
(0.7186356 0.1386641 -3.139662e-21)
(0.9431257 -3.262355 3.270349e-21)
(0.5660914 -3.025986 2.203654e-19)
(-0.2921366 -1.863498 1.374241e-21)
(-0.7178132 -1.058457 9.921648e-20)
(-0.6823076 2.064934 6.652041e-22)
(1.879644 -1.84918 -1.415554e-19)
(3.257112 -5.020127 2.867073e-20)
(2.240579 -4.246131 0)
(1.683683 -3.747025 0)
(1.102485 -2.793836 -6.967886e-19)
(0.3014098 -1.574578 -7.937157e-19)
(-0.8428048 -0.09370906 -2.1588e-18)
(-2.013531 1.500258 -1.651375e-18)
(-3.092198 2.885797 0)
(-3.470276 3.764134 0)
(-3.021269 3.666573 -4.975757e-18)
(-1.889452 3.013001 -2.757026e-18)
(-0.2427622 1.790633 4.048869e-21)
(2.354266 -1.529022 -5.387446e-21)
(0.9373595 -1.716497 -9.355587e-20)
(1.027347 -1.402255 -6.376509e-19)
(1.179484 -1.066617 1.448453e-18)
(0.825595 -0.9527 2.138539e-18)
(-0.577624 -0.7341505 3.266027e-18)
(-2.876546 0.06187484 6.143582e-18)
(-4.517595 1.390325 0)
(-4.299196 2.908728 -1.276522e-19)
(-3.474513 3.440574 -5.592235e-18)
(4.662143 -0.1112581 4.299601e-20)
(13.03133 -2.732642 1.66601e-20)
(15.68311 -2.739022 -2.818736e-18)
(17.20284 -1.929216 -1.506378e-18)
(18.31381 -0.7818221 -5.195864e-20)
(18.73459 -0.1050275 -6.649948e-19)
(18.17254 0.1203165 -3.455823e-19)
(18.06316 0.371574 -2.916397e-21)
(18.28749 0.8793662 0)
(18.40112 1.509706 -2.631951e-20)
(18.41403 2.188864 1.74247e-18)
(18.32318 2.884359 -6.829278e-18)
(18.15658 3.589076 5.272334e-20)
(17.9191 4.277269 -3.382416e-18)
(17.60887 4.94525 -1.01787e-19)
(17.23247 5.573785 -6.390442e-18)
(16.7979 6.177238 -3.257187e-21)
(16.31977 6.75662 6.081139e-18)
(15.79585 7.285068 -5.724224e-18)
(15.21948 7.767819 0)
(14.59908 8.194072 7.77284e-20)
(13.93862 8.570103 -7.821459e-20)
(13.24745 8.88858 0)
(12.52905 9.145763 4.10018e-18)
(11.7925 9.352687 7.523797e-20)
(11.0465 9.50349 3.302897e-18)
(10.28877 9.581982 -2.800186e-18)
(9.521536 9.590917 -2.364634e-18)
(8.753119 9.546638 -1.977937e-18)
(7.997009 9.446698 -1.494389e-18)
(7.255355 9.281511 1.321587e-20)
(6.526432 9.052115 -1.334651e-20)
(5.814538 8.766878 0)
(5.131481 8.416908 2.310912e-19)
(4.471612 8.011979 -1.37688e-20)
(3.849469 7.554707 1.097523e-18)
(3.264818 7.051369 1.475131e-18)
(2.726732 6.503943 -1.848369e-18)
(2.233647 5.916462 -1.11257e-18)
(1.790666 5.2898 -4.961433e-21)
(1.397736 4.628751 1.435349e-18)
(1.061825 3.943609 2.537039e-20)
(0.7767889 3.246383 1.661742e-18)
(0.5629388 2.527516 1.418767e-20)
(0.3963677 1.800434 -9.524778e-19)
(0.2935285 1.074639 -4.875298e-19)
(0.2739886 0.3174484 -6.091698e-23)
(0.3092236 -0.4852397 4.860787e-19)
(0.3717785 -1.293109 7.52336e-21)
(0.5103308 -2.05497 -9.124609e-19)
(0.7141486 -2.788038 1.729457e-18)
(0.9727563 -3.499991 0)
(1.28888 -4.186857 -2.716778e-21)
(1.655847 -4.842482 -1.335798e-18)
(2.082147 -5.465177 1.208328e-18)
(2.549997 -6.058051 -2.034381e-18)
(3.066675 -6.601652 2.255201e-20)
(3.630682 -7.099909 -2.233969e-20)
(4.22568 -7.561302 -8.221261e-19)
(4.859218 -7.966195 0)
(5.532783 -8.316781 -3.517316e-20)
(6.224627 -8.625552 1.44228e-20)
(6.93497 -8.86883 -5.348419e-20)
(7.662931 -9.041632 -1.299467e-18)
(8.402028 -9.159435 -1.833522e-18)
(9.146995 -9.21925 -1.81109e-20)
(9.898289 -9.214151 2.634052e-18)
(10.6471 -9.152585 -4.478402e-20)
(11.3825 -9.030284 -3.486115e-18)
(12.09845 -8.84137 0)
(12.79165 -8.587638 4.267649e-18)
(13.46277 -8.278785 4.706609e-18)
(14.10428 -7.922857 4.888159e-18)
(14.71163 -7.509568 -5.209126e-18)
(15.27642 -7.048483 5.585418e-18)
(15.7961 -6.539014 0)
(16.27097 -5.987174 -1.227994e-17)
(16.6924 -5.408709 1.282899e-17)
(17.0526 -4.793736 -1.520124e-19)
(17.34679 -4.149111 -3.298637e-18)
(17.5742 -3.48159 -3.344142e-18)
(17.72618 -2.810731 0)
(17.78616 -2.15193 1.706693e-18)
(17.73719 -1.532593 -1.673883e-18)
(17.59351 -1.031546 8.031101e-19)
(17.56668 -0.7311869 -1.916777e-19)
(18.34976 -0.6631145 -3.552336e-19)
(17.30191 -0.6589866 1.067839e-20)
(13.59662 0.1573317 -1.838949e-18)
(12.95952 1.932283 4.911094e-20)
(13.19776 3.076261 0)
(12.92274 3.423446 0)
(12.12052 3.483036 -6.076774e-20)
(10.19233 3.440949 6.292344e-20)
(6.493016 1.549344 0)
(-2.056561 -3.583753 0)
(-5.144089 -4.280493 0)
(-6.494877 -3.282786 1.023395e-17)
(-5.355673 -1.968749 -1.447777e-17)
(-3.176362 -0.8487611 5.118959e-18)
(-1.267735 -0.08697827 -3.761204e-18)
(-0.4102482 0.1961623 -1.009906e-19)
(-0.06413465 0.5645258 2.562528e-18)
(0.4002868 1.161327 2.000801e-18)
(1.462803 2.068779 2.548158e-20)
(2.739309 2.805463 6.755953e-22)
(2.599368 2.207928 -2.601143e-20)
(1.025191 0.5679622 -3.37794e-20)
(0.5530376 0.6746436 2.536745e-18)
(0.6298093 1.026983 0)
(0.6975533 1.522995 3.025171e-18)
(1.059198 2.06274 -3.328015e-18)
(1.276451 2.357128 3.559974e-18)
(1.355276 2.27581 0)
(1.488007 2.178608 0)
(1.033888 1.672592 -5.015208e-20)
(0.5420164 1.565359 -3.285267e-18)
(0.2949281 1.236743 1.559558e-18)
(0.1896762 0.9331493 -1.421174e-18)
(0.1341198 0.7754444 0)
(0.09446892 0.6853297 0)
(0.02382581 0.6564776 0)
(-0.05150488 0.8226199 -4.664309e-19)
(-0.06957365 1.184659 -2.104711e-19)
(-0.1148112 1.626573 -1.691979e-19)
(-0.1740994 1.996576 5.605776e-20)
(-0.07324167 2.313036 0)
(0.3841271 2.996915 -9.614161e-20)
(0.8520702 1.996527 0)
(0.9130357 -1.691836 -2.216386e-19)
(0.3217181 -2.201675 0)
(-0.5701747 -1.45189 0)
(-0.7494749 -1.578678 7.788561e-20)
(0.2877846 0.262943 -2.04112e-19)
(2.925192 -3.184243 1.144256e-19)
(3.170037 -4.617051 -2.660825e-19)
(1.901826 -3.784611 5.505453e-19)
(1.434028 -3.511588 0)
(0.8418637 -2.698815 1.151272e-18)
(0.04400192 -1.593344 6.483042e-19)
(-1.105376 -0.2114138 9.184933e-19)
(-2.288577 1.401163 -3.498572e-20)
(-3.354285 2.856924 -6.644052e-20)
(-3.581109 3.861893 -2.4114e-18)
(-2.9624 3.832508 4.128961e-18)
(-1.596414 3.032374 1.148792e-18)
(-0.3383935 2.364455 6.584346e-21)
(1.307146 -0.3158141 -1.601358e-20)
(0.9303918 -1.657199 3.648874e-20)
(2.376673 -2.185109 5.257209e-19)
(3.07514 -2.150328 0)
(2.944538 -2.241545 -3.741852e-21)
(1.748122 -2.258839 0)
(0.01429076 -1.662326 5.038461e-18)
(-1.237931 -0.1134843 9.085086e-18)
(-0.7030378 1.784206 9.431693e-18)
(-0.1853623 2.9933 -2.04445e-19)
(8.469691 -0.0170516 5.132015e-20)
(15.97966 -2.667235 -2.911794e-18)
(17.22799 -2.841286 0)
(18.34747 -2.126164 -1.119141e-18)
(18.57684 -0.9149741 -1.210615e-18)
(18.06153 -0.1116421 1.125691e-18)
(17.69189 0.2632346 2.761602e-19)
(17.83619 0.6870509 0)
(18.00403 1.275513 6.556836e-19)
(18.09504 1.941346 0)
(18.094 2.627938 0)
(17.99939 3.305851 2.852895e-18)
(17.83057 4.002413 -4.347105e-20)
(17.59614 4.664868 4.852822e-20)
(17.2899 5.305444 -2.66932e-18)
(16.91984 5.90118 5.36705e-18)
(16.49172 6.472831 -5.118154e-18)
(16.02324 7.021452 -4.933172e-18)
(15.51529 7.50863 2.290898e-19)
(14.95264 7.957604 -1.431583e-19)
(14.34963 8.348089 -1.262465e-19)
(13.70588 8.69389 -3.628079e-18)
(13.03405 8.98365 -3.692116e-18)
(12.33584 9.212309 -9.725537e-20)
(11.61713 9.397156 3.090953e-18)
(10.89378 9.525536 0)
(10.16048 9.581717 2.305912e-18)
(9.411723 9.575355 1.946674e-18)
(8.662724 9.517847 1.530435e-18)
(7.928321 9.406198 1.229636e-18)
(7.207426 9.231901 0)
(6.499301 8.993858 0)
(5.804744 8.704944 1.091683e-19)
(5.141891 8.350408 0)
(4.496495 7.94518 0)
(3.890413 7.48821 9.655722e-19)
(3.322642 6.985604 -1.596422e-20)
(2.794786 6.441924 -1.498925e-20)
(2.309725 5.858171 -3.071025e-20)
(1.875167 5.235176 2.142885e-18)
(1.491047 4.577612 0)
(1.164567 3.895698 0)
(0.8763623 3.205558 1.407523e-18)
(0.667408 2.489984 7.100262e-19)
(0.5007967 1.765774 7.684961e-19)
(0.3979103 1.046561 -3.99105e-19)
(0.3861877 0.2986854 0)
(0.4301164 -0.4754065 -4.291768e-22)
(0.4865368 -1.272207 2.407026e-20)
(0.6134525 -2.028151 7.2399e-19)
(0.8115033 -2.753479 -1.417694e-18)
(1.065902 -3.456747 -4.012949e-20)
(1.378074 -4.135502 1.223991e-18)
(1.740525 -4.783423 3.605983e-20)
(2.161787 -5.399357 1.945859e-18)
(2.616346 -5.988536 -1.205522e-20)
(3.119788 -6.528299 -1.398574e-18)
(3.675013 -7.023687 3.721702e-20)
(4.255786 -7.485688 0)
(4.869186 -7.893179 3.792211e-19)
(5.528749 -8.246085 0)
(6.20644 -8.559722 0)
(6.894741 -8.81263 -7.298019e-19)
(7.603241 -8.994683 2.135077e-18)
(8.325501 -9.122782 5.035657e-20)
(9.050175 -9.196609 -1.006431e-19)
(9.781705 -9.206893 -2.162899e-18)
(10.51039 -9.164777 -2.465534e-18)
(11.22592 -9.063642 2.966744e-18)
(11.92085 -8.899898 -3.229315e-18)
(12.59277 -8.674336 -6.978539e-20)
(13.24698 -8.391677 0)
(13.87089 -8.06716 -4.231297e-18)
(14.46279 -7.684937 8.923174e-18)
(15.01319 -7.258262 -4.751006e-18)
(15.51947 -6.784243 0)
(15.98454 -6.267629 8.629468e-20)
(16.39783 -5.722825 -5.13971e-18)
(16.75195 -5.138055 -8.208584e-20)
(17.04259 -4.519821 1.310131e-19)
(17.26797 -3.872658 -8.554208e-20)
(17.42083 -3.218571 0)
(17.49043 -2.559565 -2.721136e-18)
(17.46334 -1.913598 1.302874e-18)
(17.37158 -1.341913 6.383647e-19)
(17.19075 -0.8776663 -9.816306e-21)
(17.56425 -0.6745716 2.921091e-19)
(18.51374 -0.6111369 5.751651e-19)
(18.38604 0.533358 0)
(17.93205 2.581495 1.652637e-18)
(16.92111 3.756625 -7.298476e-20)
(15.68056 4.007665 2.172864e-18)
(14.4466 3.90912 0)
(12.42708 3.603366 0)
(7.210802 0.8439703 0)
(-0.7888179 -3.949072 7.559341e-20)
(-3.174751 -3.781215 7.119498e-18)
(-4.828446 -2.420125 -9.075949e-18)
(-3.970639 -0.800041 6.292218e-18)
(-2.114022 0.200053 -8.364479e-18)
(-0.2132049 0.8550771 3.140033e-18)
(0.6247373 1.019045 0)
(0.6556559 1.177499 -2.085083e-18)
(0.5532347 1.424309 -1.615261e-18)
(1.095474 1.958483 1.379288e-18)
(2.254026 2.377012 -4.442933e-20)
(2.362092 1.679976 -4.676039e-20)
(0.996992 0.2827802 4.82728e-20)
(0.5007802 0.6521835 0)
(0.5841703 1.031757 -2.36188e-18)
(0.5632566 1.482199 8.137315e-20)
(0.9414438 2.009051 5.400205e-18)
(1.231265 2.28799 -3.027574e-18)
(1.337859 2.223349 1.788156e-19)
(1.472922 2.1356 -2.817342e-18)
(1.222416 2.077764 0)
(0.720439 1.861005 -2.67113e-18)
(0.3922988 1.344626 1.28756e-18)
(0.2166491 0.8585638 -7.371514e-20)
(0.1127178 0.5694148 1.173667e-18)
(0.05885939 0.4301945 -4.831127e-20)
(-0.01893831 0.4185008 1.493032e-20)
(-0.1160682 0.6162597 3.909372e-19)
(-0.1346325 1.026347 -2.413485e-21)
(-0.183155 1.516121 2.292048e-21)
(-0.2483821 2.015877 2.517697e-21)
(-0.1393464 2.397104 6.75238e-20)
(0.3583816 2.844841 7.998001e-20)
(0.9368732 3.297916 -5.937611e-20)
(0.8702406 0.8918647 1.781345e-19)
(0.08606309 -0.5089541 0)
(-0.7121522 -0.8102511 -4.595763e-20)
(-0.5615599 -2.09647 -6.824256e-20)
(1.299271 -1.537665 1.601082e-19)
(3.506189 -3.784173 0)
(2.810695 -3.968333 0)
(1.694567 -3.616466 -4.564258e-19)
(1.25401 -3.411253 -1.512664e-20)
(0.6089827 -2.702674 -4.601286e-19)
(-0.2226706 -1.685077 -5.546689e-19)
(-1.400528 -0.3948106 -7.63516e-19)
(-2.627933 1.290228 1.151153e-18)
(-3.651217 2.843617 -1.584629e-18)
(-3.700807 3.999896 1.918103e-18)
(-2.889533 4.055381 -1.640578e-18)
(-1.390303 3.177044 0)
(-0.007842439 2.473804 0)
(0.7784677 0.5091417 6.996649e-21)
(1.471244 -1.723995 0)
(3.974703 -2.931015 -2.094129e-20)
(5.061835 -3.202405 -1.507169e-20)
(5.140825 -3.519589 -1.232438e-18)
(4.320671 -3.882597 -5.225755e-20)
(3.301155 -3.577589 1.505469e-20)
(2.620298 -1.985606 -7.160071e-18)
(2.695638 0.6615658 2.546264e-20)
(4.773603 2.226496 1.819093e-18)
(12.52687 0.1025798 -3.070968e-20)
(16.64347 -2.217424 1.22852e-18)
(16.62093 -2.589227 -4.638268e-20)
(17.7377 -1.992154 3.897968e-18)
(17.9298 -0.9431651 2.996796e-20)
(17.71503 -0.2310149 -6.773417e-21)
(17.69693 0.1152491 -4.776886e-19)
(17.86764 0.4848526 -3.930244e-21)
(18.0329 0.996502 -5.407831e-19)
(18.13008 1.608487 -3.476675e-20)
(18.13148 2.265564 -1.078196e-18)
(18.03382 2.93077 2.226691e-18)
(17.86454 3.623334 -2.219018e-18)
(17.63673 4.280287 4.274151e-18)
(17.33284 4.940937 2.336495e-18)
(16.96476 5.552007 0)
(16.53529 6.142556 0)
(16.06721 6.713419 4.000548e-18)
(15.56007 7.220377 3.822485e-18)
(14.99768 7.687823 0)
(14.39756 8.090347 -1.014816e-19)
(13.75392 8.450862 3.290038e-18)
(13.07923 8.760577 2.942371e-18)
(12.3819 9.001635 2.598536e-18)
(11.66915 9.192468 -6.97953e-20)
(10.94765 9.333911 -2.007124e-18)
(10.21154 9.406768 5.202726e-20)
(9.46747 9.406759 -5.252076e-20)
(8.726816 9.353341 -1.291977e-18)
(7.995256 9.251657 9.600007e-19)
(7.270503 9.093115 0)
(6.570372 8.859803 0)
(5.878297 8.581379 -1.492681e-19)
(5.224136 8.233167 -8.878186e-21)
(4.583215 7.836829 -8.525426e-21)
(3.992425 7.384444 -7.447436e-19)
(3.432426 6.889205 -2.034193e-18)
(2.896933 6.361791 1.194377e-18)
(2.413986 5.788924 -1.481998e-18)
(1.983973 5.17469 -8.387174e-19)
(1.609035 4.522926 -2.892871e-20)
(1.290178 3.842933 0)
(0.9940055 3.163332 -1.098706e-18)
(0.7967378 2.45294 -3.692607e-20)
(0.626114 1.730217 -6.392179e-19)
(0.5230093 1.018177 3.420534e-19)
(0.5199174 0.2785526 1.790847e-23)
(0.5723018 -0.4636736 -3.457853e-19)
(0.6147951 -1.252695 2.975322e-20)
(0.7379489 -1.99878 -6.307367e-19)
(0.9293242 -2.710619 1.161088e-18)
(1.178683 -3.403305 -1.124036e-18)
(1.487154 -4.073376 2.504019e-21)
(1.845261 -4.711719 9.370147e-19)
(2.270569 -5.316615 -1.548825e-18)
(2.715904 -5.900218 1.350213e-18)
(3.208137 -6.434669 1.04671e-18)
(3.764025 -6.92131 7.926694e-21)
(4.351849 -7.371177 8.364167e-21)
(4.956994 -7.772395 -2.970142e-19)
(5.599559 -8.126997 5.802775e-20)
(6.277028 -8.432519 1.26192e-20)
(6.963632 -8.676034 5.183817e-19)
(7.66384 -8.852321 -1.707402e-18)
(8.377982 -8.977132 1.134247e-18)
(9.107141 -9.034057 -5.145253e-20)
(9.835556 -9.035096 -1.736701e-18)
(10.55639 -8.989606 4.055917e-18)
(11.27175 -8.875973 7.558827e-20)
(11.96345 -8.702628 2.505186e-18)
(12.63526 -8.46204 -2.931015e-18)
(13.29106 -8.163545 9.104055e-20)
(13.91366 -7.826732 -3.342856e-18)
(14.50595 -7.426678 -3.424563e-18)
(15.05546 -6.984719 1.18117e-19)
(15.56286 -6.4886 -3.944447e-18)
(16.02827 -5.950855 4.075625e-18)
(16.4412 -5.387531 0)
(16.79323 -4.786281 0)
(17.08022 -4.153447 2.210311e-18)
(17.30331 -3.509296 2.204537e-18)
(17.4586 -2.861532 0)
(17.52812 -2.229452 1.165148e-18)
(17.49978 -1.629957 1.056727e-18)
(17.39683 -1.131392 -5.363162e-19)
(17.25813 -0.7419795 1.231045e-19)