/*--------------------------------*- C++ -*----------------------------------*\
| =========                 |                                                 |
| \\      /  F ield         | OpenFOAM: The Open Source CFD Toolbox           |
|  \\    /   O peration     | Version:  2406                                  |
|   \\  /    A nd           | Website:  www.openfoam.com                      |
|    \\/     M anipulation  |                                                 |
\*---------------------------------------------------------------------------*/
FoamFile
{
    version     2.0;
    format      ascii;
    arch        "LSB;label=32;scalar=64";
    class       volScalarField;
    location    "2.54";
    object      p;
}
// * * * * * * * * * * * * * * * * * * * * * * * * * * * * * * * * * * * * * //

dimensions      [0 2 -2 0 0 0 0];

internalField   nonuniform List<scalar> 
15536
(
-22.90129
-23.3201
-22.11507
-20.58307
-23.2009
-25.42977
-21.9606
-17.08557
-20.51911
-21.70447
-23.03658
-26.12399
-21.14323
-14.8945
-11.66099
-7.20856
-1.272649
8.648556
12.66923
11.0577
11.07937
5.661669
-5.197883
-14.88994
-26.75785
-50.68958
-100.7872
-148.2252
-141.6311
-57.89614
-21.74851
-42.31447
-67.40362
-99.40812
-131.9163
-133.7197
-109.8326
-101.5552
-106.0172
-112.5329
-118.4977
-122.4242
-124.3204
-124.7567
-124.4074
-123.054
-120.8065
-117.5478
-113.8234
-109.7881
-105.047
-99.71186
-93.735
-87.38357
-80.59566
-73.44564
-66.29928
-59.06364
-51.46124
-43.68559
-36.05379
-28.57778
-21.13092
-13.76783
-6.633167
0.376346
7.089265
13.47363
19.42465
24.95122
30.01213
34.6114
38.70609
42.22002
45.12193
47.51873
49.29752
50.52607
51.22205
51.19772
50.44994
49.15033
47.29589
44.85334
41.85689
38.32777
34.32037
29.76065
24.79788
19.48293
13.68393
7.565128
1.195251
-5.577422
-12.50125
-19.38665
-26.4225
-33.59012
-40.71252
-47.8679
-54.90125
-61.63365
-68.0202
-74.13256
-80.07638
-85.56886
-90.57743
-95.05614
-99.00435
-102.4657
-105.1917
-107.088
-108.1346
-108.285
-107.1822
-104.4986
-100.7142
-98.85531
-98.33652
-86.24296
-89.14787
-131.9672
-142.4376
-107.827
-73.02221
-56.79532
-51.23567
-42.92851
-27.37944
-17.1418
-30.81498
-53.00198
-72.09833
-77.04916
-67.198
-53.57333
-41.0873
-34.60504
-32.60747
-31.9808
-31.22335
-30.50785
-30.88538
-32.01949
-30.97813
-32.45191
-35.71854
-37.15929
-36.82033
-34.80701
-31.26046
-26.6142
-22.1005
-18.78593
-17.91979
-19.04707
-21.15593
-22.80242
-23.25378
-22.0778
-20.57796
-23.18696
-25.44366
-21.99998
-17.12444
-20.52816
-21.69875
-23.04137
-26.14784
-21.18499
-14.93148
-11.68198
-7.212862
-1.274659
8.665639
12.72546
11.13399
11.09177
5.598447
-5.256557
-14.86742
-26.63158
-50.47955
-100.5401
-148.1606
-142.1058
-58.02983
-21.74863
-42.52466
-67.59246
-99.48848
-131.9894
-133.6159
-109.6563
-101.5053
-105.7006
-111.8166
-117.4107
-121.0459
-122.799
-123.1617
-122.7768
-121.4075
-119.1628
-115.9168
-112.2113
-108.2124
-103.5115
-98.22515
-92.29958
-86.00542
-79.28324
-72.20127
-65.12324
-57.96131
-50.43858
-42.73801
-35.18189
-27.78255
-20.4115
-13.12186
-6.056073
0.8831868
7.525829
13.84563
19.73709
25.20659
30.21606
34.76949
38.82322
42.30383
45.17669
47.55057
49.31241
50.52798
51.21787
51.19307
50.45014
49.16184
47.32343
44.90234
41.93316
38.437
34.46754
29.95112
25.03842
19.7744
14.03115
7.975266
1.667911
-5.040596
-11.89782
-18.71583
-25.68477
-32.78239
-39.83533
-46.92277
-53.88997
-60.5571
-66.88251
-72.94182
-78.83675
-84.28237
-89.25257
-93.69685
-97.61909
-101.0673
-103.79
-105.7
-106.7771
-107.0087
-106.089
-103.6916
-100.237
-98.69797
-98.26914
-86.17067
-89.05657
-131.931
-142.5086
-107.8357
-72.97786
-56.75711
-51.25857
-43.00286
-27.47659
-17.05813
-30.82428
-53.05363
-72.0908
-76.97872
-67.19801
-53.59982
-41.11846
-34.60917
-32.56164
-31.95305
-31.20118
-30.49327
-30.88481
-32.01162
-30.96187
-32.45082
-35.70902
-37.13792
-36.76838
-34.75632
-31.23455
-26.61322
-22.11269
-18.79781
-17.91958
-19.01465
-21.07926
-22.76161
-23.25231
-22.14986
-20.65863
-23.23617
-25.51803
-22.11331
-17.24034
-20.58491
-21.80603
-23.20552
-26.29541
-21.29625
-15.02422
-11.7441
-7.254823
-1.378933
8.57076
12.732
11.14048
11.03833
5.436586
-5.392249
-14.86956
-26.50698
-50.33375
-100.7505
-149.1929
-144.5009
-58.84184
-21.34007
-42.42821
-67.64635
-99.6303
-132.308
-133.7643
-110.0462
-101.5347
-105.3485
-111.0412
-116.334
-119.9392
-121.7883
-122.178
-121.8296
-120.4887
-118.2794
-115.0502
-111.3593
-107.3926
-102.706
-97.44785
-91.54553
-85.29002
-78.61247
-71.54717
-64.49949
-57.38389
-49.88866
-42.22057
-34.69871
-27.34153
-20.01072
-12.75192
-5.731388
1.176477
7.783079
14.06901
19.92817
25.36799
30.34686
34.87254
38.90111
42.36205
45.21235
47.57072
49.31976
50.52302
51.20625
51.18127
50.44401
49.16636
47.34009
44.93447
41.98482
38.51063
34.56665
30.07304
25.18987
19.95686
14.24058
8.218393
1.946178
-4.734081
-11.55677
-18.33393
-25.27064
-32.33705
-39.34952
-46.4148
-53.3505
-59.99076
-66.29124
-72.31354
-78.18516
-83.59744
-88.54751
-92.97182
-96.87494
-100.3089
-103.0078
-104.8856
-105.9328
-106.1127
-105.1302
-102.8331
-99.63946
-98.05026
-97.30458
-85.88112
-89.33866
-132.3276
-142.9643
-108.0243
-73.04469
-56.77477
-51.23997
-43.01946
-27.53374
-16.8962
-31.12501
-53.45145
-72.25129
-77.14175
-67.30675
-53.69995
-41.20921
-34.64941
-32.55577
-31.91209
-31.14584
-30.45121
-30.88596
-32.03349
-30.96906
-32.48401
-35.75591
-37.15213
-36.77239
-34.74388
-31.23407
-26.63162
-22.14751
-18.83025
-17.94002
-19.00741
-21.04775
-22.6933
-23.22461
-22.30041
-20.90329
-23.37174
-25.66036
-22.28537
-17.42029
-20.64291
-22.05083
-23.6108
-26.6028
-21.52327
-15.2096
-11.8717
-7.339357
-1.590892
8.29319
12.59493
11.12421
10.92485
5.178919
-5.536811
-14.86552
-26.36115
-50.25489
-101.3797
-150.8051
-148.6036
-60.62366
-20.77971
-41.83266
-67.26575
-98.92834
-130.7747
-132.4123
-110.3004
-101.7457
-104.8507
-109.9329
-114.7877
-118.1497
-119.7906
-120.0675
-119.7099
-118.361
-116.2015
-113.0089
-109.3474
-105.441
-100.8368
-95.66532
-89.8453
-83.67046
-77.08479
-70.11461
-63.15347
-56.13533
-48.75207
-41.17015
-33.73596
-26.47375
-19.23655
-12.05932
-5.128095
1.701704
8.230737
14.45043
20.24278
25.62026
30.54381
35.02225
39.00897
42.43849
45.25383
47.59038
49.32194
50.50861
51.18369
51.15846
50.42757
49.16494
47.35503
44.97058
42.04943
38.60969
34.70858
30.25572
25.42894
20.25292
14.59238
8.644328
2.441669
-4.175969
-10.91024
-17.6038
-24.46654
-31.445
-38.37
-45.35327
-52.20391
-58.75157
-64.96097
-70.91355
-76.71374
-82.04486
-86.92927
-91.28275
-95.1383
-98.54064
-101.2045
-103.0674
-104.1381
-104.4537
-103.6735
-101.6165
-98.75646
-96.99222
-96.00472
-85.96543
-90.6195
-132.7538
-143.3
-108.3582
-73.15437
-56.81214
-51.07726
-42.79163
-27.37378
-16.57168
-31.79522
-54.22104
-72.58926
-77.50638
-67.55712
-53.89194
-41.36482
-34.72512
-32.55728
-31.86374
-31.08658
-30.37526
-30.88218
-32.09647
-31.03037
-32.59503
-35.85405
-37.18278
-36.75269
-34.74254
-31.26029
-26.68165
-22.21742
-18.89156
-17.98901
-19.01848
-21.01622
-22.65474
-23.24906
-22.52319
-21.32078
-23.55299
-25.70182
-22.34603
-17.53443
-20.60026
-22.36328
-24.29609
-27.14399
-21.92853
-15.55853
-12.10163
-7.50557
-1.936321
7.781186
12.24881
11.11738
10.79479
4.929952
-5.626752
-14.81215
-26.23987
-50.31847
-102.4367
-153.1717
-153.8629
-63.53101
-21.03229
-41.17846
-66.57521
-96.74003
-125.2342
-127.5415
-109.3697
-101.8888
-104.2485
-108.7993
-113.3086
-116.5761
-118.3008
-118.5903
-118.2489
-116.8818
-114.7491
-111.5592
-107.8618
-104.0227
-99.4122
-94.28216
-88.47696
-82.3544
-75.83969
-68.89406
-61.98528
-55.058
-47.74251
-40.21052
-32.84283
-25.66943
-18.51084
-11.39088
-4.546195
2.222964
8.681804
14.83671
20.5591
25.88018
30.74891
35.17893
39.1162
42.51193
45.28944
47.60128
49.31299
50.47903
51.14402
51.11719
50.39387
49.15377
47.36558
45.00529
42.11568
38.71117
34.85522
30.44254
25.67942
20.55771
14.94042
9.073184
2.941408
-3.639731
-10.29682
-16.90808
-23.71713
-30.63414
-37.47559
-44.41452
-51.21172
-57.70275
-63.86292
-69.76327
-75.54025
-80.82523
-85.69675
-90.02968
-93.87295
-97.31246
-99.94527
-101.8119
-102.8807
-103.1217
-102.3362
-100.3986
-97.76973
-95.86161
-94.89557
-87.00733
-92.56702
-132.3479
-142.6846
-108.2244
-73.21108
-56.91622
-50.7502
-42.13538
-26.89078
-16.27594
-32.79757
-55.36424
-73.22793
-78.19122
-68.00506
-54.20391
-41.6005
-34.82612
-32.55885
-31.79849
-31.02771
-30.2773
-30.87695
-32.22585
-31.18297
-32.81983
-36.01236
-37.25934
-36.78323
-34.77691
-31.33177
-26.78285
-22.33068
-19.00457
-18.08044
-19.06838
-21.01321
-22.65017
-23.28921
-22.80052
-21.84048
-23.65627
-25.40503
-22.09594
-17.40799
-20.28006
-22.61942
-25.30474
-28.00759
-22.56464
-16.17538
-12.46284
-7.792968
-2.467353
7.003483
11.65422
11.25214
10.78389
4.824984
-5.568142
-14.67766
-26.20402
-50.67673
-103.8936
-156.127
-159.8299
-68.04851
-23.53692
-41.9268
-66.27834
-93.99134
-118.5378
-121.1395
-107.4496
-101.5679
-103.2677
-107.2242
-111.2285
-114.2149
-115.7692
-115.7629
-115.4437
-114.1433
-112.1426
-109.0056
-105.3431
-101.6642
-97.14586
-92.14959
-86.43977
-80.41238
-74.01511
-67.15607
-60.36675
-53.58108
-46.368
-38.92792
-31.68128
-24.62229
-17.57416
-10.53723
-3.817848
2.871392
9.228513
15.28229
20.92677
26.19031
30.98913
35.35505
39.22234
42.58681
45.31794
47.59531
49.28707
50.42668
51.07856
51.04889
50.34001
49.12323
47.36392
45.03407
42.18353
38.82354
35.01635
30.64481
25.97285
20.92618
15.34325
9.572405
3.565777
-2.962308
-9.529725
-16.01464
-22.72738
-29.56277
-36.29245
-43.13593
-49.83515
-56.22437
-62.26921
-68.07468
-73.786
-78.95059
-83.74593
-87.97427
-91.73125
-95.08288
-97.64448
-99.41442
-100.4995
-100.974
-100.3891
-98.70766
-96.42485
-94.55169
-93.73822
-88.32581
-94.04232
-128.9597
-138.0678
-106.2248
-72.90024
-57.04995
-50.35834
-41.24704
-26.04938
-16.36043
-34.23629
-56.92942
-74.27903
-79.28593
-68.83309
-54.67799
-41.97138
-34.92908
-32.53441
-31.67444
-30.94493
-30.16852
-30.92571
-32.45877
-31.46675
-33.18903
-36.25317
-37.40326
-36.86814
-34.86332
-31.46792
-26.95432
-22.51454
-19.18817
-18.23232
-19.19009
-21.06903
-22.70944
-23.39871
-23.13166
-22.40676
-23.66152
-24.72529
-21.33735
-16.9397
-19.41876
-22.79103
-26.65314
-29.21848
-23.55733
-17.03133
-13.07983
-8.292045
-3.26199
5.866378
10.9241
11.68646
11.05455
4.971664
-5.270542
-14.44662
-26.5018
-51.30854
-105.6716
-159.2256
-165.1512
-74.74416
-29.04513
-44.13535
-66.24358
-91.04608
-112.2871
-115.1786
-105.266
-100.8739
-102.1514
-105.6236
-109.1965
-111.9868
-113.5847
-113.6003
-113.4243
-111.8338
-109.8582
-106.7124
-102.9691
-99.41646
-94.88328
-90.0159
-84.3304
-78.32398
-72.07314
-65.34844
-58.62823
-51.91289
-44.85457
-37.56013
-30.40056
-23.39406
-16.54221
-9.581079
-3.013321
3.597935
9.812873
15.76801
21.4004
26.54634
31.24054
35.51867
39.31992
42.70523
45.33755
47.57139
49.24304
50.34553
50.98125
50.95721
50.26915
49.04397
47.31003
45.02081
42.22377
38.94231
35.20127
30.85056
26.27488
21.3533
15.84812
10.11479
4.208316
-2.164328
-8.658119
-15.04959
-21.64345
-28.31645
-35.00781
-41.77529
-48.31695
-54.64269
-60.55776
-66.27713
-71.9644
-77.01649
-81.79798
-85.94519
-89.70675
-93.14182
-95.67648
-97.55745
-98.73606
-99.06601
-98.52122
-96.9979
-94.98926
-93.16637
-92.41901
-89.10507
-94.14413
-121.6243
-127.7597
-101.8872
-72.17477
-57.14519
-49.86285
-40.37369
-25.80524
-17.33353
-36.3387
-58.99438
-75.96754
-81.11192
-70.32461
-55.37951
-42.51245
-34.9895
-32.43048
-31.44394
-30.80286
-30.05752
-30.94963
-32.81959
-31.92179
-33.72257
-36.61281
-37.64796
-37.01734
-35.00738
-31.68632
-27.21264
-22.7855
-19.50731
-18.49476
-19.39431
-21.21586
-22.87654
-23.61059
-23.55342
-23.053
-23.66505
-23.90473
-20.39769
-16.24239
-18.52062
-23.06685
-28.3037
-31.12211
-25.49884
-18.14682
-14.05487
-9.304043
-4.537712
4.253179
10.05246
12.56191
11.85011
5.517627
-4.618538
-14.0132
-27.23893
-51.13043
-107.4718
-160.495
-167.813
-82.40154
-37.06958
-47.82574
-66.41496
-87.74334
-106.0301
-109.6094
-102.8638
-99.60825
-100.4428
-103.3868
-106.4075
-108.8064
-110.5061
-109.8913
-109.6671
-108.4224
-106.5773
-103.7081
-99.68865
-96.37806
-92.00092
-87.3419
-81.62242
-75.707
-69.8662
-63.32564
-56.32778
-49.82236
-43.20949
-36.09411
-28.73218
-21.87563
-15.47477
-8.479598
-2.152506
4.427489
10.37662
16.44028
22.05859
26.90744
31.46399
35.62607
39.42598
42.85494
45.30026
47.54387
49.17304
50.22946
50.85315
50.84994
50.14185
48.91599
47.18488
44.94689
42.20865
39.01695
35.44136
31.07682
26.56985
21.80679
16.58612
10.88804
4.760477
-1.319374
-7.498461
-14.01135
-20.53224
-26.77561
-33.33453
-40.36944
-46.47755
-52.80936
-58.55981
-64.10702
-69.79318
-74.60494
-79.42368
-83.33239
-86.96913
-90.43391
-92.80888
-94.5227
-95.48899
-96.28376
-95.9652
-94.68911
-93.02684
-91.35929
-90.79691
-89.01297
-93.1047
-113.2233
-116.7126
-96.41154
-71.30719
-58.11699
-49.61962
-39.63319
-26.37639
-19.46847
-39.4557
-61.70486
-78.45004
-83.48266
-72.05745
-56.22784
-42.72521
-34.83997
-32.1115
-31.02861
-30.5365
-29.95187
-31.06369
-33.27228
-32.6184
-34.52335
-37.1173
-38.00707
-37.22979
-35.25715
-32.04939
-27.63803
-23.18471
-20.05148
-18.95659
-19.57483
-21.44323
1.570843
0.9107253
-43.20037
-2.333702
9.60312
-2.922791
-1.375599
-0.2095844
7.136502
-1.079066
-4.267065
-0.3252553
-0.03628692
0.06923194
0.1396083
1.62144
-30.33645
-2.307295
0.6885032
-0.7178294
-40.8107
1.088443
0.9537859
-1.218584
-0.4027486
1.328393
-1.589444
-0.8551957
-5.573161
0.3574411
0.7976768
-25.03204
-4.316584
0.8995367
-0.3381907
-3.737777
1.795995
0.07303548
0.4555546
-4.681122
-18.08907
1.720527
0.832939
3.428723
27.71042
-0.154743
-1.265931
-0.923458
-1.54896
-0.7880242
-16.49661
1.435019
-37.30337
0.990723
-0.04897056
17.03953
0.5648632
1.728626
-10.9563
-14.36862
-0.7914629
-0.05273619
5.859667
1.056783
3.149972
1.224784
-37.48615
0.2284425
1.000833
0.8006231
-0.2017382
0.1127977
-16.24419
-48.06996
21.73622
0.2594638
3.555161
-1.833689
1.75446
0.8468052
-14.33763
0.4207943
2.289625
-12.48666
-6.865447
1.1597
-1.151562
-0.8366371
-15.13315
-0.3785528
-11.29409
24.02102
-2.69596
-9.886039
-0.4946647
-0.07162333
-7.603109
5.593339
-57.55569
-0.6874549
-0.04612079
-0.7370627
-1.494729
-74.65218
0.0575078
-21.78459
0.2532835
-0.1534013
-6.843391
-4.069887
-0.7553627
1.476166
2.893232
6.936502
-27.53343
0.119164
-1.394675
0.5455961
23.23051
-0.0362609
2.17577
0.8010545
-0.1952503
0.8704701
0.7497123
6.728076
0.6274723
-39.73772
-2.697511
1.537918
0.504929
-0.4972445
0.4960938
0.8100319
-1.625057
-30.88928
0.3089286
3.538136
0.2239868
-1.096876
-42.13744
0.5721148
-55.96945
1.008834
0.3273643
2.505768
-1.393796
-35.16572
0.2854437
-0.127142
-3.014488
-23.59632
-27.04589
1.399152
-4.018717
-65.68558
0.3861451
1.771498
0.8426886
-28.19245
1.356269
-28.38365
-2.438894
-2.07874
2.150185
-2.971986
-19.29222
1.511471
-38.59738
0.4633369
-0.9268955
-26.63228
1.202077
-47.15686
-5.285048
-3.200973
1.11803
-0.5047073
-22.22989
1.605236
14.18145
-0.5970178
0.6324951
0.06557418
4.052892
-40.16673
-0.6151587
0.2074279
-4.227683
0.7731862
0.03056359
0.1141093
-4.657817
-1.445443
0.3962991
0.07803274
1.034384
0.5784487
-1.355759
-29.34237
-1.016751
-1.008896
1.247832
0.9725297
-4.28475
-1.755005
-6.025314
1.521373
-7.627633
0.5367724
1.214377
-20.08304
-40.09542
0.707661
-2.093394
-11.62239
-9.752115
-0.5514466
10.14059
0.7548074
1.866879
-2.739756
1.940267
-24.29024
-2.337911
-3.960127
0.2489325
7.416584
-7.742254
15.98958
-8.840015
-28.9447
1.128183
0.282364
-57.84828
0.149543
21.34294
-0.6770599
1.967247
0.4836051
0.6726207
0.6910495
0.3317636
-15.26941
0.3808795
-4.43929
0.3540144
-51.60847
-2.201714
0.7889568
-28.87484
0.9493076
-1.21584
-0.5539513
2.202998
-23.48668
1.206428
0.8235234
-36.49509
-3.379206
-8.943291
0.2383489
-1.671508
-1.34133
-0.09279784
1.217838
0.3384508
0.2762534
-11.86327
-22.9035
1.883594
0.6825348
11.67787
-0.2367344
-17.54945
2.330567
0.5694361
-31.84346
-58.23319
0.01871144
0.3875
0.9058599
2.212428
1.163407
1.588283
1.438886
37.86154
0.06990943
0.9108151
0.8201044
-0.4063835
0.2636111
-0.302109
0.1329621
-46.59721
-4.027955
5.195632
0.1933809
0.5840957
0.3333125
-37.17753
1.133703
2.656899
-33.37479
0.1098023
0.1616229
0.7895242
0.2919036
-2.700611
-29.02133
-5.049905
-1.760209
0.6903701
-1.332454
0.01513349
-10.56512
33.35933
-46.60379
-26.12272
-80.86155
-0.1518421
1.16873
-1.656666
1.049345
-0.3243934
2.611501
0.4359224
-0.3480085
0.1194691
3.32039
18.28313
0.7179557
-6.437685
-43.96302
0.7313633
0.698116
1.08849
0.6401727
-1.911288
-6.357482
-55.38826
2.928124
1.064196
-1.431381
-11.48408
4.290067
-3.621876
-0.003659786
-9.414861
-1.394753
-10.36786
1.577881
11.72512
1.118172
0.4562153
-35.51241
-45.40144
0.6440816
0.9614819
0.9715225
-0.5523478
-4.682123
1.531181
1.409437
-0.4793014
0.9481284
0.4003835
1.743445
0.5249705
0.3009613
-2.221811
10.93799
-33.27351
0.2709719
1.012699
1.063809
0.277532
1.757753
3.189183
-0.2758625
1.423455
0.5566521
0.1342223
-18.24713
0.1186281
-0.4702222
-0.886879
39.79567
1.405025
0.9598112
-16.44991
0.07618626
2.286099
-70.02929
0.175431
-0.5292718
1.087447
3.588483
1.389337
0.1370251
1.144089
-0.862082
-25.58211
1.31719
0.9729579
-25.04039
-44.58152
-42.96406
0.544323
-2.70006
0.7312271
0.680108
0.6590127
-0.1120731
0.9654998
-0.3687813
2.358926
-3.165644
1.416429
-2.007244
-1.227721
0.2792051
2.6858
0.6474306
-0.01317918
-23.24939
1.887341
-0.2552229
-43.27714
-1.332786
-45.2553
-14.25637
-16.73087
1.083235
-0.8364
2.576438
0.4673939
-4.717097
0.2413433
-0.6652673
1.187658
0.5663397
2.990609
0.1991398
-3.497677
1.253931
0.43079
1.361288
-4.695722
-0.02602786
-0.3630619
-59.75957
1.873694
-13.64803
0.5410233
0.8897153
0.9052065
3.720537
1.363211
-15.46642
0.9453452
-46.22726
-1.546425
0.6753544
2.683123
0.6780745
27.62481
0.16853
2.159718
-1.111027
-9.051066
-0.6225815
0.9553802
6.718126
1.410962
-15.67939
-2.1935
-42.15233
0.6261861
0.02163433
-9.832438
-2.088479
1.356063
0.02037425
-1.424226
0.5981607
1.572543
15.26227
-2.764343
0.2735379
1.352065
-21.20056
-3.315686
0.7324003
-16.95215
0.5053266
1.410343
3.372709
0.5844959
2.9434
0.6055911
-0.04123423
-26.48851
-3.927986
1.876854
1.273189
-0.2961311
-5.54122
-3.361252
3.396658
-21.13212
0.5929881
9.311558
-1.24445
2.144516
1.416335
2.303215
0.7866969
0.438967
0.8559689
0.6358252
0.2466274
-2.793035
1.140905
-0.4661787
-0.1228904
0.1339495
0.2899311
2.57461
-5.992067
-22.71241
-4.647223
-22.21269
0.6964468
3.310267
3.96756
2.829563
-4.959905
1.386293
0.7039677
4.204094
1.280469
0.6896873
2.73908
-58.05151
1.653065
3.398764
1.049601
0.6075635
7.848748
1.352178
9.134828
-22.75587
-2.744268
-2.669446
0.6139733
-0.858455
-11.68055
14.87787
-11.5165
-23.7145
-1.688884
2.610778
1.093412
0.6953963
1.836678
0.09964809
3.262003
26.89541
1.660169
1.106988
1.997257
2.646635
-52.81058
-0.03410702
1.933755
-0.612705
1.526514
0.6330145
1.52924
3.565553
1.282706
4.902537
0.100081
-10.55311
-19.05033
-3.647864
-2.095915
-68.67551
-3.026544
-0.3554191
-22.78032
0.3513292
-0.5486636
1.419561
0.4749024
0.5492065
-63.97062
2.511377
1.347068
1.205892
3.080346
-5.652802
0.2832492
3.001425
-22.19128
-11.66831
-0.07241248
-25.30949
-1.551945
4.445651
0.651376
-60.82316
2.143527
7.623456
-1.775775
-0.1797255
-2.820235
-3.746271
2.667754
4.68016
1.510231
0.2691156
-3.942386
-0.6811742
17.01066
2.07739
0.06051234
0.7192168
-1.785232
0.5380711
-6.908442
-12.19467
-16.55312
-36.95498
-6.710287
-3.968196
-0.3071815
-0.185769
1.655141
1.178921
1.738809
-2.289802
-28.00128
1.070202
1.04786
-0.08457948
-32.50089
0.01360798
24.45627
3.069932
-39.70874
0.9117128
-11.97488
6.44577
-2.128606
-24.745
-0.8902159
-0.02448123
-21.16354
-1.324548
-1.179315
0.5739369
-1.158044
1.520316
0.3175468
-4.405696
0.534756
1.370239
-5.438551
1.415024
-0.9819467
-74.827
-0.1681911
0.8763203
0.9507055
-3.697809
2.249845
0.311599
8.009612
13.89728
13.13149
1.471182
-2.156954
1.75879
2.408904
0.5121095
-1.899036
1.976271
1.468924
-27.55399
1.198347
-31.77473
1.423834
1.027411
-0.6458243
-33.02598
1.611049
-0.2365643
-1.500573
-2.06365
-6.252078
-5.994168
-6.442173
3.779189
-3.059942
0.5574878
0.9870486
-25.38237
-3.232333
1.049638
0.6387175
2.211072
0.8427704
-5.884144
0.001165964
0.07389714
-41.97191
0.7635494
-3.77289
-3.72851
1.496502
-0.01017357
1.10848
0.9505048
-0.6707055
-0.07389636
-21.94253
1.555784
1.218683
-0.5044646
-0.1717671
0.901669
0.04525162
0.8304998
1.732751
-0.9413887
2.496337
-43.40652
-0.6626918
0.1809692
-5.578258
-0.4009939
0.07975965
3.788682
0.7136734
-44.32549
1.557541
-1.728093
5.94045
2.721285
-19.70586
-5.171793
-2.338145
-5.609186
2.706198
-3.188757
-12.65659
-20.35275
-4.283877
-3.404561
-2.326068
0.889889
13.27138
1.664371
1.626522
-13.04493
-1.54436
0.373424
0.9019348
-6.60463
21.47327
-15.83778
0.1157258
1.211618
-0.6528042
0.4698202
-19.21861
-8.349281
1.378567
1.632736
-0.604022
2.102084
-3.633218
5.890752
0.10039
0.8520619
1.44357
1.989327
0.01166833
-0.4620864
-19.66642
29.88006
1.423069
2.408264
0.2476122
0.07358911
-23.59157
0.3707138
-40.28728
0.01839586
-48.07727
-11.0626
-0.03890037
1.55902
1.184724
-9.727631
0.6897744
-1.331678
-0.1456501
2.072567
-12.05726
-60.52596
1.199635
-0.6499266
-1.967771
0.3788948
-0.5720965
1.041801
-16.30925
-2.703725
13.25557
0.2949329
-0.03841964
-0.04931292
-0.1122143
1.754895
-1.610508
0.4500701
-0.9208056
-21.34022
-0.2132444
8.041548
-27.0952
0.8265603
0.9735764
-17.85708
0.1963915
0.06541282
1.374435
-3.308806
-1.724031
1.351491
1.700395
0.6317944
0.8788363
2.79223
-0.04316113
1.327951
31.74029
0.1499603
-1.761426
3.277794
-73.48924
-0.2191506
1.347245
1.206005
0.03125846
33.37968
-0.02035888
0.3328997
-11.06933
-0.1176213
1.045115
0.4197523
0.9977606
1.143263
-24.2432
-13.42559
0.8512884
-3.445035
-14.99086
-12.45294
-4.005855
0.7955107
-10.64051
4.230304
31.10512
1.710694
0.2452612
-0.2236558
0.956338
1.004541
7.819647
-1.087006
0.9881911
-7.499429
-0.2327688
-0.01889214
-1.013673
1.52295
-9.088283
-17.98631
-30.52188
2.082979
-2.695338
-18.12622
-1.596442
1.134441
0.1506768
-14.48317
0.6820021
1.939937
10.70501
-16.14439
4.058267
-0.4877219
-0.05791387
-14.15808
24.16404
-6.706707
0.2561637
-5.982916
-27.27559
0.315776
-3.100113
1.453369
0.8744367
0.3037099
-28.58963
-5.181313
1.624019
-7.152838
2.088877
-0.07379041
-31.19437
-23.11991
-55.90227
1.900555
-38.12135
3.076094
0.09172825
-20.3199
-0.07644997
-0.8396635
-28.47524
0.007157602
0.6486677
-2.936105
2.967851
-23.96177
-25.54401
-33.22694
3.027932
14.28152
0.736668
-0.009212697
-21.99013
20.61971
-32.43375
0.5141264
0.2718345
1.875092
1.685352
-2.931549
-3.048989
-1.814754
-0.1379475
-1.367495
-51.57286
-57.23588
-0.8639377
0.3663068
1.823164
-13.39348
0.002399821
2.113009
1.023985
1.565015
0.4542832
0.4489592
1.339375
-2.762636
1.202354
-10.72979
0.943088
1.251806
-46.95749
1.247512
0.08805809
-3.145177
-26.35041
-3.958441
-2.131736
2.267453
-15.42951
-40.43914
32.01149
46.13227
1.826345
-1.303983
0.8093901
4.83519
1.220264
-3.225977
11.35517
-30.30518
1.477216
0.2958276
-0.4536037
1.652559
-0.08048014
4.307803
-0.2680434
-26.04838
-49.66604
-0.217389
0.8458327
-0.475563
1.69213
1.051864
-28.80556
-0.3368198
1.188484
0.5456713
-1.377965
1.746273
0.07747173
-38.76774
-24.61551
1.252281
1.640479
1.214204
1.659277
1.284733
1.369625
-0.5546712
-67.95228
0.6520159
-21.24675
-61.56891
0.2254346
-0.2550808
-48.04658
-63.28892
-0.8806591
1.132138
1.329029
0.8258222
-1.705248
-10.69286
-7.525669
0.04119412
0.4255887
-3.978269
1.528893
-1.198377
0.3383821
1.066487
-0.4111255
1.408447
1.423082
-1.166828
-1.666683
0.9549851
0.1930997
2.99592
-0.6837308
-3.172664
2.817737
0.2403104
0.3331242
0.3023715
-0.2665715
0.4126534
-25.25644
-23.36881
0.5699798
0.1428513
-2.86027
0.5671323
-26.57657
-10.16556
-25.94304
-28.55697
23.21059
1.160927
2.878883
-6.377075
-19.62998
0.657833
2.904452
-90.40293
-16.22723
0.8890764
-20.73038
3.336959
4.092443
-0.624319
-0.3197361
-43.13412
1.640681
-26.32852
0.6234752
0.210011
36.53722
-11.03586
-6.060669
1.17522
1.152999
1.045248
7.463258
1.859423
7.286088
-1.713214
0.8424438
-9.772918
2.314403
-2.049402
0.9859107
-23.12385
0.4264273
-58.88916
7.332553
1.486999
10.89366
0.4788624
30.57138
1.418222
-0.9198311
0.6617282
-2.234513
15.06273
-2.211439
3.053738
0.6525269
-0.2840033
0.02865009
-0.01376658
-0.1035255
-11.5805
-1.065095
1.814765
-34.56896
-0.8118603
20.43128
3.6051
1.943127
-37.65789
-17.70766
-5.10851
-24.9746
38.99767
1.125176
0.3702473
-34.65583
0.7134539
-14.12102
-2.493459
0.00717489
-22.59872
-70.70024
-35.68386
0.8476448
3.309083
1.567436
0.9396267
1.098173
0.3522832
3.104761
2.193761
0.3133353
-1.62128
0.9446828
1.796691
-10.27117
1.427382
-0.09324186
0.2324547
-50.56835
-0.5701177
0.4391363
1.162269
0.04564753
-31.61027
1.434293
-11.86187
0.7478462
-2.402115
0.806505
-5.275139
0.880405
1.445509
-46.25107
28.2015
-1.686933
-0.6146877
2.379146
-1.135184
0.6675698
0.1748367
-13.82431
0.3358919
0.9955055
18.48765
0.6223084
-14.32363
-5.625847
-2.637566
1.464263
2.352272
-0.4724694
0.6253125
-18.89445
-33.56088
-27.11391
-9.267838
0.2872686
1.486726
-0.2815345
1.14903
0.4795861
-21.69266
0.2596985
0.05324516
0.3132358
-10.04039
0.9468428
1.916574
2.381961
-60.00533
0.3962709
-3.239177
0.6434898
-73.43321
0.9867636
-30.74577
0.5082229
0.6983402
-0.0287052
-0.05913881
1.6962
-26.83321
-47.55208
1.609939
0.795031
13.67179
1.303393
1.902078
1.789094
2.156943
-1.427178
0.4623989
0.7932281
-43.9395
-35.90668
-5.398405
0.5639162
1.832007
-0.6403137
0.5194842
0.6739224
0.3651474
-12.29214
0.4221347
-6.142399
10.13624
1.567246
-11.1352
0.06432783
1.684212
-1.106227
-27.12285
-0.4265302
-1.486267
0.2968888
-16.67835
-39.64596
-39.04049
0.6103357
-23.06801
0.3277901
-4.223117
-2.563254
-0.5574457
15.91616
-4.766586
-41.14034
-64.52487
-6.766565
-18.6654
-1.26916
-11.92753
-18.50173
-8.982172
-2.362262
2.713994
-3.547152
-13.90634
-0.07772004
0.5869226
-3.060571
2.605363
-0.7236137
0.4578946
-0.1999519
0.3877599
0.7806943
-11.51735
-0.9434991
1.292161
-0.6890638
0.6398275
-44.76409
1.894013
-5.135082
2.210496
1.618285
2.165811
-17.4099
-6.264265
0.2115665
-5.041918
0.261427
10.30613
-49.74199
-19.13708
0.1217231
-0.05946251
16.50205
-1.625686
1.207208
1.052026
-2.79573
0.8605551
-48.5912
-27.81494
-17.56032
12.86651
9.054027
0.5994901
-44.83703
-41.38524
-62.38532
1.743149
-6.715988
-1.701778
-1.037212
2.051577
0.3615568
0.5170011
0.7023187
1.125261
1.531349
1.214872
0.7744642
-23.66811
0.921444
-0.260541
-0.07628752
-5.131995
19.35587
-1.187265
-0.9871048
-31.1294
-14.71639
9.914329
1.249441
-8.411257
-11.85004
-56.90483
0.1550748
-32.60429
0.9769107
-57.52087
-25.44387
-3.217207
-0.9609417
4.339441
1.896077
14.02209
0.7346204
-10.21247
1.733925
0.339481
1.19242
-5.37599
0.03000649
0.03217526
-0.6027805
-36.62547
-10.00294
0.1985731
-4.13184
1.47553
1.305981
-12.77484
3.355825
-47.15019
-1.08894
0.6862579
25.71162
0.4363797
0.8929434
-18.31071
-1.904117
-37.83784
-2.320212
-14.39449
0.2777905
0.0874859
-2.401363
1.331538
1.926037
3.914958
1.503536
0.594175
0.6142783
17.28923
2.2369
-20.89165
7.151416
-3.505839
0.4841835
-69.06068
0.5043919
1.079539
2.272375
1.540378
-14.82962
-48.60779
-50.83074
-39.03706
0.04212683
0.6911551
-46.12668
0.5943579
-22.25766
1.144887
1.081169
-16.33173
-32.21399
-0.06043488
-69.83005
0.4115951
-5.200288
1.043723
-2.361393
9.517406
0.05843017
-0.8210708
-0.9003449
1.03358
-0.5819563
16.4391
-1.062482
-11.78439
0.1630061
-1.199478
0.2070842
-3.827136
-20.35771
-0.3962364
1.655194
-3.481061
0.3384993
0.235007
-51.28747
-0.2928863
1.409144
-5.314072
-3.749818
0.9227105
0.951045
2.564843
-0.3902804
-3.988135
-62.28608
26.99386
-8.086971
-4.902805
-6.965996
-28.3323
0.3828101
0.232633
-3.404625
1.035817
-0.1399768
0.5900434
-0.3213782
-27.87365
-0.4585936
20.6241
31.78778
1.463045
4.099673
3.773863
2.132248
0.942514
0.6697732
32.20669
-46.56442
0.8085992
0.01167318
1.404062
-3.97348
1.166336
1.456895
1.574065
0.7439334
1.906158
-47.1827
-0.03142901
0.858456
0.5095955
25.29395
-11.38084
-2.278166
0.6985058
-67.61708
30.68631
-39.79348
0.1010126
-10.46234
-5.053377
0.8940167
1.083543
31.86825
-0.497338
1.796848
-3.661992
-0.6007639
-3.761734
9.050069
-0.6149891
0.5020262
1.229483
1.162051
19.31601
-8.188127
-0.5222568
-3.264623
0.8423705
-16.34739
19.85747
2.647268
7.535245
-54.88909
-18.46061
0.3045434
1.22707
-29.25516
2.351565
-35.16929
-4.539472
-5.248166
1.271594
-0.3745337
-5.202401
-10.98115
4.829805
-1.141
-9.919104
-7.392417
1.06486
-2.459584
-51.41709
-16.46812
-0.2272127
2.640896
0.007483155
0.4836082
2.872817
2.073387
0.7599725
0.1578348
-42.5642
-19.58265
-1.859205
-1.460237
-42.40714
0.8085574
1.088549
-8.847633
3.205848
0.5004719
0.7744955
36.16907
0.7363406
0.1661706
0.2111768
0.6066451
-3.786663
-27.22256
-41.26707
12.79288
1.156344
1.271895
0.09267878
-0.06573726
1.12053
0.7065397
-0.5753952
0.2656626
0.361064
0.413222
-18.82074
-0.3782682
11.71221
8.090683
-6.153004
1.100361
-1.253886
-0.9832841
0.9870872
-1.195916
4.31983
-39.93354
-27.09683
0.9743016
-0.8430962
-65.58149
41.43899
-77.28966
0.8380464
1.248756
3.803678
-7.062818
8.20444
-21.19072
-19.64752
3.244737
-0.05684179
2.67489
0.03134417
-4.374081
-0.1160683
-85.1115
0.1805826
0.1503237
-0.802293
-0.3581136
-76.78288
-12.45753
-34.0344
0.9399552
14.24871
-0.5340295
1.346072
1.384187
0.5111401
-42.09695
0.9337702
2.84124
28.16001
-0.7564614
-0.3048937
0.2003983
23.70373
0.7594239
3.716246
2.507868
2.601162
1.058488
0.3086884
-81.55023
0.9708895
-71.79976
1.775682
-2.384778
45.18834
-2.01074
0.3487147
0.4542329
2.935021
-7.73947
2.557022
-78.52689
43.56238
2.293809
-5.823303
45.2783
0.9111518
0.6243577
0.3952037
-20.01211
0.02318992
1.985709
-2.980579
1.603043
-13.53356
-48.34302
0.3504914
0.3151103
-4.993736
-0.2877218
14.56361
-0.01051122
0.02417025
-0.2982782
0.07143565
-0.02913598
-0.04313873
-0.08497835
0.5658463
0.6657945
0.7290301
-25.96424
-83.08485
-23.2792
-29.6451
-56.61919
-0.470663
-4.001305
0.5002016
0.9592252
3.329852
-43.62784
2.263872
26.95757
-15.78418
0.9388101
-19.73444
2.889488
-2.224507
-9.476308
-17.38464
1.809233
-83.2011
2.589445
-0.4119221
-1.25489
1.176377
1.173067
-10.87709
0.859002
1.022762
0.145646
-0.06073646
2.392151
-0.03184527
0.1541451