/*--------------------------------*- C++ -*----------------------------------*\
| =========                 |                                                 |
| \\      /  F ield         | OpenFOAM: The Open Source CFD Toolbox           |
|  \\    /   O peration     | Version:  2406                                  |
|   \\  /    A nd           | Website:  www.openfoam.com                      |
|    \\/     M anipulation  |                                                 |
\*---------------------------------------------------------------------------*/
FoamFile
{
    version     2.0;
    format      ascii;
    arch        "LSB;label=32;scalar=64";
    class       surfaceScalarField;
    location    "2.54";
    object      phi;
}
// * * * * * * * * * * * * * * * * * * * * * * * * * * * * * * * * * * * * * //

dimensions      [0 3 -1 0 0 0 0];

oriented        oriented;

internalField   nonuniform List<scalar> 
23794
(
0.004524325
-0.004286496
-0.0002378293
0.003422651
0.001101674
0.001079039
0.002343611
-0.0005283391
0.001607378
-0.001267169
0.0007388302
-0.0016028
0.0003356304
-0.0003150821
-0.001287718
0.002044054
-0.002359136
0.002424578
-0.0003805236
0.0007067886
0.001717789
-0.001777771
0.002484559
-0.002939396
0.001161626
-0.001593186
-0.00134621
0.0002427896
-0.001835976
0.001472463
-0.001229673
0.001870992
-0.0003985299
0.0004287804
0.001442212
-0.001533754
0.001962534
-0.002644738
0.001110985
-0.003342284
0.0006975453
-0.001926757
-0.001415527
0.0007908222
-0.002717579
0.002660311
-0.001869489
0.003983109
-0.001322798
0.005958409
-0.0019753
0.009363173
-0.003404765
0.01257175
-0.003208582
0.01155518
0.00101657
0.001459487
0.0100957
-0.006635369
0.008094856
-0.003505416
-0.003129953
0.001533178
-0.005038595
0.005200693
-0.003667515
0.0081502
-0.002949507
0.007471105
0.0006790958
0.003714944
0.003756161
0.0007221067
0.002992837
-0.003365246
0.004087353
-0.008362834
0.004997588
-0.01156466
0.003201827
-0.01321274
0.001648077
-0.01414401
0.0009312719
-0.01474598
0.0006019718
-0.01515476
0.0004087824
-0.01543439
0.0002796288
-0.01552388
8.94838e-05
-0.0155215
-2.380725e-06
-0.01547415
-4.734936e-05
-0.01538144
-9.270425e-05
-0.0152734
-0.0001080448
-0.01510707
-0.0001663293
-0.01490077
-0.0002062947
-0.01463658
-0.0002641963
-0.01434954
-0.000287036
-0.01404648
-0.0003030564
-0.01368975
-0.0003567364
-0.01331419
-0.0003755591
-0.01293195
-0.0003822379
-0.01248572
-0.0004462331
-0.0120176
-0.0004681145
-0.01152497
-0.0004926291
-0.01102704
-0.0004979315
-0.01050917
-0.0005178691
-0.009941822
-0.000567352
-0.009383506
-0.0005583162
-0.008784895
-0.0005986107
-0.008169017
-0.0006158783
-0.007549407
-0.0006196097
-0.006922394
-0.0006270134
-0.006264285
-0.0006581093
-0.005605579
-0.0006587056
-0.00494041
-0.0006651685
-0.004263287
-0.0006771236
-0.003589935
-0.0006733519
-0.002932554
-0.0006573811
-0.002235751
-0.0006968028
-0.001547124
-0.000688627
-0.0008506147
-0.0006965095
-7.676746e-05
-0.0007738472
0.0006978627
-0.0007746302
0.001400489
-0.0007026262
0.002089562
-0.0006890731
0.002774126
-0.0006845638
0.00344392
-0.0006697938
0.004114775
-0.0006708552
0.00476753
-0.0006527555
0.005432157
-0.000664627
0.006076821
-0.000644664
0.00668797
-0.0006111485
0.007302578
-0.0006146082
0.0079038
-0.0006012216
0.008482315
-0.0005785156
0.009056885
-0.00057457
0.00961601
-0.0005591246
0.01012182
-0.0005058135
0.01062165
-0.0004998257
0.01110531
-0.0004836596
0.01154749
-0.0004421819
0.01198892
-0.0004414323
0.01237862
-0.0003896937
0.01273958
-0.0003609682
0.01306088
-0.000321295
0.0133387
-0.0002778183
0.01360925
-0.0002705548
0.01384119
-0.0002319416
0.01403208
-0.0001908888
0.01417875
-0.000146663
0.01428036
-0.0001016137
0.01434698
-6.661875e-05
0.01433839
8.588917e-06
0.01427062
6.777301e-05
0.01408013
0.0001904899
0.01367206
0.000408069
0.01299066
0.0006814021
0.01182547
0.00116519
0.009625244
0.002200221
0.005794285
0.00383096
0.001221435
0.004572849
0.0002373055
0.0009841299
0.001315677
-0.001078372
-0.001533775
0.002849452
-0.007501242
0.005967467
-0.009183348
0.001682106
-0.006437329
-0.002746018
-0.003807272
-0.002630057
-0.002460734
-0.001346538
-0.00166429
-0.0007964438
0.0003145945
-0.001978885
0.003169776
-0.002855182
0.00386045
-0.0006906734
-0.0001750597
0.00403551
-0.003447696
0.003272637
-0.004824281
0.001376585
-0.005129096
0.0003048155
-0.00355914
-0.001569956
-0.001648138
-0.001911003
0.0005733417
-0.002221479
0.002105209
-0.001531867
0.002111321
-6.11203e-06
0.001284738
0.0008265828
0.0009368933
0.0003478451
0.001420927
-0.000484034
0.00179004
-0.0003691124
0.001045606
0.0007444336
0.0004165629
0.0006290432
-0.0006969102
0.001113473
-0.002303069
0.001606159
-0.003159329
0.0008562597
-0.003244828
8.549939e-05
-0.002972648
-0.0002721809
-0.002417556
-0.0005550916
-0.001506724
-0.0009108324
-0.0003055535
-0.00120117
0.001086658
-0.001392212
0.002396004
-0.001309345
0.003489706
-0.001093702
-0.0007967898
0.006273146
-0.005536172
-0.0009748039
0.006341755
0.001033065
0.004019882
0.004665485
-7.249193e-06
0.005634509
-0.002160326
0.002891907
-0.002351498
0.0005268024
-0.0008989454
-0.00274027
0.002069099
-0.00532718
0.003336296
-0.001647721
0.000539538
0.004514547
-0.003289257
0.006313355
-0.003965174
0.001837542
-0.00202083
-0.003290554
0.0002752061
-0.004132011
0.001843477
-0.002797943
0.002723324
-0.001278377
0.001514717
0.002650818
-0.001990151
0.005467402
-0.005068781
0.004189615
-0.00514394
0.0007727039
-0.002302755
-0.004256711
0.0007069394
-0.005727274
0.002599852
-0.003762402
0.00406379
-0.002786736
0.00619954
-0.00411105
0.009999637
-0.007204862
0.01338263
-0.00659157
0.01475669
-0.0003574925
0.006054308
0.01879808
-0.005598427
0.01974759
-0.005531658
-0.003196722
-0.002080861
-0.008489392
-5.803597e-05
-0.00569034
0.002318577
-0.005326121
0.004775008
-0.001777334
0.002172286
0.006358882
-0.007441416
0.01260654
-0.01625569
0.01290162
-0.0205728
0.009314699
-0.02198604
0.004615069
-0.02233254
0.001994581
-0.02242466
0.00102339
-0.02241772
0.0005950253
-0.02235824
0.000349302
-0.02226724
0.0001886308
-0.02207023
-0.0001075219
-0.02185958
-0.0002130289
-0.02163416
-0.0002727689
-0.02136011
-0.0003667555
-0.02107228
-0.0003958733
-0.02072402
-0.0005145971
-0.02033649
-0.0005938223
-0.01988637
-0.0007143163
-0.01941225
-0.0007611509
-0.01892827
-0.000787042
-0.01838638
-0.0008986211
-0.01782139
-0.0009405517
-0.01725408
-0.0009495498
-0.0166132
-0.001087108
-0.01595184
-0.001129475
-0.01526218
-0.001182291
-0.01456581
-0.001194307
-0.01385235
-0.001231326
-0.01308002
-0.001339687
-0.01232
-0.001318333
-0.01151806
-0.001400546
-0.01069406
-0.001439886
-0.009869167
-0.0014445
-0.009040285
-0.001455895
-0.008173526
-0.001524868
-0.007305236
-0.001526995
-0.006432328
-0.001538077
-0.005546359
-0.001563093
-0.004667026
-0.001552685
-0.003805265
-0.001519142
-0.002901308
-0.001600759
-0.002003183
-0.001586752
-0.001093524
-0.001606169
-9.924933e-05
-0.001768122
0.0008963864
-0.001770266
0.001812917
-0.001619156
0.00271208
-0.001588236
0.003603524
-0.001576008
0.004480427
-0.001546696
0.005359945
-0.001550373
0.006218806
-0.001511617
0.00709148
-0.001537301
0.007942418
-0.001495602
0.008752951
-0.001421682
0.009569658
-0.001431316
0.01037499
-0.001406549
0.01115212
-0.001355647
0.01192513
-0.001347586
0.01268544
-0.001319432
0.01338287
-0.001203238
0.01407745
-0.001194415
0.01475415
-0.001160353
0.01538458
-0.001072612
0.01601624
-0.001073094
0.01658743
-0.0009608814
0.01713359
-0.0009071265
0.01763558
-0.0008232906
0.01809001
-0.0007322489
0.01854308
-0.0007236254
0.01895554
-0.0006443956
0.01932341
-0.0005587632
0.01964661
-0.0004698603
0.01992384
-0.0003788472
0.02016813
-0.0003109032
0.02035418
-0.0001774671
0.02054815
-0.0001261916
0.02071807
2.056703e-05
0.02079493
0.0003312076
0.02079811
0.0006782233
0.02068399
0.001279306
0.02012742
0.002756795
0.01785808
0.006100304
0.01385835
0.008572577
0.008642821
0.006199656
0.003162352
0.004402098
-0.002968551
0.008980355
-0.006987435
0.009986351
-0.006420526
0.001115197
-0.003347387
-0.005819157
-0.0006849213
-0.005292522
0.0003651825
-0.002396642
0.0007008499
-0.001132111
0.002021725
-0.00329976
0.004968596
-0.005802053
0.004540566
-0.0002626431
-0.001525052
0.01010113
-0.005193044
0.006940629
-0.006312074
0.002495614
-0.00648545
0.0004781915
-0.004559755
-0.003495651
-0.00223248
-0.004238278
0.0005170819
-0.004971041
0.003029835
-0.00404462
0.004310404
-0.001286682
0.00374387
0.001393117
0.002355126
0.001736589
0.001967719
-9.662735e-05
0.002418801
-0.0008201942
0.001692439
0.001470796
-0.0001241765
0.002445659
-0.002480145
0.003469441
-0.004029513
0.003155527
-0.004323417
0.001150164
-0.004145912
-9.200576e-05
-0.003746017
-0.0006720758
-0.002980612
-0.001320497
-0.001801399
-0.002090045
-0.0002729717
-0.002729598
0.001463418
-0.003128601
0.003109579
-0.002955507
0.004529897
-0.00251402
-0.001803065
0.007501604
-0.006790628
-0.00168578
0.007971754
0.0005629152
0.006800144
0.005837095
0.002265439
0.01016921
-0.001818362
0.006975708
-0.002622111
0.001330551
-0.001123892
-0.004238489
0.002088057
-0.008539129
0.003516024
-0.003075689
-0.0001520067
0.008182578
-0.004355632
0.01051698
-0.004730943
0.002212853
-0.002602247
-0.005419251
0.0002009795
-0.006935237
0.002173433
-0.004770397
0.003196442
-0.002301386
0.002279329
0.003567931
-0.001779545
0.009526277
-0.006251814
0.008661883
-0.006201054
0.0007219442
-0.002875861
-0.007581903
-5.747623e-05
-0.008545659
0.00165981
-0.005479687
0.003002074
-0.004129
0.005107133
-0.006216108
0.009461571
-0.0115593
0.01366852
-0.01079852
0.01554955
-0.002238522
0.00868407
0.02566356
-0.003162666
0.03159433
-0.008743452
0.002384065
-0.01000445
-0.007228399
-0.009855649
-0.005839136
-0.00721618
-0.007965589
-0.005634919
-0.003358595
-0.01060702
0.01133098
-0.0201745
0.02217402
-0.02557911
0.01830624
-0.02622481
0.009960397
-0.02609036
0.004480615
-0.02616816
0.002072385
-0.02627208
0.001127311
-0.02634302
0.0006659593
-0.02636134
0.0003676277
-0.02633986
0.0001671506
-0.02616056
-0.0002868232
-0.02593186
-0.0004417309
-0.02567556
-0.000529064
-0.02536237
-0.0006799456
-0.02503451
-0.000723739
-0.02463121
-0.0009178966
-0.02418214
-0.001042886
-0.02365632
-0.001240141
-0.02310147
-0.001316003
-0.02253591
-0.001352602
-0.02189774
-0.001536788
-0.02123174
-0.001606554
-0.02056451
-0.001616775
-0.01980594
-0.001845684
-0.01902288
-0.001912535
-0.01820537
-0.001999797
-0.01737939
-0.00202029
-0.01653278
-0.002077933
-0.01561305
-0.002259419
-0.01470957
-0.002221809
-0.01375305
-0.00235707
-0.01277004
-0.00242289
-0.01178512
-0.002429421
-0.0107949
-0.002446118
-0.009758526
-0.002561242
-0.00872003
-0.002565491
-0.007675091
-0.002583016
-0.00661501
-0.002623174
-0.005561994
-0.002605702
-0.004530409
-0.002550727
-0.003450934
-0.002680234
-0.002378542
-0.002659144
-0.001293757
-0.002690954
-0.0001176578
-0.00294422
0.001062114
-0.002950038
0.0021591
-0.002716143
0.003236958
-0.002666094
0.004304935
-0.002643985
0.005355549
-0.00259731
0.006408217
-0.002603041
0.007435107
-0.002538507
0.008478097
-0.002580291
0.009493951
-0.002511456
0.01046111
-0.002388842
0.01143531
-0.002405511
0.01239467
-0.002365907
0.01331977
-0.002280749
0.01424016
-0.002267979
0.01514409
-0.002223363
0.01597167
-0.002030822
0.01679635
-0.002019092
0.01759878
-0.001962779
0.0183444
-0.00181823
0.01909327
-0.001821969
0.01976736
-0.001634974
0.02041235
-0.001552118
0.02100339
-0.001414329
0.02153571
-0.001264562
0.02206818
-0.001256104
0.02254934
-0.001125555
0.02297867
-0.0009880899
0.0233534
-0.0008445914
0.02367328
-0.0006987217
0.0239542
-0.0005918219
0.02415759
-0.0003808584
0.02434487
-0.0003134765
0.02447024
-0.0001048007
0.02446667
0.0003347775
0.0243984
0.0007464883
0.0243253
0.001352412
0.02447497
0.002607119
0.02461064
0.005964642
0.02371711
0.0094661
0.01977057
0.0101462
0.01046594
0.01370673
-8.516758e-06
0.01945481
-0.002858201
0.01283604
-0.0006985129
-0.001044492
0.002017555
-0.008535225
0.00515547
-0.008430438
0.006262513
-0.003503685
0.005763471
-0.0006330688
0.005505903
-0.003042192
0.006558203
-0.006854353
0.004086115
0.002209445
-0.002537992
0.01672523
-0.005888191
0.01029083
-0.007422609
0.004030031
-0.007749824
0.0008054073
-0.005544864
-0.005700611
-0.002923935
-0.006859207
0.0001528719
-0.008047848
0.003027729
-0.006919477
0.00509941
-0.003358363
0.005357498
0.001135029
0.003818053
0.003276034
0.002819308
0.0009021173
0.002930482
-0.0009313682
0.001817795
0.002583483
-0.000962555
0.005226009
-0.003782796
0.006289682
-0.004901167
0.004273898
-0.005095399
0.001344396
-0.004958093
-0.0002293124
-0.004433536
-0.001196633
-0.00349474
-0.002259293
-0.002048265
-0.00353652
-0.000193171
-0.004584692
0.001877776
-0.005199548
0.003850742
-0.004928473
0.005539105
-0.004202383
-0.003054588
0.009202309
-0.008366667
-0.002521422
0.009636775
0.0001284488
0.009369075
0.006104795
0.005784512
0.01375378
0.0005191328
0.01224109
-0.001622417
0.003472101
-0.0007729053
-0.005088001
0.002001005
-0.01131304
0.002894731
-0.003969415
-0.001465246
0.01254256
-0.005603476
0.01465521
-0.005751859
0.002361236
-0.003301579
-0.00786953
5.237877e-05
-0.0102892
0.002563326
-0.007281344
0.00385948
-0.00359754
0.003041989
0.004385423
-0.001256036
0.0138243
-0.006793661
0.01419951
-0.007157264
0.001085547
-0.003865562
-0.01087361
-0.001443089
-0.01096813
-0.0003226631
-0.006600113
0.0007754208
-0.005227084
0.003038727
-0.008479414
0.00839599
-0.01691656
0.01350348
-0.01590601
0.01501394
-0.003748983
0.008949241
0.03172826
-0.002585306
0.04312887
-0.01403593
0.01383469
-0.02048845
-0.0007758769
-0.02286475
-0.003462837
-0.02285858
-0.00797176
-0.02372107
-0.002496109
-0.02722017
0.01483008
-0.03092374
0.0258776
-0.03145988
0.01884237
-0.03095415
0.009454669
-0.0312543
0.004780764
-0.03161558
0.002433673
-0.0318358
0.001347523
-0.03194635
0.0007765126
-0.03196113
0.0003824103
-0.03191827
0.0001242901
-0.03167118
-0.0005339123
-0.03136999
-0.0007429259
-0.03103704
-0.000862015
-0.03063601
-0.00108097
-0.03022085
-0.0011389
-0.02971824
-0.001420512
-0.02916225
-0.001598873
-0.02851526
-0.001887129
-0.027834
-0.001997263
-0.02714144
-0.002045158
-0.02636414
-0.002314091
-0.02555359
-0.002417101
-0.02474211
-0.002428263
-0.02382492
-0.002762874
-0.02287632
-0.00286113
-0.02188752
-0.002988597
-0.02088989
-0.00301792
-0.01986876
-0.00309907
-0.0187585
-0.003369674
-0.01767016
-0.003310154
-0.01651697
-0.003510257
-0.01533352
-0.003606335
-0.01414661
-0.003616341
-0.012954
-0.003638726
-0.01170618
-0.00380906
-0.01045576
-0.003815908
-0.009197129
-0.003841648
-0.007922021
-0.003898282
-0.00665324
-0.003874483
-0.005412885
-0.003791081
-0.004116092
-0.003977028
-0.002829507
-0.003945729
-0.001533617
-0.003986844
-0.0001422655
-0.004335571
0.001257626
-0.00434993
0.002575798
-0.004034315
0.003874988
-0.003965284
0.00515939
-0.003928386
0.006421331
-0.003859251
0.007684778
-0.003866488
0.008916659
-0.003770388
0.01016969
-0.003833319
0.01138747
-0.003729236
0.01254929
-0.003550662
0.01372059
-0.003576816
0.01487225
-0.003517565
0.01598589
-0.003394392
0.01709549
-0.003377578
0.01818267
-0.003310544
0.01918175
-0.0030299
0.02017829
-0.003015629
0.02114704
-0.002931533
0.02204975
-0.002720941
0.02295719
-0.002729412
0.02377561
-0.002453393
0.02455929
-0.002335797
0.02527937
-0.002134406
0.0259323
-0.001917496
0.02658517
-0.001908975
0.02717702
-0.001717405
0.02770969
-0.001520751
0.02817606
-0.00131097
0.02858071
-0.001103367
0.02894079
-0.0009518984
0.0292086
-0.0006486776
0.02946173
-0.0005666058
0.02963667
-0.0002797336
0.02963936
0.0003320894
0.02951407
0.0008717776
0.0292815
0.001584977
0.02904001
0.002848606
0.0291873
0.005817354
0.02956763
0.009085771
0.02844095
0.01127288
0.0210193
0.02112838
0.009811301
0.03066282
0.004193747
0.01845359
0.00587043
-0.002721174
0.009898204
-0.012563
0.01277454
-0.01130677
0.01360002
-0.004329162
0.01255334
0.0004136082
0.01063076
-0.001119607
0.008854306
-0.005077903
0.003829052
0.007234699
-0.003128841
0.02368313
-0.006313705
0.01347569
-0.008371815
0.006088141
-0.008890985
0.001324578
-0.006344233
-0.008247363
-0.003451595
-0.009751846
-6.654273e-05
-0.0114329
0.002997445
-0.009983465
0.005330419
-0.005691337
0.006216006
0.0002494424
0.005004398
0.004487642
0.003736744
0.002169771
0.003440016
-0.0006346399
0.001719255
0.004304244
-0.001847099
0.008792362
-0.004802073
0.009244656
-0.005767672
0.005239497
-0.006053241
0.001629965
-0.005863474
-0.0004190789
-0.005191554
-0.001868553
-0.004027282
-0.003423564
-0.002253757
-0.005310045
-1.816623e-05
-0.006820283
0.002460101
-0.007677815
0.004826066
-0.007294437
0.006855537
-0.006231855
-0.004565718
0.01142061
-0.01032344
-0.003618599
0.01176473
-0.0002156723
0.01194495
0.00592458
0.01009122
0.01560751
0.005450199
0.01688211
0.001614108
0.007308192
0.0005739442
-0.004047838
0.001754004
-0.0124931
0.001325007
-0.003540418
-0.00346642
0.01733398
-0.007151076
0.01833987
-0.007092948
0.002303108
-0.004128879
-0.0108336
-0.0001862713
-0.0142318
0.002989668
-0.01045728
0.004800941
-0.005408813
0.003955166
0.005231197
-0.0004240406
0.01820351
-0.006795992
0.02057146
-0.008023823
0.002313377
-0.005327721
-0.01356971
-0.003911465
-0.01238439
-0.003656701
-0.006854877
-0.003075606
-0.005808179
1.086945e-05
-0.01156589
0.005999501
-0.0229052
0.01147
-0.02137651
0.01276018
-0.005039163
0.006986612
0.03750183
-0.00491036
0.05502584
-0.02052282
0.02944715
-0.03017343
0.00887473
-0.03412728
0.0004910128
-0.03645953
-0.005639508
-0.03864257
-0.0003130634
-0.03949338
0.01568088
-0.03821343
0.02459765
-0.03674359
0.01737253
-0.03667024
0.009381318
-0.0371895
0.005300019
-0.03758162
0.002825802
-0.03784623
0.001612133
-0.03800847
0.0009387484
-0.03805108
0.0004250177
-0.03803495
0.000108167
-0.03776482
-0.0008040473
-0.03743192
-0.00107583
-0.03705925
-0.001234678
-0.03659129
-0.001548934
-0.03612289
-0.001607297
-0.0355323
-0.002011106
-0.03488429
-0.002246878
-0.03411928
-0.002652139
-0.03331396
-0.002802589
-0.0324986
-0.002860512
-0.03157331
-0.003239379
-0.03060866
-0.003381753
-0.02964666
-0.00339027
-0.02855392
-0.003855605
-0.02742019
-0.003994864
-0.02623892
-0.004169864
-0.02504938
-0.004207462
-0.02383119
-0.004317258
-0.02249918
-0.004701684
-0.02120043
-0.004608901
-0.01981717
-0.00489352
-0.01840035
-0.00502316
-0.01697641
-0.005040278
-0.01554692
-0.005068211
-0.01404695
-0.005309031
-0.01254342
-0.005319445
-0.01102684
-0.005358226
-0.009493318
-0.005431802
-0.007963624
-0.005404178
-0.00647141
-0.005283295
-0.004909553
-0.005538886
-0.003362684
-0.005492598
-0.001814905
-0.005534624
-0.0001722834
-0.005978193
0.00148761
-0.006009824
0.003074368
-0.005621073
0.004641333
-0.005532249
0.006183017
-0.00547007
0.007695812
-0.005372046
0.009211501
-0.005382177
0.01068757
-0.005246458
0.01219255
-0.005338298
0.01364843
-0.005185111
0.01504323
-0.004945468
0.01645177
-0.004985353
0.01782832
-0.004894117
0.01916422
-0.00473029
0.02050022
-0.004713577
0.02180007
-0.004610391
0.02299642
-0.004226255
0.02419194
-0.004211149
0.02535028
-0.004089873
0.02642608
-0.003796739
0.02751354
-0.003816875
0.02848831
-0.003428164
0.02942119
-0.003268669
0.03027667
-0.002989892
0.03104824
-0.002689066
0.03182308
-0.002683812
0.03251738
-0.002411702
0.03314539
-0.002148769
0.03368726
-0.001852837
0.03415464
-0.001570745
0.03457271
-0.001369967
0.03486485
-0.0009408176
0.03514633
-0.0008480876
0.03532725
-0.0004606583
0.03529711
0.000362236
0.03513357
0.001035312
0.03487404
0.00184451
0.03454374
0.003178911
0.03437883
0.005982264
0.03435362
0.009110978
0.03459058
0.01103592
0.03203177
0.02368718
0.02438723
0.03830736
0.01814216
0.02469867
0.0180628
-0.002641818
0.02101353
-0.01551372
0.02266095
-0.0129542
0.02269149
-0.004359701
0.02095804
0.002147055
0.01735958
0.002478854
0.01227494
6.73884e-06
0.004505429
0.01500421
-0.003011991
0.03120055
-0.006392393
0.01685609
-0.00897665
0.008672398
-0.00981036
0.002158288
-0.0068588
-0.01119892
-0.003736927
-0.01287372
-0.0001020384
-0.01506779
0.003042489
-0.01312799
0.005373316
-0.008022165
0.006621463
-0.0009987053
0.005839716
0.005269389
0.004513886
0.003495602
0.003832919
4.63275e-05
0.001419262
0.006717901
-0.002813836
0.01302546
-0.005857868
0.01228869
-0.006847028
0.006228656
-0.007186877
0.001969815
-0.006859825
-0.0007461309
-0.006001737
-0.002726641
-0.004571012
-0.004854289
-0.002427018
-0.007454039
0.0002209345
-0.009468235
0.003221462
-0.01067834
0.006070558
-0.01014353
0.008519462
-0.008680758
-0.006369693
0.01413943
-0.01276251
-0.004995514
0.01456834
-0.0006445913
0.01482251
0.005670418
0.01447921
0.0159508
0.01144964
0.01991168
0.006713724
0.01204411
0.003013525
-0.000347639
0.001510743
-0.01099032
-0.00113726
-0.0008924156
-0.005964408
0.02216113
-0.008885539
0.021261
-0.008639867
0.002057435
-0.004999603
-0.01447386
-0.0003288746
-0.01890253
0.003509424
-0.01429558
0.005974593
-0.007873982
0.005120473
0.006085317
0.0007560727
0.02256791
-0.00619314
0.02752067
-0.008710382
0.004830619
-0.007331855
-0.01494823
-0.00756192
-0.01215432
-0.0083744
-0.006042397
-0.008168301
-0.006014278
-0.005574885
-0.01415931
0.0001977016
-0.02867778
0.005757015
-0.02693582
0.007653249
-0.006935397
0.002505605
0.04264947
-0.01081775
0.0683492
-0.02791303
0.04654243
-0.03742772
0.01838943
-0.0413153
0.004378593
-0.044795
-0.002159807
-0.04757307
0.002465005
-0.0474364
0.01554421
-0.04504723
0.02220849
-0.04399402
0.01631931
-0.04440489
0.009792183
-0.04496687
0.005862007
-0.04541067
0.003269595
-0.0456899
0.001891365
-0.04586418
0.001113027
-0.04584751
0.0004083523
-0.0458036
6.425785e-05
-0.04545098
-0.001156668
-0.04503749
-0.001489324
-0.04456984
-0.001702323
-0.04397887
-0.002139906
-0.04341535
-0.002170812
-0.04268998
-0.002736482
-0.0419064
-0.003030456
-0.04097745
-0.003581094
-0.04000019
-0.003779848
-0.03901959
-0.003841109
-0.03790015
-0.004358817
-0.03673704
-0.00454487
-0.03558492
-0.004542383
-0.03427129
-0.005169239
-0.03290365
-0.005362501
-0.03148556
-0.00558796
-0.03005799
-0.005635029
-0.02860011
-0.005775139
-0.0269947
-0.006307095
-0.02544513
-0.006158471
-0.02378216
-0.006556483
-0.02208381
-0.006721515
-0.02037685
-0.006747236
-0.01866558
-0.006779485
-0.01686607
-0.007108543
-0.01506409
-0.007121427
-0.01323614
-0.007186174
-0.01139181
-0.007276128
-0.009540337
-0.007255651
-0.007746091
-0.007077542
-0.005863403
-0.007421574
-0.003995783
-0.007360217
-0.002146151
-0.007384255
-0.0002066587
-0.007917686
0.001761801
-0.007978283
0.003678978
-0.00753825
0.005560192
-0.007413464
0.007407464
-0.007317342
0.009221231
-0.007185813
0.01103873
-0.007199676
0.0128069
-0.007014626
0.0146185
-0.007149895
0.01635905
-0.006925666
0.01803788
-0.006624302
0.01973893
-0.006686402
0.02138525
-0.006540433
0.02298838
-0.006333424
0.0246073
-0.00633249
0.02616423
-0.006167322
0.02759707
-0.005659098
0.02903651
-0.005650593
0.03042855
-0.005481907
0.03171593
-0.005084119
0.03302693
-0.005127879
0.0341996
-0.004600833
0.03532247
-0.004391535
0.03635071
-0.004018138
0.03728283
-0.003621188
0.03822453
-0.003625507
0.03905948
-0.003246657
0.03982874
-0.002918019
0.04048564
-0.00250974
0.04106114
-0.002146247
0.04157739
-0.001886217
0.04194837
-0.0013118
0.04230008
-0.001199791
0.04255011
-0.0007106876
0.04257136
0.0003409853
0.04240215
0.001204515
0.04212487
0.002121796
0.04175029
0.003553488
0.04145093
0.006281624
0.0409405
0.009621411
0.04066631
0.0113101
0.04169981
0.02265369
0.04070409
0.03930308
0.03724172
0.02816103
0.0351164
-0.000516492
0.03468406
-0.01508139
0.03390554
-0.01217568
0.03256124
-0.003015399
0.02997747
0.00473082
0.02508837
0.007367961
0.01690431
0.008190795
0.006466974
0.02544155
-0.00195038
0.0396179
-0.005889545
0.02079526
-0.009149409
0.01193226
-0.01044648
0.003455354
-0.00715109
-0.01449431
-0.003812293
-0.01621252
0.0001144692
-0.01899455
0.003165513
-0.01617904
0.005306696
-0.01016335
0.006749532
-0.002441541
0.006297756
0.005721165
0.004969349
0.004824009
0.003943107
0.00107257
0.00084852
0.009812488
-0.003989595
0.01786357
-0.007116102
0.0154152
-0.008150962
0.007263516
-0.008448203
0.002267056
-0.00793024
-0.001264094
-0.006854299
-0.003802582
-0.005142835
-0.006565753
-0.002583017
-0.01001386
0.0005909967
-0.01264225
0.004239353
-0.0143267
0.007692375
-0.01359656
0.01062147
-0.01160985
-0.008510732
0.01745737
-0.01577211
-0.006680769
0.01814975
-0.001336979
0.01834295
0.005477225
0.01871165
0.0155821
0.01726064
0.02136269
0.01261027
0.01669448
0.006537439
0.005725188
0.001654242
-0.006107119
-0.003592186
0.004354013
-0.008454214
0.02702316
-0.01057171
0.02337849
-0.01011768
0.001603403
-0.005765572
-0.01882597
-0.0003197271
-0.02434838
0.004402286
-0.0190176
0.007534456
-0.01100615
0.006650871
0.006968903
0.002537553
0.02668123
-0.005054943
0.03511317
-0.00918128
0.008956956
-0.01000299
-0.01412652
-0.01251376
-0.009643554
-0.01469375
-0.003862407
-0.0154111
-0.005296926
-0.01423717
-0.01533324
-0.009432062
-0.03348289
-0.004548654
-0.03181923
-0.001942889
-0.009541162
-0.007846623
0.0485532
-0.02127968
0.08178226
-0.03683488
0.06209763
-0.04438421
0.02593875
-0.04812952
0.008123906
-0.05224915
0.001959823
-0.05521603
0.005431884
-0.05535408
0.01568225
-0.05358939
0.02044381
-0.05297184
0.01570176
-0.05330904
0.01012938
-0.05383077
0.006383738
-0.05430213
0.003740957
-0.05461791
0.002207147
-0.05486634
0.001361452
-0.05484832
0.0003903387
-0.05487193
8.786248e-05
-0.05440931
-0.001619283
-0.05393757
-0.001961063
-0.05339667
-0.002243222
-0.05266895
-0.002867632
-0.05203243
-0.002807334
-0.05114953
-0.003619381
-0.05022944
-0.003950542
-0.04911703
-0.004693502
-0.04793932
-0.00495756
-0.04677726
-0.005003172
-0.04544088
-0.005695195
-0.04404583
-0.005939924
-0.04266419
-0.005924017
-0.04110042
-0.006733009
-0.03946375
-0.006999175
-0.03776684
-0.007284866
-0.03603834
-0.007363531
-0.03431968
-0.007493798
-0.03237607
-0.008250709
-0.03053471
-0.007999823
-0.02852901
-0.008562187
-0.02649866
-0.008751865
-0.02446007
-0.008785822
-0.0223839
-0.00885566
-0.02024638
-0.00924606
-0.01809805
-0.009269755
-0.01590362
-0.00938061
-0.0137055
-0.009474247
-0.01143075
-0.009530401
-0.009292944
-0.009215345
-0.007018844
-0.009695675
-0.004751135
-0.009627926
-0.002538718
-0.009596673
-0.000243711
-0.01021269
0.002094942
-0.01031694
0.004415437
-0.009858745
0.006646649
-0.009644676
0.008868552
-0.009539245
0.01105196
-0.009369226
0.01322267
-0.009370387
0.01533988
-0.009131828
0.01753877
-0.009348783
0.01962778
-0.009014679
0.02163856
-0.008635084
0.02368205
-0.008729895
0.02567255
-0.008530929
0.0275995
-0.008260373
0.02953209
-0.008265081
0.03140337
-0.008038603
0.03311419
-0.007369918
0.03483821
-0.00737461
0.03648689
-0.007130594
0.03804337
-0.006640596
0.03961744
-0.006701951
0.04101341
-0.005996796
0.04237092
-0.005749049
0.04358621
-0.005233433
0.04470219
-0.004737159
0.04583602
-0.004759346
0.04681645
-0.004227084
0.04774761
-0.003849183
0.04851257
-0.0032747
0.04920158
-0.002835255
0.04982546
-0.002510098
0.05024423
-0.001730568
0.05067627
-0.001631829
0.05096505
-0.000999464
0.05093563
0.0003703969
0.05073722
0.001402929
0.05042039
0.002438626
0.05003832
0.003935557
0.04972585
0.006594091
0.04933373
0.01001353
0.04838751
0.01225632
0.05031269
0.02072851
0.05425982
0.03535594
0.05416292
0.02825794
0.05093641
0.002710009
0.04735767
-0.01150265
0.04429713
-0.009115134
0.04152196
-0.0002402256
0.03818232
0.008070455
0.03276116
0.01278912
0.02260399
0.01834796
0.009999588
0.03804595
0.0001843274
0.04943316
-0.004753534
0.02573312
-0.009015655
0.01619438
-0.01087672
0.005316416
-0.007473936
-0.01789709
-0.003896816
-0.01978964
0.0006258303
-0.0235172
0.00349141
-0.01904462
0.005107497
-0.01177943
0.006530017
-0.003864062
0.006222827
0.006028356
0.004871282
0.006175553
0.003586899
0.002356953
-0.0001788
0.01357819
-0.005512364
0.02319714
-0.008624653
0.01852748
-0.009673435
0.008312298
-0.009858223
0.002451844
-0.009071517
-0.0020508
-0.007734672
-0.005139427
-0.005749658
-0.008550768
-0.002707971
-0.01305554
0.001171985
-0.0165222
0.005662765
-0.01881748
0.009829433
-0.01776322
0.01326247
-0.01504289
-0.01102037
0.02159896
-0.01951872
-0.008761006
0.02264255
-0.002380572
0.02287209
0.005247685
0.0231992
0.015255
0.02248612
0.02207577
0.0183925
0.0207881
0.01071474
0.01340295
0.002627034
0.001980585
-0.005310114
0.01229116
-0.01021711
0.03193015
-0.01130849
0.02446988
-0.01089811
0.001193021
-0.006203475
-0.02352061
0.0003313738
-0.03088323
0.006099325
-0.02478555
0.009829506
-0.01473633
0.008755826
0.008042583
0.00517316
0.03026389
-0.002916544
0.04320287
-0.009630091
0.0156705
-0.01405515
-0.009701464
-0.01912103
-0.00457767
-0.02305432
7.088213e-05
-0.02519174
-0.003159507
-0.02657919
-0.01394579
-0.02451872
-0.03554336
-0.02143779
-0.03490016
-0.01686472
-0.01411423
-0.02612553
0.05781401
-0.03842548
0.09408221
-0.04832538
0.07199753
-0.05295559
0.03056895
-0.05731817
0.01248649
-0.06186743
0.006509088
-0.06498829
0.008552742
-0.06565607
0.01635003
-0.06443587
0.0192236
-0.06396797
0.01523387
-0.06424281
0.01040422
-0.06482217
0.006963102
-0.06533563
0.004254416
-0.06559841
0.002469923
-0.06596257
0.001725608
-0.06580397
0.0002317405
-0.06579329
7.718601e-05
-0.06530433
-0.002108248
-0.06470159
-0.002563796
-0.064113
-0.002831821
-0.06314929
-0.003831337
-0.06243227
-0.003524355
-0.06135671
-0.004694942
-0.06028093
-0.005026317
-0.05892465
-0.006049785
-0.05747872
-0.006403487
-0.05610882
-0.006373074
-0.0545375
-0.00726652
-0.05279737
-0.007680053
-0.05114822
-0.007573162
-0.04930034
-0.008580889
-0.04735707
-0.008942448
-0.04528291
-0.009359025
-0.0431901
-0.00945634
-0.04122879
-0.009455109
-0.03881056
-0.01066894
-0.03665636
-0.01015402
-0.0341765
-0.01104205
-0.03180657
-0.0111218
-0.02936191
-0.01123048
-0.02683703
-0.01138053
-0.0243223
-0.01176079
-0.02172464
-0.01186742
-0.01908792
-0.01201733
-0.01650728
-0.01205489
-0.01371471
-0.01232297
-0.01121236
-0.01171769
-0.008414671
-0.01249337
-0.005670867
-0.01237173
-0.00301521
-0.01225233
-0.0002748562
-0.01295305
0.002547635
-0.01313943
0.005258728
-0.01256984
0.0079014
-0.01228735
0.01060327
-0.01224112
0.01324923
-0.01201518
0.01585877
-0.01197993
0.01837232
-0.01164537
0.02108316
-0.01205963
0.02357302