/*--------------------------------*- C++ -*----------------------------------*\
| =========                 |                                                 |
| \\      /  F ield         | OpenFOAM: The Open Source CFD Toolbox           |
|  \\    /   O peration     | Version:  2406                                  |
|   \\  /    A nd           | Website:  www.openfoam.com                      |
|    \\/     M anipulation  |                                                 |
\*---------------------------------------------------------------------------*/
FoamFile
{
    version     2.0;
    format      ascii;
    arch        "LSB;label=32;scalar=64";
    class       volScalarField;
    location    "3";
    object      p;
}
// * * * * * * * * * * * * * * * * * * * * * * * * * * * * * * * * * * * * * //

dimensions      [0 2 -2 0 0 0 0];

internalField   nonuniform List<scalar> 
15536
(
-50.13961
-44.89079
-39.02608
-33.09235
-27.80024
-23.56851
-20.61308
-19.12067
-19.38862
-20.4174
-21.04623
-21.24158
-21.10795
-20.64226
-20.96138
-22.37639
-23.7349
-23.70452
-21.82247
-20.08299
-20.51307
-25.95613
-37.17501
-54.53781
-71.70435
-76.00099
-64.17201
-36.40814
-7.042684
-13.02182
-30.11801
-39.31521
-46.57712
-65.56464
-105.347
-135.7597
-111.4302
-74.47053
-82.18678
-87.95891
-90.09628
-94.55209
-97.921
-99.71134
-100.3423
-99.83569
-98.37323
-95.90912
-92.92563
-89.57592
-85.53301
-80.90295
-75.65483
-70.02816
-63.97201
-57.56013
-51.11747
-44.5671
-37.67602
-30.62478
-23.6926
-16.89365
-10.12524
-3.445863
3.013426
9.337721
15.36819
21.07908
26.36526
31.22853
35.62798
39.56497
43.00482
45.87434
48.13361
49.88195
50.99069
51.50617
51.46605
50.94724
49.66765
47.72732
45.20555
42.10146
38.43604
34.22943
29.55049
24.31054
18.67432
12.68754
6.197917
-0.6040137
-7.654144
-15.13653
-22.76618
-30.34042
-38.08679
-45.98488
-53.84165
-61.74627
-69.52954
-77.00361
-84.12401
-90.98116
-97.70314
-103.9698
-109.7578
-115.02
-119.7751
-124.0964
-127.6883
-130.4689
-132.4973
-133.7516
-134.1094
-133.2504
-130.9195
-126.8437
-121.3657
-117.1928
-114.7935
-102.9045
-118.7758
-164.1822
-157.794
-108.2947
-73.42203
-59.5956
-49.53024
-30.71037
-9.453323
-33.0901
-79.43227
-102.3999
-96.44593
-81.17788
-59.78029
-37.26932
-19.09345
-6.181827
-4.874065
-11.6712
-16.59375
-15.62994
-13.13971
-15.19869
-21.82195
-31.84299
-44.28566
-52.77874
-52.20228
-51.38961
-53.88983
-55.47311
-56.71481
-56.47071
-54.19384
-49.76219
-44.58112
-38.78886
-32.92384
-27.69141
-23.50852
-20.59128
-19.11668
-19.3895
-20.41935
-21.04832
-21.24316
-21.10761
-20.63957
-20.96324
-22.37258
-23.72091
-23.66766
-21.75002
-20.02724
-20.50364
-25.9757
-37.19022
-54.54469
-71.65953
-75.92266
-64.25794
-36.45368
-6.919451
-13.11674
-30.19547
-39.36396
-46.57371
-65.55633
-105.4415
-135.8917
-111.2786
-74.42543
-82.11051
-87.81551
-89.71934
-93.85611
-96.94667
-98.51091
-99.03736
-98.49064
-97.01166
-94.5432
-91.56463
-88.23913
-84.22648
-79.6347
-74.42836
-68.85097
-62.85131
-56.49831
-50.11541
-43.62975
-36.80888
-29.82427
-22.95937
-16.22863
-9.525941
-2.911042
3.484618
9.745004
15.71351
21.36773
26.60194
31.41639
35.77232
39.67105
43.07755
45.92115
48.15869
49.89151
50.99123
51.50323
51.46345
50.94781
49.67769
47.75556
45.25783
42.18322
38.55307
34.38782
29.75507
24.56699
18.98967
13.06169
6.636352
-0.09349521
-7.073656
-14.48748
-22.03942
-29.53649
-37.20732
-45.0261
-52.80422
-60.63139
-68.33904
-75.73811
-82.78749
-89.58237
-96.24677
-102.4561
-108.1952
-113.412
-118.1297
-122.4239
-125.9939
-128.7669
-130.8063
-132.087
-132.4946
-131.7281
-129.5904
-125.8471
-120.7453
-116.9492
-114.658
-102.7913
-118.6035
-164.1945
-157.8174
-108.2706
-73.39571
-59.60427
-49.60618
-30.83076
-9.396985
-33.16251
-79.57129
-102.3067
-96.09836
-80.91401
-59.64284
-37.23007
-19.14165
-6.254931
-4.872829
-11.56249
-16.45732
-15.50083
-13.01895
-15.10742
-21.75732
-31.81999
-44.27169
-52.77007
-52.15985
-51.37549
-53.887
-55.36541
-56.45788
-56.0838
-53.77931
-49.61056
-44.43779
-38.67122
-32.83472
-27.63459
-23.48105
-20.5914
-19.1247
-19.39764
-20.42835
-21.05764
-21.25225
-21.11487
-20.63475
-20.95828
-22.35844
-23.78015
-23.70142
-21.7086
-20.00011
-20.52119
-26.03458
-37.24695
-54.62848
-71.78317
-76.11838
-64.70277
-37.03706
-6.941494
-13.15521
-30.18153
-39.36565
-46.60039
-65.69237
-105.6969
-136.2862
-111.5902
-74.70102
-81.49407
-87.16949
-89.1824
-93.08649
-96.02481
-97.59784
-98.20639
-97.68725
-96.24764
-93.79954
-90.83374
-87.53579
-83.53392
-78.966
-73.78235
-68.23504
-62.27177
-55.93332
-49.57742
-43.13238
-36.33664
-29.38135
-22.54775
-15.85538
-9.18961
-2.60273
3.753988
9.986381
15.92192
21.5459
26.75114
31.53861
35.86757
39.74199
43.12657
45.95403
48.17322
49.89442
50.9867
51.49498
51.45588
50.94348
49.68051
47.77315
45.29252
42.23795
38.63147
34.49209
29.88899
24.72665
19.1824
13.28913
6.893497
0.2010021
-6.740091
-14.12111
-21.63489
-29.08732
-36.72328
-44.50798
-52.24084
-60.04426
-67.71623
-75.08534
-82.1063
-88.85755
-95.49199
-101.6646
-107.3798
-112.571
-117.2648
-121.5431
-125.0878
-127.8326
-129.8393
-131.0914
-131.4654
-130.6339
-128.418
-124.7667
-119.9853
-116.2891
-113.7961
-102.6734
-118.9972
-164.6518
-158.3729
-108.4893
-73.49302
-59.5956
-49.5763
-30.78992
-9.217264
-33.9275
-80.72179
-102.73
-96.07488
-80.85156
-59.6121
-37.23858
-19.27819
-6.443143
-4.959618
-11.54465
-16.36837
-15.37015
-12.92056
-15.09844
-21.77721
-31.85117
-44.36701
-52.87001
-52.23637
-51.41441
-53.80019
-55.29256
-56.31027
-55.95542
-53.62902
-49.30789
-44.19978
-38.50015
-32.72254
-27.57386
-23.46086
-20.60827
-19.14857
-19.4199
-20.44651
-21.07693
-21.2766
-21.13067
-20.61881
-20.91901
-22.33379
-23.92994
-23.7687
-21.66778
-19.98712
-20.56889
-26.13828
-37.34847
-54.81733
-72.11014
-76.48056
-65.52188
-38.35367
-7.311949
-12.9608
-29.86549
-39.2206
-46.65298
-65.87788
-106.1169
-136.6262
-112.2783
-75.89256
-81.0443
-86.23282
-88.38975
-92.00245
-94.68221
-96.03916
-96.48085
-95.90679
-94.48241
-92.054
-89.11163
-85.85738
-81.92512
-77.43114
-72.31893
-66.84437
-60.96254
-54.70774
-48.42861
-42.07029
-35.37308
-28.49461
-21.73883
-15.13083
-8.548373
-2.034327
4.242326
10.40626
16.27356
21.83984
26.98728
31.72134
36.00363
39.83849
43.18844
45.99185
48.18456
49.89107
50.97452
51.47863
51.44087
50.93151
49.67509
47.78861
45.3323
42.30712
38.73761
34.6421
30.09178
24.97858
19.50129
13.67432
7.343153
0.7362127
-6.125546
-13.43626
-20.84967
-28.20837
-35.76055
-43.4452
-51.07991
-58.78944
-66.36507
-73.6289
-80.5457
-87.21794
-93.77159
-99.84993
-105.488
-110.5954
-115.2261
-119.4569
-122.955
-125.6561
-127.6434
-128.9077
-129.3262
-128.6266
-126.6473
-123.2534
-118.8953
-115.2841
-112.7614
-103.2022
-120.4379
-164.8387
-158.6304
-108.8053
-73.68506
-59.51491
-49.25301
-30.3865
-8.773667
-35.55955
-82.74379
-103.4379
-96.19423
-80.91065
-59.66769
-37.29464
-19.51778
-6.771303
-5.166091
-11.59373
-16.30037
-15.28121
-12.96593
-15.26821
-21.92367
-31.92427
-44.37475
-52.77267
-52.3067
-51.52292
-53.71207
-55.1885
-56.08269
-55.52111
-53.25558
-49.05867
-43.98565
-38.35188
-32.63337
-27.53179
-23.46273
-20.65815
-19.20537
-19.46395
-20.48608
-21.12177
-21.33257
-21.1644
-20.60139
-20.81784
-22.30469
-24.16764
-23.88858
-21.64555
-20.00281
-20.67292
-26.32335
-37.5363
-55.17197
-72.74804
-77.21813
-66.78615
-40.33096
-8.258162
-12.48753
-29.16325
-38.89498
-46.7533
-65.93117
-105.7138
-135.9064
-112.3528
-78.20135
-81.24033
-85.3228
-87.50792
-90.89099
-93.42183
-94.69614
-95.24923
-94.68891
-93.28777
-90.86098
-87.86946
-84.66544
-80.71786
-76.25323
-71.14802
-65.71575
-59.89427
-53.66017
-47.42675
-41.14862
-34.51189
-27.67862
-20.98294
-14.45453
-7.941961
-1.479608
4.719252
10.82845
16.63221
22.14099
27.22652
31.91117
36.14604
39.93893
43.24641
46.02274
48.18596
49.8752
50.94946
51.44915
51.41337
50.90492
49.65231
47.79556
45.37154
42.37963
38.84962
34.79787
30.30206
25.23548
19.83117
14.06504
7.78239
1.26683
-5.516947
-12.78842
-20.11496
-27.38252
-34.87588
-42.49237
-50.03425
-57.69512
-65.21034
-72.41057
-79.27068
-85.8815
-92.40536
-98.42578
-104.043
-109.1163
-113.7211
-117.9778
-121.428
-124.1405
-126.139
-127.4149
-127.8262
-127.024
-125.0166
-121.752
-117.7143
-114.2046
-112.0066
-104.821
-121.7456
-162.7054
-156.625
-108.3935
-73.91291
-59.39115
-48.60592
-29.6043
-8.547006
-37.88716
-85.49069
-104.6809
-96.57445
-81.14745
-59.81589
-37.37921
-19.85445
-7.249318
-5.518283
-11.73441
-16.31898
-15.32532
-13.30508
-15.76697
-22.25962
-31.97696
-43.98193
-51.99475
-52.02287
-51.67632
-53.68565
-55.09119
-55.91439
-55.31924
-52.99388
-48.77583
-43.75472
-38.21702
-32.55744
-27.51144
-23.50208
-20.76529
-19.31672
-19.5502
-20.5658
-21.19963
-21.44344
-21.23998
-20.6044
-20.68141
-22.30416
-24.49542
-24.05919
-21.64957
-20.07093
-20.8521
-26.6189
-37.83934
-55.75439
-73.79814
-78.48079
-68.63115
-42.9793
-10.08144
-11.94234
-28.29689
-38.53367
-46.90147
-65.53215
-102.8023
-129.4585
-109.6112
-80.42748
-81.54537
-84.27759
-86.33916
-89.36164
-91.6373
-92.61732
-93.02654
-92.33323
-91.01948
-88.64428
-85.69383
-82.62739
-78.76705
-74.41982
-69.39959
-64.05211
-58.33295
-52.17441
-46.0473
-39.89464
-33.34754
-26.59636
-20.00912
-13.58289
-7.167684
-0.7795998
5.307887
11.34663
17.06052
22.48089
27.49781
32.13302
36.30837
40.04761
43.29655
46.04858
48.1745
49.83815
50.90449
51.39871
51.36468
50.85574
49.6092
47.78549
45.40545
42.45679
38.97498
34.97714
30.54124
25.52266
20.22476
14.5445
8.301724
1.896672
-4.746354
-11.95918
-19.18197
-26.30841
-33.69432
-41.21804
-48.63413
-56.18684
-63.58999
-70.67438
-77.40187
-83.90402
-90.35188
-96.23344
-101.763
-106.7154
-111.2239
-115.392
-118.7563
-121.3607
-123.2079
-124.5046
-125.0031
-124.4143
-122.6485
-119.6624
-116.0894
-112.8677
-111.1212
-106.422
-121.0559
-154.9504
-149.5013
-106.2833
-74.03911
-59.29111
-47.96593
-29.01477
-9.362201
-41.16048
-89.0939
-106.6402
-97.34647
-81.63079
-60.11067
-37.46149
-20.1535
-7.870657
-5.914048
-11.77513
-16.20319
-15.46263
-13.9875
-16.69434
-22.82367
-32.00094
-43.02823
-50.48002
-51.37721
-51.75938
-53.64327
-54.96012
-55.6503
-54.96507
-52.67528
-48.51855
-43.57793
-38.12847
-32.46001
-27.53717
-23.61061
-20.94971
-19.47659
-19.70843
-20.7293
-21.35866
-21.65152
-21.4104
-20.70368
-20.62275
-22.38971
-24.86221
-24.1648
-21.69813
-20.15423
-21.03811
-26.91691
-38.14462
-56.57375
-75.33404
-80.44603
-71.29448
-46.62525
-13.12428
-11.82177
-27.63408
-38.23766
-47.12724
-64.7039
-97.29153
-118.9106
-103.5912
-81.44851
-81.47106
-83.16693
-85.10497
-87.79081
-89.9445
-90.71321
-91.24336
-90.5371
-89.19568
-86.75856
-83.70259
-80.73311
-76.84209
-72.59784
-67.59441
-62.26325
-56.66909
-50.62781
-44.56469
-38.4735
-32.06225
-25.44175
-18.93494
-12.55583
-6.315268
0.003507043
5.955683
11.92552
17.51455
22.84647
27.8548
32.38468
36.46921
40.1344
43.32661
46.10103
48.14649
49.77853
50.83474
51.31813
51.28653
50.79349
49.56462
47.73196
45.38582
42.495
39.07891
35.17412
30.81853
25.82412
20.6406
15.10067
8.943666
2.583716
-3.947527
-10.98961
-18.12401
-25.14961
-32.40305
-39.74515
-47.1185
-54.58704
-61.81233
-68.82541
-75.40424
-81.80792
-88.22543
-93.97352
-99.48082
-104.3239
-108.8188
-113.0511
-116.3381
-118.9877
-121.071
-122.3604
-122.7954
-122.0951
-120.393
-117.5783
-114.4039
-111.4714
-109.9676
-107.108
-118.2565
-143.3233
-139.1762
-103.1173
-74.16354
-59.32729
-47.73409
-29.43339
-12.22925
-45.89208
-93.6411
-109.4482
-98.81881
-82.54102
-60.70085
-37.52789
-20.25782
-8.355858
-5.992337
-11.20181
-15.59058
-15.51373
-14.94674
-17.92162
-23.632
-32.10828
-42.03106
-48.91182
-50.68481
-51.75074
-53.58992
-54.87715
-55.46588
-54.64254
-52.36139
-48.41508
-43.59959
-38.11845
-32.43821
-27.68371
-23.80968
-21.19023
-19.65502
-19.96947
-21.00349
-21.65025
-22.01082
-21.74838
-20.99411
-20.80008
-22.63972
-25.22983
-24.31386
-21.60077
-20.02798
-21.00154
-26.89135
-38.13251
-57.42793
-77.57284
-83.44456
-74.99771
-51.69091
-17.27443
-12.514
-27.722
-38.48113
-47.85006
-63.56016
-90.56212
-107.8749
-97.11142
-81.38233
-80.71098
-81.74386
-83.42745
-85.62782
-87.70924
-87.89407
-88.30674
-87.5535
-86.353
-84.16697
-80.91241
-78.13106
-74.37722
-70.31119
-65.27623
-60.02301
-54.78733
-48.90943
-42.60625
-36.69157
-30.67592
-24.21913
-17.53975
-11.28589
-5.446907
0.9007003
6.637145
12.58122
17.93148
23.3488
28.35851
32.62984
36.59619
40.16074
43.33629
46.15186
48.05601
49.7049
50.73336
51.20062
51.18387
50.72743
49.48063
47.63591
45.28171
42.46208
39.1234
35.33348
31.17347
26.16417
21.06287
15.69373
9.865619
3.560417
-3.228018
-9.951574
-16.71469
-23.88524
-31.05933
-37.92323
-45.139
-52.91303
-59.64871
-66.66854
-73.05674
-79.26452
-85.67705
-91.14555
-96.69363
-101.2523
-105.5941
-109.8716
-112.9741
-115.4934
-117.1756
-118.5486
-119.2049
-118.6492
-117.1938
-114.6488
-112.0733
-109.6026
-108.3756
-106.7596
-114.9812
-131.9539
-128.3185
-99.45315
-74.57644
-59.18522
-47.88997
-31.28006
-17.4618
-52.27861
-98.3267
-113.067
-101.0755
-84.10184
-61.23856
-37.30005
-19.95957
-8.137897
-5.139232
-9.310952
-14.15687
-15.28742
-16.05886
-19.4022
-24.69157
-32.41636
-41.29879
-47.71166
-50.14655
-51.70765
-53.5261
-54.78543
-55.2712
-54.33442
-52.13932
1.365014
0.7634431
-33.77141
-19.85524
11.2128
-16.80662
0.431432
0.4924785
10.20377
-1.833323
-1.578029
1.002305
-0.6983453
-0.01707318
0.2713463
2.677442
1.450853
-3.371299
0.7970043
0.2543263
-48.67202
-1.531484
1.972539
-2.015202
0.8914114
1.039215
0.6986161
-1.517492
-7.26263
-0.2879386
0.9440267
-19.77076
1.336052
-1.245346
1.522849
-5.092161
-4.134739
-0.0485205
-23.86686
-6.221676
-22.61976
1.866886
0.6100774
3.012889
32.66213
0.8087027
-2.082503
1.75441
-8.718589
-1.50631
2.106873
-1.540488
-9.6151
1.021241
0.1424039
21.91123
-5.5742
1.43988
-13.38785
-21.37051
-1.457187
-0.012023
-11.4574
0.901303
-2.727962
0.8729372
-29.59858
-0.1126037
-3.772496
-0.770188
-0.5835808
0.5566008
15.98017
-62.46697
21.80878
-0.1909381
3.852649
-2.888743
-2.507945
1.071412
-21.99281
0.319703
3.014372
1.705509
-11.63383
1.029755
1.418213
0.3119999
-26.23701
-9.484372
-18.02122
22.19751
2.155292
0.1355738
0.816991
1.29173
-8.617187
5.532224
-39.37378
0.9102249
0.6203893
0.3014202
1.370399
-91.38808
-0.0327273
-16.70919
1.347754
0.5926546
-3.904689
-12.33754
0.6107513
0.5860765
1.067479
7.112656
-20.63681
0.1844917
-0.3670387
-0.4950774
20.38508
0.3731119
2.150788
0.7370695
-0.6437835
-0.6891231
-0.4923189
-2.276514
-0.02720056
-35.58401
1.111848
1.097412
0.4395308
0.3157598
1.329373
0.3911066
-1.217229
-27.11615
0.2861232
6.332564
0.7255065
-0.1528911
-34.15126
0.2895027
-67.78805
0.8818918
0.1751243
-13.04563
-0.1165783
-45.26025
-0.219149
-0.4760734
1.124171
-18.14804
-54.56798
-2.548901
-47.12242
-36.40973
-0.3203701
2.199265
1.180772
-30.36007
1.246254
-25.67393
-9.053561
-0.391734
0.1922652
-65.62833
-22.89591
1.664001
-30.41798
-0.1366053
0.8355446
16.98784
1.984114
-37.81844
-7.111316
-1.206784
2.160375
0.799262
-66.26478
-2.04737
15.45806
0.9202838
-0.6581504
0.2232804
3.318516
-48.29018
0.5794737
-0.1546231
-20.24814
0.8444259
-0.09366442
0.6278026
-9.833436
-2.35431
0.8678984
0.6080129
-1.213866
0.1598311
-5.441172
-34.84966
0.1243973
-2.806163
1.110802
-29.69318
-0.5924333
-3.066043
-7.855924
-5.581239
-9.590837
0.4490877
0.9687838
1.083943
-3.031036
-10.95197
1.560386
-6.378971
-12.0795
0.3700528
4.300708
0.8640964
1.084423
-10.00098
2.71674
3.087947
-3.419575
-1.409509
-0.451481
7.653839
-1.640681
18.42122
-2.731816
-48.365
3.126175
-0.06947563
-81.175
-0.06366773
25.87792
-17.37029
2.161462
-0.008171397
0.2662682
0.8244879
-0.1131886
-9.737928
0.8140712
-61.44853
-0.09897768
-41.29666
-0.3169086
0.3197771
-33.83617
0.8151842
0.2906875
0.3472379
2.778385
-27.75365
0.9820025
0.6745126
-8.378991
-4.867436
-4.061112
0.2477478
-10.09948
-0.8431651
-0.449674
2.118344
0.6597663
-0.1870185
5.986051
-27.12724
1.213191
1.242794
12.34198
-0.9334252
1.504306
3.108437
1.447947
-25.67677
-51.71743
0.1224383
-0.673491
0.7485428
-10.14503
1.05659
0.8231551
1.134638
35.71354
-0.1578238
1.760498
-0.6926867
1.283061
-0.06684379
0.6990222
0.6137372
-36.56286
-5.082395
-15.37546
0.08371973
1.822376
-0.1363459
-44.38942
-1.811816
-19.05927
-58.34462
-0.4095033
-0.08297266
-0.5911073
-0.009252705
0.8136344
1.950988
0.2371161
0.2338674
-0.7065616
0.578493
-0.3903074
-13.22683
34.21009
-55.82864
-31.33322
-64.85529
-0.7648326
-0.5611315
0.1354053
-0.4224085
0.07808365
-4.225218
-0.3718098
-0.466549
0.3404477
-1.888522
17.96735
2.552858
-8.253057
-61.37458
-2.047492
1.701824
-2.352888
0.1460066
-4.483695
0.1419045
-44.31184
-0.5258137
0.6563636
-0.1163381
-14.02638
4.09821
-26.95475
-0.2240096
-11.70366
-1.124722
-5.642775
-4.028819
13.05905
1.287711
-0.6788804
-39.34475
-55.18009
-0.1912195
0.9391107
0.6522288
2.013523
-19.16128
-1.661496
2.013393
0.3804355
1.843265
1.493333
1.158972
0.7977565
1.200941
-3.42482
12.33826
-39.61137
-0.01476989
1.829628
0.9679579
1.339319
1.530534
1.845311
0.9069091
0.8960398
1.428039
-0.04968749
-11.91955
-0.02871846
1.278214
1.702851
37.65309
1.906651
-1.023044
2.552574
0.332926
2.120066
-40.3101
-0.04062549
-1.075279
0.7869197
-27.32364
0.91018
0.2363805
1.826751
0.1777493
-30.14795
-0.8907081
-1.150521
1.848512
-35.41717
-53.198
1.75172
1.938733
1.172589
0.6944363
-0.3680487
0.6406277
1.742618
-0.8336156
1.860325
-45.4027
1.293484
-16.84549
-0.007047861
-0.2043236
3.879963
-0.661547
-0.2521266
-27.3891
1.741805
0.9764826
-39.00154
-12.44792
7.755854
1.542588
0.8396461
1.140473
1.495268
-0.6308849
-0.3123313
-6.226186
-0.1825523
0.3078528
-1.650927
-0.2931814
1.893401
-0.00187296
-4.948694
0.9776332
1.569226
1.941713
-1.404206
-0.3803484
0.4272827
-39.13524
1.924548
-8.432903
-0.5970545
-0.6590399
2.811008
4.507114
1.051259
-21.31007
0.7512455
-36.12099
-0.02916566
-0.9231647
-1.551499
-0.6212122
26.15766
0.01215711
3.43962
-1.871814
-11.21994
-1.285361
0.9054753
7.508817
-1.236761
-7.367724
-11.444
-33.68619
-0.01365948
0.3004239
-20.54778
-0.2420031
0.9138285
0.352483
0.4344023
-0.8967727
2.002299
16.20449
-4.130099
1.458255
-2.467305
-25.34046
-1.315688
1.157229
-20.25976
0.7708375
1.186203
3.687581
-1.511909
3.492682
0.9872611
0.48492
-9.722408
-5.330596
2.034986
1.017895
0.4667064
-2.778019
-19.96177
-4.353581
-25.32861
3.33649
14.65827
-2.244896
0.3120467
1.022854
-1.919614
-0.8056486
-0.05690886
0.9541461
0.8230007
-0.1555212
-7.059808
-1.887287
1.285596
-0.5594111
-0.1132658
3.566479
1.422996
2.225815
-27.81715
-1.519227
-26.22115
0.4973848
3.896427
4.216666
3.16664
-0.701521
0.9727986
0.7239053
4.280628
0.9585047
0.2639498
1.679659
-44.63179
2.406826
3.571023
-1.474445
1.958295
7.666223
0.9351879
5.920131
2.29011
-3.895314
2.059885
-0.2621668
0.5921502
0.5181884
15.66028
-4.666962
-4.365033
-0.5128846
1.291053
1.126614
0.5387512
1.168528
0.9161404
7.466738
30.85542
-1.707139
0.935123
4.707996
1.013783
-64.46341
1.456954
2.616494
1.018406
2.583952
-0.9336711
-2.727266
-8.319695
-2.128602
5.635115
-0.05885448
-1.814834
-23.79929
1.852156
1.385209
-83.5201
-4.361984
-1.063438
-22.12576
0.6927406
-0.9713557
1.073757
0.819235
0.7939187
-51.28773
1.32957
1.006649
0.9754246
-0.6620615
-9.017203
-0.2032448
1.579207
-16.71335
-7.932283
0.5150151
-19.65207
-0.3428123
4.49404
-0.5878033
-49.00455
1.268862
8.512418
-11.96165
-0.5611816
-0.1066974
3.385017
3.77588
1.794656
-2.496353
0.7177805
-15.43371
1.078684
17.68362
2.379178
-0.1016963
-0.8241651
-2.742456
-2.995525
-10.58313
-15.40862
-20.56616
-41.39685
-9.034625
-12.89982
0.4489978
-0.7525576
1.091945
0.9799153
-1.975725
1.281785
0.2628553
-1.444575
0.6525705
1.1061
-39.17459
-4.056549
25.32307
3.985059
-29.19903
-5.527897
8.479689
6.810566
-3.185024
-21.74339
1.295974
1.163522
-21.89575
0.0656224
0.531965
0.2865394
1.405288
-2.293689
0.1828171
-10.93677
2.060513
0.925964
-2.856303
1.141714
1.27479
-89.18313
-14.59808
1.120512
4.215122
-27.29175
-1.01355
-0.0782916
5.912573
13.81357
9.697796
1.882969
-7.466889
1.131265
-4.069867
-0.5359298
-3.051708
2.561702
0.910768
-19.87159
1.698422
-56.45899
-1.972083
-2.862536
1.634236
-37.29465
1.652796
0.5781436
0.03863736
-3.054971
-11.39477
0.2092816
-3.541161
3.856291
-8.20377
1.674338
0.9258023
-19.78553
-8.168261
0.8227376
0.3772951
1.65624
0.8389411
-2.763535
-0.1161282
1.162598
-46.79642
-0.9848911
-1.820756
0.6126405
0.9558315
-0.1723653
0.977096
-1.152536
0.2837925
0.4964773
-27.82176
1.095662
1.0355
0.7088778
0.6667811
0.8723437
0.4070257
-1.141595
1.182861
0.8730714
3.75434
-34.33111
0.6361488
-0.06937976
0.08436311
1.297939
0.03111319
2.569616
-0.6651313
-54.18391
2.415435
3.370502
8.420943
-4.074489
-11.79458
-8.924103
-8.654779
-8.088214
-6.447838
2.049168
-8.788374
-15.33549
-6.148439
-4.748514
-0.705728
1.844547
12.72233
1.323856
1.633662
-35.48308
0.3203638
0.7320824
0.9115115
-10.78147
22.7448
3.120092
1.479705
2.132632
0.6938836
-0.4418532
-3.164984
-1.313861
0.9892115
-0.5561007
-1.508575
1.236892
-0.2570219
4.475955
0.9612885
1.415851
-4.265119
0.7176998
-0.2153267
-0.9709115
22.07764
30.68938
-4.174195
1.553809
0.4402527
0.4032001
-5.043132
-0.3160782
-62.1008
0.2460764
-58.14791
-5.927906
-0.5903773
-1.722932
1.524401
-4.170129
0.4584482
1.452788
1.265261
1.234059
-5.606746
-48.43379
1.17125
-1.328511
-0.09909943
-0.327634
-1.132808
2.097514
-13.91961
-3.844209
15.34377
0.8230235
0.3997265
-0.3250963
-0.4272046
1.781875
-0.1705081
-0.1462013
0.1753181
-23.51674
0.7212523
8.228311
-28.6184
-4.741163
2.683521
-6.921232
0.03481755
0.2517204
0.9201749
-1.198546
-0.1020169
-13.25223
2.922041
1.671181
2.28234
3.46704
-0.6559018
-1.12707
30.17443
0.07832084
-2.699158
-8.560953
-59.66268
1.308629
1.059534
0.8411656
0.6238361
32.40701
-0.4830296
-0.09996734
0.5177833
0.6301009
-1.651972
0.8281121
1.028692
1.062071
-18.88064
-16.50079
1.141659
-1.392848
-16.73072
-4.204309
-7.154117
1.286778
-13.20509
4.973566
29.27842
0.7194217
0.6809116
-0.7718379
0.1515199
0.5166522
10.55475
-1.833454
0.9410326
-18.53389
-0.6493369
0.6844308
1.631945
-1.814107
-5.808474
-6.919168
-24.08451
2.917752
-22.98095
-1.243015
-0.007175044
-1.400496
4.894884
-7.164869
-0.03753068
-22.87267
8.874564
-23.96482
5.672467
0.8606313
0.5488621
-8.906296
27.90077
-4.664916
-0.1412748
-2.565524
-31.66277
-0.1645559
-0.2457505
3.337845
0.5739126
-0.02972165
-24.57578
-2.645837
1.781499
-5.935036
-11.63078
0.145126
-49.99079
-17.71795
-44.05406
2.777329
-45.57231
1.29213
-0.6026412
-15.42822
0.4962076
-1.659903
-33.17887
-0.008334073
1.31537
0.3839791
2.363573
-7.76675
-63.40166
-54.06597
2.609496
16.85678
0.4211121
0.6615206
-26.58647
16.2744
-28.96528
0.3667293
0.2354968
1.765119
-3.600289
-14.24616
-7.246158
-0.2592348
0.6466961
-0.01259444
-64.25588
-78.25687
0.807162
0.8424609
2.526875
0.02974232
0.6068753
2.675015
1.091542
1.222417
0.7823973
0.7539862
0.9028015
4.419331
1.06334
-17.75452
0.5863711
0.6565402
-44.25533
1.230061
0.1785829
-1.168579
-30.833
-2.422365
-3.126292
2.100872
-10.2175
-32.39449
34.73231
47.72027
1.489415
-0.08557089
-5.694741
6.01276
1.217488
-1.811286
10.63977
-35.84956
1.375849
-0.02603108
-1.023943
2.11037
0.5734055
-2.124863
-2.029819
-19.7853
-61.67349
-0.5592135
1.666226
1.114154
1.792415
1.890858
-13.28196
1.274697
1.016673
0.6252677
0.2733953
-27.49599
-0.2613043
-31.51836
-19.5081
1.261241
0.8344864
-1.572312
1.463816
-0.9586955
1.401402
0.08628808
-20.31716
0.3107902
-4.488945
-60.34549
-0.3505747
-0.8513093
-58.8353
-66.22293
0.7323974
0.1197184
0.8617198
0.9276604
0.2362105
-3.736723
2.2991
0.4506624
-0.3661019
1.070669
1.244049
-1.985615
-0.003546854
-1.427818
0.5370955
1.127228
0.9585291
0.3725718
-0.193584
1.038887
0.6609183
-15.9213
0.2468833
1.289983
3.651527
0.0516055
1.520357
-4.593859
0.01890282
-1.163953
-22.27277
-18.0668
-0.3880003
0.2527644
-1.134899
-0.5034229
-31.45157
-12.99168
-2.963146
-34.46236
23.19548
-2.140776
2.753877
-12.91221
-23.31821
0.4724682
3.307203
-54.35895
1.910363
0.3896671
-11.37891
1.649872
6.037377
0.4938172
1.955666
22.21277
-2.490234
-28.2614
1.47954
-1.687943
34.78166
-13.47898
-7.942683
1.001286
2.052255
0.8476568
7.916238
0.7916168
7.259576
-0.2525061
-26.36121
-6.074394
-24.51959
-3.067724
0.9609016
-16.30693
0.7872426
-66.47352
8.107714
1.787785
17.12921
-0.5573816
29.14472
-1.237158
-1.522815
-0.5525784
-0.4816271
14.17518
-9.618398
-15.76159
-0.7321625
1.298796
0.1622038
0.3380283
2.271388
-7.898259
-4.996206
1.26533
-27.79662
1.142245
16.39709
-81.74029
1.764076
-31.04987
-13.17859
-2.387004
-27.30678
37.71837
-0.4034936
-0.2530317
-41.74362
-11.82747
-2.728512
-0.7999446
-0.8288942
-15.99138
-85.63812
-2.832715
0.4977887
1.027129
1.395259
1.064677
-1.446391
1.637643
7.999517
3.35358
-0.238251
1.273901
1.192683
-0.5403394
-8.120293
-2.159679
0.6184378
0.6839096
-39.61658
-0.3143166
0.9511427
1.273967
-1.481884
-27.90477
1.56033
-11.74993
1.614037
1.228677
-0.7542783
-18.99224
0.9721295
0.8862745
-53.35684
23.68001
-2.782185
1.335535
3.338573
-1.882779
0.6112318
0.1524726
-2.395621
-0.1436535
-1.143128
-8.294383
0.8371227
-17.42163
1.264894
-0.6448935
0.3651621
1.399553
-1.167909
0.01553424
-3.992465
-5.417722
-38.56305
-13.29783
2.231932
-3.970215
-1.031214
2.904207
0.1880675
-59.75688
1.417642
0.1686041
-0.2223014
-6.197356
1.236962
-1.870878
2.398896
-48.19756
-0.2515902
-19.48943
-0.7155542
-58.96467
-2.468464
-37.30773
-0.5076901
-0.8169402
-0.276817
-0.2686103
2.67676
-35.4112
-56.61964
1.233758
1.16028
-6.208428
-2.127542
2.85403
2.375877
1.656349
0.2883977
-0.3673495
0.8875814
-50.87161
1.991261
1.603368
0.1332642
1.069413
-1.358862
0.2048719
-1.303638
0.5291142
-8.392722
-0.2507747
0.7225014
8.076204
1.369323
-14.47549
0.2997797
-4.398361
-1.857409
-20.95283
0.3929072
-0.0977525
0.1954903
-20.10068
-21.51227
-22.98721
-0.6453268
-14.56682
1.309106
-9.58255
-3.651081
0.5768857
16.2639
0.1762767
-30.05977
-78.99037
0.7966704
1.141017
-2.318164
1.192797
0.909422
0.6796371
-5.056349
-5.949454
1.143753
-17.56031
-0.6749614
-1.157344
-2.407114
2.088365
-1.451152
0.484994
-4.131475
-0.3347178
0.2453314
-23.07494
0.2417089
2.418349
0.7665826
-0.4230118
-33.48925
-1.881319
-2.113943
-8.418561
-9.119965
-3.246418
-29.44834
-2.774068
-0.8389558
-0.09350052
-0.1350564
11.95662
-60.03207
-14.36529
-0.5979096
-0.5757656
19.69665
-3.114329
1.077767
0.9312764
-0.9013999
-0.6570415
-38.9292
-33.1715
-21.15286
10.1952
7.543686
-0.4094667
-53.33095
-50.14141
-75.85748
2.190756
-3.236787
-0.3023144
-0.6010576
1.363994
-0.1566292
1.247568
-0.4112166
0.9179842
0.8197465
0.9277381
1.158119
-29.52221
1.207038
1.074036
-0.6666708
-31.27448
19.66637
-0.255212
-15.71724
-38.77042
-7.739273
5.495612
-6.074042
-5.228319
-14.46804
-68.90912
-0.1088977
-34.55505
0.8540369
-44.71995
-17.31044
-10.23227
0.7657361
-17.63224
1.162774
14.24164
0.8309019
1.797351
2.436065
-0.2529406
-1.92649
1.397262
-0.02707642
0.6254237
1.150524
-42.33728
-11.25589
0.4940049
-19.61283
1.057831
0.9901543
-22.96487
-2.729834
-36.48426
0.250804
1.717632
21.02681
-0.2118419
0.7278635
-53.4133
-0.3585353
-61.83633
-4.333914
0.1907541
-0.01308548
0.3462747
-2.669332
-0.1544005
1.342133
-2.457733
1.030488
-0.7327876
-0.5007782
22.9864
1.826193
-13.07544
2.553038
-9.078136
-0.4656125
-84.28853
-0.5356871
0.9018088
3.170325
2.018998
1.825659
-58.96596
-54.54297
-60.45388
0.02259344
-0.3244993
-86.16866
1.505552
-14.13556
0.3166072
0.7190027
-8.307119
-38.9763
1.139107
-56.17373
-0.01560224
-0.3237616
0.9486916
-6.252643
9.335003
-0.1662031
0.3526139
0.8757432
-1.268178
-1.145727
14.76395
0.07628064
-10.23692
-0.05559702
0.1216577
0.6262687
1.675349
-1.05882
-1.082406
-3.459316
-10.75933
1.455407
-0.1304287
12.62754
1.922554
3.117736
-7.077677
-5.079986
0.8950903
0.9357438
-5.779349
-0.534128
0.225336
-76.06986
26.49269
-4.835324
0.9561207
1.161942
-33.53814
-0.2904077
1.483342
-14.32328
0.2345559
-0.6577514
0.3207583
0.4953199
-13.52709
-1.098802
21.03836
35.69386
1.188041
-22.92724
-6.974892
1.265438
0.6867633
-0.1716415
33.46299
-53.70309
-0.7048166
3.741522
0.9866592
-12.34037
-5.479618
-1.787028
0.753256
0.1332075
0.6129568
20.55049
0.4602729
1.652192
-23.17533
-12.05342
-14.58387
-3.344422
0.4967245
-82.56487
26.62179
-2.430752
-0.2624658
-6.918633
-2.463409
1.191227
2.219476
32.06391
0.4124976
-2.482736
-10.3872
0.4093252
-1.683442
-24.83851
0.848051
0.1762073
1.171506
1.004403
19.39496
1.262258
-0.04378016
-10.32678
3.413203
-0.307581
19.17641
2.811182
5.666978
-53.06809
-16.01375
1.260493
0.792037
-68.87639
-20.08662
-41.19757
1.654865
-0.4111712
-0.04096601
0.6883593
-10.181
-16.91274
-0.200347
-9.613103
-2.948553
-10.30306
1.009246
-0.7546073
-62.24061
-19.63755
-1.028148
3.339893
0.1081313
-0.3607823
0.6362148
1.400207
0.5141652
-0.7489024
-65.75358
-5.151788
-2.853767
-2.297972
-51.63757
1.820781
1.931273
-11.76869
3.310122
3.499856
1.098623
35.53353
-0.5132993
0.1111405
0.6960484
0.8260981
-6.037683
-20.52665
-32.52707
14.30007
0.8330808
0.9944517
0.4789246
0.5278787
0.7725698
0.326119
1.465424
1.079697
-0.1213634
-0.09090758
-12.5505
1.010144
11.97997
7.7852
-0.6215198
-1.526685
-2.194602
-1.789244
-1.323195
-43.10574
10.84149
-50.31887
5.553247
0.8974111
1.398203
-79.97052
42.78924
-94.85236
1.811506
0.9699686
4.394716
-4.906268
9.323243
-25.10954
-7.75762
3.868822
-0.4276908
2.372188
0.3870707
-20.05616
-0.85616
-37.73433
2.215538
1.479458
-1.466624
0.7547437
-31.34977
-69.1092
-26.60393
1.09195
15.35438
-9.239107
0.9264561
1.005048
-0.07019324
-76.63046
1.042484
3.137738
32.20983
1.178784
0.7725355
0.2252454
27.19444
6.031063
-1.214811
2.744839
-1.452175
0.9836094
-0.2551847
-65.46924
1.493319
-71.32955
0.9327938
-0.3716956
45.15191
0.4481013
-0.2522902
-1.035931
2.695105
1.422103
1.303635
-3.372429
41.72492
1.950756
-2.212304
45.7336
-0.7531424
-0.405625
-0.2277632
-23.75145
0.7123027
0.1389689
-4.933076
0.2078028
-9.502687
-55.5996
-0.1879878
-0.0928767
2.870905
0.7487309
18.36299
1.261718
0.2852936
0.7934774
-0.06101259
-0.3978324
-0.4335969
-0.4045802
1.227411
0.5534868
0.4557498
-21.33211
-57.83209
-27.6028
-23.82747
-0.2443134
-1.460072
2.863067
0.0004642762
1.037469
3.690937
-32.92616
-33.16975
27.15243
-21.94901
0.7463569
2.198431
-1.249619
-5.182214
-21.75242
1.34277
1.816732
-66.67225
2.592005
-0.8964841
0.08150809