/*--------------------------------*- C++ -*----------------------------------*\
| =========                 |                                                 |
| \\      /  F ield         | OpenFOAM: The Open Source CFD Toolbox           |
|  \\    /   O peration     | Version:  2406                                  |
|   \\  /    A nd           | Website:  www.openfoam.com                      |
|    \\/     M anipulation  |                                                 |
\*---------------------------------------------------------------------------*/
FoamFile
{
    version     2.0;
    format      ascii;
    arch        "LSB;label=32;scalar=64";
    class       surfaceScalarField;
    location    "3";
    object      phi;
}
// * * * * * * * * * * * * * * * * * * * * * * * * * * * * * * * * * * * * * //

dimensions      [0 3 -1 0 0 0 0];

oriented        oriented;

internalField   nonuniform List<scalar> 
23794
(
-0.007608359
0.008154035
-0.0005456761
-0.006937464
-0.000670895
-0.006123853
-0.0008136106
-0.005180346
-0.0009435076
-0.004163909
-0.001016437
-0.003115399
-0.00104851
-0.002061246
-0.001054153
-0.0009967571
-0.001064489
-0.0002964002
-0.0007003568
5.746702e-05
-0.0003538672
0.0001629885
-0.0001055214
-0.0001643361
0.0003273246
-0.0006983071
0.0005339711
-0.00062465
-7.36571e-05
1.464828e-05
-0.0006392982
-0.0004514224
0.0004660707
-0.00262696
0.002175538
-0.004279511
0.001652551
-0.003994981
-0.0002845304
-0.002837232
-0.001157749
-0.001211877
-0.001625355
0.00078514
-0.001997017
0.002935224
-0.002150084
0.004696259
-0.001761036
0.005343773
-0.0006475141
0.005033615
0.0003101589
0.002431061
0.002602553
-0.002389055
0.004820117
-0.00466983
0.002280775
-0.001906566
-0.002763265
0.0006058566
-0.002512422
0.001835262
-0.001229405
0.003680533
-0.001845272
0.006978652
-0.003298118
0.009331103
-0.002352452
0.006135932
0.003195171
0.0005601027
0.00557583
-0.000777747
0.00133785
-0.000742257
-3.548997e-05
-0.004458512
0.003716255
-0.008549342
0.004090831
-0.01113986
0.002590521
-0.01251028
0.00137042
-0.0132889
0.000778618
-0.01378149
0.0004925853
-0.0140239
0.0002424132
-0.01413407
0.0001101698
-0.01416075
2.668223e-05
-0.01411587
-4.48772e-05
-0.0140463
-6.957091e-05
-0.01391593
-0.0001303775
-0.01374198
-0.0001739462
-0.01350867
-0.0002333148
-0.01324933
-0.0002593317
-0.01297026
-0.0002790686
-0.01263695
-0.0003333185
-0.01228236
-0.0003545841
-0.01191777
-0.0003645885
-0.01148994
-0.0004278318
-0.01103848
-0.0004514574
-0.01056136
-0.0004771295
-0.0100764
-0.0004849583
-0.009569599
-0.0005067981
-0.009014647
-0.0005549518
-0.008465518
-0.0005491291
-0.007875613
-0.0005899046
-0.007268201
-0.0006074119
-0.006653156
-0.0006150457
-0.006029187
-0.000623969
-0.005375212
-0.0006539749
-0.004718212
-0.000657
-0.004052006
-0.0006662056
-0.003370704
-0.0006813024
-0.002685288
-0.0006854156
-0.002019197
-0.0006660912
-0.001308949
-0.0007102476
-0.0006251959
-0.0006837533
1.97997e-05
-0.0006449956
0.0006497648
-0.0006299651
0.001397307
-0.000747542
0.002134402
-0.0007370954
0.002858203
-0.0007238007
0.003567437
-0.0007092345
0.00425814
-0.000690703
0.004946648
-0.0006885082
0.005612772
-0.0006661236
0.006289766
-0.0006769943
0.0069464
-0.0006566342
0.007567705
-0.0006213048
0.008192826
-0.0006251211
0.008805279
-0.0006124528
0.009395214
-0.0005899347
0.009982219
-0.0005870054
0.0105555
-0.0005732831
0.0110744
-0.0005188992
0.01159015
-0.0005157444
0.01209139
-0.0005012445
0.01255168
-0.0004602896
0.01301394
-0.0004622597
0.01342387
-0.0004099282
0.01380741
-0.0003835424
0.01415261
-0.0003451974
0.01445568
-0.0003030758
0.01475584
-0.0003001599
0.01501985
-0.0002640067
0.01524582
-0.0002259681
0.01543063
-0.0001848142
0.01557489
-0.0001442574
0.01569147
-0.0001165817
0.01574731
-5.584242e-05
0.01578368
-3.636158e-05
0.01574472
3.895403e-05
0.01553928
0.0002054388
0.01519791
0.0003413718
0.01471836
0.0004795519
0.01402647
0.0006918905
0.01289527
0.001131197
0.01083034
0.002064934
0.007070034
0.003760302
0.002064379
0.005005656
0.0003282177
0.001736161
0.0005600009
-0.0002317832
-0.003432716
0.003992717
-0.009467477
0.006034761
-0.009726005
0.0002585288
-0.006069661
-0.003656344
-0.003489752
-0.002579909
-0.002142931
-0.001346821
-0.000202175
-0.001940756
0.003211554
-0.003413729
0.005019576
-0.001808022
-0.001642759
0.006662336
-0.007871703
0.006228943
-0.009492745
0.001621043
-0.008512392
-0.0009803536
-0.007250209
-0.001262182
-0.005642727
-0.001607482
-0.003603001
-0.002039726
-0.001067554
-0.002535447
0.002192676
-0.00326023
0.004705813
-0.002513137
0.005243172
-0.0005373597
0.004361537
0.0008816352
0.00350244
0.0008590977
0.003124152
0.0003782876
0.002761798
0.0003623545
0.002807129
-4.533124e-05
0.003553018
-0.0007458889
0.003822887
-0.0002698693
0.002520041
0.001302846
0.001213255
0.001306786
0.0002414078
0.0009718471
-0.00222205
0.002463458
-0.005653321
0.003431271
-0.007867824
0.002214503
-0.008444999
0.0005771748
-0.0002909636
-0.009567568
0.01026577
-0.001243879
-0.008654785
-0.001583678
-0.007598584
-0.001869811
-0.006391726
-0.002150366
-0.005098844
-0.002309318
-0.003768785
-0.002378569
-0.002443115
-0.002379823
-0.001152341
-0.002355263
-0.0003243528
-0.001528345
5.696609e-05
-0.000735186
8.403049e-05
-0.0001325858
-0.0004038649
0.0008152201
-0.0009901158
0.001120222
-0.0008119377
-0.0002518352
-0.0004980071
-0.0009532288
-0.002418232
0.002386296
-0.005510884
0.005268189
-0.006230726
0.002372393
-0.005118241
-0.001397015
-0.00357872
-0.00269727
-0.001280465
-0.00392361
0.001354935
-0.004632417
0.004093006
-0.004888155
0.006283828
-0.003951857
0.007070624
-0.00143431
0.006836233
0.0005445495
0.004698368
0.004740418
-0.002090806
0.01160929
-0.006896965
0.007086934
-0.004184272
-0.005475957
-0.002144303
-0.004552391
-0.001553234
-0.001820473
0.0002395745
-0.00363808
0.003185255
-0.006243799
0.006860601
-0.006027798
0.006470634
0.003585139
0.001030964
0.0110155
-0.005717624
0.008086438
-0.01174339
0.005990273
-0.01651063
0.008483495
-0.01938818
0.006968384
-0.02029121
0.003493554
-0.02050299
0.001582199
-0.02053789
0.0008135191
-0.02049835
0.0004530449
-0.02034127
8.533453e-05
-0.02016181
-6.929542e-05
-0.01997652
-0.0001586043
-0.01975054
-0.0002708637
-0.01950546
-0.000314643
-0.01919756
-0.0004382762
-0.01884726
-0.0005242532
-0.01843325
-0.0006473203
-0.01799231
-0.0007002736
-0.01753718
-0.0007341951
-0.01702369
-0.0008468166
-0.01648475
-0.0008935241
-0.01593953
-0.0009098001
-0.0153219
-0.001045461
-0.01468171
-0.001091648
-0.01401189
-0.001146957
-0.01333266
-0.001164188
-0.01263353
-0.001205921
-0.01187719
-0.001311297
-0.01112956
-0.001296755
-0.01033913
-0.001380334
-0.009526253
-0.001420293
-0.00870776
-0.001433539
-0.007882858
-0.00144887
-0.00702136
-0.001515473
-0.006155477
-0.001522883
-0.005281096
-0.001540587
-0.004390061
-0.001572337
-0.003496681
-0.001578795
-0.00262289
-0.001539882
-0.001703506
-0.001629632
-0.0008135473
-0.001573712
3.38651e-05
-0.001492408
0.0008625765
-0.001458676
0.001824075
-0.00170904
0.002778332
-0.001691352
0.003718204
-0.001663673
0.004639598
-0.001630629
0.005542136
-0.00159324
0.006444014
-0.001590387
0.007320239
-0.001542348
0.008209445
-0.0015662
0.009076027
-0.001523217
0.009899584
-0.001444861
0.0107302
-0.001455742
0.01155052
-0.001432767
0.01234248
-0.001381899
0.01313195
-0.00137647
0.01391003
-0.001351361
0.01462405
-0.001232919
0.01533872
-0.001230417
0.01603725
-0.001199772
0.01669009
-0.001113131
0.01734727
-0.001119441
0.01794299
-0.001005651
0.01851658
-0.0009571304
0.01904714
-0.0008757566
0.01953144
-0.000787379
0.02001941
-0.000788125
0.02046891
-0.0007135058
0.02087658
-0.0006336475
0.02124225
-0.0005504806
0.02156597
-0.0004679737
0.02186301
-0.0004136254
0.02209844
-0.0002912736
0.02233209
-0.0002700104
0.02254211
-0.0001710632
0.02266429
8.325441e-05
0.02274461
0.0002610508
0.02279432
0.0004298459
0.0227932
0.0006930064
0.02264583
0.001278566
0.02212157
0.002589196
0.02006681
0.00581507
0.01572942
0.009343044
0.009099663
0.008365915
0.001827517
0.007040363
-0.005113918
0.01093415
-0.007493348
0.008414191
-0.004973789
-0.00226103
-0.001607456
-0.007022678
0.0007000866
-0.004887451
0.001552999
-0.002199734
0.002321065
-0.002708821
0.005308501
-0.006401165
0.004974934
-0.001474455
-0.00492001
0.01655728
-0.01089917
0.0122081
-0.01121632
0.001938191
-0.009988163
-0.002208507
-0.008552191
-0.002698155
-0.0066677
-0.003491973
-0.004238738
-0.004468688
-0.001220258
-0.005553927
0.002655891
-0.007136378
0.005977476
-0.005834722
0.007668593
-0.002228476
0.007778518
0.0007717094
0.006685141
0.001952476
0.00455138
0.002512048
0.002039949
0.002873786
0.001154976
0.0008396417
0.001821395
-0.001412307
0.002769965
-0.001218439
0.002597882
0.001474928
-0.0001939578
0.004098626
-0.005012493
0.005790382
-0.009232712
0.006683677
-0.0114096
0.005608158
-0.01150168
0.002306585
-0.01083611
-8.839133e-05
-0.0008613066
-0.01115496
0.01200802
-0.002096938
-0.01008827
-0.002650369
-0.008833065
-0.003125018
-0.007391488
-0.003591942
-0.005841699
-0.003859108
-0.004233397
-0.003986871
-0.002610886
-0.004002335
-0.001021865
-0.003944283
-2.766056e-05
-0.002522549
0.0004437867
-0.001206633
0.0003599115
-4.871058e-05
-0.0003199725
0.001495104
-0.001051369
0.001851619
-0.001168508
-0.0001346961
-0.001722804
-0.0003989331
-0.004557719
0.005221212
-0.007231751
0.007942221
-0.007026425
0.002167066
-0.005490261
-0.002933178
-0.003545024
-0.004642508
-0.0007678038
-0.006700829
0.00227691
-0.00767713
0.005423203
-0.008034449
0.007921874
-0.006450528
0.008667731
-0.002180167
0.007982228
0.001230053
0.005812203
0.006910443
-0.001459626
0.01888112
-0.008291965
0.01391927
-0.007649135
-0.006118788
-0.007363401
-0.004838126
-0.007502746
-0.001681128
-0.006117445
-0.005023381
-0.002616166
-0.009745078
9.073314e-05
-0.008734696
0.002333435
0.001342437
-0.003281264
0.0166302
-0.01469128
0.01949645
-0.02197847
0.01327747
-0.02401233
0.01051735
-0.02414068
0.007096732
-0.0239905
0.003343374
-0.02406254
0.00165424
-0.0241443
0.0008952767
-0.02419092
0.0004996716
-0.02408588
-1.970377e-05
-0.02392802
-0.0002271631
-0.02373349
-0.0003531348
-0.02347522
-0.0005291265
-0.02319512
-0.0005947488
-0.02283757
-0.0007958259
-0.02243048
-0.0009313416
-0.02194629
-0.001131515
-0.02142913
-0.001217427
-0.02089625
-0.001267076
-0.02029081
-0.001452258
-0.01965494
-0.001529389
-0.01901303
-0.001551714
-0.01828163
-0.001776863
-0.01752343
-0.001849846
-0.01672939
-0.001941001
-0.01592381
-0.00196977
-0.01509438
-0.002035345
-0.01419403
-0.002211652
-0.0133053
-0.002185485
-0.01236284
-0.002322791
-0.01139365
-0.002389481
-0.01041694
-0.002410254
-0.009432065
-0.002433742
-0.008402771
-0.002544767
-0.007367833
-0.002557821
-0.006321657
-0.002586762
-0.005255784
-0.002638211
-0.004185801
-0.002648778
-0.003137324
-0.002588359
-0.002036522
-0.002730433
-0.0009686332
-0.002641601
5.394956e-05
-0.002514991
0.001055534
-0.002460261
0.002203559
-0.002857065
0.003344467
-0.002832261
0.004468417
-0.002787623
0.005569012
-0.002731224
0.006646963
-0.002671191
0.007723596
-0.002667021
0.008768509
-0.002587261
0.009828734
-0.002626425
0.01086058
-0.002555064
0.0118406
-0.002424876
0.01282898
-0.002444126
0.01380381
-0.0024076
0.01474427
-0.002322351
0.01568189
-0.00231409
0.01660498
-0.002274461
0.01745039
-0.002078325
0.01829723
-0.002077261
0.01912386
-0.002026394
0.01989424
-0.001883514
0.02067182
-0.001897023
0.02137311
-0.001706938
0.0220489
-0.001632917
0.02267187
-0.001498728
0.02323746
-0.001352968
0.0238091
-0.001359767
0.02433221
-0.001236617
0.02480631
-0.001107745
0.02522874
-0.0009729171
0.02560089
-0.0008401167
0.02594135
-0.0007540896
0.02620723
-0.0005571555
0.02646981
-0.0005325863
0.0266769
-0.0003781571
0.02674398
1.617575e-05
0.02674881
0.0002562195
0.02671879
0.0004598697
0.02666285
0.000748942
0.02656661
0.001374808
0.02662102
0.002534791
0.02678665
0.005649435
0.02596165
0.01016804
0.02109477
0.01323279
0.009668801
0.01846633
-0.001120267
0.02172322
-0.001847511
0.009141435
0.00192777
-0.006036311
0.005817694
-0.0109126
0.008215933
-0.007285691
0.008415949
-0.00239975
0.00747521
-0.001768083
0.007581018
-0.006506973
0.003719271
0.002387292
-0.006600228
0.02687678
-0.01145669
0.01706457
-0.01206929
0.002550784
-0.01080406
-0.003473734
-0.009373502
-0.004128712
-0.007353095
-0.00551238
-0.004638345
-0.007183438
-0.001255605
-0.008936667
0.0031144
-0.01150638
0.007005289
-0.009725611
0.009104914
-0.004328102
0.00943578
0.0004408438
0.007672312
0.003715943
0.003505257
0.006679103
-0.0003094754
0.006688518
-0.0013678
0.001897967
-0.0008416411
-0.001938467
-4.816929e-05
-0.002011911
-0.001060681
0.00248744
-0.006162151
0.009200097
-0.01164142
0.01126965
-0.01386935
0.008911602
-0.01366902
0.005407832
-0.0129857
0.001623258
-0.01256602
-0.0005080684
-0.001419304
-0.01321427
0.01420357
-0.003086239
-0.01194855
-0.003916087
-0.01045209
-0.004621479
-0.008725449
-0.00531858
-0.006862074
-0.005722483
-0.004914447
-0.005934498
-0.00292761
-0.005989171
-0.0009328697
-0.005939024
0.0004431576
-0.003898577
0.001094959
-0.001858434
0.0009588846
8.736374e-05
4.5836e-05
0.002408153
-0.001064224
0.002961678
-0.001946702
0.0007477818
-0.003513116
0.001167481
-0.00663459
0.008342686
-0.008653951
0.009961583
-0.008009104
0.00152222
-0.006228905
-0.004713377
-0.003836119
-0.007035294
-0.0005832938
-0.009953654
0.002896921
-0.01115734
0.006490619
-0.01162815
0.009352114
-0.009312023
0.009996406
-0.002824459
0.008886959
0.0023395
0.006235673
0.009561729
-0.001098963
0.02621576
-0.009822955
0.02264327
-0.01216867
-0.003773073
-0.01401664
-0.002990159
-0.01499201
-0.0007057584
-0.0141072
-0.005908182
-0.01083437
-0.01301791
-0.006149214
-0.01341985
-0.005038274
0.0002314977
-0.01311982
0.02471174
-0.02452343
0.03090007
-0.02879243
0.01754647
-0.02870883
0.01043375
-0.02854964
0.00693754
-0.0287894
0.003583129
-0.02908391
0.001948753
-0.02924434
0.001055706
-0.02930584
0.0005611752
-0.02915765
-0.0001678916
-0.02894059
-0.0004442247
-0.02868162
-0.0006121051
-0.02834825
-0.0008624991
-0.0279909
-0.0009520964
-0.02754441
-0.001242314
-0.02704006
-0.0014357
-0.02644432
-0.001727247
-0.02581003
-0.00185172
-0.02515825
-0.001918856
-0.02442162
-0.002188891
-0.02364873
-0.002302278
-0.02286925
-0.002331194
-0.02198597
-0.002660139
-0.02106886
-0.002766959
-0.02010986
-0.002899998
-0.01913843
-0.002941199
-0.01813986
-0.00303392
-0.01705511
-0.003296396
-0.01598707
-0.003253531
-0.01485339
-0.003456469
-0.01368941
-0.003553461
-0.01251546
-0.003584207
-0.01133241
-0.003616786
-0.01009633
-0.003780849
-0.008853541
-0.003800609
-0.007596997
-0.003843307
-0.006318802
-0.003916406
-0.00503332
-0.00393426
-0.00377349
-0.003848189
-0.002449878
-0.004054045
-0.001163622
-0.003927857
7.588637e-05
-0.003754499
0.001292074
-0.003676449
0.002668517
-0.004233508
0.004035065
-0.004198809
0.005384218
-0.004136776
0.006703245
-0.00405025
0.007993688
-0.003961634
0.009281621
-0.003954955
0.01053106
-0.003836699
0.0118014
-0.003896768
0.0130355
-0.003789164
0.01421093
-0.0036003
0.015398
-0.0036312
0.01656726
-0.003576858
0.01769899
-0.003454088
0.01882942
-0.003444519
0.01993964
-0.003384681
0.02096066
-0.00309934
0.02198427
-0.003100871
0.02298262
-0.003024747
0.023916
-0.002816898
0.02485868
-0.002839705
0.02571094
-0.002559188
0.02653271
-0.002454696
0.02729239
-0.002258403
0.02798686
-0.002047444
0.02868832
-0.002061222
0.02933187
-0.001880171
0.02991979
-0.00169566
0.03044485
-0.001497978
0.03091313
-0.001308393
0.03134549
-0.001186453
0.03168982
-0.0009014809
0.03203133
-0.0008741005
0.03231104
-0.0006578692
0.03241954
-9.231975e-05
0.03243811
0.0002376442
0.03239812
0.0004998634
0.03228427
0.0008627875
0.03202909
0.001629992
0.03169571
0.002868166
0.03166662
0.005678529
0.03209334
0.009741326
0.03085771
0.01446842
0.0223099
0.02701414
0.01116534
0.03286778
0.007669072
0.0126377
0.01145933
-0.009826572
0.01575276
-0.01520603
0.01762905
-0.009161979
0.01713596
-0.001906662
0.01444612
0.0009217539
0.01081521
-0.002876054
0.002987217
0.01021528
-0.007145549
0.03700955
-0.0112456
0.02116462
-0.01256033
0.003865515
-0.0111378
-0.004896266
-0.009751696
-0.005514815
-0.007636667
-0.00762741
-0.004634032
-0.01018607
-0.0009528469
-0.01261785
0.003711346
-0.01617058
0.008042608
-0.01405687
0.01034039
-0.006625883
0.0101498
0.0006314305
0.006472377
0.007393369
0.0004485873
0.01270289
-0.003516583
0.01065369
-0.004807749
0.003189132
-0.005307269
-0.001438946
-0.006175333
-0.001143847
-0.009159284
0.005471391
-0.0136772
0.01371801
-0.01645047
0.01404293
-0.01629271
0.008753836
-0.01554591
0.004661037
-0.01523217
0.001309519
-0.01487049
-0.0008697466
-0.00208623
-0.01579899
0.01697609
-0.00426334
-0.0142817
-0.005433375
-0.0124878
-0.006415379
-0.0104143
-0.007392082
-0.00817146
-0.007965319
-0.005816472
-0.008289486
-0.00340386
-0.008401783
-0.0009412218
-0.008401662
0.0009300156
-0.005769814
0.001952037
-0.002880455
0.001932726
0.0001066747
0.0007633814
0.003577497
-0.000980457
0.004705517
-0.00295217
0.002719495
-0.005558588
0.003773899
-0.008631826
0.01141592
-0.01007919
0.01140894
-0.009204995
0.0006480276
-0.007184207
-0.006734165
-0.004390547
-0.009828954
-0.0006860657
-0.01365814
0.003096773
-0.01494018
0.007039655
-0.01557103
0.01031354
-0.01258591
0.01085731
-0.003368228
0.009389697
0.003807114
0.00612583
0.0128256
-0.00117781
0.0335194
-0.01180656
0.03327202
-0.01771517
0.002135538
-0.0217971
0.001091767
-0.02380538
0.001302523
-0.02402839
-0.005685172
-0.02240152
-0.01464479
-0.01939048
-0.01643088
-0.02061946
0.001460471
-0.02727427
0.03136655
-0.03321426
0.03684007
-0.03384243
0.01817464
-0.03361438
0.0102057
-0.03391234
0.007235493
-0.03428158
0.003952371
-0.03461966
0.002286836
-0.03480786
0.001243905
-0.03491865
0.0006719714
-0.03476855
-0.0003179993
-0.03453629
-0.0006764797
-0.03425262
-0.0008957763
-0.03386353
-0.001251593
-0.03346272
-0.001352907
-0.03293796
-0.001767066
-0.03235019
-0.002023477
-0.03164519
-0.002432249
-0.03089474
-0.002602167
-0.03012666
-0.002686933
-0.02924901
-0.003066539
-0.02832836
-0.003222934
-0.02740339
-0.003256166
-0.02635031
-0.003713216
-0.02525363
-0.003863639
-0.02410748
-0.004046148
-0.02294875
-0.004099929
-0.02175706
-0.004225605
-0.0204558
-0.004597657
-0.01918171
-0.004527628
-0.01782282
-0.004815355
-0.01643107
-0.004945207
-0.01502514
-0.004990137
-0.01361046
-0.00503147
-0.01212859
-0.00526272
-0.01063842
-0.005290779
-0.009129091
-0.005352634
-0.007597288
-0.00544821
-0.006054454
-0.005477094
-0.004544134
-0.005358509
-0.002951392
-0.005646787
-0.00140014
-0.005479109
0.0001029551
-0.005257594
0.001578876
-0.00515237
0.00323104
-0.005885672
0.004867845
-0.005835614
0.006487029
-0.005755959
0.008062219
-0.00562544
0.009599993
-0.005499408
0.01113637
-0.005491336
0.01262706
-0.005327382
0.01414907
-0.005418782
0.01562179
-0.005261886
0.01703147
-0.005009973
0.01845783
-0.005057562
0.01985435
-0.00497338
0.02121149
-0.004811222
0.02257204
-0.004805076
0.02389842
-0.004711061
0.02512049
-0.00432141
0.02634796
-0.004328335
0.02754112
-0.004217914
0.02865301
-0.003928782
0.02978234
-0.003969037
0.03079682
-0.003573663
0.03177465
-0.003432526
0.0326766
-0.003160353
0.0334968
-0.002867646
0.03432889
-0.002893317
0.03508372
-0.002634997
0.03577703
-0.002388976
0.03638758
-0.002108522
0.03692999
-0.001850801
0.03743326
-0.001689729
0.03781571
-0.001283928
0.038205
-0.001263388
0.03851006
-0.0009629293
0.03860911
-0.0001913731
0.03860229
0.0002444669
0.03851829
0.0005838569
0.03836467
0.001016407
0.03807033
0.001924338
0.03767365
0.003264847
0.03735473
0.005997446
0.03728535
0.009810702
0.03787019
0.01388359
0.03575055
0.02913378
0.02984909
0.03876923
0.02603706
0.01644974
0.0267088
-0.01049831
0.02841056
-0.01690779
0.02864661
-0.009398031
0.02720147
-0.0004615231
0.02311815
0.005005071
0.01565635
0.004585748
0.003861393
0.02201024
-0.006848663
0.0477196
-0.01094185
0.02525781
-0.01279042
0.005714078
-0.01096877
-0.006717915
-0.009525641
-0.00695794
-0.007238101
-0.00991495
-0.00388171
-0.01354246
-2.255171e-05
-0.01647701
0.004488363
-0.02068149
0.008764539
-0.01833305
0.01061863
-0.008479976
0.008720682
0.00252938
0.002551983
0.01356207
-0.003832281
0.01908716
-0.007170792
0.0139922
-0.009537827
0.005556167
-0.01196891
0.0009921415
-0.01472633
0.001613573
-0.01775672
0.008501781
-0.0196007
0.01556199
-0.01932285
0.01376508
-0.01844942
0.007880406
-0.01822601
0.004437624
-0.01814839
0.001231902
-0.01775732
-0.001260825
-0.002867459
-0.01901955
0.02044153
-0.005685318
-0.01717471
-0.007278216
-0.01500648
-0.008583606
-0.01250101
-0.009897555
-0.009801763
-0.01066457
-0.0069606
-0.01113065
-0.004047875
-0.01131451
-0.001061065
-0.01138847
0.001370266
-0.008201144
0.002908295
-0.004418484
0.003296705
-0.0002817352
0.002013053
0.004861149
-0.0005074998
0.00722607
-0.003739599
0.005951595
-0.007389777
0.007424077
-0.01034559
0.01437173
-0.01124501
0.01230837
-0.01015317
-0.0004438111
-0.007953262
-0.008934074
-0.005002592
-0.01277962
-0.001106589
-0.01755414
0.002614941
-0.01866171
0.006760892
-0.01971698
0.01063293
-0.01645795
0.01126587
-0.00400116
0.009554154
0.005518825
0.005647043
0.01673271
-0.001650351
0.04081679
-0.01423034
0.04585201
-0.02367387
0.01157907
-0.02955586
0.006973753
-0.03272356
0.004470222
-0.03464329
-0.003765436
-0.03588406
-0.01340402
-0.03689556
-0.01541939
-0.03958103
0.004145944
-0.04150373
0.03328925
-0.04077329
0.03610962
-0.03990396
0.0173053
-0.040484
0.01078574
-0.040976
0.007727502
-0.04140589
0.004382258
-0.04179653
0.002677479
-0.04197225
0.001419615
-0.0420768
0.0007765226
-0.04184278
-0.0005520157
-0.04154857
-0.0009706868
-0.04118979
-0.001254556
-0.04069687
-0.001744513
-0.04021329
-0.001836488
-0.039569
-0.002411358
-0.03885798
-0.002734499
-0.03800176
-0.003288461
-0.03709116
-0.003512767
-0.03616728
-0.003610813
-0.03510528
-0.004128549
-0.03399516
-0.004333053
-0.03288725
-0.004364072
-0.03162077
-0.004979697
-0.03029759
-0.005186817
-0.02892131
-0.00542243
-0.02753053
-0.005490712
-0.02610381
-0.005652322
-0.02453544
-0.006166028
-0.02301512
-0.006047946
-0.02138155
-0.00644893
-0.01971384
-0.006612917
-0.01802923
-0.006674748
-0.01633857
-0.006722128
-0.0145658
-0.007035494
-0.01278602
-0.007070551
-0.01097423
-0.007164424
-0.009139721
-0.007282723
-0.007281904
-0.00733491
-0.005476934
-0.007163479
-0.003563442
-0.007560278
-0.00168655
-0.007356002
0.0001370993
-0.007081243
0.001927696
-0.006942967
0.003914141
-0.007872116
0.00587813
-0.007799604
0.007809109
-0.007686938
0.00967886
-0.007495192
0.01150804
-0.007328589
0.01334253
-0.007325828
0.01512594
-0.00711079
0.0169591
-0.007251939
0.01871936
-0.007022146
0.02041702
-0.00670764
0.02214083
-0.006781367
0.0238114
-0.006643953
0.02544043
-0.006440249
0.02709014
-0.006454784
0.02867885
-0.006299772
0.03014368
-0.005786236
0.03162254
-0.005807198
0.03305733
-0.005652709
0.0343891
-0.005260546
0.0357515
-0.005331444
0.03697271
-0.004794868
0.03815058
-0.004610399
0.03923525
-0.004245025
0.04022694
-0.003859329
0.04123869
-0.003905072
0.04214703
-0.003543331
0.04299625
-0.003238198
0.04373624
-0.002848519
0.04440332
-0.002517882
0.04502452
-0.002310928
0.04550428
-0.00176368
0.04598981
-0.001748921
0.04636886
-0.001341981
0.04652973
-0.0003522425
0.04655507
0.0002191224
0.04650356
0.0006353704
0.04635536
0.00116461
0.04602728
0.002252419
0.04557267
0.003719456
0.04514395
0.006426159
0.04453859
0.01041606
0.04461299
0.01380919
0.04675906
0.02698771
0.04782168
0.03770661
0.04582145
0.01844997
0.04301602
-0.007692877
0.04111222
-0.01500399
0.03911776
-0.007403572
0.03652385
0.002132386
0.03166451
0.009864411
0.02173598
0.01451428
0.007013987
0.03673223
-0.005112833
0.05984642
-0.01021829
0.03036326
-0.01256311
0.008058908
-0.01021508
-0.009065946
-0.008659379
-0.008513644
-0.00592407
-0.01265026
-0.002074064
-0.01739247
0.001573159
-0.02012423
0.005405067
-0.0245134
0.008511824
-0.0214398
0.008417621
-0.008385773
0.003736914
0.007210087
-0.003423949
0.02072293
-0.008103721
0.02376693
-0.01086984
0.01675832
-0.01439407
0.009080394
-0.01821839
0.004816461
-0.0217271
0.005122285
-0.02376503
0.01053971
-0.02327012
0.01506707
-0.02189251
0.01238747
-0.02163478
0.007622678
-0.02187449
0.004677335
-0.02183518
0.001192599
-0.02136687
-0.001729138
-0.003792803
-0.02295924
0.02467167
-0.00739775
-0.020721
-0.009516457
-0.01810337
-0.01120123
-0.01503165
-0.01296928
-0.01179744
-0.01389877
-0.008381415
-0.01454667
-0.004890569
-0.01480535
-0.001309079
-0.01496996
0.001791464
-0.01130169
0.003958859
-0.006585879
0.004965709
-0.001288585
0.003938169
0.005888689
0.0007253911
0.01043885
-0.003782844
0.01045983
-0.008466281
0.01210751
-0.01131146
0.01721692
-0.01167995
0.01267685
-0.01045203
-0.00167173
-0.008342098
-0.011044
-0.005673388
-0.01544833
-0.00208385
-0.02114368
0.001193716
-0.02193928
0.005620706
-0.02414397
0.01062102
-0.02145826
0.01176341
-0.00514355
0.00965246
0.007629771
0.004680318
0.02170485
-0.003474346
0.04897145
-0.01764355
0.06002121
-0.02964298
0.0235785
-0.0363807
0.01371147
-0.04039518
0.008484701
-0.04379257
-0.0003680486
-0.04724935
-0.00994723
-0.05130523
-0.01136352
-0.05456198
0.007402702
-0.05272392
0.03145119
-0.04850522
0.03189093
-0.04788973
0.01668982
-0.04874201
0.01163801
-0.04912247
0.008107969
-0.0495711
0.004830882
-0.05003021
0.00313659
-0.05020529
0.001594697
-0.05038167
0.0009529066
-0.05011959
-0.0008141032
-0.04977983
-0.001310444
-0.0493617
-0.00167269
-0.04874884
-0.002357365
-0.04820607
-0.002379264
-0.04741909
-0.003198334
-0.04658385
-0.00356974
-0.04555798
-0.004314337
-0.04446023
-0.00461051
-0.04336452
-0.004706525
-0.04209564
-0.005397428
-0.04076393
-0.005664766
-0.03943427
-0.005693733
-0.03792516
-0.006488803
-0.0363404
-0.006771578
-0.03469228
-0.007070546
-0.03300672
-0.007176277
-0.0313221
-0.00733694
-0.02942204
-0.008066088
-0.02761343
-0.007856552
-0.02564229
-0.008420071
-0.02364712
-0.008608085
-0.02163424
-0.008687632
-0.0195804
-0.008775968
-0.01747575
-0.00914014
-0.01535797
-0.00918833
-0.01318978
-0.009332614
-0.01101538
-0.009457124
-0.008746857
-0.009603437
-0.006611488
-0.009298848
-0.004312782
-0.009858985
-0.00203465
-0.009634134
0.000181063
-0.009296956
0.002354609
-0.009116513
0.00474433
-0.01026184
0.007101
-0.01015627
0.009365894
-0.009951832
0.01158669
-0.009715988
0.01378221
-0.00952411
0.01597643
-0.009520051
0.01811576
-0.009250119
0.0203439
-0.009480074
0.02245484
-0.00913309
0.02449025
-0.00874305
0.02656177
-0.00885289
0.02857967
-0.00866185
0.03053786
-0.008398441
0.0325088
-0.008425722
0.03441691
-0.008207878
0.0361674
-0.007536734
0.03793831
-0.007578106
0.03963794
-0.007352338
0.04124795
-0.006870552
0.0428832
-0.006966699
0.04433598
-0.006247648
0.04575953
-0.006033941
0.04704061
-0.005526108
0.04822747
-0.005046189
0.04944473
-0.00512233
0.05051111
-0.004609718
0.05153811
-0.004265199
0.05239929
-0.003709696
0.0531967
-0.003315294
0.05394398
-0.00305821
0.05448764
-0.002307333
0.05506658
-0.002327867
0.05553818
-0.00181358
0.05569223
-0.0005062877
0.05569929
0.0002120579
0.05559461
0.0007400527
0.05540941
0.001349809
0.0550301
0.002631727
0.05456994
0.004179617
0.05416027
0.006835829
0.05370218
0.01087416
0.05305585
0.01445552
0.05594118
0.02410238
0.06044775
0.03320004
0.05997851
0.01891921
0.05517402
-0.002888386
0.05105949
-0.01088946
0.04755783
-0.003901916
0.04412672
0.005563498
0.03921655
0.01477458
0.02882747
0.02490337
0.01295034
0.05260936
-0.0005523658
0.07334913
-0.007299118
0.03711001
-0.01085659
0.01161638
-0.008422996
-0.01149954
-0.00719308
-0.00974356
-0.003517033
-0.01632631
0.0009302991
-0.0218398
0.004154131
-0.02334806
0.0063315
-0.02669077
0.006509183
-0.02161749
0.002823787
-0.004700378
-0.003881002
0.01391488
-0.00915548
0.02599741
-0.0115819
0.02619335
-0.01429694
0.01947336
-0.01843113
0.01321458
-0.02269152
0.009076856
-0.026077
0.008507764
-0.02727937
0.01174208
-0.02622298
0.01401068
-0.02546011
0.0116246
-0.02599321
0.008155779
-0.02642063
0.005104759
-0.02638708
0.001159044
-0.025788
-0.002328218
-0.00490913
-0.02767567
0.02973167
-0.009453751
-0.02500259
-0.01218954
-0.02187024
-0.01433357
-0.01812643
-0.01671309
-0.0142341
-0.0177911
-0.01010938
-0.0186714
-0.005963793
-0.01895094
-0.001654793
-0.01927896
0.00222917
-0.01518565
0.005113153
-0.009469862
0.006785276
-0.002960709
0.006479259
0.006194707
0.003198398
0.01371971
-0.002317287
0.01597552
-0.008158861
0.01794909
-0.01112117
0.02017923
-0.01119015
0.01274583
-0.01030779
-0.002554086
-0.008521924
-0.01282987
-0.006437359
-0.0175329
-0.003755278
-0.02382576
-0.001222682
-0.02447188
0.003770768
-0.02913742
0.01072141
-0.0284089
0.01261445
-0.007036597
0.009432674
0.01081155
0.001773406
0.02936412
-0.008364813
0.05910967
-0.02289137
0.07454777
-0.03604236
0.03672949
-0.04302001
0.02068913
-0.04777603
0.01324071
-0.05206758
0.00392351
-0.05642987
-0.005584941
-0.06167246
-0.006120936
-0.06512183
0.01085208
-0.06235743
0.02868679
-0.05808148
0.02761497
-0.05802829
0.01663663
-0.05875047
0.01236019
-0.05917466
0.008532154
-0.05962261
0.005278835
-0.06020796
0.003721941
-0.06028166
0.001668397
-0.0604753
0.001146541
-0.06013466
-0.001154738
-0.05971167
-0.00173344
-0.05926812
-0.002116241
-0.05845901
-0.003166472
-0.05784467
-0.002993603
-0.05688732
-0.004155683
-0.05591188
-0.00454518
-0.0546615
-0.00556472
-0.05331422
-0.00595779
-0.05202301
-0.005997734
-0.05053072
-0.006889718
-0.04887292
-0.007322567
-0.0472833
-0.00728335
-0.04549983
-0.008272276
-0.04361752
-0.008653884
-0.04160655
-0.00908152
-0.03956206
-0.00922077
-0.03763487
-0.00926413
-0.03526989
-0.01043106
-0.03315047
-0.009975974
-0.03071169
-0.01085885
-0.02837641
-0.01094336
-0.02596872
-0.01109532
-0.02346527
-0.01127943
-0.02098388
-0.01162153
-0.0184238
-0.01174841
-0.01581453
-0.01194188
-0.01327274
-0.01199891
-0.01050928
-0.0123669
-0.008020154
-0.01178797
-0.005218435
-0.0126607
-0.002469253
-0.01238332
0.0002322583
-0.01199847
0.002891636
-0.01177589
0.005789891
-0.01316009
0.00850584
-0.01287222
0.01115261
-0.0125986
0.01383963
-0.01240302
0.01652009
-0.01220456
0.01916598
-0.01216594
0.0217049
-0.01178904
0.02445129
-0.01222646
0.02696417
-0.01164598
0.0294159
-0.01119477