/*--------------------------------*- C++ -*----------------------------------*\
| =========                 |                                                 |
| \\      /  F ield         | OpenFOAM: The Open Source CFD Toolbox           |
|  \\    /   O peration     | Version:  2406                                  |
|   \\  /    A nd           | Website:  www.openfoam.com                      |
|    \\/     M anipulation  |                                                 |
\*---------------------------------------------------------------------------*/
FoamFile
{
    version     2.0;
    format      ascii;
    arch        "LSB;label=32;scalar=64";
    class       volVectorField;
    location    "3";
    object      U;
}
// * * * * * * * * * * * * * * * * * * * * * * * * * * * * * * * * * * * * * //

dimensions      [0 1 -1 0 0 0 0];

internalField   nonuniform List<vector> 
15536
(
(0.3151387 -8.102268 -1.253317e-21)
(0.5788025 -7.48028 -6.636317e-19)
(0.7704895 -6.681124 -1.167154e-18)
(0.8806813 -5.749475 -9.978443e-19)
(0.9028754 -4.728607 -1.359158e-20)
(0.8340374 -3.655615 8.066815e-21)
(0.6728009 -2.552965 9.987137e-21)
(0.4318269 -1.476703 -1.013736e-20)
(0.1897699 -0.590141 2.595771e-18)
(0.02024433 -0.07182772 2.773075e-18)
(-0.07756706 0.1714593 0)
(-0.04967228 0.136629 0)
(0.2671503 -0.421237 -2.199925e-20)
(0.4487797 -0.73395 5.586205e-18)
(0.1605405 -0.2984104 2.792941e-18)
(-0.2151614 0.2823283 -6.062209e-18)
(0.9218056 -1.03126 3.099689e-18)
(2.759189 -3.041773 2.238855e-20)
(3.115257 -3.330238 -4.296058e-20)
(2.464872 -2.483877 2.069948e-20)
(1.531455 -1.459633 0)
(0.1515095 -0.1969858 3.41122e-18)
(-1.505899 1.111366 0)
(-3.190623 2.279478 6.882103e-18)
(-4.295322 2.917264 -6.086581e-20)
(-4.675045 2.961203 -6.72985e-20)
(-3.749509 2.343982 6.760486e-20)
(-0.737543 0.6856297 -4.516702e-18)
(4.564836 -1.960095 -8.756902e-19)
(4.285968 -1.896047 0)
(0.07770509 -0.163466 -1.757209e-20)
(-1.451949 0.3817911 -2.552545e-18)
(-2.743848 0.6788146 2.942189e-18)
(-5.196687 1.113912 0)
(-7.945163 1.544282 -6.053923e-18)
(-9.226429 1.74586 -2.78555e-20)
(-4.274721 0.8750285 3.414592e-18)
(2.323272 -0.1756144 -1.241207e-18)
(0.09515131 -0.2583688 1.40485e-21)
(1.667334 0.05696651 -3.475436e-19)
(7.164739 0.6835023 1.319158e-18)
(10.52405 1.372163 -2.107039e-20)
(12.24234 2.035705 2.059358e-20)
(13.10176 2.694831 0)
(13.55592 3.361813 -5.319335e-18)
(13.76046 4.001538 -5.297599e-18)
(13.76411 4.600393 0)
(13.63754 5.163268 -1.012986e-17)
(13.40525 5.689047 9.876391e-18)
(13.11646 6.188864 9.524825e-18)
(12.77047 6.650632 3.459518e-20)
(12.36161 7.068835 -8.603386e-18)
(11.89882 7.439028 0)
(11.39157 7.762434 0)
(10.84946 8.035293 6.845951e-18)
(10.27074 8.249989 6.227252e-18)
(9.673616 8.41682 4.067553e-20)
(9.064656 8.534176 4.785597e-18)
(8.431726 8.584118 8.23544e-18)
(7.787545 8.574427 3.396018e-18)
(7.140363 8.508333 2.620924e-18)
(6.503224 8.394625 -1.786717e-20)
(5.87324 8.224052 0)
(5.247954 7.990683 3.945313e-19)
(4.641522 7.709556 0)
(4.051772 7.367208 1.110291e-18)
(3.4859 6.97036 -2.688102e-20)
(2.953834 6.529029 -2.560891e-21)
(2.455419 6.041309 1.114437e-20)
(1.995256 5.511748 -3.804867e-18)
(1.578717 4.948097 -1.812496e-20)
(1.206671 4.347894 2.485766e-18)
(0.8807374 3.712168 2.717367e-18)
(0.6061335 3.055133 0)
(0.3826746 2.382501 0)
(0.2142673 1.689195 3.244896e-18)
(0.09738662 0.9847926 -1.131256e-22)
(0.03573343 0.3029731 8.72441e-19)
(0.02270483 -0.339047 1.592896e-21)
(0.06316476 -1.042535 -6.521379e-21)
(0.1546812 -1.795921 -1.611834e-18)
(0.3045381 -2.540401 0)
(0.510868 -3.259364 2.867147e-18)
(0.7703369 -3.94973 0)
(1.081298 -4.610337 -2.374471e-18)
(1.441652 -5.239931 2.06741e-18)
(1.850415 -5.836916 1.512165e-20)
(2.304279 -6.400097 2.920017e-18)
(2.800203 -6.920639 7.248277e-21)
(3.333711 -7.396287 -1.516599e-18)
(3.902101 -7.828613 -7.45357e-19)
(4.502909 -8.211902 2.510338e-21)
(5.134359 -8.548812 8.811656e-19)
(5.786598 -8.834994 -1.71466e-18)
(6.455104 -9.065976 2.312362e-20)
(7.129243 -9.228589 6.620292e-21)
(7.814417 -9.337822 -4.201403e-18)
(8.506288 -9.393702 0)
(9.196036 -9.388072 1.157324e-17)
(9.886424 -9.332066 6.519762e-18)
(10.55741 -9.211174 1.124444e-19)
(11.20558 -9.028142 -8.176281e-18)
(11.82712 -8.786217 0)
(12.42095 -8.489541 0)
(12.98647 -8.146298 0)
(13.51491 -7.754435 0)
(13.99624 -7.315049 1.138622e-17)
(14.42753 -6.832027 1.200178e-17)
(14.80964 -6.310185 2.80143e-20)
(15.13747 -5.757053 -1.287282e-17)
(15.3926 -5.168824 -6.570205e-18)
(15.57467 -4.554046 -6.790029e-18)
(15.62822 -3.907419 5.313187e-20)
(15.52867 -3.233266 6.936713e-18)
(15.263 -2.543372 3.57483e-18)
(14.79132 -1.85092 -2.762797e-20)
(13.99443 -1.181857 -6.731792e-21)
(12.5787 -0.5942945 4.402379e-19)
(9.882271 -0.1246636 -8.497159e-19)
(4.726126 0.1040639 -2.061299e-20)
(-0.8617411 0.1240676 1.49372e-20)
(1.971794 0.475505 3.47549e-18)
(-0.9235844 -0.4252648 2.732759e-20)
(-7.721575 -2.354342 0)
(-10.16353 -3.037787 -8.964028e-18)
(-7.239667 -2.256036 -6.259813e-18)
(-4.607519 -1.602429 1.456216e-21)
(-2.873918 -1.103937 7.613489e-18)
(-1.738541 -0.6515623 -6.468654e-18)
(1.243202 0.8457834 0)
(5.781968 3.378395 0)
(2.113296 0.9041072 -3.931224e-18)
(-5.194801 -4.060454 0)
(-7.47663 -5.807204 8.884628e-20)
(-7.188344 -5.856444 -1.112768e-17)
(-6.103684 -5.346277 -9.477841e-18)
(-4.876601 -4.569688 4.533568e-20)
(-3.405063 -3.37767 -9.205146e-18)
(-1.734389 -1.755234 -4.076619e-20)
(0.231666 0.4675412 1.603768e-18)
(2.18288 2.878657 6.065806e-19)
(3.285171 4.463923 1.443571e-18)
(2.972213 4.290359 2.04446e-18)
(2.141253 3.43615 0)
(1.61781 2.953745 -1.406399e-20)
(1.294704 2.615037 -1.938885e-18)
(1.108079 2.491439 0)
(1.150422 2.886527 4.095397e-18)
(1.31256 3.579267 -4.298961e-20)
(1.201052 3.448485 2.400201e-20)
(0.6291589 1.907323 3.400152e-18)
(0.149962 0.744783 4.291081e-22)
(-0.08483487 -0.3744963 0)
(-0.3600012 -4.195097 1.68779e-18)
(-0.4185823 -7.472899 1.290285e-20)
(-0.2635821 -8.7282 3.149148e-21)
(0.0140412 -8.626136 -4.518484e-21)
(-0.02626971 -8.51772 -3.039316e-19)
(0.2766251 -7.795295 5.424326e-19)
(0.510961 -6.93612 0)
(0.6590155 -5.948817 8.15033e-19)
(0.7145645 -4.870141 0)
(0.6725407 -3.739054 2.427634e-18)
(0.5318279 -2.581946 8.148596e-21)
(0.3050837 -1.46568 -8.274528e-21)
(0.1047315 -0.5743064 -2.132448e-18)
(-0.02107159 -0.07131389 -2.290804e-18)
(-0.07427651 0.132803 0)
(0.03982336 0.01360531 1.848284e-20)
(0.3933053 -0.591906 -2.609743e-22)
(0.4464282 -0.7863753 -2.302052e-18)
(0.1468874 -0.3784688 -4.639912e-18)
(0.3767677 -0.3747917 2.405063e-18)
(2.530014 -2.763303 -2.34703e-18)
(3.812413 -4.284755 -1.854937e-20)
(3.168612 -3.601346 0)
(2.564821 -2.826344 0)
(1.385221 -1.606398 0)
(-0.2030408 -0.1932606 2.739579e-18)
(-1.997187 1.20279 3.700115e-20)
(-3.744072 2.435347 -3.585845e-20)
(-4.854225 3.138648 5.782329e-20)
(-5.156389 3.162669 -5.82444e-20)
(-4.469472 2.803439 0)
(-2.513049 1.989265 0)
(5.646598 -2.228822 1.346178e-18)
(5.261051 -2.599957 1.647752e-20)
(1.986508 -1.10219 -1.712633e-20)
(1.316693 -0.5954807 2.105808e-18)
(0.6043775 -0.4271444 2.490458e-18)
(-1.261863 -0.1410589 -3.417091e-20)
(-3.423961 0.2430624 -5.15202e-18)
(-6.597655 1.213148 3.361842e-18)
(-5.430627 1.277718 -5.676468e-21)
(2.831407 0.1131037 9.144644e-19)
(8.329409 0.0192256 0)
(12.08216 0.6625629 2.339505e-19)
(16.00447 1.221182 1.836408e-18)
(17.18799 1.644224 1.947828e-18)
(17.39865 2.136766 2.027517e-18)
(17.35485 2.727701 -6.423204e-20)
(17.19831 3.36212 4.24095e-18)
(16.9691 3.991566 -3.243325e-20)
(16.68507 4.619351 0)
(16.34732 5.225368 8.082939e-18)
(15.96213 5.812046 0)
(15.53215 6.370346 -5.736647e-20)
(15.04875 6.88507 5.748685e-20)
(14.50999 7.353704 6.87914e-18)
(13.92335 7.769569 -4.811296e-20)
(13.29626 8.132181 5.979966e-18)
(12.63606 8.438225 -5.514991e-18)
(11.94646 8.684489 0)
(11.2378 8.8792 3.215948e-20)
(10.51705 9.0178 -3.931907e-18)
(9.780179 9.087586 -6.560697e-18)
(9.031962 9.090216 0)
(8.284762 9.035607 -2.107615e-18)
(7.547497 8.925037 -9.194942e-21)
(6.820981 8.751175 8.705718e-19)
(6.105924 8.513743 -2.08998e-22)
(5.409445 8.218315 2.113873e-22)
(4.736693 7.861008 -9.021437e-19)
(4.090419 7.445916 1.489486e-18)
(3.481203 6.977984 0)
(2.910257 6.462733 0)
(2.382769 5.903954 -1.564769e-20)
(1.902809 5.303385 0)
(1.473436 4.662582 0)
(1.096562 3.984527 0)
(0.7769835 3.279943 -2.420033e-18)
(0.51327 2.559172 1.937967e-20)
(0.3165646 1.814225 1.068475e-20)
(0.1754371 1.058611 -5.211603e-21)
(0.09863045 0.3224556 -7.17139e-19)
(0.08392257 -0.377491 2.860246e-21)
(0.1439626 -1.134708 -6.944944e-19)
(0.255863 -1.939771 1.313331e-18)
(0.4356917 -2.734269 9.976741e-21)
(0.6798365 -3.500901 -2.324308e-18)
(0.9837561 -4.238192 -3.373105e-20)
(1.346413 -4.945205 1.967038e-18)
(1.764128 -5.615937 -1.722261e-18)
(2.237368 -6.250252 0)
(2.758735 -6.847994 -4.773998e-18)
(3.326778 -7.395018 -1.205403e-20)
(3.938523 -7.894591 1.231481e-18)
(4.588191 -8.350184 6.105851e-19)
(5.273467 -8.748746 0)
(5.992799 -9.093372 0)
(6.737128 -9.388429 0)
(7.49947 -9.616729 1.819591e-20)
(8.274756 -9.775044 -1.807887e-20)
(9.062511 -9.874441 3.3054e-18)
(9.857295 -9.913143 5.359605e-21)
(10.65517 -9.887322 -4.684967e-18)
(11.45035 -9.80195 -7.584732e-20)
(12.23249 -9.652045 1.18023e-17)
(12.99351 -9.434948 6.506403e-18)
(13.72908 -9.153626 -5.275517e-20)
(14.44196 -8.814555 7.50183e-18)
(15.12724 -8.422727 6.111863e-20)
(15.77698 -7.973381 -6.895733e-20)
(16.38362 -7.47225 6.866367e-20)
(16.94362 -6.921929 7.522727e-20)
(17.45708 -6.329018 9.872496e-18)
(17.91959 -5.698213 -7.776417e-20)
(18.3187 -5.031426 0)
(18.65358 -4.333105 0)
(18.95552 -3.619025 0)
(19.20949 -2.899096 0)
(19.39713 -2.178689 2.11527e-20)
(19.50042 -1.462025 -2.109398e-20)
(19.4997 -0.764216 1.306811e-18)
(19.31056 -0.1643047 5.0238e-21)
(18.66955 0.2594497 0)
(15.72864 0.4875853 -1.187993e-18)
(10.98529 0.7278891 2.539718e-18)
(5.85065 0.70195 -2.544265e-18)
(-2.803934 -1.124951 5.292357e-20)
(-7.344261 -2.28696 -7.704356e-18)
(-4.326413 -1.034916 4.999211e-20)
(-2.488887 -0.2854087 0)
(-0.2645818 0.2666299 7.704504e-18)
(0.7441193 0.5007475 -1.289481e-17)
(1.09683 0.7761002 -5.119591e-18)
(2.621649 1.865004 -1.544198e-20)
(6.455418 3.849127 -3.344791e-20)
(0.3936276 -0.8051377 1.45166e-20)
(-7.232554 -5.662525 0)
(-7.556075 -5.568957 9.605928e-18)
(-7.18957 -5.443969 8.992961e-18)
(-6.15147 -5.025939 1.359958e-20)
(-4.948719 -4.311516 -5.744305e-18)
(-3.510922 -3.163474 7.412654e-18)
(-1.877852 -1.556263 1.96313e-18)
(0.01323606 0.6858111 1.270639e-20)
(1.991651 3.12641 -4.76779e-19)
(3.404503 5.014981 -6.414196e-21)
(3.876815 5.827468 -1.622615e-18)
(3.45848 5.553722 1.105922e-20)
(2.526626 4.420026 -1.139826e-20)
(1.240448 2.274649 -5.863997e-21)
(0.3704424 0.7950395 0)
(0.3167424 1.05908 0)
(0.5070285 1.644753 -4.792037e-18)
(0.9014336 2.515639 0)
(0.7026926 2.100778 -5.550662e-18)
(-0.3212901 -2.410076 2.657667e-18)
(-0.7491745 -6.385039 -2.029835e-20)
(-0.935574 -9.320782 1.937641e-20)
(-0.9233737 -10.11415 1.307306e-18)
(-0.6991924 -9.484898 -6.803718e-19)
(-0.3754463 -8.9855 -3.170694e-19)
(0.1093721 -8.236617 2.448958e-19)
(0.3408883 -7.546357 -4.433372e-19)
(0.5139097 -6.704664 1.122658e-20)
(0.6075147 -5.733571 -6.805993e-19)
(0.6202495 -4.670661 0)
(0.5453114 -3.550957 -1.986572e-18)
(0.3804657 -2.39517 -1.335724e-20)
(0.1347996 -1.259926 8.504491e-19)
(-0.04949934 -0.3283489 1.757435e-18)
(-0.1499431 0.1792516 1.887554e-18)
(-0.1637605 0.354132 1.978601e-18)
(0.03435005 0.1429356 -1.517848e-20)
(0.3815552 -0.4555407 0)
(0.4064552 -0.7230927 0)
(0.3419523 -0.6617716 1.872116e-18)
(1.271311 -1.271456 1.916168e-18)
(3.36171 -3.47337 1.905736e-18)
(3.689963 -4.080195 3.078096e-20)
(2.818263 -3.310618 0)
(2.128986 -2.553888 1.687725e-18)
(0.8390429 -1.352388 1.746883e-18)
(-0.7183748 -0.02378575 -2.208555e-18)
(-2.450263 1.291169 0)
(-4.09491 2.482619 4.413242e-18)
(-5.061721 3.227447 0)
(-5.11583 3.231318 -6.370958e-18)
(-4.067133 2.798858 0)
(-2.758189 2.695508 -2.825823e-18)
(5.11817 -1.524565 -1.050806e-18)
(5.931015 -2.988235 0)
(4.751417 -2.149591 0)
(4.962217 -1.735135 -2.691185e-21)
(4.551913 -1.622554 -1.890816e-18)
(3.075057 -1.390052 2.619157e-18)
(1.028762 -0.7902638 8.795077e-18)
(-0.7758269 0.413795 -3.077566e-18)
(-3.395825 1.336649 2.15569e-18)
(7.235797 0.5149851 -6.686281e-19)
(14.76304 0.4457898 0)
(16.68808 1.064647 0)
(17.29358 1.538315 -1.473198e-18)
(16.96846 1.960592 -1.620957e-18)
(16.89507 2.547145 -3.310777e-18)
(16.82074 3.198131 3.35599e-18)
(16.69687 3.861307 8.011994e-20)
(16.50829 4.510859 -5.361435e-20)
(16.25373 5.134242 0)
(15.92627 5.721451 0)
(15.53901 6.279642 6.344024e-18)
(15.10584 6.808955 -6.125336e-18)
(14.62281 7.293217 0)
(14.087 7.73016 0)
(13.50686 8.113031 7.891658e-20)
(12.88796 8.444049 -4.985226e-18)
(12.23896 8.71784 0)
(11.5638 8.930991 -3.990911e-18)
(10.87067 9.094956 -3.55828e-18)
(10.16828 9.203775 -3.066065e-18)
(9.453486 9.243114 2.635832e-18)
(8.72739 9.217903 -3.002134e-20)
(8.003312 9.138648 1.679981e-18)
(7.289892 9.005903 0)
(6.589853 8.810498 -7.095838e-19)
(5.903503 8.552681 6.891971e-22)
(5.234391 8.240496 7.601097e-21)
(4.59335 7.86608 -8.014512e-19)
(3.975599 7.438345 0)
(3.394278 6.960103 -1.730071e-18)
(2.849341 6.437514 -1.832836e-20)
(2.348265 5.873237 2.577413e-18)
(1.892039 5.270002 1.484332e-18)
(1.484836 4.62845 -1.661879e-18)
(1.12723 3.95168 -1.826797e-18)
(0.8236504 3.249736 1.969265e-18)
(0.5711288 2.533567 -2.100586e-18)
(0.3869465 1.792979 -1.073976e-18)
(0.2482422 1.043132 2.258377e-18)
(0.1694947 0.3124602 1.173287e-18)
(0.1536809 -0.3885879 2.356493e-21)
(0.2236069 -1.140147 5.751984e-19)
(0.330074 -1.937165 -8.579259e-21)
(0.5007393 -2.722816 0)
(0.7315145 -3.482278 -1.451568e-20)
(1.017236 -4.214698 -1.22106e-20)
(1.359195 -4.91847 -1.558778e-18)
(1.752098 -5.588118 2.830179e-18)
(2.201963 -6.222194 -1.219879e-18)
(2.694954 -6.823366 1.938665e-18)
(3.232347 -7.376257 1.35772e-20)
(3.815448 -7.883107 0)
(4.433897 -8.350006 5.505665e-19)
(5.087527 -8.762107 -3.919787e-21)
(5.777123 -9.121719 4.947824e-19)
(6.49114 -9.435737 0)
(7.222723 -9.685693 1.583363e-18)
(7.970607 -9.86639 0)
(8.731693 -9.99131 -5.119473e-20)
(9.499842 -10.05853 3.200141e-18)
(10.27515 -10.0612 0)
(11.04728 -10.00847 -4.319168e-18)
(11.80866 -9.893052 -4.841923e-18)
(12.55132 -9.711601 -5.334397e-18)
(13.27061 -9.466404 0)
(13.97119 -9.162451 -1.253415e-17)
(14.64617 -8.807318 1.003643e-19)
(15.28842 -8.393874 0)
(15.8902 -7.9293 0)
(16.44809 -7.414463 0)
(16.96295 -6.85495 8.00007e-18)
(17.42725 -6.260943 -8.282418e-18)
(17.83247 -5.628561 0)
(18.17422 -4.959849 0)
(18.45099 -4.264629 4.366564e-18)
(18.66838 -3.544494 3.484858e-20)
(18.81966 -2.805341 0)
(18.89311 -2.057038 0)
(18.90686 -1.313092 -2.180259e-18)
(18.86808 -0.6020873 2.603166e-19)
(19.07821 -0.03020243 0)
(19.06717 0.4173034 9.014492e-19)
(17.74495 0.9181005 2.632739e-20)
(13.10148 0.9014582 -2.279268e-21)
(0.6400664 -0.9925407 -3.131806e-20)
(-2.811264 -1.248668 6.791489e-18)
(0.6033522 0.5425242 6.703698e-18)
(2.812462 1.677877 8.271703e-20)
(4.598022 2.208945 4.122281e-20)
(5.333037 2.382922 4.858735e-18)
(5.049434 2.511147 4.00928e-18)
(4.727537 3.019858 0)
(5.877119 3.31403 7.64665e-19)
(-1.084955 -2.582549 0)
(-5.906693 -5.322366 -1.022095e-19)
(-6.569882 -5.056555 -7.992389e-18)
(-6.429938 -4.828082 1.08063e-19)
(-5.628612 -4.483959 -1.092455e-19)
(-4.632507 -3.824486 4.764362e-18)
(-3.377533 -2.744265 -3.020393e-18)
(-1.897108 -1.211408 -1.584832e-18)
(-0.2042725 0.917463 -5.210723e-19)
(1.718957 3.20826 -3.951962e-19)
(3.250798 4.956665 0)
(3.865146 5.772945 6.526352e-21)
(3.62052 5.62391 0)
(2.400737 3.700933 -1.070034e-18)
(0.5584198 0.294268 1.294826e-18)
(-0.2892432 -0.9132423 0)
(-0.484808 -0.7969996 0)
(-0.3650845 -0.4749044 8.061505e-18)
(0.1478256 0.3466917 -2.384354e-18)
(0.03840357 -1.608925 4.295557e-18)
(-0.8374925 -7.017788 -1.55889e-20)
(-1.047037 -9.644573 1.505231e-20)
(-0.9145563 -9.976536 0)
(-0.716274 -9.376354 -1.089177e-18)
(-0.4548365 -9.03396 1.108933e-18)
(-0.1650196 -8.762016 2.64007e-19)
(-0.06957065 -8.09802 -4.025225e-19)
(0.1726915 -7.427689 -1.058677e-20)
(0.3522396 -6.602734 1.066548e-20)
(0.4454632 -5.646321 -1.572332e-20)
(0.4569917 -4.593619 1.60045e-20)
(0.3815092 -3.479912 8.127525e-19)
(0.2153426 -2.322622 -1.094299e-20)
(-0.03758288 -1.163438 -6.956264e-19)
(-0.2051473 -0.1521314 2.236763e-20)
(-0.3067386 0.4569895 -1.523795e-18)
(-0.2943323 0.6635403 -2.248412e-20)
(-0.03702349 0.4102796 0)
(0.3248747 -0.2093918 0)
(0.4353623 -0.7123933 -1.564264e-18)
(0.7628903 -1.131455 -1.550828e-18)
(2.080145 -1.982063 -3.057669e-18)
(3.684573 -3.599655 -1.551748e-18)
(3.406958 -3.819633 0)
(2.586341 -3.282927 0)
(1.819895 -2.483216 -2.76296e-18)
(0.5098209 -1.361986 -2.849179e-18)
(-0.993988 -0.1122007 3.415136e-20)
(-2.631509 1.109955 -8.125311e-20)
(-4.158411 2.275634 -7.158519e-18)
(-4.968486 3.096059 -4.910875e-18)
(-4.768938 3.090086 5.346264e-18)
(-3.548147 2.717502 4.358632e-18)
(-2.06642 3.006907 2.190452e-18)
(4.386889 -0.5126749 4.458917e-19)
(6.741524 -3.226033 0)
(7.31846 -2.991718 -3.487843e-20)
(8.170808 -2.714132 -2.582162e-18)
(8.116657 -2.706237 1.459126e-20)
(7.19349 -2.646429 3.044201e-20)
(5.559606 -2.079408 -3.328966e-18)
(2.87363 -0.6044573 -2.433572e-18)
(2.067354 1.243496 -2.244442e-20)
(12.55034 1.072936 -4.975008e-19)
(17.23707 0.7037968 -2.636661e-19)
(16.9189 0.9350866 -2.19309e-21)
(16.8227 1.272165 0)
(16.82846 1.619245 -2.075925e-20)
(16.96829 2.141563 1.394779e-18)
(16.97689 2.737925 -5.550424e-18)
(16.89252 3.380469 4.335292e-20)
(16.72183 4.019037 -2.802234e-18)
(16.46883 4.647964 -8.463327e-20)
(16.1462 5.240414 -5.313966e-18)
(15.76223 5.809289 -5.169626e-21)
(15.33084 6.356899 5.054057e-18)
(14.85105 6.857028 -4.745046e-18)
(14.31744 7.313859 0)
(13.73857 7.716693 6.375555e-20)
(13.11862 8.07104 -6.411918e-20)
(12.46704 8.368922 0)
(11.78743 8.607079 3.28865e-18)
(11.08872 8.795977 6.465675e-20)
(10.37948 8.929754 2.563407e-18)
(9.657936 8.992794 -2.110691e-18)
(8.926412 8.98801 -1.713103e-18)
(8.193281 8.930725 -1.35792e-18)
(7.47145 8.818571 -9.185301e-19)
(6.763294 8.642229 5.146344e-21)
(6.067383 8.402973 -5.195518e-21)
(5.388395 8.108783 0)
(4.738043 7.750692 6.519039e-19)
(4.11039 7.338447 -1.930273e-20)
(3.520098 6.874037 1.440898e-18)
(2.966638 6.36402 1.761325e-18)
(2.459631 5.810441 -2.09277e-18)
(1.997329 5.217229 -1.218427e-18)
(1.584925 4.584917 -3.368099e-21)
(1.222565 3.916931 1.498689e-18)
(0.9170596 3.222516 2.58687e-20)
(0.6607311 2.514067 1.683118e-18)
(0.4778534 1.778699 1.412136e-20)
(0.3369114 1.033185 -9.435564e-19)
(0.2551743 0.3068908 -4.780399e-19)
(0.2376143 -0.399251 -5.850532e-23)
(0.3189651 -1.14625 4.56603e-19)
(0.4259103 -1.935259 7.028648e-21)
(0.5968872 -2.712358 -8.41582e-19)
(0.8305891 -3.46338 1.5789e-18)
(1.119689 -4.186294 0)
(1.46559 -4.879114 -3.712035e-21)
(1.862485 -5.53671 -1.16492e-18)
(2.318995 -6.157809 1.027648e-18)
(2.817034 -6.746449 -1.675723e-18)
(3.364256 -7.283907 1.685697e-20)
(3.958674 -7.77486 -1.670791e-20)
(4.583816 -8.227692 -4.525749e-19)
(5.247809 -8.622353 0)
(5.951925 -8.961969 -4.132496e-19)
(6.673794 -9.259377 2.599912e-20)
(7.414645 -9.48974 -6.306947e-20)
(8.173344 -9.648885 -1.6635e-18)
(8.94344 -9.752575 -2.212085e-18)
(9.720015 -9.797268 -1.641704e-20)
(10.50313 -9.776232 3.004097e-18)
(11.28396 -9.697637 -5.059496e-20)
(12.05152 -9.55702 -3.859323e-18)
(12.79977 -9.348597 0)
(13.52567 -9.07398 4.644703e-18)
(14.22994 -8.743274 5.090921e-18)
(14.90499 -8.364655 5.264712e-18)
(15.54648 -7.92702 -5.589823e-18)
(16.14586 -7.44016 5.977161e-18)
(16.70089 -6.903053 0)
(17.21239 -6.321928 -1.309466e-17)
(17.67239 -5.711388 1.367005e-17)
(18.07249 -5.062037 -1.619594e-19)
(18.40799 -4.382189 -3.5154e-18)
(18.68214 -3.673485 -3.57948e-18)
(18.88746 -2.954014 0)
(19.01504 -2.233784 1.847289e-18)
(19.05362 -1.510368 -1.833659e-18)
(18.99369 -0.8207376 9.036284e-19)
(18.82364 -0.1889781 -2.231618e-19)
(18.64623 0.2738382 -4.159676e-19)
(18.7489 0.6301607 1.203658e-20)
(19.02546 1.021437 -1.449533e-18)
(18.07124 0.8840081 -1.267037e-20)
(8.417404 -0.5019204 0)
(3.383039 0.1728261 0)
(5.828397 2.487003 -1.334815e-19)
(7.921572 3.729708 1.236298e-19)
(9.084153 4.050444 0)
(9.402043 4.045634 0)
(8.629319 3.99915 0)
(7.090666 4.039431 1.925266e-18)
(5.51971 2.578152 -1.170212e-18)
(-1.442207 -3.770039 1.992241e-18)
(-4.103219 -4.553962 -4.898166e-18)
(-5.620398 -4.389081 -2.006003e-19)
(-5.563972 -3.991865 6.305052e-18)
(-4.940379 -3.736274 5.433987e-18)
(-4.150362 -3.153415 5.015697e-20)
(-3.091829 -2.140111 -2.091838e-20)
(-1.783797 -0.6763066 -2.989239e-20)
(-0.3844599 1.257976 -6.109716e-21)
(1.355874 3.287724 3.314918e-19)
(2.911198 4.844267 0)
(3.569582 5.426948 1.121239e-18)
(3.251916 4.688538 -1.024436e-18)
(1.642643 1.495294 8.862635e-19)
(-0.1135669 -1.740341 0)
(-0.873513 -2.378882 0)
(-1.309223 -2.800364 -4.28056e-20)
(-1.345192 -3.268388 -3.174315e-18)
(-0.898631 -3.959871 1.852313e-18)
(-0.7163602 -6.419044 -1.60862e-18)
(-1.082911 -9.615876 0)
(-1.102502 -9.862069 0)
(-0.9622137 -9.245954 0)
(-0.8621427 -8.987461 -8.941358e-19)
(-0.6692932 -8.88266 -4.716481e-19)
(-0.3570954 -8.585327 -4.347777e-19)
(-0.1146378 -8.026803 1.650992e-19)
(0.08722622 -7.366579 0)
(0.2346814 -6.553786 -5.185997e-19)
(0.298806 -5.610773 0)
(0.30034 -4.568949 -7.656101e-19)
(0.2148613 -3.464632 0)
(0.04049046 -2.313808 0)
(-0.2228847 -1.147841 -5.635729e-19)
(-0.3581294 -0.08135929 -1.182596e-18)
(-0.4493289 0.6693203 1.264592e-18)
(-0.432519 1.002582 -1.324226e-18)
(-0.1309193 0.7891185 1.311761e-18)
(0.2784837 0.09922204 0)
(0.539999 -0.6579083 2.546454e-18)
(1.227746 -1.518993 1.25211e-18)
(2.680763 -2.404428 1.273047e-18)
(3.749345 -3.472192 -3.895948e-20)
(3.162197 -3.62739 -4.12344e-20)
(2.376129 -3.253325 -1.184926e-18)
(1.577143 -2.51743 2.26124e-18)
(0.2699079 -1.509853 1.161692e-18)
(-1.130588 -0.3738655 5.598295e-20)
(-2.570718 0.6803712 2.003247e-18)
(-3.935936 1.818687 2.96686e-18)
(-4.580851 2.770005 4.084359e-18)
(-4.154867 2.833309 0)
(-2.884828 2.602819 8.357874e-20)
(-1.086936 3.147343 0)
(3.837997 0.5730977 4.230339e-19)
(7.653342 -3.237221 6.622156e-19)
(9.416285 -3.497677 1.570839e-18)
(10.70632 -3.406448 -5.37024e-20)
(11.02462 -3.554901 3.343688e-20)
(10.93122 -3.701933 -3.108429e-18)
(10.54821 -3.216783 0)
(9.332224 -1.312294 -1.686405e-18)
(9.969281 1.184013 -1.242395e-18)
(16.19695 1.568455 7.762896e-19)
(17.01833 0.8797484 2.049677e-19)
(16.26206 0.9712301 0)
(16.5047 1.446647 5.038303e-19)
(16.59224 1.91566 0)
(16.69301 2.498339 0)
(16.67907 3.115004 2.317377e-18)
(16.58691 3.760154 -3.545729e-20)
(16.41932 4.376404 4.14603e-20)
(16.17124 4.984186 -2.215554e-18)
(15.854 5.549126 4.462329e-18)
(15.47573 6.089102 -4.255274e-18)
(15.05306 6.607959 -4.094607e-18)
(14.58853 7.068414 1.923911e-19)
(14.06842 7.491828 -1.183992e-19)
(13.50661 7.859461 -1.03464e-19)
(12.90322 8.183852 -2.960692e-18)
(12.27054 8.453752 -2.987011e-18)
(11.61046 8.664413 -7.731294e-20)
(10.92899 8.83213 2.440326e-18)
(10.24161 8.944438 0)
(9.543611 8.986193 1.738084e-18)
(8.829935 8.966935 1.410287e-18)
(8.115543 8.897237 1.034991e-18)
(7.414836 8.774034 7.557996e-19)
(6.726948 8.58913 0)
(6.051218 8.341948 0)
(5.389033 8.044859 -2.606541e-19)
(4.758041 7.683272 0)
(4.144312 7.271835 0)
(3.569459 6.80908 1.242076e-18)
(3.031987 6.301563 -2.810448e-20)
(2.534282 5.753793 -1.119164e-20)
(2.07931 5.166335 -3.308025e-20)
(1.674709 4.539895 2.279562e-18)
(1.320829 3.877804 0)
(1.025045 3.189369 0)
(0.7651755 2.492083 1.423624e-18)
(0.5877187 1.763399 7.09621e-19)
(0.4438979 1.022144 7.605803e-19)
(0.3585606 0.3016166 -3.911884e-19)
(0.3395832 -0.4096141 0)
(0.4366681 -1.148722 -2.744791e-22)
(0.5449689 -1.929236 2.230914e-20)
(0.7059218 -2.698737 6.676891e-19)
(0.932112 -3.439531 -1.294446e-18)
(1.215325 -4.150253 -3.596823e-20)
(1.555078 -4.831212 1.089403e-18)
(1.944925 -5.478093 3.183767e-20)
(2.394233 -6.090442 1.663542e-18)
(2.876978 -6.674528 -1.458379e-20)
(3.409309 -7.207911 -1.097666e-18)
(3.993248 -7.696295 2.80515e-20)
(4.602237 -8.150544 0)
(5.244414 -8.548795 8.041975e-20)
(5.933325 -8.891696 0)
(6.639722 -9.195112 0)
(7.357364 -9.436176 -1.033784e-18)
(8.095734 -9.605636 2.740821e-18)
(8.848181 -9.720784 5.984269e-20)
(9.60336 -9.780989 -1.137e-19)
(10.36601 -9.77666 -2.467981e-18)
(11.12578 -9.719214 -2.768649e-18)
(11.87271 -9.601363 3.284348e-18)
(12.59921 -9.419819 -3.544128e-18)
(13.30307 -9.175137 -7.392404e-20)
(13.99007 -8.871993 0)
(14.64731 -8.526017 -4.557247e-18)
(15.27327 -8.120533 9.577419e-18)
(15.85815 -7.669319 -5.084686e-18)
(16.39968 -7.168751 0)
(16.90155 -6.623494 9.153847e-20)
(17.35282 -6.049729 -5.476509e-18)
(17.7466 -5.433032 -8.742857e-20)
(18.07929 -4.783217 1.39522e-19)
(18.35056 -4.098747 -9.136161e-20)
(18.5566 -3.397357 0)
(18.68687 -2.688648 -2.944582e-18)
(18.73069 -1.974539 1.427249e-18)
(18.68656 -1.267852 7.105244e-19)
(18.5524 -0.588678 -1.116122e-20)
(18.36751 -0.0182112 3.370311e-19)
(18.23505 0.4726617 6.31013e-19)
(18.18656 0.9044666 0)
(19.48955 0.6777717 1.03006e-18)
(15.73354 0.0159536 -8.644132e-20)
(12.36421 1.542176 3.743912e-18)
(12.66517 4.226596 0)
(12.87615 5.439923 0)
(12.78125 5.46837 0)
(12.53519 5.250185 4.234413e-20)
(11.53655 5.019815 2.391113e-18)
(9.444131 4.722177 -1.609911e-18)
(5.882456 1.926228 4.67491e-19)
(-0.8234012 -4.329895 -3.323978e-18)
(-2.660507 -3.940215 4.183883e-18)
(-4.657275 -3.860135 0)
(-4.657668 -3.143455 -5.258772e-18)
(-4.123955 -2.917418 -4.47654e-18)
(-3.490193 -2.339105 3.394236e-18)
(-2.627155 -1.340352 -8.396132e-20)
(-1.497497 0.06735067 -2.346461e-20)
(-0.464237 1.72685 2.262636e-20)
(0.9090616 3.288196 0)
(2.388483 4.43654 -6.497872e-19)
(2.969742 4.42866 2.838629e-20)
(2.389773 2.534068 1.675702e-18)
(0.700737 -1.289114 -7.356561e-19)
(-0.4987713 -3.114645 5.725766e-20)
(-1.338021 -3.75076 -1.319288e-18)
(-2.00197 -4.929783 0)
(-2.19023 -6.332775 -2.443158e-18)
(-1.703404 -7.71221 1.384785e-18)
(-1.164116 -9.213381 -7.909819e-20)
(-1.07332 -9.866962 1.341562e-18)
(-1.020526 -9.089588 -6.366237e-20)
(-0.8891903 -8.856077 2.233196e-20)
(-0.7518267 -8.883301 7.550246e-19)
(-0.5683343 -8.785017 -5.726197e-21)
(-0.3468263 -8.505352 6.653603e-21)
(-0.209697 -8.005402 7.966547e-21)
(-0.03190221 -7.348191 2.330483e-19)
(0.086213 -6.540545 4.249085e-19)
(0.1231847 -5.603664 -3.639987e-19)
(0.116444 -4.57299 6.262398e-19)
(0.01847212 -3.483831 0)
(-0.1646696 -2.346624 4.610875e-19)
(-0.4362158 -1.183221 4.899817e-19)
(-0.5285827 -0.1015533 9.643998e-19)
(-0.5973128 0.7777773 0)
(-0.5599923 1.26659 0)
(-0.2551201 1.256585 -1.066452e-18)
(0.231101 0.5318143 -3.261483e-20)
(0.6539709 -0.4516786 -9.997457e-19)
(1.571533 -1.600925 -9.977497e-19)
(3.021233 -2.507599 -1.007345e-18)
(3.613569 -3.18047 1.100406e-18)
(2.808269 -3.335158 -1.132951e-18)
(2.015105 -3.096804 9.446467e-19)
(1.258067 -2.533746 -8.977736e-19)
(0.04189388 -1.718696 0)
(-1.141235 -0.7802006 0)
(-2.274536 0.02216681 -1.697005e-18)
(-3.486798 1.145352 0)
(-3.999592 2.331889 -1.119299e-19)
(-3.440298 2.533962 3.837164e-21)
(-2.176013 2.519056 -2.87657e-18)
(-0.08047419 3.240379 -7.043196e-20)
(3.599971 1.636497 9.0006e-20)
(8.401437 -2.909716 -5.325101e-19)
(10.64382 -3.567324 -3.293463e-20)
(12.1272 -3.66217 8.040731e-19)
(12.82146 -3.964083 -3.565695e-20)
(13.61827 -4.309362 1.332467e-18)
(14.80396 -3.991997 -4.90968e-20)
(15.52186 -1.953146 5.158877e-18)
(15.93316 1.004327 3.165938e-20)
(17.37669 1.686875 6.903258e-21)
(16.27283 0.8458376 -3.666334e-19)
(16.20555 0.9126163 -3.068184e-21)
(16.51394 1.32532 -4.178542e-19)
(16.6201 1.708342 -2.762201e-20)
(16.72912 2.228263 -8.659795e-19)
(16.72053 2.791079 1.808855e-18)
(16.62854 3.415196 -1.816654e-18)
(16.45992 4.024403 3.537815e-18)
(16.21199 4.638616 1.938973e-18)
(15.8974 5.215575 0)
(15.51724 5.774984 0)
(15.09445 6.315763 3.32024e-18)
(14.63017 6.795847 3.165868e-18)
(14.10969 7.237877 0)
(13.55004 7.617596 -8.305575e-20)
(12.94652 7.956021 2.684927e-18)
(12.31092 8.244719 2.379879e-18)
(11.65143 8.467081 2.07335e-18)
(10.97559 8.640183 -5.440884e-20)
(10.29025 8.764306 -1.544434e-18)
(9.589606 8.821568 3.82615e-20)
(8.880393 8.807975 -3.860747e-20)
(8.174203 8.741684 -8.72505e-19)
(7.476578 8.627459 5.716933e-19)
(6.785138 8.457338 0)
(6.117466 8.214194 0)
(5.458078 7.926811 4.434255e-19)
(4.836088 7.570867 -7.942945e-21)
(4.226936 7.167854 -7.601856e-21)
(3.66768 6.709236 -9.578887e-19)
(3.139118 6.208585 -2.408987e-18)
(2.635241 5.677508 1.348541e-18)
(2.183312 5.102149 -1.611277e-18)
(1.783384 4.486344 -8.916822e-19)
(1.437932 3.832765 -3.039339e-20)
(1.15025 3.148616 0)
(0.8847106 2.465535 -1.111371e-18)
(0.721372 1.747102 -3.738752e-20)
(0.5723518 1.009609 -6.3235e-19)
(0.4841549 0.2957454 3.351133e-19)
(0.4656502 -0.4197131 -2.645982e-23)
(0.5779979 -1.147729 -3.2503e-19)
(0.6786246 -1.922747 2.766506e-20)
(0.8336473 -2.681244 -5.823573e-19)
(1.05065 -3.403548 1.061632e-18)
(1.32748 -4.097225 -1.016181e-18)
(1.662857 -4.764926 2.682212e-21)
(2.048879 -5.399904 8.219423e-19)
(2.502712 -6.000485 -1.325154e-18)
(2.976579 -6.578781 1.11497e-18)
(3.498094 -7.106571 8.225247e-19)
(4.083034 -7.586335 8.095071e-21)
(4.699866 -8.028346 8.500497e-21)
(5.334732 -8.419629 -5.925802e-20)
(6.00739 -8.763599 -1.849929e-19)
(6.714008 -9.058511 2.031494e-20)
(7.430861 -9.289199 7.543467e-19)
(8.161562 -9.452171 -2.206769e-18)
(8.906423 -9.563317 1.385288e-18)
(9.666827 -9.605645 -5.526007e-20)
(10.42684 -9.591213 -1.988532e-18)
(11.17929 -9.529329 4.558654e-18)
(11.9266 -9.397674 8.337302e-20)
(12.65029 -9.20524 2.748741e-18)
(13.35459 -8.943866 -3.191844e-18)
(14.04347 -8.623532 9.886693e-20)
(14.69941 -8.264133 -3.602743e-18)
(15.32566 -7.839695 -3.67576e-18)
(15.90933 -7.372329 1.263145e-19)
(16.45166 -6.848593 -4.213503e-18)
(16.95341 -6.281806 4.3462e-18)
(17.40378 -5.688849 0)
(17.79507 -5.055074 0)
(18.12298 -4.385811 2.355251e-18)
(18.38821 -3.699359 2.353607e-18)
(18.59195 -3.002145 0)
(18.72292 -2.299202 1.260654e-18)
(18.76909 -1.599207 1.152539e-18)
(18.7214 -0.9343917 -5.952847e-19)
(18.5848 -0.3176026 1.373348e-19)
(18.38704 0.1736082 2.761868e-19)