/*--------------------------------*- C++ -*----------------------------------*\
| =========                 |                                                 |
| \\      /  F ield         | OpenFOAM: The Open Source CFD Toolbox           |
|  \\    /   O peration     | Version:  2406                                  |
|   \\  /    A nd           | Website:  www.openfoam.com                      |
|    \\/     M anipulation  |                                                 |
\*---------------------------------------------------------------------------*/
FoamFile
{
    version     2.0;
    format      ascii;
    arch        "LSB;label=32;scalar=64";
    class       volScalarField;
    location    "1.44";
    object      p;
}
// * * * * * * * * * * * * * * * * * * * * * * * * * * * * * * * * * * * * * //

dimensions      [0 2 -2 0 0 0 0];

internalField   nonuniform List<scalar> 
15536
(
-38.49412
-38.48301
-37.83216
-33.57411
-34.72155
-46.09457
-63.41405
-67.33101
-50.34173
-43.7886
-37.46842
-33.55186
-28.77327
-22.2985
-14.49028
-6.949375
-6.382014
-6.469832
-3.526171
-12.07783
-26.92293
-46.14613
-73.55881
-111.2606
-134.3261
-95.31084
-19.69799
-16.95975
-42.63683
-57.31553
-74.91383
-112.124
-157.2088
-155.3125
-115.8084
-107.5545
-114.0814
-118.8604
-125.2777
-130.2854
-133.5689
-135.3309
-135.6262
-134.8596
-133.5351
-131.321
-128.3086
-124.3453
-120.0017
-115.4137
-110.168
-104.3736
-97.96969
-91.2274
-84.08081
-76.60276
-69.16119
-61.65387
-53.7988
-45.79169
-37.94992
-30.28029
-22.65414
-15.12618
-7.840026
-0.6892145
6.155849
12.66229
18.72587
24.3572
29.51536
34.20589
38.38529
41.9776
44.95605
47.42622
49.27019
50.55827
51.32811
51.42049
50.75154
49.50764
47.70748
45.32292
42.38352
38.90942
34.95798
30.45415
25.54714
20.29077
14.55038
8.490217
2.182408
-4.524748
-11.38074
-18.19674
-25.15993
-32.25041
-39.29253
-46.36031
-53.29922
-59.932
-66.21164
-72.20812
-78.02676
-83.38262
-88.24322
-92.56
-96.33107
-99.60076
-102.1171
-103.7827
-104.5764
-104.4473
-103.0264
-99.94864
-95.59932
-93.82643
-96.35353
-87.36388
-67.75734
-85.0107
-134.4374
-136.2723
-94.40107
-57.62166
-42.07419
-35.706
-27.07773
-12.30629
-3.545037
-8.057067
-25.56346
-43.75562
-52.1997
-50.28712
-42.03316
-34.02545
-28.98399
-26.1097
-24.02186
-22.34526
-20.84473
-19.44113
-18.24526
-17.31912
-15.86439
-13.64218
-10.92598
-9.313401
-9.861012
-12.49987
-17.12041
-23.18986
-29.54841
-34.7183
-37.92859
-38.38043
-38.45425
-37.87277
-33.64353
-34.80893
-46.25757
-63.53944
-67.44373
-50.33458
-43.77483
-37.47585
-33.56366
-28.78217
-22.30247
-14.48028
-6.912567
-6.316995
-6.44243
-3.585964
-12.15755
-26.91583
-45.98627
-73.26756
-110.9764
-134.4464
-95.51923
-19.76144
-17.12128
-42.76227
-57.40466
-74.92618
-112.1623
-157.1405
-155.198
-115.5835
-107.4915
-113.894
-118.3576
-124.3936
-129.0574
-132.1035
-133.7455
-133.9809
-133.1715
-131.8301
-129.6087
-126.6119
-122.671
-118.353
-113.8066
-108.6051
-102.8635
-96.51434
-89.83292
-82.75534
-75.34763
-67.97657
-60.54497
-52.77115
-44.84048
-37.0756
-29.48368
-21.93419
-14.48033
-7.263822
-0.1834434
6.590992
13.03257
19.0364
24.6106
29.71733
34.36211
38.50076
42.06004
45.00981
47.45749
49.2851
50.56064
51.32426
51.41561
50.75132
49.51894
47.7353
45.37255
42.46075
39.01995
35.1068
30.64658
25.79
20.58491
14.9006
8.903727
2.658815
-3.984029
-10.77399
-17.52157
-24.41753
-31.43778
-38.41024
-45.40985
-52.28245
-58.84985
-65.06818
-71.01148
-76.78163
-82.09073
-86.91305
-91.1956
-94.94119
-98.19843
-100.712
-102.3916
-103.2162
-103.1667
-101.925
-99.14287
-95.14394
-93.73429
-96.3698
-87.30237
-67.74177
-84.88385
-134.5069
-136.3002
-94.33885
-57.52747
-42.01335
-35.71955
-27.14679
-12.39114
-3.496004
-7.984884
-25.57669
-43.79347
-52.16105
-50.2733
-42.05867
-34.05311
-28.98276
-26.0969
-24.01068
-22.34053
-20.84263
-19.43933
-18.24407
-17.31993
-15.86551
-13.64415
-10.92897
-9.317262
-9.85099
-12.45326
-17.01943
-23.02106
-29.30617
-34.44702
-37.74185
-38.38445
-38.36736
-37.62458
-33.51188
-34.86242
-46.98715
-64.45299
-68.09117
-50.41832
-43.78673
-37.50061
-33.59493
-28.82021
-22.33528
-14.52988
-6.958672
-6.298396
-6.522484
-3.795228
-12.36567
-26.96159
-45.85128
-73.10129
-111.1174
-135.7051
-97.4591
-20.26633
-16.95395
-42.68194
-57.4051
-75.02677
-112.4186
-157.9297
-155.532
-115.9423
-107.3268
-113.3866
-117.6956
-123.3822
-127.8735
-130.9341
-132.6666
-132.9492
-132.1598
-130.8553
-128.6607
-125.699
-121.7777
-117.4747
-112.9629
-107.7793
-102.069
-95.74587
-89.10477
-82.0719
-74.68243
-67.3433
-59.95909
-52.21411
-44.31696
-36.58735
-29.03841
-21.52989
-14.10761
-6.93692
0.1113577
6.849281
13.25666
19.22784
24.77204
29.84791
34.46477
38.57823
42.11784
45.04518
47.47757
49.29289
50.55658
51.31326
51.40331
50.74444
49.52305
47.75223
45.40539
42.51342
39.09492
35.20758
30.77042
25.94362
20.76989
15.1128
9.149867
2.940361
-3.673896
-10.42855
-17.13509
-23.9987
-30.9874
-37.91927
-44.89643
-51.73728
-58.27772
-64.47109
-70.37712
-76.12243
-81.39897
-86.20129
-90.46398
-94.19007
-97.43272
-99.92267
-101.5702
-102.3654
-102.2656
-100.9657
-98.29274
-94.61785
-93.23648
-95.244
-86.49475
-67.68054
-85.05445
-135.1954
-136.9751
-94.56399
-57.54183
-41.99862
-35.72736
-27.20761
-12.48681
-3.353255
-7.997594
-25.84544
-44.04007
-52.30337
-50.36633
-42.15218
-34.13065
-28.98796
-26.08711
-23.98358
-22.31662
-20.8361
-19.43992
-18.2462
-17.328
-15.8758
-13.65343
-10.93561
-9.333754
-9.861232
-12.43527
-16.96486
-22.92976
-29.19525
-34.33539
-37.6624
-38.37508
-38.19783
-37.12208
-33.07046
-34.72585
-48.42053
-66.42365
-69.13814
-50.58964
-43.84663
-37.55286
-33.65485
-28.89611
-22.38782
-14.64414
-7.116755
-6.323466
-6.61169
-4.187162
-12.69931
-27.03053
-45.71895
-73.01426
-111.634
-137.8835
-101.2798
-21.55018
-16.36108
-42.1807
-57.22925
-75.14255
-112.4652
-157.4491
-155.3762
-117.2489
-107.6346
-112.7576
-116.7614
-121.9834
-126.1733
-129.0098
-130.5564
-130.7856
-129.9461
-128.6599
-126.4844
-123.5815
-119.6957
-115.4329
-110.9921
-105.8919
-100.2705
-94.03113
-87.47384
-80.53643
-73.24295
-65.99182
-58.70711
-51.07496
-43.26468
-35.62355
-28.17047
-20.75619
-13.41571
-6.334871
0.6350705
7.295265
13.63628
19.54046
25.02233
30.04291
34.61263
38.68456
42.19301
45.08586
47.49705
49.29583
50.5437
51.29173
51.37968
50.7267
49.5208
47.76733
45.44231
42.57923
39.19562
35.35158
30.95538
26.18525
21.06899
15.46781
9.579332
3.439836
-3.111505
-9.777625
-16.40036
-23.1898
-30.09031
-36.93457
-43.82954
-50.58527
-57.03311
-63.13523
-68.97136
-74.64603
-79.84156
-84.57819
-88.77031
-92.45137
-95.66215
-98.1174
-99.75206
-100.5719
-100.6073
-99.50707
-97.08372
-93.81801
-92.25771
-93.31151
-85.41531
-68.189
-86.20796
-136.0424
-137.532
-94.87043
-57.68585
-42.02064
-35.64906
-27.11578
-12.43717
-3.033177
-8.139596
-26.42495
-44.50857
-52.5665
-50.58913
-42.33852
-34.26737
-29.0098
-26.07565
-23.94581
-22.29039
-20.83703
-19.45071
-18.25497
-17.34769
-15.89914
-13.67388
-10.95418
-9.372845
-9.896664
-12.43027
-16.90769
-22.81481
-29.01457
-34.09036
-37.46817
-38.37182
-38.01779
-36.56173
-32.39645
-34.30699
-50.27872
-69.35819
-70.67487
-50.83278
-43.98955
-37.65993
-33.76512
-29.02977
-22.4883
-14.82871
-7.378948
-6.332904
-6.515845
-4.648854
-13.09334
-27.04518
-45.57877
-73.08696
-112.76
-141.1336
-106.4608
-24.08235
-15.71613
-41.3872
-56.91953
-75.08047
-111.1153
-153.1689
-151.8338
-118.1034
-108.4572
-112.1469
-115.745
-120.5655
-124.5474
-127.3229
-128.9812
-129.2721
-128.3918
-127.1399
-124.9152
-122.0499
-118.1758
-113.8848
-109.5186
-104.4222
-98.85011
-92.63159
-86.13071
-79.26755
-72.00205
-64.80692
-57.61592
-50.05404
-42.29536
-34.72294
-27.3603
-20.02579
-12.74371
-5.750439
1.157952
7.747318
14.02292
19.85646
25.28164
30.2471
34.76817
38.79064
42.26524
45.1207
47.50787
49.28806
50.51641
51.25362
51.33724
50.69114
49.50824
47.77784
45.47782
42.64672
39.29888
35.50058
31.14478
26.43871
21.37749
15.81981
10.01253
3.94467
-2.569623
-9.158144
-15.69797
-22.4331
-29.27153
-36.03216
-42.88176
-49.5836
-55.97455
-62.027
-67.81089
-73.46196
-78.61094
-83.33477
-87.50667
-91.17508
-94.42389
-96.84865
-98.48262
-99.30238
-99.26384
-98.16596
-95.87937
-92.8956
-91.12783
-91.38418
-84.79767
-70.15658
-88.32336
-136.3208
-137.7594
-95.17557
-57.9238
-42.15972
-35.44441
-26.72719
-12.12164
-2.57964
-8.405958
-27.31294
-45.25318
-53.06078
-50.99779
-42.66695
-34.48903
-29.0613
-26.06349
-23.89567
-22.26106
-20.84985
-19.48367
-18.28512
-17.39452
-15.94976
-13.71941
-11.0085
-9.452065
-9.974095
-12.45172
-16.86553
-22.71263
-28.85735
-33.89845
-37.37474
-38.35954
-37.86928
-36.07958
-31.6062
-33.72
-52.2622
-73.03164
-72.64357
-51.39769
-44.17116
-37.86439
-33.97212
-29.25073
-22.65746
-15.06091
-7.724069
-6.087717
-5.783589
-4.917448
-13.40203
-26.92951
-45.43154
-73.36086
-114.7335
-145.6551
-112.8899
-28.63875
-15.89681
-41.15233
-56.77089
-74.84961
-108.0076
-143.866
-143.5492
-117.1516
-108.9327
-111.2495
-114.3592
-118.6271
-122.2655
-124.7728
-126.2359
-126.4319
-125.4218
-124.2315
-122.1505
-119.4208
-115.5974
-111.3414
-107.1415
-102.1334
-96.69889
-90.57724
-84.17321
-77.42971
-70.25246
-63.1799
-56.1318
-48.67303
-41.00764
-33.55816
-26.31061
-19.08722
-11.88885
-5.021635
1.806316
8.293549
14.46747
20.22279
25.59063
30.48605
34.94281
38.89528
42.33861
45.14833
47.50184
49.26382
50.46728
51.19041
51.2672
50.63462
49.47551
47.77584
45.50743
42.71593
39.41327
35.66456
31.35009
26.73558
21.75044
16.22749
10.51681
4.574594
-1.885801
-8.384314
-14.7976
-21.43614
-28.19214
-34.84169
-41.59534
-48.19893
-54.48861
-60.42586
-66.11493
-71.70079
-76.72997
-81.37838
-85.44601
-89.02901
-92.19048
-94.54439
-96.08734
-96.92605
-97.12262
-96.22287
-94.20492
-91.59508
-89.79447
-89.48797
-84.43196
-73.19049
-90.2891
-134.4837
-135.5442
-94.4452
-58.09115
-42.44148
-35.14136
-26.01104
-11.55616
-2.206338
-8.922663
-28.52425
-46.37517
-53.89591
-51.72751
-43.25267
-34.85196
-29.16274
-26.05032
-23.81717
-22.21846
-20.87334
-19.55097
-18.35883
-17.48787
-16.04815
-13.81855
-11.11954
-9.591848
-10.11793
-12.52487
-16.85722
-22.62734
-28.71602
-33.71347
-37.26813
-38.41836
-37.81459
-35.76937
-31.01193
-33.08433
-54.78455
-77.38544
-75.21277
-53.04836
-44.2901
-38.19257
-34.31285
-29.60591
-22.92021
-15.32621
-8.085522
-5.292863
-3.966944
-4.765577
-13.39733
-26.605
-45.23579
-73.68209
-117.4184
-151.0941
-120.1781
-36.18856
-17.94681
-41.95619
-56.97888
-74.65088
-104.3834
-133.9289
-134.2597
-115.0014
-108.7439
-110.1947
-112.9172
-116.6609
-120.045
-122.3991
-123.8899
-124.2637
-123.122
-122.0866
-119.6745
-117.0086
-113.2013
-108.886
-104.8239
-99.81419
-94.52154
-88.42973
-82.05064
-75.46125
-68.42443
-61.42423
-54.44797
-47.14816
-39.63172
-32.27118
-25.07636
-18.05196
-10.93051
-4.216081
2.532997
8.877143
14.95217
20.69634
25.94563
30.73582
35.10411
38.99108
42.45629
45.16707
47.47805
49.22221
50.39061
51.09641
51.17207
50.55908
49.39357
47.72181
45.49533
42.75771
39.53413
35.85267
31.55921
27.04161
22.1826
16.73773
11.06547
5.223497
-1.080971
-7.504546
-13.82427
-20.34373
-26.93621
-33.54722
-40.22461
-46.67004
-52.89603
-58.703
-64.3055
-69.86715
-74.78341
-79.41803
-83.40416
-86.99169
-90.23737
-92.56677
-94.22156
-95.14434
-95.20132
-94.35279
-92.50871
-90.19166
-88.34727
-87.59313
-83.82171
-75.9582
-90.69638
-127.6502
-127.718
-91.4253
-58.13405
-42.87719
-34.77303
-25.24268
-11.10156
-2.362332
-10.00806
-30.24418
-48.04868
-55.32284
-53.02422
-44.2417
-35.41079
-29.2854
-26.00594
-23.68134
-22.14346
-20.89774
-19.66121
-18.50833
-17.66297
-16.22826
-13.99902
-11.27456
-9.823437
-10.36416
-12.69515
-16.94382
-22.60801
-28.58251
-33.53778
-37.28902
-38.5637
-37.88888
-35.84273
-30.98911
-33.19835
-58.03278
-82.46317
-78.7481
-55.56358
-44.6236
-38.37743
-34.89758
-30.13676
-23.36529
-15.63234
-8.386723
-3.914341
-1.188075
-3.765815
-12.89728
-25.99044
-44.80625
-73.99393
-119.3427
-156.5626
-127.4647
-46.97995
-22.13119
-43.6153
-57.30763
-74.51444
-100.4566
-124.5359
-126.0809
-112.5506
-107.8094
-108.6948
-110.8953
-113.9245
-116.9698
-119.0102
-120.2481
-120.7121
-119.214
-118.2428
-116.2061
-113.6659
-110.1552
-105.5292
-101.7279
-96.8823
-91.80784
-85.68029
-79.39869
-73.23281
-66.38595
-59.10095
-52.33901
-45.49439
-38.16076
-30.59343
-23.55095
-16.98349
-9.827095
-3.35547
3.362219
9.437783
15.62493
21.35582
26.30504
30.95671
35.20785
39.0957
42.60594
45.12827
47.4507
49.1548
50.27971
50.97274
51.0599
50.42536
49.26407
47.59832
45.42325
42.74438
39.61092
36.09599
31.78916
27.342
22.64162
17.47879
11.84647
5.785355
-0.2297292
-6.335026
-12.77522
-19.22129
-25.38675
-31.86115
-38.80551
-44.81861
-51.05006
-56.69166
-62.12243
-67.6829
-72.35946
-77.03146
-80.78074
-84.24613
-87.52163
-89.6919
-91.17904
-91.90815
-92.42739
-91.80184
-90.2148
-88.25612
-86.45785
-85.52896
-82.70017
-77.71588
-89.38309
-116.7584
-114.0055
-85.94925
-58.24599
-43.63388
-34.26395
-24.58455
-11.19705
-3.537105
-12.19938
-32.39531
-50.56888
-57.16299
-54.85121
-45.46762
-36.01876
-29.24419
-25.78696
-23.42349
-22.00883
-20.90626
-19.8267
-18.75999
-17.97475
-16.52393
-14.28986
-11.49195
-10.22793
-10.72093
-12.94029
-17.17817
-22.81182
-28.55532
-33.31681
-37.40639
2.092881
1.45163
-47.10081
-6.705147
9.030671
-6.110825
2.562045
-0.9964383
6.026435
0.1490709
-2.631207
-0.8404221
1.181357
0.6607115
1.524429
1.296173
2.505931
-1.083786
-0.1475218
-1.31378
-29.79192
-0.08072058
0.6145712
0.006094738
1.550771
0.6209809
-2.550498
0.2267433
-4.118927
-0.05022989
-0.7128176
-29.21853
1.981851
-0.3972934
0.0668044
-2.397999
-0.02581151
0.01206078
0.008297451
-3.26373
-15.82204
1.998213
1.42227
4.015698
27.06882
0.3548331
-0.002823556
-13.96546
-7.874143
0.4259582
-0.3741908
-0.5434125
-5.569864
0.008954221
0.009352618
16.0875
1.920839
0.9204193
-9.13096
-14.23816
0.2361532
0.002138297
19.58014
-0.4072382
4.096221
0.4563184
-41.50507
-0.01757011
-1.666629
-0.1294955
0.9112483
0.004334795
-14.18779
-42.74228
21.90277
-0.01071452
3.708179
-0.6929872
-0.247858
0.08364656
-14.61122
0.01004791
2.166152
0.01373596
-5.18195
2.249129
1.602366
-1.414558
12.023
-0.03647121
-9.648003
24.72289
-0.7031055
0.01091473
2.468416
-0.5832706
-41.80531
5.944619
-64.27576
2.511466
-0.6515482
-1.346245
0.07215836
-69.83987
-0.007808283
-24.40971
-0.03185936
1.769599
-8.002018
-57.77822
-1.300939
2.354949
4.051153
7.137838
-30.52453
-0.02424746
0.01058978
-0.140483
24.07839
1.18415
-2.086613
-0.02336827
0.7007684
-0.02670988
-0.03512501
9.018842
1.76388
-51.4646
2.1301
0.669919
-0.008999898
-1.343209
0.1325639
1.925673
-33.78591
-22.54144
-0.007468806
2.408405
-0.7332344
0.01371067
-50.34418
1.232699
-51.7316
1.520794
0.002732954
-1.408617
-1.539281
-33.16714
-0.03787906
1.012312
2.15475
-26.44509
-42.76983
-0.4338245
-4.853809
-64.90495
-0.06983467
0.02869578
0.08275216
-23.01834
0.4537032
-19.4638
-45.83115
-2.612518
-1.502558
-42.28866
-16.80168
1.782349
-42.60041
-0.02295637
3.094926
-21.81791
3.576316
-55.91894
-3.903374
1.027393
0.7780761
2.355733
-28.7568
-0.01045536
13.81079
-1.167265
-0.1984816
0.6279158
4.774087
-36.72236
-14.3499
0.02185948
-7.787327
-0.4826605
1.204522
-0.8462311
-3.081424
-0.08878178
-0.02487657
1.88612
-0.1816512
1.295666
0.156353
-26.14512
-1.557916
-1.330514
1.745668
0.5685465
0.6720803
-0.3869687
-4.488531
-1.166878
-5.982552
-0.01375726
-0.09724499
-0.955563
0.1710793
-7.768385
0.03401545
-13.67403
-8.062697
-1.209598
11.27018
-0.0502228
-1.326143
-24.83669
1.780608
0.8471116
-0.9773449
-2.539126
-3.567308
7.572512
-0.04672868
15.25056
-7.756562
-31.98375
0.3139441
-0.01435501
-54.78312
0.3771668
20.50271
-6.603541
2.20093
1.242955
1.803276
-0.6047291
-0.01965039
-16.33812
-0.3537076
-37.91921
-1.316357
-56.93981
0.006987265
1.509712
-25.2174
1.475021
-1.782617
-1.217892
2.174254
-20.55837
1.765008
0.03934399
-14.81267
-2.047054
-10.86196
0.008485348
-6.941598
-0.8992622
0.7770061
0.9487449
1.95807
-0.02289064
-10.6411
-20.12807
0.03259597
0.1102222
11.58976
0.9910901
-0.4643295
2.178845
0.1864795
-37.12031
-39.39153
1.13603
-3.159002
1.451442
-1.24447
-0.8415133
-0.6447619
0.3431068
38.42685
1.262344
0.6260288
-0.06077555
-1.048357
-0.01007551
2.055895
-2.505144
-50.65969
0.004636111
-0.8757513
-0.007769489
2.320607
1.101391
-33.43714
-0.4265418
-0.009529573
-32.71608
0.9250539
-0.01404359
-0.05701408
-0.6648802
2.494527
1.634695
-3.81531
-2.527706
-0.1848281
0.4776108
0.8397558
-8.675649
33.30414
-34.85114
-38.46961
-88.07813
0.7235041
-0.01985887
-2.300301
-0.008301172
0.008025412
0.01173447
-0.08958711
-0.005445108
-0.1506889
-7.343421
18.61677
-0.0008144707
-4.881275
-60.80763
-1.681392
0.336482
-0.7697154
-0.01756996
-0.4523476
-0.22506
-60.79555
4.302753
1.73418
-1.071001
-9.568847
4.720902
-71.08642
1.144897
-7.64249
0.005751035
-0.02980419
0.02223759
11.31931
0.06782378
1.48087
-32.073
-42.20095
-0.01449972
-0.1498784
0.206772
-11.37028
-29.9627
-0.0293302
1.330321
-1.155127
0.6520783
-0.02330334
0.746813
-0.7472003
-0.1797721
-1.028005
10.48237
-29.82797
-0.2894351
0.7583101
1.54943
0.5753796
-1.469974
3.217907
-0.7973843
-0.1365216
0.1666281
-0.006835919
-20.62336
-0.002118108
-0.2148401
-7.691219
40.34134
1.397853
-0.04668445
0.1196895
1.501332
2.752768
-60.99982
-0.008787367
0.5882566
1.699327
-5.924194
-0.5718731
0.08614035
0.9733804
-1.401356
-22.50538
-0.05970333
-0.03590097
1.995632
-49.09913
-40.42814
0.1088168
2.060067
0.1665068
-0.005606354
-0.03623204
-0.860555
0.7194146
0.7105571
3.010961
-5.243174
0.05034978
6.827783
-0.3717877
-0.01756967
2.301703
-0.2033297
1.149665
-20.38783
0.03858134
-0.7639442
-19.28597
-4.337427
-23.99012
-0.05298198
-0.4646263
0.2516435
2.199644
-2.60944
-0.05689983
-3.290895
-0.008159073
-1.288521
-0.1060684
-0.03851505
-11.46196
0.1829278
-2.168198
-0.0585273
-0.0752938
-0.01371632
-0.4883149
0.7681583
-0.9372403
-37.12781
2.700437
-15.81187
-0.4109112
-0.02657042
-0.0597128
3.572243
0.2422425
-13.52674
2.110672
-50.14523
-2.089443
-0.5493171
-3.726969
-0.1367531
28.21116
0.2955013
1.730796
-0.02911226
-7.357225
0.8050464
-0.2267609
6.567435
0.009281111
-17.57198
-10.68633
-47.24664
-0.01269539
1.407907
-42.89929
2.141231
-0.5111679
0.7135156
3.470119
-0.8382006
0.01990056
15.04438
-0.0005096516
-0.1772988
-0.4748899
-18.62223
-3.586677
-0.04243726
-14.71955
-0.7111968
0.3894316
3.515577
-1.5451
2.938185
-0.3632141
0.9202189
0.01152164
-2.570795
2.141623
0.09471338
-1.058184
0.05000272
-8.951264
-1.15724
-18.65328
-0.5915674
8.103885
-0.1705566
-1.25745
-0.8804823
-4.064754
-0.1787629
-0.01128074
0.002373854
-0.7067943
0.1080202
-2.397858
-0.02570226
0.2244428
1.401482
0.06383833
3.471625
0.03376313
0.01608603
-20.21183
-6.067688
-19.56095
0.01745966
3.287548
4.143901
2.962631
0.01817925
0.04616539
0.007805543
4.48205
-0.1485222
1.397623
3.074543
-67.82868
1.49294
3.631542
-0.03890066
-0.02127934
8.228321
-0.7522652
10.32428
0.7313373
-1.404461
-6.134684
-0.03366067
-1.417179
-12.24819
14.72717
-13.44071
0.01849097
1.256987
0.9354091
1.335583
0.01882744
0.5463958
-0.5096407
1.859968
26.22619
-0.2026893
-0.1886093
0.8718465
-0.1891498
-49.72258
0.09474447
1.824093
1.898609
1.198134
-0.7385681
-0.3690993
-7.433012
-0.3934844
4.785593
-0.005463055
3.639271
-16.74834
1.996832
0.03720554
-63.85255
-1.752208
1.02125
-27.9222
0.8715833
0.01104057
0.2961365
0.02197186
-0.723913
-72.40997
0.9614889
0.1037755
-0.05265868
-21.22825
0.004267638
-0.03413109
3.442492
-25.4534
-12.91743
1.158003
-28.33436
-12.12901
4.740143
-0.1336996
-52.65989
0.7131813
7.416603
-3.758292
0.7230654
-4.010162
-2.625895
2.330165
5.953219
-0.05487305
-0.676639
-0.02948455
1.545074
16.91021
2.234062
0.5985975
-0.2769672
-0.5300418
0.7538562
-23.1813
-10.19429
-2.416099
-32.03687
-5.057485
-5.395908
-1.04429
0.6946769
0.6125691
-0.03364278
-0.01124507
0.2510728
0.3969485
-0.287452
1.711349
-1.823004
-47.91138
-7.687436
24.32985
2.844177
-42.55649
-0.03672434
-11.39355
6.530929
-0.9466551
-31.02179
0.1420344
-0.5074735
-26.56315
-1.855418
-1.812881
1.238155
2.204868
-0.2624774
-0.005766532
-10.86782
-0.03414438
2.037498
-5.960738
0.3420991
0.2085066
-68.706
-11.41927
0.1549916
-0.3809773
11.49181
-6.199643e-05
1.061576
9.086481
14.16311
14.22788
1.534213
-21.69604
0.5729748
-0.02012411
-0.2899218
-0.7421524
1.93789
-0.7814421
-30.34052
0.008667841
-28.50209
-0.08567042
-1.210403
-3.549183
-29.76576
1.96865
-0.9571976
-2.054517
-34.41325
-4.613668
-7.748432
-6.771374
4.06428
9.985867
0.1476654
-0.2319357
-28.44262
-17.19828
1.62082
1.279741
-2.146877
0.0121504
-7.272674
1.140241
-0.4077205
-34.25048
-0.3892363
-0.1141263
1.980674
0.03316962
0.8356828
-0.005045773
-0.2596425
-0.9374364
1.076274
-19.66345
0.3749613
0.1584342
-1.047183
-0.8671827
-0.5406905
0.3538703
-0.4134034
2.442667
-24.91629
2.078468
-44.23783
-1.206747
-0.01178308
-0.09639872
0.3365021
0.6141884
4.727318
-0.1424389
-41.38508
1.332722
4.533194
4.961487
0.02062925
-22.20384
-4.505933
-26.84989
0.006079804
-16.37135
1.905555
-14.07036
-22.871
-2.826025
-2.095491
-2.46305
0.5657589
13.75774
2.265392
2.430868
-4.99824
3.106671
-0.7496887
-0.224203
-4.907192
21.18028
-15.24413
0.9968786
0.9336038
-1.192296
-0.1605971
0.0222337
-6.871508
0.4248915
-3.290403
0.3901116
0.6477896
-5.113185
6.865575
-0.4823895
0.7216092
-0.01996086
-1.34978
0.7066271
0.5689699
-15.41903
29.81926
-0.01903228
0.03231329
1.751171
0.05880028
0.01381153
-0.06086541
-59.68239
1.307794
-45.63017
-11.05905
1.143503
0.008665227
0.06064833
-11.68162
1.31003
0.6295603
0.2462099
0.7092684
-14.06187
-66.09919
-0.8073754
0.3285286
-2.627953
-0.06430051
0.5217951
0.692741
-7.826319
-1.390855
12.55319
-0.1689504
0.9872291
1.09515
0.7584036
2.117744
-2.09672
-0.02248756
-1.481301
-3.175006
1.495373
8.212837
-21.02183
-2.459482
-0.05850868
-19.0922
1.955401
0.5861008
-0.661802
-2.368293
-2.284636
-2.510516
1.294277
0.2518418
0.3768038
2.707292
1.149458
0.08154083
32.2971
0.2976218
-0.4382854
-0.01177494
-82.7865
-0.7894935
0.2243628
1.839216
-0.8191176
33.80379
1.156384
-1.011686
1.464715
1.918591
-0.0538831
-0.6717883
0.1170777
0.1584512
-27.86794
-11.35164
0.1917304
-3.821559
1.290421
0.01084398
0.01477906
0.4570779
-8.947175
4.108814
31.72024
0.02207422
-0.7803217
0.6662956
-0.004662673
0.01369007
6.809423
-0.002202964
-0.1753186
0.003323504
0.8877641
-0.7916444
0.04647474
-0.01999035
-10.21195
-3.268814
-34.1566
1.890245
-14.9099
-0.01022927
-2.287987
-0.1251209
-1.39334
-16.48644
-0.01623969
-2.532174
11.65638
-16.48512
3.452505
2.438584
1.788263
-14.95837
23.43048
-1.996269
-0.02191374
-4.887059
-27.72361
-0.02580098
0.01625614
0.7006107
1.505318
1.036188
-36.75806
-5.955332
1.898958
-0.5066947
-1.329983
0.00816905
-32.02825
-26.243
-60.0923
1.679305
-34.43473
3.759599
1.311475
-22.71492
1.401195
0.1605038
-24.65207
-0.005415421
0.08344098
2.822625
-7.403666
0.001988848
-33.1932
-20.3179
-11.47992
13.46924
1.387177
-0.02280509
-27.68564
21.57798
-31.34846
0.01786874
1.590978
-0.0526426
-0.02762296
-0.02109147
-12.90246
-1.396888
1.020989
-1.889259
-46.02308
-53.76716
3.052737
1.166166
1.697778
0.01808327
-0.862011
2.09567
0.1636175
0.04124993
-0.7378071
-0.7258065
0.0220913
-4.250444
0.1778834
-10.94146
1.595374
2.193089
-32.25738
1.664669
0.5397383
-3.627396
-22.98807
-4.744073
-0.9152552
-1.818949
-17.69459
-46.23212
31.55203
46.06336
2.416633
0.6392603
-9.162886
4.470974
1.627098
0.01037954
11.93004
-26.87348
1.93712
-0.5631375
0.4989953
1.686803
0.9146057
-15.9624
0.979354
-29.03866
-47.3424
0.006175857
0.5562345
1.071364
1.998348
0.7937773
-14.98841
0.2590691
0.1070461
1.940992
-1.983348
-2.921002
-5.532886
-46.13806
-28.86773
1.649629
-0.6979903
-0.1442979
2.169979
-0.05196687
1.744326
0.01118986
-30.66299
1.328618
-10.63431
-75.60835
1.041388
0.6422317
-44.8277
-65.32752
-1.477037
-2.5288
-0.1773208
-0.0381295
-2.439071
-10.02917
0.02002489
0.1965155
-0.3162149
2.629574
0.5010029
-0.1089651
1.066127
-0.3082462
-1.06913
0.04193296
0.02687052
-1.737321
-2.156335
0.04478933
-0.8058522
-8.081092
-1.094641
0.0274207
2.639173
0.007406997
-0.1128989
-0.4656864
0.01549333
-0.695468
-34.01043
-26.19894
-0.05923938
-0.03612899
0.003816315
-0.1260016
-23.50585
-8.288917
-26.68889
-25.72033
23.40865
-0.5869401
3.30847
1.682419
-17.15826
0.01203704
2.993472
-68.51675
0.01213273
1.616045
-1.537206
3.671487
3.322518
-1.215759
-6.3462
-28.04783
-0.2322621
-42.24841
0.2621973
10.20682
37.0822
-9.188724
-4.511272
0.0528004
0.8765807
0.4317958
7.499945
-1.112353
7.584443
-2.174359
-5.303296
-11.49617
-2.501325
-0.8696886
-0.04174491
-25.7487
-0.7355135
-64.32006
7.187228
-0.7335633
9.805853
-0.7734476
31.11667
-0.09098423
-5.282025
-0.1021495
-1.039986
15.65441
-24.94594
-36.61598
-0.3063055
0.1573016
0.9258054
1.2099
-1.119426
-13.01363
-54.69958
0.02180204
-39.77223
1.909051
21.39598
-53.96397
2.433413
1.971216
-19.84673
-6.195099
-57.99856
39.42536
2.25135
-0.958341
-31.50221
-5.656344
0.002344914
-2.676051
0.9360356
-25.23175
-65.71711
-0.9620806
1.502497
-5.66899
2.425768
0.1074577
-0.2504226
-0.1181548
1.685694
1.823567
-0.0359869
0.1617101
0.2924987
-1.239348
-6.046917
-0.007816207
-0.3504366
-0.7867655
-54.55305
0.003710047
2.584229
0.06314258
1.223208
-42.34601
1.73249
-0.005842677
0.4228565
0.06946204
-0.1269836
-4.824835
0.03330274
-0.4959081
-28.46108
29.00027
-0.5564518
0.4184993
2.119583
0.01726473
1.965122
1.480092
0.0008807336
1.500016
-0.1321208
18.36897
-0.2855075
-12.38021
1.833202
5.291586
2.439294
2.802879
0.7501259
1.74936
-0.4883101
-0.2662131
-56.04594
-13.23618
0.02592646
-0.01224993
1.029875
-0.02783104
1.67512
-32.00407
-0.1892592
0.719916
-0.0357723
-11.84235
0.06868115
-0.2769918
2.731213
-67.35099
-0.03899441
-0.005206816
-0.2781553
-80.38414
-1.070902
-27.89955
-0.3957194
-0.3092033
0.7731054
1.028394
1.412098
-24.87179
-39.6504
0.0413872
0.08414775
19.356
-0.05938319
1.639029
1.739476
2.821076
-2.057066
-0.07600641
-0.213223
-31.00906
1.588955
-0.6240012
1.708165
2.503619
0.5986085
1.203879
-1.102047
1.853563
-13.46788
1.592239
-4.59025
11.15237
2.436271
-9.198626
0.4723051
-0.7450451
0.06594629
-30.26782
-1.06369
-1.981509
0.005099454
-14.53475
-23.65016
-23.53537
-0.2566886
-7.405163
-0.104448
-4.199626
-1.290542
-1.133741
15.97883
1.220041
-30.0667
-61.91292
-0.1265477
-0.2898121
-0.1814105
-0.007778889
-0.5985238
-0.2755572
-23.4121
0.01559502
0.03586769
-12.30971
1.316249
-1.242566
-0.7284649
-3.373793
0.2573733
1.832943
-0.05667481
-1.252301
1.532493
-13.6503
-1.515653
0.9251093
-1.241333
-0.04882872
-38.33058
0.03618214
-4.042084
-1.167193
-1.548521
0.007804195
-19.75559
-7.836467
3.33046
-4.612853
-0.021195
9.72901
-45.82013
-21.52271
1.383836
0.7893446
15.62333
-0.3837173
0.1847979
-0.7115929
-3.305372
-0.03458025
-54.96089
-24.81112
-15.21671
13.91519
9.965613
-0.06498287
-35.59686
-38.17213
-58.16185
1.794482
-6.206814
-1.951741
2.700039
0.03241483
-0.02545298
0.1551852
-0.03471809
-0.3598827
-0.4773035
-0.2373679
0.09585681
-21.26515
0.2940847
-0.7807119
0.7829545
-8.414889
19.434
0.01307999
14.77457
-28.64251
-15.33175
11.1114
2.447973
-9.310408
-9.889031
-52.09869
0.07669576
-47.91115
1.490965
-61.04313
-27.94716
-0.04528155
3.346484
-2.383512
0.6243941
14.14218
-0.05233868
0.01201774
1.612828
-0.03933205
-0.03982605
-0.0002864687
0.8645211
-0.837211
2.34217
-30.81937
0.002972858
1.784692
-20.98121
0.3399628
0.01352098
-14.2844
-1.102967
-50.77005
-1.643138
0.3141525
26.5553
-0.03310891
1.445595
-31.26372
-2.364423
-36.24344
-27.48199
0.009817894
-0.3778101
0.1715729
-3.526323
-0.01135295
-1.551915
5.149636
0.03551334
-0.5146834
-0.09455008
16.37684
2.849535
-23.17162
8.412546
-11.55866
-0.2522893
-66.04102
-0.4138257
-0.4669499
2.052388
1.564178
0.4580276
-45.17002
-30.08197
-42.4988
0.002006985
-1.376793
-45.68488
0.220155
-26.00772
2.280425
1.724182
-2.222502
-29.26763
1.702562
-79.32027
1.153419
-6.956804
0.03367833
-11.40489
9.855388
0.6252058
-1.400695
2.696371
-0.05870915
0.530171
17.21381
-1.559188
-1.25031
0.3021249
-27.63534
0.01370969
2.018319
0.6849723
0.5252895
-0.6093836
-2.145531
-0.09451063
-0.01986423
-27.2249
-3.367567
0.003936844
-3.914403
-2.39235
-0.3174113
-0.1559931
-5.411399
-0.001414487
1.836207
-59.19343
27.34274
-9.506539
-0.04749624
0.008270656
-25.07173
-0.05248697
-0.2368082
-28.96047
-0.8854229
1.034645
1.242201
-0.07512151
-16.81452
0.4753561
20.66089
31.24389
2.036423
-5.836603
-6.738937
-1.698395
1.540281
-0.01433499
32.03268
-33.38904
-0.09989605
-1.440019
0.3957461
-13.74295
-1.793289
-0.04649622
3.419929
1.532605
-1.117443
-26.68732
1.535725
0.5787721
-5.265665
20.50032
-9.434988
-1.067882
0.02704588
-64.13117
31.4465
-18.16299
0.888031
-11.98784
-5.990471
0.06365746
0.7009584
31.98905
1.434588
0.008022932
-12.36963
-1.231529
0.01192779
4.301603
2.586984
-0.01037558
0.3396744
0.04698286
19.48442
-1.563357
0.2271583
-38.2127
-0.03648324
2.942154
20.31688
2.897012
8.573135
-40.64333
-34.28259
0.1735149
0.01280802
-41.17541
-1.913166
-30.24829
-6.210195
-0.2086272
2.327175
-0.95876
-9.699975
-9.249047
6.139171
-4.434345
-11.74417
0.003620903
0.05525208
-2.74837
-46.68309
-14.224
0.7085176
2.53694
0.002751376
-0.06578617
-2.871692
1.069663
1.946725
1.103521
-44.74431
-1.780594
-0.6996267
-0.2723021
-63.13146
0.4596558
0.8360815
-7.024979
3.483964
-0.765169
-0.3137317
36.4927
-0.04663647
0.1568695
-0.7963636
-0.7210529
-25.06773
-30.24161
-45.36147
12.30664
1.773833
0.04575169
1.74623
1.696082
0.0172023
1.390941
0.0898056
2.191209
1.131304
1.183961
0.00658587
-0.9089723
11.82731
8.525408
-0.396148
-0.2913014
-0.188333
0.04025695
-0.3220401
-5.48027
3.024435
-37.7191
-18.1094
-0.3832938
-2.862473
-61.41953
41.35325
-73.30533
0.4967728
1.836185
3.772816
3.467741
7.875328
-18.55454
0.005500627
3.196789
0.7756389
3.213232
0.5074839
-0.005635261
0.7865366
-52.12329
-0.6477004
1.188192
0.3580937
2.265631
-49.12748
-33.41721
-32.28291
-0.7253163
13.95387
-10.88412
-0.2516093
0.209575
1.303758
-45.39616
0.08624088
3.002116
27.51969
0.9054267
1.778093
-1.303598
22.96661
-0.7482939
-6.307485
2.707535
-1.048202
0.005010219
-0.04772521
-88.50201
0.05785008
-73.35208
2.612296
0.4911049
45.3921
-3.073885
-0.02100203
-2.355838
3.430686
0.3136778
-2.64117
-41.54458
44.01309
2.868061
-4.276233
45.37886
-0.05737093
-0.03919326