/*--------------------------------*- C++ -*----------------------------------*\
| =========                 |                                                 |
| \\      /  F ield         | OpenFOAM: The Open Source CFD Toolbox           |
|  \\    /   O peration     | Version:  2406                                  |
|   \\  /    A nd           | Website:  www.openfoam.com                      |
|    \\/     M anipulation  |                                                 |
\*---------------------------------------------------------------------------*/
FoamFile
{
    version     2.0;
    format      ascii;
    arch        "LSB;label=32;scalar=64";
    class       surfaceScalarField;
    location    "0.28";
    object      phi;
}
// * * * * * * * * * * * * * * * * * * * * * * * * * * * * * * * * * * * * * //

dimensions      [0 3 -1 0 0 0 0];

oriented        oriented;

internalField   nonuniform List<scalar> 
6770
(
5.784378e-11
-1.760208e-09
1.702364e-09
-1.466641e-09
3.367762e-10
1.129865e-09
-1.472147e-09
1.371287e-09
1.008607e-10
1.687041e-09
-1.014642e-09
-6.723987e-10
7.590816e-09
-6.844427e-09
-7.463889e-10
6.210225e-10
8.560209e-10
-1.477043e-09
-1.121926e-09
1.621306e-09
-4.993798e-10
-1.268121e-09
1.223396e-09
4.472474e-11
-8.816453e-10
-8.232539e-10
1.704899e-09
-1.17998e-09
1.22672e-09
-4.673975e-11
2.378851e-10
-1.285225e-09
1.04734e-09
7.360539e-10
-1.670533e-09
9.344788e-10
1.365356e-09
-1.400989e-09
3.563255e-11
1.109315e-09
-1.645299e-09
5.35984e-10
-2.221965e-10
1.815433e-09
1.823628e-09
-4.899778e-09
3.07615e-09
4.477444e-10
1.361029e-09
-1.808774e-09
-2.321855e-09
5.656997e-10
1.756155e-09
-1.305481e-09
9.805255e-10
3.249558e-10
-6.43091e-10
-1.166334e-09
1.809425e-09
-7.843509e-10
-1.065469e-09
1.84982e-09
5.495692e-10
-1.50816e-09
9.585907e-10
8.848369e-10
-1.801033e-09
9.161959e-10
1.515172e-09
-1.116511e-09
-3.986617e-10
-1.197641e-09
8.984057e-10
2.992357e-10
-1.310683e-09
-3.226958e-10
1.633378e-09
1.210899e-09
4.078571e-10
-1.618756e-09
7.746881e-10
9.626931e-10
-1.737381e-09
-1.57916e-09
8.394241e-10
1.474778e-10
-1.045488e-09
8.980098e-10
3.423278e-10
-1.393225e-09
1.050898e-09
1.886962e-09
-1.55044e-09
-3.365214e-10
1.48844e-09
-2.731882e-10
-1.215252e-09
-1.943097e-10
1.702434e-09
-1.508124e-09
-2.084271e-09
2.004312e-09
7.995925e-11
-6.569136e-09
5.020286e-09
1.54885e-09
8.41974e-10
-1.712089e-09
8.70115e-10
-2.040676e-09
1.405838e-09
6.348378e-10
-1.007024e-09
2.169056e-09
-1.162032e-09
3.092516e-09
-2.677155e-09
-4.153606e-10
1.594105e-09
-1.505323e-09
-8.87817e-11
1.737185e-09
-7.539205e-10
-9.832642e-10
-1.975214e-09
1.63427e-09
3.409448e-10
-1.59093e-09
1.006902e-09
5.840283e-10
-1.27169e-09
8.629478e-10
4.087417e-10
-1.979099e-09
1.636125e-09
3.429745e-10
-1.219297e-09
8.234971e-10
3.958001e-10
-7.898448e-10
-8.255717e-10
1.615417e-09
-5.57214e-10
-1.435421e-09
1.992635e-09
-1.586063e-09
-5.430311e-10
2.129094e-09
5.686029e-10
9.403891e-10
-1.508992e-09
-1.186765e-09
3.353309e-10
8.514342e-10
-5.887654e-09
2.589e-10
5.628754e-09
-1.180856e-09
-4.413213e-10
1.622178e-09
1.606006e-09
7.786712e-10
-2.384677e-09
-1.494635e-09
1.015203e-09
4.794323e-10
1.480555e-09
-2.800549e-10
-1.2005e-09
-1.576873e-09
1.159756e-09
4.17117e-10
3.744568e-10
1.430394e-09
-1.804851e-09
-5.031979e-10
-2.345755e-09
2.848953e-09
-1.504799e-09
1.440529e-09
6.426955e-11
-1.173254e-09
3.096378e-10
8.636165e-10
3.917607e-10
1.294596e-09
-1.686357e-09
-3.389209e-10
-1.439342e-09
1.778262e-09
-1.660665e-09
1.851618e-09
-1.699775e-09
1.00839e-09
6.913854e-10
2.00277e-11
-1.743564e-09
1.723537e-09
1.03199e-09
-1.752775e-09
7.207849e-10
-3.328902e-11
-1.456447e-09
1.489736e-09
-1.486957e-09
9.408531e-10
5.46104e-10
-6.371834e-10
-1.007054e-09
1.644238e-09
2.18843e-09
-9.523052e-10
-1.236124e-09
1.180954e-09
6.214542e-10
-1.802408e-09
-9.133932e-10
-8.301629e-10
1.743556e-09
-3.853027e-10
1.899026e-09
-1.513723e-09
5.24912e-10
1.854484e-09
-2.379396e-09
-1.071488e-09
1.569112e-09
-4.976247e-10
-1.698156e-09
3.807652e-10
1.317391e-09
1.860062e-09
-4.475173e-10
-1.412544e-09
-1.95618e-10
3.371691e-09
-3.176073e-09
-4.704938e-09
8.210545e-09
-3.505607e-09
-1.265267e-09
-3.171646e-09
4.436913e-09
-2.064033e-09
1.432765e-09
6.312673e-10
-5.822211e-10
1.796715e-09
-1.214494e-09
-1.701455e-09
1.507145e-09
-1.077917e-09
-7.15248e-10
1.793165e-09
7.124659e-10
1.288752e-09
-2.001218e-09
-1.413463e-09
5.855283e-10
8.279345e-10
-1.547441e-10
-1.212082e-09
1.366827e-09
-1.713931e-09
3.714978e-10
1.342434e-09
-9.408791e-10
-1.128048e-09
2.068927e-09
7.25925e-10
-1.626316e-09
9.003909e-10
-1.203877e-09
-4.528767e-10
1.656754e-09
1.518621e-09
-3.230289e-10
-1.195592e-09
9.837191e-10
5.671291e-10
-1.550848e-09
1.187336e-09
-3.601094e-10
-8.27227e-10
8.06241e-10
-1.667278e-09
8.61037e-10
-1.28543e-09
1.170337e-09
1.150936e-10
6.686158e-10
-1.533261e-09
9.725413e-10
8.252625e-10
-1.797804e-09
-6.365538e-10
1.525253e-09
-8.886993e-10
-1.007293e-09
1.726226e-09
-7.189335e-10
1.650092e-09
-4.005202e-10
-1.249572e-09
-1.790352e-09
1.103797e-09
6.865545e-10
1.550881e-09
-1.237876e-09
-3.130056e-10
1.205082e-09
-1.027526e-09
-1.775562e-10
-1.340528e-09
1.214787e-09
1.257411e-10
2.090361e-09
-1.531642e-09
-5.587192e-10
9.785415e-10
-1.406925e-09
4.283839e-10
6.17999e-09
-9.588942e-10
-5.221096e-09
1.753684e-09
-4.379908e-10
-1.315694e-09
1.587583e-09
-5.075743e-10
-1.080009e-09
-8.90885e-10
1.455935e-09
-5.650505e-10
1.67463e-09
-1.258477e-09
-4.161532e-10
1.007389e-09
9.484896e-10
-1.955879e-09
1.044456e-09
6.927284e-10
-1.955752e-10
-4.465107e-09
4.660682e-09
-2.94576e-11
-1.370324e-09
1.399782e-09
-1.532725e-09
5.064719e-10
1.026253e-09
-1.301407e-09
1.085716e-09
2.156912e-10
9.428749e-10
1.677841e-09
-2.620716e-09
-6.997298e-10
1.725932e-09
-1.026203e-09
-1.545298e-09
1.681927e-09
-1.366294e-10
1.821665e-09
-1.249877e-09
-5.717881e-10
8.047552e-10
1.058552e-09
-1.863308e-09
-3.803974e-10
1.705536e-09
-1.325138e-09
5.837634e-10
-1.916265e-09
1.332501e-09
-1.263595e-09
1.634667e-09
-3.710718e-10
1.951575e-09
-9.678556e-10
-1.958694e-09
1.449911e-09
5.087827e-10
1.021587e-09
8.602606e-10
-1.881847e-09
-7.924786e-10
-5.166334e-10
1.309112e-09
1.543936e-09
-3.388547e-10
-5.514049e-10
-8.21169e-10
1.372574e-09
1.562594e-09
-4.482517e-10
-1.114343e-09
2.021446e-09
-9.931144e-10
-1.028331e-09
1.229833e-09
4.897932e-10
-1.719626e-09
-1.662692e-09
1.418567e-09
2.441244e-10
4.456988e-09
8.857978e-10
-5.342786e-09
1.530295e-09
-1.445514e-09
-8.478093e-11
-1.599927e-09
9.56514e-10
6.434132e-10
1.179535e-09
-4.939653e-09
3.760118e-09
-1.552435e-09
3.112664e-10
1.241169e-09
1.177099e-09
7.814956e-10
9.214339e-10
6.884812e-10
-1.609915e-09
1.704353e-09
-1.427285e-09
-2.770675e-10
7.163391e-10
-1.362029e-09
6.456902e-10
5.703767e-10
-1.37115e-09
8.007733e-10
1.844285e-09
-1.483506e-09
-3.607793e-10
-7.690658e-09
1.803004e-09
2.189962e-10
1.075976e-09
-1.294972e-09
-1.156129e-09
7.40739e-10
4.153897e-10
6.086031e-10
9.675484e-10
-1.576151e-09
7.359948e-10
8.839861e-10
-1.619981e-09
1.544625e-09
-9.677972e-10
-5.768277e-10
-5.354443e-11
2.640095e-09
-2.58655e-09
-1.698106e-09
9.084392e-10
7.896664e-10
-9.153933e-10
1.898145e-09
-9.827514e-10
1.509034e-09
4.220554e-10
-1.931089e-09
-1.579333e-09
-2.825394e-10
1.861873e-09
1.143929e-09
-1.780281e-09
6.363526e-10
-1.913284e-09
2.438196e-09
1.227609e-09
-1.015844e-09
-2.117643e-10
4.457994e-10
-1.531538e-09
1.085738e-09
-2.453924e-10
1.530435e-09
-1.285042e-09
-1.7374e-09
2.427649e-10
-1.554915e-09
2.684639e-10
1.286451e-09
3.669731e-10
-1.744784e-09
1.377811e-09
-1.714995e-09
6.92918e-10
1.022077e-09
-6.118011e-10
2.434671e-09
-1.82287e-09
-1.958416e-09
1.174066e-09
1.419442e-09
-2.969808e-11
-1.389744e-09
8.077016e-10
7.837383e-10
-1.59144e-09
2.823363e-10
-1.627973e-09
1.345637e-09
-8.162756e-10
1.82293e-09
-1.006654e-09
-5.149324e-10
2.023966e-09
1.20602e-09
-1.581873e-09
3.75852e-10
9.206365e-11
-1.637361e-09
-1.319744e-11
1.30592e-09
-1.292722e-09
-1.476605e-09
6.789071e-10
7.976978e-10
1.364088e-09
-1.590089e-09
2.260006e-10
1.752685e-10
-1.639499e-09
1.46423e-09
-9.425267e-10
1.658866e-09
2.79771e-09
-1.371938e-09
7.02231e-10
6.697069e-10
2.09909e-10
8.266129e-10
-1.036522e-09
1.102719e-09
-1.505478e-09
4.027588e-10
3.909745e-10
1.283654e-09
-1.674628e-09
-1.241493e-09
1.903422e-09
-6.619284e-10
1.006725e-09
-1.184297e-09
1.775717e-10
1.505378e-09
-5.492813e-10
-9.560971e-10
1.14496e-09
5.296157e-10
-1.674576e-09
-1.675487e-09
1.141396e-09
5.340906e-10
3.546088e-10
-1.330331e-09
9.75722e-10
-1.648918e-09
1.018702e-09
6.302158e-10
-2.679343e-10
-1.208671e-09
-1.79705e-09
1.309038e-09
4.880111e-10
-7.810587e-10
1.7536e-09
-1.731916e-09
1.120115e-09
1.073234e-09
7.121309e-10
-1.785365e-09
6.437924e-10
-2.034359e-09
1.390566e-09
-8.030361e-10
-1.073353e-09
1.876389e-09
-1.627787e-09
5.051375e-10
1.12265e-09
1.654652e-10
-1.178239e-09
1.012774e-09
1.010529e-09
1.635592e-10
-1.174088e-09
-1.87574e-10
1.553888e-09
-1.366314e-09
1.602315e-09
-1.360771e-09
-2.415438e-10
2.022664e-09
-9.529794e-10
-1.069685e-09
3.163083e-10
1.371485e-09
-1.687793e-09
8.807059e-10
8.86392e-10
-1.767098e-09
-1.11679e-09
-5.542052e-10
1.670995e-09
5.149666e-10
-1.306446e-09
7.914799e-10
1.765461e-09
-7.255307e-10
-1.03993e-09
9.749526e-10
4.917548e-10
-1.466707e-09
2.074773e-10
9.622781e-10
-1.169755e-09
1.375681e-09
6.469832e-10
-4.78006e-10
-1.22497e-09
1.702976e-09
-1.291533e-09
-2.600772e-10
1.55161e-09
1.534796e-09
-5.072748e-10
-1.027521e-09
8.279511e-10
-1.94942e-09
1.121469e-09
-1.398017e-09
3.45752e-10
1.052265e-09
1.10948e-09
-1.658388e-09
5.489072e-10
-5.608559e-12
-1.862074e-09
1.867682e-09
3.127708e-09
-1.521702e-09
1.409387e-09
-1.168467e-09
-2.409199e-10
-1.585385e-09
9.842027e-10
6.011822e-10
-9.208249e-10
1.138719e-09
-2.178944e-10
1.549276e-10
-1.371056e-09
1.216129e-09
8.976372e-10
-1.790615e-09
8.92978e-10
-1.553194e-09
-5.326023e-10
2.085796e-09
-1.320283e-09
-1.463582e-10
-1.729939e-09
9.743888e-10
7.555502e-10
8.223902e-10
9.949758e-10
-1.817366e-09
1.445034e-09
-2.14951e-09
7.044758e-10
-1.061878e-09
1.603329e-09
-5.414514e-10
1.747082e-09
-5.172491e-10
-1.768483e-09
2.859187e-10
1.482564e-09
-1.073394e-09
1.95937e-09
-8.859766e-10
-8.000329e-10
-1.084286e-09
1.884319e-09
-1.247891e-09
2.216872e-09
-9.689807e-10
-1.7889e-09
1.993368e-09
-1.21868e-09
-1.209421e-09
1.741013e-09
-5.315921e-10
-1.22328e-09
3.607344e-10
8.625452e-10
1.822337e-09
-1.322096e-09
-5.002411e-10
2.0519e-09
-1.601407e-09
-4.504933e-10
1.742058e-09
-6.176765e-10
-1.124382e-09
-1.2472e-09
-3.963066e-10
1.643507e-09
1.159888e-09
3.749084e-10
1.529459e-09
2.360017e-10
1.579381e-09
-9.283813e-10
-6.51e-10
8.519587e-10
-1.852668e-09
1.00071e-09
1.483998e-09
5.677234e-11
-1.54077e-09
-8.856928e-10
-5.70615e-10
1.456308e-09
1.42459e-09
-1.050866e-09
-3.73724e-10
-1.226793e-09
-4.881395e-10
1.714933e-09
1.973626e-10
-1.222778e-09
1.025415e-09
-1.665232e-09
1.700662e-09
-3.543036e-11
-1.089748e-09
-6.991521e-10
-9.326329e-10
-3.444384e-10
1.277071e-09
-1.959656e-09
8.637371e-10
1.095919e-09
1.871523e-09
-1.439308e-09
-4.322151e-10
1.043715e-09
9.461386e-10
-1.989854e-09
-1.654014e-09
3.719511e-10
1.282063e-09
1.76056e-09
-3.014895e-10
-1.459071e-09
6.717095e-10
1.26697e-09
-1.417115e-09
1.501456e-10
-1.438785e-09
-3.405149e-10
1.7793e-09
1.211134e-09
9.092213e-10
-2.120356e-09
-2.107679e-09
9.49027e-10
1.158652e-09
-8.071292e-10
1.599314e-09
-7.921852e-10
8.249665e-10
-1.132588e-09
3.076212e-10
-2.010585e-10
-1.49167e-09
1.692729e-09
-4.7757e-09
3.510433e-09
1.822968e-09
-5.133603e-09
3.310635e-09
-1.7308e-09
1.277171e-09
4.536295e-10
-1.745335e-09
1.488107e-09
2.572282e-10
1.394941e-09
-2.75944e-11
-1.367347e-09
-1.712652e-09
1.394694e-09
3.179586e-10
-2.959951e-09
-7.539133e-11
3.035342e-09
-5.106555e-10
1.927156e-09
-1.416501e-09
1.357598e-09
-2.368377e-09
1.010779e-09
-1.472075e-12
1.389145e-09
-1.387673e-09
-1.360757e-09
-4.828445e-10
1.843602e-09
-1.527808e-09
1.793642e-09
-2.658342e-10
2.349379e-09
-1.249168e-09
-1.100211e-09
-1.615442e-09
4.509477e-10
1.164494e-09
-1.583781e-09
8.936596e-10
6.90121e-10
2.890479e-10
1.452526e-09
-1.741574e-09
-1.642714e-09
1.005531e-09
1.394265e-09
9.854736e-11
-1.492813e-09
1.565488e-09
-8.099051e-10
-7.555829e-10
-1.608513e-10
1.195972e-09
-1.035121e-09
-7.645265e-10
-1.033842e-09
1.798368e-09
-1.860882e-09
6.924498e-10
1.168432e-09
1.260201e-09
2.959575e-11
-1.289797e-09
1.079194e-09
1.242423e-09
-2.321617e-09
1.108043e-09
1.136747e-09
-1.368473e-09
2.317265e-10
2.648567e-09
-7.233993e-09
4.585426e-09
1.833981e-09
5.226354e-11
-1.886244e-09
-1.477024e-09
9.580713e-10
5.189528e-10
1.673978e-09
-8.196597e-10
-8.543181e-10
1.01527e-09
-1.195957e-09
1.806871e-10
-4.980859e-09
-2.709799e-09
-6.046843e-10
1.490742e-09
-8.860573e-10
1.732757e-09
-8.907832e-10
-1.817851e-09
-9.407811e-11
1.911929e-09
1.756297e-10
1.475962e-09
-1.651592e-09
1.068429e-09
-1.629076e-10
-9.055218e-10
-8.767706e-10
-5.276171e-10
1.404388e-09
-1.614325e-09
-1.346561e-09
2.960887e-09
-1.033347e-09
-9.060814e-10
1.939428e-09
9.956774e-10
-1.671831e-09
6.761532e-10
-5.94157e-12
-1.304572e-09
1.310513e-09
-5.210149e-10
-1.175059e-09
1.696074e-09
-6.759258e-10
1.796163e-09
-1.120238e-09
1.642396e-09
-2.649421e-09
1.597906e-09
-1.79059e-09
1.92684e-10
1.397438e-09
-2.149657e-09
7.522186e-10
7.827884e-10
2.54102e-10
-1.03689e-09
2.132179e-09
6.655317e-10
-3.563007e-10
-1.621153e-09
1.977454e-09
2.630339e-10
-1.784306e-09
1.521273e-09
-7.551255e-10
-8.355344e-10
1.59066e-09
1.597157e-09
-1.626615e-09
-3.009433e-10
1.47604e-09
-1.175097e-09
5.396078e-11
-1.51053e-09
1.45657e-09
-1.198412e-09
-4.996933e-10
-8.474783e-10
1.089539e-09
-2.420606e-10
1.545377e-09
-1.896706e-09
3.513295e-10
2.747357e-09
-2.731923e-09
-1.543322e-11
1.480972e-09
-1.121785e-09
-3.591871e-10
-1.508328e-09
1.124946e-09
3.833823e-10
1.726274e-09
-1.237835e-09
3.851399e-10
1.341134e-09
1.094598e-09
-1.547569e-09
4.529709e-10
1.000807e-09
-1.170547e-09
1.697402e-10
-6.92386e-10
8.384858e-10
9.161967e-10
-1.754682e-09
1.015615e-09
-1.179895e-09
1.6428e-10
-1.36822e-09
1.57856e-09
-2.103394e-10
1.447427e-09
-3.024666e-10
-1.86097e-09
8.013668e-10
1.059603e-09
1.936825e-09
-2.370789e-10
-1.699746e-09
-2.499057e-12
1.233855e-09
-1.231356e-09
-1.427183e-10
1.30855e-09
-1.165832e-09
-1.503644e-09
-7.588899e-11
1.579533e-09
-1.416305e-09
1.51805e-09
-1.017454e-10
-1.411218e-09
1.040559e-09
3.706584e-10
1.184468e-09
-1.014892e-09
-1.695756e-10
1.924168e-09
-1.59097e-09
-3.331981e-10
-1.389979e-09
1.889647e-10
1.201014e-09
1.837249e-09
-1.167413e-09
-6.698359e-10
-8.983692e-10
-1.961795e-09
2.636393e-10
-6.124256e-10
-1.069135e-09
1.681561e-09
-8.481898e-10
1.081644e-09
-2.334543e-10
1.634755e-09
-1.981348e-09
3.465922e-10
-1.229824e-09
2.138264e-09
1.743759e-09
-9.54093e-10
-1.234375e-09
-3.952569e-10
1.629632e-09
-3.440863e-10
-9.276033e-10
8.084503e-10
2.439404e-09
-3.247854e-09
-1.109335e-09
1.693099e-09
2.122735e-09
-1.510914e-09
-6.118208e-10
8.906523e-10
8.63011e-10
-1.753663e-09
1.779632e-09
-1.368466e-10
-1.642786e-09
-7.117838e-11
-1.339487e-09
1.410665e-09
-1.051899e-09
-5.70238e-10
1.622137e-09
9.592462e-11
1.625318e-09
-1.721243e-09
-1.469634e-09
1.820707e-09
-3.510728e-10
1.115931e-09
5.964197e-10
-1.712351e-09
-4.962996e-10
1.324798e-09
-8.284979e-10
-1.804498e-09
1.529388e-09
2.751105e-10
-1.222762e-09
1.287236e-09
-6.447393e-11
-4.633515e-10
-7.732591e-10
1.236611e-09
2.030372e-09
-1.296933e-09
-7.334383e-10
-5.04476e-10
-7.333289e-10
1.237805e-09
-2.415583e-11
1.110936e-09
-1.08678e-09
1.355577e-09
-1.44097e-09
8.539295e-11
1.444034e-09
2.359028e-10
-1.679937e-09
5.175102e-10
7.328622e-10
-1.250372e-09
-4.864399e-10
-8.524365e-10
1.338876e-09
-8.738552e-10
1.584555e-09
-7.107001e-10
1.342691e-09
-1.553549e-10
-6.84741e-10
2.085156e-09
-1.400415e-09
8.061171e-10
6.666554e-10
-1.472773e-09
1.868049e-09
-1.000951e-09
-8.67098e-10
-4.364904e-10
-1.220596e-09
1.657086e-09
-8.83855e-10
1.575208e-09
-6.913533e-10
2.395798e-09
-6.38123e-10
-1.757675e-09
1.881549e-09
-1.133934e-09
-7.476157e-10
1.433537e-09
3.436302e-10
-1.777167e-09
-3.081543e-09
-2.362627e-09
5.44417e-09
1.778989e-09
-5.189927e-09
3.410938e-09
-1.275571e-09
-4.929111e-10
1.655463e-09
1.02518e-09
-1.48249e-09
4.573104e-10
1.325735e-09
-1.337279e-09
1.154439e-11
-8.830226e-10
-1.076634e-09
1.661606e-09
-8.412683e-10
-1.717527e-09
2.478936e-10
-9.640282e-10
-4.736774e-10
1.437706e-09
9.053055e-10
1.435913e-09
-2.341219e-09
8.567644e-10
4.469119e-10
-1.303676e-09
1.787771e-09
-5.693271e-10
6.575432e-10
-5.528867e-10
1.510128e-09
-9.572416e-10
4.357815e-10
-1.699377e-09
5.089624e-11
1.484989e-09
-1.535886e-09
-9.920602e-11
1.47013e-09
-1.370924e-09
-6.562377e-09
1.789378e-09
4.772998e-09
-1.22168e-09
1.432991e-09
-2.113115e-10
-1.469332e-09
1.436233e-09
3.309913e-11
1.591538e-09
-5.732687e-10
-1.018269e-09
-1.833231e-09
1.436644e-09
3.965872e-10
7.097386e-10
-1.819046e-09
1.109307e-09
-1.371678e-09
-8.623529e-10
-6.246042e-10
4.206227e-10
-8.813641e-10
4.607414e-10
1.38985e-09
-1.678976e-10
-1.221952e-09
-1.582846e-09
1.407531e-09
1.515147e-09
2.086602e-10
-1.723807e-09
-7.392331e-11
-1.541056e-09
1.273425e-09
-1.626106e-09
3.526811e-10
-1.148118e-12
1.545773e-09
-1.636107e-09
-3.429924e-10
-1.792532e-09
-3.497882e-10
2.14232e-09
-1.295402e-09
-1.158161e-10
-9.902609e-10
-1.050415e-09
3.397456e-11
1.516685e-09
-1.55066e-09
1.287124e-09
-1.750476e-09
-1.633799e-09
-3.234821e-10
1.957281e-09
1.886731e-09
-9.199582e-10
-9.667724e-10
-3.357641e-10
-4.616423e-09
4.952187e-09
1.376277e-09
-1.18637e-09
-1.899073e-10
-4.951167e-10
-1.2261e-09
1.721216e-09
-1.587819e-09
1.734232e-09
-1.464127e-10
-9.029479e-10
-5.818913e-10
1.484839e-09
-1.655813e-09
1.976728e-10
1.45814e-09
1.454243e-09
-1.406666e-09
-4.757682e-11
6.702807e-10
-1.677574e-09
3.849789e-10
-1.832871e-09
1.447892e-09
1.60036e-09
1.413563e-10
-1.741716e-09
1.755303e-09
-7.337567e-11
8.340363e-10
-2.195572e-09
1.361536e-09
-1.304747e-09
1.358451e-09
-5.370445e-11
-7.753484e-10
1.656054e-09
1.178582e-09
4.715101e-10
1.481382e-09
-1.334257e-10
-1.347956e-09
-4.921933e-09
5.419312e-10
4.380001e-09
-1.084786e-09
1.651915e-09
1.920172e-10
-1.800308e-09
1.608291e-09
4.788926e-11
1.406354e-09
-1.108054e-09
-6.892208e-10
1.797275e-09
5.23144e-10
1.311012e-09
1.763068e-09
-1.306418e-09
-4.566497e-10
1.947178e-09
-8.890616e-10
-1.058116e-09
-2.122855e-09
-1.816794e-10
2.304534e-09
-1.01316e-09
-4.218625e-10
1.435023e-09
1.525463e-09
-1.698862e-10
-4.600948e-10
1.617478e-09
-1.157384e-09
7.979369e-10
9.530835e-10
-1.75102e-09
1.191733e-09
-1.732635e-09
5.409021e-10
1.126971e-09
4.321134e-10
-1.559084e-09
-1.40433e-09
8.908019e-10
5.135281e-10
1.156661e-09
1.389828e-09
-1.414762e-11
-1.729189e-09
6.872889e-10
1.0419e-09
6.754051e-10
-2.083072e-09
1.407667e-09
5.271028e-10
-1.592572e-09
5.400712e-10
8.497788e-10
3.286348e-10
-1.76914e-09
6.890569e-10
-2.79004e-09
2.100984e-09
-1.441503e-09
-1.150434e-09
-4.225929e-10
1.573027e-09
-7.913255e-11
1.444489e-09
2.291877e-10
1.403992e-09
-1.633179e-09
-1.290134e-09
-4.885319e-10
1.778665e-09
-2.336611e-11
1.274139e-09
-1.250773e-09
1.295461e-09
-8.173586e-10
-4.781025e-10
1.872354e-09
-1.749287e-09
-1.23067e-10
3.485217e-09
2.817199e-10
-3.766937e-09
-1.67273e-09
-2.859645e-10
-3.181763e-09
2.503388e-09
6.78375e-10
-1.611648e-09
2.068973e-10
1.404751e-09
1.343007e-09
-1.803102e-09
-1.269593e-09
9.988922e-11
-1.57805e-09
1.47816e-09
1.497007e-09
-1.628603e-09
1.315957e-10
1.492556e-09
-3.911057e-10
-1.10145e-09
1.337889e-09
-1.432901e-09
9.50126e-11
-1.249234e-09
-4.159976e-10
3.278559e-10
-1.358962e-09
1.031106e-09
5.575648e-10
-1.706837e-09
1.149272e-09
-2.661998e-10
1.530624e-09
-1.264425e-09
-8.092263e-11
1.286943e-09
1.446978e-09
-4.385888e-10
-1.052539e-09
1.172969e-09
-1.204298e-10
-1.282707e-09
1.010962e-09
2.717456e-10
-1.527577e-09
5.200237e-10
1.007554e-09
-1.01723e-09
1.18151e-09
-1.642793e-10
-1.077393e-09
-1.320281e-10
1.523757e-09
-4.21038e-10
-1.117794e-09
1.64741e-09
1.536974e-09
-3.655383e-10
-1.171436e-09
-9.65069e-10
-7.095067e-10
-2.504796e-10
1.171939e-09
-9.214594e-10
-1.023365e-09
-8.414966e-10
1.864862e-09
-1.188961e-09
1.025298e-09
1.636629e-10
-1.630049e-10
1.17862e-09
-1.533886e-09
8.343796e-10
6.995066e-10
1.566822e-09
-1.390988e-09
-1.758346e-10
4.002114e-10
1.042147e-09
-1.442358e-09
5.267029e-10
-1.933631e-09
1.406928e-09
-4.329546e-09
6.152514e-09
-8.112794e-10
1.903267e-09
-1.091987e-09
-3.136048e-09
1.222764e-09
-2.211583e-09
1.089442e-09
1.12214e-09
-8.5495e-10
3.462008e-09
-2.607058e-09
4.705291e-10
8.621277e-10
-1.332657e-09
1.779601e-09
-8.021288e-10
1.756299e-09
-9.541703e-10
1.842796e-09
-1.285231e-09
-1.305831e-09
-3.106573e-10
1.616488e-09
-1.573752e-09
2.028877e-09
-4.55125e-10
5.198712e-09
-3.777202e-10
-4.820992e-09
-1.840053e-09
2.22022e-11
2.023003e-09
-1.056458e-09
-2.001145e-09
1.245619e-09
-8.226049e-10
-7.886924e-10
1.611297e-09
1.983587e-09
-1.862701e-09
-1.208859e-10
1.517694e-09
-5.842983e-10
-9.333954e-10
1.810694e-10
1.213872e-09
1.465958e-09
1.473863e-10
-1.613344e-09
1.063292e-09
4.088389e-10
-1.472131e-09
-8.995634e-10
-9.049349e-10
4.214283e-10
-1.599398e-09
1.17797e-09
-5.646711e-10
1.72905e-09
-1.164379e-09
-1.996613e-09
-2.937139e-09
4.933751e-09
-1.655389e-09
8.039131e-10
8.514756e-10
-1.579824e-09
8.044759e-10
-6.556019e-10
1.738775e-09
-1.083173e-09
-6.110364e-10
3.68318e-09
-3.072144e-09
-1.53224e-09
-5.198369e-10
2.052077e-09
1.978275e-09
2.209711e-09
-7.646769e-10
-8.324204e-10
1.637176e-09
-7.140958e-10
1.842582e-09
-1.128486e-09
9.374506e-10
3.882843e-10
1.278409e-09
3.667547e-10
-1.645164e-09
1.332005e-09
3.794211e-10
-1.711426e-09
-1.341251e-09
1.627169e-09
1.555112e-09
5.303233e-10
-2.085435e-09
8.039392e-10
-1.808291e-09
1.004352e-09
-1.832028e-09
1.268857e-09
5.631707e-10
-1.171459e-09
-1.314106e-09
2.485565e-09
1.772851e-09
-2.3798e-09
6.069491e-10
4.484779e-10
-1.776481e-09
1.328003e-09
2.187278e-09
-8.702121e-10
-1.317066e-09
-5.38208e-10
-1.371338e-09
1.909546e-09
-4.444195e-10
-9.565692e-10
-8.640805e-10
-7.532784e-10
-1.004766e-09
-1.050054e-10
1.109771e-09
-9.557563e-10
1.404234e-09
-1.157671e-09
-8.003418e-10
1.958013e-09
1.24755e-09
-4.658729e-10
-1.141582e-09
1.607455e-09
1.710386e-09
-2.768493e-10
-8.008637e-11
-9.330738e-10
-3.338197e-10
-1.239932e-09
2.051431e-10
-1.76018e-09
1.555037e-09
-1.046338e-09
-7.568687e-10
1.803207e-09
8.045687e-09
-8.045687e-09
-2.208108e-10
1.402465e-09
-1.181654e-09
-6.72647e-10
1.388499e-09
-7.15852e-10
2.990174e-10
-1.777504e-09
1.478487e-09
-1.040324e-09
-8.759404e-10
1.607048e-09
-5.725787e-10
-1.03447e-09
-1.185301e-09
-2.491775e-10
1.434479e-09
4.635508e-10
1.70393e-09
-1.294299e-09
-4.096304e-10
-1.032609e-09
1.596968e-09
-1.608925e-09
4.814858e-10
1.127439e-09
1.147041e-09
7.312416e-10
-1.878283e-09
-1.039087e-09
1.55052e-09
-5.114323e-10
-1.085163e-09
2.201094e-09
1.870382e-09
-1.448327e-09
-1.457103e-09
1.443905e-09
-4.110293e-10
-7.533624e-10
1.164392e-09
-6.944197e-09
1.675857e-09
5.268339e-09
9.601701e-10
6.09083e-10
-1.569253e-09
8.242923e-10
-1.256218e-09
4.319259e-10
-1.819422e-09
9.595041e-10
8.599175e-10
7.899397e-10
-1.380838e-09
5.908987e-10
-1.494871e-09
5.58075e-10
9.367959e-10
1.35868e-11
1.539036e-09
-1.552622e-09
-1.051394e-09
2.182271e-09
-1.130877e-09
4.695543e-10
9.508251e-10
5.918941e-11
-1.010015e-09
-4.276675e-10
1.338053e-09
-9.10386e-10
-9.433947e-10
1.364017e-09
-9.338769e-10
2.032267e-09
-1.09839e-09
8.057663e-09
-6.395051e-09
-1.662612e-09
-1.125626e-09
-1.023884e-09
-4.715246e-10
-1.620933e-09
2.092458e-09
-7.533577e-10
-8.729582e-10
-1.37313e-09
9.949905e-11
1.273631e-09
1.80977e-09
-1.196914e-09
-6.12856e-10
1.336176e-09
-1.418962e-09
8.278612e-11
1.505364e-09
-1.259985e-09
1.695748e-09
-4.357623e-10
7.919145e-10
-1.542928e-09
3.135472e-10
1.22938e-09
-1.756198e-09
9.439586e-10
8.122394e-10
1.383822e-09
-5.089624e-09
4.914895e-09
1.747287e-10
-1.451501e-09
1.811626e-09
-1.511721e-09
-2.999051e-10
6.735415e-10
1.060886e-09
-1.734428e-09
1.405423e-09
-1.499233e-09
9.380976e-11
-1.644613e-09
8.048088e-10
8.398047e-10
1.492958e-09
-3.404101e-10
-1.152548e-09
-1.621829e-10
-1.120779e-09
1.282961e-09
-3.069205e-09
6.928704e-09
-3.859499e-09
2.240832e-09
2.150212e-09
-4.391044e-09
-2.046658e-09
8.751995e-10
1.023057e-09
9.362164e-10
-1.959273e-09
-1.506584e-09
1.205641e-09
-1.860369e-09
5.7783e-10
1.282539e-09
1.797048e-09
-7.904349e-10
-1.006613e-09
-1.040864e-09
1.077415e-09
-3.655132e-11
-1.709962e-09
2.596832e-10
-1.087462e-09
1.37849e-09
-2.910286e-10
1.80202e-09
-7.914909e-10
1.462288e-09
2.480984e-10
-1.643816e-09
-3.908022e-10
2.034619e-09
5.987331e-10
-1.584178e-09
9.854444e-10
9.753319e-10
1.005294e-09
-1.980626e-09
-1.679405e-09
4.018315e-11
1.639222e-09
7.545369e-10
-2.311565e-09
1.557028e-09
8.018345e-10
7.035439e-10
1.297523e-09
-3.312733e-10
-9.662496e-10
1.982462e-09
-1.708365e-10
-3.260725e-10
1.374283e-09
-1.048211e-09
-1.693904e-09
1.152154e-09
-1.828079e-09
4.022941e-10
1.353009e-09
-1.81177e-09
1.405436e-09
4.063335e-10
-1.860951e-09
2.171348e-10
1.423662e-09
2.600495e-10
-1.683711e-09
1.486494e-09
3.34083e-10
-1.820577e-09
-2.008224e-09
1.617422e-09
4.058964e-10
-2.004784e-09
1.598887e-09
-7.908345e-10
-7.040364e-10
-1.197384e-09
1.04264e-09
-1.107281e-09
-3.776843e-10
1.484965e-09
-1.399554e-09
1.801849e-09
-1.762395e-09
7.355064e-10
1.026889e-09
-9.826332e-10
1.425539e-09
-4.429058e-10
-1.122148e-09
-4.400087e-10
1.562156e-09
-1.21987e-10
1.58151e-09
-1.459523e-09
-1.301438e-09
1.272035e-09
4.690728e-10
-1.741108e-09
-1.584906e-09
1.602741e-09
-1.783517e-11
-5.060018e-10
2.6149e-09
-2.108898e-09
1.835802e-09
-6.923266e-10
-1.143475e-09
3.985403e-09
-4.181021e-09
-1.724775e-09
1.64889e-09
7.588571e-11
1.97429e-09
-1.025982e-09
-9.483079e-10
-1.186065e-09
9.984911e-10
2.009729e-10
1.352915e-09
-4.08218e-09
3.471144e-09
-1.684012e-09
1.341549e-09
3.42463e-10
1.422501e-09
-4.850506e-10
-1.059296e-09
-1.184476e-09
2.243773e-09
-1.160204e-09
1.849141e-09
-6.88937e-10
-2.635297e-09
5.560442e-10
2.079253e-09
1.297954e-09
-2.043073e-09
7.451196e-10
6.022376e-10
8.434378e-10
-1.445675e-09
-7.482154e-10
-4.297799e-10
1.177995e-09
3.630106e-10
1.189425e-09
-1.552436e-09
1.129738e-09
-1.552494e-09
4.227564e-10
-3.718357e-10
-1.283978e-09
1.919119e-09
-3.307851e-12
-1.915812e-09
-1.938758e-09
4.131559e-10
1.27079e-09
-1.683945e-09
1.519052e-09
-1.147101e-09
-1.277541e-09
-2.741536e-10
1.551695e-09
7.584551e-10
8.070329e-10
3.388883e-10
-1.61254e-09
1.273652e-09
-1.727982e-09
6.11192e-10
1.356632e-09
-1.4513e-09
9.466829e-11
1.798952e-09
-7.483123e-10
-1.05064e-09
-1.34069e-09
3.935821e-10
9.471074e-10
-1.76256e-09
9.860597e-10
7.765e-10
1.358083e-09
-1.559142e-09
-1.511072e-09
9.228511e-10
5.882208e-10
-1.50091e-10
2.055697e-09
-1.905606e-09
-7.969203e-10
1.75709e-09
1.31598e-09
-5.799258e-10
8.866907e-10
-1.872934e-09
9.862436e-10
-6.489134e-10
-4.195569e-10
1.06847e-09
-1.45038e-09
9.64967e-10
4.854131e-10
-7.689967e-10
-1.028733e-09
1.89168e-09
-6.393272e-10
1.558762e-09
-9.194348e-10
1.307989e-09
1.890183e-10
1.223361e-09
6.194348e-10
-7.355708e-10
-9.765183e-10
-5.932879e-10
1.444414e-09
-8.511262e-10
-6.68477e-10
1.422403e-09
-7.539264e-10
9.358449e-10
-1.849238e-09
-4.061264e-11
1.109042e-09
-5.05505e-10
1.893115e-09
-1.38761e-09
-1.167035e-09
4.562281e-10
-8.88401e-10
1.48181e-09
-5.934088e-10
-9.994193e-10
1.735414e-09
-1.971151e-09
1.694302e-09
1.314224e-09
-1.807278e-09
4.930536e-10
1.467251e-09
-1.534673e-09
6.742242e-11
1.356733e-09
1.246493e-10
-7.986634e-10
-7.340611e-10
-1.339365e-09
5.393322e-10
4.150261e-10
1.077932e-09
-5.577011e-10
-1.41345e-09
1.540034e-09
-1.760845e-09
-1.158887e-09
1.221026e-09
-6.213971e-11
4.045919e-09
-3.346044e-09
-6.998753e-10
-1.637664e-09
1.235375e-09
4.022887e-10
1.303739e-09
-1.476026e-09
1.72287e-10
-1.263695e-09
-4.203167e-10
-1.421539e-09
2.993915e-10
1.878809e-09
-1.322396e-09
-5.564135e-10
3.543075e-09
8.11696e-10
-4.354771e-09
1.066599e-09
7.014733e-11
5.834759e-10
-1.55501e-09
-5.238712e-10
1.068466e-09
-1.085968e-09
4.571185e-09
-1.275172e-09
-5.36598e-10
-2.229002e-09
3.44998e-10
1.884004e-09
-1.271513e-09
2.667467e-10
-1.279982e-09
1.372046e-09
1.422198e-09
8.052908e-10
-2.227489e-09
-3.318364e-10
4.06538e-10
1.952569e-09
-2.359107e-09
-7.453589e-10
-7.87401e-10
-2.559021e-09
3.346422e-09
-1.25576e-09
1.007215e-09
2.485453e-10
-1.836442e-09
6.537305e-10
1.182712e-09
2.09818e-10
-1.863538e-09
6.15647e-10
5.014487e-10
1.297204e-09
-1.798653e-09
1.428637e-09
-1.037663e-09
-8.589057e-10
-9.731218e-10
-6.011359e-10
1.015888e-09
-4.147517e-10
1.988912e-09
-1.155867e-09
-1.065955e-09
2.221822e-09
-1.577965e-09
-1.73424e-10
1.751389e-09
-1.346042e-09
3.813602e-10
9.646814e-10
1.982439e-09
-1.639348e-09
-3.430905e-10
1.262051e-09
6.2468e-10
1.722679e-09
-6.594196e-10
-1.06326e-09
1.024075e-09
-2.206352e-09
1.182277e-09
7.934341e-10
-5.79747e-10
-1.035695e-09
1.861965e-09
-1.318881e-09
-5.430833e-10
-1.697046e-10
1.395894e-09
-1.22619e-09
-5.574621e-09
8.223188e-09
-6.552776e-10
1.228389e-09
-5.731117e-10
-1.326663e-09
5.289616e-11
1.273767e-09
-1.155524e-09
1.444572e-09
1.741463e-09
-1.353325e-09
-3.881381e-10
-1.842673e-09
1.051839e-09
-1.945007e-09
8.716134e-10
-9.45036e-10
-1.04096e-09
1.897243e-09
-8.562838e-10
-1.106679e-09
1.971848e-09
-8.65169e-10
5.744723e-09
-4.565187e-09
2.573076e-09
5.951216e-10
-1.577755e-09
-6.705685e-10
-9.465373e-10
1.4034e-09
-1.296171e-09
-1.072291e-10
1.231046e-09
-3.855664e-10
-8.454794e-10
9.130736e-10
9.549751e-10
-3.430411e-11
1.585631e-09
-1.551327e-09
-8.577035e-10
1.026796e-09
-1.690926e-10
1.563326e-09
-1.30416e-09
-2.59166e-10
4.691154e-10
-1.436913e-09
-1.219756e-09
1.457775e-09
-2.380198e-10
1.109137e-09
-1.481569e-09
1.370151e-09
1.114179e-10
9.979346e-11
1.371878e-09
-1.471671e-09
1.273702e-09
-1.778178e-09
3.832861e-09
-2.94375e-10
-3.538486e-09
-2.273306e-09
-9.084564e-10
-1.448979e-09
-5.934924e-11
-7.787712e-10
-1.116484e-09
1.895255e-09
1.049309e-09
-1.371724e-09
3.224154e-10
-1.326064e-09
2.997217e-10
1.026342e-09
-2.222261e-10
-1.598003e-09
1.82023e-09
-1.776554e-09
1.643129e-09
8.837016e-10
1.075669e-09
7.571132e-10
1.141031e-09
6.049805e-11
1.614132e-09