/*--------------------------------*- C++ -*----------------------------------*\
| =========                 |                                                 |
| \\      /  F ield         | OpenFOAM: The Open Source CFD Toolbox           |
|  \\    /   O peration     | Version:  2406                                  |
|   \\  /    A nd           | Website:  www.openfoam.com                      |
|    \\/     M anipulation  |                                                 |
\*---------------------------------------------------------------------------*/
FoamFile
{
    version     2.0;
    format      ascii;
    arch        "LSB;label=32;scalar=64";
    class       volScalarField;
    location    "0.08";
    object      p;
}
// * * * * * * * * * * * * * * * * * * * * * * * * * * * * * * * * * * * * * //

dimensions      [0 2 -2 0 0 0 0];

internalField   nonuniform List<scalar> 
217010
(
-197.1634
-119.4282
-126.5443
-133.4911
-133.0204
-124.4175
-122.2122
-120.0481
-118.3159
-118.3722
-125.0465
-124.7502
-147.0802
-168.7256
-169.6023
-148.7842
-137.575
-149.6482
-171.2524
-208.9239
-230.1071
-231.2129
-219.5515
-198.8796
-173.3412
-144.3077
-116.4201
-88.28856
-60.47217
-39.26423
-22.87176
-11.12854
-5.457427
-3.449093
-4.638841
-6.530293
-8.892179
-11.66818
-14.33329
-16.85078
-19.25361
-21.54011
-23.53143
-25.21455
-26.76794
-28.14511
-29.58114
-30.13501
-32.76741
-24.61112
-70.47967
-47.41898
-43.2251
-40.34668
-50.11964
-53.75268
-50.79676
-50.35101
-53.04891
-48.9662
-45.83535
-47.2166
-48.55884
-48.16451
-46.79913
-46.12146
-47.31764
-49.02783
-50.94507
-52.69296
-54.13398
-55.25943
-56.09809
-56.70408
-57.10963
-57.34839
-57.44077
-57.40386
-57.25602
-57.0228
-56.72466
-56.37201
-55.97006
-55.52859
-55.06067
-54.57143
-54.07943
-53.58828
-53.12007
-52.68538
-52.28041
-51.925
-51.60394
-51.29737
-51.01846
-50.77996
-50.58388
-50.43306
-50.33471
-50.27919
-50.25848
-50.29616
-50.35643
-50.47231
-50.63471
-50.83682
-51.0708
-51.3417
-51.65564
-52.01176
-52.40559
-52.83797
-53.2962
-53.7832
-54.28838
-54.79494
-55.30637
-55.83138
-56.30699
-56.73038
-57.10665
-57.41057
-57.62769
-57.747
-57.74652
-57.58002
-57.23269
-56.67849
-55.90372
-54.86217
-53.50147
-51.83223
-50.05401
-48.88329
-48.79799
-48.39829
-47.35267
-48.47623
-51.05476
-51.1552
-52.87791
-55.7942
-54.76412
-55.1774
-57.44774
-54.219
-44.01608
-41.54464
-42.95538
-68.20239
-24.4264
-33.08753
-30.56317
-30.26187
-29.09109
-27.81544
-26.21535
-24.46356
-22.54507
-20.5282
-18.46275
-16.24562
-14.04165
-12.3599
-11.04261
-10.2948
-11.33842
-14.32014
-20.31204
-33.12872
-51.38876
-73.71723
-103.6113
-137.578
-173.4011
-205.348
-228.9822
-238.3644
-226.8053
-191.107
-144.1198
-120.0804
-122.3178
-137.4099
-143.6411
-137.4772
-117.4626
-93.67403
-100.353
-133.5829
-147.7718
-143.8302
-137.3609
-132.4805
-130.1781
-131.8989
-129.7606
-131.6097
-125.1714
-199.8381
-98.85029
-84.80429
-69.15409
-60.03936
-52.35214
-46.06905
-40.71064
-35.91152
-31.75224
-28.01597
-24.64284
-21.57461
-18.69484
-15.98561
-13.46073
-11.1311
-8.957436
-6.87288
-4.889667
-3.004792
-1.209582
0.4912394
2.094702
3.662157
5.192516
6.684838
8.111961
9.455582
10.74425
12.01229
13.26898
14.5016
15.66625
16.78942
17.90245
18.99193
20.06792
21.12471
22.18341
23.19724
24.22503
25.1996
26.16624
27.12022
28.07569
29.01139
29.92201
30.83633
31.77224
32.70826
33.62173
34.51891
35.41253
36.33153
37.26435
38.18423
39.09903
40.02413
40.95538
41.89954
42.84256
43.77735
44.7517
45.81937
46.92059
47.99441
49.05331
50.15382
51.50176
53.20919
55.17878
54.99771
53.03874
51.45925
50.15104
49.00825
47.9085
46.78306
45.70126
44.73392
43.82449
42.86821
41.88841
40.93581
40.03102
39.145
38.25215
37.34354
36.43239
35.54204
34.65046
33.73304
32.80769
31.88669
30.94273
30.00346
29.04925
28.05136
27.07251
26.11329
25.14568
24.15805
23.13042
22.14857
21.12487
20.07402
19.022
17.96247
16.85963
15.73481
14.60192
13.43678
12.20202
10.90347
9.59611
8.28463
6.912887
5.469377
3.968492
2.386184
0.733086
-0.9751448
-2.756646
-4.580133
-6.538533
-8.634512
-10.82206
-13.16199
-15.62807
-18.29991
-21.20489
-24.31114
-27.66408
-31.42154
-35.62665
-40.42033
-45.76707
-51.9934
-59.68637
-68.68538
-83.98167
-97.17693
55.02784
53.31283
51.65666
50.30991
49.14811
48.04064
46.90855
45.81485
44.83436
43.91815
42.95972
41.97617
41.01715
40.10627
39.21634
38.32087
37.40966
36.49497
35.6013
34.70716
33.78758
32.85979
31.9364
30.98991
30.04868
29.09266
28.09222
27.11095
26.14886
25.17906
24.18975
23.15851
22.17639
21.15011
20.09718
19.04347
17.98241
16.87779
15.7515
14.61704
13.4505
12.21372
10.91316
9.60412
8.291139
6.917172
5.471834
3.969148
2.384323
0.7283566
-0.9829688
-2.767771
-4.59355
-6.557439
-8.658344
-10.85056
-13.19737
-15.66906
-18.35048
-21.26572
-24.3815
-27.74675
-31.52048
-35.74245
-40.57312
-45.95107
-52.22613
-59.97795
-69.15873
-84.42989
-99.53224
-101.2327
-85.28561
-69.64236
-60.3353
-52.5897
-46.25478
-40.86404
-36.0263
-31.85008
-28.09984
-24.71252
-21.63448
-18.74618
-16.02847
-13.49554
-11.15908
-8.981144
-6.892045
-4.904369
-3.015633
-1.217182
0.4872828
2.092848
3.662162
5.194603
6.689089
8.118583
9.463901
10.75423
12.02403
13.28258
14.51712
15.68352
16.808
17.92285
19.01389
20.0918
21.15067
22.21157
23.22717
24.25657
25.23267
26.20127
27.1577
28.11491
29.05269
29.96557
30.88287
31.82167
32.76012
33.67555
34.57532
35.47254
36.39537
37.33161
38.25447
39.17287
40.10214
41.0379
41.98603
42.93285
43.8741
44.85898
45.93681
47.04377
48.12104
49.18841
50.31416
51.7111
53.48987
55.197
-26.17107
-32.62708
-30.76365
-30.35443
-29.23509
-27.9742
-26.38878
-24.64494
-22.73079
-20.70512
-18.62901
-16.40549
-14.16552
-12.44975
-11.10559
-10.2946
-11.272
-14.17389
-20.01056
-32.64692
-50.79031
-73.04226
-102.8676
-136.8446
-172.7494
-204.8421
-228.7194
-238.5386
-227.4892
-192.0662
-144.6242
-120.1401
-122.3605
-137.4328
-143.7114
-137.6318
-117.5731
-93.90837
-100.7526
-134.1298
-148.0144
-143.8364
-137.2508
-132.3787
-130.1473
-131.9036
-129.7767
-131.6648
-127.1055
-185.0828
-67.74558
-49.30103
-43.65824
-40.13126
-49.37363
-53.67544
-50.96837
-50.25981
-53.20869
-49.33167
-45.93408
-47.14817
-48.50994
-48.22718
-46.88366
-46.09955
-47.20637
-48.88917
-50.82336
-52.59864
-54.0642
-55.21032
-56.06516
-56.68351
-57.09839
-57.3447
-57.44272
-57.41023
-57.26553
-57.03427
-56.7373
-56.38558
-55.98386
-55.54129
-55.07332
-54.58336
-54.09051
-53.59807
-53.12822
-52.69238
-52.28591
-51.92922
-51.60749
-51.30023
-51.02059
-50.78147
-50.58487
-50.4336
-50.33504
-50.27943
-50.25878
-50.29648
-50.35691
-50.47317
-50.636
-50.83869
-51.07328
-51.345
-51.66
-52.01733
-52.41245
-52.84621
-53.30574
-53.79434
-54.3008
-54.80815
-55.32086
-55.84811
-56.32297
-56.74583
-57.12138
-57.42321
-57.63765
-57.75243
-57.74668
-57.57272
-57.21495
-56.64814
-55.85863
-54.79735
-53.41137
-51.71528
-49.93957
-48.82444
-48.77389
-48.35824
-47.35689
-48.62248
-51.18635
-51.24194
-53.09032
-55.91652
-54.74831
-55.32271
-57.36329
-53.44511
-43.48352
-41.61692
-44.72735
-65.99937
-182.6273
-121.3926
-126.5167
-133.4287
-133.2398
-124.5954
-122.2562
-120.0763
-118.3363
-118.3601
-125.0452
-124.7075
-147.2452
-169.1351
-169.8745
-148.9457
-137.7966
-149.8728
-171.7189
-209.8341
-230.6722
-231.2754
-219.3052
-198.4773
-172.8341
-143.7183
-115.7814
-87.6103
-59.84186
-38.73591
-22.45186
-10.85771
-5.338584
-3.452905
-4.71761
-6.645445
-9.044886
-11.84855
-14.51731
-17.04083
-19.44993
-21.74496
-23.72636
-25.38537
-26.9303
-28.31053
-29.70784
-30.35966
-32.35469
-26.46341
-167.2793
-122.1047
-126.5018
-133.3559
-133.4411
-124.696
-122.2866
-120.1202
-118.3778
-118.4044
-125.1425
-124.7406
-147.8185
-170.3138
-170.1692
-148.4064
-137.7531
-150.4591
-173.7889
-212.2823
-231.7575
-231.7141
-219.5339
-198.4777
-172.7751
-143.5164
-115.5109
-87.34761
-59.49039
-38.43582
-22.21181
-10.69211
-5.285804
-3.495642
-4.821091
-6.737892
-9.153018
-11.95684
-14.60639
-17.12495
-19.52912
-21.80895
-23.76304
-25.41941
-26.96378
-28.3407
-29.73752
-30.37331
-32.3379
-27.23243
-63.83509
-50.30217
-44.26617
-40.11946
-49.20953
-53.87126
-51.33606
-50.25744
-53.22956
-49.58701
-46.06082
-47.15225
-48.55755
-48.2737
-46.89425
-46.07596
-47.18781
-48.88288
-50.81999
-52.58449
-54.04448
-55.19229
-56.05084
-56.67276
-57.09127
-57.34052
-57.4415
-57.41146
-57.26852
-57.03848
-56.7424
-56.39173
-55.9897
-55.54879
-55.07981
-54.58948
-54.09664
-53.60396
-53.13325
-52.69724
-52.28982
-51.93219
-51.61028
-51.30265
-51.02262
-50.78323
-50.5862
-50.43437
-50.33569
-50.28003
-50.25956
-50.29722
-50.35767
-50.47432
-50.63736
-50.8405
-51.07537
-51.34757
-51.66318
-52.02109
-52.41675
-52.85112
-53.31098
-53.80043
-54.30717
-54.81445
-55.32913
-55.85511
-56.32926
-56.75162
-57.12632
-57.42627
-57.63893
-57.75203
-57.74477
-57.56725
-57.20442
-56.6345
-55.8432
-54.78141
-53.40135
-51.71966
-49.95197
-48.83932
-48.79133
-48.35656
-47.36181
-48.7035
-51.23518
-51.29597
-53.25407
-55.95878
-54.77181
-55.64247
-57.52486
-53.367
-43.25315
-41.90983
-45.91085
-62.53604
-26.92309
-32.60095
-30.76863
-30.37925
-29.26125
-28.0097
-26.43192
-24.69096
-22.78651
-20.76703
-18.69882
-16.49201
-14.23785
-12.50494
-11.17077
-10.3134
-11.23973
-14.08576
-19.80721
-32.33159
-50.41414
-72.62248
-102.5309
-136.5284
-172.6011
-204.8554
-229.0313
-239.2355
-228.7989
-194.5716
-146.4772
-120.4882
-122.2144
-137.1884
-143.7647
-138.0818
-118.0371
-94.54375
-101.5343
-134.7783
-148.2868
-143.916
-137.2521
-132.3609
-130.1113
-131.896
-129.8033
-131.8086
-127.8003
-169.6472
-101.0069
-85.60161
-69.87357
-60.4897
-52.70568
-46.34252
-40.92916
-36.09489
-31.89038
-28.13647
-24.742
-21.66052
-18.76995
-16.04804
-13.51158
-11.17115
-8.99362
-6.9024
-4.912785
-3.022181
-1.222995
0.4843417
2.089689
3.659982
5.193838
6.68976
8.121389
9.466806
10.75693
12.02695
13.28607
14.52275
15.68992
16.81284
17.92868
19.01988
20.09997
21.15976
22.21873
23.23495
24.26353
25.24127
26.21098
27.16698
28.12513
29.0637
29.97581
30.89226
31.83279
32.77354
33.6886
34.5882
35.48444
36.40851
37.34752
38.2711
39.18889
40.11997
41.05622
42.0054
42.95357
43.8959
44.8812
45.96564
47.07716
48.15154
49.21984
50.34923
51.7728
53.59941
55.15415
54.99307
53.41511
51.71832
50.34582
49.18088
48.07466
46.93649
45.83552
44.85542
43.94357
42.98296
41.99713
41.0345
40.1227
39.23234
38.3373
37.42473
36.50812
35.6151
34.72094
33.79961
32.87154
31.94874
30.99966
30.06076
29.10494
28.10022
27.11945
26.15781
25.18784
24.19543
23.16937
22.18389
21.16019
20.10472
19.05039
17.98921
16.88239
15.75589
14.62198
13.456
12.21722
10.91459
9.605408
8.293307
6.917783
5.471936
3.968648
2.381323
0.723823
-0.9891194
-2.775428
-4.599855
-6.56769
-8.670749
-10.86326
-13.2148
-15.6862
-18.37381
-21.29326
-24.41174
-27.78148
-31.56242
-35.81215
-40.63703
-46.03723
-52.3376
-60.13156
-69.38011
-84.71969
-99.22019
54.91982
53.58055
51.91521
50.51217
49.33046
48.21885
47.07439
45.96591
44.97536
44.05412
43.08773
42.09812
41.12976
40.21161
39.31631
38.41708
37.50126
36.58066
35.68552
34.78772
33.86322
32.93353
32.00888
31.05625
30.11718
29.15905
28.14931
27.16901
26.20328
25.23064
24.2344
23.2088
22.21433
21.19264
20.13265
19.07684
18.01448
16.90353
15.77628
14.64154
13.47483
12.23176
10.92593
9.6161
8.304209
6.924861
5.477645
3.972843
2.380965
0.7211395
-0.994513
-2.784397
-4.607405
-6.584091
-8.692091
-10.88638
-13.24801
-15.72058
-18.42124
-21.35077
-24.47662
-27.85694
-31.66172
-35.9224
-40.76875
-46.20626
-52.55338
-60.39455
-69.79364
-84.96837
-99.34098
-101.2042
-85.88312
-70.29982
-60.75201
-52.92959
-46.51254
-41.06297
-36.20371
-31.98674
-28.21547
-24.80562
-21.71632
-18.81836
-16.08708
-13.54287
-11.19365
-9.014659
-6.918153
-4.9241
-3.029427
-1.228372
0.4844526
2.089428
3.66176
5.198425
6.696946
8.132989
9.479902
10.77089
12.04167
13.30221
14.543
15.71327
16.83494
17.95328
19.04535
20.12942
21.19124
22.24723
23.2806
24.30204
25.28129
26.2541
27.21287
28.17285
29.11532
30.03011
30.9496
31.89261
32.8368
33.7542
34.65711
35.55674
36.48342
37.42699
38.35417
39.27572
40.2109
41.152
42.10488
43.05813
44.00829
45.00183
46.09429
47.21264
48.28983
49.36679
50.52024
51.97913
53.77107
55.06858
-27.88977
-32.59614
-31.02797
-30.52526
-29.44856
-28.21247
-26.64373
-24.91226
-23.0076
-20.9641
-18.88027
-16.67963
-14.38005
-12.60714
-11.28312
-10.35112
-11.21194
-13.99226
-19.56955
-31.92037
-49.88416
-72.01972
-102.032
-136.057
-172.336
-204.7104
-229.225
-239.7092
-230.3672
-198.1185
-150.5304
-121.6615
-122.0167
-136.6531
-143.7779
-138.7224
-118.8769
-95.74089
-102.9134
-136.0114
-148.8651
-144.177
-137.3774
-132.3828
-130.0235
-131.9256
-129.8848
-131.8668
-129.6384
-159.2166
-60.15911
-51.70479
-45.19749
-40.28782
-48.83337
-54.05859
-51.97482
-50.4305
-53.4268
-50.01942
-46.249
-47.19756
-48.58391
-48.32869
-46.97206
-46.08551
-47.19335
-48.9132
-50.81905
-52.55443
-54.00754
-55.16295
-56.03141
-56.663
-57.08937
-57.34452
-57.45015
-57.42376
-57.28316
-57.0545
-56.75906
-56.40923
-56.00585
-55.56456
-55.09526
-54.60343
-54.10988
-53.6159
-53.14268
-52.70592
-52.29676
-51.93735
-51.61511
-51.30676
-51.026
-50.78618
-50.58842
-50.43563
-50.33682
-50.28115
-50.26102
-50.29859
-50.359
-50.47629
-50.63955
-50.84352
-51.07885
-51.35192
-51.66888
-52.02818
-52.42503
-52.86096
-53.32202
-53.81362
-54.32189
-54.83002
-55.34683
-55.87499
-56.34882
-56.77146
-57.14641
-57.44442
-57.65537
-57.76685
-57.7572
-57.56944
-57.19567
-56.61706
-55.81927
-54.75229
-53.38125
-51.74018
-50.03046
-48.89857
-48.79445
-48.34355
-47.36718
-48.82545
-51.41019
-51.44447
-53.535
-56.09056
-54.91206
-56.15952
-57.63106
-52.90657
-43.07343
-42.4529
-47.38475
-59.08657
-156.6892
-123.8978
-126.1608
-133.1767
-133.7425
-124.8612
-122.3208
-120.1881
-118.4528
-118.5355
-125.344
-124.8269
-148.581
-171.9662
-170.3678
-146.8851
-137.3521
-151.7122
-178.1259
-215.7374
-233.0303
-231.8833
-219.5492
-198.2136
-172.4839
-143.0642
-114.9799
-86.92334
-59.03603
-38.05142
-21.91224
-10.50934
-5.252329
-3.580651
-4.989567
-6.884863
-9.344358
-12.17129
-14.80929
-17.33883
-19.75208
-22.04996
-23.99657
-25.63372
-27.16673
-28.54301
-29.92739
-30.65485
-32.35369
-28.27249
-149.1317
-125.3893
-125.3804
-132.7305
-134.1992
-125.1322
-122.3756
-120.2899
-118.5939
-118.821
-125.7186
-125.0426
-149.5526
-173.9323
-170.7202
-145.4231
-136.9614
-154.4758
-184.4099
-220.1662
-234.9504
-232.6604
-219.9512
-198.1684
-172.4155
-142.6904
-114.4981
-86.64926
-58.71317
-37.7528
-21.65087
-10.37837
-5.268721
-3.73911
-5.254484
-7.082527
-9.601305
-12.43281
-15.02868
-17.56116
-19.96901
-22.26373
-24.15131
-25.74861
-27.27282
-28.64499
-30.01658
-30.75457
-32.39612
-29.56444
-57.01343
-52.94419
-46.58701
-40.83729
-48.69207
-54.49424
-53.01612
-50.90007
-53.49978
-50.51914
-46.53456
-47.31322
-48.6967
-48.43511
-47.12571
-46.17309
-47.29613
-48.98172
-50.82465
-52.52548
-53.96944
-55.13166
-56.00978
-56.64008
-57.07899
-57.34262
-57.45447
-57.43319
-57.29585
-57.06914
-56.77448
-56.42662
-56.0229
-55.58207
-55.11207
-54.61877
-54.12513
-53.63002
-53.15348
-52.71736
-52.30574
-51.94369
-51.62165
-51.31231
-51.03069
-50.79046
-50.59173
-50.43773
-50.3387
-50.28314
-50.26359
-50.30101
-50.36128
-50.47952
-50.64295
-50.848
-51.08386
-51.35757
-51.67594
-52.0369
-52.43525
-52.87246
-53.33429
-53.8285
-54.33719
-54.84522
-55.36641
-55.89622
-56.36695
-56.78927
-57.16324
-57.45743
-57.66545
-57.7728
-57.75471
-57.55406
-57.18514
-56.59694
-55.79389
-54.72266
-53.36352
-51.77689
-50.16623
-49.04132
-48.80495
-48.27703
-47.30422
-48.88579
-51.65773
-51.72361
-53.79339
-55.94406
-55.20936
-56.91623
-57.88253
-52.69658
-43.15132
-43.38871
-48.63107
-56.07366
-29.09892
-32.6389
-31.12376
-30.57287
-29.52724
-28.32236
-26.76909
-25.059
-23.18804
-21.14801
-19.05912
-16.89522
-14.55272
-12.73125
-11.4519
-10.42508
-11.21897
-13.96143
-19.36912
-31.50591
-49.37681
-71.39648
-101.5869
-135.7346
-172.438
-204.9449
-229.9312
-241.3164
-232.6738
-202.72
-156.814
-124.593
-122.4098
-136.6535
-143.9632
-139.6054
-120.2793
-97.61436
-104.9176
-137.8975
-149.803
-144.6637
-137.6279
-132.4106
-129.7525
-131.8486
-130.0122
-131.8421
-131.5507
-152.0821
-101.279
-86.01494
-70.66676
-60.98833
-53.13928
-46.67129
-41.19275
-36.31423
-32.06552
-28.28789
-24.86383
-21.76912
-18.86705
-16.12753
-13.57498
-11.21462
-9.038412
-6.938034
-4.940149
-3.041157
-1.238741
0.4817194
2.083879
3.657788
5.19653
6.69698
8.138921
9.486021
10.77522
12.04652
13.30864
14.55483
15.72711
16.84466
17.96632
19.05838
20.14681
21.20855
22.26051
23.29125
24.32095
25.30043
26.27504
27.23307
28.1944
29.13946
30.05341
30.9716
31.9176
32.86687
33.78424
34.68819
35.58769
36.51751
37.46731
38.39593
39.31687
40.25751
41.20133
42.15667
43.11323
44.06796
45.06533
46.17331
47.30136
48.37055
49.45246
50.63106
52.13295
53.88179
54.92274
54.78936
53.68846
52.06289
50.62352
49.42164
48.31151
47.15481
46.02859
45.03247
44.1169
43.14565
42.15196
41.17525
40.25456
39.35803
38.45904
37.54001
36.61437
35.72032
34.82198
33.89382
32.96288
32.03879
31.07932
30.14436
29.1856
28.16593
27.18712
26.22064
25.24883
24.25048
23.22552
22.22825
21.21005
20.14562
19.08989
18.02769
16.91214
15.78593
14.65258
13.48662
12.23763
10.92748
9.619316
8.309953
6.925506
5.478033
3.97305
2.37509
0.7129202
-1.005193
-2.798151
-4.614929
-6.604406
-8.717591
-10.91148
-13.28432
-15.75201
-18.46909
-21.4078
-24.53638
-27.92225
-31.74737
-36.03671
-40.89439
-46.36391
-52.75368
-60.63895
-70.14799
-85.06716
-99.23605
54.5874
53.74366
52.23204
50.79152
49.56979
48.46316
47.30058
46.16785
45.16926
44.25209
43.27025
42.27433
41.2878
40.35917
39.45537
38.55433
37.63109
36.69718
35.80205
34.8997
33.96654
33.03528
32.11274
31.1449
30.21758
29.25975
28.22758
27.25412
26.28144
25.30679
24.30008
23.27944
22.27854
21.25772
20.18473
19.12785
18.06225
16.93548
15.80835
14.67681
13.51605
12.25868
10.93751
9.629658
8.327759
6.935311
5.486231
3.983123
2.376722
0.7097645
-1.015622
-2.814871
-4.615558
-6.621716
-8.740548
-10.93743
-13.32845
-15.78275
-18.52556
-21.47804
-24.61356
-27.99899
-31.85032
-36.17478
-41.04474
-46.5484
-52.98686
-60.90314
-70.49642
-85.02776
-99.08245
-101.3602
-86.00813
-71.02053
-61.22761
-53.38912
-46.86344
-41.34855
-36.44336
-32.16141
-28.38274
-24.93481
-21.8315
-18.92809
-16.17413
-13.60665
-11.23259
-9.068333
-6.962081
-4.956722
-3.048761
-1.244273
0.4860766
2.082568
3.659502
5.200732
6.707649
8.160227
9.504369
10.79259
12.06908
13.33267
14.58281
15.75849
16.87061
17.99804
19.08879
20.18325
21.24556
22.30146
23.35441
24.37242
25.35075
26.33032
27.2913
28.25694
29.2077
30.12039
31.0404
31.99323
32.95043
33.86572
34.77173
35.67204
36.60492
37.56291
38.4945
39.41901
40.36611
41.3114
42.26976
43.23319
44.19734
45.19698
46.31463
47.4502
48.50952
49.60554
50.80968
52.30424
53.93182
54.70736
-30.55788
-32.93958
-31.48894
-30.79874
-29.75051
-28.57581
-27.02587
-25.31681
-23.46676
-21.41273
-19.29171
-17.1944
-14.7991
-12.88312
-11.70089
-10.55942
-11.28825
-14.0592
-19.21963
-31.04764
-48.73924
-70.81675
-101.261
-135.5001
-172.8374
-205.54
-231.0749
-243.135
-235.6914
-208.2796
-165.102
-130.5126
-123.8984
-137.4032
-144.501
-140.8951
-122.6023
-100.2474
-107.5018
-140.5821
-151.154
-145.4149
-138.0476
-132.3442
-129.1036
-131.5428
-130.1086
-131.5624
-132.5819
-144.898
-54.1605
-54.00287
-48.31293
-41.96025
-48.77956
-55.15648
-54.51236
-51.815
-53.27873
-50.82738
-46.94855
-47.54992
-48.86331
-48.549
-47.39798
-46.44952
-47.52401
-49.09024
-50.84585
-52.50673
-53.93642
-55.10537
-55.99619
-56.64322
-57.08477
-57.35452
-57.47205
-57.45516
-57.3194
-57.09349
-56.79876
-56.45387
-56.04864
-55.60655
-55.13557
-54.63931
-54.14544
-53.6485
-53.16848
-52.73435
-52.31697
-51.95165
-51.63079
-51.31975
-51.03693
-50.79622
-50.5963
-50.44104
-50.34197
-50.28669
-50.26844
-50.30505
-50.36513
-50.48452
-50.64836
-50.85483
-51.0915
-51.36591
-51.68519
-52.0479
-52.44908
-52.88872
-53.35064
-53.85054
-54.36044
-54.86563
-55.39244
-55.92765
-56.39412
-56.81873
-57.19339
-57.4833
-57.6907
-57.79724
-57.77865
-57.57412
-57.18571
-56.58302
-55.77679
-54.70172
-53.35889
-51.83533
-50.34814
-49.26733
-48.84694
-48.10289
-47.16019
-48.96196
-52.20283
-52.18928
-53.77006
-55.53926
-55.68862
-57.89325
-58.20856
-52.62846
-43.54235
-44.59964
-49.58025
-53.35346
-141.4401
-125.7018
-124.1343
-132.3243
-134.9671
-125.4491
-122.4622
-120.4354
-118.9114
-119.255
-126.1999
-125.5023
-150.981
-176.2839
-171.6407
-145.0509
-137.4131
-159.9642
-192.3958
-225.5253
-237.5332
-233.652
-220.6266
-198.2538
-172.4521
-142.2761
-113.9636
-86.36716
-58.22269
-37.46747
-21.45269
-10.3218
-5.401182
-4.031311
-5.670146
-7.345082
-9.975375
-12.78782
-15.31793
-17.87061
-20.27691
-22.58671
-24.40942
-25.99207
-27.52469
-28.89648
-30.30252
-31.14632
-32.69572
-31.10758
-133.1986
-124.8175
-122.9515
-132.0878
-136.1154
-126.2492
-122.5771
-120.6136
-119.5603
-119.834
-126.5503
-126.5177
-153.0102
-178.5763
-172.9391
-146.954
-140.5035
-168.7697
-202.166
-231.9838
-241.1982
-235.042
-221.8092
-198.5792
-172.445
-142.2053
-113.6779
-86.09792
-56.98659
-36.93798
-21.37555
-10.42359
-5.782145
-4.617019
-6.375083
-7.675411
-10.54171
-13.28016
-15.69922
-18.28529
-20.6708
-23.00766
-24.68454
-26.23421
-27.76065
-29.12091
-30.58399
-31.43507
-33.10913
-32.85291
-51.73771
-54.76622
-50.06559
-43.6483
-49.16549
-55.98461
-56.4357
-53.32258
-52.61985
-50.21262
-47.26436
-47.97163
-49.13774
-48.63914
-47.79172
-46.94338
-47.85357
-49.23485
-50.89445
-52.50594
-53.91098
-55.08364
-55.98412
-56.63649
-57.08685
-57.36629
-57.49071
-57.47911
-57.34622
-57.12385
-56.83081
-56.49064
-56.08008
-55.63585
-55.16549
-54.66496
-54.17111
-53.67235
-53.19318
-52.75345
-52.33037
-51.96503
-51.64272
-51.33113
-51.04688
-50.80601
-50.6054
-50.44523
-50.34745
-50.29255
-50.27676
-50.31118
-50.37075
-50.49091
-50.65529
-50.86442
-51.0999
-51.37922
-51.70007
-52.06481
-52.46567
-52.91238
-53.37151
-53.87611
-54.39363
-54.89643
-55.42144
-55.96714
-56.42666
-56.85289
-57.23021
-57.51247
-57.71672
-57.82119
-57.79748
-57.57238
-57.18579
-56.56685
-55.76443
-54.69103
-53.37648
-51.92194
-50.56162
-49.5438
-48.94121
-47.87759
-47.02445
-48.98357
-53.22831
-52.8071
-53.07302
-54.83478
-56.41921
-59.08135
-58.66508
-52.72343
-44.23351
-45.72795
-50.31055
-51.13104
-32.21937
-33.36312
-31.80727
-30.97915
-29.92146
-28.83093
-27.29643
-25.59698
-23.80062
-21.7502
-19.58016
-17.6208
-15.16179
-13.06604
-12.10579
-10.82795
-11.4043
-14.21297
-19.03615
-30.48562
-47.56685
-70.52777
-101.3647
-135.3341
-173.0053
-206.437
-233.1562
-245.855
-239.7417
-214.8101
-175.2385
-139.9965
-127.3774
-139.6333
-145.454
-142.6718
-125.7237
-104.0079
-111.7567
-144.5485
-153.097
-146.5191
-138.7055
-132.0459
-127.8076
-131.171
-130.2092
-131.1309
-132.2343
-137.0531
-101.1906
-85.76659
-71.31222
-61.43838
-53.68387
-47.06113
-41.48813
-36.57191
-32.27864
-28.49281
-24.99287
-21.89868
-19.00274
-16.21684
-13.63814
-11.26585
-9.118822
-6.986234
-4.969922
-3.048684
-1.252541
0.4818699
2.076966
3.654181
5.198017
6.722527
8.171295
9.508903
10.80577
12.08241
13.33168
14.58671
15.78325
16.88413
18.01802
19.10481
20.20943
21.27467
22.33086
23.36998
24.39541
25.37572
26.36487
27.32629
28.29012
29.2414
30.15778
31.08358
32.0348
32.99171
33.90625
34.82148
35.72353
36.65895
37.62493
38.56591
39.4873
40.43474
41.38604
42.35539
43.32638
44.30079
45.29439
46.42783
47.58825
48.64271
49.76626
50.98073
52.43056
53.89888
54.41399
54.29496
53.70929
52.38059
50.97369
49.72444
48.60816
47.41741
46.26727
45.26601
44.35452
43.34694
42.35012
41.35874
40.43535
39.52209
38.61615
37.69133
36.75565
35.86817
34.95825
34.01577
33.08523
32.16302
31.17912
30.26117
29.29556
28.24585
27.28448
26.31073
25.34066
24.3243
23.28498
22.28712
21.27379
20.19617
19.15255
18.09295
16.95384
15.82485
14.68486
13.53152
12.27706
10.94719
9.625871
8.334376
6.940537
5.484139
3.982134
2.374895
0.7094387
-1.025863
-2.850848
-4.630634
-6.656735
-8.760733
-10.96223
-13.39008
-15.81134
-18.59014
-21.54023
-24.70233
-28.0882
-31.95791
-36.31109
-41.19358
-46.73485
-53.22618
-61.15402
-70.77394
-84.7308
-98.52224
53.9225
53.55158
52.47297
51.1845
49.9681
48.88477
47.63699
46.44268
45.46367
44.5948
43.57804
42.53729
41.49476
40.58075
39.68956
38.76085
37.79531
36.83787
35.98118
35.07153
34.10893
33.18827
32.27944
31.25565
30.41471
29.41036
28.32068
27.38395
26.37516
25.43506
24.4074
23.41608
22.39816
21.34757
20.21409
19.17552
18.12555
16.98983
15.88824
14.7362
13.53298
12.279
10.99807
9.664584
8.336363
6.966493
5.513433
3.958906
2.355368
0.7118542
-0.9839952
-2.832675
-4.637454
-6.742904
-8.799313
-10.96025
-13.48618
-15.84809
-18.72556
-21.5909
-24.77192
-28.27505
-32.16399
-36.53358
-41.42421
-47.01451
-53.59845
-61.55052
-71.19424
-84.30088
-98.00583
-100.6615
-85.47344
-71.81611
-61.80747
-54.17198
-47.23649
-41.68593
-36.81574
-32.50341
-28.58832
-25.03252
-22.02505
-19.09791
-16.2524
-13.71843
-11.34624
-9.133947
-6.961705
-4.978856
-3.055324
-1.301865
0.4516897
2.101657
3.628067
5.214364
6.750028
8.143264
9.546297
10.85341
12.09001
13.32574
14.65258
15.89019
16.9156
18.06903
19.14842
20.276
21.33704
22.3818
23.41288
24.4792
25.47386
26.45459
27.41112
28.35915
29.34594
30.27997
31.1749
32.10287
33.10793
34.05445
34.95394
35.85201
36.76958
37.76705
38.73437
39.60292
40.59201
41.57862
42.53005
43.49757
44.48011
45.46317
46.64595
47.86624
48.86048
49.96355
51.1225
52.491
53.79211
54.04943
-34.20311
-34.07191
-32.37231
-31.3529
-30.27273
-29.25549
-27.68981
-26.00469
-24.27547
-22.27937
-20.04122
-18.24375
-15.71865
-13.30698
-12.82555
-11.36296
-11.54114
-14.26285
-18.8731
-30.1276
-46.4843
-70.03906
-102.0779
-136.0269
-173.3936
-207.474
-237.0284
-250.7006
-245.4127
-222.8255
-187.3705
-153.7675
-133.9181
-143.8863
-145.9366
-144.535
-127.5886
-109.4315
-121.1529
-150.3385
-155.892
-147.9913
-139.6821
-131.3164
-125.8028
-131.9138
-130.3791
-130.2546
-130.2762
-129.3855
-49.26281
-53.86609
-51.43437
-45.32869
-49.99716
-56.89235
-58.58149
-55.6244
-51.77367
-48.2129
-46.93022
-48.41083
-49.61672
-48.66365
-48.21373
-47.52426
-48.25264
-49.42599
-50.96215
-52.51726
-53.88393
-55.06612
-55.97344
-56.63153
-57.10318
-57.39568
-57.52751
-57.5266
-57.40157
-57.18406
-56.89122
-56.54492
-56.12516
-55.68651
-55.21792
-54.71653
-54.21364
-53.722
-53.23629
-52.76574
-52.3632
-51.99799
-51.65984
-51.35023
-51.0637
-50.82224
-50.62631
-50.45341
-50.35584
-50.30043
-50.28594
-50.32085
-50.37809
-50.50177
-50.66161
-50.87827
-51.10904
-51.40082
-51.73052
-52.09714
-52.4858
-52.9454
-53.40439
-53.89665
-54.43298
-54.9653
-55.48141
-56.02595
-56.48601
-56.90816
-57.28744
-57.56989
-57.76844
-57.86877
-57.83886
-57.58415
-57.19976
-56.58022
-55.76379
-54.67619
-53.4132
-52.05611
-50.79905
-49.80072
-49.08428
-47.81349
-47.21598
-49.58444
-55.17046
-53.18164
-51.58099
-54.35317
-57.60687
-60.36109
-59.13649
-52.85561
-45.28113
-46.46667
-49.84658
-49.74799
-125.6369
-122.6808
-122.7804
-133.2947
-139.9032
-127.8528
-122.5501
-120.7077
-120.4271
-120.8158
-126.9714
-128.2733
-154.3445
-182.7123
-174.7008
-151.581
-147.7906
-180.6897
-213.4057
-239.5439
-246.1625
-236.3755
-223.6603
-198.4721
-171.9245
-142.4129
-113.4465
-86.11879
-56.57931
-36.39917
-21.52551
-10.82021
-6.519647
-5.592856
-7.585501
-8.061419
-11.39858
-13.96844
-16.24491
-18.89391
-21.21799
-23.64135
-25.09216
-26.62121
-28.14758
-29.50515
-31.0915
-31.94132
-33.83601
-34.94976
-0.03741539
-0.005949718
-1.003484
3.255651
-0.01170333
0.01861177
0.007976005
3.081381
0.951821
0.009622458
-0.03570449
-0.02279684
0.00529737
5.47853
-0.007573673
3.744859
6.286152
-3.317626
2.866088
1.023572
-0.2234612
2.811084
0.01364901
2.736854
0.03146456
3.522707
2.641952
1.714176
2.81069
0.1525601
0.4790106
0.02853948
0.334218
-0.01731155
3.559705
-0.006301369
0.01988983
4.709768
0.003361195
3.733921
4.757825
0.05811211
0.03505487
-0.004216752
-0.09546651
0.9545219
0.002270866
0.02139511
0.01886429
5.064445
-0.7380779
0.03434746
0.008081408
-0.01964484
3.58829
0.003609432
-0.5659556
-0.1521039
-3.458632
-0.008725995
-0.01730718
2.43833
-0.01354127
-0.01092261
5.395844
-0.007066661
0.02630967
0.08934023
9.136501
0.1372111
0.02775898
-0.04273724
3.861191
1.851208
2.278205
2.279506
1.708282
1.487507
-0.01941938
2.553714
-0.02607398
1.142645
-0.006679488
0.05250838
-0.004454294
-0.003161138
6.797294
0.003348688
0.04091196
-0.04947357
5.027396
5.514105
3.847621
1.802227
-0.005765247
-0.3947022
3.987844
3.097942
-166.7257
-0.01221904
-0.03211411
1.589684
6.088457
-0.01065962
-0.1137373
3.173711
-0.1378107
3.736118
-0.2181139
3.180482
0.02410359
10.02135
-0.003063185
0.3199182
-0.7427356
0.01073159
-0.07580844
-23.163
-1.337936
1.199752
0.160437
-0.1504141
0.02005876
-0.00858804
2.753227
-0.1168976
0.03450608
-0.004643779
0.1613926
-0.0234733
10.01738
5.777841
3.209824
-0.2279802
-0.009140767
-0.02960066
-0.7352411
4.281857
-2.437097
4.633731
3.255386
5.303112
3.416346
-1.967258
0.005421422
-0.02071861
3.422888
-0.04853852
0.003245277
0.9027884
0.02217342
-0.01505712
0.05920385
2.990285
7.503731
2.819714
0.01147045
-0.3775852
-0.007388763
0.6680168
-0.1228415
3.138065
-0.4736403
-0.01148062
5.653599
-0.01250718
-0.1008785
4.699836
0.01814834
1.989636
-0.000647596
-0.009555245
0.000625042
-0.8861449
0.1133529
-0.00490838
0.1260987
-0.1054566
-0.0006185428
0.2020111
-0.0508568
3.742669
-2.364672
0.8436571
0.1623617
-0.6380322
4.122964
3.903039
5.7132
0.04073146
-0.9423292
-0.01365809
1.407797
0.001294199
0.8444739
0.1436327
0.1252136
-0.007580085
-2.271823
0.2043881
0.7086403
-0.2019541
0.2310169
7.257986
-0.1835177
0.6070335
-0.01675037
-1.406603
-3.035631
-0.1558269
-0.001303164
-0.04446322
0.009473312
3.773747
0.01954011
0.008751286
-0.3574317
0.01942596
2.103531
0.0002470599
-1.655301
-1.17791
2.787373
-0.0001864575
18.58315
0.1086092
2.096361
-0.02294986
-0.1838077
-2.279723
-0.02073932
0.9260794
-0.8351651
3.6438
0.02949221
0.4837333
2.493162
2.690662
0.3420409
0.002710649
-0.03292634
-0.005370841
-0.002941106
-0.0222647
-0.008139711
0.01372219
-0.1975413
-0.4170884
0.4264693
2.740176
2.791803
-94.36206
6.064447
0.2783978
0.02279484
4.043419
-0.06250012
2.075883
0.1265396
0.03433442
2.522899
-0.01882771
1.375373
-0.01429361
3.951343
1.361561
-0.002127969