/*--------------------------------*- C++ -*----------------------------------*\
| =========                 |                                                 |
| \\      /  F ield         | OpenFOAM: The Open Source CFD Toolbox           |
|  \\    /   O peration     | Version:  2406                                  |
|   \\  /    A nd           | Website:  www.openfoam.com                      |
|    \\/     M anipulation  |                                                 |
\*---------------------------------------------------------------------------*/
FoamFile
{
    version     2.0;
    format      ascii;
    arch        "LSB;label=32;scalar=64";
    class       surfaceScalarField;
    location    "0.08";
    object      phi;
}
// * * * * * * * * * * * * * * * * * * * * * * * * * * * * * * * * * * * * * //

dimensions      [0 3 -1 0 0 0 0];

oriented        oriented;

internalField   nonuniform List<scalar> 
326221
(
-0.00267826
-0.00650176
0.009180019
-0.001726184
-0.0009520759
0.001396184
-0.003122368
0.001196375
0.0001998097
-0.0001791169
0.001375491
-0.0005146052
0.0003354883
-0.0003312289
-0.0001833763
-1.28929e-05
-0.000318336
0.0006110343
-0.0006239272
0.001644527
-0.001033493
0.002183089
-0.0005385618
0.004234671
-0.002051582
0.004604653
-0.0003699814
0.001315608
0.003289045
-0.001182501
0.002498109
0.0003188586
-0.001501359
0.002511782
-0.002192923
0.001482029
0.001029752
-0.002497438
0.003979467
-0.006499312
0.004001874
-0.008049444
0.001550132
-0.008236642
0.0001871975
-0.008040936
-0.0001957063
-0.007648147
-0.0003927888
-0.007153177
-0.0004949692
-0.006439514
-0.0007136633
-0.005653957
-0.0007855576
-0.004865362
-0.0007885946
-0.003720434
-0.001144928
-0.002669811
-0.001050622
-0.001700909
-0.0009689025
-0.0006990475
-0.001001861
0.0001342227
-0.0008332703
0.0009064661
-0.0007722434
0.001429515
-0.0005230493
0.001862681
-0.0004331657
0.002226646
-0.0003639648
0.002494586
-0.0002679399
0.002712373
-0.0002177873
0.002888572
-0.0001761987
0.003019544
-0.0001309726
0.003040704
-2.115973e-05
0.002941829
9.887494e-05
0.002791383
0.0001504463
0.002646529
0.0001448538
0.002543287
0.0001032426
0.002424594
0.0001186926
0.002340575
8.401934e-05
0.002049233
0.0002913413
0.001905512
0.000143721
-0.002486095
0.004391607
-0.001339474
-0.001146621
0.0002941789
-0.001633653
0.001810892
-0.001516713
0.002015201
-0.0002043089
0.001029266
0.0009859353
-0.0001076272
0.001136893
-0.0008003347
0.0006927076
-0.001317416
0.0005170808
-0.0007293046
-0.000588111
0.000260242
-0.0009895466
0.0008622461
-0.0006020041
0.0007692068
9.303938e-05
0.0005097335
0.0002594732
0.0005675285
-5.779498e-05
0.0007574888
-0.0001899602
0.0005755307
0.000181958
0.0001276366
0.0004478942
-0.0003195861
0.0004472227
-0.0006469251
0.000327339
-0.0008738411
0.000226916
-0.001033628
0.0001597872
-0.001141491
0.0001078629
-0.001209069
6.757802e-05
-0.001246349
3.727943e-05
-0.001260299
1.394993e-05
-0.001256891
-3.407466e-06
-0.001241678
-1.521286e-05
-0.001217392
-2.42862e-05
-0.001185583
-3.180857e-05
-0.001147235
-3.834886e-05
-0.001102851
-4.438315e-05
-0.001050975
-5.187671e-05
-0.000977294
-7.36808e-05
-0.0009286569
-4.863706e-05
-0.0008783807
-5.027617e-05
-0.0008261607
-5.222001e-05
-0.0007667704
-5.939032e-05
-0.0007013438
-6.542657e-05
-0.0006340843
-6.725954e-05
-0.0005609348
-7.314949e-05
-0.0004948562
-6.607857e-05
-0.0004383658
-5.64904e-05
-0.0003813159
-5.704989e-05
-0.0003194375
-6.187845e-05
-0.0002513593
-6.807815e-05
-0.0001821177
-6.924164e-05
-0.0001160473
-6.607034e-05
-5.501063e-05
-6.103672e-05
7.845358e-06
-6.285599e-05
7.805854e-05
-7.021318e-05
0.0001381016
-6.004304e-05
0.0002067412
-6.863963e-05
0.0002715973
-6.485606e-05
0.0003347509
-6.315365e-05
0.0003969547
-6.220381e-05
0.0004612903
-6.433558e-05
0.000528742
-6.745173e-05
0.000597692
-6.894993e-05
0.0006661717
-6.847974e-05
0.0007323888
-6.621709e-05
0.0007944466
-6.205776e-05
0.0008566296
-6.218303e-05
0.0009164375
-5.980793e-05
0.0009714175
-5.497997e-05
0.001027284
-5.58667e-05
0.001108707
-8.14233e-05
0.001157796
-4.908883e-05
0.001199774
-4.197803e-05
0.00123613
-3.635557e-05
0.001262478
-2.634795e-05
0.001279902
-1.742379e-05
0.001287452
-7.550706e-06
0.00127982
7.632435e-06
0.001248365
3.145464e-05
0.001195225
5.314022e-05
0.001113785
8.144004e-05
0.001000077
0.0001137082
0.0008348201
0.0001652568
0.000595387
0.0002394331
0.0002538618
0.0003415252
-0.0001946766
0.0004485384
-0.0006335488
0.0004388721
-0.000815049
0.0001815003
-0.0008193458
4.296784e-06
-0.0006510413
-0.0001683045
-0.0001927702
-0.000458271
6.385894e-05
-0.0002566292
3.341518e-06
6.051743e-05
0.0002262062
-0.0002228646
0.0007319164
-0.0005057103
0.000589358
0.0001425584
8.373088e-05
0.0005056272
-0.001121556
0.001205287
-0.002316964
0.001195408
-0.002399564
8.259933e-05
-0.0009645959
-0.001434968
0.0009632697
-0.001927866
0.002472021
-0.001508751
-0.001758733
0.004230754
-0.00187616
0.0001174274
-0.002165409
0.0002892487
-0.002261626
9.621651e-05
-0.002386324
0.0001246989
-0.002495395
0.000109071
-0.002629546
0.0001341504
-0.002775196
0.0001456503
-0.002910929
0.0001357325
-0.002972741
6.181248e-05
-0.00292198
-5.076094e-05
-0.002795351
-0.0001266288
-0.002613024
-0.0001823275
-0.002351931
-0.0002610933
-0.002055226
-0.0002967041
-0.001685053
-0.0003701731
-0.001160183
-0.0005248704
-0.0005911896
-0.0005689933
0.0001553966
-0.0007465862
0.001106541
-0.0009511445
0.001992048
-0.0008855065
0.00280974
-0.0008176924
0.003949558
-0.001139818
0.004941139
-0.0009915818
0.006052274
-0.001111134
0.006982588
-0.0009303147
0.007707773
-0.0007251846
0.008085016
-0.0003772426
0.007725073
0.000359943
0.005792067
0.001933006
0.001701187
0.004090879
-0.001967467
0.003668655
-0.00239214
0.0004246725
-0.000935447
-0.001456693
-0.0002816951
-0.0006537518
-0.001690208
0.001408512
-0.003759624
0.002069417
-0.003014275
-0.0007453492
2.250815e-05
-0.003036783
0.002552904
-0.002530395
0.002902614
-0.0003497104
0.001896081
0.001006533
0.0007155716
0.00118051
-9.32315e-05
0.0008088031
-0.0005156439
0.0004224124
-0.0007272724
0.0002116284
-0.001147223
0.000419951
-0.0007273021
-0.0004199213
0.001842535
-0.002569837
0.002658861
-0.0008163261
-0.006505117
0.009163978
-0.006798642
0.0002935251
-0.005836044
-0.0009625973
-0.005469001
-0.000367044
-0.005095539
-0.0003734614
-0.004816212
-0.0002793274
-0.004561381
-0.0002548303
-0.004340336
-0.0002210451
-0.00404901
-0.0002913259
-0.003896689
-0.0001523213
-0.003766515
-0.0001301746
-0.00364725
-0.0001192646
-0.003541167
-0.0001060826
-0.003439339
-0.000101828
-0.003342814
-9.652558e-05
-0.003251275
-9.153866e-05
-0.003169456
-8.181909e-05
-0.003094118
-7.533807e-05
-0.003021693
-7.242547e-05
-0.002950487
-7.12052e-05
-0.002884373
-6.611423e-05
-0.002821004
-6.336935e-05
-0.002761296
-5.970759e-05
-0.002707131
-5.416547e-05
-0.002652128
-5.500247e-05
-0.002597133
-5.499548e-05
-0.002541843
-5.528996e-05
-0.002490031
-5.181228e-05
-0.002443223
-4.680723e-05
-0.002400998
-4.222506e-05
-0.002357237
-4.376077e-05
-0.002313618
-4.361936e-05
-0.002267206
-4.641162e-05
-0.002226797
-4.040958e-05
-0.002189878
-3.691926e-05
-0.00215123
-3.864712e-05
-0.002111892
-3.933877e-05
-0.002071039
-4.085272e-05
-0.002034155
-3.688401e-05
-0.002000104
-3.405088e-05
-0.00202928
2.917557e-05
-0.002008562
-2.071763e-05
-0.001982835
-2.572656e-05
-0.001957325
-2.551013e-05
-0.001935137
-2.218864e-05
-0.001911682
-2.345456e-05
-0.001890451
-2.123158e-05
-0.001872755
-1.769578e-05
-0.001856769
-1.598595e-05
-0.001837571
-1.919757e-05
-0.001818297
-1.927472e-05
-0.001804141
-1.415583e-05
-0.001792958
-1.118312e-05
-0.001784085
-8.873092e-06
-0.001770608
-1.34765e-05
-0.001753227
-1.738096e-05
-0.001737347
-1.588014e-05
-0.00172459
-1.275656e-05
-0.001708966
-1.562418e-05
-0.001693383
-1.558345e-05
-0.00167357
-1.981299e-05
-0.001649867
-2.370282e-05
-0.001624577
-2.528944e-05
-0.001596885
-2.769263e-05
-0.001552546
-4.433866e-05
-0.001499578
-5.296862e-05
-0.001450058
-4.951956e-05
-0.001389414
-6.064407e-05
-0.001307426
-8.198767e-05
-0.001141875
-0.0001655509
-0.0008490584
-0.000292817
2.087e-05
-0.0008699284
0.0008849257
-0.0008640557
0.001154676
-0.0002697504
0.001328405
-0.0001737291
0.001416931
-8.85254e-05
0.001475418
-5.848761e-05
0.001525848
-5.04299e-05
0.001557935
-3.208692e-05
0.001570114
-1.217914e-05
0.001583177
-1.306256e-05
0.001613422
-3.024533e-05
0.001647029
-3.360746e-05
0.001678523
-3.149395e-05
0.001702439
-2.391556e-05
0.001722969
-2.05297e-05
0.001740059
-1.708984e-05
0.001757828
-1.776976e-05
0.001773345
-1.55165e-05
0.001785442
-1.209762e-05
0.001798973
-1.353048e-05
0.001816066
-1.709282e-05
0.001830739
-1.467305e-05
0.001843813
-1.307415e-05
0.001860091
-1.627784e-05
0.001872396
-1.230535e-05
0.001888904
-1.650781e-05
0.001911122
-2.221825e-05
0.001929436
-1.831385e-05
0.001946698
-1.726175e-05
0.001967174
-2.047648e-05
0.001990179
-2.30044e-05
0.002006353
-1.617383e-05
0.001971624
3.472865e-05
0.002003325
-3.170085e-05
0.002042895
-3.95703e-05
0.002083951
-4.105555e-05
0.00212617
-4.221921e-05
0.002171413
-4.524357e-05
0.002214926
-4.351226e-05
0.00225564
-4.071486e-05
0.002299374
-4.373331e-05
0.002347773
-4.839887e-05
0.002399741
-5.196832e-05
0.002446229
-4.648791e-05
0.002491539
-4.53106e-05
0.002539652
-4.811268e-05
0.002590854
-5.120159e-05
0.002643788
-5.293436e-05
0.002702295
-5.850688e-05
0.002762674
-6.0379e-05
0.002823524
-6.085039e-05
0.002886643
-6.311832e-05
0.002946745
-6.010269e-05
0.003016967
-7.022153e-05
0.003089993
-7.302614e-05
0.003166317
-7.632372e-05
0.00324858
-8.226312e-05
0.003333748
-8.5168e-05
0.003427896
-9.414827e-05
0.003530779
-0.0001028831
0.00363678
-0.0001060009
0.003751678
-0.0001148975
0.003882311
-0.000130633
0.004034236
-0.0001519253
0.004320877
-0.000286641
0.004537944
-0.0002170672
0.00478522
-0.0002472758
0.005062503
-0.0002772832
0.005424846
-0.0003623425
0.005774683
-0.0003498377
0.00672418
-0.0009494962
0.0002224202
0.00110141
-2.457368e-05
-0.001940892
0.001546557
-0.0007148969
0.00184316
-0.0004703328
0.002074631
-0.0003199957
0.002257603
-0.0002414598
0.002418805
-0.0002116323
0.002554374
-0.0001676557
0.002662598
-0.000120403
0.002757313
-0.0001077771
0.002855446
-0.0001283791
0.00295006
-0.0001282209
0.003042807
-0.0001242411
0.003130971
-0.0001120793
0.003220423
-0.0001099819
0.003309525
-0.0001061918
0.003402347
-0.0001105921
0.003494378
-0.0001075471
0.003583986
-0.0001017056
0.00367148
-0.000101025
0.003757894
-0.0001035061
0.003837546
-9.432512e-05
0.003908961
-8.448925e-05
0.003975276
-8.259357e-05
0.00402974
-6.676907e-05
0.004079601
-6.636859e-05
0.00412654
-6.915695e-05
0.004167957
-5.973149e-05
0.004205647
-5.495157e-05
0.004246825
-6.165434e-05
0.004290428
-6.660764e-05
0.004335318
-6.106329e-05
0.004291209
7.883761e-05
0.004356854
-9.734608e-05
0.004429598
-0.0001123143
0.004505586
-0.0001170436
0.004584234
-0.000120867
0.004665773
-0.0001267822
0.00474794
-0.0001256802
0.004827523
-0.0001202979
0.004909955
-0.0001261644
0.004993439
-0.0001318835
0.005081168
-0.000139697
0.005163698
-0.0001290182
0.005246665
-0.0001282772
0.00533016
-0.0001316078
0.005416552
-0.0001375939
0.005503468
-0.0001398499
0.005594995
-0.0001500344
0.005688502
-0.0001538859
0.005782451
-0.0001547997
0.005879567
-0.0001602339
0.005973353
-0.000153889
0.006076
-0.0001728683
0.006179003
-0.0001760293
0.006286587
-0.0001839075
0.006397183
-0.0001928589
0.00651194
-0.0001999249
0.006632616
-0.0002148249
0.006761915
-0.0002321819
0.006893731
-0.0002378164
0.007034441
-0.0002556081
0.007188358
-0.00028455
0.007360683
-0.00032425
0.007733883
-0.0006598415
0.007968282
-0.0004514654
0.008239348
-0.000518342
0.008536289
-0.0005742245
0.008930373
-0.0007564267
0.009277929
-0.0006973939
0.01032317
-0.001994734
0.009660892
0.0008846952
-0.01039854
0.009629428
0.001062636
-0.00931634
-0.002044796
-0.008959148
-0.0007242362
-0.008554866
-0.0007777425
-0.008256265
-0.0005779289
-0.007978808
-0.000532287
-0.007742191
-0.000457662
-0.007366427
-0.0006670903
-0.007195516
-0.0003232318
-0.007044296
-0.0002813949
-0.00690247
-0.000261091
-0.006772761
-0.0002357917
-0.006646076
-0.0002285125
-0.006525424
-0.0002171778
-0.006407313
-0.0002096495
-0.006297938
-0.0001911941
-0.006191055
-0.000182221
-0.006087932
-0.0001755482
-0.005983947
-0.0001751901
-0.00588498
-0.0001650818
-0.005786907
-0.0001614425
-0.005692557
-0.0001540576
-0.005602414
-0.000144308
-0.005512901
-0.0001445155
-0.005425394
-0.0001425031
-0.005338694
-0.0001419894
-0.005256756
-0.0001337504
-0.005178157
-0.000125406
-0.005104759
-0.0001156237
-0.005029118
-0.0001194017
-0.004955775
-0.000116962
-0.004878788
-0.0001233987
-0.004806202
-0.0001129953
-0.004733114
-0.0001100077
-0.004657801
-0.0001139599
-0.004580113
-0.0001170272
-0.004500375
-0.0001205907
-0.004422328
-0.0001149305
-0.004344861
-0.0001115174
-0.004371874
5.618846e-05
-0.004308545
-8.40471e-05
-0.004246875
-8.739654e-05
-0.004185812
-8.657291e-05
-0.004130009
-7.799151e-05
-0.004073602
-7.986153e-05
-0.004020697
-7.413663e-05
-0.0039689
-6.949294e-05
-0.003917271
-6.761478e-05
-0.003860427
-7.604126e-05
-0.003800452
-7.924993e-05
-0.003738827
-7.578071e-05
-0.003673082
-7.692883e-05
-0.003603659
-7.829601e-05
-0.003526005
-9.112997e-05
-0.003442834
-0.0001005523
-0.003356475
-0.0001022396
-0.003269286
-9.994532e-05
-0.003175678
-0.000109232
-0.00308025
-0.0001110118
-0.002978414
-0.0001216482
-0.00287166
-0.0001304568
-0.002759964
-0.0001369862
-0.002642872
-0.0001447847
-0.002508109
-0.0001791016
-0.002362211
-0.0001988666
-0.002208806
-0.0002029238
-0.002026742
-0.0002427087
-0.001803725
-0.0003050043
-0.001510506
-0.0004587701
-0.001051686
-0.0007516366
-0.001946188
-0.004766288
0.002850485
0.00203323
-0.005558906
0.001081867
-0.00552129
5.860076e-05
-0.005489918
9.332665e-05
-0.005422558
4.171133e-05
-0.005322792
3.438375e-05
-0.005183064
5.922229e-06
-0.00500828
-3.90513e-05
-0.004801501
-0.0001449661
-0.004564458
-0.0002878041
-0.004294767
-0.0003963204
-0.003969294
-0.0005077997
-0.003555781
-0.0006746065
-0.003096278
-0.0007562069
-0.002559458
-0.0009069936
-0.001852296
-0.001232032
-0.001084324
-0.001336965
-0.0001392012
-0.001691709
0.001082042
-0.002172388
0.002234621
-0.002038085
0.003293334
-0.001876405
0.004696706
-0.00254319
0.005963723
-0.002258599
0.007385889
-0.0025333
0.008606909
-0.002151335
0.009599628
-0.001717903
0.01022752
-0.001005134
0.01046891
0.0001185514
0.009983534
0.002418383
0.006532365
0.007542048
-1.981367e-05
0.01022083
-0.003666226
0.004071085
-0.00305849
-0.002064429
-0.003155167
-0.0005570742
-0.004753643
0.003006988
-0.005386635
0.002702409
-0.00329213
-0.002839855
0.0002702724
-0.006599185
0.003240495
-0.005500618
0.003944695
-0.00105391
0.003173251
0.001777977
0.001798498
0.002555262
0.0004766803
0.002130621
-0.0006428767
0.001541969
-0.0009390375
0.0005077893
-0.0002004874
-0.0003185991
0.0008745574
-0.001494966
0.002784051
-0.00447933
0.0008237134
0.001144011
0.01961712
-0.002337334
-0.002991795
0.009720736
-0.001514107
-0.001969848
0.0001738878
-0.003321648
0.001929043
-0.003271868
0.002822294
-0.00109756
0.00240739
0.001400839
0.0004390226
0.003105261
-0.001139043
0.002270773
-0.001428992
0.0008070302
-0.0005707693
-0.001446334
0.0004800809
-0.002040397
0.001262896
-0.00138482
0.001478054
-0.0001221186
0.001370775
0.0003667526
0.001232621
8.035938e-05
0.0008108617
0.0002317986
-0.0001993223
0.001192142
-0.001213377
0.001461949
-0.001863894
0.00109774
-0.002214123
0.0006775672
-0.00239807
0.0004108629
-0.002491766
0.0002534833
-0.002527389
0.0001434862
-0.002524952
6.514108e-05
-0.002497964
1.029162e-05
-0.002455074
-2.893985e-05
-0.002400301
-5.818124e-05
-0.002335107
-8.040605e-05
-0.002260481
-9.891219e-05
-0.002178075
-0.0001142153
-0.002089749
-0.0001266744
-0.001997277
-0.0001368553
-0.001900892
-0.0001482618
-0.001768396
-0.0002061772
-0.001673968
-0.0001430644
-0.001573753
-0.0001504912
-0.001468286
-0.0001576871
-0.001353869
-0.0001738078
-0.001233465
-0.0001858302
-0.001113839
-0.0001868849
-0.000992838
-0.0001941509
-0.0008819905
-0.0001769261
-0.0007801034
-0.0001583776
-0.0006737576
-0.0001633956
-0.0005590339
-0.0001766022
-0.0004383508
-0.0001887612
-0.0003195747
-0.0001880178
-0.0002063834
-0.0001792616
-9.865774e-05
-0.0001687624
1.317849e-05
-0.0001746922
0.000136352
-0.0001933867
0.0002448147
-0.0001685058
0.0003637185
-0.0001875434
0.0004779704
-0.000179108
0.0005908039
-0.0001759872
0.0007020629
-0.0001734628
0.0008149202
-0.0001771929
0.0009307974
-0.0001833289
0.001048995
-0.0001871475
0.001168215
-0.0001876997
0.001286715
-0.0001847168
0.001400845
-0.0001761876
0.001513577
-0.0001749153
0.001623277
-0.0001695082
0.001729073
-0.0001607755
0.001835517
-0.0001623113
0.001983146
-0.0002290517
0.002083177
-0.0001491202
0.002176137
-0.000134938
0.002262204
-0.0001224223
0.002338483
-0.0001026277
0.002406171
-8.511123e-05
0.002463525
-6.490513e-05
0.002507766
-3.660782e-05
0.002531486
7.734529e-06
0.002533861
5.076482e-05
0.002508492
0.0001068093
0.002450209
0.0001719905
0.002336635
0.0002788315
0.002128569
0.0004474991
0.001743998
0.0007260959
0.00102047
0.001172066
-0.0001035761
0.001562919
-0.001105824
0.001183749
-0.001445047
0.0003435197
-0.001252834
-0.0003605181
-0.0006894644
-0.001021641
-0.0003310322
-0.0006150614
-0.0004271034
0.0001565886
-9.406654e-05
-0.0005559015
0.0005071091
-0.001106886
0.0005085686
0.0001410989
-0.0008302439
0.00184444
-0.002756232
0.003131275
-0.003253677
0.001692853
-0.002531984
-0.0006390932
-0.0008427842
-0.003124168
0.001053624
-0.003824274
0.002287138
-0.002742266
0.009368377
-0.0007074412
0.01954835
-0.002484688
0.000825171
-0.0002353933
-0.005371663
0.0001882312
-0.0002238148
-0.0002500257
0.001813748
-0.0007845795
0.0008700422
-0.0006515558
-0.0003164001
-0.0001789165
-0.0007909752
0.0005810054
-0.001383849
0.001875511
-0.002327999
0.002607099
-0.00127015
0.004809263
-0.004253746
0.006552584
-0.002113303
0.004534292
0.005307337
0.001348185
0.005684215
0.001906118
-0.002059292
0.003169055
-0.00345586
-0.001047182
0.00524599
-0.007726197
0.01065848
-0.01076099
0.007036667
-0.01095371
0.001742853
-0.01072344
-4.306965e-05
-0.01035509
-0.0005640586
-0.009735007
-0.001012873
-0.008991035
-0.001238941
-0.007997846
-0.001706852
-0.006918387
-0.001865017
-0.005852958
-0.001854023
-0.004416622
-0.002581264
-0.003103976
-0.002363269
-0.001872407
-0.002200471
-0.0006175191
-0.00225675
0.0004452871
-0.001896076
0.001424228
-0.001751184
0.002119403
-0.001218224
0.002723099
-0.001036861
0.003244558
-0.0008854243
0.003661757
-0.0006851391
0.004026636
-0.0005826664
0.004343326
-0.000492888
0.004617869
-0.0004055156
0.004849347
-0.000252638
0.005054878
-0.0001066563
0.005234811
-2.948637e-05
0.005379145
5.194672e-07
0.005498795
-1.640679e-05
0.005570582
4.690554e-05
0.005638558
1.604346e-05
0.004915585
0.001014314
0.002067511
0.001545866
-0.01208318
0.03008566
-0.002561159
0.004932196
-0.001217
-0.006715821
-0.0004697991
-0.0009710159
-0.000733383
0.002077332
-0.001126696
0.001263355
-0.001033809
-0.0004092867
-0.0004865799
-0.001338204
0.0003943863
-0.002264815
0.001917966
-0.003851579
0.002824251
-0.002176435
0.005175466
-0.006604961
0.007536418
-0.004474255
0.007325721
0.005518035
0.004920164
0.008089772
0.003937415
-0.001076543
0.001881567
-0.001400012
-0.00522707
0.01235463
-0.01134811
0.01677952
-0.01272976
0.008418316
-0.01275033
0.001763418
-0.0125822
-0.0002111981
-0.01209598
-0.001050276
-0.0113297
-0.001779155
-0.01042657
-0.002142067
-0.009236823
-0.002896602
-0.007953748
-0.003148091
-0.006668705
-0.003139066
-0.004944061
-0.004305908
-0.003381173
-0.003926158
-0.001895992
-0.003685651
-0.000400922
-0.00375182
0.0008786689
-0.003175667
0.00203983
-0.002912345
0.002862219
-0.002040614
0.003586496
-0.001761138
0.004206522
-0.00150545
0.004706545
-0.001185162
0.00514756
-0.001023681
0.005533028
-0.0008783565
0.005876463
-0.0007489506
0.006165121
-0.0005412956
0.006421802
-0.0003633381
0.006665696
-0.00027338
0.006891293
-0.0002250775
0.007110618
-0.000235732
0.007273941
-0.0001164169
0.007438086
-0.0001481019
0.006782694
0.001669705
0.003943493
0.004906713
-0.002147832
0.01581206
-0.001933662
-0.002184017
0.0001110494
-0.00536636
0.002371378
-0.005532196
0.003657091
-0.002383273
0.003688396
0.001369533
0.001571939
0.005221718
-0.0007873351
0.004630047
-0.00125667
0.001276365
-0.0002529441
-0.00245006
0.0008351762
-0.003128517
0.001632594
-0.002182237
0.001946967
-0.0004364913
0.001898882
0.0004148371
0.001361103
0.0006181384
5.632537e-06
0.001587269
-0.00157296
0.002770735
-0.002529063
0.002418052
-0.002946961
0.001515638
-0.003127448
0.0008580543
-0.003207745
0.0004911599
-0.003235543
0.0002812813
-0.003226892
0.0001348351
-0.003193625
3.187414e-05
-0.003143341
-3.999255e-05
-0.003078983
-9.329796e-05
-0.003001642
-0.0001355217
-0.002912991
-0.0001690577
-0.002813957
-0.0001979455
-0.002706694
-0.0002214784
-0.002593623
-0.0002397458
-0.002477508
-0.0002529701
-0.002358539
-0.000267231
-0.0021957
-0.0003690163
-0.002076695
-0.0002620692
-0.001949325
-0.0002778612
-0.001815192
-0.00029182
-0.001670824
-0.0003181759
-0.001520229
-0.0003364251
-0.001372304
-0.0003348104
-0.0012244
-0.0003420548
-0.001088883
-0.0003124429
-0.0009632172
-0.0002840434
-0.0008309897
-0.000295623
-0.0006879113
-0.0003196806
-0.0005382352
-0.0003384373
-0.0003923794
-0.0003338735
-0.0002539128
-0.0003177283
-0.0001216778
-0.0003009973
1.649567e-05
-0.0003128657
0.0001682721
-0.0003451631
0.0003023315
-0.0003025652
0.0004486344
-0.0003338463
0.0005895274
-0.0003200009
0.0007289452
-0.000315405
0.0008662573
-0.0003107748
0.001005326
-0.0003162616
0.001147709
-0.0003257117
0.001292882
-0.0003323206
0.001439769
-0.0003345871
0.001586703
-0.0003316512
0.001729073
-0.0003185571
0.001870028
-0.0003158705
0.002007491
-0.0003069713
0.002141047
-0.0002943313
0.002275664
-0.0002969284
0.002458904
-0.0004122912
0.002585108
-0.0002753249
0.002703882
-0.0002537113
0.002814811
-0.0002333514
0.002915019
-0.0002028364
0.003006378
-0.0001764693
0.003086681
-0.0001452088
0.003152013
-0.00010194
0.003195865
-3.611673e-05
0.003221438
2.51919e-05
0.00322456
0.0001036868
0.003205758
0.0001907921
0.003153675
0.000330915
0.00304946
0.000551714
0.002839368
0.0009361881
0.002336666
0.001674768
0.00117048
0.002729105
-0.0005095236
0.002863752
-0.00159658
0.001430576
-0.001636725
-0.000320373
-0.001047397
-0.001610968
-0.0007216197
-0.000940839
-0.001009717
0.000444686
-0.0006508593
-0.0009147592
0.0001562477
-0.001913993
-3.056179e-05
0.0003279084
-0.002273279
0.004087157
-0.004079792
0.004937788
-0.003948734
0.001561795
-0.002920943
-0.001666884
-0.0008093853
-0.005235725
0.001411727
-0.006045386
0.002083432
-0.003413971
-0.003839187
0.015291
-0.006689194
0.004883237
-0.007442874
0.001835547
-0.007312318
-7.195527e-05
-0.007189367
-2.96243e-05
-0.007019973
-0.0001276826
-0.006832145
-0.0001534442
-0.006613302
-0.000212921
-0.006375882
-0.0002764712
-0.006111078
-0.0004097699
-0.005804533
-0.000594349
-0.005456891
-0.000743963
-0.00505265
-0.0009120406
-0.004544142
-0.001183114
-0.003974825
-0.001325524
-0.003320646
-0.001561172
-0.002465192
-0.002087486
-0.001527471
-0.002274687
-0.0004033999
-0.00281578
0.001074377
-0.003650165
0.002482807
-0.003446514
0.003755289
-0.003148887
0.005414658
-0.004202559
0.006929449
-0.00377339
0.00863904
-0.00424289
0.01012188
-0.003634177
0.01133245
-0.00292847
0.01209111
-0.001763796
0.01218106
2.860568e-05
0.01190176
0.002697674
0.01005074
0.009393072
0.00347909
0.01679248
-0.003495988
0.01104616
-0.005547578
-1.283934e-05
-0.00630776
0.0002031083
-0.006989368
0.003688596
-0.006239341
0.001952382
-0.003593218
-0.005485977
0.0003451215
-0.01053753
0.003979117
-0.009134614
0.00491172
-0.001986513
0.004114198
0.002575499
0.002660161
0.004009299
0.001179761
0.003611021
-0.0003104142
0.003032145
-0.0005301234
0.0007274985
0.0004835997
-0.001332322
0.001823923
-0.002835289
0.002980016
-0.005635423
-0.00137148
0.005495507
-0.01202655
0.03027219
-0.01267387
0.001709952
-0.01158853
-0.003130139
-0.01111883
-0.001193931
-0.01066692
-0.001229656
-0.01033143
-0.000913415
-0.01002536
-0.0008383596
-0.009771087
-0.0007119348
-0.009342957
-0.00109522
-0.009157687
-0.0005085025
-0.008990526
-0.0004485552
-0.008832861
-0.0004187565
-0.008687244
-0.0003814082
-0.008543482
-0.0003722749
-0.008405553
-0.0003551072
-0.008268703
-0.0003464991
-0.008140127
-0.00031977
-0.008012528
-0.0003098202
-0.007888755
-0.0002993208
-0.007763411
-0.000300534
-0.007643811
-0.0002846825
-0.007525174
-0.0002800792
-0.00741113
-0.0002681014
-0.007302454
-0.0002529841
-0.007195554
-0.0002514158
-0.007092359
-0.0002456977
-0.006990663
-0.0002436852
-0.00689427
-0.0002301439
-0.006800074
-0.0002196014
-0.00671027
-0.0002054282
-0.006615722
-0.0002139496
-0.006522553
-0.0002101309
-0.006422812
-0.0002231398
-0.006325876
-0.0002099314
-0.006226019
-0.0002098643
-0.006123011
-0.0002169682
-0.006017668
-0.0002223706
-0.005910611
-0.0002276471
-0.005805384
-0.0002201574
-0.005699686
-0.0002172154
-0.005722055
7.85575e-05
-0.005632452
-0.0001736504
-0.005553509
-0.0001663393
-0.005474473
-0.0001656088
-0.005401471
-0.0001509937
-0.00532602
-0.000155313
-0.005252466
-0.0001476909
-0.005176657
-0.0001453016
-0.005097782
-0.0001464894
-0.005010005
-0.0001638183
-0.004916386
-0.0001728693
-0.004818998
-0.0001731689
-0.004715561
-0.000180365
-0.00460807
-0.0001857875
-0.004492252
-0.0002069479
-0.004371712
-0.0002210926
-0.004249016
-0.0002249356
-0.004126549
-0.0002224126
-0.003997552
-0.0002382288
-0.003868341
-0.0002402228
-0.00373346
-0.0002565294
-0.003595113
-0.0002688034
-0.003452386
-0.0002797131
-0.003304501
-0.0002926696
-0.003135669
-0.0003479338
-0.002955306
-0.0003792299
-0.002768725
-0.0003895044
-0.002547267
-0.0004641663
-0.00227568
-0.0005765918
-0.001902184
-0.0008322661
-0.001212732
-0.001441088
2.871583e-05
-0.003187636
0.001270595
-0.003182771
0.001938007
-0.00138231
0.002309295
-0.0008416205
0.002591331
-0.0006020315
0.002816937
-0.0004670657
0.003020357
-0.0004150529
0.003196284
-0.0003435823
0.003339252
-0.0002633711
0.003463241
-0.0002317655
0.003589837
-0.0002549755
0.003710657
-0.0002490409
0.003829683
-0.0002432673
0.003943573
-0.0002259692
0.004060809
-0.0002272179
0.004179849
-0.000225232
0.004306067
-0.0002368098
0.004434342
-0.0002358218
0.004562073
-0.0002294374
0.004689391
-0.0002283423
0.004817407
-0.0002315227
0.004939782
-0.0002166998
0.005053768
-0.0001984752
0.005162826
-0.0001916516
0.005256733
-0.000160676
0.005342404
-0.0001520401
0.005420135
-0.0001468878
0.005486317
-0.0001259132
0.005542542
-0.0001111768
0.005597667
-0.0001167794
0.005650602
-0.0001195426
0.00571124
-0.0001217009
0.005659902
0.0001301757
0.005739749
-0.0001771936
0.005826573
-0.0001991377
0.00591783
-0.0002083012
0.006014182
-0.0002172186
0.006115847
-0.0002284476
0.006220626
-0.0002304588
0.006323954
-0.000223626
0.006431075
-0.0002332861
0.006538412
-0.0002392204
0.006650625
-0.000251909
0.006756674
-0.0002350681
0.006863016
-0.0002346189
0.006968568
-0.0002371597
0.007076371
-0.0002453969
0.007183517
-0.0002469964
0.007294985
-0.0002615023
0.00740817
-0.0002670701
0.007521564
-0.0002681938
0.007638951
-0.0002776216
0.007751881
-0.0002668185
0.007874424
-0.0002954115
0.007995914
-0.0002975192
0.008122137
-0.0003101301
0.008250562
-0.0003212839
0.008382604
-0.0003319677
0.00851994
-0.0003521607
0.0086659
-0.0003781414
0.00881404
-0.0003859563
0.008971382
-0.0004129503
0.009143246
-0.0004564138
0.009332333
-0.0005133377
0.009760142
-0.001087651
0.01001486
-0.0007061864
0.01031614
-0.0008196176
0.01065271
-0.0009107985
0.01109777
-0.00120148
0.01155892
-0.001158549
0.01260214
-0.003037947
0.001403654
0.001343889
-3.090171e-05
-0.004495758
0.002176298
-0.002214719
0.002637018
-0.001302341
0.002981921
-0.000946934
0.003264544
-0.0007496887
0.003520151
-0.00067066
0.003741755
-0.0005651869
0.003925451
-0.0004470665
0.004085682
-0.0003919964
0.004247362
-0.0004166561
0.004400403
-0.0004020811
0.00455026
-0.0003931245
0.004693045
-0.0003687543
0.004838528
-0.0003727015
0.004985688
-0.0003723917
0.005140567
-0.0003916886
0.005298405
-0.0003936597
0.005455165
-0.0003861973
0.005612222
-0.0003854001
0.005770268
-0.0003895684
0.005922414
-0.0003688461
0.006065509
-0.0003415697
0.006204032
-0.0003301747
0.006324881
-0.0002815251
0.006436311
-0.0002634695
0.006538159
-0.0002487358
0.006624254
-0.0002120083
0.006697639
-0.0001845618
0.006766855
-0.0001859961
0.006831609
-0.0001842959
0.006906112
-0.0001962037
0.006845833
0.0001904539
0.006938628
-0.0002699882
0.007042219
-0.0003027287
0.007150562
-0.0003166438
0.007265882
-0.0003325393
0.007388539
-0.0003511044
0.00751526
-0.0003571796
0.007640996
-0.0003493623
0.007771384
-0.0003636739
0.007902329
-0.0003701654
0.008038925
-0.0003885051
0.008168036
-0.0003641789
0.008297232
-0.0003638146
0.008425412
-0.0003653396
0.008555524
-0.0003755098
0.008684605
-0.0003760771
0.008818691
-0.0003955881
0.008954297
-0.0004026766
0.009090135
-0.0004040312
0.009230713
-0.0004181996
0.009365279
-0.0004013846
0.009512096
-0.0004422289
0.009656628
-0.0004420512
0.00980664
-0.0004601413
0.009959711
-0.0004743556
0.01011588
-0.0004881415
0.01027949
-0.0005157691
0.01045255
-0.0005511953
0.0106283
-0.0005617087
0.0108153
-0.0005999541
0.01102013
-0.0006612439
0.01148122
-0.0009744225
0.01175882
-0.001365255
0.01206139
-0.00100875
0.01242259
-0.001180817
0.01283774
-0.001325953
0.0133717
-0.001735442
0.0140169
-0.001803748
0.01499909
-0.004020135
0.01482464
0.0015781
-0.01507326
0.0147682
0.002015006
-0.01404153
-0.004161864
-0.01338501
-0.001850452
-0.01284474
-0.001769931
-0.01243242
-0.001325731
-0.01206525
-0.001205533
-0.01176395
-0.001013231
-0.01148807
-0.001371097
-0.01103185
-0.0009647306
-0.01083475
-0.0006456482
-0.01064837
-0.0006051413
-0.01047658
-0.000553192
-0.01030675
-0.0005421078
-0.01014332
-0.0005185422
-0.009980917
-0.0005088975
-0.00982742
-0.000473267
-0.0096752
-0.0004620402
-0.009526872
-0.0004476488
-0.009376513
-0.0004508933
-0.009232726
-0.0004284691
-0.009090382
-0.0004224231
-0.00895299
-0.0004054936
-0.008822682
-0.0003832917
-0.008694492