/*--------------------------------*- C++ -*----------------------------------*\
| =========                 |                                                 |
| \\      /  F ield         | OpenFOAM: The Open Source CFD Toolbox           |
|  \\    /   O peration     | Version:  2406                                  |
|   \\  /    A nd           | Website:  www.openfoam.com                      |
|    \\/     M anipulation  |                                                 |
\*---------------------------------------------------------------------------*/
FoamFile
{
    version     2.0;
    format      ascii;
    arch        "LSB;label=32;scalar=64";
    class       volScalarField;
    location    "0.36";
    object      p;
}
// * * * * * * * * * * * * * * * * * * * * * * * * * * * * * * * * * * * * * //

dimensions      [0 2 -2 0 0 0 0];

internalField   nonuniform List<scalar> 
4531
(
-0.000490033
-4.318086e-05
-0.0001288297
-9.727947e-05
-7.032052e-05
-8.969679e-05
-5.325773e-05
-6.693487e-05
-6.385419e-05
-4.894467e-05
-6.224869e-05
-4.927988e-05
-5.714471e-05
-2.979758e-05
-3.885561e-05
-3.119659e-05
-3.197039e-05
-2.970584e-05
-1.662606e-05
-3.002721e-05
-4.443082e-06
-1.350373e-05
4.749314e-05
-0.0001235793
0.0005991923
-0.001007156
-0.0002077861
-0.0003281776
-0.0002656685
-0.0002480714
-0.0002322871
-0.0002216344
-0.0002107235
-0.0001980241
-0.0001954358
-0.0001879787
-0.0001834629
-0.0001785528
-0.0001758621
-0.0001719717
-0.0001693621
-0.0001672001
-0.000165169
-0.00016374
-0.0001623942
-0.0001609009
-0.0001604569
-0.0001592732
-0.0001590343
-0.0001587757
-0.0001589721
-0.0001592862
-0.0001600081
-0.000160794
-0.000162159
-0.0001632212
-0.0001655305
-0.0001671524
-0.0001691251
-0.0001727436
-0.0001748119
-0.0001790387
-0.0001834298
-0.0001897255
-0.0001946328
-0.0002030294
-0.0002090804
-0.0002242512
-0.0002299037
-0.0002540639
-0.0002570011
-0.0003438972
-0.0001875821
-0.00102034
0.000599406
-0.0001244672
5.637516e-05
-1.414974e-05
9.336714e-07
-2.610307e-05
-1.522578e-05
-3.251582e-05
-2.417917e-05
-4.186366e-05
-4.279966e-05
-3.930882e-05
-5.519839e-05
-3.999207e-05
-5.663858e-05
-5.190243e-05
-7.123061e-05
-5.814978e-05
-7.237213e-05
-6.126329e-05
-8.816051e-05
-9.494251e-05
-0.0001499685
-1.220971e-05
-0.0004835511
0.0005619973
0.0001339059
0.0002115944
0.000169072
0.0001702876
0.0001602538
0.0001509991
0.0001575394
0.0001483154
0.0001362476
0.0001567622
0.0001510713
0.0001471533
0.0001337623
0.0001504823
0.0001534369
0.0001479406
0.0001474682
0.0001486785
0.0001534124
0.0001451586
0.0001580335
0.0001496521
0.0001629614
0.0001610811
0.0001657734
0.0001696659
0.0001745127
0.0001756359
0.0001893163
0.0001936804
0.0002072875
0.0002254449
0.0002315367
0.0003356055
0.0003440464
0.0002319399
0.0002278993
0.0002092134
0.0001957094
0.0001913273
0.0001781345
0.000176626
0.0001720143
0.0001680632
0.0001633683
0.00016517
0.000151552
0.000160063
0.0001468307
0.0001543637
0.0001501861
0.0001470908
0.0001477585
0.0001527896
0.0001499177
0.0001332921
0.0001467579
0.0001505759
0.0001559759
0.0001353006
0.0001470915
0.0001561779
0.00014926
0.0001612258
0.0001695737
0.0001739888
0.0002353087
9.950924e-05
0.0005885609
0.0003473448
0.000236403
0.0002288669
0.0002104508
0.0001962777
0.0001917589
0.0001787837
0.0001767871
0.0001721954
0.0001682294
0.0001631923
0.0001652556
0.0001517456
0.0001599831
0.0001470651
0.000153992
0.000150241
0.0001471693
0.0001475791
0.0001525615
0.0001497651
0.0001333572
0.0001467439
0.0001500599
0.0001553473
0.0001353945
0.0001467385
0.0001556003
0.0001491587
0.0001607945
0.0001689408
0.0001733929
0.0002328278
0.0001007318
0.0005626215
0.0005361591
0.0001341817
0.0002099531
0.0001682343
0.000169779
0.0001597059
0.0001508288
0.0001569247
0.0001479487
0.0001363323
0.00015613
0.0001505578
0.0001471422
0.0001338242
0.0001503147
0.0001531832
0.0001477326
0.0001475073
0.0001487421
0.0001530575
0.0001454017
0.0001579744
0.0001498538
0.0001630567
0.0001609207
0.0001659511
0.0001698603
0.0001746777
0.0001763057
0.0001897641
0.0001942531
0.0002085199
0.0002264693
0.0002357452
0.0003393779
0.0005518248
-0.0001031195
5.224332e-05
-1.309501e-05
5.632964e-07
-2.586953e-05
-1.52743e-05
-3.239334e-05
-2.437679e-05
-4.157834e-05
-4.275342e-05
-3.903133e-05
-5.498077e-05
-3.994774e-05
-5.642192e-05
-5.173954e-05
-7.073326e-05
-5.775076e-05
-7.195217e-05
-6.12725e-05
-8.768402e-05
-9.353921e-05
-0.0001480574
-1.287181e-05
-0.0004589495
-0.0009620523
-0.0002345337
-0.0003263217
-0.0002678341
-0.0002488449
-0.0002328112
-0.0002219735
-0.0002111327
-0.000198353
-0.0001955432
-0.0001881271
-0.0001835831
-0.000178634
-0.0001759043
-0.0001720288
-0.0001693999
-0.000167227
-0.0001651842
-0.00016374
-0.0001623975
-0.000160907
-0.0001604519
-0.0001592772
-0.0001590391
-0.0001587814
-0.0001589785
-0.0001592923
-0.0001600139
-0.0001608032
-0.0001621676
-0.0001632423
-0.0001655394
-0.0001671703
-0.0001691671
-0.0001727749
-0.0001748903
-0.0001791579
-0.0001835808
-0.0001898664
-0.0001948283
-0.0002032496
-0.0002094703
-0.0002245645
-0.0002305686
-0.0002545704
-0.0002596373
-0.0003412807
-0.0002148106
-0.0009763097
-0.0004644673
-4.32726e-05
-0.0001272705
-9.646649e-05
-6.994676e-05
-8.890001e-05
-5.314525e-05
-6.650796e-05
-6.333386e-05
-4.894847e-05
-6.206037e-05
-4.901004e-05
-5.687494e-05
-2.976594e-05
-3.89619e-05
-3.100904e-05
-3.186579e-05
-2.965616e-05
-1.704077e-05
-2.978794e-05
-4.505128e-06
-1.264078e-05
4.361097e-05
-0.0001018161
0.0005520853
-0.0004332933
-4.254042e-05
-0.0001246713
-9.544611e-05
-6.923722e-05
-8.79001e-05
-5.287498e-05
-6.592331e-05
-6.267522e-05
-4.890416e-05
-6.18281e-05
-4.863232e-05
-5.658764e-05
-2.967712e-05
-3.911389e-05
-3.076534e-05
-3.174806e-05
-2.964484e-05
-1.75436e-05
-2.959205e-05
-4.626356e-06
-1.182258e-05
3.969037e-05
-7.968707e-05
0.0004975197
-0.000907309
-0.000262453
-0.0003249039
-0.0002702816
-0.0002497497
-0.0002334051
-0.0002223509
-0.0002116056
-0.0001987268
-0.0001956707
-0.000188294
-0.0001837206
-0.0001787237
-0.0001759497
-0.0001720916
-0.0001694411
-0.0001672571
-0.0001651986
-0.0001637366
-0.0001623986
-0.000160911
-0.0001604446
-0.0001592796
-0.0001590436
-0.0001587872
-0.0001589854
-0.0001592986
-0.0001600196
-0.0001608129
-0.0001621762
-0.0001632642
-0.0001655476
-0.000167188
-0.0001692115
-0.0001728105
-0.0001749796
-0.0001792971
-0.0001837557
-0.0001900285
-0.0001950497
-0.0002035021
-0.0002099098
-0.0002249288
-0.0002313144
-0.0002551894
-0.0002625863
-0.0003390528
-0.0002432858
-0.0009227669
0.0004967795
-8.151943e-05
4.801711e-05
-1.207006e-05
6.816906e-08
-2.569203e-05
-1.533719e-05
-3.230223e-05
-2.459587e-05
-4.127614e-05
-4.270509e-05
-3.867542e-05
-5.470547e-05
-3.983463e-05
-5.616355e-05
-5.147076e-05
-7.011281e-05
-5.719352e-05
-7.136049e-05
-6.116948e-05
-8.684537e-05
-9.195007e-05
-0.0001451016
-1.280305e-05
-0.0004287441
0.0005044835
0.0001336169
0.000207519
0.0001669198
0.0001691418
0.0001588907
0.0001505203
0.0001561365
0.0001474331
0.0001363471
0.0001553222
0.0001498977
0.0001471087
0.0001338315
0.0001500949
0.0001528748
0.0001474582
0.0001475381
0.0001488102
0.0001526262
0.000145666
0.0001579138
0.0001500765
0.0001631692
0.0001607149
0.0001661687
0.0001700938
0.0001749125
0.0001771161
0.000190327
0.0001949817
0.0002100301
0.0002277364
0.0002409775
0.0003412595
0.0003486669
0.0002418969
0.0002300764
0.0002119638
0.000197
0.0001923011
0.0001795682
0.0001770147
0.0001724119
0.0001684314
0.0001629654
0.0001653539
0.0001519561
0.0001598956
0.0001473156
0.0001535358
0.0001502996
0.0001472481
0.0001473433
0.0001522869
0.0001495655
0.0001333693
0.0001467073
0.0001493974
0.0001545442
0.0001354219
0.0001462423
0.0001548606
0.0001489392
0.0001601035
0.0001682154
0.0001722327
0.0002294842
0.0001012075
0.0005308672
0.0003465881
0.0002479827
0.0002313816
0.0002136207
0.000197848
0.0001929079
0.0001804509
0.0001773172
0.0001726622
0.0001686523
0.0001627226
0.0001654225
0.0001522006
0.0001598041
0.0001475546
0.0001530298
0.0001503759
0.0001473064
0.0001470594
0.0001520198
0.0001493382
0.0001332887
0.0001466187
0.0001487072
0.0001536761
0.0001353374
0.0001456189
0.0001540211
0.000148631
0.0001591907
0.0001674129
0.0001708195
0.0002248327
0.00010252
0.0004947551
0.0004686862
0.0001339543
0.00020379
0.0001653781
0.0001683357
0.0001579058
0.0001501109
0.0001552478
0.0001467862
0.000136248
0.0001544481
0.000149209
0.0001470219
0.0001337445
0.0001498454
0.0001525694
0.0001471324
0.0001475455
0.000148894
0.0001521482
0.000145922
0.0001578511
0.0001503361
0.0001632549
0.000160496
0.0001664071
0.0001703638
0.0001752247
0.0001780279
0.0001909568
0.0001958385
0.0002116841
0.000229104
0.0002468113
0.0003398116
0.0004366441
-6.074718e-05
4.322749e-05
-1.084374e-05
-6.175783e-07
-2.557095e-05
-1.54326e-05
-3.219997e-05
-2.484164e-05
-4.099243e-05
-4.265144e-05
-3.823964e-05
-5.444339e-05
-3.967477e-05
-5.580676e-05
-5.119092e-05
-6.941761e-05
-5.651123e-05
-7.065813e-05
-6.09424e-05
-8.559071e-05
-9.063392e-05
-0.0001404633
-1.358884e-05
-0.0003943134
-0.0008440793
-0.0002899735
-0.0003232823
-0.0002730355
-0.0002507139
-0.0002340407
-0.0002227678
-0.0002121161
-0.0001991144
-0.000195809
-0.000188479
-0.0001838643
-0.0001788182
-0.0001759971
-0.0001721567
-0.0001694809
-0.0001672881
-0.0001652105
-0.0001637305
-0.0001623966
-0.0001609118
-0.0001604344
-0.0001592787
-0.0001590447
-0.0001587907
-0.0001589898
-0.0001593027
-0.0001600229
-0.000160821
-0.0001621823
-0.0001632841
-0.0001655549
-0.0001672035
-0.0001692543
-0.0001728486
-0.000175074
-0.0001794439
-0.0001839457
-0.0001902033
-0.0001952906
-0.0002037675
-0.0002103845
-0.0002253179
-0.0002321195
-0.0002558329
-0.0002658666
-0.0003365649
-0.0002714141
-0.0008607297
-0.0003979498
-4.268771e-05
-0.000120679
-9.447948e-05
-6.828175e-05
-8.674271e-05
-5.245906e-05
-6.526395e-05
-6.191561e-05
-4.877295e-05
-6.157004e-05
-4.829099e-05
-5.62789e-05
-2.95459e-05
-3.922366e-05
-3.048491e-05
-3.165417e-05
-2.96739e-05
-1.815043e-05
-2.943349e-05
-4.891362e-06
-1.079328e-05
3.52828e-05
-5.822996e-05
0.0004376531
-0.0003575518
-4.392449e-05
-0.000115015
-9.369309e-05
-6.742924e-05
-8.513989e-05
-5.192267e-05
-6.474042e-05
-6.076453e-05
-4.838616e-05
-6.135664e-05
-4.829809e-05
-5.575645e-05
-2.955916e-05
-3.903364e-05
-3.006038e-05
-3.162309e-05
-2.987525e-05
-1.915268e-05
-2.91467e-05
-5.492529e-06
-9.220879e-06
3.038392e-05
-3.781762e-05
0.0003711226
-0.0007704489
-0.0003163385
-0.0003216313
-0.0002762096
-0.0002517976
-0.0002347505
-0.0002232965
-0.000212659
-0.0001995416
-0.0001959428
-0.0001886901
-0.0001840211
-0.0001789242
-0.0001760517
-0.0001722292
-0.0001695196
-0.0001673208
-0.0001652207
-0.0001637221
-0.0001623911
-0.0001609118
-0.0001604196
-0.0001592731
-0.0001590404
-0.0001587905
-0.0001589912
-0.0001593027
-0.0001600217
-0.0001608245
-0.0001621878
-0.0001633046
-0.0001655631
-0.0001672178
-0.0001692936
-0.0001728858
-0.0001751875
-0.0001796091
-0.0001841645
-0.0001904003
-0.0001955678
-0.0002040569
-0.0002109102
-0.000225714
-0.0002330359
-0.0002564959
-0.0002695777
-0.0003337847
-0.0002984381
-0.0007884688
0.0003706879
-4.166442e-05
3.764002e-05
-9.056996e-06
-1.78257e-06
-2.549701e-05
-1.552077e-05
-3.177491e-05
-2.542876e-05
-4.06666e-05
-4.245521e-05
-3.745111e-05
-5.442742e-05
-3.950556e-05
-5.498675e-05
-5.127105e-05
-6.856168e-05
-5.543493e-05
-7.015629e-05
-6.070727e-05
-8.394399e-05
-8.966273e-05
-0.0001338364
-1.571787e-05
-0.0003549256
0.0004282733
0.0001358537
0.0001983918
0.0001635837
0.0001672774
0.0001568235
0.0001498189
0.0001540907
0.0001459259
0.0001360095
0.0001536164
0.0001485331
0.0001468831
0.0001335386
0.0001495653
0.0001522692
0.0001467005
0.0001475318
0.0001489879
0.0001515738
0.0001462111
0.0001578615
0.0001508147
0.0001631607
0.0001601964
0.0001666624
0.0001707184
0.0001757305
0.0001791845
0.0001915334
0.0001968144
0.0002134092
0.0002308076
0.000253
0.0003343421
0.0003403986
0.0002544084
0.0002330161
0.0002153493
0.0001988119
0.0001934594
0.0001815743
0.0001778109
0.0001729933
0.0001688882
0.0001623963
0.0001653086
0.0001526612
0.0001597855
0.0001478259
0.0001524334
0.0001504667
0.0001473406
0.000146667
0.0001517605
0.0001490807
0.0001330908
0.0001464795
0.0001480314
0.0001528528
0.0001351169
0.0001447885
0.0001529059
0.0001484558
0.000158158
0.0001663027
0.0001692983
0.0002183852
0.0001052598
0.0004533978
0.0003298154
0.000260331
0.0002353498
0.0002170638
0.0001998789
0.0001937312
0.0001829716
0.0001786392
0.000173496
0.0001691507
0.0001619036
0.0001648578
0.0001535223
0.0001600323
0.0001482791
0.0001516951
0.0001504519
0.0001473215
0.0001460941
0.0001516413
0.0001488278
0.0001326167
0.0001463165
0.0001475438
0.0001522301
0.0001346268
0.0001436509
0.0001513836
0.0001486581
0.000157079
0.0001647259
0.0001678622
0.0002101562
0.0001093809
0.0004067964
0.0003822143
0.0001393734
0.0001911694
0.0001614026
0.0001659549
0.0001557343
0.0001498762
0.0001525492
0.0001447514
0.0001354965
0.0001529825
0.0001480426
0.0001467184
0.0001330561
0.0001492937
0.0001521068
0.0001461016
0.0001474727
0.0001489706
0.0001508418
0.0001466804
0.0001581331
0.0001516933
0.0001627307
0.0001597313
0.0001669458
0.0001712492
0.0001765745
0.0001806168
0.0001918334
0.000197897
0.000215121
0.0002332184
0.0002587192
0.0003245666
0.0002984966
-2.621958e-05
3.128907e-05
-6.354621e-06
-3.654086e-06
-2.545815e-05
-1.557742e-05
-3.038505e-05
-2.681657e-05
-4.01337e-05
-4.196877e-05
-3.596381e-05
-5.479374e-05
-3.933905e-05
-5.316671e-05
-5.223497e-05
-6.747639e-05
-5.370427e-05
-7.021523e-05
-6.062019e-05
-8.196222e-05
-8.927158e-05
-0.0001250803
-1.91458e-05
-0.0003105142
-0.0006834273
-0.0003391409
-0.0003204344
-0.0002798342
-0.0002530864
-0.0002355826
-0.0002240295
-0.000213217
-0.0002000746
-0.0001960497
-0.0001889288
-0.0001842019
-0.0001790496
-0.000176121
-0.0001723144
-0.0001695562
-0.0001673574
-0.0001652289
-0.0001637103
-0.0001623831
-0.000160913
-0.0001603956
-0.0001592576
-0.0001590272
-0.0001587833
-0.0001589895
-0.0001592941
-0.0001600106
-0.0001608161
-0.0001621958
-0.0001633296
-0.0001655761
-0.0001672309
-0.0001693272
-0.0001729186
-0.0001753467
-0.0001798143
-0.0001844365
-0.0001906372
-0.0001959012
-0.000204391
-0.0002115023
-0.0002261077
-0.0002341609
-0.0002571799
-0.0002738038
-0.0003310141
-0.0003215864
-0.0007031072
-0.0003114524
-4.577812e-05
-0.0001073861
-9.318615e-05
-6.701039e-05
-8.278702e-05
-5.129634e-05
-6.441932e-05
-5.890198e-05
-4.756933e-05
-6.129611e-05
-4.893075e-05
-5.477648e-05
-2.990187e-05
-3.824048e-05
-2.931861e-05
-3.170799e-05
-3.04254e-05
-2.078935e-05
-2.848111e-05
-6.544455e-06
-6.955363e-06
2.510057e-05
-2.000806e-05
0.0002972909
-0.000257061
-5.028351e-05
-9.675187e-05
-9.171451e-05
-6.398149e-05
-8.146954e-05
-4.999971e-05
-6.207774e-05
-5.827464e-05
-4.722398e-05
-6.097675e-05
-4.813038e-05
-5.456634e-05
-2.894288e-05
-3.838831e-05
-2.87818e-05
-3.179283e-05
-3.055809e-05
-2.101693e-05
-2.87695e-05
-6.326957e-06
-6.96532e-06
1.754867e-05
-7.837678e-06
0.0002126375
-0.0005729704
-0.000354519
-0.00031812
-0.0002825428
-0.0002545507
-0.0002363659
-0.0002246315
-0.0002139727
-0.0002006493
-0.0001962285
-0.0001892007
-0.0001843853
-0.0001791622
-0.0001761844
-0.0001723836
-0.000169571
-0.0001673924
-0.0001652146
-0.0001636773
-0.0001623651
-0.0001608825
-0.0001603567
-0.0001592168
-0.0001589916
-0.0001587617
-0.0001589735
-0.0001592699
-0.0001599777
-0.0001607962
-0.0001621813
-0.0001633351
-0.0001655884
-0.0001672217
-0.0001693598
-0.000172982
-0.0001754891
-0.0001800266
-0.0001847471
-0.0001909155
-0.0001962461
-0.0002047435
-0.0002121837
-0.0002267529
-0.0002353209
-0.0002581525
-0.0002776568
-0.0003281736
-0.0003356399
-0.0005934018
0.0002113338
-1.411301e-05
2.436859e-05
-5.387066e-06
-4.005191e-06
-2.580436e-05
-1.60309e-05
-2.931808e-05
-2.704094e-05
-3.964165e-05
-4.215385e-05
-3.547248e-05
-5.356081e-05
-3.871009e-05
-5.219322e-05
-5.185439e-05
-6.678538e-05
-5.314828e-05
-6.831871e-05
-5.946072e-05
-7.927667e-05
-8.930974e-05
-0.0001157364
-2.251777e-05
-0.0002596442
0.0003242882
0.0001431198
0.0001819301
0.000158787
0.0001641188
0.0001541442
0.0001483265
0.0001519747
0.0001434844
0.0001340423
0.0001519057
0.0001481048
0.0001463179
0.0001316591
0.0001491454
0.0001526531
0.0001456152
0.0001471441
0.0001485729
0.0001502216
0.0001472087
0.0001585225
0.0001516891
0.0001630358
0.0001595903
0.0001673413
0.0001719024
0.0001772058
0.0001810563
0.0001927424
0.0001993582
0.0002172084
0.0002358841
0.0002616155
0.0003131995
0.0003175577
0.000263358
0.000237917
0.0002191424
0.0002013152
0.0001945942
0.0001833921
0.0001792489
0.0001741173
0.0001695245
0.000161739
0.0001651434
0.0001535035
0.0001604067
0.0001487733
0.0001510185
0.0001500528
0.0001470708
0.0001456398
0.0001522506
0.0001487012
0.0001312325
0.0001459251
0.0001476139
0.000151162
0.0001331949
0.000142412
0.000150813
0.0001473045
0.0001553466
0.0001625207
0.0001667594
0.0002011378
0.0001132633
0.0003553872
0.0003131116
0.0002588611
0.0002369421
0.0002232987
0.0002037248
0.0002017043
0.000178716
0.0001769211
0.0001740078
0.0001700887
0.0001641189
0.0001709082
0.0001467878
0.0001589168
0.0001469388
0.0001517451
0.0001494719
0.0001462046
0.0001468236
0.0001541989
0.0001486919
0.0001280829
0.0001441082
0.0001479555
0.0001462709
0.0001293801
0.0001422115
0.0001564932
0.0001354887
0.0001504484
0.0001591744
0.0001647802
0.0001918937
0.0001110138
0.0002978804
0.0002434316
0.0001421184
0.000169635
0.0001557699
0.0001602062
0.0001496534
0.0001363376
0.0001575106
0.0001433189
0.0001302312
0.0001470255
0.0001484319
0.0001444663
0.0001284692
0.0001490529
0.0001544594
0.0001465749
0.0001459858
0.0001480219
0.0001513574
0.0001455013
0.0001570782
0.0001450359
0.0001688401
0.000162004
0.0001679325
0.0001718264
0.000174913
0.0001763609
0.000199944
0.0002018169
0.00022142
0.0002350529
0.0002571553
0.0003097147
8.708351e-05
2.247548e-06
1.74765e-05
-1.98119e-05
6.536255e-06
-2.869743e-05
-1.813743e-05
-4.000032e-05
-1.509939e-05
-4.210354e-05
-4.715347e-05
-4.449178e-05
-4.348448e-05
-3.575577e-05
-6.301692e-05
-3.768494e-05
-6.91383e-05
-6.14389e-05
-5.283998e-05
-5.126119e-05
-7.386314e-05
-8.63134e-05
-0.0001102056
-2.085748e-05
-0.0001957771
-0.000435701
-0.0003573466
-0.000306417
-0.0002777555
-0.0002554031
-0.0002358116
-0.0002230675
-0.0002158062
-0.0002002145
-0.000196959
-0.0001895212
-0.0001843974
-0.0001790604
-0.0001761004
-0.0001722837
-0.0001694882
-0.0001673754
-0.0001650974
-0.0001635631
-0.0001622901
-0.0001606747
-0.0001603183
-0.0001591283
-0.0001589044
-0.0001587144
-0.0001588895
-0.0001592347
-0.0001599197
-0.0001608218
-0.0001620179
-0.0001631887
-0.0001655388
-0.0001670977
-0.0001693946
-0.0001732217
-0.000175123
-0.0001799302
-0.0001848245
-0.0001910763
-0.0001962422
-0.000204799
-0.000212822
-0.000228511
-0.0002345014
-0.0002604675
-0.0002750415
-0.0003236695
-0.0003348651
-0.0004509725
-0.0001891035
-6.858569e-05
-8.06352e-05
-8.40875e-05
-4.520666e-05
-8.948411e-05
-4.517165e-05
-5.006984e-05
-6.769562e-05
-5.116469e-05
-5.832523e-05
-3.725946e-05
-6.157487e-05
-1.941506e-05
-4.741862e-05
-3.152446e-05
-3.11661e-05
-2.664862e-05
-1.163387e-05
-3.76858e-05
2.201418e-06
-2.150096e-05
1.607887e-06
-6.923143e-06
0.000112542
-1.974292e-05
6.683626e-06
-1.080453e-05
-4.652667e-05
-0.0001130712
-3.514292e-05
-0.0001765073
-0.0001693333
-1.585743e-05
-0.0001567989
-2.282016e-05
-2.650495e-05
-9.298547e-06
-2.919239e-05
-2.742975e-05
-0.0001544373
-0.0001880684
7.623727e-05
5.726269e-05
2.661948e-05
-0.000155707
-0.000156555
-0.0001466705
0.0001010845
0.0001366056
-1.165898e-05
7.429096e-06
0.0001276261
8.603677e-05
-2.346816e-05
0.0001141749
-1.51574e-05
0.0001442853
0.0001447859
-5.259414e-05
-1.135298e-05
0.000158293
-1.407906e-05
0.0001626094
7.768208e-05
-2.263073e-05
0.0001400639
-2.881976e-06
-6.512986e-05
-2.158506e-05
-6.4781e-05
-0.0001712712
0.0001244457
-0.0001023099
-2.407211e-05
4.770316e-05
-8.06554e-05
-4.788572e-05
-3.286962e-05
6.330507e-05
-2.645069e-05
-1.913699e-05
8.778666e-05
0.000123867
-5.024668e-05
-3.273149e-05
-4.193401e-05
-1.198943e-05
7.693077e-05
-3.096647e-05
-4.881849e-05
-0.0001468118
-2.213137e-05
-2.360381e-05
-0.0001462702
-0.000128717
0.0001026211
-6.951691e-05
-8.113219e-06
-0.0001889734
-3.203583e-05
-0.0001579289
-4.685763e-05
-0.0001992623
-9.468352e-05
7.521066e-05
-2.799777e-05
-1.599954e-05
-9.7196e-06
-4.745653e-05
-0.0001588341
-1.570546e-05
-1.330388e-05
-3.941341e-06
-1.351521e-05
-1.234451e-05
-4.206395e-05
-1.44125e-05
-1.038578e-05
-1.548089e-05
-0.0001308759
-8.916498e-05
-4.158502e-05
-1.37361e-05
-4.424446e-05
-2.309143e-05
0.0001226351
-8.184867e-06
-2.689183e-05
-7.079967e-05
-5.051009e-05
-1.812624e-05
0.0001003351
-1.272672e-05
-5.469904e-05
-2.652516e-05
-9.970516e-05
-6.133194e-05
-4.380446e-05
-4.51229e-05
9.848528e-05
-0.0001749243
-1.765992e-05
-4.564607e-05
0.0001577005
0.0001822927
-1.287639e-05
-7.453719e-05
-1.825898e-05
-1.706809e-05
-3.297917e-05
0.0001133006
-2.805956e-05
-1.303354e-05
-3.495769e-05
-1.153497e-05
0.0001484193
-1.110327e-05
-3.249605e-05
-5.657108e-05
8.708322e-05
-3.298912e-05
-1.569655e-05
-3.643336e-05
0.0001189242
-6.960606e-05
0.000196699
-2.168188e-05
-2.766972e-05
-1.232584e-05
-4.968816e-05
-0.0001243803
9.376729e-05
-3.153498e-05
-1.936414e-05
-2.592435e-05
-6.123388e-06
-9.390943e-06
1.417096e-05
0.0001409407
-5.179302e-05
0.0002047596
-3.31023e-05
-4.963962e-05
-2.257226e-05
0.0001566139
7.914196e-06
-6.115774e-05
4.395579e-06
-1.571104e-05
-3.890773e-05
6.358549e-05
-0.0001405331
-3.071829e-05
-4.341401e-05
-1.690129e-05
-9.427109e-05
0.0001117007
-2.834206e-05
5.388748e-05
5.856383e-05
-3.389183e-05
-0.0001027142
-4.362042e-05
-8.687011e-05
-3.434023e-05
-8.715767e-05
0.0001324154
-1.384967e-05
-0.0001654689
-0.0001759535
-2.150451e-05
-6.32393e-05
0.0001205595
-1.658691e-05
0.000119012
-1.441357e-05
1.658715e-05
0.000104852
-0.000106257
-2.360976e-05
-1.391984e-05
0.0001385385
0.000166194
-2.517073e-05
-2.187462e-05
-8.00809e-06
0.000116235
-1.436284e-05
-1.723378e-05
-0.0001606431
-2.561594e-05
-6.868133e-05
-4.96619e-05
-2.738397e-05
8.48088e-05
-1.264361e-05
-0.0001083224
2.327255e-05
2.437602e-05
-0.0001234581
-0.0001303865
3.84633e-05
0.000141239
-8.989705e-06
-5.002118e-05
-0.0001577044
-1.736344e-05
-3.516087e-05
-5.627473e-05
-0.0001615732
0.0001245214
3.018272e-05
-0.000120245
0.0001396523
-0.0001625052
-8.25354e-05
-0.0001870594
-0.0002079917
-4.170119e-05
-0.0001633575
-2.136883e-05
-0.0001762692
7.375537e-05
0.0001292564
8.529384e-05
-6.440497e-05
-2.62323e-05
-2.806453e-05
5.329591e-06
-4.917088e-05
-2.796204e-05
-4.160378e-05
1.818023e-06
-9.294878e-06
-0.0001407617
2.818926e-06
-2.461651e-05
8.82211e-05
-3.939696e-05
0.0002176217
-3.930235e-05
-1.669316e-05
-3.878279e-05
9.08909e-05
-3.185357e-05
-1.313672e-05
0.0001337701
-0.0001941081
-3.918217e-05
-2.389782e-05
-3.996968e-05
0.0001008085
0.0001229585
6.619655e-05
0.0001150778
-7.758923e-05
6.912966e-06
-0.000154407
-4.125829e-05
-3.873153e-05
0.0001796244
-0.0001646432
-1.672827e-05
-0.0001531133
-9.844227e-05
-3.468538e-05
-0.0001852276
-3.123044e-05
-1.718549e-05
-1.96976e-05
0.0001285171
-1.845358e-05
-7.676763e-05
-2.43992e-07
0.0001868202
8.344884e-05
-0.0001359097
-2.956512e-05
-0.0001275212
-1.23349e-05
-3.386552e-05
-4.274717e-05
-7.927309e-05
-0.0001539305
0.0001712162
-2.441053e-05
-3.521663e-05
4.64289e-05
-2.016418e-05
-0.0001108516
-7.021972e-05
-0.0001017545
-3.949576e-05
-2.986393e-05
-2.299626e-05
0.0001288887
0.0001553027
0.0001458739
-0.0001409442
-1.000434e-05
-2.291585e-05
3.480464e-06
-7.466469e-05
-4.919439e-05
-0.0001527484
5.302891e-06
0.0001066728
-4.465219e-05
-1.50493e-06
-3.522486e-05
-0.0001117764
2.719261e-05
-0.0001997461
0.0001219365
-1.613192e-05
-0.0001512085
-1.379652e-05
-1.11503e-05
-1.045434e-05
-1.189539e-05
-1.52915e-05
-6.085927e-05
-4.072528e-05
-3.243549e-05
0.0001372643
-4.58058e-05
9.855757e-05
7.320145e-05
-1.342102e-05
-2.186802e-05
0.0001359146
0.0001119605
0.0001153368
0.0001022489
0.000144465
-2.422207e-05
-3.615119e-05
-3.867936e-05
-8.385363e-05
-9.499342e-05
0.0001626223
0.0001494105
0.0001498945
0.0001653416
-6.177403e-05
-0.0001746648
-0.0001442494
-2.495153e-05
-5.561459e-05
6.539532e-05
-2.694278e-05
-2.887187e-05
-3.792895e-05
-1.911959e-05
-1.777343e-05
2.681419e-05
-4.423072e-05
-4.783341e-05
-3.929557e-05
-2.864811e-05
-3.77987e-05
0.0001883417
-5.405655e-05
-1.564891e-05
-3.347527e-05
-3.367761e-05
-9.998364e-06
-8.704195e-06
0.000128189
-2.987401e-05
-3.332163e-05
0.0001503199
0.0001339968
-0.0001596045
0.0001268019
1.683493e-05
-1.865008e-05
-2.864908e-05
0.0001320318
-2.354047e-05
-1.117556e-05
-0.0001115852
-1.284125e-05
-1.558792e-05
-1.264476e-05
2.176524e-05
1.478391e-06
0.0001375144
0.0001808043
-2.881764e-05
6.039579e-05
-1.107245e-05
-0.0001634926
-0.0001555625
-0.0001419423
0.0001341723
-1.361664e-05
-0.0001607573
-1.164232e-05
9.800293e-05
-2.779993e-05
-4.73569e-05
-2.864188e-05
-2.379655e-05
-2.32777e-05
-1.538363e-05
0.0001398794
7.916851e-05
-6.027396e-05
-3.391105e-05
-3.23321e-05
-2.021496e-05
-2.685787e-05
3.655937e-05
-2.537505e-05
-6.304202e-05
-7.91234e-05
-5.79968e-05
5.427177e-05
-0.0001559247
-3.471713e-05
-4.058233e-05
-1.925097e-05
-2.36999e-05
-3.119275e-05
-4.427147e-05
-7.013062e-05
0.0001379631
-1.324604e-05
-4.951632e-06
-3.510621e-05
-4.06638e-05
-3.25927e-05
-1.488078e-05
-6.52802e-05
0.0001545259
1.241521e-05
-3.191403e-05
-3.790418e-05
-3.264554e-05
-2.162672e-05
-1.6365e-05
-2.261433e-05
-2.691178e-05
-1.323108e-05
-6.51242e-05
-1.463288e-05
7.566498e-05
-4.160313e-05
-6.995555e-05
-2.538343e-05
-4.773375e-05
-4.481469e-05
-1.110476e-05
0.000148775
-2.480012e-05
-1.800433e-05
-0.000144786
0.0001572537
-0.0001551273
-0.0001554117
-1.206792e-05
-2.151819e-05
8.523107e-05
-1.306612e-05
-1.473894e-05
0.0001033569
-3.795216e-05
0.0001506167
0.0001577875
-0.0001531525
0.0001122593
0.0001457607
0.0001261829
-0.0001451611
0.0001272515
-1.868582e-05
0.0001049145
-2.634387e-05
-7.273906e-05
-1.915752e-05
-3.529458e-05
0.0001221747
2.1741e-06
-2.140331e-05
-9.29116e-05
6.460754e-05
-0.0001185778
-3.094421e-05
0.0001235005
0.0001396907
-5.807293e-05
7.027187e-05
9.313943e-05
-7.730163e-05
-1.262932e-06
-2.355578e-05
-1.442681e-05
-1.361259e-05
-6.588478e-05
-3.692391e-05
3.219268e-05
0.000184704
-2.49208e-05
-4.258509e-05
0.0001826108
0.0001234314
-2.678012e-05
8.224488e-05
-0.0001087639
-3.406935e-05
-4.929929e-05
-0.0001133341
-5.511162e-06
0.0001480456
0.0001559167
0.0001491093
-7.767663e-05
-3.342165e-05
-4.104172e-05
-2.416098e-05
-2.460632e-05
-1.981318e-05
-1.601284e-05
-1.628512e-05
-1.686726e-05
-1.458911e-05
-1.224452e-05
-5.605538e-05
-0.0001617503
-0.0002350965
-8.726899e-05
5.511075e-05
-2.554282e-05
-2.735266e-05
-2.763136e-05
0.0001952081
-1.049852e-05
-2.421348e-05
-1.175297e-05
-9.893246e-06
-1.069302e-05
1.07651e-05
-0.000203079
-7.42503e-05
-7.404147e-06
-4.992081e-05
-5.224916e-05
2.466851e-05
7.513058e-05
-5.136856e-05
-5.690434e-05
-8.979734e-05
0.0001297319
-4.053448e-05
-2.076915e-05
-1.34812e-05
-3.37769e-05
-0.0001704904
-2.92671e-05
0.0001199447
0.0001291903
-1.004132e-05
-5.780065e-05
-5.438224e-05
1.707022e-05
-5.913538e-07
-2.964178e-05
0.0001305998
-1.753617e-05
7.525241e-05
-1.195181e-05
9.198425e-05
0.0001183042
1.427217e-05
-5.572884e-07
-2.062031e-06
-0.0001149037
7.322674e-05
0.0001111282
-3.148031e-05
0.0001000088
-1.244037e-05
-2.047776e-05
-0.0001558142
3.204761e-05
-0.0001106311
-3.630399e-05
-2.021142e-05
-0.0001763746
6.38575e-05
0.0001773878
-0.0001954604
-1.321023e-05
-2.293855e-05
-5.875791e-05
2.546009e-05
-3.21463e-05
-1.918055e-05
-1.796994e-05
-3.112713e-05
-0.0001542095
-8.726607e-05
-0.0001229999
-0.0001577086
-0.0001547612
-2.345152e-05
4.525954e-05
3.975416e-05
-2.128668e-06
8.970103e-05
0.0001956102
0.0001111782
-1.702699e-05
-2.023405e-05
-1.202351e-05
-1.256218e-05
-1.516778e-05
-1.073515e-05
-1.636993e-05
0.0001139797
-2.397842e-05
0.0001892406
-1.009565e-05
-3.072312e-05
-3.927128e-05
8.297584e-05
-3.167773e-05
-3.229053e-05
-0.000179747
-0.000122748
-0.0001834563
-0.0001317736
8.328515e-05
-0.000246642
-3.013584e-05
-2.830552e-05
-5.847606e-05
-3.876896e-05
-0.0001221669
-0.0001491623
-0.0001048739
9.861428e-05
-0.0001609768
-3.962754e-05
-3.691596e-05
-1.418652e-06
-3.122767e-05
0.0001121375
-4.591988e-05
-3.940099e-05
-0.0001695546
-2.290099e-05
-3.015893e-05
-0.0001040496
-3.935507e-05
-1.673856e-05
-0.0001101877
-2.202982e-05
7.42031e-05
-2.582847e-05
-2.882461e-05
-2.25845e-05
0.0001535539
-0.0001272196
-1.031978e-05
-9.64424e-06
3.482786e-05
-0.0001085385
-0.0001175332
-8.241417e-06
-3.989323e-05
7.543339e-05
-1.9244e-05
-0.0001458482
-2.561923e-05
-2.588815e-05
-6.034265e-05
-0.0001816255
-0.0001840229
0.0001262083
-4.373102e-05
-3.425588e-05
0.0001329543
-9.846243e-05
9.934698e-05
-3.936795e-05
-6.016623e-05
0.0001206728
-0.0001585009
-2.201163e-05
8.877348e-07
-2.113634e-05
-0.0001638381
-1.030818e-05
-8.58413e-06
0.0001328612
0.000102884
0.000116465
0.0001189719
0.0001356897
0.0001578072
-1.336104e-05
9.009294e-06
-7.214645e-06
-3.199992e-05
-3.0211e-05
-3.400471e-05
-3.103048e-05
-0.0001553401
-1.256115e-05
-1.163488e-05
-2.51463e-05
-3.194965e-05
0.0001776246
0.0001661718
0.0001210776
0.0001313778
-3.294239e-05
-5.365783e-05
-2.39894e-05
-2.331424e-05
7.522315e-05
-2.3415e-05
-7.748667e-06
-3.5513e-06
-4.363633e-05
0.0001201923
0.0001508654
-1.509782e-05
-1.12455e-05
3.897648e-05
-5.102872e-05
-0.0001332226
-2.346304e-05
7.666364e-05
-8.359721e-06
-3.514151e-05
-1.815108e-05
-6.93284e-05
-1.613691e-05
6.338821e-05
-0.0001356263
0.0001800984
-2.714698e-05
7.400661e-05
3.201575e-05
3.69373e-05
-0.0001575119
-4.305611e-05
-0.0001797418
8.017619e-07
-3.092379e-05
-9.381176e-05
-4.975759e-05
-1.697753e-05
-9.740045e-06
-2.55668e-05
-1.703248e-05
-2.181999e-05
4.300226e-05
8.504513e-05
-5.394792e-05
-7.868482e-05
-2.537557e-05
3.647996e-05
-7.037364e-05
-0.0001628031
-3.900326e-05
-1.418771e-05
-0.0001418334
3.708784e-05
-1.113206e-05
-2.790692e-06
-2.654986e-05
-4.124966e-05
0.0001840178
0.0001610896
0.000179964
0.0001492079
-0.0001622636
-1.403396e-05
1.575405e-05
-4.039214e-05
-0.0001214454
-1.515162e-05