/*--------------------------------*- C++ -*----------------------------------*\
| =========                 |                                                 |
| \\      /  F ield         | OpenFOAM: The Open Source CFD Toolbox           |
|  \\    /   O peration     | Version:  2406                                  |
|   \\  /    A nd           | Website:  www.openfoam.com                      |
|    \\/     M anipulation  |                                                 |
\*---------------------------------------------------------------------------*/
FoamFile
{
    version     2.0;
    format      ascii;
    arch        "LSB;label=32;scalar=64";
    class       volVectorField;
    location    "0.36";
    object      U;
}
// * * * * * * * * * * * * * * * * * * * * * * * * * * * * * * * * * * * * * //

dimensions      [0 1 -1 0 0 0 0];

internalField   nonuniform List<vector> 
4531
(
(3.369813e-05 6.795353e-07 0)
(1.269356e-05 -1.239209e-07 1.092652e-28)
(1.604152e-05 2.332012e-08 0)
(1.286671e-05 1.454873e-08 0)
(1.300399e-05 -6.788164e-09 0)
(1.231642e-05 1.736434e-08 0)
(1.160264e-05 -7.34916e-09 0)
(1.184092e-05 6.93014e-09 -1.687105e-28)
(1.094382e-05 8.376937e-09 0)
(1.078913e-05 -4.372618e-09 0)
(1.083401e-05 5.799523e-09 -1.125148e-27)
(1.051815e-05 3.260808e-10 2.110325e-27)
(1.005009e-05 9.394589e-09 1.740936e-27)
(1.014123e-05 -3.927624e-09 -1.747431e-27)
(1.060695e-05 8.207148e-10 0)
(1.041177e-05 1.50413e-09 0)
(1.031447e-05 2.375473e-09 0)
(1.021288e-05 4.916739e-09 0)
(1.08114e-05 -1.06143e-08 0)
(1.086784e-05 1.34049e-08 0)
(1.111653e-05 -3.518473e-09 7.057592e-31)
(1.126363e-05 3.684896e-08 0)
(1.371781e-05 -1.347199e-07 -6.178869e-27)
(6.987315e-06 7.403453e-07 7.308726e-27)
(2.668908e-05 -1.131271e-06 0)
(1.011554e-06 -1.659701e-05 -1.110422e-24)
(-8.604543e-07 4.562078e-06 -4.418076e-27)
(8.828342e-08 -2.842178e-06 9.412571e-26)
(-5.506683e-08 -8.147805e-07 -9.587474e-26)
(-1.845295e-08 -8.855094e-07 -3.878969e-26)
(-1.31252e-08 -6.459389e-07 7.546692e-26)
(-8.537637e-09 -4.756857e-07 -3.66751e-26)
(-9.223717e-09 -2.52425e-07 0)
(-8.601474e-09 -2.560063e-07 -3.180307e-26)
(-1.85563e-09 -2.55521e-07 3.180823e-26)
(-4.004834e-09 -1.286008e-07 0)
(-2.66902e-09 -1.168836e-07 0)
(-2.214853e-09 -9.845846e-08 -1.433105e-26)
(-1.010263e-09 -6.081534e-08 1.43323e-26)
(-1.521583e-09 -2.891745e-08 0)
(-9.464752e-10 -3.063225e-08 1.361216e-26)
(-6.401552e-10 -1.935098e-08 -2.692145e-26)
(-4.87017e-10 -1.66018e-08 3.295147e-27)
(-1.584225e-10 -3.382513e-09 3.252739e-27)
(-1.565173e-10 1.545215e-08 -1.688681e-27)
(-3.087655e-10 1.371303e-08 -8.128771e-27)
(1.116066e-10 1.886065e-08 4.052268e-27)
(-2.242317e-10 2.683907e-08 -2.412556e-27)
(-8.889415e-11 1.663274e-08 1.207131e-27)
(-1.488776e-10 1.146582e-08 4.048017e-28)
(-1.207019e-10 3.263389e-09 -2.412276e-27)
(-1.637782e-10 -5.098376e-09 8.030565e-28)
(-1.35253e-10 -7.301372e-09 -3.237137e-27)
(-2.724333e-10 -1.2836e-08 3.231222e-27)
(-1.835109e-10 -9.644158e-09 4.909092e-27)
(-6.24866e-10 -1.346158e-08 -6.517343e-27)
(-2.465817e-10 -1.093041e-08 -6.636789e-27)
(-5.366924e-10 2.008547e-08 6.673992e-27)
(-1.24286e-09 1.133734e-08 0)
(-6.3595e-10 4.63332e-08 0)
(-1.941651e-09 6.46319e-08 -1.430947e-26)
(-2.509375e-09 4.951881e-08 1.430823e-26)
(-3.551972e-09 4.867756e-08 0)
(-3.086099e-09 8.26892e-08 0)
(-5.059536e-09 1.338323e-07 -3.214793e-26)
(-4.776881e-09 2.145762e-07 3.214271e-26)
(-1.055441e-08 2.455741e-07 0)
(-6.122008e-09 4.56294e-07 3.669396e-26)
(-1.849841e-08 5.512289e-07 -3.668458e-26)
(-8.325998e-09 9.131147e-07 0)
(-7.310944e-08 6.424358e-07 -9.701336e-26)
(1.172821e-07 2.949789e-06 9.86401e-26)
(-8.827534e-07 -4.530278e-06 -2.028363e-25)
(1.001353e-06 1.606351e-05 1.299759e-24)
(2.709125e-05 1.143636e-06 6.529431e-25)
(7.34326e-06 -7.353231e-07 6.677868e-27)
(1.364312e-05 1.424091e-07 -1.016223e-27)
(1.128453e-05 -4.382422e-08 -3.419303e-27)
(1.11111e-05 1.015821e-08 -1.209139e-31)
(1.053773e-05 -1.414679e-08 0)
(1.058694e-05 4.678913e-09 0)
(1.047348e-05 -7.421651e-09 0)
(1.032911e-05 6.334586e-09 -2.671312e-27)
(9.933819e-06 -8.593074e-09 6.096493e-27)
(1.040851e-05 -1.018505e-09 -3.425199e-27)
(1.016554e-05 -2.005147e-09 0)
(1.043729e-05 -6.447796e-09 0)
(1.065769e-05 4.425306e-09 8.039741e-28)
(1.07439e-05 -5.971112e-09 0)
(1.089388e-05 1.758556e-09 3.11139e-28)
(1.120023e-05 -1.069762e-08 -3.11366e-28)
(1.175651e-05 -1.018872e-09 -1.465383e-28)
(1.219303e-05 -7.674189e-09 2.078061e-27)
(1.231731e-05 7.196145e-09 2.280968e-27)
(1.230548e-05 -3.663825e-09 -6.669328e-27)
(1.311482e-05 -1.160816e-08 3.649631e-27)
(1.657233e-05 -4.465652e-08 -6.505664e-27)
(1.324874e-05 1.465744e-07 2.673389e-26)
(3.239934e-05 -6.59391e-07 1.284114e-25)
(2.417546e-05 -2.324112e-05 0)
(8.887933e-06 -9.061075e-06 2.741496e-24)
(1.102351e-05 -1.097659e-05 -4.382781e-24)
(9.179473e-06 -9.188177e-06 2.70319e-26)
(8.736467e-06 -8.72055e-06 -3.516223e-24)
(8.166028e-06 -8.160965e-06 3.307011e-24)
(8.181141e-06 -8.18324e-06 3.057707e-24)
(7.853452e-06 -7.839744e-06 3.247814e-24)
(7.262027e-06 -7.256093e-06 -3.028904e-24)
(7.476788e-06 -7.48636e-06 2.809886e-24)
(7.232219e-06 -7.215921e-06 -3.29601e-24)
(6.731858e-06 -6.722509e-06 2.474263e-26)
(6.457927e-06 -6.456947e-06 -2.277197e-26)
(6.65317e-06 -6.660677e-06 2.279446e-26)
(6.668393e-06 -6.663804e-06 0)
(6.306542e-06 -6.300204e-06 0)
(6.14795e-06 -6.144417e-06 -3.014499e-24)
(6.165302e-06 -6.167161e-06 5.957561e-29)
(6.051004e-06 -6.053951e-06 -3.107714e-24)
(6.049197e-06 -6.038532e-06 2.409341e-26)
(6.078864e-06 -6.089403e-06 0)
(6.037344e-06 -6.031877e-06 2.504291e-26)
(6.124975e-06 -6.134313e-06 -2.470761e-26)
(6.180957e-06 -6.181784e-06 0)
(5.976675e-06 -5.974942e-06 0)
(5.974247e-06 -5.97899e-06 -1.657416e-27)
(5.934024e-06 -5.939564e-06 0)
(5.953567e-06 -5.955558e-06 -1.541753e-27)
(6.141812e-06 -6.161914e-06 3.639388e-24)
(6.216942e-06 -6.226918e-06 -1.485544e-26)
(6.228708e-06 -6.245779e-06 3.98175e-24)
(6.303948e-06 -6.337007e-06 -1.751735e-26)
(6.358009e-06 -6.379194e-06 1.751794e-26)
(7.071315e-06 -7.222726e-06 0)
(6.835501e-06 -6.978072e-06 6.1013e-24)
(6.698982e-06 6.825872e-06 6.258754e-24)
(7.060296e-06 7.223624e-06 -5.79701e-27)
(6.301428e-06 6.320007e-06 1.769498e-26)
(6.266815e-06 6.300314e-06 -4.35386e-24)
(6.192e-06 6.208961e-06 4.002549e-24)
(6.178828e-06 6.188506e-06 -3.959774e-24)
(6.114698e-06 6.134168e-06 -1.489568e-26)
(5.937562e-06 5.939724e-06 1.505727e-27)
(5.920512e-06 5.925711e-06 0)
(5.970007e-06 5.974573e-06 0)
(5.982637e-06 5.980635e-06 0)
(6.201535e-06 6.202226e-06 0)
(6.152113e-06 6.161445e-06 0)
(6.075032e-06 6.069109e-06 0)
(6.139656e-06 6.150137e-06 0)
(6.114466e-06 6.103803e-06 0)
(6.139925e-06 6.142353e-06 3.090551e-24)
(6.251479e-06 6.25456e-06 3.001042e-24)
(6.202934e-06 6.199767e-06 0)
(6.34592e-06 6.340124e-06 3.146976e-24)
(6.69067e-06 6.686334e-06 -3.051289e-24)
(6.669853e-06 6.677384e-06 0)
(6.475611e-06 6.474528e-06 2.410275e-26)
(6.754077e-06 6.744633e-06 3.073884e-24)
(7.2538e-06 7.23757e-06 2.37521e-26)
(7.493774e-06 7.503472e-06 -2.347707e-26)
(7.269097e-06 7.263382e-06 -3.028301e-24)
(7.849416e-06 7.836299e-06 5.445721e-27)
(8.121189e-06 8.125122e-06 -6.11818e-24)
(8.091765e-06 8.08683e-06 5.139668e-26)
(8.599098e-06 8.587506e-06 -3.490299e-24)
(8.954684e-06 8.965914e-06 0)
(1.142904e-05 1.134472e-05 0)
(8.832343e-06 9.057519e-06 1.146532e-26)
(2.362765e-05 2.267727e-05 1.144784e-23)
(2.099715e-05 1.987782e-05 -2.21867e-23)
(2.221015e-05 2.246987e-05 0)
(2.01654e-05 2.026265e-05 0)
(1.998626e-05 2.003349e-05 2.826635e-26)
(1.978046e-05 1.980346e-05 -7.005642e-24)
(1.97405e-05 1.973738e-05 1.377147e-23)
(1.954367e-05 1.96155e-05 6.353408e-24)
(1.899933e-05 1.901741e-05 -1.256227e-23)
(1.893306e-05 1.893315e-05 -6.129521e-24)
(1.908815e-05 1.908535e-05 0)
(1.914991e-05 1.910415e-05 0)
(1.981994e-05 1.97854e-05 -4.432426e-26)
(1.967818e-05 1.972041e-05 5.454362e-24)
(1.943724e-05 1.940821e-05 -4.364203e-26)
(1.963692e-05 1.966564e-05 0)
(1.959987e-05 1.954257e-05 5.400963e-24)
(1.963504e-05 1.962253e-05 -5.321548e-24)
(2.000578e-05 2.001611e-05 0)
(1.988848e-05 1.986625e-05 0)
(2.034739e-05 2.027459e-05 -5.50269e-24)
(2.135477e-05 2.129483e-05 -5.244661e-24)
(2.133121e-05 2.137724e-05 -3.912676e-26)
(2.081046e-05 2.080098e-05 8.051526e-26)
(2.17165e-05 2.158183e-05 -5.387655e-24)
(2.321297e-05 2.305486e-05 4.28628e-26)
(2.395392e-05 2.398666e-05 0)
(2.340207e-05 2.331555e-05 5.15153e-24)
(2.521752e-05 2.505558e-05 1.117106e-23)
(2.605202e-05 2.602455e-05 5.244072e-24)
(2.605927e-05 2.59461e-05 0)
(2.768627e-05 2.751487e-05 5.978221e-24)
(2.923837e-05 2.889705e-05 0)
(3.633299e-05 3.603389e-05 0)
(3.136937e-05 3.014004e-05 -7.041807e-24)
(7.303464e-05 6.832915e-05 -1.98319e-23)
(7.452814e-05 -7.003909e-05 1.784393e-23)
(3.163762e-05 -3.012166e-05 4.776809e-26)
(3.52e-05 -3.501556e-05 4.761864e-27)
(2.991536e-05 -2.963135e-05 -5.215351e-26)
(2.822355e-05 -2.803538e-05 0)
(2.630097e-05 -2.617427e-05 1.922038e-26)
(2.623974e-05 -2.619736e-05 5.252871e-24)
(2.523792e-05 -2.50653e-05 0)
(2.338303e-05 -2.329274e-05 -5.196624e-24)
(2.390256e-05 -2.393285e-05 -8.000384e-26)
(2.314628e-05 -2.29872e-05 -1.984512e-27)
(2.164693e-05 -2.151302e-05 4.243928e-26)
(2.075373e-05 -2.07452e-05 0)
(2.127746e-05 -2.132269e-05 0)
(2.128412e-05 -2.12202e-05 0)
(2.02248e-05 -2.014581e-05 4.204052e-26)
(1.971588e-05 -1.968646e-05 5.188299e-24)
(1.973835e-05 -1.974087e-05 4.065561e-26)
(1.935468e-05 -1.934766e-05 5.227321e-24)
(1.939075e-05 -1.933746e-05 0)
(1.94457e-05 -1.947945e-05 -4.224718e-26)
(1.931674e-05 -1.929393e-05 5.745187e-24)
(1.959174e-05 -1.963646e-05 -8.573709e-26)
(1.975522e-05 -1.972458e-05 8.903739e-26)
(1.913103e-05 -1.908963e-05 -4.509213e-26)
(1.910202e-05 -1.910248e-05 5.865239e-24)
(1.897584e-05 -1.897837e-05 0)
(1.905135e-05 -1.907104e-05 6.227477e-24)
(1.963069e-05 -1.970745e-05 -4.862467e-26)
(1.986151e-05 -1.985936e-05 6.796242e-24)
(1.989772e-05 -1.992088e-05 -6.85813e-24)
(2.010747e-05 -2.015704e-05 7.440367e-24)
(2.034138e-05 -2.043899e-05 8.119708e-24)
(2.226811e-05 -2.25239e-05 -3.130514e-26)
(2.140503e-05 -2.035356e-05 -3.254388e-23)
(8.269842e-05 4.329644e-06 -3.249617e-24)
(2.88471e-05 2.888413e-08 -1.958096e-27)
(4.276817e-05 4.982356e-08 -1.622564e-26)
(3.676003e-05 1.05301e-07 1.08682e-26)
(3.577245e-05 1.124879e-07 -5.279805e-31)
(3.391579e-05 1.178253e-08 0)
(3.39713e-05 2.991278e-08 6.689984e-27)
(3.362936e-05 -7.570276e-11 1.193885e-27)
(3.318034e-05 6.555468e-08 -1.706912e-26)
(3.1933e-05 -1.826857e-08 9.177415e-27)
(3.331749e-05 -2.242861e-08 0)
(3.262683e-05 -1.460984e-08 -6.499459e-27)
(3.342076e-05 -5.12815e-08 1.026099e-26)
(3.413573e-05 1.354909e-10 -4.719822e-27)
(3.44776e-05 -3.279729e-08 3.346697e-27)
(3.4974e-05 -2.014881e-08 0)
(3.590343e-05 -9.459245e-08 7.125871e-28)
(3.765997e-05 -7.014534e-08 6.939202e-28)
(3.907395e-05 -7.189317e-08 -5.884996e-27)
(3.954846e-05 4.158089e-09 5.678382e-27)
(3.963585e-05 -9.815656e-08 1.251127e-26)
(4.24905e-05 -3.392048e-07 -1.246523e-26)
(5.261049e-05 -1.408327e-07 0)
(4.520211e-05 -8.331757e-07 6.587067e-26)
(9.888344e-05 -3.158567e-06 -3.188513e-25)
(5.177805e-06 -5.09613e-05 1.96528e-24)
(-1.249573e-09 8.091346e-06 -2.124557e-25)
(-1.294552e-07 -8.275721e-06 1.576605e-25)
(8.85576e-08 -3.326223e-06 0)
(2.018296e-08 -3.088968e-06 -5.395949e-28)
(2.938365e-08 -2.285623e-06 0)
(3.261568e-08 -1.703075e-06 -1.201776e-25)
(1.986448e-08 -9.811576e-07 1.202446e-25)
(-7.931652e-09 -9.207737e-07 -4.308082e-28)
(1.465893e-08 -8.939762e-07 5.330828e-26)
(9.052017e-09 -4.981849e-07 -5.312355e-26)
(3.031917e-09 -4.377256e-07 0)
(3.193466e-09 -3.67935e-07 0)
(6.754224e-09 -2.408227e-07 0)
(1.707687e-09 -1.359387e-07 0)
(6.782062e-10 -1.295875e-07 -2.342453e-26)
(1.090554e-09 -8.913225e-08 1.439347e-28)
(1.105349e-09 -7.547483e-08 5.67405e-27)
(2.740067e-09 -2.924499e-08 1.689085e-26)
(1.644456e-09 3.109888e-08 -8.472464e-27)
(-2.478598e-10 3.135156e-08 8.353579e-27)
(1.685079e-09 4.972218e-08 -1.81107e-26)
(-6.514104e-10 7.684675e-08 6.945467e-27)
(-1.124692e-09 5.005163e-08 -6.908636e-28)
(-1.31196e-09 3.632292e-08 5.662346e-30)
(-1.361083e-09 1.369768e-08 6.881345e-28)
(-1.044448e-09 -9.73038e-09 6.923036e-27)
(-5.629781e-10 -1.370796e-08 2.779419e-27)
(-4.782484e-10 -2.735033e-08 0)
(2.669742e-10 -1.530404e-08 8.414147e-27)
(-7.961374e-10 -2.172559e-08 0)
(3.248401e-09 -9.473862e-09 0)
(1.703533e-09 8.823399e-08 -2.321217e-26)
(1.240521e-09 7.340315e-08 4.719324e-26)
(5.588131e-09 1.876275e-07 2.458537e-26)
(-1.247111e-09 2.482936e-07 -4.836422e-26)
(-1.349815e-09 2.138416e-07 5.064356e-26)
(1.144097e-09 2.272259e-07 -5.043475e-26)
(8.120196e-09 3.433878e-07 -2.062546e-28)
(8.079452e-09 5.248415e-07 4.231879e-28)
(1.175161e-08 7.915286e-07 0)
(1.223807e-08 9.457443e-07 1.205019e-25)
(3.473052e-08 1.628992e-06 5.367703e-27)
(1.925496e-08 2.006704e-06 -1.267087e-25)
(3.853698e-08 3.13154e-06 0)
(5.23552e-08 2.842843e-06 0)
(-4.499471e-08 8.571143e-06 -2.958688e-27)
(-1.299118e-07 -8.090337e-06 6.807828e-27)
(5.20112e-06 4.93556e-05 1.798665e-24)
(0.0001027925 3.173204e-06 6.887763e-26)
(4.367211e-05 1.040469e-06 -7.100952e-26)
(5.128009e-05 7.588065e-08 3.30071e-26)
(4.181001e-05 2.650674e-07 -3.956502e-27)
(4.171259e-05 3.5851e-08 -1.69631e-26)
(3.957328e-05 1.643678e-07 1.042846e-26)
(3.729971e-05 1.63443e-08 -7.016682e-27)
(3.785986e-05 7.124687e-08 1.219949e-27)
(3.515423e-05 9.790245e-08 1.371884e-28)
(3.455838e-05 -8.54623e-09 8.512718e-28)
(3.469129e-05 3.586264e-08 -3.857396e-27)
(3.370435e-05 4.394073e-08 5.52487e-27)
(3.229721e-05 4.481751e-08 -3.910927e-27)
(3.260334e-05 -4.572816e-08 -4.749871e-27)
(3.397834e-05 -9.580741e-09 4.782081e-27)
(3.338248e-05 1.946806e-08 -8.680926e-27)
(3.304376e-05 1.826124e-08 8.744662e-27)
(3.284764e-05 -3.408729e-08 -6.492194e-27)
(3.469187e-05 -7.873139e-08 6.488423e-27)
(3.49325e-05 6.784032e-09 0)
(3.578385e-05 -7.472013e-08 -1.211285e-30)
(3.667707e-05 -1.266302e-07 0)
(4.297133e-05 -8.077734e-10 2.894343e-27)
(2.769726e-05 2.286511e-10 -2.698461e-26)
(8.150602e-05 -4.345442e-06 0)
(0.0001805238 9.00414e-06 0)
(8.456593e-05 3.875019e-06 3.504692e-27)
(9.369404e-05 4.083052e-07 -2.080116e-26)
(7.739723e-05 8.704725e-07 0)
(7.638874e-05 1.988026e-07 -1.28694e-26)
(7.256725e-05 5.263335e-07 5.738394e-27)
(6.84144e-05 1.063889e-07 2.450149e-27)
(6.910888e-05 2.421984e-07 2.699774e-28)
(6.442949e-05 3.238241e-07 -1.628206e-28)
(6.316589e-05 -5.12563e-09 -1.010318e-27)
(6.340829e-05 1.07817e-07 -4.552997e-27)
(6.164609e-05 1.623182e-07 5.250733e-28)
(5.92312e-05 1.205565e-07 -2.417528e-27)
(5.98194e-05 -1.272553e-07 7.075686e-27)
(6.214687e-05 -4.010239e-08 1.15407e-26)
(6.110496e-05 7.193337e-08 -1.161419e-26)
(6.044185e-05 5.250301e-08 0)
(6.030807e-05 -1.367696e-07 -3.055776e-28)
(6.358328e-05 -2.432512e-07 0)
(6.413321e-05 -2.93913e-08 -1.126873e-26)
(6.582491e-05 -2.661445e-07 1.125381e-26)
(6.806283e-05 -4.725821e-07 0)
(7.755558e-05 2.821949e-08 -3.422023e-27)
(5.845237e-05 -1.694636e-06 2.204296e-25)
(0.0001423877 -1.187174e-05 -2.639686e-25)
(1.507958e-05 -8.994247e-05 8.473664e-24)
(1.96235e-06 4.73342e-06 4.298305e-25)
(-3.145333e-07 -1.451113e-05 0)
(3.34283e-07 -7.263602e-06 -3.408277e-25)
(1.247383e-07 -6.164401e-06 3.419148e-25)
(1.258001e-07 -4.583528e-06 0)
(1.268866e-07 -3.446489e-06 -2.286401e-27)
(8.3713e-08 -2.108493e-06 -2.178141e-27)
(-5.932098e-09 -1.874812e-06 5.106581e-28)
(5.037599e-08 -1.777146e-06 -1.007565e-27)
(3.856588e-08 -1.066071e-06 -2.423252e-28)
(1.535788e-08 -9.175111e-07 0)
(1.574673e-08 -7.700323e-07 0)
(2.475319e-08 -5.243519e-07 0)
(9.292034e-09 -3.27133e-07 5.637073e-26)
(4.623502e-09 -2.949945e-07 -7.714047e-28)
(4.99681e-09 -2.125053e-07 -3.623386e-28)
(5.268699e-09 -1.791055e-07 -1.34684e-26)
(1.015885e-08 -8.716059e-08 -2.669054e-26)
(6.324632e-09 2.373376e-08 5.331737e-26)
(5.312463e-10 3.420319e-08 -2.660762e-26)
(5.704154e-09 7.134798e-08 1.318012e-26)
(-1.092498e-09 1.242416e-07 -1.319655e-26)
(-3.306216e-09 8.554031e-08 1.643653e-27)
(-3.834433e-09 6.571745e-08 1.628574e-27)
(-4.148895e-09 3.095702e-08 -9.856755e-27)
(-2.903055e-09 -5.883809e-09 -6.431591e-30)
(-1.352073e-09 -7.325598e-09 -3.298235e-27)
(-7.631526e-10 -2.503617e-08 0)
(1.508139e-09 6.634618e-10 -6.65692e-27)
(-8.324008e-10 -7.735512e-10 -1.336215e-26)
(1.15813e-08 2.863772e-08 -2.699567e-26)
(7.371756e-09 2.059323e-07 1.645476e-25)
(7.521e-09 2.01349e-07 9.355837e-28)
(1.954379e-08 4.151458e-07 -5.645142e-26)
(-2.890584e-10 5.309113e-07 -9.024808e-28)
(-2.488341e-10 4.928554e-07 -1.155506e-27)
(1.03217e-08 5.456719e-07 0)
(3.248957e-08 7.718084e-07 1.281521e-25)
(3.742545e-08 1.136226e-06 -1.273646e-25)
(4.879541e-08 1.643053e-06 1.361163e-25)
(6.463068e-08 2.020114e-06 -1.360234e-25)
(1.263785e-07 3.294232e-06 5.772216e-28)
(1.042181e-07 4.109478e-06 -1.785585e-27)
(1.619759e-07 6.171754e-06 0)
(2.601781e-07 6.488011e-06 0)
(-1.218005e-07 1.495716e-05 -3.795893e-25)
(1.612908e-06 -4.869519e-06 1.132262e-24)
(1.515111e-05 8.722584e-05 -5.307273e-24)
(0.0001443752 1.179216e-05 2.764161e-25)
(6.056753e-05 1.786063e-06 0)
(7.722809e-05 1.17803e-07 1.590049e-26)
(6.824944e-05 4.208081e-07 -1.622082e-26)
(6.58225e-05 3.827058e-07 3.940303e-27)
(6.23322e-05 9.654886e-08 1.350079e-26)
(6.225691e-05 8.767885e-08 -1.359294e-26)
(6.165732e-05 2.447872e-08 -9.295829e-27)
(6.085712e-05 2.019715e-07 1.99987e-26)
(5.858684e-05 -3.555896e-08 2.987628e-27)
(6.089498e-05 -7.089585e-08 -1.386904e-26)
(5.976428e-05 -5.863239e-08 2.027785e-26)
(6.108676e-05 -1.57617e-07 -1.212856e-26)
(6.240274e-05 -2.692365e-08 0)
(6.31416e-05 -1.000846e-07 -4.436581e-27)
(6.407453e-05 -8.846431e-08 4.445032e-27)
(6.567622e-05 -3.012225e-07 1.151129e-28)
(6.885176e-05 -2.58118e-07 -5.675728e-27)
(7.147391e-05 -2.440187e-07 2.651601e-27)
(7.247648e-05 -2.922368e-08 9.660692e-27)
(7.284015e-05 -3.729459e-07 -1.212868e-26)
(7.872799e-05 -1.146901e-06 0)
(9.577334e-05 -5.259587e-07 4.704131e-26)
(8.697947e-05 -3.267274e-06 0)
(0.0001738488 -9e-06 -1.060107e-24)
(0.0001333632 -0.0001204454 -4.0848e-23)
(6.258573e-05 -5.697951e-05 -2.097765e-25)
(6.445636e-05 -6.369379e-05 0)
(5.555668e-05 -5.447697e-05 0)
(5.199471e-05 -5.137296e-05 -7.113888e-24)
(4.834476e-05 -4.787581e-05 -1.322311e-23)
(4.803675e-05 -4.785782e-05 -6.485277e-24)
(4.629575e-05 -4.572322e-05 1.016987e-25)
(4.295381e-05 -4.263306e-05 6.214721e-24)
(4.361401e-05 -4.366597e-05 0)
(4.229347e-05 -4.177384e-05 0)
(3.971473e-05 -3.926643e-05 0)
(3.804566e-05 -3.801503e-05 0)
(3.883811e-05 -3.89468e-05 9.410846e-26)
(3.87731e-05 -3.856266e-05 6.194163e-24)
(3.700883e-05 -3.675679e-05 0)
(3.608207e-05 -3.597825e-05 0)
(3.605941e-05 -3.605866e-05 0)
(3.532368e-05 -3.5294e-05 0)
(3.548723e-05 -3.532206e-05 -9.70489e-26)
(3.548638e-05 -3.557299e-05 1.989297e-25)
(3.52754e-05 -3.521762e-05 -6.814163e-24)
(3.575893e-05 -3.588217e-05 -6.297588e-24)
(3.603752e-05 -3.593874e-05 0)
(3.495291e-05 -3.48085e-05 6.784466e-24)
(3.484996e-05 -3.484791e-05 -1.101973e-25)
(3.462751e-05 -3.463346e-05 -7.240841e-24)
(3.479065e-05 -3.486595e-05 5.534657e-26)
(3.57886e-05 -3.601476e-05 7.523381e-24)
(3.620353e-05 -3.619314e-05 -1.612624e-23)
(3.625139e-05 -3.630733e-05 6.598772e-26)
(3.654549e-05 -3.669305e-05 -8.812255e-24)
(3.705703e-05 -3.734687e-05 -5.500019e-26)
(3.966008e-05 -4.00679e-05 3.718074e-26)
(3.760321e-05 -3.373097e-05 2.632325e-23)
(3.692484e-05 3.286108e-05 1.346708e-23)
(3.950516e-05 3.989824e-05 9.937259e-24)
(3.674552e-05 3.70356e-05 -9.593755e-24)
(3.631966e-05 3.645883e-05 -1.401212e-25)
(3.603775e-05 3.609251e-05 8.265401e-24)
(3.598462e-05 3.597095e-05 -8.073128e-24)
(3.56299e-05 3.584061e-05 -7.594522e-24)
(3.469425e-05 3.476276e-05 7.417103e-24)
(3.455052e-05 3.454848e-05 7.326293e-24)
(3.482425e-05 3.481104e-05 7.068775e-24)
(3.498728e-05 3.482797e-05 -6.878993e-24)
(3.615392e-05 3.604158e-05 1.052812e-25)
(3.591599e-05 3.603004e-05 -1.294893e-23)
(3.54954e-05 3.541707e-05 1.035751e-25)
(3.582971e-05 3.589861e-05 -6.23676e-24)
(3.586961e-05 3.568917e-05 -1.1878e-25)
(3.582878e-05 3.578238e-05 2.047025e-27)
(3.65318e-05 3.655519e-05 9.695168e-26)
(3.639022e-05 3.631142e-05 0)
(3.722555e-05 3.699438e-05 -6.358975e-24)
(3.890018e-05 3.870336e-05 6.082684e-24)
(3.893641e-05 3.904816e-05 9.37781e-26)
(3.814929e-05 3.811589e-05 -9.809504e-26)
(3.983911e-05 3.938862e-05 1.26595e-23)
(4.241106e-05 4.189477e-05 -9.662689e-26)
(4.370241e-05 4.3763e-05 -5.608817e-24)
(4.298193e-05 4.267441e-05 -6.263194e-24)
(4.624575e-05 4.570933e-05 -6.490286e-24)
(4.769888e-05 4.756845e-05 1.007243e-25)
(4.789088e-05 4.74761e-05 -6.798342e-24)
(5.102747e-05 5.042614e-05 7.177518e-24)
(5.451263e-05 5.326058e-05 -7.159105e-24)
(6.628673e-05 6.524364e-05 -1.336784e-25)
(6.192754e-05 5.711288e-05 8.516616e-24)
(0.000131043 0.0001174847 -2.094264e-23)
(5.471264e-05 4.495724e-05 1.609222e-23)
(5.90518e-05 5.93563e-05 -1.176345e-23)
(5.643041e-05 5.701283e-05 1.142276e-23)
(5.57289e-05 5.606153e-05 1.056245e-23)
(5.546244e-05 5.558037e-05 -9.658152e-24)
(5.543742e-05 5.54046e-05 0)
(5.489674e-05 5.536796e-05 0)
(5.354444e-05 5.372402e-05 -8.773818e-24)
(5.32943e-05 5.329483e-05 -1.337705e-25)
(5.369657e-05 5.366592e-05 -8.209901e-24)
(5.403749e-05 5.36545e-05 1.621421e-23)
(5.57593e-05 5.549188e-05 -1.244197e-25)
(5.54136e-05 5.565304e-05 1.059065e-25)
(5.47939e-05 5.462729e-05 0)
(5.525762e-05 5.53876e-05 -1.300116e-25)
(5.551569e-05 5.50944e-05 -1.492613e-23)
(5.526465e-05 5.515427e-05 0)
(5.639825e-05 5.643464e-05 7.259603e-24)
(5.62984e-05 5.610179e-05 1.158605e-25)
(5.758254e-05 5.706031e-05 7.513649e-24)
(5.989007e-05 5.942484e-05 0)
(6.009924e-05 6.029224e-05 -6.567958e-24)
(5.913922e-05 5.904924e-05 -1.095404e-25)
(6.180977e-05 6.075133e-05 -7.403005e-24)
(6.552609e-05 6.431299e-05 -1.137687e-25)
(6.742637e-05 6.749285e-05 1.196961e-25)
(6.67762e-05 6.600674e-05 1.163797e-25)
(7.17611e-05 7.049118e-05 -7.814561e-24)
(7.388246e-05 7.351408e-05 0)
(7.448081e-05 7.34229e-05 4.79232e-26)
(7.962391e-05 7.813582e-05 -8.358829e-24)
(8.613242e-05 8.302022e-05 -8.083598e-26)
(0.0001025772 9.975279e-05 -1.099055e-23)
(0.0001028835 9.108548e-05 -4.804171e-24)
(0.0001988174 0.0001695481 2.456792e-23)
(0.0002018164 -0.000173953 2.371801e-23)
(0.0001041488 -9.068413e-05 -2.332198e-25)
(0.0001001653 -9.787942e-05 1.449695e-25)
(8.722892e-05 -8.451404e-05 -1.381723e-26)
(8.094502e-05 -7.944813e-05 -8.392632e-26)
(7.520218e-05 -7.401335e-05 1.702239e-25)
(7.439612e-05 -7.391345e-05 -7.507021e-24)
(7.185883e-05 -7.05039e-05 -1.183274e-25)
(6.674465e-05 -6.594278e-05 2.272146e-25)
(6.729941e-05 -6.734481e-05 -2.231207e-25)
(6.53519e-05 -6.413067e-05 -5.069435e-27)
(6.162252e-05 -6.056857e-05 7.511845e-24)
(5.897959e-05 -5.889536e-05 1.098748e-25)
(5.994788e-05 -6.0133e-05 -2.209913e-25)
(5.969826e-05 -5.920034e-05 -7.317437e-24)
(5.726141e-05 -5.668921e-05 7.526768e-24)
(5.583619e-05 -5.557932e-05 7.401741e-24)
(5.569641e-05 -5.567791e-05 -1.141268e-25)
(5.449567e-05 -5.442273e-05 1.150979e-25)
(5.492457e-05 -5.454199e-05 7.350173e-24)
(5.473738e-05 -5.491065e-05 -2.246589e-27)
(5.445471e-05 -5.433621e-05 -1.740106e-27)
(5.51726e-05 -5.543497e-05 7.552574e-24)
(5.55822e-05 -5.534786e-05 -1.267846e-25)
(5.398458e-05 -5.363737e-05 -8.003802e-24)
(5.373693e-05 -5.373288e-05 1.264e-25)
(5.341129e-05 -5.343088e-05 8.402927e-24)
(5.36952e-05 -5.389278e-05 -2.97435e-27)
(5.514104e-05 -5.564776e-05 -8.668693e-24)
(5.577221e-05 -5.574712e-05 9.664276e-24)
(5.579151e-05 -5.591383e-05 -1.483738e-25)
(5.608418e-05 -5.643683e-05 -1.046102e-23)
(5.689987e-05 -5.748602e-05 -1.121081e-23)
(5.935952e-05 -5.972528e-05 -1.188883e-23)
(5.564858e-05 -4.630055e-05 1.567502e-23)
(0.0002118815 2.458823e-05 2.71856e-24)
(0.0001047871 5.663428e-06 1.556456e-25)
(0.0001186466 6.123191e-07 -2.493052e-26)
(0.0001072256 1.021551e-06 2.514197e-26)
(0.0001025994 9.532131e-07 2.924928e-30)
(9.694496e-05 3.067355e-07 0)
(9.653507e-05 2.035983e-07 0)
(9.564187e-05 8.320464e-08 1.55646e-27)
(9.444576e-05 4.58361e-07 9.116614e-28)
(9.091624e-05 -4.753055e-08 -1.629752e-26)
(9.413107e-05 -1.595076e-07 1.579153e-26)
(9.25806e-05 -1.527774e-07 -1.489723e-26)
(9.441799e-05 -3.575042e-07 9.09771e-27)
(9.645973e-05 -1.009684e-07 -1.6825e-26)
(9.78007e-05 -2.345077e-07 0)
(9.928389e-05 -2.347148e-07 -2.499043e-27)
(0.0001015769 -6.987073e-07 1.962904e-27)
(0.0001064414 -6.441014e-07 -6.354551e-27)
(0.0001105773 -6.001902e-07 -6.628788e-27)
(0.0001123571 -1.355778e-07 2.703405e-26)
(0.0001132392 -9.868769e-07 -4.829855e-26)
(0.0001234595 -2.690782e-06 7.899451e-26)
(0.0001475902 -1.553365e-06 -1.005905e-25)
(0.0001409901 -7.992348e-06 -2.819768e-27)
(0.0002576917 -1.933188e-05 1.254865e-24)
(3.253112e-05 -0.0001335274 -9.379908e-24)
(6.474608e-06 -7.745812e-06 -1.274042e-24)
(-1.635564e-07 -2.270755e-05 -1.234173e-25)
(7.917564e-07 -1.323521e-05 4.038617e-25)
(3.785286e-07 -1.055885e-05 -7.793178e-25)
(3.323782e-07 -7.840333e-06 3.75146e-25)
(3.200735e-07 -5.940702e-06 3.342762e-25)
(2.187568e-07 -3.829295e-06 -3.347863e-25)
(1.25896e-08 -3.258758e-06 0)
(1.205402e-07 -3.015616e-06 1.18838e-27)
(9.941101e-08 -1.9256e-06 0)
(4.308485e-08 -1.633746e-06 0)
(4.315265e-08 -1.369753e-06 1.381346e-25)
(6.138161e-08 -9.630751e-07 -1.382006e-25)
(2.643274e-08 -6.473429e-07 0)
(1.440609e-08 -5.624308e-07 -6.568098e-26)
(1.358606e-08 -4.183172e-07 8.248583e-28)
(1.478067e-08 -3.522981e-07 6.405439e-26)
(2.56297e-08 -1.959233e-07 -3.165429e-26)
(1.64697e-08 -2.242242e-08 0)
(3.400844e-09 1.078204e-08 3.123493e-26)
(1.404844e-08 7.484923e-08 -3.129089e-26)
(-7.349212e-10 1.634642e-07 -1.551746e-26)
(-6.588609e-09 1.213908e-07 1.164942e-26)
(-7.928119e-09 1.004725e-07 -3.99755e-27)
(-8.794485e-09 5.85711e-08 -1.359068e-26)
(-5.703844e-09 1.216319e-08 1.939873e-26)
(-2.042584e-09 2.090627e-08 0)
(-4.858545e-10 6.195089e-09 -4.702843e-26)
(4.89855e-09 5.320368e-08 3.13209e-26)
(6.739304e-10 6.911718e-08 1.578342e-26)
(2.851369e-08 1.262774e-07 9.599807e-26)
(1.993511e-08 4.010154e-07 -1.934978e-25)
(2.228049e-08 4.319999e-07 -6.668897e-26)
(4.715506e-08 7.736967e-07 6.875696e-26)
(3.828285e-09 9.634423e-07 -1.066432e-27)
(4.950913e-09 9.486996e-07 -1.092963e-27)
(3.150113e-08 1.079805e-06 -1.455803e-25)
(8.311299e-08 1.455201e-06 -9.419617e-28)
(9.977422e-08 2.079297e-06 1.497903e-25)
(1.285222e-07 2.905376e-06 0)
(1.796094e-07 3.65207e-06 0)
(3.131441e-07 5.683905e-06 0)
(2.910477e-07 7.157682e-06 2.801498e-27)
(4.468673e-07 1.046451e-05 0)
(6.609689e-07 1.220217e-05 -3.223718e-27)
(1.902264e-07 2.322567e-05 4.647357e-25)
(5.741068e-06 7.365591e-06 -1.300071e-24)
(3.270223e-05 0.0001297282 9.622585e-24)
(0.000267155 1.92757e-05 0)
(0.00013784 9.312273e-06 -4.130686e-27)
(0.0001446996 1.370483e-06 2.300051e-26)
(0.0001210163 2.037543e-06 0)
(0.000118355 5.922124e-07 -1.313797e-26)
(0.0001125721 1.231114e-06 8.490385e-27)
(0.000106126 3.279799e-07 5.736146e-27)
(0.0001066795 5.878681e-07 -7.346333e-27)
(9.985877e-05 7.669895e-07 0)
(9.76008e-05 2.142337e-08 0)
(9.801295e-05 2.441571e-07 -1.069851e-26)
(9.535364e-05 3.964448e-07 1.066493e-26)
(9.188201e-05 2.479332e-07 0)
(9.284081e-05 -2.637482e-07 -2.288311e-26)
(9.614253e-05 -9.748493e-08 0)
(9.460184e-05 1.813013e-07 -2.421404e-26)
(9.349499e-05 1.071016e-07 2.419543e-26)
(9.367116e-05 -3.561237e-07 1.807924e-27)
(9.861512e-05 -5.609697e-07 -1.84844e-26)
(9.965411e-05 -1.378677e-07 4.512126e-26)
(0.0001025528 -6.851304e-07 -2.661319e-26)
(0.0001068658 -1.123567e-06 0)
(0.000119119 -2.799613e-07 1.270078e-26)
(0.0001014931 -5.458279e-06 -3.397836e-25)
(0.0002091287 -2.479722e-05 5.009809e-24)
(0.0003628451 3.516941e-05 -1.122675e-24)
(0.0002062329 1.831271e-05 9.250369e-26)
(0.0002062849 3.585783e-06 -9.955637e-26)
(0.0001745233 4.022418e-06 -8.492459e-26)
(0.0001692609 1.33253e-06 4.595554e-26)
(0.0001611738 2.49334e-06 0)
(0.0001518776 7.723342e-07 0)
(0.0001519133 1.176117e-06 -3.593643e-27)
(0.000142776 1.572473e-06 4.45324e-27)
(0.0001390443 1.119756e-07 -1.806239e-26)
(0.000139773 4.673164e-07 1.254131e-26)
(0.0001360669 7.562933e-07 0)
(0.0001315217 4.595139e-07 -2.510304e-26)
(0.0001329694 -4.983209e-07 5.795777e-26)
(0.0001372398 -1.519842e-07 -3.136002e-26)
(0.0001351332 3.901923e-07 0)
(0.0001334009 1.725819e-07 0)
(0.0001342734 -7.901127e-07 -1.695528e-27)
(0.0001412143 -1.14866e-06 -2.262467e-27)
(0.0001429934 -3.694614e-07 3.149679e-26)
(0.0001476639 -1.541016e-06 -1.741747e-26)
(0.0001549379 -2.202653e-06 -5.159189e-26)
(0.0001699271 -1.539907e-06 3.808981e-26)
(0.0001590097 -1.259273e-05 6.681528e-25)
(0.000281279 -4.426578e-05 -1.274492e-24)
(5.952843e-05 -0.0001813431 -1.019234e-23)
(1.538835e-05 -3.168541e-05 0)
(1.148671e-06 -3.480921e-05 4.290918e-25)
(1.651568e-06 -2.219779e-05 9.49819e-25)
(9.358122e-07 -1.697134e-05 -9.532206e-25)
(7.453227e-07 -1.2512e-05 4.010596e-25)
(6.780557e-07 -9.534783e-06 -4.214474e-25)
(4.889644e-07 -6.433675e-06 3.741313e-25)
(7.639362e-08 -5.28531e-06 -3.632912e-25)
(2.528195e-07 -4.775604e-06 0)
(2.142866e-07 -3.21308e-06 0)
(1.013375e-07 -2.701889e-06 0)
(9.752412e-08 -2.264657e-06 -5.103483e-27)
(1.296116e-07 -1.633462e-06 0)
(6.135885e-08 -1.163319e-06 -4.918267e-27)
(3.642991e-08 -9.853587e-07 -1.539906e-25)
(3.114045e-08 -7.495787e-07 4.557378e-25)
(3.414191e-08 -6.327623e-07 0)
(5.450273e-08 -3.838035e-07 -3.683998e-26)
(3.629503e-08 -1.311897e-07 1.111574e-25)
(1.042173e-08 -5.663003e-08 0)
(2.998709e-08 4.625777e-08 -1.832555e-26)
(2.179924e-09 1.858221e-07 0)
(-1.00489e-08 1.546497e-07 1.364616e-26)
(-1.321407e-08 1.416057e-07 -8.955284e-27)
(-1.509618e-08 1.018017e-07 4.549707e-27)
(-8.677942e-09 5.296363e-08 -2.741466e-26)
(-1.19866e-09 8.493998e-08 3.648072e-26)
(2.048094e-09 8.476813e-08 9.201522e-26)
(1.290766e-08 1.651943e-07 -1.475673e-25)
(6.134406e-09 2.180303e-07 -7.65825e-28)
(5.98177e-08 3.175835e-07 7.43589e-26)
(4.505576e-08 7.158063e-07 -1.52417e-25)
(5.369202e-08 8.203733e-07 1.538401e-25)
(9.837378e-08 1.33082e-06 1.565322e-25)
(1.540273e-08 1.622885e-06 -1.564085e-25)
(2.248029e-08 1.675278e-06 2.559403e-27)
(7.709044e-08 1.943354e-06 0)
(1.815692e-07 2.523635e-06 3.461645e-25)