/*--------------------------------*- C++ -*----------------------------------*\
| =========                 |                                                 |
| \\      /  F ield         | OpenFOAM: The Open Source CFD Toolbox           |
|  \\    /   O peration     | Version:  2406                                  |
|   \\  /    A nd           | Website:  www.openfoam.com                      |
|    \\/     M anipulation  |                                                 |
\*---------------------------------------------------------------------------*/
FoamFile
{
    version     2.0;
    format      ascii;
    arch        "LSB;label=32;scalar=64";
    class       volScalarField;
    location    "0.2";
    object      p;
}
// * * * * * * * * * * * * * * * * * * * * * * * * * * * * * * * * * * * * * //

dimensions      [0 2 -2 0 0 0 0];

internalField   nonuniform List<scalar> 
217010
(
-160.576
-101.1365
-108.4149
-108.6231
-106.5009
-102.9809
-100.4328
-99.81352
-102.2976
-104.2256
-104.4076
-105.1848
-107.5699
-109.4436
-112.8215
-119.7624
-126.5265
-132.3585
-137.9884
-139.9817
-132.9907
-116.6939
-94.86864
-71.03876
-54.70344
-66.88731
-83.97116
-87.51576
-103.063
-122.753
-106.8457
-93.68837
-102.1066
-106.0259
-98.48565
-100.0323
-107.4982
-122.5497
-145.8469
-166.7795
-180.066
-185.6122
-184.0802
-176.2977
-163.2462
-146.1915
-127.337
-111.4628
-105.9192
-115.2697
-42.23893
-40.04644
-34.54963
-32.05791
-29.61618
-27.42226
-26.21348
-25.93042
-25.68085
-25.31272
-24.38308
-23.34887
-22.42999
-21.83078
-21.78629
-21.91786
-22.41213
-22.90696
-22.57875
-21.4214
-20.8185
-20.94944
-21.03032
-20.9781
-20.89322
-20.78884
-20.65398
-20.48049
-20.27401
-20.03739
-19.76911
-19.47071
-19.14277
-18.78821
-18.4219
-18.04488
-17.66998
-17.29893
-16.9446
-16.61421
-16.30026
-16.02366
-15.78983
-15.59666
-15.4527
-15.36279
-15.33363
-15.36202
-15.44786
-15.59111
-15.78018
-16.11602
-16.51777
-16.98204
-17.50154
-18.08398
-18.72172
-19.4048
-20.14433
-20.93215
-21.7555
-22.59033
-23.44485
-24.31265
-25.16975
-26.01151
-26.85979
-27.70157
-28.49788
-29.26467
-29.99693
-30.6872
-31.34645
-31.92999
-32.52105
-33.51537
-34.50809
-34.78531
-34.57033
-34.90484
-36.08866
-37.12871
-37.60737
-38.18022
-38.88756
-38.96172
-38.73802
-38.22446
-37.38053
-36.39849
-36.03188
-36.21282
-35.48342
-32.69584
-31.97981
-32.74326
-32.03888
-29.44859
-25.36866
-19.03875
-8.737723
-4.687252
-2.29137
0.6845167
1.910486
3.075077
3.15396
0.3713518
-4.756801
-12.25644
-21.71346
-32.38697
-43.27137
-56.66581
-70.49102
-81.64608
-93.83924
-107.8519
-121.7746
-133.7275
-143.2268
-150.89
-158.3222
-163.7495
-163.9756
-157.6107
-146.4918
-136.4266
-135.413
-129.5612
-123.0966
-131.6649
-147.3935
-142.2486
-119.9403
-110.0011
-107.2324
-105.0263
-101.7417
-100.5417
-100.657
-102.1735
-102.0313
-100.447
-97.71669
-97.01764
-101.7516
-105.3297
-96.63066
-159.432
-78.16947
-68.66658
-56.46179
-49.37594
-43.24401
-38.17942
-33.80239
-29.83169
-26.37627
-23.23514
-20.37889
-17.76595
-15.30183
-12.97541
-10.79795
-8.780367
-6.891445
-5.076268
-3.342864
-1.687575
-0.103865
1.398749
2.819836
4.214833
5.579578
6.911846
8.184762
9.388995
10.54942
11.69097
12.82018
13.92906
14.98218
16.00112
17.01285
18.00443
18.98535
19.95243
20.92238
21.84904
22.7937
23.6932
24.58524
25.46262
26.33499
27.19101
28.0318
28.87428
29.73164
30.58588
31.42095
32.24115
33.05896
33.90087
34.75572
35.59942
36.44353
37.29793
38.15632
39.02719
39.89851
40.76429
41.66926
42.66251
43.68515
44.67869
45.66302
46.70224
47.97209
49.53404
51.30738
51.49241
49.48529
47.90577
46.62978
45.50782
44.41234
43.28618
42.20407
41.23463
40.31823
39.3486
38.35059
37.37627
36.44931
35.54368
34.6343
33.70948
32.7838
31.88426
30.99209
30.08197
29.16961
28.26748
27.35016
26.43799
25.51042
24.54719
23.59695
22.66708
21.72978
20.76725
19.75889
18.78688
17.77706
16.74215
15.7043
14.65975
13.57705
12.4766
11.37405
10.24729
9.061987
7.821624
6.579045
5.342392
4.057976
2.710712
1.321841
-0.1300088
-1.6413
-3.197236
-4.809825
-6.448653
-8.197455
-10.06306
-12.00278
-14.06211
-16.21959
-18.54276
-21.05604
-23.72643
-26.58791
-29.77326
-33.29924
-37.29619
-41.70162
-46.7664
-52.95255
-59.9953
-71.95994
-80.76454
51.51384
49.76104
48.10141
46.78469
45.64534
44.54343
43.41103
42.31726
41.33535
40.4131
39.44205
38.44076
37.46012
36.52675
35.61665
34.70418
33.77649
32.84698
31.94363
31.04836
30.1357
29.22061
28.31581
27.39592
26.48176
25.55231
24.58669
23.63409
22.70164
21.76227
20.79791
19.78681
18.81491
17.80201
16.76508
15.72553
14.67939
13.59487
12.49286
11.38863
10.26041
9.073113
7.830748
6.586511
5.348437
4.061888
2.712816
1.32237
-0.1317789
-1.645772
-3.204519
-4.820036
-6.460785
-8.214432
-10.08443
-12.02821
-14.09338
-16.25557
-18.58686
-21.10886
-23.787
-26.65852
-29.85685
-33.39635
-37.42413
-41.85315
-46.95596
-53.18544
-60.37049
-72.28078
-82.59952
-80.08715
-69.01878
-56.84512
-49.60998
-43.4354
-38.33076
-33.92965
-29.92683
-26.45798
-23.30617
-20.43825
-17.81725
-15.34599
-13.01244
-10.82815
-8.804741
-6.912148
-5.093087
-3.355854
-1.697254
-0.1106423
1.395194
2.818116
4.214779
5.581366
6.915616
8.190635
9.396376
10.55831
11.70146
12.83232
13.9429
14.99765
16.01783
17.03124
18.0243
19.00703
19.97609
20.94854
21.87571
22.82262
23.72363
24.61737
25.4968
26.37095
27.22879
28.07168
28.91672
29.7766
30.63295
31.46979
32.29238
33.11353
33.95898
34.81704
35.66365
36.51127
37.36952
38.23217
39.10693
39.98209
40.85426
41.76922
42.77176
43.79935
44.7962
45.78958
46.85251
48.16432
49.78891
51.33144
-9.522569
-5.183818
-2.60642
0.2837259
1.558968
2.920444
3.211125
0.6274442
-4.317993
-11.67261
-21.04746
-31.69289
-42.5465
-55.88829
-69.77091
-81.0218
-93.22349
-107.2378
-121.229
-133.2884
-142.8895
-150.6262
-158.1317
-163.7239
-164.1145
-157.9354
-146.8491
-136.5655
-135.5569
-129.7672
-123.1255
-131.629
-147.6979
-142.5349
-119.9863
-109.97
-107.2119
-105.021
-101.7384
-100.5308
-100.6721
-102.1997
-102.0248
-100.4055
-97.68103
-97.09224
-101.9015
-105.2948
-98.14941
-148.0095
-44.77736
-40.42489
-35.04873
-32.35435
-29.90064
-27.60455
-26.29
-25.95846
-25.71032
-25.37314
-24.47345
-23.4377
-22.49747
-21.85753
-21.78384
-21.89567
-22.37943
-22.90079
-22.62184
-21.47593
-20.82945
-20.94372
-21.02804
-20.9794
-20.89562
-20.79235
-20.65886
-20.48716
-20.28178
-20.04608
-19.77856
-19.48081
-19.15369
-18.79793
-18.43144
-18.05374
-17.67805
-17.30597
-16.95047
-16.61931
-16.30429
-16.02662
-15.792
-15.59807
-15.45348
-15.36302
-15.33353
-15.36178
-15.44768
-15.59128
-15.7803
-16.11674
-16.51915
-16.98428
-17.50478
-18.08858
-18.72774
-19.41237
-20.1539
-20.94377
-21.76913
-22.60559
-23.46237
-24.33223
-25.19055
-26.03353
-26.88366
-27.72846
-28.52441
-29.29132
-30.02349
-30.71352
-31.37165
-31.95674
-32.56213
-33.56571
-34.53997
-34.79164
-34.58104
-34.95187
-36.17736
-37.18506
-37.65028
-38.22938
-38.91853
-38.96226
-38.7121
-38.17569
-37.31981
-36.36644
-36.04378
-36.22108
-35.32628
-32.51646
-31.9892
-32.74029
-31.84352
-28.99148
-24.69202
-18.02637
-148.9707
-102.6773
-108.6116
-108.7186
-106.6732
-103.0985
-100.4926
-99.82447
-102.2673
-104.2227
-104.3963
-105.1726
-107.5658
-109.426
-112.8249
-119.8088
-126.582
-132.3963
-138.0332
-140.0002
-132.9567
-116.5035
-94.65001
-70.85012
-54.71161
-67.33998
-84.29741
-87.83009
-103.5187
-122.9039
-106.6932
-93.74206
-102.5364
-105.9778
-98.30844
-100.2429
-108.2679
-123.9597
-147.512
-168.0225
-180.642
-185.6076
-183.4318
-175.1307
-161.6528
-144.3137
-125.5605
-110.5848
-105.746
-104.9407
-136.8582
-103.4659
-108.8846
-108.8848
-107.0403
-103.258
-100.5988
-99.87954
-102.2794
-104.241
-104.3649
-105.1486
-107.5665
-109.4358
-112.9685
-120.0414
-126.7253
-132.481
-138.1474
-140.1268
-133.044
-116.5352
-94.56666
-70.7621
-54.84489
-67.86337
-84.86373
-88.3185
-104.2551
-123.4801
-106.8342
-93.97325
-102.7815
-105.8966
-98.07097
-100.4113
-108.9703
-125.9251
-149.7888
-169.581
-181.5229
-186.2106
-183.7858
-175.1008
-161.2283
-143.5285
-124.636
-110.1182
-105.8392
-98.88072
-46.06891
-40.82689
-35.30765
-32.495
-29.98381
-27.7068
-26.3552
-25.99107
-25.73849
-25.41591
-24.52881
-23.47953
-22.50851
-21.87306
-21.78195
-21.88459
-22.36924
-22.92392
-22.66929
-21.5042
-20.82992
-20.93884
-21.02933
-20.98467
-20.90236
-20.79947
-20.66635
-20.49463
-20.28864
-20.05232
-19.78438
-19.48602
-19.15753
-18.80367
-18.43598
-18.05807
-17.68238
-17.31004
-16.95391
-16.62273
-16.3071
-16.02871
-15.79371
-15.59923
-15.45417
-15.36313
-15.33328
-15.36141
-15.44759
-15.59162
-15.78075
-16.11761
-16.52037
-16.98596
-17.50687
-18.09156
-18.73142
-19.41669
-20.15923
-20.94987
-21.77582
-22.61247
-23.47
-24.33984
-25.19785
-26.0415
-26.89427
-27.73481
-28.53325
-29.3031
-30.03559
-30.7247
-31.38022
-31.96302
-32.57029
-33.5928
-34.56691
-34.80152
-34.59906
-34.99258
-36.21508
-37.21817
-37.6729
-38.26892
-38.95542
-38.96801
-38.69705
-38.15055
-37.28605
-36.34803
-36.05839
-36.21766
-35.22168
-32.42096
-32.02265
-32.78141
-31.77823
-28.92206
-24.38971
-17.72215
-9.662036
-5.214652
-3.11665
-0.349937
1.272258
2.723805
3.1656
0.7340868
-4.098559
-11.37174
-20.70423
-31.38045
-42.18909
-55.58342
-69.58689
-80.7617
-92.99289
-107.0354
-121.1125
-133.2554
-142.8954
-150.6155
-158.2567
-163.909
-164.4203
-158.6573
-147.9563
-137.2305
-135.8054
-129.9767
-122.8435
-131.3438
-148.4822
-143.1924
-120.1296
-109.9418
-107.1965
-105.0375
-101.7502
-100.512
-100.6895
-102.2701
-102.0574
-100.4027
-97.66771
-97.15837
-101.9612
-105.2312
-98.68578
-135.5363
-80.03108
-69.25638
-57.02273
-49.72966
-43.52718
-38.40104
-33.98238
-29.98416
-26.49087
-23.33679
-20.46308
-17.83934
-15.36627
-13.02918
-10.84193
-8.81506
-6.922848
-5.101969
-3.36312
-1.70297
-0.1155942
1.392798
2.815352
4.212859
5.580659
6.916326
8.193185
9.398903
10.56077
11.70419
12.83559
13.94795
15.00352
16.02236
17.03672
18.02996
19.01462
19.98439
20.95473
21.88492
22.82867
23.73151
24.62641
25.50568
26.38049
27.23872
28.08145
28.92615
29.78759
30.64557
31.48224
32.3048
33.12506
33.9716
34.83213
35.67913
36.5263
37.3865
38.24934
39.12483
40.00105
40.87392
41.78891
42.79776
43.82988
44.82435
45.81914
46.88558
48.22252
49.88892
51.29513
51.47443
49.86621
48.1644
46.82132
45.67903
44.57891
43.44067
42.33934
41.35681
40.43821
39.46489
38.46135
37.47702
36.543
35.63273
34.72099
33.79157
32.85974
31.95709
31.06222
30.14791
29.23244
28.32826
27.40621
26.49407
25.56413
24.59504
23.64232
22.71039
21.771
20.80379
19.79703
18.82152
17.8116
16.77221
15.73211
14.68595
13.59929
12.49702
11.39346
10.26589
9.076712
7.832101
6.587697
5.350694
4.062636
2.712806
1.322046
-0.1343322
-1.649861
-3.210095
-4.826843
-6.466167
-8.22327
-10.09534
-12.03932
-14.10844
-16.27023
-18.6068
-21.13234
-23.81244
-26.68741
-29.89135
-33.45492
-37.47597
-41.92257
-47.04471
-53.30539
-60.5405
-72.49489
-82.50488
51.39328
50.03455
48.3614
46.98319
45.82403
44.71981
43.57537
42.46625
41.47447
40.54851
39.57087
38.5649
37.5759
36.63592
35.72064
34.8044
33.87161
32.93555
32.02988
31.13036
30.2122
29.29412
28.38707
27.46118
26.54788
25.61497
24.64123
23.68819
22.75336
21.81181
20.84113
19.83731
18.85128
17.84397
16.80009
15.75866
14.71136
13.62056
12.51726
11.41271
10.28437
9.09099
7.842892
6.597712
5.36118
4.06937
2.717754
1.326
-0.1344686
-1.652372
-3.215203
-4.835108
-6.472904
-8.237845
-10.1146
-12.06016
-14.13789
-16.30053
-18.64831
-21.1826
-23.86852
-26.75201
-29.97548
-33.54867
-37.58542
-42.06245
-47.22135
-53.51637
-60.87297
-72.68633
-82.72081
-80.22686
-69.46742
-57.36048
-49.93745
-43.70811
-38.54008
-34.0925
-30.07576
-26.57148
-23.40401
-20.51743
-17.88726
-15.40798
-13.06291
-10.86907
-8.834532
-6.941088
-5.115632
-3.372982
-1.70938
-0.1201117
1.393233
2.815179
4.214495
5.584704
6.922924
8.203609
9.410435
10.57318
11.71736
12.85014
13.96596
15.02448
16.04232
17.05912
18.05339
19.04188
20.01382
20.98135
21.92517
22.86371
23.76817
24.66562
25.54729
26.42375
27.28497
28.13016
28.97748
29.84139
30.70245
31.54149
32.36742
33.19124
34.04056
34.90575
35.75625
36.60739
37.47158
38.33922
39.21846
40.09987
40.98039
41.90294
42.91834
43.95604
44.95296
45.9562
47.0427
48.40752
50.04121
51.22091
-10.22182
-5.379208
-3.964017
-1.359945
0.6019379
2.361236
3.043908
0.8223679
-3.817033
-10.94938
-20.17818
-30.83137
-41.56088
-54.96373
-68.96376
-80.10093
-92.42534
-106.495
-120.6497
-132.8773
-142.5756
-150.3211
-158.0374
-163.891
-164.7476
-159.4939
-149.6496
-138.8547
-136.2317
-130.0639
-122.1778
-130.7128
-149.6119
-144.2522
-120.383
-109.9202
-107.1725
-105.0735
-101.7964
-100.5086
-100.7387
-102.3712
-102.0728
-100.3782
-97.66119
-97.27264
-102.1585
-105.0732
-100.1583
-126.6628
-47.68141
-41.32141
-35.80331
-32.80567
-30.30553
-27.89597
-26.44567
-26.04088
-25.77662
-25.47893
-24.61831
-23.56267
-22.57262
-21.88843
-21.77497
-21.86317
-22.34269
-22.91854
-22.7246
-21.55909
-20.84872
-20.92661
-21.02603
-20.99291
-20.9144
-20.81128
-20.67787
-20.5059
-20.29952
-20.0634
-19.79667
-19.49956
-19.17052
-18.81501
-18.44675
-18.06763
-17.69121
-17.31778
-16.95997
-16.62852
-16.31162
-16.03185
-15.79623
-15.60083
-15.45504
-15.3631
-15.33279
-15.36087
-15.44764
-15.59246
-15.78164
-16.11899
-16.5221
-16.98838
-17.5099
-18.09626
-18.73745
-19.42419
-20.16919
-20.96197
-21.79026
-22.62826
-23.48893
-24.36164
-25.22117
-26.06538
-26.92135
-27.76932
-28.56755
-29.33474
-30.06659
-30.75545
-31.41062
-31.9969
-32.61938
-33.64982
-34.60818
-34.81489
-34.62779
-35.06236
-36.31685
-37.29962
-37.75835
-38.37212
-39.02849
-38.98721
-38.67775
-38.12243
-37.25704
-36.3407
-36.10081
-36.25991
-35.14225
-32.36167
-32.1206
-32.83377
-31.6201
-28.3629
-23.73987
-17.11082
-128.5237
-105.1407
-108.6441
-108.5236
-107.5356
-103.581
-100.7834
-99.97953
-102.3005
-104.2642
-104.3145
-105.1025
-107.5505
-109.4647
-113.3544
-120.4636
-126.9366
-132.6393
-138.3576
-140.3716
-133.2459
-116.5799
-94.56721
-70.74956
-55.10223
-68.69363
-85.83816
-89.3987
-105.4228
-124.2076
-107.1883
-94.37353
-103.5553
-105.8515
-97.60309
-100.7653
-110.339
-128.9412
-152.5221
-171.2051
-182.2259
-185.9801
-183.0479
-173.9951
-159.7695
-141.8432
-123.2424
-109.4255
-104.5199
-92.07901
-122.7812
-106.7363
-107.9364
-107.7259
-108.034
-104.0715
-101.0936
-100.1549
-102.3341
-104.2903
-104.2563
-105.0273
-107.4992
-109.5482
-114.0082
-121.0841
-127.2654
-132.9173
-138.6949
-140.7718
-133.6582
-116.8299
-94.81808
-70.90641
-55.60807
-69.90908
-87.32672
-91.46494
-107.1961
-125.0798
-107.814
-94.99856
-104.6013
-105.8231
-96.91448
-101.4657
-113.3289
-133.2637
-155.8882
-173.3772
-183.5992
-187.053
-183.2196
-173.4563
-158.6209
-140.3078
-122.0479
-108.7125
-101.998
-84.0623
-48.84479
-41.8517
-36.31148
-33.10482
-30.51945
-28.10496
-26.55759
-26.11652
-25.82973
-25.55955
-24.72487
-23.66451
-22.63911
-21.9059
-21.76791
-21.84285
-22.3175
-22.93717
-22.7902
-21.64619
-20.90082
-20.9421
-21.03205
-21.00528
-20.93027
-20.82597
-20.69182
-20.51922
-20.31172
-20.07418
-19.80683
-19.51044
-19.18187
-18.82705
-18.45765
-18.07757
-17.70095
-17.32661
-16.96659
-16.63578
-16.31726
-16.03558
-15.79952
-15.6028
-15.456
-15.36278
-15.33199
-15.36014
-15.44799
-15.59417
-15.78334
-16.12117
-16.52449
-16.99155
-17.51347
-18.10195
-18.74452
-19.43224
-20.18028
-20.9755
-21.80575
-22.6435
-23.50742
-24.38101
-25.24001
-26.08527
-26.94646
-27.7892
-28.58509
-29.35777
-30.09593
-30.78699
-31.44564
-32.04121
-32.68536
-33.72153
-34.64677
-34.81907
-34.65659
-35.14564
-36.40681
-37.38449
-37.90765
-38.55716
-39.14609
-39.0083
-38.65824
-38.10192
-37.2422
-36.34918
-36.16362
-36.30457
-35.06536
-32.37799
-32.33226
-32.93432
-31.4974
-28.08247
-23.18018
-16.6414
-10.59685
-5.675678
-5.217034
-2.757531
-0.2908035
1.760405
2.754256
0.7871856
-3.616321
-10.5701
-19.68238
-30.38143
-40.95388
-54.39506
-68.52584
-79.49903
-91.94233
-106.0849
-120.38
-132.7154
-142.4726
-150.1903
-158.2157
-164.3688
-165.3199
-160.5333
-151.7674
-141.3617
-137.0731
-129.9543
-121.3947
-129.9318
-151.0459
-145.6848
-120.7034
-109.9385
-107.1462
-105.1525
-101.8858
-100.5592
-100.8765
-102.496
-102.0953
-100.3388
-97.66777
-97.4398
-102.4268
-104.9222
-101.6814
-120.6551
-80.3804
-69.55752
-57.65224
-50.12375
-43.8768
-38.66928
-34.19905
-30.16859
-26.63709
-23.46559
-20.56703
-17.93258
-15.44993
-13.09784
-10.89695
-8.852649
-6.961604
-5.132834
-3.386967
-1.719854
-0.129075
1.391098
2.810078
4.210807
5.582647
6.922979
8.208702
9.415355
10.57682
11.72171
12.85605
13.97622
15.0368
16.05104
17.07088
18.06521
19.05746
20.02924
20.99311
21.93723
22.8805
23.78581
24.68497
25.56653
26.44433
27.30724
28.15264
28.99917
29.86579
30.73046
31.56958
32.39629
33.21963
34.07149
34.9423
35.79349
36.64422
37.51368
38.38333
39.26467
40.14904
41.03374
41.9599
42.99023
44.03734
45.02755
46.03688
47.14633
48.54691
50.13841
51.09293
51.2517
50.14566
48.51191
47.09447
45.91498
44.81389
43.6589
42.53284
41.53457
40.61299
39.6302
38.6199
37.62152
36.67836
35.76146
34.84556
33.90899
32.96752
32.06303
31.16357
30.24186
29.32249
28.41624
27.48483
26.57567
25.64144
24.66014
23.70717
22.77178
21.83073
20.85751
19.85093
18.86461
17.86137
16.81259
15.77098
14.72391
13.62879
12.52634
11.42318
10.29561
9.096778
7.84418
6.600489
5.366773
4.070034
2.717412
1.326205
-0.1396798
-1.660031
-3.225219
-4.847777
-6.479609
-8.255821
-10.1376
-12.08281
-14.16995
-16.32811
-18.68994
-21.23222
-23.91972
-26.80738
-30.04756
-33.64538
-37.68921
-42.19212
-47.38443
-53.71176
-61.16079
-72.76508
-82.85748
51.03394
50.20238
48.6841
47.26041
46.05791
44.96009
43.79894
42.66585
41.66548
40.74428
39.75266
38.74306
37.73738
36.7882
35.86564
34.94886
34.0075
33.05674
32.15032
31.24658
30.31885
29.39717
28.4904
27.55022
26.64522
25.70887
24.71682
23.76568
22.82703
21.88373
20.90311
19.90905
18.91038
17.90627
16.85091
15.80905
14.75876
13.65274
12.54911
11.44803
10.32518
9.117936
7.85392
6.610578
5.384448
4.079692
2.724301
1.335898
-0.1377868
-1.663101
-3.235097
-4.863115
-6.479967
-8.270971
-10.15856
-12.10659
-14.20918
-16.35558
-18.73955
-21.29406
-23.98658
-26.87354
-30.13566
-33.7634
-37.81566
-42.34636
-47.57791
-53.92874
-61.45414
-72.76406
-83.00672
-80.57403
-69.55566
-57.93995
-50.31642
-44.08042
-38.82714
-34.32895
-30.27803
-26.71798
-23.54699
-20.62795
-17.98654
-15.5027
-13.13811
-10.92444
-8.868001
-6.987129
-5.153373
-3.401098
-1.726535
-0.1333616
1.39579
2.80908
4.212602
5.586249
6.932999
8.227606
9.430932
10.59209
11.74189
12.87772
14.00071
15.065
16.07478
17.10016
18.09372
19.09132
20.06365
21.03115
21.9943
22.92651
23.83125
24.73445
25.61867
26.50013
27.36599
28.21158
29.06076
29.93445
30.80578
31.64424
32.4739
33.29887
34.15418
35.03364
35.88723
36.74205
37.61847
38.48944
39.37323
40.26406
41.15732
42.08447
43.12212
44.17547
45.15655
46.17882
47.30747
48.69645
50.17938
50.90296
-10.80345
-6.230415
-6.884428
-4.716511
-1.595125
0.8188207
2.25223
0.5844794
-3.537269
-10.23954
-19.16432
-29.96892
-40.37431
-53.79686
-68.05098
-78.72466
-91.33389
-105.6097
-120.1655
-132.5991
-142.3537
-149.9442
-158.2343
-164.6169
-165.9673
-161.7277
-154.1814
-144.422
-138.6279
-130.019
-121.1112
-129.396
-152.7463
-147.3513
-121.256
-109.9653
-107.1439
-105.2804
-102.0145
-100.7189
-101.1618
-102.6325
-102.0604
-100.258
-97.67198
-97.78893
-102.9204
-104.7833
-102.6405
-115.0349
-49.49229
-42.37312
-36.89239
-33.43842
-30.88342
-28.38365
-26.70639
-26.23697
-25.91305
-25.66231
-24.85371
-23.78403
-22.73038
-21.93622
-21.75467
-21.81768
-22.28203
-22.9284
-22.84869
-21.76332
-21.00154
-20.98995
-21.05104
-21.02248
-20.94985
-20.8445
-20.71004
-20.5373
-20.32935
-20.09412
-19.82541
-19.52861
-19.19935
-18.84344
-18.47285
-18.09062
-17.71361
-17.33777
-16.97487
-16.64593
-16.32409
-16.03993
-15.80388
-15.60508
-15.45707
-15.3622
-15.33079
-15.359
-15.44885
-15.59717
-15.7869
-16.1243
-16.52781
-16.99587
-17.5182
-18.1094
-18.75459
-19.44212
-20.19298
-20.99126
-21.82655
-22.66342
-23.5321
-24.40968
-25.26736
-26.11314
-26.9845
-27.83131
-28.62992
-29.40777
-30.13648
-30.82918
-31.4933
-32.10914
-32.7793
-33.79142
-34.66353
-34.79675
-34.66939
-35.22404
-36.50528
-37.48095
-38.13534
-38.82932
-39.28921
-39.02755
-38.63556
-38.091
-37.25566
-36.38293
-36.26341
-36.39233
-35.02118
-32.53651
-32.70485
-33.06615
-31.2901
-27.5048
-22.57211
-16.19319
-117.142
-107.4472
-106.9352
-106.9339
-108.6228
-104.7523
-101.5402
-100.5105
-102.4231
-104.3026
-104.1961
-104.911
-107.3657
-109.7841
-114.9288
-121.9384
-127.7821
-133.3709
-139.1666
-141.3015
-134.346
-117.415
-95.59269
-71.60594
-56.91177
-71.7454
-89.45285
-94.6305
-109.4776
-125.7853
-108.6839
-96.28679
-106.1396
-105.9723
-96.4595
-103.396
-118.16
-138.5343
-159.6418
-175.7563
-184.742
-187.1206
-182.9969
-172.6411
-157.2148
-138.5751
-120.7649
-107.3108
-97.76972
-75.9311
-111.1145
-106.9676
-105.8869
-106.2288
-109.2653
-105.6996
-101.9966
-101.0995
-102.6659
-104.2972
-104.1067
-104.7639
-107.2081
-110.2408
-116.1254
-123.0906
-128.5731
-134.0618
-139.8035
-141.9488
-135.4278
-118.6723
-97.3115
-73.82076
-59.82962
-74.43052
-92.43313
-98.78949
-111.7886
-125.5447
-108.9776
-98.62067
-108.4469
-106.8305
-96.90192
-107.7363
-124.382
-144.5789
-164.1316
-179.0218
-186.8694
-188.4776
-183.0215
-171.6933
-155.4914
-136.2882
-118.6111
-104.2875
-91.39146
-68.37974
-49.65058
-42.89332
-37.5397
-33.8088
-31.19802
-28.7467
-26.92157
-26.41979
-26.05283
-25.8108
-25.01544
-23.93106
-22.84742
-21.9947
-21.76165
-21.79012
-22.22671
-22.88256
-22.86861
-21.8929
-21.14624
-21.06459
-21.08221
-21.04599
-20.97463
-20.8678
-20.73284
-20.55943
-20.34663
-20.1092
-19.84296
-19.55008
-19.22007
-18.86194
-18.49108
-18.10575
-17.72876
-17.35102
-16.98704
-16.65756
-16.33176
-16.0467
-15.80899
-15.60817
-15.45897
-15.36154
-15.32877
-15.3571
-15.45013
-15.60135
-15.79332
-16.12823
-16.53148
-16.99969
-17.52301
-18.11795
-18.76514
-19.45727
-20.20945
-21.0096
-21.84999
-22.68985
-23.56141
-24.44658
-25.30547
-26.13944
-27.02041
-27.87247
-28.66392
-29.44975
-30.18
-30.87599
-31.5482
-32.19694
-32.89237
-33.83015
-34.58116
-34.73437
-34.65532
-35.27113
-36.53695
-37.56994
-38.43557
-39.16821
-39.4372
-39.03444
-38.60421
-38.08987
-37.3046
-36.4542
-36.43199
-36.53239
-35.05352
-32.90168
-33.27773
-33.27635
-31.14663
-26.90371
-21.9282
-15.64554
-10.98785
-7.479372
-9.061335
-7.339599
-3.501615
-0.7706148
1.337595
0.03990764
-3.652532
-9.997486
-18.62422
-29.22855
-39.96379
-53.33155
-67.5052
-77.82986
-90.71876
-104.949
-119.917
-132.5539
-142.2908
-149.7292
-158.5677
-165.3246
-166.9871
-163.2776
-156.9989
-147.9627
-141.0477
-131.3174
-121.8955
-129.625
-154.4636
-149.3383
-122.7704
-109.8902
-107.2048
-105.3888
-102.267
-101.0978
-101.6715
-102.7645
-101.8241
-100.0149
-97.48875
-98.48811
-103.7702
-104.796
-102.7833
-109.1285
-80.62263
-69.37692
-58.17644
-50.48379
-44.31856
-38.98829
-34.44652
-30.38699
-26.81719
-23.64211
-20.67861
-18.04526
-15.56751
-13.17528
-10.9524
-8.897239
-7.031057
-5.174714
-3.412673
-1.727244
-0.140618
1.392656
2.803546
4.207425
5.582957
6.946463
8.23648
9.433347
10.60343
11.75352
12.87685
14.00298
15.08677
16.08664
17.11798
18.10837
19.11494
20.09028
21.05886
22.00964
22.94584
23.8548
24.7663
25.65182
26.53191
27.3961
28.24823
29.10208
29.97465
30.84348
31.68169
32.51945
33.34554
34.20309
35.09042
35.95033
36.80366
37.68079
38.55583
39.45
40.34829
41.25146
42.17274
43.22537
44.30387
45.28129
46.32817
47.46146
48.80386
50.1454
50.6403
50.72248
50.16609
48.83563
47.44229
46.21121
45.10562
43.91797
42.76835
41.76616
40.85058
39.83289
38.82114
37.80918
36.86466
35.93124
35.01101
34.06872
33.11567
32.21484
31.304
30.3676
29.44531
28.53876
27.58623
26.68969
25.74297
24.74054
23.7949
22.85799
21.91994
20.92709
19.90744
18.92927
17.92242
16.86121
15.8332
14.78904
13.6711
12.56418
11.45568
10.34105
9.13649
7.861966
6.606114
5.391519
4.084413
2.72039
1.335543
-0.1391175
-1.663948
-3.245645
-4.896748
-6.493669
-8.302035
-10.17763
-12.12985
-14.26404
-16.3816
-18.79635
-21.34966
-24.06339
-26.95062
-30.22772
-33.87934
-37.94044
-42.50144
-47.77592
-54.13569
-61.69659
-72.57767
-82.90616
50.33481
50.00306
48.92922
47.65207
46.45
45.37664
44.13363
42.93946
41.95776
41.08695
40.0632
39.01172
37.9488
37.0159
36.10603
35.16478
34.18099
33.20758
32.33715
31.42512
30.46803
29.55319
28.65435
27.66505
26.83759
25.8469
24.81117
23.88182
22.91241
22.00474
20.99925
20.01827
19.04421
17.99777
16.87849
15.8561
14.82185
13.70877
12.62704
11.50603
10.34512
9.142302
7.911019
6.642132
5.395906
4.109422
2.744051
1.315607
-0.1560974
-1.661779
-3.208772
-4.881919
-6.500265
-8.378727
-10.21401
-12.13076
-14.34957
-16.41581
-18.91514
-21.39684
-24.12362
-27.11189
-30.40457
-34.06954
-38.1362
-42.73699
-48.08752
-54.46965
-62.07306
-72.32453
-82.72705
-80.41868
-69.19265
-58.58497
-50.77959
-44.71349
-39.13396
-34.61469
-30.59251
-27.00671
-23.72529
-20.7144
-18.15473
-15.64966
-13.20609
-11.02275
-8.966944
-7.042558
-5.152425
-3.419408
-1.733122
-0.1827014
1.368649
2.825754
4.183716
5.59753
6.970792
8.209951
9.465295
10.64527
11.75988
12.87183
14.0609
15.18263
16.11572
17.16481
18.1493
19.17595
20.14735
21.10648
22.05005
23.01957
23.94306
24.84676
25.72726
26.59384
27.48594
28.35706
29.18435
30.03807
30.94833
31.81802
32.64353
33.46689
34.30843
35.22597
36.1081
36.91495
37.83211
38.73851
39.61537
40.50988
41.41991
42.32965
43.42731
44.56136
45.48019
46.50681
47.58474
48.85066
50.04362
50.30608
-11.5677
-9.38564
-11.54221
-10.88297
-6.585844
-3.300813
-0.4719656
-1.244235
-4.075884
-9.978328
-18.10823
-28.08442
-39.65706
-52.98873
-66.50069
-76.5534
-90.1266
-103.7614
-119.09
-132.206
-141.8446
-149.0411
-159.0677
-166.163
-168.1988
-164.9942
-160.1127
-151.9243
-144.4933
-134.3892
-124.5157
-131.1256
-156.4265
-151.0796
-125.0976
-109.9292
-107.2604
-105.3185
-102.9374
-102.0115
-102.5761
-102.819
-101.2073
-99.29155
-96.9225
-98.62777
-104.0053
-104.299
-101.8717
-103.4446
-49.16356
-43.35002
-38.2891
-34.32726
-31.7205
-29.28974
-27.18938
-26.61766
-26.21626
-25.99849
-25.2693
-24.11747
-23.03941
-22.10761
-21.78334
-21.74419
-22.12973
-22.75234
-22.79882
-22.00773
-21.314
-21.1568
-21.12506
-21.07785
-21.00807
-20.89894
-20.76354
-20.59016
-20.3791
-20.1455
-19.87787
-19.58207
-19.24594
-18.8909
-18.52048
-18.13466
-17.75342
-17.37772
-17.01093
-16.66425
-16.34952
-16.0633
-15.81599
-15.61428
-15.46262
-15.35925
-15.3253
-15.35628
-15.45142
-15.60583
-15.79825
-16.13516
-16.5336
-17.00192
-17.52232
-18.12688
-18.76115
-19.48336
-20.249
-21.05247
-21.86747
-22.72794
-23.60442
-24.45598
-25.35532
-26.2279
-27.0788
-27.931
-28.73124
-29.51089
-30.25392
-30.95303
-31.6272
-32.29945
-33.00509
-33.85518
-34.51334
-34.67954
-34.62276
-35.27239
-36.50766
-37.66164
-38.83922
-39.54563
-39.56593
-39.04479
-38.55106
-38.07799
-37.3491
-36.55618
-36.67005
-36.73021
-35.16326
-33.53756
-34.06756
-33.41562
-30.6666
-26.09768
-21.18553
-14.33804
-105.5018
-104.9747
-105.2605
-106.6773
-110.8062
-106.8784
-102.5395
-101.2971
-102.8027
-104.2068
-104.0071
-104.512
-107.1236
-110.9963
-117.7425
-124.6089
-129.6522
-135.0244
-140.6328
-142.8972
-137.4171
-120.9099
-100.6093
-77.34539
-64.4236
-78.06941
-96.5292
-103.904
-113.3314
-122.9456
-106.8324
-99.63314
-112.6818
-108.7599
-100.2451
-115.0631
-132.6319
-151.7215
-169.4168
-182.8484
-188.8048
-189.2085
-182.598
-170.2358
-153.1853
-133.0201
-114.9756
-99.33201
-83.16709
-61.86241
0.003270934
-0.00147765
-2.263455
1.585775
0.2192199
0.0208665
0.008381819
1.170058
0.3294432
-0.006585038
0.3788139
0.2198935
0.004282963
4.973184
0.026724
1.758442
4.803695
-4.121603
1.816791
3.564977
-0.48613
1.816981
-0.007999641
1.693737
0.01559863
1.968254
1.631201
0.07658601
1.172159
0.02393339
-0.3907468
-0.03666474
-1.957374
-0.0780446
2.388385
-0.02636764
-0.01459629
3.296637
-0.02027091
2.243195
3.47159
0.00195892
0.5535475
0.2057608
0.3064214
3.401263
-0.01181865
-0.0003327492
0.02705711
3.796184
-0.72885
0.03611887
-0.1891412
0.05737304
2.258136
-0.02700584
-1.010993
-0.9948695
-4.32626
0.00182686
0.07185637
1.495944
0.01262321
0.245318
4.085433
0.05708407
0.01555323
0.7809628
6.161684
-0.6098029
0.4036526
-0.1016773
2.650349
-0.00418144
1.323833
1.372704
1.013158
0.6972969
0.01139446
1.585485
0.1190034
0.3252087
0.1871176
0.0175104
0.126147
0.05132403
4.904995
-0.003623051
0.009927873
-0.1350146
3.142418
3.648756
2.057591
0.2563952
0.1910129
-0.2551029
2.118933
1.973047
-61.52698
0.2420776
0.05185585
5.038866
5.071939
0.1405692
-2.135179
1.473585
-0.1702027
2.346914
-0.2421155
1.282916
-0.002422944
29.23816
0.00174786
-0.6091026
-1.577019
0.004453469
0.02494578
-23.66387
-1.751988
-0.3572219
4.782718e-05
-0.7399765
0.01246331
0.04589715
1.099528
-0.2689
0.02001671
0.02612093
0.9593365
-0.07854396
8.086267
4.105311
1.527055
-0.3624944
0.02663045
-0.05773281
-0.9988455
-3.029245
-2.842298
3.279627
1.568549
4.000829
1.647124
-2.717072
-0.06788493
0.0406304
2.333236
-0.01664655
0.0337635
3.391459
0.4329853
0.08546985
-0.02659433
1.318303
6.489809
1.038434
0.04739122
-0.4539094
0.0004696229
0.1428922
0.2285684
1.35745
-0.645526
-0.01451736
3.859133
-0.0887203
0.1058924
2.957675
-0.2034496
-0.09347556
0.05949526
0.1614501
-0.003879148
-0.5265605
0.006019003
-0.005110821
0.01291221
0.14929
0.01794022
1.150543
0.06638283
1.966747
-4.375863
-0.5461464
-0.03132878
-2.388504
2.500237
2.278964
3.629985
-0.1662491
-1.378765
-0.009939293
0.5461467
0.007540526
3.126914
0.0009991381
-0.4598365
0.2734483
-3.441923
-0.002102471
2.827213
0.0703441
0.003367708
6.008175
0.03670829
-0.6785879
0.006538926
-2.304673
-3.854302
0.2156329
0.006200558
0.6330909
0.01024783
2.20641
0.03130152
-0.02270756
0.05964201
0.034593
0.493926
0.3560094
-3.136225
-1.482674
1.161463
0.05094567
16.88989
0.8644486
1.232962
-0.02140186
-2.525031
-2.670954
0.07520721
0.3736532
-0.1834252
2.259734
0.5338702
2.185307
0.8147837
1.714688
1.647663
0.04948371
-2.031637
0.146192
0.03075074
-0.1096723
0.08581551
0.5612209
-0.8234796
-0.2912888
-0.3970402
1.726915
1.712783
-117.8876
4.456844
-0.06950627
0.01878077
4.515717
-0.3122358
0.4103315
-0.4847469
-0.2497015
0.6225169
0.1731283
-0.1337649
0.2054809
2.602147
0.7288291
0.042314
0.2306661
1.288073
0.2644468
-0.5882045
0.01410743
0.02419083
0.02531714
3.893709
2.575634
2.220543
0.04009964