/*--------------------------------*- C++ -*----------------------------------*\
| =========                 |                                                 |
| \\      /  F ield         | OpenFOAM: The Open Source CFD Toolbox           |
|  \\    /   O peration     | Version:  2406                                  |
|   \\  /    A nd           | Website:  www.openfoam.com                      |
|    \\/     M anipulation  |                                                 |
\*---------------------------------------------------------------------------*/
FoamFile
{
    version     2.0;
    format      ascii;
    arch        "LSB;label=32;scalar=64";
    class       surfaceScalarField;
    location    "0.2";
    object      phi;
}
// * * * * * * * * * * * * * * * * * * * * * * * * * * * * * * * * * * * * * //

dimensions      [0 3 -1 0 0 0 0];

oriented        oriented;

internalField   nonuniform List<scalar> 
326221
(
-0.002388154
-0.005764429
0.008152583
-0.001609625
-0.0007785285
0.001056576
-0.002666201
0.000500324
0.000556252
-0.001038076
0.0015384
-0.0009087159
-0.00012936
-7.173796e-05
-0.0008369779
0.0007199882
-0.0007917262
0.0008967221
-0.0001767339
0.0004087721
0.00048795
0.000379738
2.903416e-05
0.0008923194
-0.0005125815
0.001105919
-0.0002136
0.0009455004
0.000160419
-0.0001827882
0.001128289
-0.001552055
0.001369266
-0.001914127
0.0003620726
-0.001418768
-0.0004953591
-0.000915646
-0.0005031222
-0.0008764196
-3.922642e-05
-0.001121282
0.0002448624
-0.001070079
-5.120278e-05
-0.0003554434
-0.0007146358
0.001026116
-0.00138156
0.003063431
-0.002037315
0.003105614
-4.218294e-05
0.001707049
0.001398565
0.0006256076
0.001081441
-0.0009300787
0.001555686
-0.001828724
0.0008986456
7.619235e-05
-0.001904917
0.00202414
-0.001947947
0.00183345
0.0001906899
0.001184485
0.0006489648
0.001839144
-0.000654659
0.002490484
-0.0006513399
0.00174716
0.0007433233
-0.0007599874
0.002507148
-0.00350282
0.002742833
-0.005215292
0.001712471
-0.006058242
0.0008429499
-0.006360951
0.0003027093
-0.006277157
-8.379412e-05
-0.005915596
-0.0003615607
-0.005312565
-0.0006030313
-0.004473314
-0.0008392504
-0.003427765
-0.001045549
-0.002328071
-0.001099694
-0.00150554
-0.0008225306
-0.003829483
0.002323943
-0.001977918
-0.001851566
-0.001039317
-0.000938601
-0.000773416
-0.0002659008
-0.0006746414
-9.877456e-05
-0.0007240454
4.940394e-05
-0.0004624867
-0.0002615586
-7.471434e-05
-0.0003877724
0.0001926023
-0.0002673167
0.0002919236
-9.932128e-05
0.0001647621
0.0001271615
-6.863813e-05
0.0002334003
-0.0003013395
0.0002327013
-0.0002558044
-4.553509e-05
3.202928e-05
-0.0002878336
0.0002171388
-0.0001851095
0.0003532743
-0.0001361355
0.0004614696
-0.0001081953
0.0003767583
8.471133e-05
7.237709e-05
0.0003043812
-0.0001241195
0.0001964966
-5.338556e-05
-7.073397e-05
3.901349e-05
-9.239905e-05
1.878277e-05
2.023072e-05
-5.636936e-05
7.515214e-05
-0.0001477846
9.141525e-05
-0.0002431736
9.538894e-05
-0.0003333683
9.019477e-05
-0.0004085126
7.514429e-05
-0.000466434
5.792135e-05
-0.0005111953
4.476132e-05
-0.0005450034
3.380808e-05
-0.0005678196
2.281619e-05
-0.0005782787
1.045913e-05
-0.0005633892
-1.488949e-05
-0.000556845
-6.544183e-06
-0.0005455542
-1.129078e-05
-0.0005289552
-1.659902e-05
-0.0005052642
-2.369102e-05
-0.0004764128
-2.885139e-05
-0.0004446571
-3.17557e-05
-0.0004046825
-3.997464e-05
-0.0003619471
-4.273538e-05
-0.0003180667
-4.38804e-05
-0.0002702046
-4.786206e-05
-0.0002203152
-4.988944e-05
-0.0001690921
-5.122313e-05
-0.0001228282
-4.626382e-05
-7.970598e-05
-4.312226e-05
-3.292427e-05
-4.678172e-05
3.391428e-05
-6.683854e-05
0.000122078
-8.81637e-05
0.0001902115
-6.813354e-05
0.0002485968
-5.838531e-05
0.0002994723
-5.087553e-05
0.000351453
-5.198067e-05
0.0004009557
-4.950269e-05
0.0004483947
-4.743903e-05
0.0004979698
-4.957508e-05
0.0005437617
-4.579192e-05
0.0005836145
-3.98527e-05
0.0006135983
-2.998388e-05
0.000642348
-2.874968e-05
0.0006650061
-2.265811e-05
0.000677911
-1.290492e-05
0.0006845783
-6.667267e-06
0.0006936626
-9.084252e-06
0.0007100254
-1.636288e-05
0.0006916787
1.834672e-05
0.0006609008
3.077795e-05
0.0006124588
4.844196e-05
0.0005510763
6.138255e-05
0.0004911833
5.989291e-05
0.0004685925
2.259086e-05
0.0005032443
-3.465186e-05
0.0004675132
3.57311e-05
0.0002640918
0.0002034215
0.0001421162
0.0001219756
0.0002925372
-0.000150421
0.0006744193
-0.0003818821
0.0009590199
-0.0002846006
0.0009021763
5.684356e-05
0.000699664
0.0002025124
0.0004757544
0.0002239096
0.000232523
0.0002432314
-2.59294e-05
0.0002584524
-0.000130524
0.0001045946
-0.0001191918
-1.133213e-05
4.235894e-05
-0.0001615508
0.0003430087
-0.0003006497
0.0007920642
-0.0004490556
0.001032521
-0.0002404566
0.0006815052
0.0003510156
0.0002091617
0.0004723435
5.487157e-06
0.0002036746
-0.0003556933
0.0003611804
-0.0007862658
0.0004305725
-0.001167749
0.0003814828
-0.001230836
6.308707e-05
-0.0008243496
-0.0004064861
-0.0005731318
-0.0002512178
-0.0005531483
-1.998354e-05
-0.0001769558
-0.0003761925
-0.001341014
0.001164059
-0.003389197
0.002048182
-0.004143417
0.0007542202
-0.003427218
-0.0007161989
-0.002367869
-0.001059349
-0.001453264
-0.0009146048
-0.0005767612
-0.0008765027
0.0002093075
-0.0007860687
0.0009467954
-0.0007374878
0.001580006
-0.0006332109
0.002351771
-0.000771765
0.002959583
-0.0006078113
0.003276809
-0.0003172264
0.003720547
-0.0004437381
0.004200966
-0.0004804185
0.004668382
-0.0004674163
0.005060845
-0.0003924631
0.005353841
-0.0002929957
0.00556333
-0.0002094894
0.005765203
-0.0002018727
0.005714336
5.086681e-05
0.00544796
0.0002663764
0.004664539
0.0007834206
0.003010524
0.001654015
0.0004623192
0.002548205
-0.001336428
0.001798747
-0.001791148
0.00045472
-0.0007096779
-0.00108147
0.0008269348
-0.001536613
-0.0003621442
0.001189079
-0.003198297
0.002836152
-0.003685421
0.000487124
-0.002205512
-0.001479909
-0.0013249
-0.0008806118
-0.0009804478
-0.0003444523
-0.0006623034
-0.0003181444
-9.229085e-06
-0.0006530743
0.0002856062
-0.0002948353
-9.692015e-05
0.0003825263
-0.0007274212
0.0006305011
-0.0008926257
0.0001652045
-0.000688951
-0.0002036747
-0.0001871318
-0.0005018192
-0.0001611841
-2.594769e-05
-0.0004955468
0.0003343627
0.001550563
-0.00204611
0.002445505
-0.000894942
-0.005699367
0.008144872
-0.005989529
0.0002901624
-0.005210131
-0.0007793987
-0.004894182
-0.0003159489
-0.0045793
-0.0003148814
-0.004341432
-0.0002378685
-0.00412379
-0.0002176423
-0.003934189
-0.0001896009
-0.003675641
-0.0002585478
-0.003544322
-0.0001313188
-0.003433313
-0.0001110087
-0.003330873
-0.0001024408
-0.003239718
-9.115421e-05
-0.003151601
-8.811759e-05
-0.003067702
-8.389844e-05
-0.002987723
-7.997903e-05
-0.002916209
-7.151468e-05
-0.002850344
-6.586513e-05
-0.002787049
-6.329455e-05
-0.002724686
-6.236317e-05
-0.002666725
-5.796099e-05
-0.002610914
-5.581063e-05
-0.002558765
-5.214898e-05
-0.002512108
-4.665744e-05
-0.002464486
-4.762163e-05
-0.002416593
-4.789295e-05
-0.002368049
-4.854382e-05
-0.002322909
-4.514032e-05
-0.002282293
-4.061649e-05
-0.002245479
-3.681357e-05
-0.002206998
-3.848069e-05
-0.002168784
-3.821417e-05
-0.002127906
-4.087822e-05
-0.002091974
-3.593146e-05
-0.002058987
-3.298781e-05
-0.002024193
-3.479391e-05
-0.001988814
-3.537901e-05
-0.001952298
-3.651572e-05
-0.001919676
-3.262221e-05
-0.001889929
-2.974693e-05
-0.001921987
3.205785e-05
-0.001906488
-1.549835e-05
-0.001884783
-2.170531e-05
-0.001862728
-2.205465e-05
-0.001843486
-1.924261e-05
-0.001823635
-1.985126e-05
-0.001805978
-1.765641e-05
-0.001789872
-1.610625e-05
-0.001774737
-1.513488e-05
-0.001756599
-1.81382e-05
-0.001738455
-1.81439e-05
-0.001723832
-1.462321e-05
-0.001711679
-1.215267e-05
-0.001702048
-9.631115e-06
-0.001688902
-1.314624e-05
-0.001672877
-1.602505e-05
-0.001658744
-1.413261e-05
-0.001647325
-1.14187e-05
-0.001633744
-1.358153e-05
-0.00162239
-1.135343e-05
-0.001609779
-1.261084e-05
-0.001596224
-1.355551e-05
-0.001583364
-1.286045e-05
-0.001569038
-1.432532e-05
-0.001537937
-3.110125e-05
-0.001496144
-4.179337e-05
-0.001454683
-4.146098e-05
-0.001399512
-5.517089e-05
-0.001319432
-8.007939e-05
-0.001151619
-0.0001678136
-0.0008653303
-0.0002862884
-2.476749e-05
-0.0008405628
0.0008366353
-0.0008614028
0.001099426
-0.0002627905
0.001273235
-0.0001738096
0.001367191
-9.395577e-05
0.001434073
-6.688207e-05
0.001495179
-6.110555e-05
0.001538154
-4.297469e-05
0.001558373
-2.021929e-05
0.001573658
-1.52847e-05
0.001599761
-2.610297e-05
0.001624086
-2.432577e-05
0.001643841
-1.97547e-05
0.001655944
-1.210277e-05
0.001666797
-1.085367e-05
0.001677546
-1.074823e-05
0.001692034
-1.448867e-05
0.001705457
-1.342217e-05
0.001715162
-9.705756e-06
0.00172569
-1.052748e-05
0.001739995
-1.430553e-05
0.001752997
-1.300142e-05
0.00176536
-1.236312e-05
0.001781335
-1.597518e-05
0.001794567
-1.323234e-05
0.001812847
-1.82799e-05
0.001835256
-2.240869e-05
0.001853207
-1.795155e-05
0.001867794
-1.458629e-05
0.001884643
-1.684886e-05
0.001904322
-1.967966e-05
0.001916823
-1.250095e-05
0.001879818
3.700549e-05
0.001906327
-2.650957e-05
0.001940292
-3.396456e-05
0.001975128
-3.483641e-05
0.002010531
-3.54027e-05
0.002048651
-3.812012e-05
0.002084961
-3.630996e-05
0.002118279
-3.331768e-05
0.002154261
-3.598255e-05
0.002194862
-4.060064e-05
0.002239453
-4.459132e-05
0.002278592
-3.913839e-05
0.002315975
-3.738333e-05
0.002356329
-4.035434e-05
0.002400071
-4.374137e-05
0.002444747
-4.467607e-05
0.002494715
-4.996783e-05
0.00254683
-5.211496e-05
0.002599363
-5.253311e-05
0.0026536
-5.423705e-05
0.002704524
-5.092466e-05
0.002765076
-6.055177e-05
0.002828556
-6.347994e-05
0.002894782
-6.622639e-05
0.00296588
-7.109794e-05
0.003039218
-7.33378e-05
0.003120498
-8.127967e-05
0.003209549
-8.905147e-05
0.003300604
-9.105482e-05
0.003399308
-9.870351e-05
0.003511947
-0.0001126395
0.00364438
-0.0001324329
0.003899629
-0.0002552495
0.004087752
-0.0001881221
0.004301351
-0.0002135996
0.004539919
-0.0002385679
0.004848915
-0.000308996
0.0051492
-0.000300285
0.005930581
-0.0007813815
0.000166152
0.001024744
3.891137e-05
-0.001925058
0.001455767
-0.0006938134
0.001749099
-0.0004671417
0.001983798
-0.0003286544
0.002171952
-0.0002550362
0.002340574
-0.0002297273
0.002486114
-0.0001885153
0.002606126
-0.0001402314
0.002712862
-0.0001220205
0.002821523
-0.000134764
0.002923209
-0.0001260116
0.003018639
-0.0001151842
0.003104157
-9.762122e-05
0.003185375
-9.207123e-05
0.003261104
-8.647746e-05
0.003336467
-8.98518e-05
0.003407643
-8.459857e-05
0.00347394
-7.600215e-05
0.003537164
-7.375183e-05
0.003600693
-7.783482e-05
0.003661137
-7.34449e-05
0.003718784
-7.001033e-05
0.003777708
-7.489879e-05
0.003832349
-6.787327e-05
0.003889311
-7.524187e-05
0.00394743
-8.052828e-05
0.004003197
-7.371796e-05
0.004054827
-6.621654e-05
0.004108166
-7.018846e-05
0.004161687
-7.320029e-05
0.004212744
-6.355773e-05
0.004173179
7.657064e-05
0.004236519
-8.984945e-05
0.004303686
-0.0001011322
0.004371386
-0.0001025362
0.004439488
-0.0001035051
0.004508954
-0.0001075856
0.004578173
-0.0001055294
0.004644415
-9.955891e-05
0.004713369
-0.0001049374
0.004783701
-0.0001109322
0.004858837
-0.0001197276
0.004929275
-0.0001095767
0.005000117
-0.0001082252
0.005071862
-0.000112099
0.005146877
-0.000118756
0.005222005
-0.0001198047
0.005301573
-0.0001295355
0.005383343
-0.0001338853
0.005465667
-0.0001348567
0.00555088
-0.00013945
0.005632888
-0.0001329326
0.005723481
-0.0001511455
0.005814839
-0.0001548371
0.005910627
-0.0001620146
0.006008897
-0.0001693679
0.006110954
-0.000175395
0.006218137
-0.0001884628
0.006333016
-0.0002039302
0.006449376
-0.0002074153
0.006573316
-0.0002226433
0.006708517
-0.0002478401
0.006860591
-0.0002845069
0.007199893
-0.0005945516
0.007406096
-0.0003943253
0.007643323
-0.0004508269
0.007901268
-0.0004965128
0.008241057
-0.0006487851
0.008535613
-0.0005948411
0.009398655
-0.001644423
0.008586607
0.0009782001
-0.009496489
0.008619658
0.001166993
-0.008596603
-0.001679285
-0.008299977
-0.0006125748
-0.007955537
-0.0006593213
-0.007699406
-0.000494
-0.007459174
-0.0004578737
-0.007252589
-0.0003961856
-0.006910708
-0.0006004293
-0.006760223
-0.0002818038
-0.006627131
-0.0002441007
-0.006501118
-0.0002284535
-0.006385485
-0.0002067876
-0.006272023
-0.0002015791
-0.006164001
-0.000191921
-0.006058256
-0.0001857243
-0.005960917
-0.0001688534
-0.005866287
-0.000160495
-0.005775929
-0.0001536529
-0.005685233
-0.0001530589
-0.005599563
-0.0001436303
-0.005514699
-0.0001406751
-0.005433449
-0.0001333991
-0.005355859
-0.0001242474
-0.005278006
-0.0001254748
-0.005200982
-0.0001249163
-0.005123383
-0.0001261431
-0.005049246
-0.0001192771
-0.004976842
-0.0001130206
-0.004908025
-0.0001056304
-0.004836275
-0.0001102312
-0.00476655
-0.0001079388
-0.004693483
-0.0001139456
-0.004624715
-0.0001046995
-0.004556219
-0.0001014833
-0.004486747
-0.000104266
-0.004416181
-0.0001059453
-0.004344778
-0.0001079187
-0.004275667
-0.0001017333
-0.004207354
-9.805959e-05
-0.004241346
6.605015e-05
-0.004185706
-7.113913e-05
-0.004128371
-7.904019e-05
-0.004069434
-8.099104e-05
-0.004013089
-7.558834e-05
-0.003954325
-7.861522e-05
-0.003897248
-7.473311e-05
-0.003839134
-7.421983e-05
-0.003781269
-7.300032e-05
-0.003719971
-7.943648e-05
-0.003658265
-7.984951e-05
-0.003597406
-7.548251e-05
-0.003535955
-7.360313e-05
-0.003474293
-7.129321e-05
-0.003407639
-7.980008e-05
-0.003337907
-8.575742e-05
-0.003266591
-8.544872e-05
-0.003194821
-8.318882e-05
-0.00311722
-9.118273e-05
-0.003038323
-9.025041e-05
-0.002953047
-9.788608e-05
-0.002862246
-0.0001043568
-0.002765193
-0.0001099139
-0.002660627
-0.0001188915
-0.002536101
-0.0001556267
-0.002396935
-0.0001809596
-0.002246784
-0.0001916115
-0.002066664
-0.0002352914
-0.001843872
-0.0003028716
-0.001547647
-0.0004640385
-0.001088285
-0.0007456498
-0.001889937
-0.0001879915
0.0002946427
-0.0001266348
-0.001347509
0.0007833251
-0.004595223
0.004411772
-0.006279419
0.003732379
-0.005652547
0.0001273483
-0.004436036
-0.00193271
-0.003308056
-0.00218733
-0.002147377
-0.002075284
-0.001039351
-0.001984529
-1.500276e-05
-0.001810417
0.0009322501
-0.001684741
0.001778712
-0.001479673
0.002775507
-0.00176856
0.003615846
-0.001448151
0.004109663
-0.0008110427
0.004709105
-0.00104318
0.005346731
-0.001118044
0.0059833
-0.001103986
0.006554066
-0.0009632289
0.007025915
-0.0007648446
0.00740338
-0.000586954
0.00777066
-0.0005691525
0.007927484
-0.0001059576
0.008087201
0.000106659
0.007998729
0.0008718935
0.007133166
0.002519578
0.004194572
0.005486799
-0.0002037994
0.006197118
-0.002489381
0.002740302
-0.00197366
-0.001597191
-0.0008925397
-0.002617733
-0.002415513
0.002712053
-0.004974316
0.005394955
-0.00463583
0.000148638
-0.002787253
-0.003328486
-0.00172819
-0.001939674
-0.001279982
-0.0007926609
-0.0008242462
-0.0007738799
-3.664217e-05
-0.001440678
0.0002120217
-0.0005434991
-0.0003948516
0.0009893996
-0.001161919
0.001397568
-0.001161359
0.0001646449
-0.000737139
-0.0006278946
0.0001143708
-0.001353329
0.0009430268
-0.0008546038
0.001098257
0.000179133
0.002486803
-0.003434656
0.0009035272
0.0006883336
0.01766806
-0.002420808
0.003930903
-0.003361661
-0.00146746
-0.001891948
-0.0009261527
-0.0008072084
-0.0006819596
-0.0003429677
-0.0008092593
0.0001767036
-0.0006928356
-0.0003779823
-0.0001981888
-0.0008824192
0.0002291969
-0.0006947023
0.000450242
-0.0003203665
0.0004444523
0.0001329512
0.0002707997
0.0004070529
-6.691493e-05
0.000570416
-0.0002517377
0.0001392877
-8.008105e-05
-0.0004594903
6.222025e-05
-0.0003274108
0.0002435709
-0.0003174861
0.0005042143
-0.0003688388
0.0005923574
-3.431776e-06
0.0003358786
0.00056086
-7.027543e-06
0.0005394028
-0.0001839298
0.0001061683
-0.0002517718
-2.455711e-05
-0.0004149887
0.0001834477
-0.0006546414
0.0003148048
-0.0008848576
0.0003216315
-0.001064392
0.0002749235
-0.001192508
0.0002183107
-0.001276316
0.0001589517
-0.001325678
0.0001072841
-0.001351199
7.028205e-05
-0.001358442
4.105132e-05
-0.001349713
1.40872e-05
-0.001327252
-1.200174e-05
-0.001267086
-7.505634e-05
-0.001228642
-4.498771e-05
-0.001182048
-5.788443e-05
-0.001127772
-7.087517e-05
-0.001064623
-8.684e-05
-0.0009945328
-9.894182e-05
-0.0009204614
-0.000105827
-0.0008376435
-0.0001227926
-0.0007514707
-0.0001289082
-0.0006638841
-0.000131467
-0.0005733979
-0.0001383482
-0.0004838506
-0.0001394367
-0.0003963339
-0.0001387399
-0.0003143876
-0.0001282101
-0.0002297577
-0.0001277522
-0.0001319337
-0.0001446057
-3.327058e-06
-0.0001954452
0.0001473221
-0.0002388128
0.0002701941
-0.0001910056
0.0003780109
-0.0001662021
0.0004747211
-0.0001475858
0.0005719847
-0.0001492443
0.0006655739
-0.0001430919
0.0007563978
-0.0001382629
0.0008496464
-0.0001428237
0.0009391177
-0.0001352632
0.001022158
-0.0001228935
0.00109281
-0.0001006352
0.001159903
-9.58431e-05
0.001219339
-8.209342e-05
0.00126767
-6.123634e-05
0.001307323
-4.631992e-05
0.001346236
-4.799724e-05
0.001406657
-7.678394e-05
0.001420062
4.941e-06
0.001413902
3.693802e-05
0.001373449
8.889568e-05
0.001288185
0.0001466461
0.001149247
0.0001988314
0.0009773881
0.0001944493
0.0008476143
9.5122e-05
0.0006515018
0.0002318435
0.0003491867
0.0005057366
0.000240618
0.0002305443
0.0004570549
-0.0003668579
0.0009492811
-0.0008741083
0.001452752
-0.0007880716
0.001600685
-9.108951e-05
0.001361264
0.0004419333
0.0008099518
0.0007752219
0.0001479839
0.0009051993
-0.0002826539
0.0006890902
-0.0002839097
0.0001058503
-0.0001639724
-0.0001312694
0.0001132837
-0.0004388069
0.0005417685
-0.0007291345
0.001111474
-0.001018761
0.001589026
-0.0007180085
0.001515757
0.0004242844
0.0009343834
0.001053717
0.0001099237
0.001028134
-0.0007809064
0.00125201
-0.001142545
0.000792211
-0.001301103
0.0005400411
-0.001278872
4.085598e-05
-0.0006959805
-0.0009893776
-0.0006525556
-0.001099504
0.01783869
-0.00253283
0.0006547981
0.0007267747
-0.005925806
0.0005212649
0.0007617619
-0.001576867
0.003636532
-0.001370629
-0.0003355987
-0.0003300022
-0.001877604
0.0007639227
-0.001885651
0.001394622
-0.0008074336
0.001176006
0.0007065666
0.001001118
0.0002039217
0.001341926
-0.0008533893
0.001519246
-0.0003909199
0.0005015993
0.001178066
-0.00175666
0.003386548
-0.00306454
0.002677147
-0.002779207
7.673926e-05
-0.001998979
-0.001275587
-0.001344496
-0.001157605
-0.001171601
-0.0002121218
-0.001380865
0.0004541265
-0.00127725
-0.0001548173
-0.0003748529
-0.001617033
0.001157051
-0.002913463
0.003847871
-0.004728136
0.005227621
-0.001421933
0.003746209
0.002879978
0.0008911383
0.003936512
-0.001375729
0.003822554
-0.00177292
0.001295836
0.0005568629
-0.004234699
0.002959761
-0.004350845
0.003196415
-4.596402e-05
0.002777401
0.001067979
0.003442303
-0.001319561
0.002926932
-0.0001359688
-0.0007285221
0.004398778
-0.005397432
0.007176057
-0.007901241
0.005246642
-0.008629556
0.002440787
-0.008679166
0.0008925601
-0.008482468
0.0001060114
-0.008095982
-0.0004702807
-0.007496881
-0.0009606613
-0.006658556
-0.001441356
-0.005637027
-0.001860779
-0.004487777
-0.002194799
-0.003111177
-0.002476294
-0.001912261
-0.002021446
0.004342584
0.0009439318
-0.01083991
0.02773468
-0.002816661
0.00441539
-0.0007470656
-0.007995401
-0.0007816977
0.000796394
-0.002266792
0.005121626
-0.001789004
-0.0008133863
-0.0006259278
-0.003040681
0.0006718174
-0.003183396
0.001582336
-0.001717952
0.001690566
0.0005983369
0.001576162
0.0003183257
0.001719909
-0.0009971371
0.001245142
8.384786e-05
-0.0008952226
0.00331843
-0.003361366
0.005852692
-0.004020312
0.003336092
-0.003527755
-0.0004158172
-0.002711223
-0.00209212
-0.001895161
-0.001973667
-0.001617274
-0.0004900084
-0.001868
0.0007048524
-0.001874884
-0.0001479337
-0.0008328635
-0.002659053
0.00111473
-0.004861057
0.004183903
-0.007797308
0.006417819
-0.003655849
0.005418782
0.003879015
0.001591495
0.007763798
-0.001298147
0.006712196
-0.0014186
0.001416289
0.001200113
-0.006853411
0.003873573
-0.007024306
0.004240593
-0.0004129832
0.003970303
0.001338268
0.004058737
-0.001407995
0.0008073617
0.003115406
-0.00510433
0.01031047
-0.009053078
0.01112481
-0.01014302
0.006336588
-0.01041914
0.002716904
-0.01052368
0.0009971008
-0.01043017
1.249578e-05
-0.010045
-0.0008554516
-0.009361767
-0.00164389
-0.008398752
-0.002404371
-0.007204632
-0.003054898
-0.005841605
-0.003557826
-0.00425446
-0.004063439
-0.00315202
-0.003123887
-0.004628835
0.005819399
-0.003218447
-0.004772048
-0.002137639
-0.002972757
-0.001399846
-0.001545002
-0.0009349646
-0.0008078488
-0.0009871579
0.0002288969
-0.0009292426
-0.0004358976
-0.0003556662
-0.001455996
0.0001899381
-0.001240307
0.0004681516
-0.0005985799
0.0005081199
9.298285e-05
0.0004706358
0.0004445369
0.0002139837
0.0008270681
-0.0001514645
0.0005047359
-0.00025509
-0.0003558648
-0.0001624619
-0.0004200389
0.0001131465
-0.0005930945
0.0004213487
-0.000677041
0.0005660142
-0.0001480973
0.0003877412
0.000739133
-4.590639e-05
0.0009730504
-0.0005417186
0.0006019805
-0.0009408679
0.0003745921
-0.00126296
0.0005055396
-0.001526694
0.0005785389
-0.001719369
0.0005143067
-0.001834014
0.0003895685
-0.001893209
0.0002775061
-0.001915923
0.0001816651
-0.001915092
0.0001064536
-0.001899373
5.456259e-05
-0.001871946
1.36241e-05
-0.001834425
-2.343383e-05
-0.001787169
-5.925726e-05
-0.001697069
-0.000165156
-0.00163522
-0.0001068367
-0.001563552
-0.0001295527
-0.001484005
-0.0001504222
-0.001395002
-0.000175843
-0.001298533
-0.0001954106
-0.001198274
-0.0002060859
-0.001088779
-0.0002322883
-0.0009761767
-0.0002415102
-0.0008629636
-0.0002446802
-0.0007479921
-0.0002533197
-0.0006359371
-0.0002514917
-0.0005268536
-0.0002478234
-0.0004221425
-0.0002329212
-0.0003099495
-0.0002399451
-0.0001795259
-0.0002750294
-1.458322e-05
-0.0003603878
0.0001749254
-0.0004283215
0.0003291032
-0.0003451833
0.000465718
-0.0003028169
0.0005900658
-0.0002719336
0.0007152235
-0.0002744021
0.0008359683
-0.0002638367
0.0009533068
-0.0002556015
0.001073666
-0.0002631825
0.001190336
-0.0002519337
0.001300831
-0.0002333888
0.001397492
-0.0001972955
0.001490133
-0.0001884845
0.00157444
-0.0001664004
0.001647581
-0.0001343776
0.001712432
-0.0001111707
0.001777064
-0.0001126296
0.001870882
-0.0001706012
0.001916756
-4.093361e-05
0.001951881
1.813155e-06
0.001962333
7.844389e-05
0.001933887
0.000175092
0.001840435
0.0002922838
0.001634279
0.0004006047
0.001294272
0.0004351294
0.0008476767
0.0006784386
0.0004974965
0.0008559169
0.0004718388
0.000256202
0.0007457762
-0.0006407953
0.001259703
-0.001388035
0.001800329
-0.001328698
0.002007206
-0.000297966
0.001730581
0.0007185587
0.0008827229
0.00162308
-7.642797e-05
0.00186435
-0.0004737918
0.001086454
-0.0003537163
-1.422517e-05
-0.000189227
-0.0002957586
0.0001717876
-0.0007998214
0.0007037903
-0.001261137
0.001375928
-0.001690899
0.001939302
-0.001281383
0.002003481
0.0003601053
0.001421375
0.001635824
0.0001205271
0.002328982
-0.001085724
0.002458262
-0.001472569
0.001179056
-0.001701908
0.0007693808
-0.00159111
-6.994278e-05
-0.000912785
-0.001667702
-0.0003319691
-0.001233372
-0.001377299
0.0009186954
-0.004398578
0.003804604
-0.007657596
0.007670791
-0.008022671
0.004097453
-0.006831451
-0.001063871
-0.005600545
-0.003163616
-0.004145633
-0.003642242
-0.002711216
-0.003509701
-0.001346553
-0.003349191
-7.02997e-05
-0.00308667
0.001102838
-0.002857878
0.002124432
-0.002501267
0.003325843
-0.002969971
0.004374013
-0.00249632
0.004962174
-0.001399204
0.0056476
-0.001728606
0.006382041
-0.001852486
0.007148451
-0.001870395
0.007853277
-0.001668055
0.008441519
-0.001353087
0.00890754
-0.001052975
0.00936156
-0.001023172
0.009517184
-0.000261582
0.009643297
-1.945355e-05
0.009571333
0.0009438576
0.009382485
0.002708426
0.007790581
0.007078702
0.003265779
0.01072192
-0.001280185
0.007286266
-0.002866555
-1.08213e-05
-0.002915861
-0.002568426
-0.004363264
0.004159455
-0.005934037
0.006965728
-0.005180318
-0.0006050817
-0.00310648
-0.005402324
-0.001826137
-0.003220017
-0.001286127
-0.001332671
-0.0007174905
-0.001342516
0.0001648459
-0.002323015
0.0003038538
-0.0006825071
-0.0004325611
0.001725815
-0.001150934
0.002115941
-0.001091011
0.0001047219
-0.0006204491
-0.001098457
0.000373032
-0.00234681
0.001585857
-0.002067428
0.002177077
-0.0004120871
0.002772949
-0.004030528
-0.001077152
0.004538434
-0.01088424
0.02747514
-0.01170325
0.001986011
-0.01079562
-0.002586921
-0.01041805
-0.0009901424
-0.01003635
-0.001041023
-0.009751792
-0.0007785554
-0.009488255
-0.0007214111
-0.009267336
-0.0006171048
-0.008875907
-0.0009918578
-0.00871298
-0.0004447312
-0.008564892
-0.0003921887
-0.008424122
-0.0003692235
-0.008293934
-0.0003369749
-0.008165283
-0.0003302308
-0.008042532
-0.0003146712
-0.007921219
-0.000307038
-0.007808399
-0.0002816735
-0.007697103
-0.0002717907
-0.007590349
-0.0002604066
-0.00748235
-0.0002610581
-0.007379568
-0.0002464127
-0.007276699
-0.0002435442
-0.007177057
-0.0002330408
-0.007080596
-0.0002207085
-0.006983434
-0.0002226367
-0.006887369
-0.000220981
-0.006790258
-0.0002232546
-0.006696458
-0.0002130771
-0.006603114
-0.0002063643
-0.006513177
-0.000195568
-0.006419118
-0.0002042899
-0.006327812
-0.0001992444
-0.006232073
-0.0002096845
-0.006140656
-0.0001961169
-0.006048326
-0.000193813
-0.005954655
-0.0001979376
-0.005859648
-0.0002009518
-0.005763155
-0.0002044114
-0.005667365
-0.0001975238
-0.005569418
-0.000196007
-0.005593855
9.048772e-05
-0.005505697
-0.0001592971
-0.005423656
-0.0001610818
-0.005338371
-0.0001662756
-0.005256292
-0.0001576674
-0.005170755
-0.0001641521
-0.005087079
-0.0001584095
-0.005001609
-0.0001596894
-0.00491644
-0.0001581693
-0.004827283
-0.0001685933
-0.004737763
-0.0001693697
-0.004648844
-0.0001644018
-0.00455858
-0.0001638666
-0.004467871
-0.0001620026
-0.004371531
-0.0001761402
-0.004271992
-0.0001852958
-0.004170821
-0.0001866197
-0.004069063
-0.0001849475
-0.003960126
-0.0002001191
-0.003850114
-0.0002002625
-0.003732798
-0.0002152025
-0.003609777
-0.0002273772
-0.003479631
-0.0002400606
-0.003341277
-0.0002572454
-0.003179301
-0.0003176019
-0.003002337
-0.000357924
-0.002815965
-0.000377984
-0.002593955
-0.0004573013
-0.002320886
-0.0005759405
-0.001944472
-0.0008404525
-0.001261604
-0.001428517
-5.275385e-05
-0.003098787
0.001177665
-0.003155477
0.001832823
-0.001348971
0.002199009
-0.0008333279
0.002483089
-0.0006127343
0.002712728
-0.0004846751
0.002922521
-0.000439521
0.003108013
-0.0003740075
0.003263994
-0.0002962125
0.003403397
-0.0002614228
0.003546436
-0.0002778032
0.003682044
-0.0002616192
0.003812107
-0.0002452476
0.003930714
-0.0002162279
0.004044894
-0.0002062512
0.00415256
-0.0001941436
0.004260137
-0.0001974293
0.004363292
-0.0001877529
0.004460792
-0.0001735021
0.004554554
-0.0001675139
0.004648416
-0.0001716968
0.004738642
-0.0001636708
0.004825086
-0.0001564547
0.004913052
-0.0001628649
0.004995019
-0.00014984
0.005078913
-0.0001591357
0.005163404
-0.0001650191
0.005245425
-0.0001557397
0.005322589
-0.0001433803
0.005401439
-0.0001490381
0.005478688
-0.0001504499
0.005561296
-0.000146165
0.005530752
0.0001071144
0.005621824
-0.0001809214
0.005713927
-0.0001932358
0.005804502
-0.0001931112
0.00589474
-0.000193743
0.005985817
-0.0001986627
0.006076801
-0.0001965127
0.00616423
-0.000186988
0.006254278
-0.000194986
0.00634429
-0.0002009439
0.006439732
-0.0002151694
0.006529975
-0.00019982
0.006621157
-0.0001994074
0.006712533
-0.0002034741
0.006807156
-0.0002133792
0.00690113
-0.0002137785
0.006999452
-0.0002278575
0.007099751
-0.0002341848
0.00720032
-0.0002354261
0.007304549
-0.0002436783
0.007404451
-0.0002328349
0.007513532
-0.0002602265
0.007622072
-0.0002633773
0.00773547
-0.0002754129
0.007850802
-0.0002846997
0.007969819
-0.0002944115
0.008093446
-0.0003120904
0.008224888
-0.0003353723
0.008357405
-0.0003399316
0.00849742
-0.0003626583
0.008649335
-0.0003997556
0.008815216
-0.0004503875
0.00920463
-0.0009839654
0.009426226
-0.0006159213
0.0096869
-0.0007115009
0.009974532
-0.0007841451
0.0103547
-0.001028957
0.01072948
-0.0009696166
0.01160312
-0.002518067
0.001741409
0.001235992
6.667856e-05
-0.004458147
0.0020562
-0.002169179
0.002513211
-0.001290339
0.002862463
-0.0009619861
0.003151065
-0.0007732774
0.003414111
-0.0007025662
0.003645398
-0.0006052943
0.003841623
-0.0004924377
0.004017106
-0.0004369056
0.004195846
-0.000456544
0.004364797
-0.0004305701
0.004527225
-0.0004076751
0.004676241
-0.000365244
0.004819542
-0.0003495529
0.004955097
-0.0003296986
0.005089757
-0.0003320889
0.005219576
-0.0003175717
0.005342007
-0.0002959332
0.005460293
-0.0002858004
0.005578124
-0.0002895268
0.00569158
-0.0002771268
0.005800345
-0.0002652199
0.005910996
-0.0002735161
0.006013954
-0.0002527985
0.006119153
-0.0002643348
0.006225103
-0.0002709691
0.006327424
-0.00025806
0.006424613
-0.0002405701
0.006523144
-0.0002475683
0.006619667
-0.0002469734
0.006723979
-0.0002504766
0.006693181
0.000137912
0.006803877
-0.0002916173
0.006917818
-0.0003071761
0.007028393
-0.0003036868
0.007138521
-0.0003038707
0.00724967
-0.0003098115
0.007360277
-0.0003071206
0.00746675
-0.0002934608
0.007576011
-0.0003042471
0.007685205
-0.0003101377
0.007800645
-0.0003306096
0.007909821
-0.0003089952
0.008020052
-0.0003096388
0.008130707
-0.0003141287
0.008244776
-0.0003274485
0.008357995
-0.0003269973
0.008476499
-0.0003463616
0.008597001
-0.0003546873
0.008717908
-0.0003563327
0.008843279
-0.0003690491
0.008962894
-0.0003524503
0.009094204
-0.0003915366
0.009223932
-0.0003931053
0.009359302
-0.0004107831
0.009497369
-0.0004227664
0.009638685
-0.0004357277
0.009786364
-0.0004597688
0.009942418
-0.0004914265
0.01009956
-0.0004970779
0.01026557
-0.0005286602
0.01044581
-0.0005800018
0.01086468
-0.0008692538
0.01110635
-0.001225632
0.01136663
-0.0008762083
0.01167633
-0.001021196
0.01202843
-0.001136244
0.01248144
-0.00148197
0.01300658
-0.001494753
0.01382266
-0.003334152
0.01336525
0.002198816
-0.01393745
0.0134006
0.002522865
-0.01308742
-0.003436954
-0.01255837
-0.001519187
-0.01210578
-0.001493611
-0.01175882
-0.001125517
-0.01144499
-0.001035245
-0.0111853
-0.0008767932
-0.01094315
-0.001234004
-0.01052525
-0.0008626378
-0.01035048
-0.0005669538
-0.01018371
-0.0005359998
-0.01002962
-0.0004910587
-0.009877157
-0.0004826969
-0.009731351
-0.0004604779
-0.009587187
-0.0004512015
-0.009452423
-0.0004164378
-0.009319703
-0.0004045103