/*--------------------------------*- C++ -*----------------------------------*\
| =========                 |                                                 |
| \\      /  F ield         | OpenFOAM: The Open Source CFD Toolbox           |
|  \\    /   O peration     | Version:  2406                                  |
|   \\  /    A nd           | Website:  www.openfoam.com                      |
|    \\/     M anipulation  |                                                 |
\*---------------------------------------------------------------------------*/
FoamFile
{
    version     2.0;
    format      ascii;
    arch        "LSB;label=32;scalar=64";
    class       volScalarField;
    location    "4.14";
    object      p;
}
// * * * * * * * * * * * * * * * * * * * * * * * * * * * * * * * * * * * * * //

dimensions      [0 2 -2 0 0 0 0];

internalField   nonuniform List<scalar> 
15536
(
-60.85744
-62.00412
-61.30972
-58.47676
-53.41466
-47.3151
-43.30808
-41.31255
-37.38034
-32.63284
-32.5694
-36.85487
-42.55632
-50.66432
-62.41783
-77.02708
-92.19597
-100.2879
-94.5098
-74.53024
-47.8411
-30.92933
-29.22503
-40.02859
-57.96445
-71.82786
-79.15068
-82.01383
-89.92902
-117.54
-162.8272
-181.8071
-145.1201
-104.0449
-111.6921
-129.1932
-133.7288
-129.798
-130.7311
-134.33
-136.9605
-138.1416
-137.8133
-136.4501
-134.5852
-131.8697
-128.4085
-124.0482
-119.3509
-114.4426
-108.9177
-102.8845
-96.27571
-89.35831
-82.06298
-74.46552
-66.9227
-59.32744
-51.40857
-43.36299
-35.49578
-27.80803
-20.1766
-12.66147
-5.401234
1.710869
8.507191
14.95582
20.95269
26.50899
31.58347
36.18371
40.26913
43.76525
46.65141
49.03042
50.76557
51.89853
52.51408
52.63061
51.93142
50.59471
48.69064
46.20699
43.16484
39.58633
35.53787
30.94018
25.94823
20.61935
14.8104
8.692181
2.340199
-4.402738
-11.28142
-18.10513
-25.06681
-32.14392
-39.16219
-46.18997
-53.06564
-59.61709
-65.79634
-71.67371
-77.35547
-82.54844
-87.22321
-91.32594
-94.85735
-97.86745
-100.0919
-101.4266
-101.8623
-101.3462
-99.50139
-95.85673
-90.38992
-85.25845
-80.62241
-78.51106
-109.8731
-129.9563
-100.7125
-61.35875
-40.37155
-28.26116
-11.84906
5.30744
-34.3176
-85.58553
-85.15669
-56.74734
-31.18668
-15.42393
-2.903849
5.54986
8.951762
10.95285
11.64534
5.060174
0.6651356
1.498694
4.78336
4.546607
-1.587938
-12.35622
-23.94484
-32.08346
-34.68862
-35.01811
-37.31818
-40.09748
-42.10713
-45.65761
-50.24311
-54.41297
-58.12313
-60.57557
-61.70056
-61.02637
-58.28769
-53.31535
-47.32678
-43.31641
-41.28202
-37.37892
-32.65296
-32.58365
-36.84923
-42.5365
-50.64846
-62.41329
-77.0091
-92.10977
-100.1246
-94.47424
-74.54681
-47.87498
-30.78867
-29.22196
-40.12005
-58.06292
-71.86117
-79.08975
-81.8897
-89.76069
-117.3994
-162.7909
-181.9004
-144.9731
-103.9645
-111.7284
-129.2013
-133.7224
-129.6011
-130.1183
-133.3413
-135.6202
-136.6263
-136.2247
-134.8162
-132.9351
-130.2127
-126.7682
-122.4316
-117.7607
-112.8937
-107.4128
-101.4315
-94.8769
-88.02069
-80.79322
-73.26471
-65.79113
-58.2701
-50.43059
-42.4597
-34.66756
-27.05564
-19.49877
-12.05495
-4.861496
2.180623
8.90854
15.29474
21.23423
26.73614
31.76187
36.31892
40.36625
43.83192
46.69194
49.05118
50.77326
51.89839
52.5108
52.62714
51.93349
50.61069
48.72603
46.26707
43.25532
39.71311
35.70584
31.1547
26.21613
20.94107
15.19081
9.138632
2.851503
-3.826687
-10.63566
-17.38865
-24.28112
-31.28598
-38.23284
-45.19062
-51.99842
-58.48315
-64.59979
-70.4232
-76.05691
-81.20252
-85.83818
-89.90605
-93.41246
-96.41111
-98.63311
-99.98225
-100.4486
-100.0036
-98.31602
-94.96348
-89.82245
-85.02076
-80.49869
-78.41082
-109.6762
-129.9506
-100.776
-61.36293
-40.41631
-28.37423
-11.967
5.465527
-34.43894
-85.90887
-85.0984
-56.628
-31.12673
-15.43208
-2.94123
5.542944
9.000884
10.98423
11.64082
5.07252
0.6791042
1.505454
4.75848
4.505399
-1.610978
-12.31026
-23.82778
-31.97798
-34.61125
-34.97675
-37.30003
-40.08795
-42.07273
-45.57925
-50.10374
-54.21758
-57.8794
-60.50431
-61.65835
-60.97774
-58.22059
-53.38593
-47.50389
-43.4113
-41.26472
-37.37204
-32.661
-32.5688
-36.81743
-42.50323
-50.63481
-62.44278
-77.06442
-92.16777
-100.2125
-94.67379
-75.01881
-48.28752
-30.70046
-29.20748
-40.30769
-58.19484
-71.95903
-79.15406
-81.8736
-89.7246
-117.5008
-163.1759
-182.5716
-145.3077
-104.0365
-111.4042
-128.23
-132.4584
-128.9196
-129.3694
-132.2909
-134.4818
-135.5779
-135.2244
-133.8343
-131.9911
-129.2949
-125.8854
-121.5681
-116.9111
-112.079
-106.6164
-100.6668
-94.14061
-87.32026
-80.13571
-72.62572
-65.18397
-57.7091
-49.8982
-41.96021
-34.20285
-26.63293
-19.11606
-11.70374
-4.554512
2.457082
9.149377
15.50252
21.41034
26.88306
31.87905
36.40922
40.43245
43.87953
46.71848
49.06375
50.77585
51.89352
52.50213
52.61714
51.92874
50.61821
48.74834
46.30703
43.31658
39.79814
35.81827
31.29121
26.38353
21.14113
15.41889
9.401596
3.15095
-3.497029
-10.27005
-16.9814
-23.84111
-30.81399
-37.71967
-44.65525
-51.43062
-57.88858
-63.98029
-69.7648
-75.36987
-80.48519
-85.10183
-89.15057
-92.63609
-95.61978
-97.81825
-99.1343
-99.57262
-99.08289
-97.32547
-94.04102
-89.18647
-84.58466
-80.16238
-78.70669
-109.9843
-130.3457
-101.0445
-61.52086
-40.43934
-28.39059
-11.93692
5.749908
-35.49769
-87.46333
-85.58074
-56.70842
-31.10264
-15.47796
-3.036117
5.484881
9.010204
11.00849
11.54278
4.896776
0.5874233
1.457494
4.680571
4.407855
-1.693916
-12.33949
-23.81448
-31.96147
-34.5422
-34.88688
-37.27987
-40.09147
-42.05695
-45.53648
-50.02789
-54.12254
-57.79462
-60.27555
-61.35727
-60.71978
-58.07402
-53.44495
-47.76289
-43.52703
-41.05166
-37.13778
-32.57292
-32.50909
-36.74126
-42.41688
-50.64361
-62.52165
-77.21735
-92.38321
-100.4477
-95.05227
-75.92255
-49.25091
-30.62529
-28.97755
-40.36268
-58.17411
-71.88003
-79.08362
-81.79923
-89.75604
-117.6979
-163.5939
-183.2481
-146.1919
-104.9488
-111.1072
-126.3834
-130.2266
-127.6979
-128.2729
-130.7996
-132.7116
-133.5572
-133.1301
-131.6852
-129.8632
-127.1898
-123.8385
-119.5535
-114.9429
-110.1823
-104.8006
-98.9379
-92.4938
-85.7579
-78.66726
-71.25049
-63.89484
-56.51759
-48.81611
-40.96265
-33.2914
-25.81477
-18.38909
-11.05575
-3.993895
2.942134
9.5598
15.84956
21.69329
27.10678
32.05047
36.5361
40.52041
43.93871
46.74609
49.0729
50.77257
51.88116
52.48527
52.59718
51.91349
50.62006
48.77085
46.35455
43.39602
39.91599
35.98312
31.49999
26.65265
21.47113
15.80755
9.868218
3.690764
-2.892011
-9.573286
-16.19824
-22.98093
-29.8624
-36.67834
-43.52831
-50.21604
-56.57879
-62.57636
-68.29007
-73.8246
-78.85686
-83.4051
-87.38144
-90.82705
-93.77432
-95.93825
-97.24272
-97.70457
-97.33987
-95.77651
-92.72615
-88.27073
-83.98228
-80.06888
-79.85429
-110.4428
-130.2658
-101.0789
-61.66133
-40.4008
-28.14214
-11.55744
6.054656
-37.79218
-90.26745
-86.52791
-56.99301
-31.11256
-15.54737
-3.170257
5.371015
9.0273
11.00326
11.25404
4.499976
0.4144694
1.337427
4.523227
4.217015
-1.880762
-12.45859
-23.85497
-31.9946
-34.52019
-34.78512
-37.23635
-40.0907
-42.0458
-45.4945
-49.92881
-53.9715
-57.61869
-60.13432
-61.2797
-60.66634
-58.02456
-53.51672
-48.01849
-43.60478
-40.58304
-36.58403
-32.34628
-32.40683
-36.61066
-42.27088
-50.67915
-62.67999
-77.51242
-92.83469
-100.993
-95.73371
-77.17778
-50.64068
-30.64807
-28.37996
-40.04342
-57.76474
-71.32995
-78.73286
-81.78378
-89.99026
-117.8812
-163.6704
-183.0704
-147.1901
-107.276
-111.7057
-124.5789
-127.9228
-126.2908
-127.0319
-129.3137
-131.094
-132.0292
-131.6678
-130.1818
-128.3987
-125.6655
-122.3549
-118.0817
-113.4439
-108.758
-103.3823
-97.56954
-91.14654
-84.46659
-77.44903
-70.06041
-62.76065
-55.47559
-47.84303
-40.04018
-32.43666
-25.0486
-17.70017
-10.42373
-3.446902
3.429191
9.978157
16.20504
21.98052
27.33991
32.2311
36.67011
40.60737
43.99363
46.76633
49.07181
50.75811
51.8562
52.45464
52.56008
51.88014
50.61139
48.78968
46.40216
43.47848
40.03748
36.15387
31.71324
26.93288
21.80894
16.19029
10.33484
4.230852
-2.313954
-8.915427
-15.45596
-22.18333
-29.00154
-35.73331
-42.53798
-49.17108
-55.47755
-61.42592
-67.08706
-72.5983
-77.58411
-82.12189
-86.08017
-89.51255
-92.50284
-94.62995
-95.9337
-96.39825
-95.96105
-94.38725
-91.45576
-87.30835
-83.33414
-80.32608
-81.39832
-109.0066
-126.701
-99.30149
-61.42313
-40.2691
-27.61258
-10.89862
5.718022
-41.05265
-94.29066
-88.14412
-57.51747
-31.11634
-15.62761
-3.322853
5.225551
9.102976
10.94941
10.72249
3.889717
0.1418423
1.114594
4.27752
3.884359
-2.238293
-12.71304
-24.01343
-32.1389
-34.5842
-34.71513
-37.16286
-40.07065
-42.03572
-45.46218
-49.8365
-53.82982
-57.48195
-59.97907
-61.10706
-60.51166
-57.95328
-53.58757
-48.23923
-43.64785
-40.09076
-35.97022
-32.03141
-32.28057
-36.41038
-42.06684
-50.73038
-62.9705
-78.04728
-93.62192
-101.9913
-96.87293
-78.83232
-52.51149
-30.83628
-27.40461
-39.25013
-56.70242
-70.07467
-77.8974
-81.75333
-90.43075
-117.3529
-161.1793
-179.735
-146.6588
-110.2752
-112.8251
-122.7466
-125.5698
-124.5747
-125.3024
-127.241
-128.7015
-129.401
-128.9211
-127.2925
-125.5734
-122.9943
-119.8174
-115.5938
-110.9914
-106.4701
-101.1796
-95.50276
-89.1754
-82.59101
-75.68991
-68.38733
-61.20904
-54.06368
-46.53054
-38.81882
-31.33606
-24.06019
-16.81867
-9.62366
-2.768836
4.029564
10.48025
16.60966
22.30976
27.61554
32.44062
36.81876
40.69001
44.04669
46.77686
49.05195
50.72658
51.81144
52.40184
52.49737
51.82563
50.58278
48.79763
46.44685
43.56613
40.17409
36.34461
31.94758
27.26351
22.21998
16.63823
10.88337
4.909006
-1.579599
-8.086779
-14.49771
-21.12562
-27.85792
-34.47637
-41.18191
-47.7129
-53.91552
-59.74488
-65.30865
-70.75229
-75.61518
-80.07507
-83.92418
-87.26845
-90.16552
-92.22571
-93.44193
-93.92551
-93.72298
-92.34189
-89.67866
-85.98095
-82.42284
-80.37348
-82.12221
-104.0775
-117.6548
-94.92051
-60.72724
-40.16132
-27.30851
-10.67378
3.891709
-45.40767
-99.63921
-90.66677
-58.44618
-31.21482
-15.69025
-3.457484
5.094862
9.40242
10.9104
9.936756
3.065292
-0.2610939
0.7484088
3.957647
3.391869
-2.802883
-13.21839
-24.34901
-32.46583
-34.77326
-34.71218
-37.04978
-40.00172
-42.01234
-45.44092
-49.74996
-53.69561
-57.36195
-59.859
-61.00395
-60.4692
-57.98133
-53.7623
-48.48515
-43.6805
-39.6982
-35.47278
-31.7556
-32.14947
-36.10308
-41.80185
-50.77643
-63.4299
-78.95311
-94.88623
-103.6099
-98.65563
-80.97565
-54.92582
-31.62826
-26.694
-38.27013
-55.32214
-68.22257
-76.66438
-81.69467
-90.90404
-115.3332
-153.7038
-169.9439
-142.673
-112.4726
-113.5022
-120.6693
-123.134
-122.7094
-123.45
-125.1638
-126.4255
-127.1307
-126.8196
-125.0421
-123.4994
-120.5844
-117.4754
-113.2695
-108.6175
-104.2317
-98.9409
-93.40602
-87.10888
-80.54988
-73.80034
-66.63681
-59.53192
-52.45579
-45.07792
-37.51291
-30.11864
-22.89379
-15.84573
-8.726394
-2.019691
4.702157
11.01491
17.04876
22.74047
27.93166
32.65608
36.94983
40.75973
44.13979
46.77603
49.01283
50.67637
51.74056
52.3216
52.41146
51.75417
50.50633
48.75379
46.45122
43.62828
40.32037
36.56404
32.18956
27.60854
22.69627
17.19438
11.48188
5.610898
-0.7190151
-7.145738
-13.46222
-19.96785
-26.5331
-33.1124
-39.74063
-46.11022
-52.24915
-57.94658
-63.42406
-68.84456
-73.59482
-78.04302
-81.81262
-85.16654
-88.15733
-90.19501
-91.52792
-92.08031
-91.7347
-90.40363
-87.92208
-84.61322
-81.42426
-80.03258
-81.8088
-97.83603
-108.0542
-89.45
-59.90791
-40.21233
-27.44483
-11.55656
0.01824872
-51.28362
-105.9414
-94.25276
-60.0167
-31.89092
-15.69268
-3.45685
5.034359
10.07285
11.00874
8.913809
2.020278
-0.8474871
0.2180115
3.47318
2.813483
-3.583045
-14.24248
-25.0689
-33.05854
-35.13634
-34.83244
-36.87705
-39.83773
-41.96093
-45.44142
-49.64816
-53.56701
-57.29968
-59.8252
-60.99479
-60.56505
-58.11097
-54.00994
-48.79264
-43.76218
-39.39039
-35.14547
-31.56401
-31.98826
-35.84014
-41.40002
-50.70624
-63.83923
-80.10664
-97.09123
-106.0161
-101.3801
-83.92501
-58.01399
-33.78951
-26.86689
-37.75443
-54.07115
-66.08362
-75.24848
-81.2761
-90.9818
-111.8015
-142.2217
-155.8226
-136.2598
-113.3526
-113.2629
-118.2497
-120.3935
-120.3028
-120.8068
-122.2438
-123.196
-123.6132
-123.3784
-121.2884
-119.7877
-117.2315
-114.245
-110.3404
-105.3726
-101.2402
-96.11623
-90.79722
-84.46259
-78.00233
-71.67134
-64.69608
-57.31102
-50.4399
-43.5106
-36.12703
-28.53071
-21.45078
-14.84948
-7.695784
-1.225456
5.467096
11.51747
17.66003
23.34812
28.24753
32.83925
37.01973
40.82859
44.25681
46.71535
48.96641
50.59772
51.63506
52.21802
52.30898
51.62563
50.38525
48.63959
46.39444
43.63507
40.42507
36.84508
32.45808
27.95412
23.20382
17.99127
12.3299
6.235211
0.1954664
-5.896869
-12.33804
-18.76691
-24.90056
-31.336
-38.23546
-44.16595
-50.3104
-55.837
-61.14162
-66.55919
-71.06687
-75.55159
-79.0768
-82.31052
-85.32447
-87.19445
-88.34531
-88.7305
-88.85374
-87.74569
-85.54456
-82.71979
-79.97826
-79.14612
-80.86784
-92.17591
-99.13961
-83.45596
-58.9115
-40.49356
-28.40086
-14.02143
-5.638503
-58.44626
-112.0741
-97.59212
-61.44518
-33.07646
-15.73602
-2.975668
5.281547
11.16457
11.28916
7.662217
0.7449698
-1.566771
-0.3215285
2.527056
2.057171
-5.031087
-15.85923
-26.76253
-34.16949
-35.66524
-35.07999
-36.63352
-39.60775
-41.86226
-45.4754
-49.52394
-53.39546
-57.34144
3.752319
3.00019
-48.64567
-1.051605
9.715473
-2.50679
3.289621
-0.3373763
6.303538
1.482518
-1.531613
-0.2048134
2.036732
2.000725
2.387133
2.139943
-0.4285081
1.0803
0.8030997
-0.7560121
-24.51605
1.825731
1.454856
1.475218
2.679832
2.170052
-2.427203
1.821529
-1.432786
1.354583
0.2145604
-31.36349
2.353488
1.183299
1.624611
0.1654397
-16.33356
0.3165711
0.545653
-0.3939984
-11.63407
3.412864
3.016386
5.896439
28.68409
2.459601
2.303408
1.731792
-19.20725
1.70766
-1.345131
-6.400061
-6.131712
1.035277
0.4683127
17.20309
3.552101
1.924532
-4.802704
-0.07129678
1.969221
0.05595867
-53.84885
0.9996929
-6.677371
2.147361
-44.01993
0.4196277
2.239271
1.287519
2.095949
2.281771
2.786314
-17.99719
23.31618
0.7609613
5.069631
1.620989
-13.72948
1.200664
1.356369
0.4628573
3.221163
1.659068
-2.442489
2.708334
2.300482
-0.7937592
-39.64158
-2.657404
-7.547196
26.40646
-14.83849
1.519931
2.766486
0.04827126
-20.01771
7.581395
-82.02441
2.761893
-0.3864924
-0.7234704
1.782964
-64.35949
0.150868
-26.06507
2.490092
2.550527
-8.234568
-17.13891
-0.7053176
4.594662
6.664309
8.615066
-31.89058
0.4607133
0.7901789
1.179293
25.68254
2.342685
-0.3577234
0.7596954
2.2268
1.754301
1.428653
-12.59997
2.40727
-61.10089
2.218293
2.15581
0.4669815
-3.306309
1.499913
2.531222
-0.7085319
-0.4521852
0.2902447
2.545284
-0.1601201
0.8526767
-58.55351
2.828926
-45.60777
3.060171
1.250005
-7.304336
-1.263045
-31.11534
0.6745661
2.139268
2.811497
-28.32776
-59.39215
-1.745914
-19.44188
-91.29669
1.328168
1.462164
1.270987
-6.193452
1.750263
-6.79375
-16.06341
-2.170346
1.847957
-13.39871
-11.04717
3.16322
-44.9374
0.8832703
3.119313
-7.732342
2.9981
-66.82083
-1.612183
-8.855682
1.610725
2.780026
-52.50059
-11.81154
14.7237
-0.6225159
1.231602
2.141736
6.852553
-31.02052
1.500244
0.7641938
-12.61355
0.7093992
2.250245
-0.05809325
-0.6940217
1.044484
2.520049
2.53331
1.205747
3.049036
2.740441
-19.58864
-1.006522
-19.83292
3.325284
-10.91585
0.1238762
-0.7188288
-1.211123
-0.17934
-2.431208
1.625526
1.337203
2.057103
-5.573521
-5.613179
1.711189
-14.19903
-3.994406
-0.5574233
12.51268
0.9124298
0.9050244
-17.17111
2.797756
-8.149872
0.5185888
-1.711209
2.640338
8.997632
1.699504
15.92771
-3.424598
-40.68366
0.6403484
0.4637119
-39.1865
1.723385
21.68834
-6.965015
3.587291
3.068746
2.483439
0.4954207
0.6069747
-14.8967
0.4722684
-15.93359
2.265307
-60.13968
1.028244
3.347754
-15.67912
3.011931
-1.255051
-0.5905607
3.32368
-9.848519
3.415579
0.7307862
-50.21457
-0.8823677
-11.30634
0.4160299
-22.45486
0.6654429
2.211458
1.860064
2.547153
0.627333
2.888915
-13.84407
1.158318
1.397456
12.77131
1.928111
1.18934
3.206596
1.049544
-41.30745
-82.32986
2.255564
2.523288
3.005515
-6.127199
0.4854223
1.506683
1.619583
39.68414
2.25171
1.543728
1.562929
-0.5821617
0.4671639
2.667321
2.446415
-52.1496
1.893198
-6.514729
0.5496334
2.361291
2.871748
-26.41394
0.4842837
-3.182344
-38.41919
2.710589
0.3024982
1.537067
2.123907
2.828631
0.6128044
8.772905
-2.234748
1.202405
2.835209
2.421572
-4.652749
34.53648
-34.43761
-39.56778
-90.68801
2.591599
1.370667
-1.891516
1.523033
0.2878353
-3.813002
1.295413
1.785433
2.18752
-12.9752
20.20068
2.680405
-1.587393
-76.03811
2.356878
1.167434
1.023919
1.259734
2.540494
2.486726
-63.67883
6.797731
3.53629
-1.095333
-5.241012
6.419198
-12.8826
2.210645
-3.735556
0.805406
1.200919
-1.438096
12.19061
1.283257
3.935089
-64.90362
-37.54331
1.08217
1.071476
2.325241
1.971715
-10.39186
-7.389313
2.420346
-0.5291498
1.54888
0.7449304
2.048379
0.1990549
0.6403023
1.495236
11.29182
-23.11364
1.993583
1.700224
3.077741
1.890864
0.3721727
3.143049
-0.1154112
1.724448
1.030255
0.2430103
-21.22258
0.1577334
2.609952
2.08519
41.54365
2.55181
1.879205
-6.754869
2.398527
4.410477
-82.92632
0.2502418
1.934946
3.406224
-6.779202
1.220036
2.11202
1.9819
-0.8945925
-14.9872
-5.942783
1.836625
0.9980909
-51.70542
-37.26293
0.8363309
2.174893
1.440909
0.7083133
1.245497
-0.06077936
1.683433
2.031178
4.929396
-16.69653
1.204012
-57.98801
-0.7365004
0.7409281
3.089377
1.235696
2.21426
-12.73558
1.384256
-0.09370541
-50.98743
-10.88734
-26.00021
1.329274
2.423851
1.513725
2.312416
1.735783
0.8882954
-0.4880768
0.7493957
-0.6721328
1.47985
1.080713
-2.542998
1.846
0.6511561
1.393345
4.016661
0.8194975
2.994799
2.261269
-0.5323491
-77.7211
2.910496
-16.53781
1.63197
1.635172
2.623943
4.619201
1.54906
-10.55203
2.632442
-51.40008
-1.584052
1.621395
1.224879
1.190779
29.79014
1.879937
2.466766
1.780259
-3.498628
1.435903
1.008597
7.652595
-5.789556
-16.64147
-23.63968
-51.07324
1.24873
2.370253
-16.55065
2.846218
1.246792
2.240123
3.360303
1.929104
0.5461269
16.10953
1.94019
0.5458322
-1.1971
-13.17446
-3.221084
2.028249
-8.70081
0.2651692
1.677327
4.861537
2.349963
4.121095
-0.1920728
2.350816
1.988404
0.08932728
3.552177
1.439461
-0.3690257
-0.573499
-23.66229
-12.38265
-7.104461
-0.5899041
8.996874
2.126766
1.767071
0.8021611
1.013478
1.243207
0.9536076
1.080133
0.3295868
1.440131
-3.10538
2.083275
2.624536
1.705118
0.6868363
1.504783
1.214742
1.623467
-15.65103
-6.396214
-4.370496
0.6467246
4.461597
5.540469
4.284473
1.292204
1.743492
0.7662011
5.998612
1.404915
3.175591
3.330204
-78.0107
2.510441
5.074492
1.955605
3.528336
9.911828
0.9852231
12.5111
-1.043321
0.4296159
-5.015248
1.215146
-0.855401
-0.1172284
15.8531
-13.11448
1.754611
2.461357
2.017359
2.509499
0.7846547
1.819908
0.286023
2.048242
27.47187
-11.18695
1.190084
0.9684875
-2.631699
-45.74985
1.600361
2.890443
2.872498
2.037564
1.825455
-4.608092
-5.853064
-0.4253521
5.881654
0.165054
-0.3570263
-12.57812
1.538005
1.793569
-57.98153
0.9027593
1.695505
-29.70644
2.462386
2.068661
1.602273
1.188787
0.253263
-79.12276
2.020439
1.575071
1.340245
-6.517274
2.564497
0.6244747
3.612178
-25.952
-13.23417
2.404082
-30.40888
0.6027295
6.28269
1.172806
-42.13822
1.902817
8.450808
-3.743108
2.15839
-4.114926
-5.084006
3.166485
8.440943
-3.316993
0.2098327
0.4281161
2.862352
18.08319
3.546782
1.899355
1.274365
1.147711
2.702855
-12.29992
-6.154726
-14.60062
-11.05039
-1.563215
-3.454202
-0.4061154
2.490176
1.9899
1.318506
-2.054381
1.876179
-5.460019
0.9007046
3.498179
2.423822
3.046365
2.377603
25.49669
3.802239
-42.13533
-8.246684
6.139315
7.86774
1.29236
-35.61955
1.765136
0.1968576
-24.06339
-1.312335
-1.364899
2.841719
2.441313
-4.497355
0.2433736
-30.03933
0.531195
3.886176
-5.73077
1.619699
1.799754
-59.92578
-1.866602
1.381054
-0.4227759
-31.98646
-2.913889
2.72068
11.44845
15.71185
16.14913
2.738745
-13.6336
1.894999
-15.075
1.546983
1.722002
3.072653
1.126382
-31.01232
1.29373
-42.11748
-1.015854
1.808515
2.469195
-6.678643
3.450032
-0.2059645
-1.54893
-2.256139
-2.086394
-7.382916
-6.396434
5.577438
-36.48336
0.916868
1.054999
-30.59601
-12.89683
3.254837
2.863599
0.3954614
0.8828507
-7.63105
2.233351
0.3365201
-17.92319
1.350346
1.399057
1.914907
1.065172
2.127077
1.254131
1.126808
-0.7390239
2.381924
-15.92542
1.715856
1.415258
-0.3916528
-0.0968377
0.7132276
2.235534
1.279653
4.407269
1.392146
2.829608
-51.2324
-0.5866252
0.283958
2.237142
1.79905
1.987363
7.091063
1.216684
-37.28125
2.285442
-5.257939
5.251759
-4.795802
-18.22333
-3.034517
-17.52346
2.287385
-91.775
1.584086
-14.54076
-24.45488
0.3341293
0.5696302
-2.133568
1.430532
15.53596
4.048758
2.694747
-13.513
3.252296
0.1318497
0.9652474
-1.947989
22.21013
-3.775855
1.905075
1.835648
-0.5843158
1.34261
1.657992
-0.8510063
2.009435
0.9018671
2.607125
1.875059
-5.412937
9.25346
0.3096551
1.854758
0.7318369
1.448603
2.047504
2.013203
1.572946
31.05143
0.7944606
1.281173
2.471666
2.225928
1.89186
0.9826626
-68.72935
2.341171
-23.98025
-8.90737
2.09858
-9.396685
1.394586
-11.90409
2.882296
1.808997
1.71984
1.924233
-14.00706
-68.65004
0.3052737
2.17025
-2.249986
1.088327
1.936736
1.516301
-9.486426
0.534088
13.18229
-0.2486003
2.318998
2.184366
2.151557
3.617721
-1.599854
0.8354536
-0.9189323
-13.47938
2.558308
9.658037
-6.495678
2.872183
2.868157
-13.31691
1.662831
2.147395
1.106632
-2.01334
-1.811605
2.239328
2.050483
1.062932
1.020202
3.807558
2.066212
-5.234179
33.76483
1.939116
0.9666555
-8.588966
-90.06666
-0.2380242
1.522815
3.60462
-0.2663445
35.22982
2.146677
2.188485
0.2091601
2.570433
-7.547745
-0.1048902
1.255189
1.376811
-29.61823
-6.978625
1.428175
-3.465412
-129.746
1.563798
2.911852
1.792284
-4.592788
5.191857
33.19902
-0.1990552
0.07989078
2.403061
1.537303
0.9707066
7.142729
1.759949
1.100588
1.542221
2.076705
0.03769837
1.642167
-4.810179
-10.4542
-10.24859
-36.7983
2.87379
1.712286
1.557738
0.412544
1.296318
-1.244912
-16.10614
1.301103
-0.2919383
13.86204
4.07744
4.035209
2.75166
2.517711
-13.59377
24.50923
-6.449702
0.4864034
-3.345516
-2.356354
0.5850584
1.197639
1.095209
3.186155
2.602925
-43.27487
-5.852782
3.303835
-12.61493
-12.29152
0.5294573
-38.53601
-27.61183
-60.91996
2.633859
-27.71874
3.683879
2.082487
-24.15732
2.442416
2.224301
-13.20928
0.03743113
1.409286
2.852189
-1.3921
1.980748
-36.05904
-37.10989
-2.133005
14.0752
3.053497
1.610277
-27.25125
22.90564
-56.28777
0.3916526
2.403309
-0.7633023
-16.47796
-0.734723
-7.971911
2.390517
2.451095
-1.360611
-36.55366
-39.24516
3.131002
2.838856
2.748319
1.561099
-0.05665261
3.256255
1.391276
1.125017
0.07899987
0.2346458
0.8892411
-3.132474
1.432489
-2.330772
3.336068
2.702336
-43.27176
3.156598
2.093624
-3.277625
-13.15716
8.200408
1.093209
-0.9681693
-18.61076
-51.21603
32.7181
47.43462
4.200627
0.03554367
-3.968857
5.308578
3.104477
1.100078
13.81589
-19.51977
3.508646
2.076371
2.173571
2.88796
2.394093
-12.01304
3.775033
-30.73066
-45.00193
2.350155
1.48366
2.704718
3.437304
1.727644
-34.06442
1.760993
1.365156
2.552625
-1.514993
-0.7306573
2.489879
-53.00061
-30.91168
3.133727
1.506793
0.991776
3.826264
-7.007474
3.222201
0.7962815
-49.03022
3.014334
-26.03167
0.2363552
2.927647
2.460722
-26.90033
-55.4748
-0.9758011
1.407522
2.001394
1.026467
-2.111813
-5.220085
1.629586
2.253773
1.744963
2.409968
1.770209
1.733483
2.664758
0.8156182
-0.3580654
1.085672
0.9851482
-1.216048
-1.662689
1.09533
0.01254419
-9.441464
-0.7510565
1.850506
3.644994
0.1107464
0.6121544
4.248063
0.4301878
-1.727542
-42.35361
-28.11609
1.064413
2.135301
0.9919002
1.128116
-16.69947
-4.411743
-18.51591
-20.6113
24.83731
0.333625
4.957498
-13.87397
-10.02638
0.5423007
4.2722
-49.58168
0.234769
3.491435
-12.19803
3.421353
3.750378
-0.5575364
2.310982
-16.51853
-8.896607
-42.81524
1.154266
-15.82703
38.42483
-4.980221
-1.190999
1.337518
1.783736
2.333385
8.793978
1.422379
9.170479
-1.697771
-3.054092
-12.21666
-6.844314
1.297933
1.139047
-26.5496
0.01803296
-55.50066
8.283051
-0.2790535
11.18895
2.018572
32.61925
-6.969562
-1.644685
1.189569
-1.02718
17.50748
-24.80365
-61.78678
1.379401
1.671312
2.19111
2.333261
-1.004144
-13.5365
-9.575661
1.2599
-44.13491
3.041854
22.83396
-35.61046
4.093762
-42.26677
-21.07956
-6.292005
-54.21394
40.71941
4.872793
2.166652
-26.01775
1.985751
1.62534
-2.328374
3.111844
-26.13474
-54.18713
-4.331496
3.221399
-0.9926872
2.813997
1.300691
0.8392253
0.5643279
2.08735
2.621332
0.7303046
1.843949
1.590012
-5.626876
-13.93012
-1.149522
-0.4481854
-0.0621204
-55.51017
0.5126945
1.515936
1.258674
3.926945
-50.7963
3.149554
1.70288
1.31629
1.902773
1.356012
-12.31842
1.121274
1.380115
-50.43501
29.94621
1.842106
1.841204
3.034744
1.611654
2.555522
2.36315
1.675769
2.308686
1.357584
-28.32108
0.7267069
-6.82804
1.46648
1.546651
4.841489
2.964068
1.827306
2.395827
-6.71554
-4.174856
-58.19869
-8.919144
1.50105
-0.2629784
1.811893
1.540341
2.423397
-34.25576
0.5428519
2.109248
0.68262
-12.60658
1.279326
-13.0547
4.258377
-72.81204
0.7729113
1.42419
1.343597
-83.50189
1.74419
-23.02711
1.638131
1.330588
2.108288
2.179731
2.301021
-22.55652
-21.69272
1.138613
1.314784
-28.74796
1.173117
2.550227
2.859972
4.746265
-1.616619
0.9367637
0.8752108
-71.71562
-1.42555
-11.10398
2.415656
2.938788
1.711832
2.814174
2.052703
2.510477
-13.65538
2.283271
7.342101
13.40257
2.798632
-5.386647
2.172956
-5.429049
1.606221
-32.27519
-0.5191574
-1.469296
0.2415554
-8.092828
-29.99916
-25.50815
1.346779
-63.8703
0.699827
-3.377368
0.8241162
-0.467971
17.32065
0.9574317
-16.31006
-59.45792
2.358599
2.170986
2.185067
2.122278
2.434671
2.473011
-7.521451
-16.99642
2.023389
-5.838521
1.86444
2.214627
0.6152251
-0.1965268
2.183205
2.50385
-4.575082
2.239848
3.435045
5.079008
-0.9179719
1.722614
-0.6714629
1.204413
18.08043
-12.46432
-2.834201
-7.277059
0.9850541
-9.593093
13.00134
-8.301286
2.291962
8.466855
0.4744177
10.42109
-39.8061
-23.01742
2.066785
2.527066
16.31351
2.409241
1.43939
0.6289334
-2.923608
1.745359
-60.19735
-18.80722
-10.19091
15.99987
12.20887
1.129011
-28.64883
-33.19256
-52.61075
3.010195
-4.994306
-1.582658
2.940267
1.257183
0.6410865
1.495929
1.366917
1.095174
1.594073
1.294051
1.336924
-17.23386
1.623338
-0.146302
2.63352
-25.04169
20.78288
0.8030391
-69.83905
-24.94766
-11.97949
12.91588
3.438333
-9.352531
-5.544891
-44.57596
0.7148353
-31.85216
3.023416
-60.5927
-27.99683
-0.08721101
3.161579
-7.302912
1.906365
15.53868
0.8659378
1.615909
2.670958
0.785494
1.944345
1.771543
2.12293
-0.01371105
2.603401
-18.19527
2.174153
2.484085
-7.3483
1.751797
1.503136
4.170508
-11.12278
-51.35505
-1.070219
1.131893
27.54346
0.8106536
2.996585
-30.32711
-1.903551
1.600239
-2.888086
1.69278
2.027826
2.192058
-4.230855
0.8851757
0.6377574
6.464118
1.030708
1.691433
1.124416
17.83848
4.702233
-23.01163
10.29773
-28.97335
1.512629
-62.90434
1.678878
0.9761058
3.010732
2.748403
0.6019103
-40.16964
-41.46766
-43.98165
0.09947591
-2.131962
0.4051712
1.078744
-20.60846
2.640048
3.482222
-9.01907
-24.20754
2.72672
-86.91524
2.885089
-7.113033
0.9641764
-21.12226
11.48563
1.915586
-0.7796566
2.842416
1.852955
1.914344
19.13377
-1.047449
-17.38803
1.742615
1.007835
1.085065
1.971107
-1.141356
2.441932
-6.534867
-0.8565622
0.6611816
0.4396536
-24.35153
2.248193
1.742365
-1.558407
0.08752615
0.9262875
1.089475
-0.524176
0.6252718
1.591283
-55.64101
28.8442
-9.96627
1.966462
2.099209
-17.82229
0.8294215
0.4535533
-13.39416
1.93621
2.076333
2.82116
-0.5130893
-78.39366
2.297061
21.97005
32.66325
3.752617
-8.563077
-4.160008
0.7058428
3.186332
1.174284
33.21307
-34.43948
1.415994
-1.50872
1.940451
-32.27382
1.932577
-3.772587
-0.3363836
3.510962
1.635475
-19.33593
2.443075
1.513848
-5.225677
-32.47593
-5.526356
1.108762
0.5942301
-60.0688
32.45391
-38.67946
2.42922
-12.5992
-5.982571
1.25247
1.482803
33.30872
2.731386
-3.09309
-33.85554
-0.5676485
1.164945
-23.68316
2.795182
1.341717
1.607554
1.32592
20.91325
-0.0913068
2.652941
-4.429634
1.772557
-2.834888
21.99083
4.331133
10.93829
-78.67621
-52.93011
1.569195
0.8748906
-36.35571
-5.140848
-19.17889
-5.72653
2.493732
4.851679
-0.2583151
-31.18623
-6.745354
7.994932
-22.09854
-11.23931
2.161787
1.260486
-2.364696
-38.73263
-8.647459
2.837723
3.61777
0.242789
0.9394048
0.6914476
2.00959
2.548586
3.35513
-8.793606
-6.801359
1.449621
1.42044
13.29815
1.296198
1.775764
-3.337036
4.971484
-0.8025923
-0.1221857
37.84571
1.402042
2.008113
-0.09178222
0.2401457
-10.2619
-31.75248
-47.54684
13.10466
3.504639
1.449096
2.479268
2.501606
0.9110462
3.119844
1.678549
2.628013
2.929085
3.013479
2.280281
-0.3013185
13.22323
10.27357
2.755125
0.6656813
2.015809
2.036442
0.9760893
-19.21804
4.192859
-35.27334
-13.08509
0.9404599
2.445655
-56.16012
42.64544
-68.84379
1.346179
3.536451
4.944251
-8.000009
8.78791
-12.13099
1.76152
4.341553
2.262665
4.990027
2.231763
1.249067
2.828108
-47.15225
-0.3545788
1.980371
1.730175
2.720818
-63.77417
-32.94831
-34.91042
0.1469803
14.93941
1.495525
1.443812
1.81573
3.233196
-2.519933
1.263752
4.352381
28.83595
2.793571
2.642411
2.323096
23.95003
-0.3561148
-1.405171
4.085256
-6.637036
1.2272
0.8699152
-90.77143
1.412861
-64.29519
2.894938
2.031268
46.69645
-3.057322
0.9488831
2.52096
5.166384
1.793365
0.4893029
-35.85145
45.13602
4.669775
-2.166592
46.67168
1.813087
1.166266
0.7525476
-10.61054
-0.352247
-0.2089874
1.467537
5.213203
-15.55113
-22.76246
1.964858
2.01289
1.549134
2.692732
14.24066
0.175732
2.342464
2.60903
1.923734
2.171741
2.304837
2.164284
1.610146
2.025283
1.303903
-34.72414
-47.00588
-55.69074
-38.1183
-30.99187
2.857515
-4.715029
3.094945
1.265611
4.759096
-40.46588
-16.57132
28.42319
-11.08506
3.087627
-1.436394
1.182112
-6.546399
-14.19712
1.376592
3.70007
-94.37234
-0.7235644
2.047328
-1.241342
3.657722
1.07527
1.700106
1.120784
3.100214
0.3499804
2.398702
3.958045
2.487107
2.465777
-1.448214
0.03690612
-6.866453
-4.848265
0.5965238
2.033763
1.512402
-3.407764
-45.41738
3.397084
2.28355
0.7619847
-0.07736796
7.945419
15.83533
1.42673
0.607439
3.059422
2.906883
-36.2592
-37.39756
0.8906998
-14.77942
-9.337631
-1.393137
8.037232
-0.3560042
-6.958947
-0.05321665
-16.4362
-11.31533
1.139447
-10.24855
-5.479822
-1.137317
29.19267
0.8471795
-11.93615
0.6827519
0.1547713
0.09601777
-39.22635
1.240875
1.763925
-12.11883
1.439125
-7.071369
-5.366767
3.053881
2.86632
6.924807
0.2741425
-61.19036
0.1410816
38.97139
1.360896
7.882903
-0.2529312
-2.888572
1.1644
1.148388
0.9355269
16.83168
1.440176
1.051551
-8.200547
2.466732