/*--------------------------------*- C++ -*----------------------------------*\
| =========                 |                                                 |
| \\      /  F ield         | OpenFOAM: The Open Source CFD Toolbox           |
|  \\    /   O peration     | Version:  2406                                  |
|   \\  /    A nd           | Website:  www.openfoam.com                      |
|    \\/     M anipulation  |                                                 |
\*---------------------------------------------------------------------------*/
FoamFile
{
    version     2.0;
    format      ascii;
    arch        "LSB;label=32;scalar=64";
    class       volScalarField;
    location    "4.44";
    object      p;
}
// * * * * * * * * * * * * * * * * * * * * * * * * * * * * * * * * * * * * * //

dimensions      [0 2 -2 0 0 0 0];

internalField   nonuniform List<scalar> 
15536
(
-47.69022
-54.8759
-61.62293
-65.93427
-67.30579
-65.6885
-60.94219
-53.76663
-46.78519
-44.05094
-41.0567
-35.55426
-35.27006
-38.58114
-41.66533
-46.61626
-56.43317
-70.55053
-86.92544
-98.85852
-97.60536
-81.36939
-57.31286
-37.97504
-33.29237
-42.70167
-59.28908
-69.62904
-74.39785
-80.64893
-102.6021
-144.1572
-169.6785
-145.8591
-103.5751
-105.9314
-120.9267
-122.8742
-121.1874
-123.6364
-126.7476
-128.595
-128.8036
-127.8421
-126.2841
-123.8516
-120.6583
-116.5677
-112.1151
-107.4232
-102.115
-96.29724
-89.90838
-83.20623
-76.12733
-68.74873
-61.41329
-54.01791
-46.30991
-38.48213
-30.82612
-23.34255
-15.91877
-8.616859
-1.569049
5.324255
11.89931
18.12683
23.90404
29.23761
34.08591
38.45408
42.30597
45.57027
48.22076
50.35881
51.8507
52.74199
53.09038
52.95859
52.0536
50.48053
48.32802
45.59635
42.30137
38.46703
34.16587
29.31153
24.0653
18.48378
12.41394
6.037227
-0.5677388
-7.57135
-14.7116
-21.78435
-29.0007
-36.33572
-43.60901
-50.88956
-58.01279
-64.80256
-71.20995
-77.31017
-83.21588
-88.62221
-93.49973
-97.79293
-101.5084
-104.7044
-107.1001
-108.6006
-109.2066
-108.915
-107.4532
-104.3486
-99.27374
-92.15018
-85.35719
-78.70786
-88.28252
-123.5826
-123.4653
-81.44918
-45.26797
-23.98003
-3.759965
9.678711
-49.84579
-105.1828
-93.52074
-51.61365
-19.62342
-2.607939
8.751235
18.23261
22.52549
20.88156
22.38289
19.67284
12.12352
7.120287
3.022438
-3.789107
-13.04406
-21.67314
-25.2314
-23.40812
-18.96337
-20.09485
-21.17512
-21.6325
-23.93983
-26.78717
-30.30116
-34.92997
-41.05169
-47.58046
-54.70484
-61.37404
-65.62931
-67.01548
-65.48326
-60.82944
-53.74832
-46.79329
-44.01047
-41.04038
-35.57009
-35.27837
-38.57693
-41.65279
-46.61794
-56.44835
-70.55769
-86.8789
-98.71002
-97.54972
-81.3811
-57.33181
-37.88546
-33.26827
-42.79735
-59.36368
-69.66688
-74.36141
-80.55409
-102.5242
-144.1778
-169.7689
-145.7472
-103.5151
-105.9071
-120.9081
-122.808
-120.8515
-122.9109
-125.6792
-127.2581
-127.3409
-126.3192
-124.7361
-122.2928
-119.1102
-115.0385
-110.6091
-105.9555
-100.6882
-94.91928
-88.58186
-81.93821
-74.92431
-67.61178
-60.34301
-53.01915
-45.38742
-37.63158
-30.04795
-22.63745
-15.28535
-8.050995
-1.068531
5.757461
12.26713
18.435
24.15756
29.43975
34.24226
38.57012
42.38679
45.62347
48.25053
50.37153
51.85294
52.73963
53.08735
52.95769
52.06071
50.50413
48.37399
45.67005
42.40854
38.61376
34.35697
29.5525
24.36314
18.83853
12.83075
6.523698
-0.01394923
-6.952542
-14.01702
-21.01533
-28.15917
-35.4183
-42.61661
-49.82351
-56.87525
-63.59463
-69.93597
-75.97938
-81.83367
-87.18861
-92.02325
-96.27774
-99.96374
-103.143
-105.5302
-107.0383
-107.6655
-107.4221
-106.0528
-103.1333
-98.37669
-91.60547
-85.14684
-78.65947
-88.04335
-123.4311
-123.3692
-81.49424
-45.32957
-24.17127
-4.031702
9.837598
-50.051
-105.5288
-93.4199
-51.44083
-19.53715
-2.603271
8.700549
18.18613
22.56452
20.95895
22.44012
19.65249
12.13132
7.103776
2.995436
-3.820449
-13.05367
-21.63739
-25.21281
-23.39809
-18.96184
-20.07742
-21.17245
-21.64669
-23.94867
-26.7857
-30.28608
-34.89561
-40.99029
-47.54042
-54.64886
-61.31723
-65.5823
-66.9889
-65.40942
-60.84455
-53.89505
-46.97441
-44.05324
-41.05593
-35.56322
-35.23153
-38.50134
-41.62076
-46.64945
-56.50936
-70.63433
-86.94358
-98.79399
-97.69836
-81.69993
-57.70864
-37.8812
-33.14716
-42.89916
-59.42538
-69.69398
-74.37195
-80.55401
-102.5961
-144.48
-170.2579
-146.0965
-103.7235
-105.6237
-119.8308
-121.7633
-120.1953
-122.0823
-124.6281
-126.2156
-126.3789
-125.3778
-123.8311
-121.4151
-118.2668
-114.2128
-109.7969
-105.1758
-99.92564
-94.18708
-87.87713
-81.26767
-74.29469
-67.00039
-59.76262
-52.48298
-44.87953
-37.15586
-29.60629
-22.23657
-14.92357
-7.72034
-0.7800664
6.016059
12.49097
18.62687
24.31884
29.5726
34.34658
38.64876
42.44243
45.6618
48.26915
50.37755
51.8504
52.73215
53.07918
52.9514
52.06066
50.51777
48.40414
45.71951
42.48088
38.71148
34.48386
29.70478
24.54788
19.05763
13.07917
6.808599
0.3094022
-6.596011
-13.62322
-20.57841
-27.68833
-34.91406
-42.06931
-49.25311
-56.27076
-62.96194
-69.27561
-75.27603
-81.10145
-86.42495
-91.23937
-95.47301
-99.13664
-102.3013
-104.6663
-106.1441
-106.7408
-106.4713
-105.0339
-102.0666
-97.4219
-90.99485
-84.85644
-78.7185
-88.43464
-123.7687
-124.0648
-81.7182
-45.40415
-24.24275
-4.091341
10.11857
-51.69966
-107.3394
-93.90947
-51.48224
-19.47086
-2.613355
8.575963
18.04734
22.5562
20.97228
22.47242
19.50549
11.99851
7.036349
2.921926
-3.901295
-13.12029
-21.67476
-25.27683
-23.50784
-18.99545
-20.08075
-21.1815
-21.67617
-23.96361
-26.78731
-30.27729
-34.88527
-40.98013
-47.5014
-54.57954
-61.19803
-65.37516
-66.74003
-65.311
-60.87579
-54.1525
-47.34682
-44.09646
-40.88307
-35.4634
-35.11765
-38.40104
-41.58574
-46.72486
-56.63264
-70.80306
-87.15153
-99.06194
-98.03724
-82.29222
-58.50794
-37.99862
-32.77132
-42.7997
-59.28026
-69.55251
-74.27524
-80.62255
-102.8155
-144.7885
-170.6708
-146.7198
-104.8365
-105.5315
-118.1834
-120.0409
-119.1465
-120.899
-123.1072
-124.4658
-124.4472
-123.37
-121.8312
-119.4231
-116.3291
-112.3063
-107.9301
-103.3764
-98.20354
-92.54781
-86.31617
-79.788
-72.90561
-65.7003
-58.54542
-51.36015
-43.86128
-36.21875
-28.752
-21.472
-14.24648
-7.118924
-0.2627546
6.461471
12.86527
18.94083
24.57206
29.77002
34.49508
38.7558
42.51327
45.70672
48.28548
50.37794
51.84065
52.7168
53.06337
52.93682
52.05156
50.52777
48.43751
45.78086
42.57725
38.84989
34.67313
29.94124
24.84883
19.42317
13.50667
7.318538
0.8965687
-5.941157
-12.87251
-19.73689
-26.76619
-33.89594
-40.95726
-48.05103
-54.97697
-61.56824
-67.78351
-73.71084
-79.46201
-84.69724
-89.43903
-93.59571
-97.21556
-100.3405
-102.6631
-104.1172
-104.7207
-104.508
-103.2275
-100.4486
-96.07495
-90.12064
-84.54027
-79.34819
-89.63675
-123.4742
-123.3767
-81.64799
-45.38196
-24.0268
-3.67578
10.11045
-54.98612
-110.527
-94.93302
-51.73843
-19.41811
-2.613207
8.400322
17.83318
22.54514
20.99054
22.41621
19.15091
11.71817
6.912502
2.789784
-4.079417
-13.28016
-21.79151
-25.42234
-23.76128
-19.11657
-20.10722
-21.19915
-21.71855
-23.9797
-26.78852
-30.27153
-34.8827
-40.98666
-47.4912
-54.55568
-61.14453
-65.27121
-66.71294
-65.29365
-60.9555
-54.45699
-47.78592
-44.04858
-40.4678
-35.24914
-34.94042
-38.28152
-41.55359
-46.85428
-56.84396
-71.11184
-87.58368
-99.63403
-98.68841
-83.16008
-59.68998
-38.18163
-32.00996
-42.3343
-58.69967
-69.11073
-74.17872
-80.85161
-102.9539
-144.5579
-170.2515
-146.9442
-106.9782
-106.3424
-116.6714
-118.272
-117.9425
-119.6323
-121.634
-122.9505
-123.058
-121.946
-120.4334
-117.9862
-114.9241
-110.9081
-106.5046
-102.0192
-96.85056
-91.24181
-85.03045
-78.55583
-71.74317
-64.56557
-57.46559
-50.36929
-42.93752
-35.34459
-27.94444
-20.75015
-13.59931
-6.527301
0.2463926
6.91237
13.24961
19.26436
24.8302
29.97661
34.65195
38.86864
42.58156
45.7456
48.29255
50.36635
51.81842
52.68854
53.03461
52.90706
52.02499
50.52814
48.46891
45.84429
42.67845
38.99356
34.86982
30.18305
25.16157
19.79645
13.9269
7.826875
1.481955
-5.316369
-12.16409
-18.93967
-25.91146
-32.97507
-39.94876
-46.99444
-53.86306
-60.3951
-66.558
-72.42889
-78.1537
-83.33831
-88.06696
-92.20105
-95.80238
-98.96459
-101.2502
-102.7047
-103.3107
-103.0845
-101.727
-98.96804
-94.76956
-89.20461
-84.22454
-80.34227
-90.18322
-119.7616
-118.993
-80.20081
-45.09224
-23.63977
-3.001307
9.340534
-59.66322
-115.0496
-96.69747
-52.22062
-19.31012
-2.575803
8.208838
17.56177
22.57053
21.1102
22.25361
18.57369
11.27898
6.69291
2.568152
-4.407137
-13.5775
-22.02443
-25.67767
-24.17386
-19.38357
-20.175
-21.22718
-21.77417
-23.99296
-26.78899
-30.27575
-34.89824
-41.0281
-47.51837
-54.58469
-61.16589
-65.20684
-66.65212
-65.32227
-61.10726
-54.81132
-48.24101
-43.96022
-39.95246
-34.98661
-34.78701
-38.13161
-41.51315
-47.0409
-57.15324
-71.60029
-88.33111
-100.6433
-99.78646
-84.38107
-61.25798
-38.62501
-31.42525
-41.51247
-57.63958
-68.28453
-74.04554
-81.20053
-102.4367
-141.8773
-166.1278
-144.8664
-109.1751
-107.5194
-115.1099
-116.3861
-116.3873
-117.8907
-119.5551
-120.6467
-120.549
-119.2471
-117.7772
-115.4498
-112.5157
-108.5468
-104.1779
-99.84925
-94.76147
-89.28261
-83.16228
-76.77879
-70.07747
-62.98239
-55.99989
-49.03675
-41.7
-34.19529
-26.91202
-19.82506
-12.77686
-5.78341
0.8729268
7.464387
13.70747
19.62882
25.12292
30.2186
34.83176
38.99179
42.64285
45.78038
48.28763
50.3342
51.77734
52.64013
52.98439
52.85398
51.97807
50.51017
48.49245
45.90917
42.78962
39.15755
35.09237
30.45183
25.53272
20.25267
14.42202
8.427652
2.21887
-4.520354
-11.26914
-17.90906
-24.77734
-31.75012
-38.60629
-45.54759
-52.30883
-58.73223
-64.76998
-70.53863
-76.19288
-81.24872
-85.89607
-89.91571
-93.42671
-96.49918
-98.7091
-100.0617
-100.6527
-100.5593
-99.38191
-96.82677
-92.96057
-87.92421
-83.61182
-80.94859
-89.07879
-112.076
-110.4759
-77.31119
-44.72225
-23.67399
-3.089983
6.699994
-65.46128
-120.8835
-99.39574
-53.06202
-19.21265
-2.465252
8.03586
17.20907
22.73193
21.44143
22.04596
17.74842
10.62417
6.335002
2.230855
-4.909415
-14.02512
-22.42608
-26.08497
-24.78378
-19.85916
-20.28133
-21.2543
-21.85539
-23.99965
-26.78462
-30.29009
-34.95866
-41.13667
-47.6239
-54.68278
-61.25493
-65.2201
-66.74542
-65.49898
-61.39372
-55.26751
-48.71995
-43.94737
-39.50767
-34.79571
-34.67452
-37.9251
-41.44322
-47.26305
-57.49635
-72.22935
-89.44619
-102.2703
-101.5172
-86.04561
-63.22193
-39.79655
-31.52078
-40.80013
-56.42895
-67.26209
-73.88364
-81.49833
-100.8721
-135.4884
-156.2178
-138.9854
-110.2567
-108.1725
-113.3369
-114.4264
-114.6837
-116.0754
-117.4847
-118.4809
-118.505
-117.1396
-115.8185
-113.1803
-110.3009
-106.3424
-101.9223
-97.71922
-92.6304
-87.28703
-81.19513
-74.83617
-68.28127
-61.32059
-54.40956
-47.51284
-40.32655
-32.96422
-25.76736
-18.7295
-11.86856
-4.948901
1.564526
8.082307
14.19348
20.02276
25.51024
30.4947
35.01221
39.09332
42.6865
45.84913
48.26837
50.28113
51.71474
52.56412
52.90613
52.78265
51.92139
50.44727
48.46396
45.93489
42.87758
39.33566
35.3494
30.73256
25.92359
20.78136
15.0343
9.085051
2.983865
-3.589669
-10.25221
-16.79436
-23.53572
-30.33222
-37.14742
-44.00886
-50.60033
-56.9569
-62.85539
-68.53263
-74.1613
-79.09608
-83.72863
-87.65716
-91.16987
-94.32594
-96.49449
-97.94225
-98.64726
-98.45171
-97.24917
-94.77822
-91.17301
-86.6
-82.87724
-81.02144
-87.10394
-103.9256
-101.7667
-74.10717
-44.54005
-24.40741
-4.849606
0.9555495
-71.89771
-127.2299
-103.0329
-54.49835
-19.66729
-2.317383
8.030589
16.72512
23.20906
22.0887
21.78976
16.6422
9.660651
5.763206
1.640475
-5.4675
-14.65231
-23.12855
-26.74765
-25.65569
-20.57204
-20.41189
-21.25132
-21.97742
-23.98272
-26.76166
-30.26261
-35.09171
-41.38684
-47.93331
-55.00312
-61.4029
-65.27751
-67.04769
-65.86949
-61.88832
-55.88032
-49.32527
-44.11927
-39.23055
-34.77713
-34.63168
-37.60485
-41.27471
-47.33902
-57.79437
-73.04691
-91.15856
-104.774
-104.1624
-88.35308
-65.90178
-42.06597
-32.97789
-40.72318
-55.55898
-66.14447
-73.51127
-81.47089
-98.74545
-126.9766
-143.6403
-131.4118
-110.1045
-107.921
-111.2562
-112.1116
-112.3352
-113.5579
-114.6339
-115.3431
-115.4746
-113.5992
-112.3032
-110.0068
-107.2439
-103.5696
-98.84583
-94.88342
-89.95083
-84.81252
-78.68274
-72.41939
-66.26626
-59.48664
-52.30645
-45.60636
-38.85142
-31.66545
-24.27547
-17.37657
-10.94521
-3.992505
2.292401
8.782894
14.64043
20.57118
26.05832
30.76563
35.15777
39.13186
42.71812
45.92811
48.18691
50.21668
51.6217
52.45125
52.80381
52.70024
51.81409
50.3416
48.36051
45.89586
42.90887
39.4748
35.67694
31.04706
26.32091
21.34492
15.90325
10.01621
3.676946
-2.599395
-8.901975
-15.5774
-22.24135
-28.58992
-35.24534
-42.39513
-48.52637
-54.88863
-60.60702
-66.10272
-71.72801
-76.40609
-81.0781
-84.74924
-88.13295
-91.3229
-93.32277
-94.61711
-95.05483
-95.23927
-94.23406
-91.96562
-88.75985
-84.71349
-81.67779
-80.45216
-84.9109
-96.81477
-93.56656
-70.55926
-44.46818
-26.23303
-8.853525
-6.942313
-78.92095
-132.3921
-105.6977
-55.59675
-20.76913
-2.355266
8.503791
16.72087
24.23287
23.10447
21.36077
15.17794
8.198715
4.639799
0.4931553
-6.159167
-15.98671
-24.21627
-27.72189
-26.79704
-21.51479
-20.53231
-21.18609
-22.0294
-23.89259
-26.74169
-30.20765
-35.22311
-41.80713
3.772108
3.035632
-45.42882
-9.679089
10.38974
-9.458576
2.592676
0.4476078
7.507237
1.249056
-1.355619
0.2800166
1.939438
2.190245
2.497655
2.540911
-2.357186
0.6871906
1.013048
-0.009947213
-16.50758
-1.561168
1.856104
1.211007
2.641412
0.937671
-1.755469
1.639379
-2.309314
1.840828
1.35434
-31.21947
0.6748882
2.603896
2.162076
-0.3688512
-2.851182
0.4084927
4.401222
-0.9933687
-12.76746
3.548617
3.025731
5.885683
30.89209
2.625359
4.171323
2.373246
-8.284476
1.499332
1.92609
-6.304025
-52.37692
1.317734
0.5344141
19.28591
1.794345
2.248811
-6.008876
-9.52003
1.788761
0.05798316
-25.22595
1.143197
-6.08242
0.450302
-41.54489
0.4359912
3.373009
2.081468
2.063974
4.455995
6.167024
-9.746008
23.63198
1.020287
5.266597
1.283495
-5.645367
1.465472
-9.49783
0.5674301
3.534767
2.46213
-3.645467
2.987265
1.576489
-0.2177217
-44.0557
1.929115
-9.453983
26.14252
-9.736273
1.957819
2.819324
0.5270729
-21.05735
7.700586
-72.7905
2.949556
0.8687328
-0.1025693
2.343523
-67.71282
0.1302408
-25.25784
0.8189243
2.61852
-7.591604
-19.55537
-0.198522
4.420115
6.305723
8.81825
-29.61263
-0.2863296
0.8239646
1.795042
25.07322
2.471985
3.00149
0.9616273
2.162455
-3.510567
-0.9722423
-8.491589
2.424694
-57.72333
3.227878
1.268919
0.5878627
-0.06420287
1.912823
2.652025
1.725403
-14.96066
0.3670015
3.565935
0.9720055
0.9491289
-55.41165
2.81942
-48.07599
3.10215
1.646354
-10.2787
-0.3790841
-34.15475
0.9060654
2.12088
0.3303395
-27.04547
-44.77629
1.45165
-16.71197
-77.6835
1.837456
2.010664
1.602981
-10.66573
1.951003
-15.04762
-5.924049
-1.614077
0.07619231
-3.794971
-12.43812
3.298224
-42.30187
0.4969477
2.633689
-4.407825
2.906888
-61.8936
-2.664959
-13.12533
2.013128
2.706601
-79.2297
-9.377896
15.34982
-0.1183035
2.054516
2.373615
6.766679
-32.89818
2.143284
1.001945
-34.13385
1.030705
2.304558
0.6876916
-2.054193
0.6478205
0.219207
2.680841
2.938502
2.986198
1.746663
-21.18458
-0.3402637
-20.71447
3.364137
-16.27405
2.76247
-1.512616
-1.860011
1.262853
-3.25163
0.7638388
1.202488
3.540152
-1.185407
-28.22562
2.323117
-12.36325
-5.30067
0.07969869
10.81945
1.125242
1.898404
0.3666602
3.126664
-3.814183
0.0003928862
-1.360882
3.157882
9.221697
2.39414
17.00105
-4.040926
-67.78727
1.292564
0.4596337
-41.57596
1.995856
23.67207
-10.61394
3.738502
2.979339
2.58425
1.035099
0.6020954
-15.27144
0.8308319
-5.012226
2.90216
-56.67543
1.196411
3.271519
-18.04178
3.051898
-0.7304661
0.1025282
3.594236
-13.58396
3.425598
0.9206405
-30.34402
-1.787006
-9.587287
0.4987889
-8.302478
-0.1376664
2.202854
2.22854
2.73831
0.8149572
3.011411
-15.36804
1.500252
1.758991
13.17088
1.787784
3.187139
3.534853
1.447607
-40.0873
-84.87643
2.368161
3.110349
3.037918
-6.80916
1.579395
1.053782
1.617329
39.31571
2.286457
1.912459
-0.1711077
-0.05205846
0.3842186
2.67289
2.92564
-48.70294
1.359988
-10.86907
0.8567046
2.861295
2.787883
-28.17895
2.60123
3.981648
-36.83369
2.605649
0.3174197
0.6063265
2.690416
-2.538223
1.142632
7.716767
-1.662047
2.074683
2.511937
2.373337
-5.480436
35.2044
-33.81049
-65.56139
-85.03657
2.44709
-11.00762
-1.352751
-8.916533
0.3012424
3.756207
1.853649
1.532587
2.570825
-0.4157935
20.37201
2.201751
-2.291923
-74.61285
3.329425
1.574617
2.665222
0.3025018
1.963182
2.943115
-59.89392
6.001772
3.484532
-0.07551675
-6.277119
6.481273
-8.050379
2.241341
-4.646156
0.5420049
2.482958
-11.56362
12.80774
1.647922
3.685393
-90.95843
-39.96472
-0.5541273
1.185678
-0.7034375
2.534883
-0.6786501
-12.21589
2.704367
0.1921515
1.925047
1.177186
1.444817
1.038197
1.067074
1.118161
11.91745
-24.77927
2.497129
2.05601
3.130358
2.228039
2.411011
3.060664
0.364158
0.8817771
1.428585
0.2300471
-18.9888
0.2157959
2.630548
2.518186
41.18286
2.803705
-4.626205
-0.9393733
2.513418
4.452215
-71.21156
0.2573801
1.816535
3.390094
-11.57572
1.227866
2.473745
2.296141
-0.1170974
-16.89985
-14.77241
-6.287585
0.7187852
-48.68825
-40.12575
1.28042
2.951188
1.736
0.8955984
0.05562231
0.4497193
2.032963
1.954709
4.875179
-17.02798
1.564211
-19.17298
0.4274649
0.9979559
3.531535
2.045816
2.234233
-14.86051
1.854944
0.3840345
-31.93664
-14.10248
-10.15047
2.916268
3.404832
1.675601
3.02773
-0.3527075
0.9944445
-1.115779
0.999304
-0.006781922
2.124845
0.5868737
3.231114
2.22054
0.179512
1.20704
-0.8291469
-0.4858398
2.771359
2.254652
0.4870927
-81.64543
2.668596
-14.76426
2.42616
-4.97896
1.024277
4.958863
1.377597
-12.07427
2.841464
-47.90355
-1.032863
2.62392
-3.062619
1.822798
29.65301
2.202434
2.927686
1.548667
-4.600179
1.160809
1.130468
8.028021
-13.99416
-13.46757
-4.68394
-48.45865
-0.4239869
2.47729
-9.718134
2.611348
1.194231
2.451416
2.758289
2.826837
0.42768
16.63864
1.377971
0.9943467
1.801989
-14.46972
-2.648628
0.2924605
-10.50548
0.962396
1.768543
5.061664
3.16754
4.386888
1.47157
2.517036
2.408504
-0.4567493
3.691369
1.303589
0.3217986
2.725928
-4.725287
-12.96592
-11.87615
0.3387729
11.19678
1.833932
0.4945377
1.570127
-5.320923
2.155197
0.6512654
1.273002
1.075998
1.81064
-4.874231
-13.61523
2.62012
1.504671
0.8856319
0.9171251
1.585311
2.306345
-16.93793
-5.463894
-11.27954
0.8028353
4.741419
5.726822
4.486292
1.516051
1.070679
0.9541333
6.137758
1.167577
3.111518
3.706089
-72.83532
2.834631
5.232535
-8.813465
-0.6070868
10.0261
1.37866
11.78697
1.585808
-0.09667089
-8.806329
0.1034701
-0.347198
11.22839
16.32499
-10.52577
2.138579
-5.434603
1.781515
0.920686
0.9653857
1.642702
0.73114
3.682396
29.26897
-8.87931
1.167277
1.921612
2.764753
-48.83179
2.10004
3.191518
2.641597
2.438612
2.75988
-0.2911134
-0.672599
2.398447
6.217456
0.2061528
-8.659941
-13.75324
2.692261
2.400914
-60.79855
0.4560711
1.467644
-30.56569
-1.071477
0.9479223
1.434841
1.49831
1.02427
-74.49505
1.891086
1.2292
1.215529
1.056704
3.760917
0.8212993
3.995861
-26.26988
-12.77575
2.534091
-29.08166
1.970678
6.417265
1.813532
-33.6605
1.876579
8.868059
-7.980754
2.130653
-3.311382
-4.651673
3.58541
7.813404
-7.910502
0.7396661
2.874232
2.638344
18.5412
3.732388
2.068675
2.260085
0.7768848
5.646632
-9.176954
-7.009186
-19.19549
-9.752654
-2.195435
-7.951941
0.3646557
2.362539
1.334476
1.242318
-9.983932
2.455337
-2.097612
2.914884
3.450043
2.75798
12.12452
2.404285
26.09503
4.171868
-38.32045
-0.3119965
8.736966
8.115605
0.9272914
-35.6863
2.27049
0.6603817
-26.17367
-0.7473838
-0.8354521
2.830438
3.167915
-0.1389673
0.3030192
-1.258401
1.035111
3.828502
-5.248846
1.645244
2.30803
-62.07256
-3.129986
1.615595
0.7485013
-32.91572
1.960112
2.669695
11.05698
15.91049
15.34405
2.960384
-0.268983
1.497174
-1.049876
2.282402
1.369979
3.346971
1.358084
-28.30601
4.900023
-23.4055
0.0009917159
3.167304
2.583742
-4.373275
3.551003
0.3331546
-1.006908
1.57196
-3.42269
-4.960184
-6.02739
5.711709
-13.87024
1.346895
1.159258
-29.37234
1.161047
3.262875
2.861567
2.810802
1.109371
-6.762263
2.286917
0.7901633
-16.47586
2.470202
1.975933
3.260762
1.350876
2.215145
1.251067
2.6707
0.3502057
2.519927
-17.41129
1.454548
1.386686
0.1074526
0.4057377
1.129823
2.511395
2.562488
4.328257
2.254391
3.286964
-33.07422
-0.08151938
0.303283
2.685712
2.25328
2.205501
6.884353
1.94906
-39.84157
2.638284
-3.579118
6.19022
3.80526
-19.32955
-5.080938
-0.9626152
1.935091
-106.957
0.8623803
-14.02477
-23.21835
-0.1846395
0.09459946
-1.44596
1.820694
15.59978
4.029006
3.033908
-18.36512
2.687907
0.8956686
1.127949
-2.962543
22.91933
-3.897906
2.228057
2.209395
-0.08314725
1.966931
1.975447
-1.635896
0.9750284
-5.584419
2.364263
1.798026
-4.310639
9.052704
0.7566681
2.290147
-11.7227
1.412639
2.148892
1.91452
8.430193
31.67678
-14.70405
1.691148
2.607144
2.552869
2.815407
1.390271
-58.61497
2.447287
-12.35703
-9.309581
2.039929
-11.19431
1.843614
-9.883722
2.890335
2.470108
2.150849
1.762024
-11.59641
-64.46621
1.774526
1.988978
-1.703232
1.535721
1.809395
1.92302
-58.01038
0.03849494
14.08906
1.341697
2.473835
2.195288
2.16451
3.714536
-0.9950779
0.4869612
-0.2433794
-12.06598
2.609925
9.873952
-9.819557
3.786849
1.6026
-14.19421
1.397042
2.394473
1.299051
-1.437993
-1.268148
2.343935
2.492739
1.478984
1.501297
4.108993
1.989832
-10.03528
33.60494
2.272928
0.5718575
3.760883
-84.62551
0.2644205
1.422651
3.568555
0.7816713
35.27498
2.110122
2.805986
3.223784
2.665851
-9.749183
1.156991
1.407558
1.46821
-29.4625
-7.919246
1.67457
-2.912035
-83.12243
1.696192
3.685465
2.124372
-6.120856
5.52422
32.94794
-1.866016
0.7640067
2.283727
-5.269729
-4.54391
8.218702
1.5352
1.194744
3.676378
2.030662
0.5317495
2.216231
-5.166032
-9.912234
-3.761666
-35.13715
3.217753
8.055308
2.721153
-4.728357
2.87657
0.5769547
-13.35776
-0.8245037
-3.139778
13.55572
-9.55398
4.624965
2.883279
2.618405
-13.89153
26.19209
2.023177
0.5271464
-3.358471
2.812901
0.5797389
1.426837
1.717994
3.167955
2.58443
-42.58546
-5.311634
3.442505
-10.53771
-19.78022
0.6028315
-36.66051
-27.42828
-56.77783
2.989155
-29.49724
3.78564
1.989058
-23.39317
2.546759
1.991595
-16.22706
0.03243859
1.818914
-4.187152
3.60363
2.835604
-36.42062
-20.34351
3.266823
15.18251
3.028741
1.102598
-28.80243
21.75491
-34.89149
0.5024947
2.507
2.736492
-3.753439
2.793595
1.559513
2.267284
2.569615
-0.7689987
-38.38662
-41.69823
2.677046
-0.3125414
3.056602
2.063244
0.5465823
3.523304
1.547463
1.459912
1.04283
0.9159674
1.140745
-0.2895135
1.462756
-8.839258
3.298878
2.870896
-23.82442
3.2356
2.345479
-2.72528
-15.88329
9.31222
0.7254716
2.999169
-16.89438
-48.8734
34.06494
48.46563
4.184391
1.135557
-29.93719
5.778431
3.188731
1.008131
13.81534
-21.23926
3.561482
2.642315
2.042804
3.123371
2.546885
-1.747083
3.385867
-28.8012
-48.60234
-4.142402
1.85027
2.635681
3.557335
2.087903
-52.15147
2.215429
1.334658
2.747762
-0.9898106
-4.959748
2.876872
-50.62439
-30.911
3.222031
0.9831695
2.884681
3.851051
-14.8123
3.318089
0.9232357
-43.11543
2.980182
-20.36218
9.228176
2.805366
2.321048
-15.06115
-34.79094
-0.457572
-2.858494
0.3963538
1.221424
-1.550028
-5.981051
2.368349
2.54506
2.399077
-2.660945
1.924607
1.489423
2.637099
2.922471
0.1870789
1.398525
1.259959
-0.694326
-1.06856
1.363464
0.7442621
-5.106299
0.2037959
2.453974
3.990978
0.1463473
1.058641
7.20173
0.4568991
-2.495741
-42.00099
-27.06671
1.059426
2.520038
0.9633577
1.70313
-18.35951
-5.182348
-18.77724
-22.08966
25.13841
2.374238
5.021287
-13.02572
-12.20958
0.6819328
4.494585
-39.88146
2.594025
3.407797
-19.00124
3.48409
4.450638
-0.02465205
2.700246
-11.49673
-2.77443
-69.39967
1.547258
-9.520143
38.21298
-6.042074
-1.828594
1.296759
2.153296
0.07514022
9.080513
1.176346
9.318076
-1.081317
-8.475727
-11.21204
-16.05555
0.943477
1.237433
-24.17948
1.055329
-31.93111
8.66199
2.555683
13.77336
2.779327
32.50427
-9.825627
-9.841328
1.522893
-0.1718684
17.48974
-2.79716
-105.522
2.283259
2.120102
2.351996
2.46246
-0.2493166
-12.92736
-1.590797
1.629803
-42.55195
-0.5606564
21.80106
-54.24244
4.12755
-50.89802
-20.24947
-5.615379
-74.96958
40.67868
4.553948
2.818021
-27.7506
1.272486
2.675061
-1.667133
2.908225
-23.86547
-56.92549
1.200218
3.185207
3.181095
3.150739
1.490105
2.972373
1.024044
4.018172
3.050613
0.9813526
2.394302
1.829637
-3.644218
-9.171295
-2.455985
0.9933395
0.8615318
-51.68761
0.2625665
1.32233
1.62765
3.590214
-49.46637
3.276647
3.153787
1.697819
2.49257
1.910079
-7.516204
1.307341
1.112123
-47.95235
28.70591
1.509465
2.353221
3.411801
1.379373
2.737011
2.449389
2.785234
2.325981
2.565285
-16.30333
0.988926
-8.73541
3.168279
-0.4443821
4.623504
3.188553
1.661828
2.427079
-21.6964
-33.3435
-58.89562
-35.67192
2.073791
-8.40958
1.612999
0.7997533
2.511958
-36.2404
0.9888
2.323452
0.8949514
-11.51709
1.635248
-10.22571
4.358109
-68.61324
0.9043505
4.039079
2.216451
-78.37885
3.111207
-24.64734
2.392027
2.311108
2.175119
2.21125
2.683654
-25.04851
-11.57328
1.47803
1.629563
-15.62777
0.0846758
2.925065
3.134273
4.687962
-1.087231
1.290715
1.081887
-92.67499
-0.4276972
-4.749395
2.489467
3.196426
1.52185
2.792481
3.023134
2.67149
-13.31968
2.250601
6.217326
13.02956
3.140554
-6.228909
2.437821
-1.770059
1.370202
-30.51746
0.3249477
-0.8594115
0.3033388
-10.27577
-49.79339
-26.76218
2.17411
-37.47576
1.128506
-6.037095
0.3931645
0.05013822
17.67071
3.362898
-24.50421
-63.80865
2.975381
3.250428
1.882877
2.982042
3.50327
3.110264
0.7998353
1.566971
2.640904
-8.747848
1.706757
3.076958
2.667791
3.362697
1.983125
2.657952
-0.9607362
2.912583
3.337595
-8.981863
-0.3418479
2.141842
-0.1676027
0.7255118
-12.33424
-7.674507
-2.675361
-7.034456
2.188139
-2.734041
-7.398689
-7.236438
3.837865
8.455642
0.5045796
11.12131
-42.05453
-21.93254
1.952924
2.422988
17.70045
2.035147
1.499619
1.328055
-2.366763
-2.826579
-57.02934
-20.31047
-11.35665
15.45144
11.98203
1.054338
-28.85566
-35.30532
-55.53828
3.241711
-4.904837
-0.8309214
3.777168
1.638151
0.5575905
1.862744
-0.1805089
1.169469
0.925587
1.158683
1.644147
-18.69908
1.872957
0.335298
2.499174
-8.474372
21.15263
0.8695043
-37.33212
-26.94288
-12.68852
11.77076
1.183653
-8.892787
-6.510263
-46.74137
0.8977894
-48.09371
3.067049
-56.02566
-25.03641
2.365669
2.629853
-11.47307
1.584525
15.83016
1.074964
2.305652
2.9808
1.063651
-1.849841
2.496493
2.251989
0.5612384
3.005653
-19.49946
2.280373
2.62364
-2.602668
1.315562
1.181103
-9.155263
-10.5157
-47.59958
-0.5235732
1.54406
26.24439
0.6521084
3.026111
-36.82395
-1.302073
0.1871451
1.801279
2.649497
2.550816
2.513562
-7.260508
-9.366436
2.248834
4.591913
1.317219
2.575791
1.481071
20.25839
4.67188
-20.12453
9.095685
-8.821253
2.206996
-67.2818
2.429125
1.171996
3.372129
2.991189
2.596361
-42.66238
-37.59349
-25.11685
0.1729559
-0.2751277
-1.005307
1.479203
-22.12116
2.662628
3.445303
-46.95338
-25.87294
-0.1680337
-81.77124
2.818139
-5.31557
1.218723
-7.278303
11.61287
2.066643
-0.2248132
2.905506
-0.9098737
1.785731
18.87781
-0.3399607
-6.884764
2.038177
2.211313
1.352408
3.118146
3.03987
2.266695
-2.311846
-3.055449
1.099594
0.4898249
-9.932436
2.582029
3.168003
-2.547098
-0.4722386
1.113327
1.19778
-9.300223
0.209686
3.201656
-59.45721
29.01586
-9.20662
2.649029
2.827709
-19.58728
1.125178
0.9105371
-0.6591732
-2.714313
2.009973
2.817301
0.9676987
-59.72918
2.137816
22.38457
34.48171
3.749916
-8.404085
0.07466443
2.220493
3.183668
-0.5720255
34.01402
-32.79254
1.715214
-0.1486263
1.015557
-1.24818
2.827556
-9.421619
3.003384
3.390355
0.9306079
-7.144954
2.550517
1.873375
-11.26967
-19.11075
-6.366418
0.7218908
0.7433014
-64.02939
31.38458
-20.00182
2.405605
-11.83679
-5.394046
1.600347
1.905078
33.73895
-2.374909
-10.44906
-4.968176
0.004746191
1.145949
-22.95381
2.829843
1.130498
1.750322
1.311776
21.209
3.17982
-3.246575
0.9878627
1.818179
-7.247885
22.06443
4.479379
10.60686
-88.92965
-53.91256
1.967733
1.109639
-36.62767
-10.31741
-21.09336
-3.306244
2.771841
4.583998
0.2440539
-4.195959
-8.342578
6.641797
-10.07227
-8.598839
2.267646
1.347939
-1.7308
-40.7459
-10.14284
2.636453
3.924488
0.278758
1.216099
2.377504
1.96277
2.70643
3.138363
-2.782685
-0.1226875
1.109579
1.133353
27.70081
1.700701
2.13539
-4.07401
5.107317
0.2338691
1.686482
38.01685
-0.008984685
2.37562
0.8763332
1.105742
-10.61913
-29.58752
-44.66037
13.79093
3.481603
1.246891
2.605539
2.597058
1.147619
3.072011
2.193198
2.978983
2.841062
2.918655
3.05845
0.1875482
13.50602
10.35297
2.860079
2.826921
1.734368
1.800287
2.719486
-18.55125
6.831717
-38.33009
-8.121675
1.127706
2.489442
-59.41062
43.56814
-73.31033
1.741264
3.528851
5.228891
-15.83344
9.283138
-13.81508
2.038918
4.631237
2.244253
4.998598
2.478328
3.456851
2.644707
-42.81623
0.2849446
2.092851
1.552326
2.719343
-62.01629
-43.76741
-51.99748
1.596638
15.50931
1.316535
1.098617
1.070444
3.115818
-0.4181578
1.445003
4.542307
30.68383
2.60467
2.636365
2.837745
25.54468
1.704066
2.251912
4.254299
-6.216579
1.283305
1.199657
-85.12103
1.866502
-56.91787
3.103535
2.356915
47.11739
-2.33265
1.299323
3.215312
5.196754
2.702361
2.715428
-26.86315
44.907
4.660224
-2.350786
47.27028
-0.980547
0.5895449
0.7586498
-12.62304
1.003884
4.629812
0.983289
4.931138
-15.0522
-13.87513
2.56202
2.582836
2.309043
2.756174
15.85355
0.6438325
2.460791
2.621797
2.112993
2.161845
2.273942
2.176051
1.937919
1.78426
-2.428945
-34.58428
-40.63565
-57.19963
-37.22131
-35.38716
2.603508
-2.020616
3.003139
1.43016
4.972861
-28.59936
-10.58872
28.81819
-12.7316
3.107475
1.90188
0.2154691
-2.759489
-40.33217
-1.692743
3.79133
-88.45365
3.571379
1.960247
-0.6630908
3.607238
1.190082
2.513138
1.334825
3.139719
0.4583436
2.671339
4.131052
0.3853309
2.448306
-0.769067
0.5338152
-11.88329
-5.780656
0.940496
2.620785
1.978006
-6.457425
-49.76891
3.422563
1.157355
0.8629034
0.9660628
8.424313
16.48895
1.932227
0.5551842
3.165187
7.987026
-37.8486
-37.76404
1.241575
-13.94781
-6.132849
-7.232812
9.208956
0.1439418
-6.616978
0.4366621
-14.99851
-11.91385
1.668836
-11.2073
-4.978442
-0.4081533
29.71156
1.30039
-12.28168
1.147814
0.6374571
0.5691827
-66.95623
1.655814
2.171531
-12.7648
2.655838
-4.231097
-6.305879
-0.4367645
3.592929
7.542515
0.9131211
-85.91826
0.6074082
39.4608
2.543549
8.192511
0.3074443
-3.668845
1.557253
1.545703
0.8365714
18.55407
1.814953
1.772042
3.209012
0.3512242
-13.99868
-0.009020369
-7.455357
-26.02123
0.7144685
-2.532528