/*--------------------------------*- C++ -*----------------------------------*\
| =========                 |                                                 |
| \\      /  F ield         | OpenFOAM: The Open Source CFD Toolbox           |
|  \\    /   O peration     | Version:  2406                                  |
|   \\  /    A nd           | Website:  www.openfoam.com                      |
|    \\/     M anipulation  |                                                 |
\*---------------------------------------------------------------------------*/
FoamFile
{
    version     2.0;
    format      ascii;
    arch        "LSB;label=32;scalar=64";
    class       surfaceScalarField;
    location    "3.18";
    object      phi;
}
// * * * * * * * * * * * * * * * * * * * * * * * * * * * * * * * * * * * * * //

dimensions      [0 3 -1 0 0 0 0];

oriented        oriented;

internalField   nonuniform List<scalar> 
23794
(
0.006641767
-0.008625774
0.001984007
0.002460791
0.004180976
-0.001804419
0.00426521
-0.003183872
0.001379453
-0.001074762
-0.00210911
-0.0006725761
-0.0004021857
-0.00295409
0.002281514
-0.00300267
4.85801e-05
-0.0007127708
-0.002289899
0.0001153714
-0.0008281423
-0.001460302
0.001575673
-0.003052151
0.001591849
-0.002589183
-0.000462968
-0.000766478
-0.001822705
0.001439987
-0.002206465
0.003989596
-0.002549608
0.005866076
-0.001876481
0.006781252
-0.0009151756
0.00618852
0.0005927316
0.003528206
0.002660314
-0.0005450852
0.004073291
-0.004030358
0.003485273
-0.003713094
-0.0003172634
-0.0004874089
-0.003225685
0.00224592
-0.002733329
0.003470863
-0.001224943
0.004306652
-0.0008357886
0.006048974
-0.001742321
0.009145083
-0.003096109
0.0118893
-0.002744213
0.009346529
0.002542767
0.00105914
0.008287389
-0.003156722
0.004215862
-0.0003562006
-0.002800521
0.002263823
-0.002620024
0.00200538
0.0002584429
-0.001365205
0.003370585
-0.0068681
0.005502895
-0.01086909
0.004000995
-0.0130308
0.00216171
-0.01417593
0.001145121
-0.01487426
0.00069833
-0.0153458
0.0004715465
-0.01566825
0.0003224449
-0.01588322
0.0002149736
-0.01591894
3.57235e-05
-0.0158825
-3.644595e-05
-0.0158123
-7.019635e-05
-0.01569907
-0.0001132363
-0.015574
-0.0001250702
-0.01539211
-0.0001818851
-0.01517225
-0.0002198616
-0.01489542
-0.0002768254
-0.01459714
-0.0002982794
-0.01428411
-0.0003130342
-0.01391806
-0.000366047
-0.01353449
-0.0003835766
-0.01314532
-0.0003891651
-0.01269206
-0.00045326
-0.01221768
-0.000474379
-0.0117196
-0.0004980844
-0.01121702
-0.00050258
-0.01069491
-0.000522105
-0.01012362
-0.0005712941
-0.009562189
-0.0005614293
-0.008960943
-0.0006012468
-0.008342441
-0.0006185016
-0.007721155
-0.0006212865
-0.007093329
-0.0006278257
-0.0064342
-0.0006591293
-0.005775348
-0.0006588512
-0.005110877
-0.0006644712
-0.004435501
-0.0006753764
-0.003766052
-0.0006694491
-0.003111453
-0.0006545989
-0.002416892
-0.0006945603
-0.001727415
-0.0006894778
-0.001022639
-0.0007047759
-0.0002398822
-0.0007827566
0.0005195248
-0.000759407
0.001219244
-0.0006997191
0.001910398
-0.0006911541
0.002594863
-0.0006844645
0.003264383
-0.0006695203
0.003934281
-0.0006698985
0.00458534
-0.0006510588
0.005247809
-0.0006624686
0.005890027
-0.0006422182
0.006498138
-0.0006081112
0.007109447
-0.0006113091
0.007707172
-0.0005977241
0.008281689
-0.0005745172
0.008851393
-0.000569704
0.009405373
-0.0005539807
0.009906131
-0.0005007579
0.01040016
-0.0004940259
0.01087718
-0.0004770223
0.01131273
-0.0004355542
0.01174632
-0.0004335863
0.01212783
-0.0003815124
0.01248009
-0.000352255
0.01279199
-0.0003119068
0.01305965
-0.0002676543
0.01331845
-0.0002588016
0.01353753
-0.0002190757
0.01371422
-0.0001766986
0.01384481
-0.0001305821
0.01392917
-8.436337e-05
0.01397018
-4.101327e-05
0.01392254
4.764336e-05
0.01380376
0.0001187838
0.01354971
0.0002540464
0.0130427
0.0005070134
0.01217555
0.0008671452
0.01059046
0.001585087
0.007550272
0.003040192
0.003056851
0.004493421
0.0002992986
0.002757552
-0.001611373
0.001910672
-0.005673159
0.004061786
-0.00819568
0.002522521
-0.006463358
-0.001732322
-0.003398016
-0.003065342
-0.001062396
-0.002335621
0.002051435
-0.00311383
0.00531359
-0.003262155
0.002286077
0.003027513
-0.005772931
0.008059008
-0.009380067
0.003607135
-0.007819205
-0.001560862
-0.005097814
-0.002721391
-0.002856141
-0.002241673
-0.0008883284
-0.001967813
0.001150831
-0.00203916
0.002804999
-0.001654168
0.00290399
-9.899124e-05
0.002244349
0.0006596415
0.00181814
0.0004262085
0.001646981
0.0001711596
0.001515981
0.0001309993
0.001186223
0.0003297586
0.0009727625
0.0002134604
0.0008815211
9.12413e-05
0.0008773711
4.149986e-06
0.0009180409
-4.066981e-05
0.0009691899
-5.114893e-05
0.001195879
-0.0002266895
0.001646643
-0.0004507639
0.002439274
-0.0007926309
0.00345318
-0.001013906
0.004562523
-0.001109343
0.005703972
-0.001141449
0.006790077
-0.001086104
0.007736667
-0.0009465901
0.008464071
-0.0007274041
0.008926001
-0.0004619302
0.0003002267
0.01205857
-0.0120865
0.002011944
0.009234158
0.007005384
0.002823989
0.01067538
-0.002610877
0.006814319
-0.003688608
-0.001031379
-0.003616856
-0.0004739381
-0.00505893
0.003723588
-0.005054582
4.423172e-05
-0.003061908
-0.004282573
-0.002896044
-0.0009940062
-0.004749653
0.003429283
-0.004929069
0.001771264
-0.00305198
-0.002340056
-0.0009212077
-0.003953477
0.001698216
-0.004825889
0.004755852
-0.005607245
0.007062244
-0.004182872
0.008231443
-0.002084375
0.00819031
0.000633865
0.006572298
0.004278326
0.00166366
0.008981929
-0.004323407
0.00947234
-0.005000243
0.0003595719
-0.001181087
-0.007044841
0.001367554
-0.005281971
0.002301925
-0.002159314
0.002822397
-0.00135626
0.004262906
-0.00318283
0.007556671
-0.006389875
0.0109466
-0.006134139
0.01091463
0.002574738
0.004343852
0.01485816
-0.001323181
0.009882895
-0.002955134
-0.001168568
-0.005579518
4.360278e-06
-0.009735714
0.004414639
-0.01523459
0.008869462
-0.02014283
0.01041113
-0.022341
0.00619917
-0.02287854
0.002699249
-0.02300696
0.001273541
-0.02300366
0.0006950264
-0.02294463
0.0004125246
-0.02285076
0.0002285723
-0.0227368
0.0001010085
-0.02251969
-0.0001813778
-0.022287
-0.0002691356
-0.02203604
-0.0003211565
-0.02174133
-0.0004079463
-0.02143555
-0.0004308563
-0.02107069
-0.0005467464
-0.02066846
-0.0006220879
-0.02020444
-0.0007408482
-0.01971779
-0.0007849276
-0.01922267
-0.0008081546
-0.0186703
-0.0009184148
-0.01809614
-0.0009577349
-0.01752092
-0.0009643864
-0.01687197
-0.001102212
-0.01620338
-0.001142973
-0.01550737
-0.001194092
-0.01480553
-0.001204422
-0.01408717
-0.001240465
-0.0133101
-0.00134836
-0.01254648
-0.001325051
-0.01174124
-0.001406484
-0.01091399
-0.001445757
-0.01008695
-0.00144832
-0.009256973
-0.001457807
-0.00838886
-0.001527242
-0.00752018
-0.001527532
-0.00664793
-0.001536721
-0.005763727
-0.00155958
-0.004888439
-0.001544737
-0.004029613
-0.001513425
-0.003127576
-0.001596598
-0.002227475
-0.001589578
-0.001307447
-0.001624804
-0.0003030146
-0.001787189
0.0006757564
-0.001738178
0.001588202
-0.001612164
0.002489258
-0.00159221
0.003380682
-0.001575889
0.004257093
-0.001545931
0.005135177
-0.001547983
0.005991821
-0.001507703
0.006861608
-0.001532256
0.007709396
-0.001490006
0.008516217
-0.001414931
0.009328757
-0.001423849
0.01012964
-0.001398612
0.0109019
-0.001346774
0.01166902
-0.001336826
0.01242298
-0.00130794
0.01311452
-0.001192298
0.01380212
-0.001181625
0.01447102
-0.001145917
0.01509365
-0.00105819
0.01571619
-0.001056125
0.01627799
-0.0009433132
0.01681414
-0.0008884018
0.01730551
-0.0008032809
0.01774857
-0.0007107125
0.01818855
-0.0006987827
0.01858694
-0.0006174619
0.01893947
-0.0005292246
0.01924604
-0.000437158
0.01950379
-0.0003421128
0.01973046
-0.0002676786
0.01990469
-0.0001265911
0.02008239
-5.891389e-05
0.02023085
0.0001055809
0.02027259
0.0004652769
0.02020656
0.0009331799
0.01992402
0.001867618
0.01859759
0.004366626
0.01482515
0.008265861
0.007570733
0.01001197
-0.0008142805
0.01029569
-0.005215548
0.008463053
-0.004629222
0.001936195
-0.001516549
-0.004844995
0.0009688948
-0.005550787
0.00233286
-0.003699586
0.004415409
-0.005196379
0.00691725
-0.005763996
0.0003953747
0.009549388
-0.009017939
0.01747232
-0.01108441
0.005673606
-0.008770443
-0.003874829
-0.005654274
-0.00583756
-0.003112798
-0.004783149
-0.000948479
-0.004132132
0.00138587
-0.004373509
0.003947211
-0.004215508
0.005170255
-0.001322035
0.004543663
0.001286233
0.003047275
0.001922596
0.002018048
0.001200387
0.001727367
0.0004216801
0.001436083
0.0006210422
0.001235089
0.0004144545
0.001171425
0.0001549054
0.001213865
-3.829017e-05
0.001311986
-0.0001387907
0.001424778
-0.000163941
0.001736779
-0.0005386904
0.002303892
-0.001017877
0.003262234
-0.001750973
0.004477733
-0.002229405
0.005818051
-0.002449661
0.007216467
-0.002539865
0.008570063
-0.0024397
0.009787779
-0.002164307
0.01075846
-0.001698081
0.01148699
-0.001190466
-0.0002992844
0.01421945
-0.01378616
0.001578657
0.01379916
0.007425676
0.009369643
0.01510489
0.001490771
0.01469319
-0.003945654
0.004405046
-0.005431421
0.001011829
-0.007262634
0.005554801
-0.008018074
0.0007996716
-0.006914634
-0.005386013
-0.006988463
-0.0009201773
-0.00727753
0.00371835
-0.005643597
0.0001373304
-0.003389644
-0.004594009
-0.00115842
-0.006184701
0.001933625
-0.007917934
0.005480869
-0.00915449
0.008194943
-0.006896946
0.009566308
-0.00345574
0.009270958
0.000929214
0.007752646
0.005796639
0.003903492
0.01283108
-0.002690158
0.01606599
-0.005126269
0.002795683
-0.002523682
-0.009647428
-0.001209864
-0.006595788
-0.001274225
-0.002094953
-0.00150413
-0.001126356
0.0001430843
-0.004830044
0.003913733
-0.01016052
0.007641737
-0.009862143
0.008518236
0.001698238
0.004234162
0.01914224
-0.004967048
0.0190841
-0.01401768
0.007882068
-0.02019896
0.006185636
-0.02374135
0.007957025
-0.02640188
0.01153
-0.02718577
0.01119502
-0.0269303
0.005943703
-0.02684096
0.002609908
-0.02691639
0.001348972
-0.02697161
0.0007502443
-0.02699285
0.0004337685
-0.02697025
0.0002059696
-0.02691528
4.603273e-05
-0.02669912
-0.0003975317
-0.02643815
-0.0005301099
-0.02615332
-0.0006059859
-0.02581552
-0.0007457429
-0.02546672
-0.000779661
-0.02504403
-0.0009694297
-0.02457785
-0.001088272
-0.02403578
-0.001282919
-0.02346632
-0.001354389
-0.02288778
-0.001386696
-0.0222374
-0.001568794
-0.02156075
-0.00163438
-0.02088439
-0.001640745
-0.0201164
-0.001870207
-0.01932491
-0.001934456
-0.01850001
-0.002018993
-0.01766765
-0.002036782
-0.01681528
-0.002092835
-0.0158899
-0.002273746
-0.01498208
-0.002232867
-0.01402159
-0.002366971
-0.01303452
-0.002432827
-0.01204677
-0.002436075
-0.01105488
-0.002449695
-0.01001636
-0.002565766
-0.008976783
-0.002567104
-0.007931968
-0.002581536
-0.006873291
-0.002618257
-0.005824463
-0.002593564
-0.004796091
-0.002541797
-0.003718787
-0.002673902
-0.002644251
-0.002664114
-0.001547756
-0.0027213
-0.0003595715
-0.002975373
0.0008021159
-0.002899866
0.001894386
-0.002704435
0.00297408
-0.002671904
0.004041585
-0.002643393
0.005090971
-0.002595317
0.006141289
-0.002598301
0.007165118
-0.002531532
0.008204344
-0.002571482
0.009216274
-0.002501936
0.01017892
-0.002377575
0.01114811
-0.002393041
0.01210222
-0.002352723
0.01302161
-0.002266162
0.01393505
-0.002250271
0.01483163
-0.002204518
0.01565234
-0.002013002
0.0164688
-0.001998093
0.01726208
-0.001939197
0.01799864
-0.001794744
0.01873681
-0.001794294
0.01939995
-0.001606458
0.02003328
-0.001521726
0.02061196
-0.001381961
0.02113106
-0.001229816
0.02164825
-0.001215977
0.02211306
-0.00108227
0.0225246
-0.0009407617
0.0228799
-0.0007924541
0.02317794
-0.0006401569
0.02343462
-0.0005243584
0.02361097
-0.0003029434
0.02376591
-0.0002138491
0.02386082
1.066291e-05
0.02382169
0.0005044145
0.02371765
0.001037212
0.02367579
0.001909481
0.02384222
0.004200195
0.023263
0.008845084
0.01821413
0.01506084
0.007615584
0.02089423
0.0007662645
0.01531237
0.00265582
4.66392e-05
0.006481885
-0.00867106
0.008948309
-0.00801721
0.009112813
-0.00386409
0.00840738
-0.004490946
0.007228752
-0.004585368
-0.001154765
0.01793291
-0.01027032
0.02658787
-0.01175133
0.007154617
-0.00931874
-0.006307418
-0.00567076
-0.009485539
-0.002834432
-0.007619477
-0.0006361339
-0.006330429
0.001621808
-0.006631452
0.004381948
-0.006975648
0.006146617
-0.003086704
0.005701553
0.001731297
0.003585554
0.004038595
0.002163968
0.002621973
0.001941861
0.0006437871
0.001616957
0.0009459459
0.001390261
0.0006411505
0.00132798
0.0002171864
0.001379982
-9.029183e-05
0.001501441
-0.0002602496
0.001635614
-0.0002981135
0.00199188
-0.0008949573
0.002623846
-0.001649842
0.003690869
-0.002817996
0.005056656
-0.003595192
0.006593479
-0.003986484
0.008226185
-0.004172571
0.009827977
-0.004041492
0.01127724
-0.003613567
0.01245112
-0.002871968
0.01332529
-0.002064628
-0.0007601583
0.01609535
-0.01592562
0.001408925
0.01652117
0.006999862
0.01485278
0.01677328
0.007437446
0.02210853
-0.001984278
0.01382677
-0.006703266
0.005730817
-0.009583355
0.008434889
-0.01119187
0.002408191
-0.01045189
-0.006125995
-0.0100909
-0.001281165
-0.008759353
0.002386799
-0.006231943
-0.00239008
-0.004037848
-0.006788104
-0.001481702
-0.008740847
0.002116776
-0.01151641
0.006292529
-0.01333024
0.009524494
-0.01012891
0.01112871
-0.005059955
0.01060664
0.001451283
0.008497083
0.007906197
0.00529209
0.01603608
-0.0007249176
0.022083
-0.004967883
0.007038648
-0.005015943
-0.009599367
-0.005731323
-0.005880409
-0.007027107
-0.0007991695
-0.007678038
-0.0004754248
-0.006047963
-0.006460119
-0.001903478
-0.01430501
0.001758001
-0.01352362
0.00311422
0.0003420193
-0.0003887334
0.02264519
-0.01338341
0.03207878
-0.02625957
0.02075824
-0.03143522
0.01136128
-0.03285556
0.00937737
-0.03295717
0.0116316
-0.03220031
0.01043816
-0.03204849
0.005791885
-0.03237399
0.002935401
-0.03260108
0.001576068
-0.03271386
0.0008630241
-0.03274417
0.0004640794
-0.03269827
0.0001600703
-0.03260737
-4.487123e-05
-0.03231545
-0.000689454
-0.03197724
-0.0008683212
-0.03161013
-0.0009730877
-0.03117992
-0.001175953
-0.03074043
-0.001219159
-0.03021453
-0.001495326
-0.02963808
-0.001664725
-0.02897162
-0.001949372
-0.02827287
-0.002053143
-0.02756481
-0.002094754
-0.02677285
-0.002360753
-0.02594954
-0.002457692
-0.02512713
-0.002463156
-0.02419871
-0.002798624
-0.02324004
-0.002893127
-0.02224242
-0.003016613
-0.02123724
-0.003041968
-0.02020924
-0.00312083
-0.01909228
-0.003390714
-0.0179987
-0.003326439
-0.01684072
-0.003524954
-0.01565233
-0.003621222
-0.01446181
-0.00362659
-0.013267
-0.003644506
-0.01201625
-0.003816513
-0.01076404
-0.003819314
-0.009504902
-0.003840676
-0.00823057
-0.003892589
-0.006965914
-0.00385822
-0.005728869
-0.003778841
-0.004434452
-0.003968318
-0.003145757
-0.003952809
-0.001837303
-0.004029754
-0.0004312514
-0.004381425
0.0009492482
-0.004280365
0.002262125
-0.004017312
0.003562504
-0.003972284
0.004845261
-0.00392615
0.006104952
-0.003855008
0.007365006
-0.003858355
0.008592926
-0.003759452
0.009841271
-0.003819828
0.01105431
-0.003714973
0.01221064
-0.003533905
0.01337597
-0.003558377
0.0145214
-0.003498149
0.01562816
-0.003372925
0.01672937
-0.003351476
0.01780772
-0.003282869
0.01879843
-0.003003713
0.01978504
-0.002984705
0.02074275
-0.002896909
0.0216345
-0.002686494
0.02252895
-0.002688739
0.02333409
-0.002411597
0.02410363
-0.002291268
0.0248087
-0.00208703
0.0254456
-0.00186672
0.02607997
-0.001850348
0.0266521
-0.001654392
0.02716321
-0.001451873
0.0276062
-0.001235447
0.02798544
-0.001019393
0.02831578
-0.0008547031
0.02855259
-0.000539755
0.02876655
-0.0004278034
0.02889991
-0.0001227046
0.02884639
0.0005579355
0.0286406
0.001243
0.02832616
0.002223928
0.02812831
0.004398039
0.0285621
0.008411294
0.02756199
0.01606095
0.02148992
0.0269663
0.01551328
0.02128901
0.01477771
0.0007822094
0.01730686
-0.01120021
0.01863253
-0.009342878
0.01754765
-0.00277921
0.01388608
-0.000829371
0.008171753
0.001128955
-0.002134649
0.02823931
-0.01096658
0.0354198
-0.01261504
0.008803075
-0.009693939
-0.009228515
-0.005411115
-0.01376836
-0.002140258
-0.01089033
0.0001206363
-0.008591324
0.002130314
-0.008641129
0.004745916
-0.00959125
0.006576767
-0.004917556
0.00608615
0.002221915
0.003682492
0.006442253
0.002368884
0.003935581
0.002370418
0.0006422528
0.00194984
0.001366524
0.001621959
0.0009690318
0.001503176
0.0003359693
0.00155474
-0.0001418559
0.001693505
-0.0003990149
0.00179817
-0.0004027783
0.002121257
-0.001218044
0.002723876
-0.002252461
0.003835382
-0.003929502
0.005379514
-0.005139324
0.007221866
-0.005828836
0.009221862
-0.006172567
0.01118401
-0.006003637
0.01294388
-0.005373445
0.01434462
-0.004272705
0.01537988
-0.003099888
-0.0013059
0.01847906
-0.0185243
0.001454162
0.01868564
0.006793284
0.01869046
0.01676845
0.01352023
0.02727876
0.001789342
0.02555766
-0.00705881
0.01457897
-0.01165011
0.01302619
-0.01388152
0.0046396
-0.01282437
-0.007183149
-0.01180206
-0.002303478
-0.009747128
0.0003318722
-0.007104307
-0.005032901
-0.004932271
-0.00896014
-0.001923683
-0.01174944
0.002266576
-0.01570667
0.007229283
-0.01829295
0.01114527
-0.0140449
0.01304653
-0.006961215
0.01226442
0.002233391
0.009314369
0.01085625
0.005807013
0.01954343
0.0003403215
0.02754969
-0.005444934
0.0128239
-0.009126496
-0.005917805
-0.0125548
-0.002452104
-0.01512247
0.001768504
-0.01616482
0.0005669251
-0.01491058
-0.007714365
-0.01115995
-0.01805564
-0.006419431
-0.01826414
-0.005641373
-0.0004360387
-0.01219965
0.02920347
-0.02564173
0.04552086
-0.0360704
0.03118691
-0.03816411
0.01345498
-0.0386081
0.009821365
-0.03841362
0.01143712
-0.03791967
0.009944204
-0.03809732
0.005969537
-0.03848062
0.003318699
-0.03873489
0.001830339
-0.0388877
0.00101584
-0.03896507
0.0005414441
-0.03893157
0.0001265756
-0.03886252
-0.0001139234
-0.03853601
-0.001015963
-0.03815802
-0.001246311
-0.0377441
-0.001387015
-0.03724095
-0.0016791
-0.03674326
-0.001716845
-0.03612484
-0.002113746
-0.03545244
-0.002337132
-0.03466412
-0.00273769
-0.03383786
-0.002879404
-0.03300402
-0.002928592
-0.03206121
-0.003303566
-0.03108136
-0.003437535
-0.03010647
-0.003438044
-0.02900043
-0.003904671
-0.0278547
-0.004038852
-0.02666303
-0.004208285
-0.02546472
-0.00424028
-0.0242385
-0.004347048
-0.02289867
-0.004730546
-0.02159392
-0.004631185
-0.02020516
-0.004913719
-0.01878257
-0.005043808
-0.01735433
-0.005054831
-0.01592227
-0.005076563
-0.01441867
-0.005320119
-0.01291287
-0.005325106
-0.01139553
-0.005358022
-0.009862457
-0.00542566
-0.008337039
-0.005383639
-0.006848148
-0.005267732
-0.00528889
-0.005527576
-0.003740159
-0.00550154
-0.002179396
-0.005590517
-0.0005186319
-0.00604219
0.001120213
-0.00591921
0.002700944
-0.005598042
0.004267897
-0.005539237
0.005806705
-0.005464959
0.007316693
-0.005364995
0.008828183
-0.005369845
0.01029952
-0.005230789
0.01179901
-0.005319314
0.01324956
-0.00516553
0.01463796
-0.004922298
0.01603962
-0.004960038
0.01740899
-0.004867523
0.01873674
-0.004700676
0.02006265
-0.004677381
0.02135212
-0.004572339
0.02253854
-0.004190132
0.02372219
-0.004168356
0.02486732
-0.00404204
0.02593016
-0.003749334
0.02700197
-0.003760547
0.02796085
-0.003370486
0.02887689
-0.003207302
0.02971443
-0.002924575
0.03046685
-0.002619139
0.03121952
-0.002603014
0.03189029
-0.002325165
0.03249251
-0.002054091
0.03300659
-0.001749526
0.03344331
-0.001456117
0.03382646
-0.001237849
0.03407935
-0.0007926445
0.03431363
-0.0006620798
0.03444256
-0.0002516425
0.03434766
0.0006528367
0.03410415
0.001486509
0.03375586
0.002572218
0.0333444
0.004809499
0.03332955
0.008426151
0.03435635
0.01503415
0.03441214
0.02691051
0.03260698
0.02309418
0.03077758
0.002611602
0.02993591
-0.01035854
0.02897029
-0.00837726
0.02646096
-0.000269875
0.02052118
0.005110405
0.01045421
0.01119593
-0.00185315
0.04054666
-0.01058733
0.04415398
-0.01275811
0.01097386
-0.009391816
-0.01259481
-0.004646966
-0.01851321
-0.0009860127
-0.01455129
0.001387974
-0.01096531
0.002985353
-0.01023851
0.005167046
-0.01177294
0.0066481
-0.006398609
0.005835842
0.003034173
0.003485591
0.008792504
0.002640478
0.004780694
0.002830229
0.0004525018
0.002324267
0.001872486
0.001800533
0.001492766
0.001559079
0.0005774229
0.001598424
-0.000181201
0.001647235
-0.0004478256
0.00157018
-0.000325723
0.001740751
-0.001388616
0.002258461
-0.002770172
0.00353585
-0.005206891
0.005562461
-0.007165935
0.008007831
-0.008274206
0.0105801
-0.008744832
0.01302065
-0.008444189
0.01514806
-0.007500857
0.01678901
-0.005913659
0.017967
-0.004277874
-0.001863196
0.02173144
-0.02194185
0.001664573
0.02131612
0.0072086
0.02159892
0.01648565
0.01878499
0.03009268
0.00697259
0.03737007
-0.005960328
0.02751189
-0.01328042
0.02034628
-0.01621542
0.007574602
-0.01442577
-0.008972802
-0.01280916
-0.003920088
-0.01089588
-0.001581409
-0.008418419
-0.007510361
-0.006048229
-0.01133033
-0.00256357
-0.01523409
0.002323066
-0.02059331
0.008301239
-0.02427112
0.01316845
-0.01891211
0.01546038
-0.009253146
0.01425843
0.003435347
0.01030526
0.01480942
0.005610806
0.02423789
0.0001289427
0.03303155
-0.007652197
0.02060504
-0.01549675
0.001926748
-0.02173683
0.003787974
-0.02540643
0.005438102
-0.02709855
0.002259044
-0.02693485
-0.007878056
-0.02479027
-0.02020023
-0.02096473
-0.02208968
-0.02172115
0.0003203846
-0.02962536
0.03710768
-0.03971738
0.05561288
-0.04393477
0.03540429
-0.04432964
0.01384986
-0.04546705
0.01095878
-0.04580433
0.0117744
-0.04575717
0.009897047
-0.04609381
0.006306175
-0.04651838
0.003743265
-0.04679185
0.002103813
-0.04693788
0.001161868
-0.04699137
0.000594932
-0.04689827
3.347195e-05
-0.04678829
-0.000223898
-0.0463752
-0.00142905
-0.04590794
-0.001713579
-0.04539053
-0.001904421
-0.0447569
-0.002312729
-0.04415922
-0.002314524
-0.04339983
-0.002873133
-0.04258716
-0.003149807
-0.04163016
-0.003694692
-0.0406277
-0.003881858
-0.03962495
-0.003931348
-0.03848428
-0.004444232
-0.0373029
-0.004618919
-0.03613541
-0.004605529
-0.03480567
-0.005234412
-0.03342346
-0.005421066
-0.03199286
-0.005638879
-0.03055487
-0.005678271
-0.02908727
-0.005814656
-0.02747248
-0.006345334
-0.02591582
-0.006187846
-0.02424642
-0.006583113
-0.02254132
-0.006748914
-0.02082926
-0.006766887
-0.01911499
-0.006790837
-0.01731058
-0.007124524
-0.01550547
-0.007130214
-0.01367633
-0.007187166
-0.0118324
-0.007269591
-0.009986122
-0.007229916
-0.008195279
-0.007058575
-0.006315624
-0.007407232
-0.004447085
-0.007370079
-0.002584907
-0.007452695
-0.000622774
-0.008004322
0.001321599
-0.007863583
0.003232225
-0.007508668
0.005113162
-0.007420174
0.006957294
-0.007309091
0.008768182
-0.007175883
0.01058025
-0.007181914
0.0123426
-0.006993142
0.01414783
-0.007124543
0.01588275
-0.006900449
0.01755382
-0.006593371
0.01924649
-0.006652699
0.02088425
-0.00650529
0.02247762
-0.006294044
0.0240839
-0.006283662
0.02562836
-0.006116797
0.02704916
-0.005610934
0.02847414
-0.005593328
0.02985004
-0.005417948
0.03112197
-0.005021262
0.03241389
-0.005052471
0.03356735
-0.004523939
0.03466998
-0.004309938
0.03567662
-0.00393121
0.03658568
-0.003528204
0.03750059
-0.003517923
0.03830744
-0.003132017
0.03904556
-0.002792212
0.03966913
-0.002373094
0.04020783
-0.001994814
0.04068057
-0.001710594
0.04100619
-0.001118255
0.04130403
-0.0009599278
0.04150601
-0.0004536218
0.04143875
0.0007201017
0.04117673
0.00174853
0.04078579
0.002963157
0.04035543
0.005239857
0.03987106
0.008910517
0.04064182
0.01426339
0.04344371
0.02410863
0.04456409
0.02197379
0.04233413
0.004841563
0.03925259
-0.007276996
0.03666547
-0.00579014
0.03338555
0.003010039
0.02688197
0.01161399
0.01421814
0.02385975
-9.982303e-05
0.05486463
-0.008377237
0.0524314
-0.01100324
0.01359986
-0.007507523
-0.01609053
-0.00271946
-0.02330128
0.001203949
-0.0184747
0.003374676
-0.01313604
0.00432406
-0.01118789
0.005793846
-0.01324273
0.00649644
-0.007101203
0.005079756
0.004450857
0.00305422
0.01081804
0.002825486
0.005009428
0.003113676
0.0001643115
0.002592909
0.002393253
0.001806474
0.002279201
0.001414935
0.0009689621
0.001287567
-5.383338e-05
0.0009574593
-0.0001177177
0.0005944464
3.728988e-05
0.00057112
-0.001365289
0.001239522
-0.003438573
0.003227274
-0.007194642
0.006226471
-0.01016513
0.009483501
-0.01153124
0.01268851
-0.01194984
0.01563409
-0.01138978
0.01816259
-0.01002935
0.02007526
-0.00782633
0.02142165
-0.005624264
-0.002383392
0.02611557
-0.02649558
0.002044576
0.02507347
0.008250701
0.02459924
0.01695989
0.02333596
0.03135596
0.01310065
0.04760537
-0.003501078
0.04411362
-0.01425729
0.0311025
-0.01790035
0.01121766
-0.01587851
-0.01099465
-0.01402984
-0.005768753
-0.01244789
-0.003163358
-0.01011422
-0.009844028
-0.007441115
-0.01400344
-0.003530676
-0.01914453
0.002192093
-0.02631608
0.009518114
-0.03159714
0.01564181
-0.02503581
0.01835796
-0.01196929
0.01652819
0.005265118
0.01130083
0.02003677
0.0045404
0.03099832
-0.002294627
0.03986658
-0.01235079
0.0306612
-0.02411118
0.01368714
-0.03261114
0.01228793
-0.03708906
0.009916021
-0.03974491
0.004914896
-0.04143535
-0.006187611
-0.04250236
-0.01913322
-0.04280164
-0.0217904
-0.0460041
0.003522844
-0.05118183
0.0422854
-0.05327846
0.05770951
-0.05198145
0.03410728
-0.05270395
0.01457236
-0.05440285
0.01265768
-0.05484858
0.01222013
-0.05488269
0.009931155
-0.05517844
0.006601927
-0.05561971
0.004184537
-0.05592444
0.002408545
-0.05610154
0.00133897
-0.05623855
0.0007319355
-0.05610518
-9.989034e-05
-0.0560561
-0.0002729861
-0.05551087
-0.001974273
-0.05497803
-0.002246427
-0.05437773
-0.002504718
-0.05359934
-0.003091116
-0.05292239
-0.002991479
-0.0519985
-0.003797024
-0.05104415
-0.004104153
-0.04989807
-0.00484077
-0.04868993
-0.005089995
-0.04750155
-0.005119729
-0.04613986
-0.005805921
-0.04472298
-0.006035802
-0.04332284
-0.006005669
-0.04173982
-0.006817432
-0.04008561
-0.007075276
-0.03837369
-0.007350802
-0.03663249
-0.007419469
-0.03490231
-0.007544833
-0.03294735
-0.008300297
-0.03109754
-0.008037654
-0.029084
-0.00859666
-0.02704551
-0.008787398
-0.02500088
-0.00881152
-0.02292144
-0.00887028
-0.02077804
-0.009267916
-0.01862529
-0.009282966
-0.01642839
-0.009384067
-0.01422943
-0.009468548
-0.01196055
-0.009498795
-0.009827432
-0.009191697
-0.007557198
-0.009677465
-0.005290468
-0.009636808
-0.003068779
-0.009674385
-0.0007440529
-0.01032905
0.001564003
-0.01017164
0.003878551
-0.009823215
0.00611418
-0.009655803
0.008332776
-0.009527688
0.01051168
-0.009354784
0.01267481
-0.009345044
0.01478514
-0.009103477
0.01697678
-0.009316177
0.01905963
-0.008983297
0.02106045
-0.008594196
0.02309386
-0.008686104
0.02507378
-0.008485217
0.02698879
-0.008209048
0.02890571
-0.00820059
0.03076172
-0.007972806
0.03245797
-0.007307186
0.03416463
-0.007299984
0.03579414
-0.007047459
0.03733198
-0.006559101
0.03888296
-0.006603455
0.0402561
-0.005897075
0.04158914
-0.005642976
0.04277891
-0.005120985
0.04386725
-0.004616538
0.04496885
-0.004619527
0.0459161
-0.004079263
0.04680965
-0.003685765
0.04753567
-0.003099116
0.04818089
-0.002640036
0.04875448
-0.002284181
0.04912224
-0.001486014
0.049493
-0.001330684
0.04968656
-0.0006471836
0.04958936
0.0008172945
0.04928695
0.002050944
0.04886068
0.003389423
0.04847837
0.005622174
0.04807032
0.009318562
0.04835694
0.01397677
0.05099506
0.02147051
0.05261597
0.02035288
0.05024998
0.007207551
0.046337
-0.003364018
0.0430654
-0.002518541
0.03936999
0.006705449
0.0333972
0.01758679
0.02038448
0.03687247
0.006001589
0.06924752
-0.002925735
0.06135872
-0.005718615
0.01639274
-0.002718657
-0.01909049
0.001449363
-0.0274693
0.004986203
-0.02201154
0.006606058
-0.01475589
0.006465189
-0.01104702
0.006803373
-0.01358091
0.006232967
-0.006530797
0.004110042
0.006573781
0.002471298
0.01245678
0.002642783
0.004837943
0.002943135
-0.0001360401
0.002455502
0.002880885
0.001393097
0.003341606
0.0007593514
0.001602707
5.583131e-05
0.0006496867
-0.0008418509
0.0007799645
-0.001310395
0.0005058339
-0.00129941
-0.001376275
0.0002683428
-0.005006326
0.003659037
-0.01058534
0.007743322
-0.01424942
0.01170629
-0.01549421
0.0155
-0.01574354
0.01900214
-0.01489193
0.02202738
-0.01305459
0.02432088
-0.01011983
0.02595701
-0.007260397
-0.00292196
0.03192969
-0.03240768
0.002522568
0.0304957
0.009684693
0.02867849
0.01877709
0.02772056
0.0323139
0.02093395
0.05439198
0.002865751
0.06218181
-0.01191769
0.04588594
-0.01622995
0.01552992
-0.01627848
-0.01094611
-0.01591617
-0.006131062
-0.01425004
-0.004829486
-0.01223118
-0.0118629
-0.00932606
-0.01690856
-0.005038912
-0.02343168
0.001664092
-0.03301908
0.01072288
-0.04065593
0.01803713
-0.03235006
0.02082392
-0.01475608
0.01830014
0.007788898
0.01221164
0.02612527
0.003640398
0.03956956
-0.006342886
0.04984986
-0.02013219
0.04445051
-0.03464195
0.0281969
-0.04387844
0.02152442
-0.04855136
0.01458894
-0.05241581
0.00877935
-0.05605354
-0.002549884
-0.06049117
-0.01469559
-0.06536302
-0.01691854
-0.07002111
0.00818093
-0.0707312
0.04299549
-0.06564695
0.05262526
-0.06217132
0.03063165
-0.06378264
0.01618368
-0.06537931
0.01425435
-0.0659173
0.01275812
-0.06609766
0.01011151
-0.06641681
0.006921078
-0.06691984
0.004687566
-0.06724661
0.002735316
-0.06735512
0.001447479
-0.06756773
0.0009445462
-0.06729884
-0.0003687754
-0.06720804
-0.0003637843
-0.06662578
-0.002556534
-0.06594503
-0.00292718
-0.06528963
-0.003160118
-0.06425881
-0.004121931
-0.06349589
-0.003754402
-0.06237128
-0.004921638
-0.0612556
-0.00521983
-0.05985837
-0.006237999
-0.05837598
-0.006572383
-0.05697542
-0.006520294
-0.05537483
-0.007406507
-0.05360667
-0.007803963
-0.05193581
-0.007676533
-0.05006619
-0.00868705
-0.04810247
-0.009038997
-0.04600839
-0.009444885
-0.04390027
-0.009527588
-0.04192681
-0.009518285
-0.0394938
-0.01073331
-0.03733009
-0.01020136
-0.03483995
-0.0110868
-0.03246192
-0.01116542
-0.03000739
-0.01126605
-0.02747765
-0.01140002
-0.02495892
-0.01178665
-0.02235509
-0.0118868
-0.01971612
-0.01202303
-0.0171304
-0.01205428
-0.01434018
-0.01228901
-0.01184815
-0.01168374
-0.009053733
-0.01247188
-0.00631376
-0.01237678
-0.003657191
-0.01233095
-0.0008823084
-0.01310393
0.001905765
-0.01295971
0.004617658
-0.01253511
0.007274431
-0.01231258
0.009966813
-0.01222007
0.01260258
-0.01199055
0.01520325
-0.01194572
0.01771057
-0.01161079
0.02041192
-0.01201753
0.02289385
-0.01146522
0.02529949
-0.01099984
0.02772595
-0.01111257
0.03011215
-0.01087141
0.03242948
-0.01052638