/*--------------------------------*- C++ -*----------------------------------*\
| =========                 |                                                 |
| \\      /  F ield         | OpenFOAM: The Open Source CFD Toolbox           |
|  \\    /   O peration     | Version:  2406                                  |
|   \\  /    A nd           | Website:  www.openfoam.com                      |
|    \\/     M anipulation  |                                                 |
\*---------------------------------------------------------------------------*/
FoamFile
{
    version     2.0;
    format      ascii;
    arch        "LSB;label=32;scalar=64";
    class       surfaceScalarField;
    location    "0.18";
    object      phi;
}
// * * * * * * * * * * * * * * * * * * * * * * * * * * * * * * * * * * * * * //

dimensions      [0 3 -1 0 0 0 0];

oriented        oriented;

internalField   nonuniform List<scalar> 
6770
(
4.584521e-11
-1.752386e-09
1.706541e-09
-1.466404e-09
3.355061e-10
1.130898e-09
-1.469671e-09
1.374623e-09
9.504824e-11
1.68758e-09
-1.016486e-09
-6.710941e-10
7.517051e-09
-6.756296e-09
-7.607554e-10
6.19612e-10
8.57411e-10
-1.477023e-09
-1.123675e-09
1.635034e-09
-5.113593e-10
-1.269411e-09
1.227694e-09
4.171763e-11
-8.813351e-10
-8.268223e-10
1.708157e-09
-1.17942e-09
1.227956e-09
-4.85359e-11
2.56103e-10
-1.294277e-09
1.038174e-09
7.28665e-10
-1.667957e-09
9.392924e-10
1.373868e-09
-1.402142e-09
2.827363e-11
1.112087e-09
-1.644238e-09
5.321515e-10
-1.985268e-10
1.774746e-09
1.825026e-09
-4.895993e-09
3.070967e-09
4.465414e-10
1.368445e-09
-1.814986e-09
-2.323207e-09
5.753187e-10
1.747888e-09
-1.318723e-09
9.835325e-10
3.351901e-10
-6.36349e-10
-1.171405e-09
1.807754e-09
-7.321583e-10
-1.107008e-09
1.839166e-09
5.44993e-10
-1.508603e-09
9.636102e-10
8.737824e-10
-1.804625e-09
9.308425e-10
1.515577e-09
-1.115363e-09
-4.002143e-10
-1.198399e-09
8.972326e-10
3.01166e-10
-1.304264e-09
-3.368414e-10
1.641105e-09
1.211218e-09
4.122331e-10
-1.623451e-09
7.707623e-10
9.676878e-10
-1.73845e-09
-1.58926e-09
8.729439e-10
1.24552e-10
-1.032484e-09
9.079315e-10
3.52389e-10
-1.396751e-09
1.044362e-09
1.887347e-09
-1.549171e-09
-3.381761e-10
1.487324e-09
-2.683449e-10
-1.218979e-09
-1.848047e-10
1.705708e-09
-1.520903e-09
-2.072841e-09
2.005476e-09
6.736559e-11
-6.551453e-09
5.014339e-09
1.537114e-09
8.765094e-10
-1.7147e-09
8.381908e-10
-2.042976e-09
1.409764e-09
6.33212e-10
-1.009217e-09
2.169393e-09
-1.160176e-09
3.086025e-09
-2.679023e-09
-4.070027e-10
1.598599e-09
-1.51266e-09
-8.593882e-11
1.737983e-09
-7.55364e-10
-9.826195e-10
-1.98691e-09
1.637161e-09
3.497493e-10
-1.591773e-09
1.005229e-09
5.865436e-10
-1.271867e-09
8.642625e-10
4.076048e-10
-1.989358e-09
1.638345e-09
3.510127e-10
-1.218917e-09
8.250653e-10
3.938517e-10
-7.89109e-10
-8.269248e-10
1.616034e-09
-5.593983e-10
-1.434855e-09
1.994253e-09
-1.592846e-09
-5.268881e-10
2.119734e-09
5.669455e-10
9.42924e-10
-1.50987e-09
-1.183255e-09
3.276976e-10
8.555578e-10
-5.87568e-09
2.709727e-10
5.604707e-09
-1.180025e-09
-4.550754e-10
1.6351e-09
1.602027e-09
7.822555e-10
-2.384282e-09
-1.453724e-09
1.005777e-09
4.479465e-10
1.49307e-09
-2.911342e-10
-1.201936e-09
-1.592882e-09
1.161175e-09
4.317074e-10
3.843248e-10
1.430922e-09
-1.815247e-09
-5.154349e-10
-2.297667e-09
2.813102e-09
-1.503191e-09
1.442525e-09
6.066608e-11
-1.177689e-09
3.351702e-10
8.425189e-10
4.012783e-10
1.293465e-09
-1.694744e-09
-3.287491e-10
-1.442263e-09
1.771012e-09
-1.664642e-09
1.859388e-09
-1.676992e-09
1.022572e-09
6.544199e-10
2.738776e-11
-1.748336e-09
1.720948e-09
1.03866e-09
-1.750002e-09
7.113423e-10
-1.922924e-11
-1.462202e-09
1.481431e-09
-1.486931e-09
9.446698e-10
5.422611e-10
-6.56858e-10
-1.003331e-09
1.660189e-09
2.19057e-09
-9.556322e-10
-1.234938e-09
1.158914e-09
6.337431e-10
-1.792657e-09
-9.1727e-10
-8.289133e-10
1.746183e-09
-3.934978e-10
1.908806e-09
-1.515308e-09
5.486178e-10
1.820946e-09
-2.369563e-09
-1.062715e-09
1.570883e-09
-5.081674e-10
-1.699228e-09
3.776626e-10
1.321566e-09
1.861783e-09
-4.60656e-10
-1.401127e-09
-2.272258e-10
3.330381e-09
-3.103155e-09
-4.652501e-09
8.088723e-09
-3.436222e-09
-1.278333e-09
-3.133901e-09
4.412233e-09
-2.034068e-09
1.443361e-09
5.907075e-10
-5.794717e-10
1.797065e-09
-1.217593e-09
-1.707197e-09
1.522392e-09
-1.077663e-09
-7.171181e-10
1.794781e-09
7.113485e-10
1.28963e-09
-2.000979e-09
-1.414475e-09
5.829609e-10
8.315139e-10
-1.587292e-10
-1.213093e-09
1.371822e-09
-1.717584e-09
3.778118e-10
1.339772e-09
-9.394071e-10
-1.132096e-09
2.071503e-09
7.248204e-10
-1.626325e-09
9.015047e-10
-1.208943e-09
-4.482816e-10
1.657225e-09
1.517236e-09
-3.181995e-10
-1.199037e-09
1.002192e-09
5.450102e-10
-1.547202e-09
1.186184e-09
-3.752766e-10
-8.10907e-10
8.075073e-10
-1.667388e-09
8.598804e-10
-1.286777e-09
1.173234e-09
1.135426e-10
6.956712e-10
-1.551661e-09
9.87881e-10
8.213348e-10
-1.809216e-09
-6.424825e-10
1.523475e-09
-8.809924e-10
-9.899148e-10
1.732359e-09
-7.42444e-10
1.649768e-09
-3.977764e-10
-1.251991e-09
-1.779297e-09
1.140113e-09
6.39184e-10
1.552105e-09
-1.230506e-09
-3.215992e-10
1.224803e-09
-1.020377e-09
-2.04426e-10
-1.342231e-09
1.219686e-09
1.22545e-10
2.087922e-09
-1.534304e-09
-5.53618e-10
9.768606e-10
-1.408518e-09
4.316575e-10
6.176832e-09
-9.637358e-10
-5.213096e-09
1.760392e-09
-4.498941e-10
-1.310498e-09
1.58583e-09
-5.184656e-10
-1.067365e-09
-8.832394e-10
1.455431e-09
-5.721914e-10
1.689897e-09
-1.261879e-09
-4.280176e-10
1.021703e-09
9.057872e-10
-1.92749e-09
1.043964e-09
6.94019e-10
-1.572719e-10
-4.42361e-09
4.580882e-09
-2.359934e-11
-1.376253e-09
1.399853e-09
-1.543147e-09
5.360159e-10
1.007131e-09
-1.306141e-09
1.083992e-09
2.221489e-10
9.239077e-10
1.686095e-09
-2.610002e-09
-7.040304e-10
1.730743e-09
-1.026712e-09
-1.547419e-09
1.68207e-09
-1.346509e-10
1.822735e-09
-1.247622e-09
-5.751129e-10
8.178534e-10
1.053447e-09
-1.871301e-09
-3.761137e-10
1.703719e-09
-1.327605e-09
5.805218e-10
-1.917236e-09
1.336714e-09
-1.266457e-09
1.634091e-09
-3.676338e-10
1.950525e-09
-9.483337e-10
-1.945005e-09
1.454665e-09
4.903396e-10
1.011908e-09
8.668778e-10
-1.878785e-09
-7.915942e-10
-5.186118e-10
1.310206e-09
1.537647e-09
-3.128441e-10
-5.502607e-10
-8.223558e-10
1.372616e-09
1.56371e-09
-4.569484e-10
-1.106762e-09
1.988226e-09
-9.541164e-10
-1.034109e-09
1.227567e-09
5.065576e-10
-1.734125e-09
-1.661476e-09
1.420622e-09
2.408542e-10
4.427264e-09
8.923386e-10
-5.319603e-09
1.530704e-09
-1.444542e-09
-8.616176e-11
-1.582119e-09
9.793927e-10
6.02726e-10
1.201525e-09
-4.922269e-09
3.720743e-09
-1.553028e-09
3.134692e-10
1.239559e-09
1.132117e-09
7.947544e-10
9.099514e-10
7.05861e-10
-1.615812e-09
1.702736e-09
-1.431896e-09
-2.708397e-10
7.084832e-10
-1.367238e-09
6.58755e-10
5.685977e-10
-1.37197e-09
8.033723e-10
1.838678e-09
-1.490323e-09
-3.483543e-10
-7.654399e-09
1.778719e-09
2.173921e-10
1.077369e-09
-1.294761e-09
-1.15777e-09
7.60892e-10
3.968781e-10
6.04587e-10
9.712323e-10
-1.575819e-09
7.278534e-10
8.879269e-10
-1.61578e-09
1.545269e-09
-9.696355e-10
-5.756338e-10
-6.973871e-11
2.641804e-09
-2.572066e-09
-1.70005e-09
9.073443e-10
7.92706e-10
-8.762889e-10
1.867559e-09
-9.912704e-10
1.514822e-09
4.131543e-10
-1.927976e-09
-1.578059e-09
-2.848123e-10
1.862871e-09
1.137955e-09
-1.787178e-09
6.49223e-10
-1.866151e-09
2.414768e-09
1.213451e-09
-1.029255e-09
-1.841958e-10
4.468947e-10
-1.53266e-09
1.085766e-09
-2.477585e-10
1.533318e-09
-1.285559e-09
-1.708762e-09
2.550383e-10
-1.551513e-09
2.64165e-10
1.287348e-09
3.65288e-10
-1.743759e-09
1.378471e-09
-1.727679e-09
7.11989e-10
1.01569e-09
-6.237245e-10
2.42895e-09
-1.805226e-09
-1.94537e-09
1.213212e-09
1.419893e-09
-3.430133e-11
-1.385592e-09
7.807863e-10
7.93469e-10
-1.574255e-09
2.776095e-10
-1.626173e-09
1.348563e-09
-8.426487e-10
1.827032e-09
-9.843831e-10
-5.079087e-10
2.022731e-09
1.206011e-09
-1.58325e-09
3.772388e-10
9.022126e-11
-1.63764e-09
-2.216763e-11
1.312904e-09
-1.290736e-09
-1.479288e-09
6.823153e-10
7.969727e-10
1.364676e-09
-1.589535e-09
2.248589e-10
1.849669e-10
-1.651175e-09
1.466208e-09
-9.578719e-10
1.666355e-09
2.74808e-09
-1.362844e-09
6.817618e-10
6.810827e-10
2.031766e-10
8.301098e-10
-1.033286e-09
1.127544e-09
-1.494063e-09
3.66519e-10
4.00613e-10
1.274886e-09
-1.675499e-09
-1.240891e-09
1.905922e-09
-6.650309e-10
1.023951e-09
-1.175047e-09
1.510959e-10
1.499664e-09
-5.095455e-10
-9.901186e-10
1.164236e-09
4.96455e-10
-1.660691e-09
-1.671267e-09
1.148933e-09
5.223339e-10
3.51375e-10
-1.328786e-09
9.774113e-10
-1.641651e-09
1.032399e-09
6.09252e-10
-2.70509e-10
-1.208779e-09
-1.809907e-09
1.313139e-09
4.967677e-10
-7.748393e-10
1.76272e-09
-1.726356e-09
1.102632e-09
1.07181e-09
7.136232e-10
-1.785433e-09
6.463584e-10
-2.036116e-09
1.389757e-09
-8.166939e-10
-1.063663e-09
1.880356e-09
-1.6292e-09
5.121392e-10
1.117061e-09
1.425572e-10
-1.171569e-09
1.029012e-09
9.98845e-10
1.862552e-10
-1.1851e-09
-1.905249e-10
1.554805e-09
-1.36428e-09
1.573911e-09
-1.359653e-09
-2.14258e-10
1.986887e-09
-9.119159e-10
-1.074971e-09
3.059431e-10
1.371166e-09
-1.677109e-09
8.795497e-10
8.910302e-10
-1.77058e-09
-1.11555e-09
-5.557008e-10
1.671251e-09
5.31218e-10
-1.300033e-09
7.688149e-10
1.767115e-09
-7.275309e-10
-1.039584e-09
9.729325e-10
4.945575e-10
-1.46749e-09
1.858469e-10
9.731764e-10
-1.159023e-09
1.374267e-09
6.126198e-10
-4.74568e-10
-1.227361e-09
1.701929e-09
-1.292436e-09
-2.589508e-10
1.551386e-09
1.537387e-09
-5.181594e-10
-1.019228e-09
8.405757e-10
-1.923341e-09
1.082765e-09
-1.397063e-09
3.431973e-10
1.053865e-09
1.121997e-09
-1.626409e-09
5.044123e-10
1.159784e-11
-1.862085e-09
1.850487e-09
3.126449e-09
-1.524422e-09
1.411031e-09
-1.182278e-09
-2.287532e-10
-1.59285e-09
9.982857e-10
5.945648e-10
-9.358203e-10
1.131269e-09
-1.954488e-10
1.421927e-10
-1.370898e-09
1.228705e-09
9.180934e-10
-1.768782e-09
8.506887e-10
-1.561235e-09
-5.30936e-10
2.092171e-09
-1.321399e-09
-1.450044e-10
-1.739242e-09
9.706322e-10
7.686101e-10
8.285051e-10
9.844821e-10
-1.812987e-09
1.435124e-09
-2.156207e-09
7.210835e-10
-1.062313e-09
1.605802e-09
-5.434889e-10
1.759757e-09
-5.321891e-10
-1.782032e-09
2.972318e-10
1.4848e-09
-1.083736e-09
1.929683e-09
-8.459467e-10
-8.051751e-10
-1.073511e-09
1.878687e-09
-1.248452e-09
2.222343e-09
-9.738908e-10
-1.793868e-09
1.995962e-09
-1.2252e-09
-1.224828e-09
1.729722e-09
-5.048943e-10
-1.226712e-09
3.69043e-10
8.576687e-10
1.819009e-09
-1.326292e-09
-4.927169e-10
2.021028e-09
-1.554396e-09
-4.666323e-10
1.743832e-09
-6.148525e-10
-1.128979e-09
-1.232249e-09
-4.168936e-10
1.649142e-09
1.152615e-09
3.847724e-10
1.529336e-09
2.377796e-10
1.580014e-09
-9.278905e-10
-6.521239e-10
8.558557e-10
-1.852918e-09
9.970627e-10
1.482139e-09
6.045267e-11
-1.542592e-09
-8.879205e-10
-5.685387e-10
1.456459e-09
1.42371e-09
-1.047646e-09
-3.760638e-10
-1.229544e-09
-4.828222e-10
1.712366e-09
1.952473e-10
-1.222012e-09
1.026765e-09
-1.669584e-09
1.711446e-09
-4.186248e-11
-1.094971e-09
-6.988973e-10
-9.014068e-10
-3.749695e-10
1.276376e-09
-1.948734e-09
8.864379e-10
1.062296e-09
1.874453e-09
-1.439368e-09
-4.350845e-10
1.033843e-09
9.521563e-10
-1.985999e-09
-1.652467e-09
3.674669e-10
1.285e-09
1.735928e-09
-2.784047e-10
-1.457523e-09
6.804708e-10
1.26771e-09
-1.416848e-09
1.491372e-10
-1.441847e-09
-3.297951e-10
1.771643e-09
1.209031e-09
9.119653e-10
-2.120997e-09
-2.10796e-09
9.47918e-10
1.160042e-09
-8.085853e-10
1.599821e-09
-7.912355e-10
8.227674e-10
-1.133955e-09
3.111875e-10
-1.922193e-10
-1.49989e-09
1.692109e-09
-4.758647e-09
3.480315e-09
1.846435e-09
-5.104536e-09
3.2581e-09
-1.731667e-09
1.276719e-09
4.549474e-10
-1.74586e-09
1.486872e-09
2.589883e-10
1.394659e-09
-2.585969e-11
-1.3688e-09
-1.708659e-09
1.395548e-09
3.131109e-10
-2.89235e-09
-1.109833e-10
3.003334e-09
-5.211366e-10
1.93163e-09
-1.410493e-09
1.356326e-09
-2.368885e-09
1.012559e-09
-5.955973e-12
1.394155e-09
-1.388199e-09
-1.367305e-09
-4.783457e-10
1.845651e-09
-1.498245e-09
1.797384e-09
-2.991395e-10
2.347459e-09
-1.252258e-09
-1.095201e-09
-1.61406e-09
4.485048e-10
1.165555e-09
-1.584385e-09
8.920714e-10
6.923138e-10
2.913797e-10
1.451654e-09
-1.743034e-09
-1.658432e-09
1.001574e-09
1.388611e-09
1.11471e-10
-1.500082e-09
1.565756e-09
-8.140103e-10
-7.517458e-10
-1.776731e-10
1.203346e-09
-1.025672e-09
-7.375065e-10
-1.051195e-09
1.788702e-09
-1.860829e-09
6.900567e-10
1.170773e-09
1.255317e-09
4.577978e-11
-1.301097e-09
1.093497e-09
1.22709e-09
-2.320588e-09
1.11121e-09
1.116692e-09
-1.380157e-09
2.634656e-10
2.650024e-09
-7.191161e-09
4.541137e-09
1.827945e-09
5.996337e-11
-1.887909e-09
-1.478293e-09
9.527302e-10
5.255631e-10
1.669983e-09
-8.277425e-10
-8.42241e-10
1.028488e-09
-1.182771e-09
1.542836e-10
-4.967404e-09
-2.686995e-09
-6.373626e-10
1.484074e-09
-8.467118e-10
1.733265e-09
-8.567558e-10
-1.816453e-09
-9.673044e-11
1.913184e-09
1.671475e-10
1.483981e-09
-1.651128e-09
1.068087e-09
-1.528914e-10
-9.151953e-10
-8.804289e-10
-5.267047e-10
1.407134e-09
-1.594967e-09
-1.356096e-09
2.951063e-09
-1.044345e-09
-8.659455e-10
1.91029e-09
9.903272e-10
-1.690749e-09
7.004218e-10
-1.584869e-11
-1.300863e-09
1.316711e-09
-5.129016e-10
-1.179703e-09
1.692605e-09
-6.74923e-10
1.796552e-09
-1.121629e-09
1.641087e-09
-2.650305e-09
1.597568e-09
-1.773324e-09
1.757563e-10
1.397426e-09
-2.151384e-09
7.539585e-10
7.825114e-10
2.556766e-10
-1.038188e-09
2.112842e-09
6.352378e-10
-3.545018e-10
-1.622672e-09
1.977174e-09
2.607722e-10
-1.783999e-09
1.523227e-09
-7.837668e-10
-8.00417e-10
1.584184e-09
1.602666e-09
-1.626265e-09
-2.807984e-10
1.4762e-09
-1.195401e-09
3.844426e-11
-1.502991e-09
1.464547e-09
-1.201892e-09
-4.981581e-10
-8.352772e-10
1.093647e-09
-2.583699e-10
1.547051e-09
-1.893783e-09
3.467313e-10
2.746611e-09
-2.721761e-09
-2.485026e-11
1.478822e-09
-1.125394e-09
-3.534278e-10
-1.504545e-09
1.127265e-09
3.772806e-10
1.745584e-09
-1.237755e-09
4.010027e-10
1.344581e-09
1.096064e-09
-1.547683e-09
4.51619e-10
1.021464e-09
-1.166304e-09
1.448399e-10
-6.552889e-10
8.607412e-10
8.714516e-10
-1.732193e-09
1.030836e-09
-1.172734e-09
1.418983e-10
-1.351394e-09
1.57975e-09
-2.283558e-10
1.436625e-09
-2.723882e-10
-1.859951e-09
7.949068e-10
1.065044e-09
1.937825e-09
-2.359567e-10
-1.701868e-09
-1.093246e-12
1.232964e-09
-1.231871e-09
-1.437125e-10
1.309143e-09
-1.165431e-09
-1.502777e-09
-8.491762e-11
1.587694e-09
-1.404176e-09
1.531087e-09
-1.269108e-10
-1.41266e-09
1.04357e-09
3.690901e-10
1.175602e-09
-1.029591e-09
-1.460108e-10
1.927866e-09
-1.586087e-09
-3.417796e-10
-1.389732e-09
1.870824e-10
1.20265e-09
1.839469e-09
-1.170619e-09
-6.688491e-10
-8.996537e-10
-1.966651e-09
2.674225e-10
-6.099626e-10
-1.072817e-09
1.682779e-09
-8.441312e-10
1.082514e-09
-2.383829e-10
1.637496e-09
-1.990797e-09
3.533007e-10
-1.23288e-09
2.140224e-09
1.746279e-09
-9.535726e-10
-1.233545e-09
-3.969434e-10
1.630488e-09
-3.453331e-10
-9.265341e-10
7.969353e-10
2.441233e-09
-3.238168e-09
-1.113376e-09
1.693898e-09
2.132313e-09
-1.512264e-09
-6.200488e-10
8.900284e-10
8.667168e-10
-1.756745e-09
1.787703e-09
-1.451437e-10
-1.642559e-09
-6.61337e-11
-1.344828e-09
1.410961e-09
-1.055953e-09
-5.670915e-10
1.623045e-09
1.015707e-10
1.629325e-09
-1.730896e-09
-1.472754e-09
1.831344e-09
-3.585904e-10
1.116179e-09
6.045364e-10
-1.720715e-09
-5.189957e-10
1.319582e-09
-8.005868e-10
-1.790581e-09
1.533365e-09
2.572153e-10
-1.222622e-09
1.288123e-09
-6.550123e-11
-4.712832e-10
-7.724329e-10
1.243716e-09
2.022815e-09
-1.341515e-09
-6.812998e-10
-4.982751e-10
-7.380487e-10
1.236324e-09
-2.969083e-11
1.114796e-09
-1.085106e-09
1.357572e-09
-1.439983e-09
8.241047e-11
1.447623e-09
2.220025e-10
-1.669625e-09
4.953695e-10
7.474457e-10
-1.242815e-09
-4.877262e-10
-8.514705e-10
1.339197e-09
-8.596006e-10
1.581607e-09
-7.220065e-10
1.360363e-09
-1.741793e-10
-6.485275e-10
2.0709e-09
-1.422372e-09
8.07378e-10
6.658577e-10
-1.473236e-09
1.869451e-09
-1.004479e-09
-8.649723e-10
-4.330778e-10
-1.224875e-09
1.657952e-09
-8.873584e-10
1.575716e-09
-6.883575e-10
2.397943e-09
-6.355687e-10
-1.762374e-09
1.882304e-09
-1.135469e-09
-7.468351e-10
1.434698e-09
3.27763e-10
-1.762461e-09
-3.087089e-09
-2.309927e-09
5.397016e-09
1.790063e-09
-5.152893e-09
3.362829e-09
-1.277574e-09
-5.044581e-10
1.675444e-09
1.023913e-09
-1.483013e-09
4.590996e-10
1.33691e-09
-1.342855e-09
5.945376e-12
-8.466503e-10
-1.102083e-09
1.656952e-09
-7.92479e-10
-1.728031e-09
2.552769e-10
-9.571703e-10
-4.808706e-10
1.438041e-09
9.150883e-10
1.391206e-09
-2.306294e-09
8.610997e-10
4.369831e-10
-1.298083e-09
1.765176e-09
-5.155957e-10
6.777434e-10
-4.976515e-10
1.497793e-09
-1.000141e-09
4.327062e-10
-1.699164e-09
3.894873e-11
1.491356e-09
-1.530305e-09
-9.397371e-11
1.468303e-09
-1.374329e-09
-6.557922e-09
1.789237e-09
4.768685e-09
-1.216309e-09
1.438913e-09
-2.226043e-10
-1.473266e-09
1.429289e-09
4.397607e-11
1.591402e-09
-5.717369e-10
-1.019665e-09
-1.844883e-09
1.440536e-09
4.043474e-10
7.139418e-10
-1.819691e-09
1.105749e-09
-1.374857e-09
-8.670985e-10
-6.198325e-10
4.231565e-10
-8.822217e-10
4.590652e-10
1.392282e-09
-1.699585e-10
-1.222323e-09
-1.587834e-09
1.416989e-09
1.516216e-09
2.168595e-10
-1.733075e-09
-7.4866e-11
-1.540602e-09
1.266505e-09
-1.628295e-09
3.617907e-10
4.836606e-13
1.544786e-09
-1.638322e-09
-3.510354e-10
-1.795797e-09
-3.553204e-10
2.151118e-09
-1.299425e-09
-1.132356e-10
-9.936635e-10
-1.049313e-09
2.559678e-11
1.525851e-09
-1.551447e-09
1.289565e-09
-1.760848e-09
-1.636903e-09
-3.279435e-10
1.964847e-09
1.892345e-09
-9.252888e-10
-9.670557e-10
-3.430021e-10
-4.605482e-09
4.948484e-09
1.375036e-09
-1.187348e-09
-1.876887e-10
-4.924743e-10
-1.228526e-09
1.721e-09
-1.60568e-09
1.73828e-09
-1.326002e-10
-9.152066e-10
-5.751331e-10
1.49034e-09
-1.653842e-09
1.921481e-10
1.461694e-09
1.45516e-09
-1.40493e-09
-5.023036e-11
6.985328e-10
-1.688448e-09
4.033328e-10
-1.844754e-09
1.441421e-09
1.580025e-09
1.219129e-10
-1.701938e-09
1.757094e-09
-7.502465e-11
8.535891e-10
-2.169991e-09
1.316402e-09
-1.30375e-09
1.358784e-09
-5.503316e-11
-7.793025e-10
1.658852e-09
1.18097e-09
4.687973e-10
1.489327e-09
-1.429644e-10
-1.346362e-09
-4.918932e-09
5.400086e-10
4.378923e-09
-1.103269e-09
1.648279e-09
1.757012e-10
-1.784211e-09
1.60851e-09
5.043821e-11
1.404722e-09
-1.110938e-09
-6.882702e-10
1.799208e-09
5.413957e-10
1.263709e-09
1.771524e-09
-1.305198e-09
-4.663266e-10
1.942414e-09
-9.414592e-10
-1.000955e-09
-2.11572e-09
-1.922061e-10
2.307926e-09
-1.006943e-09
-3.962083e-10
1.403151e-09
1.525371e-09
-1.677991e-10
-4.651308e-10
1.621167e-09
-1.156037e-09
8.210939e-10
9.474654e-10
-1.768559e-09
1.191879e-09
-1.750256e-09
5.583765e-10
1.126779e-09
4.338171e-10
-1.560596e-09
-1.404203e-09
8.917396e-10
5.124636e-10
1.159523e-09
1.358717e-09
1.554944e-11
-1.733979e-09
6.917835e-10
1.042196e-09
6.724765e-10
-2.084122e-09
1.411646e-09
4.793854e-10
-1.586393e-09
5.424317e-10
8.498499e-10
3.305505e-10
-1.771586e-09
7.119684e-10
-2.773326e-09
2.061358e-09
-1.442387e-09
-1.155618e-09
-4.168547e-10
1.572473e-09
-7.061358e-11
1.444482e-09
2.396804e-10
1.40225e-09
-1.64193e-09
-1.285093e-09
-4.997114e-10
1.784805e-09
-1.620158e-11
1.270396e-09
-1.254194e-09
1.297494e-09
-7.986122e-10
-4.988813e-10
1.879836e-09
-1.743845e-09
-1.359915e-10
3.40848e-09
3.214821e-10
-3.729962e-09
-1.676333e-09
-2.68672e-10
-3.160601e-09
2.508384e-09
6.522172e-10
-1.599083e-09
1.878062e-10
1.411276e-09
1.342569e-09
-1.807699e-09
-1.275367e-09
9.445172e-11
-1.575464e-09
1.481013e-09
1.497815e-09
-1.628195e-09
1.303798e-10
1.492619e-09
-3.899301e-10
-1.102689e-09
1.335514e-09
-1.436895e-09
1.013812e-10
-1.24626e-09
-4.233235e-10
3.615674e-10
-1.35633e-09
9.947624e-10
5.512199e-10
-1.704043e-09
1.152823e-09
-2.774722e-10
1.534618e-09
-1.257146e-09
-8.242225e-11
1.288434e-09
1.429435e-09
-4.068633e-10
-1.063424e-09
1.160348e-09
-9.69232e-11
-1.270898e-09
1.019807e-09
2.510919e-10
-1.509654e-09
5.019465e-10
1.007707e-09
-1.031646e-09
1.173878e-09
-1.422321e-10
-1.070447e-09
-1.543806e-10
1.518173e-09
-3.906293e-10
-1.139825e-09
1.63628e-09
1.510392e-09
-3.377932e-10
-1.172598e-09
-9.86818e-10
-6.738733e-10
-2.227994e-10
1.156133e-09
-9.333337e-10
-1.031865e-09
-8.04606e-10
1.836471e-09
-1.178885e-09
1.036724e-09
1.421614e-10
-1.411769e-10
1.172013e-09
-1.515574e-09
8.426683e-10
6.729056e-10
1.546586e-09
-1.390604e-09
-1.559821e-10
4.032543e-10
1.041679e-09
-1.444934e-09
5.114733e-10
-1.920323e-09
1.40885e-09
-4.267277e-09
6.113712e-09
-8.145261e-10
1.905656e-09
-1.09113e-09
-3.106541e-09
1.24039e-09
-2.209469e-09
1.084233e-09
1.125235e-09
-8.570821e-10
3.462554e-09
-2.605472e-09
4.439967e-10
8.826531e-10
-1.32665e-09
1.761531e-09
-8.170599e-10
1.762758e-09
-9.456984e-10
1.839756e-09
-1.288536e-09
-1.30521e-09
-3.17926e-10
1.623136e-09
-1.569701e-09
1.99046e-09
-4.207589e-10
5.181746e-09
-3.65094e-10
-4.816652e-09
-1.841956e-09
2.550238e-11
2.034058e-09
-1.058399e-09
-2.016776e-09
1.260111e-09
-7.879093e-10
-8.212453e-10
1.609155e-09
1.992224e-09
-1.866536e-09
-1.256874e-10
1.515771e-09
-5.590917e-10
-9.566795e-10
1.796171e-10
1.215042e-09
1.460602e-09
1.630432e-10
-1.623645e-09
1.069124e-09
4.049046e-10
-1.474028e-09
-8.765369e-10
-9.140436e-10
4.038763e-10
-1.593094e-09
1.189218e-09
-5.809644e-10
1.73268e-09
-1.151716e-09
-2.000639e-09
-2.876433e-09
4.877072e-09
-1.658521e-09
8.025889e-10
8.55932e-10
-1.583443e-09
8.041406e-10
-6.580315e-10
1.739667e-09
-1.081636e-09
-6.060767e-10
3.679271e-09
-3.073194e-09
-1.537652e-09
-5.168657e-10
2.054518e-09
1.986037e-09
2.217954e-09
-7.828307e-10
-8.264351e-10
1.644288e-09
-7.276002e-10
1.857749e-09
-1.130149e-09
9.406729e-10
3.962368e-10
1.281097e-09
3.794978e-10
-1.660595e-09
1.341766e-09
3.723325e-10
-1.714099e-09
-1.3439e-09
1.641131e-09
1.552823e-09
5.396053e-10
-2.092428e-09
8.260649e-10
-1.81754e-09
9.914755e-10
-1.835478e-09
1.268559e-09
5.66919e-10
-1.172808e-09
-1.312311e-09
2.485119e-09
1.775965e-09
-2.358394e-09
5.824292e-10
4.402948e-10
-1.769983e-09
1.329688e-09
2.193739e-09
-8.844418e-10
-1.309297e-09
-5.312275e-10
-1.375998e-09
1.907226e-09
-4.533904e-10
-9.487512e-10
-8.652918e-10
-7.522757e-10
-1.00406e-09
-1.063898e-10
1.110449e-09
-9.61956e-10
1.402251e-09
-1.160319e-09
-7.992647e-10
1.959584e-09
1.251163e-09
-4.623397e-10
-1.145531e-09
1.607871e-09
1.697487e-09
-2.627885e-10
-1.010196e-10
-9.059234e-10
-3.599469e-10
-1.209754e-09
2.026697e-10
-1.759483e-09
1.556813e-09
-1.042526e-09
-7.71631e-10
1.814157e-09
8.028998e-09
-8.028998e-09
-2.339595e-10
1.402338e-09
-1.168379e-09
-6.575319e-10
1.3842e-09
-7.266677e-10
2.86259e-10
-1.77042e-09
1.484161e-09
-1.037446e-09
-8.797901e-10
1.609265e-09
-5.774218e-10
-1.031844e-09
-1.17903e-09
-2.608802e-10
1.43991e-09
4.752987e-10
1.704753e-09
-1.29328e-09
-4.114733e-10
-1.032951e-09
1.60009e-09
-1.619616e-09
5.014963e-10
1.11812e-09
1.145829e-09
7.329416e-10
-1.87877e-09
-1.038053e-09
1.550932e-09
-5.128789e-10
-1.092577e-09
2.208756e-09
1.86701e-09
-1.453855e-09
-1.464842e-09
1.442675e-09
-4.330801e-10
-7.395861e-10
1.172666e-09
-6.837504e-09
1.624204e-09
5.213301e-09
9.51925e-10
6.303823e-10
-1.582307e-09
7.995106e-10
-1.255128e-09
4.556178e-10
-1.797846e-09
9.090291e-10
8.888167e-10
8.107795e-10
-1.377138e-09
5.66359e-10
-1.478553e-09
5.232709e-10
9.552825e-10
1.024084e-11
1.540552e-09
-1.550793e-09
-1.035782e-09
2.183369e-09
-1.147587e-09
4.712083e-10
9.421984e-10
7.631338e-11
-1.018512e-09
-4.55163e-10
1.349107e-09
-8.93944e-10
-9.434631e-10
1.36662e-09
-9.494955e-10
2.027819e-09
-1.078324e-09
8.036176e-09
-6.368025e-09
-1.668152e-09
-1.115028e-09
-1.041179e-09
-4.79193e-10
-1.620517e-09
2.09971e-09
-7.520711e-10
-8.74254e-10
-1.374552e-09
1.022004e-10
1.272352e-09
1.796836e-09
-1.173927e-09
-6.229082e-10
1.334709e-09
-1.421918e-09
8.720927e-11
1.509928e-09
-1.220874e-09
1.670469e-09
-4.49595e-10
8.001544e-10
-1.54212e-09
3.200036e-10
1.222116e-09
-1.752575e-09
9.011155e-10
8.514591e-10
1.380125e-09
-5.048164e-09
4.900731e-09
1.474327e-10
-1.456502e-09
1.807864e-09
-1.512817e-09
-2.95047e-10
6.652035e-10
1.064802e-09
-1.730006e-09
1.406772e-09
-1.498742e-09
9.19705e-11
-1.644426e-09
8.032684e-10
8.411571e-10
1.493468e-09
-3.433415e-10
-1.150127e-09
-1.587255e-10
-1.123019e-09
1.281745e-09
-3.058211e-09
6.917188e-09
-3.858977e-09
2.239339e-09
2.151918e-09
-4.391257e-09
-2.046733e-09
8.73925e-10
1.027545e-09
9.244393e-10
-1.951985e-09
-1.49724e-09
1.216441e-09
-1.870925e-09
5.891226e-10
1.281803e-09
1.794606e-09
-8.228145e-10
-9.71792e-10
-1.042253e-09
1.076882e-09
-3.462854e-11
-1.717806e-09
2.638018e-10
-1.091268e-09
1.378606e-09
-2.873378e-10
1.810768e-09
-8.119235e-10
1.46574e-09
2.317464e-10
-1.644552e-09
-4.004009e-10
2.044953e-09
5.620814e-10
-1.568476e-09
1.006395e-09
9.277409e-10
1.044544e-09
-1.972285e-09
-1.681088e-09
4.22587e-11
1.63883e-09
7.512403e-10
-2.310535e-09
1.559294e-09
8.279387e-10
6.717254e-10
1.285346e-09
-3.024442e-10
-9.829018e-10
1.982073e-09
-1.74209e-10
-3.304324e-10
1.374739e-09
-1.044307e-09
-1.690196e-09
1.15436e-09
-1.829283e-09
4.041329e-10
1.352961e-09
-1.813337e-09
1.405619e-09
4.077179e-10
-1.871527e-09
2.269744e-10
1.426925e-09
2.669867e-10
-1.693912e-09
1.487202e-09
3.452913e-10
-1.832493e-09
-2.020045e-09
1.619644e-09
4.15008e-10
-2.010061e-09
1.595053e-09
-8.111485e-10
-6.674049e-10
-1.201643e-09
1.042914e-09
-1.10999e-09
-3.750211e-10
1.485011e-09
-1.398757e-09
1.80289e-09
-1.759685e-09
7.274769e-10
1.032209e-09
-9.750246e-10
1.434529e-09
-4.59504e-10
-1.128246e-09
-4.28832e-10
1.557078e-09
-1.232529e-10
1.582443e-09
-1.45919e-09
-1.300453e-09
1.275448e-09
4.633924e-10
-1.738841e-09
-1.585608e-09
1.599493e-09
-1.388536e-11
-5.013461e-10
2.612601e-09
-2.111255e-09
1.835868e-09
-6.935045e-10
-1.142364e-09
3.906149e-09
-4.133375e-09
-1.728026e-09
1.649788e-09
7.82379e-11
1.988062e-09
-1.042813e-09
-9.452486e-10
-1.186872e-09
9.963469e-10
2.038256e-10
1.350979e-09
-4.076953e-09
3.470876e-09
-1.690455e-09
1.333185e-09
3.572699e-10
1.433255e-09
-4.925819e-10
-1.060716e-09
-1.183744e-09
2.24446e-09
-1.16174e-09
1.849825e-09
-6.880856e-10
-2.605652e-09
5.180084e-10
2.087643e-09
1.301992e-09
-2.015308e-09
7.13316e-10
6.055571e-10
8.417313e-10
-1.447288e-09
-7.477794e-10
-4.319136e-10
1.179693e-09
3.571127e-10
1.192597e-09
-1.54971e-09
1.118112e-09
-1.552281e-09
4.341689e-10
-3.662631e-10
-1.287579e-09
1.918357e-09
-1.387117e-12
-1.91697e-09
-1.908154e-09
4.187965e-10
1.269797e-09
-1.688594e-09
1.517571e-09
-1.150104e-09
-1.282312e-09
-2.689648e-10
1.551277e-09
7.544154e-10
8.113407e-10
3.419512e-10
-1.61434e-09
1.272389e-09
-1.728266e-09
6.12716e-10
1.3494e-09
-1.42331e-09
7.390925e-11
1.799832e-09
-7.661852e-10
-1.033647e-09
-1.331827e-09
3.780632e-10
9.53764e-10
-1.758391e-09
9.937487e-10
7.646427e-10
1.367394e-09
-1.559613e-09
-1.511204e-09
9.239533e-10
5.87251e-10
-1.726019e-10
2.045146e-09
-1.872544e-09
-8.203397e-10
1.772265e-09
1.314128e-09
-5.854634e-10
8.78646e-10
-1.870585e-09
9.919391e-10
-6.498278e-10
-4.186025e-10
1.06843e-09
-1.45091e-09
9.641232e-10
4.867872e-10
-7.674907e-10
-1.027851e-09
1.892114e-09
-6.349283e-10
1.556696e-09
-9.217681e-10
1.307699e-09
1.901162e-10
1.227667e-09
6.120887e-10
-7.010646e-10
-1.013636e-09
-6.26541e-10
1.43997e-09
-8.134285e-10
-7.020787e-10
1.417204e-09
-7.151248e-10
9.353767e-10
-1.852647e-09
-4.877509e-11
1.116862e-09
-5.084656e-10
1.895164e-09
-1.386698e-09
-1.168339e-09
5.040521e-10
-8.894306e-10
1.481662e-09
-5.922317e-10
-1.003071e-09
1.730924e-09
-1.957753e-09
1.694964e-09
1.313686e-09
-1.814612e-09
5.009263e-10
1.475299e-09
-1.534996e-09
5.969751e-11
1.355984e-09
1.33343e-10
-8.299715e-10
-7.131758e-10
-1.333489e-09
5.283134e-10
4.167999e-10
1.076668e-09
-5.415149e-10
-1.416238e-09
1.528867e-09
-1.762826e-09
-1.152405e-09
1.189538e-09
-3.713272e-11
4.001199e-09
-3.277123e-09
-7.24076e-10
-1.626544e-09
1.213444e-09
4.131e-10
1.304802e-09
-1.475869e-09
1.710667e-10
-1.25386e-09
-4.365945e-10
-1.413103e-09
2.84857e-10
1.892109e-09
-1.319519e-09
-5.725901e-10
3.510082e-09
7.717465e-10
-4.281828e-09
1.076352e-09
4.03397e-11
5.850531e-10
-1.556349e-09
-5.401396e-10
1.07631e-09
-1.108849e-09
4.517329e-09
-1.275193e-09
-5.381435e-10
-2.240647e-09
3.523063e-10
1.88834e-09
-1.271887e-09
2.678278e-10
-1.28192e-09
1.372142e-09
1.422825e-09
7.796472e-10
-2.202472e-09
-3.582595e-10
4.264892e-10
1.926948e-09
-2.353437e-09
-7.443453e-10
-7.983615e-10
-2.52219e-09
3.320552e-09
-1.256108e-09
1.005707e-09
2.504011e-10
-1.812528e-09
6.653903e-10
1.147137e-09
2.061794e-10
-1.86847e-09
6.200176e-10
4.97375e-10
1.299084e-09
-1.796459e-09
1.429261e-09
-1.028648e-09
-8.577481e-10
-9.777297e-10
-6.095158e-10
1.018319e-09
-4.088033e-10
1.990672e-09
-1.155104e-09
-1.069563e-09
2.224667e-09
-1.576657e-09
-1.750467e-10
1.751703e-09
-1.348527e-09
3.835962e-10
9.64931e-10
1.991457e-09
-1.640381e-09
-3.510757e-10
1.262692e-09
6.296522e-10
1.727295e-09
-6.578115e-10
-1.069483e-09
1.021792e-09
-2.205747e-09
1.183954e-09
8.080369e-10
-5.769812e-10
-1.037078e-09
1.862904e-09
-1.331247e-09
-5.316575e-10
-1.721287e-10
1.396809e-09
-1.22468e-09
-5.523507e-09
8.173532e-09
-6.398869e-10
1.227635e-09
-5.877485e-10
-1.325127e-09
4.997107e-11
1.275155e-09
-1.153909e-09
1.445289e-09
1.749196e-09
-1.335105e-09
-4.140909e-10
-1.820936e-09
1.009788e-09
-1.91589e-09
8.321537e-10
-9.028427e-10
-1.062042e-09
1.879506e-09
-8.174634e-10
-1.128445e-09
1.940964e-09
-8.125192e-10
5.718014e-09
-4.516489e-09
2.584113e-09
6.107469e-10
-1.585771e-09
-6.695922e-10
-9.477403e-10
1.394395e-09
-1.299435e-09
-9.495981e-11
1.230751e-09
-3.909494e-10
-8.398019e-10
9.16773e-10
9.526781e-10
-2.317001e-11
1.580505e-09
-1.557335e-09
-8.610526e-10
1.024746e-09
-1.636939e-10
1.553536e-09
-1.30626e-09
-2.47276e-10
4.674463e-10
-1.437082e-09
-1.229731e-09
1.432541e-09
-2.028095e-10
1.112559e-09
-1.479468e-09
1.373791e-09
1.056773e-10
9.436386e-11
1.375016e-09
-1.46938e-09
1.278693e-09
-1.776968e-09
3.819495e-09
-3.18881e-10
-3.500614e-09
-2.238283e-09
-9.223181e-10
-1.449652e-09
-5.489303e-11
-7.604761e-10
-1.133201e-09
1.893677e-09
1.048358e-09
-1.340727e-09
2.92369e-10
-1.325917e-09
2.901948e-10
1.035723e-09
-2.305063e-10
-1.592597e-09
1.823103e-09
-1.785726e-09
1.642761e-09
8.438026e-10
1.08588e-09
7.213215e-10
1.146238e-09
6.845261e-11