/*--------------------------------*- C++ -*----------------------------------*\
| =========                 |                                                 |
| \\      /  F ield         | OpenFOAM: The Open Source CFD Toolbox           |
|  \\    /   O peration     | Version:  2406                                  |
|   \\  /    A nd           | Website:  www.openfoam.com                      |
|    \\/     M anipulation  |                                                 |
\*---------------------------------------------------------------------------*/
FoamFile
{
    version     2.0;
    format      ascii;
    arch        "LSB;label=32;scalar=64";
    class       surfaceScalarField;
    location    "0.92";
    object      phi;
}
// * * * * * * * * * * * * * * * * * * * * * * * * * * * * * * * * * * * * * //

dimensions      [0 3 -1 0 0 0 0];

oriented        oriented;

internalField   nonuniform List<scalar> 
23794
(
-0.002500215
0.002953627
-0.0004534125
-0.001897871
-0.000602344
-0.001124328
-0.000773543
-0.0001600988
-0.0009642291
0.0006570469
-0.0008171457
0.001267238
-0.0006101908
0.0006321428
0.0006350949
-0.0008433887
0.001475532
-0.001395907
0.0005525184
-0.001572987
0.0001770798
-0.001564648
-8.339284e-06
-0.001801743
0.0002370956
-0.001846596
4.485262e-05
-0.001768549
-7.80473e-05
-0.001622583
-0.0001459651
-0.001258317
-0.0003642665
-0.001470548
0.0002122313
-0.002970363
0.001499815
-0.004160376
0.001190013
-0.003732061
-0.0004283145
-0.002407671
-0.001324391
-0.0007474209
-0.00166025
0.001134832
-0.001882253
0.003102188
-0.001967356
0.005042956
-0.001940768
0.007485586
-0.00244263
0.008328695
-0.000843109
0.00371627
0.004612425
-0.005152267
0.008868538
-0.004819166
-0.0003331012
-0.001179499
-0.003639667
0.001311389
-0.002490888
0.003276986
-0.001965597
0.006372558
-0.003095572
0.00937812
-0.003005562
0.007679436
0.001698684
0.002074842
0.005604594
-0.0001958598
0.002270702
-0.001560492
0.001364633
-0.006031675
0.004471183
-0.01007035
0.004038677
-0.01238795
0.002317601
-0.01358976
0.001201811
-0.01428062
0.0006908543
-0.01472292
0.0004422984
-0.01492603
0.0002031176
-0.01500221
7.617202e-05
-0.01500106
-1.145092e-06
-0.01493707
-6.399618e-05
-0.01485397
-8.309075e-05
-0.01470902
-0.0001449594
-0.01452076
-0.000188259
-0.01427237
-0.0002483878
-0.01399834
-0.0002740262
-0.0137054
-0.000292946
-0.0133573
-0.0003481005
-0.01298842
-0.000368877
-0.01261024
-0.0003781823
-0.01216713
-0.0004431037
-0.01170056
-0.0004665696
-0.01120812
-0.0004924398
-0.01070829
-0.0004998301
-0.01018678
-0.0005215088
-0.00961505
-0.0005717345
-0.009050599
-0.0005644509
-0.008444096
-0.0006065035
-0.007819256
-0.0006248398
-0.007188006
-0.0006312505
-0.006547411
-0.0006405945
-0.005875138
-0.0006722737
-0.005200177
-0.0006749609
-0.004516279
-0.0006838978
-0.003817861
-0.0006984177
-0.00311892
-0.0006989412
-0.002439781
-0.0006791392
-0.00172262
-0.0007171605
-0.001030664
-0.000691956
-0.0003745531
-0.0006561111
0.0002993249
-0.000673878
0.001101104
-0.0008017787
0.00186813
-0.0007670259
0.0026106
-0.0007424709
0.003336075
-0.0007254746
0.004040125
-0.0007040501
0.00474097
-0.0007008445
0.005419345
-0.0006783749
0.006108954
-0.0006896092
0.006778007
-0.0006690533
0.007411484
-0.0006334771
0.008049362
-0.0006378783
0.008674711
-0.0006253488
0.009276949
-0.0006022375
0.009876
-0.0005990516
0.0104615
-0.0005854969
0.01099193
-0.0005304325
0.01151832
-0.0005263922
0.01202976
-0.0005114339
0.01249981
-0.0004700524
0.01297101
-0.0004711976
0.01338966
-0.0004186534
0.01378116
-0.0003915023
0.01413353
-0.0003523699
0.01444276
-0.0003092317
0.01474832
-0.000305557
0.01501652
-0.0002682014
0.0152458
-0.0002292836
0.01543273
-0.0001869203
0.01557753
-0.0001448089
0.01569308
-0.0001155418
0.01574674
-5.366533e-05
0.01577649
-2.974667e-05
0.01572349
5.299456e-05
0.01549537
0.0002281258
0.0151175
0.000377869
0.01456959
0.0005479092
0.01372263
0.0008469612
0.01218588
0.001536747
0.009138049
0.003047832
0.004108541
0.005029508
-0.0004704008
0.004578942
-0.003510098
0.003039697
-0.006909944
0.003399846
-0.007622358
0.0007124149
-0.004886853
-0.002735505
-0.001311967
-0.003574887
0.003589013
-0.004900979
0.006335922
-0.002746909
-0.002087475
0.008423397
-0.01173986
0.009652385
-0.01306878
0.001328916
-0.01010519
-0.002963584
-0.007214628
-0.002890565
-0.00531229
-0.001902338
-0.004079769
-0.001232521
-0.002495131
-0.001584638
0.0003904224
-0.002885554
0.003424656
-0.003034234
0.003816908
-0.0003922519
0.00249786
0.001319048
0.0004997524
0.001998107
-0.001146834
0.001646587
-0.00223716
0.001090326
-0.002826811
0.0005896511
-0.002741708
-8.5103e-05
-0.002070699
-0.0006710092
-0.0005538302
-0.001516869
0.00186193
-0.00241576
0.002857686
-0.0009957564
0.0002920916
0.002565594
-0.001040631
0.001332723
0.0003067581
-0.001347389
-4.360066e-05
0.0003503588
-0.001650319
0.001606718
-0.002756164
0.001105845
-0.003181264
0.0004250998
-0.003188271
7.006956e-06
-0.0002346438
-0.004055113
0.004408542
-0.0008068411
-0.003573278
-0.00108418
-0.002903676
-0.001443145
-0.001980985
-0.001886919
-0.001086896
-0.001711235
-0.0005187161
-0.001178371
-0.001282721
0.001399099
-0.002312998
0.002505808
-0.002241098
0.0004806193
-0.002254462
0.0001904433
-0.002174982
-8.78188e-05
-0.002354295
0.0004164082
-0.002303913
-5.529584e-06
-0.002100959
-0.0002810014
-0.001800248
-0.0004466755
-0.001717967
-0.0004465477
-0.003139548
0.001633812
-0.005472668
0.003832935
-0.006069634
0.001786979
-0.004920055
-0.001577894
-0.002986632
-0.003257814
-0.0005393871
-0.004107495
0.001900929
-0.004322569
0.004211424
-0.004277851
0.00630562
-0.004034964
0.00890899
-0.005046
0.01056294
-0.002497055
0.006648656
0.008526705
-0.0049718
0.02048899
-0.007337205
0.002032304
-0.003906451
-0.007070422
-0.002365943
-0.004031395
-0.001113204
-0.003218337
0.00140527
-0.005614045
0.004942636
-0.006542928
0.006243893
0.0003974268
0.002486657
0.00936183
-0.005263287
0.01002065
-0.0132381
0.00933945
-0.01847653
0.009709605
-0.02092353
0.006485683
-0.02153725
0.00293132
-0.021668
0.00133256
-0.0216673
0.0006901573
-0.0216093
0.0003842974
-0.02143526
2.908062e-05
-0.0212422
-0.00011689
-0.02104481
-0.00019854
-0.02080167
-0.0003071372
-0.02053763
-0.0003471293
-0.02021092
-0.0004716718
-0.01984166
-0.0005575116
-0.01940785
-0.0006822036
-0.01894729
-0.0007345848
-0.01847373
-0.0007665021
-0.0179408
-0.0008810277
-0.01738279
-0.000926891
-0.01681955
-0.0009414247
-0.01618183
-0.001080822
-0.01552178
-0.001126617
-0.01483195
-0.001182272
-0.0141331
-0.00119868
-0.01341499
-0.001239619
-0.01263732
-0.001349406
-0.01186946
-0.001332308
-0.01105796
-0.001418007
-0.01022299
-0.00145981
-0.009383871
-0.001470368
-0.00853826
-0.001486205
-0.00765407
-0.001556463
-0.006765866
-0.001563165
-0.005869871
-0.001579893
-0.004958004
-0.001610285
-0.004048075
-0.00160887
-0.003159312
-0.001567902
-0.002231909
-0.001644563
-0.001333301
-0.001590564
-0.0004738286
-0.001515583
0.0004058918
-0.001553598
0.001432558
-0.001828445
0.002423352
-0.00175782
0.003386548
-0.001705667
0.004327523
-0.001666449
0.005246192
-0.001622719
0.006162822
-0.001617475
0.007053668
-0.00156922
0.007957733
-0.001593675
0.008839028
-0.001550348
0.009677197
-0.001471646
0.01052298
-0.001483658
0.01135853
-0.001460901
0.01216525
-0.001408957
0.01296933
-0.001403136
0.01376201
-0.00137817
0.01449009
-0.00125852
0.01521786
-0.001254157
0.015929
-0.001222579
0.01659403
-0.00113508
0.01726252
-0.001139685
0.01786935
-0.001025487
0.01845319
-0.0009753407
0.01899315
-0.0008923258
0.01948578
-0.0008018678
0.01998136
-0.0008011338
0.02043712
-0.0007239585
0.02085023
-0.0006423925
0.02122012
-0.0005568188
0.0215465
-0.0004711837
0.02184485
-0.0004138978
0.02207983
-0.000288645
0.02231227
-0.0002621837
0.0225212
-0.000155936
0.02264027
0.0001090618
0.02271369
0.0003044426
0.02275047
0.0005111285
0.02271368
0.0008837518
0.02246272
0.001787709
0.02130848
0.004202075
0.01737489
0.008963092
0.009089472
0.01286436
-0.0008735657
0.01300273
-0.003871142
0.006397421
-0.001337456
-0.00182127
0.0007576378
-0.004830599
0.002569171
-0.00538642
0.005709229
-0.008041037
0.005015239
-0.00205292
-0.00693334
0.02037198
-0.01487957
0.01759861
-0.01395106
0.0004004102
-0.01083662
-0.006078024
-0.007657943
-0.006069241
-0.005590927
-0.003969354
-0.004240824
-0.002582624
-0.002525988
-0.003299474
0.0006329613
-0.006044503
0.004742745
-0.007144018
0.006146421
-0.001795927
0.003616829
0.00384864
-0.0001278492
0.005742785
-0.002330091
0.003848828
-0.003536258
0.002296493
-0.004229072
0.001282465
-0.004075135
-0.00023904
-0.003148903
-0.00159724
-0.001249397
-0.003416375
0.001205321
-0.004870478
0.003223171
-0.003013607
0.00168048
0.004108286
-0.0004276457
0.003440848
-0.001054058
-0.0007209771
-0.002640904
0.001937204
-0.004092211
0.003058025
-0.004600117
0.001613752
-0.004635159
0.0004601422
-0.004575449
-5.270283e-05
-0.0004015514
-0.005827853
0.00592757
-0.000906558
-0.005530923
-0.001381109
-0.005006108
-0.00196796
-0.004284616
-0.002608412
-0.003643278
-0.002352573
-0.003181356
-0.001640293
-0.003161741
0.001379484
-0.002983826
0.002327893
-0.002511243
8.036111e-06
-0.002586849
0.00026605
-0.002396542
-0.000278126
-0.002574235
0.0005941007
-0.002506267
-7.349698e-05
-0.002321234
-0.0004660347
-0.002071212
-0.0006966974
-0.002346533
-0.0001712273
-0.00434325
0.003630529
-0.006606244
0.006095929
-0.006553331
0.001734066
-0.004891582
-0.003239643
-0.002548467
-0.005600929
0.000234338
-0.0068903
0.002839782
-0.006928013
0.005148684
-0.006586754
0.00710086
-0.005987141
0.009860538
-0.007805677
0.01131756
-0.003954075
0.00848605
0.01135821
-0.003203746
0.03217879
-0.009211325
0.008039883
-0.008786654
-0.007495093
-0.009253878
-0.003564171
-0.00899856
-0.003473655
-0.006617026
-0.00799558
-0.002900199
-0.01025976
0.001155165
-0.003657937
-0.002798937
0.01331593
-0.01530994
0.02253165
-0.02357743
0.01760694
-0.02545039
0.01158256
-0.0253832
0.006418492
-0.02529394
0.002842064
-0.0253957
0.001434318
-0.02547373
0.0007681907
-0.02550743
0.0004179984
-0.02538309
-9.525963e-05
-0.02520295
-0.0002970359
-0.02498708
-0.0004144095
-0.02470809
-0.0005861265
-0.02440841
-0.0006468044
-0.02403036
-0.0008497298
-0.02360267
-0.0009852022
-0.02309605
-0.001188821
-0.02255712
-0.001273509
-0.02200395
-0.001319675
-0.02137644
-0.001508541
-0.02071883
-0.001584502
-0.02005643
-0.001603818
-0.01930182
-0.001835431
-0.01852059
-0.001907854
-0.01770322
-0.001999639
-0.01687466
-0.00202724
-0.01602293
-0.002091343
-0.01509748
-0.002274857
-0.01418523
-0.002244558
-0.01321779
-0.002385454
-0.01222233
-0.002455263
-0.01122106
-0.002471647
-0.01021139
-0.002495868
-0.009154716
-0.00261314
-0.008092655
-0.002625227
-0.007019931
-0.002652616
-0.005928087
-0.002702129
-0.004836713
-0.002700244
-0.003768586
-0.002636029
-0.002655212
-0.002757938
-0.00157488
-0.002670896
-0.0005401831
-0.00255028
0.0005141215
-0.002607903
0.001732607
-0.00304693
0.002913541
-0.002938753
0.004063337
-0.002855464
0.00518598
-0.002789092
0.00628256
-0.002719299
0.007376509
-0.002711423
0.008438922
-0.002631634
0.009517144
-0.002671896
0.0105671
-0.0026003
0.01156528
-0.002469831
0.01257252
-0.002490893
0.01356636
-0.002454747
0.01452527
-0.002367863
0.01548104
-0.002358908
0.01642227
-0.002319406
0.01728518
-0.002121429
0.01814821
-0.002117183
0.01899039
-0.002064755
0.0197758
-0.001920489
0.02056715
-0.001931044
0.02128205
-0.00174038
0.02197025
-0.001663544
0.02260461
-0.001526689
0.02318023
-0.00137748
0.0237607
-0.001381607
0.02429143
-0.001254692
0.0247718
-0.001122764
0.02519915
-0.0009841633
0.02557426
-0.000846299
0.02591578
-0.0007554147
0.02618116
-0.0005540271
0.0264402
-0.0005212162
0.02664105
-0.0003567866
0.02669948
5.062782e-05
0.02669155
0.0003123694
0.02664329
0.0005593888
0.02656623
0.0009608157
0.02649304
0.001860897
0.02669123
0.004003892
0.0263782
0.009276119
0.02201522
0.01722734
0.01363045
0.0213875
0.008499449
0.01152842
0.009077836
-0.002399656
0.01113619
-0.006888949
0.0109243
-0.005174536
0.009169408
-0.006286145
0.002727846
0.004388643
-0.008969543
0.03206937
-0.01486834
0.02349741
-0.013663
-0.0008049297
-0.009877762
-0.009863261
-0.006411608
-0.009535395
-0.004486461
-0.005894502
-0.003309519
-0.003759565
-0.001705584
-0.004903409
0.001283855
-0.009033942
0.005714112
-0.01157427
0.007174935
-0.003256751
0.00354872
0.007474855
-0.0008650064
0.01015651
-0.003301018
0.00628484
-0.005000772
0.003996247
-0.005934115
0.002215808
-0.005629615
-0.0005435404
-0.00440909
-0.002817765
-0.00229145
-0.005534016
0.0003074774
-0.007469405
0.002926791
-0.00563292
0.002455889
0.004579187
-0.0002490927
0.00614583
-0.002946108
0.001976039
-0.004863895
0.003854991
-0.005400152
0.003594282
-0.005468962
0.001682562
-0.005644582
0.000635762
-0.005825332
0.0001280475
-0.0002993139
-0.00733509
0.007425076
-0.0009965447
-0.006938063
-0.001778137
-0.006300766
-0.002605256
-0.005549124
-0.003360054
-0.005015888
-0.002885808
-0.004527866
-0.002128315
-0.003950266
0.0008018837
-0.003278546
0.001656174
-0.002710051
-0.0005604583
-0.002808808
0.0003648063
-0.002571145
-0.0005157883
-0.002762968
0.000785923
-0.002650591
-0.0001858734
-0.00253661
-0.0005800165
-0.002461032
-0.0007722745
-0.003106468
0.0004742079
-0.005355516
0.005879578
-0.007399486
0.008139899
-0.006999194
0.001333774
-0.004975907
-0.005262929
-0.002239143
-0.008337692
0.0008240871
-0.00995353
0.003484765
-0.00958869
0.005620775
-0.008722764
0.007374557
-0.007740923
0.01044803
-0.01087915
0.0121095
-0.005615543
0.01012386
0.01334385
-0.001439026
0.04374168
-0.01132913
0.01792999
-0.01509192
-0.003732311
-0.01780566
-0.0008504293
-0.01850602
-0.002773292
-0.01679778
-0.00970382
-0.01285815
-0.01419938
-0.01089994
-0.005616148
-0.01687146
0.01928745
-0.02671391
0.03237411
-0.03053149
0.02142451
-0.03016975
0.01122083
-0.03014003
0.006388772
-0.03047145
0.00317348
-0.03074455
0.001707413
-0.03087521
0.0008988556
-0.03091381
0.0004565946
-0.0307374
-0.0002716669
-0.03049149
-0.0005429427
-0.03020606
-0.0006998445
-0.02984616
-0.0009460204
-0.02946465
-0.00102832
-0.02899188
-0.001322499
-0.02846176
-0.001515325
-0.02783814
-0.001812441
-0.02717634
-0.001935311
-0.02649906
-0.001996951
-0.02573502
-0.002272579
-0.02493513
-0.00238439
-0.02413023
-0.002408719
-0.02321848
-0.002747184
-0.02227296
-0.002853372
-0.02128535
-0.002987249
-0.02028577
-0.003026825
-0.01925982
-0.003117289
-0.01814409
-0.003390587
-0.01704705
-0.003341601
-0.0158827
-0.003549795
-0.01468642
-0.003651552
-0.01348222
-0.003675846
-0.01226871
-0.003709372
-0.01099899
-0.003882866
-0.009722783
-0.003901431
-0.008433221
-0.003942178
-0.007122117
-0.004013233
-0.005808354
-0.004014007
-0.004521838
-0.003922544
-0.003178381
-0.004101395
-0.001871473
-0.003977804
-0.0006168749
-0.003804879
0.0006519966
-0.003876775
0.002101174
-0.004496108
0.003510611
-0.00434819
0.004888016
-0.00423287
0.006231705
-0.004132781
0.007543714
-0.004031307
0.008852645
-0.004020355
0.01012397
-0.003902961
0.01141721
-0.003965132
0.01267443
-0.003857524
0.01387289
-0.00366829
0.01508376
-0.003701767
0.01627678
-0.003647763
0.01743134
-0.00352242
0.01858416
-0.003511734
0.01971668
-0.003451922
0.02075888
-0.003163634
0.02180218
-0.003160482
0.02281937
-0.003081939
0.02377081
-0.002871929
0.02473019
-0.002890427
0.02559878
-0.002608974
0.02643552
-0.002500284
0.02720889
-0.002300055
0.02791528
-0.002083874
0.02862762
-0.00209394
0.02928032
-0.001907397
0.02987583
-0.001718274
0.03040681
-0.001515142
0.03087875
-0.001318242
0.03131313
-0.001189791
0.03165669
-0.0008975918
0.03199468
-0.0008591996
0.0322676
-0.0006297103
0.03236366
-4.543418e-05
0.0323632
0.0003128286
0.03229367
0.0006289181
0.032127
0.001127494
0.03180029
0.002187606
0.03151839
0.004285785
0.03204684
0.00874767
0.03208038
0.0171938
0.02962754
0.02384035
0.02673115
0.01442482
0.02546882
-0.001137328
0.02489276
-0.006312889
0.02213414
-0.002415922
0.01513008
0.0007179165
0.002867797
0.01665093
-0.008446324
0.04338349
-0.01353642
0.02858751
-0.01284451
-0.001496838
-0.008057478
-0.0146503
-0.003712687
-0.01388019
-0.001777258
-0.007829931
-0.001002155
-0.004534668
0.0001566847
-0.006062249
0.002470937
-0.01134819
0.006605427
-0.01570876
0.007441133
-0.004092457
0.002922196
0.01199379
-0.001817534
0.01489624
-0.004706779
0.009174084
-0.006841759
0.006131228
-0.007751166
0.003125215
-0.007221631
-0.001073076
-0.005863775
-0.004175621
-0.003684218
-0.007713572
-0.0007869272
-0.0103667
0.001902375
-0.008322222
0.00214901
0.004332552
-0.001094023
0.009388864
-0.004955728
0.005837743
-0.006413198
0.005312462
-0.006434028
0.003615111
-0.006581452
0.001829986
-0.006905444
0.000959754
-0.007197565
0.0004201687
-7.180263e-05
-0.008390254
0.008656876
-0.001263166
-0.007794016
-0.002374374
-0.006972615
-0.003426657
-0.006036704
-0.004295965
-0.005436521
-0.003485991
-0.004788832
-0.002776005
-0.003966447
-2.050123e-05
-0.003222049
0.0009117761
-0.002531808
-0.0012507
-0.002673413
0.0005064109
-0.002517994
-0.0006712067
-0.002894231
0.00116216
-0.002721273
-0.0003588316
-0.002703342
-0.0005979472
-0.002941376
-0.0005342403
-0.003980079
0.001512911
-0.006368843
0.008268342
-0.008286464
0.01005752
-0.007808974
0.0008562844
-0.005518062
-0.007553841
-0.002347378
-0.01150838
0.000966903
-0.01326781
0.003555903
-0.01217769
0.005398597
-0.01056546
0.007014958
-0.009357284
0.01052273
-0.01438692
0.01251449
-0.007607305
0.01091003
0.01494831
-0.0009654863
0.05561719
-0.01437194
0.03133645
-0.02258579
0.004481532
-0.02729119
0.003854974
-0.02931935
-0.0007451342
-0.02973913
-0.00928404
-0.02919786
-0.01474065
-0.0302367
-0.004577314
-0.03365966
0.02271042
-0.03627842
0.03499287
-0.03588219
0.02102828
-0.03546077
0.01079941
-0.03587417
0.006802173
-0.03627373
0.003573042
-0.03659027
0.002023955
-0.03675174
0.001060322
-0.0368375
0.0005423535
-0.0366513
-0.0004578718
-0.036386
-0.0008082335
-0.03607114
-0.001014712
-0.03565133
-0.001365823
-0.03522289
-0.001456763
-0.0346679
-0.00187749
-0.03405023
-0.002132996
-0.03331282
-0.002549851
-0.03253045
-0.002717683
-0.0317328
-0.002794597
-0.03082292
-0.003182455
-0.02987072
-0.003336594
-0.02891603
-0.003363404
-0.02782951
-0.003833704
-0.02669924
-0.003983651
-0.02551942
-0.004167063
-0.02432752
-0.004218727
-0.02310375
-0.004341055
-0.02176577
-0.004728571
-0.02045742
-0.004649949
-0.01906208
-0.004945134
-0.01763167
-0.005081968
-0.01618944
-0.00511807
-0.01473789
-0.005160928
-0.01321508
-0.005405675
-0.01168433
-0.005432183
-0.01013467
-0.005491836
-0.008562287
-0.005585616
-0.00698301
-0.005593284
-0.005436772
-0.005468782
-0.003814881
-0.005723286
-0.002231109
-0.005561576
-0.0007055993
-0.005330388
0.0008227724
-0.005405146
0.002546449
-0.006219784
0.004228037
-0.006029778
0.005877314
-0.005882147
0.007480705
-0.005736172
0.009045557
-0.00559616
0.01061004
-0.005584839
0.01213014
-0.005423058
0.01368237
-0.005517364
0.01518494
-0.005360095
0.01662368
-0.005107032
0.01807985
-0.005157932
0.01950565
-0.005073564
0.02089049
-0.00490726
0.02227837
-0.004899613
0.02363191
-0.004805459
0.02487953
-0.004411258
0.02613082
-0.004411767
0.02734681
-0.004297931
0.02848059
-0.004005714
0.02962988
-0.004039716
0.03066432
-0.00364341
0.03166015
-0.00349612
0.03257871
-0.003218615
0.03341353
-0.002918685
0.03425877
-0.002939187
0.0350246
-0.002673223
0.03572718
-0.002420853
0.03634502
-0.002132987
0.03689196
-0.001865182
0.03739736
-0.001695193
0.0377793
-0.001279525
0.0381643
-0.001244198
0.03845937
-0.0009247788
0.03854525
-0.000131316
0.03851533
0.0003427503
0.03839806
0.000746184
0.03819316
0.001332396
0.03784052
0.002540243
0.03739382
0.004732489
0.03744385
0.008697633
0.03885536
0.01578229
0.04049846
0.02219725
0.0400604
0.01486287
0.03801718
0.0009058979
0.0355787
-0.003874416
0.03168841
0.00147437
0.0220532
0.01035312
0.006148196
0.03255594
-0.005654855
0.05518654
-0.01050779
0.03344044
-0.01019991
-0.001804715
-0.005045261
-0.01980495
3.252742e-05
-0.01895797
0.002931444
-0.01072885
0.003103346
-0.00470657
0.003079265
-0.006038168
0.004326845
-0.01259577
0.007350663
-0.01873258
0.006905405
-0.003647199
0.001790712
0.01710848
-0.003016888
0.01970384
-0.006434796
0.01259199
-0.008716022
0.008412453
-0.009536722
0.003945915
-0.008877813
-0.001731984
-0.007541312
-0.005512123
-0.005470109
-0.009784775
-0.002467643
-0.01336916
6.593148e-05
-0.0108558
0.001041587
0.003356896
-0.002888139
0.01331859
-0.006959464
0.009909068
-0.00782282
0.006175818
-0.007847939
0.003640231
-0.008115811
0.002097857
-0.008368701
0.001212644
-0.008548151
0.0005996185
3.692179e-05
-0.009221994
0.009793562
-0.001834735
-0.008413611
-0.003182757
-0.007440597
-0.004399671
-0.006277241
-0.005459321
-0.005578864
-0.004184367
-0.004684519
-0.00367035
-0.003640295
-0.001064725
-0.002793898
6.537878e-05
-0.0018682
-0.002176397
-0.00195055
0.0005887603
-0.001854374
-0.0007673822
-0.002648691
0.001956476
-0.002569819
-0.0004377034
-0.002700653
-0.0004671126
-0.003413589
0.0001786957
-0.004841525
0.002940846
-0.007300952
0.01072777
-0.009156093
0.01191266
-0.008731245
0.0004314359
-0.006309534
-0.009975552
-0.00289292
-0.01492499
0.0003371465
-0.01649788
0.002602123
-0.01444267
0.004283353
-0.01224669
0.005922647
-0.01099658
0.009676125
-0.0181404
0.01140372
-0.009334901
0.009743383
0.01660865
-0.002291785
0.06765236
-0.01830942
0.04735409
-0.02963603
0.01580813
-0.03533182
0.009550769
-0.03849674
0.002419789
-0.04098833
-0.006792454
-0.04363723
-0.01209175
-0.04663993
-0.001574611
-0.046857
0.02292748
-0.04405514
0.03219101
-0.042454
0.01942715
-0.0428413
0.01118671
-0.04336753
0.007328396
-0.04380985
0.004015364
-0.04417197
0.002386074
-0.04431267
0.001201025
-0.04437871
0.0006083985
-0.04410992
-0.0007266655
-0.0437773
-0.001140851
-0.04337981
-0.001412208
-0.04284796
-0.001897668
-0.04233143
-0.001973293
-0.04164935
-0.002559573
-0.04090215
-0.002880199
-0.04000637
-0.003445627
-0.03905677
-0.003667279
-0.03809739
-0.003753984
-0.03699638
-0.004283467
-0.03584841
-0.004484558
-0.03470482
-0.004507001
-0.03339843
-0.005140087
-0.03203491
-0.00534718
-0.03061867
-0.005583303
-0.02918812
-0.005649278
-0.02772361
-0.005805565
-0.02611136
-0.006340812
-0.02455076
-0.006210555
-0.02287406
-0.006621827
-0.0211606
-0.006795431
-0.01943356
-0.006845113
-0.01769891
-0.006895579
-0.01587669
-0.007227896
-0.01404771
-0.007261158
-0.01218651
-0.007353037
-0.01030258
-0.007469543
-0.008399215
-0.007496653
-0.006547001
-0.007320997
-0.004593177
-0.00767711
-0.002669124
-0.007485629
-0.0008103702
-0.007189142
0.001033212
-0.007248729
0.003085238
-0.008271811
0.005095005
-0.008039544
0.007058419
-0.007845561
0.008964937
-0.00764269
0.01083212
-0.00746334
0.01270541
-0.007458129
0.01452717
-0.007244823
0.01639808
-0.007388275
0.01819507
-0.007157077
0.01992738
-0.006839344
0.0216867
-0.006917252
0.0233922
-0.006779064
0.02505407
-0.006569132
0.02673602
-0.006581566
0.02835737
-0.006426805
0.02985225
-0.00590614
0.03135926
-0.005918774
0.032821
-0.00575967
0.0341789
-0.005363615
0.03556466
-0.005425482
0.03680973
-0.004888473
0.03800899
-0.004695385
0.03911333
-0.004322957
0.04012206
-0.003927416
0.04114944
-0.003966561
0.04207058
-0.003594367
0.04293077
-0.003281044
0.04367921
-0.002881426
0.04435134
-0.002537316
0.04497518
-0.002319031
0.04545372
-0.001758066
0.04593391
-0.001724381
0.0463039
-0.001294772
0.04644818
-0.0002755931
0.04645239
0.0003385333
0.04635603
0.0008425496
0.04614858
0.001539845
0.04575034
0.002938486
0.04528801
0.005194819
0.04494895
0.009036687
0.04578796
0.01494328
0.04789565
0.02008957
0.04812839
0.01463013
0.04574926
0.003285024
0.04244646
-0.0005716115
0.03888779
0.005033042
0.02994391
0.019297
0.01322893
0.04927092
9.023407e-05
0.06832523
-0.003793378
0.03732405
-0.003463111
-0.002134981
0.001083443
-0.0243515
0.006008168
-0.0238827
0.008897578
-0.01361826
0.008859475
-0.004668467
0.007687755
-0.004866448
0.007022876
-0.01193089
0.007926479
-0.01963619
0.005640269
-0.001360988
0.0002847932
0.02246396
-0.004370727
0.02435936
-0.008177232
0.0163985
-0.01045057
0.0106858
-0.01129098
0.004786318
-0.01059047
-0.002432493
-0.009410648
-0.006691944
-0.007700456
-0.01149497
-0.004993395
-0.01607622
-0.002248838
-0.01360035
-0.001650794
0.002758852
-0.005791961
0.01745976
-0.009178152
0.01329526
-0.00965176
0.006649426
-0.009946076
0.003934546
-0.0102009
0.002352679
-0.01023333
0.001245079
-0.01003369
0.0003999782
-0.000203208
-0.01004102
0.01124324
-0.003036952
-0.008766264
-0.004457511
-0.007510962
-0.005654973
-0.005936192
-0.007034092
-0.005101598
-0.005018961
-0.003908446
-0.004863502
-0.002565019
-0.002408152
-0.001374511
-0.001125129
-0.0005481646
-0.003002744
-0.0007401783
0.0007807741
-0.000368187
-0.001139373
-0.001367758
0.002956047
-0.001832408
2.694668e-05
-0.002309573
1.005245e-05
-0.003599524
0.001468647
-0.005384764
0.004726086
-0.0079251
0.0132681
-0.009714043
0.0137016
-0.009338981
5.637338e-05
-0.007239868
-0.01207467
-0.004293095
-0.01787176
-0.001843067
-0.01894791
-2.883772e-05
-0.0162569
0.002038348
-0.01431387
0.003986864
-0.01294509
0.007325562
-0.0214791
0.007312666
-0.009322004
0.004929511
0.01899181
-0.007357843
0.07993971
-0.02377048
0.06376672
-0.03624874
0.0282864
-0.04192618
0.01522821
-0.04571706
0.006210664
-0.0492847
-0.003224807
-0.05344308
-0.007933372
-0.05728658
0.002268889
-0.05621952
0.02186041
-0.05215576
0.02812725
-0.05100847
0.01827986
-0.05158301
0.01176125
-0.05197776
0.007723151
-0.05243237
0.004469972
-0.05286965
0.002823353
-0.05299897
0.001330347
-0.05315342
0.0007628496
-0.05282574
-0.001054345
-0.05244201
-0.001524589
-0.0519809
-0.001873309
-0.05132237
-0.002556205
-0.05074104
-0.002554624
-0.04990932
-0.003391294
-0.04903183
-0.003757687
-0.04795874
-0.004518714
-0.04681387
-0.00481215
-0.04567642
-0.004891433
-0.04436132
-0.005598566
-0.04298405
-0.005861833
-0.04161169
-0.005879359
-0.0400557
-0.006696071
-0.038423
-0.006979885
-0.03672753
-0.007278771
-0.03499418
-0.007382632
-0.0332664
-0.007533343
-0.03131373
-0.008293483
-0.02945825
-0.008066031
-0.0274357
-0.008644381
-0.02538684
-0.00884429
-0.02332466
-0.008907292
-0.02121975
-0.009000493
-0.01905809
-0.009389547
-0.01688221
-0.009437044
-0.01465475
-0.009580494
-0.01241982
-0.009704471
-0.01009346
-0.009823014
-0.007898868
-0.009515591
-0.005546732
-0.01002925
-0.003204267
-0.009828094
-0.0009361417
-0.009457267
0.001293125
-0.009477995
0.00373741
-0.0107161
0.006140153
-0.01044229
0.008446229
-0.01015164
0.01072205
-0.009918509
0.01296934
-0.009710628
0.01521206
-0.009700857
0.01739678
-0.009429543
0.01966951
-0.009661001
0.02182439
-0.009311953
0.02389968
-0.008914636
0.02601313
-0.009030702
0.02807353
-0.008839469
0.03007112
-0.008566719
0.03207944
-0.008589884
0.03402743
-0.0083748
0.03581371
-0.007692416
0.03761858
-0.007723646
0.03935029
-0.007491383
0.04099247
-0.007005785
0.04265624
-0.007089257
0.04413801
-0.006370242
0.0455879
-0.006145276
0.04689293
-0.005627989
0.04810044
-0.005134922
0.04933724
-0.005203364
0.05041899
-0.004676119
0.05146004
-0.004322091
0.05233145
-0.003752838
0.05313522
-0.00334108
0.05388627
-0.00307008
0.0544296
-0.002301397
0.05500284
-0.002297627
0.05546114
-0.001753072
0.05559799
-0.0004124432
0.05557161
0.0003649192
0.05542981
0.000984343
0.0551878
0.001781864
0.05475222
0.003374061
0.05434824
0.005598801
0.05409893
0.009285998
0.05461681
0.01442539
0.05608405
0.01862233
0.0559181
0.01479608
0.05338779
0.005815334
0.0494485
0.003367675
0.04599679
0.008484749
0.03934502
0.02594878
0.0250293
0.06358664
0.012933
0.08042153
0.006885777
0.04337127
0.007130017
-0.002379221
0.01148822
-0.02870971
0.0152108
-0.02760528
0.01713409
-0.01554154
0.01633019
-0.003864562
0.01389615
-0.002432411
0.0107391
-0.008773841
0.008536524
-0.01743361
0.004134063
0.003041473
-0.001249131
0.02784715
-0.005664245
0.02877448
-0.009643693
0.02037795
-0.01195189
0.012994
-0.01308057
0.005914995
-0.01245598
-0.003057086
-0.01149692
-0.007651003
-0.01037843
-0.01261346
-0.00860585
-0.0178488
-0.006910084
-0.01529612
-0.007446548
0.003295317
-0.01006386
0.02007707
-0.01184106
0.01507246
-0.0122084
0.007016761
-0.01287029
0.004596438
-0.01309128
0.002573671
-0.01290363
0.001057428
-0.01211621
-0.0003874378
-0.001076184
-0.01152428
0.01387344
-0.005386114
-0.009016002
-0.006965789
-0.007018166
-0.007652809
-0.00443157
-0.009620688
-0.002934768
-0.006515764
-0.001367009
-0.006431261
-0.000156413
-0.003618748
0.001707131
-0.002988673
0.002740103
-0.004035717
0.001685092
0.001835786
0.002196775
-0.001651057
0.001208273
0.003944549
6.794782e-05
0.001167272
-0.001165
0.001243
-0.002936936
0.003240583
-0.004777068
0.006566219
-0.007527061
0.0160181
-0.009415359
0.0155899
-0.009194449
-0.0001645372
-0.008272942
-0.01299617
-0.007032604
-0.0191121
-0.00626637
-0.01971414
-0.00482933
-0.01769394
-0.001339595
-0.01780361
0.0008053032
-0.01508999
0.002353081
-0.02302688
-0.001130561
-0.005838363
-0.003566279
0.02142752
-0.01545886
0.0918323
-0.03189586
0.08020372
-0.04364523
0.04003578
-0.04927932
0.0208623
-0.05376582
0.01069717
-0.0578414
0.0008507655
-0.06236487
-0.003409896
-0.06640598
0.006309998
-0.06569665
0.02115108
-0.06245639
0.024887
-0.06174192
0.01756538
-0.0621958
0.01221513
-0.06262305
0.008150399
-0.06304769
0.004894613
-0.06361204
0.003387701
-0.06363027
0.001348572
-0.06377692
0.0009095001
-0.06339437
-0.001436892
-0.06290851
-0.002010447
-0.06241637
-0.002365451
-0.06154081
-0.003431762
-0.06088687
-0.003208567
-0.05987337
-0.00440479
-0.05884815
-0.00478291
-0.05753974
-0.005827123
-0.05613467
-0.006217225
-0.05479395
-0.006232146
-0.05324782
-0.007144694
-0.05153037
-0.007579283
-0.04989214
-0.007517591
-0.04805269
-0.008535521
-0.04611393
-0.008918644
-0.04404207
-0.009350636
-0.04194218
-0.00948252
-0.03996737
-0.009508157
-0.03753664
-0.0107242
-0.03536401
-0.01023867
-0.03286188
-0.01114651
-0.03046761
-0.01123857
-0.02799626
-0.01137863
-0.02543562
-0.01156114
-0.02289046
-0.0119347
-0.02026164
-0.01206587
-0.01758647
-0.01225566
-0.01497108
-0.01231986
-0.01213279
-0.01266131
-0.009576206
-0.01207217
-0.006700931
-0.01290452
-0.003869647
-0.01265938
-0.001101972
-0.01222494
0.001623415
-0.01220338
0.004566164
-0.01365884
0.007332489
-0.01320861