/*--------------------------------*- C++ -*----------------------------------*\
| =========                 |                                                 |
| \\      /  F ield         | OpenFOAM: The Open Source CFD Toolbox           |
|  \\    /   O peration     | Version:  2406                                  |
|   \\  /    A nd           | Website:  www.openfoam.com                      |
|    \\/     M anipulation  |                                                 |
\*---------------------------------------------------------------------------*/
FoamFile
{
    version     2.0;
    format      ascii;
    arch        "LSB;label=32;scalar=64";
    class       volVectorField;
    location    "0.92";
    object      U;
}
// * * * * * * * * * * * * * * * * * * * * * * * * * * * * * * * * * * * * * //

dimensions      [0 1 -1 0 0 0 0];

internalField   nonuniform List<vector> 
15536
(
(0.07351453 -2.829744 -1.659481e-22)
(0.1301874 -2.270891 -4.934537e-19)
(0.1220093 -1.548317 -9.722476e-19)
(0.04454383 -0.6725517 -9.798553e-19)
(-0.08628215 0.2883389 -1.643019e-20)
(-0.2379349 0.946827 8.198711e-21)
(-0.418968 1.55416 1.914447e-20)
(0.1632903 -0.2496159 -1.894611e-20)
(0.5550262 -1.368341 5.325589e-18)
(0.6023165 -1.407456 5.615411e-18)
(0.6781024 -1.464201 0)
(0.8060547 -1.552631 0)
(0.9261368 -1.653817 -4.392828e-20)
(0.9638737 -1.577027 1.099906e-17)
(0.9962321 -1.49465 5.026891e-18)
(0.8620631 -1.227476 -9.207819e-18)
(0.5578292 -0.7391543 4.23445e-18)
(1.503062 -1.666193 3.005029e-20)
(2.823586 -2.925441 -5.620746e-20)
(3.028523 -3.006698 2.694797e-20)
(2.320275 -2.159223 0)
(1.28189 -1.118172 3.624385e-18)
(-0.1342971 0.0570896 0)
(-1.812595 1.243345 6.712567e-18)
(-3.506715 2.282309 -5.909187e-20)
(-5.477127 3.309996 -9.209319e-20)
(-7.039017 4.039459 9.031984e-20)
(-7.092297 4.030588 -1.22202e-17)
(0.5951235 0.2385451 -7.270559e-18)
(7.439621 -3.092933 0)
(3.353888 -1.423097 -1.906048e-20)
(-0.6253601 0.03194292 -3.115589e-18)
(-2.430453 0.5402938 3.833748e-18)
(-4.845707 1.002119 0)
(-7.497164 1.413898 -6.609906e-18)
(-9.756373 1.714523 -3.419154e-20)
(-6.11581 1.099616 4.390504e-18)
(0.3436828 0.09088407 -1.740696e-18)
(0.3261872 -0.1799058 1.711105e-21)
(3.43397 0.2065444 -4.125294e-19)
(8.879765 0.8632786 1.584184e-18)
(11.90813 1.561376 -2.536382e-20)
(13.38831 2.243606 2.483887e-20)
(14.12688 2.944269 0)
(14.50686 3.638833 -6.370144e-18)
(14.65925 4.301895 -6.336011e-18)
(14.6166 4.922929 0)
(14.44727 5.506774 -1.210927e-17)
(14.17743 6.053184 1.180761e-17)
(13.86189 6.576619 1.139933e-17)
(13.48726 7.059038 4.151762e-20)
(13.04969 7.496593 -1.034206e-17)
(12.55772 7.88406 0)
(12.02091 8.223239 0)
(11.44876 8.510592 8.343229e-18)
(10.8396 8.737957 7.643865e-18)
(10.21235 8.916207 5.068267e-20)
(9.573565 9.043494 6.0081e-18)
(8.910426 9.101076 1.051576e-17)
(8.236169 9.097509 4.443464e-18)
(7.559086 9.035819 3.567849e-18)
(6.892787 8.92525 -2.493763e-20)
(6.234235 8.75594 0)
(5.5813 8.521181 1.037568e-18)
(4.947712 8.23767 0)
(4.32933 7.891926 6.84765e-19)
(3.735521 7.489788 -2.987521e-20)
(3.176524 7.041972 -2.983765e-21)
(2.651955 6.54607 1.052139e-20)
(2.166338 6.006427 -3.808491e-18)
(1.725528 5.431497 -1.872753e-20)
(1.33034 4.818641 2.591496e-18)
(0.9825552 4.16969 2.873201e-18)
(0.6876691 3.500264 0)
(0.4453585 2.815627 0)
(0.2590685 2.112568 3.536993e-18)
(0.1259035 1.404454 -2.526687e-22)
(0.04888551 0.722844 9.664017e-19)
(0.02539573 0.05234022 1.784027e-21)
(0.05692295 -0.7071448 -7.446686e-21)
(0.1371041 -1.509482 -1.842909e-18)
(0.2777625 -2.281025 0)
(0.4760396 -3.017093 3.319918e-18)
(0.7283522 -3.72242 0)
(1.033215 -4.39764 -2.803321e-18)
(1.388341 -5.041549 2.477182e-18)
(1.792944 -5.653033 1.827611e-20)
(2.243664 -6.231011 3.673266e-18)
(2.737314 -6.766061 9.94775e-21)
(3.26961 -7.255988 -2.184534e-18)
(3.837951 -7.702838 -1.364755e-18)
(4.4397 -8.100552 7.065254e-21)
(5.07291 -8.451149 3.700849e-19)
(5.727441 -8.750721 -1.259493e-18)
(6.399007 -8.99461 2.025119e-20)
(7.076748 -9.169219 7.03846e-21)
(7.765844 -9.2894 -3.912916e-18)
(8.462008 -9.355451 0)
(9.156357 -9.359148 1.121057e-17)
(9.851602 -9.311689 6.388936e-18)
(10.52764 -9.19856 1.146449e-19)
(11.18084 -9.022428 -8.144391e-18)
(11.80713 -8.786462 0)
(12.40545 -8.494633 0)
(12.97483 -8.155549 0)
(13.50648 -7.767088 0)
(13.99033 -7.330305 1.154182e-17)
(14.42312 -6.849118 1.218517e-17)
(14.80543 -6.328293 3.160011e-20)
(15.13188 -5.775505 -1.309468e-17)
(15.38464 -5.187682 -6.68615e-18)
(15.55696 -4.571339 -6.90894e-18)
(15.59329 -3.921358 5.405387e-20)
(15.4662 -3.242589 7.046972e-18)
(15.15344 -2.546489 3.625256e-18)
(14.58785 -1.84808 -2.799839e-20)
(13.56957 -1.189222 -6.73456e-21)
(11.57836 -0.612 4.413047e-19)
(7.448627 -0.1648798 -8.625779e-19)
(1.472664 0.03913453 -2.209505e-20)
(-2.40863 -0.4359255 1.513747e-20)
(-5.961018 -1.380939 4.411813e-18)
(-8.05997 -1.766947 3.406456e-20)
(-6.143888 -1.289811 0)
(-3.442457 -0.6582726 -5.098594e-18)
(0.7621374 0.6104417 -3.419771e-18)
(7.698881 3.071875 2.519873e-21)
(3.091811 0.835158 8.524508e-18)
(-8.346777 -4.628909 -1.741519e-17)
(-12.04393 -6.511684 0)
(-10.07578 -5.729585 0)
(-7.478427 -4.615009 -8.367066e-18)
(-5.384978 -3.633102 0)
(-4.007117 -2.939007 2.50674e-20)
(-2.743974 -2.119801 -2.58486e-18)
(-0.9929976 -0.7046873 -6.88156e-19)
(1.493947 1.486831 -5.523314e-21)
(3.151396 3.094995 1.303027e-18)
(2.588531 2.70298 5.529397e-21)
(1.003785 1.039692 3.295792e-20)
(-0.2544391 -0.5168601 1.553317e-18)
(-1.01448 -1.583956 3.036492e-18)
(-1.424581 -2.294227 4.04323e-18)
(-1.500321 -2.552665 0)
(-1.226633 -2.23593 -1.823293e-20)
(-0.6879685 -1.251435 -4.361496e-18)
(0.09212118 0.5087919 0)
(1.041497 2.647817 5.052099e-18)
(0.9837332 2.242261 -3.945624e-20)
(-0.4362629 -1.454606 1.959914e-20)
(-0.260552 -0.4476624 2.023478e-18)
(0.1651338 0.9292503 3.045311e-22)
(-0.09570421 -0.9952109 0)
(-0.2437342 -2.50418 1.059347e-18)
(-0.2373056 -3.17623 8.330836e-21)
(-0.1535129 -3.33745 2.064789e-21)
(-0.02780375 -3.188726 -2.295956e-21)
(-0.005364943 -3.629502 -2.088374e-19)
(0.1116528 -3.26994 4.012075e-19)
(0.1759279 -2.770233 0)
(0.1677576 -2.11221 7.853417e-19)
(0.1153516 -1.329651 0)
(0.03792162 -0.6309358 3.673139e-18)
(0.1613954 -0.2556761 1.575284e-20)
(0.706579 -1.73059 -1.518273e-20)
(0.7260329 -1.968348 -4.339107e-18)
(0.6869035 -1.732538 -4.620607e-18)
(0.7550896 -1.743835 0)
(0.88408 -1.752637 3.736396e-20)
(0.9514525 -1.758681 -1.248027e-21)
(0.9497146 -1.629405 -4.536638e-18)
(0.9098139 -1.446355 -8.42718e-18)
(0.7355737 -1.101672 3.782643e-18)
(0.9461354 -1.118972 -3.345957e-18)
(2.762596 -2.946109 -2.459925e-20)
(3.780572 -3.968323 0)
(3.23769 -3.402922 0)
(2.422361 -2.528163 0)
(1.007416 -1.192735 2.923306e-18)
(-0.6291396 0.1552805 3.674637e-20)
(-2.32034 1.355897 -3.570075e-20)
(-3.893658 2.298689 6.223089e-20)
(-5.63889 3.092215 -5.889299e-20)
(-7.063992 3.762131 0)
(-8.060592 4.647477 0)
(-1.604576 1.999965 1.054629e-17)
(8.480777 -3.510114 1.697887e-20)
(4.556916 -2.218801 -1.620453e-20)
(2.126991 -1.033541 2.477848e-18)
(1.255639 -0.6097959 3.175438e-18)
(-0.072485 -0.3921286 -3.89372e-20)
(-2.02216 -0.07402962 -5.758188e-18)
(-4.792667 0.865487 4.095417e-18)
(-6.151597 1.327912 -4.758371e-21)
(0.6126502 0.3451925 1.260506e-18)
(9.094184 0.1693494 0)
(14.03221 0.7484291 2.726663e-19)
(17.5232 1.223366 2.200287e-18)
(18.30247 1.645571 2.352787e-18)
(18.41386 2.191132 2.440742e-18)
(18.32632 2.836948 -7.703264e-20)
(18.14401 3.505531 5.072159e-18)
(17.89222 4.174902 -3.877256e-20)
(17.58785 4.840376 0)
(17.23068 5.482155 9.638184e-18)
(16.82253 6.102655 0)
(16.36331 6.690118 -6.856345e-20)
(15.85148 7.232816 6.873089e-20)
(15.28308 7.727191 8.250083e-18)
(14.66587 8.167039 -5.803674e-20)
(14.007 8.552245 7.232956e-18)
(13.31481 8.878216 -6.706681e-18)
(12.59316 9.141991 0)
(11.8523 9.352778 4.003919e-20)
(11.09927 9.50573 -4.925932e-18)
(10.32974 9.587656 -8.370571e-18)
(9.548592 9.600349 0)
(8.768504 9.554209 -2.863095e-18)
(7.998668 9.450544 -1.412464e-20)
(7.239817 9.281724 1.465329e-18)
(6.493202 9.046818 3.441526e-21)
(5.765782 8.751663 -3.483849e-21)
(5.061454 8.393284 -5.554082e-19)
(4.384149 7.975241 1.228602e-18)
(3.744703 7.502715 0)
(3.144329 6.981185 0)
(2.588113 6.414377 -1.962613e-20)
(2.080491 5.804097 0)
(1.624613 5.152134 0)
(1.22246 4.462423 0)
(0.8789815 3.746641 -2.585845e-18)
(0.592916 3.015186 2.082245e-20)
(0.3743614 2.262115 1.18823e-20)
(0.2135357 1.503958 -5.798966e-21)
(0.1175831 0.7689066 -7.934859e-19)
(0.08969773 0.04220604 3.222063e-21)
(0.1368585 -0.7703809 -7.894606e-19)
(0.232595 -1.624494 1.500143e-18)
(0.4007965 -2.446647 1.141975e-20)
(0.6352486 -3.23112 -2.689147e-18)
(0.9304889 -3.984015 -3.9362e-20)
(1.285833 -4.706029 2.320448e-18)
(1.697351 -5.391503 -2.059737e-18)
(2.165679 -6.040553 0)
(2.683285 -6.653284 -5.994989e-18)
(3.24859 -7.215108 -1.643709e-20)
(3.858783 -7.729109 1.770768e-18)
(4.508137 -8.199251 1.11285e-18)
(5.194172 -8.612287 0)
(5.915142 -8.970729 0)
(6.661856 -9.279125 0)
(7.427505 -9.520174 1.582777e-20)
(8.206661 -9.690312 -1.571314e-20)
(8.998687 -9.800496 3.064136e-18)
(9.798197 -9.849095 5.6915e-21)
(10.60108 -9.832384 -4.530651e-18)
(11.40159 -9.755193 -7.982261e-20)
(12.18922 -9.612678 1.165055e-17)
(12.95571 -9.402059 6.464756e-18)
(13.69651 -9.126223 -5.256335e-20)
(14.41427 -8.791759 7.524168e-18)
(15.10431 -8.403212 6.141386e-20)
(15.75806 -7.956528 -6.968402e-20)
(16.36803 -7.45738 6.936902e-20)
(16.93046 -6.908356 7.625216e-20)
(17.44512 -6.316145 1.001437e-17)
(17.9079 -5.685383 -7.888184e-20)
(18.30502 -5.018067 0)
(18.63909 -4.320286 0)
(18.93863 -3.607785 0)
(19.1876 -2.890566 0)
(19.36562 -2.176225 2.128648e-20)
(19.45337 -1.468011 -2.120378e-20)
(19.4057 -0.8113279 1.29741e-18)
(19.11158 -0.3086613 4.928001e-21)
(17.4937 -0.01152001 0)
(12.50896 0.1541116 -1.216357e-18)
(3.214204 -0.1188047 2.924258e-18)
(-5.207882 -0.8988096 -3.768445e-18)
(-1.593404 -0.1484536 5.482789e-20)
(-0.1147961 0.3440627 -6.122681e-18)
(1.346083 0.817179 3.296629e-20)
(2.92274 1.581732 0)
(7.746739 3.139069 3.248992e-18)
(-0.3981577 -1.381811 -1.234298e-17)
(-11.22207 -6.285938 -1.26944e-17)
(-10.65738 -5.362828 -1.313667e-20)
(-9.249586 -4.682786 -1.692126e-19)
(-6.835829 -3.713585 7.087098e-20)
(-4.907809 -2.961745 0)
(-3.614114 -2.423805 3.227959e-18)
(-2.465014 -1.677533 2.08102e-18)
(-0.9851006 -0.3345759 1.047701e-20)
(1.293072 1.786371 5.825635e-19)
(3.768313 3.97338 -1.053156e-18)
(3.70324 3.781133 -3.194333e-19)
(0.8654845 0.5795849 1.374623e-21)
(-0.744015 -1.274612 -1.227274e-18)
(-1.430937 -2.181209 -1.437022e-20)
(-1.836254 -2.88599 -3.284033e-18)
(-1.907262 -3.124924 2.911277e-20)
(-1.606096 -2.756514 -4.191462e-22)
(-1.037921 -1.644657 -3.32462e-20)
(-0.256559 0.173469 0)
(0.4614747 1.59316 0)
(1.3767 3.055654 -4.34051e-18)
(0.2312515 0.06013696 0)
(-0.3212026 -0.7704888 -3.354479e-18)
(-0.1808095 -1.257112 1.718417e-18)
(-0.3786254 -3.136017 -1.316136e-20)
(-0.4610403 -3.896016 1.311886e-20)
(-0.3979915 -3.9411 8.800335e-19)
(-0.2762563 -3.929464 -4.473921e-19)
(-0.1396546 -3.853941 -2.098922e-19)
(0.02648132 -4.189284 1.676636e-19)
(0.1567971 -4.050839 -3.237783e-19)
(0.2522362 -3.73686 9.831318e-21)
(0.3003535 -3.288916 -6.401806e-19)
(0.3708175 -2.815019 0)
(0.4547969 -2.382051 -2.916095e-18)
(0.6871648 -2.006526 -2.523915e-20)
(0.8932299 -2.181178 1.664919e-18)
(0.6605831 -1.758628 3.609762e-18)
(0.7062102 -1.679105 3.833755e-18)
(0.7169471 -1.602556 3.975023e-18)
(0.8397657 -1.584313 -3.098469e-20)
(0.8657356 -1.575615 0)
(0.8531246 -1.478675 0)
(0.8340716 -1.354711 3.418446e-18)
(0.7325751 -1.076095 3.160774e-18)
(1.31228 -1.364187 2.738467e-18)
(3.133403 -3.116907 3.958853e-20)
(3.557857 -3.678181 0)
(2.676269 -2.951398 2.157653e-18)
(1.770456 -2.126464 2.022157e-18)
(0.3296239 -0.8636661 -2.387196e-18)
(-1.159556 0.3362079 0)
(-2.624243 1.366324 4.284417e-18)
(-3.855321 2.094538 0)
(-5.256795 2.630365 -6.904004e-18)
(-6.56346 3.383162 0)
(-6.69195 4.28521 -8.096216e-18)
(-3.150819 3.652123 -8.272511e-18)
(7.379866 -2.703869 0)
(6.141113 -2.904566 0)
(6.029483 -2.256477 -6.469736e-21)
(6.098833 -1.960859 -2.392268e-18)
(5.446823 -1.845669 2.983732e-18)
(3.870153 -1.463157 9.11442e-18)
(1.379344 -0.447512 -3.5177e-18)
(-3.437835 1.006858 2.951996e-18)
(6.449763 0.7283739 -9.130533e-19)
(15.91097 0.7028231 0)
(17.93602 1.157546 0)
(18.16392 1.553826 -1.782035e-18)
(17.86335 2.039838 -1.967205e-18)
(17.83107 2.692823 -3.992677e-18)
(17.74804 3.385391 4.030211e-18)
(17.60868 4.084907 9.592913e-20)
(17.39925 4.765981 -6.411218e-20)
(17.12156 5.418296 0)
(16.76772 6.033056 0)
(16.35413 6.617634 7.575087e-18)
(15.89414 7.172558 -7.322358e-18)
(15.38397 7.680086 0)
(14.81968 8.139404 0)
(14.21003 8.542837 9.523987e-20)
(13.56047 8.893498 -6.030546e-18)
(12.8807 9.184595 0)
(12.17472 9.412598 -4.898435e-18)
(11.45051 9.590122 -4.411109e-18)
(10.71713 9.710833 -3.850317e-18)
(9.971148 9.759832 3.365888e-18)
(9.213516 9.74234 -4.005343e-20)
(8.458036 9.669326 2.297253e-18)
(7.7136 9.541307 0)
(6.982738 9.348942 -1.195252e-18)
(6.265587 9.092428 -5.254519e-21)
(5.565942 8.779702 8.732451e-21)
(4.895484 8.402327 -5.215016e-19)
(4.248663 7.969931 0)
(3.638944 7.48562 -1.594633e-18)
(3.06664 6.955288 -1.80611e-20)
(2.538993 6.381573 2.57736e-18)
(2.057054 5.767334 1.52012e-18)
(1.625303 5.113311 -1.731479e-18)
(1.244223 4.423542 -1.929427e-18)
(0.9183221 3.709004 2.103072e-18)
(0.6451679 2.980532 -2.266175e-18)
(0.4405084 2.229923 -1.168845e-18)
(0.284088 1.475082 2.477824e-18)
(0.1885854 0.7436347 1.297911e-18)
(0.1634368 0.0209035 2.634324e-21)
(0.2219476 -0.7792094 6.528436e-19)
(0.3120563 -1.620514 -9.756414e-21)
(0.4710294 -2.431064 0)
(0.6923343 -3.206836 -1.685502e-20)
(0.9694729 -3.953889 -1.449428e-20)
(1.304226 -4.671895 -1.836014e-18)
(1.690941 -5.355758 3.382063e-18)
(2.135857 -6.004251 -1.484292e-18)
(2.624974 -6.62033 2.431148e-18)
(3.159428 -7.188127 1.735021e-20)
(3.74079 -7.709582 0)
(4.358629 -8.19133 9.614536e-19)
(5.012591 -8.618341 1.709757e-21)
(5.703369 -8.992232 1.468994e-19)
(6.419514 -9.319894 0)
(7.153876 -9.583141 1.313245e-18)
(7.905046 -9.776262 0)
(8.669767 -9.912612 -5.348867e-20)
(9.441948 -9.990469 3.033358e-18)
(10.2216 -10.00298 0)
(10.99838 -9.959239 -4.222127e-18)
(11.76454 -9.852105 -4.776832e-18)
(12.51197 -9.678099 -5.299616e-18)
(13.23577 -9.439494 0)
(13.94057 -9.14111 -1.256756e-17)
(14.61963 -8.790377 1.008056e-19)
(15.26532 -8.380847 0)
(15.86989 -7.919569 0)
(16.42972 -7.407398 0)
(16.94544 -6.849798 8.108986e-18)
(17.40919 -6.257985 -8.40196e-18)
(17.81266 -5.627223 0)
(18.15058 -4.959641 0)
(18.42202 -4.265271 4.425613e-18)
(18.63192 -3.545825 3.529117e-20)
(18.77135 -2.807909 0)
(18.83163 -2.066501 0)
(18.82774 -1.337856 -2.165387e-18)
(18.86287 -0.6979056 2.530014e-19)
(19.20089 -0.2749937 0)
(18.54516 -0.0261747 8.579831e-19)
(12.9504 0.005835278 5.048915e-20)
(5.743647 0.2150617 1.766693e-20)
(5.989777 1.494994 -4.655266e-20)
(7.356544 2.319135 4.374236e-18)
(7.840054 2.652068 3.090365e-18)
(7.165785 2.931925 4.038113e-20)
(6.678581 2.390714 3.46775e-20)
(-2.800012 -3.305769 4.774746e-18)
(-9.017386 -5.861555 1.042115e-17)
(-8.668946 -4.449231 0)
(-7.328208 -3.390097 9.063118e-18)
(-5.077106 -2.396113 0)
(-3.482661 -1.846635 -4.962178e-20)
(-2.549478 -1.521918 -2.664117e-18)
(-1.671288 -0.8714227 1.753415e-20)
(-0.6372775 0.2902829 -1.686763e-20)
(1.120019 2.098061 -4.616047e-19)
(3.66863 4.002528 4.319012e-19)
(3.660465 3.39334 2.569347e-19)
(0.5791314 -0.2394534 -1.873649e-20)
(-0.7432025 -1.592855 -1.009208e-18)
(-1.569375 -2.631731 0)
(-2.084215 -3.458182 -5.657583e-21)
(-2.195955 -3.6337 0)
(-1.894302 -3.114095 -3.014305e-18)
(-1.376415 -1.980674 2.81895e-18)
(-0.6903206 -0.3438727 0)
(-0.007902708 0.9209339 0)
(1.261594 2.557715 7.203913e-18)
(0.7398563 1.101297 -1.442918e-18)
(-0.37393 -1.563 2.735762e-18)
(-0.3983066 -2.941693 -1.068239e-20)
(-0.4201193 -3.866824 1.043732e-20)
(-0.392648 -3.835515 0)
(-0.3244975 -3.914326 -7.230282e-19)
(-0.2163154 -4.060086 7.210668e-19)
(-0.09730708 -4.172001 1.749395e-19)
(0.01730944 -4.3767 -2.761027e-19)
(0.1357103 -4.230906 -8.195285e-21)
(0.2158919 -3.887481 8.171371e-21)
(0.2587828 -3.464527 -1.650538e-20)
(0.3617409 -3.113474 1.674338e-20)
(0.479978 -2.804099 1.191198e-18)
(0.7373501 -2.414132 -2.08669e-20)
(0.7769132 -1.992261 -1.394916e-18)
(0.5301865 -1.604375 4.548039e-20)
(0.6226812 -1.521128 -3.131514e-18)
(0.6034761 -1.442528 -4.947109e-20)
(0.7624473 -1.422679 0)
(0.7505816 -1.386228 0)
(0.7321605 -1.30094 -3.115376e-18)
(0.7719907 -1.286111 -2.871998e-18)
(0.7892986 -1.091518 -5.217747e-18)
(1.61564 -1.482419 -2.216389e-18)
(3.173593 -2.906436 0)
(3.17467 -3.300521 0)
(2.183585 -2.686264 -3.548466e-18)
(1.236903 -1.901814 -3.316069e-18)
(-0.1392012 -0.7530421 3.554841e-20)
(-1.442673 0.3089391 -8.384766e-20)
(-2.617104 1.152402 -6.977892e-18)
(-3.473675 1.67334 -4.725346e-18)
(-4.654658 2.01418 5.785121e-18)
(-5.902245 2.871586 7.205804e-18)
(-5.702647 3.977563 6.527433e-18)
(-3.529822 4.832797 3.439214e-18)
(6.116284 -1.48696 0)
(7.882966 -3.361513 -3.908604e-20)
(9.479711 -3.21305 -3.076664e-18)
(10.22693 -3.096443 1.923283e-20)
(10.12518 -3.134417 3.267556e-20)
(9.162316 -2.844794 -3.380569e-18)
(6.944623 -1.581253 -2.474609e-18)
(5.456939 0.6161391 -4.870778e-20)
(13.50314 1.234689 -6.596662e-19)
(18.48844 0.9864412 -3.09546e-19)
(17.82289 0.9934843 -2.621167e-21)
(17.70915 1.239671 0)
(17.82682 1.641612 -2.509224e-20)
(17.95023 2.220077 1.680544e-18)
(17.93875 2.863043 -6.663736e-18)
(17.82969 3.550995 5.188248e-20)
(17.63629 4.224509 -3.347365e-18)
(17.35865 4.888231 -1.009858e-19)
(17.01009 5.512098 -6.342734e-18)
(16.59923 6.111652 -3.200822e-21)
(16.14083 6.687977 6.040579e-18)
(15.6335 7.214088 -5.684479e-18)
(15.0711 7.695554 0)
(14.4627 8.120655 7.69932e-20)
(13.81248 8.495229 -7.746497e-20)
(13.1299 8.811905 0)
(12.41868 9.067148 4.035576e-18)
(11.68814 9.271625 7.525011e-20)
(10.94712 9.419182 3.218737e-18)
(10.19347 9.49377 -2.70473e-18)
(9.429617 9.498292 -2.256641e-18)
(8.664089 9.448875 -1.857149e-18)
(7.910457 9.342788 -1.359505e-18)
(7.170879 9.170518 1.078327e-20)
(6.443805 8.933222 -1.089208e-20)
(5.733657 8.639233 0)
(5.052564 8.2793 4.256835e-19)
(4.394681 7.863231 -1.714725e-20)
(3.77481 7.393468 1.326963e-18)
(3.192863 6.8763 1.711052e-18)
(2.658156 6.313779 -2.098215e-18)
(2.169069 5.709902 -1.247238e-18)
(1.730957 5.065259 -4.501897e-21)
(1.343881 4.384078 1.582122e-18)
(1.014919 3.676349 2.774704e-20)
(0.7370444 2.954235 1.815076e-18)
(0.5323716 2.207003 1.54195e-20)
(0.3732566 1.453393 -1.034902e-18)
(0.2744679 0.7222362 -5.287673e-19)
(0.2513495 -0.002041542 -6.557848e-23)
(0.3233431 -0.7884756 5.1743e-19)
(0.4113927 -1.616694 7.984933e-21)
(0.5678539 -2.4164 -9.648158e-19)
(0.7902565 -3.182608 1.82287e-18)
(1.069397 -3.919658 0)
(1.407235 -4.626749 -3.458699e-21)
(1.797273 -5.299142 -1.390779e-18)
(2.24838 -5.935589 1.25071e-18)
(2.742113 -6.540264 -2.092159e-18)
(3.285974 -7.093738 2.276791e-20)
(3.878574 -7.600225 -2.254231e-20)
(4.503007 -8.068813 -7.900116e-19)
(5.167105 -8.479226 0)
(5.872538 -8.833638 -1.27503e-19)
(6.596737 -9.145145 1.810828e-20)
(7.340278 -9.389352 -6.111304e-20)
(8.102382 -9.56121 -1.469534e-18)
(8.876429 -9.67644 -2.043644e-18)
(9.657284 -9.731865 -2.111554e-20)
(10.44503 -9.720703 2.891318e-18)
(11.2309 -9.650967 -4.905051e-20)
(12.00362 -9.518436 -3.798478e-18)
(12.75705 -9.317185 0)
(13.48787 -9.048724 4.630829e-18)
(14.19686 -8.723035 5.102042e-18)
(14.87612 -8.348891 5.290743e-18)
(15.52135 -7.914847 -5.633571e-18)
(16.12387 -7.430726 6.037197e-18)
(16.68117 -6.895648 0)
(17.19399 -6.315804 -1.326793e-17)
(17.65397 -5.706617 1.386276e-17)
(18.05261 -5.058098 -1.642611e-19)
(18.38494 -4.378965 -3.564947e-18)
(18.65373 -3.669759 -3.629318e-18)
(18.84953 -2.952192 0)
(18.96278 -2.234772 1.862471e-18)
(18.9779 -1.524354 -1.839888e-18)
(18.88254 -0.8640553 8.988943e-19)
(18.68172 -0.3180499 -2.18139e-19)
(18.60307 -0.01708529 -3.98394e-19)
(19.41545 0.03691496 1.121455e-20)
(18.60596 0.135267 -1.478065e-18)
(15.92961 1.096457 4.47086e-20)
(15.19448 2.85789 0)
(14.67343 3.83384 0)
(13.65548 4.005229 -6.213962e-20)
(11.67121 3.907714 6.528223e-20)
(6.934437 1.706842 0)
(-2.840907 -4.316548 0)
(-5.888357 -4.92881 0)
(-6.90853 -3.374556 1.142214e-17)
(-5.571501 -1.98946 -1.513949e-17)
(-3.238156 -0.9124068 4.841092e-18)
(-1.516043 -0.3562304 -3.134889e-18)
(-1.007585 -0.305194 -7.385103e-20)
(-0.5578237 0.1547923 1.508212e-18)
(-0.03890979 1.087823 4.347791e-19)
(0.9762855 2.442462 -5.221677e-21)
(3.278634 3.774984 1.282979e-21)
(3.192818 2.419967 4.173783e-21)
(0.4858223 -0.920039 -6.475767e-21)
(-0.7753217 -1.977174 8.269764e-19)
(-1.757819 -3.14772 0)
(-2.274406 -3.860268 2.179552e-18)
(-2.370173 -3.840678 -2.49105e-18)
(-2.110532 -3.288223 2.465537e-18)
(-1.71117 -2.274931 0)
(-1.164737 -0.8728179 0)
(-0.4809217 0.2952091 -4.508681e-20)
(0.9259901 1.534181 -3.050946e-18)
(0.9487923 1.095592 1.208018e-18)
(-0.3653478 -2.545502 -1.08327e-18)
(-0.4391195 -3.645237 0)
(-0.4221652 -3.832858 0)
(-0.4160242 -3.773578 0)
(-0.3571609 -3.955052 -5.857517e-19)
(-0.2469142 -4.13191 -3.060717e-19)
(-0.1036201 -4.313389 -2.888611e-19)
(-0.002848231 -4.18645 1.141427e-19)
(0.0800412 -3.976553 0)
(0.1300132 -3.594228 -4.260935e-19)
(0.1493112 -3.156989 0)
(0.2652484 -2.816655 -9.063058e-19)
(0.3632112 -2.508048 0)
(0.584634 -2.106602 0)
(0.6096932 -1.622548 -1.154336e-18)
(0.3921758 -1.283182 -2.474314e-18)
(0.509845 -1.175955 2.641939e-18)
(0.4513762 -1.125066 -2.705727e-18)
(0.6855481 -1.2221 2.75614e-18)
(0.6329315 -1.20188 0)
(0.599025 -1.091977 5.164409e-18)
(0.7232027 -1.203437 2.378008e-18)
(0.8796052 -1.102787 2.203383e-18)
(1.859835 -1.501336 -5.919087e-20)
(3.131943 -2.622382 -5.114115e-20)
(2.885675 -3.038188 -1.635024e-18)
(1.89986 -2.626384 2.902609e-18)
(0.9220448 -1.907554 1.3542e-18)
(-0.3729535 -0.8593703 5.817409e-20)
(-1.469362 0.07946827 2.085729e-18)
(-2.299852 0.7317254 2.917653e-18)
(-2.850055 1.097903 3.946201e-18)
(-3.948676 1.277557 0)
(-5.082731 2.238591 9.289125e-20)
(-4.68009 3.58742 0)
(-2.893713 5.528293 3.068152e-18)
(5.489392 -0.2486221 6.630223e-19)
(9.565485 -3.464721 1.559803e-18)
(12.06858 -3.722737 -5.512444e-20)
(13.22465 -3.805144 4.148418e-20)
(13.8555 -3.995494 -3.555271e-18)
(14.44297 -3.824427 0)
(14.57553 -2.369306 -1.64614e-18)
(14.62889 0.3115337 -1.578288e-18)
(17.71238 1.519738 1.030811e-18)
(18.18251 1.118515 2.42208e-19)
(17.17858 1.049573 0)
(17.44989 1.48129 6.100675e-19)
(17.56777 1.997919 0)
(17.65153 2.625338 0)
(17.62088 3.279644 2.783793e-18)
(17.50733 3.956582 -4.25613e-20)
(17.31595 4.60875 4.812396e-20)
(17.04306 5.247001 -2.646502e-18)
(16.70073 5.839525 5.327668e-18)
(16.29617 6.407453 -5.083534e-18)
(15.8471 6.953316 -4.900368e-18)
(15.35565 7.438337 2.277936e-19)
(14.80735 7.884994 -1.421038e-19)
(14.2166 8.273717 -1.250387e-19)
(13.58341 8.617566 -3.589475e-18)
(12.92048 8.905098 -3.643893e-18)
(12.22974 9.131423 -9.547618e-20)
(11.51738 9.313536 3.028319e-18)
(10.79932 9.43844 0)
(10.07021 9.490748 2.227181e-18)
(9.325038 9.480026 1.857642e-18)
(8.57915 9.417498 1.431228e-18)
(7.847478 9.299856 1.118542e-18)
(7.128759 9.118806 0)
(6.422651 8.87325 0)
(5.730128 8.576035 -3.767261e-20)
(5.069402 8.21219 0)
(4.426182 7.796657 0)
(3.82258 7.328227 1.155586e-18)
(3.25757 6.8131 -2.267935e-20)
(2.732825 6.255967 -1.421566e-20)
(2.251659 5.657518 -3.418376e-20)
(1.821929 5.018431 2.375383e-18)
(1.443841 4.342795 0)
(1.124696 3.640508 0)
(0.8430953 2.928073 1.535462e-18)
(0.6431331 2.185502 7.721721e-19)
(0.4816894 1.433318 8.341979e-19)
(0.3789414 0.702925 -4.326949e-19)
(0.357955 -0.02544821 0)
(0.4468738 -0.7938501 -3.985659e-22)
(0.5329113 -1.608511 2.54899e-20)
(0.6775685 -2.397891 7.651721e-19)
(0.8923531 -3.152367 -1.493824e-18)
(1.165712 -3.87716 -4.208487e-20)
(1.498 -4.573296 1.280777e-18)
(1.881895 -5.236172 3.765351e-20)
(2.326763 -5.864925 2.017511e-18)
(2.805977 -6.465784 -1.440257e-20)
(3.335459 -7.015604 -1.425657e-18)
(3.918292 -7.519576 3.763364e-20)
(4.527394 -7.989354 0)
(5.170115 -8.403053 3.361346e-19)
(5.860401 -8.760512 0)
(6.569516 -9.077543 0)
(7.290139 -9.33197 -8.489563e-19)
(8.031905 -9.513764 2.414412e-18)
(8.788225 -9.640107 5.583318e-20)
(9.547857 -9.710495 -1.122029e-19)
(10.31485 -9.715851 -2.374391e-18)
(11.07947 -9.666944 -2.693826e-18)
(11.83139 -9.556914 3.232602e-18)
(12.56279 -9.382383 -3.508938e-18)
(13.27127 -9.143803 -7.781202e-20)
(13.96253 -8.845891 0)
(14.62356 -8.50451 -4.580097e-18)
(15.25287 -8.102729 9.648443e-18)
(15.84043 -7.654634 -5.135807e-18)
(16.38374 -7.156758 0)
(16.8863 -6.613766 9.646859e-20)
(17.33719 -6.041719 -5.552889e-18)
(17.72922 -5.426652 -8.863334e-20)
(18.05814 -4.7782 1.433232e-19)
(18.32303 -4.096036 -9.264085e-20)
(18.52019 -3.396253 0)
(18.63594 -2.695275 -2.969061e-18)
(18.66109 -1.987057 1.432374e-18)
(18.58708 -1.299128 7.072826e-19)
(18.44525 -0.6800743 -1.100296e-20)
(18.22843 -0.2091818 3.259968e-19)
(18.59043 -0.0003551846 6.033879e-19)
(19.5569 0.2906919 0)
(19.69007 1.655532 1.492881e-18)
(19.01202 3.588613 -8.952931e-20)
(17.61963 4.520036 2.579381e-18)
(15.99742 4.509234 0)
(14.12381 4.102336 0)
(8.250176 1.080867 0)
(-1.198408 -4.584507 8.180381e-20)
(-2.924314 -3.929008 8.120524e-18)
(-4.571811 -2.135954 -1.026339e-17)
(-3.604784 -0.4498956 6.661271e-18)
(-1.626748 0.4987067 -7.944016e-18)
(0.3679046 1.102918 2.621447e-18)
(0.9578551 1.138682 0)
(0.8636651 1.311751 -1.209201e-18)
(0.784319 1.944062 -3.417205e-19)
(0.9132722 2.737145 -2.780158e-19)
(2.748743 3.252558 9.501359e-21)
(2.57568 1.177627 1.531194e-21)
(0.5234206 -1.443273 -1.533229e-21)
(-0.8401308 -2.439943 0)
(-1.817691 -3.510595 -1.339824e-18)
(-2.299872 -4.003687 5.957961e-20)
(-2.429741 -3.85128 4.036919e-18)
(-2.26811 -3.350684 -2.078158e-18)
(-2.020691 -2.50255 1.186866e-19)
(-1.652049 -1.386577 -1.918754e-18)
(-1.01137 -0.4636695 0)
(0.5553119 0.617334 -2.625749e-18)
(0.984427 0.3521991 9.842124e-19)
(-0.2750172 -3.396475 -5.571166e-20)
(-0.3873086 -3.786861 9.495006e-19)
(-0.4110108 -3.799722 -4.327868e-20)
(-0.3877075 -3.897228 1.481403e-20)
(-0.3017675 -4.017506 4.898111e-19)
(-0.1925189 -4.114305 -3.762958e-21)
(-0.08044659 -4.205829 4.047334e-21)
(-0.02811482 -3.847707 5.767381e-21)
(0.006991772 -3.58115 1.744568e-19)
(0.01675123 -3.203479 3.526998e-19)
(0.01177639 -2.767678 -3.50652e-19)
(0.1466394 -2.434516 7.518615e-19)
(0.2191464 -2.101325 0)
(0.4056248 -1.68857 8.317442e-19)
(0.4157907 -1.232525 1.024794e-18)
(0.1537141 -0.8428538 2.044271e-18)
(0.346953 -0.7345969 0)
(0.2239283 -0.6054522 0)
(0.5425018 -0.8422032 -2.279894e-18)
(0.4787521 -0.9631318 -6.881592e-20)
(0.4460121 -0.8354217 -2.071225e-18)
(0.6728964 -1.058347 -1.975809e-18)
(0.9722738 -1.062546 -1.746453e-18)
(2.011722 -1.398157 1.47537e-18)
(3.034418 -2.296656 -1.356389e-18)
(2.596748 -2.782588 1.319275e-18)
(1.637675 -2.612971 -1.14961e-18)
(0.6717593 -2.039902 0)
(-0.4389101 -1.175162 0)
(-1.199879 -0.4065042 -1.779599e-18)
(-1.705526 0.1198485 0)
(-2.102166 0.4487117 -1.192484e-19)
(-3.1929 0.4202902 -3.00875e-20)
(-3.991709 1.457615 -4.808381e-18)
(-3.071404 2.920016 -1.625317e-19)
(-1.49677 5.83053 2.188902e-19)
(5.685787 0.8686692 -5.038612e-19)
(10.6248 -3.078186 -2.496734e-21)
(13.06344 -3.654761 9.459975e-19)
(14.25187 -3.91546 -4.269425e-20)
(15.37712 -4.257795 1.556137e-18)
(16.96973 -4.257495 -5.32599e-20)
(18.50757 -2.895356 5.427034e-18)
(18.91385 -0.1127033 3.738978e-20)
(18.6138 1.366096 -2.183248e-21)
(17.41237 1.00013 -4.406935e-19)
(17.19312 0.9534083 -3.712022e-21)
(17.47938 1.326569 -5.054599e-19)
(17.60017 1.750761 -3.335595e-20)
(17.69269 2.316773 -1.044213e-18)
(17.66453 2.92456 2.175284e-18)
(17.54874 3.590259 -2.179998e-18)
(17.35835 4.234104 4.231341e-18)
(17.08663 4.884749 2.316599e-18)
(16.74639 5.492039 0)
(16.33988 6.079884 0)
(15.89079 6.648214 3.974271e-18)
(15.39962 7.153392 3.796187e-18)
(14.85108 7.619027 0)
(14.2628 8.019943 -1.004938e-19)
(13.62939 8.378474 3.255215e-18)
(12.96333 8.685833 2.903887e-18)
(12.2733 8.92437 2.554697e-18)
(11.56681 9.112208 -6.812915e-20)
(10.85058 9.249827 -1.951788e-18)
(10.11867 9.318447 4.988441e-20)
(9.378251 9.31373 -5.036142e-20)
(8.640922 9.254904 -1.207709e-18)
(7.912292 9.146883 8.664137e-19)
(7.189885 8.981348 0)
(6.4921 8.74026 0)
(5.802368 8.453405 8.752713e-20)
(5.150836 8.095746 -9.150444e-21)
(4.512494 7.689166 -8.788896e-21)
(3.92498 7.225402 -8.91126e-19)
(3.36863 6.717929 -2.349186e-18)
(2.836957 6.178048 1.353272e-18)
(2.358597 5.591872 -1.654595e-18)
(1.933799 4.963331 -9.29172e-19)
(1.565089 4.295772 -3.192363e-20)
(1.254274 3.597703 0)
(0.9659208 2.898906 -1.198084e-18)
(0.7790369 2.16465 -4.038201e-20)
(0.6122456 1.414169 -6.93373e-19)
(0.5059931 0.6861656 3.706171e-19)
(0.4882006 -0.04823712 6.836751e-24)
(0.5925488 -0.795287 -3.677799e-19)
(0.6674911 -1.599212 3.151925e-20)
(0.8073323 -2.374245 -6.666504e-19)
(1.013667 -3.110001 1.223857e-18)
(1.280685 -3.819784 -1.181255e-18)
(1.608586 -4.504913 2.735461e-21)
(1.988163 -5.15745 9.774608e-19)
(2.437505 -5.775123 -1.606013e-18)
(2.907624 -6.370583 1.389775e-18)
(3.425912 -6.914987 1.067163e-18)
(4.009526 -7.410093 8.503521e-21)
(4.626058 -7.86748 8.961237e-21)
(5.261005 -8.274297 -2.623966e-19)
(5.934285 -8.633032 7.796578e-21)
(6.643099 -8.941577 1.518634e-20)
(7.362423 -9.185846 6.047112e-19)
(8.095881 -9.361441 -1.930933e-18)
(8.843963 -9.484112 1.263319e-18)
(9.608373 -9.536866 -5.772842e-20)
(10.37251 -9.532289 -1.904306e-18)
(11.12924 -9.479529 4.430269e-18)
(11.88115 -9.356195 8.220623e-20)
(12.60935 -9.171374 2.722095e-18)
(13.31784 -8.916801 -3.178986e-18)
(14.01086 -8.601989 9.860506e-20)
(14.67049 -8.247594 -3.613963e-18)
(15.30005 -7.827201 -3.701969e-18)
(15.88636 -7.363444 1.275655e-19)
(16.43054 -6.842624 -4.256596e-18)
(16.93333 -6.27773 4.4002e-18)
(17.3836 -5.68639 0)
(17.77333 -5.053961 0)
(18.09821 -4.385786 2.38778e-18)
(18.35823 -3.700522 2.383357e-18)
(18.55392 -3.006989 0)
(18.67184 -2.309528 1.270859e-18)
(18.69806 -1.624662 1.155931e-18)
(18.62263 -0.9882314 -5.9294e-19)