/*--------------------------------*- C++ -*----------------------------------*\
| =========                 |                                                 |
| \\      /  F ield         | OpenFOAM: The Open Source CFD Toolbox           |
|  \\    /   O peration     | Version:  2406                                  |
|   \\  /    A nd           | Website:  www.openfoam.com                      |
|    \\/     M anipulation  |                                                 |
\*---------------------------------------------------------------------------*/
FoamFile
{
    version     2.0;
    format      ascii;
    arch        "LSB;label=32;scalar=64";
    class       volScalarField;
    location    "2.06";
    object      p;
}
// * * * * * * * * * * * * * * * * * * * * * * * * * * * * * * * * * * * * * //

dimensions      [0 2 -2 0 0 0 0];

internalField   nonuniform List<scalar> 
15536
(
-13.88322
-20.06886
-26.79226
-33.3594
-39.7197
-45.03621
-48.54725
-49.95195
-49.1555
-46.28656
-42.39945
-39.4131
-37.05898
-38.00889
-40.48553
-41.3719
-42.66502
-45.95251
-53.39006
-64.04967
-74.54844
-77.71776
-67.42927
-46.55538
-26.79307
-18.96682
-25.90759
-41.31895
-51.69558
-57.16715
-66.98843
-95.39729
-139.3286
-155.6431
-118.819
-84.31671
-97.57568
-109.8186
-108.6339
-109.0587
-112.9334
-116.1149
-117.5839
-117.6244
-116.8966
-115.2098
-112.6936
-109.244
-105.3699
-101.1999
-96.38353
-91.02735
-85.08173
-78.79577
-72.11366
-65.11181
-58.12455
-51.05767
-43.6705
-36.15071
-28.78335
-21.57323
-14.41422
-7.367108
-0.5626971
6.093181
12.43823
18.4452
24.01209
29.14168
33.7935
37.97111
41.63953
44.72772
47.20438
49.17099
50.49618
51.22676
51.41227
51.11908
50.06388
48.34419
46.04683
43.17261
39.73965
35.77097
31.33849
26.35632
20.98738
15.28459
9.096006
2.606626
-4.107487
-11.22273
-18.4706
-25.64518
-32.96206
-40.39747
-47.76794
-55.14348
-62.36012
-69.23955
-75.73477
-81.92231
-87.91574
-93.40898
-98.3725
-102.7518
-106.5538
-109.8361
-112.3169
-113.9012
-114.5834
-114.3499
-112.885
-109.6756
-104.3986
-97.72687
-93.19469
-98.71126
-114.9939
-111.5685
-84.11325
-53.28091
-26.53872
-32.90424
-107.464
-145.268
-117.0418
-65.02453
-30.20451
-12.94605
-1.363837
7.049781
7.834899
5.573451
3.707219
-1.342729
-9.505486
-16.283
-17.14787
-12.37398
-4.72467
1.153591
3.76036
5.503585
5.516524
5.938448
5.476791
-1.946783
-5.142509
-0.6598879
1.100645
-1.130916
-3.241343
-5.593655
-9.175195
-13.88364
-20.04996
-26.74029
-33.27232
-39.59315
-44.87073
-48.37064
-49.81282
-49.06365
-46.25268
-42.40302
-39.42069
-37.04787
-37.98687
-40.47514
-41.35832
-42.65292
-45.95596
-53.40795
-64.07276
-74.53609
-77.69111
-67.47097
-46.58337
-26.74061
-18.91959
-25.98213
-41.3761
-51.73492
-57.13178
-66.90382
-95.34177
-139.3591
-155.7423
-118.6796
-84.2728
-97.46847
-109.8179
-108.5656
-108.6381
-112.1437
-115.0115
-116.2713
-116.2093
-115.4405
-113.7357
-111.2198
-107.7807
-103.9243
-99.78804
-95.00867
-89.69753
-83.79975
-77.56843
-70.94815
-64.00955
-57.08632
-50.08837
-42.77497
-35.32491
-28.02783
-20.88875
-13.79951
-6.818064
-0.07757638
6.512643
12.79394
18.74271
24.2563
29.33585
33.94308
38.08149
41.71573
44.77729
47.23147
49.18189
50.49743
51.22405
51.40945
51.11894
50.0724
48.36985
46.0955
43.24964
39.85073
35.92216
31.53453
26.60272
21.29106
15.64545
9.519226
3.099599
-3.548012
-10.59748
-17.76943
-24.86955
-32.114
-39.47362
-46.76923
-54.07133
-61.21672
-68.02604
-74.45602
-80.58721
-86.52953
-91.97186
-96.89306
-101.2342
-105.0076
-108.2743
-110.7479
-112.3416
-113.0469
-112.8665
-111.5131
-108.5357
-103.6104
-97.3358
-93.15323
-98.63258
-114.9249
-111.7185
-84.25772
-53.4642
-26.77598
-32.87578
-107.6919
-145.3733
-116.8655
-64.83379
-30.08352
-12.93252
-1.437599
6.978853
7.855685
5.644851
3.74081
-1.3426
-9.483463
-16.24004
-17.04546
-12.30937
-4.727314
1.137109
3.764403
5.512896
5.523221
5.928741
5.430069
-1.98318
-5.140265
-0.6288368
1.110536
-1.120084
-3.235233
-5.599647
-9.180832
-13.89854
-20.04763
-26.71157
-33.22272
-39.53269
-44.81105
-48.33273
-49.74284
-49.02899
-46.31364
-42.5068
-39.44951
-37.00521
-37.92705
-40.46669
-41.32046
-42.64042
-45.97748
-53.47049
-64.17228
-74.64437
-77.87367
-67.75473
-46.9458
-26.8027
-18.75105
-26.03467
-41.42659
-51.74451
-57.12685
-66.90078
-95.483
-139.7387
-156.3462
-118.9788
-84.43679
-96.81864
-108.6302
-107.8579
-108.0743
-111.2817
-114.0042
-115.3152
-115.3001
-114.5678
-112.8895
-110.408
-106.9851
-103.1425
-99.03523
-94.27052
-88.98723
-83.11425
-76.91716
-70.33628
-63.41478
-56.52123
-49.56596
-42.27996
-34.86119
-27.59729
-20.49794
-13.44698
-6.496068
0.2032337
6.76417
13.01134
18.92873
24.41237
29.46395
34.04325
38.15654
41.76822
44.81298
47.24806
49.18635
50.49387
51.21615
51.4016
51.1137
50.07378
48.38536
46.12784
43.30162
39.92594
36.02299
31.66475
26.7585
21.4795
15.86831
9.771505
3.388524
-3.220063
-10.23643
-17.37121
-24.42812
-31.6387
-38.96502
-46.2175
-53.49668
-60.60813
-67.38906
-73.7899
-79.87923
-85.79298
-91.20411
-96.10534
-100.426
-104.1765
-107.4289
-109.88
-111.4427
-112.118
-111.9105
-110.4822
-107.4891
-102.7745
-96.94414
-93.15589
-98.85669
-114.9229
-111.679
-84.232
-53.43121
-26.52632
-32.81427
-109.4124
-146.5719
-117.2252
-64.83975
-29.97168
-12.93269
-1.583311
6.791059
7.835856
5.65543
3.667143
-1.468797
-9.591726
-16.30123
-17.0659
-12.3141
-4.77611
1.088249
3.751734
5.515969
5.496256
5.882774
5.308036
-2.10027
-5.217009
-0.6130017
1.119329
-1.120965
-3.248045
-5.615079
-9.201433
-13.93478
-20.06715
-26.70049
-33.1788
-39.46645
-44.71256
-48.18342
-49.62557
-48.9869
-46.41839
-42.73042
-39.51219
-36.94283
-37.85143
-40.47671
-41.30391
-42.63547
-46.0266
-53.58967
-64.38177
-74.91418
-78.16857
-68.28257
-47.7195
-26.995
-18.33218
-25.90109
-41.29836
-51.62541
-57.09594
-66.97163
-95.72498
-140.1645
-156.9689
-119.8884
-85.43779
-96.21317
-106.7676
-106.5807
-107.2048
-110.0563
-112.5049
-113.6088
-113.4254
-112.6722
-110.9825
-108.5464
-105.1556
-101.3387
-97.29275
-92.60299
-87.39906
-81.60113
-75.4811
-68.98735
-62.15207
-55.33878
-48.47492
-41.29047
-33.95064
-26.76737
-19.75533
-12.7897
-5.912585
0.7045908
7.195502
13.37325
19.23163
24.65611
29.65328
34.18494
38.25789
41.83427
44.85415
47.26174
49.18482
50.4829
51.20028
51.3862
51.10051
50.06652
48.39788
46.16416
43.36643
40.02644
36.16608
31.85925
27.00068
21.78673
16.24033
10.2058
3.905764
-2.625575
-9.574536
-16.61314
-23.57906
-30.70915
-37.93954
-45.09808
-52.28744
-59.30742
-65.98853
-72.29213
-78.30898
-84.14862
-89.47179
-94.30075
-98.54526
-102.2554
-105.467
-107.8765
-109.4181
-110.1034
-109.9639
-108.7186
-105.9386
-101.577
-96.34872
-93.11477
-98.57407
-113.0159
-109.6658
-83.30438
-52.92466
-25.81255
-32.98075
-112.456
-148.5792
-118.0957
-65.02248
-29.86102
-12.89667
-1.740803
6.569721
7.908461
5.657365
3.437562
-1.791612
-9.851245
-16.43883
-17.10872
-12.38668
-4.89735
0.9943587
3.709803
5.501863
5.431099
5.801281
5.097484
-2.302574
-5.37199
-0.6555179
1.088078
-1.142206
-3.272776
-5.641923
-9.24158
-14.00655
-20.12412
-26.73143
-33.1619
-39.4253
-44.64827
-48.11682
-49.57753
-48.99345
-46.56387
-43.04607
-39.68411
-36.90067
-37.81356
-40.51578
-41.28049
-42.6287
-46.10974
-53.80399
-64.75912
-75.42806
-78.81443
-69.10123
-48.87019
-27.27841
-17.68568
-25.47993
-40.81893
-51.28724
-57.1035
-67.17765
-95.88323
-140.2201
-156.7846
-120.9546
-87.83041
-96.35029
-104.9812
-105.2042
-106.1976
-108.8007
-111.1002
-112.2139
-112.0724
-111.3372
-109.631
-107.218
-103.8274
-99.98007
-95.99355
-91.30174
-86.13903
-80.35809
-74.28799
-67.86026
-61.05073
-54.28986
-47.51157
-40.39207
-33.10049
-25.98201
-19.05324
-12.16058
-5.337789
1.19873
7.632721
13.74522
19.54393
24.90469
29.85139
34.33445
38.3644
41.8972
44.88888
47.26584
49.17104
50.45929
51.17144
51.35813
51.07252
50.04193
48.40124
46.19921
43.43403
40.13245
36.31502
32.06171
27.24872
22.10632
16.62038
10.63299
4.421645
-2.032447
-8.942383
-15.89704
-22.77387
-29.84666
-37.01118
-44.08194
-51.22345
-58.18652
-64.8085
-71.05983
-77.02031
-82.8339
-88.10706
-92.92349
-97.14623
-100.8375
-104.0879
-106.4609
-108.0004
-108.6886
-108.5266
-107.2194
-104.4956
-100.3909
-95.64616
-92.90012
-97.34247
-108.6003
-104.6832
-81.23435
-52.5579
-25.64985
-34.5768
-116.0665
-151.2235
-119.5346
-65.3764
-29.76343
-12.79279
-1.8188
6.46857
8.220583
5.773256
3.085145
-2.312535
-10.29761
-16.71549
-17.27685
-12.5727
-5.111624
0.8369063
3.63108
5.448392
5.331265
5.720891
4.854167
-2.556533
-5.575137
-0.7956624
0.9742588
-1.200433
-3.322623
-5.691553
-9.311144
-14.13875
-20.21676
-26.80287
-33.18552
-39.42034
-44.61972
-48.07979
-49.55718
-49.0469
-46.75752
-43.45084
-40.02009
-36.98675
-37.8794
-40.58536
-41.23755
-42.62889
-46.24476
-54.1543
-65.38474
-76.2867
-79.89666
-70.30192
-50.43451
-27.80881
-17.03294
-24.79674
-39.9828
-50.75048
-57.17491
-67.41394
-95.2184
-137.8268
-153.6356
-120.7387
-90.85965
-96.83378
-103.1857
-103.6646
-104.8191
-107.0686
-109.0898
-110.0309
-109.5588
-108.8302
-107.1771
-104.8857
-101.5421
-97.72848
-93.89134
-89.27961
-84.24082
-78.5471
-72.56447
-66.24413
-59.51426
-52.86651
-46.21684
-39.18981
-31.9841
-24.97914
-18.1545
-11.36224
-4.616063
1.805842
8.167232
14.18774
19.89515
25.18614
30.08288
34.50515
38.48002
41.95261
44.91915
47.25753
49.13645
50.41647
51.12222
51.30886
51.02176
49.99722
48.38683
46.22744
43.50445
40.2499
36.48563
32.29128
27.52498
22.48605
17.08518
11.13665
5.031593
-1.285634
-8.136955
-14.99257
-21.73333
-28.7027
-35.77674
-42.72996
-49.76739
-56.62347
-63.13683
-69.26339
-75.12242
-80.86607
-86.01113
-90.74665
-94.85539
-98.45728
-101.6178
-103.9158
-105.3568
-106.0447
-106.0374
-104.9159
-102.431
-98.73781
-94.55459
-92.28818
-95.58796
-103.7535
-99.81092
-79.35273
-53.237
-27.50611
-38.73854
-119.6465
-153.9372
-121.3355
-65.83395
-29.73521
-12.58575
-1.669591
6.669665
8.874032
6.130905
2.673401
-3.053695
-11.01658
-17.21453
-17.62823
-12.92334
-5.406795
0.5324394
3.469943
5.333357
5.233616
5.723398
4.663355
-2.7713
-5.781474
-1.044238
0.7548992
-1.315091
-3.412161
-5.790368
-9.427801
-14.36874
-20.32393
-26.83444
-33.28815
-39.5295
-44.66818
-48.10677
-49.61472
-49.19223
-47.03718
-43.95728
-40.5283
-37.33141
-38.1198
-40.68149
-41.18926
-42.62076
-46.40557
-54.56769
-66.30111
-77.61632
-81.69502
-72.0116
-52.47274
-28.94456
-16.81879
-24.41699
-39.14548
-50.13382
-57.23073
-67.56294
-93.20907
-130.7955
-144.7043
-117.7087
-93.15596
-96.96621
-101.3106
-102.0244
-103.321
-105.2886
-107.0971
-108.0407
-107.5692
-106.9814
-105.0663
-102.7987
-99.44785
-95.56954
-91.84663
-87.22729
-82.31336
-76.64434
-70.68377
-64.50316
-57.90166
-51.32218
-44.73699
-37.85577
-30.78806
-23.86709
-17.09039
-10.48091
-3.8067
2.475536
8.76528
14.65725
20.27444
25.55864
30.34626
34.6752
38.57357
41.98928
44.98038
47.23391
49.08038
50.35098
51.04466
51.23116
50.95517
49.94644
48.32833
46.20312
43.53583
40.34495
36.67185
32.55696
27.81443
22.88681
17.62416
11.75987
5.699407
-0.510056
-7.195002
-13.96416
-20.60748
-27.44967
-34.34716
-41.2597
-48.21836
-54.9043
-61.35101
-67.33871
-73.10708
-78.82552
-83.85023
-88.57142
-92.59007
-96.19559
-99.44172
-101.701
-103.2421
-104.0306
-103.914
-102.7942
-100.4337
-97.07319
-93.34631
-91.42631
-93.70505
-99.28727
-95.183
-77.23195
-54.73593
-31.82191
-45.1605
-122.8076
-155.6344
-122.6654
-66.66456
-29.84709
-12.37461
-1.198818
7.243517
9.855704
6.745138
2.210728
-4.085401
-12.11954
-18.03391
-18.2373
-13.42114
-5.814149
-0.08497518
3.075514
5.104129
5.204752
5.923472
4.542733
-2.712167
-5.77588
-1.354059
0.4209809
-1.512806
-3.568235
-5.964149
-9.62693
-14.73515
-20.59413
-26.92655
-33.54014
-39.89956
-44.89766
-48.24888
-49.77695
-49.49903
-47.44961
-44.6198
-41.23251
-37.95921
-38.57094
-40.80079
-41.01309
-42.3479
-46.43763
-54.97135
-67.38554
-79.74826
-84.4597
-74.43935
-55.27902
-31.23921
-17.44118
-25.01921
-38.61224
-49.42464
-57.16268
-68.04111
-90.40382
-120.509
-132.2934
-112.8019
-94.21838
-96.40171
-99.22021
-99.93796
-101.2652
-102.8767
-104.3343
-105.3549
-104.2906
-103.6405
-102.0123
-99.8599
-96.77111
-92.61614
-89.11802
-84.64244
-79.92176
-74.2162
-68.3453
-62.54889
-56.12063
-49.28276
-42.88846
-36.42287
-29.52603
-22.41957
-15.77815
-9.585606
-2.879582
3.179542
9.442886
15.08774
20.80075
26.08332
30.60332
34.81057
38.60523
42.01048
45.0457
47.14803
49.01164
50.25464
50.93053
51.12923
50.8804
49.8492
48.22814
46.101
43.50055
40.38254
36.81981
32.89592
28.13979
23.29476
18.19784
12.6454
6.647172
0.1930231
-6.192771
-12.59718
-19.37808
-26.14393
-32.59119
-39.34157
-46.5949
-52.81747
-59.27072
-65.07923
-70.66669
-76.38234
-81.15124
-85.91283
-89.67487
-93.15222
-96.43249
-98.52403
-99.90855
-100.4513
-100.7395
-99.82932
-97.70498
-94.78708
-91.54286
-90.04057
-91.52058
-94.83452
-90.44923
-74.82246
-56.87581
-38.17461
-52.22597
-124.2935
-154.6147
-121.8923
-66.58153
-30.05273
-12.29447
-1.113417
7.736734
11.08217
7.551236
1.671738
-5.473889
-13.6878
-19.29277
-19.18807
-13.97889
-6.806219
-0.9305216
2.50369
4.76991
5.313703
6.398115
4.698457
-2.00232
-5.09877
-1.551428
-0.02608029
-1.787336
-3.820549
-6.166953
-9.947128
1.865806
1.201561
-41.87458
-21.78097
9.672271
-18.14229
1.802708
-0.3184641
7.522226
-1.308566
-3.370896
-0.5308089
-0.4915494
0.92971
1.003275
1.532041
-4.790401
-2.063221
0.2464121
-0.8238962
-78.32123
-13.95676
0.8511879
-1.349755
1.581359
-0.6355897
-2.013886
-0.6525719
-5.796655
1.221953
0.7455455
-29.03635
-22.46235
1.854337
-0.7470784
-3.4077
-6.788053
0.2831692
0.03982372
-4.185186
-17.0165
1.910973
1.135044
3.820858
30.67104
1.493087
0.7354923
1.661096
-0.1653847
-0.9320171
-10.34825
-0.2965874
-28.40237
0.01722106
0.06227066
19.38993
-1.747593
-18.20945
-10.08832
-13.23327
-0.50069
0.02284603
-23.78661
0.6072199
-9.485695
-1.553548
-38.04163
-0.5900476
1.412308
2.641223
0.101949
0.9320134
4.834086
-9.378922
21.97197
0.6942763
3.72289
-1.396256
-0.04141814
0.1268871
-13.15993
0.04215973
2.303445
-0.2081022
-7.311654
1.563938
-16.82746
-1.015498
-76.83419
-5.840314
-13.26424
23.6921
1.291248
0.2494687
1.792736
-0.27991
2.989758
5.899372
-57.7349
2.005123
0.00676451
-0.8997466
-1.295107
-73.87833
-0.3221868
-23.66538
0.6628182
1.439019
-7.572628
1.838532
-0.9802456
1.996375
3.454248
7.18692
-27.21262
0.0817191
0.1318162
1.580376
22.34181
1.228628
2.270361
0.07969325
0.1867145
-18.66251
-20.01614
-11.14882
0.1362507
-47.95753
2.612582
0.6735192
0.09826307
-0.7016726
-0.427347
0.7785442
1.667504
-6.115353
0.01674927
3.557387
0.2188379
0.1632209
-47.60788
0.9039157
-54.0534
1.281859
-0.489608
1.19345
-1.358335
-38.45564
0.5847277
0.1876376
-26.89025
-25.05699
-14.06357
0.4576663
-18.596
-58.41
1.254054
-0.08600794
-0.09394648
-16.00591
-0.2027095
-12.16757
-1.357561
-2.336813
-1.804302
3.892076
-17.16749
1.680883
-38.77672
-4.60386
1.780724
-4.936592
-0.02506387
-51.17349
-6.261087
-2.811888
1.012941
1.678071
-60.59703
-3.529255
14.38941
-0.8506505
1.957667
1.192531
4.509981
-38.3327
1.70534
0.6857396
-53.21348
0.4422464
0.61552
-0.02645934
-5.666306
-2.274841
0.3531332
1.375366
0.4014456
0.9206349
-1.700706
-26.53544
-1.155834
2.701637
1.520463
-61.04781
2.40482
-4.831723
-5.236232
1.170146
-6.882921
0.1375292
0.8135972
-6.27921
1.892849
-29.52683
-0.8196176
-11.09404
-9.350526
-0.7094104
7.480347
0.2374149
1.614348
0.948564
1.934478
1.111903
-3.025718
-3.190498
1.582121
7.640756
-2.09893
16.55508
-6.423263
-43.59132
0.8603934
-1.653924
-59.30178
0.9785227
23.60681
2.390129
2.13805
0.8453293
0.7040552
0.4233907
-2.267364
-15.79368
0.09649164
4.041472
1.486165
-51.66014
0.1948264
1.153033
-23.83213
1.229414
-1.469408
-0.688898
2.264043
-18.6088
1.50831
0.06033865
-12.90476
-5.258233
-8.502449
0.0478291
0.1769212
-1.349121
0.37987
1.148181
1.344648
0.4181666
0.1345022
-20.37331
0.004706296
-0.2042215
11.86542
-0.6709689
-15.94565
2.336476
0.4510182
-36.14536
-53.63292
0.947799
1.55163
1.196626
1.102627
1.091681
0.336119
1.581967
36.90169
0.4811073
0.8343288
-26.78034
-0.6930157
-1.651757
1.566922
1.546966
-44.93466
0.3048504
-22.56437
-0.4030854
2.405186
0.684067
-34.0213
1.065521
-2.296334
-35.20537
0.4625094
-0.3844584
-21.8087
1.439616
-28.75027
-12.58202
3.255697
-2.144076
2.252667
1.72283
0.4026288
-9.329987
33.83447
-40.29091
-58.96717
-77.90729
0.2106894
0.725049
-1.974318
-0.7427569
0.009064385
1.099994
1.337265
0.3742429
1.397536
1.697471
18.50843
0.899502
-5.737321
-34.34181
1.475701
0.5848794
1.297728
-0.9556005
-1.28877
-2.935252
-54.7504
2.744834
1.415219
-1.257281
-10.30475
4.59712
0.1046329
0.4630749
-8.438121
0.1567653
-1.664174
0.5555876
11.89219
-0.1150702
1.06309
-59.89089
-45.13418
-3.793052
0.665711
-4.308536
1.653647
1.744302
-2.883408
1.425971
-0.602907
0.8632713
0.2503157
2.141743
0.3970192
0.1471909
-1.681273
11.05875
-30.34982
1.369199
0.9497041
1.329123
-7.139298
2.075291
2.100672
-0.4725624
-0.01116384
0.4352999
-0.4909074
-17.25793
-0.3545795
1.601764
1.639104
38.78594
1.454013
-21.4882
-1.581561
1.110693
2.57295
-53.09818
-0.8175101
-0.353291
1.410717
-18.73366
0.6792245
1.329629
1.106561
-0.9501405
-22.24287
-2.129831
-17.53502
-13.48534
-44.56522
-44.79541
0.3849634
2.695092
-0.01155554
0.09170879
-14.76946
-0.3178551
0.9114818
-0.09182511
2.749513
-16.25886
-0.06162301
-6.267173
-0.9483696
0.6701777
2.594931
1.966804
0.426677
-20.06735
-0.1498699
-0.4513171
7.554762
2.714196
0.3880781
-25.74324
-5.30165
0.6764009
2.339653
-3.232378
-1.026328
-4.334655
0.7021909
-0.806973
-12.18507
-9.220465
0.2762414
1.191431
-2.846808
0.8422998
0.7606613
1.982347
-2.732389
0.4329972
-0.3652152
-48.77432
2.572997
-13.39463
1.518481
-11.55218
1.170089
3.753123
1.418324
-16.05284
1.231006
-44.26053
-1.782907
1.566084
-10.01666
1.906632
27.35127
1.138839
2.042744
-0.8564059
-8.501344
-1.735375
0.6145777
6.81215
-2.369586
-11.95444
0.6171826
-43.87304
-4.487293
1.098383
-4.141752
2.032539
0.636892
1.272978
1.98159
1.485931
2.014899
15.48416
0.3583946
0.105696
0.6410223
-19.18815
-3.479434
0.6585916
-15.19166
0.3174062
1.163683
3.53168
1.49932
3.025772
0.6765423
1.346197
0.43969
-3.527209
2.061276
1.131736
-0.4425226
2.679058
1.314955
1.37396
-16.46642
0.3712813
11.62495
-0.769002
-0.6315302
1.14036
-14.22116
2.714807
-3.047156
0.3978338
0.4592963
1.04168
-8.960216
-7.335476
1.621726
-1.401301
0.5583648
-0.3998951
0.03971757
-0.02998769
-21.45519
-5.155377
-14.82469
0.07068689
3.397505
4.150398
2.975052
0.2232808
0.448332
0.1303036
4.439364
0.7130163
1.035081
2.179318
-62.48683
1.641597
3.600307
-13.94092
0.7415492
8.170155
0.8979801
8.725719
-14.41083
-3.106455
-0.07898889
-12.28603
-1.102872
17.60155
15.0855
-9.170712
0.2993281
-7.918067
0.4126977
-9.565871
0.0907863
2.574311
-0.1016492
4.154723
28.94943
-0.09465534
0.7147059
1.89712
1.566392
-53.92366
-0.7014632
1.943959
1.66874
1.433901
1.500676
0.1155515
-7.335537
0.294374
4.971126
-0.05122058
-1.123589
-18.04334
2.667731
-1.287534
-66.99099
-2.473992
-1.369016
-28.92457
-5.870565
0.3289176
1.588068
0.139901
0.3864347
-66.18872
-2.208476
0.997098
0.8706183
1.106476
0.7018947
0.4288484
1.948509
-25.15683
-12.63038
1.358186
-26.89252
1.59201
4.696746
2.053944
-35.91407
1.433177
7.71436
-14.04989
0.2545299
-3.284678
-0.06380786
2.595409
4.721175
-3.809833
0.03347982
-2.400894
1.67118
17.23373
2.206613
0.8094568
2.097829
-1.921338
2.266271
2.575916
-10.95481
-16.58295
-20.21965
-5.687717
-13.61978
-0.41719
0.173583
1.716176
0.907936
3.770356
-4.737613
1.585983
0.9054589
1.3926
1.545512
-17.74815
1.717272
24.82149
3.05518
-35.6241
-8.639884
9.608342
6.623208
-1.784218
-32.42455
-1.526444
-0.2034924
-26.66675
-1.527052
-1.480972
0.9051677
2.393875
-0.7677292
0.02297722
0.5817738
0.3069064
1.731665
-5.830159
1.448754
-2.39014
-67.19148
1.934799
0.2924129
1.009121
-72.22305
1.412692
0.6636789
8.25157
14.16056
12.33043
1.545341
0.8507043
2.520281
-0.2146513
1.505443
-1.373409
2.027407
0.8618874
-26.00695
1.132383
-5.941199
-4.794615
1.364655
1.636656
-18.26991
1.835411
-0.4406334
-1.74662
1.619381
-7.082099
-3.875254
-6.742914
4.011951
-6.507657
0.4129134
0.6552083
-27.18153
1.488614
1.35048
0.9597343
2.597851
0.06678076
-6.47753
0.6222366
-0.09583469
-23.90591
1.827365
-3.377294
2.743061
0.08693543
0.677238
0.8699115
2.315122
-0.6066302
1.342213
-21.69954
1.898826
1.13305
-0.7075539
-0.3793391
0.5560038
1.35377
1.824816
2.147247
1.723876
2.389243
-35.0005
-0.8780348
-0.4323894
-2.288094
-3.358066
1.016879
4.335163
2.443628
-44.80244
1.513906
-3.617817
5.98914
0.3245157
-20.00755
-9.297406
0.4484078
0.4151686
-75.88604
2.227711
-13.70566
-21.57273
-3.404722
-2.887958
-2.386771
0.7928161
13.57604
2.009791
2.173295
-72.2081
1.961339
0.2180721
0.576855
-6.593499
21.86945
-6.584168
-22.85346
1.139262
-0.8729859
1.437543
0.2553259
-4.567523
0.1057309
-12.53753
-0.1367131
1.938405
-3.891114
6.418587
-0.09105461
-18.79893
-0.9013777
0.9480871
0.6662662
-0.1696278
18.4175
30.31634
0.2013702
-0.007843791
1.130957
1.38611
0.3285534
1.061907
-25.74356
1.052825
-20.526
-10.63322
-0.1677909
-3.431681
-0.2642747
-8.667976
1.009112
-22.44808
-1.715827
2.759908
-10.21933
-59.0967
1.238317
-0.312089
-2.299045
1.151939
-0.3621673
0.9325474
-59.44512
-2.892582
13.5622
0.389347
1.276087
0.350733
0.3979043
1.985759
-1.793928
-4.759203
-1.057491
-5.380572
1.502896
8.268522
-16.27089
1.505177
1.312779
-15.65435
-1.567733
1.224607
0.7879002
-2.923319
-1.986004
1.489943
1.578113
0.5085387
0.6969222
2.835413
-0.3243384
-0.8630462
31.30306
1.186341
-2.321144
-1.294895
-75.15667
-0.4649502
1.409256
1.53845
0.01031409
33.18273
0.0396543
1.469963
3.15286
1.46614
-6.181131
0.4384222
0.6437993
0.9327828
-27.60318
-12.00755
0.2289618
-3.672841
-42.17464
0.2947013
0.6933009
-2.128268
-10.30983
4.285807
30.55601
2.44695
0.07148657
0.1303099
0.2858693
1.255863
8.085527
-0.8554561
0.699377
0.2200252
0.02991262
-0.2284821
-0.6475826
-1.65874
-9.896494
1.415765
-32.23843
2.062584
3.439353
-0.4999178
-7.869045
-6.543356
1.267008
-11.86132
-4.100548
1.523958
10.90409
-11.90174
3.946014
1.861091
1.362841
-14.52858
25.91199
2.410704
-0.5124068
-5.156502
-20.03889
-1.270166
0.2152807
1.212123
1.197229
0.6754667
-37.68864
-5.693882
1.81342
3.220902
1.636194
0.06217681
-33.56895
-25.88772
-52.70569
1.865024
-35.25351
1.349631
-0.484567
-22.02472
1.342768
-0.4504313
-21.93694
-0.04421005
-0.3509108
-24.59007
2.177998
0.4145183
-37.02224
-3.291765
1.781626
14.82964
1.057928
0.5162417
-28.51697
18.72613
-36.12289
-0.008393554
0.8736159
1.661347
-6.886765
-3.305926
1.661617
1.688526
1.436366
-1.5587
-48.08912
-56.54158
1.774562
-7.303228
1.825202
0.3087358
-0.1821455
2.182659
0.6512988
-0.01600278
0.3694506
0.2631722
0.08020938
0.6726667
1.093382
-13.71391
1.277051
1.011035
-0.8687495
1.487276
1.179251
-3.426192
-21.41444
5.158422
-1.98399
1.952477
-15.42471
-43.7026
33.35904
47.16472
2.169277
-0.7368967
-32.88605
4.81618
1.454481
0.2209483
11.6872
-26.85721
1.741272
1.427052
-0.1196495
1.727494
1.397818
0.8892207
0.4397519
-26.48582
-53.20237
-7.727026
0.7705164
1.627493
1.890964
0.9860517
-27.92509
-2.083771
1.040633
1.269709
-1.6708
1.624253
1.627831
-44.20188
-28.81933
1.490467
0.1877356
-8.70679
1.951384
-3.469599
1.600348
0.1333601
-50.44334
0.9844925
-57.43038
-4.30017
0.5987003
0.1047995
-17.53232
-65.05834
-1.150581
-7.457446
-1.453209
0.4012444
-2.070954
-8.253983
-0.2650777
1.383811
1.41289
-29.505
0.6150408
-0.9460507
0.6954357
1.252624
-0.6057124
-0.02671895
-0.0003350194
-1.422763
-1.858255
0.03643579
0.0402884
-18.9268
-0.6926582
-1.239136
2.821502
0.03936848
0.1673269
1.915308
0.06215514
-0.7359706
-37.00784
-25.17054
-3.402372
1.363979
0.1683607
1.60099
-23.63887
-8.975041
-18.86697
-26.97139
23.43129
1.158872
3.168986
1.395576
-17.14942
0.04141504
3.029439
-77.97211
-20.66419
1.262947
-14.04575
2.334143
3.970807
-0.8234182
1.625227
-10.78611
-0.2743567
-57.78776
0.52567
-11.11891
35.87775
-10.03492
-5.211436
0.9924079
1.077879
-3.139707
7.641983
0.5700911
7.565602
-1.887199
2.013574
-10.51653
1.793099
-1.743192
0.7072765
-22.14192
0.3717849
-59.23902
7.436939
1.720854
14.2007
1.470355
30.23736
-0.4869948
-10.91281
-0.2215503
-1.745389
15.31263
-0.7735124
-109.3434
1.76882
-1.004976
1.060179
1.192313
-0.4367782
-12.5796
-0.8000932
0.1067819
-38.29749
-20.07775
18.80771
-65.17709
2.236988
-84.10873
-19.10938
-5.688777
-50.65842
38.51847
1.767245
1.469449
-32.93304
1.712215
-0.09860296
-2.578891
0.4788003
-21.85003
-62.80956
3.169731
1.173252
1.926436
1.950497
0.4808588
0.4590274
0.1711538
4.60538
2.096074
0.6131551
-2.478055
0.137948
0.1056068
-0.783359
-5.406379
0.01411897
0.1463559
-47.8943
0.05456594
-1.44996
-0.1302804
0.7491734
-42.752
1.630368
0.1195972
0.6545544
-2.097701
0.2989195
2.603599
0.4413003
0.4799802
-41.06609
25.77885
-1.18482
-6.364453
2.332835
-1.049279
1.155629
0.8189453
-0.02955305
0.2600085
-1.614816
-23.03721
0.277788
-13.25475
2.813286
-1.982089
2.059722
1.532174
-0.781149
0.2336309
-13.99564
-13.54198
-52.8285
-53.02234
-0.09902153
-1.784273
-1.091277
1.389518
0.6956874
-37.67768
0.09370741
1.120512
0.4394726
-10.72097
-0.1401026
0.1520663
2.615243
-61.44191
-0.3199899
0.7658116
1.801792
-71.5586
1.393976
-29.518
1.481041
1.894608
0.5784789
0.4702373
1.627888
-29.23109
1.169152
-0.018666
-0.04726924
-18.64138
-10.68581
1.847087
1.824316
2.553255
-1.736668
0.8239989
0.4754815
-58.72274
-3.647073
0.3562653
0.5408084
1.482037
-0.9997965
0.8525062
1.479135
1.193302
-13.26837
-0.0884566
1.881761
10.28418
1.808067
-10.08156
1.278766
0.8133946
-1.069236
-28.08419
-0.4977205
-1.661113
-0.003584164
-15.00329
-5.188961
-6.492628
1.714838
-10.99842
0.1911135
-10.54081
-2.442585
-0.7562643
16.16746
2.901243
-0.8960033
-68.66067
-3.238197
-7.450461
-0.7563349
-7.103548
-5.852743
-3.695494
1.419768
-2.56627
-2.570828
-13.42358
-1.111026
1.4817
2.283735
2.783359
-0.3721923
1.087209
-8.326003
1.483861
1.162918
-13.92727
-1.134649
1.179551
-0.9261354
-13.83833
7.299167
0.3731227
-4.410067
1.062544
1.289459
1.890727
-12.19436
-6.711254
1.590475
4.381503
-0.6225235
10.41341
-47.85094
-20.46739
-0.6514044
0.295114
17.49991
-0.8793286
1.074995
0.792098
-3.065549
-22.22633
-51.01228
-25.43826
-15.81272
12.58675
9.413933
-4.809028
-36.72548
-40.49607
-61.41267
1.830072
-6.294684
-1.748951
0.5760456
0.03048324
-2.262683
-0.3384702
-19.67115
0.6429353
0.09994277
0.6720261
-0.02783681
-23.1145
0.05865759
-0.4737488
0.2851307
2.658984
19.61985
0.1525353
-32.49893
-31.48395
-13.9624
8.54819
-2.358782
-9.100343
-10.54131
-53.34262
0.5835071
-53.93722
1.252161
-52.44405
-22.95485
-3.911756
1.81548
-26.42254
2.924942
14.25991
0.1958244
0.2093954
1.746759
0.7187678
-10.36484
-0.9700514
0.8409358
-0.1676594
2.078311
-26.46206
0.5051262
1.200262
2.058566
1.471566
0.8487276
-13.70829
1.099077
-44.17206
-1.304653
0.5657023
23.26198
-3.649116
1.183244
-40.88353
-2.094106
-37.61401
1.597568
0.1416159
1.39184
1.355406
-4.554661
2.130256
2.029687
1.118921
0.0581717
1.528065
0.4868925
20.42973
2.604977
-18.29808
5.801853
-3.486484
1.46996
-72.37525
1.478282
0.6350281
2.249578
1.61045
-25.30749
-48.02291
-31.47925
-12.72751
-0.1177982
-0.7559562
1.072264
0.4791968
-22.5973
0.1685941
1.41682
-32.23396
-30.84584
-14.37015
-72.42462
0.755118
-4.395637
0.03118316
-3.56608
9.791741
0.7582404
-1.019595
1.992789
-17.17172
-0.4031682
16.41388
-1.174758
0.4937724
1.03432
1.706419
0.1883761
2.819786
3.519343
-0.03451362
0.6968336
-6.692035
0.183967
-0.358056
-1.747473
1.595006
1.388572
-6.097568
-3.543977
0.5674874
0.6658212
-20.62808
0.10455
2.692907
-64.57178
27.08122
-8.896496
-1.844692
-4.762872
-25.04883
0.7264245
0.04951084
1.466501
-6.739492
-0.1384592
0.9177474
-0.1733002
-35.72844
-0.1156485
20.90216
34.01477
1.784763
-15.01453
-4.58212
2.028842
1.25212
-5.457627
32.8185
-34.39032
-3.130226
0.2981152
0.3871
0.3300005
1.397012
-2.79974
1.309374
1.152606
0.02912984
-0.15331
1.283191
0.7834231
2.238166
-31.49602
-10.23957
-2.017099
0.02598597
-69.39307
28.54628
-4.277238
0.5115803
-11.38027
-5.635366
-0.1544282
0.956169
32.11021
-8.185716
3.0455
-1.298213
-0.7860658
0.2184967
-63.03994
1.848429
-1.401517
0.7866363
0.9786954
19.55647
-3.848671
-7.410632
1.734143
1.003377
-1.923399
20.01729
2.843054
7.868631
-56.0841
-45.53023
-0.6242243
0.08362857
-43.52315
1.395061
-27.82997
-2.298769
-2.740178
1.899544
-0.5719269
-0.7823429
-12.15104
3.259682
0.338928
-7.313632
0.4454909
0.826744
-2.589109
-47.60957
-14.72155
0.2226075
2.671062
0.0271703
0.3413164
2.015156
-10.61244
0.9832114
0.6639162
-26.73507
2.536894
-1.53761
-1.411298
-6.996858
0.703123
1.030638
-7.777449
3.425809
0.3851748
0.8921355
36.06121
-23.00983
1.269069
0.148728
0.4715027
2.733481
-27.18715
-40.98733
12.97451
1.483265
0.9946764
1.223947
1.358832
0.09310441
1.039641
-0.8433527
1.884939
0.7190323
0.7747579
0.4948566
-0.6002434
11.95438
8.426868
-3.030163
0.9889989
-0.8270986
-0.6326923
1.771443
-29.35255
7.511002
-42.79049
-33.96007
0.5870196
1.653558
-65.2312
42.26763
-78.96343
0.728159
1.565836
3.890365
-0.9235621
8.27292
-18.74991
0.4129369
3.316283
0.3874089
3.014941
1.317762
-0.9585569
0.2952449
-68.23553
-0.1297133
-18.33108
-0.7937154
1.655755
-42.88537
-55.28758
-32.57329
0.9970434
14.45271
1.805675
0.503853
0.4777647
0.9011647
-22.70791
0.4923196
3.001123
30.34273
1.672002
1.56019
1.494173
25.23469
2.434311
-0.253312
2.67483
0.2349308
0.8222589
0.908726
-78.21969
-0.3088021
-60.23845
0.8841481
-0.5572986
45.32757
-2.466184
0.9849771
1.525147
3.258728
-18.92016
2.485426
-25.6699
42.62566
2.64305
-4.540035
45.65399
-23.65025
-14.02417
-1.528577
-17.55577
0.1402551
1.252922
-2.16408
2.22555
-14.65652
-5.466003
1.411715
1.409121
0.0301327
1.655639
15.86583
-0.1993378
1.109588
1.536219
0.891251
0.1996271
0.3795786
0.4202161
-0.4408974
-1.146607
-6.645221
-31.67932
-85.99793
-50.52147
-33.8376
-22.83276
0.04812908
-1.009566
0.8622822
0.5642442
3.475395
-6.26026
-22.2416
27.20641
-16.69135
1.233559
-11.20809
-2.42583
-6.310226
-48.27948
-13.18252
2.047673
-80.62626
2.710053
-0.08993632
-1.450881
1.532401
0.6598155
-0.6860092
0.3121633
1.306642
0.1330849
1.49851
2.560218
-3.182874
0.5632645
-1.616389
-0.2173467
-16.55185
-9.719377
0.3010339
-1.911255
-0.516178
-11.00512
-32.09567
1.880321
-1.155648
-0.5476257
0.2430764
7.410577
15.54412
-0.03142866
-2.098321
0.2039124