/*--------------------------------*- C++ -*----------------------------------*\
| =========                 |                                                 |
| \\      /  F ield         | OpenFOAM: The Open Source CFD Toolbox           |
|  \\    /   O peration     | Version:  2406                                  |
|   \\  /    A nd           | Website:  www.openfoam.com                      |
|    \\/     M anipulation  |                                                 |
\*---------------------------------------------------------------------------*/
FoamFile
{
    version     2.0;
    format      ascii;
    arch        "LSB;label=32;scalar=64";
    class       volVectorField;
    location    "2.06";
    object      U;
}
// * * * * * * * * * * * * * * * * * * * * * * * * * * * * * * * * * * * * * //

dimensions      [0 1 -1 0 0 0 0];

internalField   nonuniform List<vector> 
15536
(
(-0.06975189 1.733667 1.720431e-24)
(-0.1772162 2.770021 -3.581406e-19)
(-0.3571793 3.639333 -9.395205e-19)
(-0.589935 4.392106 -1.143969e-18)
(-0.8585423 5.01137 -2.117302e-20)
(-1.132516 5.399449 1.644721e-20)
(-1.372013 5.528941 2.623556e-20)
(-1.491592 5.262307 -2.611136e-20)
(-1.40226 4.453691 6.761708e-18)
(-0.9631983 2.854671 6.534258e-18)
(-0.05102671 0.3476744 0)
(0.8212667 -1.639636 0)
(0.6444371 -1.277072 -4.322363e-20)
(0.4151417 -0.7208254 1.139986e-17)
(0.6568823 -0.9723697 5.921423e-18)
(0.8890683 -1.257014 -1.223357e-17)
(0.7999129 -1.041823 6.345987e-18)
(0.3084623 -0.4022977 5.780448e-20)
(-0.7592795 0.7608245 -1.242836e-19)
(-2.08691 2.035786 6.479543e-20)
(-3.226128 3.016872 0)
(-3.764703 3.355307 1.069986e-17)
(-2.857633 2.532773 0)
(0.04818029 0.2314303 6.573513e-18)
(3.508507 -2.217818 -3.991445e-20)
(3.692505 -2.321279 -2.433581e-20)
(1.324132 -0.8716391 2.508314e-20)
(-0.9934735 0.3999207 -6.012175e-18)
(-2.308887 1.033379 -7.472812e-18)
(-3.021588 1.244511 0)
(-4.273704 1.534551 -4.328033e-20)
(-6.684731 2.112794 -6.023332e-18)
(-9.057496 2.664623 8.682886e-18)
(-8.550416 2.474441 0)
(-2.517608 0.8864207 -8.041267e-18)
(3.403992 -0.5460695 -2.633395e-20)
(0.9934757 -0.4444209 3.601818e-18)
(-2.127217 -0.1024843 -2.075472e-18)
(2.198535 0.02220028 1.835287e-21)
(7.963872 0.4430309 -4.341977e-19)
(11.26563 1.019539 1.713146e-18)
(12.94531 1.639832 -2.705243e-20)
(13.79516 2.296365 2.66906e-20)
(14.2439 2.965059 0)
(14.45951 3.619743 -6.665278e-18)
(14.50342 4.245914 -6.587375e-18)
(14.38187 4.833414 0)
(14.15908 5.387205 -1.24614e-17)
(13.86834 5.913061 1.209947e-17)
(13.53414 6.412917 1.163574e-17)
(13.14654 6.872568 4.215313e-20)
(12.70053 7.288079 -1.048768e-17)
(12.20399 7.654382 0)
(11.66586 7.97308 0)
(11.09565 8.240593 8.381574e-18)
(10.49136 8.449326 7.652253e-18)
(9.871225 8.610197 5.046091e-20)
(9.241439 8.721194 5.971661e-18)
(8.589292 8.76413 1.040208e-17)
(7.927697 8.747532 4.369696e-18)
(7.264809 8.67453 3.482188e-18)
(6.613592 8.553895 -2.421114e-20)
(5.970986 8.376141 0)
(5.334925 8.135247 9.230463e-19)
(4.718335 7.847527 0)
(4.118712 7.498921 8.035004e-19)
(3.543907 7.095864 -2.871746e-20)
(3.003902 6.64875 -2.962896e-21)
(2.498404 6.155586 1.097727e-20)
(2.031855 5.620887 -3.91442e-18)
(1.609664 5.052721 -1.908999e-20)
(1.232612 4.448653 2.636228e-18)
(0.9022749 3.810031 2.911641e-18)
(0.6237842 3.151392 0)
(0.3967403 2.477614 0)
(0.2248683 1.783255 3.555296e-18)
(0.1045835 1.078969 -1.688937e-22)
(0.03959869 0.3992731 9.677809e-19)
(0.02275435 -0.2442625 1.774183e-21)
(0.05944854 -0.9467768 -7.328094e-21)
(0.1471051 -1.698564 -1.812472e-18)
(0.2926351 -2.440617 0)
(0.4943167 -3.156422 3.248377e-18)
(0.748888 -3.843793 0)
(1.054703 -4.50194 -2.722861e-18)
(1.40954 -5.129042 2.393656e-18)
(1.812377 -5.72332 1.760647e-20)
(2.259828 -6.28363 3.497329e-18)
(2.748632 -6.800757 9.256974e-21)
(3.274342 -7.272478 -2.009661e-18)
(3.83435 -7.70093 -1.194436e-18)
(4.425999 -8.080179 5.779309e-21)
(5.046509 -8.412725 5.217521e-19)
(5.686483 -8.694612 -1.396858e-18)
(6.342078 -8.921115 2.11052e-20)
(7.002464 -9.079247 6.875408e-21)
(7.67248 -9.183738 -3.990079e-18)
(8.347795 -9.23485 0)
(9.019459 -9.22462 1.125404e-17)
(9.689634 -9.163719 6.377997e-18)
(10.33863 -9.038173 1.144229e-19)
(10.963 -8.850952 -8.055321e-18)
(11.55848 -8.60548 0)
(12.12358 -8.305823 0)
(12.65723 -7.960229 0)
(13.15062 -7.566758 0)
(13.59344 -7.126555 1.118822e-17)
(13.98214 -6.643602 1.17599e-17)
(14.31626 -6.122702 3.173527e-20)
(14.59204 -5.573589 -1.251414e-17)
(14.77613 -4.987295 -6.351153e-18)
(14.84797 -4.367678 -6.520031e-18)
(14.7659 -3.713867 5.088261e-20)
(14.49132 -3.032247 6.55445e-18)
(13.97048 -2.338081 3.338751e-18)
(13.06203 -1.662738 -2.568593e-20)
(11.34917 -1.038728 -5.97243e-21)
(7.863568 -0.4759448 3.954499e-19)
(2.141559 -0.07327458 -7.970703e-19)
(-3.081096 -0.3443425 -2.134704e-20)
(-5.991787 -1.063702 1.40132e-20)
(-7.389558 -1.30183 3.704673e-18)
(-5.392453 -0.8521752 2.545689e-20)
(-2.554434 -0.210006 0)
(4.196751 1.588801 -1.786064e-18)
(6.646559 2.051881 -2.243629e-18)
(-4.356807 -2.271583 -1.2908e-20)
(-11.34218 -5.188468 1.728016e-17)
(-10.60487 -5.002698 -1.388695e-17)
(-7.960334 -4.017595 0)
(-5.161808 -2.82542 0)
(-3.064083 -1.806081 -1.802838e-18)
(-1.237124 -0.6931948 0)
(1.249169 1.021765 -8.291642e-21)
(3.233694 2.507191 1.116735e-18)
(2.708136 2.201434 7.865873e-19)
(1.304894 1.117711 -1.337638e-21)
(0.2139778 0.1038422 -3.865422e-19)
(-1.388223 -1.731608 -2.039449e-20)
(-2.733691 -3.497577 4.511901e-18)
(-3.144213 -4.181588 2.353512e-18)
(-2.626712 -3.708671 1.705303e-18)
(-1.783288 -2.640281 6.610555e-19)
(-0.78035 -1.153561 0)
(0.08783832 0.1716842 2.457161e-21)
(0.001774759 -0.07171095 8.239784e-19)
(-0.5525427 -1.333481 0)
(-0.4478689 -1.071489 -8.872771e-19)
(0.3186711 1.190696 4.236581e-21)
(0.9212412 2.956705 -9.87724e-22)
(0.7980698 2.537632 3.688133e-19)
(0.1609129 0.5373242 1.049252e-21)
(0.01016008 0.2337947 0)
(0.02281356 -0.07704645 4.187647e-20)
(-0.05837134 -1.041012 6.396914e-22)
(-0.03746788 -0.3589231 5.396346e-22)
(-0.01895445 0.6510944 -5.135318e-22)
(-0.1830027 1.684574 -1.048211e-19)
(-0.2868466 2.785038 2.942503e-19)
(-0.4885344 3.706312 0)
(-0.7527903 4.511823 9.405966e-19)
(-1.052983 5.187937 0)
(-1.359638 5.645305 5.042423e-18)
(-1.621705 5.836415 2.150922e-20)
(-1.83645 5.85787 -2.123605e-20)
(-1.936905 5.683467 -5.389624e-18)
(-1.773941 5.055062 -5.055838e-18)
(-0.9338753 2.883748 0)
(0.4775791 -0.5906124 3.527998e-20)
(0.7370905 -1.506894 -6.833777e-22)
(0.8704645 -1.471552 -4.627023e-18)
(1.386287 -1.954012 -9.598303e-18)
(1.68955 -2.330849 4.911345e-18)
(1.333969 -1.826916 -4.984704e-18)
(0.3349799 -0.6810055 -4.141507e-20)
(-1.022487 0.7619715 0)
(-2.435218 2.121676 0)
(-3.597851 3.160037 0)
(-4.133555 3.567124 8.790952e-18)
(-3.875919 3.434344 4.846866e-20)
(-1.557182 1.764721 -4.842985e-20)
(3.476363 -1.952813 1.97761e-20)
(4.141167 -2.807473 -2.011472e-20)
(1.980403 -1.555083 0)
(0.2863935 -0.4557255 0)
(-0.437484 0.05250635 1.275948e-17)
(-0.6081643 0.1067315 5.964848e-20)
(-1.371817 0.2093444 -5.670565e-20)
(-3.506586 0.6591219 5.176491e-18)
(-5.559717 1.27992 7.483711e-18)
(-7.651121 2.169617 -5.470158e-20)
(-4.466236 1.551875 -6.051927e-18)
(2.755928 -0.1832807 2.414039e-18)
(6.419592 -0.789428 2.735304e-21)
(9.388266 -0.3221406 1.357447e-18)
(13.08693 0.2111637 0)
(17.02163 0.5873466 2.966188e-19)
(18.03961 0.9635811 2.475213e-18)
(18.21454 1.476527 2.592576e-18)
(18.17089 2.099949 2.630574e-18)
(18.01855 2.755791 -8.185376e-20)
(17.80025 3.422808 5.329704e-18)
(17.52644 4.084863 -4.0546e-20)
(17.21275 4.73774 0)
(16.8458 5.363742 9.918002e-18)
(16.41845 5.960329 0)
(15.94866 6.524768 -6.987716e-20)
(15.42921 7.044578 7.007707e-20)
(14.85719 7.516582 8.364279e-18)
(14.23975 7.934287 -5.857356e-20)
(13.58381 8.297603 7.290206e-18)
(12.89705 8.603063 -6.735786e-18)
(12.18291 8.847942 0)
(11.45182 9.040748 3.987997e-20)
(10.71042 9.176755 -4.895041e-18)
(9.954221 9.243248 -8.281065e-18)
(9.188212 9.242128 0)
(8.424707 9.183679 -2.793835e-18)
(7.672499 9.06902 -1.34954e-20)
(6.932216 8.890827 1.381021e-18)
(6.205059 8.648564 2.731437e-21)
(5.497389 8.348412 -2.7659e-21)
(4.813973 7.986585 -6.516061e-19)
(4.157943 7.566921 1.324756e-18)
(3.539875 7.094642 0)
(2.960904 6.575274 0)
(2.426078 6.012615 -1.788169e-20)
(1.939515 5.408528 0)
(1.504216 4.764715 0)
(1.122004 4.084537 0)
(0.7975319 3.378978 -2.611408e-18)
(0.5293784 2.657722 2.100649e-20)
(0.3284477 1.91265 1.176294e-20)
(0.183165 1.15813 -5.723224e-21)
(0.1028087 0.4249503 -7.947214e-19)
(0.08390572 -0.2751564 3.197267e-21)
(0.1397818 -1.031219 -7.776875e-19)
(0.2473084 -1.835789 1.474878e-18)
(0.4222375 -2.629461 1.121343e-20)
(0.6615491 -3.394542 -2.629601e-18)
(0.9605926 -4.130203 -3.836061e-20)
(1.31816 -4.835884 2.252103e-18)
(1.73056 -5.5052 -1.989814e-18)
(2.198194 -6.137732 0)
(2.71358 -6.733406 -5.705097e-18)
(3.275007 -7.277907 -1.5312e-20)
(3.879509 -7.774315 1.62783e-18)
(4.521378 -8.226597 9.737191e-19)
(5.198077 -8.62184 0)
(5.907381 -8.962778 0)
(6.640683 -9.253733 0)
(7.391446 -9.477863 1.649322e-20)
(8.154164 -9.632115 -1.637485e-20)
(8.92797 -9.727354 3.121524e-18)
(9.707562 -9.76194 5.511046e-21)
(10.48864 -9.73236 -4.542903e-18)
(11.26522 -9.643157 -8.018452e-20)
(12.02706 -9.489725 1.155761e-17)
(12.76613 -9.269884 6.383988e-18)
(13.47831 -8.986119 -5.180616e-20)
(14.16556 -8.645067 7.369924e-18)
(14.8228 -8.251688 6.004405e-20)
(15.44168 -7.802329 -6.754426e-20)
(16.01465 -7.302546 6.726829e-20)
(16.53758 -6.755268 7.323775e-20)
(17.01082 -6.166706 9.599044e-18)
(17.42748 -5.540995 -7.542702e-20)
(17.78312 -4.886384 0)
(18.08756 -4.209466 0)
(18.34698 -3.523222 0)
(18.54497 -2.839588 0)
(18.65457 -2.157403 1.919784e-20)
(18.63119 -1.509886 -1.908462e-20)
(18.36434 -0.9840376 1.126468e-18)
(17.15255 -0.6272943 4.240783e-21)
(12.84822 -0.3380534 0)
(4.273868 -0.2289181 -1.275625e-18)
(-3.958584 -0.4742848 3.305329e-18)
(-1.9201 -0.08232015 -3.373168e-18)
(0.276357 0.4092101 3.148819e-20)
(1.124102 0.8143705 -2.993232e-18)
(4.027428 1.715795 1.591738e-20)
(4.833772 1.013799 0)
(-8.182406 -4.285799 9.57948e-18)
(-11.1842 -4.944237 -2.795134e-17)
(-9.619683 -4.047936 -1.118394e-17)
(-7.105654 -3.090946 -3.388181e-20)
(-4.536782 -2.123419 -5.794741e-20)
(-2.654159 -1.333675 1.913736e-20)
(-1.127903 -0.3448742 0)
(0.868936 1.150081 -7.739944e-19)
(3.561501 3.02599 -8.887707e-19)
(3.71306 3.009328 -1.810854e-21)
(1.683877 1.252759 4.23736e-19)
(-0.3495381 -0.7467999 3.169912e-19)
(-2.512066 -3.161244 1.057411e-18)
(-3.440416 -4.289499 4.7158e-22)
(-3.303831 -4.178854 -1.923883e-18)
(-2.80873 -3.702814 -1.289775e-20)
(-1.937318 -2.576517 -5.36533e-19)
(-0.9000882 -1.047717 -2.239893e-21)
(-0.0263519 0.1090317 -1.676459e-21)
(0.2446569 0.2769859 5.223148e-21)
(-0.8013543 -1.973788 0)
(-0.6347311 -1.093969 0)
(0.1636047 1.415331 6.199691e-19)
(0.8506652 3.058499 0)
(1.117442 3.466901 -5.91453e-19)
(0.5582908 1.804328 3.836572e-20)
(0.08469421 0.04859498 -1.552211e-24)
(-0.1019284 -1.39901 1.532359e-24)
(-0.1664267 -1.542022 1.00345e-19)
(-0.1571881 -0.4516793 -8.722659e-20)
(-0.1215441 0.5283357 -6.888697e-20)
(-0.2960412 1.623041 8.400972e-20)
(-0.3742637 2.718109 -2.390103e-19)
(-0.5548194 3.632762 1.098794e-20)
(-0.793836 4.433122 -7.823432e-19)
(-1.050429 5.111458 0)
(-1.299986 5.576748 -4.150133e-18)
(-1.514976 5.789199 -3.555507e-20)
(-1.684241 5.74972 2.320457e-18)
(-1.758133 5.49734 4.465026e-18)
(-1.701418 5.216186 4.120612e-18)
(-1.299594 4.317574 3.766631e-18)
(-0.1827151 1.404887 -2.984674e-20)
(0.5386785 -0.906941 0)
(1.162674 -1.820265 0)
(1.728303 -2.339575 3.822647e-18)
(1.727999 -2.463032 4.0651e-18)
(1.038027 -1.677942 4.128691e-18)
(-0.09050699 -0.4788472 6.672688e-20)
(-1.378811 0.8645708 0)
(-2.718997 2.155068 5.836645e-18)
(-3.764097 3.172722 6.766061e-18)
(-4.181978 3.657765 -7.282576e-18)
(-3.747263 3.557855 0)
(-2.137071 2.66861 4.025809e-18)
(2.178245 -0.6353856 0)
(3.616041 -2.506895 -1.767099e-18)
(2.72256 -2.134557 0)
(2.464566 -1.596366 -3.907673e-18)
(2.724195 -1.328988 -9.945401e-18)
(2.993334 -1.338321 0)
(2.063947 -1.193127 0)
(0.1188329 -0.7564708 8.490065e-21)
(-1.856678 0.1284188 -6.544653e-18)
(-2.857793 1.254234 7.117962e-18)
(-2.844891 1.623518 9.869119e-18)
(6.195315 -0.1087411 -1.711475e-18)
(13.80042 -0.9393808 1.878552e-18)
(16.40678 -0.3921358 -9.882641e-19)
(17.75878 0.3902372 0)
(18.13737 0.8633824 0)
(17.73978 1.314486 -2.048758e-18)
(17.68485 1.946447 -2.175082e-18)
(17.62458 2.630935 -4.303623e-18)
(17.50719 3.317369 4.27952e-18)
(17.32847 4.004419 1.007181e-19)
(17.08846 4.661598 -6.693373e-20)
(16.78103 5.293661 0)
(16.40566 5.886123 0)
(15.97567 6.449622 7.767372e-18)
(15.50387 6.983652 -7.479157e-18)
(14.98629 7.469244 0)
(14.41868 7.906848 0)
(13.80906 8.289078 9.611473e-20)
(13.16243 8.618995 -6.076746e-18)
(12.48801 8.89054 0)
(11.78951 9.100678 -4.907052e-18)
(11.07494 9.261557 -4.403762e-18)
(10.35292 9.366644 -3.828786e-18)
(9.619895 9.401593 3.329669e-18)
(8.876982 9.371802 -3.925879e-20)
(8.1375 9.288024 2.243124e-18)
(7.410053 9.150557 0)
(6.696993 8.950408 -1.126048e-18)
(5.998593 8.688046 -4.101746e-21)
(5.318646 8.371308 8.749351e-21)
(4.667917 7.992156 -5.979869e-19)
(4.041221 7.559835 0)
(3.451679 7.077426 -1.668477e-18)
(2.899364 6.550954 -1.860079e-20)
(2.391551 5.983109 2.64621e-18)
(1.929139 5.376779 1.551093e-18)
(1.516305 4.732627 -1.759055e-18)
(1.153462 4.054116 -1.953168e-18)
(0.8449555 3.351528 2.122967e-18)
(0.5880646 2.635111 -2.281421e-18)
(0.3994914 1.894713 -1.173955e-18)
(0.2562242 1.146661 2.484079e-18)
(0.1736325 0.4201624 1.299065e-18)
(0.1534076 -0.2775641 2.620911e-21)
(0.2190436 -1.029042 6.434878e-19)
(0.3213126 -1.827663 -9.602607e-21)
(0.4872427 -2.61456 0)
(0.7137399 -3.37413 -1.645844e-20)
(0.9953284 -4.106149 -1.404454e-20)
(1.332826 -4.809492 -1.782542e-18)
(1.720922 -5.478347 3.26713e-18)
(2.165626 -6.11106 -1.425723e-18)
(2.653051 -6.710425 2.314083e-18)
(3.184084 -7.261 1.643072e-20)
(3.760249 -7.764748 0)
(4.371185 -8.228335 8.500684e-19)
(5.016359 -8.637157 1.07287e-22)
(5.696567 -8.992691 2.459132e-19)
(6.400443 -9.301983 0)
(7.120738 -9.5476 1.388693e-18)
(7.856223 -9.724134 0)
(8.603494 -9.844754 -5.445936e-20)
(9.35666 -9.907642 3.061939e-18)
(10.11532 -9.906388 0)
(10.8691 -9.849532 -4.209671e-18)
(11.61049 -9.730247 -4.739002e-18)
(12.33154 -9.545578 -5.234301e-18)
(13.02776 -9.297425 0)
(13.70297 -8.991102 -1.231003e-17)
(14.35031 -8.63399 9.855375e-20)
(14.96223 -8.220023 0)
(15.53102 -7.755965 0)
(16.05286 -7.24258 0)
(16.52696 -6.68828 7.770839e-18)
(16.94652 -6.101087 -8.009012e-18)
(17.30405 -5.475963 0)
(17.58966 -4.818393 0)
(17.81369 -4.131125 4.117833e-18)
(17.97511 -3.42481 3.267325e-20)
(18.06197 -2.713168 0)
(18.08147 -2.00705 0)
(18.07998 -1.369092 -1.867903e-18)
(18.3448 -0.9393675 2.098168e-19)
(17.99853 -0.7007132 0)
(13.68456 -0.4318568 8.283017e-19)
(7.481487 0.09990579 3.427959e-20)
(6.81558 1.254876 1.549628e-20)
(7.329267 1.896987 -3.2749e-20)
(7.029697 2.13964 2.282024e-18)
(4.753406 1.829211 1.187523e-18)
(1.446671 -0.7512335 1.832025e-20)
(-8.062781 -4.977276 6.913842e-20)
(-8.560674 -4.076597 1.194073e-17)
(-8.016567 -3.134573 9.381873e-18)
(-5.65018 -2.01159 0)
(-3.224404 -1.129312 2.668318e-18)
(-1.661109 -0.5616338 0)
(-0.5403757 0.2595844 3.841391e-21)
(0.5821733 1.298023 6.155193e-19)
(3.035856 2.78686 -9.879343e-21)
(3.303695 2.499399 9.742069e-21)
(1.548747 0.7641401 -3.442949e-19)
(-0.403246 -1.209877 -1.288905e-19)
(-2.459756 -3.422441 -8.505435e-19)
(-3.233134 -4.201714 -1.508156e-18)
(-3.218268 -4.110079 -1.574683e-18)
(-2.806697 -3.56209 0)
(-2.030461 -2.410197 -7.475435e-21)
(-1.004194 -0.8808597 0)
(-0.1327476 0.08764519 3.788082e-19)
(0.567106 0.7016988 -5.502078e-19)
(-0.6999673 -1.981072 0)
(-0.7828285 -1.001847 0)
(-0.1521884 1.284596 -9.81076e-19)
(0.6308848 2.731667 -1.044792e-19)
(1.115467 3.15786 4.935508e-19)
(0.7656138 2.014672 9.488231e-23)
(0.1435248 -0.6089224 -9.692324e-23)
(-0.1072693 -2.041033 0)
(-0.1840264 -1.381266 -8.14418e-20)
(-0.2590257 -0.5806543 1.392626e-19)
(-0.2251953 0.4960334 5.708029e-20)
(-0.435628 1.520552 -1.374956e-19)
(-0.4908528 2.641975 -7.130185e-21)
(-0.6545778 3.541013 7.028956e-21)
(-0.8772889 4.316842 -2.162469e-20)
(-1.114888 4.992185 2.16109e-20)
(-1.349897 5.468208 1.709288e-18)
(-1.564596 5.688404 -2.930496e-20)
(-1.707229 5.653056 -1.920798e-18)
(-1.723536 5.377441 5.805449e-20)
(-1.549129 4.954856 -3.378875e-18)
(-1.250184 4.650058 -3.076923e-20)
(-0.576279 2.913086 0)
(0.2613451 0.1561498 0)
(1.320619 -1.817697 -3.061551e-18)
(1.780658 -2.314431 -3.197144e-18)
(1.474044 -2.241576 -6.693098e-18)
(0.6599775 -1.462375 -3.380175e-18)
(-0.4550187 -0.3743963 0)
(-1.661419 0.8568779 0)
(-2.940279 2.082027 -9.479926e-18)
(-3.835861 3.066181 -1.109389e-17)
(-4.085632 3.567954 8.875294e-20)
(-3.509959 3.561279 -1.489481e-19)
(-2.023227 3.081283 -6.458548e-18)
(1.183591 0.5943836 -1.890594e-18)
(3.158899 -2.054318 1.501151e-18)
(3.926436 -2.770294 1.911471e-18)
(4.983715 -2.77458 3.011359e-18)
(5.81349 -2.646333 3.943471e-18)
(6.177822 -2.676014 0)
(5.429684 -2.641078 -8.992519e-20)
(3.996874 -2.331844 -6.677809e-18)
(2.350162 -1.333002 5.11383e-20)
(0.9969279 0.2452616 9.981759e-20)
(1.578405 1.31295 -3.798158e-18)
(11.50407 0.005360778 -1.22147e-18)
(17.42399 -0.8842235 -2.437356e-20)
(17.9049 -0.5366045 -7.675589e-19)
(17.95401 0.1779171 -3.778238e-19)
(17.61014 0.5850594 -3.090778e-21)
(17.61873 0.9465034 0)
(17.7553 1.508025 -2.736113e-20)
(17.772 2.136564 1.810465e-18)
(17.69179 2.797841 -7.079242e-18)
(17.53135 3.474599 5.438247e-20)
(17.30017 4.136198 -3.483714e-18)
(16.99587 4.778627 -1.042424e-19)
(16.62622 5.382431 -6.533653e-18)
(16.1991 5.962083 7.233809e-22)
(15.72929 6.517618 6.169868e-18)
(15.21481 7.022155 -5.788972e-18)
(14.64909 7.48161 0)
(14.04054 7.885215 7.776225e-20)
(13.3929 8.23909 -7.82682e-20)
(12.71575 8.535587 0)
(12.01248 8.771553 4.04251e-18)
(11.29193 8.958107 7.267096e-20)
(10.56285 9.088645 3.200472e-18)
(9.822902 9.147618 -2.678773e-18)
(9.074243 9.138583 -2.222206e-18)
(8.325405 9.077106 -1.813162e-18)
(7.589539 8.960304 -1.311541e-18)
(6.86855 8.779098 9.917716e-21)
(6.160884 8.53506 -1.002102e-20)
(5.471052 8.236371 0)
(4.810955 7.873696 4.875101e-19)
(4.174354 7.457022 -1.807667e-20)
(3.575872 6.988694 1.388414e-18)
(3.015302 6.475066 1.7666e-18)
(2.501888 5.918293 -2.150506e-18)
(2.033637 5.322548 -1.272473e-18)
(1.615801 4.688287 -3.914496e-21)
(1.248316 4.019194 1.601278e-18)
(0.9379678 3.324612 2.795347e-20)
(0.6774255 2.61606 1.826737e-18)
(0.490209 1.880708 1.545983e-20)
(0.34454 1.136767 -1.037044e-18)
(0.2586928 0.414677 -5.289678e-19)
(0.2370039 -0.2852644 -6.516385e-23)
(0.3145484 -1.033235 5.102852e-19)
(0.417723 -1.82561 7.859588e-21)
(0.5835987 -2.605538 -9.464028e-19)
(0.8126823 -3.357646 1.782797e-18)
(1.09741 -4.080701 0)
(1.438544 -4.773399 -3.885706e-21)
(1.83028 -5.430399 -1.343559e-18)
(2.281279 -6.050292 1.200919e-18)
(2.773349 -6.637332 -1.994779e-18)
(3.313704 -7.172751 2.127445e-20)
(3.900921 -7.660788 -2.106365e-20)
(4.518318 -8.110539 -6.984589e-19)
(5.173446 -8.502269 0)
(5.867741 -8.838197 -2.087782e-19)
(6.579092 -9.131338 2.031722e-20)
(7.308175 -9.357954 -6.329965e-20)
(8.054223 -9.513362 -1.518653e-18)
(8.810472 -9.613088 -2.08242e-18)
(9.572099 -9.653801 -2.177376e-20)
(10.33852 -9.629358 2.897995e-18)
(11.10113 -9.54702 -4.902715e-20)
(11.8489 -9.402912 -3.76677e-18)
(12.57583 -9.19169 0)
(13.27856 -8.915213 4.55259e-18)
(13.95735 -8.583448 4.997391e-18)
(14.60463 -8.204324 5.159732e-18)
(15.21596 -7.767301 -5.47128e-18)
(15.78266 -7.281967 5.838487e-18)
(16.30235 -6.747891 0)
(16.77415 -6.173711 -1.271459e-17)
(17.1901 -5.57254 1.321393e-17)
(17.54278 -4.934624 -1.557851e-19)
(17.82756 -4.264699 -3.355644e-18)
(18.04166 -3.574739 -3.376855e-18)
(18.17781 -2.880697 0)
(18.21889 -2.197959 1.692558e-18)
(18.14894 -1.550562 -1.643001e-18)
(17.96782 -0.9958392 7.808625e-19)
(17.80791 -0.6618326 -1.823072e-19)
(18.43169 -0.6228825 -3.284517e-19)
(18.20647 -0.4509783 9.899505e-21)
(16.25722 0.5479624 -1.632099e-18)
(15.31571 2.128846 5.421462e-20)
(14.29202 2.9295 0)
(12.68872 2.977846 0)
(7.920893 2.093346 -3.290473e-20)
(0.297227 -1.910068 2.819166e-20)
(-6.014791 -4.912794 0)
(-6.527481 -3.258493 0)
(-6.189772 -2.010193 0)
(-4.161858 -0.8285446 4.411344e-18)
(-1.79098 -0.03896454 -4.432149e-18)
(-0.4266222 0.3389797 1.046169e-18)
(0.3209474 0.9698312 -1.412162e-19)
(0.4559989 1.469375 1.106348e-20)
(2.142305 2.236055 -6.309495e-19)
(2.380754 1.512221 -4.473955e-19)
(1.339253 0.1840294 -9.726886e-22)
(-0.1835829 -1.450092 7.691889e-21)
(-2.121588 -3.415991 -6.5983e-21)
(-3.048987 -4.095697 -1.974896e-20)
(-3.157682 -3.946676 1.340402e-18)
(-2.814126 -3.371254 0)
(-2.127577 -2.180665 3.601919e-19)
(-1.109043 -0.6775395 7.108042e-20)
(-0.2094635 0.2338186 -3.010558e-19)
(0.8540384 1.037711 0)
(-0.4091983 -1.680067 0)
(-0.917571 -0.8625786 6.727864e-21)
(-0.5295836 1.011666 3.878068e-19)
(0.3143801 2.100945 8.481733e-20)
(1.0093 2.42979 -2.079539e-19)
(0.8827017 1.600392 0)
(0.2046591 -1.510187 0)
(-0.1009088 -2.236023 0)
(-0.2928104 -1.408902 -6.610101e-20)
(-0.3777004 -0.681125 -5.832239e-20)
(-0.3621759 0.4000711 -9.336851e-20)
(-0.6003638 1.371714 5.631672e-20)
(-0.6363843 2.550233 0)
(-0.7779808 3.416698 -4.225404e-19)
(-0.9657386 4.15743 0)
(-1.172652 4.843387 -1.234262e-18)
(-1.377683 5.35346 0)
(-1.543147 5.608837 0)
(-1.635495 5.594792 -1.557904e-18)
(-1.618996 5.33493 -3.046017e-18)
(-1.423109 4.844881 2.841711e-18)
(-1.056784 4.511674 -2.530296e-18)
(-0.6260417 3.671692 2.345056e-18)
(0.06350102 1.282145 0)
(1.400558 -1.528205 4.971309e-18)
(1.667141 -2.058789 2.647585e-18)
(1.137486 -1.949484 2.839821e-18)
(0.3105592 -1.30215 -8.516438e-20)
(-0.784098 -0.349128 -9.920517e-20)
(-1.941757 0.7831791 -3.228257e-18)
(-3.139468 1.950709 7.767648e-18)
(-3.84256 2.892901 4.56885e-18)
(-3.854921 3.400914 1.487783e-19)
(-3.131978 3.464738 4.038739e-18)
(-1.603622 3.225117 2.693069e-18)
(0.8693591 1.411054 1.52434e-18)
(3.137902 -1.628904 0)
(5.449689 -3.346453 -3.339375e-20)
(7.444743 -3.774746 0)
(8.631532 -3.770056 2.922669e-18)
(9.11213 -3.882875 3.316402e-18)
(8.751213 -4.032407 3.808389e-18)
(8.03009 -3.933984 -1.591899e-19)
(6.954799 -2.881258 1.0354e-19)
(5.816052 -0.7330742 -9.023513e-18)
(8.403159 0.849812 0)
(15.77264 0.2392361 -9.629246e-19)
(17.76968 -0.6515966 -1.132138e-18)
(17.21086 -0.4712763 1.277882e-18)
(17.37554 0.2520035 3.023532e-19)
(17.26603 0.7738269 0)
(17.38964 1.274128 6.872299e-19)
(17.47593 1.891921 0)
(17.47748 2.539754 0)
(17.39053 3.190996 2.958625e-18)
(17.22825 3.860625 -4.503045e-20)
(16.99959 4.497983 4.75489e-20)
(16.69941 5.113212 -2.740959e-18)
(16.33603 5.68477 5.486929e-18)
(15.91548 6.233112 -5.214788e-18)
(15.45556 6.757896 -5.0109e-18)
(14.95668 7.222655 2.285507e-19)
(14.40451 7.649678 -1.445214e-19)
(13.8132 8.018559 -1.263181e-19)
(13.18211 8.343109 -3.622857e-18)
(12.52362 8.612378 -3.666396e-18)
(11.83956 8.821658 -9.554652e-20)
(11.13625 8.987442 3.025084e-18)
(10.42908 9.09675 0)
(9.712199 9.135127 2.20555e-18)
(8.981055 9.112027 1.829095e-18)
(8.250728 9.038419 1.399171e-18)
(7.535731 8.910788 1.078977e-18)
(6.834308 8.721492 0)
(6.146354 8.469755 0)
(5.47303 8.168221 -8.412779e-20)
(4.831971 7.802099 0)
(4.209006 7.386226 0)
(3.625767 6.919562 1.20348e-18)
(3.081083 6.408467 -2.567628e-20)
(2.576599 5.857749 -1.282698e-20)
(2.115523 5.268159 -3.475939e-20)
(1.705509 4.640425 2.411039e-18)
(1.346777 3.978094 0)
(1.046381 3.290484 0)
(0.782123 2.593786 1.544435e-18)
(0.6002881 1.865125 7.747204e-19)
(0.4515426 1.124966 8.3551e-19)
(0.3614578 0.4076275 -4.326805e-19)
(0.3388372 -0.2962638 0)
(0.4324527 -1.037157 -3.178284e-22)
(0.5370619 -1.82215 2.504183e-20)
(0.6929839 -2.594961 7.50367e-19)
(0.9146097 -3.336537 -1.460656e-18)
(1.193453 -4.046947 -4.094876e-20)
(1.528487 -4.727468 1.243596e-18)
(1.913348 -5.373573 3.648522e-20)
(2.357467 -5.984603 1.940136e-18)
(2.834665 -6.567022 -1.548361e-20)
(3.360378 -7.098322 -1.34603e-18)
(3.937446 -7.583625 3.523818e-20)
(4.539243 -8.034539 0)
(5.172964 -8.429643 2.672382e-19)
(5.852049 -8.768752 0)
(6.548369 -9.067533 0)
(7.254899 -9.304368 -8.991823e-19)
(7.980971 -9.469798 2.495573e-18)
(8.719685 -9.58083 5.659337e-20)
(9.460407 -9.636634 -1.138241e-19)
(10.20642 -9.628865 -2.380391e-18)
(10.94796 -9.567585 -2.684471e-18)
(11.67519 -9.44611 3.205787e-18)
(12.38035 -9.261751 -3.463648e-18)
(13.06108 -9.015127 -7.784756e-20)
(13.72255 -8.710855 0)
(14.35212 -8.364034 -4.467013e-18)
(14.94784 -7.959269 9.370822e-18)
(15.49982 -7.510086 -4.968187e-18)
(16.00549 -7.013595 0)
(16.46808 -6.473753 9.502497e-20)
(16.87629 -5.905899 -5.294098e-18)
(17.22249 -5.298649 -8.427415e-20)
(17.50314 -4.654423 1.367772e-19)
(17.71508 -3.986435 -8.657951e-20)
(17.85284 -3.312265 0)
(17.90449 -2.630472 -2.697576e-18)
(17.85596 -1.958832 1.278739e-18)
(17.72269 -1.348209 6.172029e-19)
(17.50324 -0.8657667 -9.413828e-21)
(17.67786 -0.6409668 2.714279e-19)
(18.54336 -0.3408945 5.382795e-19)
(18.83012 0.8875569 0)
(18.17608 2.56169 1.365554e-18)
(16.67804 3.325086 -5.433292e-20)
(15.17672 3.142981 1.427327e-18)
(10.80741 1.927793 0)
(1.523215 -2.459459 0)
(-2.906323 -4.328793 0)
(-3.986816 -2.293178 1.304363e-19)
(-3.836948 -0.6418065 6.845867e-18)
(-2.361141 0.527574 -3.851034e-18)
(-0.3351511 1.093495 1.926924e-18)
(0.9067688 1.283791 -1.635435e-18)
(1.333675 1.676982 1.130397e-19)
(0.5806538 1.650891 0)
(1.150689 1.470168 5.326214e-19)
(1.518175 0.583187 3.678896e-19)
(1.155388 -0.2992255 -1.813517e-19)
(-0.02338639 -1.762104 7.218631e-22)
(-1.832742 -3.501716 -2.496157e-20)
(-2.869574 -4.026624 2.622856e-20)
(-3.070802 -3.767402 0)
(-2.826621 -3.138615 -7.896161e-19)
(-2.221986 -1.886217 4.052675e-21)
(-1.243476 -0.4872785 -1.060719e-19)
(-0.2523461 0.4429305 2.541852e-19)
(1.037711 1.192779 -2.073668e-20)
(0.03160195 -1.149175 3.590507e-19)
(-0.9639674 -0.6386841 0)
(-0.9088127 0.6038561 2.955799e-19)
(-0.07853129 1.22417 9.151997e-20)
(0.8551237 1.633974 -7.473345e-21)
(0.9373698 0.6939774 3.197468e-20)
(0.2904069 -2.348867 3.275675e-23)
(-0.1097333 -2.267519 5.802259e-23)
(-0.4047373 -1.618102 5.502535e-20)
(-0.5201203 -0.8017703 -9.65955e-22)
(-0.5168541 0.2628592 5.916238e-22)
(-0.8064905 1.17703 3.54038e-21)
(-0.7955827 2.423116 1.290916e-19)
(-0.8956033 3.235669 3.469493e-19)
(-1.059921 3.973254 -4.269446e-19)
(-1.242879 4.698842 1.013355e-18)
(-1.418024 5.240037 0)
(-1.542806 5.511261 1.17368e-18)
(-1.594703 5.504738 1.363353e-18)
(-1.528434 5.255534 2.507395e-18)
(-1.312807 4.808208 0)
(-0.8711366 4.336215 0)
(-0.4609353 3.897191 -1.917784e-18)
(0.04675846 2.23236 -5.938839e-20)
(1.436418 -0.9527719 -1.943642e-18)
(1.520224 -1.73364 -2.200729e-18)
(0.819114 -1.706345 -2.257828e-18)
(-0.01196889 -1.231786 2.270238e-18)
(-1.094845 -0.4104069 -2.319622e-18)
(-2.222123 0.6361955 2.534369e-18)
(-3.311141 1.754066 -3.095048e-18)
(-3.816128 2.695221 0)
(-3.58725 3.241154 0)
(-2.616968 3.316323 -3.452065e-18)
(-0.9841629 3.207117 0)
(1.156223 1.852706 -3.19393e-20)
(3.657418 -1.285731 2.315482e-21)
(7.081694 -3.693157 -1.162945e-18)
(9.477878 -4.428171 -4.762926e-20)
(10.7955 -4.560938 -2.602016e-20)
(11.42842 -4.773299 -2.633696e-18)
(11.58482 -5.094921 8.525016e-21)
(11.89415 -5.259706 1.970123e-18)
(12.33691 -4.302683 -9.66443e-20)
(12.69927 -1.762488 3.482091e-18)
(14.75145 0.401859 -7.645123e-20)
(17.69383 0.3696365 3.1372e-18)
(16.96868 -0.5314051 2.846354e-20)
(16.88142 -0.4497677 -9.316978e-21)
(17.24566 0.1804526 -5.191121e-19)
(17.27182 0.6065815 -4.209327e-21)
(17.41459 1.043567 -5.676418e-19)
(17.50186 1.59951 -3.628319e-20)
(17.50851 2.210069 -1.124895e-18)
(17.41725 2.840897 2.315061e-18)
(17.25317 3.50783 -2.298794e-18)
(17.03089 4.139095 4.408355e-18)
(16.7325 4.77505 2.399722e-18)
(16.37082 5.361613 0)
(15.94889 5.927962 0)
(15.48954 6.473618 4.063568e-18)
(14.99162 6.956544 3.867578e-18)
(14.43984 7.400594 0)
(13.85166 7.780132 -1.0162e-19)
(13.22074 8.118297 3.285394e-18)
(12.5597 8.406093 2.921443e-18)
(11.87717 8.626052 2.564556e-18)
(11.18034 8.796415 -6.799976e-20)
(10.47549 8.917372 -1.94498e-18)
(9.756118 8.971156 4.932577e-20)
(9.029982 8.953278 -4.981367e-20)
(8.308507 8.88256 -1.18039e-18)
(7.59673 8.7637 8.369928e-19)
(6.89168 8.589096 0)
(6.212061 8.340997 0)
(5.541494 8.048896 1.606588e-19)
(4.909557 7.687994 -9.146524e-21)
(4.291213 7.280075 -8.761089e-21)
(3.723895 6.816956 -9.280132e-19)
(3.187995 6.312313 -2.419838e-18)
(2.676728 5.778009 1.385714e-18)
(2.218436 5.200226 -1.684275e-18)
(1.813092 4.583056 -9.429248e-19)
(1.463327 3.929528 -3.233221e-20)
(1.171496 3.247216 0)
(0.9014544 2.566021 -1.205089e-18)
(0.7338899 1.848082 -4.066676e-20)
(0.5796309 1.11149 -6.943416e-19)
(0.4858547 0.399249 3.705269e-19)
(0.4645925 -0.3098115 -5.453375e-24)
(0.5740103 -1.039974 -3.627117e-19)
(0.6707925 -1.819342 3.098322e-20)
(0.8213943 -2.580089 -6.538998e-19)
(1.034136 -3.301995 1.197121e-18)
(1.306401 -3.994975 -1.151866e-18)
(1.636751 -4.662502 2.780777e-21)
(2.0174 -5.297176 9.45889e-19)
(2.465843 -5.89688 -1.544607e-18)
(2.934186 -6.473873 1.326112e-18)
(3.448993 -6.99979 1.007774e-18)
(4.026708 -7.476587 8.470224e-21)
(4.63573 -7.915629 8.897298e-21)
(5.262186 -8.303954 -2.076285e-19)
(5.92504 -8.644198 -4.325967e-20)
(6.621037 -8.93496 1.653452e-20)
(7.326536 -9.1619 6.426245e-19)
(8.044808 -9.321313 -1.996707e-18)
(8.775705 -9.428768 1.287819e-18)
(9.521149 -9.467606 -5.861069e-20)
(10.26465 -9.450119 -1.907981e-18)
(10.99883 -9.384858 4.414533e-18)
(11.72629 -9.250265 8.128457e-20)
(12.42877 -9.055486 2.686826e-18)
(13.11007 -8.792761 -3.124652e-18)
(13.77358 -8.471845 9.671429e-20)
(14.40221 -8.112001 -3.521733e-18)
(14.99862 -7.688769 -3.59486e-18)
(15.55007 -7.223274 1.229851e-19)
(16.05751 -6.702968 -4.095195e-18)
(16.52057 -6.141432 4.215551e-18)
(16.92872 -5.554283 0)
(17.273 -4.92966 0)
(17.55014 -4.275511 2.24695e-18)
(17.76111 -3.611765 2.217723e-18)
(17.89998 -2.944697 0)
(17.94876 -2.289369 1.153607e-18)
(17.89709 -1.66454 1.032419e-18)
(17.75345 -1.125823 -5.182283e-19)
(17.56592 -0.7166179 1.163204e-19)