/*--------------------------------*- C++ -*----------------------------------*\
| =========                 |                                                 |
| \\      /  F ield         | OpenFOAM: The Open Source CFD Toolbox           |
|  \\    /   O peration     | Version:  2406                                  |
|   \\  /    A nd           | Website:  www.openfoam.com                      |
|    \\/     M anipulation  |                                                 |
\*---------------------------------------------------------------------------*/
FoamFile
{
    version     2.0;
    format      ascii;
    arch        "LSB;label=32;scalar=64";
    class       volScalarField;
    location    "0.64";
    object      p;
}
// * * * * * * * * * * * * * * * * * * * * * * * * * * * * * * * * * * * * * //

dimensions      [0 2 -2 0 0 0 0];

internalField   nonuniform List<scalar> 
15536
(
-25.12494
-32.95434
-40.48036
-47.14457
-52.83194
-57.04482
-58.9382
-57.91728
-53.90448
-47.54747
-42.69472
-40.86369
-40.49066
-41.43295
-40.70715
-38.66485
-39.78776
-42.9576
-48.17056
-57.32199
-70.21808
-81.26247
-82.207
-68.37813
-44.07102
-23.6977
-20.91311
-32.65579
-48.33975
-57.20546
-63.25486
-77.88761
-112.5012
-152.9701
-151.1347
-105.2186
-89.58485
-105.7986
-111.6994
-110.3574
-112.9312
-116.5806
-118.662
-119.1568
-118.7591
-117.3501
-115.0623
-111.8104
-108.107
-104.0993
-99.41817
-94.17581
-88.32676
-82.11241
-75.47542
-68.49315
-61.50822
-54.42541
-46.98643
-39.38393
-31.91523
-24.58518
-17.27687
-10.05549
-3.056911
3.816719
10.40068
16.65917
22.48533
27.88655
32.81697
37.28018
41.23437
44.60228
47.35813
49.60388
51.20473
52.19575
52.64521
52.61524
51.78936
50.29773
48.22793
45.57856
42.36742
38.62086
34.41169
29.65801
24.51978
19.05668
13.12288
6.897795
0.4621999
-6.34499
-13.26726
-20.10257
-27.05017
-34.08414
-41.02919
-47.94288
-54.6603
-61.01354
-66.95551
-72.55266
-77.90189
-82.71484
-86.95499
-90.56313
-93.54668
-95.94059
-97.46827
-98.01884
-97.60179
-96.0243
-92.81689
-87.70571
-81.57994
-79.36717
-85.82959
-88.79158
-74.76086
-45.97809
-21.54133
-50.06292
-114.2216
-119.6433
-76.44877
-31.7923
-9.452985
1.05763
10.30897
20.39175
21.67154
18.20012
14.57948
7.760611
0.1139887
-6.202607
-7.175133
-2.641613
1.170998
-0.1426299
-5.429442
-6.861391
-5.706698
-5.131308
-4.947295
-3.731213
-2.680689
-1.679998
-1.373333
-2.296468
-3.610242
-5.451443
-8.013602
-11.88976
-17.72867
-25.06443
-32.84931
-40.32642
-46.93654
-52.57098
-56.74965
-58.65078
-57.72442
-53.80683
-47.53722
-42.70604
-40.8424
-40.43957
-41.38559
-40.68972
-38.65899
-39.77953
-42.95198
-48.17
-57.33453
-70.22011
-81.19719
-82.17099
-68.41402
-44.08843
-23.59905
-20.88555
-32.73039
-48.4224
-57.21861
-63.19855
-77.80315
-112.4559
-153.0217
-151.1846
-105.0919
-89.55702
-105.7143
-111.6367
-110.1083
-112.3024
-115.6203
-117.4156
-117.7625
-117.3089
-115.8755
-113.5817
-110.3351
-106.6445
-102.6675
-98.02126
-92.8219
-87.01857
-80.85616
-74.27953
-67.35953
-60.43755
-53.42304
-46.05787
-38.52514
-31.12696
-23.86861
-16.63105
-9.477287
-2.542891
4.263511
10.78167
16.97998
22.75076
28.09955
32.98301
37.40467
41.32235
44.66134
47.39253
49.61996
51.20908
52.19429
52.642
52.61313
51.79397
50.31783
48.26928
45.64647
42.4676
38.7593
34.59318
29.88791
24.80492
19.39713
13.52354
7.366006
0.9958826
-5.747923
-12.59809
-19.36217
-26.24061
-33.20253
-40.07686
-46.92143
-53.57236
-59.86073
-65.74316
-71.29008
-76.59454
-81.36374
-85.56872
-89.14732
-92.11428
-94.50678
-96.04223
-96.61677
-96.24859
-94.78921
-91.82403
-87.03539
-81.29764
-79.3671
-85.76215
-88.86579
-75.01326
-46.11336
-21.55554
-50.06643
-114.4677
-119.5909
-76.26989
-31.62807
-9.352044
1.06151
10.25173
20.3068
21.68529
18.26957
14.62564
7.752928
0.114921
-6.179582
-7.126251
-2.64089
1.133583
-0.1764721
-5.436091
-6.852199
-5.709771
-5.133534
-4.948812
-3.738678
-2.67833
-1.673747
-1.374648
-2.297938
-3.606183
-5.447477
-8.013941
-11.88986
-17.70896
-25.03038
-32.79287
-40.248
-46.83256
-52.46161
-56.65493
-58.57474
-57.62225
-53.864
-47.74991
-42.8229
-40.86903
-40.3792
-41.3433
-40.70332
-38.65839
-39.7549
-42.92952
-48.17375
-57.40067
-70.3255
-81.30065
-82.34228
-68.76445
-44.42278
-23.52344
-20.74002
-32.79452
-48.47843
-57.22393
-63.19377
-77.82684
-112.6523
-153.5916
-151.7276
-105.345
-89.52481
-104.862
-110.5746
-109.518
-111.5856
-114.6561
-116.427
-116.8415
-116.4272
-115.0197
-112.7626
-109.5338
-105.8561
-101.9095
-97.27598
-92.10274
-86.3214
-80.19565
-73.65871
-66.75424
-59.86093
-52.88954
-45.55055
-38.04842
-30.68287
-23.46448
-16.26498
-9.141382
-2.249179
4.527813
11.01153
17.17794
22.91798
28.23832
33.09289
37.48841
41.38264
44.70373
47.4146
49.62871
51.20856
52.18791
52.63362
52.60512
51.79168
50.32872
48.29605
45.69193
42.53529
38.8517
34.71394
30.03336
24.98192
19.60748
13.76223
7.639909
1.306719
-5.405685
-12.22023
-18.94287
-25.78912
-32.71966
-39.55352
-46.37722
-52.99667
-59.25948
-65.11545
-70.62349
-75.90238
-80.64459
-84.83369
-88.39347
-91.34088
-93.71493
-95.22356
-95.76473
-95.36731
-93.82955
-90.87657
-86.3193
-81.01352
-79.26744
-85.53177
-88.59628
-74.67429
-45.90759
-21.15395
-50.2459
-115.9058
-120.5422
-76.49856
-31.55433
-9.261615
1.042703
10.14151
20.118
21.67276
18.27065
14.59888
7.648037
0.0296589
-6.243285
-7.174048
-2.698845
1.036174
-0.2565174
-5.486798
-6.869217
-5.757153
-5.158992
-4.968512
-3.764712
-2.684938
-1.655769
-1.360797
-2.284993
-3.594925
-5.444151
-8.024343
-11.90505
-17.70447
-25.01098
-32.74558
-40.16452
-46.69223
-52.27899
-56.41396
-58.26224
-57.46899
-53.94914
-48.17324
-43.16308
-40.97122
-40.31563
-41.29089
-40.73931
-38.65252
-39.70462
-42.88215
-48.18861
-57.54982
-70.57659
-81.5829
-82.71225
-69.40758
-45.1394
-23.50308
-20.35583
-32.67906
-48.351
-57.10626
-63.20163
-77.91612
-112.9525
-154.0505
-152.3244
-106.531
-90.038
-103.7446
-108.8761
-108.5339
-110.5438
-113.2669
-114.8204
-114.9915
-114.526
-113.097
-110.876
-107.6771
-104.0254
-100.1297
-95.57091
-90.47641
-84.76976
-78.71842
-72.26729
-65.4499
-58.63657
-51.75642
-44.52079
-37.09845
-29.81435
-22.68489
-15.57236
-8.524412
-1.716166
4.988212
11.40004
17.50546
23.18363
28.44696
33.25125
37.60397
41.46085
44.75474
47.43573
49.63267
51.20129
52.17384
52.61742
52.58812
51.77961
50.33495
48.32464
45.74736
42.62448
38.98151
34.89301
30.25818
25.26931
19.95763
14.17254
8.130147
1.871829
-4.774769
-11.4966
-18.13181
-24.90055
-31.73906
-38.48367
-45.22126
-51.75369
-57.92192
-63.68629
-69.1281
-74.33813
-78.9988
-83.12203
-86.62358
-89.53608
-91.88112
-93.36559
-93.91503
-93.58341
-92.24961
-89.49882
-85.29084
-80.5414
-78.85404
-84.1549
-86.33781
-72.89316
-45.24882
-21.03665
-50.93984
-118.1419
-121.7081
-77.04459
-31.554
-9.17041
1.073133
10.05784
19.92698
21.73121
18.22207
14.45223
7.405116
-0.1829472
-6.394441
-7.289601
-2.846152
0.8458458
-0.4229606
-5.594666
-6.911169
-5.852226
-5.189027
-4.942796
-3.7892
-2.705831
-1.619597
-1.331759
-2.253339
-3.573415
-5.443134
-8.04606
-11.93988
-17.71892
-25.02082
-32.73136
-40.12249
-46.58196
-52.13485
-56.26532
-58.2003
-57.39666
-54.08802
-48.73136
-43.79262
-41.16787
-40.26874
-41.2483
-40.80884
-38.63137
-39.61762
-42.79201
-48.22854
-57.81009
-71.0371
-82.12778
-83.39923
-70.34541
-46.19449
-23.56031
-19.775
-32.2665
-47.8273
-56.82309
-63.28739
-78.06786
-113.0258
-153.8303
-152.1542
-108.3063
-91.81358
-103.0193
-107.1781
-107.4191
-109.4077
-111.919
-113.4106
-113.6171
-113.1946
-111.7478
-109.5561
-106.3553
-102.6645
-98.83062
-94.263
-89.20528
-83.51175
-77.50837
-71.12192
-64.3271
-57.56309
-50.76835
-43.59629
-36.2207
-28.99989
-21.9547
-14.91549
-7.921851
-1.195198
5.451391
11.79678
17.84151
23.45349
28.66449
33.41805
37.72566
41.53702
44.80033
47.44835
49.62529
51.18194
52.14702
52.58798
52.55511
51.74963
50.33113
48.35063
45.8042
42.71787
39.11604
35.07897
30.48805
25.56812
20.31535
14.57588
8.618909
2.435017
-4.173767
-10.81549
-17.3657
-24.08006
-30.85606
-37.51836
-44.21254
-50.69255
-56.80802
-62.527
-67.91886
-73.10934
-77.7312
-81.85262
-85.34096
-88.24716
-90.6315
-92.09111
-92.63275
-92.26586
-90.86677
-88.19858
-84.24657
-79.93821
-78.15731
-81.9289
-82.85335
-70.4776
-44.96827
-22.16487
-52.90376
-120.5702
-123.1549
-77.90908
-31.76013
-9.06837
1.190485
10.12729
19.91506
21.9826
18.19449
14.15324
7.019446
-0.5636684
-6.68162
-7.54913
-3.126518
0.5106357
-0.7498758
-5.805419
-6.98869
-5.985778
-5.173093
-4.827828
-3.808363
-2.750419
-1.56948
-1.285417
-2.214356
-3.546035
-5.450845
-8.092343
-12.0097
-17.76421
-25.07246
-32.75946
-40.13863
-46.51738
-52.02369
-56.1337
-58.02377
-57.35316
-54.27646
-49.378
-44.66489
-41.56328
-40.26071
-41.2163
-40.90612
-38.59869
-39.48353
-42.63496
-48.32469
-58.19071
-71.77595
-83.05808
-84.53407
-71.65102
-47.59901
-23.92836
-19.35547
-31.53216
-47.04251
-56.4139
-63.43186
-78.05847
-111.6709
-150.3266
-149.0125
-109.4509
-94.20965
-102.379
-105.4095
-106.0316
-107.8378
-110.0224
-111.3039
-111.1846
-110.6918
-109.2475
-107.1737
-104.0239
-100.364
-96.67807
-92.19503
-87.26
-81.65425
-75.73888
-69.45978
-62.74385
-56.09162
-49.42863
-42.34998
-35.05975
-27.95264
-21.01475
-14.07721
-7.161299
-0.5516363
6.020271
12.27088
18.22182
23.76073
28.92012
33.61005
37.85924
41.60715
44.84253
47.44981
49.5979
51.14426
52.10019
52.53679
52.4979
51.6989
50.30823
48.36758
45.86083
42.81932
39.26884
35.28848
30.74259
25.92219
20.75215
15.05025
9.195975
3.144228
-3.407795
-9.954292
-16.37341
-22.98873
-29.67815
-36.22859
-42.82383
-49.20229
-55.21516
-60.81667
-66.11434
-71.23891
-75.74119
-79.78429
-83.16371
-85.98215
-88.26392
-89.67439
-90.1971
-89.97236
-88.78733
-86.35834
-82.78693
-78.98038
-77.15606
-79.58051
-79.43115
-68.24931
-45.84215
-25.67091
-56.4784
-122.4927
-124.5062
-78.81555
-32.14721
-9.119911
1.403041
10.47671
20.27148
22.53141
18.26262
13.69206
6.454605
-1.177069
-7.175374
-8.018846
-3.58172
-0.05087865
-1.308945
-6.172333
-7.124167
-6.157973
-5.110372
-4.634669
-3.821356
-2.831988
-1.514346
-1.225975
-2.170263
-3.518714
-5.469338
-8.172426
-12.14891
-17.85562
-25.18937
-32.82632
-40.14687
-46.51277
-52.00682
-56.06601
-57.97456
-57.42101
-54.5823
-50.11221
-45.71356
-42.27919
-40.37833
-41.22459
-41.01682
-38.56335
-39.29737
-42.36451
-48.41489
-58.64859
-72.84679
-84.55591
-86.35678
-73.44641
-49.40712
-25.00339
-19.69125
-31.13785
-46.22794
-55.86677
-63.53727
-77.8346
-108.0647
-141.1241
-140.7292
-108.7675
-96.04297
-101.4459
-103.5866
-104.5308
-106.1824
-108.1116
-109.3552
-109.1354
-108.8519
-107.1802
-105.1111
-101.9388
-98.19694
-94.62556
-90.12345
-85.30636
-79.72155
-73.82485
-67.68128
-61.09118
-54.50434
-47.90651
-40.97215
-33.81961
-26.79497
-19.90656
-13.15279
-6.309136
0.1582946
6.656546
12.77409
18.63315
24.16402
29.21199
33.80454
37.97249
41.66133
44.92099
47.43805
49.55
51.08586
52.0261
52.4579
52.42075
51.63571
50.23902
48.33238
45.87781
42.89665
39.43417
35.53039
31.00762
26.2942
21.25868
15.63742
9.826664
3.880352
-2.511841
-8.976256
-15.3004
-21.79405
-28.31636
-34.82961
-41.34964
-47.56876
-53.52067
-58.99549
-64.21329
-69.31919
-73.71898
-77.75855
-81.07678
-83.92889
-86.34165
-87.75416
-88.3724
-88.03277
-86.85825
-84.56878
-81.29785
-77.89718
-75.97083
-77.25719
-76.1969
-66.17688
-47.53112
-31.29653
-60.8619
-123.0641
-124.9377
-79.09965
-32.06784
-9.328997
1.664837
11.13332
21.0238
23.27788
18.42706
13.0637
5.637581
-2.11971
-7.962846
-8.779927
-4.291568
-0.9323961
-2.005181
-6.715655
-7.348227
-6.370573
-5.015219
-4.41467
-3.828005
-2.958122
-1.477828
-1.170285
-2.127805
-3.495081
-5.503162
-8.258483
-12.39424
-18.03049
-25.46325
-33.03225
-40.1135
-46.55679
-52.24025
-56.20228
-58.06444
-57.59997
-55.10115
-51.00671
-46.94531
-43.32372
-40.7646
-41.20505
-41.0955
-38.31357
-38.91793
-41.88173
-48.3157
-59.09242
-74.33622
-87.00212
-89.26398
-76.07366
-51.91821
-27.17024
-21.5663
-31.47065
-45.53589
-55.21891
-63.93869
-77.83202
-102.9363
-128.9074
-130.0383
-106.6685
-96.82832
-100.0217
-101.4327
-102.5421
-103.9315
-105.4713
-106.7601
-105.9395
-105.4736
-104.0626
-102.1181
-99.2103
-95.20327
-91.84965
-87.4933
-82.86635
-77.24542
-71.43485
-65.67527
-59.25826
-52.40546
-46.00089
-39.48754
-32.50622
-25.28711
-18.53768
-12.20958
-5.332899
0.9072539
7.377446
13.24098
19.20481
24.73367
29.50004
33.96449
38.02267
41.7073
45.01489
47.3646
49.49233
50.99747
51.91535
52.35566
52.33052
51.51897
50.12596
48.22368
45.83115
42.91769
39.55973
35.83962
31.30388
26.67045
21.7988
16.47468
10.72036
4.544378
-1.557313
-7.678219
-14.12957
-20.54861
-26.64019
-33.00683
-39.80091
-45.58467
-51.5429
-56.84991
-61.90293
-67.00529
-71.17519
-75.24913
-78.32864
-81.07491
-83.4772
-84.69809
-85.10888
-85.05315
-84.15998
-82.13818
-79.25135
-76.31596
-74.3512
-74.72868
-72.89352
-64.05573
-49.28093
-37.68005
-64.47482
-119.3052
-120.3111
-76.84788
-30.54202
-9.479658
2.022155
12.03223
21.954
24.02863
18.50767
12.27091
4.533043
-3.484937
-9.138276
-9.987936
-5.595911
-2.170826
-2.653886
-7.376821
-7.690919
-6.728923
-4.917234
-4.163795
-4.015662
-3.185996
-1.492148
-1.153439
-2.115903
-3.504026
-5.59458
-8.361442
-12.65958
-18.3854
2.197084
1.312319
-44.19388
-27.83477
9.324271
-22.75459
0.4752258
-1.887236
6.505576
-1.326199
-5.826256
-1.587153
-0.7626969
0.1728035
0.2067273
0.9257394
0.1702369
-1.445484
-0.3918795
-2.435181
-66.13007
0.04796473
0.1384903
-1.306856
0.3725549
0.0325221
-3.266503
-0.5003978
-5.101178
0.1445899
-0.9718167
-33.84681
0.1221453
0.1201496
-0.06751158
-2.452674
0.0330225
0.0148156
0.008166419
-2.895193
-12.15489
1.946443
1.275477
4.622946
29.73036
0.3149257
0.003781956
0.3515697
0.384157
-0.993878
0.0991245
0.09117527
2.620465
-0.1427807
-0.02358476
18.1619
2.496113
0.04212208
-8.039937
-14.91926
-0.3525995
-0.007436347
-61.06286
-0.5493094
-15.48392
0.06139329
-40.50817
0.02444514
0.1876588
0.07160489
-0.2162769
0.003945427
-6.711845
-10.87061
23.02285
0.06326243
3.791017
-0.495316
0.1204075
-0.1712591
-15.46022
-0.01894966
1.939788
-0.02082722
-3.085173
0.5810187
0.09421804
-2.389662
-83.99053
0.01976513
-8.38181
25.87957
0.1446215
-0.01932755
0.4947986
-1.306046
5.683692
6.454255
-58.18914
0.5836632
-1.788623
-2.354026
-0.05262976
-58.79816
0.005827626
-26.90463
0.01099325
0.3559822
-9.534183
6.842897
-2.223768
3.166446
5.6658
7.629923
-29.48876
0.00228377
-0.01375917
0.08185446
25.00463
0.2631336
0.1724566
-0.1174168
0.1724599
0.03822155
0.0431697
-20.73361
-0.2704035
-51.35867
0.7853289
0.006429355
-0.03845651
0.1111054
-0.101365
0.1505028
0.3423072
1.231759
-0.07011256
2.534358
-1.511266
-0.01672711
-50.45254
1.014957
-42.17638
1.408149
0.008424919
0.1691704
-3.191206
-31.70128
0.0389535
-0.1831814
0.1446159
-27.84602
-22.30752
0.1274883
1.229592
-57.28148
0.1307008
-0.05161317
-0.1340638
-10.25396
-0.07320011
-2.353209
2.295259
-3.928898
0.2367596
11.10553
-12.96281
1.663344
-41.18432
0.02393346
0.4585293
-23.35049
0.1902669
-53.58065
-6.074386
3.956888
0.3266783
0.4379706
-77.51751
0.05178862
14.4375
-1.994021
0.1104984
0.2548106
5.615418
-29.74112
0.3071225
0.05051388
1.69413
-0.785367
0.04078539
-1.547178
-1.432963
-2.402738
0.005967944
0.370359
0.08845555
1.317178
2.037866
-19.85028
-2.736035
0.186973
1.735175
-53.24992
0.7074491
-6.129084
-3.388938
0.1625358
-5.105381
0.01239595
-0.3398666
0.05201231
1.259207
0.7967654
-0.04822382
-13.00431
-7.907552
-2.180797
11.33097
-0.3363477
-0.1139884
0.4899501
1.512565
0.1630444
-2.986565
-5.584937
0.2600575
8.069268
0.01312183
16.04956
-10.5938
-72.86729
-0.08166775
0.0161244
-49.4432
0.1672724
22.56497
0.2397081
2.144185
1.324991
0.08553505
-0.9378541
0.01104838
-20.36391
-0.9168141
8.904798
0.2441473
-53.95588
-0.02139654
1.657484
-16.95481
1.343517
-2.793535
-2.205574
2.019167
-14.20301
1.811586
-0.06653411
-20.35779
-5.819778
-10.31954
-0.01255471
0.409556
0.08425832
0.2900757
0.5183524
0.3813996
0.03696896
-7.473353
-15.2842
-0.06009491
-0.1268995
12.25796
-0.8909513
0.04272588
1.963348
-0.2855263
-39.85962
-76.53394
0.1997871
0.2405682
1.31882
0.1605408
-0.6493126
-0.0862409
-0.1647319
39.18481
-0.03152345
0.165106
0.04480142
-1.798097
0.01684429
0.4017366
0.267477
-47.25055
-0.002097713
-29.76796
0.001678984
1.088677
1.060054
-25.36698
0.1181621
0.01754683
-40.63988
0.858886
0.01947151
0.05125081
0.2225124
0.1883751
0.1329015
0.7977028
-3.485416
0.1055401
0.4543987
0.4903139
-6.274861
34.62733
-12.41239
-66.88966
-79.86779
0.6921449
0.02396062
-3.327921
0.02592081
-0.002549658
0.02244456
0.1239568
-0.00491105
0.2478003
2.613743
19.72808
0.01119652
-4.047272
-50.78754
0.2069254
-0.2004747
0.1536872
0.02035627
1.609669
0.01845502
-56.98254
6.062568
1.891728
-3.192157
-7.686956
5.145687
8.450401
-0.02740948
-6.1411
-0.00279221
0.009370126
0.04485574
11.81898
-0.1124742
2.459301
-75.7542
-36.19163
0.03031276
-0.4815527
0.194551
0.3175114
0.3350752
0.05802824
1.030258
-2.144198
0.1849559
-0.6215239
-0.0375896
-1.176041
-0.8169549
-0.5379073
10.89404
-22.72432
0.2267962
0.3158373
1.413243
-0.005085001
-0.2059793
1.334109
-1.59098
-0.06106556
-0.4230405
0.01042264
-19.35895
9.032593e-05
0.3558985
0.3766396
41.05119
1.13156
0.04580505
0.138837
0.2365381
2.950469
-52.94437
0.01192046
-0.4680485
1.781303
1.038196
-0.291851
0.2255523
0.5816694
-2.595997
-16.55382
0.06451629
0.04199985
0.1314699
-46.92563
-36.91502
-0.5107957
1.112949
-0.1539528
-0.1595747
0.04831144
-1.587821
0.2806491
-0.2867033
3.50523
1.20113
-0.105898
-34.06521
-2.849814
0.06217919
2.058409
0.1047648
-0.04460842
-15.16438
-0.06045246
-1.562874
-3.731172
0.2334551
-22.86558
0.06074243
0.0386817
-0.1636672
0.8463013
0.4167856
0.04706721
-3.216898
0.05599124
-2.326051
0.0707346
0.03974654
1.086751
0.1933078
-1.383471
-0.29802
0.01458038
0.01941149
0.06009351
0.1579095
-2.103241
-72.91504
1.372729
-15.35985
0.1714336
0.03529522
0.01269854
3.486829
-0.2285781
-11.03362
0.4015477
-46.6
-3.267508
0.1595113
0.5507464
0.07793588
29.35831
0.1986584
1.421525
-0.590682
-6.924216
-2.033569
-0.5745126
6.830873
0.06706218
-14.26753
0.3466567
-46.47499
0.02525526
0.2469199
2.891442
0.5791802
-0.3000424
0.2602567
0.5360438
0.1924106
0.01608141
15.78159
-0.00694294
-0.8298453
0.1222011
-14.32984
-5.439983
0.01203668
-12.03722
-1.160917
-0.1293449
3.568659
0.2200816
2.845882
-1.194938
0.2940009
-0.005072928
-2.479127
2.095791
-0.2911822
-1.949065
0.7699467
0.382725
0.1537243
-13.34368
-0.7518111
10.09783
0.212311
0.1751619
-0.4072252
0.5486235
0.088974
0.0212957
-0.3468114
-1.052441
0.1617187
-11.49842
0.04222405
0.3674569
-1.776042
-0.01873423
0.6697596
-0.04479653
-0.02531832
-15.97269
-6.673906
-12.12931
-0.03939523
3.242282
4.279017
2.946893
-0.02682646
-0.1071886
-0.1417501
4.745709
-0.2770903
1.444362
1.126425
-63.93458
1.188314
3.744402
0.04357676
0.00714396
8.911165
-0.4011601
11.77725
0.120849
-2.862971
4.352202
0.03145563
-2.311505
12.51772
15.49295
-11.23846
-0.00593464
0.2559815
0.0009489779
0.09098783
-0.04293177
-0.1002406
-1.056557
2.717687
28.22306
0.09102818
-0.4445081
0.8469506
0.9621927
-44.33501
-0.08043065
1.588641
0.4026309
0.8221068
0.1807141
0.1223249
1.065228
0.1208375
4.842366
0.008414198
2.416947
-13.00706
1.129691
-0.03972702
-52.67802
-1.214527
-1.666445
-36.50641
0.2086158
-0.001855062
-0.1914167
-0.0351001
-1.142033
-68.21164
0.008316982
-0.2082648
-0.3462596
1.690417
0.006417029
0.04156025
1.128917
-30.55833
-15.38573
0.3070028
-29.73437
0.4157099
5.016819
0.0926745
-40.51329
-0.02772038
7.712659
-18.75985
0.1260739
-4.643883
1.035735
2.101292
7.685447
0.05783966
-1.245685
0.006772506
0.3999407
17.79176
2.162508
0.2323402
0.1174854
-1.707103
3.276858
4.483584
-7.24195
1.632879
-12.34536
-2.971234
-17.63409
-1.980234
0.5798557
-0.05704532
-0.3447579
0.03316945
-0.0337257
1.445949
0.1056259
1.857197
0.2915562
-44.39728
0.2640955
25.44273
2.67729
-38.19602
0.03035373
2.680218
6.86474
-1.037134
-37.81058
-0.05358834
-1.261529
-39.33438
-2.994602
-2.742457
1.040757
0.7919395
0.1027681
-0.02527104
0.716198
-0.5996523
2.347624
-8.012099
-0.1547485
-0.04730332
-49.51949
0.2663638
-0.1850277
-0.2303521
-81.9562
0.02539405
0.8559134
10.65856
15.10818
15.38645
1.302606
0.4709776
-0.0820569
0.03153546
0.1555811
-0.2299225
1.734563
-0.2956024
-28.26288
0.00519683
-7.008082
0.08857202
0.1778505
0.3654142
-16.46706
1.932872
-1.792097
-3.182455
0.3685045
-2.777942
-5.872133
-9.159677
4.259838
-28.44488
-0.4333142
-0.5189978
-30.15765
0.545089
1.600737
1.132081
0.1178536
-0.1789269
-8.142736
0.05245119
-1.21888
-9.169744
0.1338524
0.0237418
0.7822848
-0.05533199
0.1761675
-0.3872119
0.1011713
-2.413869
0.2903622
-16.14829
-0.1436795
-0.2677466
-1.878367
-1.632544
-0.7430952
0.2695356
0.1400812
2.957817
0.3140559
1.810177
-35.97647
-2.116601
0.01025576
0.0120815
-0.04574173
0.1975153
5.937785
0.0874853
-36.30768
0.9877353
-6.040838
5.151206
0.01526098
-29.04443
-10.8842
0.4974244
-0.001655353
-60.92748
1.423152
-16.48729
-24.18559
-1.264388
-1.712929
-4.305726
0.06676617
14.827
2.493056
0.9713864
-67.87813
0.540755
-1.301875
-0.5850761
-2.591791
22.1602
-16.4968
0.05238533
0.512111
-2.065584
0.1347209
-0.01687742
-8.910262
-0.02765298
0.4579915
0.8024256
-0.05717412
-5.346915
8.291051
-1.143871
0.01897642
0.05109083
0.05093129
0.2083711
-0.2174097
2.400677
31.08721
0.05391903
-0.06101942
0.2737538
0.2653004
-0.007112109
0.09166284
-36.5028
0.2438115
-18.57611
-14.6659
-0.4804731
0.05318053
-0.08547753
-10.5739
1.121391
0.02396056
-0.072936
-0.03989302
-12.26869
-61.28451
-0.645568
0.0292817
-3.741193
0.08181503
-0.4441695
0.2188761
2.098502
-2.528539
13.11369
-1.438934
0.2839249
-0.08572543
0.1158656
2.142805
-3.308893
0.0254748
-2.648824
1.213555
0.3463198
8.7918
-10.75187
0.2115991
0.01513442
-24.17175
-1.98161
0.2282512
-0.3426287
-5.129932
-3.46603
0.2077507
0.9334114
-0.3030288
-0.1355216
2.551746
-0.6154672
0.07572191
33.36206
0.2010235
-2.336854
0.01915753
-77.29051
-1.537197
-0.2279895
1.984361
-1.694208
34.95842
-0.3066356
0.2257167
0.9546234
0.3749441
0.04769775
-1.342417
-0.2973816
-0.2440718
-32.20673
-8.450986
-0.1842737
-5.622832
-34.75512
-0.003497381
0.005910698
-0.04874249
-8.865336
4.091184
32.74236
0.0222777
-1.391557
0.4261367
0.02254282
0.02952057
7.205736
-0.642251
-0.489392
0.006441304
-0.2528205
-1.496213
-0.05626859
0.09076822
-12.25752
0.9496891
-35.06672
1.617115
11.35808
-0.009277007
0.399987
0.0841726
-0.3468297
-13.99782
0.02354906
0.204559
13.09831
-14.81538
3.346101
0.5340664
0.3490159
-18.77022
25.17235
0.760535
0.03135026
-8.004777
-34.11949
0.0335273
-0.01654129
0.3281083
1.501794
0.9498198
-41.8902
-7.631583
1.820973
0.2345997
0.1849723
-0.01494206
-38.35673
-30.26142
-55.10109
1.374932
-26.5646
0.9824193
-0.7811328
-25.17035
0.296436
0.2185487
-15.25089
0.004374746
-0.1146721
0.2018368
0.826792
-0.001358053
-44.42877
-4.188606
0.9435341
14.20265
1.31301
0.004226257
-39.03624
21.95464
-36.35218
-0.05502432
0.1637255
0.05187639
0.0373644
0.01563793
0.5712156
0.4822355
0.3238864
-3.07682
-32.70692
-45.15318
0.456569
0.1711272
1.429797
-0.01660488
-1.594513
1.951601
-0.2092666
-0.1005591
-1.267029
-1.20382
-0.05388039
-1.352859
-0.2514156
-15.48733
1.676259
0.3087891
-4.233977
1.566867
0.2213515
-5.277418
-15.57114
4.935101
-1.462032
0.3444517
-17.47444
-46.57982
33.18411
47.81372
2.70735
-2.552984
0.7099087
4.455288
1.50685
-0.004454897
12.9788
-19.77865
1.958916
0.2149034
-4.704374e-05
1.477078
0.2998878
1.750712
2.56665
-28.87184
-45.00618
0.2931269
0.06415694
0.3814273
1.96562
0.3586266
7.99192
-0.05996065
-0.3200222
0.3461069
-2.981607
0.2088273
0.2644804
-47.35154
-33.88598
1.545862
-0.04133186
0.08589225
2.278837
0.05866582
1.66705
-0.01342992
-47.51432
1.269796
-18.24781
-5.20258
1.131488
0.533214
-16.63068
-55.2182
-2.363997
0.389953
0.0982788
-0.3289383
-3.42133
-13.02524
-0.02903521
0.2647041
0.1778627
0.1760139
-0.08006599
-0.6217767
0.8315733
0.1187921
-1.932253
-0.100141
-0.07556545
-2.727613
-3.42932
-0.1518226
-1.463309
1.275131
-2.427169
-0.03059762
2.456201
-0.00510425
-0.767668
4.050935
-0.01406608
0.1007021
-41.09899
-28.21291
0.04132095
0.2440437
-0.008007354
0.09331949
-17.62846
-5.673915
-38.58876
-20.56397
24.5686
0.1445129
3.555748
0.285148
-13.44098
-0.05360103
2.984701
-62.90522
0.08239593
1.849637
1.607834
1.45428
3.243043
-2.152924
0.3075361
-35.31519
0.0984586
-66.47579
-0.3880436
-23.15246
38.02118
-7.704692
-3.227896
-0.3325867
0.4527691
0.1482917
7.916064
0.04108552
8.225822
-3.49695
0.2336724
-12.48101
0.1960747
-1.055762
-0.427698
-24.32303
-1.307191
-50.50216
7.480455
-0.3098602
12.56509
0.2047926
32.22851
0.06842607
0.4761556
0.06509393
-3.812535
16.84928
0.476561
-109.5125
0.1250909
-0.07475261
0.2054023
0.2605954
-1.540224
-15.12149
2.294063
-0.04516976
-41.59259
0.1833603
21.95048
-68.32647
2.591606
-80.47839
-21.95004
-7.41018
-62.23837
40.42913
3.647859
0.2236208
-25.37542
0.2446327
-0.00806335
-4.49404
1.412194
-24.02725
-47.16617
1.09645
1.501013
0.7928931
0.8140436
-0.2320067
0.09735203
-0.7585063
3.042391
1.528872
0.04504805
-0.03748186
-0.1341129
0.1172757
0.865848
0.07202167
-1.828087
-1.479122
-50.26946
0.001226054
-1.786454
-0.1221033
2.610168
-46.39665
1.625068
-0.005400384
-0.07991931
-0.03480396
0.06683618
0.2812151
-0.3271513
-0.1996161
-2.167627
28.90529
-0.1384014
-0.03070279
1.873028
-0.9173107
0.3295263
0.1343074
-0.002701022
-0.186254
0.07406154
-44.6855
-0.7004117
-10.99802
0.9197559
2.846709
3.474252
0.8174452
-0.9474066
-0.2039998
1.990542
2.402409
-60.97051
1.622586
-0.04544762
0.05454833
-1.347505
0.01178373
0.07972448
-47.09463
-0.8388247
0.1773689
0.04129936
-12.66264
-0.1094592
0.100477
2.876528
-63.60196
0.05007021
0.002955269
0.1268878
-73.55213
0.1744078
-22.74472
0.1630596
0.1260921
0.1941378
-0.004458488
1.078239
-23.13001
-4.253875
-0.100223
-0.1616635
-40.37368
0.0701516
1.326749
1.497821
3.343061
-3.070535
0.04883356
-0.6723373
-79.71599
0.1588517
0.1371498
-0.01565698
0.6052862
-1.152158
1.012044
0.1926669
0.3106846
-16.24479
-0.4475771
-1.463133
12.64509
0.7651719
-6.306744
0.2442554
0.1381511
-0.9615902
-30.63066
-2.116473
-3.193505
-0.02651681
-12.19836
11.5971
-8.648523
0.1228092
-19.31543
-0.7646137
-13.12501
-1.944308
-2.038469
16.89402
0.7756357
2.226495
-58.77528
0.01133732
0.03650965
0.3245726
0.009061432
0.04210932
0.01732713
0.4076321
0.02871806
-0.02174662
-12.14254
-1.433226
0.2099604
0.6456631
0.4341705
0.1294404
0.2648411
0.03223719
0.2232097
1.781974
-19.30548
-2.630402
0.498882
-2.103783
0.05003117
2.848127
0.110393
-7.012444
0.1509707
0.1614135
0.03019019
-18.3268
-8.352875
1.231296
2.515626
0.01965232
10.07385
-37.29673
-23.13993
-0.9525308
0.5858183
16.70281
0.8830348
-0.2366482
-0.6935277
-4.789268
0.04208781
-53.47395
-19.13734
-11.6489
15.30302
11.36205
0.05926643
-15.35193
-32.00816
-48.81768
1.612587
-9.180154
-3.536248
-0.4411443
-0.05186584
0.02735952
-0.1244556
0.03675157
-0.4489766
-0.07226736
-0.3540155
-0.157304
-17.38015
-0.1152273
-1.549088
0.7371145
-0.8288066
20.47241
-0.01490336
-60.81511
-24.79967
-19.46046
12.04655
2.026713
-11.52578
-7.662882
-40.18806
0.02336364
-59.96182
1.346765
-55.14468
-25.24157
0.01367047
0.4683574
-31.86586
-0.08138574
15.01777
-0.3386898
-0.01203845
1.338369
0.05823964
0.06182898
-0.02631098
0.1720128
-1.5209
0.6500813
-15.03473
-0.003686601
0.30491
0.2987114
-0.1362794
-0.2430694
-17.62918
0.1424069
-46.59131
-2.753539
-0.2216786
26.47537
0.03479659
1.300768
-68.42144
-3.715089
-32.55628
0.4014993
-0.004624826
0.2113901
0.2522529
0.3647901
0.02259299
-0.08647583
5.263977
-0.09830421
0.1749894
0.07060675
19.0531
3.248889
-20.54857
9.4322
0.6997635
0.1458378
-61.25579
0.176149
-0.5430166
1.822821
1.336488
0.07835347
-38.36157
0.08283553
-12.5226
-0.0006876389
0.1054631
-5.835703
-0.294269
-38.64068
-0.1752157
1.843134
1.877559
-23.80808
0.1613347
-74.45709
1.090412
-6.120815
-0.128116
0.4840151
10.67643
0.2079596
-2.421815
0.5646859
0.05877219
-0.4842473
18.46628
-2.796841
-3.509
0.1773809
0.3307888
-0.02976287
1.01748
0.9812365
0.4430677
0.1349434
-2.118854
-0.7417765
0.01716415
-29.8402
0.3381324
0.01772725
-5.793129
-2.783115
-0.6171655
-0.4647224
0.6817515
-0.001145269
0.751434
-53.97916
28.56801
-10.86556
-0.0007060287
-0.004019979
-18.52551
0.06236337
-0.9008114
0.3608451
0.294066
-0.423843
1.062137
-2.025484
-31.42582
0.2592027
21.72424
33.44831
2.181105
0.9980031
0.9752209
0.03710126
1.503474
0.02939002
33.36724
-7.755261
0.06341052
-1.080705
-0.0598818
0.6464419
0.1875487
0.0706462
0.4441194
1.872707
0.07220768
-31.23112
0.3033239
0.1067156
0.231603
-54.51237
-6.584506
-1.368427
-0.07057967
-57.45767
31.5152
-16.96689
0.4962701
-13.61253
-7.481498
-0.1131955
0.2258757
33.24958
0.2441425
0.0351475
0.6503608
-2.176439
-0.009115866
-67.64958
0.5135783
0.01434745
-0.1419262
-0.329716
20.55078
0.09709232
0.2873869
0.3435771
0.002512891
0.2122213
21.4983
2.964063
10.10141
-78.80885
-46.42783
-0.1010024
-0.0398287
-48.07585
0.1840132
-17.75056
-4.228209
0.02550421
3.559679
-1.808813
0.7169289
-7.410202
7.090124
0.3613101
-9.351982
-0.0007543675
-0.3316709
-4.454319
-35.11754
-11.41531
1.03761
2.367142
-0.01070242
0.05526071
0.4388236
0.02349615
0.2505355
1.715141
-24.7573
0.9449633
-0.8600994
-1.190603
-23.90186
-0.06773252
0.4185549
-4.382535
3.625889
-0.803487
-1.024816
37.66779
0.043461
0.2180136
-1.49687
-1.108222
5.311666
-29.49389
-43.34408
12.82918
1.883812
-0.2841343
0.299694
0.3326038
-0.04306746
1.3855
-0.06982506
0.6192556
1.136195
1.254237
-0.0005795999
-1.703008
12.61748
9.301091
0.03585946
0.1065102
0.009913816
-0.08484221
0.1158649
1.355526
5.690792
-35.49499
-14.40642
-0.6069389
0.3878426
-52.32777
42.94498
-64.80273
-0.05072865
1.936406
3.74815
0.2638931
8.159773
-14.23581
-0.01455816
3.1221
0.1246319
3.569895
0.2696321
4.648956e-05
1.017642
-59.12542
-1.169502
0.06018399
-0.8428397
0.4337015
-64.86495
-79.29564
-63.10982
-0.8711879
14.61369
0.2602261
-0.2120828
-0.08446413
1.524012
-21.50881
-0.2479635
3.011469
29.62524
0.4002188
0.3802609
0.247289
24.53236
0.7594676
0.910691
2.732642
0.1123614
-0.3824362
0.07091728
-80.22415
-0.0884857
-60.46525
0.3214411
-2.397702
46.71346
-3.752488
0.0587941
0.2253454
3.751468
0.02480703
0.2921199
-47.84697
44.74426
3.228717
-7.41993
46.79351
0.04401793
0.03986757
0.0316095
-13.60679