/*--------------------------------*- C++ -*----------------------------------*\
| =========                 |                                                 |
| \\      /  F ield         | OpenFOAM: The Open Source CFD Toolbox           |
|  \\    /   O peration     | Version:  2406                                  |
|   \\  /    A nd           | Website:  www.openfoam.com                      |
|    \\/     M anipulation  |                                                 |
\*---------------------------------------------------------------------------*/
FoamFile
{
    version     2.0;
    format      ascii;
    arch        "LSB;label=32;scalar=64";
    class       volScalarField;
    location    "0.78";
    object      p;
}
// * * * * * * * * * * * * * * * * * * * * * * * * * * * * * * * * * * * * * //

dimensions      [0 2 -2 0 0 0 0];

internalField   nonuniform List<scalar> 
217010
(
-79.34904
-38.87163
-46.7261
-47.87329
-44.00674
-41.18554
-41.31461
-40.90028
-40.90404
-40.93588
-41.08716
-41.09545
-41.12459
-41.15993
-41.25363
-41.3442
-41.36125
-41.38882
-41.41245
-41.44457
-41.5001
-41.59466
-41.53232
-41.65371
-41.70053
-41.68147
-42.07879
-42.45262
-42.35593
-41.88628
-41.60142
-41.64854
-41.87521
-42.49902
-43.23671
-44.43666
-45.68898
-47.18798
-49.07754
-51.14385
-53.42821
-55.31722
-57.16317
-59.545
-61.60929
-63.66009
-65.99716
-70.18213
-71.18517
-78.28307
-56.71921
-57.92994
-57.22856
-57.37434
-56.63609
-55.66921
-54.83841
-54.14557
-53.43888
-52.70212
-51.93618
-51.12756
-50.2488
-49.25694
-48.15898
-46.9471
-45.59701
-44.1191
-42.54222
-40.87069
-39.10474
-37.24391
-35.31589
-33.34857
-31.35206
-29.32131
-27.24716
-25.16722
-23.13179
-21.1505
-19.23324
-17.3976
-15.62434
-13.91575
-12.29977
-10.78495
-9.406429
-8.144718
-7.031214
-6.076858
-5.252542
-4.605101
-4.138796
-3.808789
-3.571678
-3.421841
-3.353995
-3.452272
-3.571087
-3.764556
-4.095594
-4.657811
-5.432291
-6.461001
-7.678674
-9.089782
-10.65319
-12.32327
-14.05929
-15.86361
-17.71702
-19.64363
-21.5686
-23.52607
-25.4961
-27.42658
-29.38397
-31.41278
-33.3227
-35.17761
-37.01779
-38.78833
-40.50305
-42.18054
-43.79302
-45.25986
-46.60964
-47.87139
-49.04302
-50.06145
-50.92181
-51.62048
-52.13102
-52.44569
-52.59965
-52.65561
-52.70925
-52.83492
-52.89628
-52.60003
-52.4494
-53.11236
-53.14914
-49.94678
-43.13576
-44.97891
-65.85258
-77.48581
-63.94626
-39.77143
-32.31717
-31.72315
-36.20818
-35.43923
-36.6422
-34.32297
-29.94591
-25.36368
-22.53845
-21.45852
-22.40344
-23.458
-27.56311
-32.54739
-36.94024
-39.45145
-39.69411
-38.09192
-36.03707
-35.07226
-36.26945
-36.88928
-35.48254
-34.41808
-35.13844
-35.82106
-35.58971
-34.82214
-33.3261
-31.74388
-30.53083
-30.22917
-30.16989
-29.86862
-30.09023
-30.54311
-30.77731
-30.26261
-29.53717
-29.74369
-29.72607
-29.99717
-30.20275
-30.28445
-30.38402
-30.60221
-30.22798
-32.68857
-29.59619
-64.00208
-21.36454
-18.95
-13.35225
-10.22072
-7.324344
-4.88999
-2.72863
-0.707247
1.053236
2.708976
4.238021
5.659926
7.021354
8.322721
9.556433
10.71504
11.81665
12.88849
13.92301
14.92111
15.88709
16.81325
17.70003
18.57932
19.44574
20.29959
21.12202
21.90991
22.67705
23.43809
24.19595
24.94591
25.66486
26.3673
27.06958
27.76235
28.45241
29.13903
29.83179
30.49445
31.18416
31.84041
32.49594
33.14438
33.79269
34.43259
35.06582
35.70389
36.35606
37.00859
37.65037
38.28398
38.91919
39.57616
40.2458
40.91005
41.57734
42.25599
42.94127
43.6395
44.34062
45.04021
45.77553
46.58634
47.42435
48.24211
49.05482
49.916
50.97311
52.28192
53.75795
53.80314
52.05571
50.67117
49.55449
48.57526
47.62288
46.64696
45.71086
44.87477
44.0901
43.26632
42.42176
41.60049
40.82311
40.06765
39.31315
38.55071
37.79138
37.05653
36.33198
35.59731
34.86426
34.14286
33.41321
32.69089
31.95987
31.20513
30.46289
29.74039
29.01591
28.27532
27.49858
26.75942
25.99294
25.2109
24.43096
23.65043
22.84495
22.02991
21.2182
20.39432
19.53441
18.63896
17.74633
16.86505
15.95797
15.0124
14.04574
13.04485
12.01124
10.95574
9.870778
8.779873
7.628392
6.411781
5.160111
3.847073
2.485586
1.037793
-0.5107388
-2.136657
-3.852671
-5.735544
-7.771416
-10.07382
-12.5539
-15.34697
-18.7145
-22.37339
-28.79281
-31.90249
53.82786
52.294
50.84141
49.68809
48.69416
47.73582
46.75416
45.80779
44.96052
44.1701
43.34457
42.49694
41.6701
40.88707
40.12759
39.37021
38.60512
37.84245
37.10429
36.37697
35.64004
34.90462
34.18092
33.44905
32.72501
31.99233
31.23561
30.49141
29.76683
29.04068
28.29853
27.51939
26.78078
26.01146
25.22789
24.44661
23.66483
22.85795
22.04171
21.22869
20.40368
19.54227
18.64534
17.75149
16.86918
15.96057
15.01369
14.04596
13.04345
12.00798
10.9506
9.863718
8.771701
7.617074
6.397689
5.143592
3.827045
2.462825
1.01026
-0.5433889
-2.173538
-3.894857
-5.784051
-7.827211
-10.14794
-12.63877
-15.45147
-18.83895
-22.57491
-28.93307
-33.01904
-22.35351
-19.07169
-13.52961
-10.3288
-7.416634
-4.96442
-2.79426
-0.7555383
1.01115
2.670914
4.20568
5.631417
6.996463
8.301555
9.53896
10.70067
11.80422
12.87824
13.915
14.915
15.88272
16.81083
17.69872
18.57912
19.44668
20.30183
21.12564
21.91455
22.68275
23.4449
24.20393
24.95509
25.67523
26.37863
27.08215
27.77603
28.46743
29.15549
29.85064
30.51297
31.20478
31.86235
32.51948
33.1694
33.81914
34.46057
35.09555
35.73568
36.38989
37.04419
37.68753
38.32319
38.96118
39.62106
40.29338
40.96015
41.63044
42.31241
43.00136
43.70294
44.40744
45.11259
45.85641
46.67508
47.51756
48.33849
49.15905
50.03945
51.13292
52.49286
53.77374
-32.54126
-31.61638
-36.00665
-35.48214
-36.81372
-34.74878
-30.3737
-25.67377
-22.68926
-21.474
-22.34763
-23.32265
-27.319
-32.2835
-36.74349
-39.38649
-39.75588
-38.19484
-36.09952
-35.05526
-36.24049
-36.92838
-35.53039
-34.42069
-35.13042
-35.84101
-35.61534
-34.84335
-33.34431
-31.7554
-30.53309
-30.22815
-30.17151
-29.87156
-30.09225
-30.54823
-30.7821
-30.2625
-29.53756
-29.74485
-29.72784
-30.00195
-30.20656
-30.28685
-30.38942
-30.59962
-30.27314
-32.66916
-30.41776
-58.61862
-57.70907
-57.92285
-57.27645
-57.40562
-56.73418
-55.77097
-54.92312
-54.21811
-53.51015
-52.77452
-52.01028
-51.20488
-50.33239
-49.34684
-48.25456
-47.04915
-45.70517
-44.23332
-42.65809
-40.98757
-39.22227
-37.35887
-35.42652
-33.45489
-31.45414
-29.41987
-27.34129
-25.25402
-23.21104
-21.2226
-19.29776
-17.45605
-15.67674
-13.95957
-12.3389
-10.818
-9.434386
-8.167592
-7.048955
-6.09105
-5.262886
-4.611835
-4.14307
-3.81164
-3.573615
-3.423207
-3.355129
-3.453034
-3.571575
-3.765083
-4.09666
-4.660224
-5.436059
-6.46754
-7.687425
-9.102199
-10.66908
-12.34273
-14.08226
-15.89055
-17.74799
-19.67955
-21.60759
-23.57026
-25.54408
-27.47593
-29.43663
-31.47703
-33.38696
-35.24493
-37.08869
-38.85991
-40.577
-42.25745
-43.87081
-45.33578
-46.68516
-47.94646
-49.11375
-50.12493
-50.97842
-51.66948
-52.17135
-52.47786
-52.62564
-52.67654
-52.72532
-52.84435
-52.88059
-52.56477
-52.44715
-53.12025
-52.97175
-49.56685
-43.04881
-46.35056
-67.70357
-77.18269
-61.82819
-37.90902
-73.18975
-39.7105
-46.54149
-47.99153
-44.15571
-41.22206
-41.31634
-40.90533
-40.90387
-40.93503
-41.08626
-41.09539
-41.12443
-41.15995
-41.25372
-41.34431
-41.36132
-41.38886
-41.41258
-41.44472
-41.50104
-41.59515
-41.53226
-41.65466
-41.69935
-41.68297
-42.08535
-42.45781
-42.35045
-41.87639
-41.59756
-41.65311
-41.89166
-42.52918
-43.28321
-44.50454
-45.76891
-47.29315
-49.21264
-51.30511
-53.6019
-55.48
-57.35878
-59.77359
-61.8187
-63.87225
-66.3634
-70.52186
-71.79546
-76.42443
-65.83044
-40.04162
-46.26152
-48.10799
-44.30694
-41.26151
-41.3171
-40.91028
-40.90389
-40.93413
-41.08585
-41.09533
-41.1241
-41.16002
-41.25428
-41.34492
-41.36134
-41.38889
-41.41273
-41.44481
-41.50275
-41.59693
-41.5324
-41.65979
-41.70235
-41.68672
-42.09469
-42.4706
-42.35705
-41.8708
-41.59218
-41.65599
-41.90486
-42.55068
-43.31068
-44.53101
-45.80162
-47.34017
-49.26756
-51.37018
-53.66071
-55.5245
-57.40523
-59.86635
-61.95088
-64.03534
-66.64354
-70.74494
-71.80993
-75.03047
-57.95742
-57.95923
-57.29762
-57.4059
-56.75061
-55.80418
-54.95306
-54.25299
-53.55386
-52.82189
-52.05599
-51.24721
-50.37582
-49.38942
-48.29575
-47.09027
-45.74315
-44.26291
-42.68574
-41.01641
-39.25089
-37.39092
-35.46059
-33.48953
-31.48906
-29.45585
-27.37816
-25.28985
-23.2451
-21.25536
-19.32829
-17.48527
-15.70318
-13.98614
-12.36139
-10.83736
-9.452073
-8.183428
-7.061706
-6.102508
-5.272171
-4.61826
-4.147448
-3.815151
-3.5766
-3.42611
-3.358479
-3.456037
-3.573771
-3.767302
-4.099767
-4.665662
-5.442496
-6.477156
-7.697626
-9.115375
-10.68381
-12.35888
-14.09927
-15.90876
-17.76692
-19.70093
-21.62816
-23.59339
-25.56709
-27.49767
-29.46768
-31.50228
-33.4116
-35.27084
-37.11445
-38.88376
-40.60156
-42.28262
-43.89387
-45.35398
-46.70145
-47.96157
-49.13214
-50.14487
-51.00517
-51.69963
-52.20459
-52.51723
-52.67662
-52.73905
-52.79039
-52.89133
-52.89203
-52.58068
-52.52073
-53.18167
-52.94115
-49.22804
-42.93486
-46.88091
-69.85486
-77.71529
-60.64135
-36.80342
-32.73939
-31.53525
-35.97275
-35.62297
-36.97045
-34.90281
-30.65192
-25.92651
-22.8463
-21.51305
-22.325
-23.24787
-27.21312
-32.19033
-36.73674
-39.48043
-39.92072
-38.45076
-36.25541
-35.06175
-36.22101
-36.9818
-35.57155
-34.38399
-35.1351
-35.89328
-35.64609
-34.87088
-33.36773
-31.77011
-30.53917
-30.2214
-30.16874
-29.87125
-30.09991
-30.56762
-30.79917
-30.26967
-29.54226
-29.7468
-29.72816
-30.00517
-30.20861
-30.28851
-30.39142
-30.59449
-30.28277
-32.68781
-30.73131
-52.08313
-22.45278
-19.16459
-13.60504
-10.38096
-7.458647
-4.9972
-2.819211
-0.7857035
0.9957771
2.655509
4.192875
5.619737
6.985434
8.292443
9.531375
10.695
11.79801
12.87309
13.91077
14.91166
15.87979
16.80942
17.69693
18.57793
19.44619
20.30238
21.12741
21.91629
22.68446
23.44678
24.2062
24.95865
25.67942
26.38187
27.08606
27.78013
28.47299
29.16151
29.85516
30.52165
31.20923
31.86828
32.52637
33.17633
33.82666
34.4684
35.10332
35.74321
36.39875
37.05442
37.69778
38.33347
38.97069
39.63151
40.30598
40.97322
41.64315
42.32679
43.01596
43.7182
44.42366
45.12932
45.87295
46.69709
47.54355
48.36254
49.18434
50.06837
51.18369
52.5791
53.7399
53.7998
52.38772
50.89868
49.72228
48.72486
47.76797
46.78113
45.82792
44.98014
44.19303
43.36542
42.51561
41.68549
40.90179
40.14199
39.38503
38.61843
37.85372
37.11599
36.38892
35.65056
34.91475
34.19147
33.45782
32.73532
32.0021
31.24258
30.49814
29.77401
29.04776
28.30319
27.52847
26.78596
26.01892
25.23346
24.45169
23.66989
22.86127
22.0448
21.2323
20.40779
19.54497
18.64626
17.75225
16.87088
15.96119
15.01368
14.04578
13.04171
12.00516
10.94682
9.859196
8.768345
7.611441
6.390658
5.136662
3.817656
2.453914
0.9981351
-0.5575435
-2.188578
-3.911301
-5.802959
-7.861915
-10.17635
-12.6765
-15.49884
-18.90107
-22.66153
-29.03549
-33.07987
53.73649
52.53461
51.0703
49.86282
48.85042
47.88965
46.89707
45.93681
45.08051
44.28615
43.45407
42.60163
41.76725
40.97827
40.21397
39.45287
38.68317
37.91473
37.17436
36.44327
35.70152
34.96338
34.2376
33.50071
32.77713
32.04133
31.27799
30.53319
29.80682
29.07882
28.33134
27.55798
26.80827
26.04315
25.25416
24.47131
23.68867
22.87679
22.05957
21.24632
20.42123
19.5552
18.65376
17.75915
16.87835
15.9659
15.01695
14.04844
13.04151
12.00327
10.94313
9.853388
8.763854
7.601715
6.377746
5.123088
3.798633
2.43469
0.9720408
-0.5888985
-2.223076
-3.949884
-5.851738
-7.917995
-10.23786
-12.7552
-15.59662
-19.0139
-22.8424
-29.12152
-33.22737
-22.62518
-19.2474
-13.76398
-10.47682
-7.546423
-5.065918
-2.87362
-0.8348067
0.9544554
2.619349
4.163061
5.592849
6.961576
8.273012
9.515493
10.68346
11.78674
12.86463
13.9046
14.90753
15.87681
16.80961
17.69649
18.57877
19.44844
20.30647
21.13408
21.92367
22.69252
23.45532
24.21579
24.9707
25.69368
26.39544
27.10143
27.79635
28.49216
29.18241
29.874
30.5488
31.23416
31.8949
32.55502
33.2069
33.8586
34.50282
35.13975
35.78172
36.43924
37.09746
37.74294
38.38149
39.02164
39.68472
40.36308
41.03336
41.70666
42.39374
43.08714
43.7927
44.50276
45.21503
45.96512
46.79498
47.64659
48.46795
49.29669
50.19726
51.33632
52.70378
53.67266
-32.95295
-31.2744
-35.8762
-35.9745
-37.31556
-35.40305
-31.15013
-26.31531
-23.07806
-21.58507
-22.30916
-23.1679
-27.079
-32.01834
-36.6232
-39.43328
-40.10236
-38.81594
-36.59835
-35.17661
-36.25094
-37.12251
-35.62761
-34.2564
-35.11971
-35.98357
-35.7006
-34.91968
-33.40578
-31.79705
-30.55496
-30.21416
-30.16407
-29.86815
-30.11901
-30.60443
-30.82857
-30.28645
-29.55343
-29.75121
-29.72778
-30.01197
-30.21451
-30.29125
-30.39892
-30.58434
-30.30303
-32.70528
-31.55139
-46.82859
-58.67846
-58.01599
-57.30381
-57.35715
-56.76823
-55.87152
-55.03191
-54.33047
-53.64031
-52.91412
-52.14875
-51.33851
-50.47388
-49.49339
-48.40621
-47.2116
-45.88653
-44.41283
-42.83726
-41.16444
-39.39517
-37.527
-35.58795
-33.61008
-31.60328
-29.56507
-27.48085
-25.38298
-23.32996
-21.33348
-19.39767
-17.54851
-15.75847
-14.03537
-12.40561
-10.87391
-9.484461
-8.211323
-7.08294
-6.121778
-5.287827
-4.628737
-4.154742
-3.821125
-3.581902
-3.431567
-3.364872
-3.46227
-3.578666
-3.772166
-4.105764
-4.675457
-5.453454
-6.493219
-7.713917
-9.136592
-10.70769
-12.3858
-14.12896
-15.94256
-17.80329
-19.74357
-21.67133
-23.64409
-25.62101
-27.55221
-29.53057
-31.57028
-33.48129
-35.34667
-37.19504
-38.96452
-40.68647
-42.37269
-43.98815
-45.44577
-46.79596
-48.05983
-49.2341
-50.24088
-51.08842
-51.76869
-52.2703
-52.58496
-52.75709
-52.83489
-52.89627
-52.9858
-52.96238
-52.68358
-52.65511
-53.15974
-52.51506
-48.54666
-42.65588
-47.90951
-71.97476
-77.57462
-58.4458
-35.50513
-60.03205
-40.85593
-45.83263
-48.29211
-44.58472
-41.32069
-41.3163
-40.91698
-40.90406
-40.93306
-41.08571
-41.09568
-41.12446
-41.16055
-41.25534
-41.34574
-41.36162
-41.3892
-41.41296
-41.44474
-41.50548
-41.59925
-41.53156
-41.6695
-41.71483
-41.70134
-42.11167
-42.48807
-42.35606
-41.86224
-41.58433
-41.65734
-41.92403
-42.58
-43.35264
-44.60004
-45.88202
-47.44207
-49.40822
-51.539
-53.85606
-55.70582
-57.61834
-60.0765
-62.13716
-64.29338
-67.08416
-71.18165
-72.33722
-74.28413
-56.02747
-41.65994
-45.40384
-48.61342
-44.98328
-41.41405
-41.31119
-40.92436
-40.90328
-40.93059
-41.08558
-41.09688
-41.12665
-41.16241
-41.25694
-41.34669
-41.36239
-41.39004
-41.4134
-41.44473
-41.51049
-41.60303
-41.52985
-41.68654
-41.74003
-41.73445
-42.14301
-42.5139
-42.36659
-41.85056
-41.57408
-41.65413
-41.94111
-42.61115
-43.3923
-44.65384
-45.94506
-47.53496
-49.52947
-51.68743
-54.01685
-55.85586
-57.8324
-60.33794
-62.38437
-64.59072
-67.61516
-71.74056
-72.64567
-73.59206
-59.26594
-58.17828
-57.32582
-57.24801
-56.72548
-55.9221
-55.11568
-54.41448
-53.7305
-53.00678
-52.2388
-51.42097
-50.56049
-49.57924
-48.48753
-47.2784
-45.94104
-44.47033
-42.90206
-41.23872
-39.47935
-37.61793
-35.68022
-33.70239
-31.69493
-29.65852
-27.57502
-25.47171
-23.41237
-21.41124
-19.46691
-17.61496
-15.82003
-14.09115
-12.45562
-10.91535
-9.522972
-8.245535
-7.109153
-6.149215
-5.30937
-4.642837
-4.165691
-3.830405
-3.590678
-3.441083
-3.375565
-3.473053
-3.587975
-3.781463
-4.116731
-4.691912
-5.4717
-6.519491
-7.739734
-9.168957
-10.74275
-12.42305
-14.16702
-15.98483
-17.84808
-19.79505
-21.71844
-23.70106
-25.67694
-27.60206
-29.59589
-31.64223
-33.54557
-35.41626
-37.26533
-39.02899
-40.75429
-42.44351
-44.05705
-45.50362
-46.85299
-48.11296
-49.28111
-50.27294
-51.11795
-51.81053
-52.32773
-52.6503
-52.83913
-52.93223
-53.00326
-53.08643
-53.05608
-52.83548
-52.80891
-53.04279
-52.02124
-47.9364
-42.56033
-49.85998
-74.04115
-77.13255
-55.95373
-34.18105
-32.6612
-30.71682
-35.6028
-36.44995
-37.7138
-35.91284
-31.78598
-26.82759
-23.41089
-21.71778
-22.32954
-23.13126
-27.00749
-31.89826
-36.6127
-39.56392
-40.40022
-39.31341
-37.1798
-35.54304
-36.37826
-37.29428
-35.70274
-34.06188
-35.05887
-36.10557
-35.77777
-34.99437
-33.45883
-31.83868
-30.58286
-30.20779
-30.17095
-29.872
-30.1581
-30.66247
-30.87843
-30.31824
-29.57452
-29.76044
-29.7262
-30.02206
-30.22167
-30.29415
-30.40832
-30.57149
-30.34158
-32.74517
-32.39097
-43.26148
-22.82777
-19.2704
-13.90265
-10.56128
-7.62714
-5.128697
-2.92553
-0.8840653
0.92161
2.586863
4.136441
5.56777
6.93777
8.25307
9.499266
10.67278
11.77404
12.85402
13.89585
14.90077
15.87091
16.80805
17.69272
18.57614
19.44652
20.3062
21.1371
21.92648
22.69462
23.45785
24.21948
24.97735
25.70191
26.40117
27.10934
27.80434
28.50292
29.19305
29.88195
30.56105
31.24597
31.90766
32.56924
33.22117
33.87401
34.51953
35.15674
35.79822
36.4581
37.11924
37.76501
38.40425
39.04407
39.70937
40.39238
41.06346
41.73662
42.42814
43.12331
43.83061
44.54326
45.25908
46.01234
46.85478
47.71419
48.53013
49.36453
50.28533
51.45436
52.78362
53.55957
53.62196
52.63469
51.20467
49.96234
48.93119
47.97267
46.97091
45.99559
45.13321
44.34243
43.50588
42.64948
41.80694
41.01492
40.24895
39.48779
38.71487
37.94168
37.20192
36.47069
35.72599
34.98664
34.26134
33.51998
32.79951
32.06245
31.29317
30.5481
29.82127
29.09352
28.34372
27.57026
26.81864
26.05625
25.2634
24.48026
23.69778
22.88241
22.06585
21.25363
20.42916
19.55908
18.65412
17.76051
16.88209
15.96606
15.01615
14.04822
13.03754
11.99757
10.93583
9.844324
8.759234
7.589548
6.36218
5.108266
3.777878
2.417233
0.9459883
-0.6196626
-2.254333
-3.982373
-5.892951
-7.975485
-10.29564
-12.82749
-15.68597
-19.1172
-22.99945
-29.1386
-33.36039
53.44248
52.68881
51.35693
50.10815
49.056
48.09958
47.09198
46.11005
45.24542
44.45428
43.60915
42.75232
41.90328
41.10594
40.33458
39.57198
38.795
38.01391
37.2722
36.53709
35.78719
35.04566
34.31962
33.57114
32.85361
32.11438
31.3368
30.5927
29.86364
29.13413
28.37817
27.61159
26.85302
26.08995
25.29212
24.5087
23.72387
22.89993
22.08247
21.27163
20.45066
19.57449
18.66084
17.76723
16.89471
15.9729
15.0206
14.05484
13.03869
11.99512
10.92874
9.833514
8.759085
7.579292
6.347891
5.092731
3.752295
2.399579
0.9144938
-0.6585365
-2.295972
-4.022219
-5.944811
-8.046591
-10.36842
-12.91561
-15.79492
-19.23576
-23.16456
-29.12315
-33.54459
-23.10906
-19.26754
-14.04815
-10.65333
-7.728181
-5.207404
-2.991603
-0.9430923
0.8792624
2.54252
4.102831
5.537074
6.907239
8.229741
9.48291
10.66341
11.75799
12.84114
13.88678
14.89611
15.86769
16.81063
17.69132
18.57706
19.44811
20.31255
21.14913
21.9363
22.70464
23.47117
24.23394
24.99373
25.72122
26.41744
27.12962
27.82426
28.5269
29.21764
29.90933
30.59944
31.27895
31.94089
32.60573
33.25989
33.91565
34.56341
35.20108
35.84483
36.51036
37.17654
37.82218
38.46402
39.1052
39.77342
40.46339
41.13691
41.8135
42.51054
43.20715
43.91699
44.63536
45.35833
46.11219
46.96104
47.8264
48.63534
49.48088
50.41768
51.57734
52.81433
53.39353
-31.82336
-29.81762
-35.11786
-36.99539
-38.27777
-36.62966
-32.61411
-27.49873
-23.90449
-21.96239
-22.42207
-23.16984
-27.04767
-31.83931
-36.67263
-39.72817
-40.75733
-39.92691
-37.97701
-36.25314
-36.68258
-37.45983
-35.77416
-33.81943
-34.95261
-36.26938
-35.88954
-35.10968
-33.53953
-31.90614
-30.62863
-30.20595
-30.15591
-29.88152
-30.23289
-30.745
-30.95137
-30.36796
-29.61437
-29.77707
-29.72321
-30.03915
-30.23162
-30.29753
-30.41613
-30.53546
-30.46175
-32.83014
-32.95808
-40.4449
-59.75043
-58.42613
-57.4062
-57.17098
-56.67617
-55.95949
-55.20338
-54.51421
-53.84574
-53.13196
-52.37019
-51.54525
-50.69708
-49.72579
-48.6469
-47.48571
-46.16131
-44.67114
-43.09207
-41.41964
-39.65541
-37.78767
-35.83881
-33.8516
-31.83632
-29.79734
-27.71044
-25.59313
-23.51974
-21.51207
-19.55732
-17.70574
-15.90248
-14.16212
-12.51871
-10.96669
-9.571997
-8.28927
-7.146133
-6.188819
-5.337035
-4.662203
-4.181052
-3.84485
-3.604412
-3.457459
-3.394752
-3.49051
-3.603576
-3.796891
-4.136196
-4.717678
-5.500343
-6.559765
-7.779653
-9.219043
-10.79533
-12.47918
-14.2187
-16.03863
-17.90679
-19.86826
-21.78037
-23.78235
-25.76015
-27.66878
-29.68047
-31.74499
-33.63457
-35.5191
-37.37406
-39.12845
-40.86185
-42.56362
-44.18186
-45.61289
-46.96786
-48.23421
-49.40961
-50.39483
-51.25625
-51.95448
-52.43515
-52.75901
-52.96055
-53.06284
-53.13765
-53.21037
-53.16947
-52.99463
-52.93459
-52.88862
-51.60424
-47.77511
-43.55606
-53.2927
-75.89576
-75.65274
-52.96607
-32.75588
-52.66989
-42.20843
-45.14496
-49.12355
-45.49204
-41.53438
-41.30989
-40.93705
-40.9007
-40.92374
-41.08484
-41.09958
-41.13301
-41.16759
-41.25904
-41.34801
-41.36385
-41.3914
-41.41422
-41.44575
-41.51874
-41.60854
-41.52802
-41.70594
-41.77492
-41.7878
-42.17585
-42.52354
-42.34879
-41.82254
-41.55718
-41.64499
-41.9552
-42.64633
-43.42984
-44.73105
-46.04376
-47.65238
-49.69908
-51.89916
-54.26765
-56.10454
-58.10539
-60.54971
-62.61116
-64.94549
-68.28746
-72.46166
-73.16072
-72.72021
-49.42438
-42.47105
-45.27023
-49.70915
-46.27516
-41.57983
-41.27662
-40.97001
-40.89928
-40.90524
-41.08258
-41.10532
-41.14772
-41.17873
-41.25878
-41.3473
-41.36498
-41.39339
-41.41681
-41.45006
-41.52821
-41.61496
-41.52998
-41.72236
-41.81545
-41.84389
-42.18434
-42.47654
-42.28881
-41.77229
-41.52377
-41.62538
-41.96156
-42.68074
-43.45972
-44.81297
-46.10418
-47.77079
-49.89268
-52.14348
-54.55942
-56.38296
-58.39222
-60.60671
-62.76596
-65.41976
-69.31227
-73.43237
-73.89809
-71.92834
-60.22422
-58.68253
-57.48373
-57.09631
-56.62498
-55.98458
-55.28567
-54.61363
-53.9671
-53.26448
-52.50878
-51.65779
-50.82656
-49.86272
-48.75448
-47.54668
-46.26946
-44.80959
-43.23624
-41.56764
-39.8131
-37.94674
-35.99044
-34.00341
-31.98859
-29.95167
-27.86382
-25.72729
-23.64348
-21.63931
-19.67823
-17.82529
-15.99817
-14.24874
-12.60539
-11.03962
-9.639824
-8.350139
-7.209438
-6.231554
-5.37667
-4.700558
-4.199977
-3.867445
-3.624856
-3.482977
-3.428324
-3.519246
-3.627761
-3.819635
-4.167246
-4.759215
-5.543468
-6.618168
-7.831224
-9.291036
-10.85872
-12.56355
-14.29996
-16.11682
-17.97385
-19.97069
-21.86059
-23.87656
-25.87484
-27.77436
-29.7737
-31.86752
-33.73726
-35.63196
-37.50156
-39.24187
-40.97105
-42.6824
-44.31749
-45.72639
-47.07539
-48.33666
-49.52572
-50.48429
-51.3417
-52.02126
-52.50273
-52.86885
-53.08975
-53.2031
-53.28684
-53.35609
-53.30367
-53.15884
-53.03792
-52.74261
-51.34248
-48.24889
-46.12936
-57.28223
-76.26191
-72.01157
-49.41974
-31.56706
-30.44571
-28.79755
-34.46619
-37.58181
-38.99069
-37.54107
-33.69297
-28.41188
-24.62279
-22.4055
-22.62938
-23.29649
-27.28871
-31.94284
-36.87038
-40.01746
-41.31421
-40.72794
-38.98335
-37.26508
-37.24786
-37.57793
-35.80484
-33.53476
-34.79406
-36.46935
-36.04823
-35.28294
-33.67287
-32.02122
-30.70773
-30.21881
-30.19645
-29.90256
-30.35385
-30.85442
-31.05507
-30.44891
-29.69142
-29.79878
-29.71428
-30.0644
-30.2297
-30.29836
-30.47393
-30.44535
-30.49623
-32.92256
-33.16374
-37.83317
-23.38699
-19.19491
-14.17014
-10.73144
-7.845044
-5.286122
-3.052147
-1.00133
0.8266366
2.490066
4.074107
5.503182
6.869415
8.20777
9.465346
10.64493
11.72994
12.82693
13.87877
14.89466
15.86197
16.80783
17.68637
18.57305
19.44473
20.32066
21.15371
21.93673
22.7114
23.47798
24.23227
24.99432
25.73559
26.42475
27.1413
27.83385
28.54315
29.23599
29.92849
30.61284
31.29217
31.95769
32.62889
33.28411
33.93888
34.58558
35.2288
35.87592
36.54061
37.20505
37.85154
38.49969
39.14177
39.8117
40.50824
41.18776
41.86234
42.5606
43.26171
43.97974
44.70425
45.43531
46.18431
47.04652
47.93393
48.73974
49.60521
50.54519
51.66423
52.78007
53.1656
53.18272
52.66472
51.49357
50.27008
49.19227
48.22837
47.1971
46.19985
45.33311
44.54661
43.67913
42.81915
41.96422
41.17074
40.39046
39.62389
38.84567
38.06223
37.32505
36.58399
35.8267
35.08448
34.35837
33.59982
32.88946
32.14084
31.3553
30.61477
29.88714
29.16193
28.39658
27.61474
26.86575
26.10106
25.29874
24.52573
23.74583
22.91252
22.09283
21.27626
20.46112
19.58721
18.66554
17.76261
16.89889
15.9753
15.01636
14.05353
13.03673
11.99336
10.9202
9.809208
8.749169
7.557413
6.333747
5.07705
3.715898
2.382318
0.8779273
-0.694368
-2.344325
-4.068888
-5.999058
-8.115659
-10.43961
-13.00269
-15.90464
-19.34653
-23.29957
-29.01588
-33.67809
52.8566
52.5324
51.58136
50.45734
49.40262
48.46539
47.38595
46.34843
45.49703
44.74793
43.87411
42.98038
42.08101
41.29598
40.53391
39.7503
38.93775
38.13627
37.42282
36.68093
35.90665
35.16937
34.4494
33.6611
33.00421
32.22217
31.40901
30.68153
29.92795
29.22654
28.4509
27.69623
26.95118
26.15787
25.31096
24.54196
23.7695
22.9393
22.13814
21.31311
20.46329
19.59061
18.69942
17.78759
16.90162
15.99219
15.03222
14.03887
13.02413
11.99386
10.94357
9.817918
8.744801
7.505423
6.307951
5.076035
3.660066
2.360055
0.8026806
-0.7254579
-2.382162
-4.165777
-6.104169
-8.228913
-10.55349
-13.13691
-16.07951
-19.53004
-23.51197
-28.88079
-33.76934
-23.60889
-19.16477
-14.37925
-10.87333
-8.04012
-5.358935
-3.14103
-1.110262
0.72616
2.44454
4.05341
5.440986
6.821601
8.189299
9.422627
10.6028
11.72166
12.83867
13.87387
14.89005
15.83408
16.79209
17.6988
18.55669
19.45331
20.33491
21.13459
21.95702
22.73801
23.48106
24.22783
25.03343
25.80017
26.44371
27.17323
27.86187
28.58566
29.27522
29.96122
30.64135
31.34548
32.02156
32.68795
33.33943
33.98451
34.65288
35.30978
35.93724
36.58805
37.28562
37.95558
38.59466
39.23481
39.89238
40.61469
41.31042
41.94908
42.68095
43.4063
44.11079
44.83289
45.57026
46.3105
47.21155
48.14449
48.9009
49.75102
50.64489
51.69864
52.6883
52.87722
-28.40481
-27.73603
-33.61901
-38.08661
-39.84107
-38.72467
-35.21448
-29.89529
-25.54876
-23.0788
-22.99143
-23.526
-27.70671
-32.29253
-37.29012
-40.41662
-42.06462
-41.76597
-40.2805
-38.59002
-38.21826
-37.86414
-35.73226
-33.34587
-34.55256
-36.8407
-36.26239
-35.54604
-33.83261
-32.14071
-30.78662
-30.26423
-30.04222
-29.94005
-30.50613
-30.99962
-31.21524
-30.6266
-29.8167
-29.83569
-29.71505
-30.12813
-30.28204
-30.29653
-30.37603
-30.5976
-29.88963
-32.48499
-32.7734
-35.43378
-60.79298
-58.92183
-57.55668
-57.04894
-56.59474
-56.02153
-55.38796
-54.7399
-54.13624
-53.45635
-52.70914
-51.84378
-51.06293
-50.09001
-49.03374
-47.86836
-46.58016
-45.0525
-43.48139
-41.82433
-40.07962
-38.21539
-36.25866
-34.27817
-32.24495
-30.20152
-28.10611
-25.96224
-23.88342
-21.87396
-19.89769
-17.98185
-16.12268
-14.39584
-12.75268
-11.1818
-9.746258
-8.47816
-7.305356
-6.268575
-5.46533
-4.775382
-4.238608
-3.905056
-3.659277
-3.514246
-3.47231
-3.570298
-3.667398
-3.856238
-4.209782
-4.843274
-5.613746
-6.723836
-7.892146
-9.396603
-10.93724
-12.6759
-14.45472
-16.26453
-18.06691
-20.0938
-21.99629
-23.96381
-25.98007
-27.98351
-29.97704
-32.03228
-33.92606
-35.80225
-37.67138
-39.45645
-41.17419
-42.85409
-44.49266
-45.92567
-47.28851
-48.50485
-49.70557
-50.66639
-51.5188
-52.1935
-52.70472
-53.05801
-53.28324
-53.39829
-53.48433
-53.55055
-53.47608
-53.33259
-53.12972
-52.6267
-51.22278
-49.11562
-49.34704
-60.00568
-73.14798
-65.13765
-45.1255
-30.9796
-46.52194
-42.27399
-45.93531
-50.66437
-47.7267
-41.32946
-41.11218
-40.99405
-40.89308
-40.85812
-41.07731
-41.1165
-41.17449
-41.19846
-41.25118
-41.34279
-41.36821
-41.39719
-41.42613
-41.45899
-41.53887
-41.62299
-41.53706
-41.7327
-41.85302
-41.89298
-42.16709
-42.3728
-42.13844
-41.68688
-41.46485
-41.59387
-41.94703
-42.69749
-43.56196
-44.90188
-46.31206
-47.99024
-50.14501
-52.44844
-54.92398
-56.87163
-58.70319
-60.72254
-62.94876
-66.19487
-71.01682
-75.06091
-74.58059
-71.16535
-0.02476388
-0.005675334
-5.038422
2.632284
0.8243185
-0.2249663
0.03724718
2.199187
-0.1859565
0.08602721
1.610368
0.9322261
-0.0103279
15.12936
0.07904615
3.238439
7.521184
-17.04279
2.754928
11.19667
-0.8144319
2.774818
0.04961567
2.481659
-0.06168799
3.233614
2.395568
0.1660524
1.963969
-0.4387907
2.131886
-0.7801584
-107.4142
-0.08193583
3.777229
0.117163
0.0613783
5.24582
0.01189571
3.614472
5.567476
-0.004771214
1.381316
0.7870262
0.4073491
7.160723
-0.01085582
-0.004344057
-6.526759e-05
6.150005
-3.811747
-0.01371954
-1.431401
-0.02642879
3.563583
0.07353187
-3.463648
0.09501318
-10.74998
5.151216e-07
0.1938037
2.426378
-0.1495979
0.7929636
6.574669
0.04128417
-0.1339935
2.705679
17.39995
-1.099699
1.311445
0.04736052
4.233395
0.263897
1.798548
2.126591
1.182239
0.6649901
-0.007316456
2.899709
0.4705403
0.4559442
0.4126976
-0.1467758
0.3048757
0.06931336
7.761515
0.05099244
-0.4679205
-1.221589
5.23752
5.935024
3.490341
0.4271058
0.5769734
-2.017915
3.668069
3.008785
-104.1892
0.5732963
-0.1971407
19.21947
9.837294
0.3361516
-3.529806
2.489389
0.04349083
3.729808
-0.173816
2.367123
0.06566299
-111.7158
0.04196582
-1.118042
-3.606182
0.02003464
-0.1807357
-12.0243
-7.366292
-0.6207989
-0.695403
-1.412117
-0.4162253
0.1012252
1.852675
-0.250707
0.006555492
0.1163137
2.073652
0.04851084
11.94676
6.511076
2.568255
-0.4776312
0.07950508
-0.02252553
-3.999564
-140.636
-16.48436
5.22365
2.638913
6.444125
2.84103
-5.985225
-0.07435656
0.3926422
3.727268
-0.71845
0.0220879
3.893134
1.529816
0.1820329
-0.4575554
2.269581
12.35233
1.880552
0.05235892
-0.9377461
0.005362034
-0.6101535
1.146373
2.380475
-2.940254
0.0239751
6.208772
-0.05852239
-0.2131444
4.851316
-0.2968858
0.3725546
0.1824581
0.407203
0.04194379
-5.112162
-0.5244737
0.002571169
-0.5956698
-0.1795417
-0.1909447
3.376657
-0.1286279
3.35419
-9.670266
-0.9871371
-0.8511755
-4.542892
4.083928
3.677947
6.139458
-0.1451189
-4.485375
0.06781298
0.9386298
0.08029491
13.94862
-0.7071039
-0.7817633
0.7017341
-12.36137
-0.7199197
5.297647
-0.6333927
-0.7656683
9.761573
-0.6366742
-1.256031
0.02379967
-6.354195
-10.01022
-0.05504234
0.03217624
1.555383
0.03860772
3.54838
0.02650282
0.0407263
-1.199573
-0.3066852
0.8613118
1.56043
-7.388198
-5.571672
1.946027
0.1748596
22.69013
2.977842
1.643909
0.07761447
-3.641741
-12.26378
0.049116
-0.09818845
-9.884247
3.603351
2.178122
4.773409
1.418709
2.534351
3.210571
0.107338
-3.375075
0.3711777
0.042126
-0.1394909
0.2455127
1.337661
-1.590222
-2.173632
-0.2663367
2.522598
2.520498
-80.25
7.003858
-1.134758
0.03588303
18.53617
-0.4245453
0.7370402
-0.8469411
-1.608962
1.321699
0.5360474
-0.2574734
0.8318511
4.113921
0.5599859
0.1418822
0.9864706
2.149927
0.3073157
-1.129718
0.06730613
-0.3206876
0.04246696
6.227911
2.951989
3.559395
0.1249495
3.023073
0.1088052
-1.150262
-45.66864
2.169793
-0.4311989
6.460807
0.03932135
-3.248871
4.234054
4.839254
0.4580938
1.610371
0.04706261
-54.40243
3.128542
5.118406
3.902599
-0.01151315
14.72797
2.619277