/*--------------------------------*- C++ -*----------------------------------*\
| =========                 |                                                 |
| \\      /  F ield         | OpenFOAM: The Open Source CFD Toolbox           |
|  \\    /   O peration     | Version:  2406                                  |
|   \\  /    A nd           | Website:  www.openfoam.com                      |
|    \\/     M anipulation  |                                                 |
\*---------------------------------------------------------------------------*/
FoamFile
{
    version     2.0;
    format      ascii;
    arch        "LSB;label=32;scalar=64";
    class       volScalarField;
    location    "0.96";
    object      p;
}
// * * * * * * * * * * * * * * * * * * * * * * * * * * * * * * * * * * * * * //

dimensions      [0 2 -2 0 0 0 0];

internalField   nonuniform List<scalar> 
15536
(
-13.55614
-17.03206
-21.49012
-27.42095
-33.07155
-37.52631
-40.16414
-40.99417
-41.1207
-41.57678
-42.77148
-45.4506
-47.76303
-48.31347
-46.88636
-44.09893
-40.17701
-35.58048
-30.39869
-24.95203
-22.37455
-21.78255
-25.11456
-33.80765
-41.87121
-52.2322
-75.0771
-117.8617
-165.276
-159.321
-92.3894
-45.65238
-60.11923
-83.97187
-108.9855
-136.1092
-140.0246
-122.7537
-114.2917
-115.6876
-120.3934
-124.6937
-126.8491
-127.2594
-126.7371
-125.1503
-122.65
-119.1402
-115.1699
-110.8905
-105.9178
-100.3675
-94.19013
-87.64686
-80.67869
-73.36405
-66.06192
-58.67368
-50.93123
-43.03118
-35.28314
-27.69326
-20.14006
-12.68281
-5.464292
1.620473
8.400762
14.84378
20.84363
26.40844
31.49557
36.10929
40.20655
43.7092
46.58915
48.95091
50.65811
51.75583
52.32701
52.37835
51.58792
50.1537
48.14548
45.54314
42.36828
38.64354
34.43493
29.65678
24.46642
18.91956
12.86625
6.482031
-0.1583943
-7.222662
-14.44724
-21.63324
-28.98791
-36.48964
-43.95605
-51.46714
-58.86073
-65.95315
-72.69391
-79.16091
-85.47812
-91.33411
-96.70116
-101.5277
-105.8212
-109.6468
-112.719
-114.9428
-116.3534
-116.9213
-116.4682
-114.5925
-110.9182
-105.3167
-99.08817
-97.87171
-105.4767
-108.529
-92.4962
-60.91413
-36.41455
-74.49984
-147.4721
-151.4772
-99.02318
-49.40907
-24.14797
-12.04149
-0.6175117
8.798112
7.847612
3.898909
-4.502883
-18.86675
-28.56435
-31.37765
-29.62124
-26.08531
-21.34555
-17.67109
-16.13533
-15.91957
-16.31649
-13.87923
-9.059603
-9.577363
-13.24681
-13.93156
-13.2157
-13.62284
-13.37453
-12.48272
-12.41721
-13.56178
-17.04042
-21.48966
-27.40404
-33.02445
-37.45486
-40.10594
-40.93904
-41.07496
-41.54857
-42.75542
-45.45021
-47.77061
-48.32167
-46.88507
-44.0864
-40.17513
-35.58201
-30.3898
-24.91166
-22.3206
-21.75848
-25.15342
-33.84811
-41.86074
-52.13632
-74.91837
-117.6712
-165.2133
-159.6181
-92.47084
-45.54484
-60.30827
-84.11177
-109.0491
-136.2945
-139.9968
-122.6237
-114.2399
-115.3399
-119.6276
-123.5549
-125.4422
-125.728
-125.1586
-123.5518
-121.0509
-117.5519
-113.5996
-109.3557
-104.4225
-98.92019
-92.79344
-86.30693
-79.40412
-72.15671
-64.92233
-57.60721
-49.94344
-42.11764
-34.44446
-26.93041
-19.45208
-12.06711
-4.915497
2.099095
8.810189
15.18988
21.13144
26.64084
31.67822
36.24782
40.30609
43.77759
46.63085
48.97242
50.66625
51.75569
52.32337
52.37456
51.5901
50.17061
48.18258
45.60582
42.46248
38.77532
34.60935
29.87945
24.74451
19.25364
13.26151
6.946276
0.3736719
-6.623159
-13.77383
-20.88495
-28.16613
-35.5908
-42.98059
-50.41624
-57.73608
-64.75541
-71.42684
-77.83283
-84.09396
-89.89441
-95.21435
-99.99748
-104.2553
-108.0561
-111.1102
-113.331
-114.7553
-115.3567
-114.9656
-113.2241
-109.8279
-104.5923
-98.79678
-97.87465
-105.3951
-108.6269
-92.7807
-61.05247
-36.39236
-74.49433
-147.7589
-151.3701
-98.77901
-49.20647
-24.02057
-12.04409
-0.7201953
8.700331
7.861456
3.975655
-4.496768
-18.87999
-28.563
-31.37182
-29.62705
-26.08816
-21.34594
-17.67036
-16.13155
-15.91635
-16.32542
-13.88636
-9.058072
-9.594475
-13.27268
-13.93686
-13.22499
-13.61388
-13.33604
-12.45496
-12.41322
-13.58832
-17.05572
-21.50065
-27.40437
-33.0048
-37.46159
-40.09818
-40.92526
-41.0681
-41.55634
-42.771
-45.49173
-47.7865
-48.3204
-46.89574
-44.10497
-40.19289
-35.5968
-30.40332
-24.87831
-22.27392
-21.74869
-25.29098
-33.94667
-41.86786
-52.01384
-74.79287
-117.8093
-166.0202
-161.2059
-93.36131
-45.14592
-60.19674
-84.08461
-109.1094
-136.2134
-140.0057
-122.8463
-114.1093
-114.9577
-118.8457
-122.5142
-124.4254
-124.7622
-124.2293
-122.6495
-120.1848
-116.7023
-112.764
-108.5516
-103.6326
-98.15844
-92.05503
-85.60741
-78.74743
-71.51687
-64.313
-57.04337
-49.40736
-41.61396
-33.97514
-26.50289
-19.06446
-11.71084
-4.60407
2.379677
9.054882
15.40112
21.31065
26.79042
31.79758
36.33983
40.37346
43.82603
46.65785
48.98515
50.66879
51.75041
52.31389
52.36385
51.58519
50.17883
48.20603
45.64739
42.52608
38.86341
34.72568
30.02063
24.91765
19.46058
13.49758
7.21867
0.6841171
-6.28074
-13.39363
-20.46104
-27.7076
-35.09823
-42.44409
-49.85536
-57.14023
-64.12993
-70.77351
-77.13762
-83.36975
-89.13438
-94.43119
-99.19025
-103.4259
-107.2113
-110.2422
-112.4357
-113.8283
-114.4035
-113.9785
-112.1519
-108.7717
-103.8101
-98.48697
-97.73041
-105.1588
-108.3412
-92.44397
-60.81545
-35.79526
-74.76618
-149.4393
-152.408
-98.9848
-49.1065
-23.89886
-12.07399
-0.9071882
8.476107
7.845157
3.921096
-4.703411
-19.02746
-28.64989
-31.44334
-29.68175
-26.12829
-21.35591
-17.66572
-16.12148
-15.91709
-16.38991
-13.94904
-8.985929
-9.573603
-13.28922
-13.95647
-13.29702
-13.65277
-13.33707
-12.44307
-12.42425
-13.63651
-17.09437
-21.53474
-27.42731
-32.99463
-37.44136
-40.09175
-40.89816
-41.04126
-41.59875
-42.86215
-45.59637
-47.83843
-48.35002
-46.9288
-44.14649
-40.23747
-35.63097
-30.44344
-24.85269
-22.20614
-21.69309
-25.49363
-34.06346
-41.85023
-51.84913
-74.69701
-118.2863
-167.3987
-163.8153
-95.1554
-44.97625
-59.59908
-83.5372
-108.3242
-134.3077
-138.0306
-122.3531
-113.8618
-114.368
-117.6991
-120.9602
-122.6138
-122.7399
-122.1764
-120.5822
-118.1634
-114.7159
-110.8062
-106.6539
-101.8155
-96.42648
-90.40356
-84.03581
-77.26754
-70.12994
-63.01151
-55.83868
-48.31227
-40.60351
-33.05106
-25.67251
-18.32598
-11.05201
-4.033335
2.873919
9.473411
15.75507
21.59941
27.01879
31.97256
36.46933
40.46302
43.88628
46.68602
48.99443
50.66528
51.73724
52.2956
52.34252
51.56922
50.18122
48.22971
45.69673
42.60845
38.98536
34.89611
30.23647
25.19592
19.80182
13.89976
7.701989
1.243704
-5.653241
-12.67028
-19.64677
-26.81238
-34.10654
-41.35685
-48.67752
-55.86893
-62.75681
-69.2993
-75.58518
-81.73882
-87.412
-92.63405
-97.31169
-101.4861
-105.2304
-108.2155
-110.3689
-111.754
-112.3507
-111.9971
-110.3774
-107.2443
-102.6834
-97.96744
-97.20319
-103.6012
-105.882
-90.57441
-60.08486
-35.58098
-75.64621
-151.9951
-153.7184
-99.52215
-49.08244
-23.77226
-12.05195
-1.07268
8.293782
8.051399
3.728043
-5.1387
-19.28857
-28.82901
-31.61331
-29.80177
-26.21631
-21.38368
-17.65891
-16.10755
-15.93191
-16.4916
-14.05055
-8.894523
-9.496158
-13.16222
-13.91039
-13.41451
-13.71289
-13.3411
-12.44129
-12.45458
-13.71456
-17.17187
-21.61178
-27.48869
-33.00882
-37.47987
-40.135
-40.89436
-40.9977
-41.67177
-43.06329
-45.78918
-47.9559
-48.42655
-47.00354
-44.23396
-40.32255
-35.69966
-30.5235
-24.81903
-22.05016
-21.50991
-25.65142
-34.12758
-41.77909
-51.64163
-74.63878
-119.1197
-169.5439
-167.1725
-97.81069
-46.10138
-59.33267
-82.61147
-106.3808
-129.2199
-133.1933
-120.605
-113.4041
-113.6411
-116.5192
-119.5114
-121.1255
-121.2974
-120.7515
-119.1357
-116.7432
-113.2952
-109.3494
-105.2623
-100.4182
-95.0707
-89.06381
-82.7482
-76.04954
-68.93709
-61.87196
-54.78937
-47.33059
-39.67166
-32.18628
-24.89596
-17.62707
-10.41027
-3.477253
3.369571
9.899501
16.11715
21.89233
27.25646
32.15657
36.60576
40.55117
43.94195
46.70651
48.9931
50.6502
51.71092
52.2627
52.30302
51.5342
50.17289
48.24978
45.74622
42.69398
39.11106
35.07255
30.45685
25.48571
20.15119
14.29581
8.185481
1.804118
-5.052978
-11.98611
-18.87322
-25.98001
-33.20674
-40.3667
-47.63712
-54.76887
-61.59382
-68.08
-74.3062
-80.43064
-86.04743
-91.24962
-95.8961
-100.0478
-103.8182
-106.7628
-108.9294
-110.3146
-110.93
-110.5395
-108.8425
-105.7955
-101.5206
-97.29283
-96.35487
-101.0351
-101.9989
-87.99051
-59.88316
-36.84372
-77.7579
-154.6878
-155.328
-100.3514
-49.23768
-23.6335
-11.92043
-1.09237
8.380813
8.792957
3.636432
-5.755521
-19.68208
-29.20203
-31.94893
-30.00416
-26.3566
-21.42094
-17.62185
-16.09137
-15.9741
-16.64185
-14.18876
-8.861288
-9.363844
-12.90577
-13.77956
-13.53193
-13.78838
-13.36818
-12.45525
-12.51225
-13.83461
-17.29389
-21.72267
-27.60592
-33.06259
-37.58491
-40.25014
-40.92651
-40.92601
-41.76196
-43.39885
-46.08724
-48.15567
-48.55855
-47.13687
-44.38687
-40.46537
-35.82354
-30.67099
-24.75752
-21.72341
-21.11067
-25.63835
-34.04546
-41.6378
-51.39301
-74.70059
-120.2441
-172.0839
-170.9357
-101.707
-49.53493
-60.47872
-82.38754
-104.2495
-124.1384
-127.7975
-118.2475
-112.518
-112.5265
-114.8645
-117.4311
-118.8115
-118.6078
-118.0456
-116.4711
-114.207
-110.8109
-106.8995
-102.971
-98.21541
-92.9995
-87.08615
-80.86415
-74.28042
-67.25279
-60.30688
-53.36301
-46.0039
-38.43578
-31.07069
-23.89263
-16.73172
-9.596839
-2.786997
3.981284
10.41152
16.53008
22.22887
27.53762
32.36999
36.75705
40.63481
43.99583
46.71696
48.97239
50.61731
51.66389
52.20641
52.23694
51.47734
50.14408
48.25869
45.79271
42.7849
39.25233
35.26951
30.69881
25.82739
20.57599
14.75886
8.752969
2.506865
-4.291224
-11.12594
-17.87683
-24.8788
-32.01465
-39.05438
-46.21898
-53.24203
-59.95572
-66.31399
-72.434
-78.48545
-83.96834
-89.08662
-93.61688
-97.67514
-101.3607
-104.2218
-106.2836
-107.5555
-108.2113
-108.0006
-106.5041
-103.7466
-99.88664
-96.21925
-95.17869
-98.32025
-98.16851
-85.64108
-61.20687
-40.84418
-81.48675
-156.7531
-156.796
-101.2529
-49.55209
-23.60661
-11.6757
-0.8308513
8.909824
9.961679
3.80037
-6.487447
-20.29486
-29.87666
-32.51941
-30.29762
-26.57477
-21.45233
-17.56474
-16.08814
-16.07661
-16.88172
-14.40108
-9.001291
-9.335017
-12.66584
-13.65501
-13.64706
-13.87581
-13.43999
-12.50224
-12.61038
-14.05385
-17.43287
-21.83614
-27.84064
-33.21452
-37.7955
-40.47669
-41.07574
-40.92459
-41.93072
-43.85416
-46.48652
-48.44405
-48.76077
-47.35753
-44.63908
-40.72418
-36.11735
-30.87332
-24.63075
-21.17762
-20.47448
-25.35561
-33.71879
-41.47961
-51.19872
-75.16481
-121.4904
-174.2149
-173.8907
-106.8676
-55.44182
-63.13922
-82.41857
-101.8571
-119.1805
-122.7899
-115.7802
-111.3234
-111.2708
-113.1625
-115.3797
-116.7121
-116.4657
-116.0688
-114.2219
-111.9751
-108.5656
-104.5766
-100.7708
-96.00155
-90.91482
-85.02594
-78.82527
-72.38745
-65.49417
-58.61833
-51.74325
-44.53788
-37.11504
-29.83734
-22.71071
-15.74406
-8.684874
-2.024507
4.666595
10.95718
16.97885
22.66788
27.85965
32.58931
36.89049
40.70493
44.0893
46.71516
48.93141
50.56434
51.58924
52.12112
52.14826
51.40457
50.06588
48.21327
45.79689
42.84923
39.40352
35.49609
30.94849
26.18342
21.06797
15.33473
9.372335
3.233137
-3.397942
-10.14859
-16.80014
-23.67368
-30.63113
-37.62821
-44.70948
-51.55941
-58.20287
-64.4159
-70.43772
-76.45941
-81.81145
-86.90877
-91.33366
-95.37774
-99.12905
-101.9259
-104.0428
-105.5228
-106.1741
-105.8307
-104.3369
-101.7509
-98.2056
-95.01034
-93.82621
-95.63662
-94.5536
-83.46083
-63.65111
-47.13513
-85.95472
-156.959
-156.6205
-101.5304
-49.97418
-23.85039
-11.40824
-0.108826
9.878315
11.31136
4.137656
-7.363505
-21.27174
-30.98792
-33.41623
-30.77754
-26.87758
-21.48341
-17.6058
-16.08978
-16.23049
-17.10383
-14.69745
-9.418747
-9.509716
-12.52945
-13.59545
-13.78735
-14.00653
-13.59182
-12.58848
-12.78078
-14.43595
-17.7015
-22.17053
-28.28084
-33.61888
-38.21427
-40.87958
-41.45114
-41.1419
-42.29301
-44.42715
-47.04006
-48.83944
-49.0605
-47.69349
-45.07702
-41.20999
-36.71719
-31.28959
-24.44208
-20.45967
-19.63465
-24.7242
-32.91384
-41.45855
-51.054
-76.34417
-121.3017
-174.2201
-174.6255
-111.6191
-62.86483
-66.95121
-82.58504
-99.13331
-114.0323
-117.8376
-113.0454
-109.4982
-109.3946
-110.8022
-112.5158
-113.8703
-112.9697
-112.4517
-110.9055
-108.7839
-105.6521
-101.3772
-97.80901
-93.19397
-88.31228
-82.38648
-76.27838
-70.24818
-63.53815
-56.38484
-49.71575
-42.95316
-35.70969
-28.23041
-21.25106
-14.73079
-7.637462
-1.2152
5.445861
11.47198
17.60203
23.28278
28.18109
32.77576
36.96186
40.77291
44.20332
46.65134
48.88221
50.48148
51.47842
52.01149
52.04307
51.27365
49.94172
48.09377
45.737
42.85589
39.51142
35.78636
31.22546
26.53942
21.59119
16.15983
10.25119
3.876626
-2.45147
-8.850477
-15.63287
-22.42714
-28.92826
-35.76931
-43.1385
-49.51956
-56.16783
-62.19672
-68.027
-74.04598
-79.12707
-84.26542
-88.42408
-92.32082
-96.11824
-98.74278
-100.7352
-101.8514
-102.6614
-102.6119
-101.2729
-98.99625
-95.81761
-93.21361
-92.02151
-92.71945
-90.86884
-81.04897
-66.32567
-54.28847
-88.84214
-151.7113
-150.8453
-98.90849
-50.05787
-24.48278
-11.43561
0.1669942
10.65335
12.46455
4.429585
-8.467539
-22.76039
-32.76771
-35.05037
-31.67784
-27.09872
-21.75979
-17.7807
-16.09914
-16.30157
-17.49095
-14.96946
-10.19104
-9.936486
-12.49913
-13.60811
-13.97089
-14.21456
-13.85967
-12.64269
-13.08209
1.901396
1.235898
-46.24298
-16.09042
8.86202
-13.06401
-0.02899307
-0.5825096
6.083393
0.1558429
-2.825493
-0.9946935
1.110546
0.2405801
0.2712423
1.09401
-0.04657878
-1.182897
-0.1291544
-1.093537
-47.29662
0.01642112
0.4505541
-0.05320744
0.02818074
-0.116757
-2.978348
-0.03344353
-3.954944
0.09504874
0.4531548
-31.70699
-0.09962601
0.03735139
-0.03559677
-2.428719
0.0002476482
0.04291686
-0.01567384
-3.26514
-16.09348
1.808288
1.19959
3.829393
28.63869
0.07344387
-0.002106619
0.05999612
-0.1123468
0.2639183
-0.03350659
-0.01638342
-24.23982
-0.08108978
-0.001821488
17.2117
0.8371645
-0.07391106
-8.780881
-13.64476
0.008083387
-0.001103743
-13.19691
0.04316922
-3.910103
-0.1502062
-41.64347
0.01183353
0.04220682
0.02912493
0.3527002
-0.0003617746
7.478342
-21.21664
21.96507
0.03725896
3.509399
-0.829037
0.009643156
-0.07486636
-13.88983
-0.006084885
1.969904
-0.0270416
-5.7786
-0.2223413
-0.09435036
-1.344182
-21.64772
-0.009835774
-10.98535
24.78331
-0.04381955
-0.01267088
-0.07587596
-0.7693988
-50.22062
5.754232
-74.45863
-0.230698
0.01216413
-1.204966
-0.0403927
-75.87455
0.00271659
-25.75696
-0.005561141
0.08702572
-8.665653
-36.73166
-1.435395
2.171763
3.861205
6.946801
-30.38518
-0.0004221339
-0.001026077
0.02983836
24.01912
0.1462805
2.639542
-0.04852758
0.3570008
0.009668576
0.008953697
-5.918479
1.329957
-53.75883
-0.8004491
-0.09265866
-0.02763553
-0.06181088
-0.0437315
0.6432731
0.05380269
-14.46301
-0.03704988
2.23031
0.07950707
-0.01083417
-53.13522
1.010071
-55.04694
1.306264
0.005252172
0.004552495
-1.37028
-36.12763
0.04194807
0.3831958
-0.09946797
-27.41933
-18.59613
0.03066753
-2.70625
-90.06561
0.08658135
-0.02198329
-0.05760242
-21.24648
-0.06762932
-18.83102
1.350621
-2.770816
0.05387801
-14.83149
-16.39106
1.583534
-42.51398
0.005615629
-0.001683534
-6.529214
5.519468
-60.13261
-3.750554
-21.98587
0.5978276
-0.02159487
-78.69911
0.003209773
13.7409
-1.376721
0.04815508
0.1549357
4.573984
-38.19738
0.06234115
0.08618842
-4.23552
-0.07119339
0.3519986
-0.3567594
-3.828128
0.3271151
-0.00338531
0.08138473
0.02822045
1.093605
-0.2692792
-26.3432
-1.462842
-0.02413533
1.544479
-37.48543
-0.5756743
-0.2842972
-4.460242
0.02766411
-5.815003
0.008448828
-0.01281031
-0.04771351
-2.669826
-2.971725
-0.03580127
-13.54064
-7.764033
-1.027019
10.313
-0.08788772
0.9444829
-0.09800829
1.594047
-0.05367162
-0.7178078
-2.709195
0.06122623
7.379661
-0.02577372
15.45811
-6.00108
-68.94418
-0.02820456
0.004471898
-66.74961
0.1547061
21.64792
0.01838314
2.009815
1.051951
0.6104737
0.02343966
0.003885566
-16.9112
-0.4001915
-16.33177
0.08452222
-56.33282
-0.002003163
1.323116
-24.76866
1.255331
-1.933367
-0.9672259
1.986917
-19.50337
1.567376
-0.0502077
-4.260812
-1.721047
-10.77795
0.003761502
0.0171976
-0.03317792
0.3595381
0.7815011
0.0757412
0.03597265
1.663166
-19.8449
-0.0276401
-0.05862118
11.44022
0.9284429
-0.06423893
1.98152
0.1182533
-39.49105
-92.38408
0.2351795
0.05027543
1.231678
0.008058975
0.6816583
0.2207967
-0.07591373
38.72203
0.3742195
0.4961428
0.01589537
-1.322723
0.005043707
0.04830116
0.06147563
-49.58389
0.002171056
-13.56336
0.0006077074
-2.87184
0.8931349
-34.4157
0.03731135
-0.007634751
-46.72765
0.7182268
0.008422879
0.01499755
0.07850265
-0.1172315
-0.05496949
6.345383
-2.879873
0.0430434
-0.04386164
0.5590694
-8.526355
33.814
-43.48486
-56.90502
-84.74897
0.53188
0.004657522
-2.577499
0.007209472
-0.001152639
0.002865805
0.0792133
0.001807276
0.08942247
2.673663
18.5818
-0.006872979
-4.793336
-41.41313
0.05212501
0.1947432
0.04098895
0.009234014
-0.6298016
-0.03069207
-59.73963
4.013313
1.548143
-1.02781
-9.271627
4.522691
-37.30035
0.2993154
-7.448062
0.001535306
-0.01611901
0.005677612
11.20684
-0.06818388
1.30455
-77.54985
-44.70375
-0.005245823
-0.1103235
-0.284826
0.05154512
0.04615663
0.003322939
1.164089
-0.8686624
0.5095282
-0.1591244
-0.0967564
0.07101915
-0.2301631
-1.160144
10.34451
-30.40482
0.09739466
0.6187368
1.343703
-0.07218529
1.568554
-6.428079
-0.9095382
0.005450035
0.08765132
0.004573271
-20.23774
0.0001199952
0.04009137
0.01592463
40.67392
1.225782
0.014048
-0.03118899
0.20342
2.5628
-87.03286
0.002198394
0.2218342
1.504093
-1.533795
0.2447008
0.1051897
0.8194106
-1.180291
-22.17086
0.006528316
0.007314452
-0.06203697
-48.74712
-43.37956
-0.07067667
-2.698975
-0.06679018
-0.05107302
0.006959737
-0.7769564
0.5983144
0.3008567
2.822782
-2.664956
-0.03654392
-11.80744
-0.4824264
0.02869139
2.063936
0.04589096
0.3581617
-19.87339
-0.02587977
-0.888788
-12.77455
0.009572685
5.454345
-0.05396004
-0.04099173
-0.06901053
-1.188594
0.0006018174
0.02370136
-3.262143
0.03835165
-1.106608
0.01458931
0.0121334
3.887453
0.1372366
-2.256415
-0.01611332
0.009336318
-0.002564451
-0.02664297
0.4421153
-0.4404822
-94.11828
-6.493274
-15.80435
0.06349172
0.006362605
-0.002143983
3.356249
-0.07003104
-14.43847
0.2091563
-48.97748
-2.21334
0.05672585
-0.6010534
0.03408239
28.36333
0.1521708
1.492184
-0.2236722
-7.067367
1.597655
-0.07962345
6.356595
0.002717121
-16.09349
0.04261968
-47.79467
0.002420731
0.1917851
-2.491041
-0.1458461
0.2060009
0.1316769
-0.09708263
0.05813399
0.0003997631
14.97682
-0.004849773
-0.3322083
0.0312536
-18.4669
-3.814355
-0.003218775
-14.19714
-0.04561359
-0.07483373
3.317516
0.05862498
2.738766
0.7323585
0.1254616
-0.004267275
-2.622454
1.952696
-0.06262572
-0.7582393
-0.6190525
0.03445746
-0.001450124
-17.34748
-0.9065442
9.127347
-0.3100588
0.2497149
0.6210924
-0.6431621
0.03209193
0.004190319
-0.1071678
0.1007035
0.0907438
-4.613577
0.009600157
0.05856488
2.574102
0.05688241
3.370209
-0.01520865
-0.0243563
-20.58059
-6.532222
-17.14899
-0.01599393
3.087749
3.942981
2.768749
-0.008459368
-0.02548838
-0.04234154
4.283354
0.01916243
1.203221
-2.969109
-68.58685
1.316113
3.435069
0.01222602
0.009596924
8.042796
0.397765
10.08115
-0.04589405
-1.241736
-21.35726
0.006782395
-1.583332
15.01063
14.63889
-12.49175
-0.003678722
-0.3074228
-0.07968075
-0.1220532
-0.01394413
-0.07786217
-0.5548204
2.18189
27.36812
-0.004802158
-0.03506382
0.625741
3.530602
-53.33553
-0.04214582
1.637732
0.03647148
0.9997715
0.06171532
0.02997228
1.126571
0.03072433
4.567787
-0.008084798
-48.37968
-17.06615
-2.627588
-0.02933602
-68.70568
-1.847908
1.740783
-33.04432
-0.2909487
0.001261134
-0.06927868
-0.0120817
0.04692043
-71.59534
-0.08105762
-0.03505093
-0.03675196
3.896298
-0.005691838
0.02943147
-1.87618
-27.48626
-13.82235
0.1107056
-29.37715
0.03459611
4.543451
0.04100209
-50.95172
-0.07423485
7.210765
-9.17949
0.3526571
-4.468151
-9.378749
2.10096
5.72217
0.01358586
-0.3524501
-0.001213608
0.01919358
16.85987
2.040921
0.3241076
0.05380907
-0.5778319
3.87208
-35.54589
-10.1453
-4.651104
-25.70225
-5.054192
-9.468967
-0.6720015
0.4930648
-0.08884479
-0.04729877
0.001022596
-0.04915175
-5.197354
0.03262831
1.52345
0.06224962
-28.91783
0.03767882
24.52653
2.626322
-40.83987
-0.007347095
10.73974
6.326774
-1.057289
-35.80571
-0.04912238
-0.6299287
-30.13182
-1.936064
-2.068621
1.002491
-0.8886812
0.02525923
0.00592297
-0.5386872
-0.291567
1.857285
-6.454474
-0.0753266
-0.04895937
-70.54764
0.05403328
-0.06848537
-0.5203626
-24.96613
9.717811e-05
0.8118363
8.919456
14.0437
13.9664
1.34352
-0.01326671
-0.07778473
-0.0005561816
0.07809367
-0.8664124
1.754515
0.3936226
-29.65621
0.001017061
-20.03787
0.009082972
0.04294404
0.03388222
-24.65026
1.777982
-0.8209294
-2.20053
0.0436438
-5.340961
-6.940114
-7.306433
3.866943
-10.26024
-0.009302743
-0.06946808
-29.63498
-0.1515467
1.417999
1.044845
1.914948
-0.06791271
-7.80659
0.3134989
-0.5029723
-28.63332
0.05018778
-0.01994739
-0.7213866
-0.00975443
0.2631208
-0.08418405
0.032043
-0.5694007
0.1052436
-20.49078
-0.06606181
-0.0783709
-1.10986
-0.7849364
0.1060161
0.1065347
0.05345811
2.262909
0.03129632
1.839807
-50.37503
-1.311075
0.006736657
-0.02840844
-0.06243264
0.1871413
4.522873
0.03589954
-44.0216
1.153884
-1.523326
4.806429
-0.0002647191
-22.4659
-5.67956
-0.04123407
-0.0007819653
-35.69014
-5.930145
-15.00533
-23.72289
-2.902501
-2.169508
-2.540151
0.4155829
13.63215
2.081048
-1.973607
-45.38399
-0.08843873
-0.1054329
-0.1014481
-5.320479
21.33729
-6.455267
-0.07789086
0.7655949
-1.322633
0.07084838
0.0001759549
-3.696033
-0.09505918
-0.5708215
0.2376862
-0.07606129
-5.432982
6.682932
-0.5400608
-0.067914
0.003766732
0.5577318
0.3561605
0.2174178
13.69034
30.20289
0.01095636
-0.0224197
0.1868039
0.101163
-0.01429671
0.06049844
-31.87258
0.2246668
-33.9032
-11.0725
0.7352984
0.002373877
-0.03618841
-11.29775
1.080531
-0.05646091
-0.05712398
-0.07733501
-13.3403
-64.51796
0.9469727
0.1379219
-2.913855
0.06299633
0.1887304
0.5153252
-8.44777
-1.315968
12.58116
0.6414573
0.1364911
0.3838286
0.3447471
1.927722
-2.128182
0.006646072
-1.374834
-2.863827
0.08061696
8.020666
-22.18463
0.05658084
-0.0009568512
-17.37339
3.657636
0.1382918
0.3205874
-2.65937
-2.463187
0.03260789
1.068934
0.1104548
0.1443032
2.506001
0.8965821
-0.007806236
32.54366
0.09682142
-0.1250463
0.001732421
-81.33051
-1.015268
-0.07304516
1.64958
-0.1546233
34.13274
0.5466524
0.07474249
-1.306562
0.05276664
-0.002434759
0.2729273
-0.1141626
-0.07915779
-30.086
-11.16518
-0.07552604
-4.074682
-50.03494
-0.004118178
-0.003614538
-0.06294153
-8.628734
3.893862
31.93418
0.006586609
-0.2664046
0.4243429
0.000563672
0.002796531
6.791761
-0.1963724
-0.1070161
-0.01945719
0.3169042
-0.6326319
-0.03337865
0.008522445
-10.98868
-1.312963
-35.1687
1.694017
6.361033
-0.01894211
-0.5184439
0.01987433
-0.9685584
-15.41759
-0.0008134809
0.02267297
11.51625
-14.17999
3.178545
-0.1375596
0.08954834
-15.51108
24.3799
-0.630065
0.01580144
-4.909746
-28.10753
0.0108242
-0.00789422
0.3776462
1.299551
0.720179
-40.52619
-6.494689
1.711716
-0.001385831
0.02475897
-0.001897799
-44.9866
-28.16618
-58.27912
1.485667
-35.53309
-0.03825149
1.314563
-24.00056
0.1201773
-0.005281632
-23.66454
-0.0007344912
-0.03868779
-0.131078
3.546527
-0.007299912
-41.99389
-17.46075
3.959578
13.64919
1.167031
-0.004366611
-32.77295
21.17257
-50.31666
-3.891725e-05
0.3526883
2.647993
-0.002995385
-0.009389825
-0.1545236
-0.09203562
0.0935907
-1.921861
-51.3526
-62.87791
-0.006357424
-0.2108825
1.515259
-0.009889555
-0.5556943
1.913394
-0.07081121
-0.03120683
0.1067427
-0.1228379
-0.02152942
-2.844733
-0.08149324
-12.06943
1.399653
0.6089983
-2.534231
1.464647
0.1561122
-3.887091
-22.22205
8.768215
-0.9708559
3.068472
-17.80351
-47.74416
32.454
47.24405
2.232059
0.1643662
-2.720294
4.236925
1.426252
-0.005401867
11.76741
-27.01093
1.741196
0.07916614
0.2124041
1.513584
0.1149877
2.675334
0.8099302
-29.32194
-51.34435
-0.5623321
0.4459244
0.04425175
1.804894
0.6508453
-24.12129
-0.05461013
-0.07544217
0.0836053
-2.193301
0.01585936
0.04735166
-48.75471
-31.51047
1.458365
0.213109
0.01881602
1.977902
0.004387811
1.556511
-0.00898143
-19.03733
1.117465
-66.18104
-12.8525
0.857251
0.4377479
-32.14737
-43.64002
-1.710463
-0.4585682
-0.08984251
-0.1242248
-2.773603
-8.076943
-0.02936029
0.1055424
0.07878573
-0.123018
-0.06738504
-0.2897668
0.7954069
0.03085774
-0.9732255
-0.03302564
-0.02838103
-1.910118
-2.221724
-0.05761352
-0.3026959
0.2266073
-0.7649809
-0.03963356
2.431777
0.01329355
-0.2729511
3.720503
-0.005000954
-0.0573071
-39.62268
-27.44154
0.02011682
0.108128
-0.005630131
0.04450859
-23.4135
-8.211143
-28.32166
-26.29486
23.50905
0.03515161
3.117989
-0.04917503
-16.56611
-0.02318015
2.797859
-26.40848
-0.04486811
1.435318
-6.043534
-9.37139
3.046416
-1.231077
0.05824269
-15.17859
0.02743728
-56.28883
0.1929563
-6.934269
37.41869
-8.885119
-4.493541
-0.07274003
0.7140236
-0.2070736
7.301462
0.3872365
7.387161
-2.207248
0.02602908
-12.09311
0.002052857
-0.9802248
-0.1087265
-25.34571
0.1059613
-46.02663
6.980374
2.141897
11.27187
0.06554177
31.34845
0.0009399369
-1.058216
0.02714832
-1.2379
15.55853
-0.3603842
-26.33866
0.05643472
-0.04794214
0.197649
0.1634411
-1.501582
-13.88826
3.895215
-0.02008511
-41.82556
-0.1498617
21.07703
-48.17458
2.244194
-22.13477
-20.92553
-6.728184
-47.88205
39.85954
2.062812
0.0717236
-32.56754
0.04636589
-0.02038273
-2.779817
0.7785192
-24.93586
-66.93219
-1.967145
1.304927
2.74472
-1.052845
-0.07201564
0.02997947
-0.3059023
2.302336
1.595243
0.04713114
-0.04597238
-0.06988338
-0.0296833
-1.162675
0.01497108
0.2134056
-0.1023912
-53.04718
-0.0006391668
4.235871
-0.06995281
1.043869
-45.3551
1.551343
-0.01740767
0.3122796
-0.037746
0.02923888
0.01964305
-0.1153599
0.1855199
-40.73843
28.58228
-0.6919127
-0.06678215
1.906935
-0.1482928
0.2217731
0.3400022
-0.01368011
0.7494239
0.02491687
-11.8099
-0.1954175
-11.94102
-1.294552
-18.52811
2.245119
-0.3422083
0.6457845
1.159709
-7.53404
-41.00639
-44.69372
-3.710423
-0.02445392
0.005792382
1.403484
-0.004083189
0.5243083
-39.90939
-0.3344054
0.1561352
0.03226731
-12.38934
-0.04496669
-0.01078693
2.53833
-66.75829
0.02365487
-0.0086953
0.06237739
-77.85646
0.04540582
-28.79181
0.05638591
0.05038884
0.3028935
0.317695
1.21655
-27.037
-1.640104
-0.03265477
-0.04889382
-10.61069
0.01443684
1.439459
1.560098
2.638988
-2.293185
0.03551902
-0.1379503
-91.07385
-0.03755495
-0.01857046
0.7102695
0.03399082
0.6278328
0.9626771
0.05717086
0.1436176
-14.43458
1.2869
4.635069
11.00696
-0.6833907
-9.250465
0.1242811
0.01834591
-0.1070968
-30.84341
-0.6494629
-1.992749
-0.01327374
-14.01031
-6.247864
-8.878915
0.05858228
-11.54174
-0.1588232
-6.556799
-1.311595
-1.154831
15.90422
-0.5886832
3.294376
-67.36645
-0.03464487
-0.04766294
-0.3235395
-0.0497538
-0.04314441
-0.03582003
0.007357464
-0.007809366
-0.03462704
-11.97927
2.171335
0.06113105
-0.2376083
2.665046
0.06645042
0.2543693
-0.01169679
0.06721187
1.356021
-14.50958
-1.513904
0.7254454
-1.414651
0.01355469
-6.362636
-0.0130146
-4.118412
0.00301773
0.02681941
0.005246115
-15.46387
-8.258944
3.422944
7.545506
0.01184734
9.587699
-48.36741
-22.48498
1.639737
0.5642561
16.08364
-0.5317368
-0.07637943
0.3770599
-3.539614
0.01120388
-55.55849
-25.03784
-14.99898
13.76818
9.804622
0.02151385
-39.98402
-40.09457
-62.46297
1.620356
-6.378412
-1.895274
2.386669
-0.01984638
0.01132169
-0.05462209
0.01261851
0.06720537
0.1306239
0.02521065
-0.05366521
-22.01395
-0.06985905
-0.9394087
0.5844213
-17.16995
19.44171
-0.01115055
-16.25058
-30.22073
-14.7817
10.61762
0.8456167
-10.04116
-9.589101
-55.20476
0.08750444
-50.94325
1.27412
-58.76819
-26.90561
-0.01225715
-0.007125183
-16.11711
-0.08210127
14.02331
-0.0957513
-0.01083547
1.439607
0.0387945
0.01090768
-0.02741061
0.2533421
-0.5765244
-0.4678499
-29.75091
-0.007697811
0.1474339
0.05774313
-0.06711468
-0.02066418
-14.55878
-0.03472531
-49.26408
-1.685529
0.1687982
26.07018
0.01533822
1.221993
-41.71867
-2.43298
-47.64795
0.02591946
-0.008195779
0.09853119
0.1112547
-0.3347858
0.00715713
1.317949
3.969071
-0.02328211
0.05511802
0.03196013
17.85417
2.666302
-22.11187
7.854699
-1.099367
0.06718883
-71.88589
0.0662637
0.09553222
1.851293
1.392092
-0.05088405
-47.92852
-34.12475
-26.85744
-0.0008465255
-0.04659917
-4.473579
0.1241687
-29.52776
2.088577
1.532446
-11.00417
-30.23145
-0.186473
-77.86399
0.9391061
-6.691974
-0.06361301
-0.6931499
9.671243
0.3371398
-1.42488
-0.1784862
0.01629165
0.1966384
17.13779
-1.435016
-12.27769
0.1462683
0.04385995
-0.008344688
-2.031684
-1.444178
0.3345717
0.01965207
-3.725108
-0.2339558
0.01544945
3.585432
0.08314286
-0.003282718
-3.7373
-2.37409
-0.05911153
-0.1353234
-1.490376
-0.0003073611
-0.6144015
-64.1164
27.52739
-10.18537
-0.02422563
-0.0396905
-25.07881
0.03527048
-0.4093846
0.07352897
-0.4527393
0.5304431
0.9897873
0.2130167
-62.10836
0.2593352
20.7077
32.56416
1.846207
-0.9851205
1.218198
1.308002
1.333488
-0.002516809
32.56979
-37.82316
0.02291245
-1.444096
-0.08465825
-0.3269854
0.03186041
0.01123487
2.875256
1.362366
0.2920756
3.750327
0.1349235
0.4652406
0.01172238
-14.96043
-9.440428
-1.15937
-0.01120392
-69.66493
31.19073
1.606855
0.5718233
-12.75911
-6.529393
-0.0305534
0.507645
32.36258
-0.3030698
0.004719801
-0.5831515
-1.138393
-0.009410768
-27.12714
-0.135248
0.006796406
-0.06705137
-0.07475031
19.47616
-0.06659338
-0.4579973
0.03405409
-0.002853146
-0.05801498
20.31641
2.704803
8.404835
-90.08475
-41.25844
-0.05800217
-0.02442867
-41.22049
0.001402727
-30.14575
-5.3286
-0.02174429
2.150524
-0.9747111
-0.8574944
-10.25164
5.445216
-0.007604094
-10.6583
-0.0007384406
-0.09276567
-2.858886
-49.41121
-13.73091
0.5503183
2.336443
-0.007372749
0.0302969
1.49448
-0.08272536
0.4265315
0.9473168
-36.03881
-1.343328
-0.8200083
-0.3798356
-26.0664
0.3080333
0.6917346
-7.050095
3.288831
-1.015892
0.9921048
36.92158
0.0139922
0.09551142
-0.1181525
0.1627033
-40.80136
-30.24356
-44.99117
12.21978
1.581875
-0.04436847
0.1444795
0.1173014
-0.01930598
1.186671
-0.03451279
-0.4272039
0.9343024
0.9931749
-0.005892528
-1.081348
11.67768
8.333758
-0.03390253
0.03089267
-0.328765
-0.1278829
0.03688329
-2.613401
4.379549
-40.80672
-50.10852
-0.009830213
0.04390434
-66.32526
42.27564
-80.31784
0.3490955
1.643446
3.564829
-0.07447904
7.673024
-18.18519
-0.01065785