/*--------------------------------*- C++ -*----------------------------------*\
| =========                 |                                                 |
| \\      /  F ield         | OpenFOAM: The Open Source CFD Toolbox           |
|  \\    /   O peration     | Version:  2406                                  |
|   \\  /    A nd           | Website:  www.openfoam.com                      |
|    \\/     M anipulation  |                                                 |
\*---------------------------------------------------------------------------*/
FoamFile
{
    version     2.0;
    format      ascii;
    arch        "LSB;label=32;scalar=64";
    class       surfaceScalarField;
    location    "0.96";
    object      phi;
}
// * * * * * * * * * * * * * * * * * * * * * * * * * * * * * * * * * * * * * //

dimensions      [0 3 -1 0 0 0 0];

oriented        oriented;

internalField   nonuniform List<scalar> 
23794
(
0.0001282983
0.001072114
-0.001200412
0.001183845
-0.001055546
0.002292685
-0.001108841
0.003026055
-0.0007333695
0.003505674
-0.0004796188
0.003599937
-9.426356e-05
0.003382055
0.0002178816
0.002980404
0.0004016515
0.002339322
0.0006410821
0.001391274
0.0009480475
0.0006612435
0.0007300309
0.0001376555
0.000523588
-0.0001739696
0.0003116251
-0.0009382862
0.0007643165
-0.001904679
0.0009663931
-0.002075936
0.0001712565
-0.001471102
-0.0006048335
-0.001014952
-0.0004561505
-0.001358244
0.0003432923
-0.00209421
0.000735966
-0.002777914
0.000683704
-0.002061151
-0.0007167631
2.041812e-05
-0.002081569
0.001902216
-0.001881798
0.003230445
-0.001328229
0.005211595
-0.00198115
0.008199206
-0.002987611
0.01148962
-0.003290412
0.01075041
0.0007392095
0.003089496
0.007660912
-0.005140686
0.008230182
-0.004001189
-0.001139496
0.0002172752
-0.004218464
0.003782699
-0.003565423
0.006442079
-0.002659381
0.006194232
0.0002478478
0.003372126
0.002822106
0.0006232268
0.002748899
-0.003773188
0.004396415
-0.008821964
0.005048777
-0.01198198
0.003160011
-0.01355275
0.001570772
-0.01438638
0.0008336287
-0.01488714
0.000500768
-0.0152106
0.0003234576
-0.01532417
0.0001135727
-0.01533388
9.703923e-06
-0.01529105
-4.283266e-05
-0.01520051
-9.053592e-05
-0.01509355
-0.0001069608
-0.01492745
-0.0001661002
-0.01472096
-0.0002064904
-0.0144562
-0.0002647589
-0.01416789
-0.000288309
-0.01386273
-0.0003051638
-0.01350377
-0.0003589574
-0.01312585
-0.0003779201
-0.01274027
-0.000385579
-0.01229049
-0.0004497818
-0.01181846
-0.000472024
-0.0113218
-0.0004966644
-0.01081897
-0.0005028346
-0.01029528
-0.0005236866
-0.009722131
-0.0005731482
-0.009157343
-0.0005647876
-0.008551367
-0.0006059763
-0.007927515
-0.0006238514
-0.007298399
-0.0006291161
-0.00666104
-0.0006373596
-0.005992146
-0.0006688934
-0.005321444
-0.0006707021
-0.004642545
-0.0006788994
-0.003949954
-0.0006925911
-0.003259152
-0.0006908013
-0.002587736
-0.0006714165
-0.001880817
-0.0007069191
-0.001199613
-0.0006812039
-0.0005506029
-0.0006490099
0.000129227
-0.00067983
0.0009242588
-0.0007950318
0.001680722
-0.0007564637
0.002411252
-0.0007305293
0.003126259
-0.0007150069
0.003821418
-0.0006951597
0.004513814
-0.0006923955
0.005184497
-0.0006706829
0.005866732
-0.0006822354
0.006528719
-0.0006619864
0.007155272
-0.0006265538
0.007786076
-0.0006308033
0.008404351
-0.0006182751
0.008999643
-0.0005952923
0.009591381
-0.0005917383
0.01016922
-0.0005778417
0.01069322
-0.0005239922
0.01121281
-0.000519596
0.0117172
-0.0005043861
0.01218072
-0.0004635268
0.01264496
-0.000464238
0.01305727
-0.0004123098
0.0134426
-0.0003853273
0.01378899
-0.0003463929
0.01409241
-0.0003034138
0.01439151
-0.0002991083
0.01465335
-0.0002618365
0.01487606
-0.0002227102
0.01505628
-0.0001802153
0.01519398
-0.0001377072
0.01530151
-0.0001075247
0.01534733
-4.582199e-05
0.01536484
-1.751393e-05
0.01529382
7.10217e-05
0.01504711
0.0002467167
0.01464616
0.0004009437
0.01406791
0.0005782548
0.01318204
0.0008858671
0.01159757
0.001584471
0.008505495
0.003092074
0.003416093
0.005089402
-0.00165336
0.005069453
-0.004524405
0.002871045
-0.005288193
0.0007637882
-0.003541022
-0.001747172
0.001728678
-0.005269699
0.005011838
-0.00328316
-0.002471994
0.007483832
-0.01174345
0.009271451
-0.01288512
0.001141672
-0.009419381
-0.003465736
-0.006132119
-0.003287263
-0.004063697
-0.002068422
-0.002606275
-0.001457422
9.268533e-05
-0.002698961
0.003414831
-0.003322146
0.004014113
-0.0005992817
0.00200737
0.002006743
-0.0007786468
0.002786017
-0.00263269
0.001854043
-0.00305215
0.0004194599
-0.002443477
-0.0006086725
-0.001504401
-0.000939076
-0.0009843953
-0.000520006
-0.0002786829
-0.0007057125
0.0006893494
-0.0009680323
0.00160902
-0.000919671
0.002452884
-0.0008438632
0.00171768
0.0007352031
-0.0003692363
0.002086917
-0.0003336531
-3.558325e-05
0.001378798
-0.001712451
0.001700468
-0.0003216702
0.0006787106
0.001021757
-0.001310231
0.001988942
-0.002848953
0.001538722
-0.002927178
7.822462e-05
-0.002091295
-0.0008358825
-0.001019181
7.126381e-05
0.001427594
-0.00269927
0.001412087
-0.002396369
0.002801739
-0.002498493
0.003717926
-0.001649556
0.00425759
-0.001019283
0.00420369
-4.036376e-05
0.003794641
0.0006269316
0.003770594
0.0004256982
0.003764028
0.0006476475
0.002209681
0.002502395
0.0002808023
0.00265891
-0.0009437707
0.001748161
-0.002091718
0.001459572
-0.00308185
0.001754449
-0.003180132
0.001064675
-0.002464112
-0.0005447641
-0.001600332
-0.001468613
-0.001108495
-0.0009479869
-0.001660354
0.0008951508
-0.00330544
0.002381052
-0.004475349
0.001853613
-0.002865462
-0.002326651
6.7218e-05
-0.005014249
0.002184899
-0.003999478
0.003517763
-0.002661094
0.005602298
-0.004065685
0.008856219
-0.006241532
0.01239593
-0.006830126
0.01332889
-0.0001937459
0.007410053
0.01357975
-0.003431911
0.01907215
-0.005648303
0.001076895
-0.002976552
-0.006890215
-0.001570638
-0.004971337
-9.067148e-05
-0.004139347
0.00265414
-0.002496964
0.0003665025
0.005109743
-0.00875449
0.01186989
-0.01670154
0.01234347
-0.020749
0.009096235
-0.02192912
0.004340135
-0.02213111
0.001772761
-0.02214557
0.0008480861
-0.02208881
0.000444003
-0.02199888
0.0002335352
-0.02180233
-8.298268e-05
-0.02159285
-0.0001997714
-0.02136986
-0.0002658305
-0.02109814
-0.0003622464
-0.0208113
-0.0003938004
-0.02046337
-0.0005140397
-0.02007574
-0.0005941188
-0.01962517
-0.0007153243
-0.01914987
-0.0007636137
-0.01866376
-0.0007912724
-0.01811958
-0.0009031336
-0.01755217
-0.0009453325
-0.01698131
-0.0009564363
-0.01633669
-0.001094407
-0.01567105
-0.001137659
-0.01497696
-0.001190753
-0.01427518
-0.001204613
-0.01355512
-0.001243752
-0.01277628
-0.001351992
-0.01200852
-0.001332541
-0.01119801
-0.00141649
-0.01036455
-0.001457315
-0.009528223
-0.001465438
-0.00868665
-0.001478933
-0.007806586
-0.001548957
-0.006923413
-0.001553875
-0.006033316
-0.001568996
-0.005128204
-0.001597704
-0.004227503
-0.001591502
-0.003347834
-0.001551086
-0.002432064
-0.001622688
-0.001545534
-0.001567734
-0.0006943561
-0.001500188
0.0001922259
-0.001566412
0.001212967
-0.001815773
0.002191752
-0.001735249
0.003141316
-0.001680093
0.004070025
-0.001643716
0.004977895
-0.00160303
0.005884107
-0.001598607
0.006765409
-0.001551985
0.007660137
-0.001576964
0.008532558
-0.001534407
0.00936214
-0.001456136
0.01019897
-0.001467634
0.01102551
-0.001444818
0.01182342
-0.001393194
0.012618
-0.001386326
0.0134012
-0.001361039
0.0141209
-0.001243693
0.01483985
-0.001238545
0.01554191
-0.001206442
0.01619841
-0.001120026
0.01685784
-0.001123672
0.01745637
-0.001010838
0.01803196
-0.0009609208
0.01856397
-0.000878397
0.01904883
-0.0007882736
0.01953575
-0.0007860288
0.01998308
-0.0007091667
0.02038755
-0.0006271848
0.02074873
-0.0005413938
0.021066
-0.0004549792
0.02135458
-0.0003961035
0.02157917
-0.0002704121
0.02180161
-0.0002399543
0.02200105
-0.0001284176
0.02211083
0.0001369347
0.0221714
0.0003403779
0.0221893
0.0005603476
0.02212478
0.0009503966
0.02181388
0.001895369
0.02055726
0.004348695
0.01639433
0.009252329
0.00888087
0.01258291
0.001898095
0.00985382
-9.03856e-05
0.002752269
0.0009737493
-0.002811307
0.002729783
-0.007025733
0.001579653
-0.00213303
-0.007604292
0.01666778
-0.01420739
0.01587455
-0.01296375
-0.0001019704
-0.009372333
-0.007057154
-0.005850098
-0.006809498
-0.003802468
-0.004116051
-0.002389498
-0.002870392
0.0002200379
-0.005308496
0.00433339
-0.007435498
0.005605811
-0.001871703
0.001770664
0.005841889
-0.002434315
0.006990996
-0.003994508
0.003414236
-0.004140006
0.0005649583
-0.00328717
-0.001461509
-0.001834504
-0.002391741
-0.0005978252
-0.001756685
0.0005987631
-0.001902301
0.001715184
-0.002084454
0.002445034
-0.00164952
0.003326768
-0.001725597
0.003037169
0.001024802
0.0008054868
0.004318599
-2.316636e-05
0.0007930699
0.001051255
-0.002786872
0.001138966
-0.0004093813
-0.001060499
0.003221222
-0.003989167
0.00491761
-0.004712371
0.002261926
-0.003920662
-0.0007134837
-0.002751335
-0.00200521
-0.002342922
0.0003280984
0.001491666
-0.004519035
0.001937635
-0.004005907
0.00361977
-0.004180627
0.00475
-0.002779787
0.005363291
-0.001632574
0.00509457
0.000228357
0.004144603
0.001576898
0.00372646
0.0008438416
0.003918421
0.0004556861
0.002003389
0.004417427
-0.0006370462
0.005299345
-0.002542249
0.003653364
-0.003986757
0.002904081
-0.004379135
0.002146827
-0.003679709
0.0003652486
-0.002684382
-0.001540091
-0.001786558
-0.002366438
-0.001212589
-0.001521956
-0.001742234
0.001424796
-0.003604707
0.004243525
-0.004955856
0.003204763
-0.003010942
-0.004271565
-1.184938e-05
-0.008013342
0.001651599
-0.005662927
0.00263092
-0.003640414
0.004594479
-0.006029244
0.008158309
-0.009805362
0.0124296
-0.01110142
0.01326585
-0.001029997
0.008707388
0.01813821
-0.001144949
0.02892448
-0.008170158
0.008102105
-0.01058287
-0.004477504
-0.01174725
-0.003806952
-0.01040887
-0.005477729
-0.0101791
-0.002726742
-0.01442592
0.009356571
-0.02161247
0.01905644
-0.0257899
0.01652089
-0.02615466
0.009460995
-0.0258881
0.004073578
-0.02592323
0.00180789
-0.02600135
0.000926207
-0.02603319
0.0004758405
-0.02602121
0.0002215532
-0.0258499
-0.00025429
-0.02562707
-0.000422598
-0.02537369
-0.0005192103
-0.0250626
-0.0006733369
-0.02473552
-0.0007208877
-0.02433227
-0.0009172842
-0.02388287
-0.001043517
-0.02335635
-0.001241847
-0.02280013
-0.001319832
-0.0222319
-0.001359511
-0.02159108
-0.001543952
-0.0209224
-0.00161401
-0.02025107
-0.001627768
-0.01948834
-0.00185713
-0.01870058
-0.001925421
-0.01787829
-0.00201305
-0.0170464
-0.002036503
-0.0161925
-0.002097646
-0.01526581
-0.002278682
-0.01435389
-0.002244461
-0.01338787
-0.002382506
-0.01239446
-0.002450733
-0.01139677
-0.002463127
-0.0103922
-0.002483504
-0.00934063
-0.002600524
-0.00828471
-0.002609796
-0.007219095
-0.00263461
-0.00613521
-0.002681589
-0.00505451
-0.002672202
-0.003996768
-0.002608828
-0.002896267
-0.002723189
-0.001829213
-0.002634789
-0.000804153
-0.002525248
0.0002571689
-0.002627734
0.001469868
-0.003028472
0.002637633
-0.002903014
0.003772191
-0.002814651
0.004880966
-0.00275249
0.00596513
-0.002687194
0.007046917
-0.002680394
0.008098152
-0.00260322
0.00916533
-0.002644141
0.01020483
-0.002573903
0.01119287
-0.002444181
0.01218948
-0.002464244
0.01317265
-0.002427988
0.01412112
-0.002341668
0.01506575
-0.002330954
0.01599572
-0.002291007
0.01684872
-0.002096693
0.01770134
-0.00209117
0.01853283
-0.002037927
0.01930832
-0.001895515
0.02008908
-0.001904431
0.02079437
-0.001716133
0.02147307
-0.001639618
0.02209832
-0.00150365
0.02266515
-0.001355098
0.02323598
-0.001356859
0.02375694
-0.001230128
0.02422763
-0.001097881
0.02464515
-0.0009589059
0.02501007
-0.0008198999
0.02534052
-0.0007265591
0.0255948
-0.0005246871
0.02584058
-0.0004857348
0.0260271
-0.0003149395
0.0260748
8.923112e-05
0.02605494
0.0003602439
0.02599255
0.0006227388
0.02590782
0.001035122
0.02582441
0.001978779
0.02602216
0.004150948
0.02559629
0.009678195
0.022258
0.0159212
0.01727596
0.01483587
0.01384693
0.006181295
0.01124227
-0.0002066487
0.006600923
-0.002384383
-0.0005644668
0.005032359
-0.009112493
0.0252158
-0.01360796
0.02037002
-0.0119546
-0.001755334
-0.00769368
-0.01131807
-0.003841096
-0.01066208
-0.002008405
-0.005948742
-0.000949374
-0.003929423
0.0007941059
-0.007051976
0.00445436
-0.01109575
0.005122541
-0.002539883
0.0004103173
0.01055411
-0.00358829
0.0109896
-0.00499506
0.004821007
-0.005339732
0.00090963
-0.004409764
-0.002391476
-0.002719611
-0.004081895
-0.001140975
-0.003335321
0.0003774563
-0.003420732
0.001585284
-0.003292281
0.002416431
-0.002480667
0.003379487
-0.002688653
0.003490052
0.0009142362
0.001764972
0.006043679
0.0001563999
0.002401642
-0.0004839137
-0.002146558
-0.001729447
0.0008361525
-0.004267256
0.00575903
-0.005917153
0.006567507
-0.005474557
0.00181933
-0.004428277
-0.001759763
-0.003087861
-0.003345627
-0.003939116
0.0004118977
0.001800532
-0.006731464
0.002392591
-0.0059866
0.004430909
-0.006218945
0.005871242
-0.00422012
0.006764463
-0.002525795
0.006584247
0.0004085733
0.005317577
0.002843568
0.00414232
0.002019098
0.003641342
0.0009566641
0.001190655
0.006868114
-0.001772596
0.008262596
-0.00387445
0.005755218
-0.005152265
0.004181896
-0.005032465
0.002027026
-0.004050208
-0.000617008
-0.002918685
-0.002671614
-0.001825686
-0.003459436
-0.001189489
-0.002158153
-0.00171852
0.001953828
-0.003449299
0.005974304
-0.004830258
0.004585722
-0.003113708
-0.005988114
-0.0007884112
-0.01033864
-9.631521e-05
-0.006355023
0.0005065732
-0.004243302
0.002421978
-0.007944649
0.006604066
-0.01398745
0.01173211
-0.01622946
0.012215
-0.001512896
0.007961827
0.02239139
-0.001430267
0.03831658
-0.01355274
0.02022458
-0.02153448
0.003504236
-0.02508456
-0.0002568774
-0.02591772
-0.004644567
-0.02731604
-0.001328418
-0.02968937
0.0117299
-0.03158837
0.02095544
-0.03149017
0.01642269
-0.03087481
0.00884564
-0.03106263
0.004261394
-0.03135419
0.002099454
-0.03151357
0.001085582
-0.03155234
0.0005146084
-0.03152543
0.0001946483
-0.03128928
-0.0004904422
-0.03099488
-0.0007170023
-0.03066588
-0.0008482037
-0.03026782
-0.001071404
-0.02985417
-0.001134537
-0.02935208
-0.001419371
-0.02879624
-0.00159936
-0.02814888
-0.001889199
-0.02746652
-0.002002195
-0.02677152
-0.002054511
-0.02599159
-0.002323879
-0.0251785
-0.002427108
-0.02436295
-0.002443314
-0.02344152
-0.00277856
-0.02248819
-0.002878748
-0.02149468
-0.003006564
-0.02049114
-0.003040039
-0.0194626
-0.003126187
-0.01834543
-0.003395856
-0.01724878
-0.003341105
-0.01608622
-0.003545073
-0.01489248
-0.003644466
-0.01369272
-0.003662895
-0.0124856
-0.00369062
-0.01122235
-0.00386377
-0.009953901
-0.003878249
-0.008673242
-0.003915268
-0.007371794
-0.003983038
-0.006070704
-0.003973292
-0.004796367
-0.003883164
-0.003467558
-0.004051999
-0.002175473
-0.003926873
-0.0009327169
-0.003768004
0.0003424012
-0.003902852
0.001785352
-0.004471423
0.003180545
-0.004298207
0.004540386
-0.004174492
0.00586767
-0.004079775
0.007164788
-0.003984312
0.008459118
-0.003974724
0.009717065
-0.003861167
0.01099699
-0.003924067
0.01224162
-0.003818533
0.01342769
-0.003630248
0.01462558
-0.003662135
0.01580559
-0.003607995
0.01694735
-0.003483429
0.01808641
-0.003470019
0.01920516
-0.003409759
0.02023521
-0.00312674
0.02126576
-0.00312172
0.02226986
-0.003042024
0.02320908
-0.002834739
0.0241554
-0.002850752
0.02501208
-0.002572807
0.02583702
-0.002464567
0.02659901
-0.002265633
0.02729432
-0.002050415
0.02799441
-0.002056946
0.02863491
-0.001870623
0.0292183
-0.001681275
0.02973699
-0.001477598
0.03019617
-0.001279072
0.03061671
-0.001147104
0.03094647
-0.0008544454
0.0312683
-0.0008075708
0.03152316
-0.0005697972
0.03160317
9.226423e-06
0.03158413
0.0003792836
0.03149166
0.0007152108
0.03130295
0.001223826
0.03095206
0.00232967
0.03071563
0.004387376
0.03127686
0.009116972
0.03167335
0.01552471
0.03051119
0.01599802
0.02823987
0.008452619
0.02459935
0.003433866
0.01516809
0.007046877
0.001740974
0.01845948
-0.00714006
0.03409684
-0.0107918
0.02402176
-0.00950066
-0.003046471
-0.004734315
-0.01608442
-0.0006628044
-0.01473359
0.001459411
-0.008070958
0.001677087
-0.004147098
0.002030393
-0.007405282
0.003995027
-0.01306039
0.003221464
-0.00176632
-0.001229908
0.01500548
-0.004542404
0.0143021
-0.006305565
0.006584168
-0.00690576
0.001509824
-0.005992717
-0.003304519
-0.004180081
-0.00589453
-0.00241217
-0.005103232
-0.0006809984
-0.005151903
0.0006895363
-0.004662816
0.002027821
-0.003818951
0.003469337
-0.004130169
0.003828217
0.0005553558
0.002257366
0.00761453
-0.0004952261
0.005154235
-0.0031573
0.0005155154
-0.005598964
0.003277817
-0.00720585
0.007365916
-0.007153189
0.006514845
-0.006267043
0.0009331842
-0.005292408
-0.002734398
-0.003697323
-0.004940712
-0.005835908
0.0002862932
0.002404508
-0.009422266
0.002706535
-0.008406842
0.005157095
-0.008669504
0.006957211
-0.006020235
0.00826022
-0.003828804
0.008439616
0.0002291772
0.007096924
0.004186261
0.004902531
0.004213491
0.003052282
0.002806913
0.0001472044
0.009773191
-0.002688758
0.01109856
-0.004787313
0.007853772
-0.005874647
0.00526923
-0.005520394
0.001672774
-0.004319435
-0.001817967
-0.002942903
-0.004048147
-0.001603101
-0.004799239
-0.0009349377
-0.002826316
-0.001576855
0.002595745
-0.003090074
0.007487523
-0.004433876
0.005929524
-0.003524485
-0.006897505
-0.002722886
-0.01114024
-0.003320209
-0.0057577
-0.003557197
-0.004006314
-0.001089467
-0.01041238
0.003636202
-0.01871312
0.009186315
-0.02177957
0.009564718
-0.001891299
0.004993831
0.02696228
-0.005343644
0.04865405
-0.02030394
0.03518487
-0.03087876
0.01407906
-0.03498772
0.003852083
-0.03712557
-0.002506721
-0.03919406
0.0007400773
-0.03970963
0.01224546
-0.03821408
0.01945989
-0.03680083
0.01500944
-0.03662083
0.008665633
-0.03699711
0.004637683
-0.03729907
0.002401415
-0.03750077
0.00128728
-0.0375731
0.0005869314
-0.03757415
0.0001957051
-0.03731551
-0.0007490812
-0.03699062
-0.001041893
-0.03662165
-0.001217177
-0.03615657
-0.001536486
-0.03568912
-0.001601982
-0.03509853
-0.002009967
-0.03445002
-0.002247866
-0.03368402
-0.002655197
-0.03287678
-0.002809441
-0.03205774
-0.002873545
-0.03112875
-0.003252874
-0.03016064
-0.003395216
-0.02919322
-0.003410729
-0.02809507
-0.003876718
-0.02695533
-0.00401848
-0.02576836
-0.004193537
-0.02457173
-0.004236667
-0.02334476
-0.004353164
-0.02200495
-0.004735663
-0.02069699
-0.004649068
-0.01930369
-0.004938367
-0.01787624
-0.005071923
-0.01643913
-0.005099996
-0.01499524
-0.005134516
-0.01348029
-0.005378718
-0.01195923
-0.005399311
-0.01042097
-0.00545353
-0.008860749
-0.005543256
-0.00729687
-0.005537171
-0.005764861
-0.005415173
-0.00415966
-0.0056572
-0.002592341
-0.005494192
-0.00108159
-0.005278754
0.0004511058
-0.005435548
0.002166717
-0.006187034
0.003832361
-0.005963851
0.00546026
-0.005802391
0.007043976
-0.00566349
0.008591512
-0.005531849
0.01013916
-0.005522377
0.01164378
-0.005365782
0.01318029
-0.005460581
0.01466804
-0.005306283
0.0160919
-0.005054106
0.01753254
-0.005102776
0.01894295
-0.005018398
0.02031251
-0.004852998
0.02168385
-0.004841356
0.02302115
-0.004747055
0.02425433
-0.004359925
0.02549038
-0.00435777
0.02669072
-0.004242356
0.02781001
-0.003954033
0.02894359
-0.003984334
0.02996379
-0.003593
0.03094563
-0.003446413
0.03185067
-0.003170665
0.03267239
-0.002872136
0.03350319
-0.002887744
0.03425476
-0.002622201
0.03494303
-0.002369539
0.0355465
-0.002081073
0.03607846
-0.001811025
0.03656766
-0.001636305
0.03693346
-0.001220249
0.03729906
-0.001173172
0.03757266
-0.0008433906
0.03764025
-5.836358e-05
0.03758609
0.0004334344
0.03744731
0.0008539966
0.03721586
0.001455277
0.03683804
0.002707485
0.03639527
0.004830144
0.0365646
0.008947648
0.03771708
0.01437223
0.03835993
0.01535517
0.03717029
0.009642259
0.03445229
0.006151862
0.02532839
0.01617078
0.009153905
0.03463396
-0.002108606
0.04535935
-0.004983832
0.02689698
-0.003725192
-0.00430511
0.0007852912
-0.0205949
0.005093853
-0.01904215
0.006730595
-0.0097077
0.005898848
-0.003315352
0.004254481
-0.005760915
0.003240079
-0.01204598
0.0008197636
0.0006539956
-0.002842949
0.0186682
-0.005637501
0.01709665
-0.008061072
0.009007739
-0.009000271
0.002449023
-0.008197067
-0.004107723
-0.006346321
-0.007745277
-0.004573333
-0.00687622
-0.002618137
-0.007107099
-0.0004481162
-0.006832838
0.001803397
-0.006070465
0.003738559
-0.006065331
0.004150892
0.0001430232
0.002249486
0.009515935
-0.001908848
0.009312569
-0.006197062
0.00480373
-0.008747218
0.005827973
-0.009191791
0.007810488
-0.008336474
0.005659528
-0.00762617
0.0002228804
-0.006625942
-0.003734626
-0.004689433
-0.00687722
-0.008120833
3.593289e-05
0.003271174
-0.01272937
0.002953415
-0.01132432
0.005903415
-0.0116195
0.008150692
-0.008267513
0.009909607
-0.005587719
0.01055502
-0.0004162392
0.009388616
0.005352667
0.006156276
0.007445832
0.002587673
0.006375516
-0.0007685695
0.01312943
-0.003227376
0.01355736
-0.005374563
0.01000096
-0.006363756
0.006258423
-0.005834713
0.00114373
-0.004335081
-0.003317599
-0.002679855
-0.005703373
-0.001036616
-0.006442477
-0.0003257639
-0.003537169
-0.001249641
0.003519622
-0.002762194
0.009000076
-0.004252651
0.00741998
-0.004769611
-0.006380545
-0.00625212
-0.009657729
-0.008339224
-0.003670596
-0.009076122
-0.003269416
-0.006677431
-0.01281107
-0.002182119
-0.02320843
0.002733875
-0.02669557
0.003286696
-0.00244412
-0.001237122
0.0314861
-0.01318489
0.06060182
-0.02855136
0.05055134
-0.03824082
0.02376852
-0.04151957
0.007130831
-0.04421234
0.0001860502
-0.046598
0.003125729
-0.04670283
0.0123503
-0.04497853
0.0177356
-0.04411025
0.01414116
-0.04432381
0.008879188
-0.04471403
0.005027904
-0.04503339
0.002720774
-0.04525812
0.001512013
-0.04527
0.0005988145
-0.0452457
0.0001713982
-0.04490443
-0.001090351
-0.04450125
-0.001445065
-0.04403874
-0.001679689
-0.04345167
-0.002123562
-0.04288997
-0.002163676
-0.04216469
-0.002735246
-0.04138085
-0.003031713
-0.0404509
-0.003585146
-0.03947158
-0.00378876
-0.0384867
-0.003858428
-0.03736269
-0.004376875
-0.03619569
-0.00456222
-0.03503695
-0.004569471
-0.03371652
-0.005197152
-0.0323415
-0.005393494
-0.03091655
-0.005618492
-0.02948028
-0.00567293
-0.02801161
-0.00582184
-0.02639692
-0.006350355
-0.02483646
-0.006209526
-0.02316193
-0.006612892
-0.02145169
-0.006782163
-0.01973032
-0.006821366
-0.01800446
-0.006860384
-0.0161908
-0.007192375
-0.01437291
-0.007217198
-0.01252554
-0.007300905
-0.01065692
-0.007411869
-0.008773193
-0.007420901
-0.006937715
-0.007250652
-0.00500284
-0.007592075
-0.003096951
-0.007400081
-0.001256562
-0.007119143
0.0005885401
-0.00728065
0.002627989
-0.008226483
0.004618551
-0.007954413
0.006555781
-0.007739621
0.008440406
-0.007548116
0.01028905
-0.007380489
0.01214341
-0.007376736
0.01394701
-0.007169391
0.01579896
-0.007312529
0.01757852
-0.00708584
0.01929268
-0.006768271
0.02103305
-0.006843142
0.02272012
-0.006705472
0.02436372
-0.006496592
0.02602526
-0.006502901
0.027627
-0.006348793
0.02910429
-0.005837217
0.03059261
-0.005846085
0.03203501
-0.00568476
0.03337523
-0.005294251
0.03474163
-0.005350736
0.03596915
-0.004820516
0.03715132
-0.004628587
0.03823911
-0.004258453
0.03923175
-0.003864779
0.04024135
-0.003897345
0.04114513
-0.003525977
0.04198764
-0.003212055
0.0427186
-0.002812029
0.04337232
-0.002464745
0.04397618
-0.002240163
0.04443513
-0.001679203
0.04489136
-0.001629399
0.0452369
-0.001188932
0.04535863
-0.0001800965
0.04533812
0.0004539489
0.04520803
0.0009840876
0.04496647
0.001696832
0.04454151
0.003132445
0.04404986
0.005321791
0.04383647
0.009161046
0.04435944
0.01384925
0.04473042
0.0149842
0.04337326
0.01099942
0.04136631
0.008158815
0.03565599
0.0218811
0.02118833
0.04910162
0.008464665
0.05808301
0.003902555
0.03145909
0.005389181
-0.005791737
0.00970732
-0.02491304
0.01319395
-0.02252878
0.01413957
-0.01065333
0.01212962
-0.001305399
0.00805975
-0.001691046
0.003210743
-0.007196978
-0.0008600974
0.004724836
-0.003897371
0.02170547
-0.007134042
0.02033332
-0.01035284
0.01222654
-0.01175379
0.003849973
-0.0109957
-0.004865809
-0.008923507
-0.009817472
-0.007041311
-0.008758417
-0.004324023
-0.009824387
-0.0009519195
-0.01020494
0.001753762
-0.008776146
0.003710854
-0.008022423
0.004083319
-0.0002294415
0.00162461
0.01197464
-0.003877052
0.01481423
-0.008758821
0.0096855
-0.01079623
0.007865377
-0.01076299
0.00777725
-0.01013079
0.005027335
-0.009710308
-0.0001976049
-0.008461169
-0.004983765
-0.00605747
-0.009280919
-0.01090713
-0.0002873892
0.004407287
-0.01684927
0.003235763
-0.01484748
0.006875072
-0.01525881
0.00965941
-0.01105185
0.01185926
-0.007787573
0.01286628
-0.001423256
0.01210868
0.00611027
0.008230497
0.01132401
0.003032548
0.01157347
-0.0009785505
0.01714053
-0.003311094
0.01588991
-0.005622918
0.01231278
-0.006592968
0.007228473
-0.005833287
0.0003840488
-0.003974772
-0.005176114
-0.002013149
-0.007664996
1.015162e-05
-0.008465778
0.0008656503
-0.004392667
-0.0006699479
0.00505522
-0.00272695
0.01105708
-0.004952414
0.009645444
-0.007478315
-0.003854644
-0.01174758
-0.005388465
-0.01540692
-1.125019e-05
-0.01701239
-0.001663953
-0.01542657
-0.01439689
-0.01208595
-0.02654905
-0.007122055
-0.03165946
-0.007198978
-0.002367198
-0.01397545
0.03826256
-0.02574172
0.07236809
-0.03870126
0.06351088
-0.04552652
0.03059379
-0.04843814
0.01004245
-0.0516873
0.003435207
-0.0542579
0.005696334
-0.05474416
0.01283655
-0.05362292
0.01661437
-0.0530489
0.01356714
-0.05320251
0.009032791
-0.05353829
0.005363689
-0.05386678
0.003049259
-0.05415902
0.001804252
-0.05416194
0.0006017351
-0.05421253
0.0002219924
-0.05376607
-0.001536816
-0.05330434
-0.001906792
-0.05276765
-0.002216379
-0.05204453
-0.002846679
-0.05140905
-0.002799157
-0.05052571
-0.003618592
-0.04960495
-0.003952465
-0.04849081
-0.004699294
-0.04731012
-0.004969446
-0.04614244
-0.005026105
-0.04479996
-0.005719353
-0.04339996
-0.005962225
-0.04200946
-0.00595997
-0.04043683
-0.006769784
-0.03879046
-0.007039859
-0.03708461
-0.007324345
-0.03534442
-0.007413122
-0.03361169
-0.007554567
-0.03165598
-0.008306067
-0.02980044
-0.008065069
-0.02778008
-0.008633252
-0.02573456
-0.008827679
-0.02367858
-0.008877342
-0.02158405
-0.008954917
-0.01943182
-0.009344604
-0.01726793
-0.009381093
-0.01505594
-0.009512892
-0.01283836
-0.009629451
-0.01053661
-0.009722651
-0.008363083
-0.009424177
-0.006033031
-0.009922127
-0.003710444
-0.009722668
-0.001466587
-0.009363
0.0007623566
-0.009509594
0.003185649
-0.01064978
0.005563536
-0.0103323
0.007841308
-0.01001739
0.01009585
-0.009802656
0.01232301
-0.009607649
0.0145432
-0.009596931
0.01670563
-0.00933182
0.01895489
-0.009561787
0.02108917
-0.009220117
0.0231421
-0.008821205
0.0252327
-0.008933741
0.02727064
-0.008743416
0.02924597
-0.008471923
0.03122918
-0.00848611
0.03315308
-0.008272685
0.03491772
-0.00760186
0.03669997
-0.007628336
0.03840822
-0.007393008
0.04002876
-0.006914789
0.04166894
-0.006990917
0.04312981
-0.006281393
0.04455892
-0.006057697
0.0458445
-0.005544026
0.04703273
-0.005053009
0.04824821
-0.005112823
0.04930962
-0.004587391
0.05032942
-0.004231856
0.05118067
-0.003663274
0.05196243
-0.003246507
0.05268979
-0.002967528
0.05321058
-0.002199992
0.05375617
-0.002174992
0.05418329
-0.001616051
0.05429394
-0.0002907391
0.05423102
0.0005168604
0.05405863
0.001156483
0.05377645
0.00197901
0.05331171
0.003597182
0.05286665
0.005766855
0.05267031
0.009357385
0.05291249
0.01360707
0.05281633
0.01508036
0.0509596
0.01285614
0.04844842
0.01067
0.04601643
0.02431309
0.03799632
0.05712173
0.02645696
0.06962237
0.01923409
0.03868197
0.02008116
-0.00663881
0.02295358
-0.02778545
0.02437624
-0.02395144
0.02389166
-0.01016875
0.02063197
0.00195429
0.0141656
0.004775328
0.005259273
0.001709347
-0.0008855726
0.01086968
-0.004352185
0.02517208
-0.009084901
0.02506604
-0.01327166
0.0164133
-0.01521627
0.005794582
-0.01422902
-0.005853058
-0.01136047
-0.01268602
-0.009023178
-0.01109571
-0.005354333
-0.01349323
-0.001231437
-0.01432784
0.001365549
-0.01137313
0.002858386
-0.00951526
0.003217062
-0.0005881176
0.0003213749
0.01487033
-0.006244523
0.02138013
-0.0107932
0.01423417
-0.01248732
0.009559498
-0.01292099
0.008210921
-0.01289507
0.005001417
-0.01248395
-0.0006087215
-0.01085625
-0.006611474
-0.007813084
-0.01232408
-0.01431293
-0.000796101
0.005845599
-0.02189877
0.003653329
-0.01929691
0.008192077
-0.01979756
0.01158199
-0.01444176
0.01418104
-0.01038662
0.0153327
-0.002574915
0.01511355
0.006329416
0.01139997
0.01503759
0.0047197
0.01825373
-0.0007039344
0.02256417
-0.003464515
0.01865049
-0.005961022
0.01480929
-0.006511362
0.007778813
-0.00540403
-0.0007232839
-0.003141855
-0.007438289
-0.0007595997
-0.01004725
0.001724763
-0.01095014
0.002381666
-0.00504957
-3.611037e-06
0.007440496
-0.002727875
0.01378134
-0.006342226
0.0132598
-0.01198121
0.001784336
-0.01962755
0.002257876
-0.02480874
0.00516994
-0.0283147
0.001842007
-0.02885154
-0.01386004
-0.02798085
-0.02741974
-0.02414231
-0.035498
-0.02571896
-0.0007905527
-0.03358771
0.04613132
-0.04384893
0.08262932
-0.05107448
0.07073643
-0.05454608
0.03406538
-0.05792048
0.01341685
-0.06161728
0.007132013
-0.06434577
0.008424822
-0.06522429
0.01371507
-0.06446807
0.01585814
-0.06394638
0.01304545
-0.06410481
0.009191224
-0.06446691
0.00572579
-0.06472851
0.003310859
-0.06512983
0.002205564
-0.06499843
0.0004703386
-0.06500647
0.0002300319
-0.06453061
-0.002012671
-0.06394084
-0.002496571
-0.06335987
-0.002797348
-0.06239986
-0.003806688
-0.06168455
-0.00351447
-0.06060902
-0.004694121
-0.05953327
-0.00502821
-0.05817495
-0.006057612
-0.0567269
-0.006417504
-0.05535084
-0.006402157
-0.05377267
-0.007297527
-0.05202681
-0.007708082
-0.05036714
-0.007619645
-0.04850894
-0.008627984
-0.04655425
-0.008994551
-0.04446891
-0.009409678
-0.04236107
-0.009520967
-0.04038185
-0.009533786
-0.03794717
-0.01074074
-0.0357749
-0.01023734
-0.0332751
-0.01113305
-0.0308856
-0.01121718
-0.02841942
-0.01134352
-0.02586961
-0.01150472
-0.02333743
-0.01187678
-0.02072135
-0.01199718
-0.01806467
-0.01216956
-0.01546619
-0.01222794
-0.0126537
-0.01253513
-0.01012758
-0.0119503
-0.007277714
-0.012772
-0.00446896
-0.01253142
-0.00173583
-0.01209613
0.0009884061
-0.01223383
0.003899066
-0.01356044
0.006638723
-0.01307196
0.009322963
-0.01270163
0.01206379
-0.01254348
0.0147754
-0.01231926
0.01744787