/*--------------------------------*- C++ -*----------------------------------*\
| =========                 |                                                 |
| \\      /  F ield         | OpenFOAM: The Open Source CFD Toolbox           |
|  \\    /   O peration     | Version:  2406                                  |
|   \\  /    A nd           | Website:  www.openfoam.com                      |
|    \\/     M anipulation  |                                                 |
\*---------------------------------------------------------------------------*/
FoamFile
{
    version     2.0;
    format      ascii;
    arch        "LSB;label=32;scalar=64";
    class       volVectorField;
    location    "4.62";
    object      U;
}
// * * * * * * * * * * * * * * * * * * * * * * * * * * * * * * * * * * * * * //

dimensions      [0 1 -1 0 0 0 0];

internalField   nonuniform List<vector> 
15536
(
(0.08453252 -2.95873 -2.764122e-22)
(0.3060689 -3.62462 -4.141675e-19)
(0.4058543 -3.591965 -6.871031e-19)
(0.3172449 -2.372166 -5.764829e-19)
(0.2166757 -1.349467 -8.492629e-21)
(0.1003514 -0.5435368 4.025517e-21)
(-0.027209 0.09058643 7.815251e-21)
(0.01471188 -0.03825601 -7.807145e-21)
(-0.06193679 0.09301567 1.971655e-18)
(-0.2627348 0.6662717 1.962423e-18)
(0.3555273 -0.6582978 0)
(0.4526299 -0.9339838 0)
(-0.05111248 0.001940298 -1.0257e-20)
(-0.7447306 1.17009 1.916331e-18)
(-1.449847 2.241841 4.477964e-19)
(-1.709923 2.607621 3.004405e-19)
(-0.5167813 0.9354561 -1.109805e-18)
(1.441274 -1.6397 -1.868952e-20)
(1.813487 -2.012504 3.775433e-20)
(2.368897 -2.260241 -1.892318e-20)
(2.523736 -2.286477 0)
(0.8049719 -0.7789548 -1.929307e-18)
(-1.109813 0.7606095 0)
(-2.843271 1.986516 8.386171e-19)
(-4.824254 3.168494 -1.484306e-20)
(-7.600803 4.603559 -6.805574e-20)
(-10.05956 5.834943 6.719849e-20)
(-9.015617 5.235254 -1.174797e-17)
(1.035109 0.09608613 -5.627978e-18)
(8.32045 -3.53438 0)
(2.439976 -1.18891 -1.009916e-20)
(-2.142298 0.4136693 -1.904251e-18)
(-5.137633 1.239198 3.095995e-18)
(-7.75868 1.785394 0)
(-9.877884 2.126741 -7.176307e-18)
(-6.785442 1.47162 -2.409667e-20)
(-1.453218 0.3340234 2.872412e-18)
(0.2873337 -0.06630232 -1.321787e-18)
(4.919481 0.1156154 1.335695e-21)
(9.637365 0.512148 -3.339928e-19)
(12.07362 1.051017 1.384722e-18)
(13.35144 1.663181 -2.251579e-20)
(14.07778 2.331004 2.226753e-20)
(14.49754 3.006398 0)
(14.71421 3.672466 -5.686987e-18)
(14.76809 4.313348 -5.660998e-18)
(14.66063 4.917515 0)
(14.45017 5.488695 -1.080691e-17)
(14.16475 6.030075 1.053787e-17)
(13.83428 6.546265 1.016714e-17)
(13.44868 7.022165 3.696747e-20)
(13.00265 7.45347 -9.198366e-18)
(12.50438 7.835283 0)
(11.96333 8.169409 0)
(11.38899 8.452247 7.364926e-18)
(10.7791 8.67563 6.723913e-18)
(10.15213 8.850488 4.424386e-20)
(9.514742 8.975338 5.223047e-18)
(8.854147 9.031663 9.067462e-18)
(8.183162 9.027625 3.786657e-18)
(7.509862 8.966303 2.981657e-18)
(6.847834 8.857178 -2.061361e-20)
(6.194065 8.690603 0)
(5.546069 8.459824 6.749574e-19)
(4.917107 8.181529 0)
(4.304391 7.841783 8.908182e-19)
(3.71627 7.447243 -2.888905e-20)
(3.162795 7.008425 -2.68262e-21)
(2.643407 6.5229 1.056175e-20)
(2.162522 5.99508 -3.703201e-18)
(1.725876 5.433353 -1.789616e-20)
(1.334132 4.835137 2.463953e-18)
(0.9889067 4.202153 2.7111e-18)
(0.6955574 3.549773 0)
(0.453756 2.883483 0)
(0.2666559 2.199734 3.283345e-18)
(0.1313893 1.506622 -2.478862e-22)
(0.05124967 0.8233822 8.904377e-19)
(0.02716124 0.1228529 1.643646e-21)
(0.05599866 -0.6587362 -6.841258e-21)
(0.1324241 -1.448474 -1.693132e-18)
(0.2676146 -2.188627 0)
(0.4580293 -2.891838 3.046566e-18)
(0.7005879 -3.568182 0)
(0.9941306 -4.217979 -2.568421e-18)
(1.336576 -4.839608 2.266903e-18)
(1.727362 -5.431923 1.671985e-20)
(2.163216 -5.993089 3.344449e-18)
(2.641087 -6.513497 8.971493e-21)
(3.156811 -6.99085 -1.959645e-18)
(3.707613 -7.426391 -1.196309e-18)
(4.290881 -7.814001 6.017789e-21)
(4.904906 -8.156293 4.194319e-19)
(5.541375 -8.447907 -1.249977e-18)
(6.193299 -8.685238 1.948712e-20)
(6.850555 -8.855022 6.579997e-21)
(7.518616 -8.971822 -3.732225e-18)
(8.193095 -9.035665 0)
(8.865454 -9.038682 1.064058e-17)
(9.538407 -8.991882 6.057767e-18)
(10.19216 -8.881108 1.054825e-19)
(10.823 -8.708744 -7.709268e-18)
(11.42708 -8.478053 0)
(12.00334 -8.193368 0)
(12.55129 -7.862414 0)
(13.06197 -7.483393 0)
(13.52538 -7.057644 1.093751e-17)
(13.93843 -6.58903 1.155561e-17)
(14.30168 -6.082372 2.552619e-20)
(14.60912 -5.544582 -1.244159e-17)
(14.84552 -4.973995 -6.360621e-18)
(14.99414 -4.373721 -6.580799e-18)
(15.00267 -3.739856 5.154521e-20)
(14.83867 -3.077303 6.740913e-18)
(14.45932 -2.395815 3.477085e-18)
(13.74689 -1.719875 -2.691871e-20)
(12.32631 -1.094561 -6.569e-21)
(9.435953 -0.5179251 4.376343e-19)
(3.948247 -0.06681146 -9.074587e-19)
(-2.083034 -0.02057568 -2.35016e-20)
(-1.905406 -0.07717754 1.605908e-20)
(-1.605069 -0.02649367 3.592835e-18)
(2.939347 0.8246753 2.491216e-20)
(3.527736 0.706538 0)
(-5.231834 -2.028996 -8.92704e-18)
(-10.65258 -3.83919 -1.007916e-17)
(-9.495403 -3.565801 3.765573e-21)
(-6.900235 -2.82135 1.116316e-17)
(-4.636888 -2.138513 -8.599431e-18)
(-3.583073 -1.864798 0)
(-3.031344 -1.713088 0)
(-2.040282 -1.179651 -6.442494e-18)
(-0.1131249 0.06334114 0)
(2.595664 1.968709 2.662164e-20)
(3.662966 2.817465 -3.523645e-18)
(1.706614 1.278807 -4.627643e-18)
(-0.7318228 -0.8898249 5.817995e-20)
(-1.759991 -1.922989 -1.636566e-17)
(-2.075067 -2.384944 -1.373584e-19)
(-2.147205 -2.645166 1.803671e-17)
(-2.172327 -2.824956 8.278351e-18)
(-1.920863 -2.649122 7.497851e-18)
(-1.259834 -1.816924 6.832086e-18)
(-0.3715579 -0.4355283 0)
(0.480302 1.004425 -2.342666e-20)
(1.083968 2.117822 -6.664412e-18)
(0.7322252 1.513527 0)
(-0.3793504 -1.306845 6.833676e-18)
(-1.107313 -3.689519 -5.446681e-20)
(-1.352076 -4.885688 2.745699e-20)
(-1.300338 -5.280597 3.660374e-18)
(-1.095767 -5.277363 4.721003e-21)
(-0.8569613 -5.092906 0)
(-0.6177703 -4.770098 1.612222e-18)
(-0.3989559 -4.291395 1.213371e-20)
(-0.2213976 -3.619731 2.335829e-21)
(-0.07729788 -2.986354 -2.567068e-21)
(0.1083722 -4.076917 -1.996914e-19)
(0.2436644 -4.149502 3.428682e-19)
(0.1702665 -2.872915 0)
(0.05899217 -1.564105 4.802246e-19)
(0.03420653 -0.877842 0)
(-0.07221773 -0.09428363 1.707491e-18)
(-0.1550831 0.4324087 6.421946e-21)
(-0.1805517 0.5765718 -6.412123e-21)
(-0.2335429 0.5843528 -1.623193e-18)
(-0.146967 0.4926468 -1.610037e-18)
(0.51775 -0.8678083 0)
(0.3623143 -0.8589184 1.24621e-20)
(-0.2055871 0.05335077 -3.917115e-21)
(-0.9698899 1.251069 -7.745214e-19)
(-1.682078 2.320184 -7.355033e-19)
(-2.185869 3.143926 -1.157425e-19)
(-1.655534 2.653867 8.525375e-19)
(0.8817446 -0.5987318 1.031597e-20)
(2.701969 -2.844261 0)
(3.514294 -3.49303 0)
(2.307982 -2.416385 0)
(0.223 -0.6428141 -1.52895e-18)
(-1.295733 0.6537066 2.337569e-22)
(-2.804564 1.715799 -2.264273e-22)
(-4.670019 2.717742 3.008622e-20)
(-7.280305 3.88905 -2.779463e-20)
(-9.417732 5.040412 0)
(-11.00795 6.442136 0)
(-2.122858 2.412626 8.091694e-18)
(8.993552 -3.824193 1.997293e-21)
(3.624277 -1.986362 -1.869107e-21)
(1.336822 -0.8930559 1.556303e-18)
(-0.3345535 -0.3405335 2.674914e-18)
(-2.132538 0.06058383 -4.15871e-20)
(-4.643965 0.9983191 -6.37039e-18)
(-6.767889 1.51589 2.91737e-18)
(-0.2064704 0.4299006 -3.652348e-21)
(9.736172 -0.07289803 8.84989e-19)
(15.12177 0.1440736 0)
(17.7432 0.4331526 2.370471e-19)
(18.33481 0.8688005 2.042575e-18)
(18.50878 1.459187 2.164415e-18)
(18.48844 2.127741 2.215253e-18)
(18.357 2.80666 -6.944985e-20)
(18.15153 3.491992 4.558701e-18)
(17.88618 4.170759 -3.475528e-20)
(17.57613 4.839344 0)
(17.21083 5.4809 8.619379e-18)
(16.78652 6.094599 0)
(16.31738 6.675984 -6.116772e-20)
(15.79726 7.212504 6.132131e-20)
(15.22275 7.70101 7.349113e-18)
(14.60131 8.135014 -5.150377e-20)
(13.94022 8.514553 6.408653e-18)
(13.24732 8.835737 -5.928272e-18)
(12.52586 9.095654 0)
(11.7862 9.302994 3.494332e-20)
(11.03543 9.453375 -4.287638e-18)
(10.26923 9.533725 -7.217663e-18)
(9.492176 9.54569 0)
(8.716714 9.499586 -2.395543e-18)
(7.952012 9.397061 -1.117055e-20)
(7.198835 9.230594 1.113969e-18)
(6.458138 8.999184 1.425466e-21)
(5.736373 8.709043 -1.442014e-21)
(5.038325 8.356735 -7.232629e-19)
(4.367328 7.946331 1.333549e-18)
(3.734013 7.482911 0)
(3.139424 6.971882 0)
(2.588488 6.417079 -1.85496e-20)
(2.085505 5.820346 0)
(1.633415 5.183456 0)
(1.234044 4.510264 0)
(0.8922068 3.812189 -2.427069e-18)
(0.6065657 3.099728 1.947686e-20)
(0.3866368 2.366515 1.109219e-20)
(0.2232438 1.623666 -5.434437e-21)
(0.123481 0.8871737 -7.312767e-19)
(0.09490997 0.1311027 2.96158e-21)
(0.1342209 -0.7006672 -7.271661e-19)
(0.2221764 -1.542983 1.380464e-18)
(0.3826338 -2.335468 1.051342e-20)
(0.6069043 -3.088884 -2.471723e-18)
(0.8900013 -3.814374 -3.615344e-20)
(1.231707 -4.512168 2.129339e-18)
(1.62822 -5.176529 -1.887309e-18)
(2.080285 -5.807494 0)
(2.580595 -6.404545 -5.465964e-18)
(3.127748 -6.953122 -1.484025e-20)
(3.718932 -7.456013 1.591043e-18)
(4.348379 -7.916363 9.773089e-19)
(5.013648 -8.3211 0)
(5.713251 -8.672955 0)
(6.438934 -8.975682 0)
(7.182059 -9.213198 1.529469e-20)
(7.938024 -9.381364 -1.519589e-20)
(8.70651 -9.491026 2.933635e-18)
(9.481988 -9.54062 5.336035e-21)
(10.26064 -9.526318 -4.30899e-18)
(11.03683 -9.453257 -7.161139e-20)
(11.80016 -9.316558 1.106199e-17)
(12.54248 -9.113325 6.13759e-18)
(13.25943 -8.846618 -4.990108e-20)
(13.95367 -8.522902 7.143813e-18)
(14.62003 -8.147768 5.831271e-20)
(15.25115 -7.715669 -6.619575e-20)
(15.83939 -7.232522 6.591903e-20)
(16.3811 -6.701131 7.255085e-20)
(16.87594 -6.127883 9.530201e-18)
(17.32004 -5.517736 -7.515115e-20)
(17.69834 -4.872002 0)
(18.02008 -4.199172 0)
(18.30843 -3.513606 0)
(18.54793 -2.826101 0)
(18.71801 -2.145916 2.047983e-20)
(18.80055 -1.480439 -2.036201e-20)
(18.71332 -0.9192461 1.248282e-18)
(18.10389 -0.5225483 4.763726e-21)
(14.82879 -0.1992904 0)
(9.501852 0.1890568 -1.394634e-18)
(6.231137 0.6025038 3.048316e-18)
(3.618545 0.8231417 -2.867867e-18)
(2.959974 0.8713907 3.745066e-20)
(0.8802213 -0.3221759 -4.605624e-18)
(-7.541562 -3.00322 2.668955e-20)
(-8.833178 -3.014281 0)
(-7.09448 -2.196246 1.352399e-17)
(-4.708821 -1.468668 -1.860209e-17)
(-2.985497 -1.087212 -7.099373e-18)
(-2.402894 -1.09834 -4.774466e-21)
(-2.062433 -1.046512 -9.707225e-20)
(-1.377669 -0.5756918 4.519983e-20)
(0.02899583 0.5056067 0)
(2.686571 2.422227 2.638811e-18)
(4.398197 3.412143 2.808351e-18)
(1.267918 0.5787032 -8.999183e-21)
(-1.529327 -1.813815 -5.200222e-18)
(-2.201222 -2.353066 1.330057e-17)
(-2.284275 -2.514223 7.46696e-18)
(-1.920945 -2.240102 1.673653e-21)
(-1.517688 -1.916317 -6.908278e-18)
(-1.60221 -2.111284 -5.152518e-20)
(-1.391192 -1.844653 -5.598004e-18)
(-0.727846 -0.753592 4.050958e-20)
(-0.1393889 0.2297426 2.878051e-21)
(0.7006885 1.516899 -4.218543e-20)
(0.02818232 -0.5454312 0)
(-1.317621 -4.184357 0)
(-1.800451 -5.556212 -5.500859e-18)
(-1.750478 -5.66367 0)
(-1.562933 -5.654673 -6.020293e-18)
(-1.331707 -5.56575 2.980777e-18)
(-1.063461 -5.312738 -2.153784e-20)
(-0.7932706 -4.935784 2.157106e-20)
(-0.5368319 -4.404144 1.213866e-18)
(-0.3101328 -3.798936 -5.399379e-19)
(-0.09143817 -3.594953 -2.24961e-19)
(0.1116552 -3.615787 1.634628e-19)
(0.1522983 -3.325955 -2.842792e-19)
(-0.03611587 -1.722309 6.740273e-21)
(-0.1601393 -0.6825643 -4.066877e-19)
(-0.1608748 -0.1245812 0)
(-0.244386 0.42814 -1.401409e-18)
(-0.2988061 0.8241629 -1.048526e-20)
(-0.3166668 1.015202 6.793779e-19)
(-0.3687058 1.042195 1.335442e-18)
(-0.04489588 0.4462225 1.315202e-18)
(0.5477819 -0.7253714 1.564567e-18)
(0.2601071 -0.7945278 -1.198084e-20)
(-0.3516839 0.05784439 0)
(-1.114744 1.207503 0)
(-1.789897 2.339031 2.973336e-19)
(-2.063148 3.016026 -7.989563e-20)
(-1.909892 3.304843 -6.584273e-19)
(-0.1554791 1.173864 -1.617169e-20)
(2.470621 -2.272084 0)
(3.404741 -3.390728 -1.581002e-18)
(1.60829 -2.044467 -1.543633e-18)
(-0.1902672 -0.5933363 1.236913e-18)
(-1.268404 0.4291705 0)
(-2.376082 1.202586 5.474205e-19)
(-4.003726 2.000331 0)
(-6.415098 2.977648 -3.98001e-18)
(-8.605571 4.459032 0)
(-9.079684 5.920814 -7.623413e-18)
(-4.139353 4.41861 -6.396611e-18)
(7.519114 -2.834955 0)
(5.881029 -2.91253 0)
(6.176035 -2.443336 -2.843444e-21)
(5.650663 -2.142019 -2.008543e-18)
(4.490923 -1.784101 3.434677e-18)
(1.708265 -0.7055887 1.106439e-17)
(-2.009266 0.8130884 -2.421916e-18)
(7.761512 0.4550617 1.508747e-18)
(16.44082 0.1867651 -6.396863e-19)
(18.02 0.3949752 0)
(18.00588 0.7463044 0)
(17.91418 1.292592 -1.694279e-18)
(17.9539 1.97263 -1.814003e-18)
(17.92439 2.679295 -3.617433e-18)
(17.82158 3.382598 3.622752e-18)
(17.65169 4.085536 8.604695e-20)
(17.41914 4.760062 -5.734038e-20)
(17.11874 5.408533 0)
(16.74786 6.01816 0)
(16.32069 6.59796 6.758414e-18)
(15.84987 7.14827 -6.528401e-18)
(15.3313 7.650853 0)
(14.76094 8.104669 0)
(14.14702 8.502841 8.447511e-20)
(13.49501 8.848386 -5.343234e-18)
(12.8142 9.135086 0)
(12.10807 9.359596 -4.303671e-18)
(11.3847 9.534055 -3.85518e-18)
(10.65311 9.652593 -3.343185e-18)
(9.909908 9.700398 2.900428e-18)
(9.155801 9.68244 -3.376819e-20)
(8.404359 9.60964 1.912354e-18)
(7.664387 9.482926 0)
(6.938498 9.293028 -9.086192e-19)
(6.226725 9.039902 -1.964719e-21)
(5.532664 8.731602 7.915771e-21)
(4.867613 8.360198 -6.586292e-19)
(4.226321 7.935237 0)
(3.622084 7.459692 -1.627109e-18)
(3.054995 6.939449 -1.773968e-20)
(2.532108 6.377299 2.509966e-18)
(2.054471 5.776137 1.461589e-18)
(1.626351 5.136766 -1.649131e-18)
(1.248175 4.46324 -1.824006e-18)
(0.924279 3.766459 1.975788e-18)
(0.6522232 3.057546 -2.117493e-18)
(0.4474223 2.328132 -1.086915e-18)
(0.2908716 1.591322 2.293939e-18)
(0.1949847 0.862779 1.196769e-18)
(0.1723477 0.1166038 2.42758e-21)
(0.2189498 -0.6964974 6.018816e-19)
(0.2984992 -1.525029 -9.001856e-21)
(0.4495981 -2.307094 0)
(0.6615007 -3.053881 -1.54915e-20)
(0.9277359 -3.775635 -1.327664e-20)
(1.250465 -4.471229 -1.685851e-18)
(1.624101 -5.135426 3.100923e-18)
(2.054579 -5.767026 -1.358098e-18)
(2.528321 -6.368264 2.217634e-18)
(3.046745 -6.923252 1.579422e-20)
(3.610942 -7.433859 0)
(4.210701 -7.905764 8.449941e-19)
(4.845838 -8.324061 7.791755e-22)
(5.517079 -8.690814 1.914378e-19)
(6.212545 -9.013042 0)
(6.925797 -9.271941 1.282558e-18)
(7.655378 -9.461901 0)
(8.398166 -9.59636 -4.793217e-20)
(9.147895 -9.673714 2.897875e-18)
(9.904784 -9.68701 0)
(10.65873 -9.645603 -4.013772e-18)
(11.40199 -9.542373 -4.537309e-18)
(12.12662 -9.373674 -5.031181e-18)
(12.82795 -9.141931 0)
(13.51054 -8.85218 -1.193487e-17)
(14.16726 -8.512381 9.574421e-20)
(14.79148 -8.114651 0)
(15.3755 -7.666411 0)
(15.91574 -7.16877 0)
(16.41276 -6.627155 7.72414e-18)
(16.85898 -6.051599 -8.011025e-18)
(17.24597 -5.438821 0)
(17.56842 -4.790568 0)
(17.82724 -4.115795 4.23649e-18)
(18.02726 -3.416981 3.380349e-20)
(18.15606 -2.70658 0)
(18.22689 -1.996047 0)
(18.24864 -1.321363 -2.079752e-18)
(18.61948 -0.8117527 2.430117e-19)
(18.66971 -0.4205087 0)
(17.22989 0.2632069 9.856781e-19)
(15.14018 1.036014 2.34658e-20)
(12.84672 1.563981 1.062948e-20)
(8.40654 1.413832 -3.04084e-20)
(0.4280877 -0.9087316 3.457977e-18)
(-5.593102 -2.866857 5.471615e-18)
(-4.904434 -1.879608 1.080674e-19)
(-3.908168 -0.8489197 7.522589e-20)
(-1.537738 0.08983303 7.8797e-18)
(0.326885 0.4824332 6.127147e-18)
(0.3886173 0.2657073 0)
(0.04196551 0.1377722 5.430401e-18)
(0.1062678 0.4315332 0)
(0.6468813 1.177019 -4.039865e-20)
(2.316896 2.436737 -2.104428e-18)
(3.668255 2.652055 4.190438e-20)
(0.4096357 -0.6137975 -3.992387e-20)
(-1.410492 -1.989926 4.217909e-18)
(-2.154455 -2.437412 -5.46924e-18)
(-2.392688 -2.673041 -6.177181e-18)
(-2.108667 -2.41964 -6.219133e-18)
(-1.424906 -1.744597 -5.642892e-18)
(-0.9587215 -1.220487 0)
(-1.226724 -1.573727 1.10488e-21)
(-1.10728 -1.193283 0)
(-0.8315049 -0.8988688 -4.299153e-18)
(-0.3775437 -1.024354 4.521416e-18)
(-0.8547478 -3.237113 0)
(-1.556553 -5.288077 0)
(-1.636233 -5.379559 9.08422e-18)
(-1.568876 -5.449387 -2.418394e-18)
(-1.421634 -5.54202 4.993926e-18)
(-1.219356 -5.448659 -1.882739e-20)
(-1.000073 -5.211727 1.879531e-20)
(-0.7736316 -4.860116 0)
(-0.5497614 -4.331362 -9.918902e-19)
(-0.3261561 -3.644057 8.694408e-19)
(-0.06874708 -3.29245 1.89935e-19)
(0.05772026 -2.658658 -2.746408e-19)
(-0.05024816 -2.520803 -6.736685e-21)
(-0.3295261 -0.6533206 6.677444e-21)
(-0.3542073 0.07659245 -9.854632e-21)
(-0.3531663 0.5738422 9.971974e-21)
(-0.4004137 0.9377261 5.718352e-19)
(-0.4326316 1.198482 -8.574069e-21)
(-0.4195519 1.324499 -5.572006e-19)
(-0.439284 1.403461 1.709259e-20)
(0.01867202 0.5776522 -1.057405e-18)
(0.564715 -0.5490711 -1.169017e-20)
(0.1528275 -0.7195739 0)
(-0.5072785 0.04600043 0)
(-1.283079 1.143321 -5.263927e-19)
(-1.896294 2.272989 -2.564424e-19)
(-2.119064 2.99582 1.351458e-19)
(-1.791083 3.359245 5.48304e-19)
(-0.7691518 2.47236 0)
(1.769586 -1.003076 0)
(2.880484 -2.886642 2.658098e-18)
(0.8925314 -1.751881 2.52022e-18)
(-0.4246766 -0.658409 -1.084952e-20)
(-1.022454 0.07178929 1.072934e-20)
(-1.715796 0.540657 -9.09322e-19)
(-3.204208 1.176075 -1.635946e-18)
(-5.46355 1.917701 3.336464e-18)
(-7.559843 3.643859 6.457482e-18)
(-7.220634 5.317535 6.182938e-18)
(-4.467571 5.694854 2.682855e-18)
(5.964991 -1.401697 0)
(8.292584 -3.52951 -2.059224e-20)
(10.23464 -3.594733 -1.907813e-18)
(10.71491 -3.627288 5.89503e-21)
(10.48948 -3.381446 5.386829e-21)
(9.205675 -2.132217 -3.90992e-18)
(8.882942 -0.03525863 -1.64776e-18)
(15.1702 0.5445748 -1.034994e-20)
(18.42224 0.2997506 -5.103764e-19)
(17.62513 0.2167486 -2.842943e-19)
(17.67456 0.4446784 -2.417717e-21)
(17.89438 0.8974587 0)
(18.05448 1.504656 -2.284062e-20)
(18.09267 2.165152 1.519229e-18)
(18.024 2.84664 -5.984725e-18)
(17.87377 3.539093 4.645122e-20)
(17.6509 4.216854 -2.986032e-18)
(17.35297 4.876151 -9.008901e-20)
(16.98793 5.496284 -5.655889e-18)
(16.56381 6.091711 -8.802334e-21)
(16.09495 6.663492 5.385514e-18)
(15.57963 7.184898 -5.057554e-18)
(15.01146 7.660821 0)
(14.39888 8.080688 6.82037e-20)
(13.74603 8.450688 -6.861665e-20)
(13.06239 8.763176 0)
(12.3514 9.014432 3.545917e-18)
(11.62203 9.215359 7.083735e-20)
(10.88303 9.360344 2.795004e-18)
(10.13234 9.433379 -2.322329e-18)
(9.372219 9.437043 -1.910718e-18)
(8.610931 9.387381 -1.545972e-18)
(7.861803 9.282209 -1.088759e-18)
(7.127138 9.112049 7.489373e-21)
(6.405265 8.87783 -7.561697e-21)
(5.700509 8.587862 0)
(5.024819 8.233273 5.364813e-19)
(4.372395 7.823968 -1.78935e-20)
(3.757909 7.362222 1.354993e-18)
(3.180885 6.854379 1.696455e-18)
(2.650518 6.302628 -2.043427e-18)
(2.165408 5.710892 -1.199956e-18)
(1.730541 5.079909 -4.338332e-21)
(1.345979 4.413982 1.49679e-18)
(1.018628 3.723186 2.603546e-20)
(0.7415641 3.020285 1.697389e-18)
(0.5365555 2.294926 1.433196e-20)
(0.3781704 1.561809 -9.58894e-19)
(0.2810082 0.838735 -4.878314e-19)
(0.2634645 0.09989159 -6.039976e-23)
(0.3192772 -0.6925413 4.774289e-19)
(0.3935428 -1.507573 7.374455e-21)
(0.5414117 -2.280904 -8.890819e-19)
(0.7542925 -3.020994 1.678366e-18)
(1.022382 -3.735532 0)
(1.348162 -4.422753 -2.988764e-21)
(1.725126 -5.077745 -1.27578e-18)
(2.161663 -5.699302 1.144802e-18)
(2.639919 -6.290732 -1.908232e-18)
(3.167481 -6.832731 2.056099e-20)
(3.742379 -7.329563 -2.037642e-20)
(4.348285 -7.78924 -6.945445e-19)
(4.993125 -8.191779 0)
(5.678281 -8.540007 -1.637619e-19)
(6.381678 -8.846536 1.834851e-20)
(7.103966 -9.086891 -5.589042e-20)
(7.844055 -9.256379 -1.422441e-18)
(8.595586 -9.370696 -1.960237e-18)
(9.353311 -9.426739 -1.650625e-20)
(10.1178 -9.417387 2.759669e-18)
(10.88012 -9.351323 -4.675841e-20)
(11.6293 -9.224057 -3.615575e-18)
(12.35932 -9.02955 0)
(13.06699 -8.769642 4.403658e-18)
(13.75314 -8.454236 4.847703e-18)
(14.41031 -8.091253 5.032147e-18)
(15.03396 -7.670175 -5.360036e-18)
(15.61568 -7.200737 5.746911e-18)
(16.1531 -6.68212 0)
(16.64681 -6.12029 -1.264581e-17)
(17.08884 -5.529806 1.322548e-17)
(17.47075 -4.901786 -1.569203e-19)
(17.78791 -4.244866 -3.41259e-18)
(18.04252 -3.55995 -3.475702e-18)
(18.22565 -2.870614 0)
(18.32569 -2.179631 1.792941e-18)
(18.33201 -1.516607 -1.774723e-18)
(18.22673 -0.9157498 8.677532e-19)
(18.13468 -0.4922839 -2.107916e-19)
(18.54133 -0.1955814 -3.988672e-19)
(18.87579 0.4860726 1.22888e-20)
(18.42588 1.36975 -1.635657e-18)
(17.39969 1.923216 1.623363e-20)
(13.77645 1.617118 0)
(3.445635 -0.9675097 0)
(-1.650599 -2.178597 -1.627407e-19)
(-1.390939 -0.7194717 1.961777e-19)
(-0.4222126 0.7075789 0)
(1.564633 1.722208 0)
(3.211173 1.99169 0)
(3.618675 1.856649 4.425683e-18)
(2.98963 1.67683 -8.47717e-18)
(2.285269 1.731997 3.603966e-18)
(1.848305 2.083815 -2.38426e-18)
(2.055149 2.377739 -6.113672e-20)
(2.602483 1.480303 1.877489e-18)
(0.04889154 -1.40305 2.428291e-18)
(-1.083834 -1.932004 6.130805e-20)
(-2.024902 -2.425249 1.077225e-20)
(-2.424668 -2.716494 -7.59713e-20)
(-2.328866 -2.54865 -7.528794e-20)
(-1.661033 -1.807252 4.735762e-18)
(-0.7173412 -0.8039757 0)
(-0.9565296 -1.272741 3.914937e-18)
(-1.346083 -1.601805 -3.460287e-18)
(-1.419316 -2.140238 3.482015e-18)
(-1.217748 -3.162599 0)
(-1.279309 -4.650076 0)
(-1.460212 -5.199098 -5.539171e-20)
(-1.55899 -5.076125 -3.78649e-18)
(-1.590311 -5.314661 2.066266e-18)
(-1.467463 -5.388329 -2.065213e-18)
(-1.26324 -5.300854 0)
(-1.044384 -5.073742 0)
(-0.8293698 -4.742833 0)
(-0.621032 -4.229044 -8.032183e-19)
(-0.3999496 -3.424575 -3.698832e-19)
(-0.0864875 -2.660049 -3.159897e-19)
(0.02129558 -1.532265 1.148992e-19)
(-0.1931171 -1.59139 0)
(-0.5674892 0.1115416 -3.188445e-19)
(-0.5261834 0.7011666 0)
(-0.5031695 1.092995 -4.947858e-19)
(-0.5191572 1.341041 0)
(-0.5337553 1.493742 0)
(-0.4865432 1.536771 -4.49935e-19)
(-0.4656673 1.678484 -8.870154e-19)
(0.08216336 0.8133373 8.752736e-19)
(0.6077803 -0.3960595 -1.054682e-18)
(0.02828235 -0.6192678 1.05262e-18)
(-0.6640799 0.009064341 0)
(-1.46012 1.037671 8.717577e-19)
(-2.01823 2.185689 2.097625e-19)
(-2.155208 2.996567 -5.901267e-20)
(-1.639747 3.29777 7.193543e-21)
(-0.8809219 3.113568 2.971462e-20)
(1.029086 0.4576929 1.045615e-18)
(2.296221 -2.185589 -2.237906e-18)
(0.3268706 -1.538843 -1.035578e-18)
(-0.4754192 -0.796511 -1.768046e-20)
(-0.5496265 -0.3899281 -3.152935e-19)
(-0.9234012 -0.2063255 3.807843e-19)
(-2.314845 0.2610196 1.365808e-18)
(-4.296189 0.6346678 0)
(-6.054667 2.56135 1.314651e-19)
(-5.523329 4.662434 0)
(-3.628108 6.353331 2.496967e-18)
(5.344227 -0.06496633 -2.603701e-19)
(10.31001 -3.66365 5.491379e-19)
(12.90582 -4.15433 -4.159773e-20)
(14.12801 -4.46776 3.009396e-20)
(15.35436 -4.410307 -3.853404e-18)
(16.26239 -3.178199 0)
(16.79148 -0.7385051 -1.120896e-18)
(18.32344 0.5182866 -9.018219e-19)
(17.83149 0.3770001 8.616433e-19)
(17.12523 0.3417498 2.273698e-19)
(17.44218 0.7390356 0)
(17.62463 1.276691 5.591419e-19)
(17.75677 1.922698 0)
(17.77832 2.594863 0)
(17.70439 3.263935 2.498025e-18)
(17.55219 3.947462 -3.812348e-20)
(17.33142 4.601842 4.579519e-20)
(17.03759 5.23496 -2.357647e-18)
(16.67873 5.823103 4.749556e-18)
(16.26099 6.386929 -4.529565e-18)
(15.80172 6.927908 -4.358486e-18)
(15.30227 7.408221 2.073342e-19)
(14.74786 7.850212 -1.262647e-19)
(14.15268 8.234173 -1.106425e-19)
(13.5166 8.573781 -3.16921e-18)
(12.85228 8.857594 -3.206694e-18)
(12.16144 9.080416 -8.35016e-20)
(11.44984 9.259377 2.64279e-18)
(10.73331 9.38213 0)
(10.00694 9.432992 1.912383e-18)
(9.265261 9.421459 1.572986e-18)
(8.523295 9.358696 1.181153e-18)
(7.795756 9.241949 8.958783e-19)
(7.081846 9.062735 0)
(6.380815 8.819891 0)
(5.693392 8.526318 -1.593882e-19)
(5.037788 8.167333 0)
(4.399731 7.757945 0)
(3.801202 7.296764 1.176124e-18)
(3.240849 6.790016 -2.374785e-20)
(2.720506 6.242431 -1.346271e-20)
(2.243307 5.65476 -3.275544e-20)
(1.816736 5.027762 2.265311e-18)
(1.440857 4.365634 0)
(1.122937 3.678387 0)
(0.8424998 2.983223 1.437204e-18)
(0.6423092 2.261574 7.193948e-19)
(0.4830961 1.530913 7.735869e-19)
(0.3843711 0.8131557 -3.994342e-19)
(0.3722519 0.08061502 0)
(0.441429 -0.6863281 -3.957562e-22)
(0.5108001 -1.488028 2.349939e-20)
(0.6462067 -2.253678 7.0555e-19)
(0.8520831 -2.985231 -1.376164e-18)
(1.115264 -3.690509 -3.868208e-20)
(1.436499 -4.369264 1.177151e-18)
(1.808423 -5.016513 3.458731e-20)
(2.239504 -5.63153 1.846299e-18)
(2.704029 -6.219622 -1.261948e-20)
(3.218066 -6.75808 -1.2928e-18)
(3.783783 -7.252378 3.401189e-20)
(4.374846 -7.713051 0)
(4.99898 -8.118545 2.758125e-19)
(5.669874 -8.469331 0)
(6.358683 -8.781086 0)
(7.058412 -9.031481 -8.326759e-19)
(7.778677 -9.210591 2.34055e-18)
(8.513129 -9.335548 5.357008e-20)
(9.250101 -9.406155 -1.041114e-19)
(9.994598 -9.412577 -2.266449e-18)
(10.73653 -9.366476 -2.570288e-18)
(11.46559 -9.260895 3.076904e-18)
(12.17434 -9.092077 -3.341451e-18)
(12.86052 -8.86083 -7.00351e-20)
(13.52974 -8.571896 0)
(14.16923 -8.240761 -4.355828e-18)
(14.77739 -7.851116 9.183385e-18)
(15.34473 -7.416356 -4.88815e-18)
(15.86879 -6.93329 0)
(16.35293 -6.406442 8.692546e-20)
(16.78638 -5.85148 -5.298584e-18)
(17.16222 -5.254968 -8.468496e-20)
(17.47637 -4.626113 1.344129e-19)
(17.72802 -3.964624 -8.876451e-20)
(17.9127 -3.286654 0)
(18.01694 -2.609506 -2.858709e-18)
(18.03463 -1.932316 1.381331e-18)
(17.9744 -1.287985 6.860379e-19)
(17.85577 -0.7353726 -1.06633e-20)
(17.93496 -0.2666281 3.27637e-19)
(18.25751 0.4647166 6.546946e-19)
(18.13245 1.351934 0)
(17.86838 1.827042 1.196312e-18)
(16.95745 1.403795 -6.118921e-20)
(8.749609 -0.7946341 2.109633e-18)
(3.043924 -1.213429 0)
(2.555823 0.6825867 0)
(3.635502 2.547376 0)
(5.052998 3.514305 6.559233e-20)
(6.257921 3.543369 3.648531e-18)
(6.652806 3.334705 -3.588748e-18)
(6.037803 3.192537 3.380801e-18)
(4.850597 3.128763 -5.663354e-18)
(3.525147 3.080733 1.986039e-18)
(2.177345 2.341437 0)
(1.767886 0.4023983 -1.537294e-18)
(0.240596 -1.624338 -1.978305e-18)
(-0.8018328 -1.901716 3.025704e-18)
(-1.861614 -2.446167 -1.050907e-19)
(-2.377727 -2.728077 -1.318253e-19)
(-2.424869 -2.536097 1.291384e-19)
(-1.884735 -1.813161 0)
(-0.8521966 -0.8360586 -3.535877e-18)
(-0.6682127 -1.009282 9.73645e-20)
(-1.367061 -1.8102 5.687702e-18)
(-1.646861 -2.813719 -2.989016e-18)
(-1.505144 -4.060664 1.750678e-19)
(-1.31114 -4.865549 -2.817324e-18)
(-1.313234 -4.861685 0)
(-1.474399 -4.987513 -3.139525e-18)
(-1.494539 -5.236713 1.704774e-18)
(-1.402056 -5.306422 -1.056147e-19)
(-1.255799 -5.199449 1.776253e-18)
(-1.063791 -4.945252 -7.514778e-20)
(-0.8694687 -4.601674 2.406374e-20)
(-0.7009864 -4.123579 6.700094e-19)
(-0.5414598 -3.344334 -4.242157e-21)
(-0.1924898 -2.295637 4.416814e-21)
(-0.1046251 -1.250421 5.448089e-21)
(-0.3683443 -0.5028322 1.537002e-19)
(-0.7178617 0.477676 2.616753e-19)
(-0.6640401 1.045459 -2.241865e-19)
(-0.6235734 1.413413 4.048523e-19)
(-0.6057386 1.613585 0)
(-0.6014624 1.704731 3.488311e-19)
(-0.5238165 1.669488 3.9241e-19)
(-0.4548079 1.885487 7.234185e-19)
(0.1595406 1.084764 0)
(0.6926494 -0.2472565 0)
(-0.1176365 -0.475886 -8.64995e-19)
(-0.8181726 -0.06249689 -1.593439e-20)
(-1.660532 0.9132315 -3.456708e-19)
(-2.168773 2.120606 -1.965818e-19)
(-2.197831 2.988727 1.336646e-20)
(-1.552796 3.300623 -3.058107e-19)
(-0.7249141 3.318357 6.33478e-19)
(0.5234688 1.693952 -8.201653e-19)
(1.782266 -1.425599 9.0007e-19)
(-0.08556873 -1.421746 0)
(-0.3339162 -1.034363 0)
(0.1110558 -0.9306667 2.75064e-19)
(-0.06464579 -1.002703 0)
(-1.221554 -0.7861617 -5.881441e-20)
(-2.848957 -0.8618098 -5.382416e-20)
(-3.973505 1.148177 -4.417975e-18)
(-3.289524 3.705652 -1.524957e-19)
(-1.864495 6.492452 2.126482e-19)
(5.875994 1.024308 2.167899e-19)
(11.4238 -3.204131 2.54194e-20)
(13.47478 -3.958615 6.049415e-19)
(14.83608 -4.487942 -4.112159e-20)
(16.68639 -4.629601 1.674789e-18)
(18.40906 -3.577684 -5.836824e-20)
(19.04703 -1.237353 3.8209e-18)
(18.37707 0.2661105 2.607263e-20)
(17.22778 0.2432878 5.223127e-22)
(17.19252 0.2365472 -3.945841e-19)
(17.46478 0.571336 -3.266541e-21)
(17.65681 1.022374 -4.610994e-19)
(17.79181 1.608592 -3.008351e-20)
(17.81813 2.243721 -9.364321e-19)
(17.74219 2.8915 1.943955e-18)
(17.58835 3.572982 -1.945368e-18)
(17.3738 4.218904 3.765154e-18)
(17.08222 4.870328 2.063308e-18)
(16.72541 5.473857 0)
(16.30616 6.057083 0)
(15.84709 6.62063 3.534173e-18)
(15.34828 7.12098 3.372569e-18)
(14.79397 7.581803 0)
(14.20143 7.978172 -8.876471e-20)
(13.5654 8.332543 2.873997e-18)
(12.89824 8.63621 2.555045e-18)
(12.20816 8.871534 2.23301e-18)
(11.50234 9.05661 -5.907371e-20)
(10.78768 9.192316 -1.683171e-18)
(10.05855 9.259762 4.236513e-20)
(9.321437 9.254634 -4.275716e-20)
(8.587654 9.196029 -9.961946e-19)
(7.86296 9.089176 6.825392e-19)
(7.145223 8.925678 0)
(6.452112 8.687598 0)
(5.767183 8.404493 2.829179e-19)
(5.120281 8.051807 -8.274828e-21)
(4.486581 7.651367 -7.928868e-21)
(3.903204 7.19484 -9.07054e-19)
(3.350827 6.695422 -2.328222e-18)
(2.823371 6.164293 1.318588e-18)
(2.348557 5.587926 -1.592544e-18)
(1.926492 4.970224 -8.864533e-19)
(1.559304 4.31454 -3.032763e-20)
(1.248916 3.629454 0)
(0.9611825 2.945325 -1.122098e-18)
(0.7730739 2.229801 -3.764408e-20)
(0.6092987 1.50031 -6.434314e-19)
(0.5088068 0.7880963 3.423699e-19)
(0.503106 0.05977526 -6.289096e-24)
(0.5850244 -0.6783158 -3.397695e-19)
(0.6413497 -1.470268 2.909755e-20)
(0.7714641 -2.224471 -6.150173e-19)
(0.9692724 -2.940926 1.127723e-18)
(1.226924 -3.634306 -1.087017e-18)
(1.544518 -4.303924 2.588606e-21)
(1.912691 -4.941708 8.965423e-19)
(2.348256 -5.545995 -1.470049e-18)
(2.803692 -6.128667 1.267393e-18)
(3.3066 -6.661806 9.679561e-19)
(3.873134 -7.147389 7.981466e-21)
(4.471702 -7.59571 8.399867e-21)
(5.087726 -7.99465 -2.147661e-19)
(5.741659 -8.346991 -2.625117e-20)
(6.430531 -8.65041 1.525998e-20)
(7.12887 -8.891065 5.99592e-19)
(7.841001 -9.064158 -1.878333e-18)
(8.567549 -9.185576 1.220545e-18)
(9.309399 -9.238782 -5.178452e-20)
(10.05089 -9.235643 -1.823997e-18)
(10.78513 -9.185811 4.23065e-18)
(11.51422 -9.067193 7.835538e-20)
(12.21985 -8.888278 2.591919e-18)
(12.90608 -8.641373 -3.02602e-18)
(13.57693 -8.336123 9.395404e-20)
(14.21503 -7.992311 -3.444605e-18)
(14.82347 -7.584366 -3.524971e-18)
(15.3897 -7.134043 1.216307e-19)
(15.91464 -6.62859 -4.062905e-18)
(16.39877 -6.080823 4.198661e-18)
(16.8315 -5.507253 0)
(17.205 -4.894084 0)
(17.51501 -4.246827 2.287083e-18)
(17.76171 -3.5845 2.29e-18)
(17.94607 -2.916699 0)
(18.05351 -2.250468 1.224348e-18)