/*--------------------------------*- C++ -*----------------------------------*\
| =========                 |                                                 |
| \\      /  F ield         | OpenFOAM: The Open Source CFD Toolbox           |
|  \\    /   O peration     | Version:  2406                                  |
|   \\  /    A nd           | Website:  www.openfoam.com                      |
|    \\/     M anipulation  |                                                 |
\*---------------------------------------------------------------------------*/
FoamFile
{
    version     2.0;
    format      ascii;
    arch        "LSB;label=32;scalar=64";
    class       volVectorField;
    location    "2.52";
    object      U;
}
// * * * * * * * * * * * * * * * * * * * * * * * * * * * * * * * * * * * * * //

dimensions      [0 1 -1 0 0 0 0];

internalField   nonuniform List<vector> 
15536
(
(-0.006648908 5.913565 -6.11874e-22)
(-0.1256302 5.491783 -4.799021e-19)
(-0.1145709 3.268296 -9.060423e-19)
(0.1459733 -0.6002126 -8.485983e-19)
(0.2520715 -1.638944 -1.270976e-20)
(-0.04203597 -0.2294333 5.371086e-21)
(-0.3359369 1.116468 1.228772e-20)
(-0.2821037 1.026593 -1.220761e-20)
(-0.5220289 1.601263 3.878932e-18)
(-0.185429 0.6736237 4.097534e-18)
(1.18193 -2.310207 0)
(1.796495 -3.4522 0)
(1.200226 -2.308103 -2.66563e-20)
(0.2126561 -0.5205912 6.873477e-18)
(-0.775429 1.075761 3.896032e-18)
(-1.718721 2.357646 -9.726555e-18)
(-2.36769 3.049152 6.2239e-18)
(-2.562803 3.067713 6.194536e-20)
(-2.540728 2.855286 -1.267022e-19)
(-2.564895 2.697836 6.493302e-20)
(-2.208368 2.2661 0)
(-0.4738358 0.6743336 4.242081e-18)
(2.895966 -2.085544 0)
(4.475038 -3.23071 -1.038114e-19)
(2.246879 -1.67265 3.449909e-22)
(-1.05665 0.4719145 -2.369977e-20)
(-2.999697 1.618157 2.354932e-20)
(-4.057732 2.085428 -5.064064e-18)
(-5.241361 2.430662 -6.154962e-18)
(-7.494626 3.09195 0)
(-10.20032 3.851184 -6.56914e-20)
(-11.44332 4.158121 -9.42084e-18)
(-5.560701 2.157912 8.43678e-18)
(3.365811 -0.7104248 0)
(1.797873 -0.6152105 -5.425499e-18)
(-1.093119 -0.223649 -2.949942e-20)
(-3.667708 0.1906369 4.00903e-18)
(2.357907 -0.01416731 -1.803187e-18)
(8.611213 0.1424943 1.699656e-21)
(11.89395 0.5897843 -4.274623e-19)
(13.6013 1.164296 1.737832e-18)
(14.51881 1.822501 -2.759168e-20)
(15.06054 2.514302 2.734801e-20)
(15.36084 3.204518 0)
(15.49232 3.882589 -6.841784e-18)
(15.47682 4.534575 -6.777518e-18)
(15.31014 5.15001 0)
(15.05935 5.735255 -1.287817e-17)
(14.74154 6.291202 1.254194e-17)
(14.38156 6.820726 1.210235e-17)
(13.96856 7.30896 4.411268e-20)
(13.49658 7.751831 -1.100006e-17)
(12.97364 8.144247 0)
(12.40886 8.48828 0)
(11.81157 8.780486 8.964111e-18)
(11.17949 9.012559 8.260804e-18)
(10.53155 9.196043 5.55005e-20)
(9.87417 9.32926 6.621299e-18)
(9.193747 9.392975 1.176199e-17)
(8.503409 9.395962 5.076012e-18)
(7.811336 9.341433 4.212267e-18)
(7.131309 9.23912 -3.002502e-20)
(6.459936 9.078939 0)
(5.794669 8.853905 1.719213e-18)
(5.14956 8.581167 0)
(4.520401 8.24687 -2.535251e-20)
(3.915138 7.858139 -2.842244e-20)
(3.344976 7.425453 -2.964491e-21)
(2.809138 6.946427 7.578818e-21)
(2.31173 6.424979 -3.043235e-18)
(1.858717 5.870024 -1.569663e-20)
(1.450705 5.279301 2.195795e-18)
(1.089283 4.655375 2.478217e-18)
(0.7798183 4.014405 0)
(0.521657 3.359796 0)
(0.3172879 2.687366 3.154321e-18)
(0.164387 2.00092 -4.583052e-22)
(0.06678957 1.300718 8.768708e-19)
(0.02821212 0.5499909 1.636524e-21)
(0.04007915 -0.2481568 -7.008107e-21)
(0.1002514 -1.004961 -1.74866e-18)
(0.2164601 -1.717079 0)
(0.3873183 -2.407968 3.220721e-18)
(0.6103558 -3.080446 0)
(0.8843855 -3.729743 -2.797151e-18)
(1.206994 -4.351955 2.519824e-18)
(1.577804 -4.945733 1.881122e-20)
(1.993275 -5.50874 3.952208e-18)
(2.449917 -6.030397 1.164178e-20)
(2.943834 -6.508681 -2.664642e-18)
(3.472365 -6.945653 -1.950454e-18)
(4.032697 -7.335175 1.201263e-20)
(4.622755 -7.679117 -4.269265e-19)
(5.234838 -7.972105 -3.575359e-19)
(5.861696 -8.210722 1.199597e-20)
(6.492755 -8.383029 6.144731e-21)
(7.133137 -8.502624 -2.698703e-18)
(7.778485 -8.569479 0)
(8.420496 -8.576388 8.385936e-18)
(9.061241 -8.533666 4.885396e-18)
(9.681529 -8.42798 9.225843e-20)
(10.27743 -8.261737 -6.405946e-18)
(10.8447 -8.038067 0)
(11.38189 -7.761322 0)
(11.88791 -7.439119 0)
(12.35359 -7.069995 0)
(12.76877 -6.655496 9.28845e-18)
(13.12921 -6.199214 9.807947e-18)
(13.43551 -5.707085 2.690813e-20)
(13.67257 -5.18337 -1.050413e-17)
(13.80792 -4.621331 -5.343366e-18)
(13.8193 -4.025377 -5.493231e-18)
(13.65398 -3.393093 4.290466e-20)
(13.23891 -2.731816 5.521816e-18)
(12.42358 -2.070942 2.804293e-18)
(10.79212 -1.41604 -2.163788e-20)
(7.304433 -0.7294947 -5.156545e-21)
(2.065818 -0.1050245 3.574218e-19)
(-1.319371 -0.1352175 -7.459141e-19)
(-4.811475 -0.7426191 -2.013014e-20)
(-7.544472 -1.069835 1.36131e-20)
(-6.311207 -0.9107162 2.853129e-18)
(-4.090993 -0.5988379 1.979889e-20)
(-1.380485 -0.06410711 0)
(3.570373 1.257845 -1.765563e-18)
(6.756053 2.158616 -1.370892e-18)
(-1.166719 -0.9484974 -8.43237e-21)
(-8.740526 -4.099454 1.41484e-17)
(-9.312861 -4.424189 -1.304127e-17)
(-7.16661 -3.606489 0)
(-4.566596 -2.47217 0)
(-2.441166 -1.410157 -3.448459e-18)
(-0.6340968 -0.3216184 0)
(1.344855 1.030066 9.632534e-21)
(2.543462 1.975332 -1.129958e-18)
(2.410587 2.019788 -1.335116e-18)
(1.962174 1.798477 1.445608e-20)
(1.620446 1.570422 -4.174887e-18)
(0.8146794 0.8072562 -4.168936e-20)
(-0.007879958 -0.04161938 6.508039e-18)
(-0.2071017 -0.2621824 3.590165e-18)
(-0.2008601 -0.2706494 3.839139e-18)
(0.03423496 0.09677098 4.052154e-18)
(0.4880568 0.8424595 0)
(0.5516212 0.9007685 -1.628601e-20)
(-0.05708669 -0.2426782 -4.111601e-18)
(-0.7133951 -1.722883 0)
(-0.9319035 -2.499158 3.793631e-18)
(-0.8274087 -2.383837 -2.665177e-20)
(-0.5418491 -1.691933 1.263992e-20)
(-0.2681811 -0.8831614 1.358116e-18)
(-0.02447294 0.08683536 -2.820976e-22)
(0.1900113 1.265665 0)
(0.3381959 2.529956 5.870219e-19)
(0.3851407 3.716952 4.904441e-21)
(0.3274987 4.722426 1.644734e-21)
(0.182217 5.445314 -2.193872e-21)
(-0.2228594 6.313547 -1.990554e-19)
(-0.353617 6.747962 3.861699e-19)
(-0.3119008 6.312714 0)
(0.005253491 2.497845 6.602575e-19)
(0.2232099 -1.035406 0)
(0.05246894 -1.060814 2.366955e-18)
(-0.1475671 0.1489001 1.01894e-20)
(-0.112651 0.198886 -1.024668e-20)
(-0.4264276 1.184706 -3.252551e-18)
(0.3131849 -0.08638371 -3.262888e-18)
(1.993851 -3.807865 0)
(1.879018 -3.784269 2.462431e-20)
(1.053615 -2.429176 -2.744521e-21)
(0.06368855 -0.6157766 -2.751464e-18)
(-0.8901767 0.9509806 -6.369508e-18)
(-1.969779 2.444775 3.892448e-18)
(-2.709592 3.379287 -4.999353e-18)
(-2.482634 2.945076 -4.427009e-20)
(-2.476515 2.684632 0)
(-2.851906 2.866016 0)
(-2.890867 2.905514 0)
(-1.838974 2.118689 3.340143e-18)
(2.547661 -1.457267 4.49158e-21)
(5.162349 -3.879147 -4.691358e-21)
(2.343847 -2.199132 6.14395e-21)
(-0.3213569 -0.2967999 -6.443036e-21)
(-1.605385 0.6699642 0)
(-2.195087 0.9460854 0)
(-2.842773 1.011544 1.046339e-17)
(-4.62048 1.401967 7.925908e-20)
(-7.148371 2.154497 -7.597043e-20)
(-9.426037 3.22014 8.016989e-18)
(-8.003664 3.156272 6.355159e-18)
(0.5912567 0.35084 -3.199214e-20)
(2.945949 -0.7705841 -4.359321e-18)
(5.871812 -1.036521 2.766137e-18)
(8.398478 -0.5166102 5.991835e-22)
(13.78394 -0.2652428 1.156473e-18)
(18.08971 -0.1055508 0)
(19.07122 0.2420926 3.104527e-19)
(19.34731 0.7921634 2.5953e-18)
(19.38152 1.467022 2.691669e-18)
(19.29599 2.176639 2.715035e-18)
(19.1193 2.888692 -8.433218e-20)
(18.88068 3.608205 5.491027e-18)
(18.58804 4.316853 -4.174791e-20)
(18.25692 5.012735 0)
(17.86307 5.676497 1.026221e-17)
(17.40945 6.309453 0)
(16.91374 6.909443 -7.288158e-20)
(16.36804 7.46346 7.308612e-20)
(15.76884 7.96837 8.780543e-18)
(15.12336 8.41775 -6.201424e-20)
(14.43852 8.811914 7.743619e-18)
(13.72258 9.146425 -7.208969e-18)
(12.97881 9.418738 0)
(12.21763 9.63819 4.39163e-20)
(11.44596 9.800172 -5.429969e-18)
(10.65906 9.891114 -9.376135e-18)
(9.861438 9.912977 0)
(9.065834 9.876591 -3.380662e-18)
(8.281463 9.78353 -1.827604e-20)
(7.508838 9.626015 2.006579e-18)
(6.748864 9.403161 7.764171e-21)
(6.008525 9.120947 -7.856034e-21)
(5.291992 8.776178 2.056794e-20)
(4.602142 8.37328 6.390885e-19)
(3.950176 7.91752 0)
(3.33713 7.414477 0)
(2.767683 6.867632 -2.160214e-20)
(2.246128 6.278932 0)
(1.77552 5.650653 0)
(1.357536 4.987594 0)
(0.9968369 4.301412 -2.263314e-18)
(0.6922818 3.60086 1.830763e-20)
(0.4519608 2.879216 1.105156e-20)
(0.2677239 2.14235 -5.41094e-21)
(0.1477967 1.388065 -7.194789e-19)
(0.102133 0.5819569 2.974431e-21)
(0.1136267 -0.2676599 -7.414829e-19)
(0.1801692 -1.079421 1.426306e-18)
(0.3181392 -1.845064 1.091971e-20)
(0.519787 -2.586505 -2.613143e-18)
(0.7804941 -3.308147 -3.874293e-20)
(1.09992 -4.005348 2.318993e-18)
(1.473936 -4.670798 -2.095373e-18)
(1.903525 -5.303817 0)
(2.381117 -5.903536 -6.453525e-18)
(2.904867 -6.454902 -1.91613e-20)
(3.472193 -6.96022 2.161891e-18)
(4.077401 -7.423377 1.589788e-18)
(4.717869 -7.831842 0)
(5.391771 -8.187481 0)
(6.091243 -8.493633 0)
(6.807494 -8.735432 9.259881e-21)
(7.535486 -8.909124 -9.200002e-21)
(8.274863 -9.024707 2.103382e-18)
(9.020188 -9.080704 4.960236e-21)
(9.767502 -9.07378 -3.39247e-18)
(10.51107 -9.008788 -6.686324e-20)
(11.24063 -8.881168 9.064104e-18)
(11.94807 -8.688428 5.086276e-18)
(12.6288 -8.433613 -4.156579e-20)
(13.28488 -8.122969 6.008138e-18)
(13.91111 -7.761866 4.918005e-20)
(14.49999 -7.345577 -5.608285e-20)
(15.04358 -6.879966 5.587305e-20)
(15.53796 -6.368345 6.139058e-20)
(15.98092 -5.816283 8.064115e-18)
(16.3725 -5.231438 -6.344595e-20)
(16.70751 -4.620676 0)
(16.99105 -3.989943 0)
(17.2252 -3.355415 0)
(17.39189 -2.722786 0)
(17.43847 -2.122675 1.59642e-20)
(17.27833 -1.63482 -1.575389e-20)
(16.05986 -1.24846 9.264391e-19)
(12.0355 -0.7625497 3.726999e-21)
(4.095194 -0.3545542 0)
(-4.917225 -0.5657871 -1.459532e-18)
(-2.941983 -0.3646469 3.215154e-18)
(-0.5776131 0.2338576 -2.55104e-18)
(0.6900648 0.476063 2.401326e-20)
(1.842302 0.8631205 -2.482783e-18)
(4.314577 1.722763 1.228493e-20)
(6.693406 1.931288 0)
(-4.548747 -2.820155 6.806985e-18)
(-9.644713 -4.513831 -2.228336e-17)
(-8.610352 -3.735235 -1.054464e-17)
(-6.636482 -2.922578 -2.61789e-20)
(-4.170949 -1.926136 -7.293405e-20)
(-2.203204 -1.041023 2.860527e-20)
(-0.6546784 -0.07884463 0)
(1.184302 1.222172 1.073023e-18)
(2.970387 2.516886 8.980886e-19)
(3.334031 2.833928 -1.568179e-21)
(2.513221 2.259162 -1.302721e-18)
(1.895817 1.785279 3.394234e-18)
(1.306587 1.215895 2.169621e-18)
(0.5171466 0.433662 2.002662e-21)
(-0.1230988 -0.2089578 -2.937385e-18)
(-0.3564363 -0.4477509 -2.399143e-20)
(-0.03083909 0.1327866 -3.320114e-18)
(0.3937693 0.8103518 2.853828e-20)
(0.6441772 0.9811641 2.969319e-21)
(0.07279142 -0.2851789 -3.034444e-20)
(-1.080965 -2.763524 0)
(-1.196176 -3.078621 0)
(-0.9194514 -2.378201 -2.806074e-18)
(-0.6459211 -1.719216 0)
(-0.3469403 -0.84999 -2.221626e-18)
(-0.1060926 0.1640462 9.937847e-19)
(0.0867834 1.394493 -7.461613e-21)
(0.2168446 2.715295 7.258401e-21)
(0.2432316 3.966861 5.522687e-19)
(0.1553337 5.036603 -3.248882e-19)
(-0.01292549 5.878799 -1.787797e-19)
(-0.1334761 6.399845 1.604077e-19)
(-0.2465698 6.512535 -3.185061e-19)
(-0.2097749 6.889213 8.358416e-21)
(-0.02455079 5.093623 -5.163908e-19)
(0.08834655 1.403122 0)
(-0.008148827 -0.843856 -1.986922e-18)
(-0.07758557 -0.3646658 -1.672278e-20)
(0.06478729 -0.3661733 1.203166e-18)
(0.1580746 -0.2190181 2.669998e-18)
(1.000594 -1.156679 2.593835e-18)
(2.270125 -4.04571 2.764015e-18)
(1.720926 -3.551236 -2.242741e-20)
(0.8673111 -2.49648 0)
(-0.1392755 -0.6691165 0)
(-1.055764 0.8821909 2.523947e-18)
(-2.01318 2.242348 3.175246e-18)
(-2.763972 3.405919 4.160405e-18)
(-2.563945 3.123802 7.277894e-20)
(-2.823782 3.058401 0)
(-3.311122 3.342142 5.566972e-18)
(-3.225338 3.369082 4.530092e-18)
(-2.308671 2.928164 -2.625765e-18)
(1.079501 0.2680588 0)
(4.396153 -3.227577 -1.012718e-19)
(2.364386 -2.549744 0)
(1.197162 -1.418403 -1.325154e-18)
(0.8499078 -0.7143379 0)
(1.098156 -0.6756094 -3.673488e-18)
(0.7781466 -0.7080965 -8.792176e-18)
(-1.12925 -0.2969565 0)
(-3.577235 0.6468869 0)
(-4.812202 1.899266 3.69692e-20)
(-5.87439 2.984049 -5.269622e-18)
(0.936673 0.7806756 3.09613e-18)
(10.1912 -1.518493 6.267522e-18)
(14.77054 -1.690917 -1.941089e-18)
(16.89709 -0.9723171 1.922052e-18)
(18.73838 -0.22386 -8.982538e-19)
(19.1284 0.1573093 0)
(18.75105 0.6397624 0)
(18.78443 1.316107 -2.159583e-18)
(18.77916 2.051672 -2.25817e-18)
(18.71767 2.79289 -4.438401e-18)
(18.5764 3.52773 4.405174e-18)
(18.37434 4.252362 1.03759e-19)
(18.11075 4.946042 -6.888065e-20)
(17.77678 5.61537 0)
(17.37585 6.242946 0)
(16.92004 6.84046 8.059785e-18)
(16.42275 7.407881 -7.787251e-18)
(15.87925 7.925647 0)
(15.28464 8.394051 0)
(14.64713 8.805835 1.018075e-19)
(13.97175 9.164556 -6.45638e-18)
(13.26833 9.463296 0)
(12.54029 9.698911 -5.307233e-18)
(11.79573 9.884306 -4.819938e-18)
(11.04365 10.01328 -4.254725e-18)
(10.28023 10.07045 3.774308e-18)
(9.505947 10.06124 -4.664677e-20)
(8.734791 9.997063 2.728429e-18)
(7.975628 9.878688 0)
(7.230858 9.696527 -1.638213e-18)
(6.500213 9.450854 -1.236133e-20)
(5.787254 9.149935 8.651309e-21)
(5.103691 8.785359 -4.356112e-20)
(4.444241 8.366666 0)
(3.821863 7.897622 -1.103512e-18)
(3.236987 7.384119 -1.415559e-20)
(2.69648 6.828533 2.066042e-18)
(2.201014 6.234031 1.26318e-18)
(1.755269 5.60183 -1.472811e-18)
(1.359418 4.937035 -1.669488e-18)
(1.017629 4.250974 1.842673e-18)
(0.7285562 3.552985 -2.0072e-18)
(0.5056427 2.834844 -1.044233e-18)
(0.3316692 2.104829 2.230648e-18)
(0.2207859 1.36073 1.177042e-18)
(0.1849192 0.5678652 2.414001e-21)
(0.1965649 -0.2627936 6.138329e-19)
(0.2555168 -1.063938 -9.253558e-21)
(0.3877341 -1.82148 0)
(0.580379 -2.557065 -1.647756e-20)
(0.8270408 -3.274538 -1.457337e-20)
(1.129686 -3.968505 -1.833586e-18)
(1.482596 -4.632592 3.441041e-18)
(1.892005 -5.265048 -1.543714e-18)
(2.344387 -5.867747 2.615315e-18)
(2.840634 -6.424369 1.905008e-20)
(3.382109 -6.936211 0)
(3.958748 -7.409695 1.339948e-18)
(4.570091 -7.830564 9.26234e-21)
(5.216471 -8.200004 -3.706189e-19)
(5.886235 -8.524721 0)
(6.572978 -8.787098 6.680877e-19)
(7.275312 -8.981414 0)
(7.989788 -9.120473 -4.460353e-20)
(8.710261 -9.20281 2.186535e-18)
(9.436529 -9.222145 0)
(10.15867 -9.1873 -3.229196e-18)
(10.86897 -9.091543 -3.714125e-18)
(11.55955 -8.931664 -4.169152e-18)
(12.22554 -8.710029 0)
(12.87073 -8.431525 -1.003095e-17)
(13.48815 -8.103701 8.0679e-20)
(14.071 -7.719578 0)
(14.61147 -7.286358 0)
(15.1055 -6.805192 0)
(15.5519 -6.283208 6.523127e-18)
(15.94356 -5.729159 -6.743308e-18)
(16.2721 -5.138692 0)
(16.52937 -4.517083 0)
(16.72515 -3.866216 3.474103e-18)
(16.85614 -3.207978 2.750824e-20)
(16.92192 -2.552428 0)
(16.98497 -1.966587 0)
(17.27134 -1.580854 -1.492115e-18)
(16.92882 -1.311667 1.739223e-19)
(12.25186 -0.9747137 0)
(4.163339 -0.417441 1.033141e-18)
(3.786172 0.6499315 4.488535e-20)
(6.062701 1.508157 -2.774294e-21)
(6.936197 1.781759 -2.498449e-20)
(6.921185 2.002352 1.892691e-18)
(5.890621 2.138611 1.127437e-18)
(4.500324 0.7061297 1.509563e-20)
(-5.326556 -3.854724 5.383332e-20)
(-7.666274 -4.001677 9.26993e-18)
(-7.608148 -3.176547 8.819278e-18)
(-5.677231 -2.12461 0)
(-3.292595 -1.157859 3.513516e-18)
(-1.522144 -0.4339209 0)
(-0.3449474 0.3405489 -1.829138e-20)
(0.9342982 1.309998 -8.486677e-19)
(2.595309 2.37011 1.2594e-20)
(3.11931 2.605321 -1.275346e-20)
(2.317596 1.947097 1.079583e-18)
(1.654399 1.434601 -1.400348e-18)
(1.390811 1.202215 -1.780853e-18)
(0.9691233 0.8150208 -2.176642e-18)
(0.1629517 0.01453447 -2.381267e-18)
(-0.352825 -0.4306191 0)
(-0.07333629 0.2083012 -1.979421e-21)
(0.2163933 0.6125391 0)
(0.5283331 0.619013 -3.062041e-18)
(0.2140821 -0.4329524 2.674919e-18)
(-1.059809 -3.043426 0)
(-1.176542 -3.021216 0)
(-0.9518296 -2.280765 4.60506e-18)
(-0.7130703 -1.660471 -1.016771e-18)
(-0.4382173 -0.8188648 1.817443e-18)
(-0.2150731 0.1963511 -6.183236e-21)
(-0.04162992 1.426747 6.027327e-21)
(0.0960659 2.74494 0)
(0.1550892 3.98768 -4.467962e-19)
(0.1096194 5.056469 5.189591e-19)
(0.007630014 5.876293 1.479013e-19)
(-0.2378006 6.464652 -2.635192e-19)
(-0.3325572 6.566549 -7.973654e-21)
(-0.1738653 6.700147 7.559182e-21)
(0.04033787 6.33286 -1.23322e-20)
(0.05244598 3.759267 1.318483e-20)
(-0.06415406 0.4411724 8.113167e-19)
(0.03810287 -0.7495391 -1.386579e-20)
(0.279231 -0.9560458 -9.874639e-19)
(0.5998553 -1.241703 3.155155e-20)
(1.587845 -2.019718 -2.066242e-18)
(2.349902 -3.93487 -1.72211e-20)
(1.60813 -3.534743 0)
(0.6404616 -2.565329 0)
(-0.3487148 -0.7796119 -1.817588e-18)
(-1.209957 0.7731741 -2.099562e-18)
(-2.076029 1.998817 -5.191639e-18)
(-2.81826 3.337824 -3.410389e-18)
(-2.987887 3.596779 0)
(-3.472042 3.704872 0)
(-3.863722 3.862427 -9.075987e-18)
(-3.574739 3.808634 -7.414708e-18)
(-2.432879 3.418303 2.35519e-20)
(-0.04140062 1.831519 -2.86849e-20)
(3.252022 -2.082204 2.093363e-19)
(2.643831 -2.861405 -6.146074e-21)
(3.110471 -2.60307 1.092676e-18)
(3.649403 -2.182179 2.227459e-18)
(4.251067 -2.251479 2.756377e-18)
(3.903516 -2.330536 3.43018e-18)
(2.387561 -2.11311 0)
(0.3883281 -1.104237 -1.628211e-19)
(-0.8133018 0.5223436 -1.32719e-17)
(-2.017015 2.296503 9.86828e-20)
(5.181744 0.6875074 1.062192e-19)
(15.69129 -1.758821 -2.222025e-18)
(18.27092 -1.9893 -1.410198e-18)
(18.97722 -1.279461 -5.663903e-20)
(18.97931 -0.4383393 -7.368157e-19)
(18.55649 -0.1191992 -3.860856e-19)
(18.64954 0.2515622 -3.218482e-21)
(18.84757 0.8443347 0)
(18.93098 1.518971 -2.82626e-20)
(18.91239 2.2301 1.865151e-18)
(18.79665 2.943692 -7.282939e-18)
(18.60797 3.668478 5.600501e-20)
(18.3499 4.372927 -3.585135e-18)
(18.02114 5.053937 -1.076653e-19)
(17.62628 5.695238 -6.758023e-18)
(17.17381 6.310722 -2.093932e-22)
(16.67877 6.901664 6.423289e-18)
(16.13875 7.439965 -6.050731e-18)
(15.5465 7.931849 0)
(14.91058 8.366334 8.236732e-20)
(14.23485 8.749947 -8.288842e-20)
(13.52876 9.075322 0)
(12.79577 9.338809 4.372444e-18)
(12.04507 9.551755 7.69518e-20)
(11.28538 9.708242 3.557411e-18)
(10.51421 9.791697 -3.0438e-18)
(9.733729 9.804985 -2.600428e-18)
(8.952314 9.764924 -2.20684e-18)
(8.183611 9.66899 -1.715328e-18)
(7.42971 9.507336 1.647889e-20)
(6.688704 9.281149 -1.664015e-20)
(5.965027 8.99886 0)
(5.270319 8.651604 3.900089e-20)
(4.599008 8.249094 -1.097187e-20)
(3.965575 7.794254 9.177803e-19)
(3.369814 7.293519 1.310328e-18)
(2.820907 6.748561 -1.692446e-18)
(2.317023 6.163555 -1.037087e-18)
(1.86338 5.539614 -5.414596e-21)
(1.459795 4.882045 1.370097e-18)
(1.113252 4.201438 2.450024e-20)
(0.8185478 3.508915 1.609316e-18)
(0.5946423 2.794979 1.386076e-20)
(0.4192055 2.070033 -9.324856e-19)
(0.3097661 1.334502 -4.797148e-19)
(0.2824286 0.5541694 -6.035685e-23)
(0.2943102 -0.2540928 4.868341e-19)
(0.3477324 -1.04605 7.579881e-21)
(0.4770954 -1.798108 -9.280666e-19)
(0.6703745 -2.528206 1.772102e-18)
(0.9180981 -3.238749 0)
(1.223031 -3.92455 -2.258024e-21)
(1.578407 -4.579797 -1.414623e-18)
(1.992967 -5.202675 1.302147e-18)
(2.448889 -5.796114 -2.240864e-18)
(2.952951 -6.340488 2.633097e-20)
(3.504128 -6.839251 -2.609033e-20)
(4.086171 -7.301272 -1.101216e-18)
(4.706245 -7.707405 0)
(5.365604 -8.059379 2.988005e-19)
(6.042976 -8.369192 3.393561e-21)
(6.738428 -8.613936 -4.487833e-20)
(7.450894 -8.788803 -9.024113e-19)
(8.173754 -8.908838 -1.395461e-18)
(8.901837 -8.971097 -2.193631e-20)
(9.635391 -8.969065 2.151397e-18)
(10.36555 -8.910945 -3.701802e-20)
(11.08159 -8.792468 -2.945465e-18)
(11.77742 -8.608209 0)
(12.44958 -8.359983 3.667581e-18)
(13.09839 -8.057262 4.071719e-18)
(13.71638 -7.707917 4.237719e-18)
(14.29879 -7.302372 -4.526098e-18)
(14.83714 -6.85002 4.857986e-18)
(15.32873 -6.350612 0)
(15.77261 -5.811515 -1.067452e-17)
(16.16025 -5.247741 1.112781e-17)
(16.48431 -4.649287 -1.314565e-19)
(16.73998 -4.020432 -2.837277e-18)
(16.92117 -3.379312 -2.84922e-18)
(17.01623 -2.741632 0)
(17.00392 -2.137244 1.417353e-18)
(16.88248 -1.620324 -1.358406e-18)
(16.76329 -1.305571 6.303513e-19)
(17.42068 -1.293961 -1.469867e-19)
(16.89839 -1.311367 -2.953745e-19)
(13.65183 -0.4372696 1.068517e-20)
(12.86571 1.285239 -1.827061e-18)
(12.91797 2.440824 2.213284e-20)
(12.42885 2.741652 0)
(11.41212 2.759534 0)
(8.486379 2.416345 -2.533426e-20)
(3.281604 -0.435546 2.308825e-20)
(-4.43758 -4.307642 0)
(-6.111148 -3.570779 0)
(-6.476163 -2.478375 0)
(-4.750584 -1.260392 4.693627e-18)
(-2.3957 -0.3347479 -5.774962e-18)
(-0.6847686 0.2684715 1.955156e-18)
(0.1956478 0.8721067 -1.185391e-18)
(0.8029374 1.444207 -2.490821e-20)
(2.005306 2.074707 6.003019e-19)
(2.534653 2.069517 7.365002e-19)
(1.965111 1.483 1.585207e-20)
(1.379097 1.063664 4.498676e-21)
(1.186597 0.9226096 -2.070611e-20)
(1.045999 0.7677497 -2.894442e-20)
(0.360094 0.09140072 2.002867e-18)
(-0.3358184 -0.4251994 0)
(-0.2289986 0.09298412 2.247489e-18)
(-0.01501214 0.2865024 -2.475572e-18)
(0.3424471 0.1567276 2.55015e-18)
(0.3067877 -0.7532885 0)
(-0.9273907 -3.113172 0)
(-1.174018 -2.925568 -3.174038e-20)
(-1.016382 -2.204335 -1.886651e-18)
(-0.7959687 -1.604974 8.615244e-19)
(-0.5396019 -0.7635797 -7.439965e-19)
(-0.3397606 0.2512763 0)
(-0.1889859 1.495034 0)
(-0.05225031 2.821366 0)
(0.01944442 4.061377 -3.581407e-19)
(-0.01179401 5.124641 -2.180476e-19)
(-0.09868238 5.940243 -2.422219e-19)
(-0.2590386 6.549914 1.079722e-19)
(-0.3077412 6.733716 0)
(-0.147055 6.614061 -3.935242e-19)
(0.1297336 6.654533 0)
(0.1511352 5.324604 -6.387358e-19)
(-0.01442792 2.015514 0)
(0.192873 -0.731141 0)
(0.5239885 -1.345903 -7.823802e-19)
(0.9893317 -1.952871 -1.72179e-18)
(1.983901 -2.557458 1.71434e-18)
(2.340455 -3.741546 -1.874577e-18)
(1.520411 -3.572452 1.95413e-18)
(0.4116616 -2.699189 0)
(-0.5627469 -0.9754091 2.967862e-18)
(-1.337344 0.5571843 1.713105e-18)
(-2.216156 1.792676 2.192153e-18)
(-2.893667 3.171669 -7.708426e-20)
(-3.373188 3.940316 -1.127535e-19)
(-3.980533 4.208442 -3.623387e-18)
(-4.250985 4.27938 7.480392e-18)
(-3.732832 4.149636 3.035197e-18)
(-2.424206 3.750177 3.990682e-20)
(-0.4678813 2.832688 6.959346e-19)
(2.258647 -0.8004508 -9.640705e-20)
(3.266202 -3.100302 5.209134e-21)
(5.174486 -3.679034 0)
(6.431725 -3.551585 -3.122415e-20)
(7.281173 -3.703025 0)
(7.126491 -3.932114 2.599266e-18)
(6.165492 -4.016471 3.85545e-18)
(4.791878 -3.120551 7.040147e-18)
(3.203205 -1.021249 -2.830587e-19)
(3.527532 1.236999 1.182714e-19)
(11.09877 0.4918023 -3.512276e-18)
(18.13892 -1.527225 0)
(18.04219 -1.854924 -1.10581e-18)
(18.41596 -1.21683 -1.289887e-18)
(18.3246 -0.3604598 1.242862e-18)
(18.20762 0.1093014 3.067445e-19)
(18.40014 0.6286926 0)
(18.54321 1.277347 7.120374e-19)
(18.60927 1.978157 0)
(18.58216 2.686326 0)
(18.46383 3.381387 3.04333e-18)
(18.27357 4.093703 -4.631762e-20)
(18.01969 4.77035 4.969076e-20)
(17.69435 5.422718 -2.82697e-18)
(17.30588 6.030025 5.675584e-18)
(16.85998 6.612863 -5.409822e-18)
(16.37484 7.172036 -5.216276e-18)
(15.85087 7.668631 2.392815e-19)
(15.27238 8.126458 -1.514239e-19)
(14.65397 8.524734 -1.338595e-19)
(13.99503 8.877774 -3.852237e-18)
(13.30844 9.174072 -3.929972e-18)
(12.59582 9.408616 -1.040653e-19)
(11.8631 9.599179 3.313398e-18)
(11.12635 9.732846 0)
(10.38003 9.79345 2.506632e-18)
(9.618255 9.7911 2.140896e-18)
(8.856515 9.737493 1.7164e-18)
(8.109869 9.629526 1.411523e-18)
(7.377151 9.458398 0)
(6.657274 9.223275 0)
(5.951174 8.93711 2.71489e-19)
(5.277026 8.585017 0)
(4.620485 8.181941 0)
(4.003386 7.727109 8.179739e-19)
(3.424913 7.226724 -1.05865e-20)
(2.886725 6.685059 -1.593439e-20)
(2.391102 6.103452 -2.887563e-20)
(1.946084 5.482853 2.026936e-18)
(1.551433 4.828417 0)
(1.214326 4.150664 0)
(0.916873 3.464579 1.364066e-18)
(0.698178 2.753774 6.920513e-19)
(0.5238618 2.032688 7.527017e-19)
(0.4161655 1.305873 -3.927616e-19)
(0.3980159 0.5384364 0)
(0.412388 -0.2414043 -4.227473e-22)
(0.4596215 -1.02496 2.440313e-20)
(0.5791165 -1.772398 7.365113e-19)
(0.7676741 -2.495037 -1.452729e-18)
(1.011524 -3.197082 -4.168166e-20)
(1.31282 -3.875007 1.278225e-18)
(1.663985 -4.522676 3.790175e-20)
(2.073833 -5.138782 2.092605e-18)
(2.516882 -5.728456 -1.070988e-20)
(3.007966 -6.268989 -1.590122e-18)
(3.550678 -6.764802 4.33315e-20)
(4.118955 -7.22726 0)
(4.719411 -7.635783 6.245989e-19)
(5.365031 -7.989943 0)
(6.028473 -8.304455 0)
(6.702194 -8.558641 -4.193676e-19)
(7.39537 -8.742648 1.473875e-18)
(8.101451 -8.872866 3.899122e-20)
(8.809419 -8.948908 -8.610327e-20)
(9.523415 -8.962007 -1.76593e-18)
(10.23361 -8.923065 -2.047956e-18)
(10.92994 -8.825499 2.506969e-18)
(11.60491 -8.666162 -2.749695e-18)
(12.2559 -8.445934 -6.540387e-20)
(12.88781 -8.169359 0)
(13.48823 -7.851381 -3.668417e-18)
(14.05517 -7.477008 7.74776e-18)
(14.57918 -7.05916 -4.132196e-18)
(15.05728 -6.595512 0)
(15.49201 -6.090235 8.041354e-20)
(15.87255 -5.5573 -4.456302e-18)
(16.19065 -4.986157 -7.105994e-20)
(16.44235 -4.380112 1.156258e-19)
(16.62193 -3.753947 -7.301831e-20)
(16.72348 -3.122146 0)
(16.73044 -2.498707 -2.259457e-18)
(16.65808 -1.930305 1.058625e-18)
(16.47743 -1.473756 5.086036e-19)
(16.67317 -1.286957 -7.639068e-21)
(17.63674 -1.287254 2.382861e-19)
(17.74109 -0.247012 5.662761e-19)
(17.34189 1.707006 0)
(16.31346 2.920788 1.097317e-18)
(14.94764 3.156268 -4.308461e-20)
(13.641 2.964435 1.223255e-18)
(10.52604 2.263309 0)
(3.589529 -1.274326 0)
(-2.552288 -4.334839 0)
(-4.421797 -3.084574 1.026908e-19)
(-4.893473 -1.566772 6.34382e-18)
(-3.570654 -0.2324814 -4.04542e-18)
(-1.491822 0.5335248 2.50551e-18)
(0.1585027 0.9803734 -3.133486e-18)
(0.8746319 1.413719 9.803213e-19)
(0.866802 1.613261 0)
(1.464719 1.739876 -4.991126e-19)
(1.956885 1.526182 -6.052799e-19)
(1.652035 1.069093 7.557844e-19)
(1.095267 0.6844393 -2.674712e-20)
(0.8319486 0.494955 -4.249288e-20)
(0.8432907 0.4195232 4.232021e-20)
(0.4219366 -0.0161292 0)
(-0.3246995 -0.4739834 -1.794284e-18)
(-0.4625473 -0.1831438 6.021444e-20)
(-0.2940871 -0.1413488 4.025912e-18)
(0.1295143 -0.3822501 -2.150531e-18)
(0.3088164 -1.263599 1.121162e-19)
(-0.7704946 -3.132481 -1.766975e-18)
(-1.184213 -2.854934 0)
(-1.109266 -2.168333 -1.556969e-18)
(-0.903888 -1.552928 7.068582e-19)
(-0.6602012 -0.6824007 -3.85077e-20)
(-0.4892122 0.3312293 5.80382e-19)
(-0.3616143 1.605186 -2.418666e-20)
(-0.2216411 2.944172 7.890031e-21)
(-0.1352235 4.177071 2.972225e-19)
(-0.1412765 5.23067 -2.891522e-21)
(-0.1837469 6.042227 3.054255e-21)
(-0.3233915 6.672687 5.54053e-21)
(-0.3225873 6.883734 1.741634e-19)
(-0.1500205 6.748734 3.259404e-19)
(0.1906077 6.666323 -2.887562e-19)
(0.3382859 6.137058 5.142464e-19)
(0.2051824 3.460109 0)
(0.4172976 -0.2526326 4.788596e-19)
(0.7624187 -1.489616 6.670441e-19)
(1.240484 -2.254899 1.398523e-18)
(2.191699 -2.738059 0)
(2.303232 -3.525641 0)
(1.469504 -3.62602 -1.602462e-18)
(0.1930784 -2.879891 -3.826294e-20)
(-0.7953154 -1.245148 -1.174851e-18)
(-1.512509 0.2758426 -1.417659e-18)
(-2.446614 1.647131 -1.734761e-18)
(-3.028235 2.972403 2.269963e-18)
(-3.56569 3.886897 -2.678825e-18)
(-4.196218 4.294491 2.861397e-18)
(-4.395538 4.449368 -2.995347e-18)
(-3.692683 4.377021 0)
(-2.23032 3.966343 0)
(-0.3473025 3.363547 -5.970015e-19)
(1.777292 0.2907997 0)
(4.290542 -3.230616 -9.867238e-21)
(7.181043 -4.469107 -2.2159e-20)
(8.86801 -4.588242 -1.254917e-18)
(9.856977 -4.879758 -4.716893e-20)
(10.00776 -5.337593 3.309629e-20)
(9.835348 -5.782357 -3.027886e-18)
(9.669102 -5.158023 -9.722572e-20)
(9.300131 -2.730556 3.834579e-18)
(10.74848 0.1033814 -6.543631e-20)
(16.07707 0.2813476 1.490155e-18)
(18.24879 -1.201657 -4.700628e-20)
(17.28675 -1.702037 3.81809e-18)
(18.05818 -1.158193 3.108622e-20)
(18.14474 -0.4674172 -7.72964e-21)
(18.23645 -0.07375727 -5.25809e-19)
(18.42689 0.3814785 -4.305074e-21)
(18.57533 0.9580948 -5.870696e-19)
(18.6453 1.61322 -3.736025e-20)
(18.61898 2.299454 -1.15575e-18)
(18.49722 2.989744 2.378356e-18)
(18.30737 3.701591 -2.362232e-18)
(18.06031 4.375041 4.534198e-18)
(17.73801 5.050044 2.474575e-18)
(17.35166 5.67284 0)
(16.90459 6.274776 0)
(16.42013 6.856471 4.230038e-18)
(15.89725 7.372908 4.042811e-18)
(15.31918 7.849449 0)
(14.70389 8.259937 -1.076929e-19)
(14.04515 8.627993 3.493179e-18)
(13.35565 8.944747 3.132105e-18)
(12.64388 9.192097 2.779199e-18)
(11.91718 9.388896 -7.516855e-20)
(11.18224 9.536045 -2.170643e-18)
(10.43291 9.613856 5.702216e-20)
(9.675724 9.618147 -5.756166e-20)
(8.9223 9.568876 -1.449567e-18)
(8.178381 9.471209 1.11195e-18)
(7.441535 9.316216 0)
(6.729525 9.086038 0)
(6.025753 8.810603 -4.107298e-19)
(5.360136 8.465055 -9.080112e-21)
(4.708019 8.070993 -8.732657e-21)
(4.106219 7.620808 -6.310207e-19)
(3.535271 7.127903 -1.815078e-18)
(2.988788 6.602446 1.095322e-18)
(2.494915 6.031393 -1.386346e-18)
(2.054432 5.419117 -7.936374e-19)
(1.669438 4.76993 -2.752631e-20)
(1.340008 4.093968 0)
(1.03378 3.418144 -1.064839e-18)
(0.8265322 2.712069 -3.576953e-20)
(0.6491275 1.993622 -6.262463e-19)
(0.5427997 1.276409 3.366541e-19)
(0.5345226 0.5210921 4.236023e-23)
(0.5521986 -0.2260109 -3.465649e-19)
(0.5858525 -1.004441 3.010406e-20)
(0.7034033 -1.743754 -6.414237e-19)
(0.8863184 -2.454114 1.189343e-18)
(1.125294 -3.146342 -1.161372e-18)
(1.422711 -3.815857 2.24817e-21)
(1.768988 -4.453968 9.902215e-19)
(2.182578 -5.059005 -1.665104e-18)
(2.616451 -5.643206 1.486648e-18)
(3.096421 -6.178576 1.189321e-18)
(3.639758 -6.665625 7.364842e-21)
(4.214548 -7.116169 7.794743e-21)
(4.806578 -7.51868 -4.924832e-19)
(5.435443 -7.874523 2.73889e-19)
(6.098493 -8.181034 4.993516e-21)
(6.770258 -8.42609 2.75644e-19)
(7.455199 -8.604396 -1.160572e-18)
(8.153263 -8.731282 8.415633e-19)
(8.865475 -8.790746 -4.813606e-20)
(9.576263 -8.794856 -1.406224e-18)
(10.27881 -8.752502 3.362203e-18)
(10.97495 -8.642692 6.395064e-20)
(11.64687 -8.473867 2.133697e-18)
(12.29796 -8.238772 -2.51434e-18)
(12.9316 -7.94657 7.823222e-20)
(13.53107 -7.616208 -2.888286e-18)
(14.09877 -7.223969 -2.971541e-18)
(14.62244 -6.790295 1.024691e-19)
(15.10228 -6.303989 -3.420379e-18)
(15.53744 -5.777524 3.536626e-18)
(15.91794 -5.225754 0)
(16.23422 -4.639 0)
(16.48248 -4.029185 1.898712e-18)
(16.66397 -3.40945 1.87061e-18)
(16.7664 -2.802177 0)
(16.77108 -2.223802 9.670348e-19)
(16.68584 -1.720444 8.615528e-19)
(16.54989 -1.342718 -4.294497e-19)