/*--------------------------------*- C++ -*----------------------------------*\
| =========                 |                                                 |
| \\      /  F ield         | OpenFOAM: The Open Source CFD Toolbox           |
|  \\    /   O peration     | Version:  2406                                  |
|   \\  /    A nd           | Website:  www.openfoam.com                      |
|    \\/     M anipulation  |                                                 |
\*---------------------------------------------------------------------------*/
FoamFile
{
    version     2.0;
    format      ascii;
    arch        "LSB;label=32;scalar=64";
    class       surfaceScalarField;
    location    "0.48";
    object      phi;
}
// * * * * * * * * * * * * * * * * * * * * * * * * * * * * * * * * * * * * * //

dimensions      [0 3 -1 0 0 0 0];

oriented        oriented;

internalField   nonuniform List<scalar> 
6741
(
4.29261e-10
9.119629e-10
-1.341224e-09
-1.244954e-09
-4.173755e-11
1.286691e-09
1.738039e-09
-1.767769e-09
2.973e-11
5.451925e-10
6.840606e-10
-1.229253e-09
1.538658e-09
-8.24833e-10
-7.138251e-10
1.992615e-09
-8.417099e-10
-1.150905e-09
-1.224586e-09
-1.931663e-10
1.417752e-09
-9.370834e-10
1.837005e-09
-8.999212e-10
3.500245e-11
2.104424e-09
-2.139426e-09
-1.532992e-09
3.624139e-10
1.170578e-09
-1.279487e-10
1.901123e-09
-1.773174e-09
1.370678e-09
-2.019506e-09
6.488281e-10
1.313716e-09
-1.871432e-09
5.577159e-10
1.862639e-09
-1.625472e-09
-2.371671e-10
-1.611059e-10
1.461935e-09
-1.300829e-09
3.485084e-09
-2.131905e-09
-1.353179e-09
-8.265134e-10
-6.302714e-10
1.456785e-09
1.294809e-09
-1.522004e-09
2.271953e-10
1.87896e-09
-1.750215e-09
6.822343e-10
-1.562067e-09
8.798326e-10
-2.362868e-09
1.244385e-09
1.118483e-09
3.968227e-10
-1.34124e-09
9.444172e-10
-1.736794e-09
1.480552e-09
2.562419e-10
3.691259e-10
1.543372e-09
-1.912498e-09
3.179707e-10
1.458123e-09
-1.776093e-09
1.665313e-09
-1.47014e-09
-1.95173e-10
1.81138e-09
-1.078491e-09
-7.328892e-10
-2.067492e-09
1.17987e-09
8.876219e-10
-1.190159e-09
1.320221e-09
-1.300621e-10
-4.962515e-09
6.967352e-10
4.265779e-09
-2.157046e-09
9.321451e-10
1.224901e-09
-1.572126e-09
1.193646e-09
3.784798e-10
1.715231e-09
-9.26569e-10
-7.886623e-10
2.850917e-09
-2.949797e-10
-2.555937e-09
4.24876e-09
1.996688e-09
-6.245447e-09
-1.311135e-09
1.600739e-09
-2.896038e-10
-1.513622e-09
-2.316417e-10
1.745264e-09
4.814048e-09
2.337139e-09
-7.151186e-09
1.771106e-09
-6.404168e-10
-1.130689e-09
-1.530125e-09
1.938215e-09
-4.080902e-10
1.425502e-09
7.713745e-10
-2.196876e-09
-8.751153e-10
-1.253265e-09
2.12838e-09
1.468647e-09
-2.414344e-10
-1.227212e-09
9.945094e-10
-1.502009e-09
5.074999e-10
-1.796221e-09
1.061178e-09
7.350429e-10
-1.225389e-09
4.468934e-10
7.784953e-10
-7.563193e-10
-1.060396e-09
1.816715e-09
-2.647726e-10
-1.538078e-09
1.802851e-09
-5.767119e-10
-1.39396e-09
1.970672e-09
6.360112e-10
1.195702e-09
-1.831714e-09
-1.501962e-09
1.60222e-09
-1.002583e-10
-1.280934e-09
4.363812e-10
8.445531e-10
1.39109e-09
-2.005112e-10
-1.190579e-09
1.939652e-09
-4.348067e-10
-1.504846e-09
-1.320085e-10
1.236114e-09
-1.104106e-09
4.399832e-10
1.343413e-09
-1.783396e-09
-1.619438e-09
1.431733e-09
1.877051e-10
-3.059633e-10
-1.586833e-09
1.892796e-09
-1.08473e-09
1.765502e-09
-6.807723e-10
5.577934e-10
-1.745229e-09
1.187436e-09
-7.688122e-10
-4.838116e-10
1.252624e-09
-1.494096e-09
1.162837e-09
3.312589e-10
-1.453702e-09
1.559568e-09
-1.058665e-10
3.600061e-10
1.470657e-09
-1.830663e-09
-2.39489e-09
1.152811e-09
1.242079e-09
1.549266e-09
-1.257507e-09
-2.91759e-10
-1.752233e-09
1.438309e-09
3.139239e-10
5.86936e-10
9.809471e-10
-1.567883e-09
6.792329e-09
-7.274701e-09
4.823716e-10
-2.018359e-09
4.388877e-10
1.579471e-09
5.5004e-10
-2.092372e-09
1.542332e-09
1.323036e-09
-1.588828e-09
2.657925e-10
1.515089e-09
-2.564506e-10
-1.258639e-09
1.382476e-09
-1.830407e-09
4.479311e-10
5.131466e-09
1.064512e-09
-6.195979e-09
-1.301282e-09
-4.081233e-11
1.342094e-09
2.229992e-09
-8.478001e-10
-1.382192e-09
1.60159e-09
-1.354083e-10
-1.466182e-09
-1.460419e-09
-3.362405e-10
1.796659e-09
1.931979e-09
-2.194006e-09
2.62027e-10
4.95325e-10
1.239461e-09
-1.734786e-09
1.031809e-09
-1.138622e-09
1.068127e-10
-7.86338e-10
-1.304171e-10
-1.553406e-09
-3.596422e-10
1.913048e-09
-1.60702e-09
1.174168e-09
4.32852e-10
-6.482932e-10
2.262058e-09
-1.613765e-09
9.299389e-10
-1.697395e-09
7.674565e-10
5.127417e-10
2.555307e-09
-3.068049e-09
-6.597568e-10
-1.094216e-09
1.753973e-09
8.027977e-10
-1.514256e-09
7.114579e-10
1.778699e-10
-1.446296e-09
1.268426e-09
1.262111e-09
3.313566e-10
-1.593468e-09
-3.059331e-10
2.006379e-09
-1.700445e-09
3.255437e-11
-1.79349e-09
1.760936e-09
-9.307761e-10
1.590928e-09
-6.601517e-10
-3.393824e-11
-2.924467e-09
2.958405e-09
8.382273e-10
-1.956204e-09
1.117976e-09
-1.06102e-10
1.228482e-09
-1.12238e-09
-1.20165e-09
-2.373823e-11
-6.416298e-09
4.129948e-09
2.286351e-09
1.160345e-09
-6.151523e-10
1.468304e-09
-1.865391e-09
3.970872e-10
-3.127927e-09
-6.740949e-11
3.195336e-09
-2.357311e-09
-3.084088e-09
5.441399e-09
4.018412e-10
-1.955247e-09
1.967018e-10
1.432728e-09
-1.62943e-09
-1.9913e-09
1.390134e-09
6.011664e-10
-2.231288e-09
6.806406e-10
-4.273328e-10
2.058268e-09
-1.630935e-09
1.176084e-09
-1.620234e-09
4.441499e-10
9.982527e-10
-7.618725e-10
-2.363802e-10
-1.956104e-09
1.12959e-09
-7.653772e-10
-7.153845e-10
1.480762e-09
-1.080136e-09
1.622383e-09
-5.42247e-10
1.108593e-09
8.797112e-12
-1.11739e-09
1.845269e-09
-3.301796e-10
-1.429424e-09
1.365745e-10
1.29285e-09
-1.951865e-09
9.567215e-10
9.951437e-10
-1.605839e-09
-5.84975e-11
1.664337e-09
-2.516476e-09
2.633686e-09
-1.172098e-10
-1.070519e-09
-1.353092e-10
1.205828e-09
3.406199e-09
1.014702e-09
-4.420901e-09
1.797015e-09
-1.440977e-09
-3.560388e-10
-1.133144e-09
-6.630772e-10
1.045038e-09
-1.445323e-09
4.002849e-10
-1.004946e-09
-6.74398e-10
1.679344e-09
3.030624e-09
-3.18525e-09
1.54626e-10
-3.131708e-09
4.995215e-10
2.632186e-09
-1.773245e-09
1.675188e-09
9.805651e-11
2.135574e-09
-3.740578e-10
-1.761516e-09
-7.032907e-11
-1.145247e-09
1.215576e-09
-1.470035e-09
-5.941493e-10
2.064184e-09
4.460315e-10
1.077402e-09
-1.523434e-09
2.465161e-09
-2.205203e-09
-2.599587e-10
-1.552868e-09
8.733138e-10
6.795544e-10
1.571312e-09
-2.394459e-09
8.231468e-10
-1.792986e-09
1.374695e-09
4.18291e-10
-1.629612e-09
1.302618e-09
3.269945e-10
-8.701453e-10
-1.197347e-09
5.589347e-11
-2.763748e-09
2.707855e-09
3.510959e-09
-5.86827e-09
4.936792e-11
-1.783602e-09
1.734234e-09
9.854441e-10
-1.66772e-09
6.822763e-10
-1.129539e-09
-4.03453e-10
-1.222639e-09
2.339996e-09
-1.117357e-09
-1.782165e-09
2.339958e-09
-6.48267e-10
-1.052946e-09
1.701213e-09
1.187189e-09
-1.148058e-09
-3.91305e-11
-1.381607e-09
1.275505e-09
-7.473574e-10
-4.797279e-10
1.227085e-09
1.223589e-09
-1.044064e-09
-1.795254e-10
-2.681593e-09
1.167971e-09
-2.00599e-09
-1.278873e-10
2.133878e-09
4.225014e-09
-1.207862e-09
-3.017152e-09
1.035692e-09
8.098135e-10
-1.845505e-09
-3.089787e-11
-1.006986e-09
1.037884e-09
1.953947e-09
-1.209767e-09
-7.441799e-10
1.507209e-09
-9.426208e-11
-1.412947e-09
5.281526e-10
-1.962452e-09
1.4343e-09
1.769817e-09
-2.514662e-09
7.448454e-10
2.181069e-09
-1.831202e-09
-3.498672e-10
-1.929012e-09
6.743059e-09
1.998355e-09
-1.53086e-10
-7.653471e-10
1.545813e-09
-7.804654e-10
9.701182e-10
-1.140184e-09
-3.223222e-09
2.470808e-10
2.976142e-09
3.064422e-10
1.34735e-09
-1.653792e-09
1.569288e-09
5.636218e-10
-2.132909e-09
1.189707e-09
3.789809e-10
-1.568688e-09
8.651297e-10
6.047078e-10
-1.469838e-09
-1.941637e-09
5.815531e-10
1.360084e-09
3.029023e-09
-2.047266e-09
-9.817568e-10
7.730427e-09
-3.481667e-09
-8.694924e-10
6.464476e-10
1.514644e-09
-2.161092e-09
-4.23178e-10
-8.783728e-10
1.301551e-09
-1.90731e-09
1.674086e-09
2.332233e-10
-8.449918e-10
1.868051e-09
-1.023059e-09
-1.082375e-09
1.367684e-09
-2.853092e-10
-7.17584e-10
-1.267852e-09
1.985436e-09
-3.252552e-10
-1.350698e-09
1.675953e-09
2.058293e-09
-5.61027e-10
-1.497266e-09
-5.144216e-10
-8.143514e-10
1.328773e-09
-3.446234e-09
3.255451e-09
1.907823e-10
-1.006858e-09
1.876645e-09
-8.697871e-10
-2.542504e-10
-7.050657e-10
9.593161e-10
1.202597e-09
5.944188e-10
1.774498e-09
-1.12805e-09
-3.338723e-10
-1.069996e-09
1.403868e-09
1.670554e-09
-7.40615e-10
3.35048e-10
-1.805083e-09
-6.681169e-12
-1.183478e-09
7.139616e-10
-2.428083e-09
1.714121e-09
-1.474432e-09
-4.340247e-10
-1.260997e-09
-5.902041e-10
1.851201e-09
-1.608025e-09
5.326337e-10
1.075392e-09
-5.060966e-10
1.234065e-09
-7.27968e-10
-1.569927e-09
1.00044e-09
5.694877e-10
-1.125155e-09
-4.377048e-10
1.56286e-09
5.3206e-10
-2.012863e-09
1.480803e-09
8.522475e-10
5.791571e-10
-1.431405e-09
2.073862e-10
-1.701482e-09
1.726331e-09
-5.415073e-10
-1.184824e-09
-1.006939e-09
1.915195e-09
-9.08256e-10
5.126075e-09
-2.185005e-09
-2.94107e-09
-1.903338e-09
1.607654e-09
2.956834e-10
-7.752404e-10
1.573628e-09
-7.983875e-10
1.583503e-09
-1.952397e-09
3.688942e-10
1.673579e-09
-2.941965e-10
-1.379383e-09
-3.894159e-10
1.152531e-09
-7.631152e-10
-1.237552e-09
1.579439e-09
-3.418867e-10
-5.072161e-09
7.739493e-09
-2.667332e-09
1.461094e-13
1.761177e-09
-1.761323e-09
4.836852e-10
-1.479211e-09
9.955258e-10
1.048273e-09
7.560846e-10
-1.804358e-09
-8.552946e-10
-1.360278e-09
2.215572e-09
1.47228e-10
-1.60093e-09
2.225781e-09
-5.997143e-11
-2.165809e-09
-1.441237e-10
-1.461716e-09
1.156414e-09
4.9392e-10
-1.650334e-09
-1.760572e-09
1.626924e-09
1.336472e-10
-1.820455e-09
-5.299568e-10
2.350411e-09
-1.260181e-10
1.934708e-09
-1.80869e-09
2.186144e-09
-4.648868e-10
-1.721257e-09
-1.521383e-09
1.558335e-09
-3.695166e-11
-1.674438e-09
6.483558e-10
1.026082e-09
2.147538e-09
-5.807959e-10
-1.566742e-09
-1.077527e-09
-3.965636e-10
1.474091e-09
-1.43209e-09
-1.754648e-10
1.607555e-09
3.645417e-10
-1.42624e-09
1.061698e-09
1.582597e-09
-1.513815e-09
-6.878133e-11
1.309348e-10
1.428633e-09
2.094324e-09
-2.627581e-09
5.332577e-10
9.811393e-10
-1.706474e-09
7.253351e-10
1.780273e-09
-1.916964e-09
1.366912e-10
-7.776086e-10
1.747026e-09
-9.694171e-10
1.405234e-09
-6.923755e-10
-7.128583e-10
-1.307028e-09
1.550082e-09
-2.430534e-10
1.134529e-09
-5.785518e-11
-1.076674e-09
6.226318e-10
1.76137e-09
-2.384002e-09
1.285401e-09
-1.678788e-09
3.933869e-10
6.310959e-11
-1.387281e-09
1.324171e-09
3.388001e-09
-2.748602e-09
-6.39399e-10
1.380355e-09
2.204342e-11
-1.402398e-09
8.709875e-10
6.676706e-10
1.942338e-09
-9.813608e-09
7.871269e-09
-8.49274e-10
-2.45467e-09
3.303944e-09
2.994795e-10
-8.282456e-09
7.982977e-09
1.768994e-09
-1.72008e-09
-4.891414e-11
4.991986e-10
5.868488e-09
-6.367686e-09
2.093641e-09
-2.114181e-09
2.053958e-11
-1.520223e-09
-6.454819e-11
1.584771e-09
7.668847e-10
-1.245083e-09
4.78198e-10
1.047817e-09
-3.629457e-10
-6.848709e-10
-1.374187e-09
1.437296e-09
1.378254e-09
-5.607127e-10
-8.175408e-10
1.267029e-09
4.600344e-10
-1.727063e-09
-9.021247e-10
1.754372e-09
1.597662e-09
-8.870682e-10
-7.105936e-10
1.637786e-09
-7.020592e-10
-9.357263e-10
1.953746e-09
-1.111402e-09
-8.423437e-10
1.493846e-09
-1.035267e-09
-4.585791e-10
1.442175e-09
-1.410708e-09
-3.146699e-11
1.93343e-10
-1.221032e-09
1.027689e-09
7.679042e-10
2.303484e-10
-1.53915e-10
-1.582879e-09
-4.612359e-10
-8.092862e-09
8.554098e-09
-1.591948e-09
2.279785e-09
-6.878371e-10
1.610898e-09
-1.301337e-09
-3.095602e-10
1.119315e-09
4.983848e-10
-1.6177e-09
2.00043e-09
-2.623916e-10
-3.220926e-10
-2.004145e-09
2.326238e-09
7.189919e-10
6.137757e-10
-1.332768e-09
6.798125e-10
1.193078e-09
-1.872891e-09
-1.501195e-09
-1.19875e-10
1.62107e-09
-9.781046e-10
9.452894e-09
-8.474789e-09
-9.371255e-11
1.720214e-09
-1.626501e-09
-2.934954e-09
2.202564e-09
7.323895e-10
-8.65136e-10
2.012448e-09
-1.147312e-09
1.492161e-09
-9.204249e-10
-5.717365e-10
1.24211e-09
-1.515491e-09
2.733808e-10
1.384736e-09
-1.199604e-09
-1.851318e-10
-1.423337e-09
6.521106e-10
7.712268e-10
-1.922072e-09
-1.450621e-09
3.372693e-09
1.374187e-09
1.042708e-10
-1.478458e-09
-1.507355e-09
-2.532167e-10
6.588564e-10
-2.0118e-09
1.352944e-09
8.980198e-10
5.849598e-11
-9.565158e-10
3.901455e-09
-2.784313e-09
-1.117142e-09
-3.491074e-10
1.668441e-09
-1.319333e-09
-9.082112e-10
2.06857e-09
-1.160359e-09
2.128644e-09
-3.773119e-10
1.582544e-09
-1.205232e-09
1.938455e-10
-1.262721e-09
1.068876e-09
1.834865e-09
-2.478158e-10
-1.587049e-09
1.310859e-09
5.653495e-10
-1.876208e-09
1.027629e-09
5.21637e-10
-8.483293e-10
1.833773e-09
8.267655e-11
1.770365e-09
-1.853041e-09
1.877885e-09
-6.98015e-10
-4.027544e-10
-1.678585e-09
2.08134e-09
4.688188e-10
-1.802623e-09
1.333805e-09
-2.357035e-09
5.957087e-10
1.761326e-09
-4.261585e-10
1.67715e-09
-1.250991e-09
-9.629764e-10
1.143677e-09
-1.807006e-10
1.406167e-10
1.067063e-09
-1.20768e-09
-1.28473e-09
6.957048e-10
5.890251e-10
2.253319e-09
-4.454122e-09
2.200803e-09
-1.57362e-09
1.722537e-09
-1.489167e-10
4.341242e-10
-1.613575e-09
1.179451e-09
-1.016937e-09
1.90778e-09
-8.908428e-10
-4.816561e-10
-1.139331e-09
1.620987e-09
6.007293e-10
-1.706971e-09
1.106241e-09
-1.915907e-09
1.341976e-09
5.73931e-10
1.996461e-09
-1.0768e-09
-9.196609e-10
-4.731238e-10
-9.066473e-10
1.379771e-09
-5.279339e-11
-1.413536e-09
1.46633e-09
-1.679246e-09
-1.284843e-09
2.96409e-09
5.78434e-10
-1.50921e-09
1.150527e-09
8.208756e-10
-1.971402e-09
-2.469383e-09
-6.292515e-10
3.098635e-09
9.163247e-10
5.775209e-10
-6.479703e-10
-7.729827e-10
1.420953e-09
-9.064254e-10
-8.872671e-10
1.793692e-09
1.062653e-09
7.50955e-10
-1.813608e-09
-1.069183e-09
-4.699409e-10
-1.320964e-09
1.790905e-09
-1.152152e-09
1.803652e-09
-6.514998e-10
-1.573921e-09
7.037758e-10
-3.719682e-10
2.336454e-09
-1.964485e-09
1.691402e-09
-9.991057e-10
-6.922966e-10
2.39978e-09
-5.612859e-10
-1.838495e-09
1.132989e-10
-1.566854e-09
1.453555e-09
1.045811e-09
-2.079288e-09
1.033477e-09
9.037755e-10
5.308614e-10
-1.434637e-09
5.151994e-10
-2.141696e-09
1.626497e-09
-1.483272e-09
1.752608e-09
-2.693363e-10
1.556969e-09
-3.334659e-10
-1.223503e-09
1.345797e-09
-1.116668e-09
-2.291287e-10
1.231754e-09
9.708552e-11
-1.32884e-09
-1.178326e-09
-5.192807e-10
1.697606e-09
-1.048861e-09
-4.903969e-10
1.539257e-09
-1.574026e-09
-7.830087e-10
6.70689e-10
-1.938004e-09
1.267315e-09
2.523715e-10
-1.78425e-09
1.531879e-09
-1.500979e-09
5.235154e-10
9.774635e-10
8.05518e-10
-1.65051e-09
2.312647e-09
-2.117488e-09
-1.951583e-10
-2.18984e-10
-1.397303e-09
1.616287e-09
1.827337e-09
-1.548425e-09
-2.789119e-10
-3.329321e-10
-1.477645e-09
1.810577e-09
-2.249411e-10
-3.168262e-09
3.393203e-09
2.038784e-09
-1.324822e-09
-1.305397e-09
3.953812e-09
-2.648415e-09
-4.313663e-09
1.039955e-09
3.273708e-09
-1.720483e-09
1.28208e-09
4.38403e-10
-1.49335e-09
1.191955e-09
3.013957e-10
9.711207e-10
-1.477217e-09
1.592364e-09
-2.012741e-10
7.315899e-10
9.964409e-10
-1.728031e-09
-1.713674e-09
1.364566e-09
1.088066e-09
-2.310705e-09
1.246487e-09
-7.419471e-10
-5.045396e-10
7.090714e-10
-1.11287e-09
4.037989e-10
-2.193043e-09
1.406115e-09
7.869278e-10
-2.98446e-10
1.078638e-09
-7.80192e-10
-2.151202e-09
5.592534e-10
-4.042722e-11
1.389004e-09
-1.348577e-09
6.72569e-09
-4.783352e-09
-5.408354e-09
-8.06034e-10
6.214388e-09
1.059095e-09
-8.372445e-10
-2.218505e-10
-5.764706e-11
1.16624e-09
-1.792337e-09
2.229543e-09
-4.372059e-10
8.684701e-10
6.552426e-10
-1.523713e-09
-3.008798e-09
1.755115e-09
1.253683e-09
3.020392e-10
-1.806087e-09
1.504048e-09
6.901624e-10
8.378516e-10
-1.528014e-09
-1.619145e-09
1.053965e-10
1.513749e-09
-1.312735e-10
-1.443804e-09
1.575077e-09
9.858136e-11
-1.710606e-09
1.612025e-09
1.754142e-09
-1.320018e-09
3.833291e-11
-1.545439e-09
1.507106e-09
9.681606e-10
-2.23861e-09
1.27045e-09
4.62263e-10
-1.569297e-09
1.107034e-09
-9.408213e-10
2.000047e-09
-1.059226e-09
-1.911605e-09
3.59276e-11
1.875677e-09
1.919568e-09
2.615012e-10
1.254107e-09
1.158287e-10
-1.369936e-09
1.314986e-09
-6.085041e-10
-7.06482e-10
-7.997713e-10
-4.595704e-10
1.259342e-09
1.233777e-09
-1.972196e-09
7.384192e-10
1.798293e-11
2.904579e-09
-2.922562e-09
1.940889e-09
-4.207763e-10
-1.520112e-09
1.200172e-09
-2.070789e-09
8.706167e-10
1.588364e-09
4.981537e-10
-2.086518e-09
2.088399e-09
-1.303317e-09
-7.850822e-10
1.270034e-09
3.0943e-10
-1.579464e-09
-6.202003e-10
1.781204e-09
-1.161003e-09
-1.392522e-09
9.536841e-10
4.388382e-10
-8.182231e-10
1.879401e-09
2.067649e-09
-1.031957e-09
-1.489679e-09
9.923101e-10
4.973692e-10
-8.352745e-11
-1.224187e-09
1.307715e-09
-1.4063e-09
1.293568e-09
1.127324e-10
7.090307e-10
-2.153166e-09
1.444135e-09
-2.484489e-11
1.695638e-09
-1.670793e-09
1.284525e-09
-1.158755e-09
-1.2577e-10
1.519958e-10
2.034148e-09
1.961137e-09
-1.482252e-09
-4.788847e-10
-2.858914e-09
4.634569e-09
-1.775655e-09
-5.22809e-10
-1.588579e-09
2.111388e-09
2.345265e-09
-1.102429e-09
-1.242836e-09
9.87354e-10
-1.674954e-09
6.876001e-10
1.805678e-09
-9.404337e-10
-8.652444e-10
-1.895175e-09
2.085581e-09
-1.904056e-10
-9.721316e-10
1.563909e-09
4.813887e-10
-2.045298e-09
1.167836e-09
6.750738e-10
-1.842909e-09
-1.467056e-09
1.604734e-09
-1.376775e-10
7.102036e-10
-1.020666e-09
3.10462e-10
-1.829735e-09
2.967935e-10
1.532942e-09
7.464949e-10
-1.868782e-09
1.122287e-09
4.231344e-09
-1.833607e-09
-2.397737e-09
-1.682674e-09
2.008336e-09
-3.256619e-10
2.070501e-09
-1.639947e-09
-4.305535e-10
-7.857748e-11
1.389436e-09
2.14403e-09
-1.648705e-09
1.804285e-09
-3.376078e-10
-1.466677e-09
2.013278e-09
-1.368575e-09
-6.447031e-10
3.782165e-11
1.649486e-09
-1.687308e-09
3.888479e-10
1.461286e-09
-1.850133e-09
1.408529e-09
-9.28075e-10
-4.80454e-10
-2.575785e-09
-2.38673e-09
-3.555296e-10
1.391166e-09
-1.035636e-09
-2.563492e-10
-1.803462e-09
2.059811e-09
-2.140061e-09
1.340704e-10
4.286794e-10
-1.918471e-09
1.489791e-09
-1.017368e-09
-5.259826e-10
1.543351e-09
-1.185371e-09
1.347937e-09
-1.625662e-10
1.830716e-09
-1.539322e-09
-2.91394e-10
1.408689e-09
-1.839103e-09
4.304142e-10
1.431922e-09
-1.034106e-09
-3.978163e-10
-1.536219e-09
1.50534e-09
3.087874e-11
8.010674e-10
-2.384488e-09
1.58342e-09
1.648424e-09
-1.699783e-09
5.135933e-11
-8.94266e-10
1.504478e-09
-6.102116e-10
-1.369345e-09
1.676946e-10
1.550036e-09
-5.2197e-10
-1.028066e-09
5.244076e-11
1.312595e-09
-1.365036e-09
-2.665432e-09
1.145198e-09
1.520234e-09
-2.634222e-10
1.565075e-09
-1.301653e-09
-5.553891e-10
-1.201492e-09
2.771236e-09
-1.569745e-09
-2.534355e-10
-1.026467e-09
1.279903e-09
1.998824e-09
-6.353019e-10
-1.363522e-09
1.188947e-09
-8.708416e-10
-3.18105e-10
-1.796613e-09
1.261809e-09
5.348042e-10
2.655377e-10
-2.413916e-09
2.148379e-09
-4.005488e-09
2.319049e-09
1.686439e-09
-4.831145e-09
1.51971e-09
3.311436e-09
3.002055e-09
-3.851329e-09
1.204323e-09
-2.094632e-09
8.903091e-10
-5.921921e-10
1.796515e-09
1.888157e-09
-8.915127e-10
-9.966441e-10
-2.188113e-09
1.332818e-09
1.34008e-09
-8.106947e-10
-5.293852e-10
8.584043e-10
-2.450317e-09
1.591913e-09
1.65127e-09
-1.291264e-09
-1.518513e-09
1.645196e-09
1.536604e-09
-9.442842e-11
-1.583178e-09
1.727972e-09
-1.447934e-10
-1.193766e-09
-4.256714e-10
4.152233e-10
-1.511535e-09
1.096312e-09
-1.798388e-09
1.421286e-09
3.771014e-10
2.085946e-09
-3.411105e-10
-1.744836e-09
-1.904879e-09
6.433883e-10
1.261491e-09
1.326679e-09
-5.950889e-10
1.340155e-09
4.143632e-10
-1.754519e-09
1.854913e-09
3.277095e-11
-1.887684e-09
-4.000276e-09
9.242335e-10
3.076043e-09
-1.298564e-09
-2.753508e-10
1.573915e-09
-6.452121e-09
1.726707e-09
4.725415e-09
-1.917764e-09
-2.260572e-10
2.143821e-09
3.145573e-10
-1.800841e-09
1.486284e-09
3.393136e-09
9.194787e-11
-2.418165e-09
1.731067e-09
6.870973e-10
1.196761e-09
-5.96926e-10
-5.998348e-10
-4.828319e-11
-1.896328e-09
1.944612e-09
1.430344e-09
3.790318e-10
-1.809376e-09
-1.673817e-09
1.127297e-09
5.465204e-10
1.33963e-10
-1.384505e-09
1.250542e-09
-2.007342e-09
6.677596e-10
1.339582e-09
4.396208e-10
-4.753284e-09
1.409823e-09
-1.008476e-09
-4.013477e-10
9.396674e-10
5.082997e-10
-1.447967e-09
9.049545e-10
-1.87555e-09
5.995921e-10
1.275957e-09
-4.543927e-09
6.474237e-10
3.896503e-09
1.553516e-09
2.146496e-10
-1.768166e-09
-2.000389e-10
1.740438e-09
-1.540399e-09
-8.061783e-10
1.203001e-09
6.913694e-10
1.177457e-09
-1.868827e-09
8.220041e-10
-1.605217e-09
7.83213e-10
-1.646876e-09
7.09793e-10
-1.879712e-09
1.050196e-09
8.29516e-10
-1.306705e-09
1.041932e-09
-8.968866e-10
9.296719e-10
-3.278537e-11
-1.234292e-09
2.034438e-09
-8.00146e-10
1.071587e-09
1.268409e-09
2.229367e-09
1.072821e-09
-3.302188e-09
-5.660944e-10
-1.504801e-09
2.070895e-09
-1.922444e-09
1.763841e-09
1.586027e-10
-6.215371e-10
-1.046183e-09
-7.891599e-10
3.152124e-09
-2.362964e-09
1.472504e-09
-2.33043e-10
1.268379e-09
-1.74835e-09
4.799714e-10
-8.907187e-10
1.710203e-09
-8.194848e-10
7.581265e-10
-1.945407e-09
1.187281e-09
-3.014035e-09
1.734587e-09
1.279448e-09
-1.980573e-10
-1.007629e-09
1.205687e-09
-9.546484e-11
1.1803e-09
-1.084835e-09
-4.772682e-09
1.042689e-09
-2.032092e-09
9.894026e-10
-9.347445e-10
1.695006e-09
-7.60262e-10
-1.092583e-11
1.432702e-09
-1.421777e-09
9.317544e-10
6.659073e-10
-1.760612e-09
9.628685e-10
7.977437e-10
1.646025e-09
-2.593648e-10
-1.38666e-09
6.12077e-10
5.461123e-10
-1.158189e-09
1.777715e-09
-6.910348e-10
-1.086681e-09
2.284421e-09
7.836434e-10
-3.068065e-09
1.763562e-09
-2.949158e-10
9.372265e-10
-2.281551e-10
-1.154336e-09
3.855235e-10
1.92342e-10
1.701009e-09
-1.893351e-09
-9.276533e-10
-8.106326e-10
1.738286e-09
1.053786e-09
-1.502296e-09
4.485094e-10
-8.430616e-10
1.699902e-09
-8.568406e-10
6.570778e-10
-1.372633e-09
7.155555e-10
2.748674e-10
1.184561e-09
-1.459428e-09
-1.544191e-09
7.499083e-10
7.942825e-10
9.18818e-10
-1.771504e-09
8.526863e-10
1.705996e-09
-5.462913e-10
-1.159704e-09
-8.312118e-10
1.818323e-09
-9.87111e-10
-1.317934e-09
2.234259e-09
-1.113318e-09
1.405405e-09
-2.920875e-10
-3.372608e-09
9.032249e-10
-1.524705e-09
1.317905e-09
2.068001e-10
-7.702769e-10
-1.511382e-09
2.281659e-09
1.056611e-09
-1.114258e-09
6.802276e-10
-1.600528e-09
9.203001e-10
1.246625e-09
7.143345e-10
-1.96096e-09
-7.855431e-10
-1.049689e-09
1.835232e-09
2.023418e-09
-6.527402e-10
-2.332718e-09
7.258439e-10
1.606874e-09
1.832267e-09
2.495603e-10
-2.081827e-09
1.935783e-09
-3.115605e-09
1.179822e-09
-3.074969e-10
-1.412115e-09
1.719612e-09
-1.083199e-09
-7.364557e-10
1.819655e-09
-7.882197e-10
-1.078901e-09
1.867121e-09
-2.019095e-09
6.127952e-10
-1.218537e-09
1.664569e-09
1.428229e-09
-8.161516e-10
6.663859e-10
-2.486841e-09
4.150915e-10
-1.291989e-09
9.009142e-10
3.910745e-10
-2.726448e-09
3.864798e-09
-1.138349e-09
4.782029e-10
1.46145e-09
1.628829e-09
-1.671885e-09
4.305576e-11
1.274864e-09
-2.500207e-10
-1.024843e-09
9.28125e-10
9.697863e-10
-1.897911e-09
1.372828e-09
3.961659e-10
1.890902e-09
-1.210674e-09
1.254096e-09
-1.294862e-09
4.076614e-11
1.390722e-09
-1.108662e-09
-2.8206e-10
1.687081e-09
-9.215812e-10
-7.654997e-10
1.155538e-09
3.841582e-11
-1.193953e-09
3.061688e-11
1.696145e-09
-1.726762e-09
9.144866e-10
-2.031843e-09
1.101054e-09
-8.313646e-10
1.356545e-09
-5.251805e-10
2.026597e-09
-1.388993e-09
-6.376039e-10
-1.512883e-09
1.564971e-09
-5.208811e-11
3.118953e-09
-5.909137e-09
2.790184e-09
-4.154539e-09
4.185273e-09
-3.073372e-11
1.297064e-09
-1.258731e-09
-1.007473e-09
-8.761841e-10
1.883657e-09
1.91218e-09
-1.261143e-09
-6.510366e-10
2.04626e-09
-3.560956e-10
-1.690164e-09
-6.888076e-10
-1.037615e-09
1.726423e-09
-1.579381e-09
-1.938641e-10
-1.002932e-10
-1.334277e-09
1.43457e-09
1.148921e-09
1.896722e-09
-3.045643e-09
4.915187e-10
-1.279783e-09
7.882647e-10
-6.980377e-10
-6.230568e-10
1.321094e-09
-9.612434e-10
-3.547986e-10
1.316042e-09
1.747028e-09
4.005101e-10
1.027627e-09
3.914189e-12
-1.031541e-09
1.618679e-09
-1.742856e-09
1.241773e-10
-9.399926e-10
1.180669e-09
-2.406767e-10
-1.318631e-09
4.165058e-10
-1.078046e-09
8.294418e-10
2.486045e-10
2.206864e-09
-7.789909e-10
-1.427873e-09
-1.994758e-09
1.078294e-09
9.164639e-10
-1.380218e-09
1.388214e-09
-7.995752e-12
-6.681507e-10
1.730804e-09
-1.012092e-09
1.599941e-09
-5.878491e-10
2.442005e-10
1.546503e-09
-1.790703e-09
-7.860106e-10
-7.586699e-10
1.544681e-09
-1.480254e-09
-2.63126e-10
1.74338e-09
-1.254734e-09
3.014793e-11
-1.83471e-09
4.558977e-10
1.378812e-09
5.560838e-11
-2.13621e-09
2.080602e-09
1.703968e-09
3.348161e-10
-1.230762e-09
2.441784e-10
9.865837e-10
-3.603261e-09
2.659583e-09
9.436781e-10
-1.150571e-09
1.64209e-09
1.073609e-10
-4.107637e-09
-1.61721e-09
-3.901322e-10
8.278329e-09
-8.278329e-09
1.644268e-09
-1.447566e-09
-1.795979e-09
6.158219e-10
1.180157e-09
1.142155e-09
7.613833e-10
-1.903538e-09
-1.463582e-09
4.869781e-09
1.164493e-09
6.887315e-09
-8.051807e-09
-1.178884e-09
1.855382e-09
-6.764975e-10
6.821992e-10
-1.802069e-09
1.11987e-09
1.032634e-09
-2.657497e-10
1.02571e-09
-1.471584e-09
4.458739e-10
9.726615e-10
-1.989598e-09
2.022756e-09
-4.406989e-10
-1.582057e-09
1.308078e-09
9.137459e-10
-2.221824e-09
2.04767e-09
-2.778528e-10
9.307264e-10
1.023019e-09
4.053146e-10
1.365791e-09
-1.862155e-09
1.846075e-09
-1.747493e-09
1.876397e-09
2.426319e-10
-2.119029e-09
1.453957e-09
1.40499e-10
-1.594456e-09
-1.190995e-09
1.669198e-09
-5.889523e-10
-4.592117e-09
5.181069e-09
-1.770658e-10
-1.343915e-09
1.520981e-09
8.662114e-10
-9.616762e-10
1.561138e-09
-1.59647e-09
5.791016e-10
2.799489e-09
1.40837e-10
-2.940326e-09
1.222044e-09
-8.937897e-10
-3.282539e-10
5.958678e-10
1.02519e-09
-1.621058e-09
1.273579e-10
1.302986e-09
1.384967e-09
-1.978216e-09
5.932482e-10
-1.890945e-10
-2.537354e-09
2.80937e-10
-1.434398e-09
1.153461e-09
-1.216412e-09
1.226576e-09
-1.085959e-09
-1.038512e-09
1.041627e-09
-3.11581e-12
1.909143e-09
4.163932e-10
-2.325536e-09
4.551637e-11
1.758768e-09
1.347024e-09
-1.316407e-09
4.034342e-10
-1.603635e-09
1.200201e-09
3.848483e-11
-1.357115e-09
2.2059e-10
1.153597e-09
-1.716624e-09
2.871997e-10
-1.767857e-09
1.409557e-09
3.582996e-10
-2.070868e-09
2.566785e-10
1.81419e-09
-2.185947e-10
-1.435813e-09
1.654408e-09
1.325716e-09
5.406266e-10
-1.866343e-09
2.271262e-10
-1.266211e-09
1.039085e-09
2.36854e-09
1.743295e-09
1.356649e-10
-1.262246e-09
1.819494e-10
1.080297e-09
-1.121663e-09
-1.813956e-09
2.93562e-09
5.324484e-10
1.555832e-09
-2.088281e-09
-2.182679e-09
3.514772e-10
5.062613e-10
-2.357079e-09
1.850818e-09
-6.006693e-10
-2.396366e-11
-1.417013e-09
1.780935e-09
-2.468531e-10
-1.534082e-09
8.063016e-10
-1.537587e-09
7.312856e-10
-4.605735e-09
4.6659e-09
-6.016475e-11
-1.605617e-09
1.326671e-09
3.760149e-09
-4.263873e-09
5.037246e-10
6.407769e-09
1.895111e-09
6.493375e-10
1.243239e-09
-1.892577e-09
1.706338e-09
-2.67847e-09
1.39292e-09
-1.742254e-09
3.493343e-10
9.426527e-10
3.974272e-10
6.987266e-10
8.231406e-10
-1.521867e-09
-1.790588e-09
2.489314e-09
-1.364652e-09
1.003754e-09
3.608984e-10
-1.028541e-11
1.59039e-09
-1.580104e-09
1.781976e-09
-1.875688e-09
9.96563e-10
3.816905e-10
8.5424e-11
1.805416e-09
-1.89084e-09
4.376548e-10
1.367016e-09
-1.731839e-09
3.648229e-10
1.545966e-09
-2.194259e-09
1.093097e-10
9.473011e-10
-1.788944e-09
2.040572e-09
-2.516284e-10
6.335322e-10
1.474178e-09
-2.10771e-09
-1.176068e-09
-4.677888e-10
1.643857e-09
7.057594e-10
-3.581854e-10
-7.396241e-10
1.097809e-09
-6.407768e-11
1.617594e-09
3.593133e-10
-1.800045e-09
1.440732e-09
9.53088e-10
4.567354e-10
-1.175789e-09
-3.194183e-10
1.495207e-09
-1.310446e-10
1.55217e-09
-1.421125e-09
5.192719e-10
1.223642e-09
-1.742914e-09
-8.160077e-10
-7.896096e-10
-3.037648e-10
-2.62799e-09
-2.8445e-10
1.838067e-09
5.284758e-10
-1.187033e-09
6.585572e-10
-8.870655e-11
1.707463e-09
-1.618757e-09
7.37404e-10
-1.401526e-09
6.641222e-10
-2.214374e-09
6.514754e-10
1.562898e-09
-2.822893e-10
1.949038e-09
-1.666749e-09
1.122739e-09
1.553722e-10
-1.278112e-09
1.103081e-09
8.293041e-10
-1.932385e-09
-4.914536e-10
-1.233045e-09
1.724499e-09
1.18868e-09
-1.877488e-09
-1.268569e-09
-2.667393e-10
1.535308e-09
1.063855e-09
-1.928991e-09
-1.43144e-09
1.350567e-09
8.087326e-11
-1.509933e-09
-2.006731e-10
-1.579591e-09
1.777351e-09
-1.977599e-10
8.436481e-10
-1.75799e-09
9.143417e-10
-2.004515e-09
5.203248e-10
1.484191e-09
-8.057338e-11
1.011531e-09
-9.30958e-10
-8.422886e-10
8.43856e-09
-7.596271e-09
-1.090918e-09
1.28326e-09
-2.033009e-09
8.529748e-10
1.180035e-09
1.40506e-09
4.6568e-09
-4.463144e-10
-4.210486e-09
1.407662e-09
-1.984374e-09
3.080818e-09
-4.5444e-09
7.355612e-10
5.911176e-10
1.524665e-09
-1.932624e-09
6.577385e-10
1.274885e-09
8.901243e-09
-8.901243e-09
1.173908e-09
-1.209987e-09
3.607971e-11
4.629639e-11
-2.160477e-09
-1.498239e-10
-1.694347e-09
1.844171e-09
-1.383128e-09
1.305035e-09
7.809295e-11
2.631142e-10
1.264972e-09
-1.528086e-09
1.252672e-09
1.532806e-10
-1.405952e-09
-5.322546e-10
2.148405e-09
-1.61615e-09
-2.763757e-10
-1.135928e-09
1.412304e-09
-3.817684e-10
-1.493781e-09
1.974868e-09
-4.943161e-10
-1.316736e-09
1.16772e-09
1.49016e-10
-6.15216e-10
1.801138e-09
-1.185922e-09
-4.532647e-10
2.022552e-09
-2.227796e-10
-1.658723e-09
1.881502e-09
-5.974269e-10
-1.322848e-09
1.920275e-09
3.457503e-10
1.455822e-09
-1.801572e-09
5.76899e-10
1.093655e-09
-1.951942e-09
5.717241e-10
-1.178237e-09
-6.047367e-10
1.782974e-09
-1.777919e-09
3.882659e-10
1.389653e-09
-2.112037e-09
1.920242e-10
1.920013e-09
3.630055e-10
-1.961648e-09
1.598642e-09
-1.792312e-09
1.206098e-09
-1.839559e-09
6.334614e-10
-1.892108e-09
1.609819e-09
1.280391e-09
-2.757226e-09
1.476835e-09
-4.173817e-09
2.074517e-09
2.0993e-09
-1.970608e-09
-6.948243e-10
9.177328e-10
-1.484381e-09
5.666482e-10
1.769721e-09
-9.617755e-10
-8.079459e-10
-1.242702e-09
4.953449e-10
1.795795e-09
-2.098689e-09
3.02894e-10
-1.186031e-09
-9.490364e-11
6.806663e-09
-4.166548e-09
-2.640115e-09
-1.281011e-09
4.078959e-10
8.731151e-10
7.830965e-10
-1.560705e-09
-1.12147e-09
-4.023885e-10
1.523858e-09
1.010404e-09
-1.2266e-09
-7.639002e-10
-4.681642e-10
1.232064e-09
2.690059e-09
4.923893e-09
-9.66799e-10
1.81344e-09
-8.466406e-10
1.852513e-09
3.204206e-12
-1.855717e-09
8.243621e-10
-2.108729e-09
-2.722416e-09
-8.576474e-10
2.020484e-09
-1.589855e-09
1.530623e-09
-7.976161e-10
-7.330069e-10
2.824742e-10
1.244914e-09
-1.527388e-09
3.713693e-10
-9.60628e-10
-3.561743e-10
-1.054534e-09
-4.114983e-09
5.619322e-10
9.950365e-10
1.502e-09
-1.356442e-09
-1.455575e-10
4.792686e-10
-1.528129e-09
1.50046e-09
-5.059511e-10
8.870556e-10
3.336517e-10
-1.220707e-09