/*--------------------------------*- C++ -*----------------------------------*\
| =========                 |                                                 |
| \\      /  F ield         | OpenFOAM: The Open Source CFD Toolbox           |
|  \\    /   O peration     | Version:  2406                                  |
|   \\  /    A nd           | Website:  www.openfoam.com                      |
|    \\/     M anipulation  |                                                 |
\*---------------------------------------------------------------------------*/
FoamFile
{
    version     2.0;
    format      ascii;
    arch        "LSB;label=32;scalar=64";
    class       volScalarField;
    location    "2.82";
    object      p;
}
// * * * * * * * * * * * * * * * * * * * * * * * * * * * * * * * * * * * * * //

dimensions      [0 2 -2 0 0 0 0];

internalField   nonuniform List<scalar> 
217010
(
-202.9561
-119.0127
-123.8177
-125.5007
-127.2016
-124.1709
-121.1248
-115.4831
-119.3355
-120.7467
-118.4449
-116.9302
-117.6951
-118.4665
-119.6521
-120.0549
-118.9414
-116.7791
-114.8652
-115.3141
-122.1223
-127.2381
-127.7337
-128.425
-136.6523
-150.4807
-151.4839
-154.279
-170.1015
-179.518
-175.7716
-159.3824
-134.7561
-111.064
-99.3125
-98.34853
-96.84632
-91.80301
-85.21553
-81.32301
-82.77086
-88.2281
-89.99296
-85.06914
-74.87156
-62.15664
-58.48012
-57.83145
-52.557
-43.41676
-48.46048
-53.29508
-54.51293
-53.84787
-48.85092
-42.86808
-39.17295
-40.40722
-44.69104
-48.93725
-51.58453
-50.40985
-45.6304
-38.88166
-36.71557
-41.23903
-42.38667
-39.77179
-37.71065
-38.96616
-42.88875
-50.06782
-61.81165
-80.65241
-105.4329
-123.0357
-105.6481
-56.9429
-44.83571
-63.45749
-75.28077
-85.17725
-110.1687
-156.3728
-179.4215
-147.7385
-124.4024
-134.4483
-140.5808
-145.2206
-151.033
-156.0292
-159.8013
-162.4129
-163.9551
-164.6423
-164.5382
-163.6413
-162.036
-159.7436
-156.864
-153.4987
-149.7227
-145.5818
-140.9629
-136.0863
-131.0473
-125.7972
-120.2627
-114.553
-108.9166
-103.3009
-97.71293
-92.27969
-86.83192
-81.34876
-76.12864
-71.09181
-66.08903
-61.3035
-56.77747
-52.34637
-48.00183
-43.90323
-40.10939
-36.45073
-32.85392
-29.39541
-26.16733
-23.00613
-19.96738
-17.02867
-14.21086
-11.57843
-9.224371
-7.164458
-5.704436
-4.717272
-3.881981
-3.276137
-2.753266
-2.154345
-1.506324
-0.9862904
-0.7343296
-0.6887926
-1.2075
-2.216741
-6.624291
-6.257134
-111.5751
-92.18019
-83.8169
-81.3533
-81.12893
-78.54748
-71.9448
-61.94167
-51.27622
-44.19788
-39.75604
-38.38698
-45.50471
-51.76353
-45.02128
-35.93753
-38.36499
-48.26747
-45.88599
-39.44725
-38.48841
-35.64561
-31.02149
-26.28674
-22.45008
-21.33686
-22.75497
-25.80793
-32.86421
-40.02158
-44.05495
-44.10378
-40.77878
-35.25209
-31.08822
-30.05363
-32.67883
-34.62221
-34.55208
-31.84243
-25.98967
-22.895
-23.69832
-24.56361
-24.11025
-23.27954
-22.28319
-24.46526
-20.06366
-62.25696
-7.682983
-2.591832
5.270143
9.889349
14.00199
17.45168
20.48189
23.26939
25.71478
27.97204
30.04491
31.96251
33.78411
35.5185
37.15673
38.6887
40.13421
41.53137
42.87658
44.17139
45.41855
46.60859
47.74237
48.86256
49.9655
51.04733
52.09052
53.08175
54.04284
54.99535
55.94216
56.8743
57.76473
58.63433
59.50187
60.35649
61.20512
62.04511
62.88994
63.70608
64.53647
65.33356
66.1259
66.90913
67.69257
68.46424
69.22276
69.98558
70.76484
71.5453
72.30875
73.05993
73.81004
74.5845
75.3714
76.14667
76.92635
77.71443
78.5014
79.29737
80.09501
80.88923
81.7107
82.59111
83.45877
84.27074
85.12605
86.07695
87.00024
87.0818
89.46554
65.94117
69.80861
69.97103
71.02047
71.54262
71.23844
70.3712
69.37319
68.44
67.56442
66.65568
65.70891
64.76636
63.85911
62.9689
62.07453
61.16479
60.24727
59.34684
58.45238
57.53662
56.61198
55.69368
54.75561
53.81789
52.85966
51.86109
50.86565
49.88406
48.8888
47.86538
46.77868
45.7407
44.64091
43.50278
42.35936
41.20431
39.99956
38.76741
37.52533
36.24496
34.88751
33.46255
32.02922
30.58939
29.08342
27.49796
25.85097
24.1153
22.29922
20.41991
18.45877
16.45073
14.29308
11.97954
9.557946
6.964499
4.227846
1.257426
-1.979285
-5.447366
-9.202032
-13.42375
-18.15792
-23.56867
-29.61687
-36.67568
-45.42645
-55.65953
-73.17204
-88.09207
68.72151
69.5197
69.88243
70.92702
71.5273
71.29067
70.46566
69.47322
68.53249
67.65186
66.74274
65.79436
64.84713
63.93407
63.0399
62.14276
61.23064
60.30977
59.4059
58.50856
57.5908
56.66358
55.74267
54.80255
53.86255
52.90284
51.90249
50.90468
49.92036
48.92333
47.89855
46.81007
45.77043
44.66834
43.52819
42.38299
41.22629
40.0196
38.78583
37.54203
36.26011
34.90045
33.47327
32.03809
30.5966
29.08819
27.50068
25.85175
24.11335
22.29411
20.41135
18.44655
16.43595
14.27227
11.95322
9.526321
6.925213
4.182241
1.201079
-2.04719
-5.526077
-9.294916
-13.53546
-18.28864
-23.74141
-29.82553
-36.94044
-45.75825
-56.20296
-73.67721
-90.79556
-9.049461
-2.824411
5.017318
9.731422
13.87039
17.3462
20.39108
23.20136
25.65582
27.92006
30.00093
31.92419
33.75084
35.49028
37.13348
38.66976
40.11806
41.51808
42.86617
44.16352
45.41299
46.60552
47.7408
48.86233
49.96682
51.05023
52.0952
53.08775
54.05014
55.00403
55.95229
56.88593
57.77777
58.64858
59.51764
60.37364
61.22386
62.06558
62.91272
63.7298
64.56206
65.36055
66.15453
66.93973
67.72483
68.49824
69.25873
70.02404
70.80573
71.58821
72.3533
73.10669
73.85994
74.63772
75.42753
76.20549
76.98838
77.77974
78.57027
79.36976
80.17083
80.97029
81.79945
82.68532
83.55427
84.37097
85.23933
86.19267
87.05689
87.17197
88.73246
-97.34688
-93.45776
-84.53256
-81.47207
-81.25438
-78.98126
-72.72845
-62.93023
-52.12963
-44.73426
-39.96001
-38.19084
-45.06785
-51.92356
-45.57254
-36.13974
-38.23189
-48.11845
-46.00509
-39.56526
-38.57705
-35.8427
-31.238
-26.41753
-22.51221
-21.35958
-22.76185
-25.80873
-32.8307
-39.99412
-44.06331
-44.14831
-40.83285
-35.26847
-31.08295
-30.05432
-32.68871
-34.63479
-34.55763
-31.82288
-25.95999
-22.89976
-23.72521
-24.57921
-24.10269
-23.26353
-22.30602
-24.47883
-21.12306
-55.25166
-48.11523
-52.85649
-54.62381
-54.36317
-49.53445
-43.38505
-39.31354
-40.20475
-44.308
-48.61876
-51.51986
-50.67451
-46.17114
-39.24638
-36.58341
-41.13806
-42.54376
-39.97039
-37.73734
-38.85608
-42.64348
-49.63523
-61.12657
-79.7165
-104.5809
-123.2133
-107.0162
-58.54761
-44.81501
-63.17349
-75.04652
-84.72088
-109.3701
-155.6949
-179.7525
-148.2519
-124.4871
-134.1767
-140.5053
-145.2244
-151.0601
-156.0499
-159.8132
-162.4251
-163.9681
-164.6561
-164.5532
-163.6547
-162.0478
-159.7477
-156.8606
-153.4892
-149.7045
-145.5564
-140.9277
-136.0406
-130.9912
-125.7303
-120.185
-114.4638
-108.8177
-103.1937
-97.59662
-92.15416
-86.69717
-81.21394
-75.96606
-70.9326
-65.92578
-61.13648
-56.6055
-52.16874
-47.82217
-43.72462
-39.92949
-36.26604
-32.6663
-29.208
-25.9777
-22.81335
-19.77256
-16.83291
-14.01859
-11.39631
-9.060167
-7.031704
-5.60883
-4.64654
-3.826861
-3.232362
-2.707363
-2.099385
-1.451916
-0.948788
-0.7194206
-0.7126204
-1.290309
-2.575681
-6.771415
-9.728838
-185.8797
-121.353
-123.9825
-125.525
-127.327
-124.3361
-121.2837
-115.546
-119.3361
-120.7738
-118.4943
-116.9373
-117.7016
-118.4709
-119.6595
-120.0652
-118.9488
-116.7698
-114.86
-115.3438
-122.2149
-127.3134
-127.7211
-128.4359
-136.8686
-150.7876
-151.6277
-154.6328
-170.6032
-179.75
-175.3724
-158.5714
-133.8771
-110.5262
-99.21042
-98.34578
-96.7476
-91.40892
-84.94707
-81.26233
-83.10618
-88.60467
-89.94531
-84.31244
-73.77479
-61.40148
-58.18503
-57.31325
-51.62268
-43.35717
-168.3055
-122.2112
-124.2782
-125.4639
-127.4518
-124.6186
-121.5131
-115.6775
-119.4194
-120.907
-118.6236
-116.9482
-117.7211
-118.482
-119.6649
-120.0839
-118.9696
-116.7745
-114.8575
-115.3962
-122.3498
-127.398
-127.6643
-128.3552
-137.0623
-151.0964
-152.0026
-155.678
-171.8564
-180.4263
-175.7432
-158.471
-133.5686
-110.3548
-99.29786
-98.40639
-96.67383
-91.12731
-84.64338
-81.29687
-83.76585
-89.60689
-90.31919
-84.15443
-73.42586
-60.89583
-58.06718
-57.36752
-51.33844
-43.28067
-47.79931
-52.70756
-54.78334
-54.45747
-49.93542
-43.84618
-39.51472
-40.11361
-44.1509
-48.52679
-51.71792
-51.1207
-46.6765
-39.37484
-36.46302
-41.01285
-42.6226
-40.08892
-37.76869
-38.7904
-42.51364
-49.37124
-60.67539
-79.15587
-104.3381
-124.46
-109.8082
-60.46298
-44.65129
-62.87827
-74.89123
-84.46134
-108.8057
-155.6049
-180.4828
-149.1056
-124.6303
-134.0914
-140.6973
-145.5909
-151.31
-156.1769
-159.8734
-162.4643
-163.9983
-164.6828
-164.5811
-163.6833
-162.0782
-159.7767
-156.8852
-153.512
-149.7209
-145.5746
-140.9395
-136.0462
-130.9935
-125.7293
-120.1795
-114.4462
-108.7956
-103.1709
-97.56557
-92.12016
-86.65753
-81.16639
-75.95177
-70.89347
-65.87728
-61.08326
-56.5557
-52.11808
-47.7653
-43.66401
-39.87521
-36.21395
-32.61161
-29.14569
-25.9233
-22.75566
-19.71452
-16.77358
-13.95892
-11.33328
-9.002762
-6.978612
-5.569619
-4.622358
-3.802601
-3.209803
-2.680867
-2.066834
-1.419534
-0.9271229
-0.71335
-0.7393784
-1.367475
-2.715452
-7.070382
-11.7781
-89.35847
-94.30759
-85.01274
-81.60654
-81.43759
-79.37973
-73.41305
-63.86852
-52.93786
-45.05712
-40.13384
-37.99178
-44.65107
-52.11989
-46.02562
-36.46066
-38.22401
-48.23319
-46.21422
-39.77917
-38.83522
-36.17884
-31.44255
-26.54635
-22.59827
-21.42383
-22.81896
-25.89659
-32.87997
-40.05141
-44.16047
-44.24908
-40.99135
-35.41097
-31.13201
-30.0236
-32.64906
-34.64082
-34.60075
-31.89603
-25.97114
-22.9379
-23.77553
-24.60617
-24.10595
-23.24146
-22.27864
-24.51131
-21.51241
-47.29347
-9.110071
-2.98528
4.907642
9.65609
13.81133
17.30032
20.35683
23.16112
25.63384
27.89931
29.9837
31.90882
33.7365
35.47833
37.12359
38.66238
40.11036
41.51156
42.86077
44.1593
45.4094
46.60376
47.73872
48.8608
49.96645
51.05085
52.09748
53.09008
54.05223
55.00638
55.95519
56.89046
57.78278
58.65255
59.52247
60.3787
61.23047
62.07271
62.91852
63.73644
64.56789
65.36774
66.16267
66.9477
67.73351
68.50752
69.26776
70.03278
70.81579
71.60005
72.36512
73.11865
73.87123
74.65004
75.44245
76.22056
77.00355
77.79694
78.5878
79.38811
80.19047
80.99145
81.82098
82.71057
83.58207
84.39745
85.27261
86.22205
87.04811
87.17227
88.27644
69.78352
69.49086
69.84181
70.84832
71.49176
71.30201
70.49454
69.49972
68.5555
67.67598
66.76594
65.81581
64.86569
63.95188
63.05706
62.16008
61.24676
60.32374
59.41999
58.52306
57.60372
56.67597
55.75574
54.81349
53.87534
52.91529
51.91188
50.91372
49.92983
48.93276
47.90524
46.81579
45.77933
44.67885
43.53596
42.3902
41.23343
40.02447
38.79043
37.54734
36.26597
34.90414
33.47475
32.03944
30.59883
29.08872
27.50056
25.8511
24.11002
22.28905
20.40447
18.43799
16.42889
14.26094
11.93948
9.512123
6.905832
4.163172
1.175117
-2.07786
-5.55976
-9.333896
-13.58268
-18.36672
-23.8136
-29.92298
-37.06684
-45.93296
-56.45581
-74.00682
-90.47807
71.26902
69.5876
69.80676
70.7551
71.42361
71.30367
70.55222
69.58295
68.6451
67.76734
66.85699
65.90651
64.9542
64.03689
63.13862
62.2383
61.32234
60.3955
59.4898
58.58933
57.66631
56.73629
55.81388
54.86782
53.92914
52.96642
51.95844
50.96
49.97373
48.97485
47.94438
46.86384
45.81019
44.71264
43.5656
42.41882
41.26111
40.04781
38.81293
37.56908
36.28683
34.92014
33.48724
32.05124
30.61084
29.09651
27.5067
25.8558
24.10978
22.28614
20.39851
18.42808
16.4206
14.24299
11.91595
9.486395
6.868943
4.124972
1.122267
-2.142022
-5.632112
-9.418556
-13.69448
-18.49107
-23.96235
-30.11441
-37.31207
-46.232
-56.93047
-74.2948
-90.69423
-9.358852
-3.132545
4.678706
9.515251
13.68576
17.20207
20.27837
23.09489
25.57525
27.84951
29.94258
31.87235
33.70442
35.45207
37.1022
38.64667
40.09574
41.50031
42.85248
44.15373
45.4055
46.60368
47.73815
48.86142
49.96935
51.05556
52.10555
53.09926
54.06209
55.01699
55.96702
56.9053
57.79992
58.6692
59.54121
60.39841
61.25321
62.09719
62.94145
63.77282
64.59867
65.39973
66.19702
66.98422
67.77161
68.54835
69.31084
70.07842
70.86365
71.65068
72.4177
73.17424
73.92993
74.71114
75.50758
76.28856
77.07459
77.87128
78.66567
79.46899
80.27507
81.08185
81.91648
82.80865
83.68262
84.50291
85.38734
86.32294
87.06934
87.15653
87.61777
-81.6199
-93.71663
-85.77899
-81.9608
-81.68722
-79.84093
-74.29295
-65.12443
-54.20226
-45.71255
-40.38299
-37.59143
-44.06789
-52.59079
-46.90875
-36.98774
-38.3056
-48.26987
-46.50252
-40.23124
-39.44258
-36.70402
-31.76978
-26.75694
-22.74209
-21.56138
-22.96955
-26.0888
-33.01278
-40.15922
-44.24144
-44.40398
-41.24503
-35.73334
-31.28667
-30.00324
-32.65283
-34.68232
-34.65756
-31.97779
-26.006
-23.02405
-23.86988
-24.6676
-24.12346
-23.20347
-22.21823
-24.49409
-22.63262
-41.06539
-47.18245
-52.55919
-55.16307
-55.29273
-50.70667
-44.53441
-39.83181
-40.03989
-43.89992
-48.28979
-51.69948
-51.66068
-47.41586
-39.81877
-36.42324
-40.95429
-42.82871
-40.28591
-37.7952
-38.68736
-42.32428
-48.98367
-60.02269
-78.36139
-103.917
-125.3978
-113.8181
-62.91316
-44.14995
-62.23316
-74.62294
-84.36081
-108.3325
-155.0119
-180.8068
-150.5553
-126.0096
-134.6734
-141.1806
-146.0831
-151.6075
-156.3271
-159.945
-162.513
-164.0352
-164.7128
-164.606
-163.7012
-162.0949
-159.7871
-156.8853
-153.5057
-149.6991
-145.5528
-140.9047
-135.9957
-130.9305
-125.6565
-120.0988
-114.3442
-108.6818
-103.0551
-97.43478
-91.98028
-86.51473
-81.0189
-75.73485
-70.71788
-65.69776
-60.89296
-56.36255
-51.92417
-47.56854
-43.46145
-39.67257
-36.01085
-32.40989
-28.93686
-25.719
-22.5499
-19.51082
-16.5727
-13.76766
-11.15474
-8.854666
-6.862296
-5.490726
-4.577424
-3.767099
-3.180682
-2.647157
-2.023228
-1.37438
-0.8976376
-0.7074174
-0.7780852
-1.471567
-3.054252
-7.435357
-14.33178
-156.5791
-124.4613
-124.3333
-125.081
-127.5438
-125.1002
-121.913
-115.9286
-119.5596
-121.1379
-118.8635
-116.9694
-117.7343
-118.486
-119.6591
-120.075
-118.9951
-116.802
-114.8573
-115.4905
-122.556
-127.5382
-127.5616
-128.2128
-137.2181
-151.4505
-152.8176
-157.7113
-173.6072
-181.1581
-175.6424
-158.1284
-133.2291
-110.3245
-99.59898
-98.52551
-96.61513
-90.59546
-84.23737
-81.39451
-85.03837
-90.90159
-90.40331
-83.2968
-72.56718
-60.10525
-57.68497
-56.98063
-50.86958
-43.0855
-148.4211
-126.6283
-124.0687
-124.1874
-127.5406
-125.8187
-122.5519
-116.3913
-119.7566
-121.4454
-119.1995
-116.9774
-117.7328
-118.4906
-119.657
-120.0714
-119.0319
-116.8696
-114.8758
-115.6512
-122.8561
-127.648
-127.3821
-127.9945
-137.1696
-151.4728
-154.2119
-160.7524
-176.0424
-182.5359
-176.2179
-158.114
-133.177
-110.6215
-100.1486
-98.66423
-96.52965
-90.07705
-83.90851
-81.88545
-87.10895
-92.41641
-90.66665
-82.61311
-71.76049
-59.25338
-57.43932
-56.8542
-50.41204
-42.78007
-46.28372
-52.20646
-55.66113
-55.76657
-51.6665
-45.47092
-40.34313
-40.06531
-43.70994
-48.13591
-51.90786
-52.38897
-48.55477
-40.72044
-36.59906
-40.92233
-43.0339
-40.53123
-37.83297
-38.54527
-42.07976
-48.52501
-59.2991
-77.57585
-103.7348
-127.5747
-119.2648
-66.34699
-43.78263
-61.43346
-74.60848
-84.82933
-108.098
-153.1151
-179.0675
-152.226
-129.2488
-135.9871
-141.782
-146.5861
-151.9442
-156.5264
-160.0556
-162.6014
-164.1109
-164.7811
-164.6969
-163.7755
-162.1651
-159.8508
-156.9374
-153.5568
-149.7306
-145.5924
-140.9264
-135.9966
-130.9218
-125.6446
-120.0828
-114.2977
-108.6249
-103.001
-97.35286
-91.8902
-86.43006
-80.92649
-75.65604
-70.61088
-65.57905
-60.75876
-56.23522
-51.79815
-47.43183
-43.31413
-39.53572
-35.87684
-32.27357
-28.78274
-25.58104
-22.40329
-19.36144
-16.41878
-13.6183
-11.0063
-8.73422
-6.763972
-5.425391
-4.55016
-3.740787
-3.155718
-2.614523
-1.976142
-1.3231
-0.8658306
-0.7053225
-0.8308442
-1.603381
-3.372964
-7.912209
-16.75528
-72.71586
-91.63477
-86.60415
-82.55123
-82.07963
-80.54983
-75.44939
-66.79062
-56.14786
-47.0804
-40.81503
-37.13659
-43.27448
-53.33553
-48.18484
-37.83702
-38.52637
-48.24458
-46.87415
-41.06307
-40.46233
-37.41178
-32.15356
-27.03278
-22.9485
-21.78554
-23.26006
-26.45037
-33.30209
-40.39324
-44.48674
-44.67528
-41.61785
-36.24282
-31.63145
-30.06153
-32.74033
-34.79774
-34.73133
-32.08027
-26.0984
-23.17666
-24.04517
-24.78156
-24.154
-23.13109
-22.11108
-24.42584
-23.70175
-36.62944
-9.584997
-3.202848
4.483564
9.390871
13.57172
17.11338
20.20423
23.02855
25.5289
27.80591
29.90644
31.83921
33.67341
35.42581
37.0809
38.63258
40.08018
41.48687
42.84138
44.14531
45.39851
46.60197
47.73421
48.85821
49.96812
51.05541
52.10978
53.10371
54.06522
55.02059
55.97203
56.91441
57.81038
58.677
59.55167
60.4092
61.26726
62.11141
62.95372
63.77979
64.61384
65.41612
66.21499
67.00206
67.79077
68.56951
69.33219
70.09936
70.88683
71.67783
72.44521
73.2029
73.95842
74.7421
75.54457
76.32605
77.11265
77.91469
78.71107
79.51673
80.32613
81.13776
81.97493
82.87487
83.75439
84.57155
85.46371
86.38938
87.06051
87.0818
86.90493
73.11558
69.97837
69.95699
70.72181
71.34986
71.28716
70.59362
69.64163
68.70286
67.82803
66.91596
65.96268
65.0033
64.08233
63.18188
62.28112
61.36231
60.4297
59.5246
58.62439
57.69789
56.76647
55.84509
54.89355
53.95888
52.99506
51.97996
50.98152
49.99437
48.99583
47.96215
46.87369
45.82505
44.73271
43.58037
42.43316
41.27536
40.05694
38.82322
37.5813
36.29986
34.92638
33.48882
32.05474
30.61715
29.09715
27.5068
25.85606
24.10344
22.27707
20.38664
18.41284
16.41236
14.22083
11.88787
9.45845
6.828633
4.090171
1.069035
-2.205538
-5.698449
-9.491547
-13.79056
-18.61967
-24.10344
-30.29234
-37.5391
-46.50928
-57.33787
-74.4162
-90.68314
74.91211
70.72639
70.27572
70.75863
71.27565
71.25019
70.62403
69.70643
68.78383
67.92331
67.01171
66.0624
65.10242
64.18027
63.2762
62.3752
61.45453
60.51337
59.60748
58.70427
57.77169
56.83809
55.9173
54.957
54.02702
53.06148
52.0363
51.03961
50.0501
49.05018
48.00829
46.93927
45.87203
44.77993
43.62109
42.47445
41.31359
40.083
38.84834
37.60914
36.33319
34.94983
33.50027
32.06665
30.63723
29.1083
27.51577
25.86764
24.10576
22.27389
20.37529
18.39455
16.41198
14.20241
11.86293
9.429654
6.779816
4.056324
1.006405
-2.283562
-5.783931
-9.577204
-13.90593
-18.77463
-24.27213
-30.50043
-37.80339
-46.80898
-57.74019
-74.38629
-90.63737
-9.842606
-3.229654
4.280641
9.256231
13.43004
17.00206
20.11077
22.94821
25.46927
27.74627
29.85967
31.79813
33.63312
35.39412
37.05866
38.61973
40.06031
41.46996
42.82912
44.13866
45.39426
46.60473
47.7326
48.85811
49.97061
51.06173
52.12425
53.11615
54.07663
55.03612
55.98959
56.93525
57.8329
58.69623
59.57568
60.43286
61.29518
62.13935
62.98472
63.83073
64.65411
65.45522
66.25738
67.04654
67.83866
68.6209
69.38308
70.15239
70.94573
71.74349
72.50982
73.26983
74.0263
74.81236
75.62301
76.40494
77.19442
78.0024
78.79838
79.60544
80.41892
81.23684
82.07231
82.9727
83.8577
84.67374
85.57016
86.45814
87.01098
86.89274
86.07288
-63.9371
-87.65993
-86.97388
-83.39668
-82.70408
-81.34804
-76.83146
-68.7918
-58.62031
-49.24407
-41.87434
-36.92782
-42.49197
-54.43486
-49.96536
-39.1973
-38.70504
-47.78568
-47.16865
-42.32742
-41.85101
-38.32868
-32.62644
-27.42268
-23.27808
-22.08731
-23.71113
-27.04584
-33.84846
-40.82474
-44.90175
-45.10759
-42.15806
-36.97137
-32.29492
-30.261
-32.98085
-35.0047
-34.81469
-32.20531
-26.28806
-23.43825
-24.35497
-24.98329
-24.212
-23.01498
-21.9926
-24.27539
-24.3303
-32.81685
-45.15465
-51.62961
-56.32431
-56.95467
-52.92931
-46.80167
-41.19026
-40.28446
-43.62359
-47.96046
-52.13328
-53.2946
-50.11499
-42.22704
-37.18063
-41.02874
-43.38843
-40.87899
-37.88934
-38.33616
-41.74113
-47.9578
-58.43592
-76.66642
-103.506
-129.9594
-126.2185
-71.38954
-44.24903
-60.97294
-74.98275
-85.896
-107.9229
-148.7927
-172.5165
-152.2478
-133.1137
-137.5999
-142.4932
-147.1432
-152.3477
-156.785
-160.1989
-162.718
-164.2023
-164.8386
-164.7654
-163.8429
-162.231
-159.9118
-156.9768
-153.5945
-149.729
-145.6024
-140.9077
-135.9532
-130.8801
-125.5963
-120.0168
-114.1823
-108.4938
-102.8672
-97.18085
-91.73145
-86.27804
-80.73181
-75.41179
-70.41295
-65.35858
-60.52514
-56.01481
-51.56963
-47.18648
-43.05748
-39.2995
-35.64018
-32.03682
-28.52221
-25.3511
-22.16031
-19.12824
-16.19694
-13.41778
-10.80994
-8.590022
-6.647491
-5.353721
-4.538704
-3.725453
-3.139638
-2.586351
-1.925912
-1.268402
-0.837725
-0.7155425
-0.9010311
-1.755922
-3.779828
-8.616256
-19.14679
-139.9936
-127.4149
-123.3636
-123.0393
-127.4567
-126.8168
-123.6135
-117.2066
-120.0471
-121.7747
-119.5707
-116.9485
-117.7015
-118.495
-119.6616
-120.0935
-119.1119
-117.0043
-114.9684
-115.8854
-123.288
-128.0115
-127.1078
-127.7162
-136.8259
-151.0908
-156.2927
-164.6948
-179.1424
-184.3794
-177.1165
-158.4419
-133.587
-111.4365
-100.947
-98.91742
-96.29772
-89.50553
-83.47562
-83.15207
-89.74644
-93.97285
-90.58431
-81.61319
-70.70777
-58.22794
-57.12763
-56.62469
-49.76436
-42.42631
-130.72
-126.3731
-122.3269
-121.6631
-127.1658
-127.9519
-125.2644
-118.366
-120.4717
-122.0635
-119.8545
-116.8775
-117.6171
-118.4922
-119.6634
-120.1475
-119.2546
-117.2765
-115.2188
-116.2404
-123.8437
-127.9588
-126.7344
-127.5117
-136.3693
-150.9163
-159.25
-169.5413
-183.1157
-186.9922
-178.531
-159.2673
-134.7213
-112.9539
-101.9543
-99.33997
-95.94718
-88.77648
-82.96128
-85.33479
-92.91793
-95.67062
-90.4714
-80.42887
-69.44057
-57.17451
-56.94515
-56.31872
-48.86386
-42.05435
-44.06457
-50.92916
-57.02453
-58.21175
-54.62082
-48.78739
-42.54121
-40.81698
-43.69365
-47.76892
-52.35303
-54.45901
-52.18412
-44.40173
-38.52602
-41.32233
-43.83345
-41.34106
-38.03842
-38.05683
-41.23027
-47.14376
-57.1851
-75.17538
-102.5239
-132.5489
-134.181
-78.55758
-46.68746
-61.60717
-75.93402
-87.40113
-107.9371
-143.3404
-163.7741
-150.318
-136.3912
-139.2168
-143.4014
-147.8397
-152.883
-157.1553
-160.4297
-162.9213
-164.3763
-165.0043
-164.9422
-163.9844
-162.3705
-160.0484
-157.0615
-153.6891
-149.7584
-145.6752
-140.9564
-135.9935
-130.9154
-125.57
-119.9679
-114.1043
-108.3866
-102.7642
-97.09974
-91.65815
-86.15777
-80.56162
-75.2566
-70.23818
-65.18641
-60.33735
-55.80365
-51.34999
-46.97938
-42.83929
-39.08502
-35.40783
-31.82519
-28.27449
-25.13056
-21.92051
-18.90424
-15.9704
-13.18396
-10.57302
-8.428055
-6.504573
-5.289972
-4.560567
-3.719914
-3.132551
-2.557218
-1.862571
-1.20742
-0.8146438
-0.7393049
-1.00093
-1.999097
-4.420919
-9.813984
-21.50588
-56.21333
-81.81893
-86.30976
-84.42927
-83.73063
-82.54088
-78.57392
-71.25131
-61.59536
-52.15663
-44.13856
-37.49589
-42.24287
-55.84944
-52.30199
-41.10954
-38.36073
-46.33133
-47.05654
-43.98198
-43.57366
-39.45416
-33.26896
-28.09459
-23.91973
-22.59877
-24.307
-27.91835
-34.77014
-41.56534
-45.58129
-45.7776
-42.93772
-37.99103
-33.3364
-30.69601
-33.46142
-35.25838
-34.90601
-32.39808
-26.53721
-23.87719
-24.87997
-25.30391
-24.28701
-22.74255
-21.87193
-24.12416
-24.40553
-29.10434
-10.02912
-3.147853
4.111173
9.140449
13.2674
16.88819
20.02546
22.86952
25.39765
27.67695
29.81943
31.75439
33.58423
35.36442
37.03655
38.59698
40.02618
41.45161
42.8188
44.13675
45.38903
46.60225
47.7278
48.85313
49.96842
51.07104
52.13255
53.11881
54.0853
55.04604
55.9901
56.93794
57.84896
58.70677
59.59137
60.44624
61.3156
62.16191
63.00753
63.84686
64.67294
65.47643
66.28655
67.07705
67.86871
68.65013
69.41657
70.19192
70.98426
71.78079
72.54586
73.31415
74.07217
74.86039
75.67995
76.46568
77.25605
78.06595
78.86415
79.68093
80.50101
81.3279
82.15793
83.06455
83.97106
84.78467
85.67055
86.48459
86.87005
86.47162
85.11621
76.55091
71.82336
70.68626
70.85583
71.21172
71.20076
70.64009
69.7641
68.86609
68.0238
67.09673
66.13899
65.17353
64.25708
63.34601
62.43877
61.51723
60.5718
59.67348
58.76527
57.82292
56.88878
55.96931
54.99563
54.07651
53.09876
52.06335
51.07158
50.08328
49.09033
48.03479
46.94046
45.89368
44.79762
43.63194
42.50108
41.34745
40.10362
38.86651
37.61931
36.35132
34.97014
33.51116
32.06304
30.64508
29.11432
27.51318
25.86736
24.10451
22.27398
20.36422
18.35501
16.3956
14.16469
11.84132
9.402149
6.711767
4.025017
0.9349391
-2.352022
-5.881607
-9.676966
-14.02621
-18.92682
-24.43857
-30.71019
-38.07458
-47.09415
-58.06487
-74.06713
-90.1257
77.94268
73.48331
71.57922
71.20614
71.27276
71.20333
70.67513
69.82244
68.97009
68.19326
67.27928
66.30026
65.29398
64.38895
63.5029
62.583
61.62656
60.65516
59.78732
58.8829
57.919
56.99141
56.0837
55.07065
54.22228
53.20608
52.13315
51.16203
50.1368
49.1776
48.10724
47.0547
46.01694
44.8816
43.65103
42.52651
41.38334
40.14457
38.93702
37.67956
36.35628
34.97371
33.56904
32.10765
30.64927
29.14419
27.54538
25.84371
24.08468
22.27782
20.41121
18.37603
16.38868
14.07113
11.79964
9.404234
6.605626
3.984664
0.7843923
-2.407303
-5.955498
-9.88597
-14.25664
-19.17528
-24.69662
-31.02457
-38.49643
-47.54554
-58.55512
-73.59398
-89.62382
-10.08358
-3.088136
3.817068
8.932371
12.99018
16.77554
19.90219
22.72133
25.25996
27.61083
29.78956
31.67332
33.52012
35.33757
36.98193
38.54127
40.01258
41.46721
42.8118
44.13002
45.35627
46.58052
47.74148
48.83367
49.97567
51.08954
52.11113
53.14016
54.11833
55.05005
55.98429
56.98305
57.92736
58.73203
59.62947
60.48028
61.36584
62.21026
63.04746
63.87835
64.73413
65.55326
66.35562
67.14185
67.92122
68.72687
69.51172
70.26384
71.0372
71.8705
72.66659
73.42341
74.17809
74.95082
75.79692
76.60326
77.35114
78.19433
79.02103
79.82197
80.63711
81.46604
82.2827
83.21519
84.16273
84.92077
85.73647
86.42069
86.60837
85.94445
84.2226
-49.85227
-73.24037
-83.37886
-84.87398
-84.88639
-84.21712
-80.73885
-74.21443
-65.22916
-55.94542
-47.85536
-40.07373
-43.29746
-57.8032
-55.72466
-42.34624
-36.96517
-43.24498
-45.96228
-45.70416
-45.52063
-40.90993
-34.32385
-29.11375
-24.8185
-23.64158
-25.05092
-29.19703
-36.1814
-42.83831
-46.67014
-46.84905
-44.09804
-39.25828
-34.8673
-31.48647
-34.05119
-35.52345
-35.00883
-32.30935
-26.72081
-24.51995
-25.64628
-25.67818
-24.3992
-22.56443
-21.53137
-23.66598
-23.75969
-25.59339
-43.25203
-50.08707
-57.8357
-60.0355
-57.02845
-51.59888
-44.34555
-41.64837
-43.81531
-48.48644
-52.77039
-55.70296
-55.11102
-47.59052
-40.84609
-42.01261
-44.29215
-41.96281
-38.09472
-37.49939
-40.38843
-45.92365
-55.39011
-72.85885
-100.5899
-133.9753
-142.3291
-87.88738
-51.40443
-63.37939
-76.94211
-88.61179
-108.1402
-137.8283
-155.9026
-148.3114
-139.0413
-140.6353
-144.61
-148.7654
-153.4072
-157.6267
-160.7503
-163.1681
-164.6049
-165.1428
-165.1484
-164.1481
-162.5546
-160.2205
-157.1334
-153.8512
-149.8088
-145.8471
-141.061
-136.0758
-130.7968
-125.3767
-119.8983
-114.117
-108.181
-102.6903
-97.06208
-91.29324
-85.7169
-80.33495
-74.895
-69.86708
-64.95028
-59.9035
-55.31193
-51.03241
-46.71055
-42.40501
-38.61862
-35.01691
-31.55539
-27.84373
-24.74669
-21.59
-18.57543
-15.59289
-12.79329
-10.29083
-8.260162
-6.357573
-5.270016
-4.622644
-3.708382
-3.118859
-2.506663
-1.768351
-1.123653
-0.7835821
-0.7773883
-1.159299
-2.447189
-5.31549
-11.45015
-23.6822
-122.0082
-122.9333
-121.3904
-121.8156
-127.7278
-130.0302
-127.0807
-119.2776
-120.4328
-122.54
-120.047
-116.7479
-117.446
-118.468
-119.6944
-120.2592
-119.5251
-117.8445
-115.8257
-116.8981
-124.3056
-128.5963
-126.1148
-127.635
-136.288
-151.4409
-163.2302
-175.5728
-188.2042
-190.3186
-180.674
-160.8293
-136.3659
-114.5042
-103.3259
-98.66033
-93.80532
-87.23159
-82.38814
-88.26346
-96.16749
-96.43524
-89.83321
-79.03301
-67.8942
-56.15774
-56.83866
-55.72878
-47.78343
-41.75716
3.504812
0.850458
31.39094
36.27155
44.67355
23.37476
20.3077
35.49018
36.37987
15.66094
35.19181
42.58924
1.385772
46.79929
67.71226
36.21456
41.02931
31.96462
38.26552
19.3325
32.89721
38.443
16.95509
37.93244
9.617475
36.85495
38.01022
33.70069
35.55638
29.38557
39.38862
33.20628
36.484
8.229261
38.87964
8.592641
16.34636
39.29867
11.16087
37.63064
40.05719
0.9939327
-6.64177
43.583
35.38464
-6.433479
3.564752
1.165421
3.883406
40.65442
35.02182
22.31112
34.76629
33.62214
38.0506
14.50123
35.69262
38.42625
34.46428
0.9034571
50.75675
38.71474
20.86408
40.24768
40.89489
38.14284
17.52146
30.5546
31.59573
29.61672
39.3493
31.41392
39.18849
33.99786
37.76503
38.47605
37.20199
37.38785
4.962891
39.30448
22.31209
37.97231
31.05051
20.21286
41.51314
44.41411
40.10088
17.10883
30.8861
34.34445
37.98848
38.64444
36.7869
33.8477
-16.45581
35.04315
36.7639
38.1348
-64.29073
25.27448
30.67797
5.96131
44.11136
37.68682
31.78553
36.06174
35.03402
37.96934
33.75902
35.62733
14.83054
-98.80792
16.14557
30.13743
31.61423
13.71447
21.11318
23.03766
32.85159
33.00477
32.68784
31.68112
29.04329
63.12422
35.43183
33.67419
3.455224
43.91609
-81.22791
21.25173
43.4471
39.57053
36.20547
33.6254
69.20982
12.93495
35.12945
-14.79075
31.43242
39.47206
36.29392
40.78062
36.22176
35.78527
8.457653
36.9643
39.0774
33.77917
27.05416
28.49737
36.51429
50.91775
29.51837
35.77597
45.89517
35.35858
41.10698
31.80993
48.50576
36.11784
33.96752
35.8125
35.10733
10.43941
39.06826
17.72995
35.44948
38.00153
18.82496
33.99396
46.50113
27.38389
15.94629
35.13672
30.59254
36.8143
31.54225
35.49407
22.79839
18.29841
32.94056
36.63717
30.58875
32.20215
33.81694
31.41406
37.7261
37.48142
38.21796
26.26169
35.43622
16.72889
38.24871
29.97242
-44.03542
32.87583
27.1065
6.683638
33.20166
33.12992
25.02231
35.0971
33.92554
43.64893
35.02818
31.80576
51.6873
31.55648
34.56795
35.12996
18.77904
33.27609
27.97057
37.60827
17.7205
14.33942
35.30694
26.68584
34.34462
36.9662
31.2035
34.9703
35.52903
41.23233
54.39515
20.85301
37.67159
13.22532
31.54792
33.17913
38.35404
35.99517
33.2101
37.83741
31.76451
29.17223
34.95891
38.04833
-6.367511
60.8578
31.85301
33.42488
33.92786
11.28223
44.32129
27.03081
31.7153
35.05615
38.01184
37.97102
37.95134
-341.7842
40.1995
35.20374
-74.872
48.88704
30.06544
34.25155
27.75942
35.18376
34.80445
1.631768
32.99109
43.44185
38.50766
36.71345
52.47857
42.06857
35.76414
36.0622
32.65687
32.64716
26.64558
10.59504
39.16601
-17.79106
37.68406
60.20201
27.8523
24.86291
34.963
26.50849
34.21614
22.2075
38.87204
37.67638
35.11614
38.83203
39.59413
36.75177
37.50822
34.70556
-75.05972
38.1585
38.09393
4.828396
3.02699
-69.00613
38.00164
35.54528
33.32394
17.30694
35.0756
41.10156
34.94506
7.719814
32.12316
38.11905
39.85605
36.34049
34.34637
46.13385
18.09545
43.69088
31.26632
29.82677
35.1443
38.084
32.98534
30.08948
30.53478
37.49405
67.5099
34.71072
36.38668
34.87419
36.41913
37.77646
35.54586
40.70656
36.86034
11.71159
33.65201
35.7565
37.72484
58.26889
33.12678
30.27532
41.554
-183.4595
39.05358
25.83083
35.42993
35.97495
37.29243