/*--------------------------------*- C++ -*----------------------------------*\
| =========                 |                                                 |
| \\      /  F ield         | OpenFOAM: The Open Source CFD Toolbox           |
|  \\    /   O peration     | Version:  2406                                  |
|   \\  /    A nd           | Website:  www.openfoam.com                      |
|    \\/     M anipulation  |                                                 |
\*---------------------------------------------------------------------------*/
FoamFile
{
    version     2.0;
    format      ascii;
    arch        "LSB;label=32;scalar=64";
    class       surfaceScalarField;
    location    "0.12";
    object      phi;
}
// * * * * * * * * * * * * * * * * * * * * * * * * * * * * * * * * * * * * * //

dimensions      [0 3 -1 0 0 0 0];

oriented        oriented;

internalField   nonuniform List<scalar> 
6749
(
5.198759e-09
4.103957e-09
-9.302716e-09
-1.653684e-09
-1.235186e-09
2.88887e-09
-2.162773e-10
-1.628783e-09
1.84506e-09
1.834696e-09
-4.507701e-10
-1.383926e-09
1.257079e-09
-1.408846e-09
1.517673e-10
-9.929654e-10
1.870789e-09
-8.778238e-10
1.202469e-09
2.972014e-10
-1.499671e-09
2.723723e-10
1.065076e-09
-1.337449e-09
-9.058708e-10
1.38802e-09
-4.821494e-10
-1.604036e-09
4.81081e-10
1.122955e-09
1.794163e-09
-9.880561e-10
-8.061068e-10
-8.685189e-10
-1.395576e-09
2.264095e-09
-2.203475e-09
-1.547088e-10
2.358183e-09
3.699492e-09
-1.206605e-09
-2.492887e-09
9.583516e-10
5.923278e-10
-1.550679e-09
-1.800363e-09
9.382594e-11
1.706537e-09
1.814354e-09
-1.122418e-10
-1.702113e-09
2.957144e-10
-1.461214e-09
1.1655e-09
-6.90031e-10
-5.819591e-10
1.27199e-09
1.842268e-09
2.845452e-10
-2.126814e-09
-7.903838e-10
1.809622e-09
-1.019239e-09
9.819027e-10
-1.76574e-09
7.838369e-10
1.422557e-09
5.504449e-10
-1.973002e-09
-1.264773e-09
2.838697e-10
9.809033e-10
8.098955e-10
1.009185e-09
-1.81908e-09
-6.17645e-10
-1.048502e-09
1.666147e-09
1.08823e-09
3.265613e-10
-1.414791e-09
3.138222e-10
9.600996e-10
-1.273922e-09
2.626151e-10
-1.394915e-09
1.1323e-09
1.283829e-09
9.140984e-11
-1.375239e-09
-3.309698e-09
1.938146e-09
1.371552e-09
1.503364e-09
2.196128e-09
-1.336857e-09
2.520778e-09
-1.183921e-09
-1.688777e-09
1.077429e-09
6.113479e-10
-6.708136e-10
-1.525737e-09
2.19655e-09
4.726234e-09
-9.777876e-09
5.051641e-09
2.072185e-10
-1.509877e-09
1.302659e-09
-1.55318e-09
1.866082e-09
-3.129023e-10
-9.270932e-10
2.868409e-09
-1.941316e-09
1.165804e-09
7.135014e-10
-1.879305e-09
6.311183e-09
-1.584949e-09
7.312723e-10
8.713814e-10
-1.602654e-09
5.26515e-10
-2.919346e-09
2.392831e-09
4.250564e-09
2.309043e-09
-6.559606e-09
1.177841e-09
-2.485967e-09
1.308125e-09
-9.794991e-10
-6.245365e-10
5.32168e-10
-1.869362e-09
1.337194e-09
-1.363317e-10
-1.299769e-09
1.436101e-09
-1.815696e-09
1.674701e-09
1.409949e-10
4.489757e-10
-1.80765e-09
1.358674e-09
1.617627e-09
-6.386991e-10
-9.789276e-10
1.59318e-09
3.153892e-09
-4.747072e-09
-1.3184e-09
-4.98068e-10
-1.236066e-09
-7.628256e-10
1.998892e-09
-4.76698e-10
1.809687e-09
-1.332989e-09
6.930215e-10
9.325676e-10
-1.625589e-09
6.415766e-09
-5.020388e-09
-1.395378e-09
1.972323e-09
2.083302e-10
-2.180653e-09
-1.013019e-09
1.21128e-09
-1.982614e-10
-3.991325e-10
1.834287e-09
-1.435154e-09
7.089912e-10
-1.704807e-09
9.958163e-10
-4.762389e-10
-1.113722e-09
1.589961e-09
-3.466848e-10
-1.57035e-09
1.917035e-09
-8.974128e-10
6.291311e-10
2.682816e-10
-8.761835e-10
1.393041e-09
-5.168575e-10
-8.19055e-10
-1.114745e-09
1.9338e-09
1.31171e-09
1.672951e-10
-1.479005e-09
-1.525991e-10
-1.879405e-09
2.032004e-09
-1.700897e-09
2.255275e-09
-5.543782e-10
2.75596e-11
1.525017e-09
-1.552577e-09
6.665451e-10
-1.913095e-09
1.24655e-09
1.350625e-09
6.475891e-10
-1.998215e-09
2.426192e-10
-1.285619e-09
1.043e-09
-3.777648e-10
-1.269183e-09
1.646947e-09
1.216873e-09
4.43241e-10
-1.660114e-09
9.935404e-10
-1.701221e-09
7.076803e-10
2.128458e-09
-9.370861e-10
-1.191372e-09
7.963449e-10
-1.261305e-09
1.839275e-09
-9.72381e-10
-8.668942e-10
3.661045e-09
-2.793554e-09
-8.67491e-10
5.139895e-11
1.89321e-09
-1.944609e-09
-1.924142e-09
1.292984e-09
6.311583e-10
1.779351e-09
-1.098891e-09
-6.804593e-10
-1.192215e-09
1.398294e-09
-2.060782e-10
-4.252069e-09
4.789385e-10
3.77313e-09
-5.094941e-10
1.684855e-09
-1.175361e-09
-1.611697e-09
2.403098e-10
1.371388e-09
-1.287233e-09
-3.608758e-10
1.648109e-09
1.468894e-09
-1.927871e-09
4.589763e-10
-1.785463e-09
4.014352e-10
1.384028e-09
6.703974e-09
-7.088776e-09
3.84802e-10
1.50618e-09
4.512133e-11
-1.551302e-09
1.102057e-09
8.91741e-10
-1.993798e-09
-1.919891e-09
1.971361e-09
-5.146961e-11
-1.710914e-10
-1.613031e-09
1.784123e-09
1.9265e-09
-1.108602e-09
-9.237399e-10
1.890391e-09
-9.666514e-10
2.084962e-09
-3.268986e-09
1.184025e-09
-8.346779e-10
-6.455942e-10
1.480272e-09
-4.22412e-10
-1.032259e-09
1.454671e-09
-2.238518e-09
7.938147e-10
1.444704e-09
-1.222688e-09
-6.945278e-09
8.167965e-09
1.284263e-09
-1.771954e-09
4.876914e-10
-1.887223e-09
8.423116e-10
1.044911e-09
-5.097755e-11
6.626287e-09
-6.57531e-09
-1.308069e-09
-5.055956e-10
1.813665e-09
-1.135614e-09
-7.368754e-10
2.162249e-09
-5.907636e-09
3.745387e-09
1.210431e-10
-1.429254e-09
1.308211e-09
-2.078303e-09
9.091252e-10
1.169178e-09
1.124548e-09
-1.865134e-09
7.405862e-10
3.750895e-09
1.72494e-09
-5.475835e-09
1.578828e-09
-3.544162e-09
1.965334e-09
-8.65725e-10
-6.603928e-10
-2.023958e-09
2.5553e-09
-5.313423e-10
-1.304448e-09
-1.828246e-11
1.322731e-09
6.829242e-10
1.079816e-09
-1.76274e-09
1.511333e-09
9.038536e-11
-1.601718e-09
5.468721e-10
1.18072e-09
-1.727592e-09
-9.582938e-10
-9.365708e-10
1.894865e-09
-4.757347e-09
4.721795e-09
3.555189e-11
-1.714588e-09
-8.568553e-10
2.571444e-09
-4.298588e-10
2.188288e-09
-1.758429e-09
-1.749047e-09
3.851061e-10
1.363941e-09
1.949912e-09
-1.115672e-09
-8.342406e-10
1.957705e-09
-1.567512e-10
-1.800954e-09
-4.711934e-10
1.351766e-09
-8.805724e-10
-5.08519e-10
1.473388e-09
-9.648688e-10
-1.547662e-09
2.404054e-09
-8.563916e-10
3.760573e-10
-1.252241e-09
4.468938e-10
-1.532872e-09
1.085979e-09
1.477217e-09
-1.375452e-09
-1.017654e-10
-1.302948e-09
2.1811e-10
1.084838e-09
-1.439995e-09
1.938647e-09
-4.986527e-10
-1.164653e-09
-6.258628e-10
1.790516e-09
1.050753e-09
3.905908e-10
-1.441344e-09
5.980569e-10
1.393047e-09
-1.991104e-09
5.157215e-10
-1.590647e-09
1.074925e-09
1.503127e-09
-1.574625e-09
7.149804e-11
1.001668e-09
-1.882113e-09
8.804452e-10
-1.270459e-09
1.719435e-09
1.444803e-10
-1.539148e-09
1.394668e-09
2.103871e-09
-7.411723e-10
-1.362699e-09
7.928635e-10
-2.065831e-09
2.057738e-09
-1.114539e-09
-9.431994e-10
-1.710838e-09
4.502021e-10
1.260636e-09
-1.382881e-09
7.520052e-10
6.308759e-10
-4.656825e-09
3.777286e-09
8.795387e-10
-2.191535e-09
-4.529076e-10
2.644442e-09
-7.296865e-10
-1.198261e-09
1.927948e-09
5.752238e-10
1.17009e-09
-1.745314e-09
8.933172e-10
9.276551e-10
-1.820972e-09
1.659854e-09
-1.679298e-09
1.944337e-11
-1.656746e-09
8.528388e-10
8.03907e-10
-2.037687e-09
1.221039e-09
8.166483e-10
-4.007829e-10
-1.170339e-09
1.571122e-09
1.029325e-09
-1.802841e-09
7.735167e-10
-1.728913e-09
9.106037e-10
8.18309e-10
4.814823e-09
2.776323e-09
6.198116e-10
1.304176e-09
-1.923988e-09
-1.273223e-09
1.956147e-09
1.25223e-09
4.74486e-10
-1.726716e-09
-6.543897e-10
-7.496037e-10
1.403993e-09
5.300058e-10
-2.191388e-09
1.661382e-09
-1.577596e-09
1.347921e-09
2.29675e-10
1.632389e-09
1.67187e-11
-1.649108e-09
6.121517e-10
-1.660838e-09
1.048687e-09
-7.780106e-10
-1.206823e-09
1.984833e-09
2.084365e-09
-1.470397e-09
-6.139679e-10
-1.244971e-09
1.658414e-09
-4.134432e-10
3.390359e-10
-2.005029e-09
1.665993e-09
1.538285e-09
-7.086286e-10
-8.296566e-10
-1.003839e-10
-1.233994e-09
1.334378e-09
1.97593e-09
-5.770371e-10
-1.398893e-09
9.704316e-10
1.122697e-09
-2.093129e-09
-1.668467e-09
-1.331068e-10
1.801574e-09
-8.376282e-10
-1.08702e-09
-1.223923e-09
-2.083176e-10
1.432241e-09
-1.519375e-09
-2.360157e-10
1.755391e-09
1.274178e-09
4.979499e-10
-1.772128e-09
1.498173e-09
6.692139e-10
-2.167387e-09
1.362436e-09
-3.510675e-10
-1.011369e-09
-1.175933e-09
1.007253e-09
1.686805e-10
1.971687e-09
-1.939859e-09
-3.182741e-11
3.147633e-10
1.428672e-09
-1.743436e-09
-3.816926e-10
2.009317e-09
-1.627624e-09
-2.043642e-09
4.205891e-09
-4.768556e-10
-1.211829e-09
1.688685e-09
-7.696572e-10
-2.1734e-09
2.943057e-09
1.897132e-10
-1.612441e-09
1.422728e-09
1.571618e-09
-1.060881e-09
-5.107376e-10
1.471224e-09
-1.999392e-09
5.281679e-10
1.317215e-09
7.09204e-10
-2.026419e-09
-1.196555e-09
1.789288e-09
-5.927334e-10
1.595383e-09
1.725981e-10
-1.767981e-09
2.581779e-09
-2.129566e-09
-4.522137e-10
-2.01961e-09
5.172511e-10
1.502359e-09
8.015859e-10
8.769085e-10
-1.678494e-09
9.323125e-10
-1.707639e-09
7.541044e-10
9.535343e-10
1.018125e-09
-1.313505e-09
2.953805e-10
8.564759e-10
1.794342e-10
-1.03591e-09
6.750138e-10
-1.434892e-09
7.598787e-10
1.474798e-09
-1.424049e-09
-5.074909e-11
5.138999e-09
-8.884351e-10
-1.825446e-09
8.848428e-10
9.406035e-10
-1.189725e-09
1.327914e-09
-1.38189e-10
-1.281535e-09
8.048375e-10
-1.421053e-09
-4.396296e-10
1.860682e-09
-3.662326e-10
1.906614e-09
-1.540381e-09
-1.040617e-09
-6.883459e-10
1.728963e-09
-1.521415e-09
1.174731e-09
1.993032e-09
-7.00642e-10
-1.29239e-09
-1.165061e-09
1.208239e-09
-4.317831e-11
-9.315885e-10
-5.721731e-10
1.503762e-09
1.970432e-09
-7.202305e-10
-1.250202e-09
1.276263e-09
-1.861269e-09
5.850064e-10
-1.18528e-09
-1.108311e-09
2.29359e-09
-5.196748e-10
1.590574e-09
-1.070899e-09
1.302264e-09
-5.884968e-10
-7.137668e-10
9.398096e-10
-6.302269e-10
-3.095827e-10
1.328937e-09
4.911287e-10
-1.820066e-09
9.566775e-10
7.916804e-10
-1.748358e-09
-1.210987e-09
1.849444e-09
-6.384564e-10
-1.263097e-09
-7.544215e-10
2.017519e-09
1.798279e-09
1.097323e-09
-2.895601e-09
1.930428e-09
-1.195203e-09
-7.352253e-10
1.445419e-09
-1.606486e-09
1.610675e-10
8.396799e-10
6.193412e-10
-1.459021e-09
4.158017e-09
-4.406291e-09
2.482735e-10
8.291686e-10
1.180108e-09
-2.009276e-09
-2.248768e-09
1.755033e-09
4.937346e-10
2.139096e-09
-1.40042e-09
-7.386761e-10
-1.750705e-09
9.895121e-10
7.611934e-10
9.655513e-10
-4.110372e-10
-5.545141e-10
-1.438505e-09
1.558495e-09
2.053839e-09
-2.009371e-10
-1.852902e-09
2.608371e-09
-2.993531e-09
3.851599e-10
2.791219e-09
-4.008013e-09
1.216794e-09
2.608935e-10
-1.534282e-09
1.273388e-09
-1.056629e-09
-1.192138e-09
-2.136706e-09
1.000837e-09
-1.286155e-09
2.277835e-11
1.263377e-09
-1.879075e-10
1.456763e-09
-1.268855e-09
1.479383e-09
-9.091528e-10
-5.702299e-10
1.03343e-10
1.766443e-09
-1.869786e-09
1.12855e-09
7.866219e-10
-1.915172e-09
-7.98657e-10
1.968806e-09
-1.170149e-09
-3.93585e-10
-7.951154e-10
1.1887e-09
1.442332e-09
2.083591e-09
-3.525923e-09
6.018842e-11
1.73809e-09
6.217629e-10
9.080905e-10
-1.529853e-09
8.86288e-10
6.122846e-10
-1.498573e-09
1.183348e-10
-1.618398e-09
1.500063e-09
6.743872e-10
6.574519e-10
-1.331839e-09
-4.133334e-09
7.170024e-10
3.416331e-09
1.891536e-09
-9.348589e-10
-1.761394e-09
8.402596e-10
9.211343e-10
-9.896304e-10
1.580059e-09
-1.052609e-10
-1.180832e-09
-5.981236e-10
1.778956e-09
3.734621e-10
1.017576e-09
-1.391039e-09
2.723565e-09
-1.674413e-09
-1.049152e-09
9.331879e-10
5.821163e-10
-1.515304e-09
1.66389e-09
-1.42127e-09
-1.679406e-09
1.343713e-09
3.35693e-10
-6.089413e-10
-1.027277e-09
1.636219e-09
1.138398e-09
-1.803759e-09
6.653612e-10
2.255048e-09
-8.532232e-10
-1.401824e-09
-2.76261e-10
-1.246197e-09
1.522458e-09
2.026936e-10
1.43031e-09
-1.633004e-09
1.152364e-09
2.431338e-10
-1.395498e-09
-1.088973e-09
1.438784e-09
-3.498113e-10
-2.124806e-10
1.270353e-09
-1.057872e-09
-1.378485e-09
-2.550683e-10
1.633553e-09
-1.238523e-10
1.793682e-09
-1.66983e-09
6.67954e-10
9.56583e-10
-1.624537e-09
-5.720947e-10
1.592031e-09
-1.019937e-09
-1.459694e-09
1.717875e-09
-2.581813e-10
-4.863492e-10
1.905518e-09
-1.419169e-09
-1.464897e-09
3.017262e-10
1.163171e-09
-1.724031e-09
1.710699e-09
1.333214e-11
9.288568e-10
5.775117e-09
1.3254e-09
-1.48591e-09
1.605104e-10
1.357797e-09
5.496749e-10
-1.907472e-09
8.241921e-10
8.968536e-10
-1.721046e-09
-2.984974e-09
-6.792902e-09
1.644021e-09
-1.161632e-09
-4.82389e-10
-1.307193e-09
1.459746e-09
-1.52553e-10
-1.637102e-09
1.003576e-09
6.335266e-10
-2.396948e-10
-1.436295e-09
1.675989e-09
1.14971e-09
-6.33988e-10
1.8916e-09
-8.622752e-10
-6.650943e-10
-1.063818e-09
1.492462e-09
-9.624561e-10
-1.506667e-09
4.879561e-10
1.018711e-09
1.774539e-09
-5.993305e-10
-1.175208e-09
-2.141845e-09
1.850017e-09
2.918274e-10
-9.87257e-10
-4.009862e-10
1.388243e-09
2.478338e-09
-1.570465e-09
-9.078721e-10
-1.87524e-09
1.364342e-09
5.10898e-10
4.917125e-10
-1.621609e-09
1.129896e-09
-2.601214e-09
1.920151e-09
6.810628e-10
-1.269754e-09
-1.799507e-10
1.449704e-09
7.399832e-10
-2.311487e-09
1.571504e-09
-9.091265e-10
-9.244457e-10
1.833572e-09
-4.484916e-10
1.673904e-09
-1.225412e-09
1.394433e-09
2.495881e-10
7.643688e-10
-1.929557e-09
1.165188e-09
-8.262773e-10
-8.420861e-10
1.668363e-09
-1.881358e-09
2.075175e-09
-1.938172e-10
1.174664e-09
-2.511521e-09
-2.447832e-09
-2.208993e-09
2.124838e-10
1.408647e-09
-1.621131e-09
9.41843e-10
7.369118e-10
-1.678755e-09
-4.015826e-09
2.545281e-09
1.470545e-09
1.850365e-09
-5.001151e-10
-1.35025e-09
-8.932452e-10
1.624517e-09
5.687708e-11
1.36568e-09
8.753235e-10
5.779923e-10
-1.453316e-09
1.513924e-09
4.678123e-11
-1.560705e-09
1.095851e-09
-1.816566e-09
2.059635e-09
-1.070557e-10
-1.952579e-09
-1.043326e-09
2.285419e-09
-1.242092e-09
-1.132867e-09
9.979231e-10
1.349437e-10
1.361469e-09
-2.090582e-09
7.291133e-10
2.068742e-09
-6.914547e-09
4.845805e-09
8.861172e-10
1.195281e-09
-2.081399e-09
-7.485541e-10
1.587766e-09
-8.392116e-10
-9.472531e-10
1.617437e-09
-6.701843e-10
2.290686e-09
-1.720342e-09
-5.703437e-10
1.462223e-09
-1.279537e-09
-1.826864e-10
9.038989e-10
-2.383964e-09
1.480065e-09
-6.306547e-10
1.879447e-09
-1.248792e-09
2.118808e-09
-1.745346e-09
1.79997e-09
-7.926274e-10
-1.007342e-09
-1.637057e-09
5.85338e-10
1.051719e-09
9.260237e-10
-1.070973e-09
1.449489e-10
1.638018e-09
-1.557668e-09
-8.035011e-11
4.126948e-09
-2.342791e-09
-1.784157e-09
-1.15615e-09
1.831163e-09
-7.953394e-10
1.583358e-09
-7.880189e-10
1.95562e-09
-1.578385e-09
-3.772348e-10
-1.744215e-09
3.186547e-09
3.812352e-10
-1.532122e-09
1.150887e-09
-2.099279e-09
1.136471e-09
9.628083e-10
-2.105166e-09
-4.74265e-10
2.579431e-09
1.206527e-09
-1.87734e-09
7.881937e-10
1.192445e-09
-1.980639e-09
-9.309239e-11
-1.426283e-09
-1.023665e-09
1.59497e-09
-5.713045e-10
8.668746e-10
-2.083516e-09
1.216641e-09
1.574148e-09
-1.714526e-09
1.403784e-10
6.196824e-10
-1.801064e-09
1.181381e-09
-2.166945e-09
1.485868e-09
6.810763e-10
4.103284e-10
-1.728726e-09
1.318398e-09
-1.198419e-09
-7.533136e-10
1.073153e-09
-1.705562e-09
6.324092e-10
1.668368e-09
-2.948056e-09
1.279688e-09
1.566504e-09
-1.016059e-09
1.351277e-09
-2.141661e-09
8.959181e-10
-1.935698e-09
1.03978e-09
1.832503e-09
-8.087296e-10
-1.023773e-09
1.206439e-09
-2.847266e-09
1.640827e-09
1.259474e-09
-2.131757e-09
8.72283e-10
-7.676077e-10
1.695003e-09
-9.273949e-10
-1.855823e-09
3.342565e-10
1.521567e-09
-1.557084e-09
1.447952e-10
1.412289e-09
-7.375221e-09
5.956473e-09
1.418748e-09
-1.389314e-09
-3.667191e-10
1.756033e-09
-2.382075e-09
8.279746e-10
1.554101e-09
-2.73616e-10
-6.237968e-10
-1.953973e-09
7.043692e-10
1.249604e-09
-4.525513e-10
-1.738837e-09
1.941209e-09
-9.245459e-10
-1.016663e-09
-1.415882e-09
1.423867e-09
-7.985391e-12
1.867824e-09
-9.817072e-10
8.196324e-10
1.266824e-09
-2.086456e-09
-1.661326e-09
1.519579e-09
1.417468e-10
5.659651e-10
9.112519e-10
3.636906e-10
-1.767024e-09
1.403334e-09
1.668881e-09
-2.508213e-10
-1.418059e-09
-1.823359e-09
8.430872e-10
9.80272e-10
2.016368e-09
2.666445e-10
-2.283012e-09
-1.49194e-09
1.391557e-09
-9.894253e-10
1.563616e-09
-5.741905e-10
-1.091673e-09
1.456491e-09
-3.648181e-10
9.074628e-10
-2.460643e-09
1.387962e-09
-9.618465e-10
-4.261153e-10
-2.290619e-10
1.654698e-09
-1.425636e-09
-7.815948e-10
1.601633e-09
-8.200384e-10
-1.425032e-09
1.824122e-09
-3.990901e-10
-1.973242e-09
1.960275e-09
-3.088977e-09
1.128701e-09
-1.66525e-09
1.086602e-09
5.786477e-10
-2.93613e-10
-1.397522e-09
1.691135e-09
1.283937e-09
-1.935278e-09
6.513411e-10
1.84228e-10
1.395286e-09
-1.579514e-09
-3.016008e-09
4.649415e-09
-1.633407e-09
-7.046711e-10
1.879869e-09
-1.175198e-09
-2.980856e-10
-8.63789e-10
1.161875e-09
1.313262e-09
-1.685149e-09
3.71887e-10
-3.669675e-10
1.446783e-09
1.079803e-09
-1.61779e-09
5.379869e-10
-1.094211e-09
-2.897476e-10
1.383958e-09
8.955224e-10
1.081415e-09
-1.976937e-09
1.275296e-09
4.970179e-10
-1.689233e-09
-9.090267e-10
-8.766968e-10
1.785723e-09
-2.69701e-09
-1.956841e-09
6.243269e-10
1.332514e-09
7.227847e-10
-1.524453e-09
8.016681e-10
4.739817e-10
1.598446e-09
-2.072428e-09
1.253267e-09
-9.376614e-10
-3.156053e-10
-6.323741e-10
-9.80066e-10
1.61244e-09
-1.920007e-09
1.268235e-09
6.517725e-10
-2.397709e-09
2.829536e-10
2.114756e-09
-1.489078e-09
-1.887388e-10
1.677817e-09
9.046824e-10
-1.886461e-09
9.817784e-10
1.243522e-09
9.324801e-10
-2.176002e-09
1.354625e-09
-4.379595e-10
-9.166652e-10
-1.301304e-09
9.127202e-10
3.885838e-10
-1.302962e-09
-1.677989e-09
2.980951e-09
7.119614e-10
-1.665756e-09
9.537942e-10
-1.341516e-09
1.7169e-09
-3.753844e-10
-7.984991e-10
-1.094225e-09
1.892724e-09
2.071735e-09
-1.178418e-09
8.22747e-10
-1.795562e-09
9.728151e-10
-1.27779e-10
-1.091599e-09
1.219378e-09
2.01693e-09
-1.215991e-09
-8.009395e-10
-1.60537e-09
2.268849e-10
9.923887e-10
5.781774e-10
-1.570566e-09
1.466119e-10
-2.005968e-09
1.859356e-09
-7.524362e-10
1.737658e-09
-9.852213e-10
-1.268538e-09
-6.195207e-09
7.463745e-09
-1.962125e-09
6.66505e-10
1.29562e-09
-9.825404e-10
-8.62732e-10
1.60852e-09
-7.457878e-10
-1.190381e-09
-9.14367e-10
2.104748e-09
2.526928e-09
-2.724894e-09
1.97966e-10
1.637415e-09
-1.260819e-10
-1.875048e-09
1.386491e-09
4.885572e-10
-1.058411e-09
-4.170354e-10
1.475447e-09
1.295404e-09
-1.791589e-09
4.96185e-10
-8.26508e-10
-1.085559e-09
1.912067e-09
2.020302e-09
-4.919295e-10
-1.528373e-09
-2.427685e-09
3.605526e-09
5.26298e-10
-1.42474e-09
8.984422e-10
4.659438e-10
1.250418e-09
-1.716362e-09
9.159192e-09
-9.159192e-09
-1.397294e-09
1.123824e-09
2.734693e-10
1.761851e-09
-8.747675e-10
-8.870834e-10
1.151254e-09
-1.626702e-09
1.515047e-09
-8.818295e-10
-6.332178e-10
-1.522936e-09
-1.730002e-10
1.695936e-09
1.392238e-09
1.798766e-09
-3.191004e-09
1.667332e-09
-9.743105e-10
1.441099e-09
-8.724204e-10
-5.686788e-10
1.58342e-09
-6.800443e-10
-9.033761e-10
1.797475e-09
-4.660539e-10
-1.331421e-09
8.676918e-10
-1.62684e-09
7.591487e-10
1.811924e-09
-4.829873e-10
9.231716e-10
4.830669e-10
-1.406238e-09
-7.881226e-10
-4.934129e-10
1.802894e-09
-1.399734e-09
-4.031605e-10
1.653122e-09
7.515285e-11
-1.621884e-09
1.546731e-09
-3.523481e-10
1.565578e-09
-1.21323e-09
7.090155e-10
1.578156e-09
-1.263393e-09
-8.49821e-10
1.716696e-09
1.781308e-09
-1.183928e-09
-5.973804e-10
2.173956e-09
-1.180416e-09
1.333111e-09
-1.54589e-09
2.127786e-10
3.778449e-10
-1.876469e-09
1.498624e-09
-3.994971e-10
-1.400866e-09
-1.546014e-09
1.469966e-09
7.604852e-11
1.240569e-10
-1.409676e-09
7.339066e-09
-2.140307e-09
2.513798e-09
1.031771e-09
-3.545569e-09
-2.672855e-09
1.369893e-09
9.222005e-10
-1.909064e-09
2.999777e-10
-1.088383e-09
7.884049e-10
-1.259812e-09
1.382302e-09
-1.224901e-10
-2.758004e-10
1.664368e-09
-1.388568e-09
1.290306e-09
6.012307e-10
-1.195202e-09
1.742074e-09
8.751575e-10
-1.775705e-09
9.00548e-10
5.763377e-10
-3.056575e-09
2.480237e-09
-1.815587e-09
-5.816655e-10
3.68787e-09
2.314142e-09
-6.002012e-09
-1.712577e-09
3.040014e-10
1.408575e-09
-7.04211e-10
1.749485e-09
-1.045274e-09
-2.854642e-09
-1.473345e-09
4.327988e-09
-2.216883e-09
-2.03207e-09
4.248954e-09
1.033155e-09
-1.477633e-09
4.444782e-10
-3.46856e-09
6.868142e-10
2.781745e-09
-1.517328e-09
6.270706e-10
8.902573e-10
-8.143703e-10
2.057893e-09
2.455361e-09
-2.515467e-09
6.01059e-11
1.057045e-09
7.429243e-10
-2.694381e-09
2.683522e-10
2.426029e-09
1.434214e-09
-3.402079e-10
-1.094006e-09
1.849596e-09
-5.718716e-10
-1.277724e-09
8.287743e-10
1.147156e-09
-1.721967e-09
2.501761e-09
-7.797947e-10
-4.208381e-10
-1.206242e-09
1.62708e-09
-1.606487e-09
7.914491e-10
8.15038e-10
-5.752413e-11
-3.411036e-09
1.362837e-10
-1.5352e-09
1.398917e-09
-1.190636e-09
2.058327e-09
-1.279319e-09
2.102222e-09
-8.229034e-10
-1.699687e-09
8.255923e-10
8.740947e-10
-1.115713e-09
1.549914e-09
-4.342011e-10
1.862085e-09
-9.869271e-10
-1.104499e-09
3.15471e-10
-9.88719e-10
1.881465e-09
-8.927458e-10
-4.332828e-11
-1.2095e-09
1.252828e-09
4.850058e-10
1.368344e-09
-1.853349e-09
5.142579e-10
-1.750324e-09
-6.639132e-10
2.014539e-09
-3.554866e-10
-8.677232e-10
1.22321e-09
1.751935e-09
-1.083981e-09
1.476713e-10
1.135567e-09
-1.283239e-09
-1.141336e-09
3.193508e-10
8.219857e-10
-3.92246e-10
1.531488e-09
-1.139242e-09
5.324364e-09
-3.665052e-09
-1.659311e-09
9.321038e-10
-1.608417e-09
6.763128e-10
-1.556e-10
1.412645e-09
-1.257045e-09
1.247479e-09
-1.38002e-09
1.325417e-10
3.948369e-10
-1.660094e-09
1.343576e-10
5.004428e-09
-1.038389e-09
-3.966039e-09
5.026343e-12
1.152792e-09
-1.157818e-09
-3.493567e-10
1.612102e-09
-1.262746e-09
2.742679e-09
-2.350385e-10
-2.507641e-09
-1.196151e-09
2.087133e-09
-8.909821e-10
-9.845425e-10
1.74127e-09
-7.56727e-10
-1.60385e-09
3.025463e-10
2.48388e-09
-2.168409e-09
-6.509613e-11
1.344623e-09
-1.279527e-09
4.257021e-10
1.292841e-09
-1.718544e-09
5.871778e-10
-1.15842e-09
5.712425e-10
-4.278573e-10
-1.175993e-09
1.29792e-09
2.62969e-09
-3.92761e-09
1.640493e-10
1.57134e-09
-1.735389e-09
3.091086e-09
1.477396e-10
-3.238826e-09
-1.196284e-09
1.893654e-10
-3.479152e-10
-9.826363e-10
1.330552e-09
2.69533e-10
3.294703e-09
-3.564236e-09
-1.684784e-09
5.80407e-10
1.104377e-09
1.197009e-09
7.442001e-10
-1.5326e-09
-3.388291e-11
1.566483e-09
-3.203793e-09
3.153602e-09
5.019148e-11
-1.620673e-09
-3.299135e-09
4.919808e-09
-1.284465e-09
1.769471e-09
1.86185e-09
-1.032646e-09
-8.292046e-10
6.025079e-10
1.92442e-09
6.692828e-10
7.186791e-10
8.476319e-10
9.84871e-10
-3.449303e-10
-1.513849e-09
1.858779e-09
7.964994e-10
-2.526092e-09
1.729592e-09
-1.489424e-10
-1.201453e-09
1.350396e-09
-1.633876e-09
1.715027e-09
-8.115029e-11
1.711675e-09
-9.888907e-10
1.263412e-09
-1.926717e-09
6.633046e-10
1.514092e-09
-1.76227e-09
2.481783e-10
-5.177104e-10
-1.841707e-09
2.359418e-09
1.283839e-09
-1.53466e-09
-5.534332e-10
-8.358811e-10
1.172287e-09
6.090206e-10
1.195243e-09
-1.654216e-09
4.58973e-10
4.79604e-10
-1.097249e-09
-2.10928e-09
1.985428e-09
4.419444e-10
1.048163e-09
-1.490108e-09
-1.2579e-09
1.863854e-09
-6.059546e-10
2.14599e-09
7.149369e-10
-2.080965e-09
1.366028e-09
1.484141e-09
-2.074776e-09
5.906346e-10
6.610871e-10
1.204995e-09
-2.34504e-09
5.292295e-09
-2.947256e-09
-1.855287e-09
1.557332e-09
2.97955e-10
-6.80623e-10
-9.933748e-10
-9.415951e-10
1.93497e-09
-6.242193e-10
1.785288e-09
-1.161068e-09
8.765814e-12
1.628649e-09
9.990636e-10
6.440856e-10
-1.643149e-09
-3.452069e-09
-4.636353e-12
-1.3737e-09
1.378337e-09
1.889365e-09
-1.407684e-10
-1.748597e-09
8.687183e-10
-1.372337e-09
1.555892e-09
-8.865759e-10
-6.693156e-10
1.155988e-10
-1.420047e-09
-1.98888e-09
-1.853873e-10
2.174268e-09
6.83902e-09
-1.65288e-09
-5.18614e-09
1.052946e-09
1.050925e-09
-1.770725e-09
1.96403e-09
-1.933056e-10
3.673331e-09
-3.730855e-09
1.356755e-09
2.316576e-09
-1.704399e-09
1.559374e-09
1.450251e-10
-4.480686e-09
3.004348e-10
4.180251e-09
-7.914831e-10
-9.161556e-10
-9.793859e-10
-9.064385e-10
1.885824e-09
-1.730977e-10
-5.087809e-09
5.260907e-09
1.206939e-09
8.340131e-10
-2.040952e-09
1.028547e-09
-1.777101e-09
-5.615129e-10
1.439906e-09
-8.783933e-10
9.997774e-10
-1.571872e-09
-1.299198e-09
1.429583e-10
1.15624e-09
4.748297e-10
1.414536e-09
-3.573505e-10
1.728154e-09
-1.370803e-09
5.366986e-10
-9.671722e-10
-6.282987e-10
1.595471e-09
-1.263287e-09
1.057691e-09
2.055953e-10
-1.438267e-09
-3.675299e-10
1.805797e-09
-9.696812e-10
2.230075e-09
-1.260394e-09
-1.608557e-09
-5.829778e-10
-1.6958e-09
1.77879e-09
-8.298985e-11
1.620826e-09
1.941133e-09
1.402579e-10
-2.081391e-09
-1.977637e-09
1.667439e-09
3.101978e-10
-1.688108e-09
7.532492e-10
1.145011e-09
-1.670797e-09
5.257854e-10
1.586397e-09
-3.264385e-09
1.208269e-09
-1.945144e-09
1.604261e-09
-1.448247e-09
-1.560145e-10
3.121352e-09
-1.623635e-09
-1.497718e-09
2.408743e-10
1.285229e-09
-1.526103e-09
-8.743664e-10
-8.870275e-10
-9.771989e-10
1.753977e-09
-7.76778e-10
-2.962151e-09
3.564658e-09
-9.565331e-10
1.866249e-09
-9.097164e-10
8.625539e-10
1.861011e-09
-6.420118e-10
1.848951e-09
9.535066e-10
-1.618601e-09
-4.031805e-10
-1.197839e-09
1.60102e-09
-2.511312e-10
-1.757403e-09
2.008534e-09
1.592088e-09
-7.418507e-10
-8.502373e-10
-1.163645e-10
1.539723e-09
-1.423359e-09
2.294694e-09
-3.221787e-09
1.609763e-09
-1.954693e-09
-7.59428e-10
2.157848e-09
-1.39842e-09
-1.287225e-09
-4.982379e-10
1.996251e-09
-9.784523e-10
-1.017799e-09
1.416432e-09
-1.688167e-09
2.717343e-10
1.657325e-09
-4.997715e-10
-1.157554e-09
-5.011304e-10
1.785393e-09
-7.127862e-10
-1.089606e-09
1.802392e-09
-2.005266e-09
1.090349e-09
9.149166e-10
-1.310484e-09
-6.974095e-10
2.007893e-09
2.052769e-09
-4.573854e-10
-2.700406e-09
-4.394642e-09
7.095048e-09
-2.919869e-09
3.626616e-09
-7.067467e-10
-2.086428e-09
4.164155e-09
-2.077726e-09
1.917627e-09
-1.842689e-09
-7.493834e-11
1.20585e-09
-1.869797e-09
6.63947e-10
7.554017e-10
1.296846e-09
-2.052248e-09
-5.650781e-09
2.572681e-09
3.0781e-09
6.959049e-10
1.253772e-09
-1.949677e-09
-1.897131e-09
9.5325e-10
9.438812e-10
8.393962e-10
1.085981e-09
-1.925377e-09
1.256603e-09
-2.07934e-09
8.227373e-10
2.524012e-09
-2.293178e-10
1.830211e-09
6.47315e-09
-6.005352e-10
-1.412221e-09
2.012756e-09
-1.579904e-09
-4.969664e-10
2.076871e-09
2.170529e-09
-2.102542e-10
-7.148982e-10
1.42686e-09
-1.013358e-09
1.780172e-09
-7.66814e-10
-1.524362e-11
-1.409788e-09
-5.836771e-09
3.368537e-09
2.468233e-09
1.272305e-09
7.092477e-09
-8.361015e-09
-1.741651e-09
1.730562e-09
1.108959e-11
1.876268e-09
-8.669986e-10
-1.00927e-09
-1.175432e-09
-2.890278e-10
1.46446e-09
-7.290624e-10
4.153641e-09
-3.424578e-09
-1.633282e-09
1.608221e-09
2.506041e-11
1.891227e-10
1.560526e-09
-1.749649e-09
1.097395e-09
2.272321e-09
-1.605776e-09
-5.851269e-10
1.704677e-09
-1.11955e-09
-1.110368e-09
-8.672683e-10
9.346914e-10
1.89923e-09
-2.833922e-09
-4.613595e-09
4.721532e-09
-1.07937e-10
-1.562748e-09
3.395976e-11
1.528788e-09
-1.848651e-09
5.058455e-10
1.342806e-09
-1.8872e-09
1.181097e-09
7.061025e-10
-4.143126e-10
-1.472887e-09
1.119095e-09
-6.856175e-10
-4.334776e-10
-1.68296e-09
1.311315e-09
1.205738e-09
-1.682465e-09
4.76727e-10
9.17833e-10
-1.860018e-09
9.421851e-10
7.221528e-10
-1.905842e-09
1.183689e-09
-9.681257e-10
1.856294e-09
-8.881686e-10
-1.494667e-09
-1.991658e-10
1.693833e-09
-1.055364e-10
1.439301e-09
1.783254e-10
-1.499178e-09
8.902369e-10
2.114052e-10
1.068032e-09
-1.279438e-09
-5.184616e-11
-1.349537e-09
1.401383e-09
1.496937e-09
4.22713e-10
-1.91965e-09
9.834096e-10
-1.496691e-09
1.236479e-09
2.602115e-10
-9.307838e-10
1.745878e-09
-8.15094e-10
-1.11228e-09
-7.924205e-10
1.9047e-09
1.272563e-09
-3.234857e-09
1.962295e-09
1.65214e-11
-2.219996e-09
3.240206e-09
-6.584265e-10
1.731948e-09
-6.805849e-11
-6.876302e-10
1.687408e-09
6.173148e-10
-1.579161e-09
1.549554e-09
-7.098744e-10
1.815036e-09
-7.41883e-10
1.030582e-09
-1.396814e-09
6.030872e-10
3.603689e-09
-4.206776e-09
-1.129156e-09
-2.025167e-10
1.331673e-09
9.149009e-10
-1.5536e-09
2.703518e-09
4.135502e-09
-1.686951e-09
1.482503e-10
1.538701e-09
1.658527e-09
9.548396e-11
-1.754011e-09
-8.158701e-10
2.10507e-09
-1.289199e-09
-1.862524e-09
1.611393e-09
2.36664e-09
-8.436643e-10
-1.522976e-09
1.916249e-09
-1.007882e-09
-9.083667e-10
-2.400183e-09
7.70311e-10
1.629872e-09
-2.207026e-10
1.63313e-09
-1.412427e-09
3.742999e-10
1.348351e-09
-1.722651e-09
1.747263e-09
8.080373e-10
1.334678e-09
1.900421e-10
-1.524721e-09
2.302624e-09
-3.509229e-09
1.704304e-09
-1.220504e-09
-4.837999e-10
-1.608986e-09
1.392709e-09
-7.259521e-10
-1.031547e-09
1.757499e-09
1.409662e-09
-2.135614e-09
-1.386058e-09
1.507101e-09
1.70539e-09
-1.229454e-10
1.23547e-09
-1.112525e-09
-1.179233e-09
1.387615e-09
-2.083821e-10
-1.981909e-09
8.579334e-10
1.123975e-09
-8.583862e-10
-1.117161e-09
1.975547e-09
-1.250659e-09
2.279206e-09
-1.360731e-09
2.154167e-09
-7.934358e-10
1.273886e-09
1.65817e-09
-4.62889e-10
6.675489e-10
1.302883e-09
-4.979309e-10
-1.277775e-09
1.729739e-09
-9.756341e-10
-1.894136e-09
5.217988e-10
1.480143e-09
4.912177e-10
-3.400173e-09
-3.620946e-10
3.762268e-09
-6.28826e-10
1.107965e-09
-4.791391e-10
-1.21477e-09
2.758109e-10
-1.8059e-09
1.530089e-09
2.056498e-09
-1.455799e-09
-6.00699e-10
1.369773e-09
-1.727636e-10
1.67623e-09
-9.833349e-10
-6.92895e-10
1.556401e-09
-1.048402e-09
-5.079989e-10
-1.42806e-09
1.564343e-09
-1.834343e-09
9.13532e-10
9.208107e-10
-2.216707e-09
-1.799119e-09
-1.33463e-09
-1.754347e-09
1.617159e-09
-1.318739e-10
1.677698e-09
1.276411e-09
-3.443072e-10
1.217223e-09
-1.310302e-09
9.30791e-11
2.097204e-09
-1.193306e-09
1.242078e-09
-2.496894e-10
-4.163638e-10
-1.89419e-09
2.310554e-09
1.008668e-09
-1.33477e-09
3.261013e-10
-1.663189e-09
2.413384e-10
1.421851e-09
7.134561e-10
6.672649e-10
-1.380721e-09
-1.826293e-09
4.502469e-10
1.376047e-09
-1.79026e-09
4.295289e-10
-9.164418e-09
3.218887e-09
5.945531e-09
1.394806e-09
-7.583861e-10
-6.364203e-10
-1.633646e-09
-7.627755e-10
-8.986564e-10
1.661432e-09
-1.916381e-09
-1.330042e-09
4.691444e-10
8.608977e-10
8.855442e-11
1.33797e-09
-1.426524e-09
-1.896662e-09
6.946272e-10
1.202034e-09
-1.669241e-09
6.366762e-10
1.032564e-09
-1.79709e-09
2.252935e-09
-4.644021e-09
2.391086e-09
-1.670303e-09
3.527601e-10
1.317543e-09
-2.673449e-10
1.893832e-09
-1.626487e-09
1.178132e-09
5.065863e-10
-1.684718e-09
7.245281e-10
-1.968361e-09
1.243833e-09
1.237169e-09
-1.941121e-09
7.039522e-10
-8.279991e-10
1.704764e-09
-8.767649e-10
9.028182e-10
-1.957405e-09
1.054587e-09
-1.036336e-09
1.522766e-09
-4.864301e-10
8.473283e-10
-1.855942e-09
-1.500261e-10
-7.025975e-10
2.561954e-09
3.701798e-10
1.694183e-09
-2.064363e-09
-1.761722e-09
1.057051e-09
3.450578e-09
6.778557e-09