/*--------------------------------*- C++ -*----------------------------------*\
| =========                 |                                                 |
| \\      /  F ield         | OpenFOAM: The Open Source CFD Toolbox           |
|  \\    /   O peration     | Version:  2406                                  |
|   \\  /    A nd           | Website:  www.openfoam.com                      |
|    \\/     M anipulation  |                                                 |
\*---------------------------------------------------------------------------*/
FoamFile
{
    version     2.0;
    format      ascii;
    arch        "LSB;label=32;scalar=64";
    class       volScalarField;
    location    "2.98";
    object      p;
}
// * * * * * * * * * * * * * * * * * * * * * * * * * * * * * * * * * * * * * //

dimensions      [0 2 -2 0 0 0 0];

internalField   nonuniform List<scalar> 
15536
(
-56.22268
-51.51973
-45.57993
-39.21012
-33.30521
-28.43113
-24.735
-22.37019
-21.71574
-22.04295
-22.9855
-24.52732
-25.99253
-26.754
-26.66207
-26.8417
-27.15893
-26.96688
-23.63696
-17.39198
-10.87652
-4.394645
0.3242014
2.785961
3.796635
0.4909253
-7.692995
-21.09412
-49.12202
-94.96342
-127.3679
-100.0155
-33.93874
-19.25617
-42.01985
-70.40073
-93.67686
-95.80178
-82.46176
-78.46951
-82.79291
-88.50135
-92.58713
-94.75551
-95.71684
-95.5105
-94.32492
-92.1149
-89.36318
-86.22336
-82.37719
-77.92625
-72.84463
-67.36964
-61.45579
-55.17543
-48.85278
-42.41276
-35.62666
-28.67214
-21.82886
-15.11259
-8.422699
-1.817063
4.574195
10.83526
16.80465
22.45805
27.6923
32.50487
36.85682
40.74889
44.14593
46.97419
49.19062
50.89623
51.96487
52.44025
52.35985
51.80787
50.48847
48.5079
45.94814
42.80527
39.10057
34.85351
30.13283
24.85192
19.17535
13.14618
6.611522
-0.2376537
-7.33459
-14.86754
-22.55613
-30.18896
-37.99578
-45.95967
-53.88652
-61.86355
-69.72793
-77.28793
-84.49859
-91.45211
-98.27803
-104.6537
-110.5591
-115.947
-120.836
-125.3012
-129.0486
-131.9939
-134.1975
-135.6357
-136.1885
-135.5427
-133.4446
-129.4808
-123.9432
-118.9659
-120.1596
-132.2957
-139.4484
-122.4501
-90.57019
-58.64588
-54.31337
-127.6931
-179.5434
-156.0071
-100.3377
-62.63157
-46.88307
-39.12758
-29.48473
-15.12532
-4.2357
-5.015247
-7.274081
-10.78748
-25.13902
-39.96699
-50.83204
-56.34659
-57.55884
-55.99866
-53.32991
-51.82915
-53.22358
-55.75983
-54.9982
-52.53747
-53.02897
-55.38781
-57.87734
-59.35288
-58.93766
-55.92173
-51.19486
-45.25264
-38.92062
-33.08641
-28.29001
-24.65754
-22.32893
-21.69606
-22.03604
-22.98172
-24.52107
-25.99101
-26.75381
-26.6695
-26.8642
-27.18157
-26.99031
-23.64186
-17.38456
-10.86785
-4.363805
0.3921807
2.850343
3.770195
0.4196783
-7.713505
-21.01788
-48.9788
-94.82439
-127.4385
-100.1125
-34.06369
-19.4161
-42.19242
-70.55816
-93.8027
-95.73656
-82.41856
-78.42249
-82.41311
-87.77415
-91.56279
-93.53111
-94.40438
-94.16205
-92.96144
-90.74779
-88.00136
-84.8855
-81.06939
-76.65702
-71.61702
-66.19009
-60.33269
-54.1111
-47.84816
-41.47291
-34.75693
-27.869
-21.09303
-14.44508
-7.822557
-1.279969
5.048377
11.24544
17.15269
22.74921
27.93133
32.69486
37.00306
40.85663
44.22005
47.02219
49.21671
50.90661
51.96591
52.43748
52.35709
51.80781
50.49749
48.53508
45.99921
42.88562
39.21598
35.01001
30.33522
25.10586
19.48783
13.51708
7.04632
0.2687635
-6.759425
-14.22507
-21.83525
-29.39095
-37.12251
-45.00734
-52.85559
-60.7553
-68.54406
-76.02898
-83.16839
-90.05928
-96.82805
-103.1459
-109.0017
-114.3434
-119.194
-123.6311
-127.3552
-130.2906
-132.5033
-133.9646
-134.5626
-133.9967
-132.0723
-128.45
-123.3063
-118.7688
-120.1423
-132.1744
-139.5145
-122.7058
-90.74259
-58.9207
-54.17176
-127.8626
-179.7469
-155.8184
-100.0558
-62.38851
-46.71594
-39.06643
-29.53695
-15.22685
-4.278862
-4.946239
-7.162629
-10.71418
-25.14066
-39.98473
-50.8444
-56.33626
-57.55258
-55.9947
-53.33427
-51.84458
-53.24353
-55.76885
-54.97725
-52.5355
-53.00139
-55.2933
-57.71108
-59.12493
-58.66693
-55.57276
-50.87588
-45.01024
-38.7559
-32.97694
-28.22387
-24.62758
-22.30986
-21.68899
-22.03704
-22.98049
-24.52258
-26.00028
-26.7666
-26.68364
-26.86249
-27.19238
-27.12049
-23.7044
-17.39768
-10.86772
-4.357539
0.4454237
2.856448
3.692201
0.2742847
-7.755291
-20.92698
-48.94663
-95.10549
-128.4016
-101.5146
-34.29085
-19.13086
-42.12917
-70.52067
-93.78666
-95.74192
-82.56289
-78.4141
-82.03565
-87.01083
-90.64402
-92.6326
-93.57353
-93.35439
-92.19182
-89.99734
-87.26281
-84.1738
-80.36947
-75.98021
-70.96042
-65.56736
-59.74702
-53.54007
-47.30418
-40.9694
-34.27891
-27.42059
-20.67604
-14.06624
-7.4808
-0.967554
5.321253
11.49006
17.36407
22.92997
28.08293
32.81912
37.10005
40.92906
44.27029
47.05608
49.23211
50.91023
51.96188
52.42937
52.34934
51.80267
50.49942
48.55198
46.03324
42.93969
39.29383
35.11382
30.46873
25.26525
19.68041
13.74441
7.303544
0.5634464
-6.425146
-13.85703
-21.4289
-28.93997
-36.63642
-44.4868
-52.28961
-60.16487
-67.91782
-75.3722
-82.48275
-89.32918
-96.06522
-102.3477
-108.1793
-113.4952
-118.3216
-122.7421
-126.4406
-129.3487
-131.5301
-132.9637
-133.5307
-132.9186
-130.9097
-127.375
-122.598
-118.5028
-120.0637
-132.2142
-139.4304
-122.4113
-90.68267
-58.78009
-54.00833
-129.2515
-181.1894
-156.2832
-100.0594
-62.18069
-46.59272
-39.08014
-29.68694
-15.4582
-4.444287
-4.976596
-7.136914
-10.80189
-25.23119
-40.0723
-50.89776
-56.34365
-57.54892
-55.9635
-53.3203
-51.85224
-53.2473
-55.74744
-54.98119
-52.56971
-53.01038
-55.22601
-57.54804
-58.87656
-58.34726
-55.17137
-50.51682
-44.72464
-38.55175
-32.84617
-28.15458
-24.60949
-22.29997
-21.68899
-22.04616
-22.98297
-24.51409
-26.01664
-26.7842
-26.70167
-26.80417
-27.16448
-27.32916
-23.81703
-17.44131
-10.87732
-4.361941
0.5080311
2.959782
3.664029
0.1254812
-7.754963
-20.79948
-49.02924
-95.83347
-130.0323
-103.9806
-34.90126
-18.32093
-41.61633
-69.6655
-91.88633
-94.10702
-82.28009
-78.35345
-81.46722
-85.92234
-89.27448
-91.04583
-91.84245
-91.5771
-90.43086
-88.25562
-85.54504
-82.50191
-78.76287
-74.44734
-69.49839
-64.17578
-58.43688
-52.3131
-46.15379
-39.9058
-33.31352
-26.53174
-19.86511
-13.33969
-6.837312
-0.3963377
5.812277
11.91267
17.71851
23.22632
28.32136
33.00401
37.23804
41.0273
44.33355
47.09513
49.24459
50.90781
51.95037
52.41318
52.33416
51.7895
50.49257
48.56615
46.07165
43.00718
39.39806
35.2615
30.66875
25.51403
19.99562
14.1253
7.748253
1.09317
-5.816523
-13.17932
-20.65209
-28.06938
-35.68277
-43.43389
-51.13855
-58.92077
-66.57807
-73.92756
-80.93436
-87.7015
-94.35846
-100.5468
-106.3011
-111.5331
-116.2959
-120.6701
-124.3201
-127.1837
-129.3413
-130.7837
-131.3871
-130.8735
-129.1098
-125.8493
-121.5746
-118.054
-119.6152
-130.6888
-136.7457
-120.5794
-89.99601
-58.22612
-54.30817
-131.7915
-183.4323
-157.1907
-100.2897
-61.99204
-46.46237
-39.09944
-29.86176
-15.76057
-4.697543
-4.99452
-7.231946
-11.13919
-25.53094
-40.25043
-50.99783
-56.30705
-57.40992
-55.84304
-53.24384
-51.77836
-53.04443
-55.32795
-54.66491
-52.55604
-53.00977
-55.08907
-57.27538
-58.52172
-57.9589
-54.78742
-50.18449
-44.49117
-38.40792
-32.76184
-28.1237
-24.63038
-22.31653
-21.70451
-22.06855
-22.99854
-24.52561
-26.05178
-26.81868
-26.72996
-26.70293
-27.13372
-27.57467
-23.9726
-17.51061
-10.90316
-4.376618
0.6313712
3.283925
3.789766
0.0622785
-7.660658
-20.63887
-49.28829
-97.12426
-132.2979
-106.9398
-36.78392
-18.35248
-41.25112
-67.75009
-87.69116
-90.462
-81.26243
-78.13996
-80.80872
-84.84817
-88.01485
-89.70589
-90.60606
-90.34615
-89.21993
-87.05042
-84.2904
-81.29628
-77.54445
-73.25817
-68.31792
-63.03816
-57.35916
-51.25663
-45.14393
-38.97586
-32.44454
-25.70846
-19.10279
-12.65702
-6.225292
0.1634301
6.29383
12.33916
18.08113
23.53055
28.56367
33.19656
37.38272
41.12967
44.39296
47.12741
49.24734
50.89304
51.92624
52.38398
52.30641
51.76116
50.4678
48.57153
46.10944
43.07805
39.50836
35.41528
30.87677
25.76866
20.3233
14.51372
8.184917
1.621139
-5.209742
-12.53325
-19.91924
-27.24425
-34.79824
-42.48106
-50.09248
-57.82405
-65.42076
-72.70517
-79.65389
-86.35933
-92.98474
-99.11279
-104.8444
-110.0405
-114.7755
-119.1712
-122.7727
-125.6437
-127.816
-129.2672
-129.8704
-129.2873
-127.4782
-124.3582
-120.4734
-117.434
-118.7088
-127.4699
-131.6931
-116.9149
-89.08098
-58.38358
-56.57924
-134.6828
-186.0663
-158.5316
-100.7443
-61.94761
-46.32536
-39.04123
-29.90511
-15.9812
-4.866693
-4.880975
-7.478482
-11.85184
-26.14611
-40.62047
-51.23702
-56.32887
-57.28944
-55.72949
-53.13814
-51.62307
-52.59558
-54.39284
-53.93747
-52.40811
-52.97361
-54.9345
-57.00276
-58.16217
-57.5662
-54.41158
-49.86771
-44.298
-38.3022
-32.71473
-28.13852
-24.70815
-22.37707
-21.75532
-22.10842
-23.03635
-24.55603
-26.09874
-26.86418
-26.7899
-26.66781
-27.16825
-27.82571
-24.15507
-17.60066
-10.95004
-4.38443
0.8500446
3.874408
4.109298
0.164323
-7.453972
-20.50277
-49.60886
-98.81716
-134.7254
-109.8956
-40.70394
-20.32188
-41.90333
-65.99787
-83.51819
-86.49843
-79.82085
-77.58655
-79.81334
-83.35144
-86.21877
-87.61932
-88.38488
-88.00553
-86.96249
-84.8409
-82.12232
-79.26353
-75.59592
-71.42577
-66.56844
-61.3717
-55.79498
-49.76821
-43.76135
-37.71683
-31.27541
-24.62183
-18.12446
-11.77955
-5.446061
0.8683324
6.88706
12.86185
18.5137
23.87394
28.83898
33.42165
37.54765
41.24051
44.44472
47.15514
49.23748
50.85729
51.88246
52.33403
52.25732
51.70995
50.42255
48.55939
46.14132
43.15288
39.63139
35.59185
31.1127
26.05246
20.71326
14.98919
8.699619
2.245252
-4.444746
-11.70944
-18.99352
-26.17745
-33.62418
-41.21459
-48.70169
-56.32488
-63.81041
-70.97963
-77.79645
-84.39333
-90.94372
-96.93398
-102.5795
-107.6559
-112.2965
-116.6079
-120.1219
-122.8895
-124.9107
-126.3778
-127.0402
-126.649
-125.0846
-122.2676
-118.9106
-116.3982
-117.3708
-123.9245
-126.5293
-113.4531
-88.85393
-60.68025
-61.8079
-137.6499
-188.1952
-159.9254
-101.3598
-62.12011
-46.22245
-38.84564
-29.63323
-15.85703
-4.657977
-4.420531
-7.822064
-13.08699
-27.19859
-41.34338
-51.7453
-56.48449
-57.24692
-55.65253
-53.01826
-51.41184
-52.0163
-53.32917
-53.06025
-52.12818
-52.87281
-54.76318
-56.74059
-57.82092
-57.18884
-54.06488
-49.62364
-44.17562
-38.19941
-32.73037
-28.2274
-24.86162
-22.48326
-21.87823
-22.20041
-23.11374
-24.62769
-26.1796
-26.96184
-26.91397
-26.74646
-27.32864
-28.09815
-24.42767
-17.73685
-11.05114
-4.369427
1.202892
4.722151
4.598864
0.4702188
-7.206382
-20.41909
-49.80549
-99.86367
-136.5685
-112.4452
-46.51053
-24.75648
-43.40622
-64.25236
-79.59494
-82.8348
-78.2482
-76.82483
-78.73616
-81.83438
-84.53156
-85.71039
-86.58036
-86.19002
-85.11862
-82.9405
-80.11711
-77.35311
-73.66003
-69.5934
-64.75304
-59.57305
-54.1232
-48.21376
-42.26921
-36.28669
-29.983
-23.46018
-17.04258
-10.74475
-4.587605
1.657565
7.540404
13.44618
18.97294
24.24457
29.20078
33.6768
37.71143
41.32989
44.47695
47.20949
49.21102
50.79895
51.81381
52.2539
52.17875
51.64647
50.37649
48.50274
46.11823
43.18748
39.73211
35.78561
31.3864
26.35023
21.12486
15.54107
9.338143
2.927451
-3.651813
-10.74436
-17.9411
-25.02423
-32.33848
-39.74557
-47.18965
-54.72945
-62.03598
-69.13301
-75.7998
-82.29632
-88.8154
-94.66932
-100.2908
-105.2526
-109.8743
-114.2446
-117.6775
-120.4782
-122.7164
-124.1864
-124.8257
-124.3144
-122.8163
-120.1894
-117.2879
-115.1648
-115.7798
-120.4827
-121.6571
-110.0232
-88.87935
-65.08232
-69.03409
-140.1297
-188.2669
-160.4718
-101.8461
-62.73944
-46.32243
-38.30265
-28.76086
-15.18648
-3.93073
-3.478748
-8.199121
-14.91877
-28.78418
-42.44765
-52.53714
-56.8522
-57.35541
-55.60784
-52.86122
-51.11351
-51.29452
-52.16225
-52.12196
-51.74842
-52.71518
-54.58838
-56.49081
-57.48542
-56.81911
-53.86893
-49.58547
-44.13262
-38.18137
-32.88222
-28.40288
-25.0637
-22.60032
-22.05156
-22.37704
-23.26465
-24.76078
-26.30611
-27.09922
-27.14236
-27.01116
-27.61924
-28.33923
-24.79424
-17.99902
-11.24644
-4.379943
1.616439
5.571117
5.232339
1.029717
-7.192437
-20.16867
-49.2359
-98.93321
-136.033
-112.6153
-52.79089
-31.1111
-45.32849
-62.38446
-75.6756
-79.22084
-76.34603
-75.60656
-77.18053
-79.72183
-82.29804
-82.89604
-83.67886
-83.23061
-82.29615
-80.35936
-77.32824
-74.76051
-71.19558
-67.30406
-62.43171
-57.32967
-52.23509
-46.48656
-40.30242
-34.50159
-28.58931
-22.2287
-15.63832
-9.470033
-3.712653
2.561777
8.228362
14.10827
19.39651
24.75394
29.70518
33.92529
37.84171
41.35969
44.48988
47.26004
49.12198
50.72662
51.71314
52.13671
52.07592
51.57956
50.29018
48.40413
46.01055
43.15074
39.7728
35.94078
31.73737
26.68622
21.54219
16.12742
10.25397
3.900134
-2.93981
-9.716459
-16.53782
-23.76786
-31.00408
-37.93551
-45.21342
-53.0657
-59.88052
-66.98442
-73.46175
-79.76088
-86.27699
-91.8491
-97.51407
-102.1953
-106.6596
-111.0814
-114.3328
-117.0183
-118.9038
-120.3966
-121.2124
-120.8583
-119.5982
-117.254
-114.9987
-113.3369
-113.6991
-116.8385
-116.6443
-106.4439
-88.90214
-70.52117
-76.44
-140.1294
-183.2539
-156.6366
-100.7628
-63.60495
-47.03426
-37.93189
-27.29873
-14.10086
-2.653966
-2.339265
-8.720056
-17.32152
-30.89584
-44.07835
-53.91057
-57.54467
-57.46304
-55.45987
-52.67665
-50.70441
-50.39841
-50.83482
-51.0907
-51.27811
-52.51329
-54.40131
-56.25664
-57.17237
-56.50403
1.551506
0.9209756
-30.50015
-18.45779
12.25961
-16.02828
0.5262803
0.6487964
11.70825
-1.93591
-1.892122
1.590909
-0.7448656
-0.04844569
0.2314346
3.298405
2.040434
-3.562817
0.8679155
0.4745825
-66.10045
-1.423063
2.529182
-2.131451
0.8963303
1.098131
1.852842
-1.598524
-7.638596
-0.2954595
0.9465651
-16.94185
1.434367
-1.14576
1.622789
-5.381323
-5.421643
-0.05082994
-18.37231
-6.577578
-23.44769
2.165501
0.7457716
3.206321
33.99742
0.7759775
-2.073621
1.991551
-11.55522
-1.592476
1.901237
-1.575952
-9.183798
1.050973
0.1485353
23.42906
-5.576858
1.454247
-14.14019
-22.68125
-1.528179
-0.01741382
-8.965285
0.9703943
-1.023281
0.9649922
-26.17459
-0.08944389
-3.435845
-0.6841955
-0.6319807
0.5904179
6.465278
-39.7456
22.47475
-0.1825751
4.27404
-3.049998
-2.267504
1.121518
-23.05238
0.2970774
3.537688
1.636817
-11.9457
1.02663
1.474479
0.6781801
-24.15661
-14.37968
-18.24929
22.58519
1.088578
-0.6290651
0.7311822
1.936423
-6.008698
5.888656
-42.11539
0.7787593
0.6624084
0.6022166
1.447636
-93.64677
-0.02298066
-14.26798
1.018033
0.5516707
-2.60261
-8.06707
1.167669
0.602159
0.9897428
7.579639
-17.84714
0.1899632
-0.2928571
-0.465424
20.71218
0.3358488
1.91969
0.7533551
-0.6649117
-0.3625884
-0.3054525
0.5441223
-0.04042806
-22.06562
0.7571867
1.142692
0.4432113
-0.253878
1.387397
0.3852693
-0.8815739
-38.36859
0.2938296
7.785809
0.7722045
-0.16178
-28.20121
0.3862886
-69.87497
1.056239
0.2592901
-8.771885
0.04173306
-45.73918
-0.2010342
-0.5223938
1.196038
-15.50463
-58.61984
-2.235363
-41.48883
-51.89708
-0.3223636
2.285219
1.229072
-36.86638
1.277669
-40.31383
-10.99422
0.1742237
0.35194
-37.4383
-24.12071
1.957847
-27.00462
-0.04838721
0.9414697
20.13233
1.922227
-29.23906
-7.417213
-1.921142
2.743014
0.7635745
-42.23303
-2.88603
16.41237
1.609273
-0.6103994
0.1828798
3.457106
-49.92718
-0.6887493
-0.1520693
-35.39387
0.9413354
-0.1331347
0.7586953
-10.04305
-2.466154
0.7932852
0.5559571
-1.120331
0.2358891
-5.639197
-36.53711
0.4200521
-4.104433
1.298709
-26.14926
-1.029575
-2.947152
-8.300883
-4.429025
-10.13812
0.6008769
1.036221
0.7028667
-3.386494
-6.658286
1.689799
-4.200427
-12.75666
0.6329324
4.481532
0.9268063
0.9807779
-8.050983
3.239252
2.972852
-3.583723
-1.632193
-1.228525
8.15506
-2.859501
19.70214
-3.534083
-27.66788
4.210352
-0.02773896
-82.70525
-0.08957789
27.32823
-21.12948
2.488568
0.04768454
0.2517502
0.9084656
-0.0539857
-8.660345
1.00763
-41.53105
-0.3367079
-37.16407
-0.3845604
0.3996177
-36.28898
0.9818202
0.8789893
0.5767092
3.242456
-30.03734
1.142811
0.6721338
-22.50692
-4.988084
-1.979964
0.2382925
-13.90954
-1.227866
-0.4678512
2.645342
0.6168718
-0.16865
1.008996
-28.57075
1.156701
1.295341
13.06461
-0.9889304
1.329817
3.651934
1.897366
-21.90806
-44.37447
0.08486473
-1.292346
0.9047014
-6.807716
1.019955
0.8680036
1.184463
36.2846
-0.1972795
2.237853
-0.5250473
2.102035
-0.03308551
0.6603324
0.1944506
-33.22841
-3.35563
-13.51187
0.114556
1.7965
-0.08731638
-46.44774
-1.633726
-19.96924
-31.20577
-0.3858101
-0.06578076
-0.4550408
-0.133161
0.9299904
2.020947
-4.364801
1.15688
-0.6471178
0.6846271
-0.377875
-13.90466
35.11673
-68.80154
-29.49729
-60.19578
-0.7713211
0.1935065
0.8963907
0.209436
0.1716978
-2.034786
-0.3644456
-0.3361468
0.2579208
-1.596666
18.49823
2.359934
-8.71997
-64.80456
-2.126736
2.226887
-2.087751
0.3558514
-4.754732
0.0234316
-40.1882
-0.6369626
0.76426
-0.06834451
-14.79353
4.38942
-12.97021
-0.264864
-12.34838
-0.8013715
-9.53392
-3.61561
14.01091
1.326736
-0.7472987
-39.00269
-56.55726
0.09824757
1.024952
0.7735952
1.791436
-18.38791
-2.320635
2.444434
0.5847181
2.343797
2.032999
1.210229
0.8600862
1.623898
-3.62425
13.31439
-41.44793
-0.09052215
2.304549
1.15448
1.344645
1.318549
2.084139
1.415118
0.9662285
1.872794
-0.03565345
-9.521611
-0.01555369
1.355338
2.002011
38.25201
2.30436
-0.7380387
2.185701
0.2912044
2.34909
-38.19839
-0.01876609
-1.141872
0.9215685
-16.75536
0.9454643
0.1718153
2.267735
0.3930879
-31.95207
-1.068227
-0.7367276
1.96692
-31.72446
-54.07695
2.366827
1.79141
1.221409
0.7282108
-0.2154217
0.9159695
2.194734
-0.888045
2.003065
-34.46669
1.319103
-16.60771
-0.05730291
-0.1919693
4.615122
-0.6167797
-0.2933377
-29.12672
1.780221
1.516606
-45.36244
-14.04311
1.934257
1.441114
0.5364543
1.189367
1.399423
-0.3709201
-0.2628913
-6.583211
-0.1752936
0.5646194
-1.629802
-0.2031939
0.498903
-0.04248051
-5.239502
1.043507
1.216636
2.477378
-1.729433
-0.3874013
0.5278603
-32.07877
2.040443
-6.190181
-0.6067262
-0.2766855
2.593444
5.111656
1.112205
-21.79409
0.7438811
-32.87933
0.4997182
-0.9036911
-1.19573
-0.5592645
26.62814
-0.02481873
4.18933
-1.969878
-11.85479
-1.337305
0.9918951
8.191431
-1.483463
-5.324033
-16.05838
-29.72798
0.122224
0.2592745
-22.76872
-0.3238954
0.957019
0.3111185
0.3788611
-0.9395395
2.757288
17.05953
-2.993397
2.035604
-2.163607
-26.54337
-0.8490606
1.23912
-21.43591
0.8573454
1.228276
4.108869
-1.601069
3.979519
0.9725438
0.4479674
-10.79052
-5.636419
2.344585
1.0839
0.6668825
-4.336575
-27.64494
-3.99134
-27.50927
4.782304
16.32552
-2.36742
0.4354834
0.9900297
-1.320969
-0.7319342
0.04439315
1.021247
0.8854461
-0.1724171
-6.726713
-1.196978
1.379672
-0.581297
-0.1179619
3.774755
1.326068
1.949818
-28.81459
0.05729761
-29.11097
0.4566198
4.407562
4.635647
3.574508
-0.8855919
1.031419
0.7563621
4.651013
1.021455
0.3465755
1.781474
-41.11244
2.90679
3.945783
-1.027898
1.611083
8.048137
0.9401114
5.956532
2.166777
-4.101922
2.026495
-0.1274659
1.193557
-17.71204
16.46349
-2.564426
-5.796925
-0.3922718
1.334254
1.195943
0.4697559
1.214562
1.2681
9.221068
32.20508
-1.631565
1.009872
6.132894
1.285046
-65.72928
1.535747
3.10701
1.116141
3.198811
-0.9529293
-2.388059
-10.9697
-1.911609
6.254793
-0.04945245
-0.5392939
-24.6386
1.672072
1.464645
-85.80471
-4.616372
-1.118523
-17.8087
0.7972819
-0.682636
1.130809
0.611017
0.8630521
-45.48624
1.364897
1.068146
1.045546
-1.130729
-8.728974
-0.182731
1.703696
-14.40562
-6.508361
0.4819161
-16.87414
-0.1309758
4.861113
-0.5294439
-37.27681
1.303082
9.251995
-11.27099
-0.5895055
1.27143
4.069731
4.472818
1.725848
-3.32637
0.8775704
-21.72192
1.174391
18.47626
2.746754
-0.1271771
-0.7700641
-2.891627
-3.326832
-1.950956
-16.11016
-23.30341
-42.25165
-9.514132
-12.55976
0.6168832
-0.7609223
1.146311
1.049931
-0.6174482
1.278943
-1.069026
-1.324462
0.7630849
0.9206373
-28.07057
-7.134848
26.20644
4.615849
-26.65927
-7.858719
-2.90274
7.336633
-3.36331
-19.33312
1.337871
1.708353
-14.3485
0.5288051
1.291037
0.3830278
1.260434
-2.144087
0.178386
-12.50845
2.850881
1.041109
-2.097148
1.190513
1.29804
-91.42083
-19.80215
1.172271
5.832491
-24.20551
0.6379309
-0.02340465
5.951606
14.34053
9.826938
2.259314
-8.150499
1.180989
-3.673476
-0.5380852
-3.226983
3.017715
0.9147038
-17.23508
2.435793
-52.89889
-2.036584
-2.596143
1.783129
-38.40009
1.912957
0.8605497
0.595329
-2.995828
-11.65329
2.199063
-2.865817
4.213331
-4.58361
2.245108
1.009306
-16.99446
-7.485985
0.9735375
0.485755
1.307551
0.8682165
-1.21555
-0.1555472
1.657181
-48.47089
-0.9234009
-2.656425
0.1191373
0.8503315
-0.2046982
1.052417
-1.05186
0.3666492
0.4620331
-28.58528
1.148837
1.099355
1.201382
0.9758816
0.9392125
0.3524627
-1.053884
1.285741
0.1041962
4.508416
-33.61447
1.162547
-0.05346469
-0.1256066
1.308646
-0.003033746
2.598132
-0.5978512
-55.36693
2.949182
5.019211
9.76982
-2.108841
-9.363232
-8.958678
-8.816222
-5.991493
-27.14212
1.977499
-7.235504
-12.88665
-6.507779
-5.024602
-0.4042297
2.366583
13.11485
1.477027
1.665581
-34.93371
0.3033209
0.822655
1.004629
-11.13408
23.72237
1.166373
1.489722
2.667135
1.252355
-0.4342875
-3.866503
-2.885806
1.055367
-0.1608959
-1.58276
1.275651
1.424765
4.516129
1.333945
1.423313
-3.902636
0.6882064
-0.2399036
-1.025386
9.149556
31.57285
-3.479805
1.486786
0.4000207
0.3321879
-7.193752
-0.2999395
-65.53201
0.2058355
-49.65957
-5.588777
-0.6361664
-2.402761
1.589953
-2.049677
0.5756121
1.444969
1.290507
1.274082
-3.453635
-44.31126
1.099096
-1.384851
0.6762485
-0.3166246
-1.1998
2.67966
-18.86059
-4.050515
16.55916
0.802907
0.3628496
-0.3677001
-0.452904
2.043872
0.2424155
-0.07115255
0.4549025
-17.7287
0.7030793
8.73011
-38.13677
-4.657624
2.584215
-6.211078
0.06536942
0.2090851
0.941703
-1.203628
0.486879
-10.6688
3.623367
2.207857
3.023652
3.994017
-0.7030302
-1.036282
30.69759
0.03596519
-2.844742
-7.576846
-51.9331
2.039879
1.118611
0.9686334
0.7001732
33.01247
-0.5264881
-0.2659091
-0.312573
0.5778599
-2.587028
0.8521461
1.09254
1.1228
-16.20451
-17.30708
1.191574
-0.8516078
-31.42552
-3.763835
-7.152292
1.306568
-13.93302
5.575723
29.76793
1.748691
0.8050622
-0.785683
0.5962619
1.002831
11.96785
-1.929247
1.023296
-15.81687
-0.7002035
0.9409588
1.772482
-1.895411
-4.507132
-7.62109
-20.91892
3.472906
-18.10988
-2.524922
0.3646962
-1.327792
6.751554
-5.020572
0.1431749
-17.07546
9.003024
-25.22072
6.645798
0.7548717
0.5009756
-7.94628
29.28151
-6.727279
-0.1153995
-2.716608
-34.39714
-0.1275301
-0.4528533
4.370143
0.6948123
0.02612855
-20.91456
-1.69618
2.076782
-3.403074
-9.203587
0.1487161
-30.94528
-15.23672
-40.77995
3.339201
-47.53639
1.455285
-0.6401836
-13.13182
0.4610741
-1.735815
-36.03085
-0.006414311
1.374736
0.5085616
1.500526
-9.840811
-30.69949
-49.4922
2.342061
18.17955
0.5293277
0.3931641
-17.88585
16.56963
-30.52665
0.35255
0.2003257
1.751816
-4.758124
-20.9692
-6.72278
-0.3284479
0.6228962
0.4049115
-68.79821
-80.5882
0.8769737
0.8846165
3.019244
-1.356701
0.792733
3.128201
1.146998
1.225654
0.835628
0.8513423
0.8639213
6.240631
1.123041
-18.34828
0.6995684
0.6720312
-46.80256
1.451615
0.1377952
-0.5660377
-33.16584
-6.978647
-3.299863
2.046785
-7.911655
-28.25633
35.9427
48.72142
1.650752
-0.3353511
-3.654361
6.803301
1.442473
-1.393058
10.95732
-37.80796
1.587382
-0.1311586
-1.064232
2.507369
0.5416197
-2.939285
-2.207287
-16.98719
-62.39644
-0.5399087
2.123461
1.176381
2.077261
2.376861
-83.3293
1.299444
1.084597
0.5926439
0.9577845
-22.34538
-1.403657
-26.41917
-16.71755
1.489288
0.8874765
-1.519759
1.65793
-1.47772
1.642908
0.0548084
-27.61205
0.4056316
-70.83602
-31.08249
-0.3248284
-0.8688861
-50.34585
-70.18726
1.451231
0.3134667
0.9403466
0.9991863
1.117415
-4.383285
2.457188
0.3883863
-0.4032984
1.23945
1.276734
-2.08955
0.05692169
-1.298826
0.8540871
1.126276
0.9155726
0.9953427
0.243266
1.075545
0.783968
-23.54162
0.3770344
1.36994
4.238567
0.03318997
2.104659
-4.647875
0.06739463
-1.418301
-22.03486
-15.4481
-0.3166884
0.1795987
-0.9391899
-0.4630675
-33.12658
-13.61984
5.70336
-35.70632
23.85415
-1.897674
3.016885
-11.1592
-24.76562
0.4505756
3.740959
-44.32811
1.813433
0.4683195
-14.00616
1.947471
7.155659
0.8959252
1.523241
31.17178
-2.288127
-28.44295
1.92299
1.68189
35.34275
-14.20568
-8.392597
1.070862
2.575395
0.9254094
8.492532
0.8125739
7.675725
0.1506705
-30.63224
-4.244385
-20.63959
-3.238706
1.041152
-13.75177
0.8350318
-72.30893
8.799483
1.67
18.72207
-0.6411339
29.66321
-1.071043
-1.334061
-0.4797868
-0.603959
14.52721
-8.477821
-11.28181
-0.697058
1.354973
0.1250746
0.3004676
3.526784
-6.335667
-6.207265
1.048492
-23.93046
1.146011
16.67691
-53.68949
1.974832
-27.55149
-11.04282
-1.140239
-31.49391
38.3675
-0.5044674
-0.4022118
-43.21441
-14.44282
-3.432305
-0.462435
-0.8623126
-13.43403
-87.31458
-3.665287
0.6070439
-0.1309414
1.409409
1.12204
-1.328042
2.2779
9.78871
4.052804
-0.2175148
1.297985
1.234056
-1.019883
-8.781893
-2.538128
0.6282427
0.7658147
-36.39528
-0.2212203
1.084584
1.311594
-1.627487
-21.6635
1.835664
-11.42853
2.080196
1.252644
-0.6673821
-13.51757
1.039111
0.9351973
-78.90613
24.12503
-2.940487
1.337113
3.959654
-1.987036
0.5905538
0.1148574
-3.029168
-0.1716537
-1.047156
-4.785274
0.9592768
-18.41916
0.8733777
-1.287314
0.3370611
1.507368
-1.237625
0.004793958
-5.281756
-4.451309
-10.05401
-20.23947
2.265037
-4.19593
-1.085802
2.953646
0.1640962
-30.30117
1.977855
0.1307067
-0.1991012
-4.298576
1.282325
-1.76513
2.687139
-42.94322
-0.214632
-14.31575
-0.6796933
-54.22822
-2.257746
-38.52151
-0.5282371
-0.768984
-0.3010903
-0.3087124
3.269443
-35.86692
-42.89996
1.23311
1.208575
-2.511272
-2.334028
3.44678
2.823787
1.787801
1.017159
-0.3294339
0.9918568
-44.07453
2.181133
0.9907976
0.1156984
1.109446
-1.438766
0.291088
-1.340237
0.4916625
-7.015854
-0.2702124
-3.468289
8.170544
1.388281
-15.10119
0.2534843
-3.557493
-1.96148
-18.06784
0.5419604
0.2999692
0.1849992
-21.31931
-88.50164
-66.11059
-0.615276
-33.22886
1.779801
-9.391787
-3.861051
1.001172
16.93668
-0.8808909
-88.72206
-79.93155
0.7234262
0.9296704
-2.449545
1.109542
0.5560406
0.5318996
-6.153571
-6.064174
1.143945
-18.56996
-0.717542
-1.259022
-2.497807
1.535665
-1.512054
0.4532419
-6.055458
-0.5236432
0.3099026
-22.80311
0.6294933
3.050303
1.400436
-0.3110905
-38.24489
-1.780249
-2.241515
-6.032827
-7.00818
-2.240795
-28.18184
-1.040082
-1.53867
-4.993613
-0.1080478
13.01943
-61.9609
-12.0182
-0.6330404
-0.5696336
21.11683
-3.324723
1.135614
0.9464408
-0.3001069
-0.4186475
-34.398
-34.66412
-22.18637
10.32287
7.663641
-0.3324892
-61.40643
-51.56027
-77.8564
2.586351
-3.082145
-0.0499101
-1.522116
1.24896
-0.1098017
1.298916
-0.2663416
0.9817038
0.8814781
0.9911897
1.206357
-30.3891
1.246974
1.680675
-0.6652437
-26.18277
20.36422
-0.2261989
-15.79174
-39.64667
-7.241018
5.5845
-5.932622
-4.108768
-15.24415
-71.44889
-0.1121288
-29.79482
1.026335
-41.9169
-14.87424
-15.87272
0.8600083
-15.63635
1.210626
14.85805
0.8876439
0.7115174
2.920025
-0.2312923
-1.853022
1.465522
-0.06040691
0.8170597
1.036565
-45.92755
-9.15187
0.45142
-17.09192
1.115959
1.057172
-23.14713
-2.870811
-33.47109
0.7176653
2.257292
21.43415
-0.1507796
0.8815151
-30.35209
0.0804565
-45.20949
-5.586844
-0.7391005
-0.09808602
0.2822822
-2.609206
0.6845842
1.154084
-2.357117
0.9899917
-0.7404887
-0.4360426
24.47743
1.985965
-10.77114
2.59369
-9.425293
-0.4703198
-85.51176
-0.5622399
0.9615517
3.756472
2.414468
1.7609
-60.51311
-67.34801
-59.21844
0.03046584
-0.8331444
-36.33041
1.973229
-7.568302
0.3407697
0.8397291
-12.67393
-40.27138
1.251742
-49.17936
0.04635663
1.661538
0.9624909
-5.631518
9.762915
-0.1890265
0.7526407
0.7487959
-1.090966
-1.214476
15.06117
0.344567
-5.926819
-0.08440022
-0.0220223
0.4313703
1.437629
-2.207893
-1.113957
-2.915348
-10.728
2.002818
-0.1072323
9.920398
1.976461
3.54677
-7.392853
-5.37183
0.9816588
1.020157
-3.609524
-0.403654
-0.1834662
-77.33624
27.08936
-3.302532
0.8807005
1.122293
-35.39023
-0.2620652
2.094119
-17.12872
0.4583992
-0.7080284
0.4218316
0.4845579
-44.6642
-1.132978
21.77465
36.97433
1.349356
-16.00614
-8.50413
1.079582
0.8229785
0.02296575
34.4453
-64.59714
-0.6089289
5.468249
1.055393
-12.63273
-4.57895
-2.1791
0.7395851
0.1797617
0.6597675
20.88925
0.4190323
2.101069
-28.29467
-8.643477
-15.23878
-3.531421
0.4717976
-84.0908
27.08976
-15.25683
-0.2432468
-5.273467
-1.386537
1.236413
2.842884
32.84035
0.599784
-1.288123
-11.08436
0.7379381
-1.356775
-21.27663
0.7554561
0.295855
1.215499
1.073838
20.03515
0.7243556
-0.1548041
-10.42614
3.038198
0.6606605
19.65268
3.155313
5.712583
-47.77048
-26.97589
1.308452
0.7148019
-36.48848
-14.19927
-44.59737
3.597179
-0.5742465
-0.1079905
1.100323
-11.0431
-17.22943
-0.1864941
-14.33129
-0.8983902
-8.027644
1.079007
-0.3679117
-65.00315
-20.74006
-1.067375
3.869902
0.114108
-0.3163647
0.3410188
1.431062
0.5009653
-0.7891472
-43.06044
-6.638192
-3.013411
-2.425346
-11.47042
2.358641
2.421687
-12.33004
3.656346
5.028552
1.051001
36.21754
-0.37605
0.06086672
0.767532
0.8758244
-1.592215
-17.7167
-29.07945
15.32589
0.9668518
1.060264
0.4322447
0.4846141
0.6657302
0.4196531
1.568385
1.020035
-0.07233946
-0.04143015
-13.53534
1.636012
12.57238
8.136563
-0.7226616
-1.388987
-2.30996
-1.874421
-1.204739
-48.17881
12.5569
-50.95873
-53.73113
0.9749183
1.707704
-81.92336
43.77081
-96.68034
2.338138
1.119151
4.927722
-4.707095
10.16077
-26.51934
-7.244181
4.392569
-0.4366662
2.576676
0.3404043
-22.09108
-0.8776128
-35.23649
3.284388
1.502104
-1.55104
0.7079508
-32.72389
-43.16188
-11.50449
1.052904
16.25255
-13.24435
0.985955
1.067077
-0.02857701
-38.38784
1.101808
3.532399
33.54251
1.351968
0.7620805
0.01642037
28.56804
7.883225
-2.54761
3.108074
-1.688132
1.058457
-0.2418674
-60.97612
1.561515
-73.27036
0.9849231
-1.308441
45.96584
1.706875
-0.2370173
-1.378481
2.925161
1.373351
0.9386301
-6.668299
42.38987
2.13007
-2.666081
46.61376
-0.5901717
-0.2853486
-0.1822345
-25.18193
0.7272398
1.854676
-5.229924
0.1403605
-7.89311
-39.26604
-0.2673972
-0.1810604
3.193923
0.6863721
19.88335
1.857611
0.2464253
0.7881929
-0.09013947
-0.4414242
-0.4380751
-0.4272503
1.268104
0.6039138
0.6426311
-18.32811
-44.24453
-14.16181
-20.35029
11.42207
-1.539396
4.746255
0.05643169
1.098639
4.126251
-61.08792
-38.11413
27.89043
-22.39401
0.8977109
2.007
-1.061491
-4.55322
-32.00575
1.607302
2.075814
-61.63152
2.049877
-0.9467649
0.5084973
0.8773568
0.9701308
1.21863
1.046837
1.058157
-0.1016145
0.7225485
3.004393
-6.944854
-0.1679436
0.1542078
0.9189341
-35.47796
-14.12181