/*--------------------------------*- C++ -*----------------------------------*\
| =========                 |                                                 |
| \\      /  F ield         | OpenFOAM: The Open Source CFD Toolbox           |
|  \\    /   O peration     | Version:  2406                                  |
|   \\  /    A nd           | Website:  www.openfoam.com                      |
|    \\/     M anipulation  |                                                 |
\*---------------------------------------------------------------------------*/
FoamFile
{
    version     2.0;
    format      ascii;
    arch        "LSB;label=32;scalar=64";
    class       surfaceScalarField;
    location    "3.04";
    object      phi;
}
// * * * * * * * * * * * * * * * * * * * * * * * * * * * * * * * * * * * * * //

dimensions      [0 3 -1 0 0 0 0];

oriented        oriented;

internalField   nonuniform List<scalar> 
326221
(
-0.002372044
-0.005684654
0.008056698
-0.001612601
-0.0007594428
0.001045176
-0.002657777
0.0007748711
0.0002703046
-0.0004139713
0.001188842
-0.0004034897
-1.048154e-05
-0.0001466873
-0.0002568024
0.0002375932
-0.0003842805
0.0006134181
-0.0003758249
0.0004641725
0.0001492456
0.0001969917
0.0002671808
0.0003097495
-0.0001127578
0.0006576651
-0.0003479156
0.0009738032
-0.000316138
0.001474873
-0.0005010694
0.001262768
0.0002121047
0.0009147884
0.0003479795
0.0008997523
1.50361e-05
0.00100481
-0.0001050575
0.001185538
-0.0001807282
0.001272968
-8.743014e-05
0.001294365
-2.139704e-05
0.001499164
-0.000204799
0.001807048
-0.0003078836
0.002546598
-0.0007395498
0.00328186
-0.0007352628
0.003525736
-0.0002438755
0.002358665
0.00116707
0.0007597762
0.001598889
0.0002136969
0.0005460793
0.0001301727
8.352424e-05
-0.0003974003
0.0005275729
-0.000393906
-3.494279e-06
0.0004622092
-0.0008561151
0.0003225622
0.000139647
-0.0003678907
0.0006904529
-0.0001416137
-0.000226277
-0.000582056
0.0004404423
-0.00253666
0.001954604
-0.004360412
0.001823752
-0.004981414
0.0006210017
-0.004837103
-0.0001443112
-0.004384932
-0.0004521703
-0.003763205
-0.0006217276
-0.002988684
-0.0007745205
-0.002016485
-0.0009721992
-0.0008525319
-0.001163953
0.0006170283
-0.00146956
0.0009942352
-0.0003772069
-0.001354511
0.002348746
-0.001178681
-0.0001758301
-0.0009908597
-0.0001878213
-0.001129757
0.0001388975
-0.001261132
0.0001313749
-0.00142034
0.0001592078
-0.001590042
0.0001697019
-0.001739367
0.0001493256
-0.001825443
8.607584e-05
-0.001835934
1.049089e-05
-0.001806072
-2.986255e-05
-0.00176364
-4.243201e-05
-0.001671037
-9.260287e-05
-0.001505765
-0.0001652713
-0.001283293
-0.0002224723
-0.0009895126
-0.0002937805
-0.0006476824
-0.0003418302
-0.0002547405
-0.0003929419
2.208122e-05
-0.0002768217
0.0003679438
-0.0003458626
0.0007122643
-0.0003443205
0.001079161
-0.0003668964
0.001407052
-0.0003278909
0.001710431
-0.0003033797
0.001992783
-0.0002823514
0.002247921
-0.0002551384
0.002470443
-0.0002225216
0.002670659
-0.0002002156
0.002848903
-0.0001782445
0.003001622
-0.0001527194
0.003149789
-0.0001481665
0.003286287
-0.0001364976
0.003406757
-0.0001204706
0.00351626
-0.0001095028
0.003541274
-2.501392e-05
0.003635617
-9.434332e-05
0.003729025
-9.340736e-05
0.003818638
-8.961329e-05
0.003898794
-8.015579e-05
0.003980494
-8.170035e-05
0.004057762
-7.726776e-05
0.004122533
-6.477073e-05
0.004185048
-6.251578e-05
0.004238489
-5.344055e-05
0.004280365
-4.187621e-05
0.004310837
-3.047164e-05
0.004330082
-1.924537e-05
0.004340051
-9.968965e-06
0.00433342
6.631336e-06
0.004304881
2.853866e-05
0.004251066
5.381464e-05
0.004171378
7.968797e-05
0.004059809
0.0001115692
0.003912327
0.0001474818
0.003725493
0.0001868341
0.003495122
0.0002303713
0.003209643
0.0002854795
0.002841032
0.0003686104
0.002333005
0.0005080271
0.001610383
0.0007226221
0.0006516471
0.0009587358
-0.0002563418
0.0009079889
-0.000447183
0.0001908411
-0.0004870277
3.984476e-05
-0.002027744
0.001540716
-0.003790241
0.001762497
-0.003462026
-0.0003282151
-0.002195809
-0.001266217
-0.001362904
-0.0008329051
-0.0007794182
-0.0005834854
0.0002968388
-0.001076257
0.001789436
-0.001492598
0.001554794
0.0002346421
-0.00183423
0.003389024
-0.004054032
0.002219802
-0.003984978
-6.905346e-05
-0.002986792
-0.0009981859
-0.001991745
-0.000995047
-0.001080263
-0.0009114823
-9.113656e-05
-0.0009891264
0.0009265318
-0.001017668
0.001394393
-0.0004678612
0.001289307
0.0001050865
0.001185708
0.0001035983
0.001123612
6.20967e-05
0.0005748556
0.000548756
0.0003456414
0.0002292142
0.0001338745
0.0002117668
-0.0008786991
0.001012574
-0.002114088
0.001235389
-0.002192983
7.889493e-05
-0.001696115
-0.0004968676
-0.000554248
-0.001141867
0.0005229374
-0.001077185
0.001362901
-0.0008399635
0.001904977
-0.000542076
0.001885337
1.96395e-05
0.0009102785
0.0009750588
-0.000495401
0.00140568
-0.0006268153
0.0001314142
0.0002341114
-0.0008609267
0.001345401
-0.00111129
0.002173256
-0.0008278546
0.003201781
-0.001028525
0.004277877
-0.001076096
0.005328239
-0.001050362
0.006100972
-0.0007727323
0.006679414
-0.0005784425
0.007047214
-0.0003677996
0.007162464
-0.0001152504
0.006827756
0.0003347085
0.005376881
0.001450875
0.002177196
0.003199684
-0.0009559506
0.003133147
-0.001738635
0.0007826842
-0.00142547
-0.0003131654
-0.0006406751
-0.0007847944
0.0006383746
-0.00127905
0.0009358184
-0.0002974437
-0.0007878162
0.001723635
-0.002913147
0.002125331
-0.00357215
0.0006590029
-0.002655455
-0.0009166944
-0.001126233
-0.001529222
0.001037476
-0.002163709
0.002444513
-0.001407038
0.003040591
-0.000596078
0.002764632
0.0002759591
0.001416978
0.001347655
-0.0001578911
0.001574869
-0.0006443375
0.0004864464
-8.411862e-05
-0.0005602188
-9.458431e-05
1.04657e-05
-0.0009970805
0.0009024962
-0.001765896
0.0007688152
-0.001721832
-4.40639e-05
-0.001173013
-0.000548819
-0.0006503473
-0.0005226656
-2.427565e-05
-0.0006260716
0.0003968129
-0.0004210885
0.0005369448
-0.0001401319
0.0002376022
0.0002993426
4.393473e-05
0.0001936674
-5.203405e-05
9.596878e-05
-0.0001609141
0.00010888
-0.0002649653
0.0001040512
-0.0009629163
0.000697951
-0.0008377194
-0.0001251969
0.001782016
-0.002619735
0.002623457
-0.0008414408
-0.006192722
0.008816179
-0.00648733
0.0002946074
-0.00559728
-0.0008900494
-0.005248459
-0.0003488218
-0.004896443
-0.0003520161
-0.004632159
-0.0002642841
-0.004390727
-0.0002414315
-0.004180951
-0.000209776
-0.003901183
-0.0002797681
-0.003755945
-0.0001452378
-0.003632066
-0.0001238796
-0.003518019
-0.0001140462
-0.003416441
-0.0001015789
-0.003318425
-9.801588e-05
-0.003225232
-9.319288e-05
-0.003136654
-8.857781e-05
-0.003057293
-7.93609e-05
-0.002984191
-7.310198e-05
-0.002914025
-7.016617e-05
-0.002845116
-6.890857e-05
-0.002781056
-6.406075e-05
-0.00271953
-6.152594e-05
-0.002661999
-5.753046e-05
-0.002610328
-5.167111e-05
-0.00255776
-5.256818e-05
-0.002505015
-5.274477e-05
-0.002451829
-5.318578e-05
-0.002402547
-4.928207e-05
-0.002358134
-4.441278e-05
-0.002317638
-4.049622e-05
-0.002275544
-4.209386e-05
-0.00223402
-4.152435e-05
-0.002190135
-4.38852e-05
-0.002151341
-3.879341e-05
-0.002115462
-3.587978e-05
-0.002077962
-3.749976e-05
-0.002040057
-3.790519e-05
-0.002001176
-3.888074e-05
-0.001966318
-3.485764e-05
-0.001934413
-3.190546e-05
-0.001965208
3.079553e-05
-0.00194764
-1.756887e-05
-0.001924011
-2.362871e-05
-0.001900204
-2.38064e-05
-0.001879404
-2.080092e-05
-0.001858048
-2.135519e-05
-0.001838999
-1.904974e-05
-0.001821599
-1.739941e-05
-0.001805194
-1.640491e-05
-0.001785734
-1.946008e-05
-0.001766227
-1.950753e-05
-0.001750352
-1.587513e-05
-0.001736993
-1.335844e-05
-0.001726197
-1.079578e-05
-0.001711763
-1.443409e-05
-0.001694367
-1.739578e-05
-0.001678889
-1.547848e-05
-0.001665888
-1.300135e-05
-0.001650533
-1.53549e-05
-0.001637311
-1.322219e-05
-0.00162271
-1.460003e-05
-0.001607252
-1.545839e-05
-0.001592735
-1.45171e-05
-0.00157702
-1.571547e-05
-0.001544838
-3.218166e-05
-0.00150259
-4.224799e-05
-0.00146239
-4.020033e-05
-0.001411352
-5.103736e-05
-0.001333649
-7.770323e-05
-0.001157704
-0.0001759448
-0.0008763181
-0.0002813861
-0.00019911
-0.0006772081
0.0006380967
-0.0008372068
0.0009328976
-0.0002948009
0.001139275
-0.0002063771
0.001256993
-0.0001177183
0.001337686
-8.069322e-05
0.001408274
-7.058758e-05
0.001457629
-4.935542e-05
0.001482196
-2.456638e-05
0.001500801
-1.86057e-05
0.001530044
-2.9243e-05
0.00155726
-2.721537e-05
0.001579748
-2.248859e-05
0.001594304
-1.455528e-05
0.001607396
-1.309262e-05
0.001620144
-1.274789e-05
0.001636306
-1.616158e-05
0.001651234
-1.492848e-05
0.001662276
-1.104164e-05
0.001673918
-1.164253e-05
0.001689144
-1.522533e-05
0.001703112
-1.396798e-05
0.001716456
-1.334412e-05
0.001733359
-1.69029e-05
0.001747558
-1.419987e-05
0.001766873
-1.931463e-05
0.001790314
-2.344099e-05
0.001809039
-1.872455e-05
0.001824416
-1.537709e-05
0.001842071
-1.7655e-05
0.001862594
-2.052359e-05
0.001876167
-1.357306e-05
0.001841354
3.481336e-05
0.00186852
-2.716618e-05
0.001902938
-3.441782e-05
0.001937965
-3.502723e-05
0.001973436
-3.547111e-05
0.002011585
-3.814896e-05
0.002047819
-3.623336e-05
0.00208103
-3.321174e-05
0.002117038
-3.600726e-05
0.002157683
-4.064567e-05
0.002202099
-4.441538e-05
0.002240946
-3.884743e-05
0.002278066
-3.712001e-05
0.002318142
-4.007571e-05
0.002361492
-4.335033e-05
0.002405821
-4.432841e-05
0.002455392
-4.957122e-05
0.002507015
-5.162354e-05
0.002559003
-5.198744e-05
0.002612594
-5.359119e-05
0.002662895
-5.030069e-05
0.002722866
-5.997163e-05
0.002785854
-6.298723e-05
0.002851543
-6.568913e-05
0.002922038
-7.049572e-05
0.002994766
-7.272747e-05
0.003075498
-8.07322e-05
0.003164094
-8.859595e-05
0.003254672
-9.057758e-05
0.003352876
-9.820468e-05
0.003465095
-0.0001122183
0.003597016
-0.0001319211
0.003850429
-0.000253413
0.004037888
-0.000187459
0.00425096
-0.0002130724
0.004489301
-0.0002383408
0.004798121
-0.0003088196
0.00510012
-0.0003019992
0.005881258
-0.0007811384
0.0001966044
0.0007877006
0.0002389081
-0.001863815
0.001231378
-0.0007384779
0.001562937
-0.0005379361
0.001822718
-0.0003774996
0.002024411
-0.0002823864
0.002201262
-0.0002474383
0.002352109
-0.0002002031
0.002474918
-0.0001473746
0.002582769
-0.0001264573
0.002691944
-0.0001384181
0.002793714
-0.0001289854
0.002889035
-0.0001178089
0.002974299
-9.98194e-05
0.003055251
-9.404457e-05
0.003130879
-8.837564e-05
0.003206254
-9.153701e-05
0.003277728
-8.640249e-05
0.003344515
-7.782824e-05
0.003408466
-7.559343e-05
0.003472915
-7.967477e-05
0.003534607
-7.565986e-05
0.003593792
-7.252911e-05
0.003654489
-7.760016e-05
0.003711166
-7.087719e-05
0.003770404
-7.855189e-05
0.003831012
-8.404978e-05
0.003889193
-7.690499e-05
0.003943312
-6.949579e-05
0.003999139
-7.348236e-05
0.004055101
-7.648572e-05
0.004108801
-6.727313e-05
0.004074066
6.954899e-05
0.004139378
-9.247832e-05
0.004208325
-0.0001033646
0.004277519
-0.000104222
0.004346934
-0.000104886
0.004417583
-0.0001087982
0.004487769
-0.0001064184
0.004554823
-0.0001002662
0.004624525
-0.0001057097
0.004695559
-0.0001116791
0.004771132
-0.0001199883
0.004841848
-0.0001095637
0.004912859
-0.0001081308
0.004984699
-0.0001119163
0.005059625
-0.0001182759
0.00513464
-0.0001193431
0.005214005
-0.0001289365
0.005295454
-0.0001330731
0.005377373
-0.0001339059
0.005462038
-0.0001382563
0.005543473
-0.0001317362
0.005633481
-0.0001499789
0.005724316
-0.0001538229
0.005819511
-0.0001608833
0.00591717
-0.0001681556
0.006018582
-0.0001741394
0.006125209
-0.0001873588
0.006239611
-0.0002029979
0.00635552
-0.0002064861
0.006479028
-0.0002217128
0.006613919
-0.0002471092
0.006765755
-0.0002837578
0.007102652
-0.0005903096
0.007308526
-0.0003933335
0.007545595
-0.0004501409
0.007803647
-0.0004963925
0.00814416
-0.0006493335
0.008439009
-0.0005968481
0.009312224
-0.001654353
0.008526125
0.0009827042
-0.01006527
0.009241505
0.00111837
-0.009053762
-0.001901555
-0.008718598
-0.0006839864
-0.00833575
-0.0007348638
-0.008051591
-0.0005484425
-0.007786217
-0.000506806
-0.00755859
-0.0004374025
-0.007192635
-0.0006457239
-0.007026366
-0.0003115064
-0.00687874
-0.0002715052
-0.006739389
-0.0002533976
-0.006611578
-0.0002293897
-0.006486489
-0.0002231054
-0.00636749
-0.0002121916
-0.006251428
-0.0002046397
-0.006144525
-0.0001862644
-0.006040905
-0.0001767214
-0.005941991
-0.0001690808
-0.005843108
-0.0001677908
-0.005749758
-0.0001574108
-0.00565762
-0.0001536639
-0.005569511
-0.0001456394
-0.005485504
-0.0001356788
-0.005401448
-0.0001366235
-0.005318488
-0.0001357049
-0.005235245
-0.0001364292
-0.005155984
-0.0001285431
-0.005078847
-0.000121549
-0.005005572
-0.0001137714
-0.004929558
-0.0001181078
-0.004855943
-0.0001151397
-0.004779282
-0.0001205466
-0.004707183
-0.0001108916
-0.004635494
-0.0001075687
-0.0045631
-0.0001098937
-0.004489844
-0.0001111621
-0.004415963
-0.0001127609
-0.004344556
-0.0001062653
-0.004274116
-0.0001023449
-0.00430753
6.42087e-05
-0.004250312
-7.478626e-05
-0.004191605
-8.233617e-05
-0.004131398
-8.40133e-05
-0.004073944
-7.825472e-05
-0.004014095
-8.120436e-05
-0.003955989
-7.715584e-05
-0.003896877
-7.651094e-05
-0.00383799
-7.529258e-05
-0.003775567
-8.188271e-05
-0.003712662
-8.241195e-05
-0.003650639
-7.789879e-05
-0.003588002
-7.599485e-05
-0.003525152
-7.364661e-05
-0.003457192
-8.239392e-05
-0.00338612
-8.846727e-05
-0.003313532
-8.806668e-05
-0.003240495
-8.603854e-05
-0.003161712
-9.413765e-05
-0.00308185
-9.308482e-05
-0.002995857
-0.000100593
-0.0029048
-0.0001065153
-0.002808057
-0.0001112592
-0.002704245
-0.0001195283
-0.002580733
-0.0001556934
-0.002443054
-0.0001799272
-0.002296663
-0.0001865914
-0.002125767
-0.0002219332
-0.001910293
-0.0002931769
-0.001600702
-0.0004855359
-0.001138082
-0.0007440065
-0.001576382
0.001126271
-2.856732e-05
-0.002208994
0.002247994
-0.001949577
0.00348438
-0.002264911
0.004782454
-0.00237417
0.006103136
-0.002371044
0.007162942
-0.001832538
0.008037393
-0.001452893
0.00868434
-0.001014747
0.009119517
-0.0005504275
0.009449309
4.916785e-06
0.009419859
0.001480325
0.007233092
0.005386451
0.002015211
0.008351028
-0.001985987
0.004783883
-0.002590466
0.0002913131
-0.001487223
-0.001888037
0.0001328444
-0.002899118
0.0003582713
-0.0005228706
-0.002531448
0.004613354
-0.004854658
0.00444854
-0.004522981
0.0003273261
-0.003140534
-0.002299142
-0.001252195
-0.003417562
0.00139486
-0.004810764
0.003160306
-0.003172483
0.004049102
-0.001484874
0.004321491
3.570042e-06
0.003459307
0.002209839
0.001188871
0.003845305
-0.0005685594
0.002243877
-0.0008146308
-0.0003141474
-0.001148007
0.0003438416
-0.002155399
0.001909888
-0.002598153
0.001211569
-0.002218429
-0.0004237877
-0.00147006
-0.001297188
-0.0007326797
-0.001260046
3.516845e-05
-0.00139392
0.0005670473
-0.0009529674
0.0008366416
-0.0004097261
0.0004734591
0.0006625251
0.0001798472
0.0004872794
0.0001188561
0.0001569598
1.358906e-05
0.0002141471
-0.0001667947
0.000284435
9.697116e-05
0.0004341852
0.0009040484
-0.0009322741
0.002679699
-0.004395386
0.0008851588
0.0009530995
0.01894284
-0.002132761
0.001829487
0.0001274438
-0.002174196
-0.0001463866
-0.002229848
0.0001945503
-0.002350436
0.0002519625
-0.002488873
0.0002976447
-0.002610332
0.0002911607
-0.002676174
0.0002151682
-0.002648224
5.81259e-05
-0.002548415
-8.931847e-05
-0.00243225
-0.0001460279
-0.002320069
-0.0001546124
-0.00215921
-0.0002534624
-0.001913453
-0.0004110279
-0.001600454
-0.0005354716
-0.001203135
-0.0006910989
-0.0007461724
-0.0007987933
-0.0002162239
-0.0009228903
0.0001744262
-0.0006674718
0.0006508781
-0.0008223145
0.001117594
-0.0008110363
0.001615224
-0.0008645268
0.002079189
-0.0007918561
0.002519827
-0.0007440171
0.002938648
-0.0007011723
0.003329459
-0.0006459494
0.003685887
-0.0005789497
0.004016738
-0.0005310672
0.004322634
-0.0004841396
0.004599186
-0.000429272
0.004866051
-0.0004150312
0.005117859
-0.0003883061
0.00535133
-0.0003539415
0.005571185
-0.0003293572
0.00567257
-0.0001263993
0.005881819
-0.0003035927
0.006083711
-0.0002952994
0.006277475
-0.0002833765
0.006459072
-0.0002617531
0.006638132
-0.0002607602
0.006810191
-0.0002493275
0.006968231
-0.0002228102
0.007120965
-0.0002152502
0.007262625
-0.0001951001
0.007391199
-0.0001704504
0.007506598
-0.0001458702
0.007608698
-0.0001213454
0.007699456
-0.0001007273
0.00777629
-7.020264e-05
0.007839349
-3.452077e-05
0.007886079
7.084976e-06
0.007914527
5.12398e-05
0.007919657
0.0001064396
0.007897077
0.0001700613
0.007841455
0.0002424562
0.007745735
0.0003260919
0.00759651
0.0004347045
0.00736472
0.0006004
0.006985726
0.0008870213
0.006335236
0.001373112
0.005245464
0.002048508
0.003665842
0.002487611
0.001422327
0.002434356
-0.0009757243
0.002437896
-0.002839969
0.003404961
-0.002887626
0.001810154
-0.001419936
-0.001795905
-0.000260811
-0.002425342
0.0003638974
-0.001457614
0.0006962643
-0.0009158523
0.001379207
-0.0017592
0.00267558
-0.00278897
0.0008413674
0.002068855
-0.00368333
0.007913722
-0.005102867
0.003639338
-0.004381607
-0.0007903129
-0.003200662
-0.002179131
-0.002040605
-0.002155105
-0.0009833973
-0.00196869
0.0001173443
-0.002089868
0.001343952
-0.002244276
0.002172148
-0.001296058
0.002145624
0.0001316109
0.001685565
0.0005636569
0.001380072
0.0003675901
0.0007401096
0.001188718
0.0002201675
0.0007491563
-0.0009359147
0.001367849
-0.002672038
0.002748697
-0.003274863
0.001838213
-0.002666861
-0.0005291067
-0.00192146
-0.001242269
-0.0005052645
-0.002558063
0.0007427644
-0.002325214
0.001712367
-0.001809566
0.00230007
-0.001129779
0.002543101
-0.0002233912
0.001899223
0.001618936
9.262626e-05
0.003212276
-0.0006427042
0.0008667447
-0.001532198
-0.001003312
0.01758613
-0.002495764
0.0007330095
0.0003155217
-0.005469063
0.0004574234
0.000128403
-0.0009912052
0.002637471
-0.0008629619
-0.0001387249
-0.0003923248
-0.0007274395
0.0001268069
-0.0009034123
0.0006484262
-0.0008974441
0.000583503
0.0002141688
0.0003068052
0.0005438786
0.0004229873
-0.00022894
0.0007867453
-0.0007116736
0.001180644
-0.0007100366
0.002282685
-0.001603111
0.002832581
-0.0003377911
0.002653316
0.0005272451
0.002382727
0.0002856245
0.002245323
3.234653e-05
0.002265115
-0.0002005201
0.002404553
-0.0002268685
0.002632339
-0.000249183
0.002878336
-0.0004507954
0.00299742
-0.0004269677
0.00354616
-0.00128829
0.004152879
-0.001341981
0.004921996
-0.001012992
0.00460679
0.001482276
0.002626885
0.003578794
0.001041339
0.002131626
0.0005191669
0.0006056963
-0.0005255246
0.001572264
-0.0006502715
0.0001212526
0.0007990573
-0.002305444
0.0007979647
0.0001407395
-3.407399e-06
0.001491825
-0.001217838
0.0009881541
-0.003876999
0.003099603
-0.006454536
0.004532141
-0.007325689
0.002694905
-0.006985435
0.0002807479
-0.006470752
-0.0006589943
-0.005799043
-0.001123879
-0.004910147
-0.001510624
-0.003886568
-0.001798099
-0.002682629
-0.002176139
-0.001362713
-0.002483869
2.398548e-05
-0.002856259
0.0003300249
-0.0006832463
0.004508258
0.00104266
-0.01077812
0.02732159
-0.002763898
0.004539567
-0.00148175
-0.00675121
-0.001168826
-0.0001845216
-0.001671165
0.00313981
-0.001151943
-0.0006579475
-0.0006545893
-0.001224793
-8.705605e-05
-0.001470946
0.0004660769
-0.001450577
0.000450315
0.0002299307
0.0001497436
0.00084445
0.000242703
-0.0003218995
0.0007055675
-0.001174538
0.001119097
-0.001123566
0.00237515
-0.002859164
0.003561691
-0.001524332
0.004231657
-0.0001427213
0.004452451
6.483099e-05
0.004255771
0.0002290263
0.003855245
0.0002000059
0.003514776
0.0001136002
0.003429355
-0.0001637617
0.003539692
-0.0005611322
0.00352113
-0.0004084054
0.004044287
-0.001811448
0.004631421
-0.001929115
0.005509746
-0.001891318
0.00579571
0.001196312
0.004287932
0.005086572
0.00228501
0.004134548
0.001251332
0.001639374
-0.0002658409
0.003089438
-0.0003093933
0.000164805
0.0012691
-0.003883937
0.0009968254
0.0004130139
-0.0006903086
0.003178959
-0.003922527
0.004220373
-0.007643524
0.006820599
-0.009360531
0.006249149
-0.009344791
0.002679165
-0.008921692
-0.0001423515
-0.00838167
-0.001199016
-0.007534506
-0.001971044
-0.006455807
-0.002589322
-0.005185765
-0.003068141
-0.003687383
-0.003674521
-0.002145175
-0.004026076
-0.0008520741
-0.00414936
-0.0005733672
-0.0009619532
-0.002361411
0.006296302
-0.002591876
0.0003579089
-0.002702127
-3.613541e-05
-0.002826533
0.000318956
-0.002974417
0.000399846
-0.003134943
0.0004581713
-0.003258958
0.0004151757
-0.003313837
0.0002700475
-0.003260794
5.082026e-06
-0.003133066
-0.000217046
-0.002990367
-0.0002887265
-0.002861551
-0.0002834284
-0.002678049
-0.0004369644
-0.002382713
-0.0007063643
-0.002001667
-0.0009165175
-0.001517387
-0.001175379
-0.0009574726
-0.001358708
-0.0003041069
-0.001576256
0.0001793002
-0.001150879
0.0007551702
-0.001398185
0.001325221
-0.001381087
0.001932247
-0.001471553
0.00250053
-0.001360139
0.003040135
-0.001283622
0.003552483
-0.00121352
0.0040314
-0.001124866
0.004468699
-0.00101625
0.004875139
-0.0009375064
0.005251945
-0.0008609456
0.005592946
-0.0007702735
0.005922638
-0.0007447234
0.006234474
-0.0007001423
0.006524982
-0.0006444495
0.006803173
-0.0006075482
0.006935251
-0.0002584766
0.007200336
-0.0005686783
0.007455505
-0.0005504685
0.007701135
-0.0005290063
0.007932176
-0.0004927941
0.008160513
-0.0004890968
0.008380774
-0.0004695888
0.008584637
-0.0004266727
0.008782812
-0.0004134253
0.008967909
-0.0003801976
0.009138261
-0.0003408024
0.009293576
-0.0003011845
0.009433498
-0.0002612681
0.009560616
-0.0002278449
0.009670932
-0.000180519
0.009763723
-0.0001273121
0.009838226
-6.741797e-05
0.009898026
-8.560286e-06
0.009939892
6.457395e-05
0.009963068
0.0001468849
0.009966102
0.0002394231
0.00994801
0.000344183
0.009906211
0.0004765035
0.009835157
0.0006714542
0.009718587
0.001003592
0.009511504
0.001580195
0.009079591
0.002480421
0.008110164
0.003457037
0.005788317
0.004756203
0.001598814
0.006627399
-0.001343643
0.006347418
-0.0002037982
0.000670309
0.001749227
-0.003748931
0.003084439
-0.003760553
0.00350664
-0.001879815
0.003388128
-0.0007973397
0.003175283
-0.001546355
0.003069894
-0.002683581
-0.0002048023
0.005343551
-0.00455787
0.01226679
-0.005404907
0.004486375
-0.004680709
-0.00151451
-0.003224812
-0.003635027
-0.001910691
-0.003469226
-0.0007595798
-0.003119801
0.0003459795
-0.003195427
0.001582876
-0.003481173
0.002434415
-0.002147596
0.0023054
0.0002606252
0.001810358
0.001058699
0.001560921
0.0006170277
0.0007822882
0.00196735
-0.0003609294
0.001892374
-0.002371298
0.003378217
-0.004027853
0.004405253
-0.003963935
0.001774295
-0.003123185
-0.001369858
-0.002169094
-0.002196359
-0.0003589707
-0.004368186
0.001154318
-0.003838503
0.002306662
-0.002961909
0.003000593
-0.00182371
0.003216226
-0.0004390239
0.002654306
0.002180856
0.0008379826
0.0050286
-0.0003253492
0.002030077
-3.29739e-05
-0.001824574
0.001125928
-0.003367896
0.002580752
-0.003404401
0.004007018
-0.003691177
0.005526457
-0.003893609
0.007145018
-0.003989605
0.008467319
-0.003154839
0.009547027
-0.002532601
0.01033399
-0.001801708
0.01081842
-0.00103486
0.0109998
-0.0001764633
0.01121475
0.001265375
0.01072451
0.005876693
0.006571272
0.01250427
-0.0001552811
0.01151044
-0.003366103
0.003502134
-0.002623342
-0.002630797
-0.0008812359
-0.004641224
-0.001155477
-0.0002486295
-0.004218985
0.007676862
-0.005840407
0.006069962
-0.005131202
-0.0003818783
-0.003644711
-0.003785633
-0.001312668
-0.005749605
0.001782391
-0.007905822
0.003887274
-0.005277367
0.004947667
-0.002545268
0.005287386
-0.0003361486
0.004893758
0.002603467
0.002951821
0.005787242
0.0002646361
0.004931062
-0.001217055
0.001167544
-0.001916548
0.001043334
-0.002769138
0.002762478
-0.003011225
0.001453657
-0.002524967
-0.0009100464
-0.0016082
-0.002213955
-0.0006719032
-0.002196342
0.000278724
-0.002344547
0.0007807712
-0.001455015
0.0009961253
-0.0006250802
0.0006799381
0.0009787122
0.0004371599
0.0007300577
0.0003929462
0.0002011735
0.0003353819
0.0002717114
0.0006541337
-3.431676e-05
0.0009532108
0.000135108
0.001864232
-0.001843296
0.002901309
-0.005432462
-0.001242716
0.005097124
-0.01160215
0.02930228
-0.01233296
0.001849174
-0.01131621
-0.002918302
-0.01088158
-0.001118612
-0.01045458
-0.00116187
-0.01013581
-0.0008672118
-0.009842338
-0.000800277
-0.009596527
-0.0006832131
-0.009177106
-0.001065145
-0.008995324
-0.0004932885
-0.008830348
-0.0004364808
-0.008674122
-0.0004096237
-0.008529931
-0.0003735799
-0.008388025
-0.000365012
-0.008252864
-0.0003473524
-0.008120009
-0.0003374951
-0.007996594
-0.0003096788
-0.007875497
-0.0002978186
-0.007759529
-0.000285049
-0.007642869
-0.0002844504
-0.007532104
-0.0002681762
-0.007421838
-0.00026393
-0.007315363
-0.0002521146
-0.007212707
-0.0002383346
-0.007109705
-0.0002396258
-0.007008225
-0.0002371841
-0.006906114
-0.0002385406
-0.006807964
-0.0002266931
-0.006710792
-0.0002187206
-0.006617434
-0.0002071297
-0.006520267
-0.0002152747
-0.00642632
-0.0002090864
-0.006328311
-0.0002185563
-0.006234991
-0.000204211
-0.006141005
-0.0002015553
-0.006046027
-0.0002048716
-0.005949993
-0.0002071958
-0.005852725
-0.0002100288
-0.005756401
-0.0002025895
-0.005658136
-0.0002006096
-0.005684629
9.070111e-05
-0.005596871
-0.0001625437
-0.005515253
-0.0001639544
-0.005430464
-0.0001688026
-0.00534897
-0.0001597484
-0.005263954
-0.0001662207
-0.005180787
-0.0001603222
-0.005095764
-0.0001615348
-0.005010943
-0.0001601129
-0.004921971
-0.0001708545
-0.004832493
-0.0001718907
-0.00474359
-0.000166801
-0.004653233
-0.0001663528
-0.00456237
-0.0001645094
-0.004465698
-0.0001790656
-0.004365754
-0.0001884114
-0.004264187
-0.0001896332
-0.004161986
-0.0001882396
-0.00405266
-0.0002034638
-0.00394244
-0.0002033052
-0.00382511
-0.0002179228
-0.003702502
-0.0002291237
-0.003573227
-0.000240534
-0.003436087
-0.0002566687
-0.003275697
-0.0003160832
-0.003101009
-0.0003546148
-0.00291899
-0.0003686103
-0.002705245
-0.0004356787
-0.002436382
-0.00056204
-0.002049977
-0.0008719408
-0.001396487
-0.001397496
-0.0003054075
-0.002667461
0.0009227287
-0.003091952
0.001591521
-0.001407271
0.001991596
-0.0009380103
0.0023046
-0.0006905034
0.002551007
-0.0005287942
0.002770455
-0.0004668854
0.002961554
-0.0003913029
0.003120037
-0.0003058568
0.003259767
-0.0002661878
0.003402205
-0.0002808565
0.003536473
-0.0002632532
0.00366478
-0.0002461161
0.003781298
-0.0002163369
0.003893295
-0.0002060422
0.003998933
-0.0001940131
0.004104614
-0.0001972178
0.004206224
-0.0001880125
0.004302471
-0.0001740757
0.004395346
-0.0001684683
0.004488644
-0.0001729726
0.004578789
-0.0001658052
0.004665627
-0.0001593666
0.004754405
-0.0001663785
0.004837674
-0.0001541464
0.004923316
-0.0001641933
0.005010054
-0.0001707884
0.005094435
-0.0001612861
0.00517426
-0.0001493205
0.005255897
-0.0001551194
0.005336165
-0.0001567537
0.005421666
-0.000152774
0.005396569
9.464594e-05
0.00549036
-0.0001862692
0.005585157
-0.0001981618
0.005678278
-0.000197343
0.005770921
-0.0001975294
0.005864283
-0.0002021603
0.0059573
-0.0001994352
0.006046555
-0.0001895213
0.006138292
-0.0001974466
0.006229903
-0.0002032902
0.006326614
-0.0002166991
0.006417903
-0.0002008525
0.006509939
-0.000200167
0.006602033
-0.0002040098
0.006697103
-0.0002133465
0.006791441
-0.0002136804
0.006889973
-0.000227469
0.006990309
-0.0002334091
0.007090781
-0.0002343774
0.007194703
-0.0002421784
0.007294226
-0.0002312592
0.007402845
-0.000258598
0.007510945
-0.0002619231
0.007623781
-0.0002737189
0.0077385
-0.0002828746
0.007856827
-0.0002924664
0.007979817
-0.0003103488
0.008110671
-0.0003338519
0.008242599
-0.0003384148
0.008382029
-0.0003611425
0.008533462
-0.0003985421
0.008699011
-0.0004493064
0.00908553
-0.0009768286
0.009306762
-0.0006145662
0.009567129
-0.0007105079
0.009854842
-0.0007841057
0.01023536
-0.001029847
0.01061204
-0.0009735308
0.01149217
-0.002534487
0.00169676
0.0009620754
0.0003632523
-0.004417279
0.001802325
-0.00224752
0.002293079
-0.001428764
0.002673114
-0.001070539
0.002978783
-0.0008344628
0.003250727
-0.0007388292
0.00348701
-0.0006275866
0.003685421
-0.0005042675
0.003860829
-0.000441596
0.004038416
-0.0004584432
0.004205363
-0.0004302001
0.004365392
-0.0004061455
0.004511587
-0.0003625318
0.004651913
-0.0003463679
0.004784563
-0.0003266632
0.00491644
-0.000329095
0.005043836
-0.0003154085
0.005164177
-0.0002944166
0.00528074
-0.0002850311
0.005397211
-0.0002894438
0.005509866
-0.0002784598
0.005618381
-0.0002678824
0.005729286
-0.0002772833
0.005833091
-0.0002579516
0.00593971
-0.0002708116
0.006047707
-0.0002787856
0.006152281
-0.0002658606
0.00625214
-0.0002491796
0.006353584
-0.0002565625
0.006453357
-0.0002565271
0.006560571
-0.0002599885
0.006536097
0.0001191208
0.006649811
-0.0002999837
0.006766923
-0.0003152735
0.006880535
-0.0003109554
0.006993587
-0.0003105808
0.007107549
-0.0003161228
0.007220696
-0.0003125825
0.007329471
-0.0002982955
0.007440883
-0.0003088595
0.00755211
-0.0003145168
0.00766919
-0.0003337788
0.007779734
-0.0003113971
0.007891109
-0.0003115415
0.00800272
-0.0003156208
0.008117406
-0.0003280331
0.008231133
-0.000327407
0.008349935
-0.0003462709
0.008470514
-0.000353988
0.008591324
-0.0003551872
0.008716329
-0.0003671834
0.008835478
-0.000350409
0.008966196
-0.0003893152
0.009095333
-0.0003910606
0.009229947
-0.0004083326
0.00936717
-0.000420098
0.009507542
-0.0004328379
0.009654302
-0.0004571093
0.009809491
-0.0004890403
0.009965739
-0.000494663
0.01013084
-0.0005262389
0.01031028
-0.000577985
0.01072563
-0.0008646611
0.01096646
-0.001217658
0.01122605
-0.0008741521
0.01153509
-0.001019547
0.01188694
-0.001135957
0.01233996
-0.001482864
0.01286757
-0.00150115
0.01368947
-0.003356379
0.01328469
0.002101536
-0.01467701
0.01426794
0.002258247
-0.013716
-0.003879312
-0.01310931
-0.001725303
-0.01260117
-0.001670007
-0.0122112
-0.001257185
-0.01186033
-0.001151147
-0.01156982
-0.0009737242
-0.01130051
-0.001334451
-0.01085189
-0.0009419061
-0.01065654
-0.0006318336
-0.01047092
-0.0005952492
-0.01029986
-0.0005446381
-0.01013138
-0.0005334941
-0.009970602
-0.0005081256
-0.009812602
-0.0004954953
-0.009665181
-0.000457099
-0.009520868
-0.0004421317
-0.009382226
-0.0004236916
-0.009242722
-0.0004239536
-0.009110021
-0.0004008775
-0.008978094
-0.0003958577
-0.008850011
-0.0003801973
-0.008726914
-0.0003614311
-0.008603136
-0.0003634046
-0.008481204
-0.0003591156
-0.008358602
-0.0003611421
-0.008240407