/*--------------------------------*- C++ -*----------------------------------*\
| =========                 |                                                 |
| \\      /  F ield         | OpenFOAM: The Open Source CFD Toolbox           |
|  \\    /   O peration     | Version:  2406                                  |
|   \\  /    A nd           | Website:  www.openfoam.com                      |
|    \\/     M anipulation  |                                                 |
\*---------------------------------------------------------------------------*/
FoamFile
{
    version     2.0;
    format      ascii;
    arch        "LSB;label=32;scalar=64";
    class       volScalarField;
    location    "0.48";
    object      p;
}
// * * * * * * * * * * * * * * * * * * * * * * * * * * * * * * * * * * * * * //

dimensions      [0 2 -2 0 0 0 0];

internalField   nonuniform List<scalar> 
217010
(
-100.2006
-53.92999
-64.23545
-64.06687
-55.59152
-49.38191
-49.87636
-60.13542
-65.29382
-60.09637
-58.75458
-64.68526
-71.9327
-77.83553
-81.05846
-80.54863
-75.12768
-66.3796
-58.39499
-53.07409
-50.76189
-50.19007
-51.03528
-51.26053
-54.32367
-61.38997
-59.07598
-48.31379
-44.37552
-50.56861
-60.28309
-63.73096
-60.09484
-58.51845
-63.48012
-72.86017
-83.03749
-91.51241
-97.13558
-99.61222
-99.20612
-96.21182
-90.98867
-83.98042
-75.85162
-67.48624
-58.98755
-50.40794
-43.50904
-38.93382
-18.07786
-17.18916
-17.73827
-23.25746
-30.11282
-31.024
-26.79344
-23.11983
-22.47496
-22.85548
-23.16357
-23.93358
-25.00347
-26.07339
-26.99613
-27.75399
-28.37703
-28.88749
-29.3139
-29.65537
-29.92955
-30.15549
-30.33131
-30.46818
-30.57885
-30.67507
-30.76366
-30.85114
-30.93162
-31.01229
-31.09924
-31.19464
-31.30432
-31.42644
-31.56834
-31.72241
-31.89323
-32.08701
-32.2916
-32.50455
-32.75801
-33.03293
-33.32464
-33.65875
-34.00503
-34.37285
-34.76269
-35.18097
-35.62833
-36.08949
-36.56525
-37.06298
-37.57203
-38.09526
-38.62313
-39.16128
-39.70537
-40.23924
-40.76816
-41.29541
-41.81744
-42.3273
-42.82607
-43.32176
-43.80746
-44.28079
-44.75199
-45.2374
-45.70324
-46.16103
-46.61806
-47.06902
-47.51781
-47.97007
-48.42084
-48.85964
-49.28906
-49.72761
-50.18289
-50.63685
-51.07528
-51.3893
-51.59797
-52.88926
-55.21538
-55.75457
-54.44436
-53.50495
-53.39693
-53.33862
-53.55815
-56.15578
-59.47052
-60.07724
-58.30227
-56.07942
-54.34623
-52.95887
-51.82386
-49.39154
-52.34252
-52.34348
-52.16352
-52.95483
-60.61396
-61.25501
-58.34053
-54.15593
-50.56986
-47.29532
-44.11848
-41.33627
-38.97804
-38.2226
-40.94012
-46.29125
-51.727
-58.85351
-68.38586
-79.25909
-90.39342
-100.9908
-110.3442
-117.2457
-120.4226
-118.4145
-110.4517
-97.40313
-83.84633
-75.82373
-72.9271
-75.66139
-82.15325
-86.00483
-88.04961
-86.44905
-82.07898
-74.65888
-62.27652
-51.02778
-50.26975
-57.2092
-61.99575
-62.67023
-61.51663
-60.66447
-58.91276
-63.19478
-58.67119
-103.1264
-46.205
-41.47162
-33.44421
-28.8208
-24.65595
-21.16501
-18.0927
-15.2523
-12.76914
-10.46911
-8.355751
-6.402672
-4.543701
-2.774293
-1.104967
0.4538162
1.92594
3.351388
4.721512
6.037862
7.305079
8.514368
9.66644
10.80359
11.91956
13.01542
14.06777
15.06965
16.04108
17.00097
17.95329
18.89187
19.78849
20.6608
21.52958
22.38383
23.2317
24.07142
24.91638
25.72514
26.55629
27.34786
28.13556
28.91298
29.68832
30.45123
31.20274
31.95785
32.72824
33.49761
34.2517
34.99427
35.73672
36.50295
37.28245
38.05412
38.82868
39.61477
40.40682
41.21194
42.01891
42.82397
43.67002
44.59804
45.54648
46.4687
47.41597
48.46672
49.67245
50.92525
52.41047
54.29837
52.354
50.95921
49.86809
48.86625
47.86872
46.85087
45.88254
45.01917
44.20518
43.34645
42.4661
41.61075
40.80062
40.01207
39.22334
38.42501
37.629
36.85786
36.09606
35.3219
34.54817
33.78548
33.01226
32.24541
31.46698
30.66115
29.86775
29.09391
28.31607
27.51879
26.68205
25.88088
25.04917
24.19868
23.34794
22.494
21.61039
20.71402
19.81865
18.90651
17.9509
16.95356
15.95677
14.96847
13.94708
12.87963
11.78405
10.64476
9.464293
8.254592
7.006756
5.746169
4.40969
2.992496
1.528454
-0.01449994
-1.620816
-3.336804
-5.179895
-7.123353
-9.185698
-11.45981
-13.93929
-16.74334
-19.78861
-23.24374
-27.42239
-32.06928
-40.02956
-45.06582
54.27434
52.5931
51.12719
50.00053
48.98849
47.98613
46.96211
45.98272
45.10798
44.28858
43.42832
42.54478
41.68357
40.86757
40.07491
39.28326
38.48222
37.68273
36.90817
36.14356
35.36711
34.59093
33.82589
33.0504
32.28181
31.50171
30.69382
29.89837
29.12236
28.34281
27.5439
26.70478
25.90393
25.06942
24.21727
23.36512
22.50986
21.62474
20.72709
19.83032
18.91695
17.95971
16.96075
15.96261
14.97317
13.95007
12.88117
11.78436
10.64324
9.460647
8.248788
6.998721
5.736764
4.396611
2.976149
1.509181
-0.0379922
-1.647641
-3.369414
-5.218711
-7.167434
-9.236466
-11.5188
-14.00737
-16.83346
-19.89298
-23.37285
-27.57827
-32.31868
-40.22744
-46.33154
-47.52787
-41.67599
-33.69925
-28.97782
-24.78796
-21.27103
-18.18426
-15.3204
-12.82823
-10.52168
-8.400145
-6.441478
-4.577406
-2.802801
-1.128375
0.4347377
1.909558
3.337965
4.711072
6.029996
7.299515
8.511363
9.664898
10.80346
11.92091
13.01841
14.07253
15.07569
16.04842
17.00969
17.96344
18.9035
19.80155
20.67499
21.54526
22.40084
23.25031
24.0918
24.93935
25.74804
26.58136
27.3745
28.16406
28.94318
29.72015
30.48478
31.23826
31.99576
32.76848
33.53986
34.29567
35.04054
35.78616
36.55571
37.33827
38.1128
38.89078
39.68059
40.47671
41.28553
42.09629
42.90765
43.76307
44.69925
45.65221
46.5801
47.54077
48.61078
49.83372
51.13367
52.52187
-51.18152
-52.42572
-52.11782
-52.54899
-60.52798
-61.60039
-58.72387
-54.50404
-50.84335
-47.55045
-44.3545
-41.5345
-39.10649
-38.17816
-40.74093
-46.05259
-51.48761
-58.5583
-68.03347
-78.90085
-90.06868
-100.7131
-110.1267
-117.1191
-120.4047
-118.5471
-110.6958
-97.66506
-84.00511
-75.87767
-72.9206
-75.62097
-82.15331
-86.04976
-88.06464
-86.4898
-82.14454
-74.6466
-62.24461
-51.02544
-50.34395
-57.3471
-62.10903
-62.70019
-61.50731
-60.62336
-58.97599
-63.2105
-59.7646
-95.50172
-18.8077
-17.25152
-17.46585
-22.62025
-29.66705
-31.19639
-27.26101
-23.29419
-22.49968
-22.81751
-23.096
-23.83765
-24.90562
-25.98883
-26.93077
-27.70366
-28.33788
-28.85635
-29.28986
-29.63715
-29.91573
-30.14505
-30.32381
-30.46294
-30.57488
-30.67185
-30.76078
-30.8487
-30.92952
-31.01017
-31.09704
-31.19225
-31.30168
-31.42363
-31.56535
-31.71939
-31.88999
-32.08377
-32.28865
-32.50145
-32.75481
-33.02992
-33.32172
-33.65605
-34.0027
-34.3709
-34.76114
-35.17978
-35.62764
-36.08937
-36.56574
-37.06422
-37.57397
-38.09806
-38.62664
-39.1658
-39.71082
-40.24535
-40.77519
-41.3034
-41.82627
-42.33668
-42.83619
-43.33281
-43.81909
-44.29263
-44.76453
-45.25296
-45.71852
-46.17725
-46.63534
-47.0871
-47.53711
-47.99076
-48.44209
-48.88128
-49.31154
-49.75167
-50.20847
-50.66284
-51.09925
-51.40843
-51.65561
-53.02759
-55.31351
-55.72345
-54.37388
-53.47685
-53.40019
-53.35798
-53.72175
-56.46669
-59.64203
-59.99871
-58.09416
-55.88013
-54.18564
-52.82216
-51.5992
-49.33421
-92.56729
-54.85489
-63.9588
-64.35467
-55.87534
-49.50358
-49.86154
-60.02731
-65.35788
-60.12149
-58.69936
-64.61104
-71.91077
-77.84874
-81.08425
-80.58246
-75.14946
-66.38373
-58.40486
-53.08338
-50.78248
-50.22331
-51.08073
-51.29604
-54.38871
-61.45467
-58.97239
-48.21746
-44.45919
-50.8445
-60.62618
-63.76777
-59.98297
-58.60303
-63.87989
-73.45667
-83.62834
-91.94632
-97.3526
-99.63649
-98.9841
-95.77605
-90.36276
-83.20113
-74.97638
-66.54309
-58.00235
-49.51667
-42.6853
-36.56801
-83.84844
-55.23463
-63.63424
-64.60337
-56.22774
-49.71727
-49.95397
-60.12616
-65.55064
-60.11527
-58.64317
-64.60354
-71.96414
-77.90139
-81.13519
-80.66498
-75.21939
-66.42629
-58.4612
-53.13008
-50.84468
-50.29738
-51.22133
-51.45065
-54.55383
-61.63196
-59.03857
-48.20346
-44.63977
-51.16607
-60.82528
-63.80483
-59.86257
-58.67126
-64.34778
-74.25055
-84.36423
-92.47187
-97.68687
-99.89068
-99.16255
-95.84096
-90.29704
-83.02891
-74.71354
-66.21559
-57.66107
-49.17871
-42.36498
-35.59565
-19.34893
-17.39563
-17.33657
-22.31082
-29.65123
-31.4259
-27.32193
-23.37429
-22.52486
-22.82963
-23.11562
-23.8507
-24.90615
-25.97806
-26.91806
-27.69152
-28.32691
-28.8465
-29.28197
-29.63287
-29.91113
-30.14124
-30.32066
-30.4602
-30.57249
-30.66993
-30.75884
-30.84719
-30.92834
-31.00897
-31.09588
-31.19093
-31.30004
-31.42215
-31.56369
-31.71787
-31.88819
-32.08203
-32.28748
-32.49972
-32.75309
-33.02846
-33.32005
-33.6546
-34.00159
-34.37007
-34.76059
-35.1794
-35.62757
-36.08969
-36.56679
-37.06606
-37.57614
-38.10081
-38.62946
-39.16923
-39.71453
-40.24886
-40.77891
-41.30726
-41.8302
-42.34058
-42.8402
-43.33713
-43.82315
-44.29695
-44.77182
-45.2574
-45.72361
-46.18263
-46.64074
-47.09263
-47.54309
-47.99804
-48.45117
-48.89125
-49.32289
-49.76552
-50.22239
-50.67217
-51.10219
-51.40317
-51.65179
-53.10878
-55.4054
-55.73028
-54.33209
-53.47223
-53.42473
-53.38205
-53.78577
-56.65517
-59.81711
-60.02108
-57.9954
-55.7583
-54.07965
-52.724
-51.49092
-49.17719
-50.21563
-52.64268
-52.59278
-52.70747
-60.62604
-61.68242
-58.96327
-54.74757
-51.01444
-47.6422
-44.38243
-41.57903
-39.11285
-38.12584
-40.58983
-45.91944
-51.33898
-58.37334
-67.83882
-78.72995
-89.94332
-100.6436
-110.1296
-117.1965
-120.5946
-118.8083
-111.1529
-98.29864
-84.42798
-75.98161
-72.86293
-75.5225
-82.22527
-86.15648
-88.15653
-86.72491
-82.49314
-74.81375
-62.34457
-51.1222
-50.49732
-57.55998
-62.22168
-62.78215
-61.55949
-60.60324
-59.01909
-63.30663
-60.16939
-86.62874
-47.59859
-41.82322
-33.81276
-29.05554
-24.84953
-21.31893
-18.22055
-15.36234
-12.85105
-10.54371
-8.418302
-6.457841
-4.59268
-2.815465
-1.138879
0.4268604
1.901158
3.33097
4.705319
6.02545
7.295564
8.509423
9.662561
10.80193
11.92028
13.01898
14.07467
15.07779
16.0505
17.01202
17.96627
18.90782
19.80659
20.67894
21.55003
22.4058
23.25698
24.09906
24.94461
25.75765
26.58671
27.38147
28.17205
28.95117
29.7288
30.49381
31.24715
32.0043
32.77851
33.55146
34.30717
35.05203
35.79675
36.56736
37.3523
38.12718
38.90475
39.6964
40.49271
41.30228
42.11415
42.92626
43.78181
44.72392
45.68106
46.60772
47.57119
48.64281
49.88225
51.21531
52.55558
54.20379
52.69969
51.18855
50.03539
49.02097
48.02035
46.99043
46.00374
45.12821
44.31199
43.44954
42.56381
41.69926
40.88263
40.08971
39.29854
38.49593
37.69436
36.92033
36.156
35.37807
34.60154
33.83695
33.05961
32.29272
31.51203
30.70117
29.90554
29.13001
28.35038
27.54897
26.71411
25.90961
25.07752
24.22331
23.37067
22.51539
21.62842
20.73054
19.83436
18.92151
17.9627
16.96184
15.96355
14.97507
13.95076
12.88121
11.78417
10.64127
9.457463
8.244484
6.993536
5.732811
4.39001
2.96795
1.500986
-0.04909521
-1.65828
-3.383882
-5.235662
-7.185556
-9.256556
-11.54225
-14.04915
-16.86855
-19.93969
-23.43181
-27.65654
-32.42716
-40.36046
-46.26454
54.08331
52.84705
51.35365
50.16735
49.14437
48.14405
47.10871
46.11451
45.23083
44.40819
43.54169
42.65352
41.7846
40.96255
40.16503
39.36968
38.56391
37.75849
36.98174
36.21327
35.43185
34.65294
33.88582
33.10511
32.33722
31.55383
30.73899
29.94304
29.16517
28.38376
27.57933
26.74663
25.93372
25.10381
24.24582
23.39206
22.5359
21.64543
20.74679
19.84984
18.93634
17.97403
16.97026
15.97135
14.98339
13.95603
12.88498
11.78718
10.64104
9.455346
8.240318
6.986959
5.727596
4.378744
2.953044
1.485138
-0.07135781
-1.680937
-3.414713
-5.272835
-7.226646
-9.303008
-11.60158
-14.11642
-16.94419
-20.03626
-23.55222
-27.79732
-32.64796
-40.47049
-46.34901
-47.78106
-41.95669
-34.04161
-29.19567
-24.97519
-21.41691
-18.2984
-15.42982
-12.90956
-10.5937
-8.459204
-6.494299
-4.624772
-2.841583
-1.160063
0.4115566
1.88651
3.319956
4.697305
6.02017
7.29183
8.509687
9.662182
10.80325
11.92344
13.0243
14.08329
15.0873
16.06082
17.02302
17.97855
18.92304
19.82439
20.696
21.56928
22.42605
23.2807
24.1249
24.96795
25.79131
26.61738
27.41393
28.20686
28.9882
29.76737
30.53524
31.29088
32.05049
32.82697
33.60283
34.36086
35.10894
35.85706
36.63027
37.41967
38.19794
38.97936
39.7748
40.57571
41.38884
42.20579
43.02524
43.88765
44.83542
45.79835
46.73119
47.70623
48.78581
50.03337
51.36236
52.58014
-48.07508
-52.49747
-53.48114
-53.7482
-61.2479
-62.3053
-59.49382
-55.16403
-51.2595
-47.81246
-44.59087
-41.80322
-39.25805
-38.09404
-40.41447
-45.76858
-51.16522
-58.15086
-67.5809
-78.48534
-89.75469
-100.5164
-110.0696
-117.2251
-120.7075
-119.1045
-111.732
-99.23872
-85.32489
-76.21231
-72.7348
-75.31186
-82.40171
-86.25344
-87.94863
-87.18335
-83.06653
-75.06414
-62.55668
-51.36107
-50.78157
-57.92553
-62.47133
-62.96476
-61.64604
-60.50878
-59.10094
-63.44242
-61.25229
-79.90148
-19.95398
-17.56279
-17.17407
-21.79445
-29.23573
-31.61262
-27.61044
-23.55766
-22.55393
-22.8265
-23.16029
-23.89453
-24.91102
-25.95117
-26.88488
-27.65983
-28.29894
-28.82109
-29.25932
-29.61771
-29.90093
-30.13484
-30.31686
-30.45789
-30.57071
-30.6688
-30.75754
-30.8465
-30.92801
-31.0084
-31.09531
-31.19007
-31.29866
-31.42092
-31.56208
-31.71643
-31.88621
-32.08006
-32.2865
-32.49781
-32.75103
-33.0269
-33.31823
-33.65292
-34.00054
-34.36938
-34.76019
-35.17923
-35.62789
-36.09057
-36.56865
-37.06907
-37.57963
-38.10538
-38.63415
-39.17521
-39.72143
-40.25594
-40.78707
-41.31638
-41.84018
-42.3511
-42.85143
-43.3499
-43.83638
-44.30963
-44.78591
-45.27417
-45.74107
-46.20138
-46.66096
-47.1133
-47.56567
-48.0239
-48.47882
-48.91668
-49.34929
-49.79445
-50.252
-50.70005
-51.12522
-51.42957
-51.74442
-53.25865
-55.50113
-55.69489
-54.26834
-53.47024
-53.46179
-53.44049
-53.95278
-56.96666
-60.03521
-59.9737
-57.82818
-55.59058
-53.95055
-52.61455
-51.2908
-48.85524
-77.26871
-56.19864
-63.2612
-65.01841
-56.73078
-50.06133
-50.18456
-60.24875
-65.80822
-60.17181
-58.67379
-64.6992
-72.10373
-78.01532
-81.26558
-80.82784
-75.36169
-66.52797
-58.5949
-53.22857
-50.96925
-50.43082
-51.47874
-51.85611
-54.8921
-61.8838
-59.11347
-48.21167
-44.9251
-51.66921
-61.33421
-63.9426
-59.85691
-59.00524
-65.27723
-75.37345
-85.22588
-93.02715
-97.97844
-99.81134
-98.85093
-95.36461
-89.65545
-82.25758
-73.85081
-65.26631
-56.71349
-48.3602
-41.41828
-33.41818
-72.80864
-57.33645
-62.97461
-65.60299
-57.3196
-50.55996
-50.5513
-60.40877
-66.14203
-60.37643
-58.87656
-64.94158
-72.3522
-78.23372
-81.50686
-81.11442
-75.62602
-66.73958
-58.85525
-53.43782
-51.18855
-50.63401
-51.87685
-52.58341
-55.50642
-62.18417
-59.19161
-48.20658
-45.26974
-52.35182
-61.96687
-64.12604
-60.08813
-59.96047
-66.9005
-76.87878
-86.32738
-93.81515
-98.54943
-100.3441
-99.0395
-95.27133
-89.31838
-81.73369
-73.17499
-64.48121
-55.9626
-47.6169
-40.40878
-31.86769
-20.44323
-17.74384
-17.05571
-21.21589
-28.83472
-31.82425
-28.05804
-23.79086
-22.64198
-22.87911
-23.25035
-23.96844
-24.92983
-25.92831
-26.85431
-27.63083
-28.27346
-28.80205
-29.24213
-29.60459
-29.89
-30.12779
-30.31291
-30.4558
-30.5691
-30.66823
-30.75665
-30.84651
-30.92854
-31.00863
-31.09574
-31.19021
-31.29812
-31.4205
-31.5612
-31.71595
-31.88492
-32.07867
-32.28689
-32.4964
-32.7494
-33.0263
-33.31691
-33.65181
-34.00039
-34.36975
-34.76103
-35.17984
-35.62906
-36.09248
-36.57192
-37.0739
-37.58504
-38.11237
-38.64084
-39.18348
-39.73046
-40.26422
-40.79628
-41.32648
-41.85081
-42.36118
-42.86168
-43.36129
-43.84692
-44.31974
-44.80046
-45.28836
-45.75389
-46.21513
-46.67516
-47.12732
-47.58084
-48.04044
-48.49551
-48.93391
-49.37194
-49.82276
-50.28295
-50.72992
-51.15612
-51.48591
-51.88604
-53.45721
-55.56487
-55.60678
-54.2036
-53.49306
-53.52489
-53.51822
-54.21355
-57.39792
-60.29696
-59.9434
-57.65616
-55.42396
-53.82514
-52.48759
-51.04467
-48.32666
-46.1819
-52.09797
-54.56321
-55.64419
-62.31533
-63.06629
-60.22345
-55.67835
-51.46607
-47.84914
-44.6326
-41.92768
-39.44838
-38.10766
-40.23664
-45.64602
-51.01861
-57.9992
-67.38119
-78.29875
-89.65667
-100.5001
-110.144
-117.4376
-121.0959
-119.6917
-112.5836
-100.5132
-86.75981
-76.80622
-72.65482
-74.86401
-82.80041
-86.30663
-87.27204
-87.72107
-83.83427
-75.40975
-62.88022
-51.73467
-51.25382
-58.51977
-62.86287
-63.26321
-61.74062
-60.27487
-59.22732
-63.64514
-62.42833
-75.47664
-47.99467
-42.00709
-34.24124
-29.32058
-25.09175
-21.5074
-18.37349
-15.49791
-12.95682
-10.63926
-8.496326
-6.528706
-4.657093
-2.868684
-1.181913
0.3972068
1.869884
3.305998
4.685854
6.011446
7.284338
8.507687
9.657524
10.80013
11.92135
13.02399
14.08728
15.09104
16.0636
17.02644
17.98341
18.93148
19.83461
20.70329
21.5792
22.43603
23.2939
24.13797
24.97768
25.80444
26.63183
27.4292
28.22376
29.00502
29.78547
30.55488
31.31074
32.06966
32.84868
33.62791
34.38608
35.13492
35.8826
36.65828
37.45296
38.23188
39.01312
39.81358
40.61645
41.43167
42.25168
43.07534
43.94123
44.90261
45.87473
46.80488
47.78784
48.87883
50.14707
51.47181
52.569
53.89695
52.94481
51.49048
50.26572
49.22629
48.23082
47.18634
46.17639
45.28617
44.46694
43.5956
42.7033
41.82585
41.00069
40.20149
39.40617
38.59704
37.78674
37.01077
36.24223
35.45773
34.67763
33.91109
33.12568
32.36128
31.57652
30.75535
29.95925
29.1809
28.39981
27.59304
26.75919
25.94496
25.11832
24.25621
23.40218
22.54619
21.65196
20.75404
19.85828
18.94539
17.9786
16.97105
15.97329
14.98781
13.95647
12.88449
11.78719
10.63677
9.449138
8.232261
6.976888
5.722393
4.364832
2.935251
1.46796
-0.09552333
-1.701449
-3.445456
-5.309306
-7.263874
-9.34231
-11.6519
-14.1855
-17.0154
-20.12507
-23.66231
-27.92622
-32.83699
-40.49619
-46.3999
53.62635
52.98347
51.63914
50.40344
49.34521
48.35634
47.30722
46.29085
45.3992
44.58092
43.70145
42.80953
41.92565
41.09519
40.29063
39.49411
38.68076
37.86227
37.08441
36.31193
35.52205
34.73976
33.97259
33.17965
32.41866
31.6316
30.80161
30.00674
29.22603
28.44316
27.62996
26.80555
25.98197
25.15449
24.28712
23.43299
22.57451
21.67106
20.77223
19.87811
18.96904
17.99552
16.97857
15.98093
15.00178
13.96405
12.88966
11.79463
10.63804
9.446437
8.224248
6.964675
5.7221
4.352972
2.918841
1.449827
-0.1253423
-1.722176
-3.482525
-5.355277
-7.313156
-9.390107
-11.71463
-14.27062
-17.10399
-20.23237
-23.79518
-28.07193
-33.0319
-40.47362
-46.50199
-48.29747
-42.01581
-34.44661
-29.45457
-25.23567
-21.61972
-18.46726
-15.57912
-13.01636
-10.70039
-8.542504
-6.570199
-4.69808
-2.900108
-1.203669
0.3848537
1.849103
3.289263
4.674178
6.005674
7.280562
8.511192
9.656081
10.80169
11.92395
13.03208
14.10288
15.1038
16.07639
17.04348
18.00192
18.95225
19.85866
20.72383
21.60458
22.46093
23.3235
24.16833
25.01157
25.85289
26.6725
27.46986
28.26812
29.05193
29.83578
30.60804
31.36419
32.12561
32.91115
33.69656
34.45437
35.20607
35.95533
36.7343
37.53711
38.31841
39.10369
39.91048
40.71468
41.53244
42.35887
43.19064
44.05701
45.02525
46.00532
46.93161
47.9247
49.0172
50.27335
51.55414
52.51335
-43.78781
-50.74277
-55.83773
-58.4244
-64.07598
-64.43912
-61.25713
-56.38085
-51.76462
-47.93514
-44.74623
-42.19491
-39.72059
-38.16941
-40.05792
-45.50488
-50.88771
-57.94626
-67.29106
-78.19036
-89.64775
-100.611
-110.3456
-117.8132
-121.6895
-120.5322
-113.7688
-102.1711
-88.74198
-78.12546
-72.86505
-74.54837
-83.63088
-86.4269
-86.10588
-88.26798
-84.79028
-75.85825
-63.411
-52.17336
-51.94066
-59.45362
-63.47527
-63.70351
-61.84203
-59.86383
-59.40126
-63.88672
-63.22025
-71.81355
-20.68782
-17.88087
-16.9855
-20.48789
-28.10193
-31.98559
-28.66553
-24.27245
-22.92
-23.04382
-23.38156
-24.05931
-24.96021
-25.9062
-26.82065
-27.59724
-28.24356
-28.77664
-29.22274
-29.59335
-29.88041
-30.12261
-30.31118
-30.45616
-30.5695
-30.67008
-30.75756
-30.84832
-30.93122
-31.01088
-31.09824
-31.19205
-31.29884
-31.42153
-31.56173
-31.71724
-31.88493
-32.0785
-32.28954
-32.49542
-32.74879
-33.02763
-33.31593
-33.65141
-34.00157
-34.37203
-34.76519
-35.18212
-35.63126
-36.0955
-36.57737
-37.08136
-37.59322
-38.12295
-38.65087
-39.19586
-39.74396
-40.27616
-40.80847
-41.33932
-41.86577
-42.3759
-42.87638
-43.37911
-43.86344
-44.3341
-44.82036
-45.31061
-45.77444
-46.23872
-46.69982
-47.15181
-47.60873
-48.07302
-48.53091
-48.97086
-49.41064
-49.86251
-50.32358
-50.76859
-51.19949
-51.57521
-52.08329
-53.61977
-55.45624
-55.40143
-54.13149
-53.5499
-53.62075
-53.65531
-54.58129
-57.91545
-60.56453
-59.87198
-57.45493
-55.2577
-53.71202
-52.36817
-50.78722
-47.63582
-68.98877
-58.21306
-62.84399
-66.34888
-58.03948
-51.1486
-50.84739
-60.65528
-66.49064
-60.75663
-59.34944
-65.38927
-72.77599
-78.63035
-81.91234
-81.58321
-76.09893
-67.1642
-59.34746
-53.83518
-51.52765
-50.86262
-52.44688
-53.58826
-56.4141
-62.33034
-58.92473
-48.02113
-45.55625
-52.99611
-62.59567
-64.32352
-60.74342
-61.75144
-69.03548
-78.66803
-87.61618
-94.69588
-99.0565
-100.3288
-98.96288
-95.0123
-88.79694
-81.00391
-72.27564
-63.46594
-55.0094
-46.58869
-38.99114
-29.56467
-65.1869
-58.5928
-63.0078
-67.1037
-59.31449
-51.63574
-50.85771
-61.02405
-66.74714
-61.29747
-60.20623
-66.08455
-73.48862
-79.29242
-82.49812
-82.34857
-76.95899
-67.98196
-60.25395
-54.47754
-52.03236
-51.13296
-53.13178
-54.77168
-57.52996
-61.93657
-57.66645
-47.27977
-45.68554
-53.23721
-62.637
-64.31181
-61.93734
-64.13625
-71.47294
-80.76161
-89.23191
-95.93363
-99.99982
-101.089
-99.19423
-94.83339
-88.21034
-80.14527
-71.22346
-62.23617
-53.74135
-45.15987
-37.25691
-27.9614
-20.70045
-17.93631
-16.94779
-19.57378
-26.57948
-31.19845
-29.09968
-24.99111
-23.39347
-23.29677
-23.53891
-24.1681
-25.01226
-25.89271
-26.79487
-27.56971
-28.22223
-28.75125
-29.20077
-29.58254
-29.87018
-30.11782
-30.31059
-30.45897
-30.5718
-30.67469
-30.75997
-30.85219
-30.93736
-31.01603
-31.1031
-31.19575
-31.30152
-31.425
-31.56401
-31.72051
-31.88642
-32.08014
-32.29415
-32.49733
-32.75035
-33.02851
-33.31659
-33.6511
-34.00309
-34.37515
-34.76975
-35.18724
-35.63596
-36.09989
-36.58622
-37.09291
-37.60499
-38.13751
-38.66337
-39.2132
-39.76124
-40.29412
-40.82641
-41.35493
-41.88231
-42.39472
-42.89356
-43.39984
-43.88616
-44.35099
-44.83858
-45.33445
-45.79488
-46.26279
-46.72607
-47.17428
-47.63321
-48.10449
-48.56568
-48.99804
-49.43851
-49.90204
-50.37113
-50.81417
-51.25459
-51.68527
-52.29279
-53.67099
-55.13904
-55.11698
-54.0722
-53.64591
-53.76537
-53.87456
-55.05942
-58.46158
-60.76147
-59.71392
-57.2071
-55.08664
-53.61325
-52.25464
-50.47823
-46.87657
-41.62664
-48.72177
-57.40855
-62.08247
-66.61381
-66.29232
-62.61301
-57.33361
-52.25473
-48.11661
-44.95181
-42.55695
-40.03278
-38.33539
-39.96706
-45.34723
-50.66312
-57.79468
-67.21379
-78.12253
-89.63908
-100.9144
-110.8117
-118.4666
-122.6295
-121.8182
-115.5121
-104.4128
-91.38119
-80.36705
-73.91922
-74.62874
-85.00231
-86.50739
-84.5642
-88.9404
-86.02172
-76.62594
-64.54603
-53.04608
-52.8631
-60.88597
-64.40538
-64.32009
-61.93948
-59.19003
-59.31556
-63.99768
-63.41712
-68.21505
-48.56668
-41.92202
-34.6193
-29.57058
-25.40317
-21.73351
-18.55323
-15.65996
-13.09001
-10.77245
-8.58189
-6.615903
-4.74874
-2.929648
-1.226619
0.3608527
1.812997
3.271161
4.664059
6.004216
7.273817
8.507924
9.650297
10.79726
11.92056
13.04243
14.1095
15.10497
16.08531
17.0527
18.00073
18.95357
19.87652
20.73354
21.61949
22.47325
23.34367
24.19141
25.03618
25.86624
26.68857
27.49003
28.29578
29.08077
29.86345
30.63439
31.39649
32.16215
32.94668
33.73001
34.4878
35.24694
35.99728
36.77834
37.58876
38.37606
39.15991
39.96769
40.77641
41.60402
42.4378
43.27876
44.13897
45.12189
46.12849
47.0555
48.06773
49.1518
50.37854
51.59921
52.3922
53.25598
52.92141
51.76453
50.55676
49.479
48.48895
47.41688
46.38431
45.49057
44.67717
43.77427
42.8794
41.98936
41.16283
40.34885
39.54857
38.73401
37.91319
37.14015
36.36151
35.56396
34.78111
34.014
33.21046
32.45738
31.66021
30.82185
30.03098
29.25182
28.47363
27.65003
26.80624
25.99815
25.16745
24.29499
23.45225
22.5991
21.68552
20.78431
19.88405
18.98127
18.01014
16.98461
15.97673
15.00699
13.96739
12.8859
11.79377
10.63644
9.445121
8.215248
6.937762
5.711162
4.328414
2.903294
1.431894
-0.1672766
-1.742033
-3.525117
-5.397238
-7.37001
-9.445717
-11.78001
-14.35346
-17.19069
-20.33874
-23.9291
-28.20759
-33.18771
-40.33052
-46.52
52.82264
52.72998
51.82645
50.72428
49.67521
48.72158
47.60588
46.53358
45.65688
44.88371
43.97484
43.04554
42.11007
41.29302
40.49847
39.68026
38.82991
37.99055
37.24288
36.46333
35.64787
34.87058
34.11003
33.27496
32.57983
31.74618
30.87883
30.10203
29.29519
28.5428
27.7081
26.89472
26.09147
25.22914
24.3082
23.46993
22.62512
21.71492
20.83431
19.9247
18.9836
18.01395
17.02279
16.00491
15.00994
13.98655
12.90415
11.77733
10.62241
9.446038
8.242605
6.948312
5.705873
4.26875
2.874245
1.43073
-0.232211
-1.768054
-3.613448
-5.433478
-7.414915
-9.561789
-11.90627
-14.48941
-17.32847
-20.50192
-24.14174
-28.43005
-33.43387
-40.14468
-46.48629
-48.72655
-41.87057
-34.91633
-29.77825
-25.68166
-21.83891
-18.67801
-15.81159
-13.23014
-10.83537
-8.610696
-6.700006
-4.812743
-2.954628
-1.282886
0.3053315
1.802842
3.287318
4.657902
5.998605
7.238857
8.488128
9.667132
10.77756
11.93244
13.06076
14.08665
15.13131
16.11973
17.05766
17.99648
19.00286
19.95723
20.75853
21.65984
22.50887
23.39657
24.24072
25.07795
25.90298
26.75388
27.56848
28.36782
29.14848
29.91925
30.7158
31.49456
32.23671
33.00426
33.82581
34.61176
35.36021
36.10836
36.87469
37.71419
38.52043
39.26262
40.10824
40.94525
41.75711
42.58794
43.43555
44.28529
45.31317
46.37521
47.24953
48.2378
49.26535
50.45188
51.5957
52.18326
-40.13361
-46.72083
-58.91562
-66.16392
-69.84252
-68.74157
-64.41729
-58.84135
-53.08814
-48.53964
-45.38636
-43.06285
-40.69729
-38.81892
-40.10635
-45.5289
-50.48393
-57.37671
-67.05958
-78.19634
-89.7766
-101.4576
-111.8417
-119.6532
-124.085
-123.7107
-117.8668
-107.3698
-94.92477
-83.74773
-76.5342
-75.75148
-87.95631
-88.33723
-83.04825
-90.21516
-87.59914
-78.3279
-66.24873
-55.58559
-54.48205
-62.99678
-65.72412
-65.15961
-62.06766
-58.50041
-58.59616
-63.23347
-62.71253
-64.81791
-20.51799
-17.86547
-16.83191
-18.46902
-24.15424
-28.96155
-28.58974
-25.57097
-23.90074
-23.58271
-23.72288
-24.26999
-25.0619
-25.88262
-26.75838
-27.52606
-28.16764
-28.7253
-29.16809
-29.57062
-29.85763
-30.11329
-30.31171
-30.46723
-30.5773
-30.68427
-30.76494
-30.86092
-30.94929
-31.02379
-31.11166
-31.20497
-31.31092
-31.43326
-31.5696
-31.72611
-31.89114
-32.08364
-32.29889
-32.50978
-32.75506
-33.02193
-33.32594
-33.65241
-34.00507
-34.37662
-34.75878
-35.19502
-35.64636
-36.10866
-36.59823
-37.11469
-37.62144
-38.15932
-38.67408
-39.23577
-39.77453
-40.31661
-40.86253
-41.38966
-41.90208
-42.4186
-42.92179
-43.41168
-43.91076
-44.39701
-44.87489
-45.36658
-45.83105
-46.29475
-46.76468
-47.21893
-47.67656
-48.14487
-48.61495
-49.05842
-49.49895
-49.9599
-50.44677
-50.88
-51.33368
-51.80768
-52.48982
-53.71799
-54.8782
-54.83841
-54.02908
-53.76311
-53.93319
-54.15647
-55.63341
-59.02064
-60.87043
-59.40411
-56.88436
-54.89473
-53.51097
-52.07938
-50.09902
-46.15144
-61.70396
-58.18497
-63.53548
-68.16441
-61.16733
-51.77548
-50.9519
-60.65987
-66.6673
-61.88172
-61.53693
-67.14892
-74.58292
-80.40992
-83.91829
-83.67881
-78.52007
-69.36827
-61.71429
-55.40798
-52.83846
-51.86096
-53.91976
-56.14862
-58.65019
-60.59499
-54.80006
-45.7904
-45.44518
-52.79887
-61.65378
-64.00082
-63.57252
-67.08176
-74.18865
-83.38413
-91.37407
-97.38501
-100.9883
-101.6266
-99.13409
-94.18593
-87.23128
-78.93046
-69.86025
-60.5386
-51.7853
-43.34266
-35.20536
-25.88058
-0.0112677
-0.004163519
-3.139971
2.979272
0.4328085
-0.1175052
0.01919716
2.927003
-0.07034419
0.03544882
0.6621691
0.4496494
-0.005138256
9.145241
0.04500114
3.817845
6.658398
-9.8661
2.356773
2.579739
-0.6542937
2.293725
0.02132931
2.199774
-0.02850268
3.452188
2.072135
1.085333
2.467693
-0.2491211
-0.2891223
-0.4421122
-40.64104
-0.04932246
3.227051
0.04143049
0.02366614
4.746855
0.002827646
3.568648
4.741445
-0.006454624
0.9886593
0.4083545
0.3495486
6.331126
-0.009177699
-0.003945597
0.001553433
5.115712
-2.090564
0.0007059168
-0.885428
0.003183473
3.347424
0.02608634
-2.523309
-1.540634
-8.423845
-0.0005830905
0.1135638
1.740053
-0.07858886
0.4514949
5.5162
0.03465946
-0.07459798
1.425993
15.58848
-0.4957467
0.7592244
-0.03348647
3.603631
1.388817
1.527495
1.538687
1.05496
0.4795525
-0.007251946
1.870092
0.2453477
-0.06424085
0.2658793
-0.07738162
0.184013
0.04809881
7.419357
0.02091691
-0.25818
-0.7271443
5.351834
5.884799
3.814822
1.246045
0.3348365
-1.035653
4.059542
2.699541
-76.3086
0.3704495
-0.09998095
6.235203
6.87304
0.2079582
-1.4499
2.909544
-0.1857384
3.565818
-0.4168558
3.067213
0.02743583
-37.95074
0.01829511
-0.3994998
-2.42196
0.01016287
-0.09504398
-21.85446
-6.023947
0.4596169
-0.3992438
-0.9100052
-0.2310478
0.0605398
2.385405
-0.2754327
0.006744054
0.06548831
1.838962
-0.003946918
11.08938
6.146841
2.929696
-0.5428492
0.04409125
-0.0197414
-2.529292
-129.1829
-7.815806
4.637284
2.975906
5.416811
3.296778
-5.189571
-0.04406374
0.1586
3.064699
-0.3890142
0.01832519
5.820135
0.8254911
0.1133719
-0.2620771
2.798982
8.797606
2.546037
0.03831229
-1.052167
0.002586011
-0.3942881
0.3399897
2.934771
-1.825025
0.01235254
6.018606
-0.05049317
-0.05552291
4.880412
-0.1619001
1.615441
0.1020005
0.2515538
0.01890177
-2.021326
-0.3035367
0.002342663
-0.3476585
-0.01282457
-0.09544363
2.194936
-0.04948417
3.722731
-5.934109
0.01680193
-0.5002094
-2.392865
4.079763
3.705217
6.302543
-0.1156862
-3.176771
0.02772078
0.2885156
0.03986293
6.12469
-0.4040939
-0.3628583
0.4472061
-8.697045
-0.4112636
5.597682
-0.2438046
-0.4432702
7.837146
-0.2797373
-0.2480661
0.01559826
-4.480469
-7.667599
0.1023636
0.01649375
0.9795383
0.01880211
3.501578
0.01921069
0.01097157
-0.4009998
-0.1681788
1.614631
0.6793986
-4.695771
-3.547414
2.46293
0.0975765
20.0801
1.640647
1.393484
0.02639888
-1.332533
-6.684071
0.04383371
0.03477888
-2.270842
3.474339
1.016637
4.362919
2.070965
2.210302
3.275211
0.06476584
-1.356066
0.2288954
0.02865821
-0.07634388
0.1415645
0.9378739
-1.01603
-1.119141
-1.066747
2.229253
2.234967
-63.01265
6.444619
-0.7198118
0.02315851
10.90827
-0.2933025
1.534665
-0.3825119
-1.042821
2.227197
0.3117494
0.651223
0.4131198
3.781616
0.5596715
0.07823901
0.4710217
2.606122
0.2770041
-0.9848888
0.03450108
-0.1782224
0.0268491
5.995088
5.257851
3.484505
0.07203662
1.629554
0.05160218
-0.5643551
-31.07422
1.018595
-0.2283009
6.408163
0.03516113
-1.627905