/*--------------------------------*- C++ -*----------------------------------*\
| =========                 |                                                 |
| \\      /  F ield         | OpenFOAM: The Open Source CFD Toolbox           |
|  \\    /   O peration     | Version:  2406                                  |
|   \\  /    A nd           | Website:  www.openfoam.com                      |
|    \\/     M anipulation  |                                                 |
\*---------------------------------------------------------------------------*/
FoamFile
{
    version     2.0;
    format      ascii;
    arch        "LSB;label=32;scalar=64";
    class       volScalarField;
    location    "0.38";
    object      p;
}
// * * * * * * * * * * * * * * * * * * * * * * * * * * * * * * * * * * * * * //

dimensions      [0 2 -2 0 0 0 0];

internalField   nonuniform List<scalar> 
4541
(
2.317345e-05
2.014255e-05
1.578058e-05
5.991964e-06
2.483881e-05
3.911624e-05
2.664503e-05
2.523135e-05
4.039053e-05
5.689781e-06
3.857895e-05
2.545304e-05
1.423429e-05
3.01452e-05
9.254798e-06
-2.503669e-07
-6.192467e-06
-7.626232e-06
-1.107571e-05
1.951275e-05
-1.161679e-05
2.290351e-05
9.574893e-07
4.814721e-05
2.245131e-05
2.550516e-05
3.002293e-05
2.557053e-05
4.066528e-05
1.36582e-05
2.777849e-05
2.988947e-05
5.822897e-06
3.629404e-05
2.051729e-05
1.395503e-05
1.663962e-05
1.314452e-05
3.183912e-05
-8.465035e-06
1.40351e-05
4.239347e-05
1.750914e-05
6.08359e-06
1.256269e-05
5.37888e-06
1.297675e-05
-1.961179e-05
1.973221e-05
2.772503e-05
3.233872e-05
3.60848e-06
-2.564582e-06
2.878919e-05
-2.946396e-06
3.342177e-05
2.571659e-05
3.733718e-05
-6.470397e-06
2.00229e-05
3.156637e-05
1.853377e-05
-1.158775e-05
6.119529e-05
4.076591e-05
1.94244e-05
3.464174e-05
1.110182e-05
2.256008e-06
-1.678286e-05
-7.807929e-06
-2.018474e-06
2.74756e-05
3.646434e-06
3.812764e-05
1.669904e-06
-3.721573e-06
-1.231118e-05
1.014256e-05
3.634112e-05
-1.016338e-05
1.068735e-05
3.390079e-05
8.471219e-06
2.789399e-05
2.338922e-05
2.047134e-05
-1.544e-05
-7.188064e-06
-4.663259e-07
2.282597e-05
-1.790527e-05
-8.940548e-06
-4.962469e-06
2.89802e-05
-1.390703e-05
2.492649e-05
1.88429e-05
2.257869e-05
2.443343e-05
2.915697e-05
1.694542e-05
3.659213e-05
-3.246498e-06
5.676506e-06
3.200303e-05
-8.99754e-06
1.305184e-05
1.775836e-05
7.804815e-06
2.2789e-05
3.197913e-05
6.031561e-06
1.347962e-06
3.438467e-05
3.193179e-05
2.964619e-05
-6.403213e-06
3.127864e-05
4.364597e-05
4.518834e-06
2.096531e-06
1.129246e-05
-4.355857e-06
-2.293465e-06
1.754609e-05
5.012279e-05
5.572554e-05
2.09305e-05
4.111522e-05
3.785114e-05
2.553041e-05
2.921555e-05
1.71369e-05
1.868323e-05
6.254312e-05
5.157626e-06
2.638065e-05
4.090183e-06
1.14692e-05
2.791417e-05
-5.727513e-06
4.035319e-05
-2.764211e-06
1.710637e-05
3.957217e-05
4.169305e-05
3.162033e-05
-4.169422e-06
3.472717e-05
-6.157992e-07
8.705509e-06
2.99326e-05
2.1304e-05
2.429662e-05
4.094838e-05
3.966509e-05
-1.178938e-05
3.539483e-05
1.085075e-05
2.978871e-05
2.451617e-05
4.290995e-05
-8.677791e-06
8.168294e-06
2.195818e-06
3.969892e-05
2.061589e-05
2.275966e-05
3.574857e-05
3.687257e-05
1.935582e-07
-1.342121e-05
3.903046e-07
-1.742599e-06
1.360798e-05
-9.044216e-06
2.700929e-05
1.913473e-05
3.830143e-05
-3.875507e-06
4.710627e-05
5.267826e-06
2.440458e-05
2.396149e-05
2.035404e-06
1.319425e-05
3.355908e-05
7.573776e-06
3.679613e-05
2.308746e-05
8.597437e-07
1.616324e-06
9.438118e-07
-5.530922e-06
1.016967e-05
2.896714e-05
-1.444875e-05
-1.418172e-05
-2.736339e-06
6.981103e-06
5.922383e-05
2.664219e-05
-2.637564e-07
5.600026e-06
-4.345749e-07
2.44123e-06
-4.102691e-06
2.879219e-05
1.592229e-05
2.905944e-05
-1.10492e-05
1.815181e-05
2.602966e-05
4.627382e-05
2.484831e-05
-1.275279e-06
1.862862e-05
5.278604e-05
4.375485e-05
6.946976e-05
8.479404e-07
3.572258e-05
3.120991e-05
4.226669e-06
3.043339e-05
1.562427e-07
1.483852e-06
-4.098624e-06
3.534567e-05
2.41477e-05
2.397754e-05
2.331347e-06
3.7569e-05
5.209877e-05
-2.102722e-05
7.100792e-06
1.400617e-05
2.996048e-05
3.352871e-05
2.423458e-05
-1.096833e-06
2.462408e-05
3.480409e-05
3.429997e-05
2.456835e-05
2.389332e-05
1.99827e-05
-1.1264e-05
2.291335e-05
2.999303e-05
4.253255e-05
-1.933526e-06
3.476299e-06
3.985163e-05
2.140257e-05
3.694127e-05
-1.436777e-06
-3.058754e-06
-7.109723e-07
3.766707e-05
2.578305e-05
4.360112e-06
6.004437e-05
2.69426e-05
-1.712376e-05
2.581812e-05
-1.57149e-05
9.192166e-06
-6.739388e-06
-1.434722e-05
1.636553e-05
4.104695e-05
3.24658e-05
3.24138e-06
1.115977e-06
4.531857e-05
-5.545407e-06
1.84946e-05
2.241145e-05
3.053551e-05
-6.759789e-06
2.27138e-05
1.414237e-05
-2.296299e-06
5.412931e-07
1.50086e-05
-7.598485e-06
-1.22365e-05
-1.128878e-05
2.791629e-05
2.672708e-05
3.916542e-05
-1.358607e-05
-1.337544e-05
2.592147e-05
3.21858e-05
2.567427e-05
-8.462476e-06
9.837408e-06
-2.959971e-06
3.494412e-05
2.377142e-05
1.072856e-05
1.177025e-05
4.610338e-05
4.468456e-05
-8.378555e-06
-1.31395e-06
-3.828462e-06
1.576112e-05
5.488116e-06
3.142104e-05
3.169479e-06
4.055603e-05
3.59487e-05
-2.748728e-06
4.191444e-05
7.112537e-07
6.38889e-05
5.038962e-06
-5.440213e-06
3.951997e-06
2.00643e-05
3.498547e-05
2.848766e-05
1.099163e-05
2.405971e-05
2.289698e-05
3.440463e-05
2.27065e-05
-1.470663e-06
-2.408298e-06
2.743783e-05
2.478094e-05
2.770343e-05
3.99172e-05
3.590168e-05
2.104781e-06
7.202586e-06
2.644512e-05
1.789762e-05
3.551369e-05
2.325431e-05
5.870577e-05
1.150091e-05
5.426221e-06
2.138907e-05
-9.287263e-07
2.027126e-05
-1.955986e-06
8.389184e-06
-5.201277e-06
2.960225e-05
-5.26858e-06
2.243965e-05
-6.698938e-06
-3.929392e-06
2.717712e-05
6.163127e-07
-1.149272e-05
2.007975e-07
1.041161e-05
2.644823e-05
-7.139654e-07
-1.183504e-05
1.316807e-05
3.035415e-05
1.765233e-05
-3.623725e-06
-3.481609e-06
6.387992e-05
-1.274967e-05
-9.676519e-06
1.93835e-05
2.528337e-05
2.357604e-05
2.869174e-05
6.863579e-06
2.452151e-05
3.262435e-05
-9.649198e-06
-8.269203e-06
2.702288e-06
-1.483375e-05
4.639068e-05
-3.443202e-06
1.301822e-05
3.629485e-05
3.292343e-05
6.491049e-06
5.528665e-06
-9.284264e-06
3.680379e-05
2.315901e-05
3.569852e-05
3.530125e-05
-6.586112e-06
1.197805e-05
2.22573e-05
8.782309e-06
6.393806e-06
2.951892e-05
2.874109e-05
3.898376e-05
-7.377853e-06
-9.348156e-06
9.39737e-06
-2.753863e-06
2.023413e-05
1.130765e-05
-9.83586e-06
1.806995e-05
3.92503e-05
3.586055e-05
1.202228e-05
4.129208e-06
7.082654e-06
-1.174918e-06
1.077982e-05
4.303535e-05
5.090477e-05
2.559396e-06
3.798907e-05
3.259823e-05
6.878192e-06
7.289666e-06
6.214006e-06
3.028067e-05
3.426792e-05
3.038031e-06
3.772731e-05
1.833962e-05
-7.270754e-07
7.185826e-06
3.077209e-05
-1.565339e-06
4.729435e-05
1.976293e-05
1.613055e-05
-5.447537e-06
3.7185e-05
2.240765e-05
-1.848736e-05
2.486776e-05
2.333751e-05
1.175642e-05
4.945892e-05
2.806635e-05
7.779742e-06
7.365459e-06
2.665703e-05
-4.314411e-06
-1.861686e-06
3.124679e-06
3.096709e-05
3.237507e-05
2.414882e-05
3.582063e-05
3.236049e-05
-9.458947e-06
1.020965e-06
2.881093e-05
-3.700934e-06
1.439648e-05
-7.061064e-06
-4.836639e-06
1.765379e-05
1.727289e-06
2.417519e-05
7.872283e-06
6.450332e-07
1.462248e-06
4.349545e-05
2.093954e-05
3.14345e-07
-1.997533e-05
2.738321e-05
2.257988e-05
2.432542e-05
2.347493e-06
-1.572579e-05
2.477133e-05
3.616861e-05
6.130967e-06
3.692281e-05
3.151375e-05
2.678174e-05
3.696133e-05
3.797475e-05
2.300841e-05
2.87822e-06
8.986775e-06
6.195345e-06
1.897511e-05
5.495674e-05
2.720402e-05
3.632762e-05
1.110437e-05
1.695256e-05
2.789007e-05
2.341128e-05
2.770855e-05
4.755715e-05
8.394877e-07
2.180313e-05
3.436361e-05
1.587908e-05
2.764247e-05
1.45015e-05
-8.885234e-06
5.985963e-06
-8.649981e-07
2.552339e-05
2.618814e-05
-1.505804e-05
2.22902e-06
2.670679e-05
5.116654e-07
2.829625e-05
2.904267e-05
-1.361771e-06
4.04426e-05
3.926377e-05
3.226034e-05
3.473777e-05
3.374681e-05
2.382879e-05
2.661659e-05
2.634697e-05
2.680878e-05
7.414552e-05
2.136474e-05
9.24718e-06
1.949474e-06
3.161595e-05
8.752879e-06
2.512994e-05
2.598577e-05
5.298149e-05
2.250647e-06
1.897947e-05
2.422091e-05
3.983268e-05
5.22129e-05
3.080126e-05
-6.483399e-06
2.584753e-05
6.716863e-05
4.900401e-05
1.640307e-05
2.517227e-05
1.875557e-05
3.798899e-05
4.148701e-06
3.086681e-05
2.744005e-05
8.588013e-07
1.573846e-05
3.552519e-05
1.016457e-05
3.133315e-05
1.732344e-05
4.908026e-05
2.219959e-05
-1.102979e-05
-1.777002e-06
-5.710934e-06
1.647889e-05
-8.875321e-06
-4.212563e-06
-3.204501e-08
4.911736e-05
2.607546e-05
1.352963e-06
-1.842396e-06
-6.167436e-07
-1.178276e-06
-1.51026e-06
1.297773e-05
1.216184e-05
2.705607e-05
6.115386e-06
5.645495e-06
2.658478e-05
5.638111e-06
-5.578906e-06
4.336548e-05
1.979776e-05
2.979537e-05
2.906877e-05
-3.08853e-06
-1.764533e-06
2.836391e-05
3.17362e-05
1.624663e-05
4.079119e-06
4.122606e-05
1.044961e-05
2.792936e-05
2.847951e-05
2.49541e-06
1.664288e-05
-3.116438e-06
-3.42349e-06
3.072704e-06
1.697058e-05
2.351641e-05
2.954906e-05
-5.138775e-06
3.496618e-05
2.890664e-05
-1.920014e-05
3.92403e-06
2.713695e-05
2.583113e-05
3.123761e-05
1.701855e-06
-1.642664e-06
3.655657e-05
4.325978e-05
-4.181696e-06
3.039958e-05
3.698414e-05
3.344841e-05
3.182629e-06
-8.293927e-06
5.132588e-05
3.376472e-05
3.939938e-05
-1.106687e-06
-2.481638e-06
1.539617e-05
3.764044e-05
3.599897e-06
1.755998e-05
-1.277067e-05
1.800295e-05
2.263145e-06
2.709049e-05
-1.57432e-05
3.253105e-05
3.099574e-05
1.830139e-06
-3.032663e-08
2.370236e-05
2.445044e-05
3.854829e-05
3.708549e-05
2.253774e-05
-1.41313e-07
1.393321e-05
-5.322522e-06
2.029067e-05
4.03e-06
2.318746e-05
3.943604e-05
-1.986557e-06
3.13875e-05
1.81115e-05
-3.301949e-06
4.603275e-06
-4.673323e-06
1.196506e-05
3.264615e-05
2.508252e-05
4.276433e-08
1.364232e-06
3.623034e-05
3.793157e-05
2.330178e-05
6.463004e-06
1.0182e-05
6.498584e-06
7.496941e-06
1.15107e-05
5.797712e-06
8.315528e-06
3.597188e-05
4.02077e-05
3.666756e-06
3.410698e-05
-8.093147e-06
9.747935e-07
3.044211e-05
3.111171e-05
2.416731e-05
3.332453e-05
2.692639e-05
3.746201e-05
3.748335e-05
-1.424393e-05
-2.176182e-05
-4.139117e-06
-7.258976e-06
-3.657648e-06
-7.676423e-08
-7.708956e-07
-5.08504e-06
3.201745e-05
2.582812e-05
2.696452e-05
2.815213e-05
4.232687e-06
-3.733906e-06
2.627995e-05
2.284726e-05
2.327526e-05
3.311813e-05
1.504325e-05
9.62242e-06
2.662758e-05
-4.686297e-06
3.570725e-05
-2.977044e-06
-4.756383e-06
1.655442e-05
2.188835e-05
4.559448e-05
3.216556e-05
3.665636e-06
3.97246e-06
4.42847e-06
3.005573e-06
2.285286e-06
1.757309e-06
6.960908e-07
2.084953e-05
5.895699e-07
3.74565e-06
3.435226e-05
3.005948e-05
3.073313e-05
1.350384e-05
1.636325e-05
7.456499e-06
6.594357e-06
1.739107e-05
1.700432e-05
2.927271e-05
6.689445e-05
2.09293e-05
2.168297e-05
2.298264e-05
2.12128e-05
7.419909e-07
2.467244e-05
2.477265e-05
2.689273e-05
-2.470873e-06
-2.545555e-06
-5.234422e-06
2.69281e-05
-1.131508e-07
-5.485381e-07
1.208468e-05
1.470008e-05
1.975327e-05
-4.383279e-06
5.418756e-06
1.759156e-05
1.37196e-05
-2.928046e-07
3.551611e-05
3.654551e-05
6.264636e-05
-8.738906e-07
2.709235e-05
-6.507189e-07
-3.188055e-06
3.727452e-05
2.52668e-05
5.354773e-05
7.141422e-07
3.099725e-05
-1.445819e-05
2.158937e-05
9.502464e-06
1.514462e-05
-6.535852e-06
-1.245928e-05
2.549308e-05
3.044372e-05
3.115318e-05
1.288225e-05
3.871703e-05
5.517196e-07
2.608848e-05
3.151332e-05
3.862464e-06
3.391386e-05
2.332136e-05
2.399436e-05
4.091642e-06
2.307128e-05
2.48624e-05
2.802856e-05
4.497189e-05
1.913786e-05
1.542582e-05
1.483733e-06
2.287402e-05
2.328425e-05
2.840739e-05
2.168364e-05
3.799637e-05
3.601957e-05
3.496499e-05
-3.653622e-06
-1.688291e-05
2.311497e-05
1.656869e-06
1.058769e-05
9.633257e-06
1.277043e-05
2.519065e-05
1.649752e-05
2.340606e-05
-6.278512e-07
2.801838e-05
3.753138e-05
3.583911e-05
2.382898e-05
1.483003e-06
5.258014e-06
3.581282e-06
4.306662e-06
2.191202e-05
1.148785e-05
2.043272e-06
-2.165081e-05
3.961993e-05
3.943658e-05
3.921395e-05
3.954131e-05
2.526937e-05
5.480089e-05
4.079329e-05
2.262148e-05
3.129558e-05
1.092221e-05
-2.363348e-06
1.197658e-07
2.417485e-05
6.787922e-06
9.506925e-06
-3.687e-06
-6.334837e-06
-2.208005e-05
5.038737e-05
1.239095e-05
2.368781e-05
-6.007413e-06
-2.237839e-05
2.051278e-05
5.127023e-05
2.561803e-05
-3.240261e-06
3.696077e-05
-3.170027e-06
1.791778e-05
-9.769582e-06
3.402255e-05
-2.928173e-07
9.020356e-06
5.6221e-05
2.028734e-05
5.252601e-05
-7.806128e-06
-4.790278e-06
-3.904698e-07
4.285816e-06
7.961275e-08
-4.350804e-07
2.480431e-05
-6.24171e-06
3.17135e-05
2.782555e-05
6.073077e-05
-1.747482e-05
-2.100792e-05
2.954654e-05
6.885755e-06
3.290481e-05
3.205914e-05
1.946081e-05
2.829914e-05
3.366691e-06
-1.298499e-05
3.070902e-06
1.010762e-05
1.062513e-05
1.820653e-05
2.066991e-06
1.688902e-06
1.210419e-06
1.657692e-06
-1.29866e-05
3.362791e-05
3.204443e-05
1.823572e-05
1.283273e-05
3.25249e-05
1.964622e-05
2.655992e-05
1.299097e-05
4.500256e-07
2.422478e-05
2.129452e-05
2.055961e-05
2.567725e-05
9.273753e-06
4.024369e-05
2.294286e-06
2.389091e-05
2.592257e-05
-2.280288e-07
-2.685367e-06
4.934766e-05
1.807159e-05
-1.651374e-06
3.190323e-05
-2.261273e-06
2.281704e-06
-8.872757e-06
1.366707e-06
6.387181e-07
1.636975e-06
1.486461e-05
1.059791e-05
3.464973e-05
-7.639975e-06
-8.164017e-06
-9.08107e-06
-9.550167e-06
1.699671e-05
-6.769386e-06
-7.505755e-06
4.029186e-05
2.838807e-05
3.769446e-05
-3.039036e-06
-9.686069e-06
-1.140274e-05
3.101663e-05
1.303262e-06
3.586415e-05
5.661813e-06
8.126699e-07
2.315363e-05
3.296987e-05
3.161376e-05
3.289488e-05
3.218218e-05
4.619853e-07
3.647761e-05
2.678243e-05
3.628541e-05
8.866568e-06
9.718136e-06
8.514464e-06
1.947189e-05
1.843979e-05
1.892634e-05
1.907384e-05
-2.524054e-06
-3.65452e-06
-3.954543e-06
3.690865e-05
3.628431e-05
-9.134549e-07
2.386419e-05
-1.966391e-06
1.480234e-05
2.621969e-05
3.589374e-05
3.085949e-05
3.670959e-05
1.964142e-05
2.271165e-05
2.883213e-05
3.506744e-05
3.544388e-05
2.610035e-05
-8.446055e-06
-5.217828e-06
-1.502062e-05
-1.987556e-05
1.640238e-06
4.00995e-05
-3.363807e-06
-2.026905e-06
-3.632459e-06
2.899147e-05
8.243036e-06
9.579214e-06
2.269045e-05
2.907755e-05
2.802129e-05
-9.519904e-06
-1.328656e-05
2.417492e-05
2.972336e-05
9.763326e-06
4.788951e-05
3.653116e-05
3.924168e-05
-4.196597e-06
4.835896e-06
9.302431e-06
2.259269e-05
3.779239e-05
9.42242e-06
3.012606e-06
-1.026054e-05
-1.446359e-05
1.556843e-05
4.557829e-05
-3.740524e-06
3.35889e-06
3.200779e-07
2.333529e-06
8.18512e-07
-2.813267e-06
1.410444e-05
-9.291171e-06
3.371302e-05
1.414634e-05
-9.596151e-06
1.581016e-05
4.100064e-05
4.159013e-05
2.005584e-05
-2.007289e-07
1.246171e-05
-3.517863e-06
4.575825e-06
1.379122e-05
1.478572e-05
4.417819e-05
4.234979e-05
8.223717e-06
6.163771e-05
1.192569e-05
4.328876e-05
-1.138353e-05
1.360232e-06
1.429678e-06
1.266844e-06
3.177829e-07
-5.799103e-08
2.341856e-06
3.328195e-06
1.99884e-05
2.915762e-05
4.4948e-06
5.601037e-06
1.047345e-06
2.702515e-06
-2.937991e-06
-6.674038e-06
-7.239107e-06
2.427228e-05
2.804394e-06
2.552864e-05
-4.558005e-06
1.652935e-05
1.572044e-05
1.577839e-05
-1.981501e-06
4.252688e-06
3.355489e-05
3.045545e-05
3.052147e-05
2.52831e-05
3.27818e-05
4.122382e-05
-7.633616e-06
-5.65125e-06
3.024202e-05
3.036934e-05
3.179122e-05
2.269693e-05
-3.140114e-06
5.059353e-06
9.112133e-06
1.097355e-05
5.296734e-06
2.143828e-05
2.296702e-05
4.357341e-06
9.751392e-06
1.600033e-05
-1.18964e-05
2.245615e-07
1.955739e-06
4.584117e-06
7.811451e-06
-1.181251e-05
-2.498833e-05
-6.907922e-06
-5.236405e-06
2.64791e-05
-8.516245e-09
1.451977e-05
1.706582e-05
3.791682e-05
2.517569e-06
4.528429e-05
3.800446e-05
2.244455e-05
2.764462e-07
-2.737063e-06
-8.700325e-06
2.74853e-05
3.007722e-05
1.243696e-05
2.777034e-05
2.857055e-05
-2.102909e-05
-1.277723e-05
-2.172122e-05
-1.939208e-05
-9.021799e-06
-1.646877e-05
-2.011462e-05
1.217825e-05
1.213454e-05
2.777976e-05
-1.04423e-05
-9.168271e-06
-1.176795e-05
2.156497e-05
1.916752e-05
9.066898e-06
5.969015e-06
3.455968e-05
8.873016e-06
2.350076e-05
2.56639e-05
3.777654e-06
4.542594e-06
6.861313e-06
4.300875e-05
3.530396e-05
-1.156096e-05
-1.018943e-05
1.985931e-05
3.367982e-05
3.534588e-05
7.460123e-07
3.323598e-05
3.371795e-05
3.392105e-05
1.129301e-05
4.658275e-05
3.698671e-05
1.451546e-05
5.643887e-05
1.87475e-05
2.188441e-05
1.265404e-05
-8.239563e-07
2.218056e-05
3.688201e-05
3.022743e-06
1.423647e-06
1.072756e-05
4.283159e-05
3.625885e-05
2.062088e-05
2.759454e-05
-1.231884e-06
-2.743773e-06
-9.30208e-06
-6.489637e-06
1.274105e-06
-1.416468e-06
1.647924e-05
1.642164e-05
2.023459e-05
1.751687e-05
3.451603e-05
-6.332352e-06
2.526894e-05
2.589993e-05
3.184766e-05
3.108466e-05
2.874507e-06
5.322125e-06
2.446575e-05
2.91971e-05
-2.045765e-06
3.526694e-05
3.798966e-05
3.654532e-05
2.865709e-05
4.055343e-05
3.375678e-05
3.340593e-05
1.157401e-05
-3.352984e-06
-2.670066e-07
-7.033473e-07
6.367792e-07
2.361334e-05
2.383008e-05
2.8859e-06
3.921059e-05
-5.670434e-06
5.629506e-05
3.814642e-05
3.093421e-05
2.80547e-05
2.415139e-05
2.414335e-05
-1.18691e-05
1.410129e-05
3.577381e-05
5.598557e-06
6.165525e-06
1.113767e-05
-2.335534e-07
-9.560898e-06
2.769427e-05
3.028799e-05
2.891164e-05
1.627022e-05
1.47511e-05
3.533701e-06
2.643158e-05
9.391929e-07
4.519546e-05
2.161671e-05
2.941036e-05
2.506504e-05
2.899276e-05
2.644614e-05
2.642816e-05
3.719852e-05
-9.807565e-06
6.97925e-05
7.010846e-05
2.360478e-05
2.657443e-05
2.776341e-05
3.664282e-05
2.432286e-05
1.259269e-06
2.650121e-05
3.50806e-05
2.531296e-05
3.021935e-05
-9.461148e-06
-1.012203e-05
4.364673e-05
1.689489e-05
3.960519e-06
4.029635e-06
2.498305e-06
3.88904e-05
3.772054e-05
5.302414e-07
-3.390459e-07
1.943342e-05
6.819415e-06
8.210669e-06
1.457291e-05
7.02631e-06
7.330959e-06
4.230219e-05
3.302375e-05
2.793393e-05
3.600805e-05
3.408619e-05
2.854034e-05
3.781477e-05
3.681322e-05
2.881845e-05
2.646573e-05
2.330286e-05
2.660393e-05
2.005288e-05
9.850855e-06
1.388446e-05
7.988655e-06
-7.323749e-06
-2.626507e-06
2.462338e-06
2.165909e-05
2.296594e-05
-9.096177e-06
3.771716e-05
3.466686e-05
3.889176e-05
2.132482e-05
5.611545e-05
4.845109e-05
1.471202e-05
1.838858e-05
8.85593e-06
3.412221e-05
4.078357e-05
2.318869e-05
2.010289e-05
2.813488e-05
2.633353e-05
4.225818e-05
3.145226e-05
2.916394e-05
2.982923e-05
3.746712e-05
3.678332e-05
5.916215e-07
1.646029e-05
3.147321e-05
-6.740838e-07
-2.651761e-07
-1.034248e-06
1.280439e-05
4.574016e-05
8.799423e-06
3.564854e-05
1.929593e-05
3.370135e-05
3.357524e-05
2.620942e-06
8.934897e-06
4.189748e-05
2.165841e-07
2.789055e-05
3.84251e-05
1.859948e-05
2.934424e-06
-6.160089e-06
-5.258117e-07
-1.260411e-06
2.768611e-05
1.347757e-05
3.639095e-06
-4.410818e-06
2.341723e-05
4.078369e-05
4.265874e-05
3.710079e-05
3.689323e-05
4.62735e-05
2.410556e-05
1.017553e-05
2.749573e-05
1.636759e-05
2.5692e-05
3.093081e-05
2.978292e-05
2.926027e-05
2.005451e-05
9.021553e-06
-5.642497e-06
1.515348e-05
8.478984e-06
6.228843e-05
6.466304e-05
7.418987e-05
1.002863e-05
2.215643e-06
1.10806e-05
-1.178567e-06
2.212305e-05
3.941632e-05
2.374467e-06
4.282808e-06
1.199884e-05
2.507157e-06
2.683679e-05
1.050623e-06
2.660553e-05
1.43915e-05
2.093149e-05
2.791086e-05
2.876742e-05
-2.57324e-06
-7.498792e-06
2.626342e-05
1.858764e-05
3.416923e-05
8.228886e-06
9.681519e-06
-8.884927e-06
-1.542867e-05
-1.830511e-05
2.833047e-05
-2.208949e-05
2.524135e-06
1.63009e-05
-1.099012e-05
1.44638e-05
4.161008e-05
4.17054e-05
3.693099e-05
6.393167e-05
3.116716e-05
-1.314058e-05
1.591708e-05
-1.286632e-05
2.616913e-05
1.823131e-05
1.385977e-05
2.712333e-05
2.854575e-05
2.94055e-05
4.819054e-05
1.968039e-05
2.195229e-05
3.279413e-05
3.229832e-05
3.125761e-05
1.513858e-05
-1.982213e-06
5.345231e-06
-5.15314e-06
-3.170378e-06
-2.187155e-06
-4.316966e-06
-7.832969e-06
3.451145e-05
2.92454e-05
2.688798e-06
-4.6147e-06
3.758065e-05
2.609103e-05
-5.35193e-06
2.971384e-06
-2.652518e-06
-8.847715e-06
1.598405e-05
7.626939e-06
3.432262e-05
7.216965e-06
2.32306e-05
1.696558e-05
7.454987e-06
7.053996e-06
2.91476e-05
1.717808e-05
2.655693e-05
2.775875e-05
2.506886e-05
1.555261e-05
2.843587e-05
-2.899815e-06
-2.323563e-06
-1.34851e-05
-4.407616e-06
-1.849092e-07
7.911102e-06
9.684856e-06
-1.868219e-05
-1.318313e-05
-1.01321e-05
3.257334e-05
3.237352e-05
3.486105e-05
3.659102e-05
2.093536e-05
1.866842e-05
2.855738e-05
1.717978e-05
2.085749e-05
3.008147e-05
2.616187e-05
2.524808e-05
2.75502e-05
-1.139515e-05
-9.925088e-06
-7.210057e-07
3.197121e-06
4.853298e-06
5.430708e-05
6.831223e-06
8.227081e-06
1.033328e-05
2.963225e-05
4.276855e-05
-5.858427e-08
-1.285809e-06
2.777956e-05
2.848578e-05
1.95657e-05
1.455049e-05
1.084628e-05
-3.33334e-06
2.473857e-05
2.786594e-06
7.033154e-06
5.787221e-06
4.535047e-06
-1.186143e-07
-1.785593e-07
3.986971e-07
-5.812116e-06
1.852931e-06
2.411949e-05
2.338447e-05
7.044341e-06
6.230749e-06
2.958757e-05
3.096634e-05
4.563779e-05
3.40204e-05
8.988307e-06
2.715061e-05
2.54185e-05
5.404198e-05
1.637587e-05
1.909405e-05
2.960254e-05
2.99217e-05
7.200082e-06
7.059032e-06
6.998157e-06
8.995891e-06
3.340022e-05
3.430175e-05
-1.065266e-05
-1.354203e-05
-1.043847e-05
2.27053e-05
4.78944e-06
4.659975e-06
1.055773e-05
8.454517e-06
1.150289e-05
1.186695e-05
2.705838e-05
3.628258e-05
2.665898e-05
-3.132956e-06
-1.195315e-06
4.685142e-06
3.693277e-05
3.536817e-05
3.540159e-05
3.378188e-06
1.934563e-06
2.021892e-07
-7.10142e-06
-8.769378e-07
-4.691621e-06
5.032414e-05
6.879173e-05
5.677238e-06
-2.891524e-06
-1.753703e-06
-8.517316e-06
-1.015669e-05
-2.387685e-06
1.218427e-05
1.009841e-05
6.033164e-06
-8.348492e-06
6.038002e-06
-5.151268e-06
3.173067e-05
3.143177e-05
1.254825e-05
2.45507e-05
6.796835e-05
3.809812e-05
4.309612e-05
4.385017e-05
3.734592e-05
2.244475e-05
2.462965e-06
3.653017e-06
2.838489e-05
8.977681e-06
1.600604e-05
3.047101e-05
4.546019e-05
1.538635e-05
1.657961e-05
3.589508e-05
2.397369e-05
2.348466e-05
-8.856333e-06
-1.008059e-05
-9.74587e-06
-1.096138e-05
-2.596742e-06
1.157144e-05
1.037269e-05
3.227268e-05
3.256621e-06
3.544357e-05
3.412948e-05
3.409407e-05
3.318335e-05
3.344587e-05
3.385418e-05
2.62002e-05
1.845687e-05
-4.295735e-06
8.749508e-06
1.039137e-05
2.422538e-05
3.455046e-05
2.273292e-05
-6.421139e-06
-4.269777e-06
6.858491e-06
7.077203e-06
2.6504e-05
2.631433e-05
2.514504e-05
1.516203e-05
1.453769e-05
1.478873e-05
1.552162e-05
2.208058e-05
1.400124e-05
1.252697e-05
1.471687e-05
2.75918e-05
1.116586e-05
4.568005e-05
1.860758e-05
1.660703e-05
2.434292e-05
-9.170462e-06
-1.610511e-07
1.963155e-05
3.315212e-05
2.20817e-05
-2.348062e-06
4.092097e-05
3.930864e-05
2.339938e-06
5.836432e-05
1.558405e-05
3.184512e-05
-3.189841e-06
4.343971e-05
4.657872e-05
2.284246e-06
3.31099e-05
2.790442e-05
1.087219e-05
8.934043e-07
-1.655338e-06
-3.178653e-06
5.417259e-06
8.523817e-06
7.841825e-06
2.127993e-05
5.246221e-05
2.038529e-05
6.066403e-06
5.303888e-06
-4.891427e-06
3.343665e-06
7.993006e-06
2.379011e-05
1.976631e-05
1.930544e-05
2.309004e-05
3.080536e-05
3.097724e-05
2.497475e-05
3.388617e-05
2.173667e-05
1.462753e-05
4.649838e-05
4.685006e-05
3.189963e-06
-1.105051e-05
1.805226e-05
2.709885e-05
2.708432e-05
6.143869e-05
3.41461e-05
3.524924e-05
3.026856e-05
2.488957e-05
3.590516e-05
-4.361518e-06
2.753014e-05
-2.091583e-06
3.848596e-06
4.544e-06
2.308576e-05
8.982309e-06
3.719714e-05
3.198199e-05
3.437108e-05
7.314369e-06
5.997795e-06
6.074574e-06
3.700494e-06
4.829275e-06
7.02997e-06
-7.121775e-06
-1.422637e-05
9.832478e-07
2.825054e-05
3.284603e-06
2.727869e-05
3.251135e-05
1.429166e-06
2.966381e-05
3.041973e-05
3.040409e-05
-1.61689e-05
2.401163e-05
-7.701312e-06
2.332996e-05
1.350517e-05
3.168065e-05
2.549073e-05
2.627549e-05
2.592172e-05
3.352508e-05
3.314976e-05
-1.608657e-05
2.795642e-05
2.556824e-05
1.997132e-05
2.48185e-05
3.591898e-05
1.974168e-05
2.485308e-05
1.352852e-05
-1.911112e-05
-2.042006e-05
-1.674711e-05
-1.933126e-05
-1.410537e-05
-1.558899e-05
2.602601e-05
4.549393e-06
7.369358e-06
3.047953e-05
1.028867e-05
-2.686795e-06
1.139513e-05
-6.063102e-06
-6.159359e-07
2.337601e-07
3.502023e-05
4.310905e-06
5.683934e-06
3.108679e-05
1.054334e-05
2.174761e-05
3.151613e-05
1.23603e-06
3.105856e-05
-9.650779e-06
-8.327744e-06
1.678168e-05
9.653274e-07
2.414783e-05
2.103077e-05
-6.752906e-07
2.71828e-05
-1.046668e-05
-8.258795e-06
3.894191e-05
3.534995e-07
-8.013244e-07
1.991735e-05
1.345393e-05
2.315709e-05
2.231215e-05
5.097385e-06
-5.148313e-06
-4.845749e-06
1.090902e-05
2.872253e-05
5.983121e-05
-6.429997e-06
4.410088e-05
-1.362444e-05
-1.492294e-05
-7.028811e-06
-7.130482e-06
1.786411e-05
1.907638e-05
2.294271e-05
8.345761e-06
1.130977e-05
3.047383e-05
2.889613e-05
2.519602e-05
2.045663e-05
3.706513e-05
-2.17486e-05
2.882487e-05
1.438518e-05
2.542726e-05
1.904315e-05
4.065483e-05
4.061024e-05
2.542375e-05
-3.955173e-06
-3.53452e-06
1.436446e-05
1.588673e-05
2.39366e-05
2.325777e-05
2.298458e-05
-3.418694e-06
-4.390852e-06
3.65587e-05
3.566794e-05
2.892589e-05
4.00714e-05
3.609056e-05
9.721786e-06
1.221083e-05
1.715138e-05
5.897513e-05
5.840895e-05
5.723127e-05
3.945838e-05
4.062207e-05
4.268908e-06
3.903102e-05
4.000394e-05
-4.203319e-06
2.11537e-05
1.96629e-05
2.11911e-05
-6.879852e-06
4.996771e-06
4.047388e-05
3.705363e-06
2.182566e-06
4.505332e-06
4.163179e-06
3.214066e-06
1.820842e-06
9.925684e-07
4.29168e-06
3.263329e-05
1.591399e-05
1.636419e-05
3.149623e-05
-5.854784e-06
-4.468707e-06
1.930642e-05
-3.649754e-06
-2.99858e-06
4.898449e-06
3.639938e-05
2.423704e-05
2.405996e-05
4.067528e-05
-1.823938e-06
2.481993e-05
2.486144e-05
3.648699e-05
4.736997e-05
5.303786e-07
-1.82635e-05
3.8908e-05
4.062992e-05
9.615598e-06
4.099328e-05
3.867695e-05
4.703232e-05
3.790997e-05
3.94227e-05
3.497866e-05
4.029755e-05
3.615591e-05
2.357557e-05
2.408443e-05
-1.351367e-05
-1.438196e-05
2.775173e-05
2.917885e-05
6.757899e-06
1.161135e-07
-1.19652e-06
-1.13744e-06
3.897157e-05
-2.923669e-06
-9.791239e-07
3.524702e-05
2.287516e-05
2.054713e-05
2.605326e-06
1.354562e-05
4.250628e-05
2.892903e-05
2.842039e-05
-1.390633e-06
1.856514e-05
1.860817e-05
2.286799e-05
2.496722e-05
2.203728e-05
2.257368e-05
2.277815e-05
2.181565e-05
2.251773e-05
-3.018906e-06
-6.16167e-06
1.016771e-07
1.430866e-05
-5.112653e-06
1.815595e-05
1.596303e-05
1.716777e-05
1.700355e-05
1.341702e-05
-2.221179e-06
-1.121245e-06
3.779589e-05
2.580594e-05
2.616295e-05
3.223523e-05
3.187675e-05
3.323768e-05
-8.085892e-06
-8.139383e-06
6.922295e-06
3.483194e-05
3.493478e-05
1.705375e-05
3.750511e-05
-2.395807e-06
3.875426e-05
3.657312e-05
3.718135e-05
2.613744e-06
2.490091e-05
1.872143e-05
-5.573532e-06
6.121961e-06
3.693117e-05
3.810632e-05
3.22173e-05
3.188953e-05
2.481592e-05
1.018889e-06
-2.233957e-06
-2.817519e-06
1.839758e-05
-6.669346e-06
2.068572e-05
2.028137e-05
-1.379296e-05
4.602191e-05
4.622923e-05
1.546254e-05
1.63267e-05
2.648344e-05
2.641538e-05
-4.234305e-06
-6.469923e-06
2.560322e-05
2.49956e-05
-2.074941e-06
2.212304e-05
2.147119e-05
4.394209e-05
2.532028e-05
2.352349e-05
3.28226e-05
7.412722e-06
2.643324e-05
1.985871e-05
1.097028e-05
-3.441122e-06
-4.764464e-06
2.078911e-05
2.807115e-05
-7.093584e-07
8.759073e-06
5.961873e-07
3.27239e-05
3.200143e-05
5.687495e-06
2.666515e-05
2.482845e-05
2.046331e-05
2.073866e-05
2.302605e-05
2.276632e-05
4.043168e-05
3.106485e-05
5.399717e-05
2.065504e-05
1.975364e-05
1.916595e-05
5.276577e-06
2.949566e-06
5.004582e-05
5.029795e-05
-2.030711e-07
4.121331e-05
-6.284799e-07
1.30759e-06
2.589875e-05
3.122507e-07
2.039036e-05
2.008302e-05
2.860116e-05
5.876828e-05
3.831434e-05
1.984152e-05
2.033918e-05
3.875833e-05
-4.921086e-06
2.405714e-05
2.501154e-05
4.651749e-06
5.120972e-06
6.793663e-07
1.620495e-06
3.374497e-05
3.339434e-05
4.527849e-05
-6.042473e-08
3.720759e-05
3.774581e-05
3.523418e-06
4.886289e-06
3.345122e-05
2.602755e-05
2.556626e-05
-6.899054e-07
1.689638e-06
2.553082e-05
3.259339e-05
2.912165e-05
6.76154e-06
-4.990897e-06
9.629547e-07
8.026963e-07
2.599729e-05
2.389758e-05
2.318081e-05
-1.264145e-05
-1.001411e-05
3.029023e-06
2.646064e-06
1.871377e-05
-1.670326e-05
1.462571e-05
-3.834822e-07
5.425167e-05
1.685633e-05
1.735368e-05
4.243429e-06
3.626653e-05
-7.93129e-06
-9.741469e-06
-7.651714e-06
-8.165622e-06
4.235193e-05
5.0417e-05
5.219322e-05
3.473518e-05
3.537302e-05
7.152272e-06
-6.327439e-06
1.184557e-05
2.140421e-05
2.20399e-05
-3.137241e-06
7.670493e-07
5.178354e-07
3.76725e-05
-9.000117e-06
1.78112e-05
1.691593e-07
2.8827e-05
2.465884e-05
2.483512e-05
2.020317e-05
1.954519e-05
2.257937e-05
-6.683086e-06
-2.845702e-06
2.196664e-05
2.322412e-05
2.464498e-05
2.339306e-05
1.185826e-05
-1.054376e-06
-8.555578e-07
2.065222e-05
3.850296e-05
3.884653e-05
3.97213e-06
4.206634e-05
4.504736e-05
3.432683e-05
3.433666e-05
3.067862e-05
4.481445e-06
2.446325e-05
3.724095e-05
3.822351e-05
-9.411866e-07
3.993762e-05
4.175213e-05
4.40701e-05
-3.64978e-06
-3.039445e-06
-9.654626e-06
2.295317e-05
3.681469e-05
4.906469e-05
5.180818e-05
4.975859e-05
4.944047e-05
2.021936e-06
1.097495e-06
8.000069e-06
7.349083e-06
4.768678e-06
2.663952e-05
3.009112e-05
2.953568e-05
8.268722e-06
8.076409e-06
1.679493e-05
3.145407e-05
3.144827e-05
9.613682e-06
9.326917e-06
3.299207e-05
3.205028e-05
2.750492e-05
-1.337944e-05
-2.216734e-05
5.347717e-05
-9.563952e-06
-8.048126e-06
2.928295e-05
4.075929e-05
8.42237e-06
4.302007e-06
-2.062299e-05
7.969005e-06
1.767063e-06
-3.785532e-06
2.49815e-05
3.944453e-06
1.077231e-05
-9.063857e-06
4.647064e-06
3.132402e-06
-2.317003e-07
4.749228e-06
6.233929e-06
-5.244478e-06
9.710602e-06
6.773515e-05
6.59098e-05
1.782112e-05
2.192809e-05
2.802562e-05
2.692822e-05
-4.482591e-06
1.624379e-05
2.26773e-05
2.481797e-05
-3.404245e-07
1.519994e-07
-4.788805e-07
2.781795e-05
7.885208e-06
4.474592e-06
2.654808e-05
1.850549e-05
1.756899e-05
3.879054e-05
2.502351e-05
2.471112e-05
-7.348423e-06
-7.968812e-06
1.648764e-05
7.157484e-06
7.800579e-06
1.830272e-05
3.303695e-05
3.241821e-05
-9.493226e-06
-5.670798e-06
-6.198859e-06
2.74799e-05
-8.297573e-07
-8.521442e-06
3.802416e-05
-9.792518e-06
-7.805683e-06
1.544087e-06
2.994847e-07
1.825389e-05
1.827618e-05
-3.558644e-07
1.002211e-05
2.158232e-05
2.573229e-05
2.990446e-05
3.069305e-05
5.070307e-05
5.691423e-05
5.498658e-05
4.818957e-05
5.505464e-05
5.293172e-05
2.103574e-05
2.141157e-05