/*--------------------------------*- C++ -*----------------------------------*\
| =========                 |                                                 |
| \\      /  F ield         | OpenFOAM: The Open Source CFD Toolbox           |
|  \\    /   O peration     | Version:  2406                                  |
|   \\  /    A nd           | Website:  www.openfoam.com                      |
|    \\/     M anipulation  |                                                 |
\*---------------------------------------------------------------------------*/
FoamFile
{
    version     2.0;
    format      ascii;
    arch        "LSB;label=32;scalar=64";
    class       surfaceScalarField;
    location    "0.38";
    object      phi;
}
// * * * * * * * * * * * * * * * * * * * * * * * * * * * * * * * * * * * * * //

dimensions      [0 3 -1 0 0 0 0];

oriented        oriented;

internalField   nonuniform List<scalar> 
6749
(
5.229587e-09
4.077898e-09
-9.307485e-09
-1.76935e-09
-1.164133e-09
2.933483e-09
-1.010267e-10
-1.689116e-09
1.790143e-09
1.749769e-09
-5.507803e-10
-1.198989e-09
1.303764e-09
-1.391232e-09
8.746892e-11
-1.01102e-09
1.829869e-09
-8.188487e-10
1.233027e-09
2.520913e-10
-1.485119e-09
2.386518e-10
1.116222e-09
-1.354874e-09
-9.179487e-10
1.361864e-09
-4.439149e-10
-1.707474e-09
4.925272e-10
1.214947e-09
1.756637e-09
-1.023462e-09
-7.331749e-10
-8.008823e-10
-1.487794e-09
2.288676e-09
-2.239257e-09
-2.499582e-10
2.489215e-09
3.702129e-09
-1.24082e-09
-2.461309e-09
9.912786e-10
4.570107e-10
-1.448289e-09
-1.90831e-09
9.389319e-11
1.814417e-09
1.788499e-09
-1.93006e-11
-1.769199e-09
3.730968e-10
-1.417379e-09
1.044282e-09
-6.401674e-10
-6.064139e-10
1.246581e-09
1.836406e-09
1.484958e-10
-1.984902e-09
-7.93733e-10
1.633791e-09
-8.400579e-10
9.324843e-10
-1.795866e-09
8.633819e-10
1.502557e-09
6.136176e-10
-2.116174e-09
-1.194699e-09
2.466009e-10
9.480981e-10
9.131761e-10
9.273805e-10
-1.840557e-09
-5.852708e-10
-1.101887e-09
1.687158e-09
1.069156e-09
3.561743e-10
-1.42533e-09
3.469844e-10
9.345241e-10
-1.281509e-09
2.817934e-10
-1.376064e-09
1.094271e-09
1.30558e-09
1.412076e-10
-1.446787e-09
-3.311126e-09
1.909425e-09
1.401701e-09
1.468536e-09
2.233593e-09
-1.438306e-09
2.664504e-09
-1.226198e-09
-1.684424e-09
1.042542e-09
6.418817e-10
-7.784773e-10
-1.476856e-09
2.255333e-09
4.835219e-09
-1.011048e-08
5.275265e-09
1.058357e-10
-1.49429e-09
1.388455e-09
-1.69553e-09
1.915769e-09
-2.202394e-10
-9.613315e-10
2.880061e-09
-1.918729e-09
1.019525e-09
7.648825e-10
-1.784408e-09
6.572728e-09
-1.737509e-09
7.38373e-10
8.343822e-10
-1.572755e-09
6.171693e-10
-2.999289e-09
2.38212e-09
4.475545e-09
2.43447e-09
-6.910015e-09
1.310658e-09
-2.615956e-09
1.305298e-09
-1.021439e-09
-6.860351e-10
4.652862e-10
-1.933574e-09
1.468288e-09
-9.169334e-11
-1.145617e-09
1.23731e-09
-1.738579e-09
1.714154e-09
2.442472e-11
4.838325e-10
-1.828901e-09
1.345069e-09
1.59567e-09
-5.776806e-10
-1.017989e-09
1.722609e-09
3.284731e-09
-5.00734e-09
-1.411864e-09
-4.211783e-10
-1.198979e-09
-8.051313e-10
2.004111e-09
-4.465533e-10
1.859258e-09
-1.412705e-09
7.387897e-10
8.458046e-10
-1.584594e-09
6.405945e-09
-5.028207e-09
-1.377739e-09
1.954641e-09
2.208958e-10
-2.175537e-09
-9.861171e-10
1.221336e-09
-2.352189e-10
-3.082945e-10
1.8204e-09
-1.512105e-09
6.731676e-10
-1.701707e-09
1.02854e-09
-5.466792e-10
-1.088813e-09
1.635492e-09
-2.989321e-10
-1.501588e-09
1.800521e-09
-8.21664e-10
6.012419e-10
2.204222e-10
-8.986288e-10
1.3433e-09
-4.446714e-10
-6.661194e-10
-1.089185e-09
1.755305e-09
1.284348e-09
1.978842e-10
-1.482232e-09
-9.508841e-11
-2.015545e-09
2.110633e-09
-1.822012e-09
2.376074e-09
-5.540616e-10
1.114355e-10
1.298542e-09
-1.409978e-09
6.735397e-10
-1.920605e-09
1.247066e-09
1.443609e-09
6.212347e-10
-2.064843e-09
3.054746e-10
-1.314908e-09
1.009433e-09
-4.775099e-10
-1.26969e-09
1.7472e-09
1.188066e-09
4.647123e-10
-1.652778e-09
9.416788e-10
-1.73959e-09
7.979112e-10
2.144036e-09
-1.042134e-09
-1.101901e-09
6.57257e-10
-1.125833e-09
1.846209e-09
-1.080447e-09
-7.657614e-10
3.656478e-09
-2.775923e-09
-8.805551e-10
-2.904289e-11
1.818362e-09
-1.78932e-09
-1.884739e-09
1.157323e-09
7.274165e-10
1.776902e-09
-1.058265e-09
-7.186362e-10
-1.217877e-09
1.499563e-09
-2.816861e-10
-4.244406e-09
4.605086e-10
3.783898e-09
-4.063861e-10
1.691689e-09
-1.285303e-09
-1.679727e-09
3.545575e-10
1.32517e-09
-1.096578e-09
-4.002362e-10
1.496814e-09
1.452273e-09
-1.953097e-09
5.008242e-10
-1.883102e-09
4.07232e-10
1.47587e-09
6.741579e-09
-7.092063e-09
3.504844e-10
1.286357e-09
1.139053e-10
-1.400262e-09
9.218238e-10
9.238765e-10
-1.8457e-09
-1.994538e-09
1.958314e-09
3.62238e-11
-9.963209e-11
-1.664758e-09
1.76439e-09
1.719076e-09
-1.037479e-09
-1.005255e-09
1.882502e-09
-8.772465e-10
2.222221e-09
-3.331004e-09
1.108782e-09
-7.939265e-10
-6.960477e-10
1.489974e-09
-3.724989e-10
-1.108649e-09
1.481148e-09
-2.24419e-09
8.840192e-10
1.360171e-09
-1.341107e-09
-7.084715e-09
8.425821e-09
1.253406e-09
-1.767791e-09
5.143854e-10
-1.851399e-09
9.44901e-10
9.064984e-10
-6.621925e-11
6.960337e-09
-6.894118e-09
-1.222421e-09
-5.677413e-10
1.790163e-09
-9.487077e-10
-7.82236e-10
2.187476e-09
-6.161617e-09
3.974141e-09
1.934151e-10
-1.520321e-09
1.326906e-09
-2.18196e-09
8.936089e-10
1.288351e-09
1.087318e-09
-1.894425e-09
8.071074e-10
3.756756e-09
1.716801e-09
-5.473557e-09
1.651139e-09
-3.757239e-09
2.1061e-09
-8.763844e-10
-7.342169e-10
-2.001549e-09
2.564143e-09
-5.625936e-10
-1.323228e-09
8.564837e-11
1.237579e-09
6.331941e-10
1.122805e-09
-1.755999e-09
1.498762e-09
1.551555e-10
-1.653918e-09
4.95468e-10
1.217334e-09
-1.712802e-09
-9.563943e-10
-8.840084e-10
1.840403e-09
-4.991173e-09
4.985794e-09
5.378302e-12
-1.85075e-09
-8.634715e-10
2.714221e-09
-3.143325e-10
1.896526e-09
-1.582194e-09
-1.698402e-09
2.673777e-10
1.431024e-09
2.034654e-09
-1.094212e-09
-9.40442e-10
2.052649e-09
-2.432895e-10
-1.80936e-09
-3.92843e-10
1.25851e-09
-8.656675e-10
-4.155944e-10
1.337515e-09
-9.219204e-10
-1.631412e-09
2.437251e-09
-8.05839e-10
2.995788e-10
-1.198208e-09
4.77203e-10
-1.524623e-09
1.04742e-09
1.509616e-09
-1.314019e-09
-1.955971e-10
-1.311439e-09
2.560137e-10
1.055425e-09
-1.435284e-09
2.024688e-09
-5.894048e-10
-1.185008e-09
-4.946333e-10
1.679642e-09
9.919186e-10
3.327499e-10
-1.324669e-09
6.619494e-10
1.457857e-09
-2.119807e-09
4.726295e-10
-1.588098e-09
1.115468e-09
1.298146e-09
-1.435981e-09
1.378358e-10
1.095837e-09
-1.980254e-09
8.84417e-10
-1.242035e-09
1.725868e-09
2.185174e-10
-1.571334e-09
1.352817e-09
2.046077e-09
-6.812378e-10
-1.364839e-09
9.081831e-10
-2.10752e-09
2.081886e-09
-1.190019e-09
-8.918678e-10
-1.622256e-09
3.469839e-10
1.275273e-09
-1.352433e-09
6.997014e-10
6.527312e-10
-4.663564e-09
3.756331e-09
9.072331e-10
-2.001473e-09
-5.31797e-10
2.53327e-09
-7.005421e-10
-1.222882e-09
1.923424e-09
5.310787e-10
1.291304e-09
-1.822383e-09
7.677293e-10
1.030862e-09
-1.798591e-09
1.698943e-09
-1.652168e-09
-4.677563e-11
-1.664205e-09
7.85037e-10
8.79168e-10
-2.064654e-09
1.274229e-09
7.904242e-10
-3.696036e-10
-1.167017e-09
1.53662e-09
1.053206e-09
-1.755514e-09
7.023082e-10
-1.612124e-09
8.778725e-10
7.342515e-10
4.812887e-09
2.77826e-09
7.193103e-10
1.290861e-09
-2.010171e-09
-1.32693e-09
1.960124e-09
1.316129e-09
4.281115e-10
-1.74424e-09
-5.718425e-10
-7.706522e-10
1.342495e-09
5.222066e-10
-2.137964e-09
1.615757e-09
-1.672833e-09
1.458783e-09
2.1405e-10
1.753094e-09
-4.258526e-13
-1.752668e-09
5.120119e-10
-1.600513e-09
1.088501e-09
-9.038251e-10
-1.136639e-09
2.040464e-09
1.902116e-09
-1.416818e-09
-4.852981e-10
-1.256179e-09
1.647315e-09
-3.911364e-10
3.156903e-10
-1.987517e-09
1.671827e-09
1.61153e-09
-7.926236e-10
-8.189061e-10
-1.654207e-10
-1.124424e-09
1.289845e-09
2.080155e-09
-6.521486e-10
-1.428006e-09
1.092438e-09
1.082306e-09
-2.174744e-09
-1.770205e-09
-7.017171e-11
1.840377e-09
-8.599304e-10
-8.757279e-10
-1.173621e-09
-2.960063e-10
1.469627e-09
-1.564958e-09
-1.210497e-10
1.686008e-09
1.23836e-09
5.196271e-10
-1.757987e-09
1.526718e-09
7.370171e-10
-2.263735e-09
1.244982e-09
-2.894916e-10
-9.554908e-10
-1.219129e-09
1.092537e-09
1.265917e-10
2.005108e-09
-1.925057e-09
-8.005158e-11
4.154389e-10
1.327843e-09
-1.743282e-09
-4.170628e-10
2.147883e-09
-1.73082e-09
-2.217708e-09
4.405184e-09
-5.206007e-10
-1.176794e-09
1.697395e-09
-8.622035e-10
-2.277309e-09
3.139513e-09
2.087026e-10
-1.618198e-09
1.409495e-09
1.594582e-09
-9.942746e-10
-6.00307e-10
1.323995e-09
-1.923318e-09
5.993234e-10
1.426466e-09
7.009041e-10
-2.12737e-09
-1.298743e-09
1.861684e-09
-5.629417e-10
1.616567e-09
2.001147e-10
-1.816682e-09
2.66743e-09
-2.26825e-09
-3.991803e-10
-2.052519e-09
6.180444e-10
1.434474e-09
7.56484e-10
7.700437e-10
-1.526528e-09
7.967954e-10
-1.782705e-09
8.755421e-10
9.071625e-10
1.014363e-09
-1.403508e-09
3.891449e-10
8.13306e-10
1.473635e-10
-9.606694e-10
6.227955e-10
-1.422255e-09
7.994597e-10
1.57474e-09
-1.501573e-09
-7.316654e-11
5.416713e-09
-9.411681e-10
-1.930441e-09
9.836125e-10
9.468288e-10
-1.14774e-09
1.169108e-09
-2.13673e-11
-1.329817e-09
8.832638e-10
-1.342185e-09
-5.342758e-10
1.87646e-09
-4.754044e-10
2.005899e-09
-1.530495e-09
-1.074031e-09
-6.455031e-10
1.719534e-09
-1.4463e-09
1.147368e-09
2.07546e-09
-8.171491e-10
-1.258311e-09
-1.064553e-09
1.214855e-09
-1.503017e-10
-8.604677e-10
-5.890531e-10
1.449521e-09
1.99999e-09
-8.135521e-10
-1.186438e-09
1.358228e-09
-1.953277e-09
5.950487e-10
-1.268235e-09
-1.069103e-09
2.337338e-09
-4.376376e-10
1.473582e-09
-1.035945e-09
1.231759e-09
-4.906548e-10
-7.411042e-10
8.534888e-10
-5.863998e-10
-2.67089e-10
1.425669e-09
5.012308e-10
-1.9269e-09
9.168202e-10
8.275238e-10
-1.744344e-09
-1.111907e-09
1.812254e-09
-7.003465e-10
-1.366658e-09
-7.608486e-10
2.127506e-09
1.832136e-09
1.06563e-09
-2.897766e-09
2.029722e-09
-1.28662e-09
-7.431015e-10
1.544273e-09
-1.710715e-09
1.664422e-10
8.078401e-10
7.358642e-10
-1.543704e-09
4.166045e-09
-4.39066e-09
2.246149e-10
7.892122e-10
1.243231e-09
-2.032443e-09
-2.245732e-09
1.796544e-09
4.491886e-10
2.284291e-09
-1.49188e-09
-7.92411e-10
-1.738167e-09
9.545617e-10
7.836054e-10
8.87498e-10
-4.011186e-10
-4.863793e-10
-1.222658e-09
1.378966e-09
1.947417e-09
-3.204343e-10
-1.626983e-09
2.677459e-09
-3.181693e-09
5.042343e-10
2.802627e-09
-4.000285e-09
1.197657e-09
2.986202e-10
-1.539575e-09
1.240954e-09
-1.017464e-09
-1.228268e-09
-2.226557e-09
1.127579e-09
-1.263101e-09
1.407057e-10
1.122395e-09
-1.498796e-10
1.434276e-09
-1.284396e-09
1.488667e-09
-8.783152e-10
-6.103514e-10
6.166493e-11
1.799781e-09
-1.861446e-09
1.182749e-09
7.545502e-10
-1.937299e-09
-7.535679e-10
2.019709e-09
-1.266141e-09
-3.444773e-10
-7.965872e-10
1.141064e-09
1.403532e-09
2.130878e-09
-3.53441e-09
9.388297e-11
1.738253e-09
5.570406e-10
9.22212e-10
-1.479253e-09
8.94411e-10
6.808188e-10
-1.57523e-09
1.214592e-10
-1.72287e-09
1.601411e-09
7.094409e-10
5.642567e-10
-1.273698e-09
-4.14659e-09
6.514342e-10
3.495156e-09
1.873387e-09
-9.565666e-10
-1.844969e-09
9.738602e-10
8.711092e-10
-9.050195e-10
1.658909e-09
-8.416949e-11
-1.148553e-09
-6.187778e-10
1.767331e-09
4.294221e-10
9.892192e-10
-1.418641e-09
2.89724e-09
-1.779249e-09
-1.117991e-09
8.926843e-10
5.101805e-10
-1.402865e-09
1.708805e-09
-1.403331e-09
-1.470361e-09
1.080746e-09
3.896147e-10
-5.781168e-10
-1.061824e-09
1.639941e-09
1.01112e-09
-1.606348e-09
5.952278e-10
2.405168e-09
-9.622607e-10
-1.442907e-09
-3.024604e-10
-1.21189e-09
1.51435e-09
2.669971e-10
1.238776e-09
-1.505773e-09
1.169469e-09
3.286817e-10
-1.498151e-09
-1.092705e-09
1.403231e-09
-3.105252e-10
-2.566636e-10
1.283202e-09
-1.026538e-09
-1.477444e-09
-2.638552e-10
1.741299e-09
-1.516852e-10
1.924061e-09
-1.772376e-09
6.594297e-10
8.254799e-10
-1.48491e-09
-6.659625e-10
1.600453e-09
-9.344907e-10
-1.524821e-09
1.684748e-09
-1.599273e-10
-3.815812e-10
1.893514e-09
-1.511933e-09
-1.480103e-09
4.00712e-10
1.079391e-09
-1.764928e-09
1.683553e-09
8.13753e-11
9.799576e-10
5.761621e-09
1.441536e-09
-1.514167e-09
7.263139e-11
1.349855e-09
6.642794e-10
-2.014135e-09
9.218026e-10
7.987881e-10
-1.720591e-09
-3.154527e-09
-6.955956e-09
1.630381e-09
-1.071302e-09
-5.590783e-10
-1.221904e-09
1.300454e-09
-7.855011e-11
-1.502997e-09
1.00177e-09
5.012274e-10
-1.853053e-10
-1.4781e-09
1.663405e-09
1.149862e-09
-6.772327e-10
1.844039e-09
-7.908327e-10
-6.498128e-10
-9.623112e-10
1.436875e-09
-9.146689e-10
-1.505914e-09
4.48417e-10
1.057497e-09
1.740242e-09
-6.504254e-10
-1.089816e-09
-2.130232e-09
1.866043e-09
2.641897e-10
-8.950972e-10
-4.744815e-10
1.369579e-09
2.595765e-09
-1.704909e-09
-8.908556e-10
-1.980148e-09
1.400783e-09
5.793655e-10
5.370065e-10
-1.611536e-09
1.07453e-09
-2.634131e-09
1.887436e-09
7.466953e-10
-1.289545e-09
-2.591087e-10
1.548654e-09
7.192042e-10
-2.41721e-09
1.698005e-09
-9.053334e-10
-8.533167e-10
1.75865e-09
-4.007848e-10
1.609873e-09
-1.209088e-09
1.295202e-09
3.351785e-10
8.903103e-10
-2.022122e-09
1.131811e-09
-7.836832e-10
-9.344791e-10
1.718162e-09
-1.879829e-09
2.173069e-09
-2.932406e-10
1.211981e-09
-2.650287e-09
-2.471492e-09
-2.192071e-09
2.00335e-10
1.515782e-09
-1.716117e-09
8.174541e-10
7.556029e-10
-1.573057e-09
-4.008106e-09
2.551308e-09
1.456798e-09
1.945009e-09
-6.185808e-10
-1.326428e-09
-8.571884e-10
1.595561e-09
2.779063e-11
1.474766e-09
8.209903e-10
5.204458e-10
-1.341436e-09
1.566327e-09
1.120369e-10
-1.678363e-09
1.04696e-09
-1.590657e-09
2.19229e-09
-1.121466e-10
-2.080143e-09
-9.81952e-10
2.31197e-09
-1.330018e-09
-1.107786e-09
8.891201e-10
2.186659e-10
1.336184e-09
-2.100509e-09
7.643248e-10
2.216278e-09
-7.230567e-09
5.01429e-09
9.63891e-10
1.14145e-09
-2.105341e-09
-8.168232e-10
1.628049e-09
-8.112256e-10
-9.146153e-10
1.618767e-09
-7.041516e-10
2.317905e-09
-1.681674e-09
-6.362309e-10
1.534687e-09
-1.361885e-09
-1.728022e-10
9.521575e-10
-2.500661e-09
1.548504e-09
-5.744741e-10
1.880641e-09
-1.306167e-09
2.167803e-09
-1.738381e-09
1.752033e-09
-8.520789e-10
-8.999538e-10
-1.582018e-09
6.345551e-10
9.474629e-10
8.34129e-10
-1.072182e-09
2.380525e-10
1.746245e-09
-1.66774e-09
-7.85054e-11
4.360458e-09
-2.442461e-09
-1.917997e-09
-1.215091e-09
1.837887e-09
-6.55766e-10
1.414323e-09
-7.58557e-10
1.953821e-09
-1.527282e-09
-4.26539e-10
-1.809078e-09
3.212609e-09
3.26706e-10
-1.414579e-09
1.087873e-09
-2.09403e-09
1.23639e-09
8.576391e-10
-2.245754e-09
-4.900722e-10
2.735826e-09
1.143266e-09
-1.921743e-09
8.825844e-10
1.194056e-09
-2.07664e-09
-1.99141e-10
-1.365817e-09
-1.084406e-09
1.671363e-09
-5.869577e-10
8.686604e-10
-2.20224e-09
1.33358e-09
1.527324e-09
-1.724366e-09
1.970424e-10
6.565047e-10
-1.81388e-09
1.157375e-09
-2.226285e-09
1.516834e-09
7.094505e-10
3.567098e-10
-1.721339e-09
1.364629e-09
-1.07866e-09
-8.457978e-10
1.171877e-09
-1.74998e-09
5.781029e-10
1.642673e-09
-2.943483e-09
1.300811e-09
1.670705e-09
-1.057087e-09
1.121918e-09
-1.915651e-09
9.677577e-10
-1.842929e-09
8.751718e-10
1.934945e-09
-9.217855e-10
-1.01316e-09
1.173271e-09
-2.841789e-09
1.668518e-09
1.18905e-09
-2.138477e-09
9.494272e-10
-6.890487e-10
1.567785e-09
-8.787366e-10
-1.714987e-09
1.970116e-10
1.517975e-09
-1.532815e-09
9.749915e-11
1.435316e-09
-7.492988e-09
6.144477e-09
1.348511e-09
-1.437179e-09
-3.858689e-10
1.823048e-09
-2.478629e-09
8.982353e-10
1.580393e-09
-2.272678e-10
-5.943962e-10
-1.697336e-09
6.976285e-10
9.997074e-10
-4.45978e-10
-1.691986e-09
1.987155e-09
-8.730525e-10
-1.114102e-09
-1.346739e-09
1.435271e-09
-8.853143e-11
1.899137e-09
-9.352458e-10
8.973968e-10
1.188154e-09
-2.085551e-09
-1.740445e-09
1.519138e-09
2.21307e-10
4.894995e-10
1.020117e-09
4.074121e-10
-1.780665e-09
1.373252e-09
1.602252e-09
-1.861268e-10
-1.416125e-09
-1.728257e-09
8.952618e-10
8.329954e-10
2.11441e-09
3.141933e-10
-2.428603e-09
-1.416038e-09
1.250617e-09
-8.723602e-10
1.432374e-09
-5.60014e-10
-1.204254e-09
1.484275e-09
-2.800214e-10
8.417763e-10
-2.537306e-09
1.383985e-09
-9.287874e-10
-4.551972e-10
-1.99531e-10
1.647779e-09
-1.448248e-09
-8.96119e-10
1.688422e-09
-7.923029e-10
-1.523144e-09
1.827598e-09
-3.044538e-10
-1.808638e-09
1.96954e-09
-3.07761e-09
1.10807e-09
-1.677432e-09
1.155974e-09
5.214581e-10
-3.491941e-10
-1.352224e-09
1.701418e-09
1.249427e-09
-1.936604e-09
6.871768e-10
2.329153e-10
1.393505e-09
-1.626421e-09
-3.221794e-09
4.855362e-09
-1.633569e-09
-7.60515e-10
1.905198e-09
-1.144683e-09
-3.96722e-10
-8.7256e-10
1.269282e-09
1.242184e-09
-1.71599e-09
4.738059e-10
-3.058771e-10
1.428682e-09
1.000945e-09
-1.625378e-09
6.244335e-10
-1.059029e-09
-3.150279e-10
1.374057e-09
8.036618e-10
1.12531e-09
-1.928972e-09
1.257774e-09
5.942837e-10
-1.81216e-09
-9.395192e-10
-9.260888e-10
1.865608e-09
-2.751302e-09
-2.074069e-09
7.2768e-10
1.346389e-09
7.347642e-10
-1.460284e-09
7.255201e-10
4.07903e-10
1.692846e-09
-2.100749e-09
1.196509e-09
-8.251983e-10
-3.713111e-10
-5.873288e-10
-1.005281e-09
1.592609e-09
-2.025406e-09
1.280815e-09
7.445902e-10
-2.551895e-09
3.081807e-10
2.243715e-09
-1.615426e-09
-8.231491e-11
1.697741e-09
7.85627e-10
-1.856871e-09
1.071244e-09
1.119615e-09
1.044913e-09
-2.164527e-09
1.302057e-09
-3.791599e-10
-9.228973e-10
-1.248983e-09
8.499402e-10
3.990427e-10
-1.327747e-09
-1.809602e-09
3.137348e-09
7.187352e-10
-1.654454e-09
9.357187e-10
-1.304183e-09
1.730048e-09
-4.258644e-10
-6.812868e-10
-1.203229e-09
1.884516e-09
2.026993e-09
-1.259264e-09
9.61132e-10
-1.799355e-09
8.382231e-10
-6.673811e-11
-1.117944e-09
1.184682e-09
1.83947e-09
-1.047326e-09
-7.921434e-10
-1.707528e-09
2.300838e-10
1.014655e-09
5.212963e-10
-1.535951e-09
9.659656e-12
-1.90467e-09
1.89501e-09
-8.489976e-10
1.827225e-09
-9.782277e-10
-1.314751e-09
-6.520535e-09
7.835286e-09
-1.950152e-09
6.112923e-10
1.33886e-09
-1.065772e-09
-8.674569e-10
1.528687e-09
-6.612303e-10
-1.302451e-09
-8.61124e-10
2.163575e-09
2.637389e-09
-2.74717e-09
1.097809e-10
1.687972e-09
-1.892096e-10
-1.85809e-09
1.392347e-09
4.657436e-10
-1.146072e-09
-3.324028e-10
1.478475e-09
1.031439e-09
-1.546407e-09
5.149681e-10
-8.844839e-10
-1.049991e-09
1.934475e-09
2.017434e-09
-5.691933e-10
-1.448241e-09
-2.448083e-09
3.758741e-09
4.377619e-10
-1.324095e-09
8.863333e-10
5.021462e-10
1.226306e-09
-1.728452e-09
9.592596e-09
-9.592596e-09
-1.516211e-09
1.139859e-09
3.763512e-10
1.760878e-09
-9.038652e-10
-8.570128e-10
1.082965e-09
-1.653129e-09
1.592667e-09
-9.351467e-10
-6.575198e-10
-1.62499e-09
-1.775858e-10
1.802575e-09
1.42923e-09
1.767667e-09
-3.196897e-09
1.618151e-09
-8.793612e-10
1.46952e-09
-8.423535e-10
-6.271665e-10
1.564361e-09
-7.114385e-10
-8.529225e-10
1.796746e-09
-5.498591e-10
-1.246887e-09
8.508285e-10
-1.614959e-09
7.641302e-10
1.922373e-09
-4.967035e-10
8.536197e-10
5.595011e-10
-1.413121e-09
-7.843774e-10
-5.454396e-10
1.806109e-09
-1.50703e-09
-2.990794e-10
1.685189e-09
3.666445e-11
-1.639593e-09
1.602928e-09
-2.7639e-10
1.575215e-09
-1.298825e-09
6.787844e-10
1.599496e-09
-1.184057e-09
-9.474872e-10
1.816148e-09
1.860356e-09
-1.282681e-09
-5.776745e-10
2.226517e-09
-1.284838e-09
1.306724e-09
-1.482772e-09
1.760481e-10
3.352874e-10
-1.898123e-09
1.562836e-09
-4.126059e-10
-1.495704e-09
-1.387249e-09
1.284432e-09
1.028173e-10
8.295341e-11
-1.397861e-09
7.361647e-09
-2.13206e-09
2.556602e-09
9.944184e-10
-3.55102e-09
-2.814243e-09
1.486496e-09
7.98043e-10
-1.703665e-09
3.487557e-10
-1.110909e-09
7.62153e-10
-1.149511e-09
1.199047e-09
-4.953601e-11
-3.599835e-10
1.787022e-09
-1.427038e-09
1.312331e-09
5.610554e-10
-1.231021e-09
1.726489e-09
7.756292e-10
-1.772961e-09
9.973323e-10
5.877623e-10
-3.055004e-09
2.467242e-09
-1.808856e-09
-5.704477e-10
3.740919e-09
2.255454e-09
-5.996373e-09
-1.819654e-09
3.078527e-10
1.511801e-09
-6.799379e-10
1.816506e-09
-1.136568e-09
-3.039474e-09
-1.529859e-09
4.569333e-09
-2.340252e-09
-1.981898e-09
4.32215e-09
9.872804e-10
-1.387704e-09
4.004238e-10
-3.484825e-09
7.124851e-10
2.77234e-09
-1.516819e-09
6.498541e-10
8.669652e-10
-9.315541e-10
2.051169e-09
2.572142e-09
-2.536721e-09
-3.542069e-11
1.129293e-09
6.227398e-10
-2.680345e-09
2.125094e-10
2.467836e-09
1.42811e-09
-2.996968e-10
-1.128413e-09
1.783585e-09
-5.684684e-10
-1.215117e-09
8.303198e-10
1.249835e-09
-1.688039e-09
2.556638e-09
-8.68599e-10
-4.661339e-10
-1.129154e-09
1.595288e-09
-1.645864e-09
9.02155e-10
7.43709e-10
-8.666402e-11
-3.398161e-09
2.087053e-11
-1.357323e-09
1.336453e-09
-1.1802e-09
2.031028e-09
-1.39416e-09
2.227124e-09
-8.32964e-10
-1.788406e-09
9.307807e-10
8.576254e-10
-1.198971e-09
1.543039e-09
-3.440678e-10
1.895308e-09
-1.119679e-09
-9.549072e-10
2.923975e-10
-9.644497e-10
1.885901e-09
-9.214515e-10
-9.715583e-11
-1.248791e-09
1.345947e-09
3.870344e-10
1.28263e-09
-1.669665e-09
5.488804e-10
-1.74786e-09
-6.452748e-10
2.088883e-09
-3.961693e-10
-7.711033e-10
1.167273e-09
1.605511e-09
-9.460815e-10
2.365058e-10
1.037962e-09
-1.274468e-09
-1.106973e-09
3.743127e-10
7.326603e-10
-4.48236e-10
1.50833e-09
-1.060094e-09
5.323571e-09
-3.622306e-09
-1.701265e-09
9.08379e-10
-1.617207e-09
7.088283e-10
-2.073709e-10
1.448495e-09
-1.241124e-09
1.308961e-09
-1.324521e-09
1.555992e-11
3.749734e-10
-1.727534e-09
2.50678e-10
5.258084e-09
-1.15325e-09
-4.104834e-09
2.363503e-11
1.216897e-09
-1.240532e-09
-2.987898e-10
1.592903e-09
-1.294114e-09
2.903734e-09
-2.988913e-10
-2.604843e-09
-1.128621e-09
2.11595e-09
-9.873294e-10
-1.016794e-09
1.733001e-09
-7.162071e-10
-1.50724e-09
2.582571e-10
2.6176e-09
-2.325203e-09
-1.325839e-10
1.429085e-09
-1.296501e-09
3.36157e-10
1.393207e-09
-1.729364e-09
6.038944e-10
-1.149889e-09
5.459946e-10
-3.715997e-10
-1.13564e-09
1.319823e-09
2.604848e-09
-3.924671e-09
1.410767e-10
1.605224e-09
-1.7463e-09
3.103926e-09
1.047298e-10
-3.208655e-09
-1.090064e-09
2.056246e-10
-3.876753e-10
-8.519017e-10
1.239577e-09
1.750287e-10
3.429177e-09
-3.604206e-09
-1.693688e-09
5.583907e-10
1.135297e-09
1.282158e-09
7.049963e-10
-1.527892e-09
-2.339173e-11
1.551284e-09
-3.363529e-09
3.339008e-09
2.452082e-11
-1.606601e-09
-3.312484e-09
4.919085e-09
-1.204127e-09
1.591162e-09
1.968249e-09
-1.124983e-09
-8.432659e-10
7.211951e-10
1.916194e-09
6.331214e-10
7.508632e-10
8.270123e-10
1.107933e-09
-2.748706e-10
-1.560806e-09
1.835676e-09
9.217987e-10
-2.589755e-09
1.667956e-09
-1.720682e-10
-1.113907e-09
1.285975e-09
-1.636819e-09
1.788448e-09
-1.51629e-10
1.622389e-09
-8.876244e-10
1.339024e-09
-1.903028e-09
5.640033e-10
1.519408e-09
-1.689975e-09
1.705672e-10
-6.173656e-10
-1.829879e-09
2.447245e-09
1.29096e-09
-1.477086e-09
-5.699401e-10
-8.672389e-10
1.26686e-09
5.93496e-10
1.143685e-09
-1.513743e-09
3.700577e-10
5.151594e-10
-1.10043e-09
-2.258305e-09
2.10662e-09
5.119453e-10
1.052781e-09
-1.564726e-09
-1.272377e-09
1.965666e-09
-6.932891e-10
2.23244e-09
8.191941e-10
-2.192527e-09
1.373333e-09
1.50579e-09
-2.199408e-09
6.936176e-10
6.008038e-10
1.314966e-09
-2.335237e-09
5.286904e-09
-2.951667e-09
-1.969174e-09
1.674615e-09
2.945596e-10
-7.571934e-10
-1.022283e-09
-9.097955e-10
1.932079e-09
-6.854189e-10
1.912969e-09
-1.22755e-09
8.106552e-11
1.606906e-09
1.008157e-09
5.797522e-10
-1.58791e-09
-3.504385e-09
-4.404538e-11
-1.347986e-09
1.392031e-09
1.905e-09
-1.786227e-10
-1.726377e-09
7.722885e-10
-1.336247e-09
1.565214e-09
-8.281137e-10
-7.370998e-10
4.02574e-11
-1.363485e-09
-1.846066e-09
-3.05877e-10
2.151943e-09
7.143445e-09
-1.689086e-09
-5.454359e-09
9.779423e-10
1.068134e-09
-1.816471e-09
2.11336e-09
-2.968893e-10
3.66341e-09
-3.750074e-09
1.315009e-09
2.348401e-09
-1.818939e-09
1.650681e-09
1.682574e-10
-4.63923e-09
3.918103e-10
4.24742e-09
-9.069797e-10
-8.757249e-10
-8.977686e-10
-1.015409e-09
1.913178e-09
-1.194181e-10
-5.3765e-09
5.495918e-09
1.343365e-09
7.731378e-10
-2.116502e-09
9.814278e-10
-1.798251e-09
-4.939335e-10
1.424084e-09
-9.301503e-10
9.329313e-10
-1.598894e-09
-1.270161e-09
9.903496e-11
1.171126e-09
5.144898e-10
1.39051e-09
-3.933046e-10
1.539055e-09
-1.14575e-09
5.673e-10
-1.006398e-09
-5.89397e-10
1.595795e-09
-1.25863e-09
1.097756e-09
1.608734e-10
-1.361683e-09
-4.481841e-10
1.809867e-09
-1.063523e-09
2.35059e-09
-1.287067e-09
-1.563463e-09
-4.380102e-10
-1.699606e-09
1.746147e-09
-4.654037e-11
1.565198e-09
2.005673e-09
1.045134e-10
-2.110187e-09
-1.99202e-09
1.63877e-09
3.532498e-10
-1.677667e-09
7.211006e-10
1.165843e-09
-1.67302e-09
5.071767e-10
1.623884e-09
-3.433486e-09
1.03485e-09
-1.817086e-09
1.521947e-09
-1.390996e-09
-1.309509e-10
3.129057e-09
-1.606502e-09
-1.522555e-09
2.765498e-10
1.240759e-09
-1.517309e-09
-9.915916e-10
-8.533778e-10
-1.089914e-09
1.855066e-09
-7.651521e-10
-2.993282e-09
3.714477e-09
-8.322556e-10
1.729295e-09
-8.97039e-10
9.126451e-10
1.984595e-09
-5.423372e-10
1.885702e-09
8.662372e-10
-1.51605e-09
-3.568469e-10
-1.285087e-09
1.641934e-09
-2.810079e-10
-1.867228e-09
2.148236e-09
1.595814e-09
-8.130194e-10
-7.827949e-10
-1.694965e-10
1.44211e-09
-1.272613e-09
2.265393e-09
-3.226725e-09
1.654237e-09
-1.929107e-09
-7.604389e-10
2.273041e-09
-1.512602e-09
-1.378591e-09
-5.045106e-10
2.019001e-09
-1.040091e-09
-9.789105e-10
1.415751e-09
-1.736236e-09
3.204845e-10
1.641738e-09
-5.2204e-10
-1.119698e-09
-5.226876e-10
1.776093e-09
-6.703883e-10
-1.15684e-09
1.827228e-09
-2.126469e-09
1.117037e-09
1.009432e-09
-1.417148e-09
-6.232245e-10
2.040372e-09
2.121507e-09
-5.049391e-10
-2.793611e-09
-4.395686e-09
7.189296e-09
-3.063287e-09
3.841474e-09
-7.781868e-10
-2.057116e-09
4.179871e-09
-2.122755e-09
1.888596e-09
-1.829562e-09
-5.903432e-11
1.279617e-09
-1.94998e-09
6.703623e-10
6.888539e-10
1.344625e-09
-2.033479e-09
-5.77309e-09
2.554927e-09
3.218163e-09
6.524898e-10
1.338498e-09
-1.990987e-09
-1.859801e-09
1.041101e-09
8.186999e-10
9.347887e-10
1.01317e-09
-1.947958e-09
1.375492e-09
-2.139154e-09
7.636624e-10
2.539934e-09
-2.745405e-10
1.827837e-09
6.475524e-09
-5.633691e-10
-1.520193e-09
2.083562e-09
-1.69828e-09
-4.333791e-10
2.131659e-09
2.154634e-09
-1.850938e-10
-6.940868e-10
1.412822e-09
-9.630003e-10
1.816244e-09
-8.532433e-10
-1.270463e-10
-1.396098e-09
-6.125877e-09
3.470713e-09
2.655164e-09
1.320984e-09
7.443268e-09
-8.75802e-09
-1.815041e-09
1.866241e-09
-5.120034e-11
1.989328e-09
-8.723471e-10
-1.116981e-09
-1.210895e-09
-3.794468e-10
1.590342e-09
-7.38117e-10
4.152387e-09
-3.41427e-09
-1.61785e-09
1.574264e-09
4.358612e-11
1.852195e-10
1.672638e-09
-1.857858e-09
1.127508e-09
2.25859e-09
-1.58505e-09
-5.768871e-10
1.806596e-09
-1.229709e-09
-1.078648e-09
-9.13372e-10
9.769085e-10
1.877911e-09
-2.854819e-09
-4.589446e-09
4.735158e-09
-1.457117e-10
-1.529662e-09
-2.367735e-11
1.553339e-09
-1.89947e-09
5.746421e-10
1.324828e-09
-1.877121e-09
1.126811e-09
7.503098e-10
-4.598692e-10
-1.417251e-09
1.03589e-09
-6.200342e-10
-4.158558e-10
-1.418558e-09
1.18005e-09
1.135846e-09
-1.718184e-09
5.823386e-10
9.431496e-10
-1.875937e-09
9.32787e-10
6.744045e-10
-1.956571e-09
1.282166e-09
-9.853805e-10
1.958901e-09
-9.735207e-10
-1.566244e-09
-2.492356e-10
1.81548e-09
-2.060387e-10
1.483388e-09
1.122814e-10
-1.499336e-09
9.212196e-10
1.917263e-10
1.079125e-09
-1.270851e-09
-9.864438e-11
-1.329365e-09
1.42801e-09
1.503481e-09
5.321239e-10
-2.035605e-09
1.075575e-09
-1.52031e-09
1.158577e-09
3.617329e-10
-9.978484e-10
1.775736e-09
-7.778878e-10
-1.069847e-09
-8.648807e-10
1.934727e-09
1.248786e-09
-3.235836e-09
1.98705e-09
1.199365e-10
-2.359194e-09
3.423846e-09
-7.56416e-10
1.718351e-09
-9.545347e-12
-7.772838e-10
1.710215e-09
6.491895e-10
-1.577977e-09
1.608444e-09
-8.006042e-10
1.849565e-09
-6.776886e-10
9.958263e-10
-1.471231e-09
5.316246e-10
3.678393e-09
-4.210017e-09
-1.036075e-09
-2.451668e-10
1.281242e-09
9.604261e-10
-1.538107e-09
2.77406e-09
4.369385e-09
-1.791767e-09
1.454318e-10
1.646335e-09
1.775191e-09
8.403401e-11
-1.859225e-09
-8.160927e-10
2.218493e-09
-1.4024e-09
-1.990432e-09
1.709424e-09
2.500754e-09
-8.595134e-10
-1.641241e-09
2.039577e-09
-1.103854e-09
-9.35723e-10
-2.466659e-09
8.792453e-10
1.587414e-09
-2.258107e-10
1.735577e-09
-1.509767e-09
3.657925e-10
1.454823e-09
-1.820616e-09
1.721658e-09
8.42485e-10
1.359802e-09
1.453114e-10
-1.505113e-09
2.27126e-09
-3.512081e-09
1.696089e-09
-1.345355e-09
-3.507348e-10
-1.574367e-09
1.47334e-09
-8.224513e-10
-1.046691e-09
1.869142e-09
1.43482e-09
-2.257271e-09
-1.387141e-09
1.580556e-09
1.805496e-09
-1.650851e-10
1.255247e-09
-1.090162e-09
-1.100787e-09
1.276782e-09
-1.759946e-10
-2.027228e-09
9.533257e-10
1.073902e-09
-9.460553e-10
-1.064242e-09
2.010298e-09
-1.325038e-09
2.306466e-09
-1.314928e-09
2.205208e-09
-8.902799e-10
1.32931e-09
1.686832e-09
-5.453814e-10
7.748992e-10
1.225091e-09
-3.943968e-10
-1.378565e-09
1.811263e-09
-9.357209e-10
-1.979041e-09
6.427936e-10
1.544635e-09
4.136793e-10
-3.384115e-09
-3.857369e-10
3.769852e-09
-6.201176e-10
1.171906e-09
-5.517881e-10
-1.329782e-09
3.723161e-10
-1.76587e-09
1.393553e-09
1.984435e-09
-1.499013e-09
-4.85422e-10
1.38312e-09
-1.009616e-10
1.469334e-09
-9.421878e-10
-5.271461e-10
1.392382e-09
-8.658589e-10
-5.265233e-10
-1.378793e-09
1.399664e-09
-1.933628e-09
1.018146e-09
9.154813e-10
-2.199275e-09
-1.808831e-09
-1.347353e-09
-1.730257e-09
1.503348e-09
-1.102834e-10
1.76546e-09
1.294445e-09
-3.860661e-10
1.28075e-09
-1.388711e-09
1.079617e-10
2.190024e-09
-1.237867e-09
1.196652e-09
-1.819973e-10
-4.481469e-10
-1.875974e-09
2.324121e-09
9.746531e-10
-1.239419e-09
2.64766e-10
-1.768377e-09
2.91019e-10
1.477358e-09
5.845337e-10
7.46487e-10
-1.331021e-09
-1.635081e-09
4.945086e-10
1.140573e-09
-1.819927e-09
5.049995e-10
-9.571877e-09
3.33524e-09
6.236637e-09
1.42479e-09
-8.523918e-10
-5.723978e-10
-1.609773e-09
-6.215932e-10
-8.933848e-10
1.514978e-09
-1.942173e-09
-1.315756e-09
4.151764e-10
9.005799e-10
4.012075e-11
1.367169e-09
-1.40729e-09
-1.958468e-09
6.2754e-10
1.330928e-09
-1.616462e-09
5.397878e-10
1.076674e-09
-1.862112e-09
2.221484e-09
-4.641703e-09
2.42022e-09
-1.64928e-09
2.795223e-10
1.369758e-09
-3.630577e-10
1.77247e-09
-1.409412e-09
1.114237e-09
5.684256e-10
-1.682662e-09
8.087805e-10
-1.992459e-09
1.183679e-09
1.337023e-09
-2.050075e-09
7.130524e-10
-8.809331e-10
1.730811e-09
-8.498777e-10
8.719199e-10
-1.985308e-09
1.113388e-09
-1.001193e-09
1.522966e-09
-5.217735e-10
7.560101e-10
-1.880338e-09
-2.43313e-11
-5.680213e-10
2.463031e-09
4.651786e-10
1.484754e-09
-1.949933e-09
-1.782927e-09
1.022412e-09
3.436572e-09
6.792563e-09
-1.945557e-09