/*--------------------------------*- C++ -*----------------------------------*\
| =========                 |                                                 |
| \\      /  F ield         | OpenFOAM: The Open Source CFD Toolbox           |
|  \\    /   O peration     | Version:  2406                                  |
|   \\  /    A nd           | Website:  www.openfoam.com                      |
|    \\/     M anipulation  |                                                 |
\*---------------------------------------------------------------------------*/
FoamFile
{
    version     2.0;
    format      ascii;
    arch        "LSB;label=32;scalar=64";
    class       volVectorField;
    location    "0.38";
    object      U;
}
// * * * * * * * * * * * * * * * * * * * * * * * * * * * * * * * * * * * * * //

dimensions      [0 1 -1 0 0 0 0];

internalField   nonuniform List<vector> 
4541
(
(0.01003644 -7.99592e-05 1.106326e-23)
(0.01056583 -0.0005952183 -3.281403e-24)
(0.01100187 -0.001532142 0)
(0.01083692 -0.00149487 0)
(0.01031513 -0.0006835139 -3.116506e-24)
(0.009459421 -0.0009609361 0)
(0.01022346 -0.0008230795 9.863911e-24)
(0.01025072 -0.000664928 -2.413123e-23)
(0.009325037 -0.0006047521 1.444899e-23)
(0.01133207 1.306615e-05 3.797645e-24)
(0.009395583 -0.001113752 1.64585e-23)
(0.01032906 -0.001131558 -9.527942e-24)
(0.01100669 -0.0005426568 6.927445e-24)
(0.01000468 -0.0004493508 1.865357e-24)
(0.01088258 -0.001675141 0)
(0.01133884 0.0004856227 -1.844145e-27)
(0.01027073 0.001313238 2.161688e-24)
(0.00947025 0.001439525 -1.204524e-24)
(0.00998378 0.001399372 -7.34808e-24)
(0.01047436 -0.002099085 3.690136e-24)
(0.01049982 -0.0001566578 0)
(0.01048715 -0.0008913663 -1.123048e-23)
(0.01111448 0.000555293 0)
(0.008406585 -0.0006213541 4.191117e-23)
(0.01054823 -0.001677571 0)
(0.01023307 -0.0007011325 7.626477e-24)
(0.01002263 -0.0005592593 -4.652807e-24)
(0.01018705 -0.0005463856 4.602575e-24)
(0.009352041 -0.0004127509 5.268782e-24)
(0.01105176 -0.000643644 0)
(0.01006185 -0.0004369313 -2.026509e-23)
(0.01000746 -0.0004853881 -2.203969e-24)
(0.01123192 1.227803e-05 -1.620286e-24)
(0.009690316 -0.0005877935 -8.404063e-24)
(0.01070925 -0.00117231 0)
(0.01072803 -0.0001473088 0)
(0.01098867 -0.001448215 0)
(0.01123009 -0.000926491 -1.326954e-24)
(0.009958403 -0.0004698336 -3.656071e-23)
(0.009019444 0.001526292 3.424519e-24)
(0.01078302 -0.0001764038 0)
(0.009177165 -0.000448993 -1.085116e-23)
(0.01072002 -0.000545433 -2.420029e-24)
(0.01099736 0.0001054289 -4.944326e-25)
(0.01108956 -0.000476157 6.491812e-24)
(0.01133345 -1.199378e-05 -4.082963e-24)
(0.01119869 -0.000845107 5.936876e-24)
(0.008601782 0.001540683 0)
(0.01070173 -0.001830401 0)
(0.01011362 -0.0006861154 1.206453e-25)
(0.009908306 -0.0009247385 0)
(0.01088256 0.0003194658 0)
(0.01035572 0.001094021 6.161326e-25)
(0.01005987 -0.0006742954 2.926726e-24)
(0.01073904 0.00108356 -9.983837e-25)
(0.009842107 -0.001435546 2.142483e-23)
(0.01001767 -0.0001570987 6.459172e-24)
(0.009687325 -0.0001766727 2.306238e-24)
(0.01115476 0.000490841 4.013541e-24)
(0.01071618 -0.00103761 4.717254e-24)
(0.009944911 -0.0006144687 0)
(0.01076129 -0.000828688 0)
(0.01020508 0.001116486 0)
(0.006820067 -0.00184574 -8.756547e-24)
(0.009251478 -0.001284264 4.965934e-23)
(0.00950992 -0.002427471 -8.353045e-24)
(0.009844148 -0.0005848324 -9.439027e-24)
(0.01116562 -0.0003739292 1.148677e-23)
(0.01099307 0.0004836386 -8.126031e-25)
(0.009837121 0.0007682292 0)
(0.01064286 0.001089827 2.979825e-24)
(0.0114368 0.0002343452 4.880734e-25)
(0.01016622 -0.0007315376 0)
(0.01156159 -0.0003156524 9.39615e-25)
(0.009570208 -0.0004302787 2.607159e-23)
(0.01155982 -0.0003648148 8.171372e-25)
(0.01002958 0.001226296 -1.422091e-24)
(0.008546892 0.001569796 -5.456262e-25)
(0.01126222 -0.001313829 2.417566e-24)
(0.009838357 -0.0002406656 -1.983197e-23)
(0.01064294 0.0005702457 0)
(0.01105888 -0.001572125 -2.944392e-24)
(0.009813594 -0.0008513473 1.996202e-25)
(0.01137276 -0.0004880866 4.619901e-24)
(0.01002553 -0.0002631617 0)
(0.01056493 -0.001230028 7.48793e-24)
(0.01078117 -0.001030728 0)
(0.01009511 0.0003950761 1.44807e-23)
(0.01038526 0.001269427 -2.525038e-24)
(0.0113863 0.0004231751 0)
(0.0100818 -0.0001459821 -1.217526e-23)
(0.009629037 0.0009920327 -9.467157e-24)
(0.008812977 0.001499437 0)
(0.01019372 0.001323589 0)
(0.01012292 -0.001033341 1.935671e-23)
(0.008467434 0.001604007 5.18813e-24)
(0.01043288 -0.001766363 6.810953e-24)
(0.01066537 -0.0005822468 -5.304815e-24)
(0.01042782 -0.0006962413 -1.853364e-23)
(0.0103896 -0.001026563 -4.429154e-24)
(0.01012962 -0.001352583 1.091955e-23)
(0.01058561 -0.0001631612 0)
(0.009688219 -0.0005315337 -8.262451e-24)
(0.01128946 -0.0003257394 -1.607389e-24)
(0.01087099 0.0001027546 4.310759e-24)
(0.00991785 -0.001319249 -3.771833e-23)
(0.008785701 0.001445184 3.574458e-24)
(0.01089833 -0.0002906098 -1.485118e-23)
(0.01084687 -0.0007965402 -6.457679e-24)
(0.01144281 -0.0006399954 -2.349062e-24)
(0.01038345 -0.0006062411 4.246191e-24)
(0.009985581 -0.0001582653 -2.291117e-23)
(0.01117676 5.058838e-05 0)
(0.01083545 0.0005478261 -4.312808e-25)
(0.009855183 -0.0004531596 5.030968e-26)
(0.009858201 -0.001669405 -1.684863e-23)
(0.01006693 -0.0008909824 0)
(0.01042603 0.001259394 0)
(0.00997376 -0.0008294021 2.400423e-23)
(0.009144256 -0.000642312 2.002976e-23)
(0.01088284 0.0001821466 3.305184e-24)
(0.01095182 0.0004700052 0)
(0.00899485 -0.002180875 -1.531493e-23)
(0.01130731 5.677547e-05 4.709312e-24)
(0.01060452 0.001067605 1.232056e-24)
(0.01081013 -0.0007334712 0)
(0.00817598 -0.001768451 0)
(0.007735458 -0.002216899 2.551405e-23)
(0.01051995 -0.0006643461 -1.568185e-24)
(0.009217143 -0.001226315 3.531693e-25)
(0.009548953 -0.0006266764 9.923315e-24)
(0.01044413 -0.001306915 7.03679e-24)
(0.01009653 -0.0007438575 2.340289e-23)
(0.01086228 -0.0007294787 -7.507316e-24)
(0.01032941 -0.002184046 -2.300626e-24)
(0.006921901 -0.001263917 0)
(0.01138187 -3.102286e-05 2.662833e-24)
(0.01018477 -0.0006462084 -8.525287e-26)
(0.009204549 -0.001849692 5.597026e-24)
(0.01117435 -0.0004942746 -3.7143e-24)
(0.01012577 -0.0006789059 8.548165e-24)
(0.009976724 0.001405581 1.910508e-24)
(0.00930301 -0.0008263546 -1.522913e-23)
(0.01023358 0.001125864 -1.128436e-24)
(0.01088559 -0.000952185 -4.847185e-24)
(0.009074497 -0.001857584 4.111085e-24)
(0.009099311 -0.000835479 -1.293885e-23)
(0.009975388 -0.0003769201 0)
(0.01096879 -0.0005489905 0)
(0.009790861 -0.0004355495 -5.516081e-24)
(0.01066297 0.0008614325 2.060726e-26)
(0.01117423 -0.001412607 -4.578431e-24)
(0.01006995 -0.001078241 0)
(0.010651 -0.001635594 6.753929e-26)
(0.01029576 -0.0007013588 -6.958782e-24)
(0.009393984 -0.0006074127 0)
(0.009351797 -0.0009507222 8.127692e-24)
(0.009257768 0.001546341 -9.324845e-24)
(0.009996535 -2.423341e-05 -1.437531e-23)
(0.01129193 -0.0007623928 4.339983e-24)
(0.0100525 -0.0009143274 -1.7593e-23)
(0.01038565 -0.0009517418 -1.016446e-24)
(0.00890587 -0.001290535 -2.583378e-25)
(0.01020542 0.001278343 1.001894e-23)
(0.011312 -0.0001476457 4.0846e-24)
(0.01113863 0.0004771736 0)
(0.009290658 -0.001608923 0)
(0.0107643 -0.001291404 8.578335e-24)
(0.009566504 -0.002525268 1.038137e-23)
(0.009787808 -0.0003638111 -2.237191e-23)
(0.009723793 -0.0003742556 -1.269297e-23)
(0.01078196 0.0007048271 0)
(0.01046691 0.0007749806 0)
(0.01088417 0.0006938282 -5.41356e-26)
(0.01054794 0.001045141 0)
(0.01108846 -0.0006648848 -5.235122e-24)
(0.008502043 0.001410998 0)
(0.0102756 -0.00101494 6.509365e-24)
(0.01080386 -0.0016312 -4.982289e-24)
(0.009559881 -0.0004952709 8.814514e-24)
(0.01092724 0.0009663052 -2.367331e-24)
(0.007408322 -0.002292018 -1.691646e-23)
(0.01147667 -0.0001914754 1.736901e-24)
(0.0102356 -0.0005518264 1.669916e-23)
(0.01039733 -0.002012003 0)
(0.01123358 0.0004213163 -4.405149e-25)
(0.01095581 -0.0003083055 5.304151e-24)
(0.009839127 -0.000639467 -3.318688e-23)
(0.01125641 -7.967043e-05 0)
(0.009687591 -0.0004413983 5.537963e-24)
(0.01056384 -0.001139838 0)
(0.01104948 -0.0009464296 0)
(0.0108783 0.0005729147 1.286495e-25)
(0.01153544 4.021864e-06 -8.731324e-26)
(0.01071987 0.001097883 -3.282893e-24)
(0.01114331 -0.0003176962 0)
(0.01013112 -0.001151966 -9.723507e-24)
(0.008871616 0.001588396 -3.662468e-24)
(0.008454491 0.001579609 -6.622961e-24)
(0.01047052 0.001104236 -1.215068e-24)
(0.01148244 -0.0005742227 -2.465676e-25)
(0.007624378 -0.001102437 -1.743809e-25)
(0.01026926 -0.0008736084 -9.899475e-24)
(0.01121207 0.0006367886 0)
(0.01094944 0.0001247314 3.521831e-24)
(0.01095799 0.0007671768 0)
(0.01014298 -0.001501553 -1.72232e-24)
(0.01070219 0.00111006 0)
(0.01015665 -0.00126167 0)
(0.01103892 -0.000912817 -3.496763e-24)
(0.01004847 -0.0005143958 0)
(0.01036377 0.001049952 0)
(0.0108781 -0.0008976781 0)
(0.01016821 -0.002198244 -8.471188e-24)
(0.008611903 -0.0009963189 2.303407e-23)
(0.01043386 -0.001191598 0)
(0.01137138 0.0004550869 -5.239576e-25)
(0.0106836 -0.0006762757 0)
(0.007930974 -0.001863686 -2.469845e-23)
(0.008756423 -0.001816095 -1.492605e-24)
(0.006201186 -0.001070083 5.273991e-23)
(0.011421 0.0003155158 -1.587634e-25)
(0.009690446 -0.0006460186 -2.312845e-23)
(0.01001099 -0.001360539 -7.466861e-24)
(0.01147258 -4.587447e-05 6.531398e-24)
(0.009996771 -0.0005357622 0)
(0.01145206 0.0002859119 -2.775425e-26)
(0.01134735 0.0003697952 2.805298e-25)
(0.01033686 0.001224785 0)
(0.009880808 -0.0002650868 0)
(0.01040666 -0.0009056047 -4.821379e-26)
(0.01021802 -0.0004777549 6.549351e-24)
(0.01124481 0.0003550617 8.633953e-25)
(0.009603412 -0.0005903967 1.910807e-23)
(0.0075961 -0.002469813 0)
(0.008760328 0.001434108 0)
(0.01062765 -0.001718946 2.160565e-24)
(0.01096041 -0.0004156802 1.854585e-24)
(0.009999962 -0.000330408 -1.547749e-23)
(0.009868924 -0.0006680656 -2.226138e-23)
(0.01020164 -0.0004619776 2.106602e-23)
(0.0104904 0.000994512 8.009925e-25)
(0.01014067 -0.002302603 -6.829417e-24)
(0.009735562 -0.0007315489 0)
(0.009780402 -0.0009444328 0)
(0.01020984 -0.0005298752 2.129921e-23)
(0.01038325 -0.0008222637 1.557223e-23)
(0.01068827 -0.0008875451 2.375525e-24)
(0.01064498 0.0008476288 2.3965e-24)
(0.01023719 -0.0004112898 -1.115826e-23)
(0.01000596 -0.0005447752 0)
(0.009073491 -0.0009501587 5.263212e-24)
(0.01096883 0.0008685126 2.430486e-25)
(0.01126733 0.0002431728 0)
(0.00945262 -0.0014154 0)
(0.01030529 -0.0002839399 0)
(0.009658391 -0.0006478284 1.673594e-23)
(0.01061851 0.0009131629 -4.336815e-25)
(0.01016526 0.001142346 1.496051e-24)
(0.01117225 0.0006879793 -1.094796e-25)
(0.009623255 -0.0005019069 -2.528153e-23)
(0.01029104 -0.0008443436 -4.647207e-24)
(0.01118805 0.0002282952 2.59032e-24)
(0.007591006 -0.001523732 0)
(0.01017659 -0.0007213695 1.149676e-23)
(0.009619812 0.0001453855 4.144033e-24)
(0.01016816 -0.0005513213 8.740155e-25)
(0.008740958 0.001585741 0)
(0.01127469 -0.0003102119 3.298489e-24)
(0.0101432 0.001346318 -4.84742e-24)
(0.01020104 0.0005682734 -1.293758e-23)
(0.01095453 -0.0007020556 -9.618793e-24)
(0.00936264 -0.0006699197 1.212027e-23)
(0.009897789 -0.000755734 -1.06504e-23)
(0.01131227 0.0002560905 3.0227e-24)
(0.01119809 0.0005541181 -3.71867e-25)
(0.008366317 -0.002720202 -1.256503e-23)
(0.009890957 0.001353402 4.651539e-24)
(0.01089315 -0.00153314 1.121723e-23)
(0.01062801 -0.001486687 -1.01393e-23)
(0.01004217 -0.001756465 1.710166e-23)
(0.01023517 0.001333125 0)
(0.01011754 -0.0001491737 1.155663e-23)
(0.01115113 -0.000896483 0)
(0.01075775 0.0009509333 -1.249817e-24)
(0.01143452 -0.0005866006 6.814087e-25)
(0.01069401 -0.0001708231 6.170942e-24)
(0.009704041 0.001459636 4.111993e-24)
(0.01032318 0.0006173174 0)
(0.008899918 0.001553948 4.476868e-24)
(0.01013833 -0.0008094938 6.911573e-24)
(0.01018436 -0.0006603888 9.520722e-24)
(0.009383982 -0.001005911 0)
(0.009308796 0.001541208 1.04918e-23)
(0.01003659 0.001334895 3.034387e-24)
(0.0101767 -0.0006118446 7.328889e-24)
(0.009916054 -0.001385614 -1.830916e-23)
(0.01012198 -0.0004280577 4.581132e-24)
(0.009528957 0.001488387 0)
(0.01116214 -0.0002413232 -2.152935e-24)
(0.01094593 0.0009353526 -1.998198e-24)
(0.00971473 -0.001213703 -2.444306e-23)
(0.01028356 -0.000544548 0)
(0.01135765 -0.0008382412 -9.786913e-24)
(0.0111426 -0.0004581503 1.314611e-23)
(0.008709877 -0.0006743029 6.057547e-26)
(0.00897687 -0.000716347 2.15004e-23)
(0.009638996 0.00146042 -3.799906e-24)
(0.01057443 0.000967544 4.100276e-25)
(0.0107367 0.001066597 3.134973e-24)
(0.01100496 -0.0008593899 -7.514297e-25)
(0.01125904 -1.683535e-05 1.633307e-24)
(0.009977787 -0.0003379778 -1.143655e-23)
(0.0113935 0.0001585272 0)
(0.008923767 -0.002425488 2.713522e-23)
(0.009880254 -0.0001954687 0)
(0.01065549 0.0009781639 0)
(0.009190406 -0.000494558 0)
(0.01108832 0.0005607779 0)
(0.007002357 -0.0005991627 0)
(0.01151053 -0.0002352539 0)
(0.009456174 -0.001233058 -2.528085e-24)
(0.01120886 0.0002825731 1.767345e-24)
(0.01056609 -0.0006487525 -1.638486e-23)
(0.009551164 -0.00198252 -2.165552e-23)
(0.01008484 -0.0006431747 6.86904e-24)
(0.01088788 -0.0001089661 -1.744571e-25)
(0.01042576 -0.0009504126 1.009308e-23)
(0.01042501 -0.0007299787 2.112607e-26)
(0.009757726 -0.0009910712 1.390096e-23)
(0.0103566 -0.0005302256 -1.428488e-24)
(0.01117721 0.0007037088 8.046934e-25)
(0.01118711 0.0007201121 0)
(0.01019348 -0.0009048829 -1.292085e-23)
(0.01030326 -0.0008256827 3.12673e-24)
(0.01018539 -0.001883621 1.019039e-23)
(0.009292238 -0.001850391 0)
(0.009513899 -0.001874134 -2.378571e-23)
(0.01133941 0.0003208876 8.799902e-25)
(0.01111947 4.03323e-06 0)
(0.01026337 -0.0008924737 0)
(0.009171188 -0.002436336 0)
(0.009703925 -0.0008364017 6.687587e-24)
(0.01024636 -0.0004420546 0)
(0.007263581 -0.001535819 -1.517787e-23)
(0.01122068 -0.001303188 -2.825404e-24)
(0.01116601 0.0001353265 5.239397e-24)
(0.01068212 -0.001215658 9.688596e-24)
(0.01081061 0.0008840135 4.788577e-25)
(0.01073568 -0.001672421 7.63335e-25)
(0.01115936 0.0007470286 1.618318e-24)
(0.01132931 -0.000283164 -3.467624e-24)
(0.01117504 0.000383968 0)
(0.01002737 -0.0006387647 -1.546179e-23)
(0.01091159 0.0009518633 1.107899e-24)
(0.0104561 -0.0007424125 0)
(0.009591172 0.001385015 0)
(0.01059467 0.001146843 0)
(0.01008223 -0.0004660575 -8.182517e-24)
(0.01111215 0.000581419 6.792743e-26)
(0.010368 -0.0001964694 -3.592198e-25)
(0.01117309 -0.0009538744 0)
(0.01137403 -0.000720378 2.951023e-24)
(0.0100854 -0.0004072417 5.168278e-24)
(0.01141099 -0.0002696443 1.120268e-24)
(0.009242498 0.001551035 -1.108494e-24)
(0.0107642 -0.001841991 -6.621706e-24)
(0.01001 -0.0006846648 1.408015e-23)
(0.01055198 -0.0002593752 -4.752185e-24)
(0.01105171 0.0008468694 0)
(0.01078611 0.001072264 3.460448e-24)
(0.006967647 -0.001727275 -1.409178e-23)
(0.009722666 -0.0004919027 -7.893268e-25)
(0.01030966 0.001214822 -5.049857e-24)
(0.0107357 -0.0009187217 0)
(0.01014609 -0.002103107 0)
(0.01044946 -0.0009298435 -9.607202e-26)
(0.01017592 -0.001105675 1.174575e-23)
(0.01147104 -0.0007146503 -6.136824e-25)
(0.01048843 -0.001316787 1.464355e-23)
(0.009901547 -0.0006583327 0)
(0.01083033 0.0007202606 -4.364318e-24)
(0.009099345 0.00149753 5.02342e-24)
(0.01103766 0.0004494446 -7.962145e-25)
(0.01034947 0.0008128963 -8.370535e-24)
(0.007819351 -0.002715546 1.49009e-23)
(0.01041395 0.001095164 0)
(0.01121214 -0.0009771144 2.972469e-25)
(0.009667864 -0.0009678217 -1.749771e-23)
(0.009862235 -0.0006040868 1.773892e-23)
(0.01152715 -0.0005311604 2.174444e-24)
(0.01152059 -0.0007040312 -5.009766e-25)
(0.008648835 0.00144599 0)
(0.009749845 -0.0002799509 -3.36212e-23)
(0.01037827 -0.0006417297 9.250516e-24)
(0.009635422 -0.0008433532 3.596201e-24)
(0.009770823 -0.0005662238 2.348339e-26)
(0.01050011 0.0012273 3.431895e-24)
(0.01102332 -0.0003576754 -1.125139e-23)
(0.01036126 -0.0005648676 0)
(0.01142981 -0.0005451687 -1.683058e-24)
(0.01145554 -0.0009176944 -1.025176e-24)
(0.01008912 -0.0008998019 0)
(0.01016492 -0.001419837 7.910271e-24)
(0.009466376 -0.0005262404 -1.542652e-23)
(0.01100798 0.0005019383 -7.102513e-25)
(0.01073873 0.0008044948 1.241796e-23)
(0.01134705 -0.0005071148 -2.499079e-24)
(0.01126757 0.000614109 0)
(0.01054891 -0.0006184402 8.099205e-24)
(0.01125377 -0.000604297 2.681474e-24)
(0.009555526 0.001505514 0)
(0.01075528 -0.000745772 0)
(0.009126326 -0.002175904 0)
(0.009630115 -0.001189699 1.459895e-23)
(0.01116868 -0.0005446399 1.152594e-23)
(0.01115665 0.000307679 2.984758e-24)
(0.01150275 -0.0006942914 3.196084e-24)
(0.01136437 -0.0005574791 -1.07351e-24)
(0.01116161 -0.001457167 -5.746958e-24)
(0.008620086 -0.001416583 0)
(0.008139507 -0.0009984682 -3.580871e-23)
(0.01089764 0.0004135835 1.984442e-24)
(0.009648058 -0.0002782046 2.111579e-23)
(0.009844706 -0.001131955 -1.606628e-23)
(0.01130966 -0.0011961 -1.500582e-24)
(0.01116371 -0.0013837 3.54006e-24)
(0.01138707 -0.001058448 5.157823e-24)
(0.01003797 -0.0008137217 1.336702e-23)
(0.009063101 -0.002681607 0)
(0.01133291 0.0002365837 -1.491676e-24)
(0.009535991 -0.001127435 0)
(0.0106747 -0.001953625 0)
(0.01068694 0.0009327126 4.013656e-25)
(0.01092261 4.619705e-05 -3.536739e-25)
(0.009998122 -0.0008705609 -6.850833e-24)
(0.01131027 -0.0004693444 1.799804e-24)
(0.008782856 -0.00136115 -5.936164e-24)
(0.01073356 -0.0009808045 -8.108127e-24)
(0.01086272 -0.0006112701 3.393886e-24)
(0.0104366 0.001256238 2.73471e-24)
(0.009674922 -0.0003678034 2.279878e-23)
(0.01065101 -0.001554468 1.585096e-23)
(0.009452629 -6.124031e-05 -1.44414e-23)
(0.01034822 -0.001027296 4.317812e-24)
(0.01022926 -0.001998007 9.156291e-24)
(0.01107976 -0.0004311499 1.496826e-23)
(0.00819261 -0.002086152 0)
(0.01010572 -0.0006533879 -1.637205e-23)
(0.01083088 2.856437e-06 0)
(0.01148201 -0.0005189981 -2.190487e-24)
(0.01013444 -0.0005475737 0)
(0.009994726 0.001279786 0)
(0.01130087 0.0005704 -4.313645e-26)
(0.01119129 0.0003250068 0)
(0.009984886 -0.0004911272 2.753278e-23)
(0.009905974 -0.001450953 0)
(0.01042512 -0.00102071 0)
(0.009575232 -0.001308127 -1.524916e-23)
(0.009906763 -0.001170339 1.816544e-23)
(0.01067832 0.001023802 4.360991e-24)
(0.01140441 0.0003344782 -2.922784e-25)
(0.01010343 -0.001473314 1.003258e-23)
(0.01073834 0.001090828 0)
(0.01111364 -0.001335669 3.859282e-24)
(0.01040971 0.001265683 -3.603469e-24)
(0.01127946 0.0004294103 -1.62273e-24)
(0.01091932 -0.0009919051 -1.564652e-23)
(0.009183401 -0.001561994 -5.82315e-26)
(0.010462 -0.001956838 0)
(0.01135485 -0.0002732681 4.269854e-24)
(0.01151322 0.0001039318 -4.016416e-26)
(0.01155469 -0.0003375351 0)
(0.008882824 -0.0006021471 -2.896342e-23)
(0.01048172 -0.0006086812 0)
(0.01137148 0.0004239547 0)
(0.009047697 0.001446724 -9.65159e-24)
(0.01015067 -0.0007200126 4.733664e-24)
(0.01005921 -6.817549e-05 -1.827152e-23)
(0.01013517 -0.0003446858 0)
(0.01091418 0.0004314576 0)
(0.008514289 0.001611397 3.701052e-25)
(0.01031798 -0.0007295413 5.757623e-24)
(0.008301462 -0.002804658 9.719043e-24)
(0.01146649 -0.0002678717 1.455426e-24)
(0.009640261 -0.000674474 1.643938e-23)
(0.009954287 -0.0008414352 -1.596792e-23)
(0.01034239 -0.001468057 -1.204774e-23)
(0.009799561 -0.0001673218 -1.29506e-23)
(0.009690096 -0.0001137603 -5.445671e-26)
(0.01017112 -0.0002622948 0)
(0.01136429 0.0002313663 0)
(0.01140446 -0.0007456841 -1.432197e-25)
(0.01108095 6.78067e-05 -3.721343e-24)
(0.01057263 -0.0005243513 -1.224861e-23)
(0.007871449 -0.0005774628 1.2111e-23)
(0.01004907 -0.0003553289 8.172101e-24)
(0.009692083 -0.0004820251 0)
(0.01116561 -0.00145623 9.151009e-24)
(0.01080062 -0.0006353413 0)
(0.01024164 -0.001911001 1.116229e-23)
(0.01025527 -0.0004973657 9.609482e-24)
(0.01007873 -0.0004888153 1.547839e-23)
(0.00878026 -0.0005274398 1.137285e-23)
(0.01086008 0.0007040025 -4.00746e-26)
(0.01040239 -0.0005195451 8.273632e-24)
(0.00970752 -0.001471227 -2.453543e-23)
(0.01104142 -0.001296544 -2.525704e-24)
(0.01003973 -0.000332912 -3.460884e-25)
(0.01018489 -0.00214233 0)
(0.01057174 0.001074567 -3.917247e-24)
(0.01139846 -0.000122605 -1.282982e-24)
(0.0107534 0.0008561122 3.643602e-25)
(0.01039549 -0.001702409 7.998526e-24)
(0.01034084 -0.001518672 0)
(0.01032801 0.0005364125 0)
(0.01101318 0.0004487837 0)
(0.01011635 -0.000535605 2.715546e-23)
(0.01085893 0.0006101233 -5.505631e-25)
(0.008992837 -0.002700733 -2.168612e-23)
(0.01006603 -0.0006589204 0)
(0.01144193 0.0002506241 0)
(0.008945688 -0.002079431 0)
(0.008653314 -0.002711041 0)
(0.009838883 -0.001825549 -3.149339e-23)
(0.009484639 -0.002131692 0)
(0.009697645 -0.001539676 5.551613e-24)
(0.01012032 -0.0002763903 5.012185e-24)
(0.0101432 -0.0006087414 9.103593e-24)
(0.0102507 -0.0008142356 9.112995e-24)
(0.01040569 -0.001579139 -1.411567e-23)
(0.005928028 -0.001216152 3.176694e-23)
(0.01068538 -0.001140812 2.693379e-25)
(0.01108713 -0.0001556881 0)
(0.0110999 0.0004554283 0)
(0.00996046 -0.0007532964 0)
(0.01115103 -0.0001681219 8.938911e-25)
(0.01040091 -0.001257765 5.115339e-24)
(0.01018108 -0.0005827936 -1.245786e-23)
(0.008173668 -0.0008965738 2.409031e-23)
(0.0110028 0.0004254274 -2.731232e-24)
(0.01074529 -0.0007937735 0)
(0.01048015 -0.001520447 0)
(0.009325074 -0.000716238 -2.236479e-23)
(0.008278846 -0.0008719932 -2.252542e-23)
(0.009995365 -0.0003766317 -7.806432e-24)
(0.01101377 0.0007811104 2.877156e-24)
(0.01009183 -0.0003505016 5.451828e-24)
(0.006313827 -0.002401398 -5.815683e-23)
(0.008464422 -0.002535043 -2.839967e-23)
(0.01082166 -0.0005572989 -5.607907e-24)
(0.01016571 -0.0004933058 3.820792e-24)
(0.01076182 -0.0009200858 5.775325e-24)
(0.009634386 -0.0001988913 -3.807486e-23)
(0.01096969 0.000263188 -3.68892e-24)
(0.009990536 -0.0002782979 9.608313e-24)
(0.008769881 -0.002725074 -1.757943e-23)
(0.01103136 0.0006380392 -5.696512e-25)
(0.01089333 -0.0005785962 -6.541193e-24)
(0.009666575 -0.0009926397 1.641781e-23)
(0.01139793 -0.0006821145 -5.774364e-24)
(0.009952151 -0.001043994 0)
(0.01088936 -0.001304117 -6.076836e-24)
(0.008532275 -0.0007117066 0)
(0.01048214 -0.000716758 0)
(0.009412626 0.001530294 0)
(0.01146893 -0.0002630968 -1.02223e-24)
(0.01117877 0.0002208546 0)
(0.01083494 -0.0006827004 -2.376971e-24)
(0.0109149 0.0006792859 3.872947e-24)
(0.0110579 0.0008370033 -1.886026e-24)
(0.01149261 0.0001721292 1.091084e-25)
(0.00812565 -0.002459382 -2.940228e-24)
(0.01023053 -0.0006835695 -1.323755e-23)
(0.01119603 0.000524767 -2.9733e-26)
(0.01072257 0.0009958751 0)
(0.01084979 0.0008018869 0)
(0.01075941 0.0009283876 1.527076e-24)
(0.01084932 0.0008894575 3.119583e-25)
(0.01112007 -0.0005718709 0)
(0.0112687 -0.0009030419 5.118722e-24)
(0.01000864 -0.0001535943 -9.59786e-24)
(0.01127434 3.272351e-05 6.129836e-25)
(0.01127711 -8.61935e-06 0)
(0.01012705 -0.000518024 5.592894e-24)
(0.0113252 6.412551e-05 0)
(0.01035467 0.001287691 -2.559489e-24)
(0.008990015 -0.0008694716 0)
(0.01055007 -0.0005621847 1.040709e-23)
(0.01004513 -0.0007344277 1.24673e-24)
(0.01004908 -0.0005728406 1.354872e-24)
(0.01001041 0.001208707 2.695906e-24)
(0.01052434 0.000998203 2.785675e-25)
(0.01011256 -0.001586132 9.557878e-26)
(0.009805091 -0.001641051 3.904729e-23)
(0.01063437 -0.001987064 -6.105936e-24)
(0.01080148 0.0001927376 -1.399134e-24)
(0.009267271 -0.0008747383 2.922281e-23)
(0.01134094 -0.0006055404 -6.730954e-24)
(0.01003315 -0.0003472309 1.078771e-23)
(0.0100397 -0.0003919587 -1.12123e-23)
(0.01113211 0.0003897482 1.490825e-24)
(0.01065613 -0.0002898275 8.249365e-24)
(0.01050928 0.001101793 1.452237e-24)
(0.01015448 0.001182636 0)
(0.01081871 0.0002781981 -6.686977e-25)
(0.01096594 -0.001119057 0)
(0.01041304 -0.0007435982 1.056571e-23)
(0.01012499 -0.0009369468 -8.074571e-24)
(0.009973955 0.001336763 0)
(0.009770265 -0.0006867405 1.961186e-23)
(0.0100577 -0.0005910259 0)
(0.009697181 0.0005884722 -5.269564e-24)
(0.01119334 0.0002933536 -8.282892e-25)
(0.01018963 -0.0008227216 0)
(0.01020948 -0.0006675897 -2.167015e-23)
(0.009986219 -0.001216897 0)
(0.01086836 0.0005094828 -7.819934e-25)
(0.01103971 -0.0006916676 -3.093472e-25)
(0.009700187 -0.000696257 0)
(0.009005234 -0.0009388762 6.141951e-25)
(0.01122831 0.0005321466 0)
(0.0100069 -0.0006162157 2.64614e-24)
(0.009646196 -0.000618017 -2.621932e-23)
(0.009867225 -0.0005532765 0)
(0.01090979 0.0003764055 -1.693708e-24)
(0.008928443 0.001468713 -3.481818e-24)
(0.008512792 -0.0004427889 1.241047e-23)
(0.009888391 -0.0004093821 -1.381992e-23)
(0.009495206 -0.0006707828 2.416619e-23)
(0.01065706 0.0009105623 -4.858755e-25)
(0.01079016 0.0009985554 0)
(0.01088813 -0.0005363537 2.246616e-24)
(0.008725061 -0.002598965 9.37604e-24)
(0.01116939 0.000255049 -1.529206e-24)
(0.01098974 -0.001079986 0)
(0.009501014 0.001509734 -1.051773e-23)
(0.0108274 -0.0008837803 1.287037e-23)
(0.01120403 0.0003982075 1.931428e-25)
(0.01027011 -0.00111362 -7.652648e-24)
(0.01003976 0.0009199242 4.297906e-24)
(0.009946115 -0.0004543001 1.034463e-23)
(0.009983991 -0.00102299 0)
(0.01095187 0.0005253826 1.337538e-24)
(0.01141516 0.000364134 1.042114e-25)
(0.01037906 -0.0007722729 0)
(0.01029582 -0.0007369906 1.548073e-23)
(0.009516616 -0.0005615031 -2.812976e-23)
(0.009662016 -0.0005345187 -5.490786e-26)
(0.01048401 -0.0007975808 -3.82477e-25)
(0.01105289 0.0007148702 2.129616e-27)
(0.01117408 -0.001162645 1.779544e-24)
(0.0107356 0.001095286 0)
(0.01033413 -0.0001892733 0)
(0.01102175 0.000291821 -2.904924e-24)
(0.01018355 -0.0003451909 -1.063851e-23)
(0.009570374 -0.0002598141 -2.762234e-23)
(0.01134399 0.0004881648 5.17862e-26)
(0.009975529 -0.0009163913 0)
(0.01055253 -0.0003509757 0)
(0.01137896 0.0002918487 -8.962393e-25)
(0.01128187 -0.001120217 2.276177e-24)
(0.01021596 0.001248236 -1.897801e-24)
(0.01127375 -0.0009730589 -3.886165e-25)
(0.009931151 -0.0004766057 0)
(0.01000014 -2.975886e-05 0)
(0.01152461 1.346449e-05 0)
(0.01155187 -0.0002117667 1.663365e-25)
(0.009742023 -0.0003131241 2.946836e-23)
(0.009642333 -0.0003079353 -3.825112e-23)
(0.01048473 -0.000969038 -2.835672e-23)
(0.01150289 -0.0007703807 3.45038e-24)
(0.0109677 -0.0001300832 -3.361994e-24)
(0.01111706 4.463701e-05 2.340341e-24)
(0.01088728 2.609536e-05 -5.489616e-24)
(0.01119335 -0.0004485537 1.012303e-23)
(0.01151955 -0.0003454503 -3.617195e-24)
(0.01139924 -0.0003760946 4.447433e-24)
(0.009887679 -0.0001243998 0)
(0.009442385 -0.0003103512 -1.673278e-23)
(0.01132803 0.0001790414 -2.040236e-24)
(0.009877713 -0.0004393556 1.34148e-23)
(0.01050907 0.001152666 0)
(0.01089697 0.0006102779 0)
(0.01000103 -0.0005904204 9.965701e-24)
(0.00997238 -0.0005509681 6.178124e-26)
(0.01006995 -0.0002129321 -1.88672e-23)
(0.009863822 -0.0007750592 1.685116e-23)
(0.01018223 -0.0009599227 2.837843e-23)
(0.009550802 -0.0008920283 1.605824e-23)
(0.009559142 -0.0008442748 -4.323526e-23)
(0.009724883 0.001294504 -1.109344e-24)
(0.009175581 0.001113135 9.522307e-24)
(0.01010113 0.001241821 1.975299e-24)
(0.01061624 0.001135829 0)
(0.01059168 0.001161412 0)
(0.01101498 0.0006909103 5.669862e-26)
(0.01107821 0.0007279673 -5.795779e-25)
(0.0102765 0.001297891 -1.976068e-24)
(0.009904854 -0.0009592882 7.402532e-24)
(0.0101678 -0.0005362709 -3.923911e-24)
(0.01009836 -0.0004849054 7.704965e-27)
(0.01007448 -0.000513252 9.216882e-24)
(0.011547 -0.0002705022 8.31274e-25)
(0.01071115 0.001089606 7.197854e-25)
(0.01042975 -0.001462992 0)
(0.01047242 -0.0008392977 6.324073e-26)
(0.01044664 -0.0008064376 2.78196e-24)
(0.009911585 -0.0004431873 0)
(0.01096705 -0.0005453272 0)
(0.01117091 -0.0003060156 0)
(0.01019308 -0.0007304471 1.077169e-23)
(0.01002119 0.001315061 1.341415e-24)
(0.009695171 -0.0009527248 0)
(0.01035567 0.001203583 0)
(0.01051498 0.001184233 2.117228e-24)
(0.01103778 -0.0009440185 -1.393852e-26)
(0.01027916 -0.0003326607 0)
(0.008856929 -0.001541159 -2.8106e-23)
(0.009929069 -0.0009124841 0)
(0.01076036 0.0001971457 -1.78808e-25)
(0.011292 0.0001894792 -1.764113e-24)
(0.01127974 0.0001379598 0)
(0.01150866 7.563091e-06 -5.842321e-25)
(0.01119445 0.0003768533 -2.109697e-25)
(0.0109901 0.0005399375 1.597066e-24)
(0.01103721 0.0005860758 0)
(0.01049303 -0.0005248126 -7.317687e-24)
(0.01136266 0.0004081911 2.941994e-25)
(0.01141823 8.184981e-05 0)
(0.009847361 -0.000484077 -1.655143e-23)
(0.01001969 -0.0007250943 1.239494e-23)
(0.009993133 -0.0004324974 -2.045448e-24)
(0.01120948 -0.001246368 0)
(0.01101875 -0.001484408 -8.805962e-24)
(0.01138906 -0.0002819388 -2.777112e-24)
(0.01140596 -0.0003080376 2.701818e-24)
(0.01084116 -0.0007710747 1.115416e-23)
(0.01091197 -0.0009556939 3.85142e-24)
(0.01007456 -0.0007772949 -1.163114e-23)
(0.007264981 -0.0009454895 0)
(0.01062724 -0.0008822268 -6.271912e-24)
(0.01058796 -0.0009349283 5.840685e-25)
(0.01041933 -0.0007682736 -8.380246e-24)
(0.01059656 -0.0008261113 1.453426e-23)
(0.01085912 0.0005941108 -4.538839e-25)
(0.01043288 -0.0009782064 -6.081972e-24)
(0.01047635 -0.001203668 0)
(0.010303 -0.001434973 0)
(0.01041974 0.001128999 2.578159e-24)
(0.01051742 0.001024156 0)
(0.01020149 0.001310721 0)
(0.01003611 -0.0002875978 -9.470609e-24)
(0.01077091 0.0007371438 0)
(0.01066955 0.0008346236 1.725794e-25)
(0.01091597 -0.001734086 0)
(0.01091724 -0.001728605 7.892775e-24)
(0.01077985 -0.0008973069 -6.07212e-24)
(0.009994141 -0.001154915 -2.001271e-24)
(0.01000618 -0.001788133 8.936776e-24)
(0.01060345 -0.002011358 6.632208e-24)
(0.010074 -0.002163123 -7.542566e-24)
(0.01078239 0.0008052082 4.214159e-25)
(0.009905504 -0.0001738137 0)
(0.009780231 -0.0002570083 1.425569e-23)
(0.007484247 -0.0003498614 -5.661689e-24)
(0.01136265 0.0004691857 7.060781e-25)
(0.01014536 -0.0006263027 -9.283235e-24)
(0.0112329 0.0006404757 0)
(0.0111244 0.0007824183 0)
(0.009564104 -0.001163864 0)
(0.01013913 -0.0004256486 1.526844e-23)
(0.00789535 -0.00150567 0)
(0.01097518 0.0006480973 0)
(0.009827594 -0.002318484 2.543208e-23)
(0.01015598 0.0001205745 -8.247787e-24)
(0.01057926 -0.0008022385 -1.916178e-23)
(0.01087636 -3.974405e-05 -1.187092e-24)
(0.01110801 -0.0009682368 0)
(0.01032913 0.001299493 0)
(0.01058262 0.0004373653 3.660377e-24)
(0.01040094 -0.00121589 0)
(0.010032 -0.0007647375 1.800312e-23)
(0.009967637 -0.0006986845 0)
(0.01125784 -0.0008353442 -1.462137e-24)
(0.009378751 -0.001493798 -1.850678e-24)
(0.01153971 -2.779792e-05 0)
(0.01005386 -0.0002895295 -2.947444e-23)
(0.009955502 -0.0009662028 0)
(0.01045489 -0.001645086 -1.072992e-24)
(0.009793128 -0.001196606 9.193597e-24)