/*--------------------------------*- C++ -*----------------------------------*\
| =========                 |                                                 |
| \\      /  F ield         | OpenFOAM: The Open Source CFD Toolbox           |
|  \\    /   O peration     | Version:  2406                                  |
|   \\  /    A nd           | Website:  www.openfoam.com                      |
|    \\/     M anipulation  |                                                 |
\*---------------------------------------------------------------------------*/
FoamFile
{
    version     2.0;
    format      ascii;
    arch        "LSB;label=32;scalar=64";
    class       volVectorField;
    location    "0.4";
    object      U;
}
// * * * * * * * * * * * * * * * * * * * * * * * * * * * * * * * * * * * * * //

dimensions      [0 1 -1 0 0 0 0];

internalField   nonuniform List<vector> 
4536
(
(0.008658915 -0.001466803 -1.045425e-23)
(0.01011541 0.0007497463 0)
(0.01100797 -0.000870069 -1.153985e-24)
(0.007911544 -0.001592739 -5.207514e-24)
(0.009344964 -4.144222e-05 -2.556845e-23)
(0.009057152 -0.000333528 1.770114e-23)
(0.01010005 0.0006830325 -7.73996e-24)
(0.01018275 0.0006778789 -1.415871e-23)
(0.01140009 0.0003716391 -5.103952e-26)
(0.009749151 0.0007571604 4.328934e-24)
(0.01081659 -0.0008857622 0)
(0.0112954 -0.0005307952 0)
(0.009906833 -0.001363364 -2.380178e-24)
(0.009803057 0.0004593102 0)
(0.01010009 0.0008713791 -1.590981e-23)
(0.01085329 0.0005307349 1.394315e-23)
(0.009891437 0.00126168 9.796003e-24)
(0.01085968 -0.0009985704 0)
(0.009524053 -0.0002128473 -3.223607e-24)
(0.008453128 0.002604853 1.00392e-23)
(0.0101506 0.0004393164 7.750383e-24)
(0.01023377 0.000684275 1.197941e-23)
(0.01144617 -7.518295e-05 -5.183087e-26)
(0.01028904 0.001362146 -5.956966e-24)
(0.01152972 -2.397709e-05 0)
(0.008696888 0.0003565777 0)
(0.0103654 0.0007207454 5.519057e-24)
(0.01011744 0.0005259044 -3.306388e-26)
(0.007771923 -0.001472363 0)
(0.01114164 -4.526644e-05 -6.467662e-24)
(0.01102111 0.001286073 0)
(0.01106698 -0.000665535 -2.522516e-26)
(0.009721219 0.0009298721 3.707116e-23)
(0.01102451 0.0004442399 5.265868e-24)
(0.01062115 0.0003861723 3.295146e-24)
(0.009759619 0.0006342552 0)
(0.01003258 0.0005445814 -5.504534e-24)
(0.009997395 0.0001659258 0)
(0.01011136 0.0005914193 6.368554e-24)
(0.01072901 0.0005468061 3.39902e-24)
(0.01063607 0.001309299 4.101285e-24)
(0.01126216 0.00065852 2.121646e-26)
(0.01006068 0.000560377 0)
(0.008779818 0.001298691 2.019861e-23)
(0.01032551 0.0005075335 5.408521e-24)
(0.00863126 -0.001419166 -6.250941e-24)
(0.01030609 0.001276456 0)
(0.01106064 0.0008950271 0)
(0.0106752 -0.001111413 0)
(0.009664566 0.001082426 -1.725661e-23)
(0.009534656 0.002554743 0)
(0.009226397 0.0008429155 2.175838e-23)
(0.01040945 0.0008226958 8.981783e-24)
(0.01127493 -0.0005548693 -1.445424e-24)
(0.008568379 -9.058955e-05 0)
(0.009796261 0.0004202499 0)
(0.009292303 0.0006261197 3.649526e-23)
(0.01088862 0.001120232 0)
(0.009272513 -0.0006370561 0)
(0.01068883 -0.001092196 1.362296e-24)
(0.008914264 0.002234359 -3.315566e-24)
(0.0106829 0.001406015 5.004823e-24)
(0.01081663 -0.0009928747 0)
(0.009952616 0.001353673 2.360682e-23)
(0.01061712 0.0007057695 1.86948e-23)
(0.01137157 0.0002577816 -4.153826e-24)
(0.01012081 0.0008105317 -6.21956e-24)
(0.01133099 0.0005158665 4.302229e-24)
(0.01009956 7.894559e-05 -4.0489e-24)
(0.01144196 0.0002428917 -1.622898e-25)
(0.0107205 0.001095339 0)
(0.009671601 0.0008218386 3.062942e-23)
(0.01148011 -7.606164e-05 0)
(0.009688691 -0.00137265 0)
(0.01001405 0.0001311371 6.893971e-24)
(0.01146704 -0.0002333939 0)
(0.01141591 0.0009955197 0)
(0.01005679 0.001056269 0)
(0.009211453 -0.001382961 0)
(0.01096878 -0.0003301827 -8.581424e-25)
(0.01082785 0.001235387 0)
(0.007561631 -6.294732e-05 0)
(0.005741587 0.002100208 3.643271e-23)
(0.01005721 -0.001274954 4.847647e-24)
(0.009429617 0.001272242 0)
(0.01067837 0.001179194 -1.288412e-23)
(0.01055299 0.0008537995 0)
(0.01043489 0.0005385931 -1.477857e-23)
(0.01079635 0.0009657506 0)
(0.008747515 0.002665015 1.153399e-23)
(0.01008959 0.0008153718 7.323004e-24)
(0.009487817 0.0003205251 -1.94704e-23)
(0.009612106 0.0006224496 0)
(0.01114051 0.001343443 1.726049e-24)
(0.01031486 0.001006612 1.132444e-23)
(0.009969992 0.0004217995 -8.781458e-24)
(0.01155259 0.0001022988 -1.05912e-24)
(0.01012318 0.0009064808 1.958335e-23)
(0.008795082 -0.001352955 -8.762651e-24)
(0.01106039 -2.378485e-05 1.508785e-24)
(0.007683548 -0.001594299 0)
(0.01125092 -0.0003239387 7.201836e-25)
(0.01096291 0.0004834966 0)
(0.009958069 0.0002370179 1.701363e-24)
(0.009993634 -0.001272858 -9.774741e-24)
(0.01091518 -0.0009568966 0)
(0.01086643 0.0008573362 -7.222478e-24)
(0.01046453 -0.001207819 0)
(0.01062343 0.001653488 0)
(0.01053102 0.002049574 0)
(0.006518816 0.001442039 -3.283111e-23)
(0.009919475 0.001228296 -6.773131e-24)
(0.0102525 0.000615859 1.533355e-23)
(0.009561653 0.000739134 0)
(0.01003326 0.00069222 2.51033e-24)
(0.01147148 -0.0001289786 3.213814e-25)
(0.008970026 -0.001541937 4.829966e-24)
(0.01036372 0.0006581694 9.402805e-24)
(0.009908061 0.0006251005 0)
(0.01118842 0.0004129022 7.696014e-26)
(0.01143435 2.762219e-05 4.354743e-25)
(0.01098522 0.0002962698 -6.530192e-24)
(0.0112702 -0.0004367421 1.272782e-24)
(0.01036536 0.0007169528 0)
(0.01058445 0.001820421 7.286632e-25)
(0.00776542 0.002687814 -1.817961e-23)
(0.009892342 0.0003890147 -1.220373e-23)
(0.01066795 0.0005976603 -7.793765e-24)
(0.01139065 0.001077452 3.90211e-24)
(0.009690329 0.000469352 0)
(0.008905233 -0.001533477 0)
(0.01138569 -0.0004165665 -4.223e-25)
(0.008927264 0.0007442361 0)
(0.01028708 0.0005863332 1.527875e-23)
(0.008436982 0.0007604489 6.67425e-25)
(0.01018329 0.0005179184 9.727353e-25)
(0.009654934 -0.001415232 0)
(0.01154841 0.0004191603 9.679645e-25)
(0.01011166 0.0005131908 0)
(0.01096117 0.0005616329 -4.066885e-24)
(0.00997454 0.0002245807 0)
(0.01093819 -0.0001741936 0)
(0.01117181 0.0005838161 0)
(0.009752963 0.0007235533 -1.454399e-23)
(0.01021873 0.0005226444 1.024839e-25)
(0.01072415 -0.00106141 -1.090605e-24)
(0.01097726 0.001595574 -1.020884e-24)
(0.009911031 0.002266552 2.631668e-24)
(0.01013363 0.0008876973 -1.213991e-23)
(0.008621757 5.695299e-05 -3.015666e-23)
(0.01026953 0.0007500104 0)
(0.01002037 0.0005285975 1.856539e-23)
(0.01119909 -0.0002052698 -2.389144e-25)
(0.01073368 0.0004965131 0)
(0.009317996 0.0001218293 2.974936e-23)
(0.009318247 0.0006971252 5.740583e-24)
(0.009495178 8.537604e-05 1.544038e-23)
(0.01116513 0.001429897 1.0294e-23)
(0.009971486 0.001038146 -1.666017e-24)
(0.01138885 -0.0003971835 9.441741e-26)
(0.01153069 0.0006151382 0)
(0.01000096 0.0002053791 4.867244e-25)
(0.01145819 -0.0001586907 0)
(0.009836182 0.0005141296 -3.011813e-23)
(0.006747382 0.002871667 2.74365e-23)
(0.01002167 0.0003339891 -2.310018e-23)
(0.01131529 0.0004080011 -2.971961e-24)
(0.01041825 0.0006263768 0)
(0.01117461 -0.0005737063 -1.470016e-25)
(0.008566173 0.00246346 -3.103485e-23)
(0.009540389 3.323609e-07 -3.018567e-23)
(0.009975303 0.0005248599 0)
(0.01064462 0.0003240275 -1.01311e-23)
(0.005635785 0.001810448 4.604092e-23)
(0.01065866 0.001072822 -2.740312e-25)
(0.009393728 -6.872765e-05 -8.08461e-24)
(0.01154536 0.0005882106 -1.847083e-24)
(0.01021254 0.0006327012 -1.734125e-24)
(0.01003284 0.001847726 0)
(0.01067645 0.0007105986 0)
(0.01093753 0.0007332202 -2.86767e-24)
(0.0101205 0.0004916417 -4.832093e-24)
(0.007221044 0.0005321738 0)
(0.009802412 0.0001058282 1.258593e-23)
(0.009132229 -0.000242109 -1.497313e-23)
(0.007875625 0.0005219786 -2.62568e-23)
(0.01125354 -0.0004530306 -1.513027e-26)
(0.01068331 0.001038207 -1.393696e-23)
(0.01152169 0.0006172301 -2.238665e-24)
(0.01056436 0.0008764281 0)
(0.01138431 -0.0004088146 3.682224e-25)
(0.007885848 -0.0015109 -4.279946e-24)
(0.01152996 -2.141637e-05 0)
(0.009723195 -0.00141813 6.932174e-25)
(0.0111274 -0.0006039454 -4.372842e-25)
(0.008395058 0.001424707 -2.313218e-23)
(0.00856398 0.001980818 0)
(0.009172547 0.001734697 1.840653e-23)
(0.009140848 0.001497498 0)
(0.009898557 0.0006787799 -5.642785e-24)
(0.01051561 0.001878534 -3.560782e-24)
(0.01063379 0.001382716 -3.93828e-24)
(0.0101538 0.0006079272 6.337994e-24)
(0.01019344 0.0007147508 0)
(0.010008 0.0001553919 0)
(0.01032061 0.001520959 0)
(0.01073322 0.001304044 1.178892e-23)
(0.01016548 -0.001275433 -6.995863e-24)
(0.01019806 0.001024434 0)
(0.008058322 0.002859949 -7.671102e-24)
(0.009931234 -0.001394866 4.95494e-24)
(0.01030211 0.0002552631 0)
(0.01122401 0.001331422 -6.762154e-24)
(0.008625174 0.0007601685 0)
(0.01078731 0.0006700098 0)
(0.01014105 0.0005116433 -1.879998e-23)
(0.01090769 -0.0009202692 1.392976e-24)
(0.01118138 0.0001977814 -3.5721e-24)
(0.009903845 0.0005982946 0)
(0.009757079 0.001018943 5.093062e-24)
(0.01129962 0.001251694 -4.644116e-24)
(0.0106075 0.0007661234 -6.959792e-24)
(0.0113191 0.0008318356 1.059852e-26)
(0.01136267 -0.0002236732 -2.150638e-24)
(0.01149737 -0.0001402366 2.865857e-26)
(0.01068675 0.000876625 1.095451e-23)
(0.01054168 0.001119771 1.807814e-23)
(0.009296393 -0.001508714 -9.22254e-24)
(0.01032481 0.001428407 4.479054e-24)
(0.0105925 -0.001142447 0)
(0.01091029 0.001011467 -5.380061e-24)
(0.01080906 -0.001005364 0)
(0.01124692 0.0002100482 0)
(0.009305129 0.001274678 1.853503e-23)
(0.01124083 0.001218824 2.318879e-24)
(0.009097424 0.001081038 0)
(0.006758994 2.86151e-05 -4.277068e-23)
(0.009758863 0.0008564802 -8.711643e-24)
(0.010278 0.000698995 -4.728142e-24)
(0.01127766 0.0009098174 4.209111e-24)
(0.01129134 -0.0005713833 5.299007e-25)
(0.009406048 0.0005339408 -1.973974e-23)
(0.01096852 0.0004073918 5.989954e-24)
(0.01081356 0.0008562203 -1.198413e-23)
(0.009312415 -4.596409e-05 5.229465e-25)
(0.0109151 -2.110359e-05 1.087071e-24)
(0.01123721 -6.85466e-05 -2.2281e-24)
(0.01024952 0.0001735245 1.443353e-24)
(0.01010023 0.000615422 -1.153918e-23)
(0.01096851 0.0002011995 7.604644e-25)
(0.01130691 0.0004396844 -7.375557e-25)
(0.009577912 0.0004512052 -2.833316e-23)
(0.007669598 0.0007356796 -3.241869e-23)
(0.007141881 0.001974822 0)
(0.009432912 0.0005637253 -1.615957e-23)
(0.01045336 0.002115161 -9.928743e-24)
(0.01151642 0.0001903256 -2.399413e-24)
(0.01051226 0.001916428 0)
(0.01123321 -0.0004179152 -1.031224e-24)
(0.0113447 -0.0003915161 -6.766009e-25)
(0.01008523 0.000534568 -2.21892e-23)
(0.01029421 0.0008780945 1.890209e-23)
(0.009543705 0.0003913656 6.337797e-25)
(0.008351941 -0.001501716 6.563701e-24)
(0.006286668 0.001552127 -3.656365e-23)
(0.01144844 -4.459103e-05 2.407792e-24)
(0.0108317 0.0001154718 -6.037681e-24)
(0.01121444 0.001044089 8.070771e-24)
(0.009111293 0.0007364901 -1.403761e-25)
(0.009739011 0.001078765 -1.205164e-25)
(0.01099468 -0.0008646939 1.804714e-24)
(0.01104346 0.0005430809 -6.369298e-24)
(0.008391531 -0.001582385 3.773453e-24)
(0.009533929 0.0009975144 -8.789204e-24)
(0.01019695 0.0006056379 -3.855672e-24)
(0.01091549 3.231934e-05 -7.44061e-25)
(0.01126381 0.001311955 -1.111221e-24)
(0.01112777 0.0002351231 5.934467e-24)
(0.009686506 0.0002676484 2.561494e-23)
(0.008986384 2.598835e-05 -2.116228e-23)
(0.01087389 0.001570272 8.295687e-24)
(0.009916925 0.00170213 2.437556e-24)
(0.008276861 0.001097015 1.765582e-23)
(0.01002556 0.0004363059 1.679201e-23)
(0.009351911 -0.001479938 0)
(0.011253 0.001327447 4.922382e-24)
(0.01106864 0.001137677 -7.400654e-24)
(0.008192337 0.00166543 3.03176e-24)
(0.009931303 0.0004026016 6.469988e-24)
(0.01126673 -0.0003922079 -1.430509e-24)
(0.01131029 -0.0004778105 0)
(0.01133191 0.0003477832 8.295497e-25)
(0.0107526 0.001664882 -6.516635e-24)
(0.01018545 0.001078038 3.073051e-23)
(0.01024552 0.001477347 0)
(0.01036141 0.001219179 1.575133e-23)
(0.01137978 0.0002327615 -6.25545e-24)
(0.01119323 0.0005889129 6.361598e-24)
(0.01011513 0.001217518 1.176618e-23)
(0.01012756 0.0005268827 -5.411749e-24)
(0.01124057 0.000421684 3.097612e-25)
(0.01132224 0.0002753081 0)
(0.01131745 0.0009505234 4.284508e-24)
(0.01098466 -0.0008331991 7.377465e-25)
(0.008462925 -0.001455394 6.079605e-24)
(0.008346064 -0.001531626 -9.022894e-25)
(0.008017993 -0.001587795 2.254618e-24)
(0.01110658 -0.0002732041 1.666147e-24)
(0.0114292 0.0008790109 0)
(0.009634388 0.0008778157 1.532175e-23)
(0.0104561 0.0007760619 0)
(0.008571648 0.0004448056 2.112491e-23)
(0.008921964 -0.0001078352 -5.252769e-23)
(0.010794 0.0007149476 2.173097e-23)
(0.009966824 0.000582857 8.773922e-25)
(0.01034109 0.0007571664 -1.753737e-23)
(0.01003161 0.001337805 7.600587e-24)
(0.009764589 0.0001715705 -1.009367e-23)
(0.01031232 0.0009797077 8.850393e-24)
(0.01034504 0.0008844423 1.082303e-23)
(0.010117 0.0003609654 0)
(0.01031088 0.0008928341 8.862617e-24)
(0.01029269 0.0007510662 9.202259e-24)
(0.01039357 0.000751762 -1.220185e-23)
(0.009501872 0.0009150896 0)
(0.008533499 0.0007147245 -6.413556e-25)
(0.01112194 0.001017077 1.980248e-24)
(0.01016049 0.000773479 1.526507e-23)
(0.01010263 0.0005137591 -1.738219e-23)
(0.0112271 0.0008244707 3.218361e-24)
(0.01144669 8.723876e-05 0)
(0.01124336 0.0007373998 -8.250404e-24)
(0.01129421 -0.0004378457 0)
(0.01154013 9.163988e-05 -1.136645e-24)
(0.00825092 -0.001562924 4.603693e-24)
(0.01131871 -1.760314e-05 -2.188968e-24)
(0.01018177 0.001830894 -7.449204e-24)
(0.009584244 0.001490228 1.44977e-23)
(0.009970717 0.001778065 2.958959e-23)
(0.009868137 0.001496857 2.190598e-23)
(0.01146409 0.0004180383 0)
(0.009011399 0.001603634 1.577997e-23)
(0.01128383 0.001002128 -4.462827e-24)
(0.01016442 -0.0004262176 0)
(0.01087388 0.001427469 0)
(0.008342449 0.0009292379 -1.824402e-23)
(0.01019886 0.0006369104 0)
(0.0109631 0.0006249387 1.701983e-23)
(0.01014539 0.001093919 4.2125e-24)
(0.01024538 0.00210668 7.552822e-24)
(0.009433689 0.0003835373 4.151326e-23)
(0.01063966 0.0005270715 0)
(0.01150846 -6.967643e-05 3.877038e-27)
(0.01041672 0.00046585 9.406876e-24)
(0.009926196 0.0001260077 3.359182e-23)
(0.009654204 0.0005102233 5.313776e-24)
(0.009531798 0.000571391 -2.029232e-23)
(0.008415057 0.001925559 -2.348546e-23)
(0.01042072 0.0008403981 0)
(0.008036236 -0.0002145892 -2.005155e-23)
(0.01126785 -0.0003612519 -2.018615e-24)
(0.01020731 0.0004951636 1.928946e-23)
(0.0076951 0.0004560845 -2.261565e-23)
(0.009635813 0.001946294 3.885831e-24)
(0.01025648 0.0005730674 -2.968509e-23)
(0.006210487 0.002760064 1.76466e-23)
(0.0111817 0.001035509 -9.107337e-24)
(0.009245586 -0.001219434 -1.090232e-24)
(0.01095065 -3.390842e-05 -4.944796e-24)
(0.01098225 -0.000137591 -1.974956e-24)
(0.008988293 0.0001184027 -2.244601e-24)
(0.01003364 0.0007156487 -2.480703e-23)
(0.01146499 0.000888234 0)
(0.009411294 0.002409 0)
(0.01020312 0.0004537635 -1.228426e-23)
(0.01048709 -0.001097242 0)
(0.009724328 0.00201081 -2.336285e-24)
(0.009246816 0.0009403585 -1.753913e-23)
(0.01134715 0.0002272633 -8.407206e-24)
(0.01112111 0.0005110597 3.131115e-24)
(0.009591748 0.0008722917 3.618896e-23)
(0.009950868 0.0008741646 0)
(0.01013328 0.001373997 -1.382838e-23)
(0.01028709 0.0008179707 1.718964e-23)
(0.01122228 0.0006247853 2.723744e-24)
(0.01129586 0.001023328 1.061735e-24)
(0.01154258 0.0005375343 0)
(0.009551408 0.0001558958 3.911648e-23)
(0.007697339 0.002323011 -4.236482e-23)
(0.006630377 0.001087998 -3.593235e-23)
(0.009631648 0.0004676248 0)
(0.01124217 0.0001045903 3.780568e-25)
(0.01144577 -9.1081e-05 3.997361e-25)
(0.009951487 0.0006958868 -8.268994e-24)
(0.01149413 0.0005512494 3.152789e-24)
(0.01134987 -0.0004181946 -4.638438e-25)
(0.009295162 0.0003739714 4.297437e-24)
(0.009812831 0.002357161 0)
(0.009939959 0.002401495 2.268152e-24)
(0.01014147 0.0003636232 -4.019262e-24)
(0.009283894 7.916175e-05 -1.878841e-24)
(0.007862918 -0.001597964 4.721451e-24)
(0.009396632 0.0003306278 -6.93567e-24)
(0.009101783 0.0001355227 -1.424788e-23)
(0.01044071 0.0007063369 0)
(0.009594056 0.0002200645 1.370247e-23)
(0.009506289 0.0001964402 -1.459389e-23)
(0.0113108 -0.0003105431 2.85108e-24)
(0.01132392 -0.0002123616 -7.574367e-25)
(0.0101263 0.0002895038 2.381627e-23)
(0.01113962 -0.0007576964 1.875163e-24)
(0.01000013 0.0005085038 1.557132e-23)
(0.009117299 0.0003468689 -1.713588e-23)
(0.009178126 -6.23882e-05 -4.168164e-23)
(0.01092211 -0.0005392728 -3.282834e-24)
(0.01110849 -0.0003139928 -2.265077e-24)
(0.01112178 0.001437595 6.915878e-24)
(0.01067469 0.001903536 5.367567e-24)
(0.01096732 0.0007732298 8.596819e-24)
(0.009699298 -0.001452576 3.881774e-24)
(0.01063452 -0.00105111 0)
(0.0103127 0.001736389 0)
(0.009944234 0.0003232701 -1.104621e-23)
(0.01143074 0.0004877913 3.993118e-24)
(0.01016172 0.001275765 -7.028093e-24)
(0.01037556 0.001256847 -6.640396e-24)
(0.01084137 0.001192474 -7.331947e-24)
(0.0108962 0.001481145 0)
(0.01048814 0.001155846 -6.034533e-24)
(0.01051009 0.001342753 -5.90835e-24)
(0.009676448 0.000376595 2.913027e-23)
(0.01083071 0.001770721 6.850294e-24)
(0.01113872 -9.419191e-07 2.642421e-25)
(0.01067788 -0.001113029 0)
(0.01152084 3.151947e-05 -3.718727e-26)
(0.01117968 -0.0001488302 1.64908e-24)
(0.009983718 0.0006805658 -1.368974e-23)
(0.008523908 0.000283122 3.375332e-23)
(0.01039339 -0.001250378 -2.351055e-24)
(0.009874135 0.0006156289 -2.537764e-23)
(0.0098854 0.0007320755 1.37471e-23)
(0.008450372 0.0005597732 -1.422884e-25)
(0.009860015 -0.0007841289 -1.458702e-23)
(0.01038607 0.0005880322 0)
(0.01028919 0.001610872 -1.468588e-23)
(0.008962034 0.001285289 -1.598476e-23)
(0.008735515 -0.001331678 4.664806e-24)
(0.01065036 8.515601e-05 2.802741e-24)
(0.0110811 -0.0007881491 4.208666e-24)
(0.009697451 0.0001317917 3.320885e-23)
(0.01010989 0.001776265 1.511281e-23)
(0.007246228 0.002828527 0)
(0.01017945 0.0004705189 1.115105e-23)
(0.008229807 -0.001445751 -5.701464e-24)
(0.009837353 0.0009234506 1.479156e-25)
(0.009214346 0.001897216 2.930085e-23)
(0.008821423 -0.0002162719 4.599688e-23)
(0.01003134 0.00049383 0)
(0.009818508 4.093077e-05 -2.570281e-23)
(0.009921107 0.0002310731 -1.761257e-23)
(0.01120544 -4.864993e-05 -3.588387e-24)
(0.01103349 0.001018128 0)
(0.01106035 0.001035891 -4.001115e-24)
(0.009906719 0.001012038 0)
(0.01013964 0.0004918687 0)
(0.008529053 0.002796385 0)
(0.009853373 0.0004634133 0)
(0.009909573 0.001387201 1.413337e-23)
(0.009387634 -0.0002632324 -1.865274e-23)
(0.009525111 0.0004259498 0)
(0.01009401 0.001110752 1.177549e-23)
(0.009339454 0.0006004718 0)
(0.007782171 0.002872948 1.258444e-23)
(0.01130973 -0.0004511274 0)
(0.01082003 0.001123381 -6.937416e-24)
(0.009796254 0.0005294403 0)
(0.007955658 -9.505889e-05 2.343866e-23)
(0.009800626 0.0006597602 -1.517143e-23)
(0.01146449 0.0003145208 0)
(0.01119241 0.0001812981 -2.274526e-24)
(0.008975004 0.0004905835 -2.397056e-23)
(0.009985081 0.0002550177 0)
(0.01065491 -0.0007231092 4.313038e-25)
(0.0104167 -0.001168537 0)
(0.01089397 0.0005268931 -8.506771e-24)
(0.01069483 0.000664079 -2.884698e-24)
(0.008653344 -0.0001690068 0)
(0.01123265 -0.0005663756 3.206635e-26)
(0.01111064 0.001024974 -3.008766e-26)
(0.01001642 0.000558566 -2.520708e-23)
(0.009989104 -0.001384087 0)
(0.01064909 0.0008125394 0)
(0.009948529 9.138551e-05 2.42539e-23)
(0.009229559 0.0005190832 0)
(0.01013674 0.002303486 -4.557397e-25)
(0.01038611 0.0007288699 -6.085845e-24)
(0.01131797 -0.0002814421 -2.785698e-24)
(0.01047298 0.000416242 0)
(0.009440888 -0.00015262 -1.789839e-23)
(0.01130009 0.001201553 -9.37371e-24)
(0.01023223 0.000697829 -8.101453e-24)
(0.01045562 -0.0003478585 0)
(0.0098539 0.001050563 -5.689359e-24)
(0.01017139 0.0006822777 0)
(0.01001534 0.001755346 0)
(0.01105934 0.0009271257 0)
(0.007968478 0.001007677 2.130214e-23)
(0.01011319 -0.0008321152 -1.978401e-23)
(0.01023435 0.0005352327 0)
(0.01123297 9.283581e-06 -2.214483e-24)
(0.01133769 -0.0003126688 1.323206e-24)
(0.01046643 0.001687392 7.168345e-24)
(0.0111479 0.0006072357 -7.589056e-24)
(0.01021659 0.0003575802 0)
(0.01086464 0.001254055 -9.156698e-24)
(0.009478133 -1.785985e-05 1.752496e-23)
(0.009444669 0.0001330453 -1.131714e-23)
(0.009604059 0.0002894684 -1.548803e-23)
(0.01008434 0.0004729893 -7.358247e-24)
(0.008754195 -0.0001153951 3.314413e-23)
(0.007938102 0.0001366816 1.231846e-23)
(0.0102471 0.0002109088 7.086875e-24)
(0.01150195 -0.0001372603 0)
(0.01087805 0.001618172 0)
(0.011318 -0.0001066471 -4.714549e-24)
(0.01121584 -0.0004418935 7.907971e-25)
(0.01144178 0.0009295792 2.677319e-24)
(0.01003845 0.0008233372 -2.143041e-23)
(0.008937102 0.0002744275 -1.417078e-23)
(0.01140418 0.0006041328 0)
(0.01115079 0.0004772827 -1.269223e-24)
(0.01007178 0.0005800299 0)
(0.009613385 0.001993398 -8.111982e-24)
(0.008980891 0.00217649 -8.245918e-25)
(0.01015257 0.00229754 -1.696362e-23)
(0.009599961 0.002512163 -9.294107e-25)
(0.008791069 0.00164936 3.811883e-29)
(0.01015606 0.0009340248 7.905586e-24)
(0.009169599 0.002375587 5.715314e-24)
(0.009572033 0.001668077 7.748128e-24)
(0.01135815 0.0005388749 3.192986e-24)
(0.01067554 0.0009194317 0)
(0.01018036 0.0009063764 1.85729e-23)
(0.0111738 0.0008596938 0)
(0.01030971 0.0009189249 0)
(0.009990153 0.001634966 0)
(0.01010702 0.0003318999 0)
(0.01154263 0.0001770732 -1.145597e-24)
(0.01134325 0.0007276512 2.024994e-24)
(0.01002304 0.0007201871 0)
(0.01001911 0.002008907 8.301702e-24)
(0.01094098 0.001287269 4.286814e-24)
(0.01031556 0.0006530574 5.653984e-24)
(0.01127408 -0.000543282 1.032472e-25)
(0.01142735 -0.0003250737 -2.421535e-25)
(0.01073502 -0.0007846826 -3.412652e-24)
(0.01020401 0.0004142388 0)
(0.01113784 -0.000707042 1.228046e-25)
(0.008164693 0.0002946278 5.055328e-23)
(0.009226855 0.00025311 -4.499876e-23)
(0.009150107 0.0001701578 5.885139e-23)
(0.008858378 0.0006991588 1.92632e-23)
(0.008935253 0.000326321 0)
(0.01058565 0.0007409214 0)
(0.009676912 0.0005067918 0)
(0.01063387 0.0009932666 0)
(0.009820404 0.0001866811 0)
(0.01122735 -0.0006194897 0)
(0.01014424 0.0007119348 2.147865e-23)
(0.009678575 -0.001444155 2.308004e-24)
(0.01010654 0.0005407392 0)
(0.01011434 0.0006321337 6.399772e-24)
(0.009960036 0.002066411 0)
(0.009845961 0.001109879 1.006643e-23)
(0.009827054 0.001300001 -3.446677e-23)
(0.009485843 0.001152777 0)
(0.01121294 0.001370561 -3.041544e-24)
(0.008365983 -0.001222525 6.251298e-24)
(0.01044877 0.001060203 8.497261e-24)
(0.01020854 0.0005315406 -8.914754e-24)
(0.008077546 -0.00134512 3.553951e-24)
(0.008798607 0.0008222057 0)
(0.0111043 0.0006020702 0)
(0.01056627 -0.001133819 0)
(0.01001116 0.0002534751 1.778357e-23)
(0.01008422 0.0002720639 4.429826e-25)
(0.009926909 0.0008828639 0)
(0.009676733 0.0011734 0)
(0.01017163 0.0005617366 1.090692e-23)
(0.01086291 0.0007571539 7.976648e-26)
(0.01019769 0.0008271873 0)
(0.01136884 0.001130163 -4.362474e-24)
(0.01140936 0.0001223859 -5.257179e-24)
(0.0103431 0.0005849004 -9.603607e-24)
(0.009422612 -0.0003179932 0)
(0.007260725 0.002227633 0)
(0.006872726 0.002335723 -2.527021e-23)
(0.01058363 0.001115807 -2.258801e-23)
(0.008828798 -0.001490625 4.11901e-24)
(0.01037528 0.001651935 -1.069198e-23)
(0.009952006 0.001909279 -6.808651e-24)
(0.01042748 0.001962859 -1.009143e-23)
(0.009293423 0.002093095 -6.709229e-24)
(0.01126775 -0.0001779149 -1.307182e-24)
(0.01047245 0.0008804334 4.803795e-24)
(0.01090664 0.0009493687 2.215737e-24)
(0.009456249 0.0009183 -7.593639e-24)
(0.009621405 0.001237026 -1.952654e-23)
(0.01109272 0.001283944 0)
(0.009205156 0.001159649 1.565214e-23)
(0.009360776 0.0008954041 -3.194023e-23)
(0.01008698 0.0006691899 1.279368e-23)
(0.01006027 0.0005989925 -6.844283e-24)
(0.01042868 -0.0007694108 0)
(0.01148276 -0.0001503083 0)
(0.007270891 0.001346769 5.808517e-23)
(0.01058082 0.0005236025 0)
(0.009610908 -0.0003151979 0)
(0.01118597 0.0002273965 -2.211237e-24)
(0.01062627 0.0008202562 0)
(0.01042832 3.221422e-05 -9.779561e-24)
(0.01096393 -0.0009199924 1.940203e-24)
(0.01064404 0.001812291 1.853342e-23)
(0.01155078 0.0001415597 -2.359158e-24)
(0.0110308 0.000297838 8.615702e-24)
(0.01077267 0.0002555718 0)
(0.01028496 0.001100093 1.154861e-25)
(0.009725994 0.0003244889 -1.983315e-23)
(0.007653808 0.0008554906 0)
(0.008477925 0.001076093 2.308621e-23)
(0.01044446 0.0007500058 -5.307145e-24)
(0.01009758 0.0004196908 1.24549e-23)
(0.01012721 0.000455226 -1.859744e-23)
(0.0113723 -0.0004131978 -1.091834e-25)
(0.01009385 0.0005544533 -1.033299e-23)
(0.01012336 0.0006066361 0)
(0.01062073 -0.000693458 4.204031e-24)
(0.01120327 0.0005338743 0)
(0.009629994 0.0004016709 -3.188658e-24)
(0.009957953 0.001479899 -1.727158e-23)
(0.01117263 -0.0006720618 0)
(0.01103926 7.799178e-05 0)
(0.01036548 -0.001233553 0)
(0.007966923 0.0002321061 -2.456508e-23)
(0.01128092 0.001250971 9.565526e-24)
(0.008553932 0.0002044142 -3.04473e-23)
(0.01055702 0.0005819234 -2.103808e-25)
(0.01078386 0.0008312448 -4.977632e-24)
(0.01047043 -0.001214027 1.267887e-24)
(0.01115949 0.0009317891 3.04495e-26)
(0.01152761 0.0001063743 -2.378086e-24)
(0.009841803 0.0001501846 0)
(0.01013321 0.0009755112 -8.336243e-24)
(0.008379735 -0.001466189 8.872172e-26)
(0.008168514 -0.00151929 8.712073e-25)
(0.008656738 -0.001490871 -3.394587e-24)
(0.01074291 0.000643931 -9.212376e-24)
(0.0109317 0.001489588 -7.080862e-24)
(0.0104396 0.001090122 1.119921e-23)
(0.01043375 0.002021281 -1.221913e-23)
(0.01038495 0.001947293 -4.01323e-24)
(0.009259229 -0.001480351 0)
(0.008907396 -0.001550912 0)
(0.009861972 0.0006929385 -1.725926e-23)
(0.01137655 0.0008815111 0)
(0.01112273 0.001212031 0)
(0.009269044 -0.001516242 2.342398e-24)
(0.01137559 -0.0003036239 -3.945431e-25)
(0.01098481 0.0005931509 -1.419098e-23)
(0.009486863 -0.0002056173 0)
(0.01113633 -0.0006868414 2.794607e-25)
(0.01006672 0.0004029974 1.104148e-23)
(0.01151323 0.0007194111 0)
(0.01152519 0.0006757172 1.996529e-24)
(0.01134191 0.0008517857 2.24036e-24)
(0.008078892 -0.001586884 -2.654508e-24)
(0.01128822 -0.0003961732 -8.083941e-25)
(0.01119926 -0.0006909258 1.307041e-24)
(0.009673733 0.001701644 -1.300344e-24)
(0.01105566 -0.0001227933 -3.178445e-24)
(0.008160274 0.002664534 5.799119e-24)
(0.0100251 0.0002657357 4.305516e-24)
(0.01000022 3.041435e-05 2.038805e-23)
(0.009962739 0.0006501837 -2.360325e-23)
(0.01113357 -0.000329175 1.639187e-24)
(0.0104202 0.001864781 8.282372e-25)
(0.008623993 0.002795038 -2.018714e-23)
(0.01135821 0.0001741689 -6.303825e-24)
(0.01133906 0.0001626274 7.484225e-24)
(0.01149828 0.000346741 0)
(0.01123295 -0.0004548772 -1.251816e-24)
(0.01124064 0.001338655 -3.276314e-24)
(0.01052884 0.002065791 -1.679426e-23)
(0.01143026 0.0009906249 8.249315e-25)
(0.01144553 0.0009263975 0)
(0.01106346 0.0007115055 0)
(0.01065099 0.001221029 0)
(0.01002247 0.0007379941 -1.738327e-23)
(0.01049165 0.001022828 -8.29475e-24)
(0.01047173 0.0009335853 0)
(0.01090315 -0.0009402895 0)
(0.0112496 0.001001734 -5.256571e-24)
(0.008453789 0.002313621 0)
(0.009410107 -0.0001860013 4.628058e-23)
(0.009683754 0.0005700784 -4.202976e-24)
(0.009186824 0.0005484006 0)
(0.01137298 0.001009279 0)
(0.008836681 -0.001547709 -1.100491e-23)
(0.008084863 0.001925704 0)
(0.008057025 0.002790983 -1.377196e-23)
(0.01039272 0.001697593 1.062304e-23)
(0.01102045 -0.0002516709 -1.322583e-24)
(0.01087968 0.001166694 1.616321e-23)
(0.009259101 -0.0003048828 7.489423e-24)
(0.009252208 -2.877562e-05 -2.374168e-23)
(0.01138379 0.0004030583 -2.572366e-24)
(0.01137849 -0.0004279518 1.313333e-25)
(0.01118507 -0.0006693553 4.494199e-25)
(0.008673544 -0.00122873 6.153087e-24)
(0.009337223 0.0002119511 0)
(0.009897463 0.000791655 0)
(0.01020158 0.0008027103 0)
(0.01002363 0.0007812333 -8.620944e-24)
(0.009712679 0.0002828456 0)
(0.009437828 -0.001050651 7.228684e-24)
(0.01109339 0.0006146439 -2.391202e-24)
(0.0101397 0.0005760424 -1.437244e-23)
(0.01125587 0.000537918 0)
(0.0110956 0.0004935473 -9.268224e-24)
(0.009093837 -0.001532377 0)
(0.01047362 0.0001852531 -1.190306e-23)
(0.01005521 0.002333924 0)
(0.01033401 -0.001272373 5.167585e-24)
(0.0111286 0.0005893272 0)
(0.01109214 -0.0001851442 -4.099419e-25)
(0.01059965 -0.001150604 -1.181337e-24)
(0.0110573 0.0003447204 5.501359e-24)
(0.00781438 -0.0001118815 0)
(0.01126911 0.0006940798 1.215852e-23)
(0.008999434 0.0006416617 -1.653589e-23)
(0.01086126 -2.700777e-06 -3.59709e-24)
(0.007940643 0.001346348 7.571028e-24)
(0.01135012 0.0005462671 0)
(0.0114442 8.163427e-05 -1.235522e-24)
(0.008624993 -0.0009901947 5.305793e-24)
(0.0103767 0.0009782821 1.216594e-23)
(0.01100113 0.0009242011 0)
(0.009428152 0.0008294592 -2.93449e-23)
(0.01060297 -0.0005361212 9.237238e-24)
(0.01133584 -0.0002548437 1.372577e-24)
(0.01142754 -0.000111418 -1.220597e-24)
(0.009727429 0.000366311 -1.943563e-23)
(0.009815555 0.0008938106 5.871641e-25)
(0.01043566 0.0006160606 0)
(0.01151273 0.000563958 7.317195e-25)
(0.01020233 0.0005765554 -5.917843e-24)
(0.01073304 0.0008560638 -2.629469e-24)
(0.010589 0.0008783686 -1.218922e-23)
(0.01087569 0.0009789314 0)
(0.009687152 0.000177871 -1.886065e-24)
(0.009520812 -6.46005e-05 0)
(0.01078734 0.001440084 1.58376e-24)
(0.009843422 0.0007486371 -1.187487e-23)
(0.01094369 0.0007630199 -1.18575e-23)
(0.01058245 -0.001153229 2.002959e-24)
(0.01120091 -0.0006362764 -1.279925e-25)
(0.009944363 0.0005589909 2.547519e-24)
(0.009902059 0.0001907585 2.961661e-23)
(0.009729681 0.0001184897 -1.496801e-23)
(0.01082336 0.001011648 0)
(0.01027492 -0.001304564 2.229432e-24)
(0.008674899 6.397417e-07 8.48236e-24)
(0.01120831 0.0004681582 7.256299e-24)
(0.009251343 0.0007801937 1.273173e-23)
(0.01005281 0.0001109578 8.35191e-24)
(0.009692388 0.0006977941 1.082122e-23)
(0.009050955 0.001024534 -1.105826e-23)
(0.009846431 0.0008663926 -4.46573e-24)
(0.007911223 -0.001385773 -5.679276e-24)
(0.008690189 0.002263287 -7.624647e-24)
(0.01000107 4.247621e-05 -1.31419e-23)
(0.009872765 0.0009659684 -3.76854e-24)
(0.01098836 0.001394453 2.205509e-24)
(0.0109533 -0.0008974761 0)
(0.009941316 0.0001976315 -1.457908e-23)
(0.01072891 0.001372114 5.31258e-24)
(0.01154474 5.965717e-05 7.355388e-25)
(0.008164188 0.002776302 5.203041e-23)
(0.01058539 0.0008359143 -1.457598e-23)
(0.005735799 0.0007540617 -4.224274e-24)
(0.009580073 0.0003818765 -1.655668e-23)
(0.009991434 0.0001935382 1.832981e-23)
(0.009610596 0.001526521 0)
(0.009256277 0.001399226 -8.671979e-24)
(0.008943908 0.001533524 -1.983882e-23)
(0.008827407 0.001382835 -2.019771e-23)