/*--------------------------------*- C++ -*----------------------------------*\
| =========                 |                                                 |
| \\      /  F ield         | OpenFOAM: The Open Source CFD Toolbox           |
|  \\    /   O peration     | Version:  2406                                  |
|   \\  /    A nd           | Website:  www.openfoam.com                      |
|    \\/     M anipulation  |                                                 |
\*---------------------------------------------------------------------------*/
FoamFile
{
    version     2.0;
    format      ascii;
    arch        "LSB;label=32;scalar=64";
    class       surfaceScalarField;
    location    "1.52";
    object      phi;
}
// * * * * * * * * * * * * * * * * * * * * * * * * * * * * * * * * * * * * * //

dimensions      [0 3 -1 0 0 0 0];

oriented        oriented;

internalField   nonuniform List<scalar> 
23794
(
-0.0002477915
0.001300851
-0.001053059
0.00101594
-0.001263732
0.001897617
-0.0008816765
0.001255755
0.000641862
2.382964e-05
0.001231925
0.0005690511
-0.0005452215
0.002277329
-0.001708278
0.001920809
0.0003565205
-0.001313568
0.003234376
-0.00320584
0.001892272
-0.002386731
-0.000819109
-0.001243821
-0.00114291
-0.0002459624
-0.0009978586
0.0004710229
-0.0007169853
0.0004498526
2.11703e-05
0.000345783
0.0001040696
0.0007277467
-0.0003819636
0.001008633
-0.0002808862
0.0003653308
0.000643302
-0.001232834
0.001598165
-0.002841727
0.001608892
-0.003304023
0.0004622964
-0.001311946
-0.001992077
0.001553083
-0.00286503
0.003601962
-0.002048879
0.006211098
-0.002609136
0.00970816
-0.003497062
0.01272334
-0.003015184
0.01012493
0.002598414
0.0005197388
0.009605191
-0.006042961
0.0065627
-0.001904522
-0.004138439
0.003206806
-0.005111328
0.006567899
-0.003361093
0.007552678
-0.0009847793
0.004996657
0.002556021
0.002030886
0.002965771
-0.001812169
0.003843055
-0.006871938
0.005059769
-0.01045112
0.003579184
-0.01234813
0.001897008
-0.01340482
0.001056687
-0.01407992
0.0006750996
-0.01453833
0.0004584123
-0.01485665
0.0003183183
-0.01498304
0.0001263945
-0.01501041
2.736949e-05
-0.01498392
-2.648895e-05
-0.01490643
-7.749669e-05
-0.01481202
-9.440928e-05
-0.01465866
-0.000153359
-0.01446416
-0.0001945016
-0.01421148
-0.0002526745
-0.01393485
-0.0002766345
-0.01364107
-0.0002937753
-0.0132934
-0.00034767
-0.01292581
-0.0003675884
-0.01255025
-0.0003755616
-0.01211123
-0.0004390175
-0.0116496
-0.0004616314
-0.01116278
-0.0004868186
-0.01066964
-0.000493145
-0.01015604
-0.0005136033
-0.009593065
-0.0005629706
-0.009038097
-0.0005549678
-0.00844234
-0.0005957567
-0.00782938
-0.0006129605
-0.007211201
-0.0006181786
-0.006584547
-0.0006266541
-0.005927299
-0.000657248
-0.005268255
-0.0006590447
-0.004601544
-0.0006667107
-0.003921664
-0.0006798798
-0.00324271
-0.0006789543
-0.002582653
-0.000660057
-0.001885134
-0.0006975189
-0.001203942
-0.0006811922
-0.0005368462
-0.0006670957
0.0001886168
-0.0007254631
0.0009910924
-0.0008024756
0.001724741
-0.0007336481
0.00243137
-0.0007066295
0.003123839
-0.0006924688
0.003797421
-0.0006735819
0.004471017
-0.0006735961
0.005126098
-0.0006550814
0.005793715
-0.0006676166
0.006442127
-0.0006484118
0.007057514
-0.0006153871
0.007677275
-0.000619761
0.008284437
-0.0006071627
0.008869498
-0.0005850601
0.009451852
-0.0005823548
0.01001998
-0.0005681258
0.01053439
-0.0005144081
0.01104427
-0.0005098876
0.01153925
-0.0004949809
0.01199304
-0.0004537805
0.0124477
-0.0004546636
0.01285098
-0.0004032797
0.01322665
-0.0003756762
0.0135636
-0.0003369419
0.01385806
-0.000294464
0.01414778
-0.0002897186
0.01440036
-0.0002525801
0.01461382
-0.0002134558
0.01478509
-0.0001712777
0.01491405
-0.0001289532
0.01501207
-9.802361e-05
0.01504919
-3.71209e-05
0.01505362
-4.427343e-06
0.01496065
9.297279e-05
0.01468276
0.000277889
0.01422205
0.0004607067
0.0135049
0.0007171506
0.01223963
0.001265267
0.009685798
0.002553834
0.005200732
0.004485065
0.0004498477
0.004750885
-0.002566677
0.003016524
-0.005388617
0.00282194
-0.006846164
0.001457548
-0.005081635
-0.00176453
-0.002345524
-0.002736111
0.001529658
-0.003875182
0.005618242
-0.004088584
0.002389756
0.003228486
-0.006827576
0.009217332
-0.01135766
0.004530087
-0.01009169
-0.001265969
-0.006976052
-0.003115643
-0.004402843
-0.002573209
-0.00258999
-0.001812853
-0.0008172939
-0.001772696
0.001283305
-0.002100598
0.00247922
-0.001195916
0.002471207
8.013696e-06
0.001694633
0.0007765738
0.000332146
0.001362487
-0.0007616033
0.001093749
-0.000726195
-3.540829e-05
0.0001644411
-0.0008906361
0.001263551
-0.00109911
0.001921496
-0.0006579453
0.001415832
0.0005056636
6.240034e-06
0.001409592
-0.002370258
0.002376498
-0.004646888
0.00227663
-0.005879805
0.001232916
-0.006348518
0.0004687128
-0.006318719
-2.979855e-05
-0.005959865
-0.0003588538
-0.005340275
-0.00061959
-0.004540588
-0.0007996869
-0.003649745
-0.0008908428
-0.002466249
-0.001183497
-0.001165398
-0.0001101036
0.001514182
-0.002457138
0.001338617
-0.002712452
0.002813338
-0.002356397
0.003451948
3.25181e-06
0.002978242
0.001705631
0.002683013
-0.0002499927
0.003580667
-0.002605932
0.001671567
0.00226562
-0.002931882
0.007837826
-0.004559602
0.003519993
-0.003361895
-0.002016817
-0.002354822
-0.002149983
-0.001644061
-0.00170862
-0.001291133
-0.001069912
-0.0008256549
-0.0004443083
0.0003402103
-0.001061796
0.00148363
-0.001525384
0.001890043
-0.0006872987
0.001266582
0.001266763
-0.0009819889
0.003846736
-0.004083949
0.004710852
-0.004564635
0.0009429831
-0.0014598
-0.005096912
0.001722767
-0.006047596
0.003731657
-0.004057769
0.006527142
-0.005404622
0.01044438
-0.0074143
0.01400206
-0.006572868
0.01371416
0.002886316
0.004616225
0.01870313
-0.004781291
0.01596021
-0.003458532
-0.005461198
-0.0005826818
-0.007987178
0.0007859115
-0.004729686
0.003918654
-0.004117522
0.00343202
0.003042655
-0.004475344
0.01087313
-0.01379614
0.01316385
-0.01908814
0.01035177
-0.02101554
0.005506581
-0.02153169
0.00241316
-0.02168755
0.001212548
-0.02171808
0.0007056222
-0.02168286
0.0004231913
-0.02160895
0.0002444176
-0.02142748
-5.508047e-05
-0.0212292
-0.0001709095
-0.02102021
-0.0002354785
-0.02076357
-0.0003341355
-0.02049053
-0.0003674521
-0.02015683
-0.0004870549
-0.0197827
-0.0005686389
-0.01934587
-0.0006895011
-0.01888392
-0.0007385879
-0.01841079
-0.0007669009
-0.01787956
-0.000878902
-0.01732415
-0.0009229991
-0.01676489
-0.0009348167
-0.01613277
-0.001071137
-0.01547933
-0.001115074
-0.01479687
-0.001169282
-0.01410659
-0.001183427
-0.01339844
-0.001221751
-0.01263177
-0.00132964
-0.01187584
-0.001310891
-0.01107774
-0.00139386
-0.01025752
-0.00143318
-0.009434596
-0.001441105
-0.008606255
-0.001454996
-0.007740632
-0.001522871
-0.006872148
-0.001527529
-0.005997496
-0.001541362
-0.005108563
-0.001568813
-0.004223284
-0.001564234
-0.003358509
-0.001524832
-0.002454828
-0.0016012
-0.001567923
-0.001568098
-0.0006939605
-0.001541058
0.0002432671
-0.001662691
0.001269558
-0.001828766
0.002222407
-0.001686497
0.003143672
-0.001627895
0.004045663
-0.001594459
0.004928163
-0.001556082
0.005811976
-0.001557409
0.006674393
-0.001517498
0.007551454
-0.001544678
0.008407428
-0.001504386
0.009223337
-0.001431296
0.0100467
-0.001443126
0.01085969
-0.001420148
0.01164501
-0.001370388
0.01242787
-0.001365209
0.01319915
-0.001339404
0.01390698
-0.00122224
0.01461389
-0.0012168
0.0153042
-0.001185291
0.01594857
-0.001098151
0.016596
-0.001102093
0.01718316
-0.0009904436
0.01774664
-0.0009391465
0.01826677
-0.0008570723
0.01874029
-0.0007679845
0.01921526
-0.0007646944
0.01965086
-0.0006881821
0.02004364
-0.0006062314
0.0203935
-0.0005211402
0.02069965
-0.0004350985
0.0209768
-0.0003751773
0.02118955
-0.000249867
0.02140204
-0.0002169165
0.02159442
-9.941565e-05
0.02169899
0.0001733237
0.02175197
0.0004077267
0.02175185
0.0007172674
0.02162432
0.001392802
0.02087021
0.00330794
0.01789801
0.007457272
0.01110508
0.01154382
0.00175221
0.01236939
-0.003120782
0.007694931
-0.001616314
-4.691932e-05
0.0008531112
-0.004233955
0.002272725
-0.004155725
0.004226226
-0.005828683
0.00671361
-0.006575968
-0.0001716088
0.01011371
-0.01067787
0.01972359
-0.01325917
0.007111392
-0.01113432
-0.003390822
-0.007754354
-0.006495609
-0.005002694
-0.005324868
-0.003090925
-0.003724623
-0.00127583
-0.003587791
0.001364686
-0.004741114
0.003582708
-0.003413938
0.003937952
-0.0003472302
0.002355732
0.002358793
4.0126e-05
0.003678093
-0.001227945
0.00236182
-0.001228736
-3.461706e-05
-0.0006534237
-0.001465948
0.0003147048
-0.002067238
0.001485657
-0.001828898
0.0009593116
0.001032009
-0.002654316
0.00502322
-0.006438576
0.006160758
-0.008011745
0.003849799
-0.008315534
0.001536705
-0.008290753
0.000443932
-0.008021934
-0.0002986175
-0.007486772
-0.0008940162
-0.006652236
-0.001454126
-0.005619322
-0.001832601
-0.004471782
-0.002038383
-0.002982856
-0.002672422
-0.002634072
-0.0001954657
0.001862093
-0.004123765
0.00159054
-0.004498458
0.003238006
-0.004003864
0.004609979
-0.001368721
0.005184626
0.001130984
0.004723154
0.0002114791
0.004402429
-0.002285206
0.0006167375
0.006051311
-0.004245081
0.01269964
-0.005307102
0.004582014
-0.003977866
-0.003346052
-0.003146568
-0.002981282
-0.002615861
-0.002239327
-0.001976704
-0.001709069
-0.0006288776
-0.001792135
0.001211119
-0.002901792
0.002449723
-0.002763988
0.002809658
-0.001047233
0.002034334
0.002042087
-9.391013e-05
0.00597498
-0.003659039
0.008275981
-0.004666652
0.001950596
-0.00153119
-0.008232374
0.001214523
-0.008793309
0.002855543
-0.005698789
0.005781818
-0.008330897
0.01019891
-0.01183139
0.01420155
-0.0105755
0.01440483
0.002683034
0.007505401
0.02560256
-0.002299523
0.02576514
-0.006920584
-0.0008401362
-0.008981407
-0.005926355
-0.008537182
-0.005173911
-0.007134431
-0.005520272
-0.0098216
0.005729824
-0.01764927
0.01870081
-0.02395773
0.01947231
-0.02532609
0.01172013
-0.02523897
0.005419467
-0.02529643
0.002470621
-0.02541588
0.001331997
-0.02550685
0.0007965912
-0.02554786
0.0004642008
-0.02554577
0.0002423215
-0.02539183
-0.0002090175
-0.02518636
-0.0003763769
-0.02495143
-0.0004704057
-0.02465758
-0.0006279887
-0.02434672
-0.0006783094
-0.0239601
-0.0008736745
-0.0235264
-0.001002342
-0.02301589
-0.001200008
-0.0224752
-0.001279285
-0.02192204
-0.001320057
-0.02129624
-0.001504703
-0.02064139
-0.001577854
-0.0199834
-0.0015928
-0.0192351
-0.001819436
-0.01846134
-0.001888841
-0.01765231
-0.001978304
-0.01683352
-0.002002222
-0.01599321
-0.002062057
-0.01508037
-0.002242485
-0.01418185
-0.002209409
-0.01322989
-0.002345823
-0.01225155
-0.002411518
-0.01126912
-0.002423537
-0.01027965
-0.002444464
-0.009244819
-0.0025577
-0.008206176
-0.002566172
-0.007159082
-0.002588456
-0.006095192
-0.002632703
-0.005034455
-0.00262497
-0.003997634
-0.002561653
-0.002916454
-0.002682379
-0.001855221
-0.002629331
-0.0008095838
-0.002586695
0.0003013924
-0.002773667
0.001514206
-0.00304158
0.002650837
-0.002823127
0.003752818
-0.002729876
0.004831885
-0.002673527
0.005888495
-0.002612692
0.006946178
-0.002615093
0.007977314
-0.002548633
0.009025657
-0.002593021
0.01004753
-0.002526261
0.01102109
-0.002404852
0.01200322
-0.002425261
0.01297161
-0.002388534
0.0139063
-0.002305081
0.01483812
-0.00229703
0.01575484
-0.002256117
0.01659455
-0.002061955
0.01743363
-0.002055875
0.01825191
-0.002003572
0.01901365
-0.001859894
0.01978086
-0.001869303
0.0204734
-0.001682983
0.02113839
-0.00160414
0.02175032
-0.001469
0.02230454
-0.001322202
0.02286216
-0.001322312
0.02337006
-0.001196082
0.02382794
-0.001064115
0.02423317
-0.0009263721
0.02458624
-0.0007881637
0.02490438
-0.0006933166
0.02514698
-0.0004924695
0.02538014
-0.0004500769
0.02555414
-0.0002734174
0.02559302
0.00013444
0.0255603
0.0004404497
0.02549148
0.0007860863
0.02542845
0.001455838
0.02558608
0.003150304
0.02562888
0.007414476
0.02282156
0.01435113
0.01554008
0.01965088
0.009619954
0.01361505
0.009010935
0.0005621003
0.01102868
-0.006251699
0.01150565
-0.004632692
0.009769047
-0.004092085
0.006980386
-0.003787307
-0.002067959
0.01916205
-0.01132569
0.02898133
-0.01305631
0.008842004
-0.01101122
-0.00543591
-0.007178664
-0.01032816
-0.004371622
-0.00813191
-0.002729092
-0.005367152
-0.001482457
-0.004834427
0.0008673827
-0.007090954
0.003331851
-0.005878406
0.003943377
-0.0009587567
0.002475976
0.003826194
0.0004573879
0.005696681
-0.0008998367
0.003719045
-0.001677193
0.0007427396
-0.001939058
-0.001204084
-0.001322004
-0.002684291
-0.0004535112
-0.002697391
-0.001892576
0.002471074
-0.006200441
0.009331086
-0.008993691
0.008954007
-0.009498672
0.004354781
-0.009767898
0.00180593
-0.00990697
0.0005830048
-0.009620679
-0.0005849086
-0.008961716
-0.001552979
-0.0079608
-0.002455042
-0.006734069
-0.003059332
-0.005374649
-0.003397803
-0.003609566
-0.004437505
-0.004381545
-0.000324104
0.002328526
-0.006128187
0.001849787
-0.006672349
0.003793585
-0.005947662
0.005443258
-0.003018394
0.006452812
0.0001214302
0.005980211
0.0006840801
0.00456206
-0.0008670553
-0.0004824229
0.01109579
-0.005436767
0.01765399
-0.005996839
0.005142085
-0.004205902
-0.005136989
-0.003142961
-0.004044223
-0.00253976
-0.002842527
-0.001599154
-0.002649675
0.0003561528
-0.003747442
0.002515791
-0.00506143
0.003751189
-0.003999386
0.004005738
-0.001301782
0.002912524
0.003135301
0.0009443768
0.007943127
-0.002270095
0.01149045
-0.003895278
0.00357578
-0.001712818
-0.01041483
-9.456407e-05
-0.01041156
0.001162907
-0.00695626
0.004302413
-0.0114704
0.00927396
-0.01680294
0.01401558
-0.01531713
0.01374328
0.002955333
0.007787729
0.03155811
-0.002875769
0.03642864
-0.01372292
0.01000701
-0.02066861
0.001019338
-0.02268983
-0.003152693
-0.02387894
-0.004331165
-0.02640636
0.008257245
-0.02953733
0.02183178
-0.03048416
0.02041914
-0.02993224
0.01116821
-0.03009866
0.005585887
-0.03050023
0.002872188
-0.03076539
0.001597166
-0.03092228
0.0009534795
-0.03097064
0.0005125543
-0.03095686
0.000228549
-0.03074225
-0.0004236362
-0.03046819
-0.0006504352
-0.03016107
-0.0007775242
-0.02978399
-0.00100507
-0.02938911
-0.001073184
-0.02890693
-0.001355859
-0.02836977
-0.001539499
-0.02774152
-0.001828258
-0.02707762
-0.001943188
-0.02640044
-0.001997232
-0.02563835
-0.002266791
-0.02484159
-0.002374613
-0.02404168
-0.002392713
-0.02313716
-0.002723961
-0.02220018
-0.002825815
-0.02122204
-0.002956445
-0.02023351
-0.002990759
-0.01922048
-0.003075086
-0.01811901
-0.003343957
-0.01703734
-0.003291079
-0.01589035
-0.003492806
-0.01471323
-0.003588643
-0.01353013
-0.003606632
-0.01233918
-0.00363542
-0.01109394
-0.003802941
-0.009844025
-0.003816083
-0.008583399
-0.003849082
-0.007304228
-0.003911873
-0.006026208
-0.003902991
-0.004778124
-0.003809737
-0.003476591
-0.003983911
-0.00219931
-0.003906612
-0.0009434665
-0.003842539
0.000375572
-0.004092705
0.001811042
-0.004477051
0.003170053
-0.004182138
0.00449459
-0.004054413
0.005790617
-0.003969554
0.007059097
-0.003881172
0.008328412
-0.003884407
0.009565445
-0.003785666
0.01082521
-0.003852786
0.01205052
-0.003751575
0.0132205
-0.003574829
0.01440173
-0.00360649
0.01556447
-0.003551272
0.01668992
-0.003430538
0.01781362
-0.003420725
0.01891636
-0.003358863
0.01993029
-0.003075883
0.02094438
-0.003069957
0.02193239
-0.002991591
0.02285477
-0.00278227
0.02378457
-0.002799101
0.02462553
-0.00252395
0.0254336
-0.002412207
0.02617918
-0.002214581
0.02685887
-0.002001886
0.02754247
-0.002005912
0.02816675
-0.001820366
0.02873415
-0.001631509
0.02923747
-0.001429692
0.02968169
-0.001232389
0.03008672
-0.001098349
0.03040154
-0.0008072881
0.03070782
-0.0007563595
0.03094577
-0.0005113595
0.03101047
6.973361e-05
0.03097088
0.0004800463
0.03084192
0.0009150476
0.03060276
0.001694993
0.03030189
0.003451171
0.03065649
0.007059875
0.0311446
0.01386302
0.02950955
0.02128593
0.02677675
0.01634785
0.02522381
0.002115046
0.02479746
-0.005825358
0.02331282
-0.003148045
0.01825946
0.0009612744
0.009510951
0.0049612
-0.002362342
0.03103534
-0.01067213
0.03729112
-0.01258127
0.01075115
-0.01017534
-0.007841843
-0.005568258
-0.01493525
-0.002420738
-0.01127943
-0.001101272
-0.006686618
-0.0008340729
-0.005101626
0.0004218619
-0.008346888
0.002453451
-0.007909995
0.003293184
-0.00179849
0.00258658
0.004532798
0.001298398
0.006984864
-0.0005469673
0.00556441
-0.002507497
0.00270327
-0.0039091
0.0001975186
-0.004264183
-0.002329208
-0.004623488
-0.002338085
-0.00671609
0.004563675
-0.00963517
0.01225017
-0.01083652
0.01015535
-0.01114987
0.004668134
-0.01174388
0.002399942
-0.01191303
0.0007521514
-0.01156441
-0.000933523
-0.010768
-0.002349395
-0.009563205
-0.003659833
-0.008095019
-0.004527517
-0.006497509
-0.004995313
-0.004417405
-0.006517609
-0.006470424
-0.0004632524
0.002914727
-0.008579661
0.002164097
-0.009299698
0.004535697
-0.008319262
0.006408114
-0.004890811
0.007612782
-0.001083238
0.007084075
0.001212787
0.004418074
0.001798946
-0.001665578
0.01717945
-0.006557709
0.02254612
-0.006770895
0.005355272
-0.004324662
-0.007583222
-0.002545717
-0.005823168
-0.001518145
-0.003870099
-0.0003127553
-0.003855065
0.001913312
-0.005973509
0.004164594
-0.007312712
0.005431143
-0.005265936
0.005599514
-0.001470153
0.00414152
0.004593295
0.002075982
0.01000866
-0.0005623378
0.01412877
-0.002437046
0.005450488
-0.002151625
-0.01070025
-0.002213279
-0.01034991
-0.001751355
-0.007418184
0.001777997
-0.01499975
0.006810863
-0.0218358
0.01199958
-0.02050584
0.01109459
0.003860325
0.005348152
0.03730454
-0.006743029
0.04851982
-0.02173439
0.02499837
-0.03067137
0.009956322
-0.03398959
0.0001655226
-0.03659292
-0.001727827
-0.03807538
0.009739696
-0.03731448
0.02107088
-0.0357163
0.01882096
-0.03532765
0.01077956
-0.03582456
0.006082798
-0.03626995
0.00331758
-0.03658326
0.001910472
-0.0367889
0.001159122
-0.0368738
0.0005974507
-0.03689026
0.0002450111
-0.036658
-0.0006558994
-0.03635836
-0.0009500718
-0.03601635
-0.001119537
-0.03557654
-0.001444882
-0.03513195
-0.001517772
-0.03456545
-0.001922358
-0.03393945
-0.002165502
-0.03319656
-0.002571142
-0.03241164
-0.002728115
-0.03161417
-0.002794697
-0.03070682
-0.003174146
-0.02975838
-0.00332305
-0.02880974
-0.00334135
-0.02773191
-0.003801795
-0.02661191
-0.003945816
-0.02544328
-0.004125075
-0.02426438
-0.00416966
-0.02305583
-0.004283629
-0.02173445
-0.00466534
-0.02044382
-0.004581709
-0.01906833
-0.004868293
-0.01765963
-0.004997342
-0.01624116
-0.00502511
-0.01481459
-0.005061992
-0.01331884
-0.005298683
-0.01181691
-0.00531801
-0.0102988
-0.005367199
-0.008761196
-0.005449475
-0.007221005
-0.005443182
-0.005718637
-0.005312105
-0.004147923
-0.005554626
-0.002606151
-0.005448384
-0.001095664
-0.005353026
0.000469063
-0.005657433
0.002167928
-0.006175916
0.003793648
-0.005807857
0.005386144
-0.00564691
0.006938933
-0.005522342
0.008457772
-0.005400012
0.009979768
-0.005406403
0.01146216
-0.005268062
0.0129759
-0.005366524
0.01444114
-0.005216809
0.01584606
-0.004979749
0.01726651
-0.005026946
0.01865605
-0.004940814
0.02000595
-0.004780432
0.02135882
-0.004773592
0.02267693
-0.004676978
0.02389085
-0.004289807
0.02510733
-0.004286437
0.02628867
-0.004172928
0.02738784
-0.003881436
0.02850205
-0.003913312
0.02950374
-0.00352564
0.03046559
-0.003374058
0.0313514
-0.003100393
0.03215479
-0.00280528
0.03296625
-0.002817363
0.03369899
-0.002553109
0.03436849
-0.002301016
0.03495418
-0.002015375
0.03546891
-0.001747125
0.03594017
-0.0015696
0.03628886
-0.001155984
0.03663639
-0.001103892
0.03689115
-0.0007661211
0.03694275
1.813901e-05
0.03686151
0.0005612875
0.03669356
0.001082994
0.03643415
0.001954402
0.03604022
0.003845105
0.03593567
0.007164429
0.03701069
0.01278799
0.03873099
0.01956564
0.03888196
0.01619687
0.03721811
0.003778902
0.03519809
-0.003805345
0.03263757
-0.000587524
0.02649934
0.007099504
0.01396411
0.01749643
-0.0003903967
0.04538985
-0.007898623
0.04479934
-0.01056451
0.01341703
-0.007914864
-0.01049148
-0.002875657
-0.01997445
0.0008851473
-0.01504023
0.002107534
-0.007909004
0.001122398
-0.004116491
0.0007247979
-0.007949288
0.001784466
-0.008969663
0.002874641
-0.002888665
0.002856298
0.004551141
0.00185626
0.007984902
-0.0006616988
0.008082369
-0.003813853
0.005855423
-0.006465495
0.002849161
-0.007995756
-0.0007989472
-0.009465013
-0.0008688284
-0.01131259
0.006411252
-0.01249663
0.01343421
-0.01276235
0.01042107
-0.01340286
0.005308644
-0.01418167
0.003178749
-0.01438217
0.0009526508
-0.01396976
-0.001345935
-0.01301105
-0.003308106
-0.01154916
-0.005121719
-0.009746877
-0.006329801
-0.007849146
-0.006893045
-0.005411363
-0.008955392
-0.008967061
-0.0005681169
0.003576343
-0.01158789
0.002634769
-0.01250258
0.005531967
-0.01121646
0.007681256
-0.0070401
0.009042873
-0.002444854
0.00839395
0.00186171
0.004336906
0.00585599
-0.0027462
0.02426255
-0.007398181
0.0271981
-0.007432854
0.005389945
-0.004582563
-0.01043351
-0.001845617
-0.008560114
0.0001918968
-0.005907613
0.001861452
-0.005524621
0.003980286
-0.008092342
0.00611074
-0.009443167
0.007442078
-0.006597273
0.007664117
-0.001692193
0.005869037
0.006388375
0.003209218
0.01266848
0.001002837
0.01633515
-0.001069517
0.007522841
-0.003295378
-0.008474393
-0.005587971
-0.008057317
-0.006137496
-0.006868659
-0.003230511
-0.01790674
0.001110703
-0.02617702
0.006612364
-0.0260075
0.005241303
0.005231386
-3.277256e-05
0.04257862
-0.01404305
0.0625301
-0.03008404
0.04103936
-0.03770241
0.01757469
-0.04098982
0.003452932
-0.04426794
0.001550294
-0.04542392
0.01089568
-0.04388513
0.01953208
-0.04254163
0.01747746
-0.04273319
0.01097113
-0.04332601
0.006675614
-0.04382442
0.003815994
-0.04416648
0.002252527
-0.04439967
0.001392311
-0.0444347
0.0006324809
-0.04442984
0.0002401522
-0.04411864
-0.0009671014
-0.04374499
-0.001323721
-0.043315
-0.001549521
-0.04275885
-0.002001032
-0.04222347
-0.002053153
-0.04152774
-0.002618089
-0.04077072
-0.002922518
-0.03986864
-0.003473222
-0.03891621
-0.003680553
-0.03795724
-0.003753661
-0.03685963
-0.004271763
-0.03571623
-0.004466446
-0.03458006
-0.004477519
-0.03328441
-0.005097448
-0.03193351
-0.005296712
-0.03053069
-0.0055279
-0.0291158
-0.005584546
-0.02766966
-0.005729765
-0.02607727
-0.006257732
-0.02453763
-0.006121354
-0.02288433
-0.006521591
-0.02119624
-0.006685425
-0.01949667
-0.006724689
-0.01779014
-0.006768518
-0.01599804
-0.007090785
-0.01420046
-0.007115594
-0.01237311
-0.007194543
-0.01052589
-0.007296696
-0.008663243
-0.007305829
-0.006857579
-0.007117769
-0.004961797
-0.007450408
-0.003092345
-0.007317836
-0.001271261
-0.007174109
0.0005867492
-0.007515443
0.002599881
-0.008189047
0.004549676
-0.007757653
0.006454077
-0.00755131
0.008309146
-0.007377412
0.01012799
-0.007218856
0.01195395
-0.007232359
0.01373163
-0.00704575
0.01555544
-0.007190326
0.01730718
-0.006968552
0.01899845
-0.00667102
0.02071409
-0.006742583
0.02237583
-0.006602557
0.02399562
-0.006400226
0.02563539
-0.006413359
0.02721437
-0.006255953
0.02866861
-0.005744055
0.03013372
-0.005751541
0.0315538
-0.005593007
0.0328695
-0.005197139
0.03421295
-0.005256766
0.03541828
-0.004730961
0.03657611
-0.004531895
0.03764087
-0.004165147
0.03861137
-0.003775783
0.03959741
-0.003803398
0.04047844
-0.00343414
0.04129793
-0.003120513
0.04200738
-0.002724824
0.04263998
-0.002379718
0.04322148
-0.002151102
0.04365965
-0.001594156
0.04409303
-0.001537272
0.04441764
-0.001090729
0.04452186
-8.6083e-05
0.04447416
0.0006089835
0.0443056
0.001251563
0.0440285
0.002231503
0.04361867
0.004254927
0.04329231
0.007490788
0.04374941
0.0123309
0.04555949
0.01775555
0.04639002
0.01536634
0.04467425
0.005494677
0.04193169
-0.001062786
0.03910802
0.002236146
0.03398778
0.01221975
0.02088774
0.03059647
0.006474038
0.05980355
-0.001727249
0.05300063
-0.004929859
0.01661964
-0.002123047
-0.0132983
0.002311766
-0.02440927
0.005907363
-0.01863583
0.006965657
-0.008967298
0.004964521
-0.002115355
0.002627061
-0.005611829
0.002201433
-0.008544034
0.003283124
-0.003970356
0.003294021
0.004540244
0.00195339
0.009325532
-0.001198111
0.01123387
-0.005228625
0.009885937
-0.00884614
0.006466677
-0.01119857
0.001553479
-0.01328796
0.001220567
-0.01476399
0.007887279
-0.01498582
0.01365604
-0.01517222
0.01060748
-0.0162083
0.006344721
-0.01706914
0.004039593
-0.01734434
0.001227843
-0.01689693
-0.001793337
-0.01578704
-0.004417995
-0.01403633
-0.006872435
-0.01176721
-0.008598921
-0.009438749
-0.009221504
-0.006558376
-0.01183576
-0.01194909
-0.0005822469
0.004279954
-0.01528559
0.003356323
-0.01644115
0.00685909
-0.01471923
0.009337602
-0.009518612
0.01088541
-0.003992663
0.01013058
0.002616538
0.004770897
0.01121567
-0.00325275
0.0322862
-0.00753729
0.03148264
-0.007587406
0.005440061
-0.004861498
-0.01315942
-0.001524659
-0.01189695
0.001806427
-0.009238699
0.004061065
-0.007779259
0.006076257
-0.01010753
0.008243283
-0.01161019
0.009815674
-0.008169663
0.01032297
-0.00219949
0.008227051
0.008484295
0.004633351
0.01626218
0.00175933
0.01920917
-0.0010241
0.01030627
-0.005809399
-0.003689094
-0.01061742
-0.0032493
-0.01296664
-0.004519439
-0.01160749
-0.01926589
-0.008047285
-0.02973722
-0.003641251
-0.03041354
-0.00497913
0.006569266
-0.01250129
0.05010077
-0.02588034
0.07590915
-0.03919054
0.05434956
-0.0442985
0.02268265
-0.04784069
0.006995125
-0.05148423
0.005193827
-0.05289941
0.01231087
-0.05196974
0.01860241
-0.05114432
0.01665204
-0.05136417
0.01119098
-0.051902
0.007213441
-0.05242574
0.004339732
-0.05280292
0.002629711
-0.05311777
0.001707153
-0.05315249
0.0006672088
-0.05322452
0.000312181
-0.05282186
-0.00136976
-0.05239425
-0.001751333
-0.0518975
-0.002046269
-0.05121128
-0.002687256
-0.0506071
-0.002657329
-0.04975996
-0.003465237
-0.04887086
-0.003811613
-0.04779043
-0.004553657
-0.04664248
-0.004828502
-0.04550592
-0.004890219
-0.04419534
-0.005582344
-0.04282373
-0.005838058
-0.04146094
-0.005840307
-0.0399184
-0.006639987
-0.03830152
-0.006913593
-0.03662262
-0.007206803
-0.03490903
-0.007298129
-0.03320374
-0.00743506
-0.03127558
-0.008185891
-0.02944567
-0.007951264
-0.02745169
-0.008515566
-0.02543374
-0.008703376
-0.02340437
-0.008754057
-0.0213339
-0.008838988
-0.01920668
-0.00921801
-0.01706632
-0.009255953
-0.01487644
-0.009384421
-0.01267996
-0.009493176
-0.01039617
-0.009589624
-0.008247122
-0.009266814
-0.005957295
-0.009740235
-0.003680235
-0.009594895
-0.001476812
-0.009377533
0.0007372941
-0.009729549
0.003126337
-0.01057809
0.005467681
-0.010099
0.007714029
-0.009797659
0.009938336
-0.009601718
0.01213039
-0.009410908
0.01431553
-0.009417496
0.01644648
-0.009176706
0.01866079
-0.009404638
0.02076191
-0.009069664
0.02278809
-0.008697201
0.02484907
-0.008803568
0.02685802
-0.008611505
0.02880534
-0.008347547
0.03076373
-0.008371746
0.03266179
-0.008154019
0.03439882
-0.00748108
0.03615369
-0.007506416
0.03783572
-0.007275034
0.03942648
-0.006787904
0.04103953
-0.006869812
0.04247416
-0.006165589
0.04387393
-0.005931664
0.04513225
-0.005423468
0.04629416
-0.004937698
0.04748137
-0.004990606
0.04851616
-0.004468932
0.04950819
-0.00411254
0.05033451
-0.003551151
0.05109157
-0.003136778
0.05179247
-0.002852003
0.05228922
-0.002090906
0.05280983
-0.002057878
0.0532097
-0.001490602
0.05329378
-0.0001701577
0.05320613
0.0006966335
0.05299995
0.001457739
0.05270216
0.002529292
0.05230227
0.004654824
0.05209125
0.007701809
0.0523757
0.01204645
0.05359886
0.01653239
0.05397308
0.01499213
0.05205179
0.007415962
0.04899464
0.001994365
0.04562817
0.005602613
0.04179536
0.01605256
0.0310166
0.04137523
0.01757948
0.07324068
0.008592431
0.06198767
0.005079616
0.02013245
0.007185359
-0.01540404
0.0112779
-0.0285018
0.01363761
-0.02099555
0.01396287
-0.009292556
0.01104163
0.000805886
0.006791635
-0.001361831
0.004076733
-0.005829133
0.00444355
-0.004337172
0.003866062
0.005117731
0.001837268
0.01135433
-0.00185991
0.01493105
-0.006471807
0.01449783
-0.01066831
0.01066318
-0.01350773
0.004392893
-0.01592758
0.003640423
-0.01733613
0.009295827
-0.01758707
0.01390698
-0.01815073
0.01117114
-0.01944142
0.007635412
-0.02037448
0.004972649
-0.02074629
0.001599652
-0.02027293
-0.002266695
-0.01904833
-0.005642588
-0.01705474
-0.00886603
-0.01424088
-0.01141279
-0.01132117
-0.01214121
-0.007768012
-0.01538893
-0.01543715
-0.0004958757
0.005044035
-0.01983375
0.004440226
-0.02137726
0.008508328
-0.01878733
0.01122025
-0.01223053
0.01312055
-0.005892962
0.01280628
0.002930799
0.00694434
0.01707762
-0.001745167
0.04097571
-0.005955712
0.03569319
-0.007216933
0.006701282
-0.004960276
-0.01541608
-0.001355586
-0.01550164
0.002469881
-0.01306417
0.005403389
-0.01071277
0.007903674
-0.01260782
0.01052421
-0.01423073
0.01273307
-0.01037853
0.01374676
-0.003213176
0.01121927
0.01101178
0.006682892
0.02079856
0.00252906
0.02336301
-0.001762879
0.01459821
-0.00984864
0.004396667
-0.01787432
0.004776377
-0.02320485
0.0008110949
-0.02482631
-0.01764443
-0.02393282
-0.03063072
-0.01964345
-0.0347029
-0.02321923
0.01014504
-0.03244377
0.05932532
-0.04288437
0.08634975
-0.04958137
0.06104656
-0.0527268
0.02582808
-0.0570624
0.01133073
-0.06089524
0.009026662
-0.06269711
0.01411274
-0.06230272
0.01820802
-0.06172211
0.01607143
-0.0619214
0.01139027
-0.06251476
0.007806803
-0.06309225
0.004917222
-0.06343158
0.002969036
-0.06386639
0.002141965
-0.06379136
0.000592177
-0.06382408
0.0003449092
-0.06339707
-0.001796771
-0.06285285
-0.002295557
-0.06231429
-0.002584831
-0.06140527
-0.003596273
-0.06072542
-0.003337178
-0.05969274
-0.00449792
-0.05865321
-0.004851144
-0.05733579
-0.005871072
-0.05592625
-0.006238041
-0.05458618
-0.006230292
-0.0530447
-0.007123825
-0.05133516
-0.007547598
-0.04970831
-0.007467161
-0.04788443
-0.008463859
-0.04596425
-0.008833781
-0.04391385
-0.009257202
-0.04183862
-0.009373359
-0.03989032
-0.009383362
-0.03749131
-0.0105849
-0.03534926
-0.01009332
-0.03288376
-0.01098106
-0.03052602
-0.01106112
-0.02809539
-0.01118468
-0.02557835
-0.01135603
-0.02307295
-0.01172341
-0.0204871
-0.0118418
-0.01785636
-0.01201517
-0.01528483
-0.0120647
-0.01249289
-0.01238157
-0.009977311
-0.01178239
-0.007167213
-0.01255033
-0.004408996
-0.01235311
-0.001731696
-0.01205483
0.0009420867
-0.01240333
0.003809761
-0.01344576
0.006518542
-0.01280778
0.009168293
-0.01244741
0.01187275
-0.01230617
0.01454041
-0.01207857
0.01717025
-0.01204734
0.01969784
-0.01170429