/*--------------------------------*- C++ -*----------------------------------*\
| =========                 |                                                 |
| \\      /  F ield         | OpenFOAM: The Open Source CFD Toolbox           |
|  \\    /   O peration     | Version:  2406                                  |
|   \\  /    A nd           | Website:  www.openfoam.com                      |
|    \\/     M anipulation  |                                                 |
\*---------------------------------------------------------------------------*/
FoamFile
{
    version     2.0;
    format      ascii;
    arch        "LSB;label=32;scalar=64";
    class       volVectorField;
    location    "1.52";
    object      U;
}
// * * * * * * * * * * * * * * * * * * * * * * * * * * * * * * * * * * * * * //

dimensions      [0 1 -1 0 0 0 0];

internalField   nonuniform List<vector> 
15536
(
(-0.01271716 -0.7882492 4.120201e-23)
(-0.0546872 0.3220818 -2.06307e-19)
(-0.1600032 1.649538 -2.870959e-19)
(-0.2068126 2.154409 -2.109273e-19)
(-0.008501561 0.3122099 -2.579742e-21)
(-0.02438246 -0.3131959 1.070815e-21)
(-0.5751234 1.625388 -4.349943e-22)
(-0.9627922 3.09625 4.327321e-22)
(0.104252 0.1847567 9.090512e-19)
(1.250752 -2.783582 1.752999e-18)
(1.21603 -2.753168 0)
(0.7593289 -1.652844 0)
(0.290378 -0.6730288 -7.615525e-21)
(-0.1362649 0.0881931 1.935e-18)
(-0.436208 0.6318372 9.323676e-19)
(-0.09637415 0.1992858 -1.768965e-18)
(-0.2247816 0.3255779 8.360984e-19)
(-0.6067869 0.7324688 1.973226e-21)
(-0.6143002 0.7465652 2.927224e-21)
(0.1229259 0.005277931 -4.854436e-21)
(1.679392 -1.455079 0)
(2.974015 -2.458978 -2.312293e-18)
(2.137312 -1.7276 0)
(-0.2817929 0.06378927 -2.043753e-18)
(-2.307396 1.445679 1.037889e-20)
(-4.379864 2.607634 -2.415579e-20)
(-7.082653 3.908918 2.276066e-20)
(-10.02067 5.149118 -1.003043e-17)
(-11.72128 5.812201 -1.510988e-17)
(-6.666549 3.464933 0)
(4.825064 -1.489716 -1.196943e-20)
(6.075907 -2.318844 -8.062749e-19)
(-1.452271 0.008545325 2.249568e-18)
(-4.785582 0.8419968 0)
(-7.493701 1.487692 -6.061499e-18)
(-7.21513 1.489676 -2.585594e-20)
(-4.083505 0.7503518 3.257569e-18)
(-0.6570218 0.06993992 -1.434435e-18)
(4.867314 0.1218131 1.410431e-21)
(9.5565 0.516405 -3.510843e-19)
(12.03864 1.052731 1.451486e-18)
(13.31537 1.6647 -2.358568e-20)
(14.04627 2.334134 2.331569e-20)
(14.46869 3.009853 0)
(14.68968 3.676514 -5.955968e-18)
(14.74842 4.318263 -5.930419e-18)
(14.64587 4.923363 0)
(14.43991 5.495539 -1.133667e-17)
(14.15728 6.037423 1.106242e-17)
(13.82984 6.554608 1.068364e-17)
(13.4472 7.031656 3.891533e-20)
(13.00401 7.464258 -9.691246e-18)
(12.50853 7.847514 0)
(11.97005 8.183286 0)
(11.39792 8.468099 7.807213e-18)
(10.79014 8.693614 7.147842e-18)
(10.16508 8.870771 4.730205e-20)
(9.52939 8.998001 5.599933e-18)
(8.870282 9.056758 9.780997e-18)
(8.200564 9.055287 4.119882e-18)
(7.528325 8.996613 3.289135e-18)
(6.867156 8.890179 -2.292914e-20)
(6.214053 8.726309 0)
(5.566656 8.498124 9.002461e-19)
(4.938501 8.222201 0)
(4.325497 7.885432 7.25595e-19)
(3.736884 7.493756 -2.948083e-20)
(3.182728 7.057835 -2.802789e-21)
(2.662441 6.575142 1.020807e-20)
(2.18039 6.049994 -3.658935e-18)
(1.742389 5.490878 -1.788897e-20)
(1.349108 4.895236 2.470979e-18)
(1.002193 4.264942 2.73236e-18)
(0.7070067 3.615408 0)
(0.4631908 2.951819 0)
(0.2738491 2.270895 3.342653e-18)
(0.1362015 1.580378 -2.861934e-22)
(0.05363283 0.8959231 9.109499e-19)
(0.02761869 0.1872725 1.685566e-21)
(0.05397043 -0.5996732 -7.040741e-21)
(0.1277404 -1.385462 -1.742418e-18)
(0.2598098 -2.11928 0)
(0.4468145 -2.817659 3.138778e-18)
(0.6858624 -3.491119 0)
(0.9759141 -4.139469 -2.649052e-18)
(1.314873 -4.760545 2.339699e-18)
(1.702194 -5.352872 1.725852e-20)
(2.134544 -5.914315 3.458349e-18)
(2.60881 -6.435035 9.309768e-21)
(3.120911 -6.912806 -2.036617e-18)
(3.668124 -7.349053 -1.253055e-18)
(4.247772 -7.737562 6.369438e-21)
(4.85809 -8.0807 4.050643e-19)
(5.490541 -8.373558 -1.256768e-18)
(6.138552 -8.612232 1.979059e-20)
(6.791954 -8.783463 6.746181e-21)
(7.456078 -8.901756 -3.800701e-18)
(8.126545 -8.967191 0)
(8.794819 -8.971919 1.085146e-17)
(9.463529 -8.926866 6.179404e-18)
(10.11301 -8.818018 1.076328e-19)
(10.73948 -8.647716 -7.864955e-18)
(11.33898 -8.419167 0)
(11.91046 -8.136618 0)
(12.45314 -7.807959 0)
(12.95808 -7.431328 0)
(13.41529 -7.008014 1.114124e-17)
(13.82146 -6.541888 1.176396e-17)
(14.17689 -6.037741 2.613842e-20)
(14.47513 -5.502413 -1.26459e-17)
(14.70227 -4.935334 -6.458822e-18)
(14.832 -4.336371 -6.673029e-18)
(14.81643 -3.703074 5.223757e-20)
(14.61931 -3.040405 6.81291e-18)
(14.18971 -2.359961 3.505095e-18)
(13.38255 -1.691317 -2.71059e-20)
(11.76509 -1.069385 -6.536474e-21)
(8.324257 -0.4903722 4.368409e-19)
(2.720089 -0.04347123 -9.02439e-19)
(-1.597155 -0.1816254 -2.404729e-20)
(-4.592153 -0.8871021 1.57654e-20)
(-6.964089 -1.295075 4.377244e-18)
(-5.945468 -1.097036 3.173958e-20)
(-3.834731 -0.6907864 0)
(-1.075324 -0.003202851 -4.656372e-18)
(4.770777 1.836987 -3.107693e-18)
(6.531934 2.279818 5.956495e-21)
(-2.984688 -1.839845 1.417498e-17)
(-9.753387 -4.984742 -1.869929e-17)
(-9.790919 -5.121889 0)
(-7.542318 -4.196286 0)
(-5.002472 -3.012992 -8.436283e-18)
(-3.062763 -1.993696 0)
(-1.528701 -1.038598 3.883517e-20)
(0.159085 0.1981043 -4.531974e-18)
(1.716297 1.463412 -3.748804e-18)
(2.084138 1.893837 2.719319e-20)
(1.625879 1.585918 -7.047292e-18)
(0.8091376 0.7895381 -6.371445e-20)
(-0.2666132 -0.4384939 9.626346e-18)
(-0.6100926 -0.8155238 5.586589e-18)
(-0.2343969 -0.261906 6.370869e-18)
(0.3398455 0.6147826 7.118671e-18)
(0.849648 1.425793 0)
(1.028157 1.750009 -3.319008e-20)
(0.6019281 1.098162 -8.55823e-18)
(-0.4122604 -1.151022 0)
(-1.280876 -3.740701 8.500606e-18)
(-1.71634 -5.431781 -6.622277e-20)
(-1.75555 -6.187999 3.302467e-20)
(-1.592065 -6.435561 4.140405e-18)
(-1.304124 -6.239078 6.368132e-21)
(-0.9821939 -5.750568 0)
(-0.6752401 -5.053126 1.531492e-18)
(-0.4092793 -4.198759 1.120419e-20)
(-0.2095662 -3.123435 1.793653e-21)
(-0.07221099 -1.92028 -1.834042e-21)
(-0.1303727 -0.706685 -1.262094e-19)
(-0.1981128 0.5194241 1.697476e-19)
(-0.311118 1.643281 0)
(-0.4092031 3.045031 1.725269e-19)
(-0.3497997 2.707833 0)
(-0.5085877 2.187155 3.70355e-19)
(-0.8733922 2.592786 -3.458745e-22)
(-1.01787 3.542493 3.508702e-22)
(0.8264416 -1.0295 -7.226219e-19)
(1.677825 -3.612578 -1.416296e-18)
(1.247514 -3.077135 0)
(0.9146205 -2.162689 6.928241e-21)
(0.703626 -1.518444 -9.585389e-22)
(0.6276905 -1.145699 -7.801798e-19)
(0.5544108 -0.8038504 -1.54682e-18)
(0.186048 -0.2974975 7.209875e-19)
(-0.5830133 0.6201711 -6.666968e-19)
(-1.018802 1.14206 -4.493108e-21)
(-0.988075 1.181084 0)
(-0.3935391 0.691722 0)
(1.866734 -1.421384 0)
(3.71759 -3.162122 -1.888019e-18)
(1.953195 -1.944119 -1.417144e-20)
(-0.5624337 -0.07932954 1.423133e-20)
(-2.118648 1.084731 1.977821e-21)
(-3.934544 2.012133 -1.876323e-21)
(-6.423099 3.063752 0)
(-9.262282 4.228763 0)
(-10.84724 5.124417 2.489266e-17)
(-10.13816 5.364607 4.868008e-20)
(1.825336 0.2527602 -5.283538e-20)
(5.527336 -2.268742 6.790092e-19)
(1.021757 -0.9235509 1.812896e-18)
(-0.1258592 -0.3419548 -3.469492e-20)
(-0.909378 -0.1343675 -5.352124e-18)
(-5.213108 0.7959554 3.090533e-18)
(-1.527735 0.4889637 -2.699224e-21)
(8.850994 0.04223202 9.647607e-19)
(15.11697 0.1788141 0)
(17.70916 0.4434542 2.474662e-19)
(18.33299 0.8703891 2.132353e-18)
(18.50272 1.457445 2.260284e-18)
(18.4862 2.125655 2.313692e-18)
(18.35643 2.803843 -7.256234e-20)
(18.15311 3.489175 4.764629e-18)
(17.88951 4.167993 -3.634576e-20)
(17.58074 4.836946 0)
(17.21712 5.479209 9.028783e-18)
(16.79553 6.094447 0)
(16.32881 6.677514 -6.424321e-20)
(15.81117 7.215844 6.440775e-20)
(15.23898 7.706413 7.733553e-18)
(14.6197 8.142781 -5.435235e-20)
(13.96038 8.525097 6.770961e-18)
(13.26929 8.848774 -6.277486e-18)
(12.54953 9.111299 0)
(11.81138 9.321407 3.734316e-20)
(11.06187 9.474648 -4.592359e-18)
(10.29668 9.557945 -7.782162e-18)
(9.520423 9.572955 0)
(8.74551 9.529992 -2.640032e-18)
(7.981109 9.43065 -1.282467e-20)
(7.227958 9.26744 1.316476e-18)
(6.487117 9.039284 2.734838e-21)
(5.765389 8.752038 -2.767535e-21)
(5.066645 8.402928 -5.88648e-19)
(4.394744 7.99571 1.22268e-18)
(3.760297 7.53548 0)
(3.164353 7.027569 0)
(2.611784 6.475766 -1.96311e-20)
(2.106972 5.881927 0)
(1.652865 5.247885 0)
(1.251285 4.577659 0)
(0.9070513 3.882625 -2.454641e-18)
(0.61888 3.173041 1.973573e-20)
(0.3960876 2.442849 1.13518e-20)
(0.2296841 1.70259 -5.560913e-21)
(0.1270672 0.9647265 -7.47691e-19)
(0.09635226 0.200522 3.039315e-21)
(0.131529 -0.6364505 -7.476751e-19)
(0.2157898 -1.475313 1.42015e-18)
(0.3725673 -2.261873 1.081544e-20)
(0.5930233 -3.010662 -2.545442e-18)
(0.8722244 -3.733309 -3.724808e-20)
(1.210095 -4.42958 2.19507e-18)
(1.602825 -5.093373 -1.946654e-18)
(2.051171 -5.724356 0)
(2.547785 -6.32174 -5.648439e-18)
(3.091192 -6.870793 -1.538537e-20)
(3.678629 -7.374235 1.652445e-18)
(4.304379 -7.835355 1.022884e-18)
(4.965942 -8.24109 0)
(5.661759 -8.593972 0)
(6.383498 -8.897922 0)
(7.122834 -9.13677 1.551958e-20)
(7.875016 -9.306374 -1.541377e-20)
(8.63963 -9.417552 2.984875e-18)
(9.411204 -9.468751 5.461594e-21)
(10.18584 -9.456197 -4.390755e-18)
(10.95792 -9.384922 -7.319921e-20)
(11.71708 -9.25017 1.127537e-17)
(12.45516 -9.04904 6.25571e-18)
(13.1677 -8.784538 -5.085454e-20)
(13.85728 -8.463143 7.278099e-18)
(14.51886 -8.090055 5.939732e-20)
(15.14473 -7.660297 -6.737421e-20)
(15.72726 -7.179674 6.708822e-20)
(16.26274 -6.650984 7.374506e-20)
(16.75047 -6.08065 9.683438e-18)
(17.18694 -5.473444 -7.63244e-20)
(17.55551 -4.830754 0)
(17.87072 -4.163158 0)
(18.15017 -3.483948 0)
(18.37702 -2.804823 0)
(18.52937 -2.131339 2.050919e-20)
(18.57189 -1.484636 -2.037513e-20)
(18.42898 -0.9629431 1.233849e-18)
(17.38764 -0.6019841 4.695257e-21)
(13.42199 -0.2792643 0)
(5.827157 -0.1092024 -1.411443e-18)
(-3.404374 -0.5285746 3.557744e-18)
(-2.540706 -0.3559239 -3.983462e-18)
(0.3693096 0.3943711 4.576089e-20)
(1.285351 0.6322095 -5.091022e-18)
(2.261304 1.119797 3.002505e-20)
(5.374926 2.273142 0)
(5.962109 1.681108 4.719567e-18)
(-6.4822 -3.89804 -2.08278e-17)
(-10.06945 -5.059499 -1.472078e-17)
(-9.136416 -4.371131 -2.303523e-20)
(-7.091527 -3.495424 -1.541979e-19)
(-4.814361 -2.559933 6.621951e-20)
(-3.047149 -1.749911 0)
(-1.722284 -0.9543282 4.440214e-18)
(-0.2932246 0.1537925 3.566405e-18)
(1.662644 1.696534 3.20691e-21)
(2.716816 2.56651 -2.789379e-18)
(2.193492 2.053862 5.678996e-18)
(0.790999 0.5863977 3.222766e-18)
(-0.5159341 -0.7962483 1.056889e-21)
(-0.7074605 -0.8681619 -4.57361e-18)
(-0.5829782 -0.6315181 -3.802899e-20)
(-0.1863897 -0.0312217 -5.843549e-18)
(0.1968957 0.5531834 5.41823e-20)
(0.8664562 1.516812 5.241445e-21)
(0.262407 0.04794822 -5.613895e-20)
(-1.541069 -4.293582 0)
(-2.264817 -6.271804 0)
(-2.325637 -6.699398 -6.803312e-18)
(-2.155484 -6.805398 0)
(-1.893553 -6.769819 -6.79602e-18)
(-1.573881 -6.502623 3.190955e-18)
(-1.212308 -5.941554 -2.09783e-20)
(-0.8649098 -5.191155 2.112749e-20)
(-0.5600529 -4.289775 1.069194e-18)
(-0.3487132 -3.161057 -4.338845e-19)
(-0.193951 -1.901455 -1.626985e-19)
(-0.2415535 -0.7436682 1.016604e-19)
(-0.3090615 0.4736684 -1.368058e-19)
(-0.4095009 1.653166 2.581733e-21)
(-0.4297922 2.802586 -1.446894e-19)
(-0.5065619 3.580366 0)
(-0.7876912 3.564288 -2.909947e-19)
(-1.091553 3.309914 5.905714e-22)
(-0.6316544 3.003395 -6.941623e-20)
(1.539072 -1.97011 5.751097e-19)
(1.733591 -3.464096 1.158267e-18)
(1.111145 -2.994752 1.067385e-18)
(0.8811869 -2.218516 -7.35884e-21)
(0.8664967 -1.896286 0)
(0.84118 -1.598735 0)
(0.516683 -0.9453369 6.199468e-19)
(-0.2648839 0.1101847 5.940278e-19)
(-0.968279 0.9751486 5.556467e-19)
(-1.313046 1.458906 7.410882e-21)
(-1.161644 1.470593 0)
(-0.5435194 1.089354 -7.449316e-19)
(1.214238 -0.4708663 -1.337107e-18)
(3.230788 -2.679491 1.567653e-18)
(1.397897 -1.835489 0)
(-0.5280431 -0.4014489 -1.281629e-18)
(-1.407367 0.4409273 0)
(-2.863281 1.109033 -7.960105e-19)
(-5.179558 2.013649 0)
(-7.801581 3.205585 -6.836037e-18)
(-8.921044 4.367456 -2.150205e-17)
(-9.077524 5.554759 0)
(-1.276177 2.176903 0)
(4.588784 -1.77277 -2.687182e-20)
(5.995529 -2.270317 -1.425459e-18)
(6.46025 -1.999531 2.622799e-18)
(5.988736 -1.695278 8.102199e-18)
(4.390248 -0.4003313 -2.358462e-18)
(8.775578 0.2150002 1.725438e-18)
(16.21917 0.2658117 -6.91211e-19)
(18.14369 0.444082 0)
(17.99686 0.7549821 0)
(17.91778 1.29535 -1.768939e-18)
(17.94791 1.973237 -1.894963e-18)
(17.91989 2.680182 -3.779711e-18)
(17.81707 3.383663 3.786933e-18)
(17.64859 4.086998 8.998513e-20)
(17.41782 4.762052 -5.998661e-20)
(17.11985 5.41102 0)
(16.75138 6.021535 0)
(16.32676 6.602193 7.08925e-18)
(15.8586 7.153326 -6.855196e-18)
(15.34243 7.657538 0)
(14.77434 8.113119 0)
(14.16254 8.513359 8.916254e-20)
(13.51232 8.861455 -5.645577e-18)
(12.83334 9.150518 0)
(12.12891 9.377447 -4.574444e-18)
(11.40704 9.554489 -4.113509e-18)
(10.67672 9.67568 -3.584405e-18)
(9.93457 9.726216 3.128377e-18)
(9.1813 9.711097 -3.698902e-20)
(8.430466 9.641227 2.112967e-18)
(7.690885 9.517455 0)
(6.96512 9.33056 -1.074013e-18)
(6.253164 9.080557 -4.101216e-21)
(5.558593 8.775439 8.230656e-21)
(4.893039 8.407023 -5.487497e-19)
(4.251004 7.985047 0)
(3.64576 7.512544 -1.557842e-18)
(3.077521 6.995255 -1.742182e-20)
(2.553221 6.435964 2.478646e-18)
(2.073944 5.837595 1.45606e-18)
(1.644001 5.200993 -1.653119e-18)
(1.26379 4.530393 -1.837214e-18)
(0.9376814 3.836661 1.997686e-18)
(0.6633863 3.130659 -2.148131e-18)
(0.455971 2.404393 -1.105649e-18)
(0.2968175 1.670434 2.339246e-18)
(0.1988809 0.9409076 1.223124e-18)
(0.1748041 0.1871883 2.486754e-21)
(0.2161039 -0.6302877 6.185951e-19)
(0.2917149 -1.455715 -9.252867e-21)
(0.4395197 -2.232357 0)
(0.6481901 -2.974892 -1.595601e-20)
(0.9110842 -3.694008 -1.369805e-20)
(1.230459 -4.388154 -1.737179e-18)
(1.600692 -5.051793 3.197404e-18)
(2.02772 -5.683396 -1.401249e-18)
(2.497992 -6.284919 2.2909e-18)
(3.012846 -6.840319 1.632406e-20)
(3.573447 -7.351381 0)
(4.169627 -7.823947 8.82862e-19)
(4.801119 -8.24316 1.056222e-21)
(5.468617 -8.610836 1.79713e-19)
(6.160441 -8.933973 0)
(6.869962 -9.194091 1.297972e-18)
(7.595766 -9.385406 0)
(8.334654 -9.521306 -4.896844e-20)
(9.080442 -9.600202 2.950692e-18)
(9.833251 -9.615193 0)
(10.58305 -9.575505 -4.090499e-18)
(11.32208 -9.474192 -4.624513e-18)
(12.04238 -9.307582 -5.12786e-18)
(12.73923 -9.078074 0)
(13.41705 -8.790619 -1.215903e-17)
(14.06887 -8.452906 9.752056e-20)
(14.68776 -8.057632 0)
(15.26601 -7.61202 0)
(15.79998 -7.117163 0)
(16.28995 -6.578412 7.848606e-18)
(16.728 -6.006602 -8.132862e-18)
(17.10614 -5.397573 0)
(17.41774 -4.753715 0)
(17.66582 -4.082561 4.280203e-18)
(17.85265 -3.388299 3.410583e-20)
(17.96687 -2.686269 0)
(18.01354 -1.985737 0)
(18.04737 -1.346684 -2.051318e-18)
(18.3817 -0.898591 2.364449e-19)
(18.2044 -0.6073976 0)
(14.46214 -0.345254 9.314457e-19)
(7.221429 -0.0319127 4.756376e-20)
(5.876359 1.013604 1.504623e-20)
(7.48623 1.98112 -4.075983e-20)
(7.959971 2.280901 3.685785e-18)
(7.644329 2.555492 2.810664e-18)
(6.552289 2.588066 3.893408e-20)
(3.535115 0.122486 4.913266e-20)
(-6.525353 -4.676104 8.075907e-18)
(-7.715064 -4.237744 1.253838e-17)
(-7.654265 -3.507793 0)
(-5.75012 -2.451431 7.921949e-18)
(-3.734453 -1.65571 0)
(-2.320344 -1.095863 -6.26416e-20)
(-1.452873 -0.6045247 -3.587588e-18)
(-0.68877 0.09790849 4.212994e-20)
(0.9925568 1.36201 -4.234917e-20)
(2.214563 2.133502 2.351992e-18)
(1.944653 1.631452 -2.326251e-18)
(0.8940527 0.4441871 -2.612205e-18)
(-0.04173704 -0.4100882 -3.253676e-18)
(-0.5332027 -0.7226997 -3.754708e-18)
(-0.880093 -1.032668 0)
(-0.8620283 -0.9267605 -4.476851e-21)
(-0.6403053 -0.618097 0)
(0.1085571 0.01875755 -5.931787e-18)
(-0.5987071 -2.448422 5.228399e-18)
(-1.986284 -5.935667 0)
(-2.171644 -6.351467 0)
(-2.121708 -6.496553 1.128655e-17)
(-1.993089 -6.767029 -2.857231e-18)
(-1.779494 -6.773946 5.600475e-18)
(-1.515431 -6.477485 -1.943303e-20)
(-1.218582 -5.901978 1.943096e-20)
(-0.9169056 -5.152891 0)
(-0.6401303 -4.269575 -8.683621e-19)
(-0.4651229 -3.161835 6.898492e-19)
(-0.3111177 -1.920237 1.35094e-19)
(-0.3826688 -0.7899296 -1.659494e-19)
(-0.4621061 0.4050145 -2.989394e-21)
(-0.5566984 1.626197 2.947499e-21)
(-0.5591444 2.663838 -3.153653e-21)
(-0.6066696 3.553506 3.165705e-21)
(-0.8197819 3.820568 1.166917e-19)
(-1.046112 3.427314 5.18984e-22)
(0.001566041 2.149023 5.09996e-20)
(2.084238 -2.353578 3.152629e-21)
(1.72433 -3.270775 -1.010569e-18)
(0.8902098 -2.770255 -1.383451e-21)
(0.6548068 -1.89487 0)
(0.651336 -1.598014 0)
(0.5950775 -1.323674 -5.229638e-19)
(0.09712145 -0.5433672 -5.176085e-19)
(-0.8134202 0.5824673 -9.666442e-19)
(-1.37865 1.339079 -4.48971e-19)
(-1.597928 1.751793 0)
(-1.334605 1.760396 0)
(-0.5718449 1.3489 1.190697e-18)
(0.5355645 0.5415306 2.16817e-18)
(2.251202 -1.690172 -2.13113e-20)
(0.7462583 -1.574815 3.880068e-20)
(-0.1765731 -0.8525276 2.086975e-18)
(-0.4204943 -0.3283063 3.53916e-19)
(-1.649227 0.100121 6.918961e-19)
(-3.937184 0.890693 2.594742e-18)
(-6.241498 2.015839 5.44468e-18)
(-7.350162 3.580059 9.467536e-18)
(-6.481946 5.060623 0)
(-1.992197 3.288997 -2.174831e-20)
(5.906072 -1.561155 -8.452685e-19)
(11.0485 -3.193524 -1.383698e-21)
(12.79024 -3.238009 4.819803e-22)
(13.80101 -2.861484 -2.958925e-18)
(14.29148 -1.341838 -1.584945e-18)
(16.36751 -0.02336185 -3.824619e-20)
(18.45206 0.2978745 -5.525886e-19)
(17.77395 0.2710351 -2.965531e-19)
(17.65922 0.4497602 -2.532862e-21)
(17.89664 0.9005273 0)
(18.04758 1.504432 -2.386908e-20)
(18.0879 2.165205 1.587549e-18)
(18.02003 2.846673 -6.256584e-18)
(17.87173 3.53977 4.859893e-20)
(17.65097 4.218132 -3.125566e-18)
(17.35511 4.878635 -9.438607e-20)
(16.99243 5.499717 -5.92866e-18)
(16.57078 6.096226 -7.782426e-21)
(16.1044 6.668988 5.65497e-18)
(15.59133 7.192042 -5.318435e-18)
(15.0254 7.669768 0)
(14.41496 8.091541 7.201566e-20)
(13.76416 8.463492 -7.245901e-20)
(13.08228 8.778299 0)
(12.37286 9.032074 3.768806e-18)
(11.64488 9.235643 7.355579e-20)
(10.90708 9.3833 2.996608e-18)
(10.15735 9.459095 -2.508605e-18)
(9.397963 9.465616 -2.08437e-18)
(8.637185 9.418907 -1.708253e-18)
(7.888407 9.316654 -1.235911e-18)
(7.153867 9.149437 9.450255e-21)
(6.431951 8.918148 -9.543539e-21)
(5.726857 8.631135 0)
(5.050528 8.279524 4.476297e-19)
(4.397284 7.873144 -1.688807e-20)
(3.781705 7.41438 1.296879e-18)
(3.203492 6.909418 1.657024e-18)
(2.671655 6.360463 -2.019709e-18)
(2.184849 5.771472 -1.1952e-18)
(1.748085 5.14322 -4.647507e-21)
(1.3614 4.480193 1.507327e-18)
(1.031775 3.792439 2.63588e-20)
(0.7524754 3.092472 1.721612e-18)
(0.5447913 2.370404 1.459059e-20)
(0.3838944 1.640481 -9.775882e-19)
(0.2852414 0.9169536 -4.984227e-19)
(0.2669704 0.1715144 -6.189442e-23)
(0.3162244 -0.6241487 4.904982e-19)
(0.3861336 -1.436628 7.577918e-21)
(0.5304965 -2.205283 -9.145528e-19)
(0.7400457 -2.941668 1.727272e-18)
(1.00468 -3.653961 0)
(1.327018 -4.340054 -2.973691e-21)
(1.70045 -4.994776 -1.315094e-18)
(2.133367 -5.616586 1.180935e-18)
(2.60794 -6.208515 -1.970232e-18)
(3.131661 -6.751122 2.129639e-20)
(3.702781 -7.248558 -2.109531e-20)
(4.304932 -7.709063 -7.255341e-19)
(4.945875 -8.112737 0)
(5.627163 -8.462045 -1.542564e-19)
(6.326787 -8.769703 1.838855e-20)
(7.045104 -9.01159 -5.68288e-20)
(7.781298 -9.182653 -1.443984e-18)
(8.528908 -9.298586 -1.993794e-18)
(9.28266 -9.356367 -1.693263e-20)
(10.04305 -9.348919 2.811139e-18)
(10.80125 -9.28474 -4.76355e-20)
(11.54626 -9.15954 -3.684522e-18)
(12.27203 -8.967266 0)
(12.97529 -8.7097 4.48714e-18)
(13.65682 -8.396648 4.938439e-18)
(14.30902 -8.03623 5.12458e-18)
(14.9274 -7.617847 -5.456253e-18)
(15.50348 -7.15114 5.847155e-18)
(16.03477 -6.635407 0)
(16.5217 -6.076638 -1.284929e-17)
(16.95587 -5.49007 1.342653e-17)
(17.3291 -4.866124 -1.591565e-19)
(17.63653 -4.212654 -3.456399e-18)
(17.87905 -3.532858 -3.511405e-18)
(18.04718 -2.850477 0)
(18.12713 -2.169872 1.800256e-18)
(18.10244 -1.522162 -1.772777e-18)
(17.96688 -0.9630329 8.576857e-19)
(17.84618 -0.6061018 -2.053597e-19)
(18.457 -0.4989391 -3.79446e-19)
(18.47408 -0.4025104 1.125671e-20)
(16.10873 0.3591959 -1.792853e-18)
(15.10066 1.976357 5.402571e-20)
(14.7445 3.162485 0)
(13.91826 3.484877 0)
(12.57368 3.537817 -5.869076e-20)
(9.16871 2.896813 6.198274e-20)
(2.548333 -1.102456 0)
(-4.753561 -4.72143 0)
(-5.916725 -3.533802 0)
(-6.101302 -2.503985 9.626572e-18)
(-4.335218 -1.279375 -1.316304e-17)
(-2.267645 -0.5017711 4.797314e-18)
(-1.065414 -0.1328016 -3.676203e-18)
(-0.6694428 0.02665975 -9.736531e-20)
(-0.7153321 0.2534461 2.451642e-18)
(0.2895643 0.979997 2.076285e-18)
(1.40275 1.454439 3.095127e-20)
(1.537613 1.082204 2.254951e-21)
(1.135303 0.4982673 -3.167608e-20)
(0.4649044 -0.01860744 -4.414041e-20)
(-0.4476973 -0.7808357 3.148147e-18)
(-1.16675 -1.542644 0)
(-1.559905 -1.98647 3.834316e-18)
(-1.590672 -2.253344 -4.356527e-18)
(-1.127674 -2.702191 4.580247e-18)
(-1.308384 -4.611916 0)
(-1.981114 -6.279056 0)
(-2.054474 -6.037368 -7.048901e-20)
(-2.152057 -6.465474 -4.666109e-18)
(-2.061244 -6.728941 2.434844e-18)
(-1.867655 -6.736059 -2.307446e-18)
(-1.597147 -6.440994 0)
(-1.312621 -5.866159 0)
(-1.021431 -5.119298 0)
(-0.7494457 -4.25749 -7.007592e-19)
(-0.6098462 -3.183867 -2.913455e-19)
(-0.4599086 -1.969545 -2.205029e-19)
(-0.54484 -0.8349634 6.775005e-20)
(-0.630941 0.362349 0)
(-0.7005231 1.584058 -1.287943e-19)
(-0.6791881 2.631109 0)
(-0.6620222 3.409911 -1.397158e-19)
(-0.7715554 3.798463 0)
(-0.8702553 3.374598 0)
(0.7172636 1.323637 3.560717e-20)
(2.490398 -2.376968 -4.824041e-19)
(1.67626 -3.091242 8.524227e-19)
(0.6313828 -2.573703 -7.24893e-19)
(0.3556143 -1.556573 5.597529e-19)
(0.2349671 -0.9482753 0)
(0.1225016 -0.7145925 8.688202e-19)
(-0.5133991 0.06149656 4.209372e-19)
(-1.320166 0.9908435 4.037151e-19)
(-1.754451 1.663211 -1.206355e-20)
(-1.872347 2.046882 -4.396106e-21)
(-1.500702 2.085404 -4.414884e-21)
(-0.6473129 1.636974 -9.369247e-19)
(0.2015727 1.175255 -8.895645e-19)
(1.185425 -0.5395059 -3.592121e-20)
(0.1917288 -1.211728 -1.115238e-18)
(0.4439846 -1.340837 -8.655893e-19)
(0.6740118 -1.118282 -2.892973e-19)
(-0.4138119 -0.9550416 0)
(-2.498267 -0.3360582 7.339671e-21)
(-4.252281 0.590131 0)
(-5.19207 2.634349 8.258869e-18)
(-3.490131 4.29486 5.89986e-18)
(-0.70951 3.707681 1.956935e-18)
(8.13725 -1.269142 -6.450884e-20)
(13.81313 -3.409814 1.831727e-20)
(15.55461 -3.76279 -3.141707e-18)
(17.24143 -3.46557 0)
(18.28798 -1.903708 -1.098059e-18)
(18.54271 -0.2703748 -1.057638e-18)
(17.93037 0.2920921 9.358253e-19)
(17.23412 0.3791849 2.375611e-19)
(17.43435 0.737734 0)
(17.62734 1.278401 5.845154e-19)
(17.75121 1.921205 0)
(17.77436 2.594015 0)
(17.70087 3.263289 2.612212e-18)
(17.55045 3.946989 -3.987712e-20)
(17.33181 4.601505 4.738035e-20)
(17.04019 5.235857 -2.47013e-18)
(16.68374 5.825059 4.97918e-18)
(16.2684 6.390198 -4.752823e-18)
(15.81145 6.932743 -4.579415e-18)
(15.31432 7.41462 2.168642e-19)
(14.7621 7.85852 -1.329006e-19)
(14.16899 8.244627 -1.168652e-19)
(13.53486 8.586411 -3.352163e-18)
(12.8723 8.872558 -3.400597e-18)
(12.18302 9.097907 -8.897903e-20)
(11.47285 9.279471 2.821319e-18)
(10.75754 9.404869 0)
(10.03204 9.458568 2.065756e-18)
(9.291065 9.449904 1.715909e-18)
(8.5496 9.390082 1.310837e-18)
(7.822352 9.276265 1.016924e-18)
(7.108384 9.100091 0)
(6.407149 8.860259 0)
(5.719308 8.569635 -7.60283e-20)
(5.063025 8.213575 0)
(4.424103 7.807033 0)
(3.824453 7.348721 1.129932e-18)
(3.262899 6.844691 -2.159905e-20)
(2.741027 6.299723 -1.42805e-20)
(2.26211 5.714624 -3.273411e-20)
(1.833639 5.090192 2.270737e-18)
(1.455656 4.43082 0)
(1.135451 3.746494 0)
(0.8528088 3.054063 1.457696e-18)
(0.6499619 2.335612 7.316166e-19)
(0.4885191 1.608404 7.885742e-19)
(0.3890061 0.8908072 -4.080087e-19)
(0.3768564 0.1532123 0)
(0.4379808 -0.6157698 -4.201497e-22)
(0.5024328 -1.415618 2.416641e-20)
(0.6344401 -2.177314 7.256228e-19)
(0.8373526 -2.90567 -1.415966e-18)
(1.097376 -3.609148 -3.983799e-20)
(1.415514 -4.287103 1.212304e-18)
(1.784239 -4.934239 3.562065e-20)
(2.211964 -5.549503 1.903672e-18)
(2.673043 -6.137966 -1.2735e-20)
(3.183401 -6.676878 -1.336467e-18)
(3.745555 -7.171581 3.519635e-20)
(4.333189 -7.63285 0)
(4.953681 -8.039273 2.932816e-19)
(5.620796 -8.391004 0)
(6.306111 -8.703644 0)
(7.002186 -8.955292 -8.422371e-19)
(7.718764 -9.135731 2.375601e-18)
(8.449428 -9.262097 5.451287e-20)
(9.182706 -9.334102 -1.061457e-19)
(9.923165 -9.342244 -2.308584e-18)
(10.66109 -9.297757 -2.618704e-18)
(11.38608 -9.193971 3.135509e-18)
(12.09066 -9.027131 -3.404973e-18)
(12.77249 -8.798 -7.156658e-20)
(13.43703 -8.511351 0)
(14.07156 -8.182554 -4.435907e-18)
(14.67444 -7.795411 9.34834e-18)
(15.23608 -7.363339 -4.97371e-18)
(15.7539 -6.883278 0)
(16.23102 -6.359865 8.862606e-20)
(16.65672 -5.808165 -5.379692e-18)
(17.02378 -5.21551 -8.59348e-20)
(17.32779 -4.589936 1.36362e-19)
(17.56766 -3.933619 -8.980186e-20)
(17.73714 -3.264465 0)
(17.82309 -2.594191 -2.870701e-18)
(17.81491 -1.929186 1.379761e-18)
(17.72848 -1.317436 6.79587e-19)
(17.56341 -0.8169897 -1.047882e-20)
(17.707 -0.5275129 3.129199e-19)
(18.64809 -0.3249466 6.113562e-19)
(19.04256 0.7082316 0)
(18.65107 2.512522 1.626074e-18)
(17.562 3.701982 -7.69006e-20)
(16.12855 3.933022 2.31586e-18)
(14.72818 3.778786 0)
(11.30698 2.752056 0)
(3.241983 -1.890816 0)
(-2.07493 -4.274022 1.077051e-19)
(-3.832177 -2.728228 9.495004e-18)
(-4.182517 -1.300794 -8.484821e-18)
(-2.800962 0.006629794 5.755826e-18)
(-0.8200711 0.6807997 -7.834687e-18)
(0.4258273 0.970776 3.078923e-18)
(0.5470374 0.8641724 0)
(-0.2112184 0.6841829 -2.032597e-18)
(-0.1043017 0.7821408 -1.690327e-18)
(0.8277716 1.007595 1.637994e-18)
(1.288349 0.7924192 -4.909604e-20)
(1.272776 0.5337448 -6.059228e-20)
(0.6926475 0.007567161 6.151914e-20)
(-0.3985048 -1.0335 0)
(-1.39706 -2.134735 -2.855777e-18)
(-2.089569 -2.967854 1.047937e-19)
(-2.342966 -3.728834 6.940548e-18)
(-1.968165 -4.618473 -3.736627e-18)
(-1.6615 -5.680786 2.08991e-19)
(-1.834906 -6.068842 -3.526095e-18)
(-1.978776 -5.992049 0)
(-2.071617 -6.518044 -3.829881e-18)
(-2.003586 -6.743866 1.998676e-18)
(-1.872182 -6.743101 -1.172569e-19)
(-1.662957 -6.440082 1.871257e-18)
(-1.415723 -5.860105 -7.520449e-20)
(-1.140672 -5.099169 2.312857e-20)
(-0.878493 -4.237543 5.818254e-19)
(-0.7950102 -3.194755 -3.180442e-21)
(-0.6380789 -2.026626 2.747333e-21)
(-0.7490858 -0.8468704 2.940279e-21)
(-0.8405089 0.3544149 7.403573e-20)
(-0.8870645 1.582593 1.050993e-19)
(-0.8284192 2.633745 -7.920681e-20)
(-0.7515922 3.332367 1.14359e-19)
(-0.7158347 3.751404 0)
(-0.5941777 3.361173 -1.883445e-20)
(1.420818 0.7396844 -2.992328e-20)
(2.790626 -2.130325 3.958947e-19)
(1.561064 -2.785079 0)
(0.3011093 -2.402937 0)
(0.07143485 -1.448163 -4.598087e-19)
(-0.2242271 -0.3283143 -1.129329e-20)
(-0.4467434 0.07936407 -3.438453e-19)
(-1.097416 0.6766943 -3.450076e-19)
(-1.743303 1.322463 -3.343023e-19)
(-2.047207 1.899084 3.314045e-19)
(-2.101103 2.316747 -2.619742e-19)
(-1.661932 2.440597 8.480538e-21)
(-0.7599946 1.994979 3.684683e-19)
(0.1470308 1.455184 0)
(0.4505944 0.3090647 0)
(-0.01506095 -0.9292298 9.740083e-19)
(1.286607 -1.830074 0)
(1.859873 -1.906537 -3.208736e-21)
(0.9636181 -2.089312 -3.247497e-20)
(-0.5929933 -1.769281 -1.659528e-18)
(-1.74047 -1.167634 -9.323345e-20)
(-2.447214 1.497206 1.474708e-19)
(-0.1156626 3.313307 -5.104604e-18)
(1.987444 3.709001 1.896234e-19)
(10.6244 -0.8044697 2.442178e-19)
(14.58458 -2.970096 -2.986597e-20)
(15.48462 -3.483291 1.356949e-18)
(17.25865 -3.312887 -4.765511e-20)
(18.29745 -1.987384 3.834765e-18)
(18.12182 -0.4763649 2.750923e-20)
(17.39146 0.1309624 -3.026736e-21)
(17.24782 0.254568 -4.13974e-19)
(17.46793 0.5672413 -3.430609e-21)
(17.65621 1.025852 -4.821017e-19)
(17.7858 1.609376 -3.146193e-20)
(17.81293 2.245775 -9.79449e-19)
(17.73806 2.89352 2.03405e-18)
(17.58612 3.575718 -2.036439e-18)
(17.37342 4.222116 3.943369e-18)
(17.08389 4.87408 2.161901e-18)
(16.72941 5.478631 0)
(16.3126 6.062792 0)
(15.85585 6.627629 3.713646e-18)
(15.35927 7.129496 3.548114e-18)
(14.80718 7.591921 0)
(14.21675 7.990167 -9.381043e-20)
(13.58264 8.346606 3.039939e-18)
(12.91721 8.652503 2.709815e-18)
(12.22878 8.890148 2.377787e-18)
(11.52444 9.077686 -6.329016e-20)
(10.81096 9.215994 -1.809631e-18)
(10.08277 9.286125 4.606112e-20)
(9.346472 9.283732 -4.64956e-20)
(8.613285 9.227949 -1.105945e-18)
(7.888896 9.123963 7.817529e-19)
(7.171207 8.963371 0)
(6.47798 8.728214 0)
(5.79267 8.447993 1.493547e-19)
(5.145127 8.098179 -8.613042e-21)
(4.51066 7.700503 -8.262588e-21)
(3.926215 7.246789 -8.71403e-19)
(3.372529 6.750072 -2.27711e-18)
(2.843436 6.221393 1.30364e-18)
(2.36684 5.647372 -1.58781e-18)
(1.942895 5.031953 -8.885619e-19)
(1.57373 4.378711 -3.048537e-20)
(1.261024 3.696364 0)
(0.970919 3.014663 -1.137919e-18)
(0.7799968 2.301904 -3.820849e-20)
(0.6141703 1.575955 -6.558336e-19)
(0.5136623 0.8646191 3.49667e-19)
(0.5087464 0.1335288 3.564885e-25)
(0.5810637 -0.6057026 -3.489161e-19)
(0.6319609 -1.396432 2.990692e-20)
(0.7591952 -2.147347 -6.323355e-19)
(0.9545372 -2.861382 1.160013e-18)
(1.209248 -3.553654 -1.118634e-18)
(1.523821 -4.222825 2.633135e-21)
(1.888654 -4.860586 9.235301e-19)
(2.320731 -5.465045 -1.515493e-18)
(2.772645 -6.04801 1.308036e-18)
(3.271784 -6.581568 1.000517e-18)
(3.834642 -7.067513 8.169563e-21)
(4.429611 -7.516494 8.603771e-21)
(5.041939 -7.916468 -2.285348e-19)
(5.691973 -8.269856 -1.837054e-20)
(6.377183 -8.574293 1.536289e-20)
(7.071711 -8.816388 6.059531e-19)
(7.779997 -8.990993 -1.905987e-18)
(8.502543 -9.11403 1.240853e-18)
(9.24047 -9.168912 -5.286753e-20)
(9.977875 -9.167647 -1.857653e-18)
(10.70791 -9.119715 4.31021e-18)
(11.43277 -9.003227 7.984961e-20)
(12.1341 -8.826635 2.641251e-18)
(12.81582 -8.582274 -3.083306e-18)
(13.48194 -8.279587 9.571152e-20)
(14.11507 -7.938404 -3.507723e-18)
(14.71824 -7.533303 -3.588343e-18)
(15.2788 -7.085979 1.237185e-19)
(15.79759 -6.583753 -4.13136e-18)
(16.27492 -6.039278 4.266527e-18)
(16.70008 -5.469044 0)
(17.06495 -4.859781 0)
(17.36513 -4.217392 2.316792e-18)
(17.60123 -3.561009 2.315858e-18)
(17.77203 -2.898756 0)
(17.85986 -2.246579 1.229383e-18)
(17.85202 -1.620065 1.118438e-18)