/*--------------------------------*- C++ -*----------------------------------*\
| =========                 |                                                 |
| \\      /  F ield         | OpenFOAM: The Open Source CFD Toolbox           |
|  \\    /   O peration     | Version:  2406                                  |
|   \\  /    A nd           | Website:  www.openfoam.com                      |
|    \\/     M anipulation  |                                                 |
\*---------------------------------------------------------------------------*/
FoamFile
{
    version     2.0;
    format      ascii;
    arch        "LSB;label=32;scalar=64";
    class       volVectorField;
    location    "1.58";
    object      U;
}
// * * * * * * * * * * * * * * * * * * * * * * * * * * * * * * * * * * * * * //

dimensions      [0 1 -1 0 0 0 0];

internalField   nonuniform List<vector> 
15536
(
(0.3362317 -8.853484 -1.506746e-21)
(0.6202923 -8.131984 -9.289504e-19)
(0.8424964 -7.328375 -1.611392e-18)
(1.007887 -6.542226 -1.364875e-18)
(1.099889 -5.716054 -1.758431e-20)
(1.08589 -4.728642 1.087463e-20)
(0.9579922 -3.59819 8.48663e-21)
(0.7522293 -2.481439 -8.630212e-21)
(0.5313342 -1.549148 1.375253e-18)
(0.2919495 -0.8062445 1.056679e-18)
(-0.01465363 -0.06295565 0)
(-0.08798906 0.1705557 0)
(0.8071722 -1.310605 -4.987032e-21)
(1.766396 -2.714018 1.304744e-18)
(2.313207 -3.367609 5.184166e-19)
(2.3918 -3.273543 -1.506755e-19)
(2.066752 -2.654676 -6.454434e-19)
(1.479162 -1.810892 -1.129125e-20)
(1.037186 -1.187516 2.354956e-20)
(1.13347 -1.15096 -1.20394e-20)
(1.858572 -1.625575 0)
(1.797509 -1.525543 -1.319273e-18)
(-0.1547147 -0.003324535 0)
(-2.396932 1.626913 1.001295e-18)
(-4.157849 2.75371 -1.710501e-20)
(-5.458653 3.391978 -4.421277e-20)
(-5.960208 3.495804 4.436427e-20)
(-5.11846 2.985552 -3.904984e-18)
(1.845824 -0.466208 -4.278029e-20)
(6.340709 -2.690165 0)
(1.651821 -0.7797485 -1.200536e-21)
(-1.453157 0.3287634 -6.17268e-19)
(-3.036011 0.7444326 1.231457e-18)
(-5.455136 1.172253 0)
(-8.256595 1.585082 -4.462575e-18)
(-10.20611 1.871877 -2.491786e-20)
(-5.685201 1.078973 3.11813e-18)
(1.398348 -0.06336468 -1.012686e-18)
(-0.3417665 -0.2310379 1.133261e-21)
(1.549464 0.08559321 -2.845845e-19)
(6.96591 0.6746621 1.112559e-18)
(10.21312 1.33617 -1.849304e-20)
(11.90447 1.986258 1.805651e-20)
(12.78204 2.639429 0)
(13.26763 3.302509 -4.822239e-18)
(13.50447 3.941218 -4.843165e-18)
(13.54014 4.541037 0)
(13.44428 5.105809 -9.348232e-18)
(13.23842 5.633472 9.153142e-18)
(12.96482 6.13158 8.847778e-18)
(12.63376 6.593338 3.217624e-20)
(12.23836 7.011704 -7.994783e-18)
(11.78782 7.382282 0)
(11.2918 7.706535 0)
(10.75979 7.980901 6.305063e-18)
(10.19044 8.197216 5.701602e-18)
(9.601551 8.365567 3.666032e-20)
(8.999991 8.484448 4.275919e-18)
(8.374102 8.536256 7.214926e-18)
(7.736419 8.528581 2.883473e-18)
(7.095051 8.464364 2.099771e-18)
(6.463195 8.352474 -1.378719e-20)
(5.838332 8.183831 0)
(5.218287 7.952179 -1.456809e-19)
(4.615656 7.673317 0)
(4.029429 7.33326 1.674659e-18)
(3.466859 6.938943 -3.002547e-20)
(2.937786 6.500144 -2.580325e-21)
(2.441927 6.014556 1.348504e-20)
(1.983964 5.48698 -4.418317e-18)
(1.569417 4.925295 -2.056874e-20)
(1.199085 4.326828 2.80588e-18)
(0.8746276 3.69259 3.039311e-18)
(0.601279 3.036673 0)
(0.3789375 2.365953 0)
(0.2116436 1.676909 3.566624e-18)
(0.09574564 0.978933 -9.488314e-23)
(0.03473418 0.3038023 9.518589e-19)
(0.02311369 -0.3397272 1.734605e-21)
(0.06514866 -1.053863 -7.041191e-21)
(0.157239 -1.819207 -1.735321e-18)
(0.3082957 -2.571703 0)
(0.516002 -3.294523 3.058634e-18)
(0.7766871 -3.985901 0)
(1.088613 -4.64563 -2.506371e-18)
(1.449615 -5.273215 2.167568e-18)
(1.858598 -5.867315 1.578515e-20)
(2.312283 -6.427037 2.998578e-18)
(2.807883 -6.944331 7.180979e-21)
(3.341057 -7.417374 -1.468262e-18)
(3.909094 -7.847543 -6.308406e-19)
(4.509506 -8.228948 1.366432e-21)
(5.140472 -8.56459 1.127328e-18)
(5.791995 -8.850596 -2.026543e-18)
(6.460205 -9.081471 2.632318e-20)
(7.134143 -9.243789 7.155689e-21)
(7.819281 -9.352895 -4.706378e-18)
(8.511247 -9.408888 0)
(9.201174 -9.403381 1.28253e-17)
(9.891985 -9.347726 7.201664e-18)
(10.56359 -9.227342 1.208801e-19)
(11.21243 -9.044787 -8.988992e-18)
(11.83478 -8.803374 0)
(12.42975 -8.507196 0)
(12.99647 -8.164671 0)
(13.52619 -7.77353 0)
(14.00902 -7.334758 1.248001e-17)
(14.44199 -6.852245 1.315874e-17)
(14.82584 -6.330727 2.694419e-20)
(15.15533 -5.77774 -1.413215e-17)
(15.41214 -5.18956 -7.220429e-18)
(15.59489 -4.574461 -7.472518e-18)
(15.64603 -3.926532 5.852038e-20)
(15.53872 -3.249975 7.660504e-18)
(15.25282 -2.556 3.956503e-18)
(14.72885 -1.858499 -3.063069e-20)
(13.78019 -1.195046 -7.493919e-21)
(11.94877 -0.6118869 4.930916e-19)
(8.126373 -0.1509825 -9.722333e-19)
(2.405312 0.09964362 -2.442357e-20)
(-8.219199e-05 0.01143209 1.710108e-20)
(-3.357412 -0.8680862 4.826358e-18)
(-7.764609 -1.863099 3.825959e-20)
(-8.020162 -1.98529 0)
(-5.53674 -1.393776 -7.11325e-18)
(-3.027257 -0.7910472 -6.084319e-18)
(-0.7422209 -0.04130968 -7.868666e-21)
(4.034649 1.922797 6.998395e-18)
(7.074031 3.237374 -5.321751e-18)
(-0.8953829 -1.058366 0)
(-8.86702 -5.586614 0)
(-9.724011 -6.175717 -1.811061e-17)
(-7.678249 -5.158634 0)
(-5.455305 -3.985245 7.390909e-20)
(-3.838304 -3.030452 -8.70961e-18)
(-2.480335 -2.088763 -7.238769e-18)
(-1.135247 -0.9813256 4.286352e-20)
(0.4630595 0.5378981 -9.7042e-18)
(1.956638 2.141458 -6.497098e-20)
(2.545145 2.969867 8.027852e-18)
(2.341812 2.991352 4.437989e-18)
(2.238393 3.141955 4.990218e-18)
(2.595889 3.958665 5.687385e-18)
(2.92615 4.619113 0)
(1.659278 2.592379 -2.561355e-20)
(-0.7637949 -1.535711 -6.804878e-18)
(0.005646414 0.4219904 0)
(0.8779708 2.459712 8.155778e-18)
(1.247232 3.374724 -6.934294e-20)
(0.6755131 1.960132 3.586668e-20)
(-0.4600366 -2.669235 4.80542e-18)
(-1.121952 -6.653338 5.984358e-21)
(-1.246744 -8.689871 0)
(-1.06362 -9.505211 2.567267e-18)
(-0.7305924 -9.753651 2.006199e-20)
(-0.3618103 -9.662859 4.642871e-21)
(0.002197148 -9.377202 -6.376569e-21)
(-0.01313461 -9.337392 -4.337818e-19)
(0.3185083 -8.55076 7.579035e-19)
(0.5911145 -7.693302 0)
(0.8058101 -6.852124 1.114505e-18)
(0.932146 -5.963201 0)
(0.9379096 -4.908361 2.817121e-18)
(0.8223003 -3.703101 6.894597e-21)
(0.6164019 -2.48706 -7.022271e-21)
(0.3782941 -1.407289 -1.128078e-18)
(0.1055117 -0.5367157 -8.715526e-19)
(-0.0698824 0.01814121 0)
(0.5681216 -0.8528441 4.015702e-21)
(1.787195 -2.838549 4.719003e-23)
(2.316586 -3.63107 -5.211349e-19)
(2.37985 -3.623735 -8.562103e-19)
(2.288383 -3.328895 6.413697e-20)
(1.892045 -2.620508 5.200496e-19)
(1.35402 -1.789069 6.342565e-21)
(1.496516 -1.644785 0)
(2.443794 -2.369032 0)
(2.887821 -2.634439 0)
(1.646242 -1.68558 -1.058126e-18)
(-0.6328727 0.01417265 5.857897e-22)
(-2.705221 1.571172 -5.753271e-22)
(-4.341843 2.65448 2.817965e-20)
(-5.506855 3.196926 -2.762594e-20)
(-5.897146 3.25536 0)
(-6.439722 3.831792 0)
(0.8568712 0.5901296 9.707955e-20)
(7.338333 -3.221995 -1.063888e-20)
(2.78295 -1.534622 1.013587e-20)
(0.9971979 -0.6094297 5.076543e-19)
(0.1816957 -0.3157289 1.048452e-18)
(-1.538628 -0.06467491 -2.335757e-20)
(-3.614032 0.2217173 -3.803692e-18)
(-6.876964 1.183443 2.98455e-18)
(-6.813168 1.469016 -5.337119e-21)
(0.8562052 0.2963002 7.398538e-19)
(7.41396 0.06829559 0)
(11.65713 0.6781683 1.896614e-19)
(15.66818 1.196594 1.536629e-18)
(16.8535 1.61084 1.678877e-18)
(17.12745 2.106269 1.782512e-18)
(17.12467 2.694268 -5.725102e-20)
(16.9978 3.324991 3.827416e-18)
(16.78991 3.949205 -2.936712e-20)
(16.52192 4.571738 0)
(16.19546 5.173342 7.442102e-18)
(15.82117 5.756301 0)
(15.40583 6.314376 -5.31299e-20)
(14.93455 6.829175 5.323854e-20)
(14.40737 7.29805 6.381141e-18)
(13.83105 7.714811 -4.445806e-20)
(13.21322 8.079151 5.514841e-18)
(12.56199 8.386469 -5.071349e-18)
(11.88061 8.634275 0)
(11.17922 8.830479 2.885069e-20)
(10.46496 8.970702 -3.508659e-18)
(9.734132 9.042517 -5.72392e-18)
(8.991544 9.047314 0)
(8.249306 8.99475 -1.686776e-18)
(7.516453 8.886272 -5.842817e-21)
(6.794036 8.714751 4.341923e-19)
(6.083201 8.479258 -3.66291e-21)
(5.390033 8.185979 3.706594e-21)
(4.720243 7.830945 -1.359187e-18)
(4.076728 7.418348 1.957146e-18)
(3.469973 6.952886 0)
(2.90112 6.439681 0)
(2.375315 5.882856 -1.642626e-20)
(1.896932 5.284205 0)
(1.468861 4.64516 0)
(1.093058 3.968709 0)
(0.7744608 3.265516 -2.685253e-18)
(0.5115206 2.547113 2.145336e-20)
(0.3154878 1.806838 1.170327e-20)
(0.1752186 1.058194 -5.749228e-21)
(0.09846524 0.3294931 -7.82057e-19)
(0.08484936 -0.3701378 3.101573e-21)
(0.145757 -1.136889 -7.505764e-19)
(0.2575052 -1.952934 1.412996e-18)
(0.4384267 -2.754721 1.07051e-20)
(0.683845 -3.524881 -2.477994e-18)
(0.9887875 -4.263225 -3.578283e-20)
(1.352289 -4.96958 2.074955e-18)
(1.770564 -5.638584 -1.804687e-18)
(2.243932 -6.27035 0)
(2.765068 -6.864927 -4.899591e-18)
(3.332758 -7.408825 -1.195065e-20)
(3.944058 -7.905831 1.191691e-18)
(4.593267 -8.35922 5.175712e-19)
(5.278066 -8.755792 0)
(5.996907 -9.098986 0)
(6.740751 -9.393406 0)
(7.503028 -9.621055 2.074086e-20)
(8.278294 -9.77862 -2.059665e-20)
(9.066114 -9.877466 3.705279e-18)
(9.861054 -9.915844 5.788131e-21)
(10.65915 -9.889704 -5.187356e-18)
(11.45474 -9.804139 -7.970328e-20)
(12.23741 -9.654234 1.299242e-17)
(12.99899 -9.437046 7.151076e-18)
(13.73523 -9.155595 -5.792389e-20)
(14.44897 -8.816503 8.225566e-18)
(15.13555 -8.424186 6.697572e-20)
(15.78644 -7.974559 -7.552976e-20)
(16.39429 -7.473174 7.519285e-20)
(16.95559 -6.922562 8.243388e-20)
(17.47031 -6.329321 1.08162e-17)
(17.93411 -5.697986 -8.525106e-20)
(18.3342 -5.030505 0)
(18.67013 -4.3316 0)
(18.97325 -3.617451 0)
(19.2281 -2.898129 0)
(19.41503 -2.180573 2.336439e-20)
(19.51788 -1.469412 -2.327699e-20)
(19.49526 -0.7999233 1.441992e-18)
(19.27009 -0.2724293 5.513743e-21)
(17.91875 0.06587546 0)
(13.70392 0.2997491 -1.380611e-18)
(6.548535 0.2441307 3.078227e-18)
(-4.248617 -1.033731 -3.815366e-18)
(-4.800822 -1.213814 6.706084e-20)
(-1.487897 -0.08212629 -8.476978e-18)
(0.3100754 0.5199832 5.225982e-20)
(1.688259 0.875355 0)
(2.680297 1.389566 7.963238e-18)
(5.336307 2.747713 -1.086755e-17)
(7.505192 3.199688 -4.079476e-18)
(-4.409263 -3.594305 4.261637e-20)
(-10.0003 -6.273913 -2.08783e-19)
(-9.130332 -5.35631 1.192495e-19)
(-7.330868 -4.414947 0)
(-5.271859 -3.480585 8.618492e-18)
(-3.710849 -2.661699 6.991322e-18)
(-2.452492 -1.834072 9.349783e-21)
(-1.242895 -0.8054893 -4.904079e-18)
(0.2478285 0.6898472 7.734213e-18)
(2.064467 2.625001 3.139524e-18)
(3.321338 4.060162 -9.221929e-21)
(3.222711 4.125563 -3.55236e-18)
(2.529429 3.624921 -3.000622e-20)
(2.503795 4.093755 -4.617424e-18)
(3.068701 4.94853 4.409402e-20)
(2.847696 4.284518 9.646275e-21)
(0.0151023 -0.3216673 -3.420855e-20)
(0.5383232 1.964353 0)
(0.892468 2.753011 0)
(1.314787 3.475885 -7.464006e-18)
(-0.09721589 -1.840254 0)
(-1.583851 -8.042001 -6.90229e-18)
(-2.080606 -10.32194 3.772424e-18)
(-1.966839 -10.55392 -3.196725e-20)
(-1.63353 -10.55118 3.233084e-20)
(-1.231581 -10.49149 2.087023e-18)
(-0.8115358 -10.3256 -1.019703e-18)
(-0.3973005 -9.938348 -4.620205e-19)
(0.1085356 -9.273869 3.483644e-19)
(0.3795278 -8.489517 -6.168008e-19)
(0.6144444 -7.638074 1.535085e-20)
(0.8037652 -6.80918 -9.295279e-19)
(0.8924744 -5.940157 0)
(0.8562382 -4.908157 -2.294342e-18)
(0.7127039 -3.719949 -1.12289e-20)
(0.4936047 -2.502702 6.188519e-19)
(0.2577199 -1.393429 9.214663e-19)
(0.05067868 -0.5534761 7.147663e-19)
(0.3208352 -0.6838412 5.571636e-19)
(1.24514 -1.831908 -3.676417e-21)
(2.067166 -3.12436 0)
(2.145481 -3.259965 0)
(2.267611 -3.383736 3.501315e-19)
(2.214755 -3.23965 5.25239e-20)
(1.740973 -2.551352 -4.284431e-19)
(1.122439 -1.601591 -1.049539e-20)
(1.415245 -1.425284 0)
(2.686044 -2.517175 -9.81346e-19)
(2.827638 -2.642623 -8.527252e-19)
(1.151139 -1.549853 8.54062e-19)
(-1.042993 -0.02104495 0)
(-2.882736 1.429456 6.512849e-19)
(-4.277975 2.446409 0)
(-5.186297 2.915542 -3.608793e-18)
(-5.498042 3.089997 0)
(-5.345869 3.67656 -2.596032e-18)
(-0.4942407 2.010699 -1.942262e-19)
(6.822507 -2.890875 0)
(4.554923 -2.330263 0)
(4.400913 -1.693907 -2.523011e-21)
(4.137676 -1.4801 -7.999698e-19)
(2.989017 -1.333897 1.532308e-18)
(1.09388 -0.8816477 6.517329e-18)
(-0.8672627 0.2284645 -2.715545e-18)
(-4.768482 1.417171 2.052908e-18)
(4.937646 0.7112223 -5.510437e-19)
(13.93532 0.5662511 0)
(16.24526 1.107284 0)
(16.93287 1.522542 -1.230315e-18)
(16.6724 1.93505 -1.39626e-18)
(16.64441 2.518301 -2.906746e-18)
(16.59048 3.162729 2.986507e-18)
(16.48567 3.821256 7.224914e-20)
(16.31408 4.465712 -4.851903e-20)
(16.07646 5.086597 0)
(15.76669 5.671507 0)
(15.39482 6.228258 5.847331e-18)
(14.9756 6.755881 -5.659549e-18)
(14.50553 7.238816 0)
(13.9812 7.675859 0)
(13.41134 8.059322 7.284796e-20)
(12.8018 8.391828 -4.598016e-18)
(12.16184 8.666786 0)
(11.49493 8.881214 -3.629156e-18)
(10.8091 9.046376 -3.202549e-18)
(10.11323 9.156517 -2.720304e-18)
(9.404521 9.197616 2.294976e-18)
(8.68412 9.174255 -2.457733e-20)
(7.965096 9.096686 1.323686e-18)
(7.256151 8.965665 0)
(6.560094 8.772407 -3.528182e-19)
(5.877396 8.51674 6.391681e-21)
(5.211685 8.206378 7.650089e-21)
(4.573709 7.833877 -1.185466e-18)
(3.958742 7.408322 0)
(3.379962 6.932196 -2.124471e-18)
(2.837346 6.411203 -2.146394e-20)
(2.338048 5.848492 2.987936e-18)
(1.883536 5.246732 1.692475e-18)
(1.477752 4.606468 -1.872745e-18)
(1.121338 3.930795 -2.040252e-18)
(0.8189382 3.229634 2.184347e-18)
(0.5671365 2.515175 -2.317209e-18)
(0.38361 1.778388 -1.179142e-18)
(0.2462429 1.034346 2.469885e-18)
(0.1679942 0.3104229 1.278922e-18)
(0.1549547 -0.3875014 2.562467e-21)
(0.2266068 -1.144891 6.211332e-19)
(0.3329935 -1.94952 -9.240674e-21)
(0.5043813 -2.740026 0)
(0.7358082 -3.501529 -1.543729e-20)
(1.021803 -4.234207 -1.285018e-20)
(1.364008 -4.936957 -1.643834e-18)
(1.756995 -5.604828 2.964729e-18)
(2.206603 -6.236528 -1.267305e-18)
(2.699116 -6.834835 1.989508e-18)
(3.236109 -7.384942 1.381614e-20)
(3.818727 -7.889655 0)
(4.436688 -8.354829 4.77445e-19)
(5.089863 -8.765413 -6.078518e-21)
(5.779284 -9.123876 6.541539e-19)
(6.493454 -9.437308 0)
(7.225092 -9.68705 1.825965e-18)
(7.973003 -9.867459 0)
(8.734187 -9.992267 -5.38023e-20)
(9.502457 -10.05964 3.566308e-18)
(10.27801 -10.06237 0)
(11.05059 -10.00983 -4.768462e-18)
(11.81247 -9.89486 -5.331637e-18)
(12.55568 -9.713735 -5.862879e-18)
(13.27561 -9.468865 0)
(13.97702 -9.165251 -1.374729e-17)
(14.65324 -8.81011 1.100163e-19)
(15.29665 -8.396973 0)
(15.89965 -7.932758 0)
(16.45885 -7.418278 0)
(16.97506 -6.859015 8.774443e-18)
(17.44057 -6.26554 -9.090725e-18)
(17.84697 -5.633404 0)
(18.18964 -4.964804 0)
(18.4668 -4.269734 4.811534e-18)
(18.68392 -3.549536 3.840721e-20)
(18.83246 -2.810316 0)
(18.90478 -2.06586 0)
(18.91111 -1.330085 -2.408386e-18)
(18.94981 -0.6684174 2.855063e-19)
(19.25442 -0.1847677 0)
(18.90085 0.1658627 9.946309e-19)
(14.75908 0.2174656 5.747251e-20)
(3.912698 -0.3926941 3.592386e-21)
(1.40903 0.3389203 -5.595932e-20)
(5.260624 1.948993 6.313696e-18)
(7.241983 2.667663 4.471901e-18)
(7.87448 2.892822 6.446916e-20)
(7.674871 3.140147 4.106258e-20)
(7.211513 3.495517 4.40401e-18)
(5.859891 1.826833 3.164257e-18)
(-5.179143 -4.884004 0)
(-7.721768 -5.385969 1.261438e-17)
(-7.822158 -4.487972 0)
(-6.101614 -3.300318 -1.224404e-19)
(-4.27593 -2.547003 -7.024885e-18)
(-2.95028 -1.882624 8.285365e-20)
(-1.952693 -1.229645 -8.47478e-20)
(-1.061039 -0.4072391 4.041436e-18)
(0.0535781 0.8300503 -3.121237e-18)
(1.71282 2.588551 -2.52937e-18)
(3.186437 4.026765 -2.677646e-18)
(3.258652 4.067017 -2.875829e-18)
(2.456776 3.444741 0)
(2.374199 4.023356 3.954049e-21)
(2.851124 4.541189 0)
(3.251717 4.512319 -4.409721e-18)
(1.15784 1.614152 4.32496e-18)
(0.7026211 2.584455 0)
(0.5328155 1.960334 0)
(0.5482594 0.05045854 1.164124e-17)
(-0.9029127 -6.415332 -2.574054e-18)
(-1.757437 -10.01934 5.403498e-18)
(-1.819003 -10.13968 -2.487935e-20)
(-1.625618 -10.26182 2.568937e-20)
(-1.302462 -10.45018 0)
(-0.9414869 -10.45439 -1.714884e-18)
(-0.5648263 -10.26769 1.641633e-18)
(-0.2107633 -9.878241 3.833276e-19)
(-0.05963558 -9.212964 -5.713913e-19)
(0.2201807 -8.442885 -1.458396e-20)
(0.4695673 -7.601362 1.476182e-20)
(0.6764947 -6.782874 -2.102403e-20)
(0.7670263 -5.931722 2.13398e-20)
(0.7201872 -4.923446 9.368054e-19)
(0.5697467 -3.757998 -9.161743e-21)
(0.3564419 -2.556662 -4.993852e-19)
(0.1649539 -1.473275 1.391188e-20)
(0.1565421 -0.8226833 -5.769207e-19)
(0.8154956 -1.474331 -1.456697e-20)
(1.648535 -2.324147 0)
(2.006486 -2.88492 0)
(2.044172 -3.038329 -3.573066e-19)
(2.282269 -3.399345 -2.913585e-19)
(2.15776 -3.262074 -7.743716e-20)
(1.622267 -2.596576 3.564592e-19)
(0.9302392 -1.526496 0)
(1.076099 -0.9104912 0)
(2.339742 -2.046096 1.627321e-18)
(2.384201 -2.365171 1.419748e-18)
(0.5859494 -1.455098 -8.545864e-21)
(-1.389228 -0.1429581 7.173347e-21)
(-2.953946 1.188314 -1.07488e-18)
(-4.108808 2.156799 -1.88243e-18)
(-4.788389 2.57001 3.033589e-18)
(-5.030286 2.829053 3.517898e-18)
(-4.336418 3.465955 2.073299e-18)
(-1.474566 3.37569 1.340209e-19)
(6.075102 -2.183585 0)
(6.393611 -2.918623 -2.303295e-21)
(7.476623 -2.57975 -6.299046e-19)
(7.783708 -2.527678 4.072379e-23)
(7.198494 -2.563334 1.846903e-20)
(5.786276 -2.197782 -2.452647e-18)
(3.162157 -0.9684394 -2.096951e-18)
(0.9228753 1.154408 -2.598225e-20)
(10.861 1.301238 -4.073807e-19)
(16.78806 0.9127661 -2.018618e-19)
(16.53154 1.013668 -1.725569e-21)
(16.47156 1.268721 0)
(16.53785 1.602506 -1.800933e-20)
(16.70674 2.119299 1.223043e-18)
(16.74275 2.708433 -4.934002e-18)
(16.6819 3.343241 3.912875e-20)
(16.53105 3.97837 -2.540437e-18)
(16.29587 4.603797 -7.74891e-20)
(15.98938 5.195163 -4.872744e-18)
(15.62068 5.761453 -1.443378e-20)
(15.20293 6.307275 4.669678e-18)
(14.73565 6.805883 -4.380368e-18)
(14.21317 7.262521 0)
(13.64454 7.665556 5.87026e-20)
(13.03418 8.020363 -5.903998e-20)
(12.39126 8.319537 0)
(11.71957 8.559117 2.990303e-18)
(11.02792 8.749219 6.719257e-20)
(10.32502 8.884248 2.273827e-18)
(9.609318 8.949052 -1.821252e-18)
(8.883272 8.946097 -1.422836e-18)
(8.155086 8.890378 -1.068992e-18)
(7.43774 8.779707 -6.240723e-19)
(6.733642 8.605205 5.09821e-22)
(6.041558 8.3677 -5.148492e-22)
(5.365837 8.075161 0)
(4.718474 7.71877 9.625094e-19)
(4.093524 7.30847 -2.428014e-20)
(3.505751 6.845934 1.769528e-18)
(2.954687 6.337187 2.085993e-18)
(2.449322 5.784891 -2.42235e-18)
(1.988689 5.192772 -1.388855e-18)
(1.57767 4.561275 -3.522335e-21)
(1.216509 3.893816 1.673246e-18)
(0.9122259 3.199455 2.858967e-20)
(0.6562623 2.491892 1.856044e-18)
(0.473679 1.759283 1.546297e-20)
(0.3340136 1.017962 -1.031663e-18)
(0.252533 0.2967447 -5.208636e-19)
(0.2388911 -0.4056705 -6.346815e-23)
(0.3228605 -1.154258 4.927859e-19)
(0.4291397 -1.94713 7.566806e-21)
(0.6000069 -2.726692 -9.005405e-19)
(0.8337441 -3.478517 1.681996e-18)
(1.122583 -4.201203 0)
(1.468367 -4.892981 -3.951845e-21)
(1.865049 -5.549109 -1.220124e-18)
(2.321052 -6.16835 1.067063e-18)
(2.818459 -6.75472 -1.720503e-18)
(3.36527 -7.289973 1.674363e-20)
(3.959189 -7.779393 -1.658496e-20)
(4.583769 -8.231098 -3.923946e-19)
(5.247265 -8.624771 0)
(5.951306 -8.963665 -5.447531e-19)
(6.673157 -9.261092 3.110469e-20)
(7.413791 -9.491821 -6.821594e-20)
(8.172502 -9.650994 -1.89052e-18)
(8.942801 -9.754794 -2.482309e-18)
(9.719523 -9.799882 -1.443451e-20)
(10.50295 -9.779086 3.334596e-18)
(11.28436 -9.700792 -5.601726e-20)
(12.05251 -9.560733 -4.256022e-18)
(12.80144 -9.352677 0)
(13.52811 -9.078356 5.104671e-18)
(14.23336 -8.747957 5.584802e-18)
(14.90944 -8.369907 5.775911e-18)
(15.55208 -7.932712 -6.130511e-18)
(16.15277 -7.446087 6.555001e-18)
(16.70921 -6.909115 0)
(17.22219 -6.327995 -1.436647e-17)
(17.68358 -5.717483 1.500888e-17)
(18.0849 -5.067917 -1.779943e-19)
(18.42145 -4.387722 -3.870247e-18)
(18.69605 -3.678361 -3.944696e-18)
(18.90034 -2.958905 0)
(19.02446 -2.239516 2.04343e-18)
(19.05554 -1.523592 -2.030858e-18)
(18.97826 -0.8515179 9.999476e-19)
(18.80348 -0.2814374 -2.458184e-19)
(18.68156 0.09010634 -4.568346e-19)
(19.24627 0.2682276 1.301382e-20)
(19.15959 0.15968 -1.564175e-18)
(14.04957 0.2444722 1.488312e-20)
(12.03992 1.841079 0)
(12.86958 3.693088 0)
(13.17203 4.387756 -9.44409e-20)
(12.88926 4.453734 9.886382e-20)
(11.91416 4.43622 0)
(9.65629 4.08708 0)
(4.943051 0.4789924 0)
(-4.125194 -5.29997 6.011311e-18)
(-5.899922 -4.630208 -2.154742e-17)
(-6.488694 -3.471862 1.072839e-17)
(-4.803335 -2.019779 -7.382894e-18)
(-2.924299 -1.314224 -1.936069e-19)
(-1.81297 -0.8071358 4.932177e-18)
(-1.118984 -0.3600468 4.167499e-18)
(-0.6063788 0.2045709 4.705199e-20)
(0.02691346 1.127195 -8.62293e-21)
(1.315738 2.561075 -3.554274e-20)
(2.782024 3.751402 -3.566188e-20)
(2.993901 3.644146 2.450736e-18)
(2.263977 3.151697 0)
(2.197188 3.965387 3.110899e-18)
(2.796854 4.48978 -3.907957e-18)
(3.346221 4.264459 3.657085e-18)
(1.811104 2.60321 0)
(0.6931042 2.350274 0)
(-0.1543243 -0.9136036 -7.636866e-20)
(-0.3803862 -4.458978 -4.3676e-18)
(-1.237285 -9.044005 2.063445e-18)
(-1.645331 -9.905003 -2.235615e-18)
(-1.840165 -9.738329 0)
(-1.789711 -10.14389 0)
(-1.52028 -10.32995 0)
(-1.1591 -10.34276 -1.381011e-18)
(-0.7673135 -10.17069 -6.974001e-19)
(-0.3922823 -9.799936 -6.297606e-19)
(-0.1305185 -9.108875 2.343736e-19)
(0.1172871 -8.36306 0)
(0.3521726 -7.548005 -7.096373e-19)
(0.5559952 -6.754063 0)
(0.6390242 -5.923706 -9.946703e-19)
(0.5677929 -4.940139 0)
(0.4078298 -3.805798 0)
(0.2150912 -2.640332 -4.056294e-19)
(0.1216215 -1.609429 -6.150324e-19)
(0.335726 -1.15625 4.833443e-19)
(1.179286 -1.96287 -3.545902e-19)
(1.788032 -2.403223 2.780921e-19)
(1.905019 -2.617717 0)
(2.099825 -3.009521 5.908382e-19)
(2.299481 -3.369435 2.400257e-19)
(2.056411 -3.244238 2.824362e-20)
(1.448406 -2.612847 3.999786e-21)
(0.7251346 -1.505875 2.087043e-20)
(0.7342655 -0.4424903 7.346805e-19)
(1.638506 -1.164323 -1.366719e-18)
(1.739492 -1.859071 -5.92462e-19)
(-0.01397086 -1.327534 -1.359199e-20)
(-1.580637 -0.3918005 -2.841544e-19)
(-2.850738 0.8001652 4.483446e-19)
(-3.815279 1.77008 1.557237e-18)
(-4.326587 2.174141 0)
(-4.503203 2.55764 7.68925e-20)
(-3.546749 3.260333 0)
(-1.757519 4.427627 3.382946e-19)
(5.600917 -1.277703 -1.176077e-18)
(8.044585 -3.184519 -3.373016e-19)
(9.927372 -3.148441 -1.216425e-21)
(10.66749 -3.302762 1.132415e-20)
(10.82751 -3.540282 -1.823156e-18)
(10.69933 -3.291792 0)
(9.725511 -1.676348 -1.40444e-18)
(9.558111 0.99812 -1.173219e-18)
(15.34912 1.79425 6.303454e-19)
(16.81205 1.129483 1.559287e-19)
(15.8749 1.046766 0)
(16.16712 1.448179 4.197118e-19)
(16.30345 1.89979 0)
(16.43491 2.473787 0)
(16.44745 3.08431 2.058027e-18)
(16.3765 3.723124 -3.162738e-20)
(16.22816 4.334931 4.250286e-20)
(15.99913 4.93811 -2.017905e-18)
(15.6981 5.503381 4.092542e-18)
(15.33521 6.041491 -3.914825e-18)
(14.92603 6.558568 -3.767796e-18)
(14.47354 7.018822 1.857176e-19)
(13.9648 7.4416 -1.091865e-19)
(13.41318 7.809547 -9.506931e-20)
(12.81936 8.134532 -2.711514e-18)
(12.19549 8.405496 -2.721743e-18)
(11.54353 8.617357 -6.961201e-20)
(10.86936 8.786024 2.188776e-18)
(10.18831 8.899561 0)
(9.495976 8.943268 1.499688e-18)
(8.787839 8.925827 1.171266e-18)
(8.078407 8.857692 7.936618e-19)
(7.381953 8.736128 5.134632e-19)
(6.69776 8.553345 0)
(6.025782 8.307972 0)
(5.366793 8.012522 -5.140632e-19)
(4.738669 7.652629 0)
(4.12755 7.243102 0)
(3.555187 6.782156 1.517389e-18)
(3.020028 6.275807 -3.587998e-20)
(2.523755 5.72926 -1.170861e-20)
(2.070517 5.142714 -3.743811e-20)
(1.667311 4.516782 2.56677e-18)
(1.31451 3.854777 0)
(1.019767 3.165685 0)
(0.7600324 2.468415 1.569429e-18)
(0.58257 1.741549 7.786266e-19)
(0.4399995 1.003068 8.313832e-19)
(0.3547803 0.2858369 -4.261012e-19)
(0.3405237 -0.4230847 0)
(0.441389 -1.15965 -3.066622e-22)
(0.5487882 -1.940525 2.392463e-20)
(0.7087073 -2.710497 7.142261e-19)
(0.9345196 -3.451313 -1.378642e-18)
(1.217387 -4.161728 -3.803642e-20)
(1.557137 -4.841937 1.148546e-18)
(1.946986 -5.48781 3.344813e-20)
(2.395932 -6.098816 1.727768e-18)
(2.878207 -6.681024 -1.544492e-20)
(3.410478 -7.212436 -1.106947e-18)
(3.994302 -7.69947 2.787971e-20)
(4.60311 -8.15267 0)
(5.245029 -8.549955 5.622583e-21)
(5.934159 -8.892063 0)
(6.641035 -9.195263 0)
(7.358838 -9.436425 -1.195849e-18)
(8.097488 -9.60564 3.118162e-18)
(8.850429 -9.720622 6.705262e-20)
(9.606066 -9.780901 -1.236094e-19)
(10.36911 -9.776618 -2.739523e-18)
(11.12966 -9.719161 -3.065e-18)
(11.87734 -9.601599 3.621812e-18)
(12.60463 -9.420126 -3.904287e-18)
(13.30941 -9.17541 -7.762652e-20)
(13.99744 -8.872399 0)
(14.65582 -8.52658 -4.999903e-18)
(15.28305 -8.121077 1.050829e-17)
(15.86927 -7.669786 -5.576605e-18)
(16.41221 -7.169191 0)
(16.91542 -6.624006 9.601559e-20)
(17.36801 -6.050174 -6.015475e-18)
(17.76298 -5.433331 -9.609884e-20)
(18.09657 -4.783481 1.511627e-19)
(18.368 -4.099615 -1.007217e-19)
(18.57332 -3.398531 0)
(18.70001 -2.693174 -3.259493e-18)
(18.73908 -1.9826 1.581136e-18)
(18.68241 -1.286652 7.887608e-19)
(18.5543 -0.6493077 -1.23374e-20)
(18.36585 -0.13321 3.725912e-19)
(18.41576 0.193289 6.97596e-19)
(19.62703 0.1393837 0)
(19.2972 0.7559111 1.528662e-18)
(18.73725 2.895 -1.143899e-19)
(17.89662 4.780798 3.45484e-18)
(16.64297 5.302483 0)
(15.52614 5.191105 0)
(14.26723 4.954187 0)
(11.62346 4.179399 3.930604e-20)
(5.262658 -0.5184396 2.047987e-18)
(-2.0983 -5.159922 -5.287376e-18)
(-4.225688 -3.932976 9.475938e-18)
(-4.924241 -2.304206 -1.788228e-17)
(-3.453872 -0.6961178 6.243968e-18)
(-1.566921 -0.05734191 0)
(-0.4503726 0.4259186 -4.140721e-18)
(-0.001948279 0.6765024 -3.409901e-18)
(0.1170183 0.9628138 2.848413e-18)
(0.2112632 1.548279 -7.403618e-20)
(0.9913808 2.565248 -5.270851e-20)
(2.326663 3.382017 5.571007e-20)
(2.64873 3.102111 0)
(2.059208 2.897085 -2.311305e-18)
(1.981064 3.88609 8.859842e-20)
(2.745874 4.421035 6.427133e-18)
(3.307428 3.813 -3.114601e-18)
(2.020121 2.614305 1.837282e-19)
(0.3954808 0.7564499 -3.192525e-18)
(-0.7721206 -4.145842 0)
(-0.9401558 -7.608022 -3.363582e-18)
(-1.208532 -9.705599 1.727893e-18)
(-1.467166 -9.400247 -1.191578e-19)
(-1.682465 -9.653473 2.290988e-18)
(-1.574806 -10.03166 -1.062187e-19)
(-1.327423 -10.211 3.640327e-20)
(-1.032289 -10.21758 1.158861e-18)
(-0.7265831 -10.04142 -8.359733e-21)
(-0.4156826 -9.677656 9.79041e-21)
(-0.2287076 -8.942022 1.120522e-20)
(-0.006985003 -8.212041 3.23872e-19)
(0.2044325 -7.431379 5.827083e-19)
(0.4042194 -6.688752 -4.964583e-19)
(0.4849598 -5.901046 8.152351e-19)
(0.3849952 -4.945912 0)
(0.2115205 -3.847171 4.348422e-19)
(0.0358981 -2.731344 3.562373e-19)
(0.0816406 -1.746641 5.038061e-19)
(0.5666302 -1.330931 0)
(1.368308 -2.124496 0)
(1.77863 -2.267651 -2.300709e-19)
(1.880053 -2.455156 -7.313851e-21)
(2.187194 -2.978239 -2.36089e-19)
(2.263505 -3.272691 -2.088194e-19)
(1.915087 -3.19316 -3.75796e-20)
(1.231071 -2.624199 -2.28672e-19)
(0.4639208 -1.531968 4.7222e-19)
(0.479279 -0.2061861 -5.961856e-19)
(0.806174 -0.1558264 5.558712e-19)
(0.9518115 -1.134985 0)
(-0.5723288 -1.181898 0)
(-1.544721 -0.7864134 2.453817e-19)
(-2.576205 0.2598344 0)
(-3.441681 1.335526 -5.41618e-20)
(-3.890063 1.740079 -1.757905e-20)
(-3.966661 2.295928 -2.382098e-18)
(-2.578845 2.925245 -6.483821e-20)
(-1.281855 5.097803 1.564729e-19)
(5.563948 -0.2747319 9.139911e-19)
(9.117981 -3.00629 -2.731806e-20)
(11.22171 -3.254565 1.838049e-19)
(12.2606 -3.602173 -1.879232e-20)
(13.18155 -4.036236 7.893727e-19)
(14.51348 -3.97898 -3.323627e-20)
(15.54225 -2.309087 4.399018e-18)
(15.85607 0.7405659 2.832725e-20)
(17.03528 1.870306 5.380423e-21)
(16.06308 1.094625 -2.855713e-19)
(15.81186 0.9863267 -2.447919e-21)
(16.18321 1.343337 -3.480611e-19)
(16.32969 1.707253 -2.383953e-20)
(16.46969 2.216539 -7.539314e-19)
(16.48891 2.771309 1.597064e-18)
(16.41989 3.388192 -1.622329e-18)
(16.27029 3.99315 3.197764e-18)
(16.04023 4.598398 1.765652e-18)
(15.74203 5.172403 0)
(15.37728 5.729851 0)
(14.96779 6.268966 3.055579e-18)
(14.51529 6.748733 2.916488e-18)
(14.006 7.190194 0)
(13.45631 7.570216 -7.607285e-20)
(12.86218 7.909237 2.459316e-18)
(12.23539 8.198827 2.168356e-18)
(11.58411 8.422179 1.865108e-18)
(10.91545 8.596237 -4.81015e-20)
(10.23628 8.72157 -1.348834e-18)
(9.541586 8.780425 3.206916e-20)
(8.83812 8.768505 -3.236602e-20)
(8.136891 8.703731 -6.678858e-19)
(7.443508 8.591069 3.630556e-19)
(6.756073 8.422863 0)
(6.092287 8.181526 0)
(5.436199 7.895769 8.542648e-19)
(4.817152 7.541533 -7.980482e-21)
(4.21062 7.140513 -7.631003e-21)
(3.653561 6.683922 -1.169967e-18)
(3.127041 6.184543 -2.847093e-18)
(2.62508 5.654549 1.55955e-18)
(2.175132 5.080162 -1.833451e-18)
(1.776713 4.464882 -1.003777e-18)
(1.431945 3.811364 -3.406073e-20)
(1.144724 3.126055 0)
(0.8795196 2.441967 -1.225038e-18)
(0.7157211 1.724582 -4.110261e-20)
(0.5679005 0.9887408 -6.910047e-19)
(0.4796572 0.2768762 3.649133e-19)
(0.4660527 -0.4384971 -4.887928e-23)
(0.5826949 -1.160392 -3.505382e-19)
(0.6823222 -1.933314 2.969742e-20)
(0.8361022 -2.691142 -6.228873e-19)
(1.052378 -3.413332 1.130483e-18)
(1.328744 -4.106972 -1.076857e-18)
(1.664158 -4.774263 2.981743e-21)
(2.050258 -5.408561 8.608914e-19)
(2.503722 -6.008011 -1.376337e-18)
(2.976923 -6.584532 1.144262e-18)
(3.498164 -7.110508 8.296939e-19)
(4.082906 -7.589104 8.808615e-21)
(4.699858 -8.030053 9.228016e-21)
(5.334322 -8.420496 6.328949e-22)
(6.006654 -8.764022 -2.675379e-19)
(6.713696 -9.058885 2.404352e-20)
(7.430575 -9.289909 8.79987e-19)
(8.161177 -9.453004 -2.517655e-18)
(8.906174 -9.564434 1.563894e-18)
(9.666934 -9.607101 -5.802841e-20)
(10.42731 -9.592906 -2.213722e-18)
(11.18017 -9.531613 5.050463e-18)
(11.92807 -9.40067 9.201323e-20)
(12.65233 -9.208789 3.028017e-18)
(13.35729 -8.947962 -3.511243e-18)
(14.04709 -8.628124 1.08749e-19)
(14.70404 -8.269361 -3.960179e-18)
(15.3314 -7.845436 -4.034804e-18)
(15.91623 -7.378683 1.387644e-19)
(16.45987 -6.855428 -4.63103e-18)
(16.96304 -6.288934 4.774478e-18)
(17.41469 -5.696384 0)
(17.80716 -5.06274 0)
(18.13626 -4.393497 2.595668e-18)
(18.40209 -3.706909 2.601505e-18)
(18.60551 -3.010266 0)
(18.73406 -2.309008 1.396478e-18)
(18.77473 -1.617642 1.280358e-18)
(18.71787 -0.9694423 -6.610602e-19)
(18.57726 -0.4028586 1.528055e-19)
(18.42905 0.02254495 3.081995e-19)
(18.23298 0.3165852 -5.88711e-19)