/*--------------------------------*- C++ -*----------------------------------*\
| =========                 |                                                 |
| \\      /  F ield         | OpenFOAM: The Open Source CFD Toolbox           |
|  \\    /   O peration     | Version:  2406                                  |
|   \\  /    A nd           | Website:  www.openfoam.com                      |
|    \\/     M anipulation  |                                                 |
\*---------------------------------------------------------------------------*/
FoamFile
{
    version     2.0;
    format      ascii;
    arch        "LSB;label=32;scalar=64";
    class       surfaceScalarField;
    location    "0.18";
    object      phi;
}
// * * * * * * * * * * * * * * * * * * * * * * * * * * * * * * * * * * * * * //

dimensions      [0 3 -1 0 0 0 0];

oriented        oriented;

internalField   nonuniform List<scalar> 
6741
(
5.469709e-10
9.925147e-10
-1.539486e-09
-1.21754e-09
-7.550997e-11
1.29305e-09
1.678765e-09
-1.701299e-09
2.253365e-11
6.630097e-10
7.744557e-10
-1.437465e-09
1.557221e-09
-8.357712e-10
-7.214494e-10
2.031037e-09
-8.472136e-10
-1.183823e-09
-1.206186e-09
-2.287304e-10
1.434916e-09
-9.049221e-10
1.830454e-09
-9.255323e-10
1.460529e-10
2.094154e-09
-2.240207e-09
-1.529176e-09
3.293856e-10
1.19979e-09
-1.863359e-10
1.968871e-09
-1.782535e-09
1.294104e-09
-1.939493e-09
6.453888e-10
1.378202e-09
-1.993527e-09
6.153251e-10
1.861317e-09
-1.640773e-09
-2.205439e-10
-2.071309e-10
1.474138e-09
-1.267007e-09
3.429063e-09
-2.008941e-09
-1.420122e-09
-8.855845e-10
-5.833667e-10
1.468951e-09
1.266799e-09
-1.490987e-09
2.241884e-10
1.89804e-09
-1.758123e-09
7.695438e-10
-1.659187e-09
8.896434e-10
-2.355113e-09
1.262709e-09
1.092404e-09
4.246902e-10
-1.351961e-09
9.272705e-10
-1.682591e-09
1.379382e-09
3.032098e-10
4.471755e-10
1.495362e-09
-1.942537e-09
4.008888e-10
1.367061e-09
-1.76795e-09
1.713736e-09
-1.498447e-09
-2.152884e-10
1.788741e-09
-1.110389e-09
-6.783522e-10
-2.064423e-09
1.158153e-09
9.062702e-10
-1.378232e-09
1.551628e-09
-1.733953e-10
-4.701051e-09
7.021694e-10
3.998882e-09
-2.111708e-09
8.062409e-10
1.305467e-09
-1.488006e-09
1.118943e-09
3.69063e-10
1.726002e-09
-9.614194e-10
-7.645822e-10
2.724164e-09
-1.935534e-10
-2.53061e-09
4.07733e-09
2.073976e-09
-6.151306e-09
-1.33018e-09
1.594066e-09
-2.638858e-10
-1.498412e-09
-2.579346e-10
1.756346e-09
4.806831e-09
2.344231e-09
-7.151063e-09
1.7614e-09
-6.109727e-10
-1.150427e-09
-1.712492e-09
2.073634e-09
-3.611417e-10
1.491998e-09
6.669581e-10
-2.158957e-09
-7.577912e-10
-1.276696e-09
2.034488e-09
1.458644e-09
-2.145728e-10
-1.244071e-09
9.872933e-10
-1.551e-09
5.637063e-10
-1.986573e-09
1.262534e-09
7.24039e-10
-1.430932e-09
5.79125e-10
8.518072e-10
-6.664609e-10
-1.114362e-09
1.780823e-09
-1.749735e-10
-1.560738e-09
1.735711e-09
-5.726326e-10
-1.391704e-09
1.964337e-09
6.002959e-10
1.247639e-09
-1.847935e-09
-1.637216e-09
1.690482e-09
-5.326551e-11
-1.295139e-09
4.072263e-10
8.87913e-10
1.406923e-09
-2.447044e-10
-1.162218e-09
1.919699e-09
-4.763576e-10
-1.443341e-09
-1.394352e-10
1.274745e-09
-1.135309e-09
4.532143e-10
1.338881e-09
-1.792096e-09
-1.647074e-09
1.433469e-09
2.136052e-10
-2.183133e-10
-1.623899e-09
1.842213e-09
-1.308114e-09
1.998994e-09
-6.908803e-10
5.681249e-10
-1.709082e-09
1.140957e-09
-8.510227e-10
-4.550918e-10
1.306115e-09
-1.517018e-09
1.068351e-09
4.486671e-10
-1.468032e-09
1.546717e-09
-7.868475e-11
4.191904e-10
1.433401e-09
-1.852592e-09
-2.335796e-09
1.187974e-09
1.147822e-09
1.492534e-09
-1.163908e-09
-3.286266e-10
-1.763553e-09
1.402855e-09
3.606982e-10
4.888213e-10
1.008742e-09
-1.497563e-09
6.794103e-09
-7.261376e-09
4.672731e-10
-1.89344e-09
3.442051e-10
1.549235e-09
4.538368e-10
-2.044499e-09
1.590662e-09
1.366654e-09
-1.592399e-09
2.257441e-10
1.465755e-09
-3.043279e-10
-1.161427e-09
1.473314e-09
-1.997713e-09
5.243989e-10
5.125047e-09
1.074491e-09
-6.199538e-09
-1.274057e-09
1.435835e-11
1.259698e-09
2.189617e-09
-7.369243e-10
-1.452693e-09
1.630586e-09
-1.990112e-10
-1.431575e-09
-1.587698e-09
-4.380994e-10
2.025797e-09
1.966456e-09
-2.347567e-09
3.811111e-10
3.923334e-10
1.275493e-09
-1.667826e-09
1.082173e-09
-1.191344e-09
1.091704e-10
-8.409321e-10
-1.586545e-10
-1.630875e-09
-4.186422e-10
2.049518e-09
-1.618562e-09
1.212732e-09
4.058305e-10
-5.301826e-10
2.202458e-09
-1.672275e-09
9.643918e-10
-1.670055e-09
7.056628e-10
5.71968e-10
2.476812e-09
-3.04878e-09
-5.789258e-10
-1.157985e-09
1.736911e-09
8.089864e-10
-1.608671e-09
7.996843e-10
2.253018e-10
-1.460105e-09
1.234803e-09
1.281526e-09
3.217582e-10
-1.603284e-09
-2.811248e-10
2.015651e-09
-1.734527e-09
-6.786829e-11
-1.729654e-09
1.797522e-09
-9.56891e-10
1.576118e-09
-6.192272e-10
-1.383205e-11
-2.937378e-09
2.95121e-09
8.889039e-10
-1.899255e-09
1.010351e-09
-1.459687e-10
1.232579e-09
-1.086611e-09
-1.34558e-09
-8.535258e-11
-6.075464e-09
3.943515e-09
2.131949e-09
1.368767e-09
-7.057577e-10
1.394649e-09
-1.755136e-09
3.604864e-10
-3.093244e-09
4.316778e-11
3.050076e-09
-2.368676e-09
-3.074088e-09
5.442764e-09
4.747869e-10
-2.105662e-09
1.792715e-10
1.4183e-09
-1.597571e-09
-1.925396e-09
1.418891e-09
5.065047e-10
-2.200463e-09
6.448996e-10
-3.228701e-10
2.029619e-09
-1.706749e-09
1.16613e-09
-1.720252e-09
5.541218e-10
1.068619e-09
-7.98486e-10
-2.701332e-10
-1.95908e-09
1.073495e-09
-7.399451e-10
-7.517478e-10
1.491693e-09
-1.11899e-09
1.643596e-09
-5.246065e-10
1.117261e-09
-2.367933e-11
-1.093581e-09
1.72924e-09
-2.634849e-10
-1.581378e-09
1.662135e-10
1.415165e-09
-1.938358e-09
9.952146e-10
9.431432e-10
-1.589718e-09
-9.237545e-11
1.682094e-09
-2.451047e-09
2.470449e-09
-1.940233e-11
-9.909433e-10
-1.777939e-10
1.168737e-09
3.357521e-09
8.536171e-10
-4.211138e-09
1.69219e-09
-1.369899e-09
-3.222912e-10
-1.154389e-09
-8.321833e-10
1.204493e-09
-1.536383e-09
3.318901e-10
-1.04135e-09
-7.590998e-10
1.80045e-09
3.023788e-09
-3.193938e-09
1.701501e-10
-3.035937e-09
4.204134e-10
2.615524e-09
-1.833868e-09
1.62507e-09
2.087985e-10
2.140822e-09
-3.543271e-10
-1.786495e-09
-5.192181e-11
-1.27172e-09
1.323642e-09
-1.391494e-09
-6.177911e-10
2.009285e-09
4.811086e-10
1.084709e-09
-1.565818e-09
2.434066e-09
-2.213793e-09
-2.202725e-10
-1.604925e-09
8.817219e-10
7.23203e-10
1.538553e-09
-2.388976e-09
8.504232e-10
-1.94514e-09
1.464404e-09
4.807357e-10
-1.512994e-09
1.271262e-09
2.41732e-10
-8.558878e-10
-1.208535e-09
1.609773e-10
-2.727034e-09
2.566057e-09
3.500293e-09
-5.868969e-09
-5.456909e-11
-1.858324e-09
1.912893e-09
1.015033e-09
-1.613027e-09
5.979939e-10
-1.152847e-09
-3.763291e-10
-1.243497e-09
2.326851e-09
-1.083354e-09
-1.702608e-09
2.270733e-09
-5.817522e-10
-1.18959e-09
1.771343e-09
1.162347e-09
-1.195025e-09
3.267772e-11
-1.385763e-09
1.239795e-09
-7.672709e-10
-4.960188e-10
1.26329e-09
1.205258e-09
-1.061844e-09
-1.434141e-10
-2.688068e-09
1.189656e-09
-2.016731e-09
-2.279719e-10
2.244703e-09
4.204993e-09
-1.332663e-09
-2.87233e-09
1.053084e-09
8.139145e-10
-1.866998e-09
8.056573e-13
-1.036615e-09
1.035809e-09
1.970113e-09
-1.22231e-09
-7.478024e-10
1.443707e-09
-6.870512e-12
-1.436836e-09
5.806749e-10
-1.973815e-09
1.39314e-09
1.669888e-09
-2.423216e-09
7.533276e-10
2.126306e-09
-1.889341e-09
-2.369649e-10
-1.935999e-09
6.74283e-09
1.928856e-09
-1.996162e-10
-7.808344e-10
1.546503e-09
-7.656684e-10
1.042699e-09
-1.25487e-09
-3.216473e-09
2.281453e-10
2.988327e-09
2.349901e-10
1.326148e-09
-1.561138e-09
1.506776e-09
6.176164e-10
-2.124392e-09
1.125276e-09
3.582891e-10
-1.483565e-09
8.66508e-10
6.925998e-10
-1.559108e-09
-1.954996e-09
5.85027e-10
1.369969e-09
3.021069e-09
-2.068147e-09
-9.529222e-10
7.579674e-09
-3.502344e-09
-9.406386e-10
5.701163e-10
1.572036e-09
-2.142152e-09
-4.297697e-10
-8.862785e-10
1.316048e-09
-1.830503e-09
1.715396e-09
1.151071e-10
-8.151839e-10
1.861084e-09
-1.0459e-09
-1.165168e-09
1.384781e-09
-2.196133e-10
-7.609115e-10
-1.181999e-09
1.942911e-09
-2.588605e-10
-1.341001e-09
1.599862e-09
2.059779e-09
-5.829761e-10
-1.476803e-09
-5.505779e-10
-8.50263e-10
1.400841e-09
-3.457095e-09
3.260883e-09
1.962111e-10
-1.015585e-09
1.909768e-09
-8.941822e-10
-2.738354e-10
-7.297795e-10
1.003615e-09
1.140949e-09
5.51241e-10
1.745307e-09
-1.175191e-09
-2.269741e-10
-1.100056e-09
1.32703e-09
1.641261e-09
-6.768693e-10
3.662659e-10
-1.757759e-09
6.837147e-12
-1.385069e-09
7.962423e-10
-2.385073e-09
1.588831e-09
-1.482733e-09
-5.039308e-10
-1.187589e-09
-5.619916e-10
1.74958e-09
-1.671788e-09
5.840567e-10
1.087731e-09
-4.800706e-10
1.280129e-09
-8.000589e-10
-1.624682e-09
9.798528e-10
6.44829e-10
-1.10551e-09
-5.084668e-10
1.613977e-09
4.965623e-10
-2.001364e-09
1.504802e-09
9.386959e-10
4.906765e-10
-1.429372e-09
1.070322e-10
-1.62405e-09
1.713401e-09
-5.084439e-10
-1.204957e-09
-9.667675e-10
1.903509e-09
-9.36741e-10
5.129743e-09
-2.192091e-09
-2.937652e-09
-1.867813e-09
1.671747e-09
1.960658e-10
-6.768425e-10
1.540682e-09
-8.638393e-10
1.639678e-09
-2.055514e-09
4.158355e-10
1.694072e-09
-3.616212e-10
-1.332451e-09
-4.52023e-10
1.254923e-09
-8.028998e-10
-1.298491e-09
1.660243e-09
-3.617517e-10
-5.075906e-09
7.66796e-09
-2.592054e-09
1.358141e-10
1.709347e-09
-1.845161e-09
5.214066e-10
-1.523642e-09
1.002235e-09
9.635756e-10
8.046051e-10
-1.768181e-09
-8.77894e-10
-1.336264e-09
2.214158e-09
1.102405e-10
-1.578273e-09
2.39773e-09
-1.788856e-10
-2.218845e-09
-1.153596e-10
-1.474358e-09
1.198857e-09
4.604534e-10
-1.65931e-09
-1.716739e-09
1.700381e-09
1.635815e-11
-1.833103e-09
-4.533875e-10
2.28649e-09
-2.452637e-11
1.951506e-09
-1.92698e-09
2.250563e-09
-5.646317e-10
-1.685932e-09
-1.485695e-09
1.461487e-09
2.420863e-11
-1.67624e-09
7.126089e-10
9.636313e-10
2.101698e-09
-4.950404e-10
-1.606658e-09
-1.170701e-09
-4.370012e-10
1.607702e-09
-1.381255e-09
-2.314267e-10
1.612682e-09
3.815578e-10
-1.439537e-09
1.057979e-09
1.510435e-09
-1.518658e-09
8.222959e-12
1.091263e-10
1.43759e-09
1.943283e-09
-2.527946e-09
5.846631e-10
1.046854e-09
-1.740382e-09
6.935281e-10
1.776809e-09
-2.041558e-09
2.647492e-10
-7.58823e-10
1.790126e-09
-1.031303e-09
1.490103e-09
-7.337086e-10
-7.56394e-10
-1.296664e-09
1.581599e-09
-2.849349e-10
1.119154e-09
-1.831825e-11
-1.100836e-09
5.044166e-10
1.791544e-09
-2.29596e-09
1.221779e-09
-1.630817e-09
4.090384e-10
3.900203e-11
-1.392137e-09
1.353135e-09
3.23495e-09
-2.715484e-09
-5.194657e-10
1.405739e-09
-4.215967e-11
-1.363579e-09
8.825587e-10
6.74662e-10
1.88896e-09
-9.360389e-09
7.471429e-09
-8.461061e-10
-2.287813e-09
3.133919e-09
3.720136e-10
-8.265521e-09
7.893508e-09
1.757077e-09
-1.743028e-09
-1.404898e-11
3.542077e-10
5.717761e-09
-6.071969e-09
2.114611e-09
-2.255198e-09
1.40587e-10
-1.52177e-09
-8.770169e-11
1.609471e-09
7.892327e-10
-1.301613e-09
5.1238e-10
1.117796e-09
-4.032095e-10
-7.145867e-10
-1.40092e-09
1.439922e-09
1.430167e-09
-5.029317e-10
-9.272355e-10
1.147064e-09
5.121359e-10
-1.6592e-09
-8.70947e-10
1.809643e-09
1.506759e-09
-8.279529e-10
-6.788064e-10
1.547908e-09
-6.436678e-10
-9.042405e-10
1.953624e-09
-1.088129e-09
-8.654948e-10
1.48442e-09
-9.902279e-10
-4.941918e-10
1.446309e-09
-1.428419e-09
-1.789001e-11
1.870555e-10
-1.367806e-09
1.18075e-09
8.087876e-10
2.598316e-10
-1.843356e-10
-1.498256e-09
-3.619742e-10
-7.83899e-09
8.200964e-09
-1.631311e-09
2.208243e-09
-5.769312e-10
1.653031e-09
-1.308127e-09
-3.449039e-10
1.165703e-09
4.560029e-10
-1.621706e-09
1.924103e-09
-2.453383e-10
-4.159959e-10
-1.876398e-09
2.292394e-09
7.981639e-10
7.214159e-10
-1.51958e-09
6.506977e-10
1.240809e-09
-1.891507e-09
-1.518872e-09
-9.291377e-11
1.611785e-09
-8.625086e-10
8.988196e-09
-8.125687e-09
1.796234e-11
1.679888e-09
-1.69785e-09
-2.805799e-09
2.014684e-09
7.911156e-10
-8.780516e-10
2.020472e-09
-1.14242e-09
1.523358e-09
-9.382584e-10
-5.850999e-10
1.20242e-09
-1.540432e-09
3.380125e-10
1.387914e-09
-1.269323e-09
-1.185914e-10
-1.478167e-09
6.960483e-10
7.821192e-10
-1.939192e-09
-1.426901e-09
3.366094e-09
1.443389e-09
1.633241e-10
-1.606713e-09
-1.579521e-09
-1.372181e-10
5.5173e-10
-1.952781e-09
1.401051e-09
9.149955e-10
8.615898e-11
-1.001154e-09
3.910227e-09
-2.768063e-09
-1.142164e-09
-3.406902e-10
1.575149e-09
-1.234458e-09
-9.525132e-10
2.049068e-09
-1.096555e-09
2.260664e-09
-4.675372e-10
1.710589e-09
-1.243051e-09
1.37114e-10
-1.23177e-09
1.094656e-09
1.88564e-09
-3.325261e-10
-1.553114e-09
1.336544e-09
5.037201e-10
-1.840264e-09
9.525728e-10
5.399614e-10
-7.559597e-10
1.770992e-09
1.54213e-10
1.741164e-09
-1.895377e-09
1.881668e-09
-7.235155e-10
-3.329427e-10
-1.661772e-09
1.994715e-09
4.924392e-10
-1.725218e-09
1.232778e-09
-2.278552e-09
4.773817e-10
1.801171e-09
-4.689558e-10
1.69497e-09
-1.226015e-09
-1.112129e-09
1.262126e-09
-1.499974e-10
1.411582e-10
1.221697e-09
-1.362855e-09
-1.490395e-09
7.883307e-10
7.020639e-10
2.126618e-09
-4.19537e-09
2.068752e-09
-1.621891e-09
1.670729e-09
-4.883853e-11
4.757973e-10
-1.627909e-09
1.152112e-09
-1.045653e-09
1.868262e-09
-8.226087e-10
-5.100362e-10
-1.161844e-09
1.67188e-09
6.080733e-10
-1.741745e-09
1.133672e-09
-1.878459e-09
1.247204e-09
6.312554e-10
2.214722e-09
-1.279815e-09
-9.349072e-10
-5.051098e-10
-8.544802e-10
1.35959e-09
1.56549e-12
-1.458408e-09
1.456843e-09
-1.692605e-09
-1.279579e-09
2.972184e-09
5.192363e-10
-1.476127e-09
1.18443e-09
7.551143e-10
-1.939544e-09
-2.488367e-09
-6.03563e-10
3.09193e-09
9.526219e-10
5.317978e-10
-6.048063e-10
-7.978128e-10
1.402619e-09
-9.374137e-10
-8.314399e-10
1.768854e-09
1.112505e-09
7.305064e-10
-1.843011e-09
-1.083518e-09
-3.739223e-10
-1.365058e-09
1.73898e-09
-1.175167e-09
1.788647e-09
-6.134809e-10
-1.578739e-09
7.228516e-10
-2.643352e-10
2.238434e-09
-1.974098e-09
1.61648e-09
-9.040583e-10
-7.124217e-10
2.308251e-09
-4.506265e-10
-1.857624e-09
1.217126e-10
-1.489776e-09
1.368064e-09
1.04931e-09
-1.982433e-09
9.331226e-10
1.035834e-09
6.064064e-10
-1.642241e-09
4.390939e-10
-2.003608e-09
1.564515e-09
-1.563383e-09
1.768103e-09
-2.0472e-10
1.571469e-09
-3.022164e-10
-1.269253e-09
1.352289e-09
-1.19245e-09
-1.598395e-10
1.207292e-09
1.556653e-10
-1.362957e-09
-1.183523e-09
-4.164418e-10
1.599965e-09
-1.035436e-09
-5.612646e-10
1.596701e-09
-1.615641e-09
-6.629117e-10
6.577439e-10
-2.134144e-09
1.4764e-09
1.700743e-10
-1.740642e-09
1.570567e-09
-1.557562e-09
5.685277e-10
9.89034e-10
8.400466e-10
-1.65523e-09
2.168069e-09
-2.092729e-09
-7.534024e-11
-2.673553e-10
-1.345052e-09
1.612407e-09
1.910114e-09
-1.558274e-09
-3.518397e-10
-3.229738e-10
-1.505337e-09
1.828311e-09
-3.085247e-10
-3.085463e-09
3.393988e-09
2.022995e-09
-1.226752e-09
-1.362426e-09
3.939006e-09
-2.57658e-09
-4.313906e-09
1.034268e-09
3.279638e-09
-1.745799e-09
1.286702e-09
4.590971e-10
-1.497107e-09
1.216486e-09
2.806216e-10
1.050424e-09
-1.530495e-09
1.558769e-09
-1.518467e-10
7.648218e-10
1.03133e-09
-1.796152e-09
-1.615458e-09
1.274768e-09
1.039729e-09
-2.283226e-09
1.306278e-09
-7.701591e-10
-5.361189e-10
7.742594e-10
-1.133374e-09
3.591142e-10
-2.184247e-09
1.370021e-09
8.14226e-10
-3.438461e-10
1.178008e-09
-8.341617e-10
-2.086922e-09
4.556102e-10
-1.310427e-10
1.61769e-09
-1.486648e-09
6.397051e-09
-4.508091e-09
-5.132941e-09
-7.469525e-10
5.879894e-09
1.080857e-09
-8.506936e-10
-2.301635e-10
-3.086582e-11
1.148127e-09
-1.856584e-09
2.166845e-09
-3.102615e-10
9.706777e-10
6.242207e-10
-1.594898e-09
-2.994358e-09
1.785314e-09
1.209044e-09
3.599109e-10
-1.890074e-09
1.530163e-09
6.85041e-10
9.767921e-10
-1.661833e-09
-1.631927e-09
6.90664e-11
1.56286e-09
-1.804382e-10
-1.345817e-09
1.526255e-09
-9.915309e-12
-1.749439e-09
1.759355e-09
1.790775e-09
-1.314978e-09
7.292443e-11
-1.565744e-09
1.49282e-09
9.121594e-10
-2.233658e-09
1.321499e-09
5.042403e-10
-1.567003e-09
1.062762e-09
-8.325573e-10
1.917079e-09
-1.084522e-09
-2.029645e-09
1.4992e-10
1.879725e-09
1.976037e-09
1.50269e-10
1.266523e-09
1.11676e-10
-1.378199e-09
1.397567e-09
-6.16564e-10
-7.810027e-10
-8.595716e-10
-4.794869e-10
1.339059e-09
1.252018e-09
-1.979252e-09
7.272343e-10
-3.997035e-11
2.759996e-09
-2.720026e-09
1.970065e-09
-5.03542e-10
-1.466523e-09
1.174908e-09
-2.064399e-09
8.894912e-10
1.601863e-09
3.902107e-10
-1.992073e-09
2.002144e-09
-1.229841e-09
-7.723035e-10
1.301959e-09
2.970282e-10
-1.598987e-09
-5.83424e-10
1.853378e-09
-1.269954e-09
-1.475721e-09
9.510274e-10
5.246932e-10
-8.20948e-10
2.083482e-09
2.096059e-09
-1.042975e-09
-1.754587e-09
1.133305e-09
6.21282e-10
-7.379744e-11
-1.246562e-09
1.320359e-09
-1.434508e-09
1.314831e-09
1.196774e-10
7.440586e-10
-2.116248e-09
1.37219e-09
-1.619962e-11
1.703259e-09
-1.687059e-09
1.293764e-09
-1.172126e-09
-1.216381e-10
2.387244e-10
2.011839e-09
1.842351e-09
-1.420528e-09
-4.218236e-10
-2.895677e-09
4.640587e-09
-1.744911e-09
-5.276019e-10
-1.52844e-09
2.056042e-09
2.336601e-09
-1.120626e-09
-1.215975e-09
9.930475e-10
-1.704662e-09
7.11614e-10
1.834869e-09
-9.538727e-10
-8.80996e-10
-1.928219e-09
2.213797e-09
-2.855781e-10
-9.101561e-10
1.517752e-09
5.868065e-10
-2.104559e-09
1.119884e-09
7.659033e-10
-1.885787e-09
-1.476624e-09
1.535195e-09
-5.857099e-11
7.281217e-10
-1.078207e-09
3.50085e-10
-1.887904e-09
3.448491e-10
1.543055e-09
8.970664e-10
-2.044554e-09
1.147488e-09
4.235293e-09
-1.850878e-09
-2.384415e-09
-1.657999e-09
1.89767e-09
-2.396711e-10
2.036738e-09
-1.685854e-09
-3.508843e-10
9.188851e-12
1.327355e-09
2.07532e-09
-1.682987e-09
1.843429e-09
-4.272381e-10
-1.416191e-09
1.96387e-09
-1.395548e-09
-5.683216e-10
1.206927e-10
1.62079e-09
-1.741482e-09
3.752926e-10
1.478979e-09
-1.854272e-09
1.460334e-09
-1.061806e-09
-3.985286e-10
-2.378501e-09
-2.32255e-09
-3.481727e-10
1.37991e-09
-1.031737e-09
-1.674358e-10
-1.848574e-09
2.016009e-09
-2.256906e-09
2.401748e-10
3.986731e-10
-1.908025e-09
1.509351e-09
-1.039775e-09
-5.518915e-10
1.591666e-09
-1.192069e-09
1.365104e-09
-1.730345e-10
1.823853e-09
-1.556465e-09
-2.673878e-10
1.434411e-09
-1.83044e-09
3.960291e-10
1.481276e-09
-1.05291e-09
-4.283657e-10
-1.750565e-09
1.621265e-09
1.293002e-10
8.514161e-10
-2.374763e-09
1.523347e-09
1.712524e-09
-1.67207e-09
-4.045469e-11
-9.589329e-10
1.546648e-09
-5.877151e-10
-1.614578e-09
2.689982e-10
1.671826e-09
-4.70316e-10
-1.20151e-09
7.930444e-11
1.277959e-09
-1.357263e-09
-2.674137e-09
1.143109e-09
1.531028e-09
-1.871211e-10
1.569493e-09
-1.382372e-09
-6.486281e-10
-1.231906e-09
2.77234e-09
-1.540435e-09
-2.423251e-10
-1.19619e-09
1.438515e-09
1.998792e-09
-5.997119e-10
-1.39908e-09
1.222555e-09
-9.54702e-10
-2.678535e-10
-1.837304e-09
1.297984e-09
5.393197e-10
2.943877e-10
-2.433605e-09
2.139217e-09
-4.012362e-09
2.321954e-09
1.690408e-09
-4.834971e-09
1.529106e-09
3.305865e-09
2.803567e-09
-3.649673e-09
1.253821e-09
-2.042099e-09
7.882775e-10
-4.952268e-10
1.749048e-09
1.900784e-09
-9.371147e-10
-9.636698e-10
-2.185195e-09
1.307301e-09
1.439238e-09
-8.285932e-10
-6.10645e-10
8.403262e-10
-2.449422e-09
1.609095e-09
1.678766e-09
-1.259576e-09
-1.529228e-09
1.667589e-09
1.561324e-09
-1.150151e-10
-1.55029e-09
1.76544e-09
-2.151501e-10
-1.19034e-09
-4.567343e-10
4.13784e-10
-1.623644e-09
1.20986e-09
-1.719095e-09
1.336064e-09
3.830305e-10
2.025071e-09
-2.3639e-10
-1.788681e-09
-1.904974e-09
6.23737e-10
1.281237e-09
1.383386e-09
-6.185645e-10
1.36299e-09
3.85859e-10
-1.748849e-09
1.828875e-09
1.401587e-10
-1.969034e-09
-3.794014e-09
9.509329e-10
2.843081e-09
-1.334963e-09
-2.672638e-10
1.602227e-09
-6.454064e-09
1.739962e-09
4.714101e-09
-1.983039e-09
-3.223067e-10
2.305345e-09
3.606319e-10
-1.875013e-09
1.514381e-09
3.228285e-09
2.007778e-10
-2.364639e-09
1.628473e-09
7.361663e-10
1.23137e-09
-6.11049e-10
-6.203211e-10
-3.606751e-11
-1.805644e-09
1.841712e-09
1.457334e-09
4.829293e-10
-1.940263e-09
-1.675884e-09
1.113913e-09
5.619706e-10
1.343156e-10
-1.435068e-09
1.300752e-09
-1.950828e-09
5.915568e-10
1.359271e-09
4.428382e-10
-4.756745e-09
1.434449e-09
-1.012114e-09
-4.223357e-10
1.058833e-09
4.620957e-10
-1.520929e-09
8.513276e-10
-1.761616e-09
5.417178e-10
1.219898e-09
-4.520675e-09
7.170739e-10
3.803601e-09
1.565622e-09
2.212407e-10
-1.786863e-09
-7.274368e-11
1.717811e-09
-1.645067e-09
-7.699823e-10
1.194673e-09
8.496424e-10
1.21473e-09
-2.064373e-09
8.595467e-10
-1.611319e-09
7.517725e-10
-1.638267e-09
7.333453e-10
-2.042025e-09
1.06041e-09
9.816153e-10
-1.242273e-09
1.0673e-09
-9.441123e-10
9.601654e-10
-1.605309e-11
-1.309228e-09
2.261922e-09
-9.526938e-10
1.101178e-09
1.225673e-09
2.060315e-09
1.062481e-09
-3.122796e-09
-5.074805e-10
-1.436826e-09
1.944307e-09
-1.903536e-09
1.844476e-09
5.906044e-11
-6.641831e-10
-9.488435e-10
-8.223909e-10
3.145139e-09
-2.322749e-09
1.39912e-09
-1.236269e-10
1.278982e-09
-1.762996e-09
4.840138e-10
-8.94122e-10
1.72706e-09
-8.329375e-10
7.512326e-10
-1.954141e-09
1.202909e-09
-3.013668e-09
1.752314e-09
1.261354e-09
-2.075265e-10
-1.03056e-09
1.238087e-09
-1.047011e-10
1.231683e-09
-1.126982e-09
-4.703893e-09
9.552601e-10
-1.98972e-09
1.03446e-09
-9.058069e-10
1.784389e-09
-8.785821e-10
3.042435e-11
1.33422e-09
-1.364644e-09
8.740835e-10
6.326758e-10
-1.807516e-09
8.742095e-10
9.333063e-10
1.67177e-09
-3.039472e-10
-1.367823e-09
6.171617e-10
5.657513e-10
-1.182913e-09
1.683865e-09
-5.788825e-10
-1.104983e-09
2.12644e-09
8.39451e-10
-2.965891e-09
1.783913e-09
-3.252686e-10
9.473002e-10
-1.730408e-10
-1.196451e-09
3.454288e-10
2.89066e-10
1.720794e-09
-2.00986e-09
-9.19737e-10
-9.13347e-10
1.833084e-09
1.046063e-09
-1.558793e-09
5.127292e-10
-8.008762e-10
1.701326e-09
-9.004501e-10
6.316854e-10
-1.434702e-09
8.030168e-10
3.675854e-10
1.18314e-09
-1.550726e-09
-1.484795e-09
7.826604e-10
7.02135e-10
8.488466e-10
-1.736306e-09
8.874593e-10
1.675608e-09
-5.026644e-10
-1.172944e-09
-8.648315e-10
1.749959e-09
-8.851273e-10
-1.261611e-09
2.214233e-09
-1.183889e-09
1.404605e-09
-2.207165e-10
-3.363672e-09
8.753058e-10
-1.447519e-09
1.315315e-09
1.322042e-10
-6.595338e-10
-1.522661e-09
2.182194e-09
1.073703e-09
-1.104569e-09
7.707857e-10
-1.654428e-09
8.836423e-10
1.298017e-09
6.048377e-10
-1.902854e-09
-7.400172e-10
-1.077824e-09
1.817841e-09
1.936058e-09
-6.419538e-10
-2.256543e-09
7.520025e-10
1.50454e-09
1.863567e-09
3.37923e-10
-2.20149e-09
1.895799e-09
-3.103446e-09
1.207646e-09
-2.946974e-10
-1.345758e-09
1.640455e-09
-1.116962e-09
-7.733703e-10
1.890332e-09
-7.912822e-10
-1.106081e-09
1.897363e-09
-2.050123e-09
6.15615e-10
-1.2305e-09
1.711609e-09
1.455906e-09
-8.387441e-10
5.849642e-10
-2.418067e-09
3.950232e-10
-1.257411e-09
9.3545e-10
3.219612e-10
-2.726194e-09
3.875134e-09
-1.14894e-09
5.144293e-10
1.405269e-09
1.643716e-09
-1.641123e-09
-2.593655e-12
1.346479e-09
-2.987622e-10
-1.047717e-09
9.47198e-10
9.521883e-10
-1.899386e-09
1.39299e-09
3.640871e-10
1.958341e-09
-1.187555e-09
1.303186e-09
-1.292096e-09
-1.109068e-11
1.372359e-09
-1.154904e-09
-2.174553e-10
1.705071e-09
-9.681285e-10
-7.36943e-10
1.391082e-09
-4.168564e-11
-1.349396e-09
8.716652e-11
1.637408e-09
-1.724574e-09
9.443131e-10
-2.027667e-09
1.249005e-09
-8.297111e-10
1.395025e-09
-5.653142e-10
1.990905e-09
-1.286361e-09
-7.045447e-10
-1.52664e-09
1.601151e-09
-7.451154e-11
3.12681e-09
-5.908754e-09
2.781944e-09
-4.174881e-09
4.179944e-09
-5.063285e-12
1.307051e-09
-1.234127e-09
-1.070984e-09
-8.440425e-10
1.915026e-09
1.920249e-09
-1.238917e-09
-6.81332e-10
2.015973e-09
-4.269189e-10
-1.589054e-09
-7.263417e-10
-9.946496e-10
1.720991e-09
-1.539451e-09
-2.944175e-10
-5.213412e-11
-1.301978e-09
1.354112e-09
1.191207e-09
1.834363e-09
-3.025571e-09
4.80364e-10
-1.436386e-09
9.560221e-10
-7.249308e-10
-6.896559e-10
1.414587e-09
-1.010318e-09
-4.083262e-10
1.418644e-09
1.798271e-09
3.034273e-10
1.116137e-09
4.308055e-11
-1.159218e-09
1.695742e-09
-1.723158e-09
2.741647e-11
-1.015018e-09
1.200235e-09
-1.852171e-10
-1.369526e-09
4.985788e-10
-1.10896e-09
9.148991e-10
1.940613e-10
2.095706e-09
-7.674232e-10
-1.328283e-09
-1.962461e-09
1.120193e-09
8.422681e-10
-1.307631e-09
1.413185e-09
-1.055544e-10
-6.353833e-10
1.747888e-09
-9.893793e-10
1.635293e-09
-6.459135e-10
3.245364e-10
1.451541e-09
-1.776077e-09
-7.695327e-10
-8.175642e-10
1.587097e-09
-1.52894e-09
-2.281438e-10
1.757084e-09
-1.269661e-09
6.34759e-11
-1.825067e-09
4.304678e-10
1.394599e-09
-2.149362e-11
-2.26929e-09
2.290783e-09
1.624908e-09
3.980866e-10
-1.284948e-09
2.337845e-10
1.051164e-09
-3.515111e-09
2.657807e-09
8.573041e-10
-1.37319e-09
1.853554e-09
1.800439e-10
-3.974058e-09
-1.623859e-09
-3.269687e-10
8.149964e-09
-8.149964e-09
1.605647e-09
-1.426376e-09
-1.788655e-09
5.101573e-10
1.278497e-09
1.157526e-09
6.671182e-10
-1.824644e-09
-1.314892e-09
4.672413e-09
1.236949e-09
6.623036e-09
-7.859985e-09
-1.217566e-09
1.831565e-09
-6.139991e-10
6.942707e-10
-1.812062e-09
1.117791e-09
1.083273e-09
-2.940398e-10
1.034132e-09
-1.523266e-09
4.891335e-10
9.120693e-10
-1.957722e-09
2.025699e-09
-4.609989e-10
-1.5647e-09
1.286821e-09
9.324227e-10
-2.219243e-09
1.974279e-09
-3.043912e-10
9.534511e-10
1.000173e-09
3.754707e-10
1.385929e-09
-2.004532e-09
1.881297e-09
-1.891212e-09
1.89962e-09
2.272632e-10
-2.126883e-09
1.418088e-09
1.990002e-10
-1.617088e-09
-1.143274e-09
1.657703e-09
-4.962649e-10
-4.414127e-09
4.910392e-09
-1.983227e-10
-1.371743e-09
1.570065e-09
9.002232e-10
-1.004924e-09
1.636604e-09
-1.641031e-09
6.012569e-10
2.7951e-09
6.148602e-11
-2.856586e-09
1.205992e-09
-8.383139e-10
-3.676786e-10
5.663219e-10
1.037923e-09
-1.604245e-09
3.385656e-11
1.423477e-09
1.274135e-09
-1.909573e-09
6.354382e-10
-1.814967e-10
-2.544697e-09
3.337351e-10
-1.444413e-09
1.110678e-09
-1.354454e-09
1.397672e-09
-1.256514e-09
-1.178949e-09
1.139848e-09
3.910135e-11
1.823813e-09
4.716196e-10
-2.295433e-09
1.285478e-10
1.714881e-09
1.368738e-09
-1.281572e-09
4.914858e-10
-1.66352e-09
1.172034e-09
-4.377035e-11
-1.325755e-09
1.756106e-10
1.267778e-09
-1.893817e-09
3.124386e-10
-1.759411e-09
1.433773e-09
3.256381e-10
-2.001885e-09
1.536477e-10
1.848237e-09
-1.121624e-10
-1.489936e-09
1.602098e-09
1.429202e-09
5.927304e-10
-2.021932e-09
1.877087e-10
-1.190935e-09
1.003226e-09
2.329047e-09
1.754191e-09
1.438494e-10
-1.20059e-09
1.743276e-10
1.026262e-09
-1.139646e-09
-1.799227e-09
2.938873e-09
4.130145e-10
1.595036e-09
-2.008051e-09
-2.124808e-09
2.354662e-10
3.936363e-10
-2.268925e-09
1.875289e-09
-7.159388e-10
-4.371679e-11
-1.326182e-09
1.744328e-09
-2.696139e-10
-1.474714e-09
9.52338e-10
-1.684447e-09
7.321088e-10
-4.376259e-09
4.403218e-09
-2.69592e-11
-1.768505e-09
1.41624e-09
3.753038e-09
-4.26963e-09
5.165921e-10
6.40643e-09
1.896449e-09
6.164202e-10
1.268701e-09
-1.885121e-09
1.606949e-09
-2.517105e-09
1.473143e-09
-1.748731e-09
2.755882e-10
9.62755e-10
4.764832e-10
6.051485e-10
8.274564e-10
-1.432605e-09
-1.747533e-09
2.352681e-09
-1.278627e-09
1.010339e-09
2.682886e-10
6.727112e-11
1.574272e-09
-1.641543e-09
1.871777e-09
-1.853814e-09
9.610083e-10
4.691589e-10
1.82446e-10
1.753779e-09
-1.936225e-09
3.330337e-10
1.381151e-09
-1.657146e-09
2.759954e-10
1.621233e-09
-2.151415e-09
1.439801e-10
9.297231e-10
-1.822807e-09
1.989849e-09
-1.670412e-10
5.527862e-10
1.512305e-09
-2.065091e-09
-1.120467e-09
-4.692021e-10
1.589669e-09
5.926019e-10
-3.261854e-10
-8.054633e-10
1.131649e-09
-7.369414e-11
1.639317e-09
3.399425e-10
-1.805536e-09
1.465594e-09
9.904859e-10
4.439634e-10
-1.100237e-09
-4.332115e-10
1.533448e-09
-1.678375e-10
1.754306e-09
-1.586468e-09
5.012427e-10
1.309555e-09
-1.810798e-09
-8.579953e-10
-9.105098e-10
-2.077944e-10
-2.47869e-09
-2.6751e-10
1.857007e-09
5.254091e-10
-1.201057e-09
6.756479e-10
-9.141699e-11
1.731853e-09
-1.640436e-09
6.411186e-10
-1.354406e-09
7.132877e-10
-2.142568e-09
6.663215e-10
1.476246e-09
-2.772409e-10
1.864352e-09
-1.587111e-09
1.346517e-09
9.318759e-11
-1.439705e-09
1.12523e-09
8.2962e-10
-1.95485e-09
-4.505716e-10
-1.264637e-09
1.715208e-09
1.14225e-09
-1.868591e-09
-1.249459e-09
-3.030867e-10
1.552545e-09
1.058494e-09
-1.936545e-09
-1.574249e-09
1.575132e-09
-8.831836e-13
-1.65059e-09
-9.884942e-11
-1.591769e-09
1.765528e-09
-1.737589e-10
7.548346e-10
-1.688504e-09
9.33669e-10
-1.901565e-09
4.047672e-10
1.496798e-09
-9.891503e-11
1.120697e-09
-1.021782e-09
-7.320147e-10
8.238525e-09
-7.50651e-09
-1.113214e-09
1.40228e-09
-2.024653e-09
8.259815e-10
1.198671e-09
1.326722e-09
4.388122e-09
-3.990655e-10
-3.989056e-09
1.418365e-09
-1.990997e-09
3.014886e-09
-4.329779e-09
7.690464e-10
6.1434e-10
1.55046e-09
-1.981041e-09
6.955056e-10
1.285535e-09
8.479095e-09
-8.479095e-09
1.211295e-09
-1.27389e-09
6.259524e-11
-6.594027e-11
-2.189258e-09
-2.435645e-10
-1.663679e-09
1.907244e-09
-1.555178e-09
1.560992e-09
-5.813621e-12
1.868512e-10
1.291029e-09
-1.477881e-09
1.187568e-09
2.359903e-10
-1.423558e-09
-5.077394e-10
2.164324e-09
-1.656584e-09
-2.33386e-10
-1.242156e-09
1.475542e-09
-3.320709e-10
-1.429545e-09
1.900061e-09
-5.206793e-10
-1.329624e-09
1.166032e-09
1.635916e-10
-7.634315e-10
2.012781e-09
-1.24935e-09
-5.0753e-10
2.014306e-09
-1.072475e-10
-1.736333e-09
1.843581e-09
-5.609735e-10
-1.352774e-09
1.913748e-09
4.00082e-10
1.383115e-09
-1.783197e-09
5.107716e-10
1.13049e-09
-1.947915e-09
6.40284e-10
-1.393774e-09
-6.029633e-10
1.996738e-09
-1.791703e-09
3.930269e-10
1.398676e-09
-2.041787e-09
6.738797e-11
1.974399e-09
3.246353e-10
-1.951053e-09
1.626418e-09
-1.735485e-09
1.16254e-09
-1.813381e-09
6.508409e-10
-1.806128e-09
1.528887e-09
1.299351e-09
-2.757576e-09
1.458225e-09
-4.175361e-09
2.083235e-09
2.092127e-09
-1.981304e-09
-6.928327e-10
8.450852e-10
-1.468994e-09
6.239084e-10
1.798983e-09
-9.637052e-10
-8.352777e-10
-1.275543e-09
5.082718e-10
1.681175e-09
-2.037008e-09
3.558335e-10
-1.226741e-09
-6.839785e-11
6.805282e-09
-4.185478e-09
-2.619804e-09
-1.296357e-09
4.417928e-10
8.545647e-10
8.277048e-10
-1.586528e-09
-1.151485e-09
-3.637883e-10
1.515274e-09
1.19457e-09
-1.401929e-09
-8.412549e-10
-4.504528e-10
1.291708e-09
2.690852e-09
4.923099e-09
-9.287127e-10
1.819931e-09
-8.91218e-10
1.79523e-09
8.776121e-11
-1.882991e-09
8.03636e-10
-2.101925e-09
-2.733047e-09
-9.221882e-10
1.990539e-09
-1.496169e-09
1.640244e-09
-8.161801e-10
-8.240644e-10
2.282083e-10
1.267694e-09
-1.495903e-09
3.905507e-10
-1.027251e-09
-3.778503e-10
-1.050569e-09
-4.109832e-09
5.209678e-10
1.050501e-09
1.548602e-09
-1.346368e-09
-2.022345e-10
5.433703e-10
-1.578807e-09
1.553104e-09
-5.658112e-10
9.262626e-10
3.063667e-10