/*--------------------------------*- C++ -*----------------------------------*\
| =========                 |                                                 |
| \\      /  F ield         | OpenFOAM: The Open Source CFD Toolbox           |
|  \\    /   O peration     | Version:  2406                                  |
|   \\  /    A nd           | Website:  www.openfoam.com                      |
|    \\/     M anipulation  |                                                 |
\*---------------------------------------------------------------------------*/
FoamFile
{
    version     2.0;
    format      ascii;
    arch        "LSB;label=32;scalar=64";
    class       volVectorField;
    location    "0.18";
    object      U;
}
// * * * * * * * * * * * * * * * * * * * * * * * * * * * * * * * * * * * * * //

dimensions      [0 1 -1 0 0 0 0];

internalField   nonuniform List<vector> 
4536
(
(0.009625629 -0.001895079 -9.566454e-24)
(0.01010488 0.0005493701 0)
(0.0106347 -0.0007527615 -2.511353e-25)
(0.008944702 -0.001894816 -4.816637e-24)
(0.009442612 -3.471322e-05 -2.833753e-23)
(0.009209292 -0.0002779965 1.96322e-23)
(0.01009059 0.0005095171 -8.73414e-24)
(0.01016182 0.0004875919 -1.610001e-23)
(0.01160767 -0.0001102356 1.150735e-24)
(0.009800435 0.0005915899 4.861217e-24)
(0.01094401 -0.001103349 0)
(0.01082828 -0.0005633894 0)
(0.01032257 -0.001464814 -1.787311e-24)
(0.009829852 0.000375561 0)
(0.01009789 0.0006327489 -1.800735e-23)
(0.01060931 0.0002661186 1.658727e-23)
(0.0099727 0.0009596061 1.10737e-23)
(0.01061536 -0.0008967626 0)
(0.009589245 -0.0001741271 -3.578138e-24)
(0.008967815 0.002501517 1.154033e-23)
(0.01014144 0.0003325239 8.825789e-24)
(0.01020395 0.0004800975 1.363616e-23)
(0.01095555 -0.0002681188 -1.958888e-25)
(0.01031986 0.0009799942 -6.840346e-24)
(0.01120782 -0.0003294087 0)
(0.008907465 0.0003046401 0)
(0.01030516 0.0004763738 6.304506e-24)
(0.01010878 0.0004036805 -5.596885e-26)
(0.008816629 -0.001513389 0)
(0.01066048 -0.0001221487 -8.502864e-24)
(0.01095817 0.0008048646 0)
(0.01056754 -0.0005182802 -1.378106e-24)
(0.009792199 0.0007208084 4.159367e-23)
(0.01070306 0.0001819562 6.378151e-24)
(0.01044746 0.0002123346 3.869696e-24)
(0.009801424 0.0005025137 0)
(0.01002931 0.000434951 -6.210571e-24)
(0.00999707 0.0001575418 0)
(0.01010115 0.0004485567 7.206751e-24)
(0.01147417 8.485898e-05 1.925531e-24)
(0.01060051 0.0008794976 4.826913e-24)
(0.01094692 0.0002741963 3.752199e-26)
(0.01005528 0.0004400556 0)
(0.00903762 0.001130575 2.262531e-23)
(0.01121555 7.70932e-05 4.457951e-24)
(0.009626202 -0.001881984 -5.817306e-24)
(0.01031681 0.0009040956 0)
(0.01084214 0.0004812774 0)
(0.01058855 -0.001048603 0)
(0.0097623 0.0008451923 -1.935974e-23)
(0.01017735 0.002364558 0)
(0.009378169 0.0006905322 2.42909e-23)
(0.01034205 0.0005387149 1.025675e-23)
(0.01105594 -0.000738273 -2.908447e-26)
(0.008791745 -8.009245e-05 0)
(0.009823199 0.0003458279 0)
(0.009418627 0.0005088586 4.09039e-23)
(0.0107644 0.0006833581 0)
(0.01030982 -0.001130483 0)
(0.01044807 -0.0008710947 6.078014e-25)
(0.009311429 0.002035766 -3.764332e-24)
(0.01067332 0.0009569478 5.896887e-24)
(0.01077217 -0.001057664 0)
(0.0100389 0.001026794 2.692715e-23)
(0.01048039 0.0004202294 2.172043e-23)
(0.01092621 -1.446158e-05 -5.63693e-24)
(0.01011189 0.0005878839 -7.041815e-24)
(0.01096575 0.0001614985 5.560632e-24)
(0.01008011 5.958333e-05 -4.640839e-24)
(0.01100247 -4.93433e-05 -2.087587e-25)
(0.01061597 0.0006891326 0)
(0.009741985 0.0006438038 3.40656e-23)
(0.01101915 -0.0002948538 0)
(0.01026963 -0.001591906 0)
(0.01001563 0.0001188976 7.833503e-24)
(0.01114292 -0.0004792894 0)
(0.01136791 0.0004960274 0)
(0.01007952 0.0007721107 0)
(0.01004138 -0.001761435 0)
(0.01136967 -0.0007731402 -5.700759e-25)
(0.01074696 0.0007873873 0)
(0.007881274 -6.047161e-05 0)
(0.006155393 0.002170341 4.096683e-23)
(0.01048443 -0.001460483 3.759711e-24)
(0.009590248 0.001031605 0)
(0.01060197 0.0007635835 -1.512414e-23)
(0.0104496 0.0005352764 0)
(0.01034721 0.0003396703 -1.700319e-23)
(0.01064799 0.0005764917 0)
(0.00929195 0.002541604 1.328716e-23)
(0.01008602 0.0005967891 8.277538e-24)
(0.009566155 0.0002598333 -2.164718e-23)
(0.009680492 0.0004958546 0)
(0.01114327 0.0008428331 2.222134e-24)
(0.01028277 0.0006895898 1.295025e-23)
(0.009971423 0.0003580205 -9.843834e-24)
(0.0112643 -0.0002438319 -2.614853e-24)
(0.01011948 0.0006525214 2.219726e-23)
(0.009777925 -0.001827184 -8.097911e-24)
(0.01060843 -8.560071e-05 2.053295e-24)
(0.008749543 -0.001890952 0)
(0.01070957 -0.0003371297 1.278532e-24)
(0.01067171 0.000217412 0)
(0.009960324 0.0002139765 1.900942e-24)
(0.01047691 -0.001495291 -7.586158e-24)
(0.0107159 -0.0009347152 0)
(0.01067819 0.0004857928 -8.640852e-24)
(0.01033887 -0.0009486537 0)
(0.01071621 0.001200134 0)
(0.01105277 0.001681967 0)
(0.006906224 0.001443383 -3.680681e-23)
(0.00999017 0.0009279416 -7.641081e-24)
(0.01021978 0.0004290299 1.738222e-23)
(0.009646964 0.0005868036 0)
(0.01003299 0.0005266024 2.825222e-24)
(0.01101059 -0.000332101 6.852099e-25)
(0.00965368 -0.001527757 4.125403e-24)
(0.01030295 0.0004336198 1.076822e-23)
(0.009923491 0.0004940028 0)
(0.01081129 0.0001284503 9.655543e-26)
(0.0109456 -0.0001868791 7.048477e-25)
(0.01064566 0.0001036162 -8.040527e-24)
(0.01073917 -0.0004365097 3.076886e-24)
(0.01124393 0.0003049331 0)
(0.01122672 0.001458709 1.051077e-24)
(0.00829795 0.002665463 -2.076708e-23)
(0.009903487 0.0003283748 -1.363829e-23)
(0.01050191 0.0003402577 -9.12377e-24)
(0.01148608 0.0005688916 5.866464e-24)
(0.009737345 0.0003794964 0)
(0.009587247 -0.00145495 0)
(0.01105301 -0.0005949743 1.007434e-24)
(0.00912073 0.0006268647 0)
(0.01024633 0.0004007632 1.757481e-23)
(0.008695476 0.0006713278 7.411263e-25)
(0.01016667 0.0003792623 1.10832e-24)
(0.01020173 -0.001572591 0)
(0.01126831 1.404021e-05 1.570585e-24)
(0.01010379 0.000397098 0)
(0.0106856 0.0002672275 -4.901407e-24)
(0.009975126 0.0002053474 0)
(0.01143748 -0.0006479294 0)
(0.01084401 0.0002428498 0)
(0.009801198 0.0005671363 -1.628711e-23)
(0.01019508 0.0003728725 8.704862e-26)
(0.01044636 -0.00082845 -4.840927e-25)
(0.0114317 0.00115162 -1.562837e-24)
(0.0102995 0.001944129 3.110229e-24)
(0.01012677 0.0006377113 -1.381105e-23)
(0.008837968 4.78328e-05 -3.34484e-23)
(0.01023228 0.0005164302 0)
(0.01001806 0.0004262928 2.084987e-23)
(0.01143236 -0.0006303688 -7.805024e-26)
(0.01053085 0.0002653144 0)
(0.009422311 9.859118e-05 3.30344e-23)
(0.00944465 0.0005662206 6.363552e-24)
(0.009566627 6.938528e-05 1.714441e-23)
(0.01127556 0.0009276101 1.36675e-23)
(0.01000769 0.0007716624 -1.873433e-24)
(0.01095012 -0.0005184178 1.149378e-24)
(0.01148033 0.0001389557 0)
(0.0100003 0.0001927287 5.471429e-25)
(0.01098542 -0.0003434451 0)
(0.009859125 0.0004171629 -3.371119e-23)
(0.007365702 0.002985354 3.13925e-23)
(0.01002013 0.0002942402 -2.599896e-23)
(0.01091595 9.446527e-05 -3.921573e-24)
(0.01034028 0.0004015758 0)
(0.01065742 -0.0004967678 -5.551783e-25)
(0.009034587 0.002328135 -3.528349e-23)
(0.009602583 6.591774e-08 -3.350977e-23)
(0.009977309 0.0004269604 0)
(0.01045322 0.0001716945 -1.185096e-23)
(0.00602819 0.00186841 5.170382e-23)
(0.01056236 0.0006810867 -3.22284e-25)
(0.009482349 -5.684038e-05 -8.943951e-24)
(0.01140674 0.00012769 -3.111002e-24)
(0.01018745 0.0004500635 -1.980396e-24)
(0.01023407 0.001474194 0)
(0.01052067 0.0004140775 0)
(0.01070507 0.0003856237 -3.395045e-24)
(0.0101128 0.0003796237 -5.486716e-24)
(0.00756272 0.0005104725 0)
(0.009822804 9.162078e-05 1.401116e-23)
(0.009269504 -0.0002009967 -1.658334e-23)
(0.008179236 0.0004802172 -2.925696e-23)
(0.01072148 -0.000438754 6.769373e-27)
(0.01057469 0.0006502152 -1.636702e-23)
(0.0113137 0.0001672818 -3.38927e-24)
(0.01046045 0.0005498031 0)
(0.01107878 -0.0006031709 -9.853169e-25)
(0.008901127 -0.001571389 -3.856101e-24)
(0.01126928 -0.0003496535 0)
(0.009969485 -0.001110959 5.244329e-25)
(0.01061323 -0.0004965962 -1.506527e-24)
(0.008706861 0.001289577 -2.599939e-23)
(0.008932297 0.001815031 0)
(0.009440814 0.001489407 2.086782e-23)
(0.009376347 0.001269799 0)
(0.009918079 0.0005300682 -6.336066e-24)
(0.01072747 0.001445094 -4.262075e-24)
(0.01062107 0.0009431304 -4.642898e-24)
(0.01013858 0.0004483967 7.188327e-24)
(0.0101705 0.0005093069 0)
(0.01000928 0.0001461137 0)
(0.0103884 0.001115174 0)
(0.01068448 0.0008606883 1.403408e-23)
(0.01048453 -0.001385019 -5.080518e-24)
(0.01019107 0.0007241899 0)
(0.008722193 0.002862872 -8.933172e-24)
(0.01026434 -0.001393478 3.852289e-24)
(0.01023505 0.000169626 0)
(0.01128028 0.0008259402 -9.053125e-24)
(0.008861693 0.0006594725 0)
(0.01058898 0.0003682912 0)
(0.01013047 0.00038731 -2.131932e-23)
(0.01083662 -0.001011564 7.228589e-25)
(0.01158575 -0.0002870023 -1.366746e-24)
(0.00991882 0.0004762886 0)
(0.009830286 0.0007848987 5.722127e-24)
(0.01139072 0.0007434256 -6.575461e-24)
(0.0104797 0.0004636242 -8.100343e-24)
(0.01165112 0.0003334927 6.458233e-26)
(0.01135514 -0.0005854523 -3.459598e-25)
(0.01111174 -0.0003854143 1.311316e-25)
(0.01054901 0.0005285243 1.272413e-23)
(0.01047871 0.0007372049 2.093755e-23)
(0.009909053 -0.001581097 -7.604932e-24)
(0.01036707 0.001031641 5.218033e-24)
(0.0106086 -0.001139441 0)
(0.01074951 0.0005933729 -6.439909e-24)
(0.01074199 -0.001044906 0)
(0.01080214 -7.151652e-06 0)
(0.009486094 0.001048927 2.064493e-23)
(0.01157702 0.0007281455 3.844534e-24)
(0.009291124 0.000903645 0)
(0.00710893 2.767306e-05 -4.76439e-23)
(0.009816267 0.0006626892 -9.733133e-24)
(0.01023892 0.0004796931 -5.373528e-24)
(0.01106425 0.0004539722 5.436339e-24)
(0.01090842 -0.0006512476 -3.622622e-25)
(0.009507473 0.0004311127 -2.185553e-23)
(0.0106598 0.0001701414 7.194568e-24)
(0.0106395 0.0004932574 -1.420125e-23)
(0.009416013 -3.852512e-05 5.749495e-25)
(0.01050327 -4.284696e-05 1.381017e-24)
(0.01072761 -0.0001661321 -3.033138e-24)
(0.01019072 0.0001177007 1.642272e-24)
(0.01009066 0.0004667438 -1.300767e-23)
(0.01061201 5.37678e-05 9.274489e-25)
(0.01163646 -5.208828e-05 3.844777e-25)
(0.009644479 0.0003639814 -3.154887e-23)
(0.007993292 0.0006890875 -3.600159e-23)
(0.007563447 0.001952004 0)
(0.009531195 0.0004542456 -1.801776e-23)
(0.01089629 0.001739125 -1.195686e-23)
(0.01110959 -0.0001221183 -3.942872e-24)
(0.01074949 0.001489401 0)
(0.01069471 -0.0003984776 -2.513279e-24)
(0.01083835 -0.0004540271 -1.551794e-24)
(0.01007853 0.0004182813 -2.508213e-23)
(0.01025631 0.0006002798 2.161118e-23)
(0.009614323 0.0003166793 7.043904e-25)
(0.009223178 -0.001441898 5.777045e-24)
(0.006678877 0.001568438 -4.11123e-23)
(0.01095978 -0.0002451551 4.846333e-24)
(0.01051343 3.577957e-05 -7.196605e-24)
(0.01105522 0.0005721483 1.021308e-23)
(0.00927539 0.0006089852 -1.417655e-25)
(0.009822524 0.0008334175 -1.208196e-25)
(0.01060935 -0.0007320611 2.214075e-25)
(0.0107383 0.0002409215 -7.745226e-24)
(0.009314101 -0.001804023 3.402777e-24)
(0.009645686 0.0007912694 -9.813129e-24)
(0.01017539 0.0004358335 -4.39319e-24)
(0.01052588 -1.72578e-05 -9.254832e-25)
(0.01144148 0.0008081211 -1.603055e-24)
(0.01072213 3.812159e-05 7.35766e-24)
(0.009728216 0.0002210044 2.850952e-23)
(0.009147315 2.035016e-05 -2.346862e-23)
(0.01094649 0.001089684 1.022732e-23)
(0.01008517 0.001348075 2.788736e-24)
(0.008571875 0.0009901055 1.958159e-23)
(0.0100231 0.0003657167 1.894019e-23)
(0.009806541 -0.001256789 0)
(0.01136364 0.0008210575 6.968218e-24)
(0.01093998 0.0006703083 -9.065055e-24)
(0.008543861 0.001541928 3.38729e-24)
(0.009937153 0.0003418446 7.229921e-24)
(0.01072846 -0.0003964552 -2.919999e-24)
(0.01112486 -0.0007053084 0)
(0.01161675 -0.0001379162 -3.60708e-25)
(0.01135773 0.001268344 -9.769814e-24)
(0.01018687 0.0007667343 3.49546e-23)
(0.01031078 0.001087213 0)
(0.0103507 0.000847475 1.826994e-23)
(0.01092848 -3.400729e-05 -8.807183e-24)
(0.01086301 0.0002417231 7.99247e-24)
(0.01014915 0.0008874552 1.335839e-23)
(0.01011797 0.0004014244 -6.165362e-24)
(0.01085375 0.0001234434 4.044278e-25)
(0.0108831 1.198276e-05 0)
(0.01113791 0.0004782324 5.583992e-24)
(0.0109266 -0.000977469 3.54997e-25)
(0.009283516 -0.001299294 5.393018e-24)
(0.009228967 -0.001533792 -8.040079e-25)
(0.009022679 -0.001830394 2.02024e-24)
(0.01059471 -0.0002464349 2.50277e-24)
(0.01127961 0.0003989421 0)
(0.009716614 0.000688741 1.725782e-23)
(0.01037358 0.0004974162 0)
(0.008801558 0.000385289 2.339974e-23)
(0.009093441 -9.193702e-05 -5.821342e-23)
(0.01060071 0.0003975264 2.562181e-23)
(0.01093453 0.0001981531 4.307962e-25)
(0.01028785 0.0005067117 -2.005929e-23)
(0.01010103 0.001000861 8.610029e-24)
(0.009791659 0.0001453346 -1.124079e-23)
(0.01027831 0.0006703327 1.013387e-23)
(0.01029643 0.0005947609 1.24254e-23)
(0.01011351 0.0002830152 0)
(0.01027023 0.0006075296 1.014861e-23)
(0.01025036 0.0005123671 1.048982e-23)
(0.01032694 0.0004921865 -1.397538e-23)
(0.009611767 0.0007284616 0)
(0.008778466 0.0006248421 -7.121788e-25)
(0.01094381 0.0005650474 2.440211e-24)
(0.01014384 0.0005552065 1.732204e-23)
(0.01009524 0.0004001541 -1.961206e-23)
(0.01097263 0.0003990261 4.087768e-24)
(0.01097137 -0.0001523345 0)
(0.01095674 0.0003326635 -1.038572e-23)
(0.01077099 -0.00045374 0)
(0.01117167 -0.0002208269 -2.070249e-24)
(0.009181264 -0.001678448 4.17468e-24)
(0.01080775 -0.0001634552 -3.012635e-24)
(0.01036476 0.001436639 -8.683842e-24)
(0.009754647 0.001201724 1.635449e-23)
(0.01015471 0.001413957 3.406144e-23)
(0.009995551 0.001164663 2.507129e-23)
(0.01109132 5.606186e-05 0)
(0.009279368 0.001386184 1.775855e-23)
(0.01112064 0.0005261944 -5.816403e-24)
(0.01101195 -0.0009245047 0)
(0.01086915 0.0009513333 0)
(0.008620785 0.0008310232 -2.030365e-23)
(0.01017593 0.0004562963 0)
(0.01070016 0.000307711 2.049191e-23)
(0.01015642 0.0007861991 4.794037e-24)
(0.01057285 0.001728231 8.960844e-24)
(0.009523984 0.0003104167 4.597487e-23)
(0.01047665 0.0002982754 0)
(0.01128127 -0.0003987191 -1.21015e-24)
(0.01032993 0.0002936798 1.080675e-23)
(0.009931626 0.000114517 3.741315e-23)
(0.009709258 0.0004102811 5.923987e-24)
(0.009612286 0.0004581238 -2.256412e-23)
(0.008784631 0.001775409 -2.618889e-23)
(0.01035115 0.0005494262 0)
(0.008320192 -0.0001961765 -2.217203e-23)
(0.01072738 -0.0003726692 -3.24561e-24)
(0.01018671 0.0003564799 2.19809e-23)
(0.008010066 0.0004243481 -2.514699e-23)
(0.009903549 0.001634518 4.428442e-24)
(0.01022337 0.0003988991 -3.391388e-23)
(0.006726695 0.002869989 2.009775e-23)
(0.01101387 0.0005702194 -1.146515e-23)
(0.01015937 -0.001687779 -9.486563e-25)
(0.01052583 -6.053103e-05 -6.292802e-24)
(0.01052865 -0.0001303666 -2.613275e-24)
(0.009149798 9.753461e-05 -2.497317e-24)
(0.01003404 0.0005414314 -2.812759e-23)
(0.01142183 0.0003920951 0)
(0.009855035 0.002165753 0)
(0.01018341 0.0003277952 -1.399592e-23)
(0.01073378 -0.001278039 0)
(0.01056225 0.001803207 -3.252712e-24)
(0.009403237 0.0007698819 -1.961927e-23)
(0.01089385 -2.549379e-05 -1.164144e-23)
(0.01163285 2.01265e-05 2.671661e-25)
(0.009681584 0.0006873218 4.01426e-23)
(0.009974938 0.0006570925 0)
(0.01019303 0.001014209 -1.580278e-23)
(0.01024788 0.0005594735 1.961792e-23)
(0.0108993 0.0002594645 3.453599e-24)
(0.01162593 0.0005262535 2.740259e-24)
(0.01146497 7.275126e-05 0)
(0.009614056 0.0001273976 4.346206e-23)
(0.008153372 0.002269843 -4.785202e-23)
(0.007002286 0.001080067 -4.009004e-23)
(0.00968907 0.0003772325 0)
(0.01077048 -6.617054e-05 5.090964e-25)
(0.0113774 -0.0004633744 -3.424205e-25)
(0.009963153 0.0005380112 -9.31154e-24)
(0.01120052 0.0001357455 4.604498e-24)
(0.01086207 -0.0004880934 -1.895259e-24)
(0.009409821 0.0003043232 4.766558e-24)
(0.01025058 0.002064516 0)
(0.01049031 0.002127514 2.722118e-24)
(0.01107664 -6.714937e-05 -3.292923e-24)
(0.009393717 6.376045e-05 -2.022581e-24)
(0.008912124 -0.001953924 4.357006e-24)
(0.009491652 0.0002681388 -7.710526e-24)
(0.00924459 0.0001109139 -1.576089e-23)
(0.01035934 0.0004515839 0)
(0.009650603 0.0001801446 1.525851e-23)
(0.009577843 0.0001599123 -1.620761e-23)
(0.01131963 -0.0006600185 3.328129e-25)
(0.01078819 -0.0002930344 -1.281282e-24)
(0.01011814 0.0002232464 2.709618e-23)
(0.01081361 -0.0007730305 -2.67944e-25)
(0.009999113 0.000415386 1.757199e-23)
(0.009262265 0.0002854482 -1.896498e-23)
(0.009305923 -5.252512e-05 -4.621993e-23)
(0.01124323 -0.0009313306 -2.083796e-24)
(0.01059011 -0.0002738792 -3.40244e-24)
(0.0111927 0.0009355434 8.663843e-24)
(0.01095602 0.001463789 6.691087e-24)
(0.01073415 0.0004088473 1.031143e-23)
(0.01002532 -0.001278614 3.159865e-24)
(0.01076697 -0.00119084 0)
(0.01108571 0.001421738 0)
(0.009947959 0.0002827849 -1.236452e-23)
(0.01107105 0.0001140575 5.618842e-24)
(0.0101979 0.0009281441 -8.209273e-24)
(0.01036945 0.0008755976 -7.672426e-24)
(0.01074515 0.0007506997 -8.807082e-24)
(0.01091881 0.000999559 0)
(0.01044204 0.0007750366 -6.963886e-24)
(0.01050118 0.0009277097 -6.841747e-24)
(0.00972287 0.0003072892 3.240339e-23)
(0.01131394 0.001350259 9.249721e-24)
(0.01066792 -9.691413e-05 3.498294e-25)
(0.01054992 -0.001008613 0)
(0.01134694 -0.0003368429 3.197048e-25)
(0.01146397 -0.0005913555 5.222875e-25)
(0.00998971 0.0005253451 -1.534533e-23)
(0.008755959 0.0002453278 3.746487e-23)
(0.01041854 -0.001133127 -1.582089e-24)
(0.009894717 0.0004884127 -2.841874e-23)
(0.009910272 0.0005665389 1.541862e-23)
(0.008698857 0.0004915003 -1.638858e-25)
(0.01072529 -0.001276325 -1.29343e-23)
(0.01031674 0.0003817004 0)
(0.0103878 0.001203867 -1.700038e-23)
(0.009195908 0.001098227 -1.778226e-23)
(0.009740754 -0.001821723 4.304175e-24)
(0.01138713 -0.0004010921 2.061605e-24)
(0.01090247 -0.0008855978 1.216903e-24)
(0.009734491 0.0001102889 3.68991e-23)
(0.01028045 0.001391749 1.746665e-23)
(0.00791974 0.002914793 0)
(0.01016474 0.0003467545 1.268238e-23)
(0.009136908 -0.001336335 -5.097301e-24)
(0.009886351 0.0007047406 1.311486e-25)
(0.009510757 0.001645211 3.328992e-23)
(0.009009611 -0.0001847945 5.095131e-23)
(0.01002792 0.0004028842 0)
(0.009835805 3.641795e-05 -2.863102e-23)
(0.00992749 0.0002048296 -1.964479e-23)
(0.01070683 -0.0001440123 -4.928093e-24)
(0.01085928 0.000579079 0)
(0.01089105 0.0005889733 -4.926354e-24)
(0.009951984 0.0007617255 0)
(0.01013013 0.0003737359 0)
(0.009140483 0.002726582 0)
(0.009872152 0.0003811547 0)
(0.01000854 0.001062182 1.593686e-23)
(0.009478859 -0.0002150255 -2.067617e-23)
(0.009600347 0.0003439672 0)
(0.01011658 0.0008074246 1.340054e-23)
(0.009456248 0.0004862135 0)
(0.008392462 0.002885681 1.447284e-23)
(0.01080184 -0.0004816297 0)
(0.010705 0.0006966569 -8.222315e-24)
(0.009826608 0.0004270862 0)
(0.00824604 -8.786889e-05 2.598147e-23)
(0.009836277 0.0005201554 -1.69552e-23)
(0.01155975 -0.0001506532 0)
(0.01075337 -9.801549e-06 -2.967463e-24)
(0.009148772 0.0004094412 -2.64836e-23)
(0.009984977 0.0002326257 0)
(0.01109265 -0.001112956 2.902943e-25)
(0.01063682 -0.001290423 0)
(0.01063462 0.0002564561 -1.026366e-23)
(0.01052737 0.0003794241 -3.375538e-24)
(0.008865738 -0.0001468907 0)
(0.01073419 -0.000537697 1.78199e-25)
(0.01161964 0.0005471264 2.240861e-24)
(0.01001491 0.0004455993 -2.842744e-23)
(0.01024905 -0.001314791 0)
(0.01051428 0.000488833 0)
(0.009951776 8.478334e-05 2.699213e-23)
(0.009361635 0.0004243058 0)
(0.01063706 0.001987045 -4.838547e-25)
(0.01032067 0.0004779558 -6.952568e-24)
(0.01078027 -0.0003399929 -5.221721e-24)
(0.01036098 0.0002525638 0)
(0.00952094 -0.0001251174 -1.987637e-23)
(0.0112983 0.0006958029 -1.222654e-23)
(0.01020248 0.0004896427 -9.222683e-24)
(0.01119604 -0.0008405107 0)
(0.009913025 0.0007975763 -6.412248e-24)
(0.01015217 0.0004932487 0)
(0.01085762 0.001489218 0)
(0.01085149 0.0005051219 0)
(0.008283458 0.0009285711 2.376582e-23)
(0.01084571 -0.00129147 -1.687074e-23)
(0.01020696 0.0003777128 0)
(0.01074154 -0.0001194357 -3.097718e-24)
(0.01080805 -0.0003778635 2.371071e-24)
(0.01057899 0.001252152 8.350873e-24)
(0.0108318 0.0002627982 -9.278632e-24)
(0.01018843 0.000254445 0)
(0.01078692 0.0007973518 -1.114115e-23)
(0.009551472 -1.507981e-05 1.945259e-23)
(0.009526113 0.0001079658 -1.260368e-23)
(0.009660632 0.0002363187 -1.718924e-23)
(0.01007976 0.0003769087 -8.351934e-24)
(0.008951628 -9.976828e-05 3.674234e-23)
(0.008230456 0.0001237072 1.380493e-23)
(0.01019346 0.000144624 8.123576e-24)
(0.01120321 -0.0004228879 0)
(0.01141009 0.001194818 0)
(0.01079316 -0.0002217858 -7.068725e-24)
(0.01067885 -0.000408261 1.593644e-24)
(0.01151681 0.000423968 4.44637e-24)
(0.0100433 0.0006105902 -2.41892e-23)
(0.009109726 0.0002290378 -1.570689e-23)
(0.01108361 0.0002021782 0)
(0.01079956 0.0001768538 -1.577254e-24)
(0.01006557 0.0004498287 0)
(0.00989654 0.001684771 -9.280377e-24)
(0.009359897 0.001964986 -9.388297e-25)
(0.01071345 0.001995441 -2.152338e-23)
(0.0101334 0.002278744 -1.048928e-24)
(0.009087565 0.001458564 4.296456e-29)
(0.0101484 0.0006665463 8.936353e-24)
(0.009600412 0.002157237 6.568266e-24)
(0.009777848 0.001369262 8.764991e-24)
(0.01100298 0.0001695615 4.271472e-24)
(0.01054777 0.0005621258 0)
(0.01016624 0.0006426636 2.122554e-23)
(0.01093404 0.0004358677 0)
(0.01027123 0.00062642 0)
(0.01013204 0.00127337 0)
(0.01010472 0.0002628094 0)
(0.01117635 -0.0001536388 -2.197547e-24)
(0.01106095 0.0003041739 2.754546e-24)
(0.01002504 0.0005458841 0)
(0.01028189 0.001644208 9.650776e-24)
(0.01087356 0.0008173216 5.194156e-24)
(0.0102674 0.0004404447 6.456624e-24)
(0.01079243 -0.0005529735 -1.449613e-24)
(0.01101401 -0.000492268 -2.297656e-24)
(0.01105773 -0.001121299 -2.233582e-24)
(0.01018304 0.0002996706 0)
(0.01068006 -0.0006265522 -2.047321e-25)
(0.008437744 0.0002636036 5.592331e-23)
(0.009350173 0.0002064483 -4.994253e-23)
(0.009284975 0.0001390944 6.515146e-23)
(0.009059338 0.0005921433 2.147309e-23)
(0.009109462 0.0002726339 0)
(0.01046224 0.0004499403 0)
(0.009727638 0.0004078628 0)
(0.01052804 0.0006248592 0)
(0.0098395 0.0001606434 0)
(0.01101656 -0.0007811679 0)
(0.01012909 0.0005182822 2.430422e-23)
(0.00998546 -0.001216229 1.75143e-24)
(0.01009803 0.0004170552 0)
(0.010103 0.0004743021 7.212691e-24)
(0.01024923 0.001714695 0)
(0.009913575 0.000843888 1.132202e-23)
(0.009925779 0.001001993 -3.913767e-23)
(0.009623955 0.0009240058 0)
(0.01130565 0.0008655932 -4.015589e-24)
(0.009445347 -0.001743439 6.113238e-24)
(0.01039478 0.0007067531 9.884153e-24)
(0.01018676 0.0003818291 -1.01435e-23)
(0.009165601 -0.001866442 3.533578e-24)
(0.009015382 0.0007030567 0)
(0.01079774 0.0002676648 0)
(0.01064591 -0.001184528 0)
(0.01001066 0.0002317888 2.004074e-23)
(0.01008365 0.0002207206 5.040669e-25)
(0.009955932 0.0006658466 0)
(0.009783513 0.0009172516 0)
(0.01015535 0.0004128717 1.23879e-23)
(0.01065672 0.0004152663 7.718183e-26)
(0.01017614 0.0005839386 0)
(0.01145001 0.0006224479 -6.558559e-24)
(0.01093307 -0.000114469 -8.132495e-24)
(0.01028671 0.0003877798 -1.101915e-23)
(0.01046054 -0.0007819155 0)
(0.007708847 0.002207689 0)
(0.007333234 0.002353585 -2.856428e-23)
(0.01051153 0.0007269748 -2.61998e-23)
(0.009509428 -0.001307636 3.374683e-24)
(0.01047912 0.001230795 -1.255346e-23)
(0.0101807 0.001548692 -7.852595e-24)
(0.01068279 0.001548838 -1.202544e-23)
(0.00963071 0.001834707 -7.642315e-24)
(0.01073601 -0.0002445706 -2.156056e-24)
(0.01039287 0.0005682472 5.516876e-24)
(0.01073051 0.0005468709 2.620737e-24)
(0.009575043 0.0007344095 -8.481082e-24)
(0.009745604 0.0009767855 -2.197662e-23)
(0.01103847 0.0007936038 0)
(0.009389521 0.0009603787 1.737025e-23)
(0.009494307 0.0007235238 -3.568126e-23)
(0.01007888 0.0005034749 1.442869e-23)
(0.01005473 0.0004645515 -7.72266e-24)
(0.0110087 -0.001195169 0)
(0.0112582 -0.0004607777 0)
(0.007643774 0.001304833 6.510159e-23)
(0.01043932 0.0003058406 0)
(0.01062058 -0.0007891924 0)
(0.01075888 1.777703e-05 -3.130153e-24)
(0.01049886 0.000498234 0)
(0.01029858 1.873359e-05 -1.126269e-23)
(0.01072578 -0.0008940397 7.006487e-25)
(0.01083124 0.001362313 2.236375e-23)
(0.01121601 -0.0001959288 -5.126367e-24)
(0.01067296 9.493767e-05 1.060842e-23)
(0.01051405 0.0001159941 0)
(0.01027016 0.0007665212 1.140048e-25)
(0.009762463 0.0002681296 -2.213216e-23)
(0.007982962 0.0008029429 0)
(0.008751511 0.0009546486 2.576759e-23)
(0.0103638 0.0004815468 -6.119796e-24)
(0.01009475 0.0003346842 1.413296e-23)
(0.01012065 0.0003512417 -2.111436e-23)
(0.01091476 -0.0005126721 -2.183517e-24)
(0.01008591 0.000429097 -1.172045e-23)
(0.01011144 0.0004555842 0)
(0.01110847 -0.00110421 2.923445e-24)
(0.01164656 3.922765e-05 0)
(0.009685337 0.0003258511 -3.540305e-24)
(0.01006802 0.00113636 -1.970798e-23)
(0.01100272 -0.0008326846 0)
(0.01062098 -2.61756e-05 0)
(0.01052473 -0.001260404 0)
(0.008257727 0.0002108373 -2.741423e-23)
(0.01131498 0.0007449476 1.293611e-23)
(0.008780739 0.000176357 -3.390021e-23)
(0.01042938 0.0003477113 -2.448316e-25)
(0.01061269 0.0004798022 -5.831672e-24)
(0.01037424 -0.0009971936 7.062899e-25)
(0.01163983 0.0004472887 -2.267965e-24)
(0.01112695 -0.0001937047 -4.627219e-24)
(0.0098575 0.0001309503 0)
(0.01013344 0.0007001265 -9.467485e-24)
(0.009234256 -0.001345028 7.941017e-26)
(0.009105288 -0.001532204 7.763073e-25)
(0.009409747 -0.00134955 -2.857949e-24)
(0.01055625 0.000358357 -1.084146e-23)
(0.01096299 0.001004632 -8.820404e-24)
(0.01039201 0.000731895 1.292937e-23)
(0.0107292 0.00161228 -1.4849e-23)
(0.01062433 0.00153362 -4.739441e-24)
(0.009743498 -0.001230705 0)
(0.009628786 -0.001582491 0)
(0.009888545 0.0005412393 -1.936987e-23)
(0.01118614 0.0004118295 0)
(0.01103321 0.0007269529 0)
(0.009844312 -0.001491229 2.170083e-24)
(0.01086213 -0.000397256 -8.977602e-25)
(0.01070828 0.0002835952 -1.713313e-23)
(0.009558845 -0.0001681649 0)
(0.01065814 -0.0005924522 -4.201237e-25)
(0.01006496 0.0003328223 1.251738e-23)
(0.01138222 0.0002443074 0)
(0.01145211 0.0001970824 3.383269e-24)
(0.01111758 0.0003965641 2.884601e-24)
(0.00907853 -0.001861888 -2.378517e-24)
(0.01075445 -0.0004129428 -1.895863e-24)
(0.01088459 -0.0007558575 -1.294411e-26)
(0.01057283 0.001480858 -2.104244e-24)
(0.0105825 -0.0001422654 -4.37993e-24)
(0.008918795 0.002675741 6.805961e-24)
(0.01002507 0.0002398079 4.859609e-24)
(0.01000056 2.929717e-05 2.32178e-23)
(0.009970648 0.0005077278 -2.648184e-23)
(0.01060734 -0.000290603 2.443979e-24)
(0.01061677 0.001439632 9.7536e-25)
(0.009270455 0.002727532 -2.372124e-23)
(0.01089028 -6.189231e-05 -8.575734e-24)
(0.01086776 -6.275377e-05 1.015392e-23)
(0.01112242 -7.501559e-06 0)
(0.01123682 -0.0007653113 -2.518903e-25)
(0.01146809 0.000838993 -4.70449e-24)
(0.01098732 0.001684329 -2.134328e-23)
(0.01145241 0.0004855522 1.351264e-24)
(0.01138122 0.0004305227 0)
(0.01079418 0.0003483222 0)
(0.01059029 0.0008020275 0)
(0.01002536 0.0005573411 -1.954469e-23)
(0.01042335 0.0006710746 -9.568704e-24)
(0.01039724 0.0006072604 0)
(0.01054829 -0.0007667286 0)
(0.01107545 0.0005319733 -6.675348e-24)
(0.008891323 0.002180973 0)
(0.009496158 -0.0001523445 5.13892e-23)
(0.009736102 0.000455663 -4.695359e-24)
(0.009327656 0.0004499724 0)
(0.01126811 0.0005160737 0)
(0.009654012 -0.001758791 -9.357811e-24)
(0.008473049 0.001812552 0)
(0.008774457 0.002811811 -1.600382e-23)
(0.01051261 0.001272978 1.247044e-23)
(0.0105381 -0.0002101007 -1.986929e-24)
(0.01077176 0.0007230952 1.944104e-23)
(0.009374948 -0.0002503625 8.337349e-24)
(0.009366826 -2.470193e-05 -2.622508e-23)
(0.01098473 7.232612e-05 -3.45951e-24)
(0.01099222 -0.0005698027 -5.480264e-25)
(0.01073018 -0.0006244 -6.938693e-25)
(0.009715375 -0.001741518 5.924676e-24)
(0.009439767 0.0001720524 0)
(0.009924367 0.0006060755 0)
(0.01017868 0.0005664945 0)
(0.01002862 0.000585059 -9.718722e-24)
(0.009750309 0.0002341111 0)
(0.01035598 -0.001539794 6.522765e-24)
(0.01163272 0.0001271224 7.841005e-25)
(0.01012701 0.00043118 -1.626249e-23)
(0.0109021 0.0001934572 0)
(0.01076328 0.0001999701 -1.135994e-23)
(0.00979157 -0.001644758 0)
(0.01033436 0.0001070711 -1.382358e-23)
(0.01065642 0.002055877 0)
(0.0102977 -0.001029331 3.076778e-24)
(0.01081235 0.0002545271 0)
(0.01059681 -0.000189899 -5.760815e-25)
(0.01056943 -0.00110076 -6.265804e-25)
(0.01070033 0.0001169952 6.775644e-24)
(0.008116298 -0.0001042427 0)
(0.01096641 0.0002968495 1.551571e-23)
(0.009175944 0.0005359323 -1.842144e-23)
(0.01046271 -7.038359e-06 -4.542995e-24)
(0.008279026 0.001255453 8.435351e-24)
(0.01164378 5.157e-05 0)
(0.01148572 -0.0003469022 8.556723e-25)
(0.009703568 -0.001501979 5.19638e-24)
(0.0103291 0.0006575659 1.395256e-23)
(0.01080261 0.000512771 0)
(0.009544709 0.0006657738 -3.274954e-23)
(0.01119194 -0.0009961049 6.701432e-24)
(0.01080099 -0.0003305423 2.517345e-24)
(0.010925 -0.0002808536 -2.453081e-24)
(0.009764663 0.0003010392 -2.164299e-23)
(0.01078891 0.0005673878 4.849035e-25)
(0.01035174 0.0003911052 0)
(0.01153863 8.348168e-05 2.063851e-24)
(0.01018049 0.0004147183 -6.733473e-24)
(0.01057983 0.0005063568 -3.121822e-24)
(0.01047857 0.0005466837 -1.414397e-23)
(0.01071292 0.0005736847 0)
(0.01070417 -0.0002367454 -1.762201e-24)
(0.009586109 -5.319935e-05 0)
(0.01078671 0.0009747681 1.887453e-24)
(0.00987676 0.0005804604 -1.331306e-23)
(0.01071524 0.0004053932 -1.422895e-23)
(0.01040878 -0.0009270604 1.230112e-24)
(0.01072708 -0.0005922914 1.06224e-24)
(0.00995144 0.0004499368 2.859993e-24)
(0.009910489 0.0001689997 3.303005e-23)
(0.009761229 0.0001001122 -1.662551e-23)
(0.01067974 0.0006083997 0)
(0.01033195 -0.001140544 1.501965e-24)
(0.008883531 -8.576629e-07 9.377924e-24)
(0.01084178 0.0001595388 9.14899e-24)
(0.009394524 0.0006371307 1.416336e-23)
(0.01004595 8.852927e-05 9.56333e-24)
(0.009749984 0.0005504431 1.200056e-23)
(0.009245759 0.0008585116 -1.232967e-23)
(0.009888761 0.0006625965 -5.031327e-24)
(0.008922255 -0.001303548 -5.112277e-24)
(0.009106181 0.002096515 -8.644084e-24)
(0.01000103 4.21423e-05 -1.48072e-23)
(0.009919462 0.0007318998 -4.240876e-24)
(0.01097429 0.0009073085 2.706056e-24)
(0.01057612 -0.0007402014 0)
(0.009945355 0.0001786436 -1.624028e-23)
(0.0107045 0.0009210309 6.29906e-24)
(0.01128605 -0.0002861139 2.17626e-24)
(0.008739217 0.002732295 5.979314e-23)
(0.01047097 0.0005166056 -1.6888e-23)
(0.006092368 0.0007699611 -4.728217e-24)
(0.009643752 0.0003095508 -1.842645e-23)
(0.009991268 0.000181458 2.052266e-23)
(0.009783792 0.001230839 0)
(0.009463437 0.00116486 -9.916529e-24)