/*--------------------------------*- C++ -*----------------------------------*\
| =========                 |                                                 |
| \\      /  F ield         | OpenFOAM: The Open Source CFD Toolbox           |
|  \\    /   O peration     | Version:  2406                                  |
|   \\  /    A nd           | Website:  www.openfoam.com                      |
|    \\/     M anipulation  |                                                 |
\*---------------------------------------------------------------------------*/
FoamFile
{
    version     2.0;
    format      ascii;
    arch        "LSB;label=32;scalar=64";
    class       surfaceScalarField;
    location    "2.12";
    object      phi;
}
// * * * * * * * * * * * * * * * * * * * * * * * * * * * * * * * * * * * * * //

dimensions      [0 3 -1 0 0 0 0];

oriented        oriented;

internalField   nonuniform List<scalar> 
23794
(
0.00765521
-0.007896352
0.0002411429
0.007261895
0.0003933149
0.006677053
0.0005848412
0.005775276
0.0009017774
0.004161251
0.001614025
0.001353562
0.002807688
-0.001594494
0.002948056
-0.002637213
0.001042719
-0.001618783
-0.00101843
-0.001019623
-0.0005991598
-0.001665125
0.0006455023
-0.003087633
0.001422508
-0.003253101
0.0001654679
-0.001926969
-0.001326132
0.0001317728
-0.002058742
0.002361819
-0.002230046
0.004326778
-0.001964959
0.005825206
-0.001498428
0.006225073
-0.0003998672
0.004888826
0.001336248
0.001693449
0.003195377
-0.001964188
0.003657637
-0.00419587
0.002231682
-0.002626502
-0.001569368
0.0004794947
-0.003105996
0.00271618
-0.002236685
0.003447564
-0.0007313839
0.003984362
-0.0005367989
0.005555513
-0.00157115
0.00858481
-0.003029298
0.01077337
-0.002188555
0.007689598
0.003083767
0.0005508612
0.007138737
-0.002459557
0.003010418
-0.0005255222
-0.001934035
0.00166381
-0.002189332
2.715363e-05
0.001636656
-0.005301116
0.00532827
-0.009784108
0.004482992
-0.0124038
0.002619689
-0.01374637
0.001342577
-0.01450774
0.0007613647
-0.01499325
0.0004855115
-0.01531369
0.0003204382
-0.01552215
0.000208465
-0.01555158
2.942199e-05
-0.01550991
-4.166887e-05
-0.01543512
-7.478644e-05
-0.01531782
-0.0001173043
-0.01518833
-0.0001294819
-0.01500269
-0.0001856389
-0.01477973
-0.0002229669
-0.01450025
-0.0002794823
-0.01419947
-0.0003007767
-0.01388352
-0.0003159502
-0.01351529
-0.000368224
-0.01312982
-0.0003854792
-0.01273797
-0.0003918441
-0.0122829
-0.0004550719
-0.01180677
-0.0004761252
-0.01130725
-0.0004995258
-0.01080258
-0.0005046726
-0.01027778
-0.0005248004
-0.009704646
-0.0005731293
-0.009140805
-0.0005638412
-0.008536731
-0.0006040742
-0.007915547
-0.0006211836
-0.007290146
-0.0006254013
-0.006657927
-0.0006322185
-0.00599505
-0.0006628774
-0.005331558
-0.000663492
-0.004660772
-0.000670786
-0.003977028
-0.0006837434
-0.003296606
-0.0006804226
-0.002634726
-0.0006618801
-0.001938606
-0.0006961192
-0.001269573
-0.0006690335
-0.0006330401
-0.0006365329
3.650029e-05
-0.0006695404
0.0008088438
-0.0007723435
0.001548734
-0.0007398904
0.002263501
-0.0007147664
0.002963136
-0.0006996351
0.00364394
-0.0006808042
0.004321413
-0.0006774734
0.004976918
-0.0006555049
0.005642911
-0.0006659932
0.006287873
-0.0006449615
0.006896445
-0.0006085725
0.007507696
-0.0006112504
0.008105211
-0.0005975156
0.008678558
-0.0005733464
0.009246349
-0.0005677913
0.00979849
-0.0005521408
0.0102967
-0.0004982105
0.01078808
-0.0004913765
0.01126217
-0.0004740892
0.0116947
-0.0004325363
0.01212452
-0.0004298163
0.01250062
-0.0003761057
0.01284749
-0.0003468621
0.01315318
-0.0003056907
0.01341367
-0.0002604888
0.01366476
-0.0002510974
0.01387508
-0.0002103127
0.01404191
-0.0001668326
0.01416071
-0.0001187995
0.01423276
-7.205446e-05
0.01425643
-2.366532e-05
0.01418323
7.320281e-05
0.01403746
0.0001457625
0.01375764
0.0002798221
0.01323143
0.0005262122
0.01238233
0.000849102
0.01094591
0.001436417
0.008262223
0.002683687
0.004041132
0.004221091
0.0007424657
0.003298666
7.222385e-06
0.0007352433
-0.003284174
0.003291396
-0.009197859
0.005913686
-0.009396106
0.0001982463
-0.005537248
-0.003858858
-0.002730052
-0.002807196
-0.0004533582
-0.002276694
0.002977211
-0.003430569
0.005791663
-0.002814452
-7.667506e-06
0.00579933
-0.007530196
0.007522529
-0.009058995
0.001528798
-0.007065106
-0.001993889
-0.004764805
-0.002300301
-0.002437722
-0.002327083
-0.0001408442
-0.002296878
0.002418799
-0.002559643
0.002910944
-0.0004921452
0.001846794
0.00106415
0.001111438
0.0007353564
-6.863151e-05
0.001180069
-0.0002362825
0.000167651
0.0009637674
-0.00120005
0.001809593
-0.0008458259
0.002112509
-0.0003029157
0.00170098
0.0004115293
0.001076783
0.0006241973
0.0004128151
0.0006639674
0.0003778901
3.492504e-05
0.001255008
-0.0008771176
0.002305856
-0.001050849
0.003273009
-0.0009671526
0.004222523
-0.0009495139
0.005186649
-0.0009641257
0.00614032
-0.0009536717
0.0069895
-0.0008491801
0.007573498
-0.0005839974
0.007898779
-0.0003252813
2.426705e-06
0.01157368
-0.01122668
-0.0001058598
0.01150939
0.0004576084
0.0110002
0.001094029
0.01011295
0.001789025
0.008728791
0.002998186
0.005795309
0.00574117
0.0005438678
0.008199497
-0.003461111
0.005047697
-0.003804074
-0.0006754669
-0.004208785
-0.0001944488
-0.005433293
0.001870011
-0.006001102
0.001990317
-0.004573723
-0.001261911
-0.002232886
-0.003666968
0.0002813264
-0.004572954
0.002955
-0.004903719
0.005320511
-0.004330471
0.007145989
-0.003323907
0.00790296
-0.001156838
0.00727979
0.001959418
0.004633685
0.005841482
-0.0005908152
0.008882137
-0.005108804
0.00674967
-0.003610025
-0.003068147
-0.0002308963
-0.006485124
0.001601081
-0.004068662
0.002012199
-0.001142502
0.002167797
-0.0006923973
0.003354983
-0.002758336
0.006512014
-0.006186329
0.009593695
-0.005270235
0.008925092
0.00375237
0.002827444
0.01323638
-0.002451499
0.008289362
-0.005441036
0.001055503
-0.009328366
0.001697998
-0.01377336
0.00608165
-0.0185817
0.01013661
-0.02156089
0.007462177
-0.02233982
0.003398624
-0.02249072
0.001493478
-0.02248479
0.0007554321
-0.0224195
0.0004202185
-0.02232124
0.0002221787
-0.02220417
9.139361e-05
-0.02198618
-0.0001885622
-0.02175194
-0.0002759145
-0.02149813
-0.0003285935
-0.02120136
-0.0004140685
-0.02089305
-0.0004377999
-0.02052629
-0.0005523929
-0.02012273
-0.0006265316
-0.01965775
-0.000744456
-0.01917037
-0.0007881655
-0.01867379
-0.0008125296
-0.01812069
-0.0009213238
-0.01754615
-0.0009600191
-0.01696953
-0.0009684635
-0.0163202
-0.001104401
-0.01565114
-0.001145186
-0.01495498
-0.001195683
-0.01425226
-0.001207395
-0.01353208
-0.001244977
-0.01275437
-0.001350842
-0.01198881
-0.001329397
-0.01118165
-0.001411235
-0.01035242
-0.001450417
-0.009521538
-0.00145628
-0.008687017
-0.00146674
-0.00781502
-0.001534874
-0.006941251
-0.001537261
-0.006061599
-0.001550438
-0.005167746
-0.001577596
-0.004279943
-0.001568226
-0.003412435
-0.001529388
-0.002510176
-0.001598378
-0.001638578
-0.001540632
-0.0008025187
-0.001472592
7.190089e-05
-0.00154396
0.001068563
-0.001769006
0.002028276
-0.001699603
0.002959714
-0.001646205
0.003870826
-0.001610748
0.004761914
-0.001571891
0.005650569
-0.001566129
0.006513997
-0.001518933
0.007389498
-0.001541495
0.008241865
-0.001497328
0.009050399
-0.001417107
0.009864193
-0.001425044
0.01066625
-0.001399574
0.0114384
-0.001345496
0.01220475
-0.00133414
0.01295803
-0.001305416
0.01364762
-0.001187805
0.01433368
-0.001177439
0.01500062
-0.001141022
0.01562123
-0.001053153
0.01624109
-0.00104967
0.01679835
-0.0009333674
0.01733021
-0.0008787274
0.01781643
-0.000791907
0.0182534
-0.0006974634
0.01868711
-0.0006848069
0.01907812
-0.0006013185
0.01942228
-0.0005109949
0.019719
-0.0004155195
0.01996531
-0.0003183671
0.02018231
-0.0002406601
0.02034851
-9.2998e-05
0.0205167
-2.242497e-05
0.02065161
0.0001449088
0.02067147
0.0005063491
0.02057865
0.0009419248
0.02029162
0.001723443
0.01923393
0.003741377
0.01608275
0.007372273
0.01010753
0.00927389
0.002450407
0.008392365
-0.004854291
0.01059609
-0.007298695
0.00835809
-0.004649562
-0.002450887
-0.001212193
-0.007296226
0.001016128
-0.005035517
0.002360376
-0.003620942
0.005311033
-0.006381226
0.006869928
-0.004373347
-0.002137906
0.01480716
-0.01049122
0.01587584
-0.01037615
0.00141373
-0.008185873
-0.004184168
-0.005525861
-0.004960313
-0.002913601
-0.004939343
-0.0004734687
-0.00473701
0.002776446
-0.005809558
0.004745778
-0.002461477
0.00416403
0.001645898
0.001891567
0.003007819
-0.0003862718
0.003457909
-0.0003986578
0.000180037
0.00111909
-0.002717797
0.002229432
-0.001956168
0.002732692
-0.000806176
0.002512877
0.0006313443
0.001789738
0.001347336
0.0005923257
0.00186138
0.0004020046
0.0002252462
0.001576078
-0.002051191
0.002881538
-0.002356309
0.004083708
-0.002169323
0.005252921
-0.002118726
0.006417532
-0.002128737
0.007567074
-0.002103214
0.008671782
-0.001953888
0.009658641
-0.001570857
0.01055745
-0.001224091
-0.000666801
0.01346214
-0.01289021
-0.0006777937
0.01367782
0.0002419282
0.01339312
0.001378726
0.01256199
0.002620163
0.01128063
0.004279539
0.009187835
0.007833969
0.004104786
0.01328255
-0.002446731
0.01159921
-0.005540008
0.002417811
-0.006832046
0.001097589
-0.007706601
0.002744566
-0.007206671
0.001490386
-0.00501137
-0.003457212
-0.002437995
-0.006240343
0.0003836332
-0.007394583
0.003463398
-0.007983484
0.006198855
-0.007065928
0.008312572
-0.005437623
0.009116186
-0.001960452
0.008314058
0.002761546
0.006085291
0.008070248
0.001215115
0.01375231
-0.004131877
0.01209666
-0.004145255
-0.003054769
-0.002099061
-0.008531319
-0.001700211
-0.004467512
-0.002465335
-0.0003773777
-0.003137178
-2.055413e-05
-0.001642495
-0.004253019
0.002045669
-0.009874493
0.005411265
-0.008635831
0.005764565
0.00339907
0.00148795
0.017513
-0.008557732
0.01833504
-0.01767625
0.01017402
-0.02291967
0.006941418
-0.02554194
0.008703924
-0.02665408
0.01124874
-0.02653544
0.007343545
-0.02629191
0.003155085
-0.02632835
0.001529922
-0.02637406
0.0008011439
-0.02638984
0.0004359965
-0.02636165
0.0001939948
-0.02630078
3.051708e-05
-0.02608062
-0.0004087244
-0.02581571
-0.0005408226
-0.02552649
-0.0006178079
-0.02518508
-0.0007554817
-0.02483229
-0.0007905913
-0.0244066
-0.0009780817
-0.02393801
-0.001095119
-0.02339449
-0.001287974
-0.02282348
-0.001359178
-0.02224258
-0.001393433
-0.02159109
-0.001572811
-0.02091391
-0.001637204
-0.02023568
-0.001646691
-0.01946738
-0.001872698
-0.01867561
-0.001936961
-0.01785096
-0.002020326
-0.01701812
-0.002040242
-0.01616428
-0.002098811
-0.01523922
-0.002275902
-0.0143302
-0.002238416
-0.01336852
-0.002372918
-0.01238057
-0.002438366
-0.01138984
-0.002447015
-0.01039421
-0.002462363
-0.009352828
-0.00257626
-0.00830873
-0.002581359
-0.007256263
-0.002602905
-0.006186532
-0.002647326
-0.005121976
-0.002632782
-0.004079548
-0.002571816
-0.002995759
-0.002682167
-0.001946754
-0.002589637
-0.000939683
-0.002479663
0.0001086201
-0.002592263
0.001296474
-0.00295686
0.002443344
-0.002846473
0.00355761
-0.00276047
0.004646416
-0.002699554
0.005711111
-0.002636586
0.006772211
-0.002627229
0.00780226
-0.002548981
0.008846529
-0.002585764
0.009862142
-0.002512942
0.0108251
-0.002380068
0.01179428
-0.002394219
0.01274834
-0.002353638
0.01366623
-0.002263387
0.01457741
-0.00224532
0.01547187
-0.002199871
0.01628919
-0.002005129
0.01710286
-0.00199111
0.01789279
-0.001930953
0.01862595
-0.001786308
0.01935997
-0.001783694
0.02001661
-0.001590005
0.02064387
-0.00150599
0.02121536
-0.001363394
0.02172593
-0.001208038
0.02223411
-0.001192978
0.02268944
-0.001056649
0.02308967
-0.00091123
0.02343179
-0.0007576354
0.02371529
-0.0006018661
0.02395612
-0.0004814934
0.02411323
-0.0002501063
0.02424907
-0.0001582638
0.02432641
6.756122e-05
0.02426606
0.0005666977
0.02413976
0.001068233
0.02403052
0.001832684
0.02410931
0.003662579
0.02379512
0.007686465
0.02039056
0.01267845
0.009862588
0.01892034
-0.001578471
0.02203715
-0.002369167
0.009148786
0.002510754
-0.007330808
0.006138438
-0.01092391
0.007898035
-0.006795114
0.007853643
-0.003576549
0.008321612
-0.006849195
0.006480615
-0.002532351
-0.00424662
0.0255344
-0.01200024
0.02362946
-0.01143968
0.0008531744
-0.008909403
-0.006714449
-0.005930746
-0.00793897
-0.003164997
-0.007705092
-0.0007437658
-0.007158241
0.002713249
-0.009266572
0.005452059
-0.005200287
0.00525545
0.001842508
0.001885719
0.00637755
-0.0008045192
0.006148146
-0.0003518853
-0.0002725969
0.001392582
-0.004462264
0.00275372
-0.003317306
0.003308884
-0.00136134
0.003007642
0.0009325859
0.002047011
0.002307968
0.0006624855
0.003245905
0.0005857888
0.0003019429
0.001907375
-0.003372777
0.003337378
-0.003786312
0.004637503
-0.003469448
0.005905077
-0.0033863
0.007193535
-0.003417195
0.00849755
-0.003407229
0.009775958
-0.003232296
0.01093303
-0.002727926
0.01202596
-0.00231702
-0.001531052
0.0151674
-0.01445047
-0.001394727
0.01551734
-0.0001080054
0.01533955
0.001556517
0.01456706
0.003392648
0.01316229
0.005684307
0.01149655
0.009499716
0.007707484
0.01707161
1.754255e-05
0.01928916
-0.006061556
0.00849691
-0.008394207
0.003430239
-0.008913804
0.003264163
-0.008130242
0.0007068239
-0.00572199
-0.005865464
-0.002888048
-0.009074285
0.0003515805
-0.01063421
0.003874088
-0.01150599
0.007051166
-0.01024301
0.009509913
-0.00789637
0.01039895
-0.002849493
0.00924988
0.00391062
0.006713091
0.01060704
0.002583021
0.01788238
-0.002839415
0.0175191
-0.005240808
-0.0006533757
-0.005965739
-0.007806388
-0.007517022
-0.002916229
-0.009285963
0.001391563
-0.01012494
0.0008184261
-0.008620414
-0.005757549
-0.004669609
-0.0138253
-0.001336328
-0.01196911
0.0001233907
0.001939352
-0.005773132
0.02340952
-0.01873541
0.03129732
-0.02883491
0.02027352
-0.03190881
0.01001532
-0.03246465
0.009259765
-0.03185103
0.01063512
-0.03141156
0.006904072
-0.03162556
0.003369093
-0.03185887
0.001763228
-0.03197059
0.00091287
-0.03199612
0.0004615187
-0.0319442
0.0001420776
-0.03184721
-6.647092e-05
-0.03155186
-0.0007040792
-0.03121039
-0.0008822938
-0.03083859
-0.0009896012
-0.03040568
-0.001188396
-0.02996255
-0.00123372
-0.02943376
-0.001506873
-0.02885524
-0.001673642
-0.02818774
-0.001955474
-0.0274881
-0.002058815
-0.02677817
-0.002103358
-0.02598555
-0.00236544
-0.02516235
-0.002460403
-0.02433865
-0.002470383
-0.02341059
-0.002800762
-0.0224525
-0.002895047
-0.02145624
-0.003016594
-0.02045166
-0.003044821
-0.01942329
-0.003127182
-0.01830826
-0.003390933
-0.01721533
-0.003331346
-0.01605826
-0.003529982
-0.01487149
-0.00362514
-0.01368049
-0.003638009
-0.0124847
-0.00365816
-0.01123434
-0.00382662
-0.009980779
-0.003834917
-0.008716653
-0.003867032
-0.007432799
-0.00393118
-0.006151682
-0.003913899
-0.004896371
-0.003827127
-0.003588085
-0.003990453
-0.002317884
-0.003859838
-0.001097057
-0.003700489
0.0001632042
-0.003852525
0.001580099
-0.004373754
0.002952362
-0.004218737
0.004288729
-0.004096837
0.005592263
-0.004003087
0.006865713
-0.003910036
0.008134693
-0.003896209
0.009366742
-0.00378103
0.01061874
-0.00383776
0.01183447
-0.003728677
0.01299018
-0.003535774
0.01415496
-0.003558999
0.01529994
-0.003498623
0.01640481
-0.003368258
0.01750343
-0.003343931
0.01857938
-0.003275828
0.01956641
-0.00299216
0.02054991
-0.002974611
0.02150395
-0.002884988
0.0223922
-0.002674555
0.02328206
-0.002673555
0.02408013
-0.002388078
0.02484311
-0.002268967
0.02554033
-0.002060616
0.02616815
-0.001835854
0.026793
-0.001817836
0.02735476
-0.001618403
0.0278533
-0.001409773
0.02828206
-0.001186399
0.02864582
-0.0009656213
0.02895851
-0.0007941872
0.02917447
-0.0004660621
0.02936718
-0.0003509769
0.02947785
-4.310241e-05
0.02939566
0.0006488824
0.02916039
0.0013035
0.0288113
0.002181777
0.0284886
0.003985277
0.02860796
0.007567106
0.02819656
0.01308985
0.02120249
0.02591441
0.01063553
0.03260411
0.00751836
0.01226596
0.01155369
-0.01136614
0.01526545
-0.01463566
0.01626207
-0.007791742
0.01479597
-0.00211045
0.0121361
-0.004189326
0.00611902
0.003484734
-0.005636192
0.03728961
-0.0129429
0.03093617
-0.01260413
0.0005144009
-0.009520724
-0.009797854
-0.006097413
-0.01136228
-0.003174779
-0.01062773
-0.0008772615
-0.009455758
0.002639066
-0.0127829
0.005772097
-0.008333318
0.005459685
0.00215492
0.001258167
0.01057907
-0.001422754
0.008829067
-0.0004991102
-0.00119624
0.001654057
-0.006615431
0.003382487
-0.005045736
0.004032284
-0.002011137
0.003575065
0.001389805
0.002153065
0.003729967
0.000685068
0.004713903
0.0009682625
1.874842e-05
0.002361966
-0.00476648
0.003787947
-0.005212293
0.005094895
-0.004776396
0.006422092
-0.004713498
0.007838015
-0.004833118
0.009323406
-0.00489262
0.01080396
-0.004712854
0.01214414
-0.004068105
0.01342683
-0.003599706
-0.002554694
0.01672933
-0.01592425
-0.002199804
0.01713374
-0.0005124131
0.01700683
0.001683426
0.0163096
0.004089872
0.01491832
0.007075594
0.01326425
0.01115379
0.01072793
0.01960792
0.003446068
0.02657102
-0.005237832
0.01718081
-0.00935986
0.007552267
-0.009812433
0.003716737
-0.009233887
0.0001282781
-0.006737443
-0.008361908
-0.003553442
-0.01225829
0.0001121442
-0.0142998
0.004240981
-0.01563483
0.007990122
-0.01399215
0.01089597
-0.01080222
0.01184926
-0.003802784
0.01025519
0.00550469
0.006931229
0.013931
0.002951151
0.02186246
-0.002463407
0.02293366
-0.007753186
0.004636403
-0.0121229
-0.003436674
-0.01586932
0.0008301921
-0.0184536
0.003975842
-0.0195989
0.001963726
-0.01859691
-0.006759537
-0.01513255
-0.01728966
-0.01053488
-0.01656679
-0.01082236
0.00222683
-0.01899317
0.03158034
-0.03092651
0.04323066
-0.03681494
0.02616195
-0.03751351
0.01071389
-0.0378172
0.009563459
-0.03737483
0.01019275
-0.03728662
0.006815857
-0.03762886
0.003711338
-0.03787185
0.002006214
-0.0380185
0.001059516
-0.03808978
0.000532804
-0.03804732
9.961557e-05
-0.03797005
-0.0001437384
-0.03763646
-0.001037668
-0.03725335
-0.001265405
-0.03683208
-0.001410876
-0.03632429
-0.001696184
-0.03582055
-0.001737456
-0.03519759
-0.00212984
-0.03452143
-0.002349802
-0.03373062
-0.002746285
-0.03290203
-0.002887402
-0.03206458
-0.002940803
-0.03111987
-0.003310158
-0.03013916
-0.003441104
-0.02916154
-0.003448004
-0.02805494
-0.003907361
-0.02690899
-0.004041
-0.02571822
-0.004207368
-0.02451993
-0.004243107
-0.02329265
-0.004354468
-0.02195497
-0.004728604
-0.02065106
-0.00463526
-0.01926407
-0.004916974
-0.01784478
-0.005044428
-0.01641805
-0.005064742
-0.01498793
-0.005088276
-0.01348884
-0.005325709
-0.01198637
-0.005337385
-0.01046906
-0.005384347
-0.008930927
-0.005469311
-0.007391874
-0.005452952
-0.005883204
-0.005335796
-0.004302869
-0.005570788
-0.002761819
-0.005400889
-0.001277852
-0.005184456
0.000237539
-0.005367915
0.001925055
-0.006061271
0.003565045
-0.005858727
0.005164352
-0.005696144
0.00671875
-0.005557485
0.008237167
-0.005428454
0.009753853
-0.005412895
0.01122727
-0.005254446
0.01273036
-0.005340846
0.0141839
-0.005182218
0.01557148
-0.004923361
0.01697248
-0.004959998
0.01834112
-0.004867262
0.01966646
-0.004693596
0.02098899
-0.00466646
0.02227511
-0.00456195
0.02345678
-0.004173833
0.02463629
-0.004154116
0.02577659
-0.004025289
0.02683504
-0.003733004
0.02790091
-0.003739423
0.02885081
-0.003337981
0.02975855
-0.003176705
0.03058603
-0.002888101
0.03132675
-0.002576568
0.03206701
-0.002558105
0.03272433
-0.002275713
0.03331064
-0.00199609
0.03380645
-0.001682201
0.03422288
-0.001382057
0.03458245
-0.001153754
0.03480961
-0.0006932236
0.03501495
-0.0005563161
0.03511404
-0.0001421937
0.0349867
0.0007762215
0.0347051
0.0015851
0.03430554
0.002581338
0.0338353
0.004455513
0.03340991
0.007992494
0.0339987
0.01250106
0.03275445
0.02715866
0.02820997
0.0371486
0.02516314
0.01531278
0.02546113
-0.01166413
0.02640531
-0.01557984
0.02568208
-0.007068515
0.0226596
0.0009120372
0.01683167
0.001638604
0.006447902
0.0138685
-0.006336599
0.05007411
-0.01339946
0.03799904
-0.01337499
0.0004899328
-0.009794724
-0.01337812
-0.005875285
-0.01528172
-0.002786748
-0.01371626
-0.0007591328
-0.01148337
0.002602422
-0.01614445
0.005822173
-0.01155307
0.004826401
0.003150692
0.0001341987
0.01527127
-0.002111672
0.01107494
-0.0009501053
-0.002357807
0.001796002
-0.009361539
0.004059106
-0.00730884
0.004876255
-0.002828286
0.004264148
0.002001912
0.002255707
0.005738409
0.0009452755
0.006024334
0.001739238
-0.0007752138
0.002921793
-0.005949036
0.004169165
-0.006459664
0.005432035
-0.006039266
0.006855846
-0.006137309
0.008469809
-0.006447081
0.0101929
-0.006615707
0.01188582
-0.006405783
0.01336753
-0.00554981
0.01480062
-0.0050328
-0.003678322
0.01870542
-0.01784376
-0.003061468
0.01907802
-0.0008850102
0.01889402
0.001867423
0.01821667
0.00476723
0.0169208
0.008371456
0.01510947
0.01296512
0.01331835
0.02139905
0.007492405
0.03239696
-0.003049361
0.02772258
-0.01005804
0.01456095
-0.01098486
0.004643551
-0.01075158
-0.0001050003
-0.008092317
-0.01102117
-0.004475548
-0.01587505
-0.000281804
-0.01849354
0.004604597
-0.02052123
0.009136526
-0.01852408
0.01262982
-0.01429552
0.01360654
-0.004779499
0.01138211
0.007729121
0.0068873
0.01842581
0.002158604
0.02659116
-0.004016357
0.02910862
-0.01256911
0.01318915
-0.02083857
0.004832788
-0.02633493
0.006326558
-0.02955038
0.007191284
-0.03126377
0.003677121
-0.03149621
-0.006527094
-0.03008241
-0.01870346
-0.02789667
-0.01875253
-0.03011487
0.004445034
-0.0370917
0.03855717
-0.04289571
0.04903466
-0.04354316
0.0268094
-0.04396811
0.01113884
-0.04499216
0.01058751
-0.0449539
0.01015449
-0.04510088
0.006962844
-0.04548718
0.004097635
-0.04574225
0.002261282
-0.04588284
0.001200108
-0.04592704
0.0005770024
-0.04582388
-3.538088e-06
-0.04570499
-0.0002626348
-0.0452863
-0.001456358
-0.04481392
-0.001737781
-0.04428882
-0.001935975
-0.04365094
-0.002334072
-0.04304696
-0.00234143
-0.0422825
-0.002894303
-0.04146604
-0.003166263
-0.04050651
-0.003705812
-0.03950174
-0.003892174
-0.03849485
-0.003947694
-0.03735185
-0.004453155
-0.0361697
-0.004623257
-0.03499863
-0.004619068
-0.0336677
-0.005238299
-0.03228481
-0.005423889
-0.03085484
-0.005637333
-0.02941618
-0.00568177
-0.02794634
-0.005824308
-0.02633351
-0.006341435
-0.02477704
-0.006191733
-0.02310923
-0.006584784
-0.02140791
-0.006745747
-0.01969796
-0.006774687
-0.017988
-0.006798238
-0.01619257
-0.007121143
-0.01439673
-0.007133226
-0.0125752
-0.007205874
-0.01073431
-0.007310196
-0.00888236
-0.007304906
-0.007075635
-0.007142522
-0.005170665
-0.007475758
-0.003296055
-0.007275499
-0.001488491
-0.006992021
0.0003366877
-0.007193093
0.002344407
-0.00806899
0.004304583
-0.007818903
0.006205766
-0.007597328
0.008054392
-0.007406111
0.009868274
-0.007242335
0.01168591
-0.007230529
0.01345288
-0.007021417
0.01526536
-0.007153331
0.01700471
-0.006921564
0.01867517
-0.006593821
0.02036745
-0.006652275
0.02200428
-0.00650409
0.02359469
-0.00628401
0.02519703
-0.006268798
0.02673744
-0.006102365
0.02815319
-0.005589582
0.02957358
-0.005574499
0.03094402
-0.005395732
0.03221176
-0.005000741
0.03349685
-0.005024519
0.03463999
-0.004481117
0.0357334
-0.004270117
0.0367284
-0.003883104
0.03762429
-0.003472457
0.03852506
-0.003458869
0.03931682
-0.003067472
0.04003679
-0.00271606
0.04063916
-0.002284571
0.04115487
-0.001897769
0.04160003
-0.001598916
0.04189693
-0.0009901247
0.04216562
-0.0008250018
0.04233443
-0.0003110071
0.04222265
0.0008880022
0.04191243
0.001895318
0.04145448
0.003039289
0.04092627
0.004983728
0.0401976
0.008721165
0.0401209
0.01257775
0.04213033
0.02514923
0.04372137
0.03555756
0.04206083
0.01697332
0.0389514
-0.008554705
0.03667138
-0.01329982
0.03400573
-0.004402864
0.02975774
0.005160024
0.02174325
0.009653099
0.007868513
0.02774324
-0.005984492
0.06392712
-0.01303266
0.0450472
-0.01320302
0.0006602953
-0.009306799
-0.01727434
-0.004926497
-0.01966202
-0.001698004
-0.01694476
-6.76475e-05
-0.01311373
0.002683059
-0.01889516
0.005482112
-0.01435212
0.00326246
0.005370344
-0.001443315
0.01997704
-0.002920626
0.01255225
-0.001714138
-0.003564294
0.001758297
-0.01283397
0.004686602
-0.01023715
0.005780109
-0.003921793
0.005106073
0.002675948
0.002523836
0.008320646
0.001471308
0.007076861
0.002703525
-0.00200743
0.003482435
-0.006727945
0.00450536
-0.00748259
0.005793621
-0.007327527
0.007441961
-0.007785649
0.00936858
-0.008373701
0.01140886
-0.008655986
0.01334582
-0.008342747
0.01497436
-0.007178346
0.016609
-0.006667439
-0.004913081
0.02209584
-0.02103235
-0.00412496
0.02247436
-0.001263526
0.02212895
0.002212831
0.02128292
0.005613256
0.0198232
0.00983118
0.01773868
0.01504964
0.01599953
0.0231382
0.01192244
0.03647405
0.0009094974
0.03873552
-0.01008775
0.02555819
-0.01269465
0.007250459
-0.0127156
-8.405942e-05
-0.009758563
-0.0139782
-0.005676576
-0.01995704
-0.0009020202
-0.0232681
0.004970114
-0.02639336
0.01061732
-0.02417128
0.01479517
-0.01847337
0.01568585
-0.005670181
0.01261866
0.01079631
0.006446124
0.02459835
-1.336054e-06
0.03303862
-0.008168463
0.03727574
-0.01979607
0.02481676
-0.03110684
0.01614355
-0.03755164
0.01277136
-0.04122323
0.01086287
-0.04371887
0.00617276
-0.04578749
-0.004458471
-0.04752612
-0.01696483
-0.04964115
-0.0166375
-0.05314748
0.007951365
-0.05556093
0.04097062
-0.05361673
0.04709047
-0.05143069
0.02462336
-0.05273593
0.01244408
-0.05388959
0.01174117
-0.05389369
0.01015859
-0.05403914
0.007108294
-0.05441835
0.004476838
-0.05469344
0.00253637
-0.05485868
0.001365354
-0.0549815
0.0006998189
-0.05483517
-0.0001498628
-0.0547738
-0.0003240049
-0.0542195
-0.002010662
-0.05367979
-0.00227749
-0.05306826
-0.002547507
-0.0522855
-0.003116833
-0.05159908
-0.003027852
-0.05066872
-0.003824657
-0.0497093
-0.004125683
-0.04855952
-0.004855592
-0.04734815
-0.005103542
-0.04615423
-0.005141618
-0.04478894
-0.00581844
-0.04337092
-0.006041281
-0.04196541
-0.006024578
-0.04038009
-0.006823622
-0.03872412
-0.007079854
-0.0370121
-0.007349359
-0.03526863
-0.007425233
-0.03353392
-0.00755902
-0.03157995
-0.008295407
-0.02972823
-0.008043455
-0.0277149
-0.008598115
-0.02567862
-0.008782024
-0.02363477
-0.008818534
-0.02155792
-0.00887509
-0.01942573
-0.009253336
-0.01728641
-0.009272538
-0.01510431
-0.009387977
-0.01291952
-0.009494985
-0.01065828
-0.009566144
-0.00852143
-0.009279374
-0.006227725
-0.009769463
-0.003941876
-0.009561348
-0.001739816
-0.00919408
0.0004677589
-0.009400668
0.002853225
-0.01045446
0.005192424
-0.0101581
0.007426485
-0.009831389
0.009638742
-0.009618368
0.01182548
-0.009429076
0.01400303
-0.009408076
0.01612272
-0.009141107
0.01832446
-0.009355075
0.02041023
-0.009007333
0.0224097
-0.008593286
0.02444223
-0.008684804
0.02641894
-0.008480808
0.02833036
-0.008195426
0.03024335
-0.00818179
0.03209343
-0.007952443
0.03378467
-0.007280817
0.03548539
-0.007275223
0.03710862
-0.007018962
0.03864138
-0.006533499
0.04018363
-0.006566773
0.04154366
-0.005841148
0.04286535
-0.005591808
0.0440406
-0.005058348
0.04511282
-0.004544687
0.04619671
-0.004542755
0.04712539
-0.003996155
0.04799632
-0.003586988
0.04869633
-0.002984574
0.04931374
-0.00251518
0.049855
-0.002140176
0.05018665
-0.001321775
0.05051731
-0.00115567
0.05066218
-0.000455872
0.05051883
0.001031355
0.0501511
0.00226304
0.04964937
0.003541022
0.04910121
0.005531887
0.04852238
0.009299995
0.04793007
0.01317007
0.05028777
0.02279153
0.05432215
0.03152318
0.05351346
0.01778201
0.04864895
-0.003690192
0.04456795
-0.009218825
0.0406118
-0.0004467077
0.03591133
0.009860496
0.02716315
0.01840128
0.01136207
0.04354432
-0.003533814
0.078823
-0.01063328
0.05214667
-0.01128201
0.001309028
-0.007517223
-0.02103913
-0.002804127
-0.02437512
0.0006384664
-0.02038735
0.001417174
-0.01389244
0.003055285
-0.02053327
0.004509971
-0.01580681
0.000893856
0.00898646
-0.003599743
0.02447064
-0.003983037
0.01293554
-0.002616851
-0.00493048
0.001508454
-0.01695928
0.005171907
-0.0139006
0.00660416
-0.005354046
0.006039343
0.003240765
0.003206116
0.01115387
0.002228538
0.00805444
0.003385431
-0.003164324
0.003856146
-0.00719866
0.004877989
-0.008504433
0.006397493
-0.008847031
0.008467909
-0.009856064
0.01084791
-0.0107537
0.01330592
-0.011114
0.01555782
-0.01059465
0.01748119
-0.009101708
0.01954088
-0.008727129
-0.006404557
0.02686854
-0.0255236
-0.0054699
0.02728711
-0.001682098
0.02678108
0.002718866
0.0257183
0.006676037
0.02388323
0.01166625
0.02150805
0.01742482
0.01920529
0.02544096
0.01633844
0.03934089
0.006411595
0.04866236
-0.009013646
0.04098344
-0.01477103
0.01300784
-0.01542187
0.0005667801
-0.01162813
-0.01777194
-0.007177433
-0.02440774
-0.001939564
-0.02850597
0.005245293
-0.03357822
0.01224788
-0.03117387
0.0168494
-0.02307489
0.01741602
-0.006236795
0.01374654
0.01446579
0.006296827
0.03204806
-0.002898852
0.0422343
-0.01495564
0.04933253
-0.02968332
0.03954445
-0.0418719
0.02833213
-0.0478122
0.01871167
-0.05184605
0.01489672
-0.05505906
0.009385766
-0.05872598
-0.0007915469
-0.06285195
-0.01283886
-0.0680317
-0.01145775
-0.07193678
0.01185644
-0.07045169
0.03948554
-0.06425964
0.04089841
-0.06194321
0.02230693
-0.06375289
0.01425376
-0.06471947
0.01270776
-0.06486317
0.01030228
-0.06505272
0.007297838
-0.06548058
0.0049047
-0.06577214
0.002827936
-0.06586475
0.00145796
-0.06605742
0.0008924948
-0.06577269
-0.0004346013
-0.06566891
-0.0004277804
-0.06507573
-0.00260384
-0.06438728
-0.002965947
-0.06372001
-0.003214772
-0.06268399
-0.00415285
-0.06190999
-0.003801855
-0.06077864
-0.004956005
-0.05965795
-0.005246379
-0.05825655
-0.006256992
-0.05677209
-0.006587997
-0.05536549
-0.006548221
-0.05376052
-0.007423405
-0.05199307
-0.007808732
-0.05031507
-0.007702583
-0.0484428
-0.008695885
-0.04647689
-0.009045765
-0.04438403
-0.00944222
-0.04227172
-0.009537548
-0.04029078
-0.009539956
-0.03785795
-0.01072824
-0.03569004
-0.01021136
-0.03319814
-0.01109002
-0.03081901
-0.01116115
-0.02836542
-0.01127213
-0.02583314
-0.01140737
-0.02332482
-0.01176166
-0.02073522
-0.01186213
-0.01811256
-0.01201064
-0.01554918
-0.01205837
-0.01278303
-0.0123323
-0.01030677
-0.01175564
-0.007501476
-0.01257475
-0.004734939
-0.01232789
-0.002058289
-0.01187073
0.0006435341
-0.01210249
0.003508142
-0.01331906
0.00620252
-0.01285248
0.008835259
-0.01246413
0.01152741
-0.01231052
0.01419005
-0.01209171
0.016812
-0.01203003
0.01932664
-0.01165575
0.02203655
-0.01206498
0.02451742
-0.01148821
0.02692209
-0.01099796
0.02934616
-0.01110888
0.03172486
-0.01085951
0.03404145
-0.01051201
0.03626601