/*--------------------------------*- C++ -*----------------------------------*\
| =========                 |                                                 |
| \\      /  F ield         | OpenFOAM: The Open Source CFD Toolbox           |
|  \\    /   O peration     | Version:  2406                                  |
|   \\  /    A nd           | Website:  www.openfoam.com                      |
|    \\/     M anipulation  |                                                 |
\*---------------------------------------------------------------------------*/
FoamFile
{
    version     2.0;
    format      ascii;
    arch        "LSB;label=32;scalar=64";
    class       volScalarField;
    location    "2.5";
    object      p;
}
// * * * * * * * * * * * * * * * * * * * * * * * * * * * * * * * * * * * * * //

dimensions      [0 2 -2 0 0 0 0];

internalField   nonuniform List<scalar> 
217010
(
-120.2666
-62.36731
-74.88611
-78.95251
-70.99481
-61.30622
-64.98617
-65.37473
-65.35562
-64.95075
-64.68093
-64.77817
-65.30731
-66.57977
-68.46198
-72.00842
-74.59518
-74.88872
-73.84696
-73.01608
-71.41095
-68.71559
-63.56998
-53.82233
-40.73485
-26.82949
-27.51065
-37.50005
-55.6007
-74.56282
-90.09447
-96.37294
-100.0703
-123.1674
-126.7324
-102.0085
-85.31228
-80.32379
-79.26013
-73.86538
-71.50023
-76.20535
-80.67031
-84.95798
-98.11535
-124.1581
-163.261
-198.8996
-197.2945
-217.1165
-17.35852
-12.18837
-2.721556
-1.045496
-0.5811374
-1.992569
-4.142446
-4.969102
-4.351341
-3.146987
-1.718676
-3.12921
-9.751127
-13.45971
-8.39332
-3.815429
-4.321581
-5.68566
-7.017681
-8.787275
-11.03016
-13.86369
-17.29393
-20.98705
-23.52461
-23.14386
-20.91969
-20.16316
-19.60911
-21.4948
-24.36033
-26.81833
-29.21331
-31.57193
-33.66104
-35.23821
-36.61903
-38.78608
-43.07622
-48.01729
-49.5914
-48.9554
-50.68402
-53.82916
-56.88836
-59.88885
-63.11777
-66.27554
-69.5652
-73.0342
-76.71496
-80.6149
-84.64459
-88.85315
-93.28045
-98.05232
-103.116
-108.2353
-113.4976
-119.0194
-124.7477
-130.5237
-136.2714
-141.9913
-147.423
-152.4331
-157.3081
-161.9875
-166.2085
-170.0633
-173.5473
-176.5009
-178.8652
-180.5278
-181.2648
-181.1095
-180.2018
-178.5991
-176.0432
-172.5582
-168.3346
-164.0095
-160.5026
-160.2203
-163.8185
-165.4463
-161.4091
-154.4287
-147.882
-142.6635
-137.6144
-132.5516
-128.9024
-127.1884
-126.7511
-126.6315
-126.6485
-126.4588
-125.08
-129.4391
-117.312
-130.948
-144.1028
-161.4602
-175.1355
-182.6078
-186.3985
-188.7965
-188.4559
-183.3491
-172.0691
-153.7717
-129.9914
-115.2791
-111.9541
-113.8461
-118.5453
-119.9585
-112.467
-101.9321
-95.39406
-95.25297
-105.1503
-121.491
-143.9024
-166.0723
-185.5414
-200.2144
-208.2874
-209.3679
-203.3734
-191.2675
-178.2166
-167.0542
-163.0848
-174.3843
-185.3881
-177.737
-160.3297
-150.1937
-146.9674
-146.8151
-147.7647
-149.5175
-144.9468
-147.5762
-152.3863
-154.8896
-145.399
-224.6352
-119.0592
-103.743
-87.06901
-77.27413
-69.01003
-62.22201
-56.40479
-51.17878
-46.63501
-42.54323
-38.83811
-35.46354
-32.29531
-29.31057
-26.52358
-23.95095
-21.55255
-19.2534
-17.05962
-14.96747
-12.97249
-11.08473
-9.300164
-7.551927
-5.847309
-4.182556
-2.58974
-1.088172
0.3601411
1.784491
3.188735
4.563076
5.87193
7.141686
8.398842
9.629838
10.84599
12.04489
13.24589
14.3963
15.56095
16.67295
17.77485
18.85986
19.93814
20.99494
22.03129
23.06932
24.12449
25.1752
26.20013
27.20636
28.20891
29.23869
30.28104
31.3096
32.34131
33.38332
34.42763
35.48242
36.53685
37.5938
38.69974
39.87391
41.02598
42.16062
43.45809
44.9416
46.11058
46.14493
45.62804
57.31687
55.56901
54.99204
53.9338
52.86978
51.94907
51.0791
50.24551
49.48086
48.74516
47.96304
47.16286
46.38571
45.64568
44.92017
44.19127
43.45118
42.71159
41.9944
41.28327
40.55658
39.82868
39.11037
38.3783
37.65086
36.90519
36.12878
35.36698
34.62387
33.87406
33.10027
32.28494
31.50316
30.68485
29.84463
29.00274
28.15521
27.27272
26.37393
25.47344
24.55083
23.579
22.56132
21.53965
20.52139
19.46385
18.35317
17.20559
16.00529
14.75594
13.46874
12.13176
10.77262
9.321348
7.773177
6.165317
4.455316
2.661898
0.7302707
-1.359083
-3.578896
-5.959455
-8.610892
-11.53988
-14.87316
-18.54477
-22.76832
-27.9406
-33.82059
-43.9056
-51.16157
57.0088
55.67283
55.0863
54.06644
52.99409
52.05586
51.17531
50.33277
49.55986
48.82063
48.03751
47.23439
46.452
45.707
44.97811
44.24681
43.50436
42.7616
42.04136
41.32784
40.59915
39.86904
39.14866
38.41452
37.6855
36.93843
36.16057
35.39656
34.65112
33.89987
33.12512
32.30747
31.52553
30.70495
29.86311
29.01986
28.17109
27.28713
26.3871
25.4853
24.5615
23.58805
22.56873
21.54571
20.5263
19.46703
18.35486
17.20595
16.00374
14.75216
13.46265
12.12321
10.7625
9.307145
7.755343
6.14418
4.42924
2.631878
0.6934448
-1.403146
-3.629398
-6.0184
-8.680453
-11.62092
-14.98045
-18.6715
-22.92714
-28.13588
-34.13555
-44.18705
-52.82651
-121.5241
-104.2562
-87.59036
-77.59227
-69.26613
-62.42332
-56.57191
-51.30407
-46.74221
-42.63538
-38.9148
-35.52944
-32.35188
-29.35793
-26.56205
-23.98183
-21.57867
-19.27461
-17.07598
-14.97957
-12.98086
-11.0891
-9.302238
-7.551833
-5.84491
-4.177789
-2.582264
-1.078822
0.3713672
1.797715
3.204053
4.580465
5.891309
7.162673
8.421921
9.654766
10.87313
12.0745
13.27844
14.42959
15.59693
16.71089
17.81513
18.90257
19.98297
21.04201
22.08094
23.12216
24.18035
25.23359
26.26065
27.26982
28.27646
29.31048
30.35675
31.389
32.42508
33.47157
34.52066
35.57986
36.63919
37.70372
38.81895
39.99952
41.15488
42.30448
43.62504
45.09652
46.16374
46.14546
46.9301
-117.1888
-129.6726
-142.5004
-159.7054
-173.8001
-181.8216
-185.9405
-188.5816
-188.5871
-183.8957
-173.1313
-155.2339
-131.4286
-115.8913
-112.0089
-113.748
-118.4619
-120.0594
-112.7931
-102.2579
-95.56948
-95.17535
-104.9655
-121.2073
-143.5627
-165.7536
-185.2937
-200.0563
-208.2454
-209.4784
-203.5746
-191.4726
-178.2959
-167.039
-163.0339
-174.3843
-185.5834
-177.772
-160.2454
-150.1314
-146.944
-146.8156
-147.7868
-149.4975
-144.9665
-147.7158
-152.5406
-154.8358
-147.3709
-209.1121
-24.69282
-12.87181
-3.464559
-1.16805
-0.5515596
-1.822385
-3.989082
-4.974568
-4.461936
-3.291611
-1.719305
-2.805998
-9.363339
-13.67748
-8.819843
-3.966549
-4.28266
-5.599283
-6.917772
-8.66317
-10.88251
-13.69172
-17.10754
-20.83581
-23.50789
-23.2292
-21.00501
-20.19592
-19.61892
-21.43907
-24.2821
-26.74431
-29.14469
-31.50878
-33.60971
-35.19769
-36.57429
-38.72476
-43.03255
-48.02408
-49.58766
-48.93363
-50.66464
-53.80674
-56.86476
-59.86951
-63.10368
-66.26312
-69.5578
-73.0295
-76.71498
-80.62065
-84.65661
-88.87238
-93.30702
-98.08981
-103.1645
-108.2917
-113.5652
-119.1009
-124.8431
-130.6307
-136.3905
-142.1233
-147.5577
-152.5653
-157.4406
-162.1356
-166.3513
-170.2059
-173.6859
-176.6306
-178.9821
-180.6065
-181.3014
-181.1085
-180.1729
-178.5329
-175.9312
-172.3987
-168.118
-163.7507
-160.3386
-160.2712
-163.9283
-165.354
-160.9723
-153.8709
-147.3507
-142.161
-137.107
-132.1524
-128.6643
-127.0897
-126.7252
-126.6299
-126.6353
-126.3902
-125.3217
-128.4901
-110.7108
-63.5247
-74.5202
-79.19724
-71.38502
-61.45418
-64.97376
-65.37044
-65.3656
-64.9533
-64.67863
-64.77074
-65.29321
-66.57022
-68.45905
-72.01815
-74.61401
-74.90216
-73.84933
-73.01433
-71.39791
-68.68788
-63.47394
-53.66617
-40.5282
-26.80977
-27.66538
-37.86193
-56.17881
-75.42367
-90.78674
-96.7569
-100.7128
-123.5873
-126.2321
-101.1393
-84.78673
-80.17189
-78.95215
-73.67328
-71.62287
-76.6102
-81.12785
-85.78056
-99.93072
-127.3131
-167.4477
-201.9044
-199.3397
-189.4142
-100.0199
-63.96152
-73.99492
-79.42189
-71.83788
-61.69702
-64.97925
-65.39689
-65.38841
-64.95711
-64.67648
-64.76483
-65.28331
-66.56948
-68.47392
-72.05409
-74.65935
-74.94371
-73.87713
-73.05415
-71.43912
-68.72903
-63.53695
-53.65549
-40.38071
-26.92876
-27.94113
-38.27154
-56.7174
-75.98928
-91.65391
-97.61
-101.6465
-124.3102
-126.3132
-100.7072
-84.47661
-80.10258
-78.80388
-73.47788
-71.81692
-76.94685
-81.25585
-86.01363
-100.8521
-129.5004
-169.9685
-202.8795
-198.5288
-171.5642
-29.15031
-13.8789
-3.81661
-1.323625
-0.5635579
-1.744524
-3.95474
-5.050945
-4.63349
-3.409286
-1.683136
-2.593403
-9.05175
-13.93252
-9.196081
-4.161135
-4.281996
-5.566985
-6.875035
-8.611455
-10.81219
-13.61384
-17.03188
-20.816
-23.61045
-23.47142
-21.19304
-20.22898
-19.66402
-21.43362
-24.2531
-26.71363
-29.12173
-31.49896
-33.62343
-35.18506
-36.5542
-38.68482
-43.01823
-48.08705
-49.61165
-48.8752
-50.63412
-53.7859
-56.85402
-59.86179
-63.0958
-66.25201
-69.55108
-73.02512
-76.71567
-80.62659
-84.66489
-88.88491
-93.32295
-98.11302
-103.1928
-108.321
-113.6012
-119.1446
-124.8924
-130.6818
-136.443
-142.1755
-147.6023
-152.6096
-157.5066
-162.1854
-166.3995
-170.2525
-173.7229
-176.651
-178.9833
-180.61
-181.2991
-181.0878
-180.1378
-178.487
-175.8801
-172.3918
-168.181
-163.8427
-160.4542
-160.4784
-164.2062
-165.4943
-160.9223
-153.6457
-147.1185
-141.9814
-136.9206
-131.9612
-128.5465
-127.0568
-126.7257
-126.6338
-126.6272
-126.3543
-125.3859
-128.017
-117.1536
-128.8505
-141.6779
-159.1213
-173.6531
-181.9164
-186.1273
-188.8479
-188.9865
-184.5118
-174.2472
-156.8793
-132.9256
-116.4145
-112.0725
-113.7237
-118.4088
-120.1929
-113.1241
-102.5206
-95.72349
-95.207
-104.9286
-121.1127
-143.4817
-165.71
-185.3312
-200.1794
-208.4656
-209.7216
-204.0268
-192.1181
-178.6417
-167.012
-162.8009
-174.3543
-186.0823
-178.054
-160.2296
-150.093
-146.9253
-146.807
-147.8094
-149.5608
-145.0525
-147.8893
-152.5891
-154.6632
-148.0985
-192.8639
-121.2108
-104.5896
-87.83617
-77.75805
-69.39065
-62.51813
-56.64293
-51.37858
-46.78618
-42.67553
-38.9472
-35.55794
-32.37791
-29.37952
-26.5797
-23.99502
-21.59215
-19.28591
-17.08528
-14.98683
-12.98701
-11.09221
-9.305781
-7.554099
-5.845731
-4.17717
-2.579119
-1.075791
0.3742307
1.801103
3.208219
4.586575
5.898103
7.168211
8.4286
9.661642
10.88212
12.08429
13.28565
14.44078
15.60427
16.72014
17.82557
18.91278
19.99406
21.05352
22.09203
23.13265
24.19267
25.24805
26.27478
27.28388
28.28926
29.32466
30.37386
31.40601
32.44152
33.49026
34.53944
35.59976
36.66075
37.72701
38.84333
40.0297
41.18984
42.34319
43.67713
45.15285
46.1761
46.12922
47.25296
56.76672
55.69819
55.09076
54.09282
53.02657
52.08592
51.19881
50.35175
49.5793
48.84252
48.05701
47.25195
46.46687
45.7213
44.99214
44.26117
43.51729
42.77263
42.05295
41.3396
40.60948
39.87907
39.15915
38.42331
37.69628
36.94838
36.16734
35.40341
34.65858
33.90744
33.12993
32.31518
31.53156
30.713
29.86908
29.02541
28.17669
27.29081
26.39063
25.48944
24.56607
23.59103
22.56991
21.54671
20.52824
19.46776
18.35495
17.20569
16.00163
14.74882
13.4581
12.11762
10.75818
9.299851
7.746344
6.135191
4.416791
2.619873
0.676996
-1.422453
-3.65024
-6.042015
-8.708467
-11.66985
-15.02258
-18.72853
-23.00013
-28.23453
-34.27541
-44.37129
-52.6965
56.43476
55.70599
55.12439
54.19649
53.15515
52.20241
51.30141
50.44675
49.66851
48.92761
48.13883
47.33183
46.54288
45.7929
45.06007
44.32584
43.57924
42.83116
42.10931
41.39249
40.65924
39.92686
39.20488
38.46588
37.73847
36.98781
36.20309
35.43918
34.69214
33.93941
33.15921
32.349
31.55465
30.73823
29.89088
29.04636
28.19697
27.30757
26.40677
25.50497
24.58089
23.60242
22.57852
21.55462
20.53668
19.4732
18.35891
17.20871
16.00131
14.74662
13.45376
12.11057
10.75256
9.287522
7.730125
6.11799
4.39209
2.594614
0.642248
-1.464418
-3.696961
-6.095828
-8.778136
-11.74832
-15.11334
-18.84522
-23.14751
-28.41007
-34.55404
-44.52178
-52.80494
-121.3661
-104.8873
-88.2892
-78.04045
-69.63226
-62.70305
-56.78945
-51.49757
-46.89196
-42.7627
-39.01751
-35.6194
-32.43124
-29.42277
-26.61424
-24.01971
-21.61499
-19.30317
-17.09777
-14.99483
-12.99239
-11.09171
-9.305988
-7.551653
-5.84032
-4.169112
-2.565856
-1.061213
0.3898298
1.817947
3.226993
4.609321
5.924089
7.193607
8.457042
9.691495
10.91649
12.12164
13.32003
14.48999
15.6488
16.76688
17.8754
18.96578
20.04912
21.11235
22.15388
23.19811
24.26109
25.32019
26.34975
27.36298
28.37294
29.41167
30.46661
31.50297
32.54353
33.59646
34.65055
35.71452
36.78118
37.85465
38.9749
40.16315
41.32897
42.49598
43.84068
45.27193
46.2167
46.32913
48.30763
-117.2393
-127.8645
-140.4153
-157.6119
-172.1994
-180.8845
-185.4747
-188.4931
-188.9843
-185.1295
-175.5124
-158.9794
-135.1788
-117.4472
-112.1619
-113.6391
-118.1522
-120.1843
-113.5937
-102.9169
-96.01859
-95.36884
-105.0132
-121.1517
-143.5304
-165.7114
-185.3757
-200.2773
-208.583
-210.0192
-204.6187
-193.1142
-179.4768
-167.1414
-162.6295
-174.3993
-186.8285
-178.4344
-160.2454
-150.075
-146.9266
-146.8386
-147.8428
-149.5684
-145.1934
-148.1959
-152.6733
-154.3479
-150.0234
-181.8861
-34.5566
-15.21175
-4.630522
-1.564825
-0.6064209
-1.636765
-3.841078
-5.063923
-4.843529
-3.619596
-1.60664
-2.086649
-8.728004
-14.41378
-9.827404
-4.449113
-4.30045
-5.501795
-6.780546
-8.486344
-10.66337
-13.4476
-16.85879
-20.69011
-23.65668
-23.82234
-21.54175
-20.21371
-19.669
-21.39666
-24.18046
-26.63641
-29.04795
-31.41938
-33.52414
-35.14713
-36.51804
-38.65008
-42.96843
-48.09267
-49.64492
-48.85284
-50.62545
-53.76701
-56.83233
-59.84621
-63.08053
-66.23376
-69.53636
-73.01329
-76.71393
-80.63484
-84.67801
-88.90595
-93.34856
-98.15305
-103.2458
-108.3785
-113.6734
-119.2343
-124.9968
-130.7969
-136.5731
-142.3265
-147.7574
-152.7599
-157.6634
-162.3511
-166.5628
-170.4237
-173.8957
-176.8212
-179.1653
-180.7831
-181.3697
-181.1134
-180.1349
-178.4674
-175.8459
-172.409
-168.3316
-164.1796
-160.9411
-160.9679
-164.5159
-165.4082
-160.3748
-153.0068
-146.5366
-141.4969
-136.5005
-131.6423
-128.3815
-127.0086
-126.7218
-126.6392
-126.6129
-126.2844
-125.5906
-127.7547
-92.0083
-65.1907
-73.26454
-79.79745
-72.59572
-62.04135
-64.97147
-65.39933
-65.3973
-64.96755
-64.68275
-64.76031
-65.26729
-66.57833
-68.50622
-72.11881
-74.73158
-75.0141
-73.94346
-73.15176
-71.54542
-68.82024
-63.58124
-53.67441
-40.2581
-27.20117
-28.42011
-38.92452
-57.58655
-77.01199
-93.01452
-99.22639
-103.2585
-125.1199
-126.1121
-100.2678
-84.24016
-80.09914
-78.31124
-73.03705
-72.02346
-77.38696
-81.65243
-86.78355
-103.1351
-132.9388
-174.2255
-205.2746
-197.4786
-162.5667
-86.37192
-66.53006
-72.63206
-80.39326
-73.57574
-62.48226
-64.9367
-65.39124
-65.38889
-64.98308
-64.7001
-64.76289
-65.24927
-66.6061
-68.56023
-72.21916
-74.83697
-75.11896
-74.06765
-73.33719
-71.77889
-69.07396
-63.80352
-53.82342
-40.30608
-27.72264
-29.20987
-39.90347
-58.80841
-78.31345
-94.8074
-101.5932
-105.7326
-125.791
-125.4318
-99.85206
-84.28726
-80.16287
-77.56586
-72.33003
-72.20824
-77.78316
-82.13574
-88.26826
-105.684
-137.1448
-178.7058
-206.6185
-195.4434
-151.8809
-39.71169
-16.86112
-5.581642
-1.926068
-0.7082987
-1.552408
-3.772396
-5.127562
-5.106211
-3.982478
-1.743167
-1.795439
-8.304597
-15.10617
-10.6635
-4.859478
-4.3604
-5.440943
-6.696856
-8.367813
-10.51955
-13.28919
-16.70125
-20.62416
-23.82078
-24.2876
-22.08172
-20.10665
-19.56624
-21.30587
-24.08134
-26.55733
-28.97482
-31.35524
-33.50758
-35.1252
-36.54181
-38.6579
-42.94548
-48.07028
-49.67735
-48.89887
-50.66054
-53.76606
-56.81363
-59.83139
-63.06629
-66.21469
-69.52665
-73.00688
-76.71687
-80.64885
-84.69587
-88.93319
-93.37804
-98.20024
-103.307
-108.4358
-113.7477
-119.3321
-125.1149
-130.9176
-136.703
-142.4723
-147.8856
-152.8773
-157.8208
-162.5103
-166.7065
-170.576
-174.0347
-176.9326
-179.2409
-180.7723
-181.3802
-181.1038
-180.106
-178.4332
-175.7942
-172.4165
-168.476
-164.5792
-161.6642
-161.6972
-164.7074
-164.9664
-159.7276
-152.3243
-145.917
-140.9335
-135.9743
-131.2896
-128.241
-126.9973
-126.7421
-126.6492
-126.5983
-126.2166
-125.7284
-127.3765
-117.5323
-126.9426
-139.1369
-156.2626
-171.4198
-180.7394
-185.6173
-188.9769
-189.757
-186.1044
-177.1501
-161.706
-138.7076
-119.4411
-112.5312
-113.5406
-117.7249
-120.0855
-114.2121
-103.4555
-96.45756
-95.6882
-105.3115
-121.4444
-143.8935
-165.935
-185.6178
-200.6038
-209.0257
-210.6287
-205.4915
-194.4568
-180.8554
-167.8365
-162.7861
-174.7285
-187.8832
-178.9451
-160.3323
-150.1409
-147.0046
-146.9301
-147.9338
-149.5216
-145.3427
-148.6197
-152.8901
-154.1022
-152.1092
-174.3452
-121.3697
-105.0247
-88.67737
-78.29412
-69.85774
-62.87549
-56.93132
-51.61835
-46.9782
-42.84253
-39.0818
-35.67736
-32.4847
-29.46753
-26.64956
-24.04251
-21.64047
-19.32484
-17.1154
-15.0078
-13.00303
-11.0943
-9.312311
-7.555666
-5.842306
-4.169438
-2.559148
-1.054882
0.3943367
1.823525
3.234761
4.622125
5.938722
7.204684
8.471689
9.706278
10.9354
12.14028
13.33402
14.50531
15.66886
16.78781
17.89829
18.98823
20.07307
21.13819
22.17984
23.22298
24.2887
25.35216
26.38154
27.3958
28.4049
29.44678
30.5085
31.54489
32.58524
33.64438
34.70105
35.76854
36.84007
37.91976
39.04386
40.24578
41.42484
42.60488
43.9661
45.3501
46.22612
46.53422
48.88801
56.02962
55.66776
55.1301
54.25941
53.23676
52.28203
51.36645
50.50029
49.71983
48.98271
48.18905
47.37828
46.58204
45.82935
45.09508
44.36081
43.61096
42.85825
42.13731
41.42036
40.68402
39.95062
39.22931
38.48572
37.76249
37.00986
36.21889
35.45518
34.70753
33.95549
33.17271
32.35871
31.56661
30.7531
29.90159
29.05679
28.20764
27.31423
26.41431
25.51384
24.59016
23.60716
22.57964
21.5568
20.54132
19.47389
18.35874
17.20878
15.99694
14.74032
13.4455
12.09995
10.74713
9.272396
7.710899
6.099582
4.365332
2.57185
0.6075429
-1.505534
-3.739194
-6.14162
-8.837468
-11.82897
-15.19889
-18.95258
-23.28247
-28.5714
-34.79095
-44.56677
-52.80549
55.50933
55.55509
55.10804
54.32422
53.34784
52.40076
51.46874
50.59454
49.81516
49.08087
48.2798
47.4701
46.66879
45.91211
45.17353
44.439
43.68576
42.92583
42.20383
41.48367
40.74234
40.00733
39.28597
38.5351
37.81661
37.0609
36.26153
35.4997
34.7499
33.9967
33.20781
32.40513
31.60138
30.78752
29.93131
29.08669
28.23544
27.33258
26.43212
25.53361
24.61356
23.62388
22.58717
21.56433
20.55536
19.48153
18.36409
17.21619
15.99804
14.73749
13.43709
12.08679
10.74685
9.259198
7.693036
6.080198
4.332242
2.549055
0.5658021
-1.557063
-3.794581
-6.196625
-8.910449
-11.92745
-15.30361
-19.08049
-23.44293
-28.75018
-35.03042
-44.53416
-52.81083
-121.3779
-105.0116
-89.05165
-78.55188
-70.12701
-63.08506
-57.10239
-51.76026
-47.08363
-42.94743
-39.16054
-35.746
-32.55175
-29.51923
-26.68427
-24.06164
-21.67203
-19.35069
-17.13318
-15.01597
-13.00754
-11.08831
-9.313654
-7.552638
-5.836768
-4.157721
-2.534763
-1.034804
0.4135403
1.849295
3.263337
4.653983
5.973581
7.235579
8.509289
9.743301
10.97837
12.18422
13.38318
14.57708
15.72867
16.84718
17.96215
19.05562
20.14535
21.21516
22.25642
23.30255
24.37685
25.45
26.47896
27.49645
28.50763
29.55349
30.62641
31.66459
32.71019
33.77734
34.83423
35.90311
36.98135
38.06806
39.18702
40.39196
41.58249
42.76747
44.12264
45.43555
46.30387
46.96932
49.67359
-118.0815
-126.0673
-137.6361
-154.6634
-170.1728
-179.9611
-185.1098
-188.7671
-189.8662
-187.095
-179.0525
-164.924
-143.3308
-122.8432
-113.6169
-113.4774
-117.1885
-120.05
-115.077
-104.1347
-97.11328
-96.23247
-105.9606
-122.0036
-144.572
-166.4644
-186.1373
-201.1674
-209.7041
-211.5191
-206.6936
-196.1931
-182.8235
-169.5143
-163.6562
-175.5826
-189.2314
-179.5619
-160.5165
-150.3472
-147.2387
-147.1256
-148.0968
-149.3562
-145.5051
-149.2582
-153.0553
-153.6571
-153.3388
-166.7547
-44.98499
-19.15945
-6.880441
-2.493443
-0.9352927
-1.506003
-3.714872
-5.180411
-5.393696
-4.473232
-2.224125
-1.78611
-7.804267
-15.92584
-11.75493
-5.439331
-4.487943
-5.384936
-6.594781
-8.211576
-10.33869
-13.09548
-16.50919
-20.55007
-23.94945
-24.83552
-22.79268
-19.9757
-19.31156
-21.1272
-23.91304
-26.43563
-28.86432
-31.23067
-33.35475
-35.08171
-36.60896
-38.74004
-42.914
-47.96307
-49.61483
-48.97219
-50.76745
-53.75895
-56.79555
-59.8174
-63.06055
-66.18968
-69.51385
-73.00014
-76.72509
-80.66874
-84.71976
-88.97037
-93.41986
-98.26773
-103.3982
-108.5157
-113.8395
-119.4477
-125.2689
-131.0847
-136.8799
-142.6935
-148.0914
-153.0464
-158.0402
-162.7487
-166.9202
-170.8141
-174.2694
-177.1464
-179.4767
-181.053
-181.526
-181.1746
-180.143
-178.4642
-175.7933
-172.4921
-168.6813
-165.0364
-162.4681
-162.438
-164.5071
-163.8203
-158.3736
-151.0029
-144.9194
-140.0226
-135.2044
-130.8617
-128.1148
-126.9955
-126.7415
-126.6381
-126.5807
-126.1499
-125.9507
-126.8985
-81.32132
-67.5427
-72.23323
-81.189
-74.73373
-62.99835
-64.85364
-65.3537
-65.36663
-64.98969
-64.7259
-64.77614
-65.2276
-66.65957
-68.65548
-72.36478
-74.9971
-75.27894
-74.28529
-73.66254
-72.24643
-69.59019
-64.24903
-54.22872
-40.68629
-28.61615
-30.3782
-41.16915
-60.45987
-79.9775
-97.16057
-104.6669
-108.7889
-125.6317
-123.2441
-99.11521
-84.73366
-80.22027
-76.46063
-71.26059
-72.33014
-78.17077
-83.10119
-90.78189
-109.7589
-142.6462
-183.2147
-206.3531
-189.6759
-136.8701
-76.2499
-68.00543
-72.33685
-82.01898
-76.3873
-63.41876
-64.61893
-65.27492
-65.27492
-64.94643
-64.74382
-64.79799
-65.19321
-66.73398
-68.82397
-72.58072
-75.14302
-75.50542
-74.65444
-74.21485
-73.09127
-70.5102
-65.12066
-55.16548
-41.46735
-29.93524
-32.00509
-42.78941
-62.9685
-82.33755
-100.0439
-108.2021
-111.7872
-123.7048
-118.7304
-97.84638
-85.69064
-80.30087
-75.14127
-70.03167
-72.85473
-78.83995
-85.22079
-95.07002
-115.8267
-149.4507
-186.0002
-201.1123
-177.8021
-120.7836
-51.1433
-23.11349
-8.820923
-3.47146
-1.425699
-1.585369
-3.688713
-5.254732
-5.715034
-5.080454
-3.051567
-2.168321
-7.391022
-16.71972
-13.12849
-6.242823
-4.716194
-5.347412
-6.469282
-8.021987
-10.11534
-12.85555
-16.26326
-20.4433
-24.17268
-25.47551
-23.64213
-19.925
-19.02591
-20.98181
-23.79997
-26.37153
-28.74622
-31.11769
-33.25806
-35.10539
-36.73935
-38.89992
-42.80474
-47.56295
-49.27397
-49.04286
-50.91079
-53.75673
-56.7743
-59.79421
-63.0896
-66.1743
-69.50624
-72.98727
-76.74303
-80.6989
-84.7502
-89.00814
-93.45581
-98.35049
-103.5004
-108.6337
-113.9796
-119.6067
-125.4363
-131.3058
-137.1012
-142.9516
-148.3762
-153.2769
-158.2646
-163.0189
-167.1767
-171.0887
-174.5504
-177.3992
-179.7049
-181.1926
-181.5945
-181.2221
-180.1717
-178.5065
-175.7816
-172.614
-168.9677
-165.5827
-163.2937
-163.0577
-163.9644
-162.1611
-156.6736
-149.6616
-143.8501
-139.0298
-134.3549
-130.4382
-128.0556
-127.0594
-126.7831
-126.6423
-126.5863
-126.1097
-126.1768
-126.518
-118.8953
-125.2196
-135.7839
-152.728
-168.5448
-179.227
-184.9755
-189.0756
-190.9021
-188.5143
-181.4378
-168.6792
-148.7114
-127.861
-115.7621
-113.9613
-116.9526
-120.2715
-116.2237
-104.9292
-98.26709
-97.44765
-107.1634
-122.9071
-145.4191
-167.5108
-187.3965
-202.2117
-210.7601
-212.8638
-208.3965
-198.4291
-185.4394
-172.3658
-165.7228
-177.1382
-190.7935
-180.2656
-160.7364
-150.5959
-147.6574
-147.4541
-148.3963
-149.1255
-145.527
-150.4695
-153.8249
-152.9809
-153.0539
-158.4792
-121.1161
-104.7447
-89.35659
-78.77767
-70.44294
-63.30064
-57.25657
-51.90192
-47.21236
-43.06923
-39.22573
-35.82018
-32.63357
-29.56699
-26.71885
-24.09757
-21.72606
-19.37715
-17.14748
-15.01653
-13.01494
-11.09153
-9.320514
-7.557171
-5.838637
-4.142302
-2.521713
-1.030766
0.4276888
1.864883
3.264731
4.657844
5.998048
7.251634
8.532142
9.762688
11.00768
12.21806
13.41997
14.59363
15.75161
16.87475
18.00012
19.09521
20.18399
21.25084
22.29796
23.35201
24.42549
25.49516
26.5203
27.5484
28.56116
29.61079
30.69389
31.73633
32.78382
33.85078
34.9115
35.99555
37.08466
38.18181
39.2896
40.51183
41.74319
42.9386
44.27712
45.51007
46.44288
47.5027
50.30372
54.84771
55.31122
55.02153
54.35815
53.45333
52.52785
51.56523
50.67335
49.89604
49.16899
48.34662
47.53439
46.72802
45.97502
45.22818
44.49037
43.73555
42.97336
42.25658
41.53067
40.78173
40.0467
39.32574
38.56426
37.85574
37.08782
36.28065
35.52336
34.77493
34.02716
33.22788
32.40906
31.61617
30.79917
29.93894
29.10591
28.26041
27.34664
26.44447
25.54007
24.62592
23.63882
22.59381
21.56014
20.56102
19.48557
18.36078
17.21531
15.99662
14.73664
13.42818
12.05829
10.73589
9.232645
7.676769
6.061492
4.285808
2.527745
0.5178291
-1.60351
-3.858394
-6.260312
-8.986246
-12.02356
-15.40642
-19.20812
-23.60554
-28.91756
-35.22158
-44.33382
-52.64086
54.12656
54.92486
54.85424
54.33654
53.55316
52.71649
51.7232
50.79439
50.03558
49.34969
48.52234
47.67811
46.83303
46.09006
45.36232
44.60811
43.82077
43.04117
42.3501
41.62369
40.85706
40.12839
39.41452
38.62182
37.97511
37.16689
36.33272
35.58986
34.81398
34.09388
33.28205
32.48966
31.71001
30.85949
29.95113
29.12278
28.28714
27.37474
26.49482
25.58065
24.62713
23.64233
22.63321
21.58784
20.56347
19.50605
18.37966
17.19742
15.98177
14.73806
13.45857
12.06883
10.73076
9.167336
7.646504
6.062096
4.213109
2.500595
0.4181507
-1.641672
-3.909658
-6.394198
-9.132029
-12.18097
-15.56825
-19.40251
-23.86217
-29.18866
-35.51985
-44.07113
-52.41663
-120.4606
-104.4254
-89.88692
-79.17351
-70.9656
-63.49494
-57.47593
-52.17
-47.45897
-43.17627
-39.27281
-35.95923
-32.73744
-29.60769
-26.80689
-24.18494
-21.73988
-19.3485
-17.15597
-15.02394
-13.06436
-11.12022
-9.293324
-7.583059
-5.819287
-4.114872
-2.55125
-0.9911392
0.4803801
1.874692
3.261915
4.730404
6.114671
7.292685
8.59233
9.816969
11.08443
12.29095
13.48323
14.65017
15.84445
16.98943
18.10368
19.19382
20.26599
21.36577
22.43866
23.46095
24.50934
25.62737
26.69436
27.70867
28.71852
29.74822
30.86651
31.93487
32.92762
34.03997
35.13817
36.20107
37.28384
38.38397
39.47381
40.75263
42.0589
43.19293
44.46219
45.62618
46.74826
48.17211
50.72441
-119.9725
-124.5587
-134.0903
-150.3262
-166.5132
-177.5228
-184.3788
-189.2908
-191.7211
-190.0811
-184.1249
-173.5636
-155.1434
-134.6278
-119.4351
-115.4778
-117.0712
-120.6314
-117.4532
-106.3995
-99.81842
-99.80786
-109.0229
-125.0474
-147.2034
-169.1508
-189.7528
-204.0559
-212.1866
-214.6636
-210.6023
-201.4397
-188.7934
-176.0409
-169.2884
-179.269
-191.4448
-179.8122
-160.4897
-150.7072
-147.9676
-147.9401
-148.8601
-148.6776
-144.7485
-151.7914
-154.2397
-152.0344
-151.0845
-150.3935
-56.50174
-28.09757
-11.76187
-4.953252
-2.228426
-1.945786
-3.737622
-5.341997
-6.006157
-5.795433
-4.216702
-3.083763
-7.041512
-17.2283
-14.53576
-7.040252
-4.952688
-5.238021
-6.30198
-7.747179
-9.814387
-12.4987
-15.89244
-20.22743
-24.21885
-26.19832
-24.7244
-20.11508
-18.77866
-20.7567
-23.54905
-26.13897
-28.64255
-30.9626
-33.08443
-34.98113
-36.81367
-39.05177
-42.47592
-46.8707
-48.61478
-49.01128
-51.06444
-53.74272
-56.70541
-59.72944
-62.89546
-66.15181
-69.5261
-72.97394
-76.75375
-80.76188
-84.77632
-89.053
-93.43775
-98.4414
-103.5274
-108.7734
-114.2892
-119.9723
-125.649
-131.5671
-137.4703
-143.1372
-148.6705
-153.8266
-158.7622
-163.3881
-167.6565
-171.5328
-174.9446
-177.8684
-180.1425
-181.5592
-181.7908
-181.3754
-180.288
-178.7109
-175.8577
-172.7863
-169.3255
-166.2449
-164.1416
-163.475
-163.2671
-160.3654
-154.7928
-148.1263
-142.328
-137.5238
-133.2862
-129.8436
-127.8484
-127.0219
-126.7773
-126.6431
-126.6141
-125.996
-126.2767
-126.3847
-71.58059
-67.58357
-73.08286
-82.92695
-78.74598
-62.99921
-64.07174
-65.17572
-65.17229
-64.85576
-64.74215
-64.84073
-65.1445
-66.82708
-68.97752
-72.76017
-75.4313
-75.80335
-75.23733
-75.10289
-74.44945
-71.9675
-66.72842
-56.81592
-42.84415
-31.73066
-34.56266
-46.08423
-66.61758
-86.29284
-104.2036
-112.1604
-114.389
-120.375
-112.1329
-96.37619
-85.31546
-79.46538
-74.00787
-69.97019
-74.64621
-81.30941
-89.9994
-102.5555
-124.5308
-155.7835
-183.7757
-188.3366
-160.3261
-106.547
-0.3237048
-0.07569526
5.986746
7.015336
-47.23897
-1.681132
-195.9069
7.813696
1.509168
3.141908
11.94471
-240.5857
-0.1149289
-2.2665
-14.49093
8.391645
8.048133
-0.3476519
3.985791
-1.070516
5.17433
3.766796
5.721239
3.979926
-0.9062814
7.178933
3.735585
6.606045
6.911634
-1.047427
-2.001336
-0.1649541
-20.44476
1.12186
4.788774
0.1735839
4.123865
6.752458
3.030523
6.564368
5.993245
-0.1040476
-27.60009
-53.94709
0.7282246
-50.09427
0.8434024
-0.1354351
-0.5411262
5.961953
0.9659552
-4.522936
0.5167208
-5.877543
5.773469
2.709985
0.1262676
-1.845589
-2.906369
-0.09741274
-21.45165
2.810834
-1.91054
-8.287632
6.344102
-14.69337
-1.55785
14.94594
21.15807
4.567721
-25.21498
-2.152087
5.078705
7.132785
3.09499
2.73004
2.654694
2.019652
-0.6841782
2.437651
-8.5172
1.140216
-0.4616845
-1.829057
-8.080008
-35.06408
10.15453
5.704963
-0.96597
0.3411242
8.982513
9.169091
7.83347
6.558248
-3.434411
1.11278
8.21845
4.621495
-5.991779
0.8327176
-2.319656
-13.26101
3.689257
-4.302973
6.149862
7.128646
4.333539
6.21253
7.398586
7.871539
2.90199
-82.91303
5.515457
4.936147
6.379095
-74.72912
-1.683793
-35.35845
6.437849
6.39079
-0.1506667
5.227979
-1.144221
-47.56637
6.904924
2.252382
-0.455713
-109.4281
-106.4197
-0.1331891
12.84204
8.692644
7.002148
6.320924
-11.61457
2.165697
0.4415158
-13.27341
1.266107
6.406732
6.985949
6.309036
7.609613
-1.972876
1.205907
-80.89274
4.370437
-0.1491913
-7.272435
-35.55264
-30.26203
-55.65617
-0.996879
7.257861
4.158692
7.337247
-23.31986
7.990788
0.7707036
1.228535
10.54804
7.466708
0.5816153
3.530414
8.976938
1.588154
0.08119274
8.262358
2.136499
7.466265
-19.34762
-1.334802
5.375439
1.777949
-0.7561571
0.5078457
-0.5081582
0.5560869
-1.886453
7.038357
-2.617334
7.84667
5.004773
5.978881
0.2278731
5.836788
7.285565
6.941417
10.12346
1.014058
-0.0616321
4.021278
1.338131
-1.204021
-6.107799
-0.07787225
3.728517
0.6424587
5.144072
0.01487868
-29.83876
1.000788
0.3231569
6.938099
0.6170159
5.797356
4.604129
6.419255
-2.373384
1.184956
-223.2336
3.212846
-33.75687
6.478964
-5.216835
3.384711
2.004423
-1.520167
6.702633
5.084008
5.706042
0.1924905
6.937183
-17.01558
17.09267
3.126204
2.964749
1.808917
6.29869
0.3940059
-10.68863
1.46982
1.9731
6.198808
-14.07551
-21.04204
6.888846
3.914586
-102.7307
-82.26543
6.167306
-2.933137
-13.09185
1.418167
-11.76591
-3.659501
5.425952
1.134808
-0.1693405
3.998708
4.02194
-51.89373
8.543318
0.7466504
-2.399729
-6.921166
2.29747
6.74007
3.937363
0.637096
7.486708
-4.042236
6.265428
-200.823
6.013922
2.09212
-42.85766
-152.6674
6.92535
0.5520307
6.924422
-45.5202
-1.424786
-7.017792
8.84949
-53.96357
6.373446
-37.43086
3.227226
2.60454
0.8924078
-4.578615
13.98378
2.576574
9.737176
-12.45429
1.306652
5.686639
5.469081
2.007364
-12.28477
-16.96786
-6.406964
4.801118
8.598288
3.114215
0.6165107
-59.58895
4.125052
2.400216