/*--------------------------------*- C++ -*----------------------------------*\
| =========                 |                                                 |
| \\      /  F ield         | OpenFOAM: The Open Source CFD Toolbox           |
|  \\    /   O peration     | Version:  2406                                  |
|   \\  /    A nd           | Website:  www.openfoam.com                      |
|    \\/     M anipulation  |                                                 |
\*---------------------------------------------------------------------------*/
FoamFile
{
    version     2.0;
    format      ascii;
    arch        "LSB;label=32;scalar=64";
    class       surfaceScalarField;
    location    "2.5";
    object      phi;
}
// * * * * * * * * * * * * * * * * * * * * * * * * * * * * * * * * * * * * * //

dimensions      [0 3 -1 0 0 0 0];

oriented        oriented;

internalField   nonuniform List<scalar> 
326221
(
-0.002181438
-0.005160899
0.007342337
-0.0009555044
-0.001225934
0.000213244
-0.001168748
-0.001754913
0.001968157
-0.001438863
-0.0003160496
0.00023209
-0.001670953
0.0007507269
-0.0005186369
0.0006749923
7.573451e-05
0.0002869987
0.0003879936
0.0001326211
0.0001543777
0.0001949447
-6.232367e-05
0.0001665641
2.838061e-05
0.0001044445
6.211961e-05
0.0003051158
-0.0002006712
0.0008272263
-0.0005221105
0.001081142
-0.0002539154
0.0008144701
0.0002666716
0.0002710302
0.0005434399
-0.0001294675
0.0004004977
-0.0004790359
0.0003495684
-0.0009835308
0.0005044948
-0.001249288
0.0002657574
-0.001159524
-8.976376e-05
-0.0008231814
-0.0003363431
1.892855e-05
-0.0008421099
0.001503467
-0.001484539
0.002929715
-0.001426248
0.004365632
-0.001435916
0.005508209
-0.001142577
0.005532986
-2.477689e-05
0.003504013
0.002028973
0.001315277
0.002188735
-0.0002024747
0.001517752
-0.001489259
0.001286785
-0.001269571
-0.0002196888
0.0003075952
-0.001577166
0.0008817729
-0.0005741777
-3.515827e-05
0.0009169311
-0.0002151174
0.0001799591
0.0009268486
-0.001141966
0.002019081
-0.001092232
0.002402267
-0.000383186
0.002236291
0.0001659763
0.002057064
0.0001792269
0.002484416
-0.0004273518
0.003780683
-0.001296267
0.004839379
-0.001058696
0.003574331
0.001265048
0.0007914972
0.002782834
-0.006667786
0.007459284
-0.002632285
-0.004035502
-0.0002866201
-0.002345665
-0.0001160818
-0.0001705382
0.0004606657
-0.0005767475
0.001048556
-0.0005878902
0.001505297
-0.0004567412
0.001644615
-0.0001393175
0.001237747
0.0004068673
0.00026446
0.0009732873
-0.0003104041
0.0005748641
0.000381835
-0.0006922391
0.0008374201
-0.0004555851
-0.0004626728
0.001300093
-0.001684269
0.001221597
-0.001177011
-0.0005072585
-0.0001559678
-0.001021043
0.0004687269
-0.0006246947
0.0007371663
-0.0002684394
0.0009618757
-0.0002247094
0.001122186
-0.0001603099
0.001330475
-0.0002082896
0.001571106
-0.0002406312
0.001833471
-0.0002623642
0.001969703
-0.000136232
0.001584131
0.0003855715
0.0004614052
0.001122726
-0.0005195056
0.0009809108
-0.000477257
-4.224865e-05
0.0003245651
-0.0008018221
0.0008940322
-0.0005694671
0.001197936
-0.0003039037
0.001423514
-0.0002255786
0.001561114
-0.0001375995
0.001545756
1.535752e-05
0.001449876
9.588005e-05
0.001401989
4.788767e-05
0.001549938
-0.0001479495
0.001998983
-0.0004490445
0.002118717
-0.0001197341
0.001225968
0.0008927483
0.0005082074
0.000717761
0.0007452698
-0.0002370624
0.00112292
-0.0003776502
0.001347016
-0.0002240959
0.001493351
-0.0001463348
0.001630991
-0.0001376403
0.001710772
-7.978068e-05
0.001775082
-6.431068e-05
0.001795475
-2.039226e-05
0.001800258
-4.783674e-06
0.001811661
-1.140277e-05
0.001833145
-2.14838e-05
0.001883613
-5.046792e-05
0.001961147
-7.753419e-05
0.002073501
-0.0001123537
0.002195401
-0.0001219002
0.002302254
-0.0001068533
0.00241886
-0.0001166064
0.002559009
-0.0001401489
0.002716834
-0.0001578243
0.002869605
-0.0001527711
0.003005908
-0.0001363033
0.003121892
-0.0001159842
0.003204581
-8.268847e-05
0.003272037
-6.745585e-05
0.003357907
-8.587043e-05
0.003542415
-0.0001845084
0.003674376
-0.0001319602
0.003812056
-0.0001376799
0.00393556
-0.000123504
0.004021683
-8.612324e-05
0.004049826
-2.814352e-05
0.003994129
5.569718e-05
0.003857031
0.0001370986
0.003681391
0.0001756392
0.003492956
0.000188435
0.003279873
0.0002130833
0.002978603
0.0003012702
0.002511179
0.0004674235
0.001746589
0.0007645901
0.0006263839
0.001120205
-0.0005219597
0.001148344
-0.001174575
0.0006526149
-0.00144707
0.0002724955
-0.002001757
0.0005546871
-0.002595159
0.0005934014
-0.002721814
0.0001266554
-0.002543544
-0.0001782697
-0.00243954
-0.0001040043
-0.002439041
-4.99244e-07
-0.002236467
-0.0002025735
-0.001699293
-0.0005371746
-0.001107904
-0.0005913891
-0.0006927879
-0.0004151157
-0.0004993868
-0.000193401
-0.0004186007
-8.078611e-05
-0.0003075436
-0.0001110572
0.0004690302
-0.0007765738
0.000933198
-0.0004641677
-0.0007491552
0.001682353
0.0003421048
-0.00109126
0.002240903
-0.001898798
0.003655513
-0.00141461
0.004154429
-0.0004989159
0.004143526
1.090216e-05
0.003974806
0.0001687203
0.003863561
0.000111245
0.003762382
0.0001011794
0.003560309
0.000202073
0.003044152
0.000516157
0.001873153
0.001170999
-6.908579e-05
0.001942238
-0.002029111
0.001960025
-0.002606777
0.0005776664
-0.002198532
-0.000408245
-0.001362062
-0.0008364707
-0.0007413984
-0.0006206632
-0.0008667576
0.0001253591
-0.001564447
0.0006976894
-0.002319549
0.0007551022
-0.002372231
5.268215e-05
-0.001203223
-0.001169009
0.0003079022
-0.001511125
0.001745409
-0.001437506
0.002867727
-0.001122318
0.00374889
-0.000881163
0.004349627
-0.0006007376
0.004650084
-0.0003004565
0.004611007
3.907631e-05
0.004065664
0.0005453438
0.002707987
0.001357677
0.0005614431
0.002146544
-0.00113455
0.001695994
-0.001068054
-6.649688e-05
-0.0002651698
-0.0008028838
-0.001201363
0.0009361931
-0.003151748
0.001950385
-0.003374463
0.0002227144
-0.00228389
-0.001090572
-0.001284527
-0.0009993627
-0.0006802415
-0.0006042859
-0.0004680327
-0.0002122088
-0.0005443048
7.62721e-05
-0.0005958035
5.149872e-05
0.0004733143
-0.001069118
0.0002560505
0.0002172638
-0.0005459161
0.0008019666
0.001794156
-0.002340072
0.00267288
-0.0008787242
-0.006710235
0.009383115
-0.00696947
0.0002592355
-0.005967258
-0.001002213
-0.005592748
-0.0003745101
-0.005211621
-0.0003811267
-0.004927758
-0.0002838629
-0.004669005
-0.0002587532
-0.004444442
-0.0002245632
-0.00414757
-0.0002968719
-0.003993112
-0.0001544579
-0.003861085
-0.0001320266
-0.003739707
-0.0001213784
-0.003631592
-0.0001081145
-0.003527734
-0.0001038581
-0.003429004
-9.873065e-05
-0.003335031
-9.397219e-05
-0.003251096
-8.393499e-05
-0.003174178
-7.691814e-05
-0.003100473
-7.370493e-05
-0.003027911
-7.256193e-05
-0.002960324
-6.758698e-05
-0.002895572
-6.47523e-05
-0.002835407
-6.016542e-05
-0.002781378
-5.402904e-05
-0.002726287
-5.509056e-05
-0.002671558
-5.472923e-05
-0.002616434
-5.512415e-05
-0.002564581
-5.185271e-05
-0.002518423
-4.61578e-05
-0.002476432
-4.199089e-05
-0.002432548
-4.388467e-05
-0.002389434
-4.311342e-05
-0.002344262
-4.51719e-05
-0.002304512
-3.97505e-05
-0.002267337
-3.717439e-05
-0.002228663
-3.867423e-05
-0.002189802
-3.886123e-05
-0.002150149
-3.965309e-05
-0.002114769
-3.537951e-05
-0.00208276
-3.200977e-05
-0.002117014
3.425396e-05
-0.002099866
-1.714794e-05
-0.002076731
-2.313489e-05
-0.002053653
-2.307785e-05
-0.002033689
-1.996376e-05
-0.00201313
-2.055958e-05
-0.001995166
-1.796355e-05
-0.001979183
-1.598311e-05
-0.001964183
-1.500035e-05
-0.0019459
-1.828253e-05
-0.001927367
-1.853339e-05
-0.001912919
-1.44472e-05
-0.001901273
-1.16467e-05
-0.001892831
-8.441564e-06
-0.001881433
-1.139854e-05
-0.001868428
-1.300503e-05
-0.001858899
-9.528653e-06
-0.00185203
-6.869423e-06
-0.001842351
-9.67836e-06
-0.001833175
-9.176077e-06
-0.001819254
-1.392089e-05
-0.001800136
-1.911836e-05
-0.001775695
-2.444087e-05
-0.001741371
-3.43237e-05
-0.001680429
-6.094211e-05
-0.001597524
-8.290544e-05
-0.001500166
-9.735802e-05
-0.001368819
-0.0001313467
-0.001186876
-0.000181943
-0.0009833723
-0.0002035037
-0.0008663335
-0.0001170388
-0.001091487
0.0002251532
-0.0001874359
-0.0009040507
0.0006986253
-0.0008860612
0.001044795
-0.0003461692
0.001140026
-9.523102e-05
0.001184385
-4.435984e-05
0.001232561
-4.817605e-05
0.001272472
-3.991086e-05
0.001296935
-2.446304e-05
0.001319931
-2.299608e-05
0.001353387
-3.345591e-05
0.001382972
-2.958472e-05
0.001406373
-2.340087e-05
0.001422014
-1.564113e-05
0.001436226
-1.421201e-05
0.001450139
-1.391337e-05
0.001467212
-1.70731e-05
0.001483099
-1.58867e-05
0.001495253
-1.215419e-05
0.001508315
-1.306202e-05
0.001525033
-1.671805e-05
0.0015403
-1.526623e-05
0.001554824
-1.452436e-05
0.001572826
-1.800175e-05
0.001588132
-1.530657e-05
0.001609228
-2.109557e-05
0.00163342
-2.41925e-05
0.001652314
-1.889395e-05
0.001667755
-1.544112e-05
0.001685207
-1.745134e-05
0.001705607
-2.040004e-05
0.001719328
-1.372117e-05
0.001687982
3.134607e-05
0.00171543
-2.744837e-05
0.001749
-3.356984e-05
0.001782828
-3.3828e-05
0.001816885
-3.405678e-05
0.001853554
-3.666914e-05
0.00188824
-3.468627e-05
0.001919986
-3.174551e-05
0.001954379
-3.439261e-05
0.001992757
-3.837881e-05
0.002034513
-4.175521e-05
0.002071279
-3.676667e-05
0.002106289
-3.500937e-05
0.002143802
-3.751373e-05
0.002184531
-4.072914e-05
0.002226244
-4.171307e-05
0.002272537
-4.629301e-05
0.002320547
-4.800942e-05
0.002368861
-4.831361e-05
0.002418778
-4.991756e-05
0.002465538
-4.67595e-05
0.002521145
-5.56073e-05
0.002579194
-5.804863e-05
0.002639433
-6.023914e-05
0.002704322
-6.488885e-05
0.002771206
-6.688406e-05
0.002845261
-7.405554e-05
0.002926193
-8.093163e-05
0.003008762
-8.256878e-05
0.00309843
-8.966884e-05
0.003200687
-0.0001022571
0.003321939
-0.0001212512
0.00355678
-0.0002348417
0.003728471
-0.000171691
0.003923577
-0.0001951055
0.004142151
-0.0002185742
0.004424259
-0.0002821078
0.004706124
-0.0002818653
0.005412369
-0.000706245
0.0002514701
-0.0001325941
0.001065727
-0.001837184
0.0008130846
-0.00183174
0.001324648
-0.0008577323
0.001583778
-0.0003543609
0.001763299
-0.0002238811
0.001929335
-0.0002142118
0.002075528
-0.0001861044
0.002197752
-0.0001466864
0.002308144
-0.0001333888
0.00242087
-0.0001461821
0.002526031
-0.000134745
0.002624206
-0.0001215756
0.002712672
-0.0001041078
0.002796769
-9.830915e-05
0.002875472
-9.261577e-05
0.002953418
-9.501955e-05
0.003027216
-8.968446e-05
0.00309608
-8.101819e-05
0.00316198
-7.896215e-05
0.003228071
-8.280875e-05
0.003291024
-7.82197e-05
0.003351141
-7.464138e-05
0.003412443
-7.930327e-05
0.003469529
-7.239231e-05
0.003529467
-8.103402e-05
0.00359007
-8.479524e-05
0.003647932
-7.675612e-05
0.003701662
-6.917106e-05
0.003756694
-7.24832e-05
0.003811989
-7.569575e-05
0.003864702
-6.643364e-05
0.003833517
6.253099e-05
0.003897581
-9.151277e-05
0.003964939
-0.0001009277
0.004032475
-0.0001013633
0.004100163
-0.0001017447
0.004169075
-0.0001055816
0.004237477
-0.000103088
0.004302866
-9.713529e-05
0.004370766
-0.0001022918
0.004439583
-0.0001071958
0.004512531
-0.0001147032
0.004581062
-0.0001052982
0.004649797
-0.0001037439
0.004719021
-0.0001067384
0.004791171
-0.0001128791
0.004863393
-0.0001139353
0.004939402
-0.0001223013
0.005017182
-0.00012579
0.005095322
-0.0001264535
0.005176069
-0.0001306648
0.005253701
-0.0001243912
0.005339118
-0.000141024
0.005424923
-0.0001438537
0.005514549
-0.000149865
0.005606419
-0.000156759
0.005701714
-0.0001621788
0.005801482
-0.000173824
0.00590808
-0.0001875295
0.006015818
-0.0001903068
0.00613051
-0.0002043608
0.006255214
-0.0002269607
0.006395756
-0.0002617937
0.006711497
-0.0005505825
0.006901847
-0.0003620414
0.007120531
-0.0004137896
0.007357851
-0.000455894
0.007671191
-0.0005954481
0.007938458
-0.0005491324
0.008750133
-0.001517919
0.007999045
0.001002558
-0.01063137
0.009892949
0.0009976545
-0.009524691
-0.002108889
-0.009155662
-0.0007435396
-0.008744159
-0.000792629
-0.008439682
-0.0005883397
-0.008156741
-0.0005416948
-0.007914663
-0.0004666405
-0.007529286
-0.0006822492
-0.007353267
-0.0003304769
-0.007197332
-0.0002879619
-0.007050446
-0.0002682641
-0.006915956
-0.0002426051
-0.006784801
-0.0002350126
-0.006660136
-0.0002233959
-0.006538596
-0.0002155124
-0.006427013
-0.0001955175
-0.006319315
-0.0001846168
-0.00621664
-0.0001763794
-0.006113944
-0.0001752579
-0.006017022
-0.0001645091
-0.005921564
-0.00016021
-0.00583064
-0.0001510894
-0.005744091
-0.0001405781
-0.005657399
-0.0001417827
-0.005572225
-0.0001399037
-0.005486806
-0.0001405427
-0.005405036
-0.0001336224
-0.005326047
-0.0001251473
-0.005251196
-0.0001168415
-0.005173414
-0.0001216667
-0.005098323
-0.0001182051
-0.005020392
-0.0001231023
-0.004947432
-0.0001127107
-0.004874783
-0.0001098234
-0.004801708
-0.0001117491
-0.004728072
-0.000112497
-0.004654114
-0.0001136119
-0.004583029
-0.0001064645
-0.004513235
-0.0001018037
-0.004553165
7.418423e-05
-0.004498318
-7.199535e-05
-0.00444268
-7.877256e-05
-0.004385912
-7.984602e-05
-0.004332385
-7.349002e-05
-0.004276563
-7.63817e-05
-0.00422282
-7.170725e-05
-0.004168152
-7.065115e-05
-0.00411348
-6.967163e-05
-0.004054785
-7.697748e-05
-0.00399508
-7.823884e-05
-0.003936009
-7.351773e-05
-0.003875675
-7.198148e-05
-0.003814505
-6.96111e-05
-0.003747209
-7.869467e-05
-0.003675979
-8.423511e-05
-0.003602164
-8.334337e-05
-0.00352593
-8.310369e-05
-0.003441723
-9.388512e-05
-0.003353746
-9.715295e-05
-0.003255959
-0.0001117076
-0.00314927
-0.000125808
-0.003031987
-0.000141724
-0.00290111
-0.0001652007
-0.002741721
-0.0002203308
-0.002559459
-0.0002651672
-0.002362235
-0.0002945818
-0.002140302
-0.0003532806
-0.001879049
-0.0004431953
-0.00151791
-0.0005646431
-0.001113029
-0.0005219202
0.0001778517
-2.650117e-05
0.0008125672
-0.001877326
0.001959835
-0.003885135
0.003499481
-0.002954255
0.004333435
-0.001332869
0.004699272
-0.0003549348
0.004883924
-1.593206e-05
0.0050199
-2.473081e-05
0.005103872
1.720737e-05
0.005116804
0.0001891412
0.004987957
0.0006450033
0.004359131
0.001799826
0.002256359
0.00404501
-0.001367011
0.005583395
-0.003895175
0.003105831
-0.003755345
-0.0005480756
-0.002685735
-0.00190608
-0.001994646
-0.001311752
-0.002506528
0.000637241
-0.003909117
0.002100278
-0.00445946
0.001305446
-0.003276441
-0.001130337
-0.001241207
-0.003204243
0.000510656
-0.003262988
0.002224028
-0.003150878
0.003661515
-0.002559805
0.004830376
-0.002050024
0.005672326
-0.001442687
0.006156504
-0.0007846349
0.006351774
-0.0001561936
0.006296132
0.0006009865
0.005638061
0.002015748
0.003503105
0.004281499
0.0003733168
0.004825782
-0.001531109
0.001837929
-0.001954391
-0.0003796014
-0.003354282
0.002336083
-0.004677416
0.003273519
-0.004150396
-0.0003043057
-0.002716354
-0.002524614
-0.001533298
-0.002182419
-0.0009039614
-0.001233623
-0.0008191644
-0.0002970058
-0.0008625501
0.0001196577
-0.0006329607
-0.0001780907
0.0008710302
-0.002573109
0.001408275
-0.0003199814
0.001207108
0.001003134
0.002873769
-0.004006733
0.0007475562
0.001247489
0.02002362
-0.003750386
0.006850149
-0.007135264
-0.001786802
-0.00430925
-0.0006050906
-0.001352249
0.0003611121
-0.00154295
0.001144541
-0.001371319
0.001794377
-0.001106578
0.002258964
-0.0006039043
0.002445527
0.0002203038
0.001721327
0.001697488
0.0003772688
0.001918922
-4.141197e-05
-0.0002735583
-0.0001946561
-0.000302341
-0.001475327
0.002580764
-0.002437933
0.002184202
-0.001595737
-0.001349454
-0.00039491
-0.00222187
0.0004094239
-0.001429029
0.0007750326
-0.0006340481
0.00106251
-0.0005121866
0.00130529
-0.0004030904
0.001617402
-0.0005204016
0.00196882
-0.0005920484
0.002347734
-0.0006412785
0.002672843
-0.0004613413
0.002707212
0.0003512024
0.001578107
0.002251832
-0.0003046692
0.002863687
-0.0006623713
0.0003154535
0.0003774327
-0.001841626
0.0009827247
-0.001174759
0.00134773
-0.0006689092
0.001624588
-0.0005024361
0.001841119
-0.000354131
0.001980131
-0.0001236539
0.002036725
3.928587e-05
0.001995674
8.893856e-05
0.001971438
-0.0001237132
0.002264582
-0.0007421888
0.002817971
-0.0006731231
0.002608544
0.001102175
0.001745714
0.001580592
0.001309369
0.0001992829
0.001173
-0.0002412817
0.001191113
-0.0002422085
0.001284448
-0.0002396704
0.001475485
-0.000328677
0.001648085
-0.0002523803
0.001813854
-0.0002300803
0.001909318
-0.0001158564
0.001940897
-3.636237e-05
0.001959786
-3.029172e-05
0.002023859
-8.55564e-05
0.002168262
-0.000194871
0.002361193
-0.0002704653
0.002592085
-0.0003432456
0.002824596
-0.0003544117
0.003030502
-0.0003127588
0.003239393
-0.0003254972
0.003469107
-0.0003698637
0.003718845
-0.0004075619
0.003967714
-0.0004016397
0.004201867
-0.0003704563
0.004412403
-0.000326521
0.00458025
-0.0002505355
0.00472027
-0.0002074752
0.004871996
-0.0002375971
0.005143621
-0.0004561331
0.005327459
-0.0003157983
0.005530381
-0.0003406013
0.005732951
-0.0003260738
0.00591261
-0.0002657827
0.006064445
-0.0001799789
0.0061767
-5.655753e-05
0.006225139
8.865917e-05
0.00620804
0.0001927385
0.006135952
0.000260523
0.006018526
0.00033051
0.00583843
0.000481366
0.005556982
0.0007488717
0.005008848
0.001312724
0.003867973
0.00226108
0.0018783
0.003138017
-0.0005903358
0.003121251
-0.002462419
0.002144579
-0.003468695
0.001560962
-0.003949822
0.001074528
-0.003995517
0.0001723506
-0.00377924
-0.000394547
-0.003406581
-0.0004766628
-0.002869916
-0.0005371648
-0.0021532
-0.000919289
-0.001357461
-0.001332914
-0.0007196884
-0.001229161
-0.0003316921
-0.000803112
-7.10068e-05
-0.0004540863
0.0002038668
-0.0003556597
0.000380532
-0.0002877224
0.0008524962
-0.001248538
0.001051254
-0.0006629259
0.003546175
-0.0006559536
0.01599734
-0.002389841
0.0005079541
-0.001867174
-0.001691416
-0.00270406
0.002805043
-0.001890042
-0.001130067
-4.047338e-05
-0.003520522
0.0008703522
-0.001429463
0.001110046
-0.0001639594
0.0008206207
0.000677419
0.0004667384
0.00050826
0.0002267912
0.0001776236
-5.009753e-05
0.0003052693
-0.0001093017
0.0001213237
0.0003046742
-0.0006146471
0.001014007
-0.001231443
0.001454125
-0.0006940333
0.001379603
0.0003411939
0.0008328717
0.001090171
0.0002311431
0.001002226
-0.0004281895
0.001008901
-0.001169537
0.001245842
-0.001550791
0.0006470118
-0.001484576
-0.0001559792
-0.001076919
-0.0007440004
-6.667548e-07
-0.001918362
0.001817462
-0.003302667
0.003645398
-0.003254184
0.005437172
-0.003227691
0.006839957
-0.002545363
0.008015698
-0.001200518
0.007467808
0.002576864
0.004257288
0.005399255
0.0003506264
0.005424414
-0.001115342
0.002752753
1.795484e-05
-0.001352986
0.001622772
-0.003181983
0.002382179
-0.001333585
0.001640909
0.001658202
0.001195858
0.0006250099
0.002117525
-0.002063634
0.00322365
-0.002198357
0.003579906
-0.0007394424
0.002836878
0.0009090042
0.001800066
0.001216038
0.001950238
-0.0005775238
0.003272224
-0.002618252
0.004467869
-0.002254341
0.004234219
0.001498698
0.0008829985
0.006134054
0.01519243
0.001155818
-0.01017381
0.02501533
-0.002602289
0.004266061
-0.002893014
-0.001400691
-0.003444364
0.003356393
-0.002351529
-0.002222902
-0.0003268325
-0.005545219
0.000517888
-0.002274183
0.0008743181
-0.0005203894
0.0008831493
0.0006685878
0.000554749
0.0008366602
5.7282e-05
0.0006750906
-0.0003623386
0.00072489
-0.0002713934
3.03785e-05
0.0003319951
-0.001218036
0.001165773
-0.002065221
0.001645685
-0.001173945
0.001601477
0.000385401
0.001122728
0.001568921
0.0004399367
0.001685017
-0.0004534851
0.001902323
-0.001464645
0.002257003
-0.002121802
0.001304168
-0.002126525
-0.0001512562
-0.001565213
-0.001305313
-0.0001600981
-0.003323476
0.002085552
-0.005548317
0.004292532
-0.005461164
0.00650246
-0.005437619
0.00809695
-0.004139852
0.009409437
-0.002513005
0.009888414
0.002097887
0.007232405
0.008055264
0.002572199
0.01008462
0.0002505948
0.005074357
0.001171747
-0.002274137
0.003136143
-0.005146379
0.004038201
-0.002235643
0.00345248
0.002243923
0.002798742
0.001278748
0.003424427
-0.002689318
0.004199885
-0.002973815
0.003942216
-0.000481774
0.002273528
0.002577693
0.0009972063
0.00249236
0.001426604
-0.001006921
0.002717975
-0.003909624
0.00365012
-0.003186485
0.003439264
0.001709554
-0.0008543598
0.01042768
-0.00765772
0.02199579
-0.005067835
-0.00972515
-0.002583108
-0.006793976
-0.001026545
-0.002908812
0.0001167371
-0.002686232
0.001096442
-0.002351023
0.001980371
-0.001990507
0.002526095
-0.001149628
0.002975165
-0.0002287657
0.002927123
0.00174553
0.001614616
0.003231429
7.616982e-05
0.001264888
-0.001047333
0.0008211622
-0.002280364
0.003813794
-0.003068206
0.002972045
-0.002151151
-0.00226651
-0.0007149104
-0.00365811
0.0003046276
-0.002448567
0.0008095549
-0.001138975
0.001151916
-0.0008545476
0.001437074
-0.0006882485
0.00180126
-0.0008845872
0.002212896
-0.001003684
0.002679513
-0.001107896
0.003028434
-0.0008102618
0.003242973
0.0001366628
0.002582274
0.002912531
0.0004582667
0.004987694
-0.0004896479
0.001263368
0.000305924
-0.002637198
0.0007490111
-0.001617846
0.0009896984
-0.0009095965
0.001144843
-0.0006575812
0.00129313
-0.0005024171
0.001437363
-0.0002678869
0.001466413
1.023543e-05
0.001301946
0.0002534059
0.00124654
-6.830741e-05
0.001633726
-0.001129375
0.002492678
-0.001532075
0.002987512
0.0006073402
0.002448791
0.002119313
0.001408555
0.001239519
0.0006373164
0.0005299573
0.0005002369
-0.000105129
0.0006133424
-0.0003527759
0.0008366724
-0.000552007
0.001000047
-0.0004157545
0.001214516
-0.0004445501
0.001457473
-0.0003588128
0.001703875
-0.0002827646
0.00194997
-0.0002763871
0.002191419
-0.000327005
0.002454649
-0.0004581015
0.002729536
-0.0005453517
0.003031321
-0.0006450304
0.003327147
-0.0006502383
0.003588813
-0.0005744248
0.00385427
-0.0005909539
0.004143427
-0.0006590202
0.00445462
-0.0007187557
0.004762956
-0.0007099755
0.005052822
-0.0006603222
0.005314079
-0.0005877785
0.005524027
-0.0004604827
0.005700676
-0.0003841246
0.005890502
-0.0004274231
0.006216412
-0.0007820434
0.006437422
-0.0005368076
0.006683169
-0.000586349
0.006930923
-0.0005738274
0.007157759
-0.0004926183
0.007350903
-0.0003731229
0.007489672
-0.000195327
0.007556423
2.190794e-05
0.007561425
0.0001877371
0.007513157
0.0003087901
0.007419877
0.00042379
0.007275124
0.0006261198
0.007098231
0.0009257641
0.006864095
0.00154686
0.006372097
0.002753077
0.00502454
0.004485575
0.00229546
0.00585033
-0.001009153
0.005449193
-0.003022674
0.003574483
-0.003659286
0.00171114
-0.003752328
0.0002653925
-0.00355806
-0.000588815
-0.003102304
-0.000932418
-0.002370228
-0.001269241
-0.001432758
-0.00185676
-0.0005332329
-0.002232439
3.482185e-05
-0.001797216
0.0003611183
-0.001129408
0.0005867394
-0.0006797074
0.0008114491
-0.0005803695
0.0008968177
-0.000373091
0.001267806
-0.001619526
0.001083496
-0.0004786167
-0.001076552
0.005706223
-0.0002870644
-0.002666814
0.001794072
-0.005966271
0.003696049
-0.004856233
0.00494845
-0.002585271
0.005525556
-0.0009320403
0.005819499
-0.0003098758
0.006023355
-0.0002285867
0.006115725
-7.516255e-05
0.006078737
0.0002261294
0.005906112
0.0008176284
0.005527263
0.002178674
0.004273345
0.005298929
0.0004642905
0.009392449
-0.003914444
0.007484565
-0.005192463
0.0007299431
-0.004598157
-0.002500386
-0.004308128
-0.001601781
-0.005130409
0.001459522
-0.006169076
0.003138945
-0.005606268
0.0007426376
-0.003547041
-0.003189563
-0.001226745
-0.005524539
0.0008107575
-0.00530049
0.002894756
-0.005234877
0.004617976
-0.004283025
0.006023805
-0.003455853
0.007043118
-0.002462001
0.00764789
-0.001389407
0.007862386
-0.0003706899
0.007721639
0.0007417343
0.007326016
0.00241137
0.006038766
0.005568749
0.002928643
0.007935906
-0.0007429104
0.005509482
-0.002930921
0.00180841
-0.004504717
0.003909879
-0.005364684
0.004133486
-0.004540274
-0.001128716
-0.002849734
-0.004215154
-0.001419254
-0.003612899
-0.0006096605
-0.002043216
-0.0005593899
-0.0003472764
-0.0008281431
0.0003884109
-0.0005197594
-0.0004864744
0.001104904
-0.004197772
0.002160615
-0.001375693
0.002609832
0.0005539177
0.003132915
-0.004529816
-0.001485043
0.005865446
-0.01234618
0.03088476
-0.01298532
0.001636795
-0.0118788
-0.00321541
-0.01139647
-0.001225875
-0.01093558
-0.001253513
-0.01059233
-0.0009315894
-0.01027818
-0.0008558506
-0.01001555
-0.0007292691
-0.009573483
-0.001124317
-0.009380175
-0.0005237849
-0.009205628
-0.0004625085
-0.009040746
-0.000433146
-0.008888899
-0.0003944521
-0.008740046
-0.0003838654
-0.008598419
-0.0003650235
-0.008459349
-0.0003545821
-0.008330614
-0.0003242531
-0.00820485
-0.0003103804
-0.008084574
-0.0002966554
-0.007963591
-0.0002962409
-0.007848826
-0.0002792736
-0.007734849
-0.0002741876
-0.007625193
-0.0002607455
-0.007519703
-0.0002460679
-0.007413769
-0.0002477169
-0.007309816
-0.0002438568
-0.00720533
-0.0002450279
-0.007104507
-0.000234446
-0.007005453
-0.000224201
-0.006910517
-0.0002117779
-0.006811593
-0.0002205905
-0.006716255
-0.000213543
-0.00661704
-0.0002223176
-0.006523018
-0.0002067327
-0.006428286
-0.0002045551
-0.006332907
-0.0002071279
-0.006236796
-0.0002086078
-0.00613976
-0.0002106481
-0.006044031
-0.000202194
-0.005946679
-0.0001991557
-0.005980451
0.0001079562
-0.005895198
-0.0001572476
-0.005817017
-0.000156954
-0.005735826
-0.0001610367
-0.005658397
-0.0001509197
-0.005577451
-0.0001573272
-0.005498678
-0.0001504803
-0.00541814
-0.0001511888
-0.005337666
-0.0001501457
-0.005252687
-0.0001619572
-0.005166848
-0.0001640776
-0.005081676
-0.0001586894
-0.004994569
-0.0001590889
-0.004906628
-0.0001575521
-0.004811953
-0.0001733696
-0.004713289
-0.0001828988
-0.004612261
-0.0001843718
-0.004508997
-0.0001863678
-0.004396994
-0.0002058875
-0.004282353
-0.0002117937
-0.004157915
-0.0002361463
-0.004025508
-0.0002582148
-0.003882602
-0.00028463
-0.003726061
-0.0003217417
-0.00353875
-0.0004076415
-0.003329786
-0.0004741318
-0.003106423
-0.0005179442
-0.002849911
-0.0006097928
-0.002545538
-0.0007475681
-0.002159142
-0.000951039
-0.001729864
-0.000951199
-0.001353833
-0.0001981786
-0.0001211924
-0.003069825
0.0009327729
-0.002885705
0.001559059
-0.001484019
0.001922369
-0.0007176702
0.002171589
-0.0004731011
0.002393365
-0.0004359879
0.002587548
-0.0003802874
0.00275099
-0.0003101291
0.002897556
-0.0002799544
0.00304694
-0.0002955661
0.003187783
-0.0002755878
0.003321819
-0.0002556123
0.003444542
-0.0002268302
0.003562543
-0.0002163103
0.003674085
-0.0002041583
0.003784933
-0.0002058669
0.003891422
-0.0001961735
0.003992268
-0.0001818641
0.004089526
-0.0001762205
0.004186784
-0.0001800671
0.004280501
-0.0001719365
0.004370504
-0.0001646437
0.004461967
-0.0001707669
0.004547542
-0.000157967
0.004635669
-0.0001691612
0.004724037
-0.0001731632
0.004809759
-0.0001624783
0.004890747
-0.0001501588
0.004972941
-0.0001546777
0.005053794
-0.0001565479
0.005139294
-0.0001519336
0.005119023
8.280153e-05
0.005212088
-0.0001845778
0.005305671
-0.0001945108
0.005397556
-0.0001932483
0.005488784
-0.000192972
0.005580602
-0.0001974005
0.005671959
-0.0001944444
0.00575962
-0.0001847967
0.005849561
-0.0001922324
0.00593888
-0.0001965144
0.006032769
-0.000208593
0.006121666
-0.0001941949
0.006211174
-0.0001932515
0.006300319
-0.000195884
0.006392204
-0.0002047635
0.006483296
-0.0002050276
0.006577934
-0.0002169394
0.006674033
-0.0002218887
0.006770094
-0.0002225146
0.00686939
-0.0002299614
0.006964415
-0.0002194162
0.007067624
-0.0002442328
0.007169874
-0.000246104
0.007276254
-0.0002562447
0.007384203
-0.0002647082
0.007495391
-0.000273366
0.007610385
-0.0002888181
0.00773221
-0.0003093545
0.007854673
-0.0003127704
0.00798386
-0.000333548
0.008123442
-0.0003665421
0.008275454
-0.0004138059
0.008637228
-0.0009123559
0.008840203
-0.0005650165
0.009078679
-0.0006522654
0.009341142
-0.0007183577
0.009688682
-0.0009429877
0.0100272
-0.0008876491
0.01083896
-0.002329679
0.001667706
-0.0001498657
0.001446284
-0.004366243
0.0009517973
-0.003987368
0.001676661
-0.002208883
0.002143166
-0.001184175
0.002474426
-0.0008043605
0.002765126
-0.0007266887
0.003017786
-0.0006329465
0.00322971
-0.0005220541
0.003417019
-0.0004672627
0.003605123
-0.0004836702
0.003781227
-0.0004516918
0.003948938
-0.0004233239
0.004102876
-0.0003807673
0.004250499
-0.0003639337
0.004390063
-0.0003437223
0.004527942
-0.0003437462
0.004660859
-0.0003290907
0.004786378
-0.0003073827
0.004907851
-0.0002976934
0.005028852
-0.0003010684
0.005145611
-0.0002886957
0.005257849
-0.0002768815
0.005372066
-0.0002849838
0.005478741
-0.0002646415
0.005588675
-0.0002790954
0.005698909
-0.0002833971
0.005805573
-0.0002691427
0.005907339
-0.0002519245
0.00601007
-0.0002574091
0.006111106
-0.0002575831
0.006219137
-0.000259965
0.006201574
0.000100365
0.006315231
-0.0002982353
0.006431382
-0.0003106615
0.006544083
-0.0003059492
0.006655924
-0.0003048135
0.006768499
-0.0003099759
0.006880103
-0.0003060483
0.006987385
-0.0002920786
0.00709705
-0.000301897
0.007205834
-0.000305299
0.007319819
-0.0003225775
0.007427783
-0.0003021585
0.007536364
-0.0003018328
0.007644617
-0.0003041367
0.00775566
-0.0003158065
0.007865621
-0.0003149895
0.007979808
-0.0003311256
0.008095373
-0.0003374536
0.008210909
-0.0003380509
0.008330371
-0.000349423
0.008444136
-0.0003331819
0.008568281
-0.0003683774
0.008690363
-0.0003681864
0.008817175
-0.0003830568
0.008946198
-0.0003937314
0.009077955
-0.0004051221
0.009214983
-0.0004258466
0.009359237
-0.0004536082
0.009504058
-0.0004575913
0.009656746
-0.0004862368
0.00982176
-0.0005315556
0.01020984
-0.0008018895
0.01043082
-0.001133333
0.01066804
-0.0008022322
0.01095021
-0.0009344369
0.01127043
-0.001038582
0.01168302
-0.001355572
0.0121595
-0.001364131
0.01290996
-0.003080145
0.01251472
0.002062951
-0.01544935
0.01514622
0.00193993
-0.01439883
-0.00426594
-0.01372924
-0.001895463
-0.0131797
-0.001803053
-0.01275944
-0.001351849
-0.01238344
-0.001231846
-0.01207263
-0.001040078
-0.01178582
-0.001411127
-0.01131329
-0.000996322
-0.01110656
-0.0006692367
-0.01091066
-0.0006290504
-0.01073053
-0.0005745813
-0.01055386
-0.0005605306
-0.0103855
-0.0005333872
-0.01022021
-0.0005198704
-0.01006656
-0.0004779065
-0.009916849
-0.0004600864
-0.00977325
-0.0004402551
-0.00962879
-0.0004407009
-0.009491537
-0.0004165261
-0.009355422
-0.0004103024
-0.009223774
-0.0003923936
-0.009097599
-0.0003722436
-0.008970576
-0.0003747397
-0.008845921
-0.0003685109
-0.008720817
-0.0003701325
-0.008599618
-0.000355645
-0.008480557
-0.0003432624
-0.008366142
-0.0003261928
-0.008246767