/*--------------------------------*- C++ -*----------------------------------*\
| =========                 |                                                 |
| \\      /  F ield         | OpenFOAM: The Open Source CFD Toolbox           |
|  \\    /   O peration     | Version:  2406                                  |
|   \\  /    A nd           | Website:  www.openfoam.com                      |
|    \\/     M anipulation  |                                                 |
\*---------------------------------------------------------------------------*/
FoamFile
{
    version     2.0;
    format      ascii;
    arch        "LSB;label=32;scalar=64";
    class       volVectorField;
    location    "2.74";
    object      U;
}
// * * * * * * * * * * * * * * * * * * * * * * * * * * * * * * * * * * * * * //

dimensions      [0 1 -1 0 0 0 0];

internalField   nonuniform List<vector> 
15536
(
(-0.06330399 0.4969267 6.783721e-23)
(-0.1575962 1.93741 -4.023466e-19)
(-0.3571867 3.283655 -1.05347e-18)
(-0.6183087 4.474274 -1.33304e-18)
(-0.918548 5.318992 -2.508738e-20)
(-1.202831 5.743973 1.877365e-20)
(-1.364444 5.606381 3.04142e-20)
(-1.330412 4.810537 -3.05286e-20)
(-1.082546 3.47443 7.725625e-18)
(-0.654795 1.879232 7.54095e-18)
(-0.170741 0.4182329 0)
(-0.09359848 0.08710908 0)
(-0.3329271 0.5438005 -5.045144e-20)
(-0.3861075 0.7121195 1.26339e-17)
(0.1403709 -0.1355789 5.771e-18)
(0.9455719 -1.239822 -1.083335e-17)
(1.251842 -1.55677 4.99819e-18)
(1.462608 -1.719367 3.362398e-20)
(1.816712 -1.959209 -6.474216e-20)
(2.066352 -2.056713 3.143874e-20)
(1.418901 -1.335708 0)
(0.00839725 -0.05676408 5.147413e-18)
(-1.302257 0.9955164 0)
(-2.361983 1.702664 7.206918e-18)
(-3.701424 2.441058 -5.971509e-20)
(-5.94122 3.578146 -1.054402e-19)
(-8.38421 4.737055 1.008774e-19)
(-9.909445 5.367011 -1.908179e-17)
(-5.508582 3.176526 -1.725235e-17)
(4.392583 -1.510519 0)
(6.55913 -2.580059 -2.739718e-20)
(1.325483 -0.6654742 -4.256843e-18)
(-1.950539 0.3352175 5.534018e-18)
(-4.301271 0.8624542 0)
(-6.299127 1.194778 -8.082921e-18)
(-7.336797 1.35089 -3.597819e-20)
(-4.246017 0.8724003 4.647322e-18)
(-0.4925966 0.1040997 -2.064609e-18)
(1.685755 -0.03769658 1.907471e-21)
(7.175809 0.4342048 -4.503868e-19)
(11.21732 1.04105 1.762401e-18)
(13.11786 1.675571 -2.784649e-20)
(14.03342 2.339859 2.746289e-20)
(14.49149 3.01882 0)
(14.70456 3.682549 -6.859228e-18)
(14.74184 4.316908 -6.777131e-18)
(14.61259 4.912214 0)
(14.38263 5.47368 -1.28206e-17)
(14.0863 6.007649 1.245069e-17)
(13.74658 6.515426 1.197905e-17)
(13.35361 6.982832 4.345033e-20)
(12.90213 7.405895 -1.081702e-17)
(12.40007 7.779558 0)
(11.85628 8.105507 0)
(11.28019 8.380224 8.692447e-18)
(10.66988 8.595928 7.958532e-18)
(10.04372 8.763742 5.279851e-20)
(9.407867 8.881637 6.26569e-18)
(8.749308 8.93108 1.098577e-17)
(8.081058 8.920719 4.657778e-18)
(7.411338 8.853752 3.765929e-18)
(6.75327 8.739111 -2.641606e-20)
(6.103652 8.567049 0)
(5.460354 8.33127 1.190089e-18)
(4.83673 8.048292 0)
(4.229139 7.704426 5.516209e-19)
(3.646198 7.305647 -2.87118e-20)
(3.098 6.862656 -3.013779e-21)
(2.584193 6.373385 1.007304e-20)
(2.109111 5.842049 -3.702331e-18)
(1.678294 5.276832 -1.834277e-20)
(1.292509 4.675205 2.542773e-18)
(0.9533671 4.03872 2.82707e-18)
(0.6661349 3.382432 0)
(0.4304149 2.71067 0)
(0.2495446 2.018865 3.501088e-18)
(0.1207758 1.319897 -2.4309e-22)
(0.04757554 0.649102 9.601e-19)
(0.02374547 0.004450941 1.772347e-21)
(0.05412967 -0.7145085 -7.421321e-21)
(0.1333999 -1.482373 -1.839353e-18)
(0.2710287 -2.230532 0)
(0.4648521 -2.948263 3.33223e-18)
(0.7115792 -3.637114 0)
(1.009669 -4.29722 -2.835926e-18)
(1.356866 -4.92668 2.520309e-18)
(1.752344 -5.524131 1.866159e-20)
(2.192715 -6.088408 3.807208e-18)
(2.674656 -6.609931 1.062785e-20)
(3.193909 -7.086551 -2.371668e-18)
(3.74792 -7.520526 -1.581501e-18)
(4.334013 -7.905934 8.853829e-21)
(4.950119 -8.244629 9.115979e-20)
(5.586272 -8.533014 -9.471736e-19)
(6.238309 -8.766566 1.740667e-20)
(6.895698 -8.932286 6.725842e-21)
(7.563327 -9.044636 -3.493305e-18)
(8.236898 -9.103839 0)
(8.90767 -9.102053 1.022098e-17)
(9.577935 -9.049937 5.85644e-18)
(10.22815 -8.933578 1.083073e-19)
(10.85475 -8.755755 -7.515021e-18)
(11.45363 -8.519562 0)
(12.02351 -8.229111 0)
(12.56324 -7.892757 0)
(13.06414 -7.508526 0)
(13.51613 -7.077526 1.065699e-17)
(13.91579 -6.603649 1.123367e-17)
(14.26332 -6.091804 3.206289e-20)
(14.55294 -5.549718 -1.201688e-17)
(14.76578 -4.974709 -6.116291e-18)
(14.8767 -4.367384 -6.29343e-18)
(14.84275 -3.726364 4.915572e-20)
(14.63312 -3.058146 6.359163e-18)
(14.21334 -2.375345 3.250582e-18)
(13.49514 -1.697403 -2.50316e-20)
(12.21922 -1.075847 -5.889369e-21)
(9.810054 -0.5236704 3.857679e-19)
(5.123318 -0.1110336 -7.570965e-19)
(-0.215279 0.1213689 -1.820856e-20)
(1.578629 0.2814672 1.225536e-20)
(-2.330904 -0.6648643 3.541453e-18)
(-8.817859 -2.223996 2.970336e-20)
(-10.05273 -2.53283 0)
(-6.930177 -1.821925 -4.605607e-18)
(-4.222409 -1.234809 -2.986733e-18)
(-2.212676 -0.6734624 -4.409287e-21)
(-0.2767187 0.08179066 2.651921e-18)
(4.80905 2.439777 4.752281e-19)
(5.564757 2.666135 0)
(-2.885615 -2.193194 0)
(-7.558284 -4.993564 -9.636395e-18)
(-6.762697 -4.595793 0)
(-5.453024 -4.022731 4.824024e-20)
(-4.076231 -3.1806 -5.021192e-18)
(-2.307657 -1.882348 -2.513096e-18)
(-0.2232975 -0.08802961 -7.419391e-22)
(1.710591 1.705008 1.013919e-18)
(1.827718 1.884761 8.136431e-21)
(1.012235 1.174329 -1.445248e-18)
(0.507885 0.612411 -7.190455e-19)
(0.07580752 0.03490203 -2.805617e-19)
(-0.1693847 -0.2897802 1.794278e-19)
(-0.08401808 -0.1305688 0)
(0.1779922 0.3264274 -3.693714e-21)
(-0.1370383 -0.3617635 -1.159792e-18)
(-0.5511973 -1.274293 0)
(-0.05100199 0.06918138 1.429931e-18)
(0.7073301 2.309569 -1.752956e-20)
(1.330363 4.137056 1.065971e-20)
(0.9106797 2.597556 1.666543e-18)
(-0.2432224 -1.345038 -1.289535e-22)
(-0.4092947 -1.698623 0)
(-0.08685294 -0.8690537 3.866981e-19)
(-0.1603425 -2.61486 3.053198e-21)
(-0.1287801 -2.269374 8.478383e-22)
(-0.05423572 -0.8669621 -8.321944e-22)
(-0.2053696 0.4176749 -1.228752e-19)
(-0.2869418 1.909746 3.290652e-19)
(-0.5103824 3.304055 0)
(-0.7849527 4.552059 1.093781e-18)
(-1.111543 5.460353 0)
(-1.413601 5.9434 6.028553e-18)
(-1.642331 6.102655 2.483703e-20)
(-1.765829 5.907431 -2.44783e-20)
(-1.71262 5.251058 -6.076582e-18)
(-1.437009 4.098811 -5.855201e-18)
(-0.9871856 2.573262 0)
(-0.7557122 1.568472 4.278444e-20)
(-0.6661965 1.145526 -2.220825e-21)
(-0.7011674 1.291147 -5.107004e-18)
(-0.006963538 0.2921051 -9.407051e-18)
(1.277818 -1.587132 4.370401e-18)
(1.347427 -1.650617 -3.998697e-18)
(1.856448 -2.118836 -2.979017e-20)
(2.750095 -2.927499 0)
(2.851286 -2.975246 0)
(1.522077 -1.727117 0)
(-0.1642398 -0.1902375 4.136529e-18)
(-1.366587 0.8490004 4.3093e-20)
(-2.328023 1.49843 -4.223441e-20)
(-3.58577 2.095347 6.30259e-20)
(-5.617994 2.961475 -5.836184e-20)
(-7.955132 4.078673 0)
(-9.151293 4.740662 0)
(-8.321879 4.955257 2.500368e-17)
(2.381402 -0.08028089 3.937285e-20)
(7.123696 -2.933217 -4.51974e-20)
(3.394997 -1.594011 3.30269e-18)
(2.035255 -0.904013 4.414083e-18)
(0.9521622 -0.5777027 -4.938285e-20)
(-0.4615626 -0.2007919 -7.186044e-18)
(-2.614772 0.5040275 4.319317e-18)
(-4.606294 0.7779298 -3.376711e-21)
(4.672779 0.09668926 1.453252e-18)
(12.35724 0.2569888 0)
(16.7475 0.6684316 3.042451e-19)
(18.30591 1.02877 2.531111e-18)
(18.4837 1.509722 2.665097e-18)
(18.4487 2.130344 2.708947e-18)
(18.29231 2.794232 -8.43021e-20)
(18.07074 3.471526 5.487403e-18)
(17.79261 4.144144 -4.17385e-20)
(17.47478 4.807461 0)
(17.10277 5.443433 1.020535e-17)
(16.66925 6.049321 0)
(16.19372 6.623023 -7.198641e-20)
(15.66843 7.151829 7.21909e-20)
(15.09042 7.632666 8.627723e-18)
(14.46682 8.059053 -6.056539e-20)
(13.80444 8.430987 7.545398e-18)
(13.11121 8.744551 -6.986107e-18)
(12.39047 8.997331 0)
(11.65266 9.197994 4.174918e-20)
(10.90442 9.341745 -5.13614e-18)
(10.14113 9.415591 -8.749992e-18)
(9.367662 9.421509 0)
(8.596494 9.369961 -3.021446e-18)
(7.836484 9.262087 -1.521979e-20)
(7.088174 9.090366 1.601312e-18)
(6.352723 8.854171 4.378378e-21)
(5.636826 8.55948 -4.432799e-21)
(4.944562 8.202971 -4.473564e-19)
(4.279456 7.788229 1.126931e-18)
(3.652148 7.320605 0)
(3.063796 6.805699 0)
(2.519357 6.247066 -1.899559e-20)
(2.022951 5.646483 0)
(1.577654 5.005665 0)
(1.185276 4.32825 0)
(0.850475 3.625491 -2.549762e-18)
(0.5720403 2.906668 2.055278e-20)
(0.359862 2.164671 1.173575e-20)
(0.2040877 1.415286 -5.705912e-21)
(0.1129343 0.6902512 -7.883865e-19)
(0.08490822 -0.01180527 3.207737e-21)
(0.1322364 -0.7851366 -7.860136e-19)
(0.228493 -1.606168 1.497153e-18)
(0.3935977 -2.406315 1.141167e-20)
(0.6234341 -3.173674 -2.698486e-18)
(0.9130931 -3.911017 -3.963797e-20)
(1.261474 -4.61869 2.346664e-18)
(1.664866 -5.290511 -2.094479e-18)
(2.123831 -5.926283 0)
(2.630863 -6.526031 -6.209954e-18)
(3.184224 -7.075254 -1.752933e-20)
(3.781113 -7.576839 1.92117e-18)
(4.41586 -8.034899 1.287937e-18)
(5.08596 -8.436591 0)
(5.789556 -8.784236 0)
(6.517618 -9.082376 0)
(7.263557 -9.314349 1.353414e-20)
(8.022076 -9.476844 -1.343768e-20)
(8.792391 -9.580546 2.726118e-18)
(9.569208 -9.623834 5.413687e-21)
(10.34835 -9.603213 -4.126868e-18)
(11.12404 -9.523265 -7.754394e-20)
(11.88602 -9.379388 1.070889e-17)
(12.62625 -9.169152 5.95462e-18)
(13.34023 -8.895464 -4.846847e-20)
(14.03045 -8.564488 6.945374e-18)
(14.69204 -8.180935 5.671184e-20)
(15.31661 -7.741156 -6.426908e-20)
(15.89669 -7.250687 6.399668e-20)
(16.42846 -6.712285 7.010203e-20)
(16.91153 -6.132379 9.201532e-18)
(17.34173 -5.515496 -7.237554e-20)
(17.70555 -4.865034 0)
(18.0167 -4.190589 0)
(18.2886 -3.504748 0)
(18.50512 -2.818152 0)
(18.64174 -2.134814 1.886037e-20)
(18.67355 -1.460112 -1.878022e-20)
(18.51781 -0.8664173 1.127409e-18)
(17.97151 -0.4221553 4.260089e-21)
(15.44975 -0.1096342 0)
(10.74447 0.2431261 -1.069694e-18)
(4.770104 0.2497093 2.156388e-18)
(-4.528903 -1.308175 -2.728302e-18)
(-7.898787 -1.986151 5.258429e-20)
(-4.010501 -0.6706479 -6.764278e-18)
(-2.032131 -0.04604514 3.730018e-20)
(0.06371655 0.3786977 0)
(1.111539 0.642431 3.685079e-18)
(1.95324 1.252158 -4.123636e-18)
(5.740443 3.181133 3.617005e-19)
(5.674001 2.298901 2.128422e-20)
(-5.733956 -4.386484 -6.288872e-20)
(-7.669331 -4.937968 5.026081e-20)
(-6.929888 -4.327814 0)
(-5.692801 -3.942589 6.091961e-18)
(-4.431064 -3.1867 3.962769e-18)
(-2.785144 -1.994597 1.50296e-20)
(-0.8584283 -0.2537809 -2.535624e-19)
(1.605591 1.944241 -8.124728e-19)
(2.855822 3.033728 -3.523736e-19)
(1.901815 2.067689 -4.796234e-21)
(0.5292396 0.4941159 5.798285e-19)
(-0.06299589 -0.2102817 3.247333e-21)
(-0.2244615 -0.3538916 -1.491586e-19)
(-0.1520255 -0.1580957 4.780731e-21)
(0.3418526 0.5831936 3.502138e-21)
(-0.03052665 -0.3215564 -6.962952e-21)
(-0.7151258 -1.559839 0)
(-0.1354485 0.4249043 0)
(0.5624331 2.535544 -1.698442e-18)
(1.168291 3.921094 0)
(1.460005 4.001094 -2.603282e-18)
(0.3147003 0.08186334 6.229042e-19)
(-0.4188372 -2.409662 -4.311725e-21)
(-0.3289444 -3.077699 4.167944e-21)
(-0.3228261 -3.517649 3.252628e-19)
(-0.2853355 -2.288206 -1.674094e-19)
(-0.1976821 -1.074915 -9.432256e-20)
(-0.3578634 0.3860451 9.82339e-20)
(-0.4189092 1.870212 -2.655928e-19)
(-0.6399282 3.24781 1.246394e-20)
(-0.8696094 4.488001 -9.060356e-19)
(-1.133496 5.392863 0)
(-1.356227 5.896896 -4.966179e-18)
(-1.51927 6.000302 -4.120879e-20)
(-1.606598 5.742582 2.632944e-18)
(-1.595056 5.217286 4.994719e-18)
(-1.489467 4.52238 4.754036e-18)
(-1.269471 3.504001 4.627073e-18)
(-1.05361 2.36424 -3.648409e-20)
(-0.8314201 1.51876 0)
(-0.7324196 1.492566 0)
(0.02207592 0.5558883 3.719641e-18)
(1.385501 -1.517079 3.59645e-18)
(1.336776 -1.54785 3.352546e-18)
(1.896044 -2.00478 4.863213e-20)
(2.834046 -2.9221 0)
(2.713511 -2.963618 2.591761e-18)
(1.209692 -1.737878 2.705903e-18)
(-0.2171941 -0.3928111 -3.353987e-18)
(-1.058767 0.4582292 0)
(-1.752151 0.9573556 4.848565e-18)
(-2.739136 1.345604 0)
(-4.504286 1.966602 -7.090206e-18)
(-6.763254 3.19345 0)
(-7.734861 4.099952 -1.383924e-17)
(-7.312608 5.153569 -1.99352e-17)
(0.1457574 1.622631 0)
(6.883069 -2.626647 0)
(7.178718 -2.772449 -1.294248e-20)
(7.798598 -2.46423 -3.319843e-18)
(7.61544 -2.275955 3.990676e-18)
(6.386449 -1.83179 1.057655e-17)
(3.865855 -0.8149996 -3.424878e-18)
(4.295703 0.243115 2.714647e-18)
(12.99156 0.4171548 -9.887097e-19)
(17.88487 0.6222113 0)
(18.39199 0.9670983 0)
(18.04993 1.381316 -2.090002e-18)
(17.93907 1.985581 -2.23636e-18)
(17.89079 2.675737 -4.432613e-18)
(17.77158 3.36978 4.409051e-18)
(17.59082 4.066661 1.037148e-19)
(17.34645 4.733249 -6.890617e-20)
(17.03356 5.374846 0)
(16.65236 5.976364 0)
(16.21643 6.548782 7.997401e-18)
(15.73881 7.091738 -7.704294e-18)
(15.21536 7.586004 0)
(14.64169 8.032075 0)
(14.02586 8.422601 9.940569e-20)
(13.37276 8.760774 -6.28987e-18)
(12.69184 9.040115 0)
(11.98668 9.257796 -5.108112e-18)
(11.26536 9.426126 -4.601993e-18)
(10.53652 9.538543 -4.021216e-18)
(9.796457 9.58039 3.519791e-18)
(9.046136 9.557145 -4.219169e-20)
(8.299097 9.479762 2.431537e-18)
(7.563984 9.348554 0)
(6.84309 9.154299 -1.306195e-18)
(6.13651 8.897496 -6.802141e-21)
(5.448059 8.586019 8.851602e-21)
(4.78884 8.211577 -4.296294e-19)
(4.153451 7.783531 0)
(3.55503 7.305178 -1.514231e-18)
(2.993808 6.78255 -1.748609e-20)
(2.477006 6.218068 2.504916e-18)
(2.005369 5.614609 1.485495e-18)
(1.583301 4.972824 -1.698455e-18)
(1.211141 4.296499 -1.89793e-18)
(0.8931261 3.596267 2.073358e-18)
(0.6270519 2.881819 -2.238403e-18)
(0.4280854 2.143884 -1.156629e-18)
(0.2756872 1.399439 2.456538e-18)
(0.183201 0.6784081 1.289184e-18)
(0.155252 -0.0223606 2.61888e-21)
(0.2135232 -0.7890716 6.502417e-19)
(0.3051841 -1.601813 -9.725815e-21)
(0.461846 -2.393507 0)
(0.6794608 -3.154156 -1.694116e-20)
(0.9522586 -3.886847 -1.468782e-20)
(1.281113 -4.591251 -1.85637e-18)
(1.660762 -5.261785 3.438734e-18)
(2.097281 -5.897034 -1.520022e-18)
(2.576826 -6.499884 2.51759e-18)
(3.100283 -7.054679 1.809947e-20)
(3.669257 -7.563166 0)
(4.273462 -8.032123 1.10322e-18)
(4.912431 -8.447019 4.416264e-21)
(5.586721 -8.809278 -3.813949e-20)
(6.285209 -9.125675 0)
(7.000875 -9.378793 1.085683e-18)
(7.732359 -9.563202 0)
(8.476298 -9.691919 -5.229755e-20)
(9.226793 -9.763182 2.731523e-18)
(9.983577 -9.770542 0)
(10.73647 -9.722625 -3.864349e-18)
(11.47794 -9.612607 -4.389079e-18)
(12.20006 -9.437384 -4.88156e-18)
(12.89799 -9.199171 0)
(13.57605 -8.902588 -1.159729e-17)
(14.22751 -8.55502 9.304702e-20)
(14.84484 -8.150466 0)
(15.42039 -7.695721 0)
(15.95047 -7.191644 0)
(16.43507 -6.644655 7.443151e-18)
(16.86659 -6.06512 -7.691834e-18)
(17.23749 -5.448009 0)
(17.5401 -4.79688 0)
(17.77995 -4.117681 3.993483e-18)
(17.95949 -3.416289 3.175598e-20)
(18.06596 -2.705593 0)
(18.10336 -1.991814 0)
(18.07695 -1.304038 -1.876073e-18)
(18.20761 -0.7410361 2.148721e-19)
(18.24847 -0.3242151 0)
(17.01882 0.1077654 7.468273e-19)
(11.58387 0.09530765 4.756367e-20)
(-1.448379 -1.269184 -4.195512e-21)
(-2.760285 -0.9349369 -4.501735e-20)
(1.169337 0.8536468 5.649122e-18)
(3.420142 1.733776 3.123159e-18)
(4.971704 2.086057 3.97493e-20)
(5.457311 2.205906 1.751197e-20)
(5.180413 2.601797 1.60135e-18)
(6.202113 3.433138 -3.026135e-19)
(3.813807 0.6446241 0)
(-6.037919 -5.337969 3.800317e-18)
(-6.638104 -4.451831 0)
(-6.427365 -3.845824 -8.333783e-20)
(-5.443507 -3.662178 -4.931098e-18)
(-4.471661 -3.003392 3.772741e-20)
(-3.115803 -2.006821 -3.838129e-20)
(-1.463099 -0.3778955 2.088952e-19)
(1.047831 1.755212 3.261567e-19)
(2.844054 3.026873 2.925508e-19)
(2.012856 1.952733 4.765912e-19)
(0.3840809 0.03615395 4.629915e-19)
(-0.2410364 -0.5794545 0)
(-0.4471662 -0.7106187 -2.04371e-21)
(-0.3860946 -0.43876 0)
(0.0995967 0.1954129 -6.13943e-19)
(0.4087657 0.337577 7.762291e-19)
(-0.5630853 -1.2079 0)
(-0.2345675 0.7985986 0)
(0.3382791 2.535445 2.761103e-18)
(1.015892 3.660574 -1.150384e-18)
(1.633084 3.903077 2.122762e-18)
(0.8518947 1.139067 -3.301174e-21)
(-0.3053622 -2.84285 3.49636e-21)
(-0.3554998 -3.840188 0)
(-0.3427431 -3.384398 -2.671274e-19)
(-0.3888846 -2.34952 2.661309e-19)
(-0.321102 -1.087634 7.808841e-20)
(-0.5451404 0.3465053 -1.600758e-19)
(-0.5908213 1.847139 -7.941487e-21)
(-0.8098958 3.199287 7.71773e-21)
(-0.9938852 4.425674 -2.53064e-20)
(-1.217541 5.331183 2.539892e-20)
(-1.406183 5.834814 2.045945e-18)
(-1.534165 5.931212 -3.404511e-20)
(-1.556998 5.643349 -2.173475e-18)
(-1.472515 5.047433 6.554587e-20)
(-1.340157 4.368373 -3.859348e-18)
(-1.196972 3.601875 -6.296571e-20)
(-1.031301 2.558616 0)
(-0.8316198 1.631215 0)
(-0.6622356 1.560769 -3.417542e-18)
(0.240943 0.6053265 -3.074929e-18)
(1.438289 -1.328315 -5.867806e-18)
(1.365029 -1.500769 -2.759792e-18)
(1.851461 -1.786819 0)
(2.614308 -2.58301 0)
(2.332278 -2.750634 -4.263752e-18)
(0.9617016 -1.825663 -4.401774e-18)
(0.03405256 -0.8292519 4.769207e-20)
(-0.3596941 -0.2121945 -1.091456e-19)
(-0.7169932 0.1010444 -8.125085e-18)
(-1.435544 0.2983907 -4.727721e-18)
(-3.281129 0.8266599 5.990179e-18)
(-5.603134 2.212439 8.752562e-18)
(-6.474855 3.37495 1.135777e-17)
(-5.146486 4.813416 8.477106e-18)
(-0.4016698 2.758769 0)
(7.556365 -2.27372 -5.622703e-20)
(11.09387 -3.665004 -4.204241e-18)
(12.71217 -3.649696 2.704543e-20)
(13.41318 -3.59353 2.263531e-20)
(13.60555 -3.139088 -3.828359e-18)
(13.36196 -1.84506 -2.307378e-18)
(14.24262 -0.1145516 -6.071643e-20)
(17.94216 0.5896159 -7.494551e-19)
(18.58072 0.5776802 -3.735532e-19)
(17.84664 0.6943042 -3.139755e-21)
(17.88263 1.014706 0)
(18.01623 1.539865 -2.816431e-20)
(18.04465 2.170636 1.864824e-18)
(17.96383 2.838685 -7.293856e-18)
(17.80068 3.525519 5.600301e-20)
(17.56489 4.197211 -3.586713e-18)
(17.25536 4.849455 -1.073038e-19)
(16.88001 5.462711 -6.726517e-18)
(16.44706 6.051586 2.20542e-21)
(15.97151 6.616418 6.355429e-18)
(15.45128 7.129899 -5.968988e-18)
(14.87966 7.598132 0)
(14.26508 8.010241 8.04478e-20)
(13.61123 8.372413 -8.096702e-20)
(12.9276 8.67713 0)
(12.21768 8.921122 4.208234e-18)
(11.49037 9.115607 7.411099e-20)
(10.75437 9.254017 3.361591e-18)
(10.00722 9.320484 -2.835498e-18)
(9.251091 9.318482 -2.376542e-18)
(8.4945 9.263946 -1.965872e-18)
(7.750727 9.153953 -1.460868e-18)
(7.021682 8.97912 1.217039e-20)
(6.305668 8.741007 -1.229508e-20)
(5.607184 8.447857 0)
(4.938067 8.090359 3.513967e-19)
(4.292309 7.67829 -1.608443e-20)
(3.684405 7.214277 1.259871e-18)
(3.114256 6.704736 1.648916e-18)
(2.591182 6.151492 -2.039349e-18)
(2.113049 5.558675 -1.218835e-18)
(1.685239 4.926726 -4.339725e-21)
(1.307649 4.259619 1.556266e-18)
(0.98702 3.567089 2.737997e-20)
(0.716889 2.860128 1.792713e-18)
(0.5185327 2.127081 1.526961e-20)
(0.3638497 1.385949 -1.025813e-18)
(0.2681225 0.6667289 -5.251056e-19)
(0.2398206 -0.03721943 -6.524654e-23)
(0.3111057 -0.7968927 5.154711e-19)
(0.4024879 -1.600834 7.959861e-21)
(0.5576688 -2.384163 -9.653075e-19)
(0.7767804 -3.136433 1.828865e-18)
(1.051875 -3.859566 0)
(1.383764 -4.553112 -3.419745e-21)
(1.766593 -5.211964 -1.413811e-18)
(2.20904 -5.834835 1.281061e-18)
(2.6929 -6.425952 -2.164692e-18)
(3.225269 -6.96626 2.422993e-20)
(3.805 -7.459674 -2.399188e-20)
(4.41545 -7.915414 -9.064882e-19)
(5.064077 -8.313858 0)
(5.75241 -8.656943 2.49028e-20)
(6.458552 -8.957462 1.286119e-20)
(7.182972 -9.191984 -5.729551e-20)
(7.924916 -9.355706 -1.267172e-18)
(8.677745 -9.463939 -1.813922e-18)
(9.436546 -9.513464 -2.361371e-20)
(10.20104 -9.49797 2.623348e-18)
(10.96264 -9.424969 -4.468774e-20)
(11.71039 -9.290479 -3.48293e-18)
(12.43825 -9.089053 0)
(13.14294 -8.822169 4.264577e-18)
(13.82488 -8.499718 4.706817e-18)
(14.47641 -8.13007 4.877469e-18)
(15.09321 -7.702419 -5.19131e-18)
(15.66671 -7.226304 5.557825e-18)
(16.19444 -6.701096 0)
(16.67648 -6.133827 -1.217537e-17)
(17.10447 -5.539373 1.268785e-17)
(17.47073 -4.907462 -1.49905e-19)
(17.77051 -4.244874 -3.2382e-18)
(18.0039 -3.557481 -3.275533e-18)
(18.16282 -2.867392 0)
(18.23462 -2.175795 1.65528e-18)
(18.20506 -1.507582 -1.618335e-18)
(18.05879 -0.8939214 7.803729e-19)
(17.86105 -0.4253974 -1.858325e-19)
(17.85359 -0.1122182 -3.363151e-19)
(18.25512 0.1027739 9.587968e-21)
(16.82538 -0.1663658 -1.049431e-18)
(6.551534 -0.9969929 -1.235671e-20)
(3.382737 0.3578271 0)
(6.571149 2.579547 0)
(8.421839 3.474375 -5.885682e-20)
(9.287623 3.606779 6.08988e-20)
(9.231513 3.516224 0)
(8.147309 3.649715 0)
(6.903688 3.474788 0)
(2.417297 -0.9905237 -2.668042e-19)
(-5.037269 -5.616373 -6.329161e-18)
(-5.915669 -3.9964 5.858513e-18)
(-5.744156 -3.196342 -4.814702e-18)
(-4.999217 -3.239793 -1.264612e-19)
(-4.309664 -2.668329 2.690763e-18)
(-3.286878 -1.882393 1.375657e-18)
(-1.955456 -0.3683881 -3.986984e-22)
(0.3301899 1.544664 -3.335949e-21)
(2.38089 2.575486 4.034782e-21)
(1.700135 1.265635 5.92081e-21)
(0.2145355 -0.497704 -3.882927e-19)
(-0.4187564 -0.9430857 0)
(-0.6315095 -0.9778662 1.022565e-19)
(-0.5738341 -0.637407 -3.31988e-19)
(-0.1541878 -0.01952649 5.071595e-19)
(0.7860939 0.9471396 0)
(-0.1628764 -0.4082304 0)
(-0.3386501 1.055574 -1.523998e-20)
(0.06603888 2.384203 -1.144168e-18)
(0.7999096 3.221229 9.772638e-19)
(1.637064 3.165648 -8.824659e-19)
(1.240746 1.269236 0)
(-0.08319709 -3.201696 0)
(-0.3393693 -4.007965 0)
(-0.4433809 -3.30311 -2.165386e-19)
(-0.5417381 -2.4319 -1.118873e-19)
(-0.4890259 -1.097637 -1.273892e-19)
(-0.76334 0.2948465 6.529075e-20)
(-0.7972677 1.831275 0)
(-1.014903 3.152151 -4.649054e-19)
(-1.138385 4.370806 0)
(-1.312545 5.292394 -1.463503e-18)
(-1.444214 5.815625 0)
(-1.494305 5.912651 0)
(-1.464196 5.61122 -1.760639e-18)
(-1.347079 4.989921 -3.392177e-18)
(-1.181463 4.244964 3.231817e-18)
(-1.011834 3.490989 -3.087345e-18)
(-0.8794169 2.528056 3.008515e-18)
(-0.7501858 1.625274 0)
(-0.5068547 1.548105 5.606018e-18)
(0.6493132 0.4218892 2.500335e-18)
(1.493098 -1.128511 2.47265e-18)
(1.395693 -1.448239 -7.430406e-20)
(1.78955 -1.567777 -5.98257e-20)
(2.321091 -2.154877 -1.759253e-18)
(1.920395 -2.473246 3.505446e-18)
(0.8690247 -1.979923 1.805237e-18)
(0.5814828 -1.423816 7.796811e-20)
(0.6985028 -1.072313 2.764512e-18)
(0.6682276 -0.9407248 3.333289e-18)
(-0.0640574 -0.8336161 3.910507e-18)
(-2.049159 -0.4142939 0)
(-4.131742 1.04649 7.031247e-20)
(-4.636054 2.454756 0)
(-2.811847 4.32459 7.357104e-18)
(0.6053428 3.301816 3.229094e-18)
(8.789052 -1.79616 2.306416e-18)
(13.39847 -3.910843 -9.622634e-20)
(15.03377 -4.126947 5.674047e-20)
(16.20746 -4.204799 -4.764092e-18)
(17.43336 -3.844726 0)
(18.38448 -2.514152 -1.587004e-18)
(18.78269 -0.4775529 -1.529158e-18)
(18.79218 0.5464508 1.241379e-18)
(17.77592 0.5969706 2.996776e-19)
(17.49666 0.8610614 0)
(17.65543 1.339286 7.053685e-19)
(17.73438 1.931692 0)
(17.74388 2.583163 0)
(17.65519 3.240968 3.048755e-18)
(17.49014 3.920145 -4.640103e-20)
(17.25683 4.566884 4.823519e-20)
(16.95131 5.191581 -2.822379e-18)
(16.58217 5.772264 5.649095e-18)
(16.15569 6.329719 -5.370418e-18)
(15.68998 6.863676 -5.164302e-18)
(15.18543 7.336957 2.344562e-19)
(14.62734 7.772466 -1.4912e-19)
(14.03001 8.149577 -1.307283e-19)
(13.39276 8.482145 -3.753609e-18)
(12.728 8.759137 -3.807847e-18)
(12.03755 8.975905 -9.972751e-20)
(11.32767 9.149232 3.162926e-18)
(10.61388 9.265983 0)
(9.890296 9.31126 2.33476e-18)
(9.151999 9.29482 1.956277e-18)
(8.414256 9.227831 1.522558e-18)
(7.69174 9.106741 1.201923e-18)
(6.982758 8.923527 0)
(6.286889 8.677506 0)
(5.605333 8.381344 2.926061e-20)
(4.955773 8.020188 0)
(4.324058 7.608767 0)
(3.731789 7.146214 1.098604e-18)
(3.177996 6.638905 -2.153693e-20)
(2.664449 6.091288 -1.377847e-20)
(2.193872 5.504293 -3.347092e-20)
(1.774228 4.878502 2.329957e-18)
(1.40561 4.217719 0)
(1.094818 3.531634 0)
(0.8211467 2.835471 1.516452e-18)
(0.6277154 2.108435 7.639361e-19)
(0.470773 1.370662 8.267919e-19)
(0.3710681 0.653991 -4.296487e-19)
(0.3430277 -0.05507056 0)
(0.4306347 -0.8031587 -3.603474e-22)
(0.5216471 -1.597168 2.547175e-20)
(0.6662366 -2.371779 7.654923e-19)
(0.8780311 -3.112486 -1.498563e-18)
(1.147471 -3.822834 -4.244685e-20)
(1.473662 -4.504754 1.294489e-18)
(1.85022 -5.153438 3.816148e-20)
(2.286394 -5.768101 2.065312e-18)
(2.755961 -6.355036 -1.421577e-20)
(3.27414 -6.891498 -1.497988e-18)
(3.844217 -7.382263 4.000575e-20)
(4.439612 -7.839075 0)
(5.067346 -8.240685 4.440581e-19)
(5.740814 -8.586754 0)
(6.432178 -8.8927 0)
(7.134283 -9.137198 -6.958596e-19)
(7.85646 -9.310628 2.076993e-18)
(8.591986 -9.429775 4.976597e-20)
(9.330144 -9.493917 -1.048384e-19)
(10.07444 -9.494599 -2.154159e-18)
(10.81528 -9.442017 -2.455751e-18)
(11.54274 -9.32954 2.964262e-18)
(12.24911 -9.154269 -3.222331e-18)
(12.93196 -8.916692 -7.554735e-20)
(13.59657 -8.621438 0)
(14.23036 -8.283735 -4.2225e-18)
(14.83161 -7.887698 8.887545e-18)
(15.39049 -7.446951 -4.72841e-18)
(15.90446 -6.958368 0)
(16.37672 -6.426498 9.292338e-20)
(16.79645 -5.866344 -5.081254e-18)
(17.15624 -5.265801 -8.096505e-20)
(17.45215 -4.630814 1.327398e-19)
(17.6827 -3.967679 -8.38037e-20)
(17.84307 -3.293256 0)
(17.91996 -2.612928 -2.637335e-18)
(17.90624 -1.932663 1.259483e-18)
(17.79009 -1.280158 6.133975e-19)
(17.60995 -0.7188159 -9.455984e-21)
(17.39789 -0.2609989 2.755027e-19)
(17.45964 0.008127666 5.031846e-19)
(18.69722 -0.4271671 0)
(14.54195 -0.650798 1.124556e-18)
(12.4337 1.433199 -1.057229e-19)
(13.02674 3.995297 3.051731e-18)
(12.91862 4.807395 0)
(12.58605 4.676797 0)
(12.02168 4.368614 0)
(10.5268 4.229721 5.748216e-21)
(7.900668 3.304201 -2.824382e-19)
(1.938732 -2.292473 1.51711e-19)
(-3.480718 -5.531533 2.71802e-18)
(-4.929802 -3.452973 -9.966721e-18)
(-4.84017 -2.420248 4.069916e-18)
(-4.379755 -2.721004 0)
(-3.902621 -2.15658 -2.216208e-18)
(-3.160745 -1.518086 -1.109018e-18)
(-2.194782 -0.130418 1.997661e-19)
(-0.4570056 1.236564 2.172053e-22)
(1.672037 1.798766 8.472895e-21)
(1.203014 0.3116462 -7.957976e-21)
(0.08661083 -0.954718 0)
(-0.5590793 -1.244049 1.130674e-19)
(-0.7567709 -1.152636 5.757551e-21)
(-0.6870984 -0.691764 5.444439e-19)
(-0.3278542 -0.001993074 -4.255744e-19)
(0.7722913 0.9718516 3.277445e-20)
(0.2353941 0.3736879 -6.410634e-19)
(-0.4244938 1.180489 0)
(-0.2398179 2.028661 -9.741521e-19)
(0.5300828 2.48285 8.553172e-19)
(1.561269 2.141057 -4.131595e-20)
(1.505527 0.6448872 3.72801e-19)
(0.1892708 -3.631672 -1.35315e-20)
(-0.301847 -4.047914 4.568841e-21)
(-0.5410325 -3.352659 1.794201e-19)
(-0.7048805 -2.487568 -1.501136e-21)
(-0.6851209 -1.142734 9.935646e-22)
(-1.027737 0.2072807 3.985691e-21)
(-1.025369 1.789152 1.427008e-19)
(-1.224644 3.097161 3.793505e-19)
(-1.305512 4.339808 -4.933709e-19)
(-1.425644 5.284449 1.197899e-18)
(-1.48853 5.826028 0)
(-1.470129 5.915913 1.385782e-18)
(-1.372396 5.587705 1.536573e-18)
(-1.210982 4.955792 2.785951e-18)
(-1.022249 4.197407 0)
(-0.812127 3.409008 0)
(-0.7062825 2.488016 -2.463811e-18)
(-0.6215487 1.554939 -7.496132e-20)
(-0.2043573 1.411611 -2.223978e-18)
(1.262519 -0.01722932 -2.073416e-18)
(1.561102 -0.9851592 -1.997058e-18)
(1.382741 -1.353017 1.885665e-18)
(1.703556 -1.370471 -1.593631e-18)
(2.050409 -1.782817 1.411167e-18)
(1.584585 -2.225897 -1.40005e-18)
(0.9822984 -2.205882 0)
(1.401373 -2.118399 0)
(1.983745 -2.022058 -2.30276e-18)
(2.07357 -2.010788 0)
(1.250008 -2.018225 -1.154395e-19)
(-0.4225504 -1.94807 -5.143761e-20)
(-1.953336 -0.5284446 -5.909466e-18)
(-2.08883 1.16145 -2.514548e-19)
(-0.4060482 3.720056 2.082522e-19)
(2.817902 3.418453 -2.582834e-18)
(10.2994 -1.179051 1.116098e-19)
(14.15528 -3.527968 1.271815e-18)
(15.03423 -3.855084 -5.671617e-20)
(16.25105 -4.044666 2.117029e-18)
(17.72913 -3.777086 -6.76003e-20)
(18.91762 -2.587922 5.403517e-18)
(19.06754 -0.7717672 3.827971e-20)
(18.1751 0.3162338 -6.338636e-21)
(17.48656 0.4549865 -5.308886e-19)
(17.55916 0.712771 -4.345318e-21)
(17.6767 1.110351 -5.830292e-19)
(17.76646 1.635458 -3.739342e-20)
(17.77699 2.246976 -1.16006e-18)
(17.68404 2.88292 2.387173e-18)
(17.51676 3.559087 -2.369322e-18)
(17.29 4.199699 4.540602e-18)
(16.98641 4.845399 2.471014e-18)
(16.6191 5.441078 0)
(16.19127 6.016681 0)
(15.72618 6.571784 4.188019e-18)
(15.22263 7.063556 3.989162e-18)
(14.66491 7.516442 0)
(14.07071 7.904522 -1.052089e-19)
(13.43359 8.251022 3.403958e-18)
(12.76613 8.547014 3.034412e-18)
(12.07697 8.774961 2.67389e-18)
(11.37343 8.953216 -7.135203e-20)
(10.66182 9.08201 -2.047803e-18)
(9.935547 9.143106 5.255642e-20)
(9.202121 9.132177 -5.307022e-20)
(8.473123 9.068362 -1.285006e-18)
(7.753724 8.956386 9.389866e-19)
(7.040978 8.78821 0)
(6.353356 8.546148 0)
(5.674503 8.259767 -2.155903e-20)
(5.034006 7.904215 -9.272542e-21)
(4.407036 7.501086 -8.898941e-21)
(3.830768 7.042481 -8.472471e-19)
(3.285595 6.542137 -2.264355e-18)
(2.764862 6.011198 1.31538e-18)
(2.296878 5.436038 -1.616999e-18)
(1.88206 4.820682 -9.114446e-19)
(1.523029 4.168288 -3.136099e-20)
(1.22095 3.487332 0)
(0.9408124 2.805925 -1.183274e-18)
(0.7607477 2.088305 -3.992526e-20)
(0.5987155 1.353786 -6.872303e-19)
(0.4957254 0.6410441 3.679802e-19)
(0.4697396 -0.07468921 1.678456e-23)
(0.5728825 -0.807201 -3.663808e-19)
(0.6543724 -1.593017 3.146753e-20)
(0.7942481 -2.35384 -6.668523e-19)
(0.9976753 -3.074948 1.227724e-18)
(1.260806 -3.76931 -1.189064e-18)
(1.582461 -4.439758 2.609831e-21)
(1.954683 -5.077977 9.932154e-19)
(2.395155 -5.681767 -1.643825e-18)
(2.855887 -6.263497 1.438053e-18)
(3.363154 -6.794708 1.120958e-18)
(3.933911 -7.276873 8.164519e-21)
(4.536333 -7.721767 8.604487e-21)
(5.156557 -8.116708 -3.484284e-19)
(5.813658 -8.463963 1.072151e-19)
(6.504658 -8.761772 1.147156e-20)
(7.205512 -8.99643 4.841992e-19)
(7.919729 -9.163827 -1.651047e-18)
(8.647287 -9.2794 1.108926e-18)
(9.389993 -9.326552 -5.634696e-20)
(10.13154 -9.317611 -1.720165e-18)
(10.86479 -9.26119 4.034493e-18)
(11.59226 -9.135787 7.531693e-20)
(12.29564 -8.95043 2.500005e-18)
(12.97869 -8.697167 -2.924432e-18)
(13.64514 -8.385441 9.069794e-20)
(14.27778 -8.034941 -3.32449e-18)
(14.8795 -7.620715 -3.408552e-18)
(15.43753 -7.164292 1.171507e-19)
(15.95278 -6.652856 -3.904975e-18)
(16.42546 -6.099415 4.033287e-18)
(16.84493 -5.520256 0)
(17.20274 -4.902687 0)
(17.495 -4.253153 2.167124e-18)
(17.72281 -3.590136 2.14856e-18)
(17.88388 -2.920562 0)
(17.96082 -2.257301 1.127777e-18)
(17.94301 -1.613093 1.014376e-18)
(17.82389 -1.021128 -5.144814e-19)
(17.62815 -0.5363096 1.157271e-19)