/*--------------------------------*- C++ -*----------------------------------*\
| =========                 |                                                 |
| \\      /  F ield         | OpenFOAM: The Open Source CFD Toolbox           |
|  \\    /   O peration     | Version:  2406                                  |
|   \\  /    A nd           | Website:  www.openfoam.com                      |
|    \\/     M anipulation  |                                                 |
\*---------------------------------------------------------------------------*/
FoamFile
{
    version     2.0;
    format      ascii;
    arch        "LSB;label=32;scalar=64";
    class       surfaceScalarField;
    location    "0.56";
    object      phi;
}
// * * * * * * * * * * * * * * * * * * * * * * * * * * * * * * * * * * * * * //

dimensions      [0 3 -1 0 0 0 0];

oriented        oriented;

internalField   nonuniform List<scalar> 
6741
(
4.100041e-10
9.035973e-10
-1.313601e-09
-1.247217e-09
-3.865259e-11
1.28587e-09
1.750218e-09
-1.763009e-09
1.279088e-11
5.235125e-10
6.753918e-10
-1.198904e-09
1.537542e-09
-8.241617e-10
-7.133803e-10
1.990092e-09
-8.414313e-10
-1.148661e-09
-1.226015e-09
-1.900294e-10
1.416045e-09
-9.399761e-10
1.837334e-09
-8.973576e-10
1.629622e-11
2.100991e-09
-2.117287e-09
-1.533201e-09
3.649774e-10
1.168224e-09
-1.088186e-10
1.876355e-09
-1.767537e-09
1.383117e-09
-2.016051e-09
6.329341e-10
1.301737e-09
-1.837878e-09
5.361416e-10
1.862699e-09
-1.62445e-09
-2.382488e-10
-1.567095e-10
1.460399e-09
-1.30369e-09
3.487945e-09
-2.150092e-09
-1.337853e-09
-8.205462e-10
-6.345809e-10
1.455127e-09
1.282912e-09
-1.522629e-09
2.397174e-10
1.877799e-09
-1.74978e-09
6.740148e-10
-1.553428e-09
8.794137e-10
-2.36355e-09
1.242775e-09
1.120776e-09
3.93937e-10
-1.339914e-09
9.45977e-10
-1.733248e-09
1.496008e-09
2.372397e-10
3.601314e-10
1.547668e-09
-1.907799e-09
2.939661e-10
1.469917e-09
-1.763883e-09
1.662027e-09
-1.468312e-09
-1.937148e-10
1.813339e-09
-1.074396e-09
-7.389432e-10
-2.067664e-09
1.181654e-09
8.860101e-10
-1.15509e-09
1.287748e-09
-1.32658e-10
-5.004476e-09
6.822979e-10
4.322178e-09
-2.159151e-09
9.484435e-10
1.210708e-09
-1.581553e-09
1.192556e-09
3.889975e-10
1.714138e-09
-9.235499e-10
-7.905885e-10
2.868216e-09
-3.154704e-10
-2.552746e-09
4.273677e-09
1.98122e-09
-6.254898e-09
-1.309702e-09
1.601166e-09
-2.91464e-10
-1.514661e-09
-2.296286e-10
1.744289e-09
4.814461e-09
2.336712e-09
-7.151173e-09
1.771783e-09
-6.42853e-10
-1.12893e-09
-1.506221e-09
1.920887e-09
-4.146659e-10
1.415097e-09
7.839422e-10
-2.199039e-09
-8.941788e-10
-1.243588e-09
2.137767e-09
1.469329e-09
-2.435256e-10
-1.225803e-09
9.951873e-10
-1.498064e-09
5.028763e-10
-1.774125e-09
1.036805e-09
7.373201e-10
-1.197075e-09
4.266501e-10
7.704247e-10
-7.659108e-10
-1.053568e-09
1.819478e-09
-2.789178e-10
-1.530295e-09
1.809212e-09
-5.868855e-10
-1.375315e-09
1.9622e-09
6.390549e-10
1.191029e-09
-1.830084e-09
-1.488239e-09
1.593779e-09
-1.055407e-10
-1.279903e-09
4.386965e-10
8.412066e-10
1.388414e-09
-1.950628e-10
-1.193352e-09
1.928513e-09
-4.1604e-10
-1.512473e-09
-1.314828e-10
1.233511e-09
-1.102028e-09
4.391419e-10
1.343703e-09
-1.782845e-09
-1.617499e-09
1.431703e-09
1.857957e-10
-3.181019e-10
-1.578457e-09
1.896559e-09
-1.057568e-09
1.738619e-09
-6.810513e-10
5.658556e-10
-1.74107e-09
1.175215e-09
-7.609893e-10
-4.866425e-10
1.247632e-09
-1.489201e-09
1.173509e-09
3.156914e-10
-1.437327e-09
1.558461e-09
-1.211342e-10
3.539694e-10
1.473806e-09
-1.827775e-09
-2.401206e-09
1.146428e-09
1.254778e-09
1.552055e-09
-1.272172e-09
-2.798831e-10
-1.750811e-09
1.441337e-09
3.094738e-10
6.049998e-10
9.698219e-10
-1.574822e-09
6.791862e-09
-7.275484e-09
4.83622e-10
-2.034294e-09
4.599039e-10
1.57439e-09
5.626968e-10
-2.096068e-09
1.533371e-09
1.31949e-09
-1.588471e-09
2.689802e-10
1.51284e-09
-2.383061e-10
-1.274534e-09
1.367233e-09
-1.794552e-09
4.273191e-10
5.131894e-09
1.063918e-09
-6.195813e-09
-1.297007e-09
-5.676121e-11
1.353768e-09
2.22955e-09
-8.629997e-10
-1.36655e-09
1.598197e-09
-1.291139e-10
-1.469083e-09
-1.444521e-09
-3.159269e-10
1.760447e-09
1.923529e-09
-2.163882e-09
2.403527e-10
5.088978e-10
1.232276e-09
-1.741174e-09
1.028287e-09
-1.134945e-09
1.066577e-10
-7.82232e-10
-1.279623e-10
-1.539326e-09
-3.396093e-10
1.878935e-09
-1.605863e-09
1.170674e-09
4.351887e-10
-6.631009e-10
2.266957e-09
-1.603856e-09
9.244893e-10
-1.699606e-09
7.751165e-10
5.047581e-10
2.564594e-09
-3.069352e-09
-6.705836e-10
-1.082963e-09
1.753546e-09
8.027029e-10
-1.505636e-09
7.029328e-10
1.734841e-10
-1.444751e-09
1.271266e-09
1.260887e-09
3.320223e-10
-1.592909e-09
-3.077346e-10
2.005703e-09
-1.697969e-09
4.705161e-11
-1.79884e-09
1.751789e-09
-9.273461e-10
1.591724e-09
-6.64378e-10
-3.523544e-11
-2.923522e-09
2.958758e-09
8.203222e-10
-1.956031e-09
1.135709e-09
-1.021933e-10
1.227721e-09
-1.125528e-09
-1.183883e-09
-1.319162e-11
-6.479869e-09
4.153695e-09
2.326174e-09
1.130342e-09
-6.068296e-10
1.469053e-09
-1.880853e-09
4.117994e-10
-3.126248e-09
-8.946234e-11
3.215711e-09
-2.3567e-09
-3.084582e-09
5.441282e-09
3.81386e-10
-1.920712e-09
2.12335e-10
1.418568e-09
-1.630903e-09
-1.998001e-09
1.382818e-09
6.151828e-10
-2.216399e-09
6.679241e-10
-4.396166e-10
2.059307e-09
-1.619691e-09
1.177231e-09
-1.608208e-09
4.309767e-10
9.929268e-10
-7.59239e-10
-2.336878e-10
-1.955229e-09
1.134683e-09
-7.678534e-10
-7.115414e-10
1.479395e-09
-1.077152e-09
1.62074e-09
-5.435887e-10
1.107722e-09
1.148961e-11
-1.119211e-09
1.860828e-09
-3.479882e-10
-1.405821e-09
1.457591e-10
1.260062e-09
-1.952841e-09
9.51868e-10
1.000973e-09
-1.606904e-09
-5.59805e-11
1.662884e-09
-2.519429e-09
2.658369e-09
-1.389399e-10
-1.083317e-09
-1.204526e-10
1.20377e-09
3.403922e-09
1.049649e-09
-4.45357e-09
1.812612e-09
-1.441669e-09
-3.709429e-10
-1.131961e-09
-6.421642e-10
1.025998e-09
-1.434848e-09
4.088505e-10
-1.002378e-09
-6.66649e-10
1.669027e-09
3.030985e-09
-3.184673e-09
1.53688e-10
-3.143264e-09
5.116194e-10
2.631644e-09
-1.759796e-09
1.678784e-09
8.101189e-11
2.135238e-09
-3.753809e-10
-1.759857e-09
-6.045391e-11
-1.125081e-09
1.185535e-09
-1.480823e-09
-5.787558e-10
2.059579e-09
4.433982e-10
1.076965e-09
-1.520363e-09
2.468118e-09
-2.203954e-09
-2.641644e-10
-1.549143e-09
8.728238e-10
6.763195e-10
1.57431e-09
-2.394878e-09
8.20568e-10
-1.757602e-09
1.359328e-09
3.982744e-10
-1.644561e-09
1.301599e-09
3.42962e-10
-8.712821e-10
-1.196382e-09
3.558199e-11
-2.763647e-09
2.728065e-09
3.511504e-09
-5.868204e-09
6.702709e-11
-1.770805e-09
1.703778e-09
9.755252e-10
-1.672253e-09
6.967281e-10
-1.127698e-09
-4.05503e-10
-1.220533e-09
2.341131e-09
-1.120598e-09
-1.767561e-09
2.333417e-09
-6.566047e-10
-1.034507e-09
1.691112e-09
1.189709e-09
-1.142763e-09
-4.694646e-11
-1.380834e-09
1.278641e-09
-7.460376e-10
-4.786273e-10
1.224665e-09
1.225199e-09
-1.041914e-09
-1.832853e-10
-2.680949e-09
1.166288e-09
-1.999985e-09
-1.079032e-10
2.107888e-09
4.22163e-09
-1.184045e-09
-3.037585e-09
1.034615e-09
8.09606e-10
-1.844221e-09
-3.329322e-11
-1.004804e-09
1.038097e-09
1.953027e-09
-1.209038e-09
-7.439891e-10
1.513364e-09
-1.063313e-10
-1.407033e-09
5.231012e-10
-1.960902e-09
1.437801e-09
1.783252e-09
-2.512253e-09
7.290013e-10
2.182495e-09
-1.814061e-09
-3.684334e-10
-1.928535e-09
6.742996e-09
1.99557e-09
-1.347411e-10
-7.642798e-10
1.545717e-09
-7.814369e-10
9.645358e-10
-1.130497e-09
-3.22363e-09
2.483822e-10
2.975248e-09
3.212939e-10
1.344237e-09
-1.665531e-09
1.576545e-09
5.566135e-10
-2.133159e-09
1.186542e-09
3.889947e-10
-1.575537e-09
8.653681e-10
5.964146e-10
-1.461783e-09
-1.940893e-09
5.813609e-10
1.359532e-09
3.029392e-09
-2.045674e-09
-9.837174e-10
7.747354e-09
-3.473676e-09
-8.64013e-10
6.560872e-10
1.504925e-09
-2.161012e-09
-4.227657e-10
-8.77919e-10
1.300685e-09
-1.913377e-09
1.659114e-09
2.542624e-10
-8.477715e-10
1.868472e-09
-1.0207e-09
-1.072901e-09
1.365061e-09
-2.921599e-10
-7.101516e-10
-1.279354e-09
1.989506e-09
-3.359494e-10
-1.349325e-09
1.685274e-09
2.058109e-09
-5.591867e-10
-1.498922e-09
-5.117814e-10
-8.1184e-10
1.323621e-09
-3.445692e-09
3.255216e-09
1.904765e-10
-1.006371e-09
1.874518e-09
-8.681466e-10
-2.528123e-10
-7.033592e-10
9.561715e-10
1.203305e-09
6.093074e-10
1.776157e-09
-1.12007e-09
-3.524315e-10
-1.05942e-09
1.411851e-09
1.672937e-09
-7.484477e-10
3.210233e-10
-1.801847e-09
2.216341e-13
-1.155311e-09
6.887038e-10
-2.421468e-09
1.732765e-09
-1.449767e-09
-4.348064e-10
-1.259439e-09
-6.027298e-10
1.862169e-09
-1.602971e-09
5.284456e-10
1.074525e-09
-5.085231e-10
1.230066e-09
-7.215431e-10
-1.564811e-09
1.002253e-09
5.625581e-10
-1.126844e-09
-4.314098e-10
1.558253e-09
5.347423e-10
-2.013567e-09
1.478824e-09
8.412188e-10
5.892141e-10
-1.430433e-09
2.199813e-10
-1.709182e-09
1.727333e-09
-5.444234e-10
-1.182909e-09
-1.010633e-09
1.915965e-09
-9.053316e-10
5.125859e-09
-2.184533e-09
-2.941325e-09
-1.905874e-09
1.598988e-09
3.068855e-10
-7.871472e-10
1.575658e-09
-7.885108e-10
1.571424e-09
-1.920736e-09
3.493124e-10
1.670687e-09
-2.869923e-10
-1.383694e-09
-3.833732e-10
1.143531e-09
-7.601573e-10
-1.226226e-09
1.550825e-09
-3.245989e-10
-5.070546e-09
7.746136e-09
-2.67559e-09
-1.945444e-11
1.764886e-09
-1.745432e-09
4.808605e-10
-1.476027e-09
9.951666e-10
1.060724e-09
7.467416e-10
-1.807465e-09
-8.533196e-10
-1.362293e-09
2.215613e-09
1.646643e-10
-1.601992e-09
2.195467e-09
-4.024522e-11
-2.155222e-09
-1.461932e-10
-1.46071e-09
1.15255e-09
4.967775e-10
-1.649327e-09
-1.76326e-09
1.612517e-09
1.507424e-10
-1.816935e-09
-5.402946e-10
2.357229e-09
-1.409368e-10
1.929268e-09
-1.788331e-09
2.16182e-09
-4.399323e-10
-1.721888e-09
-1.516508e-09
1.571242e-09
-5.473412e-11
-1.67212e-09
6.382272e-10
1.033893e-09
2.151168e-09
-5.910479e-10
-1.56012e-09
-1.064064e-09
-3.798256e-10
1.44389e-09
-1.436751e-09
-1.689067e-10
1.605658e-09
3.466614e-10
-1.413941e-09
1.06728e-09
1.590438e-09
-1.510114e-09
-8.032304e-11
1.447097e-10
1.413752e-09
2.121327e-09
-2.636081e-09
5.147537e-10
9.754267e-10
-1.703482e-09
7.280556e-10
1.778462e-09
-1.897059e-09
1.185968e-10
-7.791783e-10
1.743541e-09
-9.643629e-10
1.399198e-09
-6.894455e-10
-7.09753e-10
-1.307741e-09
1.547335e-09
-2.395945e-10
1.135894e-09
-6.202654e-11
-1.073867e-09
6.409148e-10
1.750095e-09
-2.391009e-09
1.294255e-09
-1.672702e-09
3.784479e-10
6.48568e-11
-1.38702e-09
1.322163e-09
3.410261e-09
-2.747297e-09
-6.629648e-10
1.374007e-09
3.204698e-11
-1.406054e-09
8.702791e-10
6.67263e-10
1.937794e-09
-9.899501e-09
7.961707e-09
-8.368862e-10
-2.486871e-09
3.323757e-09
2.912192e-10
-8.282989e-09
7.99177e-09
1.769833e-09
-1.717989e-09
-5.184382e-11
5.358001e-10
5.880483e-09
-6.416283e-09
2.08668e-09
-2.088286e-09
1.605894e-12
-1.520174e-09
-6.296207e-11
1.583136e-09
7.653492e-10
-1.241036e-09
4.756871e-10
1.042255e-09
-3.595973e-10
-6.826582e-10
-1.372323e-09
1.43718e-09
1.371765e-09
-5.674444e-10
-8.043211e-10
1.287158e-09
4.431421e-10
-1.730301e-09
-9.051036e-10
1.746322e-09
1.607797e-09
-9.028956e-10
-7.049009e-10
1.647722e-09
-7.173222e-10
-9.303994e-10
1.953636e-09
-1.113195e-09
-8.404407e-10
1.494247e-09
-1.039759e-09
-4.544883e-10
1.441964e-09
-1.409583e-09
-3.238194e-11
1.814619e-10
-1.188378e-09
1.006916e-09
7.649115e-10
2.280153e-10
-1.419252e-10
-1.591323e-09
-4.850651e-10
-8.130453e-09
8.615518e-09
-1.581012e-09
2.284544e-09
-7.035323e-10
1.607811e-09
-1.300946e-09
-3.068649e-10
1.115032e-09
5.020701e-10
-1.617102e-09
2.000396e-09
-2.501782e-10
-3.020445e-10
-2.023099e-09
2.325144e-09
7.141001e-10
5.900788e-10
-1.304179e-09
6.822057e-10
1.189047e-09
-1.871253e-09
-1.499357e-09
-1.224239e-10
1.621781e-09
-1.012654e-09
9.547876e-09
-8.535222e-09
-1.094649e-10
1.722827e-09
-1.613362e-09
-2.952567e-09
2.240623e-09
7.119438e-10
-8.643655e-10
2.012013e-09
-1.147647e-09
1.490156e-09
-9.192809e-10
-5.708746e-10
1.245406e-09
-1.509915e-09
2.645094e-10
1.383731e-09
-1.19185e-09
-1.918811e-10
-1.419223e-09
6.487258e-10
7.704972e-10
-1.920796e-09
-1.452229e-09
3.373025e-09
1.346743e-09
1.117866e-10
-1.45853e-09
-1.49391e-09
-2.6935e-10
6.736957e-10
-2.016033e-09
1.342337e-09
8.967657e-10
5.614768e-11
-9.529134e-10
3.900786e-09
-2.785231e-09
-1.115555e-09
-3.414638e-10
1.677845e-09
-1.336381e-09
-8.871898e-10
2.058095e-09
-1.170905e-09
2.102976e-09
-3.659585e-10
1.56674e-09
-1.200781e-09
1.997346e-10
-1.265406e-09
1.065672e-09
1.827863e-09
-2.381566e-10
-1.589707e-09
1.306873e-09
5.721112e-10
-1.878984e-09
1.039484e-09
5.125711e-10
-8.63406e-10
1.838931e-09
7.524924e-11
1.772567e-09
-1.847816e-09
1.877469e-09
-6.958154e-10
-4.164677e-10
-1.673711e-09
2.090179e-09
4.592793e-10
-1.809841e-09
1.350562e-09
-2.362374e-09
6.137514e-10
1.748622e-09
-4.064626e-10
1.660122e-09
-1.25366e-09
-9.431613e-10
1.113281e-09
-1.701196e-10
1.299696e-10
1.046451e-09
-1.17642e-09
-1.254176e-09
6.879393e-10
5.662365e-10
2.260736e-09
-4.499087e-09
2.238351e-09
-1.559681e-09
1.725037e-09
-1.65356e-10
4.307343e-10
-1.612337e-09
1.181602e-09
-1.012754e-09
1.911644e-09
-8.9889e-10
-4.796125e-10
-1.137867e-09
1.61748e-09
6.003042e-10
-1.704736e-09
1.104432e-09
-1.918919e-09
1.355336e-09
5.635831e-10
1.972773e-09
-1.053341e-09
-9.194313e-10
-4.693284e-10
-9.122243e-10
1.381553e-09
-5.830689e-11
-1.408317e-09
1.466624e-09
-1.678514e-09
-1.285177e-09
2.963691e-09
5.847895e-10
-1.512136e-09
1.146063e-09
8.280361e-10
-1.974099e-09
-2.467922e-09
-6.313399e-10
3.099262e-09
9.118712e-10
5.823759e-10
-6.524307e-10
-7.700842e-10
1.422515e-09
-9.023379e-10
-8.935166e-10
1.795855e-09
1.058599e-09
7.525945e-10
-1.811193e-09
-1.068283e-09
-4.839708e-10
-1.310343e-09
1.794314e-09
-1.149713e-09
1.804699e-09
-6.549856e-10
-1.573471e-09
7.021884e-10
-3.896052e-10
2.345698e-09
-1.956093e-09
1.696105e-09
-1.016667e-09
-6.794381e-10
2.407606e-09
-5.795467e-10
-1.828059e-09
1.024744e-10
-1.569174e-09
1.466699e-09
1.036229e-09
-2.086895e-09
1.050666e-09
8.764823e-10
5.248519e-10
-1.401334e-09
5.367428e-10
-2.163875e-09
1.627132e-09
-1.473414e-09
1.749671e-09
-2.762572e-10
1.555247e-09
-3.363118e-10
-1.218936e-09
1.344396e-09
-1.10813e-09
-2.362655e-10
1.233718e-09
9.122731e-11
-1.324945e-09
-1.169921e-09
-5.387727e-10
1.708694e-09
-1.05004e-09
-4.840738e-10
1.534114e-09
-1.562258e-09
-8.001159e-10
6.735389e-10
-1.912419e-09
1.238881e-09
2.631458e-10
-1.787169e-09
1.524023e-09
-1.496818e-09
5.200868e-10
9.767315e-10
8.020869e-10
-1.649858e-09
2.333647e-09
-2.116842e-09
-2.168053e-10
-2.139004e-10
-1.402092e-09
1.615992e-09
1.817071e-09
-1.546641e-09
-2.704302e-10
-3.336378e-10
-1.475834e-09
1.809472e-09
-2.111365e-10
-3.178089e-09
3.389225e-09
2.028308e-09
-1.339604e-09
-1.297355e-09
3.954116e-09
-2.656761e-09
-4.31367e-09
1.040239e-09
3.273431e-09
-1.718758e-09
1.281773e-09
4.369853e-10
-1.49313e-09
1.190224e-09
3.029058e-10
9.642428e-10
-1.472766e-09
1.595549e-09
-2.071348e-10
7.292763e-10
9.940545e-10
-1.723331e-09
-1.725462e-09
1.383998e-09
1.092704e-09
-2.313237e-09
1.242252e-09
-7.399973e-10
-5.022544e-10
7.023191e-10
-1.110523e-09
4.082042e-10
-2.193695e-09
1.409702e-09
7.839935e-10
-2.943592e-10
1.070512e-09
-7.761527e-10
-2.155476e-09
5.74464e-10
-2.480164e-11
1.355876e-09
-1.331074e-09
6.787081e-09
-4.849287e-09
-5.454914e-09
-8.35599e-10
6.290513e-09
1.057695e-09
-8.364021e-10
-2.212931e-10
-5.988302e-11
1.167605e-09
-1.775896e-09
2.232552e-09
-4.56656e-10
8.580072e-10
6.585677e-10
-1.516575e-09
-3.010107e-09
1.752118e-09
1.257989e-09
2.820649e-10
-1.779764e-09
1.497699e-09
6.917525e-10
8.231929e-10
-1.514945e-09
-1.618187e-09
1.0833e-10
1.509857e-09
-1.168577e-10
-1.458691e-09
1.575549e-09
1.147865e-10
-1.704129e-09
1.589343e-09
1.751105e-09
-1.32037e-09
3.531861e-11
-1.543403e-09
1.508084e-09
9.736248e-10
-2.237918e-09
1.264293e-09
4.575464e-10
-1.569015e-09
1.111468e-09
-9.582933e-10
2.008253e-09
-1.04996e-09
-1.891851e-09
1.943864e-11
1.872412e-09
1.901463e-09
2.810318e-10
1.253386e-09
1.160985e-10
-1.369484e-09
1.308105e-09
-6.081356e-10
-6.999696e-10
-7.952874e-10
-4.58169e-10
1.253456e-09
1.232565e-09
-1.971766e-09
7.392012e-10
3.655989e-11
2.922722e-09
-2.959282e-09
1.924644e-09
-4.000441e-10
-1.5246e-09
1.202046e-09
-2.071073e-09
8.690272e-10
1.57715e-09
5.174232e-10
-2.094573e-09
2.086501e-09
-1.312824e-09
-7.736776e-10
1.267906e-09
3.103357e-10
-1.578242e-09
-6.2421e-10
1.773334e-09
-1.149124e-09
-1.383665e-09
9.542865e-10
4.293782e-10
-8.191734e-10
1.855978e-09
2.065916e-09
-1.031301e-09
-1.451934e-09
9.759497e-10
4.759841e-10
-8.419886e-11
-1.222747e-09
1.306946e-09
-1.404496e-09
1.292232e-09
1.122647e-10
7.042134e-10
-2.156746e-09
1.452532e-09
-2.539229e-11
1.695234e-09
-1.669842e-09
1.284002e-09
-1.157958e-09
-1.260443e-10
1.316768e-10
2.030143e-09
1.978334e-09
-1.481312e-09
-4.970222e-10
-2.855954e-09
4.634089e-09
-1.778135e-09
-5.061188e-10
-1.596485e-09
2.102604e-09
2.345741e-09
-1.101072e-09
-1.244669e-09
9.870646e-10
-1.67303e-09
6.859658e-10
1.803854e-09
-9.396153e-10
-8.642391e-10
-1.886739e-09
2.056869e-09
-1.701301e-10
-9.981089e-10
1.567273e-09
4.658443e-10
-2.033118e-09
1.172726e-09
6.634291e-10
-1.836155e-09
-1.461972e-09
1.612832e-09
-1.508601e-10
6.944973e-10
-1.009047e-09
3.1455e-10
-1.805692e-09
2.771265e-10
1.528565e-09
7.292807e-10
-1.849516e-09
1.120235e-09
4.231037e-09
-1.832583e-09
-2.398455e-09
-1.678495e-09
2.020599e-09
-3.421043e-10
2.072967e-09
-1.634209e-09
-4.387575e-10
-8.872873e-11
1.395602e-09
2.14997e-09
-1.641072e-09
1.795954e-09
-3.249191e-10
-1.471035e-09
2.017507e-09
-1.364018e-09
-6.534886e-10
2.770113e-11
1.651254e-09
-1.678955e-09
3.897358e-10
1.460176e-09
-1.849912e-09
1.401495e-09
-9.10854e-10
-4.906407e-10
-2.621424e-09
-2.383051e-09
-3.380219e-10
1.378605e-09
-1.040584e-09
-2.746797e-10
-1.782623e-09
2.057302e-09
-2.114415e-09
1.144302e-10
4.310297e-10
-1.919087e-09
1.488058e-09
-1.01591e-09
-5.2416e-10
1.54007e-09
-1.169231e-09
1.341074e-09
-1.718426e-10
1.831097e-09
-1.537981e-09
-2.931159e-10
1.406509e-09
-1.839604e-09
4.330957e-10
1.42846e-09
-1.03289e-09
-3.955694e-10
-1.506336e-09
1.490437e-09
1.589832e-11
7.946475e-10
-2.384948e-09
1.590301e-09
1.639839e-09
-1.70161e-09
6.177086e-11
-8.888402e-10
1.500962e-09
-6.121222e-10
-1.336233e-09
1.523494e-10
1.533288e-09
-5.297023e-10
-1.003585e-09
3.92743e-11
1.315284e-09
-1.354559e-09
-2.665e-09
1.14536e-09
1.51964e-09
-2.714943e-10
1.563586e-09
-1.292092e-09
-5.465463e-10
-1.198683e-09
2.771059e-09
-1.572376e-09
-2.409893e-10
-1.003327e-09
1.244317e-09
1.998523e-09
-6.382452e-10
-1.360277e-09
1.185639e-09
-8.628415e-10
-3.227971e-10
-1.79395e-09
1.25938e-09
5.345703e-10
2.63417e-10
-2.412357e-09
2.14894e-09
-4.005174e-09
2.318935e-09
1.686239e-09
-4.830939e-09
1.519217e-09
3.311723e-09
3.042653e-09
-3.879539e-09
1.193554e-09
-2.09791e-09
9.043557e-10
-6.058847e-10
1.799439e-09
1.886585e-09
-8.871763e-10
-9.994086e-10
-2.188325e-09
1.335006e-09
1.331185e-09
-8.097637e-10
-5.214217e-10
8.595626e-10
-2.450319e-09
1.590757e-09
1.647895e-09
-1.293926e-09
-1.517892e-09
1.64378e-09
1.534981e-09
-9.301677e-11
-1.585887e-09
1.723497e-09
-1.376094e-10
-1.194101e-09
-4.233979e-10
4.159592e-10
-1.502121e-09
1.086162e-09
-1.797038e-09
1.435765e-09
3.61273e-10
2.091058e-09
-3.553606e-10
-1.735697e-09
-1.904831e-09
6.447206e-10
1.26011e-09
1.322749e-09
-5.934728e-10
1.338383e-09
4.16464e-10
-1.754847e-09
1.853646e-09
1.35736e-11
-1.867219e-09
-4.03029e-09
9.090124e-10
3.121277e-09
-1.296043e-09
-2.759852e-10
1.572028e-09
-6.451947e-09
1.725938e-09
4.726009e-09
-1.905379e-09
-2.057607e-10
2.111139e-09
2.950221e-10
-1.774826e-09
1.479804e-09
3.416879e-09
7.1066e-11
-2.423595e-09
1.74514e-09
6.784551e-10
1.194441e-09
-5.960047e-10
-5.984367e-10
-6.078402e-11
-1.896896e-09
1.95768e-09
1.425776e-09
3.645851e-10
-1.790361e-09
-1.673541e-09
1.128222e-09
5.453185e-10
1.218084e-10
-1.360114e-09
1.238306e-09
-2.013245e-09
6.78096e-10
1.335149e-09
4.394681e-10
-4.753138e-09
1.408157e-09
-1.008309e-09
-3.998478e-10
9.262134e-10
5.136182e-10
-1.439832e-09
9.110015e-10
-1.891953e-09
6.174815e-10
1.274472e-09
-4.544884e-09
6.370969e-10
3.907787e-09
1.552817e-09
2.142215e-10
-1.767038e-09
-2.186491e-10
1.739331e-09
-1.520682e-09
-8.096574e-10
1.203594e-09
6.681724e-10
1.172631e-09
-1.840804e-09
8.184474e-10
-1.604353e-09
7.859061e-10
-1.64744e-09
7.074634e-10
-1.863238e-09
1.050346e-09
8.128918e-10
-1.31387e-09
1.034952e-09
-8.933539e-10
9.274675e-10
-3.41136e-11
-1.224156e-09
1.999094e-09
-7.749378e-10
1.068498e-09
1.272633e-09
2.265816e-09
1.06261e-09
-3.328426e-09
-5.843911e-10
-1.505356e-09
2.089747e-09
-1.92286e-09
1.752525e-09
1.703351e-10
-6.107755e-10
-1.061478e-09
-7.85768e-10
3.152623e-09
-2.366855e-09
1.480178e-09
-2.47902e-10
1.267775e-09
-1.74751e-09
4.797351e-10
-8.905544e-10
1.709218e-09
-8.186632e-10
7.58603e-10
-1.94493e-09
1.186327e-09
-3.013992e-09
1.733133e-09
1.280858e-09
-1.973945e-10
-1.006142e-09
1.203537e-09
-9.479166e-11
1.176731e-09
-1.08194e-09
-4.779327e-09
1.057781e-09
-2.026731e-09
9.689494e-10
-9.383727e-10
1.683263e-09
-7.4489e-10
-2.825919e-11
1.450731e-09
-1.422472e-09
9.459438e-10
6.618528e-10
-1.748698e-09
9.744197e-10
7.742779e-10
1.643399e-09
-2.553302e-10
-1.388069e-09
6.117992e-10
5.447757e-10
-1.156575e-09
1.78768e-09
-7.099455e-10
-1.077734e-09
2.309211e-09
7.681345e-10
-3.077345e-09
1.761763e-09
-2.924343e-10
9.359585e-10
-2.336394e-10
-1.150422e-09
3.894332e-10
1.813214e-10
1.699179e-09
-1.8805e-09
-9.289195e-10
-7.997314e-10
1.728651e-09
1.054512e-09
-1.497449e-09
4.429373e-10
-8.469799e-10
1.699191e-09
-8.522112e-10
6.597567e-10
-1.36664e-09
7.068833e-10
2.659453e-10
1.184375e-09
-1.45032e-09
-1.548745e-09
7.391029e-10
8.096426e-10
9.276757e-10
-1.774324e-09
8.466484e-10
1.708515e-09
-5.50499e-10
-1.158016e-09
-8.227756e-10
1.824334e-09
-1.001558e-09
-1.323557e-09
2.235428e-09
-1.105382e-09
1.404736e-09
-2.993541e-10
-3.373402e-09
9.054792e-10
-1.531827e-09
1.308336e-09
2.234914e-10
-7.876497e-10
-1.502998e-09
2.290648e-09
1.05503e-09
-1.114913e-09
6.701465e-10
-1.593982e-09
9.23836e-10
1.236903e-09
7.28551e-10
-1.965454e-09
-7.903671e-10
-1.046337e-09
1.836704e-09
2.020889e-09
-6.377724e-10
-2.329349e-09
7.064743e-10
1.622875e-09
1.82384e-09
2.291343e-10
-2.052974e-09
1.939625e-09
-3.116708e-09
1.177083e-09
-2.976154e-10
-1.424176e-09
1.721791e-09
-1.08092e-09
-7.33843e-10
1.814763e-09
-7.880878e-10
-1.077118e-09
1.865206e-09
-2.017165e-09
6.126682e-10
-1.2178e-09
1.661198e-09
1.426427e-09
-8.146283e-10
6.773837e-10
-2.494318e-09
4.164801e-10
-1.295213e-09
8.951361e-10
4.000768e-10
-2.726501e-09
3.864279e-09
-1.137778e-09
4.60301e-10
1.468212e-09
1.627157e-09
-1.67443e-09
4.727253e-11
1.260054e-09
-2.54422e-10
-1.005632e-09
9.2649e-10
9.712008e-10
-1.897691e-09
1.370919e-09
3.989135e-10
1.882843e-09
-1.212696e-09
1.2493e-09
-1.294841e-09
4.554079e-11
1.39206e-09
-1.10394e-09
-2.881201e-10
1.685367e-09
-9.174793e-10
-7.678877e-10
1.12725e-09
4.970847e-11
-1.176959e-09
2.373481e-11
1.701976e-09
-1.72571e-09
9.115335e-10
-2.032132e-09
1.084669e-09
-8.316086e-10
1.353725e-09
-5.22116e-10
2.02638e-09
-1.404207e-09
-6.221733e-10
-1.508234e-09
1.545049e-09
-3.681488e-11
3.118392e-09
-5.909127e-09
2.790735e-09
-4.153173e-09
4.185784e-09
-3.261094e-11
1.295965e-09
-1.260646e-09
-1.001602e-09
-8.789027e-10
1.880505e-09
1.911294e-09
-1.263072e-09
-6.48222e-10
2.04718e-09
-3.436396e-10
-1.70354e-09
-6.848561e-10
-1.041619e-09
1.726475e-09
-1.581789e-09
-1.780075e-10
-1.132416e-10
-1.330913e-09
1.444155e-09
1.143704e-09
1.903565e-09
-3.047269e-09
4.939393e-10
-1.262697e-09
7.687574e-10
-6.960786e-10
-6.173882e-10
1.313467e-09
-9.575745e-10
-3.501326e-10
1.307707e-09
1.738375e-09
4.127931e-10
1.003636e-09
9.340756e-12
-1.012977e-09
1.608296e-09
-1.743645e-09
1.353493e-10
-9.315883e-10
1.178007e-09
-2.464184e-10
-1.311735e-09
4.066317e-10
-1.074975e-09
8.210106e-10
2.539648e-10
2.215139e-09
-7.672041e-10
-1.447935e-09
-1.997452e-09
1.072217e-09
9.252356e-10
-1.388698e-09
1.38139e-09
7.308531e-12
-6.707768e-10
1.729375e-09
-1.013968e-09
1.59648e-09
-5.825127e-10
2.319847e-10
1.556931e-09
-1.788916e-09
-7.873859e-10
-7.53717e-10
1.541103e-09
-1.476387e-09
-2.659059e-10
1.742293e-09
-1.253315e-09
2.730016e-11
-1.835318e-09
4.579075e-10
1.377411e-09
7.061804e-11
-2.114062e-09
2.043444e-09
1.71186e-09
3.164479e-10
-1.226773e-09
2.451014e-10
9.816714e-10
-3.613634e-09
2.657418e-09
9.56216e-10
-1.123709e-09
1.617648e-09
8.688689e-11
-4.117177e-09
-1.614594e-09
-3.986506e-10
8.293065e-09
-8.293065e-09
1.645645e-09
-1.43331e-09
-1.79507e-09
6.281969e-10
1.166873e-09
1.129862e-09
7.785594e-10
-1.908422e-09
-1.492947e-09
4.896868e-09
1.146583e-09
6.928885e-09
-8.075469e-09
-1.17394e-09
1.856954e-09
-6.830143e-10
6.814665e-10
-1.801488e-09
1.120021e-09
1.028951e-09
-2.636014e-10
1.025194e-09
-1.467685e-09
4.424914e-10
9.797773e-10
-1.992531e-09
2.022523e-09
-4.390904e-10
-1.583432e-09
1.30987e-09
9.121665e-10
-2.222037e-09
2.043042e-09
-2.597903e-10
9.287989e-10
1.024837e-09
4.078776e-10
1.363906e-09
-1.83476e-09
1.838807e-09
-1.724021e-09
1.874915e-09
2.436631e-10
-2.118578e-09
1.456962e-09
1.344979e-10
-1.59146e-09
-1.198666e-09
1.658967e-09
-6.154805e-10
-4.616122e-09
5.231602e-09
-1.596935e-10
-1.33837e-09
1.498063e-09
8.6386e-10
-9.586517e-10
1.546237e-09
-1.593493e-09
5.775826e-10
2.79784e-09
1.524012e-10
-2.950242e-09
1.222543e-09
-9.009299e-10
-3.216136e-10
5.809578e-10
1.026695e-09
-1.607653e-09
1.405797e-10
1.285197e-09
1.402107e-09
-1.979234e-09
5.77127e-10
-1.895109e-10
-2.53699e-09
2.755842e-10
-1.432946e-09
1.157362e-09
-1.184151e-09
1.192378e-09
-1.062408e-09
-1.018872e-09
1.015007e-09
3.865195e-12
1.92041e-09
4.067392e-10
-2.327149e-09
3.431728e-11
1.761637e-09
1.34331e-09
-1.319575e-09
3.929035e-10
-1.595606e-09
1.202703e-09
4.804185e-11
-1.359777e-09
2.087819e-10
1.137962e-09
-1.675817e-09
2.699965e-10
-1.768362e-09
1.407582e-09
3.607799e-10
-2.075277e-09
2.737139e-10
1.801563e-09
-2.33921e-10
-1.424289e-09
1.65821e-09
1.29153e-09
5.403013e-10
-1.831832e-09
2.415329e-10
-1.276169e-09
1.034636e-09
2.369229e-09
1.742669e-09
1.351297e-10
-1.271373e-09
1.959575e-10
1.075416e-09
-1.120311e-09
-1.81504e-09
2.935351e-09
5.51731e-10
1.542581e-09
-2.094312e-09
-2.184857e-09
3.707956e-10
5.243604e-10
-2.363846e-09
1.839486e-09
-5.78784e-10
-7.615897e-12
-1.434053e-09
1.770464e-09
-2.29825e-10
-1.540639e-09
7.908512e-10
-1.523253e-09
7.324022e-10
-4.639238e-09
4.722379e-09
-8.314056e-11
-1.591108e-09
1.319562e-09
3.760647e-09
-4.26348e-09
5.028322e-10
6.407849e-09
1.895031e-09
6.518238e-10
1.241147e-09
-1.892971e-09
1.713986e-09
-2.712095e-09
1.382391e-09
-1.740089e-09
3.57698e-10
9.416572e-10
3.895282e-10
7.193027e-10
8.145282e-10
-1.533831e-09
-1.787385e-09
2.506688e-09
-1.375108e-09
9.953562e-10
3.797518e-10
-2.954e-11
1.587041e-09
-1.557501e-09
1.766482e-09
-1.875947e-09
1.000607e-09
3.711582e-10
6.991314e-11
1.8085e-09
-1.878413e-09
4.536541e-10
1.36026e-09
-1.740329e-09
3.800686e-10
1.534041e-09
-2.197142e-09
1.063768e-10
9.486529e-10
-1.783253e-09
2.045191e-09
-2.619378e-10
6.432328e-10
1.468257e-09
-2.11149e-09
-1.165397e-09
-4.809565e-10
1.646353e-09
7.222865e-10
-3.613429e-10
-7.336414e-10
1.094984e-09
-6.342847e-11
1.616245e-09
3.606899e-10
-1.799657e-09
1.438968e-09
9.504312e-10
4.57726e-10
-1.18434e-09
-2.997554e-10
1.484096e-09
-1.183577e-10
1.514184e-09
-1.395827e-09
5.210061e-10
1.216487e-09
-1.737493e-09
-8.131093e-10
-7.779985e-10
-3.145642e-10
-2.661924e-09
-2.752367e-10
1.831868e-09
5.28746e-10
-1.186159e-09
6.574132e-10
-8.852283e-11
1.705964e-09
-1.617441e-09
7.551332e-10
-1.403786e-09
6.486533e-10
-2.211481e-09
6.363873e-10
1.575093e-09
-2.69842e-10
1.94721e-09
-1.677368e-09
1.094223e-09
1.65227e-10
-1.25945e-09
1.101676e-09
8.293558e-10
-1.931032e-09
-4.947253e-10
-1.230318e-09
1.725044e-09
1.193048e-09
-1.877904e-09
-1.270004e-09
-2.635447e-10
1.533548e-09
1.064212e-09
-1.928577e-09
-1.413472e-09
1.319083e-09
9.438923e-11
-1.488845e-09
-2.152841e-10
-1.578422e-09
1.778262e-09
-1.998397e-10
8.585376e-10
-1.764473e-09
9.059351e-10
-2.018611e-09
5.429002e-10
1.475711e-09
-6.889906e-11
9.869482e-10
-9.180491e-10
-8.590923e-10
8.464402e-09
-7.60531e-09
-1.08897e-09
1.270291e-09
-2.014609e-09
8.373774e-10
1.177232e-09
1.415605e-09
4.712129e-09
-4.71568e-10
-4.240561e-09
1.386943e-09
-1.973829e-09
3.082739e-09
-4.575686e-09
7.332314e-10
5.895178e-10
1.513427e-09
-1.929203e-09
6.54978e-10
1.274225e-09
8.988302e-09
-8.988302e-09
1.171116e-09
-1.205045e-09
3.392885e-11
6.430642e-11
-2.152592e-09
-1.306446e-10
-1.694314e-09
1.824959e-09
-1.364676e-09
1.275213e-09
8.946282e-11
2.719068e-10
1.2611e-09
-1.533007e-09
1.260239e-09
1.395712e-10
-1.39981e-09
-5.341778e-10
2.147163e-09
-1.612986e-09
-2.839408e-10
-1.118025e-09
1.401966e-09
-3.987809e-10
-1.493172e-09
1.973811e-09
-4.778034e-10
-1.315944e-09
1.167845e-09
1.480993e-10
-5.983879e-10
1.778972e-09
-1.180584e-09
-4.461146e-10
2.02266e-09
-2.420366e-10
-1.63966e-09
1.881697e-09
-6.008416e-10
-1.319879e-09
1.920721e-09
3.371461e-10
1.464686e-09
-1.801832e-09
5.854124e-10
1.087525e-09
-1.948929e-09
5.60231e-10
-1.153599e-09
-6.061482e-10
1.759747e-09
-1.77713e-09
3.87978e-10
1.389152e-09
-2.118122e-09
2.083077e-10
1.909814e-09
3.660104e-10
-1.962303e-09
1.596293e-09
-1.797922e-09
1.189704e-09
-1.831103e-09
6.413999e-10
-1.890795e-09
1.620953e-09
1.278953e-09
-2.757027e-09
1.478074e-09
-4.173754e-09
2.074073e-09
2.099682e-09
-1.970039e-09
-6.949612e-10
9.26932e-10
-1.484158e-09
5.572261e-10
1.756641e-09
-9.471751e-10
-8.094658e-10
-1.240533e-09
4.944958e-10
1.812651e-09
-2.102486e-09
2.898349e-10
-1.18295e-09
-9.695299e-11
6.806635e-09
-4.165305e-09
-2.64133e-09
-1.279826e-09
4.053353e-10
8.744903e-10
7.795518e-10
-1.55873e-09
-1.118813e-09
-4.055618e-10
1.524375e-09
9.853878e-10
-1.190496e-09
-7.566988e-10
-4.699689e-10
1.226668e-09
2.689993e-09
4.923959e-09
-9.699721e-10
1.812523e-09
-8.425507e-10
1.856924e-09
-8.498307e-12
-1.848426e-09
8.349991e-10
-2.109059e-09
-2.721881e-09
-8.479307e-10
2.02144e-09
-1.601146e-09
1.521057e-09
-7.966153e-10
-7.244417e-10
2.897137e-10
1.240574e-09
-1.530287e-09
3.700211e-10
-9.557964e-10
-3.547409e-10
-1.054842e-09
-4.115235e-09
5.656941e-10
9.895533e-10
1.497779e-09
-1.357249e-09
-1.405298e-10
4.737093e-10
-1.523749e-09
1.496085e-09
-5.008978e-10
8.834373e-10
3.360522e-10