/*--------------------------------*- C++ -*----------------------------------*\
| =========                 |                                                 |
| \\      /  F ield         | OpenFOAM: The Open Source CFD Toolbox           |
|  \\    /   O peration     | Version:  2406                                  |
|   \\  /    A nd           | Website:  www.openfoam.com                      |
|    \\/     M anipulation  |                                                 |
\*---------------------------------------------------------------------------*/
FoamFile
{
    version     2.0;
    format      ascii;
    arch        "LSB;label=32;scalar=64";
    class       surfaceScalarField;
    location    "0.02";
    object      phi;
}
// * * * * * * * * * * * * * * * * * * * * * * * * * * * * * * * * * * * * * //

dimensions      [0 3 -1 0 0 0 0];

oriented        oriented;

internalField   nonuniform List<scalar> 
23794
(
-0.0002043266
2.191329e-05
0.0001824133
-0.0004137226
0.0002093961
-0.0006288552
0.0002151326
-0.0008423638
0.0002135086
-0.00105341
0.0002110461
-0.001268481
0.0002150714
-0.001491249
0.0002227672
-0.001757578
0.0002663292
-0.00203851
0.0002809323
-0.002359188
0.0003206783
-0.002748581
0.0003893923
-0.003084972
0.0003363919
-0.003399879
0.0003149065
-0.003776959
0.0003770803
-0.004193927
0.0004169675
-0.004640433
0.0004465062
-0.005126452
0.000486019
-0.00563831
0.0005118584
-0.006192716
0.0005544057
-0.006801021
0.0006083053
-0.007454722
0.0006537009
-0.008116506
0.0006617843
-0.008781333
0.0006648269
-0.009450868
0.0006695349
-0.01010243
0.0006515592
-0.01070903
0.0006065989
-0.01133146
0.0006224321
-0.01199892
0.0006674602
-0.0126567
0.0006577827
-0.01325261
0.0005959132
-0.01384858
0.0005959633
-0.01443436
0.0005857806
-0.01502348
0.0005891179
-0.01552499
0.0005015109
-0.0159128
0.0003878167
-0.01626445
0.0003516482
-0.01656566
0.0003012112
-0.01679718
0.000231517
-0.01698553
0.0001883482
-0.01712347
0.0001379394
-0.01721801
9.454491e-05
-0.01727496
5.69509e-05
-0.0172718
-3.162007e-06
-0.01721835
-5.345371e-05
-0.01715286
-6.548346e-05
-0.01699322
-0.000159639
-0.01682284
-0.0001703867
-0.01663175
-0.0001910851
-0.01640103
-0.0002307271
-0.01616599
-0.0002350335
-0.01588271
-0.0002832834
-0.01557866
-0.0003040527
-0.01523149
-0.0003471643
-0.01487245
-0.000359045
-0.01450365
-0.000368801
-0.014087
-0.0004166428
-0.0136571
-0.0004299017
-0.01322127
-0.0004358287
-0.01271433
-0.0005069457
-0.01217731
-0.0005370153
-0.01161577
-0.0005615428
-0.01106135
-0.0005544142
-0.01050283
-0.0005585281
-0.009903301
-0.0005995255
-0.009311253
-0.0005920476
-0.008675491
-0.0006357629
-0.00802842
-0.0006470701
-0.007386249
-0.0006421711
-0.006743584
-0.0006426651
-0.006066016
-0.0006775686
-0.005382291
-0.0006837246
-0.004680054
-0.0007022371
-0.003948612
-0.0007314417
-0.003213868
-0.0007347444
-0.002507263
-0.0007066043
-0.00175455
-0.0007527131
-0.001037188
-0.0007173622
-0.0003818959
-0.0006552919
0.0003200419
-0.0007019378
0.001060464
-0.0007404221
0.001766051
-0.0007055872
0.002500127
-0.0007340754
0.003228486
-0.0007283591
0.003958482
-0.0007299965
0.004678067
-0.0007195848
0.005366568
-0.0006885007
0.00606751
-0.0007009421
0.006752066
-0.0006845563
0.007410148
-0.0006580819
0.008073997
-0.0006638491
0.008719768
-0.0006457701
0.009335261
-0.0006154939
0.009945274
-0.0006100128
0.01055375
-0.0006084731
0.01111825
-0.0005644998
0.01167838
-0.0005601322
0.01222107
-0.0005426898
0.01272713
-0.0005060646
0.01324742
-0.0005202849
0.01371852
-0.000471103
0.01415736
-0.0004388388
0.01455123
-0.0003938658
0.0149042
-0.0003529723
0.01526909
-0.0003648933
0.01561407
-0.0003449739
0.01593291
-0.0003188475
0.01621747
-0.0002845608
0.01646561
-0.0002481316
0.01669521
-0.000229604
0.01686763
-0.0001724183
0.01702881
-0.000161185
0.01715446
-0.0001256467
0.01718482
-3.036274e-05
0.01716607
1.874971e-05
0.0171337
3.237091e-05
0.01709409
3.961433e-05
0.01701719
7.690056e-05
0.01689736
0.0001198242
0.01673394
0.0001634249
0.01649906
0.0002348824
0.01618153
0.0003175284
0.01583896
0.0003425649
0.01550105
0.0003379076
0.01504657
0.0004544836
0.01449627
0.0005503028
0.01394213
0.0005541412
0.01335609
0.000586033
0.0127532
0.0006028983
0.01204436
0.0007088397
0.01125182
0.0007925409
0.01049367
0.0007581413
0.00975255
0.0007411238
0.009093364
0.0006591867
0.008505295
0.000588069
0.007964771
0.0005405237
0.007398857
0.0005659141
0.006812377
0.0005864795
0.006276207
0.0005361706
0.005764009
0.0005121975
0.00527661
0.0004873989
0.004806946
0.0004696639
0.004294591
0.0005123559
0.003841586
0.0004530045
0.003407971
0.0004336152
0.003022498
0.0003854734
0.002655508
0.0003669893
0.002333179
0.0003223288
0.002050067
0.0002831122
0.001780318
0.0002697492
0.0015332
0.000247118
0.001279033
0.0002541673
0.001037889
0.0002411444
0.0008296488
0.0002082398
0.0006355685
0.0001940803
0.0004187929
0.0002167756
0.0001766386
0.0002421543
0.0001985519
-0.000894284
2.597595e-05
0.001050721
-0.001786767
0.001101879
-0.002671313
0.001099679
-0.003529547
0.001071743
-0.004369232
0.001050732
-0.005213521
0.00105936
-0.006076192
0.001085438
-0.006940791
0.001130928
-0.00775393
0.001094072
-0.008569468
0.001136216
-0.009436175
0.001256099
-0.01026653
0.001166742
-0.01109303
0.001141409
-0.01199937
0.001283426
-0.01290256
0.001320151
-0.01377489
0.001318838
-0.01463253
0.001343665
-0.01544872
0.001328044
-0.01625088
0.00135657
-0.01703987
0.001397287
-0.01782628
0.001440117
-0.01856717
0.001402669
-0.01927877
0.001376432
-0.01993934
0.001330107
-0.02055109
0.001263303
-0.02109203
0.001147539
-0.02160043
0.00113083
-0.02216265
0.001229688
-0.02268046
0.001175587
-0.02309556
0.001011018
-0.02346684
0.0009672362
-0.02375849
0.0008774403
-0.02400304
0.000833664
-0.02412539
0.0006238586
-0.02414928
0.0004117089
-0.02419329
0.0003956557
-0.02423916
0.000347083
-0.02425164
0.0002440005
-0.02422676
0.0001634676
-0.02414128
5.245259e-05
-0.02401345
-3.32838e-05
-0.02387063
-8.586742e-05
-0.02371795
-0.0001558425
-0.02354932
-0.0002220852
-0.02336925
-0.0002455535
-0.0230633
-0.0004655828
-0.02273169
-0.0005020029
-0.02238419
-0.0005385772
-0.02199621
-0.0006187137
-0.02160923
-0.000622016
-0.02117373
-0.0007187767
-0.02071606
-0.0007617255
-0.02020493
-0.0008582924
-0.01967678
-0.0008871947
-0.01914293
-0.0009026568
-0.01855461
-0.001004957
-0.01794383
-0.001040684
-0.01732548
-0.001054173
-0.01662317
-0.001209265
-0.01589414
-0.001266037
-0.01514338
-0.001312302
-0.01440262
-0.001295182
-0.01365948
-0.001301663
-0.01286184
-0.001397166
-0.01207263
-0.001381256
-0.01123889
-0.001469508
-0.01039113
-0.00149483
-0.009551357
-0.001481941
-0.008712865
-0.001481157
-0.007830082
-0.001560352
-0.00693737
-0.001576437
-0.006024127
-0.001615479
-0.005078353
-0.001677216
-0.004132915
-0.001680183
-0.003219614
-0.001619905
-0.002257316
-0.001715011
-0.001337012
-0.001637667
-0.0004865965
-0.001505707
0.0004173081
-0.001605842
0.001367518
-0.001690632
0.002274307
-0.001612376
0.003215945
-0.001675714
0.004153784
-0.001666198
0.005096269
-0.001672482
0.006029584
-0.0016529
0.006926105
-0.001585022
0.007834672
-0.001609508
0.008722254
-0.001572139
0.009576856
-0.001512683
0.01044456
-0.001531548
0.01129908
-0.001500299
0.01211537
-0.001431784
0.01292032
-0.001414961
0.01372235
-0.001410498
0.01447297
-0.001315126
0.01522795
-0.001315113
0.01596454
-0.001279271
0.01665613
-0.001197654
0.01736177
-0.001225934
0.01801061
-0.001119943
0.01863285
-0.001061077
0.01920215
-0.0009631678
0.01971958
-0.0008704023
0.02024986
-0.000895168
0.02075701
-0.0008521291
0.02123742
-0.0007992491
0.02168502
-0.0007321695
0.02209449
-0.0006575969
0.02248411
-0.0006192215
0.02281386
-0.000502172
0.02314445
-0.0004917738
0.02342911
-0.0004103103
0.02359049
-0.0001917368
0.02369651
-8.727666e-05
0.02378395
-5.506952e-05
0.02386571
-4.214326e-05
0.02392898
1.363151e-05
0.02398236
6.644234e-05
0.02403773
0.0001080622
0.02407958
0.0001930266
0.02407863
0.0003184826
0.02405213
0.0003690586
0.02402602
0.0003640178
0.02387265
0.0006078596
0.02359812
0.0008248263
0.02330414
0.0008481231
0.02295688
0.0009332979
0.02259944
0.0009603366
0.02215386
0.001154423
0.0216307
0.0013157
0.02114583
0.001243011
0.02058397
0.001302985
0.01997861
0.001264547
0.01932454
0.00124213
0.01860175
0.001263314
0.0177955
0.00137217
0.01690698
0.001475003
0.0160392
0.001403947
0.01519992
0.001351473
0.01442471
0.00126261
0.01368559
0.001208791
0.01292101
0.001276931
0.01213194
0.001242075
0.01126228
0.001303277
0.01038214
0.001265609
0.009471294
0.001277839
0.008575783
0.00121784
0.007726984
0.001131912
0.006909306
0.001087427
0.006077773
0.001078651
0.005207423
0.001124517
0.004339693
0.001108874
0.003493979
0.001053954
0.002655836
0.001032224
0.00178938
0.001083231
0.0008650032
0.001166531
0.001089531
-0.001362716
2.854945e-05
0.002384888
-0.002706711
0.002445874
-0.004018369
0.002411337
-0.005279667
0.00233304
-0.006505092
0.002276157
-0.007717099
0.002271366
-0.008912086
0.002280426
-0.0100463
0.002265137
-0.01108126
0.002129036
-0.01211048
0.002165434
-0.01318671
0.002332336
-0.01422975
0.002209781
-0.01528312
0.002194774
-0.01638759
0.002387895
-0.01740088
0.002333445
-0.01830675
0.002224707
-0.01915427
0.002191182
-0.01994189
0.002115666
-0.02070643
0.002121116
-0.02143352
0.002124371
-0.02213059
0.00213719
-0.02276026
0.002032335
-0.0233565
0.00197268
-0.023907
0.001880598
-0.02443818
0.001794482
-0.02492951
0.001638869
-0.02541981
0.001621135
-0.02597344
0.001783316
-0.02647907
0.00168122
-0.02687664
0.001408591
-0.02723658
0.001327168
-0.02753082
0.001171681
-0.02781242
0.001115267
-0.02800367
0.0008151097
-0.02810839
0.0005164248
-0.02824025
0.0005275206
-0.02836667
0.0004735046
-0.02844372
0.0003210425
-0.02847662
0.0001963688
-0.02844219
1.802572e-05
-0.02835589
-0.0001195825
-0.02823876
-0.000203001
-0.02808741
-0.0003071942
-0.02790284
-0.0004066521
-0.02771112
-0.000437275
-0.02736526
-0.00081144
-0.02698956
-0.0008777021
-0.02659205
-0.0009360895
-0.02614304
-0.001067727
-0.02569763
-0.001067422
-0.02519069
-0.001225719
-0.02465896
-0.001293454
-0.02406177
-0.00145548
-0.0234423
-0.001506666
-0.02281704
-0.001527918
-0.02212341
-0.001698582
-0.02140292
-0.001761173
-0.02067462
-0.001782478
-0.01984154
-0.002042348
-0.01897606
-0.002131512
-0.01808448
-0.002203887
-0.01720559
-0.00217407
-0.01632457
-0.002182678
-0.01537513
-0.00234661
-0.01443629
-0.002320091
-0.01344082
-0.002464981
-0.01242927
-0.002506385
-0.01142684
-0.002484368
-0.01042545
-0.002482551
-0.009370052
-0.002615745
-0.008302661
-0.002643828
-0.007209398
-0.002708743
-0.006077422
-0.002809192
-0.004945247
-0.002812358
-0.003850861
-0.002714292
-0.002699202
-0.002866669
-0.001597277
-0.002739592
-0.000577235
-0.00252575
0.0005020568
-0.002685134
0.001636523
-0.002825099
0.002720957
-0.002696809
0.003851027
-0.002805784
0.004977255
-0.002792426
0.00610759
-0.002802817
0.007224928
-0.002770238
0.008296628
-0.002656721
0.009381853
-0.002694733
0.01044105
-0.002631339
0.01146154
-0.002533173
0.01249818
-0.002568186
0.0135175
-0.002519616
0.01448912
-0.002403405
0.01544652
-0.002372359
0.01640034
-0.002364324
0.0172925
-0.002207287
0.0181905
-0.002213108
0.01906414
-0.00215291
0.01988103
-0.002014548
0.02071723
-0.002062132
0.0214831
-0.001885818
0.02221806
-0.001796035
0.02288759
-0.001632693
0.02349263
-0.001475444
0.02411667
-0.001519211
0.02470936
-0.001444813
0.02527194
-0.001361831
0.02579228
-0.001252511
0.02626557
-0.001130888
0.02671579
-0.001069438
0.02709156
-0.0008779467
0.02746762
-0.0008678354
0.02778608
-0.0007287637
0.02795286
-0.0003585165
0.02805011
-0.0001845344
0.02812528
-0.0001302394
0.02818987
-0.0001067263
0.02821969
-1.619099e-05
0.02822378
6.235356e-05
0.0282161
0.0001157414
0.02818006
0.0002290632
0.028094
0.0004045456
0.02799215
0.0004709124
0.02790874
0.000447423
0.02769587
0.0008207322
0.02737143
0.001149266
0.02704853
0.001171019
0.02668603
0.001295804
0.02633641
0.001309953
0.02592419
0.001566642
0.02545148
0.001788412
0.02504444
0.001650045
0.02456978
0.001777651
0.02406381
0.001770521
0.02352426
0.001781679
0.02293831
0.00184926
0.02227291
0.002037573
0.02146094
0.002286974
0.02056712
0.002297766
0.01961558
0.002303011
0.01870996
0.00216823
0.01789497
0.00202378
0.0171081
0.0020638
0.0163228
0.002027377
0.01543145
0.002194621
0.01448553
0.002211536
0.01341882
0.002344546
0.01226853
0.002368128
0.01111499
0.002285452
0.009995746
0.002206674
0.008869117
0.00220528
0.007686094
0.002307541
0.006465366
0.002329602
0.005221295
0.002298025
0.003969878
0.002283641
0.00269453
0.002358579
0.001330416
0.002530646
0.002448496
-0.001610045
3.725201e-05
0.003957681
-0.003187008
0.004022837
-0.004715271
0.003939599
-0.006178024
0.003795794
-0.007592942
0.003691074
-0.008980488
0.003658913
-0.01032533
0.00362527
-0.01158777
0.003527571
-0.01274194
0.003283207
-0.01389737
0.003320864
-0.01511853
0.003553502
-0.01630456
0.003395804
-0.01750928
0.003399493
-0.01876409
0.003642706
-0.01990784
0.003477203
-0.02093881
0.003255678
-0.02192371
0.00317608
-0.02286543
0.003057379
-0.02379918
0.003054871
-0.0247109
0.003036089
-0.02561071
0.003037003
-0.02646004
0.002881664
-0.02728938
0.002802016
-0.02807843
0.002669652
-0.02884692
0.002562968
-0.02954362
0.00233557
-0.03023629
0.002313805
-0.03100801
0.002555041
-0.03173735
0.002410556
-0.03233583
0.002007076
-0.03289667
0.001888001
-0.03336941
0.001644423
-0.03381468
0.001560541
-0.03410414
0.001104566
-0.03424995
0.0006622405
-0.03441527
0.000692839
-0.03456476
0.0006229932
-0.03463858
0.0003948576
-0.03464839
0.0002061806
-0.03456719
-6.317467e-05
-0.03441888
-0.0002678847
-0.034242
-0.0003798893
-0.03403374
-0.0005154518
-0.03378059
-0.0006598041
-0.03352635
-0.0006915098
-0.03308482
-0.001252972
-0.03261022
-0.001352297
-0.03210777
-0.001438547
-0.03154776
-0.001627739
-0.03099607
-0.001619109
-0.0303725
-0.001849289
-0.02972025
-0.001945706
-0.02898959
-0.00218614
-0.02823272
-0.002263533
-0.02747008
-0.002290556
-0.02662762
-0.00254104
-0.02575208
-0.002636719
-0.02486602
-0.002668538
-0.02385722
-0.003051146
-0.02280745
-0.003181284
-0.02172883
-0.003282502
-0.02066867
-0.003234229
-0.01960881
-0.003242538
-0.01846606
-0.003489368
-0.01733819
-0.003447956
-0.01614066
-0.003662511
-0.01492574
-0.003721311
-0.01372042
-0.003689684
-0.01251695
-0.003686015
-0.01124848
-0.003884217
-0.009965401
-0.00392691
-0.008650401
-0.004023742
-0.007290391
-0.004169202
-0.005928653
-0.004174096
-0.004616577
-0.004026367
-0.003236727
-0.004246519
-0.001916391
-0.004059928
-0.0006952459
-0.003746895
0.0005961284
-0.003976508
0.001965579
-0.004194549
0.003277097
-0.004008327
0.004640389
-0.004169076
0.00598825
-0.004140287
0.007337706
-0.004152273
0.008671242
-0.004103774
0.009953165
-0.003938644
0.01125571
-0.003997275
0.01252601
-0.003901641
0.01375406
-0.003761225
0.01500234
-0.003816466
0.01622705
-0.003744328
0.01739646
-0.003572814
0.01854986
-0.003525752
0.01969704
-0.00351151
0.0207744
-0.003284645
0.02185899
-0.003297703
0.02291163
-0.003205549
0.02389737
-0.003000284
0.0249073
-0.003072064
0.025836
-0.00281452
0.02673042
-0.002690452
0.02754872
-0.002450993
0.02829272
-0.002219445
0.02905659
-0.002283076
0.02978195
-0.002170175
0.03047406
-0.002053943
0.03111452
-0.001892971
0.03170193
-0.001718293
0.03226117
-0.001628686
0.03273766
-0.001354436
0.03321444
-0.001344609
0.03362596
-0.001140286
0.0338609
-0.0005934577
0.03401254
-0.0003361749
0.03413513
-0.0002528268
0.03424426
-0.0002158575
0.03430995
-8.188686e-05
0.03434323
2.90786e-05
0.03436095
9.802201e-05
0.03433404
0.000255974
0.03423094
0.0005076417
0.03409981
0.0006020443
0.03398309
0.0005641387
0.03367602
0.001127808
0.03320289
0.001622397
0.03272693
0.001646979
0.03218555
0.001837184
0.03165397
0.001841532
0.03102069
0.00219992
0.0303115
0.002497603
0.02968881
0.002272729
0.02898363
0.002482838
0.02823983
0.002514318
0.02744786
0.002573644
0.0266131
0.002684027
0.02570887
0.002941802
0.02468556
0.003310286
0.02361119
0.003372136
0.02248761
0.003426584
0.02141839
0.003237449
0.02045814
0.002984035
0.01952589
0.002996052
0.01863205
0.002921214
0.0176382
0.003188468
0.0166045
0.00324524
0.01543094
0.003518105
0.01414193
0.003657136
0.01282238
0.003605002
0.01153775
0.003491303
0.0102658
0.003477235
0.008934575
0.003638763
0.007543871
0.003720306
0.006099732
0.003742165
0.004638091
0.003745282
0.003157372
0.003839298
0.001563731
0.004124286
0.004049479
-0.001783372
5.283261e-05
0.00568822
-0.003528335
0.0057678
-0.005222184
0.005633448
-0.006845477
0.005419087
-0.008418325
0.005263923
-0.009969622
0.00521021
-0.01148377
0.005139414
-0.01293559
0.004979397
-0.01427746
0.004625078
-0.01560907
0.004652471
-0.017036
0.004980435
-0.0184181
0.0047779
-0.01983161
0.004813002
-0.02133686
0.005147962
-0.02275344
0.004893782
-0.02406942
0.004571653
-0.02534394
0.004450596
-0.02656161
0.004275057
-0.02775119
0.004244453
-0.02890798
0.004192878
-0.030047
0.004176017
-0.03112986
0.003964528
-0.0321788
0.003850949
-0.03316596
0.00365682
-0.03412137
0.00351837
-0.03495835
0.003172557
-0.03580258
0.003158031
-0.03672369
0.003476156
-0.03759406
0.00328092
-0.03829711
0.002710128
-0.03894764
0.002538529
-0.03949147
0.002188259
-0.04000366
0.002072722
-0.04034486
0.001445767
-0.04054382
0.0008612046
-0.0407616
0.000910617
-0.0409676
0.0008289926
-0.04108719
0.0005144496
-0.04114088
0.0002598675
-0.04108714
-0.0001169117
-0.04094386
-0.0004111629
-0.04076438
-0.0005593685
-0.04055316
-0.0007266745
-0.04026231
-0.0009506536
-0.04000816
-0.0009456615
-0.03949215
-0.001768984
-0.03895419
-0.001890257
-0.03837675
-0.002015983
-0.03770992
-0.002294568
-0.03707134
-0.002257694
-0.03633055
-0.002590072
-0.0355663
-0.002709962
-0.03470181
-0.003050621
-0.03380756
-0.003157792
-0.03291079
-0.003187323
-0.03191131
-0.003540519
-0.03087339
-0.00367464
-0.02982383
-0.003718099
-0.02861585
-0.00425912
-0.02734829
-0.004448847
-0.026045
-0.004585786
-0.02477159
-0.004507648
-0.02350687
-0.004507255
-0.02214211
-0.00485413
-0.02080389
-0.004786172
-0.01937242
-0.005093983
-0.01792101
-0.005172722
-0.01647547
-0.005135224
-0.01503255
-0.005128932
-0.01350661
-0.005410162
-0.01196507
-0.005468451
-0.01038484
-0.005603966
-0.008753405
-0.005800639
-0.007113832
-0.00581367
-0.005538593
-0.005601605
-0.003884168
-0.005900944
-0.002310195
-0.005633901
-0.0008680141
-0.005189076
0.0006937109
-0.005538233
0.002393194
-0.005894032
0.003991562
-0.005606696
0.005621756
-0.00579927
0.007207539
-0.005726069
0.008801272
-0.005746006
0.0103873
-0.0056898
0.0119223
-0.005473648
0.01349119
-0.005566168
0.01501453
-0.005424981
0.01649244
-0.005239128
0.01799401
-0.005318039
0.01945763
-0.005207951
0.02086061
-0.004975791
0.02225054
-0.004915677
0.02362498
-0.004885951
0.02491426
-0.004573926
0.02620876
-0.004592206
0.02745823
-0.004455017
0.02862917
-0.004171222
0.02984685
-0.004289748
0.03096637
-0.00393404
0.03204275
-0.003766837
0.03301774
-0.003425983
0.03389181
-0.003093506
0.03479254
-0.003183814
0.03563963
-0.003017261
0.03645454
-0.002868849
0.03720031
-0.00263874
0.03788229
-0.00240028
0.03853898
-0.002285375
0.03908001
-0.001895465
0.03962977
-0.001894365
0.04010046
-0.001610974
0.0403412
-0.0008341989
0.04048816
-0.0004831419
0.04059531
-0.0003599741
0.04069246
-0.0003130028
0.0407382
-0.0001276333
0.04074617
2.111095e-05
0.04074202
0.0001021723
0.0406865
0.0003114913
0.04054352
0.0006506199
0.0403723
0.0007732728
0.04021337
0.0007230665
0.03984756
0.001493619
0.03929789
0.002172061
0.03874245
0.002202421
0.03810896
0.00247068
0.03748985
0.002460634
0.03674232
0.002947452
0.03589558
0.003344341
0.03513678
0.003031537
0.03426777
0.003351846
0.0333392
0.003442887
0.03232565
0.003587193
0.03124437
0.003765307
0.03005054
0.004135634
0.02873583
0.004624989
0.02740493
0.004703041
0.02605026
0.004781255
0.02477737
0.004510334
0.02362794
0.004133467
0.02246618
0.004157814
0.02134861
0.00403878
0.02008073
0.004456357
0.0187842
0.004541764
0.01735585
0.004946457
0.01584978
0.005163203
0.01433455
0.005120239
0.01286611
0.004959742
0.01142609
0.004917256
0.009919105
0.005145744
0.008356037
0.005283374
0.006744016
0.005354185
0.005123451
0.005365847
0.003486197
0.005476552
0.001713428
0.005897055
0.00581574
-0.002018093
7.269616e-05
0.007633617
-0.0040029
0.007752607
-0.005942478
0.007573027
-0.007803738
0.007280346
-0.009607885
0.00706807
-0.01140981
0.007012137
-0.01319761
0.006927208
-0.01496052
0.006742312
-0.01659999
0.006264544
-0.01818255
0.006235034
-0.01990052
0.006698408
-0.02155081
0.006428189
-0.02324461
0.006506799
-0.02509039
0.006993743
-0.02686432
0.006667719
-0.02853086
0.006238187
-0.03013854
0.006058282
-0.03166103
0.005797541
-0.03313109
0.005714515
-0.03456917
0.005630957
-0.03599103
0.00559788
-0.03735736
0.005330859
-0.0386748
0.005168388
-0.03990113
0.004883153
-0.04110276
0.004719996
-0.0421098
0.004179601
-0.04316043
0.004208656
-0.04429375
0.004609477
-0.04538773
0.004374895
-0.04626681
0.003589217
-0.04709367
0.003365383
-0.04777328
0.002867869
-0.04841036
0.002709802
-0.0488244
0.001859809
-0.04903153
0.001068337
-0.04929213
0.001171211
-0.04953831
0.001075176
-0.04965605
0.0006321917
-0.04970209
0.0003059048
-0.04961663
-0.000202367
-0.04941866
-0.0006091373
-0.04918323
-0.0007947973
-0.04892239
-0.0009875144
-0.04853817
-0.00133487
-0.04822094
-0.001262897
-0.04759741
-0.002392508
-0.04694542
-0.002542255
-0.04623563
-0.002725767
-0.04539746
-0.003132742
-0.04462043
-0.003034725
-0.04369931
-0.003511187
-0.04276622
-0.003643051
-0.04171176
-0.004105081
-0.04062467
-0.004244885
-0.03954442
-0.004267573
-0.03833585
-0.004749091
-0.03708837
-0.004922113
-0.03583603
-0.004970439
-0.03438336
-0.005711796
-0.03284332
-0.005988886
-0.03125742
-0.00617168
-0.0297075
-0.006057571
-0.02818308
-0.00603168
-0.02654225
-0.006494954
-0.02495779
-0.006370631
-0.02324539
-0.006806386
-0.02150652
-0.006911592
-0.01976526
-0.006876485
-0.01802783
-0.006866358
-0.01618862
-0.007249375
-0.01434359
-0.007313477
-0.01245734
-0.007490217
-0.01052113
-0.007736852
-0.008554324
-0.007780476
-0.006665733
-0.007490196
-0.004670257
-0.00789642
-0.002786088
-0.00751807
-0.001104744
-0.00687042
0.00081299
-0.007455967
0.002951893
-0.008032935
0.00486408
-0.007518882
0.006766271
-0.007701462
0.00861853
-0.007578329
0.01052281
-0.007650287
0.01242987
-0.007596855
0.01428321
-0.007326993
0.01618497
-0.007467929
0.01801111
-0.007251119
0.01978667
-0.007014685
0.02158965
-0.007121022
0.02333475
-0.006953053
0.02502256
-0.006663596
0.02671669
-0.006609805
0.02837092
-0.006540184
0.02991191
-0.006114916
0.03146144
-0.006141734
0.0329623
-0.005955882
0.03438343
-0.005592344
0.0358896
-0.005795926
0.03727252
-0.005316956
0.03858668
-0.005080996
0.03975293
-0.004592238
0.0407863
-0.00412687
0.04185535
-0.004252868
0.04285314
-0.004015046
0.04383905
-0.003854756
0.04474114
-0.00354083
0.04558307
-0.003242216
0.04639894
-0.003101246
0.04707163
-0.002568154
0.04775112
-0.002573856
0.04831013
-0.002169985
0.04862225
-0.001146319
0.04881522
-0.0006761091
0.04896102
-0.0005057776
0.04909741
-0.0004493917
0.04917048
-0.0002007044
0.04920132
-9.727763e-06
0.04922054
8.295297e-05
0.04917543
0.000356603
0.04901852
0.000807525
0.04881939
0.000972406
0.04867473
0.0008677323
0.04821522
0.001953123
0.0475344
0.002852885
0.04684983
0.002886992
0.04604839
0.003272116
0.04528391
0.003225117
0.04434025
0.003891109
0.04328278
0.004401812
0.04234786
0.00396646
0.04127914
0.004420563
0.04013788
0.004584145
0.03886067
0.004864403
0.03748866
0.005137317
0.03593191
0.005692388
0.03425169
0.00630521
0.03259747
0.006357259
0.03095735
0.006421377
0.02944977
0.006017909
0.02809398
0.005489256
0.02665485
0.005596945
0.02527494
0.00541869
0.02363859
0.006092709
0.02198573
0.006194626
0.02018796
0.006744222
0.01836967
0.006981496
0.01657466
0.006915251
0.01484229
0.006692114
0.01314793
0.006611611
0.01136031
0.006933368
0.009529972
0.007113709
0.007668851
0.007215306
0.005821018
0.00721368
0.003957209
0.007340362
0.001921813
0.007932451
0.007810249
-0.002385884
0.0001003262
0.009919175
-0.00472894
0.01009566
-0.007022865
0.009866951
-0.009242797
0.009500279
-0.01140899
0.009234261
-0.01358769
0.009190836
-0.01574773
0.009087249
-0.01788452
0.008879104
-0.01989272
0.008272741
-0.02177264
0.008114954
-0.02387901
0.008804783
-0.0258789
0.008428075
-0.02792029
0.008548192
-0.03016544
0.009238891
-0.0323163
0.008818579
-0.0343216
0.008243486
-0.03624097
0.007977656
-0.03806106
0.007617624
-0.03980153
0.007454984
-0.04151011
0.007339544
-0.04317661
0.007264377
-0.04477944
0.006933688
-0.04631395
0.006702902
-0.04771364
0.006282841
-0.04915453
0.006160883
-0.0502671
0.005292178
-0.05152999
0.005471543
-0.05285188
0.005931364
-0.05416922
0.005692235
-0.05520792
0.004627922
-0.05620793
0.004365395
-0.05702494
0.003684871
-0.05780618
0.003491049
-0.05830829
0.002361911
-0.05859739
0.001357443
-0.05891526
0.001489084
-0.05923156
0.001391467
-0.05942191
0.0008225442
-0.05955239
0.0004363893
-0.05952141
-0.0002333489
-0.05930213
-0.0008284161
-0.05902876
-0.001068165
-0.05876398
-0.001252302
-0.05823293
-0.001865914
-0.05791723
-0.001578601
-0.05713465
-0.003175082
-0.0563945
-0.003282407
-0.05557349
-0.003546783
-0.05453902
-0.004167208
-0.05362348
-0.003950269
-0.05247244
-0.004662228
-0.05134748
-0.004768004
-0.05006574
-0.005386824
-0.04874002
-0.005570609
-0.04743906
-0.005568533
-0.04597508
-0.00621307
-0.04446734
-0.006429853
-0.04296599
-0.006471791
-0.04125056
-0.007427218
-0.03942187
-0.007817581
-0.03752568
-0.008067866
-0.03563358
-0.007949669
-0.0338141
-0.007851163
-0.03181228
-0.008496772
-0.02992812
-0.0082548
-0.02786463
-0.008869875
-0.0257812
-0.008995021
-0.02368409
-0.008973593
-0.02155695
-0.008993499
-0.01935599
-0.009450329
-0.01715239
-0.009517081
-0.01490673
-0.009735877
-0.01264627
-0.009997317
-0.01027625
-0.01015049
-0.008059965
-0.009706482
-0.005643301
-0.01031308
-0.003337034
-0.009824337
-0.00134301
-0.008864444
0.0009852075
-0.009784185
0.003591506
-0.01063923
0.005806614
-0.00973399
0.007995394
-0.009890241
0.01022772
-0.009810654
0.01258741
-0.01000997
0.01489899
-0.009908434
0.01713679
-0.009564799
0.01945632
-0.009787456
0.02165045
-0.009445252
0.02376523
-0.009129468
0.02590217
-0.009257955
0.02799184
-0.009042729
0.03001875
-0.008690507
0.03204821
-0.008639259
0.03404543
-0.008537409
0.03588736
-0.007956844
0.03775292
-0.008007295
0.03956139
-0.007764344
0.04133255
-0.007363511
0.04319575
-0.007659118
0.04487658
-0.00699779
0.046471
-0.006675413
0.04783268
-0.005953926
0.04904367
-0.005337855
0.05031373
-0.00552293
0.0514803
-0.005181615
0.05268136
-0.00505582
0.05375415
-0.004613616
0.0547877
-0.004275771
0.05580167
-0.004115207
0.05660233
-0.003368816
0.05742568
-0.003397207
0.0581094
-0.002853701
0.05846179
-0.001498716
0.05865234
-0.0008666579
0.05879664
-0.0006500741
0.05895821
-0.0006109596
0.05901596
-0.0002584635
0.05903074
-2.449968e-05
0.0590452
6.84865e-05
0.05893313
0.0004686728
0.05867908
0.001061581
0.05838277
0.001268718
0.05811896
0.001131538
0.05751706
0.002555023
0.0566752
0.003694749
0.05585146
0.003710728
0.0548867
0.004236874
0.05401797
0.004093844
0.05290644
0.005002645
0.05166707
0.005641182
0.05056725
0.005066275
0.04930442
0.005683392
0.0479863
0.005902271
0.04650552
0.00634518
0.04496376
0.006679084
0.04311603
0.007540117
0.04112397
0.008297266
0.03912632
0.00835491
0.03712194
0.008425755
0.03531155
0.0078283
0.0337304
0.007070406
0.03198788
0.00733947
0.03042007
0.0069865
0.02840724
0.00810554
0.02640622
0.008195645
0.02418958
0.008960855
0.02199481
0.009176267
0.01980907
0.009100999
0.01771221
0.008788966
0.01568059
0.008643234
0.01350346
0.009110502
0.01130299
0.009314174
0.009079163
0.009439135
0.006881834
0.009411008
0.004668127
0.009554069
0.002237307
0.01036327
0.01014788
-0.002838788
0.0001557013
0.01260226
-0.005682651
0.01293953
-0.008536141
0.01272044
-0.01117731
0.01214145
-0.01364923
0.01170618
-0.01622711
0.01176871
-0.01882349
0.01168363
-0.02128771
0.01134332
-0.02371821
0.01070324
-0.02573892
0.01013567
-0.02821894
0.0112848
-0.0305637
0.01077283
-0.03288093
0.01086542
-0.03561012
0.01196809
-0.0382386
0.01144706
-0.04065928
0.01066416
-0.04294618
0.01026456
-0.04511912
0.00979056
-0.04717323
0.009509092
-0.04923993
0.009406249
-0.05123595
0.009260396
-0.05321895
0.008916685
-0.05515102
0.008634975
-0.05686998
0.0080018
-0.05880391
0.00809481
-0.06007896
0.006567233
-0.06177571
0.007168294
-0.06344954
0.007605191
-0.06526909
0.007511783
-0.06671005
0.006068883
-0.06816626
0.005821603
-0.06931186
0.004830469
-0.07034871
0.004527903
-0.07091408
0.002927279
-0.07109008
0.001533443
-0.07131715
0.001716155
-0.07156216
0.001636481
-0.071597
0.0008573856
-0.07167367
0.000513056
-0.07151944
-0.0003875801
-0.07127993
-0.001067929
-0.07093019
-0.001417899
-0.07074807
-0.00143443
-0.06995595
-0.002658031
-0.06955895
-0.001975594
-0.06861292
-0.004121113
-0.06767914
-0.004216194
-0.06679984
-0.004426079
-0.0654718
-0.005495243
-0.06443765
-0.004984422
-0.06302895
-0.006070933
-0.06169324
-0.006103709
-0.06011437
-0.006965691
-0.05847104
-0.007213947
-0.05690631
-0.00713326
-0.05514267
-0.007976707
-0.05323543
-0.008337094
-0.05142584
-0.008281381
-0.04941841
-0.00943465
-0.04728956
-0.009946433
-0.04503043
-0.01032699
-0.042767
-0.0102131
-0.04067763
-0.009940532
-0.03815145
-0.01102295
-0.03591655
-0.01048971
-0.03334774
-0.01143868
-0.03091404
-0.01142873
-0.02839847
-0.01148916
-0.02580461
-0.01158737
-0.02321501
-0.01203992
-0.02053884
-0.01219325
-0.01781355
-0.01246116
-0.01517785
-0.01263302
-0.01230641
-0.01302193
-0.009773147
-0.01223975
-0.006842887
-0.01324334
-0.003999813
-0.01266741
-0.001516656
-0.0113476
0.001221256
-0.0125221
0.0042766
-0.01369458
0.006759057
-0.01221645
0.009365616
-0.0124968
0.01219329
-0.01263832
0.01514131
-0.012958
0.0179119
-0.01267903
0.02055432
-0.01220722
0.02342709
-0.01266022
0.02606074
-0.01207891
0.02858933
-0.01165805
0.03107986
-0.01174848
0.03356056
-0.01152343
0.03600316
-0.01113311
0.03836634
-0.01100244
0.04077982
-0.01095088
0.04304504
-0.01022207
0.04529111
-0.01025336
0.04745158
-0.009924812
0.0496385
-0.009550432
0.05193567