/*--------------------------------*- C++ -*----------------------------------*\
| =========                 |                                                 |
| \\      /  F ield         | OpenFOAM: The Open Source CFD Toolbox           |
|  \\    /   O peration     | Version:  2406                                  |
|   \\  /    A nd           | Website:  www.openfoam.com                      |
|    \\/     M anipulation  |                                                 |
\*---------------------------------------------------------------------------*/
FoamFile
{
    version     2.0;
    format      ascii;
    arch        "LSB;label=32;scalar=64";
    class       volVectorField;
    location    "0.02";
    object      U;
}
// * * * * * * * * * * * * * * * * * * * * * * * * * * * * * * * * * * * * * //

dimensions      [0 1 -1 0 0 0 0];

internalField   nonuniform List<vector> 
15536
(
(-0.000814362 -0.1163195 -2.048546e-23)
(0.01572863 -0.3154363 1.362158e-18)
(0.04837 -0.5365329 2.670154e-18)
(0.09702695 -0.753328 2.580571e-18)
(0.1610949 -0.9639712 3.928603e-20)
(0.2408641 -1.169243 -1.843658e-20)
(0.3377647 -1.379133 -3.454965e-20)
(0.4608507 -1.601795 3.420064e-20)
(0.6147814 -1.848212 -7.871142e-18)
(0.8030524 -2.11133 -7.175342e-18)
(1.038155 -2.41026 0)
(1.297745 -2.71214 0)
(1.557872 -2.951035 3.418435e-20)
(1.849995 -3.183281 -7.879673e-18)
(2.199417 -3.447739 -2.986073e-18)
(2.596356 -3.718332 4.158143e-18)
(3.04448 -3.989907 -1.155675e-18)
(3.542711 -4.251682 2.233649e-21)
(4.090838 -4.495579 -1.171704e-20)
(4.705353 -4.732837 9.420354e-21)
(5.388284 -4.963665 0)
(6.122543 -5.167817 3.42227e-18)
(6.884719 -5.322169 0)
(7.667706 -5.416496 5.126989e-18)
(8.455252 -5.444722 -4.252157e-20)
(9.232553 -5.401313 -5.385289e-20)
(10.01628 -5.29333 5.353019e-20)
(10.83825 -5.150445 -7.826425e-18)
(11.66881 -4.95371 -8.402248e-18)
(12.47542 -4.691301 0)
(13.24638 -4.357434 -3.797436e-20)
(14.0053 -3.964638 -4.868176e-18)
(14.73883 -3.511458 5.071959e-18)
(15.42689 -3.000343 0)
(16.01899 -2.431862 -5.378829e-18)
(16.51662 -1.821036 -2.156676e-20)
(16.92586 -1.177005 2.790307e-18)
(17.23235 -0.5056443 -1.390126e-18)
(17.44912 0.1848972 1.354083e-21)
(17.59521 0.8848094 -3.439195e-19)
(17.67228 1.588774 1.368846e-18)
(17.67705 2.290662 -2.090062e-20)
(17.5867 2.9799 2.089217e-20)
(17.39115 3.650245 0)
(17.142 4.308455 -4.922065e-18)
(16.84147 4.944053 -4.779096e-18)
(16.4942 5.5595 0)
(16.09664 6.138682 -8.61974e-18)
(15.64055 6.678444 8.188151e-18)
(15.15096 7.184963 7.671427e-18)
(14.61781 7.645685 2.64844e-20)
(14.04257 8.062237 -6.445612e-18)
(13.43526 8.430952 0)
(12.8002 8.751999 0)
(12.14084 9.019327 4.337191e-18)
(11.45259 9.225554 3.625152e-18)
(10.75622 9.384147 1.930131e-20)
(10.0561 9.491775 2.017625e-18)
(9.332793 9.523295 2.500987e-18)
(8.595699 9.482986 4.43274e-19)
(7.855381 9.376928 -4.241979e-19)
(7.13484 9.226441 6.145871e-21)
(6.436345 9.03007 0)
(5.754284 8.778863 -2.808364e-18)
(5.095142 8.479716 0)
(4.452273 8.111783 4.420228e-18)
(3.837195 7.689287 -4.185989e-20)
(3.263689 7.231203 -2.606958e-21)
(2.729286 6.733544 2.457935e-20)
(2.234893 6.193439 -7.297586e-18)
(1.785049 5.616333 -3.208165e-20)
(1.379376 4.993079 4.308387e-18)
(1.018798 4.317528 4.560231e-18)
(0.711573 3.613412 0)
(0.459878 2.897444 0)
(0.2672517 2.162216 5.172027e-18)
(0.1299949 1.424867 -2.036389e-22)
(0.05131331 0.728549 1.379702e-18)
(0.02791637 0.03316592 2.540576e-21)
(0.05495871 -0.7069285 -1.067388e-20)
(0.1310881 -1.442387 -2.661857e-18)
(0.267021 -2.167427 0)
(0.4614148 -2.899819 5.00018e-18)
(0.7142803 -3.624517 0)
(1.021013 -4.324519 -4.521133e-18)
(1.377481 -4.985041 4.203884e-18)
(1.782718 -5.605491 3.204268e-20)
(2.235532 -6.194087 7.280465e-18)
(2.735768 -6.748478 2.447957e-20)
(3.279299 -7.265124 -5.938268e-18)
(3.859608 -7.735779 -5.200525e-18)
(4.470084 -8.146812 3.691162e-20)
(5.109537 -8.503828 -3.60882e-18)
(5.776799 -8.812978 2.785891e-18)
(6.470892 -9.078657 -1.198766e-20)
(7.175537 -9.280341 6.270719e-21)
(7.89001 -9.422138 3.17349e-19)
(8.612724 -9.506066 0)
(9.34315 -9.532999 2.594113e-18)
(10.0855 -9.515927 2.069993e-18)
(10.80961 -9.429942 7.488665e-20)
(11.5056 -9.271375 -3.723901e-18)
(12.17415 -9.047218 0)
(12.82448 -8.769569 0)
(13.46414 -8.450467 0)
(14.08255 -8.085721 0)
(14.66401 -7.672107 7.106681e-18)
(15.20248 -7.210405 7.74714e-18)
(15.69972 -6.704402 4.490257e-20)
(16.15279 -6.162203 -8.789596e-18)
(16.53818 -5.57662 -4.594409e-18)
(16.86043 -4.955586 -4.852338e-18)
(17.12632 -4.311785 3.835519e-20)
(17.32132 -3.646066 5.157323e-18)
(17.45175 -2.963653 2.704269e-18)
(17.531 -2.271222 -2.100875e-20)
(17.55122 -1.574269 -5.382654e-21)
(17.49869 -0.8763499 3.526658e-19)
(17.37557 -0.1824662 -6.900126e-19)
(17.16652 0.5012507 -1.624157e-20)
(16.84812 1.167664 1.084723e-20)
(16.4305 1.810437 2.715138e-18)
(15.9631 2.425547 2.115809e-20)
(15.42455 2.998817 0)
(14.7869 3.514905 -5.00257e-18)
(14.09244 3.974495 -4.941042e-18)
(13.35423 4.37285 6.486691e-20)
(12.58628 4.711626 8.827105e-18)
(11.75648 4.970313 -8.353269e-18)
(10.83776 5.129548 0)
(9.892227 5.214169 0)
(8.966011 5.245994 -6.545683e-18)
(8.116073 5.256563 0)
(7.358336 5.250693 3.608452e-20)
(6.677821 5.223521 -4.232244e-18)
(6.022843 5.133446 -3.33977e-18)
(5.364061 4.968235 1.530267e-20)
(4.743521 4.77281 -2.987715e-18)
(4.178883 4.566482 -9.03497e-21)
(3.655402 4.344167 -7.101104e-19)
(3.170372 4.110449 -1.271114e-18)
(2.690909 3.814636 -2.138609e-18)
(2.251348 3.519678 -3.021414e-18)
(1.86525 3.219694 0)
(1.538267 2.933537 1.321029e-20)
(1.249261 2.635816 5.621193e-18)
(0.9994606 2.350773 0)
(0.7956075 2.103086 -7.243632e-18)
(0.6233791 1.86882 6.159513e-20)
(0.4745968 1.641557 -3.205463e-20)
(0.3470166 1.402169 -4.561708e-18)
(0.2414398 1.165529 8.076665e-22)
(0.158358 0.9486273 0)
(0.09602081 0.7499018 -2.581165e-18)
(0.04998173 0.5436555 -2.061665e-20)
(0.0169898 0.3069281 -5.338934e-21)
(-0.001106967 0.07296234 5.3411e-21)
(0.04856703 -0.3934378 5.738608e-19)
(0.1140816 -1.140801 -1.114689e-18)
(0.2389639 -1.896408 0)
(0.4213475 -2.622716 -2.075872e-18)
(0.6592305 -3.318838 0)
(0.951436 -3.989078 -7.583785e-18)
(1.30189 -4.649298 -2.692777e-20)
(1.714876 -5.293463 2.646198e-20)
(2.171955 -5.899959 6.062501e-18)
(2.668339 -6.450831 5.499759e-18)
(3.222728 -6.982186 0)
(3.822839 -7.500449 -3.091885e-20)
(4.462943 -7.96135 4.844049e-21)
(5.164673 -8.399677 2.944472e-18)
(5.930663 -8.825429 4.533928e-18)
(6.73224 -9.199795 -1.540539e-18)
(7.556938 -9.510082 8.327572e-19)
(8.394515 -9.751073 3.952956e-21)
(9.238642 -9.921382 0)
(10.09793 -10.03215 0)
(10.9718 -10.09007 0)
(11.85179 -10.08869 2.447507e-18)
(12.71929 -10.01817 2.685413e-20)
(13.5625 -9.87171 -2.659684e-20)
(14.36143 -9.65068 3.571503e-20)
(15.11697 -9.359212 -3.54019e-20)
(15.85976 -9.003033 0)
(16.59925 -8.605637 0)
(17.32242 -8.152621 1.257099e-17)
(17.99987 -7.643235 5.419965e-20)
(18.60991 -7.07383 -5.400516e-20)
(19.13715 -6.448974 3.714283e-18)
(19.57025 -5.774378 3.860217e-18)
(19.91161 -5.058108 -3.171077e-20)
(20.18343 -4.316695 -4.084469e-18)
(20.40793 -3.553027 2.124947e-18)
(20.58073 -2.770849 1.70102e-22)
(20.70173 -1.971773 1.060501e-18)
(20.7612 -1.1574 0)
(20.74132 -0.3365585 2.729417e-19)
(20.649 0.4869543 2.148706e-18)
(20.49531 1.305811 2.142673e-18)
(20.28082 2.107808 2.09152e-18)
(20.01479 2.894239 -6.316028e-20)
(19.69742 3.667931 4.017413e-18)
(19.32745 4.414179 -3.001063e-20)
(18.89704 5.12379 0)
(18.4046 5.789172 6.943003e-18)
(17.85812 6.418091 0)
(17.27691 7.010339 -4.546379e-20)
(16.65754 7.552913 4.562766e-20)
(15.9987 8.046249 5.186558e-18)
(15.30581 8.484013 -3.358889e-20)
(14.58061 8.864932 4.049531e-18)
(13.82776 9.18568 -3.511678e-18)
(13.05111 9.443029 0)
(12.26097 9.646102 1.490476e-20)
(11.46086 9.787723 -1.667529e-18)
(10.64141 9.849889 -1.924999e-18)
(9.806761 9.833329 0)
(8.976251 9.755569 3.396092e-19)
(8.167303 9.627773 1.056175e-20)
(7.382798 9.446283 -1.70702e-18)
(6.618216 9.204901 -2.067859e-20)
(5.873145 8.901062 2.090519e-20)
(5.151406 8.529074 -3.599916e-18)
(4.459627 8.101079 4.234456e-18)
(3.811708 7.628762 0)
(3.20642 7.114102 0)
(2.646007 6.553284 -1.753602e-20)
(2.132964 5.945866 0)
(1.669465 5.28747 0)
(1.256655 4.575326 0)
(0.901812 3.830862 -3.967993e-18)
(0.6064478 3.075561 3.150466e-20)
(0.3827305 2.297244 1.70537e-20)
(0.2167839 1.516713 -8.455302e-21)
(0.1169875 0.7751874 -1.134818e-18)
(0.09232708 0.03133355 4.592271e-21)
(0.1276383 -0.7565937 -1.130892e-18)
(0.216931 -1.537708 2.17386e-18)
(0.3813886 -2.305982 1.670975e-20)
(0.609312 -3.080588 -4.061103e-18)
(0.9033196 -3.846654 -6.130774e-20)
(1.257232 -4.588937 3.753571e-18)
(1.666664 -5.286846 -3.497942e-18)
(2.132176 -5.939568 0)
(2.647117 -6.555316 -1.190089e-17)
(3.21311 -7.126231 -4.017042e-20)
(3.828579 -7.65805 4.825418e-18)
(4.485227 -8.147698 4.242062e-18)
(5.175519 -8.572497 0)
(5.896036 -8.933039 0)
(6.644509 -9.241589 0)
(7.418888 -9.492641 -1.024903e-20)
(8.213478 -9.681174 1.018691e-20)
(9.021939 -9.808114 -3.429428e-19)
(9.836789 -9.86883 5.15289e-21)
(10.66041 -9.865979 -1.037911e-18)
(11.49025 -9.808233 -7.058904e-20)
(12.31008 -9.684531 4.619712e-18)
(13.10377 -9.48536 2.915405e-18)
(13.86633 -9.21351 -2.502943e-20)
(14.60903 -8.880727 4.012455e-18)
(15.33466 -8.500129 3.383462e-20)
(16.03973 -8.064356 -4.217923e-20)
(16.71313 -7.576562 4.19713e-20)
(17.34607 -7.035854 4.936384e-20)
(17.93734 -6.446972 6.599552e-18)
(18.48203 -5.816289 -5.248717e-20)
(18.96692 -5.143629 0)
(19.38698 -4.42885 0)
(19.74081 -3.67556 0)
(20.0265 -2.898162 0)
(20.24335 -2.104506 1.65297e-20)
(20.39185 -1.297563 -1.652095e-20)
(20.48777 -0.482794 1.070977e-18)
(20.53996 0.3345885 4.224062e-21)
(20.55396 1.151821 0)
(20.53494 1.961422 -1.094812e-18)
(20.46935 2.758673 2.154816e-18)
(20.32911 3.541538 -2.104203e-18)
(20.10494 4.306264 3.174252e-20)
(19.8143 5.043938 -4.031151e-18)
(19.44517 5.754338 8.491388e-20)
(18.99449 6.424581 0)
(18.47565 7.049011 7.129177e-18)
(17.89997 7.625554 -1.340611e-17)
(17.28032 8.148761 -6.09537e-18)
(16.61205 8.608583 -3.82128e-21)
(15.90626 9.007808 -8.323998e-20)
(15.1696 9.349782 3.966419e-20)
(14.40559 9.640594 0)
(13.60857 9.868453 3.645386e-18)
(12.76762 10.02396 3.077478e-18)
(11.87625 10.08112 5.287147e-21)
(10.93237 10.03875 -1.703586e-18)
(9.985093 9.929478 2.134916e-18)
(9.080645 9.778418 3.6172e-19)
(8.235508 9.603814 -4.506266e-20)
(7.453334 9.417762 9.355947e-19)
(6.704718 9.174041 1.007111e-20)
(5.9732 8.8882 2.294754e-18)
(5.252702 8.519388 -2.545531e-20)
(4.547762 8.07437 -3.08537e-20)
(3.86385 7.55217 5.326403e-20)
(3.226288 6.994112 0)
(2.66018 6.436517 0)
(2.15854 5.869509 6.088536e-18)
(1.707644 5.283388 0)
(1.305544 4.650506 7.112433e-18)
(0.952408 3.977204 -3.790166e-18)
(0.6531671 3.288003 3.167882e-20)
(0.4146833 2.596354 -3.195888e-20)
(0.2378466 1.892132 -2.165917e-18)
(0.1181696 1.13955 1.130513e-18)
(0.04996703 0.3505996 5.558622e-19)
(0.139247 -0.4933729 -4.613704e-19)
(0.2224009 -1.436721 9.002922e-19)
(0.3766257 -2.369411 -2.69588e-20)
(0.5992415 -3.255043 1.709036e-18)
(0.888328 -4.099722 0)
(1.241618 -4.906695 6.12976e-18)
(1.65704 -5.678174 4.351909e-20)
(2.132494 -6.392777 -2.698388e-18)
(2.641648 -7.025254 -4.887214e-18)
(3.193635 -7.592888 -4.43351e-18)
(3.805867 -8.129481 -3.992478e-18)
(4.452919 -8.638949 2.878825e-20)
(5.156908 -9.115957 0)
(5.921014 -9.560234 0)
(6.713026 -9.937934 -1.80896e-18)
(7.504039 -10.22024 -1.340688e-18)
(8.289613 -10.40485 -7.816625e-19)
(9.07629 -10.50628 -7.297232e-21)
(9.869421 -10.53636 0)
(10.66795 -10.49717 8.800357e-19)
(11.45886 -10.39295 1.41028e-18)
(12.23339 -10.22244 -2.008849e-18)
(12.98434 -9.988686 0)
(13.70746 -9.684279 2.95791e-18)
(14.39505 -9.318616 0)
(15.05899 -8.902743 -3.864271e-18)
(15.73696 -8.44458 0)
(16.40633 -7.95905 -4.756854e-18)
(17.049 -7.423348 -1.024582e-17)
(17.6452 -6.844525 0)
(18.17916 -6.21335 0)
(18.63724 -5.532769 -5.139298e-20)
(19.02607 -4.813376 -3.225614e-18)
(19.35383 -4.067444 3.278808e-18)
(19.64344 -3.302303 6.830083e-18)
(19.89062 -2.523973 -1.76122e-18)
(20.08005 -1.734507 1.757277e-18)
(20.2084 -0.9361889 -8.988312e-19)
(20.26933 -0.1337774 0)
(20.25548 0.661105 0)
(20.17541 1.447656 -1.782691e-18)
(20.03217 2.227124 -1.789124e-18)
(19.81631 2.984964 -3.396838e-18)
(19.53383 3.723199 3.267919e-18)
(19.20566 4.455374 7.498767e-20)
(18.83014 5.153085 -4.934713e-20)
(18.39281 5.823332 0)
(17.89693 6.443919 0)
(17.34942 7.02811 5.23788e-18)
(16.76931 7.576203 -4.905814e-18)
(16.15438 8.073446 0)
(15.50149 8.524933 0)
(14.81834 8.920345 5.485313e-20)
(14.10431 9.260845 -3.375202e-18)
(13.36564 9.5407 0)
(12.60616 9.757149 -2.254938e-18)
(11.83424 9.922591 -1.754765e-18)
(11.05626 10.02725 -1.232045e-18)
(10.2637 10.05061 7.508958e-19)
(9.455621 9.998051 1.108894e-21)
(8.651226 9.889458 -3.737778e-19)
(7.867636 9.735891 0)
(7.110982 9.530503 1.397731e-18)
(6.37736 9.265929 3.440291e-20)
(5.662893 8.94148 7.868207e-21)
(4.976165 8.54811 -3.059416e-18)
(4.314741 8.104361 0)
(3.6962 7.619528 -4.02538e-18)
(3.119261 7.095253 -3.65039e-20)
(2.588993 6.526049 4.946198e-18)
(2.103152 5.913632 2.68366e-18)
(1.666315 5.252364 -2.880193e-18)
(1.277983 4.539396 -3.067144e-18)
(0.942796 3.796533 3.230636e-18)
(0.6610207 3.046203 -3.389944e-18)
(0.452999 2.272664 -1.713657e-18)
(0.2904623 1.498277 3.580992e-18)
(0.1880755 0.7644472 1.85877e-18)
(0.1694071 0.0280019 3.762104e-21)
(0.2070106 -0.7489904 9.378836e-19)
(0.2883993 -1.5211 -1.412001e-20)
(0.4499633 -2.283077 0)
(0.6684747 -3.054378 -2.583001e-20)
(0.9483493 -3.81786 -2.37843e-20)
(1.281271 -4.559041 -2.967231e-18)
(1.664449 -5.2575 5.74729e-18)
(2.106098 -5.911088 -2.683087e-18)
(2.592747 -6.531267 4.820432e-18)
(3.129245 -7.109061 3.637569e-20)
(3.716516 -7.650306 0)
(4.340867 -8.154433 3.507378e-18)
(4.997399 -8.595887 4.267995e-20)
(5.686534 -8.973426 -2.524476e-18)
(6.404053 -9.302377 0)
(7.147874 -9.577254 -1.395762e-18)
(7.914556 -9.79167 0)
(8.69468 -9.947963 -4.631001e-20)
(9.481389 -10.0396 2.108513e-19)
(10.28182 -10.06647 0)
(11.08741 -10.0444 -1.340682e-18)
(11.88407 -9.96037 -1.876165e-18)
(12.65653 -9.80284 -2.387912e-18)
(13.40066 -9.572159 0)
(14.13075 -9.278411 -6.671695e-18)
(14.84659 -8.93889 5.525905e-20)
(15.54403 -8.544895 0)
(16.21118 -8.10168 0)
(16.83949 -7.606085 0)
(17.42959 -7.061293 5.285342e-18)
(17.97536 -6.475175 -5.629779e-18)
(18.46433 -5.847268 0)
(18.88998 -5.178173 0)
(19.24823 -4.475868 3.185155e-18)
(19.53951 -3.746617 2.586423e-20)
(19.76465 -2.995885 0)
(19.927 -2.225951 0)
(20.03155 -1.445588 -1.77761e-18)
(20.08461 -0.657362 2.218211e-19)
(20.09104 0.1367748 0)
(20.05405 0.9307961 8.857147e-19)
(19.96381 1.723873 1.448081e-20)
(19.80502 2.51288 2.648859e-20)
(19.57327 3.290742 -2.694725e-20)
(19.28504 4.045878 3.316135e-18)
(18.93766 4.776379 3.161271e-18)
(18.5215 5.48053 4.894161e-20)
(18.05229 6.150813 4.410348e-20)
(17.53275 6.786199 5.524976e-18)
(16.98271 7.384109 5.116414e-18)
(16.40606 7.947135 0)
(15.78878 8.465792 4.305954e-18)
(15.14604 8.94644 0)
(14.47762 9.388059 -5.003116e-20)
(13.78395 9.772441 -2.955068e-18)
(13.06062 10.09073 3.400729e-20)
(12.31364 10.32039 -3.41268e-20)
(11.51308 10.45096 1.403321e-18)
(10.65041 10.47206 -8.466674e-19)
(9.764635 10.40016 -2.940868e-19)
(8.89598 10.27514 2.646294e-19)
(8.0835 10.14252 8.447252e-19)
(7.34491 10.00119 0)
(6.62639 9.833584 4.413436e-20)
(5.932176 9.598815 0)
(5.240665 9.264184 2.92952e-18)
(4.547849 8.813692 -3.442046e-18)
(3.862871 8.263875 0)
(3.219124 7.651064 0)
(2.637053 7.008817 -9.827886e-18)
(2.113567 6.34987 2.666975e-18)
(1.652564 5.652268 -5.745769e-18)
(1.242629 4.89007 2.442995e-20)
(0.8835103 4.066021 -2.475208e-20)
(0.5892175 3.208632 0)
(0.3714437 2.344557 1.746089e-18)
(0.228357 1.435602 -1.798281e-18)
(0.1424126 0.454206 -4.609205e-19)
(0.2523066 -0.4824437 7.542126e-19)
(0.3327234 -1.399667 2.284148e-20)
(0.4759824 -2.300289 -2.250774e-20)
(0.6831244 -3.150004 4.24851e-20)
(0.9565111 -3.958734 -4.209036e-20)
(1.290959 -4.726576 -2.519582e-18)
(1.677933 -5.450408 3.588551e-20)
(2.11618 -6.110345 2.218716e-18)
(2.582039 -6.688479 -6.574185e-20)
(3.095508 -7.214077 3.645503e-18)
(3.674747 -7.713965 3.33769e-20)
(4.282446 -8.18824 0)
(4.949936 -8.639767 0)
(5.670817 -9.061658 2.045714e-18)
(6.407173 -9.415199 1.593555e-18)
(7.141034 -9.683526 2.25286e-18)
(7.874487 -9.869245 6.423036e-19)
(8.618048 -9.989662 0)
(9.375141 -10.0556 0)
(10.14469 -10.06541 -1.406943e-18)
(10.91748 -10.0241 -2.284122e-18)
(11.68967 -9.929768 2.800705e-20)
(12.45297 -9.784508 -6.250954e-20)
(13.20233 -9.577644 -4.803389e-18)
(13.92454 -9.312934 -2.774941e-18)
(14.62353 -8.992681 3.254037e-18)
(15.33748 -8.614095 3.494443e-18)
(16.04497 -8.210574 3.781157e-18)
(16.73937 -7.761527 4.272663e-18)
(17.39378 -7.272992 0)
(17.99259 -6.730334 -7.594585e-20)
(18.52437 -6.141117 -4.988036e-18)
(18.98616 -5.500838 3.801124e-20)
(19.37993 -4.816071 -1.198446e-20)
(19.71477 -4.084083 -2.793993e-18)
(19.99329 -3.333958 -1.380177e-18)
(20.2143 -2.566504 -4.970377e-20)
(20.36808 -1.783809 -7.159113e-19)
(20.44784 -0.985183 -3.561366e-19)
(20.44675 -0.1818365 -2.820304e-21)
(20.37226 0.6303375 0)
(20.23623 1.4397 -2.184294e-20)
(20.03081 2.224552 1.423471e-18)
(19.75848 2.988018 -5.379413e-18)
(19.44025 3.748191 3.97837e-20)
(19.07573 4.462742 -2.512643e-18)
(18.64767 5.159026 -7.2739e-20)
(18.15868 5.804452 -4.490321e-18)
(17.6155 6.418896 -3.110711e-20)
(17.03888 7.002002 4.045984e-18)
(16.42883 7.528829 -3.642885e-18)
(15.77975 8.010831 0)
(15.09862 8.43558 4.37631e-20)
(14.3833 8.808079 -4.405341e-20)
(13.64164 9.119739 0)
(12.87709 9.368374 1.857945e-18)
(12.09862 9.564936 6.985341e-20)
(11.31135 9.700444 1.028038e-18)
(10.50803 9.753286 -5.276801e-19)
(9.69015 9.725815 -8.15282e-20)
(8.872544 9.643383 3.067155e-19)
(8.077961 9.513998 7.919776e-19)
(7.31184 9.33123 -2.212965e-20)
(6.567476 9.088917 2.234074e-20)
(5.841513 8.785924 0)
(5.143067 8.411988 2.480241e-18)
(4.469194 7.986316 -4.84341e-20)
(3.839056 7.51758 3.357793e-18)
(3.250491 7.008011 3.642331e-18)
(2.711676 6.450751 -3.997674e-18)
(2.217658 5.848915 -2.204186e-18)
(1.774438 5.197041 -4.053448e-21)
(1.380557 4.492288 2.517417e-18)
(1.041612 3.756275 4.211342e-20)
(0.7536846 3.014647 2.717772e-18)
(0.5470717 2.249076 2.248796e-20)
(0.3817469 1.482896 -1.497354e-18)
(0.2728609 0.7578996 -7.581175e-19)
(0.258281 0.03131196 -9.368994e-23)
(0.2991412 -0.7383381 7.452218e-19)
(0.3794609 -1.511317 1.158074e-20)
(0.5458078 -2.272236 -1.427098e-18)
(0.7666611 -3.036305 2.757228e-18)
(1.050504 -3.787104 0)
(1.385523 -4.515197 -2.730247e-21)
(1.771471 -5.201009 -2.362631e-18)
(2.219871 -5.84242 2.267834e-18)
(2.712112 -6.451817 -4.113501e-18)
(3.259779 -7.016048 5.476956e-20)
(3.860365 -7.542998 -5.430416e-20)
(4.493682 -8.033608 -2.883301e-18)
(5.162236 -8.457058 0)
(5.866344 -8.813662 2.070508e-18)
(6.59282 -9.124599 -5.043041e-20)
(7.348111 -9.378123 -2.032739e-20)
(8.12832 -9.568441 7.530866e-19)
(8.91929 -9.700041 2.789172e-19)
(9.714551 -9.765356 -5.010316e-20)
(10.52222 -9.764663 5.57367e-19)
(11.33687 -9.712822 -1.243515e-20)
(12.14203 -9.599341 -1.424909e-18)
(12.92338 -9.410782 0)
(13.6767 -9.14731 2.236875e-18)
(14.41124 -8.823743 2.695634e-18)
(15.12797 -8.454164 2.932367e-18)
(15.82497 -8.028097 -3.2803e-18)
(16.48973 -7.554015 3.660679e-18)
(17.11491 -7.026829 0)
(17.70021 -6.449953 -8.61671e-18)
(18.24006 -5.835363 9.258495e-18)
(18.72278 -5.179231 -1.119255e-19)
(19.14092 -4.484306 -2.493262e-18)
(19.49269 -3.760697 -2.609554e-18)
(19.7788 -3.006312 0)
(19.99652 -2.232289 1.406248e-18)
(20.14802 -1.439983 -1.431893e-18)
(20.24002 -0.6363246 7.333837e-19)
(20.2779 0.172516 -1.8871e-19)
(20.26738 0.9833567 -3.708436e-19)
(20.21081 1.783065 1.128499e-20)
(20.09375 2.563316 -1.449959e-18)
(19.90096 3.327808 2.704765e-20)
(19.63769 4.078118 0)
(19.30636 4.801495 0)
(18.89984 5.479632 -7.863588e-20)
(18.42405 6.120163 7.900082e-20)
(17.89399 6.712964 0)
(17.31586 7.268816 0)
(16.70527 7.774496 0)
(16.06446 8.231881 3.748067e-18)
(15.39478 8.650915 -7.04477e-18)
(14.70578 9.030725 3.170342e-18)
(14.00018 9.365361 -2.711799e-18)
(13.27656 9.634861 -7.438896e-20)
(12.52585 9.841314 1.940061e-18)
(11.76314 9.96967 1.524171e-18)
(10.96695 10.02459 1.317554e-20)
(10.1298 10.0021 -7.187347e-21)
(9.28122 9.910089 -6.158117e-21)
(8.447596 9.775091 7.90529e-21)
(7.663499 9.632547 -7.170843e-19)
(6.961367 9.477449 0)
(6.282305 9.301346 -1.580834e-18)
(5.646327 9.077786 2.053372e-18)
(5.017825 8.773516 -2.486251e-18)
(4.388193 8.369558 0)
(3.7553 7.869381 0)
(3.148694 7.294995 6.03132e-20)
(2.594656 6.684512 4.06384e-18)
(2.098365 6.063117 -2.26357e-18)
(1.671098 5.417769 2.365866e-18)
(1.291226 4.70867 0)
(0.9527354 3.924341 0)
(0.6712453 3.094698 0)
(0.4659149 2.263207 1.408414e-18)
(0.3394589 1.393509 7.58415e-19)
(0.2574852 0.4397418 7.533881e-19)
(0.3775226 -0.441823 -3.086554e-19)
(0.4508795 -1.275257 0)
(0.5779066 -2.097255 1.173539e-18)
(0.7623283 -2.873023 0)
(1.006794 -3.613965 2.186403e-18)
(1.308471 -4.31895 0)
(1.660416 -4.98681 0)
(2.069082 -5.607495 1.818114e-18)
(2.507012 -6.161674 3.373627e-18)
(2.990484 -6.664568 -3.062708e-18)
(3.542881 -7.143 2.728984e-18)
(4.11765 -7.602151 -2.422076e-18)
(4.754492 -8.037082 0)
(5.448152 -8.452798 -3.416677e-18)
(6.16539 -8.821524 -1.320278e-18)
(6.895834 -9.120014 -9.748051e-19)
(7.641184 -9.342203 2.421635e-20)
(8.403434 -9.495774 7.215165e-22)
(9.176013 -9.585678 -1.402187e-19)
(9.959195 -9.611539 1.065743e-18)
(10.74597 -9.582177 9.199594e-19)
(11.53685 -9.49605 4.461909e-20)
(12.31928 -9.353779 1.520856e-18)
(13.08844 -9.140471 1.970903e-18)
(13.8257 -8.859333 2.294814e-18)
(14.52805 -8.517918 0)
(15.24286 -8.110431 -7.874129e-20)
(15.94423 -7.682241 0)
(16.63106 -7.199365 3.269192e-18)
(17.27108 -6.676908 3.569425e-18)
(17.85053 -6.095074 3.914e-18)
(18.35782 -5.462415 -7.86406e-20)
(18.79147 -4.783144 6.438321e-20)
(19.1567 -4.071043 -4.345383e-18)
(19.46777 -3.338583 0)
(19.72835 -2.589632 -1.076185e-18)
(19.92972 -1.832083 -1.196362e-18)
(20.06804 -1.063957 1.174271e-18)
(20.13775 -0.2804209 2.792059e-19)
(20.12957 0.4950729 0)
(20.05032 1.266064 5.746468e-19)
(19.90928 2.037089 0)
(19.70026 2.782375 0)
(19.42436 3.507212 2.236164e-18)
(19.10607 4.23893 -3.355585e-20)
(18.74391 4.919885 4.768541e-20)
(18.31917 5.579503 -1.918956e-18)
(17.8399 6.179333 3.768356e-18)
(17.30396 6.749127 -3.487607e-18)
(16.73434 7.296507 -3.230357e-18)
(16.13744 7.779303 1.702608e-19)
(15.49944 8.228015 -8.890484e-20)
(14.8358 8.615879 -7.033705e-20)
(14.13862 8.956009 -1.935017e-18)
(13.41811 9.2369 -1.80779e-18)
(12.6758 9.455842 -3.966473e-20)
(11.91802 9.629839 1.173377e-18)
(11.1579 9.740605 0)
(10.38338 9.765773 4.343814e-19)
(9.58442 9.71635 6.709363e-20)
(8.782243 9.614847 -3.398196e-19)
(8.003894 9.470286 -6.516667e-19)
(7.255792 9.277702 0)
(6.534424 9.027626 0)
(5.830472 8.722856 -1.746786e-18)
(5.15596 8.346103 0)
(4.497032 7.92199 0)
(3.882069 7.454655 2.84509e-18)
(3.310128 6.945654 -7.552632e-20)
(2.783126 6.390295 -1.269282e-20)
(2.298776 5.790974 -5.850525e-20)
(1.866811 5.143618 3.950988e-18)
(1.484457 4.444447 0)
(1.154799 3.713358 0)
(0.8608923 2.980955 2.300633e-18)
(0.6609123 2.221881 1.134243e-18)
(0.4925717 1.466764 1.208435e-18)
(0.3759083 0.7594814 -6.212168e-19)
(0.3671062 0.05412804 0)
(0.4173159 -0.7324519 -2.732625e-22)
(0.4956854 -1.521494 3.743876e-20)
(0.6595804 -2.278843 1.132779e-18)
(0.8722897 -3.022077 -2.261022e-18)
(1.150366 -3.748529 -6.663619e-20)
(1.477149 -4.460327 2.068244e-18)
(1.855885 -5.135921 6.232529e-20)
(2.299046 -5.771698 3.633761e-18)
(2.778408 -6.379849 -1.191393e-20)
(3.313964 -6.941768 -3.135842e-18)
(3.905358 -7.466871 8.972827e-20)
(4.521234 -7.95928 0)
(5.164964 -8.387451 2.076372e-18)
(5.852456 -8.748714 0)
(6.56586 -9.065947 0)
(7.299754 -9.330256 9.794738e-19)
(8.057279 -9.530389 -1.294949e-18)
(8.824722 -9.672209 -3.310402e-21)
(9.594042 -9.751508 -4.607752e-20)
(10.38246 -9.767521 -4.53205e-19)
(11.18043 -9.741021 -7.592185e-19)
(11.96782 -9.657923 1.215032e-18)
(12.72663 -9.503558 -1.491614e-18)
(13.45488 -9.27316 -6.910117e-20)
(14.17044 -8.974485 0)
(14.86785 -8.634864 -2.540398e-18)
(15.54767 -8.240324 5.584848e-18)
(16.19551 -7.804258 -3.110217e-18)
(16.80413 -7.317907 0)
(17.37804 -6.780923 8.846805e-20)
(17.90634 -6.215693 -3.692771e-18)
(18.38078 -5.603443 -5.956288e-20)
(18.79527 -4.951367 1.128315e-19)
(19.14531 -4.260805 -6.527871e-20)
(19.4287 -3.538611 0)
(19.64523 -2.799919 -2.231771e-18)
(19.79918 -2.042413 1.113905e-18)
(19.89771 -1.273574 5.696834e-19)
(19.94522 -0.495977 -9.208696e-21)
(19.94764 0.2866811 2.982221e-19)
(19.90762 1.06221 5.820681e-19)
(19.81024 1.828902 0)
(19.63973 2.585677 1.161362e-18)
(19.39618 3.334147 -6.916588e-20)
(19.09138 4.050918 2.207167e-18)
(18.7132 4.751969 0)
(18.26447 5.424083 0)
(17.75858 6.053036 0)
(17.19961 6.647849 5.429425e-20)
(16.6049 7.194179 3.2504e-18)
(15.97164 7.693823 -3.241163e-18)
(15.30398 8.145093 2.976464e-18)
(14.61013 8.550765 -5.083275e-18)
(13.89169 8.908542 2.276491e-18)
(13.1468 9.193375 0)
(12.36237 9.407002 -1.599159e-18)
(11.56232 9.523644 -1.238519e-18)
(10.73097 9.554081 8.313046e-19)
(9.882818 9.509152 -2.047963e-20)
(9.049004 9.405201 2.774478e-21)
(8.237848 9.270543 -2.80572e-21)
(7.469615 9.135313 0)
(6.775676 8.973653 1.012152e-18)
(6.089905 8.785755 -4.777637e-20)
(5.45121 8.533983 -3.382514e-18)
(4.82084 8.198378 2.130144e-18)
(4.206812 7.769876 -1.50449e-19)
(3.606819 7.26903 2.840264e-18)
(3.041403 6.719462 0)
(2.52089 6.145634 3.380505e-18)
(2.04997 5.564214 -1.884411e-18)
(1.654627 4.961297 1.222116e-19)
(1.310187 4.300759 -2.212449e-18)
(1.005283 3.57532 1.017325e-19)
(0.7495781 2.81482 -3.500992e-20)
(0.5647779 2.058333 -1.175357e-18)
(0.4599468 1.263808 9.457439e-21)
(0.3845661 0.3912125 -9.753284e-21)
(0.5143236 -0.4119255 -1.571997e-20)
(0.5867547 -1.18502 -4.785836e-19)
(0.6994921 -1.957717 -9.625349e-19)
(0.8650629 -2.689245 9.322148e-19)
(1.097469 -3.386967 -1.796539e-18)
(1.385356 -4.052586 0)
(1.718528 -4.693079 -1.516196e-18)
(2.104529 -5.312785 -1.5924e-18)
(2.519655 -5.880888 -2.776622e-18)
(2.980955 -6.385008 0)
(3.529115 -6.853717 0)
(4.092684 -7.30787 1.99422e-18)
(4.719374 -7.732243 4.970062e-20)
(5.407709 -8.147042 1.368652e-18)
(6.121312 -8.536566 1.14309e-18)
(6.84777 -8.868942 8.464193e-19)
(7.589094 -9.128984 -5.398047e-19)
(8.344801 -9.31558 2.320585e-19)
(9.107419 -9.431257 1.09124e-19)
(9.883884 -9.480009 -4.095983e-19)
(10.66581 -9.479218 0)
(11.45506 -9.427834 0)
(12.23327 -9.326209 -1.287551e-18)
(12.99631 -9.156028 0)
(13.72696 -8.917944 -5.980015e-20)
(14.41518 -8.621387 -7.685877e-21)
(15.13081 -8.236417 -2.168071e-18)
(15.83276 -7.842471 -7.394551e-20)
(16.52379 -7.401042 -8.308992e-20)
(17.1669 -6.934532 -2.939634e-18)
(17.75217 -6.41185 -9.088553e-20)
(18.26576 -5.849769 1.642304e-18)
(18.70861 -5.232487 -5.347344e-20)
(19.0831 -4.572715 1.876612e-18)
(19.40302 -3.862119 -5.5442e-20)
(19.67758 -3.123798 3.667241e-18)
(19.89886 -2.371676 2.896301e-20)
(20.05271 -1.59979 -1.337436e-20)
(20.13541 -0.8164836 -4.6281e-19)
(20.1402 -0.04539764 -3.675701e-21)
(20.07215 0.7306235 -4.733484e-19)
(19.94471 1.514733 -2.844747e-20)
(19.7483 2.276837 -8.628307e-19)
(19.48007 3.016943 1.71911e-18)
(19.16804 3.780744 -1.666922e-18)
(18.81716 4.48681 3.138222e-18)
(18.40216 5.173897 1.679254e-18)
(17.92692 5.798785 0)
(17.3888 6.393629 0)
(16.81607 6.966563 2.616396e-18)
(16.21521 7.47003 2.407123e-18)
(15.57297 7.937454 0)
(14.90988 8.338353 -5.55537e-20)
(14.21112 8.695488 1.756399e-18)
(13.48583 8.999645 1.437482e-18)
(12.74264 9.234232 1.089609e-18)
(11.99069 9.417026 -2.219754e-20)
(11.2336 9.544283 -5.251536e-19)
(10.45636 9.589933 4.272201e-21)
(9.660277 9.547099 -4.310879e-21)
(8.860757 9.446315 2.930764e-19)
(8.077005 9.306487 -6.251855e-19)
(7.317853 9.126462 0)
(6.602834 8.881256 0)
(5.903397 8.591258 2.849131e-18)
(5.240289 8.225551 -8.185476e-21)
(4.585513 7.812915 -7.783859e-21)
(3.98429 7.348755 -2.194099e-18)
(3.41876 6.843033 -4.950874e-18)
(2.883218 6.298839 2.572686e-18)
(2.400461 5.707685 -2.902367e-18)
(1.975476 5.072296 -1.545985e-18)
(1.60719 4.388144 -5.178201e-20)
(1.288671 3.668148 0)
(0.9863125 2.951199 -1.797075e-18)
(0.7982594 2.197137 -5.961105e-20)
(0.6191785 1.445825 -1.005388e-18)
(0.493926 0.7640925 5.32732e-19)
(0.5000634 0.08959415 8.305048e-24)
(0.5677872 -0.7424836 -5.308683e-19)
(0.6257534 -1.541895 4.615855e-20)
(0.7861616 -2.270702 -9.876152e-19)
(0.9901742 -2.977336 1.853518e-18)
(1.265472 -3.682375 -1.839534e-18)
(1.589238 -4.386971 2.34179e-21)
(1.963944 -5.056918 1.651003e-18)
(2.413013 -5.686306 -2.890118e-18)
(2.884599 -6.292381 2.730787e-18)
(3.410246 -6.84839 2.342656e-18)
(4.001656 -7.360781 7.434079e-21)
(4.62308 -7.836373 7.83297e-21)
(5.257644 -8.257492 -1.64748e-18)
(5.929715 -8.623377 1.456309e-18)
(6.647402 -8.934367 -3.138164e-20)
(7.381923 -9.188279 -8.406765e-19)
(8.130029 -9.377881 1.153592e-18)
(8.887764 -9.511556 -3.142695e-19)
(9.665971 -9.572334 -5.070837e-20)
(10.4625 -9.584985 -2.883524e-19)
(11.26696 -9.563125 1.204503e-18)
(12.06558 -9.470962 3.194631e-20)
(12.82436 -9.304117 1.161128e-18)
(13.54823 -9.050109 -1.508954e-18)
(14.25698 -8.725939 4.823538e-20)
(14.94452 -8.365941 -1.949395e-18)
(15.61978 -7.945787 -2.132507e-18)
(16.26536 -7.488933 7.750574e-20)
(16.87711 -6.975175 -2.616197e-18)
(17.45518 -6.413085 2.822293e-18)
(17.98596 -5.823052 0)
(18.45941 -5.184603 0)
(18.86579 -4.504509 1.657031e-18)
(19.20362 -3.786804 1.678549e-18)
(19.47523 -3.055182 0)
(19.6816 -2.306101 9.525952e-19)
(19.82495 -1.533574 8.86813e-19)
(19.91119 -0.7577413 -4.768801e-19)
(19.94588 0.02776609 1.131152e-19)
(19.93554 0.8267136 2.375039e-19)
(19.88319 1.608396 -4.796168e-19)
(19.77231 2.372181 0)
(19.58511 3.123802 5.676178e-20)
(19.33147 3.86334 -5.662943e-20)
(19.01898 4.551782 -1.759913e-18)
(18.62834 5.198493 0)
(18.16834 5.819721 3.169424e-18)
(17.65509 6.392831 0)
(17.08833 6.941056 0)
(16.49132 7.432933 -5.434589e-18)
(15.85572 7.87843 1.545768e-19)
(15.18679 8.291928 -2.236292e-18)
(14.49991 8.65881 1.992813e-18)
(13.79416 8.975239 1.792089e-18)