/*--------------------------------*- C++ -*----------------------------------*\
| =========                 |                                                 |
| \\      /  F ield         | OpenFOAM: The Open Source CFD Toolbox           |
|  \\    /   O peration     | Version:  2406                                  |
|   \\  /    A nd           | Website:  www.openfoam.com                      |
|    \\/     M anipulation  |                                                 |
\*---------------------------------------------------------------------------*/
FoamFile
{
    version     2.0;
    format      ascii;
    arch        "LSB;label=32;scalar=64";
    class       surfaceScalarField;
    location    "0.54";
    object      phi;
}
// * * * * * * * * * * * * * * * * * * * * * * * * * * * * * * * * * * * * * //

dimensions      [0 3 -1 0 0 0 0];

oriented        oriented;

internalField   nonuniform List<scalar> 
6749
(
5.233074e-09
4.074366e-09
-9.30744e-09
-1.803996e-09
-1.136188e-09
2.940184e-09
-6.648574e-11
-1.694303e-09
1.760789e-09
1.722558e-09
-5.75242e-10
-1.147315e-09
1.314112e-09
-1.385478e-09
7.136532e-11
-1.013997e-09
1.822648e-09
-8.086513e-10
1.238776e-09
2.416025e-10
-1.480378e-09
2.308087e-10
1.127037e-09
-1.357846e-09
-9.200578e-10
1.358121e-09
-4.380629e-10
-1.734667e-09
4.776215e-10
1.257046e-09
1.749567e-09
-1.029361e-09
-7.202065e-10
-7.818112e-10
-1.507779e-09
2.28959e-09
-2.234433e-09
-2.939522e-10
2.528385e-09
3.702112e-09
-1.245196e-09
-2.456916e-09
9.95816e-10
4.202227e-10
-1.416039e-09
-1.907839e-09
5.517469e-11
1.852664e-09
1.769419e-09
-3.751897e-11
-1.7319e-09
3.567634e-10
-1.371036e-09
1.014272e-09
-6.396598e-10
-5.679519e-10
1.207612e-09
1.828478e-09
1.162497e-10
-1.944728e-09
-7.954098e-10
1.582832e-09
-7.874219e-10
9.154234e-10
-1.80004e-09
8.846169e-10
1.536812e-09
6.063062e-10
-2.143118e-09
-1.184603e-09
2.411779e-10
9.434246e-10
9.354659e-10
9.022372e-10
-1.837703e-09
-5.776889e-10
-1.112846e-09
1.690535e-09
1.066074e-09
3.60592e-10
-1.426666e-09
3.534993e-10
9.291544e-10
-1.282654e-09
2.847692e-10
-1.373685e-09
1.088916e-09
1.301699e-09
1.630371e-10
-1.464736e-09
-3.311132e-09
1.905075e-09
1.406056e-09
1.463531e-09
2.238581e-09
-1.486517e-09
2.698232e-09
-1.211715e-09
-1.683758e-09
1.037326e-09
6.464319e-10
-8.072357e-10
-1.454432e-09
2.261668e-09
4.856996e-09
-1.022136e-08
5.364362e-09
7.496867e-11
-1.478566e-09
1.403598e-09
-1.731546e-09
1.912174e-09
-1.806275e-10
-9.656955e-10
2.881318e-09
-1.915623e-09
9.851346e-10
7.173559e-10
-1.70249e-09
6.671022e-09
-1.814026e-09
7.397412e-10
8.290829e-10
-1.568824e-09
6.519726e-10
-3.017769e-09
2.365796e-09
4.619447e-09
2.446237e-09
-7.065684e-09
1.366109e-09
-2.652056e-09
1.285947e-09
-1.01617e-09
-7.184977e-10
4.319392e-10
-1.937825e-09
1.505886e-09
-5.661999e-11
-1.107036e-09
1.163656e-09
-1.709849e-09
1.715033e-09
-5.183871e-12
4.90181e-10
-1.832095e-09
1.341914e-09
1.590712e-09
-5.659222e-10
-1.02479e-09
1.760136e-09
3.377773e-09
-5.137909e-09
-1.416646e-09
-4.160017e-10
-1.192167e-09
-8.121564e-10
2.004324e-09
-4.605083e-10
1.858657e-09
-1.398149e-09
7.472257e-10
8.268446e-10
-1.57407e-09
6.405338e-09
-5.029245e-09
-1.376093e-09
1.952607e-09
2.225018e-10
-2.175109e-09
-9.480686e-10
1.20558e-09
-2.575112e-10
-2.771189e-10
1.806532e-09
-1.529413e-09
6.676053e-10
-1.700958e-09
1.033353e-09
-5.691445e-10
-1.074084e-09
1.643229e-09
-2.575709e-10
-1.470736e-09
1.728306e-09
-8.102333e-10
5.970076e-10
2.132257e-10
-9.021743e-10
1.334047e-09
-4.318723e-10
-6.34291e-10
-1.085893e-09
1.720184e-09
1.280227e-09
2.023097e-10
-1.482537e-09
-5.775258e-11
-2.063507e-09
2.12126e-09
-1.858226e-09
2.436076e-09
-5.778497e-10
1.423362e-10
1.227702e-09
-1.370038e-09
6.21684e-10
-1.865167e-09
1.243483e-09
1.468711e-09
5.799418e-10
-2.048653e-09
3.182669e-10
-1.320073e-09
1.001806e-09
-5.210374e-10
-1.23863e-09
1.759667e-09
1.184085e-09
4.67863e-10
-1.651948e-09
8.966329e-10
-1.723134e-09
8.265014e-10
2.118462e-09
-1.036328e-09
-1.082135e-09
6.384857e-10
-1.070803e-09
1.831868e-09
-1.104322e-09
-7.275464e-10
3.655871e-09
-2.773907e-09
-8.81964e-10
-6.503971e-11
1.781127e-09
-1.716087e-09
-1.862941e-09
1.11316e-09
7.497819e-10
1.77595e-09
-1.050893e-09
-7.250562e-10
-1.207954e-09
1.525308e-09
-3.17354e-10
-4.243469e-09
4.581392e-10
3.78533e-09
-3.753112e-10
1.686521e-09
-1.31121e-09
-1.693072e-09
3.911015e-10
1.30197e-09
-1.040153e-09
-4.138353e-10
1.453989e-09
1.437024e-09
-1.899805e-09
4.627807e-10
-1.880141e-09
3.735285e-10
1.506613e-09
6.746086e-09
-7.091346e-09
3.452596e-10
1.214468e-09
1.42573e-10
-1.357041e-09
8.870179e-10
8.705836e-10
-1.757602e-09
-1.955769e-09
1.932123e-09
2.364647e-11
-8.362349e-11
-1.674276e-09
1.7579e-09
1.6286e-09
-9.673341e-10
-1.020858e-09
1.872491e-09
-8.516337e-10
2.266736e-09
-3.341714e-09
1.074978e-09
-7.807849e-10
-7.092034e-10
1.489988e-09
-3.582989e-10
-1.126406e-09
1.484705e-09
-2.241241e-09
9.031402e-10
1.3381e-09
-1.389481e-09
-7.11841e-09
8.507892e-09
1.248945e-09
-1.7672e-09
5.182545e-10
-1.821699e-09
9.756376e-10
8.460615e-10
-3.919024e-11
7.129712e-09
-7.090522e-09
-1.202796e-09
-5.799244e-10
1.782721e-09
-9.053607e-10
-7.413006e-10
2.177099e-09
-6.246803e-09
4.069704e-09
2.202679e-10
-1.545578e-09
1.32531e-09
-2.192077e-09
8.698788e-10
1.322198e-09
1.075473e-09
-1.900095e-09
8.246217e-10
3.757354e-09
1.715893e-09
-5.473247e-09
1.643431e-09
-3.832305e-09
2.188873e-09
-8.985882e-10
-7.515315e-10
-1.998528e-09
2.565109e-09
-5.665804e-10
-1.324664e-09
1.073922e-10
1.217272e-09
6.226806e-10
1.130769e-09
-1.753449e-09
1.487779e-09
1.276031e-10
-1.615382e-09
4.85833e-10
1.223568e-09
-1.709401e-09
-9.564072e-10
-8.760274e-10
1.832435e-09
-5.129639e-09
5.10391e-09
2.572908e-11
-1.886741e-09
-8.95198e-10
2.781939e-09
-2.909864e-10
1.842903e-09
-1.551916e-09
-1.651556e-09
2.073598e-10
1.444196e-09
2.038981e-09
-1.101718e-09
-9.372624e-10
2.077662e-09
-2.755089e-10
-1.802154e-09
-3.800722e-10
1.242989e-09
-8.629173e-10
-4.001388e-10
1.315017e-09
-9.148785e-10
-1.653953e-09
2.441625e-09
-7.876716e-10
2.864215e-10
-1.188596e-09
4.819349e-10
-1.523486e-09
1.041552e-09
1.512968e-09
-1.29338e-09
-2.195881e-10
-1.31242e-09
2.631557e-10
1.049265e-09
-1.423906e-09
2.045716e-09
-6.218095e-10
-1.187582e-09
-4.631222e-10
1.650704e-09
9.831721e-10
3.245189e-10
-1.307691e-09
6.964145e-10
1.452885e-09
-2.1493e-09
4.636057e-10
-1.586853e-09
1.123248e-09
1.259674e-09
-1.412361e-09
1.526868e-10
1.130968e-09
-2.003849e-09
8.728807e-10
-1.236128e-09
1.726309e-09
1.989436e-10
-1.525339e-09
1.326395e-09
2.036867e-09
-6.714998e-10
-1.365367e-09
9.12908e-10
-2.10088e-09
2.076035e-09
-1.208938e-09
-8.670971e-10
-1.604851e-09
3.284007e-10
1.27645e-09
-1.347823e-09
6.914981e-10
6.563253e-10
-4.664107e-09
3.753525e-09
9.105821e-10
-1.936158e-09
-5.540085e-10
2.490166e-09
-6.966917e-10
-1.226046e-09
1.922738e-09
5.357861e-10
1.312497e-09
-1.848283e-09
7.261142e-10
1.0537e-09
-1.779815e-09
1.705519e-09
-1.644566e-09
-6.095322e-11
-1.657667e-09
7.631051e-10
8.94562e-10
-2.069131e-09
1.285972e-09
7.831589e-10
-3.648253e-10
-1.166748e-09
1.531573e-09
1.057161e-09
-1.747583e-09
6.904223e-10
-1.54599e-09
8.261648e-10
7.198253e-10
4.812782e-09
2.778364e-09
7.537565e-10
1.266451e-09
-2.020208e-09
-1.336796e-09
1.959477e-09
1.330559e-09
4.148118e-10
-1.745371e-09
-5.579881e-10
-7.73909e-10
1.331897e-09
4.768827e-10
-2.060208e-09
1.583325e-09
-1.69697e-09
1.503879e-09
1.93091e-10
1.774649e-09
1.534933e-11
-1.789998e-09
4.935025e-10
-1.588174e-09
1.094671e-09
-9.361679e-10
-1.109054e-09
2.045222e-09
1.8648e-09
-1.406702e-09
-4.580983e-10
-1.257547e-09
1.645867e-09
-3.883204e-10
3.126259e-10
-1.985249e-09
1.672623e-09
1.644355e-09
-8.091758e-10
-8.351791e-10
-1.994009e-10
-1.070127e-09
1.269528e-09
2.121099e-09
-6.599742e-10
-1.461124e-09
1.095276e-09
1.088507e-09
-2.183784e-09
-1.797386e-09
-4.003955e-11
1.837426e-09
-8.109816e-10
-8.306207e-10
-1.159403e-09
-3.169211e-10
1.476324e-09
-1.568068e-09
-8.853744e-11
1.656605e-09
1.233243e-09
5.228908e-10
-1.756134e-09
1.547203e-09
6.999521e-10
-2.247155e-09
1.225972e-09
-2.793542e-10
-9.466182e-10
-1.210743e-09
1.118723e-09
9.201944e-11
2.011598e-09
-1.921088e-09
-9.050952e-11
4.376517e-10
1.29899e-09
-1.736642e-09
-3.98433e-10
2.174388e-09
-1.775955e-09
-2.29506e-09
4.472159e-09
-5.271444e-10
-1.171346e-09
1.69849e-09
-9.186237e-10
-2.291584e-09
3.210208e-09
2.113282e-10
-1.619034e-09
1.407706e-09
1.594992e-09
-9.711361e-10
-6.23856e-10
1.276344e-09
-1.894063e-09
6.177194e-10
1.457343e-09
7.20992e-10
-2.178335e-09
-1.327723e-09
1.850547e-09
-5.228243e-10
1.609172e-09
1.728949e-10
-1.782067e-09
2.673168e-09
-2.316452e-09
-3.567157e-10
-2.057085e-09
6.402552e-10
1.41683e-09
7.01483e-10
7.521051e-10
-1.453588e-09
7.675799e-10
-1.783223e-09
8.738862e-10
9.093363e-10
9.922561e-10
-1.42027e-09
4.280143e-10
8.068462e-10
1.427295e-10
-9.495757e-10
6.094191e-10
-1.417442e-09
8.080225e-10
1.573511e-09
-1.531808e-09
-4.170219e-11
5.534155e-09
-9.147071e-10
-1.958402e-09
9.854291e-10
9.729725e-10
-1.140149e-09
1.134068e-09
6.080954e-12
-1.321069e-09
8.605605e-10
-1.321439e-09
-5.550258e-10
1.876465e-09
-5.130264e-10
2.026172e-09
-1.513146e-09
-1.078837e-09
-6.389854e-10
1.717822e-09
-1.39284e-09
1.135269e-09
2.091721e-09
-8.543963e-10
-1.237325e-09
-1.039e-09
1.212605e-09
-1.736052e-10
-8.49437e-10
-5.916633e-10
1.4411e-09
2.001712e-09
-8.359957e-10
-1.165717e-09
1.386067e-09
-1.94434e-09
5.582739e-10
-1.293319e-09
-1.049958e-09
2.343278e-09
-4.243498e-10
1.454423e-09
-1.030073e-09
1.218724e-09
-4.735579e-10
-7.451665e-10
8.412543e-10
-5.80153e-10
-2.611012e-10
1.459848e-09
4.684624e-10
-1.928311e-09
9.106626e-10
8.330118e-10
-1.743674e-09
-1.088363e-09
1.800944e-09
-7.125812e-10
-1.398284e-09
-7.335539e-10
2.131838e-09
1.836792e-09
1.060891e-09
-2.897682e-09
2.023316e-09
-1.317477e-09
-7.058389e-10
1.583134e-09
-1.718477e-09
1.353425e-10
8.052056e-10
7.22054e-10
-1.52726e-09
4.166752e-09
-4.38881e-09
2.22058e-10
7.765905e-10
1.257976e-09
-2.034566e-09
-2.244637e-09
1.805023e-09
4.39614e-10
2.316529e-09
-1.53614e-09
-7.80389e-10
-1.736375e-09
9.493291e-10
7.870461e-10
8.7458e-10
-3.996231e-10
-4.749569e-10
-1.150929e-09
1.331537e-09
1.917553e-09
-3.491244e-10
-1.568428e-09
2.685146e-09
-3.24933e-09
5.641843e-10
2.803913e-09
-3.999181e-09
1.195268e-09
3.044758e-10
-1.540141e-09
1.235666e-09
-1.009255e-09
-1.235382e-09
-2.243045e-09
1.141104e-09
-1.255746e-09
1.667904e-10
1.088956e-09
-1.43724e-10
1.430465e-09
-1.286741e-09
1.489794e-09
-8.724217e-10
-6.17372e-10
5.304411e-11
1.806197e-09
-1.859241e-09
1.195307e-09
7.445598e-10
-1.939867e-09
-7.349212e-10
2.027656e-09
-1.292735e-09
-3.054381e-10
-7.979348e-10
1.103373e-09
1.394241e-09
2.141162e-09
-3.535403e-09
9.880699e-11
1.737985e-09
5.4666e-10
9.245282e-10
-1.471188e-09
9.165348e-10
6.711865e-10
-1.587721e-09
9.702961e-11
-1.742093e-09
1.645063e-09
7.153423e-10
5.467404e-10
-1.262083e-09
-4.146757e-09
6.329657e-10
3.513791e-09
1.870546e-09
-9.598836e-10
-1.866984e-09
9.893792e-10
8.776047e-10
-8.909481e-10
1.689426e-09
-1.159159e-10
-1.143949e-09
-6.218048e-10
1.765754e-09
4.426188e-10
9.809095e-10
-1.423528e-09
2.96379e-09
-1.798098e-09
-1.165692e-09
8.862766e-10
4.993462e-10
-1.385623e-09
1.7171e-09
-1.398833e-09
-1.423748e-09
1.018403e-09
4.053455e-10
-5.720924e-10
-1.068096e-09
1.640188e-09
9.811131e-10
-1.523711e-09
5.425978e-10
2.450654e-09
-1.012659e-09
-1.437995e-09
-2.733961e-10
-1.18849e-09
1.461886e-09
2.913274e-10
1.175016e-09
-1.466344e-09
1.166694e-09
3.628202e-10
-1.529514e-09
-1.09351e-09
1.397885e-09
-3.043752e-10
-2.640085e-10
1.285037e-09
-1.021028e-09
-1.52031e-09
-2.378927e-10
1.758203e-09
-1.29963e-10
1.935585e-09
-1.805623e-09
6.581859e-10
8.017274e-10
-1.459913e-09
-6.494975e-10
1.566416e-09
-9.169185e-10
-1.533227e-09
1.663664e-09
-1.304367e-10
-3.509502e-10
1.880594e-09
-1.529644e-09
-1.479673e-09
4.215954e-10
1.058077e-09
-1.718731e-09
1.660647e-09
5.808366e-11
9.897315e-10
5.756354e-09
1.472706e-09
-1.5095e-09
3.679441e-11
1.369817e-09
6.595707e-10
-2.029387e-09
9.481382e-10
7.526704e-10
-1.700809e-09
-3.223653e-09
-6.997706e-09
1.577827e-09
-1.047577e-09
-5.302504e-10
-1.192514e-09
1.241571e-09
-4.905743e-11
-1.434906e-09
9.396682e-10
4.952375e-10
-1.738946e-10
-1.48565e-09
1.659544e-09
1.149258e-09
-6.856522e-10
1.835676e-09
-7.785152e-10
-6.075131e-10
-9.384769e-10
1.393433e-09
-9.165503e-10
-1.505202e-09
4.403887e-10
1.064814e-09
1.73032e-09
-6.601808e-10
-1.070139e-09
-2.128348e-09
1.868782e-09
2.595658e-10
-8.729267e-10
-4.452676e-10
1.318194e-09
2.622577e-09
-1.764275e-09
-8.583024e-10
-1.973815e-09
1.418387e-09
5.554278e-10
5.453742e-10
-1.608527e-09
1.063153e-09
-2.640373e-09
1.878233e-09
7.621403e-10
-1.279656e-09
-2.882892e-10
1.567945e-09
6.965668e-10
-2.440729e-09
1.744162e-09
-9.050365e-10
-8.426975e-10
1.747734e-09
-3.934152e-10
1.600332e-09
-1.206917e-09
1.263883e-09
3.13944e-10
9.012843e-10
-2.040676e-09
1.139392e-09
-8.029765e-10
-9.167328e-10
1.719709e-09
-1.863289e-09
2.192892e-09
-3.296035e-10
1.192814e-09
-2.679331e-09
-2.47412e-09
-2.189988e-09
1.635954e-10
1.556826e-09
-1.720421e-09
7.938283e-10
7.583953e-10
-1.552224e-09
-4.007211e-09
2.551849e-09
1.455362e-09
1.959444e-09
-6.195484e-10
-1.339895e-09
-8.519586e-10
1.5917e-09
4.636943e-11
1.490443e-09
8.132641e-10
5.124864e-10
-1.32575e-09
1.552967e-09
1.525818e-10
-1.705549e-09
1.040129e-09
-1.547229e-09
2.246964e-09
-1.343221e-10
-2.112642e-09
-9.582892e-10
2.313889e-09
-1.3556e-09
-1.100976e-09
8.661531e-10
2.34823e-10
1.331307e-09
-2.101592e-09
7.702858e-10
2.29875e-09
-7.35828e-09
5.059531e-09
9.833573e-10
1.123792e-09
-2.107149e-09
-8.346633e-10
1.636501e-09
-8.018377e-10
-9.08267e-10
1.618342e-09
-7.100747e-10
2.322866e-09
-1.669555e-09
-6.533102e-10
1.559922e-09
-1.358163e-09
-2.017595e-10
9.179048e-10
-2.491827e-09
1.573922e-09
-5.611508e-10
1.878783e-09
-1.317632e-09
2.177055e-09
-1.734436e-09
1.735168e-09
-8.627098e-10
-8.724577e-10
-1.569917e-09
6.428956e-10
9.270211e-10
8.149546e-10
-1.070751e-09
2.557962e-10
1.755926e-09
-1.709174e-09
-4.675192e-11
4.446453e-09
-2.45104e-09
-1.995413e-09
-1.227551e-09
1.83697e-09
-6.281364e-10
1.382898e-09
-7.547615e-10
1.953148e-09
-1.518372e-09
-4.347752e-10
-1.823154e-09
3.217395e-09
3.186516e-10
-1.396828e-09
1.078177e-09
-2.072653e-09
1.256837e-09
8.158167e-10
-2.319551e-09
-4.623109e-10
2.781862e-09
1.118623e-09
-1.925859e-09
8.859742e-10
1.215434e-09
-2.101408e-09
-2.260347e-10
-1.342033e-09
-1.072376e-09
1.687784e-09
-6.154078e-10
8.466895e-10
-2.22763e-09
1.38094e-09
1.474882e-09
-1.704509e-09
2.296273e-10
6.624018e-10
-1.815513e-09
1.153111e-09
-2.191017e-09
1.527525e-09
6.634922e-10
3.402252e-10
-1.715647e-09
1.375422e-09
-1.047387e-09
-8.217029e-10
1.153151e-09
-1.744174e-09
5.910224e-10
1.638542e-09
-2.942571e-09
1.304029e-09
1.69687e-09
-1.090564e-09
1.060144e-09
-1.855553e-09
9.839904e-10
-1.805036e-09
8.210458e-10
1.950388e-09
-9.579588e-10
-9.924297e-10
1.168199e-09
-2.841031e-09
1.672832e-09
1.143744e-09
-2.113615e-09
9.698703e-10
-6.751085e-10
1.502483e-09
-8.273747e-10
-1.673292e-09
1.621529e-10
1.511139e-09
-1.528351e-09
8.955643e-11
1.438795e-09
-7.518458e-09
6.203005e-09
1.315453e-09
-1.435276e-09
-3.607728e-10
1.796048e-09
-2.449575e-09
8.644024e-10
1.585172e-09
-2.202867e-10
-5.899466e-10
-1.642801e-09
6.983665e-10
9.444346e-10
-3.92471e-10
-1.667737e-09
1.992628e-09
-8.509904e-10
-1.141638e-09
-1.327196e-09
1.433185e-09
-1.059894e-10
1.903195e-09
-9.198381e-10
9.142553e-10
1.16808e-09
-2.082335e-09
-1.746082e-09
1.492967e-09
2.531149e-10
4.671084e-10
1.04586e-09
4.141675e-10
-1.782454e-09
1.368286e-09
1.542837e-09
-1.362939e-10
-1.406544e-09
-1.654494e-09
8.477367e-10
8.067575e-10
2.174885e-09
3.06695e-10
-2.48158e-09
-1.385675e-09
1.186274e-09
-8.520911e-10
1.4102e-09
-5.581087e-10
-1.208166e-09
1.485916e-09
-2.777506e-10
8.071037e-10
-2.53865e-09
1.382883e-09
-9.226644e-10
-4.602184e-10
-1.951469e-10
1.646526e-09
-1.451379e-09
-9.33754e-10
1.696446e-09
-7.62692e-10
-1.539652e-09
1.799255e-09
-2.596028e-10
-1.716342e-09
1.97072e-09
-3.076256e-09
1.105536e-09
-1.678612e-09
1.173548e-09
5.05064e-10
-3.584684e-10
-1.34446e-09
1.702928e-09
1.244332e-09
-1.936665e-09
6.923328e-10
2.032012e-10
1.38223e-09
-1.585431e-09
-3.299861e-09
4.912724e-09
-1.612863e-09
-7.74669e-10
1.909937e-09
-1.135268e-09
-4.395836e-10
-8.601959e-10
1.299779e-09
1.200181e-09
-1.705849e-09
5.05668e-10
-2.92979e-10
1.423748e-09
9.803419e-10
-1.623554e-09
6.432122e-10
-1.053912e-09
-3.189009e-10
1.372812e-09
7.425709e-10
1.139991e-09
-1.882562e-09
1.237399e-09
6.361876e-10
-1.844141e-09
-9.005121e-10
-9.514056e-10
1.851918e-09
-2.762285e-09
-2.100925e-09
7.687301e-10
1.332195e-09
6.903341e-10
-1.406279e-09
7.159447e-10
3.809473e-10
1.719775e-09
-2.100723e-09
1.184326e-09
-8.032445e-10
-3.810813e-10
-5.785543e-10
-1.009408e-09
1.587962e-09
-2.051456e-09
1.268726e-09
7.827299e-10
-2.603714e-09
2.977727e-10
2.305941e-09
-1.642856e-09
-3.375114e-11
1.676608e-09
7.35102e-10
-1.828429e-09
1.093327e-09
1.074301e-09
1.070074e-09
-2.144375e-09
1.293072e-09
-3.694987e-10
-9.235733e-10
-1.241178e-09
8.406163e-10
4.005619e-10
-1.369843e-09
-1.850198e-09
3.220041e-09
7.197128e-10
-1.653124e-09
9.334117e-10
-1.29586e-09
1.731307e-09
-4.354467e-10
-6.381516e-10
-1.226924e-09
1.865075e-09
2.000623e-09
-1.274509e-09
9.979632e-10
-1.782425e-09
7.844621e-10
-5.508448e-11
-1.122343e-09
1.177428e-09
1.804693e-09
-1.01388e-09
-7.908133e-10
-1.720122e-09
1.998112e-10
1.018272e-09
5.109409e-10
-1.529213e-09
-2.395781e-11
-1.871241e-09
1.895199e-09
-8.563069e-10
1.846121e-09
-9.898139e-10
-1.308442e-09
-6.696787e-09
8.005229e-09
-1.946909e-09
6.004586e-10
1.34645e-09
-1.086597e-09
-8.679674e-10
1.515057e-09
-6.470895e-10
-1.332995e-09
-8.389942e-10
2.171989e-09
2.667089e-09
-2.738032e-09
7.09424e-11
1.653156e-09
-1.653767e-10
-1.855915e-09
1.393219e-09
4.626962e-10
-1.163733e-09
-3.077173e-10
1.47145e-09
9.729188e-10
-1.494733e-09
5.218137e-10
-8.975855e-10
-1.038609e-09
1.936195e-09
2.009625e-09
-5.845889e-10
-1.425036e-09
-2.427232e-09
3.793341e-09
4.229716e-10
-1.306824e-09
8.83852e-10
5.085589e-10
1.221463e-09
-1.730022e-09
9.799114e-09
-9.799114e-09
-1.54576e-09
1.123774e-09
4.219856e-10
1.760282e-09
-9.088122e-10
-8.514696e-10
1.065532e-09
-1.628144e-09
1.590381e-09
-9.627229e-10
-6.276577e-10
-1.647258e-09
-2.021769e-10
1.849435e-09
1.434152e-09
1.763203e-09
-3.197355e-09
1.605043e-09
-8.578173e-10
1.473542e-09
-8.320163e-10
-6.41526e-10
1.559609e-09
-7.16798e-10
-8.428114e-10
1.794755e-09
-5.663235e-10
-1.228431e-09
7.929935e-10
-1.569665e-09
7.766719e-10
1.925199e-09
-4.653505e-10
8.359827e-10
5.756825e-10
-1.411665e-09
-7.924405e-10
-5.286282e-10
1.790854e-09
-1.527695e-09
-2.631597e-10
1.640225e-09
4.55223e-12
-1.608789e-09
1.604236e-09
-2.469262e-10
1.566879e-09
-1.319953e-09
6.750718e-10
1.597639e-09
-1.159987e-09
-9.893079e-10
1.835997e-09
1.851167e-09
-1.312442e-09
-5.387246e-10
2.206802e-09
-1.310169e-09
1.303096e-09
-1.473613e-09
1.70517e-10
3.211864e-10
-1.901039e-09
1.579852e-09
-3.795688e-10
-1.52827e-09
-1.342169e-09
1.211907e-09
1.302624e-10
7.466298e-11
-1.394736e-09
7.363718e-09
-2.130644e-09
2.564585e-09
9.877922e-10
-3.552378e-09
-2.887924e-09
1.518081e-09
7.730032e-10
-1.609876e-09
3.606136e-10
-1.115229e-09
7.546154e-10
-1.13138e-09
1.166534e-09
-3.5154e-11
-4.052623e-10
1.817227e-09
-1.411965e-09
1.315768e-09
5.547787e-10
-1.237017e-09
1.72285e-09
7.485254e-10
-1.766829e-09
1.018304e-09
5.890331e-10
-3.054852e-09
2.465819e-09
-1.808246e-09
-5.691068e-10
3.75112e-09
2.242545e-09
-5.993664e-09
-1.829231e-09
2.753367e-10
1.553895e-09
-6.583354e-10
1.816952e-09
-1.158616e-09
-3.143733e-09
-1.513031e-09
4.656765e-09
-2.377273e-09
-1.958309e-09
4.335582e-09
9.807328e-10
-1.374954e-09
3.942213e-10
-3.48702e-09
7.160205e-10
2.771e-09
-1.516765e-09
6.530705e-10
8.636945e-10
-9.586584e-10
2.032959e-09
2.605289e-09
-2.530952e-09
-7.433723e-11
1.141908e-09
5.932598e-10
-2.67619e-09
1.997298e-10
2.47646e-09
1.426949e-09
-2.933587e-10
-1.13359e-09
1.774263e-09
-5.681859e-10
-1.206077e-09
8.501461e-10
1.270952e-09
-1.676129e-09
2.569305e-09
-8.931755e-10
-4.744839e-10
-1.112413e-09
1.586897e-09
-1.6451e-09
9.303795e-10
7.147205e-10
-9.053008e-11
-3.39649e-09
-5.279248e-12
-1.316188e-09
1.321467e-09
-1.176024e-09
1.969017e-09
-1.437918e-09
2.248253e-09
-8.103356e-10
-1.813183e-09
9.412735e-10
8.719092e-10
-1.214532e-09
1.535095e-09
-3.20563e-10
1.896885e-09
-1.14836e-09
-9.011864e-10
3.16659e-10
-9.601474e-10
1.886298e-09
-9.261501e-10
-9.652348e-11
-1.278685e-09
1.375208e-09
3.679135e-10
1.267096e-09
-1.635009e-09
5.54753e-10
-1.74692e-09
-6.05102e-10
2.073813e-09
-4.029776e-10
-7.529224e-10
1.1559e-09
1.578206e-09
-9.200204e-10
2.546245e-10
1.015355e-09
-1.26998e-09
-1.098375e-09
3.844319e-10
7.139426e-10
-4.586721e-10
1.501545e-09
-1.042873e-09
5.32362e-09
-3.61531e-09
-1.70831e-09
9.036065e-10
-1.618311e-09
7.147045e-10
-2.192002e-10
1.455322e-09
-1.236122e-09
1.319297e-09
-1.305823e-09
-1.34745e-11
3.720918e-10
-1.740049e-09
2.856175e-10
5.34171e-09
-1.219092e-09
-4.122617e-09
1.083355e-11
1.249172e-09
-1.260005e-09
-2.899651e-10
1.589038e-09
-1.299073e-09
2.96089e-09
-3.43667e-10
-2.617223e-09
-1.107562e-09
2.116946e-09
-1.009384e-09
-1.022727e-09
1.73069e-09
-7.079626e-10
-1.492977e-09
2.51799e-10
2.686101e-09
-2.369442e-09
-1.565063e-10
1.452771e-09
-1.296265e-09
3.118458e-10
1.413527e-09
-1.725373e-09
6.066603e-10
-1.148748e-09
5.42088e-10
-3.632174e-10
-1.12976e-09
1.322501e-09
2.601601e-09
-3.924101e-09
9.834026e-11
1.599789e-09
-1.69813e-09
3.106289e-09
9.825413e-11
-3.204543e-09
-1.074138e-09
2.086349e-10
-3.947687e-10
-8.281073e-10
1.222876e-09
1.327426e-10
3.466508e-09
-3.59925e-09
-1.695141e-09
5.541425e-10
1.140998e-09
1.30512e-09
6.875085e-10
-1.527497e-09
-2.200845e-11
1.549505e-09
-3.465614e-09
3.419085e-09
4.652889e-11
-1.604901e-09
-3.313921e-09
4.918822e-09
-1.190966e-09
1.55888e-09
2.006409e-09
-1.134418e-09
-8.719905e-10
7.702096e-10
1.89688e-09
6.264766e-10
7.564062e-10
8.032808e-10
1.147108e-09
-2.604838e-10
-1.569052e-09
1.829535e-09
9.548586e-10
-2.591997e-09
1.637139e-09
-1.755665e-10
-1.100963e-09
1.276529e-09
-1.634177e-09
1.806818e-09
-1.726405e-10
1.55934e-09
-8.69006e-10
1.351962e-09
-1.862753e-09
5.107908e-10
1.504436e-09
-1.635238e-09
1.308026e-10
-6.53756e-10
-1.813645e-09
2.467401e-09
1.282057e-09
-1.41835e-09
-5.891396e-10
-8.461359e-10
1.29725e-09
5.539172e-10
1.134556e-09
-1.489279e-09
3.547238e-10
5.226924e-10
-1.100381e-09
-2.279974e-09
2.150011e-09
5.082822e-10
1.064262e-09
-1.572544e-09
-1.297521e-09
1.995313e-09
-6.977921e-10
2.255791e-09
8.15728e-10
-2.21477e-09
1.399042e-09
1.496919e-09
-2.233896e-09
7.369766e-10
5.690738e-10
1.3431e-09
-2.334119e-09
5.286421e-09
-2.952302e-09
-1.999808e-09
1.729306e-09
2.705015e-10
-8.06994e-10
-1.027085e-09
-9.041412e-10
1.931226e-09
-7.229635e-10
1.959438e-09
-1.236475e-09
5.943667e-11
1.593719e-09
1.009722e-09
5.697106e-10
-1.579433e-09
-3.513461e-09
-5.109712e-11
-1.342857e-09
1.393954e-09
1.907088e-09
-1.845133e-10
-1.722575e-09
7.55577e-10
-1.34176e-09
1.563241e-09
-8.127478e-10
-7.504934e-10
2.484194e-11
-1.349506e-09
-1.804521e-09
-3.339287e-10
2.138449e-09
7.335034e-09
-1.741345e-09
-5.593688e-09
9.658573e-10
1.071009e-09
-1.80898e-09
2.151942e-09
-3.429618e-10
3.661952e-09
-3.752482e-09
1.309252e-09
2.3527e-09
-1.851243e-09
1.695222e-09
1.560215e-10
-4.690394e-09
4.329125e-10
4.257482e-09
-9.040101e-10
-8.792125e-10
-8.849085e-10
-1.014234e-09
1.899143e-09
-1.292675e-10
-5.515866e-09
5.645133e-09
1.379988e-09
7.462442e-10
-2.126233e-09
9.663869e-10
-1.80105e-09
-4.789083e-10
1.419256e-09
-9.403481e-10
9.186442e-10
-1.568142e-09
-1.265482e-09
9.214715e-11
1.173335e-09
5.20845e-10
1.386244e-09
-4.061986e-10
1.489863e-09
-1.083664e-09
5.997056e-10
-1.014051e-09
-5.803669e-10
1.594418e-09
-1.25694e-09
1.105689e-09
1.512509e-10
-1.343726e-09
-4.646625e-10
1.808388e-09
-1.087145e-09
2.409315e-09
-1.32217e-09
-1.544621e-09
-3.915363e-10
-1.700088e-09
1.740857e-09
-4.076952e-11
1.556382e-09
2.003085e-09
6.61522e-11
-2.069237e-09
-1.993842e-09
1.63386e-09
3.599818e-10
-1.676099e-09
7.162154e-10
1.168665e-09
-1.673153e-09
5.044878e-10
1.675682e-09
-3.52588e-09
9.93454e-10
-1.734755e-09
1.510338e-09
-1.383046e-09
-1.272922e-10
3.129793e-09
-1.604305e-09
-1.525487e-09
2.822069e-10
1.233888e-09
-1.516095e-09
-1.004402e-09
-8.625821e-10
-1.078313e-09
1.856618e-09
-7.78305e-10
-2.985291e-09
3.755501e-09
-8.086322e-10
1.703317e-09
-8.946849e-10
9.597821e-10
2.004008e-09
-5.028103e-10
1.882799e-09
8.581455e-10
-1.465659e-09
-3.376565e-10
-1.308933e-09
1.646589e-09
-2.587868e-10
-1.918096e-09
2.176883e-09
1.593562e-09
-8.288737e-10
-7.64688e-10
-1.951974e-10
1.408866e-09
-1.213669e-09
2.261389e-09
-3.227084e-09
1.662007e-09
-1.922491e-09
-7.874172e-10
2.328295e-09
-1.540878e-09
-1.409217e-09
-4.709242e-10
2.021732e-09
-1.05487e-09
-9.668615e-10
1.413946e-09
-1.746016e-09
3.320702e-10
1.639588e-09
-5.254778e-10
-1.11411e-09
-5.25826e-10
1.774771e-09
-6.561548e-10
-1.173939e-09
1.830094e-09
-2.156228e-09
1.150184e-09
1.006044e-09
-1.439762e-09
-5.910828e-10
2.030845e-09
2.079904e-09
-4.707327e-10
-2.816781e-09
-4.391864e-09
7.208646e-09
-3.168333e-09
3.935212e-09
-7.668794e-10
-2.050922e-09
4.182647e-09
-2.131725e-09
1.884946e-09
-1.828098e-09
-5.684784e-11
1.304961e-09
-1.935168e-09
6.302071e-10
6.756486e-10
1.35315e-09
-2.028799e-09
-5.804368e-09
2.54012e-09
3.264249e-09
6.018259e-10
1.364124e-09
-1.96595e-09
-1.834215e-09
1.060343e-09
7.738719e-10
9.215315e-10
1.006255e-09
-1.927787e-09
1.405058e-09
-2.136748e-09
7.316904e-10
2.541806e-09
-2.80417e-10
1.827669e-09
6.475692e-09
-5.214109e-10
-1.546665e-09
2.068076e-09
-1.72326e-09
-3.88468e-10
2.111728e-09
2.152655e-09
-1.819353e-10
-6.913633e-10
1.411076e-09
-9.458558e-10
1.821417e-09
-8.755616e-10
-1.695285e-10
-1.370123e-09
-6.240463e-09
3.480256e-09
2.760207e-09
1.302719e-09
7.630826e-09
-8.939268e-09
-1.827535e-09
1.913346e-09
-8.581093e-11
2.004348e-09
-8.533296e-10
-1.151019e-09
-1.204381e-09
-4.25441e-10
1.629822e-09
-7.389251e-10
4.152198e-09
-3.413273e-09
-1.616085e-09
1.569782e-09
4.630299e-11
1.538689e-10
1.718298e-09
-1.872166e-09
1.131264e-09
2.19823e-09
-1.576546e-09
-5.945895e-10
1.846087e-09
-1.251498e-09
-1.073659e-09
-9.201831e-10
9.82867e-10
1.874526e-09
-2.857393e-09
-4.586759e-09
4.737509e-09
-1.5075e-10
-1.523743e-09
-3.337308e-11
1.557116e-09
-1.908765e-09
5.896975e-10
1.319068e-09
-1.875277e-09
1.117513e-09
7.577639e-10
-4.674066e-10
-1.40787e-09
9.995047e-10
-5.807672e-10
-4.187374e-10
-1.341768e-09
1.146927e-09
1.121481e-09
-1.699208e-09
5.777272e-10
8.917439e-10
-1.835504e-09
9.437602e-10
6.884934e-10
-1.944601e-09
1.256108e-09
-1.015055e-09
1.993553e-09
-9.784986e-10
-1.594378e-09
-2.307447e-10
1.825122e-09
-1.863498e-10
1.491035e-09
9.967701e-11
-1.499052e-09
9.269596e-10
1.885414e-10
1.08081e-09
-1.269352e-09
-1.059327e-10
-1.326077e-09
1.43201e-09
1.465095e-09
5.849181e-10
-2.050013e-09
1.05568e-09
-1.520978e-09
1.134311e-09
3.86667e-10
-1.014954e-09
1.780077e-09
-7.651224e-10
-1.055397e-09
-8.836641e-10
1.939061e-09
1.24565e-09
-3.235703e-09
1.990053e-09
1.693249e-10
-2.403758e-09
3.479289e-09
-8.06121e-10
1.714168e-09
2.93165e-12
-7.625419e-10
1.681186e-09
6.546836e-10
-1.577348e-09
1.597106e-09
-7.919002e-10
1.840672e-09
-6.875211e-10
9.734386e-10
-1.486465e-09
5.12916e-10
3.695427e-09
-4.208343e-09
-1.019865e-09
-2.521218e-10
1.271987e-09
9.685836e-10
-1.534506e-09
2.847411e-09
4.487623e-09
-1.80786e-09
1.150257e-10
1.692835e-09
1.826644e-09
5.013718e-11
-1.876781e-09
-7.806395e-10
2.21937e-09
-1.438731e-09
-2.015789e-09
1.757002e-09
2.558686e-09
-8.887241e-10
-1.669962e-09
2.077906e-09
-1.112534e-09
-9.653717e-10
-2.483331e-09
9.13611e-10
1.56972e-09
-1.902864e-10
1.735916e-09
-1.54563e-09
3.317997e-10
1.494122e-09
-1.825921e-09
1.718085e-09
8.470241e-10
1.363757e-09
1.374502e-10
-1.501207e-09
2.266987e-09
-3.512183e-09
1.676043e-09
-1.373261e-09
-3.027817e-10
-1.552312e-09
1.485827e-09
-8.651688e-10
-1.028793e-09
1.893962e-09
1.412542e-09
-2.277711e-09
-1.378879e-09
1.599147e-09
1.829109e-09
-1.730168e-10
1.258388e-09
-1.085371e-09
-1.089526e-09
1.260891e-09
-1.713643e-10
-2.034347e-09
9.810506e-10
1.053297e-09
-9.698111e-10
-1.043946e-09
2.013757e-09
-1.343265e-09
2.309652e-09
-1.295599e-09
2.213991e-09
-9.183913e-10
1.36082e-09
1.690501e-09
-5.667095e-10
8.020701e-10
1.199642e-09
-3.677169e-10
-1.399113e-09
1.808952e-09
-9.350657e-10
-1.990814e-09
6.490536e-10
1.514776e-09
4.173467e-10
-3.382198e-09
-3.888392e-10
3.771037e-09
-6.31764e-10
1.19457e-09
-5.628065e-10
-1.353808e-09
3.960424e-10
-1.74702e-09
1.350978e-09
1.953089e-09
-1.501885e-09
-4.512044e-10
1.379914e-09
-7.479386e-11
1.424596e-09
-9.352872e-10
-4.893084e-10
1.357515e-09
-8.256777e-10
-5.318371e-10
-1.368522e-09
1.363242e-09
-1.964692e-09
1.032377e-09
9.323146e-10
-2.197534e-09
-1.809677e-09
-1.348852e-09
-1.727404e-09
1.4875e-09
-1.073006e-10
1.759595e-09
1.297381e-09
-3.937744e-10
1.308561e-09
-1.393911e-09
8.53498e-11
2.178655e-09
-1.260751e-09
1.187789e-09
-1.695176e-10
-4.536699e-10
-1.872865e-09
2.326535e-09
9.69084e-10
-1.224516e-09
2.554317e-10
-1.801011e-09
2.879489e-10
1.513062e-09
5.563052e-10
7.615451e-10
-1.31785e-09
-1.585067e-09
5.086229e-10
1.076444e-09
-1.823681e-09
5.280815e-10
-9.740612e-09
3.365961e-09
6.374651e-09
1.421813e-09
-8.795948e-10
-5.422185e-10
-1.591128e-09
-5.649574e-10
-8.918371e-10
1.456794e-09
-1.943557e-09
-1.312659e-09
4.051702e-10
9.074893e-10
3.210676e-11
1.371674e-09
-1.40378e-09
-1.959736e-09
5.912277e-10
1.368508e-09
-1.60553e-09
5.217037e-10
1.083826e-09
-1.849134e-09
2.217374e-09
-4.641868e-09
2.424494e-09
-1.644232e-09
2.6505e-10
1.379182e-09
-3.859517e-10
1.742589e-09
-1.356638e-09
1.100809e-09
5.802049e-10
-1.681014e-09
8.306892e-10
-1.992974e-09
1.162285e-09
1.371967e-09
-2.057574e-09
6.85607e-10
-8.939301e-10
1.734317e-09
-8.40387e-10
8.625447e-10
-1.989338e-09
1.126793e-09
-9.951836e-10
1.522659e-09
-5.274753e-10
7.39787e-10
-1.878284e-09
7.042386e-12
-5.303492e-10
2.425548e-09
4.893769e-10
1.428855e-09
-1.918232e-09
-1.786722e-09
1.012053e-09
3.435772e-09