/*--------------------------------*- C++ -*----------------------------------*\
| =========                 |                                                 |
| \\      /  F ield         | OpenFOAM: The Open Source CFD Toolbox           |
|  \\    /   O peration     | Version:  2406                                  |
|   \\  /    A nd           | Website:  www.openfoam.com                      |
|    \\/     M anipulation  |                                                 |
\*---------------------------------------------------------------------------*/
FoamFile
{
    version     2.0;
    format      ascii;
    arch        "LSB;label=32;scalar=64";
    class       surfaceScalarField;
    location    "0.28";
    object      phi;
}
// * * * * * * * * * * * * * * * * * * * * * * * * * * * * * * * * * * * * * //

dimensions      [0 3 -1 0 0 0 0];

oriented        oriented;

internalField   nonuniform List<scalar> 
6709
(
-1.787623e-09
1.008694e-09
7.789287e-10
1.597746e-09
-5.555124e-10
-1.042233e-09
-1.618867e-09
-7.073922e-11
1.689606e-09
3.692392e-09
2.624274e-10
-3.95482e-09
1.190561e-09
4.382334e-10
-1.628795e-09
1.133655e-09
-2.026254e-09
8.925997e-10
1.65218e-09
-8.16102e-10
3.25266e-09
-2.967295e-09
-2.853652e-10
1.575001e-09
-1.211972e-09
-3.630291e-10
-2.044469e-09
7.516594e-10
1.29281e-09
-9.135816e-10
-8.116899e-10
1.725272e-09
5.649863e-10
1.133327e-09
-1.698313e-09
-1.919692e-09
7.480339e-10
1.171658e-09
-3.676352e-10
-1.073511e-09
1.441146e-09
-1.325585e-09
1.563868e-10
1.169198e-09
1.645135e-09
-1.055135e-09
-5.899995e-10
-3.734794e-09
7.821231e-10
2.952671e-09
-1.067558e-09
1.890093e-09
-8.225359e-10
-1.202455e-09
9.612704e-10
2.411847e-10
9.054195e-10
1.124298e-09
-2.029717e-09
-1.199137e-09
-3.420314e-10
1.541169e-09
1.70036e-09
-8.315945e-11
-1.6172e-09
-7.909294e-10
1.318932e-09
-5.280025e-10
8.452823e-10
1.055253e-09
-1.900535e-09
-2.277919e-09
1.544008e-09
7.339109e-10
6.593769e-10
6.940038e-10
-1.353381e-09
1.02658e-09
-1.792632e-09
7.660519e-10
-2.831876e-10
-1.371138e-09
1.654325e-09
-9.142782e-11
-1.750358e-09
1.841785e-09
1.615076e-09
-7.656111e-10
-8.494645e-10
1.568154e-09
-6.449993e-10
-9.231551e-10
-9.787635e-10
-1.081449e-09
2.060213e-09
1.522922e-09
-1.573356e-09
5.043387e-11
-1.715169e-09
8.085967e-10
9.06572e-10
1.330713e-09
3.144214e-10
-1.077765e-09
1.780498e-09
1.299955e-09
-4.264935e-10
-8.734616e-10
-4.724627e-10
-1.196461e-09
1.668923e-09
-1.956876e-09
7.272808e-10
1.229595e-09
6.934941e-10
1.163699e-09
-1.857193e-09
-1.648158e-09
6.006923e-10
1.047466e-09
-6.018746e-10
1.684681e-09
-1.082806e-09
-1.085199e-09
-1.289663e-10
1.214165e-09
1.400048e-09
1.281497e-10
-1.528198e-09
1.228595e-09
-2.330816e-09
1.102221e-09
-8.654964e-10
1.562369e-09
-6.968724e-10
1.155627e-09
-7.863877e-10
-3.69239e-10
1.225226e-09
-1.450066e-09
2.248401e-10
-1.396917e-09
8.572685e-11
1.31119e-09
1.195599e-09
3.427912e-10
-1.53839e-09
-1.397889e-09
1.489248e-09
-9.135934e-11
-8.045105e-10
-7.866331e-10
1.591144e-09
-1.240058e-09
3.65364e-11
1.203522e-09
1.366112e-09
-1.631471e-09
2.653592e-10
-1.999325e-09
9.439168e-10
1.055408e-09
-1.559429e-09
1.503616e-09
5.581302e-11
8.634301e-10
-1.63614e-09
7.727103e-10
1.93061e-09
-8.089808e-10
-1.121629e-09
1.744679e-09
-8.84608e-10
-8.600708e-10
-2.777938e-10
-1.160463e-09
1.438257e-09
9.889626e-11
-1.477658e-09
1.378762e-09
-1.006243e-09
-6.499186e-10
1.656161e-09
6.74806e-10
9.713985e-10
-1.646205e-09
-1.13431e-09
-8.472853e-10
1.981596e-09
1.596247e-09
-1.550048e-09
-4.619964e-11
-1.709424e-09
7.03181e-10
-7.77339e-10
1.545924e-09
-7.685845e-10
-1.063238e-09
-1.32109e-09
2.384328e-09
3.68627e-10
1.174188e-09
-1.542815e-09
-1.791556e-09
1.14177e-09
6.497858e-10
1.812854e-09
-1.041736e-09
-7.711175e-10
-7.854667e-10
-6.061543e-10
1.391621e-09
7.52547e-10
1.081072e-09
-1.833619e-09
-6.746206e-09
8.464668e-09
-1.718462e-09
7.172294e-10
-1.772365e-09
-1.705611e-10
1.211532e-09
-1.040971e-09
1.861518e-09
-2.22423e-09
3.627113e-10
1.150464e-09
-1.148635e-09
-1.82917e-12
6.349403e-10
-1.413187e-09
7.782472e-10
3.42788e-09
-3.374732e-09
-5.314782e-11
1.789636e-09
-8.632406e-10
1.313324e-09
5.078391e-10
-1.821163e-09
-1.570582e-09
1.988293e-09
-4.177105e-10
-1.99561e-09
1.004676e-09
9.909342e-10
1.646214e-09
-6.179e-10
-1.028313e-09
-1.618364e-09
1.044805e-09
5.7356e-10
2.073882e-09
-1.07743e-09
-9.964528e-10
-1.440329e-09
9.501362e-10
4.901931e-10
-2.033942e-09
3.839846e-10
1.649957e-09
6.802487e-10
9.625103e-10
-1.642759e-09
1.721607e-10
1.182605e-09
-1.354765e-09
1.605535e-09
-6.742237e-10
-9.313109e-10
1.247846e-09
1.958771e-10
-1.443723e-09
1.053701e-09
2.434011e-10
1.232332e-09
4.797918e-10
-1.712124e-09
-1.230311e-09
1.792652e-09
-5.623407e-10
-5.3753e-10
1.851179e-09
-1.313649e-09
-9.979199e-10
1.670707e-09
-6.727868e-10
9.936922e-10
-1.871986e-09
8.782939e-10
-8.854521e-10
1.59039e-09
-7.049377e-10
-1.034708e-09
-3.4918e-10
1.383888e-09
3.988048e-10
-1.334457e-09
9.356517e-10
1.915734e-09
-9.779886e-10
-9.377454e-10
-1.508651e-09
4.814025e-10
1.027248e-09
8.252169e-10
6.791409e-10
-1.504358e-09
6.010903e-10
9.966553e-10
-2.716046e-10
1.709005e-09
-1.4374e-09
4.013103e-10
-1.664005e-09
1.262695e-09
-1.096769e-09
1.91461e-09
-8.178414e-10
-1.572731e-09
7.554365e-10
8.172945e-10
1.145864e-09
-1.935539e-09
7.896749e-10
-1.40973e-09
-5.647774e-10
1.974507e-09
-1.512668e-09
1.908506e-09
-3.958381e-10
1.234904e-09
-1.13452e-09
-1.003837e-10
7.720983e-10
-2.017654e-09
1.245556e-09
1.171198e-09
8.444508e-10
-2.015649e-09
7.80644e-10
-1.5244e-09
7.437561e-10
1.696413e-10
1.288544e-09
-1.458186e-09
7.704985e-10
1.062385e-09
-1.832883e-09
-1.785326e-09
1.013309e-09
7.720168e-10
7.391181e-10
-1.874367e-09
1.135248e-09
1.927134e-09
-1.189846e-09
-7.372879e-10
1.297891e-09
-2.085022e-09
7.871309e-10
-1.46153e-09
2.306219e-10
1.230908e-09
1.324896e-09
1.556082e-10
-1.480504e-09
1.686371e-10
-5.109272e-10
1.231583e-09
-7.20656e-10
-2.140091e-09
1.212745e-09
9.273456e-10
-5.874522e-10
1.686834e-09
-1.099382e-09
-4.606015e-10
1.734587e-09
-1.273985e-09
2.093428e-09
-1.004856e-09
-1.088572e-09
-7.778534e-10
1.063492e-09
-2.856387e-10
4.896322e-10
1.21379e-09
-1.703423e-09
6.450634e-10
5.898401e-10
1.0797e-09
-3.081067e-10
-7.71593e-10
-1.524473e-09
1.345903e-10
1.389883e-09
8.568708e-10
9.49096e-10
-1.805967e-09
-5.522918e-10
1.429678e-09
-8.773862e-10
1.103678e-09
-1.892516e-09
7.888378e-10
-5.976241e-10
-1.006156e-09
1.60378e-09
-5.52983e-10
-1.961484e-09
1.221022e-09
7.404623e-10
1.081863e-09
-1.903257e-09
8.213946e-10
-9.160822e-10
-1.090706e-09
2.006788e-09
1.352093e-09
-1.161764e-09
-1.903293e-10
1.867759e-09
-1.72423e-09
-1.435296e-10
1.447505e-09
-3.632179e-10
-1.084288e-09
1.516407e-09
-3.083438e-10
-1.208063e-09
-9.155858e-10
-8.443664e-10
1.759952e-09
8.635624e-10
7.533173e-10
-1.61688e-09
-8.064938e-10
1.932293e-09
-1.125799e-09
-1.27408e-09
-5.743643e-11
1.331516e-09
-2.682686e-10
2.053303e-09
-1.785034e-09
-1.119305e-09
1.980903e-09
-8.615979e-10
-1.065921e-09
1.885875e-09
-8.19954e-10
-9.420536e-10
1.756431e-09
-8.143778e-10
-1.538855e-09
-1.247643e-10
1.663619e-09
-3.751033e-10
1.696723e-09
-1.321619e-09
1.686061e-09
-1.819173e-09
1.33112e-10
-2.834863e-11
1.588299e-09
-1.55995e-09
5.517539e-10
-1.899112e-09
1.347358e-09
7.014471e-10
-1.706021e-09
1.004574e-09
-5.440672e-10
1.796475e-09
-1.252408e-09
4.876309e-10
1.046086e-09
-1.533717e-09
2.184613e-09
-1.479932e-09
-7.046813e-10
-4.77696e-10
-1.125889e-09
1.603585e-09
1.037998e-09
-1.10868e-09
7.068252e-11
4.722105e-13
-1.652423e-09
1.65195e-09
-4.627521e-10
-1.163817e-09
1.626569e-09
-2.285055e-10
1.594617e-09
-5.077213e-10
-1.397285e-09
1.905006e-09
1.89208e-09
-8.240843e-10
-1.067995e-09
9.602562e-10
1.186338e-09
-2.146594e-09
9.829141e-10
-2.084053e-09
1.101139e-09
8.4943e-10
1.175837e-09
-2.025267e-09
-1.720635e-09
1.300671e-09
4.199644e-10
-7.05645e-10
1.385894e-09
-3.775321e-10
-1.347989e-09
1.725521e-09
-1.793985e-09
6.86804e-10
1.107181e-09
8.204839e-10
-1.888041e-09
4.080148e-10
-1.711359e-09
1.303344e-09
-1.093518e-09
-1.035715e-09
2.129233e-09
-9.815155e-10
1.952475e-09
-9.709598e-10
-2.842741e-10
-1.225662e-09
1.509936e-09
1.444446e-09
-1.966002e-10
1.478277e-09
3.916032e-09
-5.394309e-09
2.128705e-09
-1.155458e-09
-9.732468e-10
1.617306e-09
-2.000528e-10
-1.417253e-09
1.410141e-09
-1.448527e-09
3.838607e-11
-1.304212e-09
7.666816e-10
-1.227357e-09
1.979904e-09
7.851811e-10
1.335804e-09
-2.120985e-09
-1.304883e-09
1.342469e-09
-3.758638e-11
-1.758979e-09
1.415589e-09
3.433902e-10
7.051012e-10
1.286844e-09
-1.991945e-09
-1.699058e-09
9.401163e-10
7.58942e-10
9.509303e-10
8.619235e-10
-1.036434e-09
-2.532264e-10
1.28966e-09
-4.286788e-10
1.579143e-09
6.540287e-10
-1.414198e-09
7.601691e-10
-1.82124e-09
2.673025e-10
1.553938e-09
-1.327444e-09
3.636164e-10
9.63828e-10
2.115474e-09
-1.38535e-09
-7.30124e-10
9.187423e-10
-1.713324e-09
7.945821e-10
-9.155126e-10
1.687611e-09
-9.988166e-10
-8.010205e-10
1.799837e-09
-1.357749e-09
-6.157234e-10
1.973472e-09
1.459428e-09
-1.615122e-09
1.01202e-09
6.031014e-10
-1.067198e-09
1.88322e-09
-8.160218e-10
-8.150258e-10
-7.767869e-10
1.591813e-09
-8.137604e-10
1.728866e-09
-9.151055e-10
2.051418e-10
1.336965e-09
-1.542107e-09
-1.35172e-09
-3.683777e-10
1.720097e-09
1.092661e-09
-2.105427e-09
1.012766e-09
-3.873251e-10
-1.532815e-09
1.92014e-09
1.865111e-09
-9.334527e-10
-9.316579e-10
9.098677e-10
-1.863269e-09
9.53401e-10
-1.979097e-09
1.277638e-09
7.014591e-10
1.663299e-09
-4.309671e-10
-7.601604e-10
-8.521754e-10
-6.65037e-10
1.680093e-09
-1.015056e-09
-1.316287e-09
1.736768e-09
-4.204818e-10
-1.536116e-09
-2.021344e-10
1.738251e-09
-3.089421e-10
1.558037e-09
-1.249095e-09
-2.070108e-10
1.529637e-09
-1.322626e-09
-1.385561e-09
-5.130005e-10
1.898562e-09
1.860186e-09
-9.503187e-10
-2.117034e-09
1.135895e-09
9.811388e-10
8.082068e-10
9.380865e-10
-1.746293e-09
1.665923e-09
-6.475074e-10
-1.018416e-09
-7.121659e-10
-9.982047e-10
1.710371e-09
9.948676e-10
6.23313e-10
-1.618181e-09
-5.27367e-10
2.203585e-09
-1.676218e-09
1.160578e-09
-1.823237e-09
6.626582e-10
1.48643e-09
-1.91286e-09
4.264298e-10
-5.854122e-10
1.731276e-09
-9.531118e-10
1.938715e-09
-9.856029e-10
-1.508279e-09
1.336752e-09
1.715271e-10
-1.276855e-09
-7.496757e-10
2.026531e-09
-1.052588e-09
1.861378e-09
-8.087909e-10
7.962993e-10
-8.549257e-10
-7.575416e-10
-8.093251e-10
-1.134261e-09
1.943586e-09
1.771932e-09
-9.756332e-10
-5.627322e-10
1.824637e-09
-1.744992e-09
8.360349e-10
9.089571e-10
-7.318664e-10
1.897992e-09
-1.166125e-09
4.599795e-10
-1.655071e-09
1.195092e-09
1.794792e-09
-1.298379e-09
-4.96413e-10
-1.560963e-09
8.336035e-10
7.273592e-10
3.219496e-10
-1.776796e-09
1.454847e-09
1.536543e-09
-2.648154e-10
-1.271727e-09
1.957619e-09
-9.610066e-11
-1.570798e-09
2.914682e-10
1.27933e-09
7.990117e-10
1.030276e-09
-1.829288e-09
1.615086e-09
-8.462213e-10
-7.688647e-10
2.435979e-10
-1.683053e-09
1.439455e-09
-2.289114e-09
5.600877e-10
1.729027e-09
6.505058e-10
8.457196e-10
-1.496225e-09
-2.135057e-09
1.550246e-09
5.848117e-10
4.441375e-10
-1.74907e-09
1.304933e-09
-8.386136e-10
1.836673e-09
-9.980596e-10
-6.797095e-10
1.758306e-09
-1.078597e-09
4.470788e-10
-1.220911e-09
7.738325e-10
-3.723429e-10
1.422674e-09
-1.050331e-09
-1.961611e-09
1.227346e-09
7.342647e-10
-1.265618e-09
-3.839006e-10
1.649519e-09
6.074499e-10
1.009856e-09
1.532855e-09
-7.937364e-10
-1.573698e-09
6.241226e-10
9.495757e-10
-1.920606e-09
8.468508e-10
1.073755e-09
-1.018404e-09
-4.178082e-10
1.436213e-09
1.089684e-10
1.653927e-09
-1.762895e-09
2.474705e-10
1.358949e-09
-1.606419e-09
-1.099076e-09
1.875751e-09
-7.766751e-10
9.349245e-10
-2.220649e-09
1.285725e-09
7.678013e-10
8.094343e-10
-1.577236e-09
-1.179885e-09
-5.651067e-10
9.572457e-10
-1.731201e-09
7.739555e-10
3.731379e-10
-1.678021e-09
1.611627e-09
3.459918e-10
-2.977676e-11
-1.379829e-09
1.409605e-09
-6.939991e-10
-9.177489e-10
1.54512e-10
-1.460985e-09
1.306473e-09
9.433076e-10
8.123984e-10
-1.755706e-09
-6.287637e-10
1.541792e-09
-9.130287e-10
7.505647e-10
1.046703e-09
-1.797268e-09
-1.371428e-09
1.2939e-09
7.752779e-11
3.693306e-09
6.485316e-10
-4.341838e-09
9.219617e-10
9.431489e-10
3.883107e-09
-5.214455e-09
1.331348e-09
-1.035176e-09
-7.272582e-10
1.762434e-09
1.939866e-09
-2.775202e-10
-1.662346e-09
-1.044025e-09
-6.152763e-10
1.659301e-09
-9.609587e-10
1.27793e-09
-3.169717e-10
1.631242e-09
-1.075376e-09
-5.558659e-10
8.510182e-10
7.6043e-10
-1.611448e-09
-1.835907e-09
1.283615e-09
8.217e-10
1.068393e-09
-7.592943e-10
-9.83717e-10
1.743011e-09
-9.215946e-10
1.779163e-09
-8.575683e-10
-1.903336e-09
8.38743e-10
1.064593e-09
-1.813079e-09
9.744652e-10
1.028959e-09
-2.007722e-09
3.504097e-09
-6.562178e-09
3.058081e-09
1.584901e-09
-7.071584e-10
-8.777422e-10
-1.813516e-09
1.038681e-09
7.748346e-10
-1.552622e-09
1.274829e-09
-2.012252e-09
1.324825e-09
6.874262e-10
1.629511e-09
-1.474999e-09
-1.107424e-09
1.926177e-09
-8.187522e-10
4.824032e-10
9.386263e-10
-1.42103e-09
1.835626e-09
-1.603172e-09
-2.324539e-10
-1.375789e-09
1.564095e-09
-1.883053e-10
4.742573e-10
1.058597e-09
7.861608e-10
1.071655e-09
-1.857816e-09
1.279198e-09
-1.501349e-09
2.22151e-10
1.224282e-09
5.023568e-10
-1.726639e-09
8.918749e-10
2.536005e-09
1.672954e-09
-5.845949e-10
-1.088359e-09
2.097632e-09
-3.24821e-09
1.150578e-09
-1.196629e-09
-5.057662e-10
1.702395e-09
-1.490308e-09
1.035764e-09
4.545435e-10
-4.955233e-10
1.63213e-09
-1.136606e-09
1.276116e-09
-2.08634e-09
8.102235e-10
-1.065442e-09
-7.476371e-10
4.390483e-10
-1.80286e-09
1.363812e-09
-1.663844e-09
4.672154e-10
-7.880696e-10
-1.029568e-09
1.817638e-09
-7.733355e-10
1.769839e-09
-9.965036e-10
-1.025566e-09
1.456074e-09
-4.305082e-10
1.07229e-09
6.006637e-10
-1.398917e-09
4.423468e-10
9.565702e-10
8.951039e-10
7.657532e-10
-1.660857e-09
-1.817392e-09
9.518953e-10
1.518881e-09
-1.419985e-09
-4.86571e-10
1.769936e-09
-1.283365e-09
-6.469911e-10
-9.480413e-10
1.595032e-09
-1.957166e-09
1.446239e-09
-1.575498e-09
1.840329e-09
-2.648304e-10
-6.045068e-10
-7.996059e-10
1.815948e-09
-1.016342e-09
1.404687e-09
-2.032376e-09
6.27689e-10
8.568891e-10
9.649593e-10
-1.821848e-09
-6.398119e-10
-1.161685e-09
1.801497e-09
-9.37752e-10
-6.707248e-10
1.608477e-09
1.810504e-09
-7.713736e-10
-1.03913e-09
6.452867e-10
8.529732e-10
-1.49826e-09
1.503627e-09
-1.466681e-09
-3.694585e-11
1.738326e-09
-2.290902e-09
5.525759e-10
2.76085e-10
-1.844373e-09
1.568288e-09
1.479221e-09
-7.94429e-10
-6.847918e-10
-1.834198e-09
7.267736e-10
-7.781155e-10
-1.055969e-09
1.834084e-09
5.752122e-09
-1.869015e-09
-2.107792e-09
1.101442e-09
1.00635e-09
-9.483555e-10
-1.234025e-09
2.182381e-09
-1.187957e-09
-6.85491e-10
1.235661e-09
8.062417e-10
-2.041903e-09
1.163356e-09
-1.437047e-09
2.736913e-10
-1.570378e-09
8.517459e-10
7.186324e-10
5.905235e-11
1.354122e-09
-1.413175e-09
1.592563e-09
-1.436768e-09
-1.557955e-10
9.983637e-10
-5.886993e-11
-9.394937e-10
-3.749351e-10
-1.309821e-09
1.684756e-09
-1.819465e-09
5.523255e-10
1.267139e-09
1.833564e-09
-9.513216e-10
-8.822419e-10
-1.710912e-09
5.527733e-09
-3.816821e-09
1.337202e-10
-1.664251e-09
-1.738746e-09
-3.963112e-10
-1.633413e-09
6.913595e-10
-1.347877e-09
1.406929e-09
6.592321e-11
1.097432e-09
-2.17257e-10
-1.866051e-09
2.083308e-09
8.734591e-10
8.712197e-10
9.260453e-10
9.754735e-10
-1.901519e-09
1.258482e-09
-1.037394e-09
-2.210873e-10
9.592216e-11
-1.491141e-09
1.395219e-09
1.376086e-09
3.607041e-10
-1.73679e-09
1.784621e-09
-1.25157e-09
-5.330516e-10
-4.736027e-09
3.01049e-09
1.725537e-09
-1.507025e-09
1.410131e-09
9.689429e-11
-7.796108e-10
-1.182e-09
-1.733969e-09
1.160698e-09
5.732711e-10
-9.947143e-11
1.425932e-09
-1.32646e-09
2.538732e-10
-1.538299e-09
1.284425e-09
-1.454939e-09
1.031991e-09
4.229474e-10
1.271964e-09
1.144328e-09
8.323679e-10
-1.976695e-09
8.151493e-10
-1.696963e-09
8.81814e-10
1.672436e-09
-1.182804e-09
8.997715e-10
-1.684825e-09
7.850535e-10
8.326538e-10
-1.646128e-09
8.134744e-10
-2.456461e-09
9.758401e-10
1.480621e-09
2.154848e-09
-5.992975e-10
-1.55555e-09
3.29106e-09
-3.82313e-09
5.3207e-10
-3.423249e-10
-1.055718e-09
1.398043e-09
6.687001e-10
-1.703876e-09
-7.998101e-10
-5.388032e-10
1.338613e-09
1.069426e-09
-1.555997e-09
-1.907396e-09
1.08618e-09
8.212159e-10
-1.349361e-09
-3.630568e-10
1.712418e-09
-2.245713e-09
1.227308e-09
-6.357243e-10
-7.307191e-10
1.366443e-09
-3.025753e-09
5.195735e-10
2.50618e-09
-4.218419e-10
-1.535034e-09
1.885616e-09
-7.970892e-10
-1.456354e-09
3.800265e-10
1.076327e-09
-2.119712e-09
8.234815e-10
1.296231e-09
1.519898e-09
-1.669347e-09
1.494496e-10
7.732099e-10
-1.687196e-09
6.892758e-10
8.229719e-09
1.67218e-10
-8.396937e-09
-1.233386e-09
1.28782e-09
-5.443492e-11
2.083186e-09
-9.830786e-10
-1.100107e-09
1.82799e-09
-2.038888e-10
-1.624101e-09
-2.083771e-09
1.319787e-09
7.639848e-10
-1.105298e-09
-4.109157e-09
1.674701e-09
-8.76792e-10
-7.979088e-10
2.083674e-09
-9.812615e-10
-1.102413e-09
-1.696783e-09
1.189061e-09
2.085676e-09
-9.83676e-10
-1.102e-09
-5.368071e-10
-1.188885e-09
1.725692e-09
-1.773284e-09
7.886253e-10
9.846591e-10
1.660649e-09
2.541192e-11
8.176271e-10
-1.883548e-09
1.921398e-09
-1.250177e-09
-6.712204e-10
1.889059e-09
-1.025497e-09
-1.069129e-09
1.889613e-09
-1.470433e-09
2.015102e-09
-5.446694e-10
3.625184e-10
-1.522982e-09
1.891732e-09
-1.377345e-09
-5.143867e-10
2.89485e-10
1.315923e-09
-1.605408e-09
3.218272e-10
1.376896e-09
-1.698723e-09
-1.681493e-09
1.185969e-09
3.640542e-10
1.071128e-09
-1.665652e-09
9.534859e-10
-2.063428e-10
-1.059275e-09
-1.498168e-09
1.478235e-09
1.993293e-11
-7.584169e-10
2.071741e-09
-8.675147e-10
-1.282525e-09
2.15004e-09
-7.547198e-10
2.026011e-09
-1.271291e-09
1.742382e-09
-1.488508e-09
7.627981e-10
-1.588312e-09
8.255137e-10
5.674178e-10
6.641655e-10
-1.33626e-09
-1.061468e-10
1.442407e-09
-3.407981e-10
-1.321516e-09
1.662314e-09
-8.099016e-10
5.103102e-10
1.082132e-09
-1.592442e-09
-1.180176e-09
1.289854e-09
-1.096778e-10
-1.700455e-11
1.393255e-09
-1.376251e-09
1.101777e-09
9.818975e-10
2.082835e-09
-9.816343e-10
-1.101201e-09
-1.100602e-09
-9.831697e-10
7.648759e-10
-1.698198e-09
9.333223e-10
-7.177721e-10
1.76278e-09
-1.045008e-09
9.822077e-10
1.100628e-09
-2.082625e-09
1.34182e-09
7.40805e-10
1.905223e-09
-1.140347e-09
7.54993e-10
-2.031848e-09
-2.071451e-10
-1.020721e-09
1.227866e-09
-1.747959e-09
1.06997e-09
6.779888e-10
-1.100624e-09
-9.826531e-10
2.083277e-09
-4.175584e-10
-1.303077e-09
-1.217972e-09
1.098984e-09
1.189883e-10
3.02408e-10
1.234135e-09
1.089698e-09
-2.005211e-09
-4.752932e-10
-1.200255e-09
1.675548e-09
-1.699469e-09
5.859822e-10
1.113486e-09
-7.112957e-10
1.962913e-09
-1.251617e-09
1.704663e-09
-1.414841e-09
1.913078e-09
-1.14844e-09
-7.646383e-10
-7.30177e-10
1.874505e-09
9.811036e-10
8.363333e-10
-1.817437e-09
-1.12812e-09
1.574308e-09
-4.461879e-10
-9.523414e-10
-7.95033e-10
1.747374e-09
-1.889413e-09
1.064819e-09
8.245935e-10
-1.885246e-09
3.351184e-11
1.851734e-09
-1.895475e-09
1.557358e-09
3.381174e-10
1.308084e-09
-3.921189e-10
-9.159648e-10
3.285673e-10
1.531587e-09
-1.860155e-09
1.529237e-09
-1.797505e-09
1.882538e-09
-7.506181e-10
-1.131919e-09
5.490963e-10
1.317056e-09
-1.866152e-09
1.841765e-09
-1.191204e-09
-6.505614e-10
1.689459e-10
-1.402331e-09
-1.788017e-09
1.212614e-09
5.754037e-10
8.346194e-10
8.175604e-10
1.360252e-09
-1.944847e-09
-1.878856e-09
6.267324e-10
1.252124e-09
2.510919e-09
7.417414e-10
8.933443e-10
-2.186482e-09
1.293138e-09
-1.410873e-09
-2.433761e-10
1.65425e-09
-8.11303e-10
1.697897e-09
-8.865938e-10
-1.620363e-09
1.181929e-09
4.38434e-10
-8.105857e-10
-4.873446e-10
1.29793e-09
1.094051e-09
4.809498e-10
-1.683254e-09
8.977874e-10
7.196217e-10
8.577338e-10
-1.577355e-09
1.755163e-09
-5.384446e-10
-1.216719e-09
-1.887599e-09
8.184698e-10
-1.04799e-09
1.602643e-09
-5.546529e-10
1.111394e-09
-1.791103e-09
8.812792e-10
7.209771e-10
-1.602256e-09
4.345112e-10
-1.654306e-09
1.219794e-09
-9.996003e-10
-3.982887e-10
7.743256e-10
-1.245275e-09
4.709495e-10
9.339468e-10
9.830971e-10
-1.917044e-09
-8.112581e-10
1.324686e-09
-5.134276e-10
3.835125e-10
9.626473e-10
-1.34616e-09
-1.838639e-09
1.224206e-09
6.144327e-10
1.9506e-09
-1.377037e-09
-5.735632e-10
8.454166e-10
-1.717621e-09
-1.569086e-09
9.32829e-10
6.362571e-10
1.125746e-09
8.964361e-10
-2.022182e-09
4.126332e-10
-1.761995e-09
-1.612713e-09
1.130406e-09
4.823074e-10
8.231563e-10
7.414522e-10
-1.564609e-09
-1.126423e-09
-4.443751e-10
-5.163335e-09
2.078304e-09
3.085032e-09
-1.857395e-09
3.103331e-10
1.547062e-09
1.747174e-09
-7.534818e-10
3.063823e-09
1.479119e-09
-2.019544e-09
-1.355188e-09
4.56608e-11
-2.566067e-09
2.520407e-09
-6.046328e-10
-7.611574e-09
8.216206e-09
-1.356102e-09
-1.922362e-11
1.375325e-09
-9.035887e-11
-1.427129e-09
1.517487e-09
-2.12481e-09
5.075657e-10
1.617244e-09
-7.374652e-10
1.617313e-09
-8.798475e-10
-1.947484e-09
8.484082e-10
1.55645e-09
-7.294149e-10
-8.270356e-10
9.403969e-10
-1.679144e-09
7.387476e-10
1.680888e-09
-7.05738e-10
-9.751498e-10
-6.840968e-10
1.556947e-09
-8.728505e-10
-8.467596e-10
-5.765057e-10
1.423265e-09
7.602668e-10
1.271014e-09
-2.031281e-09
-5.506283e-10
-1.097829e-09
1.648457e-09
1.611493e-09
-3.143291e-10
-1.297164e-09
1.727648e-10
-1.610182e-09
1.437418e-09
-1.529149e-09
4.899666e-10
1.039183e-09
1.236483e-09
2.517289e-10
-1.488212e-09
1.276875e-09
-2.026551e-09
-8.606331e-10
1.687826e-09
-8.271931e-10
3.859892e-09
-2.968017e-09
-7.806406e-10
-1.14693e-09
1.92757e-09
-8.014958e-10
-1.008556e-09
1.810052e-09
-1.213654e-09
1.741418e-09
-5.277641e-10
1.071452e-09
-1.549148e-09
-6.499883e-10
-1.137634e-09
-9.519446e-10
-2.490519e-10
1.200997e-09
-6.350413e-10
1.412114e-09
-7.770729e-10
1.770111e-09
-1.007313e-09
1.551573e-09
-1.760022e-09
2.084491e-10
1.550346e-09
-1.603289e-09
5.294272e-11
1.908552e-09
-1.172141e-09
-7.364112e-10
-2.000287e-09
4.876192e-10
-2.234387e-09
6.395506e-10
1.594837e-09
-5.705485e-10
1.395765e-09
2.062475e-09
-9.610336e-10
7.723532e-10
-2.048661e-09
1.276308e-09
9.231213e-10
-1.523453e-09
6.003322e-10
6.953228e-10
1.187215e-09
-2.058795e-09
1.69116e-09
6.410315e-10
-1.926955e-09
1.285924e-09
6.090728e-10
-1.866351e-09
1.257278e-09
7.204236e-10
1.114682e-09
-1.835105e-09
8.642562e-10
5.493144e-10
-1.413571e-09
-1.822564e-09
1.22494e-09
-1.428125e-09
-5.124874e-11
1.479374e-09
3.648718e-10
-1.340595e-09
9.757229e-10
9.263476e-10
8.173516e-10
-1.743699e-09
9.80844e-10
8.949068e-10
2.850741e-10
-1.82119e-09
-1.247576e-09
1.384463e-09
-1.368871e-10
-5.738706e-10
1.950818e-09
-1.376948e-09
-1.354477e-09
-5.536058e-10
1.908083e-09
2.835162e-09
-2.010839e-09
-8.243232e-10
-1.599824e-09
6.572384e-10
9.425853e-10
-1.008105e-09
1.764326e-09
-7.562206e-10
-7.499402e-10
-1.24567e-09
-4.026813e-10
1.593243e-09
-6.898309e-10
2.002058e-09
-1.312227e-09
-1.669024e-09
1.261154e-09
4.078699e-10
-1.699614e-09
1.321825e-09
3.777882e-10
-4.922504e-10
-2.399846e-09
2.892097e-09
-9.636325e-10
9.705604e-10
-1.833483e-09
8.629226e-10
-1.103179e-09
-9.800595e-10
2.083239e-09
-4.408061e-10
1.79181e-09
-1.351004e-09
-1.574191e-09
9.373445e-10
6.368467e-10
1.54513e-09
1.935055e-11
-1.564481e-09
-8.6661e-10
-1.407605e-09
2.274215e-09
-1.377321e-09
1.734525e-09
-3.572042e-10
-1.734212e-09
1.359277e-09
-1.929865e-09
2.214939e-09
1.621559e-09
-1.133758e-09
-4.878004e-10
5.729844e-10
-1.830646e-09
1.257661e-09
-1.070512e-09
1.752876e-09
-6.823639e-10
-1.073577e-09
-6.403707e-10
1.713947e-09
7.399076e-10
8.052226e-10
3.317376e-09
9.885298e-10
-4.305906e-09
6.487127e-10
-1.773635e-09
1.124922e-09
-1.298761e-09
1.958138e-09
-1.803097e-09
1.005466e-09
7.976311e-10
9.218328e-10
9.939012e-10
-3.24301e-09
8.768181e-10
-1.932112e-09
1.055294e-09
-4.29128e-10
-1.500737e-09
9.719832e-10
6.899648e-10
1.501619e-09
-2.191583e-09
-1.310427e-09
1.16009e-09
1.503374e-10
-1.139374e-09
-4.33357e-10
-2.117213e-09
2.311558e-09
-1.943458e-10
-4.547566e-10
-1.30992e-09
1.764677e-09
-7.031433e-10
2.226777e-09
-1.523634e-09
1.305805e-09
-1.286455e-09
1.678646e-09
-9.369496e-10
-7.41696e-10
3.810802e-09
-2.856417e-10
-3.52516e-09
9.744374e-10
6.104632e-10
-7.803539e-10
1.537083e-09
-7.567291e-10
7.241945e-10
-1.361687e-11
-1.432798e-09
1.446415e-09
1.034986e-09
-8.510584e-11
1.485154e-09
1.326905e-09
5.087203e-10
-7.571567e-11
3.579813e-09
-7.629327e-10
-8.527689e-10
-7.527559e-10
7.624008e-10
3.048401e-09
-1.070463e-09
-7.028217e-10
1.337373e-09
-1.422479e-09
-7.612123e-10
-5.662321e-10
-1.114906e-09
-1.910101e-10
1.305916e-09
1.863169e-10
-1.79903e-09
-1.069559e-09
1.829825e-09
-1.446224e-09
3.269196e-10
1.922764e-09
-9.362534e-10
-1.822942e-09
5.729548e-10
1.249987e-09
-3.130527e-10
-1.405323e-09
1.718375e-09
1.539922e-09
3.999446e-10
-1.20992e-09
2.042287e-09
6.049412e-10
5.147181e-09
-1.286365e-09
8.74219e-10
4.121456e-10
-7.752768e-10
1.797443e-09
-1.022166e-09
-1.389539e-09
2.136508e-09
-7.469692e-10
-4.027396e-10
-1.563221e-09
1.521147e-09
4.207404e-11
-2.163113e-10
1.596644e-09
-1.380333e-09
-1.641925e-09
1.439791e-09
9.663807e-10
-1.703846e-09
6.850532e-10
1.063176e-09
-1.748229e-09
8.947683e-10
1.120123e-09
-2.014892e-09
1.952891e-09
-8.696823e-10
-1.083209e-09
1.164226e-09
3.922246e-10
1.709932e-09
-1.016695e-09
-6.932369e-10
1.860288e-09
-1.061276e-09
9.21602e-10
-1.699718e-09
-1.781192e-09
9.602225e-10
8.209697e-10
9.732084e-10
-1.37589e-09
-1.91061e-09
9.290947e-10
-1.616887e-09
8.845356e-10
7.32351e-10
1.586609e-09
-7.907676e-10
-7.958411e-10
7.020008e-10
-5.04705e-10
-1.810465e-09
1.213998e-09
5.964673e-10
1.20008e-09
-1.737467e-09
5.373873e-10
-2.666987e-10
1.753129e-09
-1.81733e-09
8.579223e-10
9.594078e-10
3.685653e-10
1.099379e-09
-1.467944e-09
-1.834384e-09
6.920688e-10
1.142315e-09
1.18276e-10
-1.52226e-09
1.403984e-09
1.885779e-09
-1.336683e-09
1.399284e-09
1.46702e-09
-8.71833e-11
-1.379837e-09
-2.021913e-09
4.83614e-10
-1.830792e-09
1.271125e-09
5.59667e-10
-1.17837e-09
1.712457e-09
-5.340864e-10
1.023373e-09
-1.800712e-09
4.494919e-10
-1.704445e-09
1.254953e-09
-1.204372e-09
2.94997e-10
9.093751e-10
1.127329e-09
-1.671397e-09
9.714941e-10
-1.71232e-09
7.408262e-10
6.521197e-10
-2.041659e-09
-1.310207e-09
1.553805e-09
1.886448e-09
-1.237736e-09
-7.168318e-10
9.918088e-10
5.777578e-10
-1.569567e-09
7.734143e-10
-3.002145e-10
-1.035592e-09
1.335806e-09
3.17224e-10
2.018314e-09
-2.335538e-09
-1.220268e-09
-6.775111e-10
1.897779e-09
-1.009275e-09
1.218872e-09
-1.51773e-09
2.988574e-10
-1.730065e-09
9.285687e-10
-8.764839e-10
-7.372344e-10
-1.210826e-09
-3.110812e-10
1.521907e-09
9.407089e-11
-1.430993e-09
1.336922e-09
-6.687015e-10
1.816389e-09
-1.147687e-09
-1.095851e-09
1.351221e-09
-5.440919e-10
-8.071292e-10
-7.186875e-10
-9.743861e-10
1.693074e-09
-1.210584e-09
8.682595e-10
-1.981033e-09
1.133748e-09
1.926164e-09
4.22271e-10
-2.348435e-09
-1.115904e-09
-4.017829e-10
1.517687e-09
-1.568941e-09
6.71682e-10
8.972587e-10
-8.487656e-10
1.931369e-09
-1.082604e-09
-1.208549e-09
1.190917e-09
1.763218e-11
-1.649577e-09
9.308894e-10
-1.245376e-09
2.171421e-09
1.17638e-09
7.760953e-10
1.187451e-09
-1.291227e-09
-8.671092e-10
2.158336e-09
-1.900085e-09
8.393802e-10
1.060705e-09
-9.220234e-10
-7.761748e-10
2.083387e-09
-1.101179e-09
-1.788951e-10
1.675854e-09
-1.496959e-09
7.716454e-10
1.20995e-09
-9.234835e-10
1.818252e-09
1.215227e-09
6.365181e-10
-1.851745e-09
-3.792986e-10
-1.5642e-09
1.943499e-09
1.891508e-09
-1.069808e-09
-1.190035e-09
1.866592e-09
-6.765563e-10
-7.520093e-11
1.751989e-09
-1.676788e-09
1.153304e-09
-1.686401e-09
5.330977e-10
-1.490382e-09
7.351654e-10
7.552164e-10
-1.261352e-09
-6.267801e-10
1.888132e-09
-2.096979e-09
7.806929e-10
1.174213e-09
9.622949e-10
2.725509e-10
9.734095e-10
-1.24596e-09
9.316375e-10
-1.825045e-09
8.934071e-10
-1.316257e-09
1.968377e-09
-4.194423e-09
1.681876e-09
2.512547e-09
-1.658441e-09
1.195689e-09
-1.68467e-09
8.966001e-10
1.539935e-09
-1.470578e-09
-6.935787e-11
1.402356e-09
-1.630861e-09
8.818598e-10
2.810533e-09
1.112357e-09
2.30112e-10
-1.267966e-09
7.507644e-10
5.172011e-10
-1.437708e-09
5.433186e-10
8.943894e-10
-3.039209e-10
-1.021664e-09
1.149908e-09
-1.453997e-09
3.040899e-10
-1.438226e-09
1.425467e-09
1.275917e-11
-1.637e-09
-1.467311e-09
7.013145e-10
7.659962e-10
1.298187e-09
-3.42898e-10
-9.55289e-10
2.152657e-09
1.080834e-09
8.215542e-10
-1.902388e-09
-6.525892e-10
1.296109e-09
1.152004e-09
-2.448113e-09
-6.312795e-10
-7.644378e-10
1.850618e-09
7.02897e-10
-1.558877e-09
8.5598e-10
-9.752148e-10
-9.058573e-10
1.881072e-09
-1.695228e-09
3.635737e-10
1.331654e-09
-1.887534e-09
9.372968e-10
9.502371e-10
-1.446217e-09
3.982273e-10
-1.288308e-09
-3.947444e-10
-1.277547e-09
1.37347e-09
1.635996e-09
-7.858784e-10
-8.501171e-10
-1.588694e-09
-2.144036e-10
-1.342576e-09
1.777087e-09
-1.333851e-09
2.057307e-10
-9.986157e-10
1.634627e-09
-6.360109e-10
2.170877e-09
-1.195926e-09
-9.749512e-10
1.586234e-09
-8.848774e-10
-7.013566e-10
-1.597604e-09
6.930071e-10
9.045964e-10
-1.10375e-09
-1.513306e-09
1.514389e-09
-1.082613e-12
4.623613e-10
1.035066e-09
-1.497427e-09
5.531621e-10
-1.550443e-09
9.972807e-10
1.271261e-09
-2.025981e-09
1.037495e-09
1.098699e-09
-2.136194e-09
-1.250284e-09
-1.206178e-09
-1.681392e-09
1.185432e-09
4.959594e-10
-1.079191e-09
1.058283e-09
-1.884266e-09
8.259824e-10
1.078149e-09
8.121706e-10
-1.890319e-09
-8.290733e-10
1.800567e-09
9.913353e-10
-1.904917e-09
-2.005175e-09
1.083581e-09
1.815293e-09
-8.239579e-10
1.691825e-09
1.690592e-09
-1.213812e-09
-4.767799e-10
-9.407542e-10
1.755904e-09
8.879876e-10
-1.687593e-09
1.798686e-09
-7.205375e-10
8.917238e-10
-1.70675e-09
-5.508917e-10
-7.595356e-10
-1.831442e-09
8.217702e-10
1.009672e-09
-1.618918e-09
4.551015e-10
-1.539064e-09
-1.154859e-09
-1.134256e-09
-1.580003e-09
-9.014581e-10
1.708023e-09
-8.065648e-10
1.288238e-09
-7.643621e-10
1.61538e-09
1.139241e-09
1.120937e-10
-1.251335e-09
1.604144e-09
-1.470424e-09
1.124553e-09
-6.50647e-10
1.938885e-09
8.142069e-10
9.561069e-10
-1.770314e-09
2.164573e-09
-8.51513e-10
-1.31306e-09
-8.598918e-10
-1.25982e-09
8.505183e-10
1.176012e-09
-9.834666e-10
-1.101555e-09
1.062481e-09
8.50597e-10
-1.22894e-09
1.886716e-09
-6.577755e-10
1.901361e-09
-6.706143e-10
-1.230747e-09
-8.602375e-10
-7.101408e-10
1.104696e-09
-1.492022e-09
1.127548e-09
-1.68306e-09
1.682667e-09
-1.537734e-09
-1.449325e-10
-2.380648e-10