/*--------------------------------*- C++ -*----------------------------------*\
| =========                 |                                                 |
| \\      /  F ield         | OpenFOAM: The Open Source CFD Toolbox           |
|  \\    /   O peration     | Version:  2406                                  |
|   \\  /    A nd           | Website:  www.openfoam.com                      |
|    \\/     M anipulation  |                                                 |
\*---------------------------------------------------------------------------*/
FoamFile
{
    version     2.0;
    format      ascii;
    arch        "LSB;label=32;scalar=64";
    class       volVectorField;
    location    "0.28";
    object      U;
}
// * * * * * * * * * * * * * * * * * * * * * * * * * * * * * * * * * * * * * //

dimensions      [0 1 -1 0 0 0 0];

internalField   nonuniform List<vector> 
4529
(
(0.009955558 -6.735105e-05 -1.471502e-26)
(0.009990442 -7.611914e-05 -2.914091e-26)
(0.0100306 -6.239718e-05 4.059033e-26)
(0.01002093 -1.418042e-05 0)
(0.009892814 7.903972e-06 1.298329e-25)
(0.009974971 -1.023556e-05 0)
(0.00981044 7.257806e-05 1.212065e-25)
(0.01002351 -2.450346e-05 0)
(0.009876264 -0.0001085749 -4.378176e-26)
(0.009981185 -1.375597e-05 7.534185e-29)
(0.009928534 2.451116e-05 2.474967e-25)
(0.009973489 7.241793e-06 0)
(0.009970492 -2.215282e-06 2.140075e-26)
(0.009970614 4.053017e-06 0)
(0.00996847 -1.946149e-05 -4.19439e-26)
(0.009965485 -0.0001181078 0)
(0.01003005 -2.6678e-05 -1.083471e-25)
(0.009845528 -3.957885e-05 0)
(0.009958663 -4.626563e-05 -1.511965e-25)
(0.01007113 -0.0001414113 -1.923511e-25)
(0.009876624 1.181296e-05 -3.144174e-25)
(0.009957041 -3.80091e-05 -7.602418e-26)
(0.009927303 -5.614226e-05 -1.575019e-25)
(0.009945965 1.230412e-05 1.200788e-26)
(0.009967381 1.490802e-07 9.40444e-27)
(0.01003638 -0.0001557655 0)
(0.009984107 -1.29631e-05 5.774678e-27)
(0.0099225 -7.172473e-05 2.509786e-25)
(0.01001789 -2.270066e-05 -6.568414e-27)
(0.01000041 -0.000136344 0)
(0.009919457 -5.361703e-05 -2.316928e-25)
(0.009944138 -1.539537e-05 1.301923e-25)
(0.01000252 -3.657371e-05 0)
(0.01000702 -2.591419e-05 9.556822e-28)
(0.009965934 -0.0001141316 -1.718153e-25)
(0.009869185 5.801399e-05 2.349233e-25)
(0.009969874 9.406218e-07 -1.330268e-27)
(0.009966276 2.223396e-05 -5.552263e-26)
(0.01000465 -0.0001163644 -3.325564e-26)
(0.01000659 -3.137055e-05 -2.747252e-28)
(0.009979072 1.141787e-05 -1.173555e-27)
(0.009978472 -1.871597e-05 -1.258612e-26)
(0.009961777 -1.788014e-05 0)
(0.009942314 -4.317954e-05 0)
(0.009988119 -3.711995e-05 0)
(0.009997136 -6.456598e-05 8.333285e-28)
(0.00998177 -0.0001466944 2.595329e-25)
(0.009970876 -4.995338e-05 0)
(0.009947131 -4.798318e-05 0)
(0.00986375 -0.0001008849 -1.925361e-25)
(0.009961237 5.134404e-06 5.711656e-27)
(0.009986201 -1.645849e-05 8.798212e-27)
(0.009964042 -4.502325e-05 1.033996e-25)
(0.01002596 -7.026719e-05 7.972416e-27)
(0.01002233 -3.319938e-05 1.830291e-26)
(0.01006417 -0.0001377008 1.010903e-25)
(0.00997234 -2.145257e-06 7.045377e-28)
(0.009927482 8.22365e-07 -1.436411e-27)
(0.009900974 -1.316901e-05 0)
(0.009913198 -7.939415e-05 -1.379894e-25)
(0.01002041 -0.0001067748 -1.806789e-26)
(0.009960296 6.654621e-06 -5.507488e-27)
(0.009823616 4.734262e-05 1.840422e-25)
(0.009930838 -1.011447e-06 0)
(0.009990062 -1.444579e-05 3.619066e-27)
(0.00996002 7.523836e-06 -4.788605e-26)
(0.01000421 -2.094603e-05 0)
(0.009975493 -2.225381e-05 -4.16774e-26)
(0.009968841 2.312703e-05 4.782921e-26)
(0.009864728 -2.318353e-05 -8.100447e-26)
(0.009916432 2.649076e-05 0)
(0.009999591 -1.544258e-05 0)
(0.009981301 -0.0001165989 0)
(0.01002068 -4.144343e-06 0)
(0.009968301 -0.0001203493 -1.25028e-26)
(0.01001186 -1.825933e-05 -2.279467e-27)
(0.01001542 -1.522224e-05 -7.370097e-27)
(0.009963507 -2.352222e-05 0)
(0.009965231 -1.966493e-05 0)
(0.01003186 -3.631419e-05 7.666834e-26)
(0.009913961 3.595144e-05 -1.513601e-25)
(0.01000495 -3.417231e-05 -1.077625e-27)
(0.009907834 3.446961e-05 0)
(0.009979015 -1.167603e-05 5.365767e-27)
(0.0098895 -9.942084e-05 -1.060993e-26)
(0.009827352 -0.000111323 -8.43743e-25)
(0.009922016 1.433704e-05 1.483675e-25)
(0.009930021 7.863239e-06 -1.018178e-25)
(0.01000765 -1.602753e-05 -4.21826e-27)
(0.01001423 -3.207752e-05 1.423651e-26)
(0.009967064 -4.697839e-05 4.722137e-26)
(0.009929626 -4.274597e-05 -1.648038e-25)
(0.009963766 2.358394e-05 0)
(0.009980642 -0.000154267 0)
(0.009877936 9.487697e-07 0)
(0.009775092 4.658556e-05 -5.841823e-25)
(0.009859941 5.722082e-05 -1.801729e-25)
(0.009896102 -4.228815e-05 2.64801e-25)
(0.009948983 1.302029e-05 -9.639625e-26)
(0.009934676 -5.870165e-05 5.037362e-26)
(0.009958311 -3.568562e-06 -1.083537e-26)
(0.009974421 1.841785e-05 -5.193733e-26)
(0.009999803 -2.788316e-05 -1.104021e-26)
(0.009907748 -3.439584e-05 -4.308258e-25)
(0.009929181 -3.773396e-05 1.061474e-25)
(0.00999023 -7.373996e-05 1.222369e-25)
(0.009957367 -4.751888e-07 -1.070474e-25)
(0.01001464 -4.030323e-05 8.004592e-27)
(0.009960522 -5.990737e-06 -2.490833e-26)
(0.00993969 -8.235534e-05 7.567595e-26)
(0.009993861 -1.766315e-05 -2.928733e-27)
(0.009954768 -8.7543e-06 0)
(0.009839255 4.557191e-05 -5.634662e-25)
(0.00992509 1.043303e-05 0)
(0.01002869 -8.695591e-05 0)
(0.009980045 -1.589544e-05 8.337379e-27)
(0.009962613 -5.126656e-05 1.356587e-25)
(0.009937774 -3.38249e-05 -1.398519e-25)
(0.009841408 -6.599781e-05 2.294908e-27)
(0.009968309 -1.592207e-05 0)
(0.009992563 -0.0001333647 2.460131e-26)
(0.009996217 -1.844352e-05 4.186856e-28)
(0.009988189 -2.969146e-05 -1.812994e-26)
(0.009960597 2.146445e-05 0)
(0.01001652 -2.418536e-05 1.331897e-26)
(0.009824665 -0.0001175506 4.178317e-25)
(0.009976853 -1.044592e-05 3.838386e-27)
(0.009983641 -2.059901e-05 1.218455e-26)
(0.009976496 1.259889e-05 -9.731224e-27)
(0.009966312 -3.837042e-06 3.31019e-26)
(0.009970948 6.168417e-06 3.418076e-27)
(0.009962522 -3.723554e-05 5.248873e-26)
(0.009959744 1.082342e-05 -8.316251e-26)
(0.009927191 9.714911e-06 3.623777e-25)
(0.009913291 -3.643403e-05 0)
(0.01000605 -4.252832e-05 0)
(0.009991655 -3.750103e-05 -2.34105e-26)
(0.009824609 3.152417e-05 0)
(0.0099841 -4.77679e-05 -7.288908e-26)
(0.01000789 -3.570102e-05 0)
(0.009983786 1.204815e-05 -1.709644e-26)
(0.009996817 -1.546887e-05 0)
(0.009918638 -2.39075e-06 -1.464761e-25)
(0.01001403 -8.918947e-05 2.932787e-27)
(0.01000332 -5.097468e-05 -1.807625e-26)
(0.01004979 -0.0001468933 -5.449721e-26)
(0.009888337 -8.112675e-05 0)
(0.009853766 -9.57056e-05 0)
(0.009963226 -1.257605e-05 -2.5518e-26)
(0.009838776 7.514561e-06 -4.565766e-25)
(0.009989604 -1.739845e-05 0)
(0.009972887 1.814159e-05 -3.75421e-27)
(0.01000959 -1.681483e-05 2.65479e-28)
(0.009988863 -0.0001209612 -7.106588e-26)
(0.00982303 -3.524927e-05 0)
(0.00988244 -5.469797e-05 3.093685e-25)
(0.0100033 -4.741159e-05 0)
(0.009968769 -2.015409e-07 -6.688114e-28)
(0.01004203 -0.0001323101 0)
(0.009989559 -1.618971e-05 1.514977e-27)
(0.00999602 -2.513168e-05 -9.034511e-27)
(0.01000171 -0.000145269 3.969373e-26)
(0.009940059 -2.742641e-05 2.318139e-25)
(0.009960301 -2.944804e-05 0)
(0.009967217 1.857043e-06 7.709409e-27)
(0.009948147 -7.962509e-05 2.575221e-25)
(0.009851893 -0.0001072866 5.272702e-26)
(0.01003561 -0.0001212143 -3.743265e-26)
(0.009908559 -4.100874e-05 0)
(0.01002385 -6.854312e-05 0)
(0.009991427 -4.349991e-05 -1.538821e-26)
(0.009921609 -1.412104e-05 0)
(0.009790605 3.326162e-05 3.773125e-25)
(0.009983721 -3.335621e-05 -5.101798e-26)
(0.009937833 2.163647e-05 3.226926e-26)
(0.009907911 1.849956e-05 1.929229e-25)
(0.01001515 -3.102404e-05 0)
(0.009967574 -7.991947e-05 3.878881e-26)
(0.009968726 -5.646644e-06 6.50272e-27)
(0.009840984 -3.549114e-05 0)
(0.00999545 -4.324691e-05 2.243609e-26)
(0.00994661 -4.831155e-06 0)
(0.009957733 -2.586356e-05 -7.108431e-26)
(0.01002103 -3.967026e-05 0)
(0.009963839 2.247301e-05 -1.695815e-26)
(0.01003944 -2.452932e-05 -1.632044e-25)
(0.0100605 -0.0001123202 2.205179e-26)
(0.009959956 1.324129e-05 6.282729e-26)
(0.009966649 -2.449341e-05 -6.592711e-26)
(0.009855534 5.351437e-05 -2.862586e-25)
(0.009985752 -0.000115071 0)
(0.009961556 -8.783362e-06 4.025554e-26)
(0.01001591 -2.614575e-05 1.006763e-26)
(0.009964918 -0.0001023806 0)
(0.009948948 -7.385783e-06 0)
(0.009955741 -1.233883e-05 0)
(0.009919419 2.560433e-05 0)
(0.009981287 1.140112e-05 0)
(0.009963583 -2.239231e-05 0)
(0.009951368 -1.851582e-05 -1.178e-25)
(0.009961445 1.06044e-05 0)
(0.009962893 1.855118e-05 0)
(0.009962508 1.538253e-05 -3.266129e-26)
(0.00993998 1.049106e-05 2.735938e-26)
(0.01002566 -8.699615e-05 2.374648e-26)
(0.009948933 -3.159459e-07 -8.758287e-26)
(0.009957522 1.586818e-05 0)
(0.009969994 2.348795e-05 4.907184e-26)
(0.01000962 -2.823063e-05 -4.799324e-27)
(0.009808925 -1.970547e-05 7.350061e-25)
(0.009827725 -6.143608e-06 1.682322e-26)
(0.009974367 1.43527e-05 3.120292e-27)
(0.009946116 -3.676719e-05 0)
(0.009886161 2.727487e-05 2.581425e-25)
(0.009978723 -2.480008e-05 0)
(0.009977377 -2.099191e-05 5.723695e-26)
(0.009847909 -2.813037e-06 2.95317e-25)
(0.009922548 2.192204e-05 -1.07384e-26)
(0.009813524 -8.733979e-05 8.690145e-25)
(0.009880745 -1.937726e-06 1.536074e-25)
(0.009976369 -7.894835e-06 -2.305495e-26)
(0.009899737 -4.767298e-05 -4.703667e-25)
(0.009971837 1.229174e-05 3.292904e-26)
(0.01002676 -4.035294e-05 -5.519275e-26)
(0.009907536 -0.0001107394 5.848782e-26)
(0.009940357 -9.081999e-05 -4.048517e-25)
(0.009941497 -8.74114e-06 -6.127593e-26)
(0.009922961 1.929422e-05 0)
(0.009969298 -5.978715e-05 1.984896e-27)
(0.009952628 9.917267e-07 0)
(0.009796439 -1.580741e-05 -4.418439e-25)
(0.009962441 -1.405988e-05 9.670155e-26)
(0.01001123 -2.923795e-05 -3.74539e-27)
(0.009946126 -0.0001173953 -4.544932e-25)
(0.009962409 -1.479374e-06 -3.752464e-26)
(0.009964286 5.198634e-06 0)
(0.009994899 -1.744332e-05 -2.432139e-28)
(0.009967925 5.87419e-06 0)
(0.009943316 -4.66261e-05 0)
(0.009975848 -1.182359e-05 -5.215983e-27)
(0.009986798 -1.354638e-05 1.335742e-28)
(0.009929674 1.008799e-06 0)
(0.009977198 -8.547077e-06 -2.156139e-26)
(0.009931949 -9.117869e-06 0)
(0.009930817 3.09516e-06 0)
(0.009938045 -0.0001444656 -1.781574e-25)
(0.00995607 -0.0001306636 1.003297e-25)
(0.009806789 7.255346e-06 5.119982e-25)
(0.009970192 1.301809e-05 2.388085e-26)
(0.009967453 -7.400646e-06 -4.036444e-28)
(0.009954537 1.948795e-06 1.781829e-27)
(0.009974428 -0.0001156268 0)
(0.00985508 -0.0001247207 1.155199e-25)
(0.01001452 -1.484892e-05 -3.240017e-28)
(0.009917741 -8.817472e-05 0)
(0.01000005 -2.366892e-05 0)
(0.009975891 -8.472021e-06 0)
(0.009966381 1.219594e-05 0)
(0.009984911 -2.273602e-05 0)
(0.009889831 -1.782288e-05 0)
(0.009960037 -8.616257e-05 0)
(0.009980284 -7.378961e-05 -6.310103e-26)
(0.009923363 3.208457e-05 1.783472e-25)
(0.009999209 -3.79696e-05 0)
(0.01000971 -3.964672e-05 -1.261801e-28)
(0.009991167 -1.69107e-05 -8.819239e-28)
(0.009995673 -3.30946e-05 -1.519149e-26)
(0.009958788 5.805921e-06 0)
(0.009960786 1.246127e-05 7.916409e-26)
(0.009996763 -0.0001308291 -5.635469e-26)
(0.009909296 2.297804e-05 -1.989848e-25)
(0.009922905 -4.323367e-06 0)
(0.009983362 -8.838866e-05 3.713975e-27)
(0.009947244 -0.0001104004 -4.867328e-27)
(0.01001199 -2.200282e-05 0)
(0.00988627 -3.602913e-05 -2.723835e-25)
(0.009944094 -1.12813e-05 9.356236e-26)
(0.009976123 9.271619e-06 -1.156492e-26)
(0.009954265 -0.0001357898 -1.486705e-25)
(0.01001793 -3.26544e-05 1.252325e-26)
(0.01001547 -2.724575e-05 1.03013e-27)
(0.01001462 -1.418127e-05 -9.031256e-27)
(0.01001007 -2.037448e-05 7.90944e-27)
(0.009972716 2.256242e-06 2.497036e-26)
(0.01003515 -0.0001025104 0)
(0.009882288 -4.604834e-05 -2.541728e-25)
(0.009970516 5.889795e-07 1.612713e-26)
(0.009948659 3.530272e-06 2.219147e-25)
(0.009940913 1.791175e-06 1.736242e-26)
(0.01007988 -6.692011e-05 -5.403264e-26)
(0.009852639 -2.646698e-06 -2.722336e-25)
(0.01009699 -6.825507e-05 -1.694328e-25)
(0.009972471 8.242912e-06 5.476509e-27)
(0.01001984 -8.089398e-05 4.43973e-27)
(0.009993091 -5.109381e-05 4.284795e-27)
(0.009942736 2.331215e-05 -2.56009e-25)
(0.009953722 -4.261325e-05 -1.289349e-25)
(0.009977105 -9.52792e-06 0)
(0.009821883 2.64019e-05 6.385994e-25)
(0.009851419 -3.741797e-05 0)
(0.009996547 -5.08981e-05 -3.017956e-26)
(0.009920872 9.708296e-06 0)
(0.009918931 -7.312363e-06 0)
(0.009921049 3.03557e-05 1.627e-25)
(0.009944069 -1.73237e-05 -2.771074e-27)
(0.01005512 -4.537963e-05 -1.060759e-25)
(0.009988941 -6.343151e-05 0)
(0.009802502 3.912753e-05 6.454294e-26)
(0.009915738 -8.218101e-05 2.695352e-25)
(0.00997192 -2.344433e-05 -5.585225e-26)
(0.01003174 -0.0001028408 -3.189732e-26)
(0.009984767 -4.094758e-05 3.270264e-26)
(0.00987514 -9.963578e-05 -5.166378e-26)
(0.009951243 -3.902853e-05 1.777233e-25)
(0.009954401 -5.210713e-05 1.298202e-25)
(0.009996334 -0.0001271744 -7.979608e-26)
(0.00998424 -1.386334e-05 -2.08619e-27)
(0.009905655 -1.811383e-05 0)
(0.009875005 -1.142463e-05 -1.535629e-25)
(0.0100313 -3.292424e-05 0)
(0.009977715 1.225584e-05 1.475127e-27)
(0.01002485 -1.785423e-05 0)
(0.009960793 1.612282e-06 1.213834e-27)
(0.009961221 -1.054207e-05 -3.531965e-26)
(0.009971348 -6.910766e-06 7.319842e-27)
(0.009994421 -3.065383e-05 -2.965388e-26)
(0.00991808 3.152171e-05 -1.619211e-25)
(0.009959351 -5.775502e-07 4.773096e-26)
(0.009960129 2.403335e-06 -2.810061e-26)
(0.009952056 5.578516e-06 0)
(0.009951004 -1.352736e-06 1.765553e-26)
(0.01001009 -0.0001465459 2.150162e-26)
(0.009978023 1.172603e-05 0)
(0.009936005 -2.874189e-05 -1.241273e-26)
(0.009973348 -4.575791e-06 0)
(0.009994927 -6.575258e-05 -2.960728e-26)
(0.01001678 -0.0001068591 -3.915354e-27)
(0.009982794 -6.017756e-05 -1.746015e-25)
(0.00994403 1.823898e-05 0)
(0.009977385 -1.091488e-05 -2.483214e-27)
(0.009968895 7.171047e-06 0)
(0.009805656 -8.9932e-05 -2.16968e-25)
(0.009848295 -8.787343e-05 0)
(0.009953786 1.806636e-05 -8.683247e-26)
(0.009939659 2.540828e-05 4.555558e-27)
(0.00997326 -6.411844e-05 0)
(0.009976589 1.037005e-05 0)
(0.009973631 8.417664e-06 4.590091e-27)
(0.009864007 -8.07639e-05 3.961312e-25)
(0.01002055 -0.0001289656 1.679943e-26)
(0.01002001 -2.332483e-05 -7.225208e-27)
(0.01001179 -8.124801e-05 -4.733097e-27)
(0.009792529 6.175603e-05 0)
(0.009986152 -4.229045e-05 4.141621e-27)
(0.009996225 -2.084063e-05 0)
(0.01009131 -5.697663e-05 -6.370035e-26)
(0.009989813 -2.805436e-05 0)
(0.009987406 -0.0001047805 -2.222846e-26)
(0.01001283 -1.37986e-05 3.425769e-26)
(0.009978113 -5.828625e-05 -5.585653e-27)
(0.01002376 -5.308976e-05 9.001082e-27)
(0.009934548 -7.446353e-05 0)
(0.009959543 -7.518769e-05 -1.026705e-25)
(0.009879112 3.03611e-05 0)
(0.009913217 1.651331e-05 0)
(0.009965283 -1.293707e-06 1.484573e-26)
(0.009991263 -8.134558e-05 0)
(0.009945871 7.987681e-06 -1.044958e-25)
(0.01002524 -1.337555e-05 0)
(0.00987572 4.619023e-05 2.432286e-25)
(0.009959966 -8.987264e-05 4.56638e-26)
(0.009878458 -5.255564e-05 -3.110515e-25)
(0.00996231 -7.649808e-05 3.021469e-25)
(0.01002248 -5.150729e-05 1.557546e-27)
(0.01003137 -5.3427e-05 0)
(0.009904616 -1.251608e-05 -5.786225e-27)
(0.009934615 -1.943961e-05 3.152128e-26)
(0.01001837 -4.427999e-05 -8.101676e-27)
(0.01001215 -5.640407e-05 -1.576792e-27)
(0.009976296 -8.133886e-05 -3.128623e-26)
(0.009971429 -9.475175e-05 0)
(0.01009249 -8.084336e-05 5.963959e-26)
(0.01001848 -3.7579e-05 3.582249e-26)
(0.009995234 -3.481233e-05 1.181916e-26)
(0.009963823 -1.880305e-06 1.730015e-26)
(0.009998347 -7.77479e-05 0)
(0.01000059 -8.308391e-05 3.601662e-26)
(0.009983624 -6.93667e-05 2.239882e-26)
(0.009932135 -0.0001437578 0)
(0.01002938 -8.108809e-05 -5.236844e-26)
(0.009879676 -6.596084e-05 -3.22812e-25)
(0.009959793 9.6359e-06 2.915682e-26)
(0.009952497 9.060537e-06 0)
(0.01000237 -2.653846e-05 5.650407e-27)
(0.01003463 -7.304552e-05 -5.669727e-26)
(0.0099729 -1.872131e-05 6.304855e-26)
(0.01004515 -5.775546e-05 1.133183e-25)
(0.009968818 -9.60639e-06 -1.570351e-26)
(0.009972632 8.845944e-06 -4.203622e-27)
(0.009977676 9.533279e-06 -1.711013e-26)
(0.009985076 -6.106829e-05 3.258059e-26)
(0.009995745 -2.856234e-05 7.851306e-28)
(0.009975447 -7.592692e-05 -5.031086e-26)
(0.009985858 -9.047599e-05 -1.017977e-25)
(0.009806045 6.24898e-05 2.912536e-25)
(0.0100342 -4.829914e-05 -7.015857e-26)
(0.01000593 -0.0001206229 0)
(0.009953471 2.385983e-05 0)
(0.01001101 -3.752395e-05 9.334206e-27)
(0.009916085 -1.597109e-05 -2.937386e-25)
(0.009966093 4.084432e-06 8.41603e-27)
(0.009957748 -0.0001395122 -1.617946e-26)
(0.009892884 -4.0459e-05 -2.296675e-25)
(0.01002508 -3.686687e-06 0)
(0.009966285 -3.947976e-05 0)
(0.009979014 -2.85146e-05 0)
(0.0100106 -2.388944e-05 1.87589e-26)
(0.009982271 -2.812992e-05 4.789475e-26)
(0.01010937 -7.541305e-05 4.62217e-25)
(0.009980463 -5.176313e-05 -9.345716e-26)
(0.009981301 -3.992536e-05 6.296756e-26)
(0.009989374 -4.353474e-05 1.731903e-26)
(0.009991112 -3.17172e-05 -2.784932e-26)
(0.01000459 -1.846508e-05 8.974533e-29)
(0.009968417 -1.731066e-06 0)
(0.01003808 -0.0001291449 5.513138e-29)
(0.009818083 -3.022953e-05 0)
(0.01004877 -9.848101e-05 0)
(0.009841165 2.444317e-06 0)
(0.009842939 -2.934421e-05 0)
(0.009990626 -9.95905e-05 -1.216397e-26)
(0.009909467 -7.997061e-05 0)
(0.01000406 -6.965532e-05 0)
(0.009927825 -8.502663e-05 4.898043e-26)
(0.01001766 -5.091967e-05 -8.38365e-27)
(0.009971509 -7.547639e-06 1.018466e-26)
(0.009925123 -0.0001369023 -4.203409e-25)
(0.009961348 -1.347346e-05 -6.232347e-26)
(0.009958087 6.564963e-06 0)
(0.01001639 -0.0001171901 7.971973e-27)
(0.01000364 -3.350274e-05 3.571646e-27)
(0.009979022 -1.358008e-05 0)
(0.009973251 -9.808895e-06 0)
(0.009997452 -8.304033e-05 0)
(0.009950317 -2.590799e-05 2.987012e-27)
(0.009977159 -1.021525e-05 -2.282448e-28)
(0.009867739 3.67002e-05 -3.57368e-26)
(0.0098748 1.856501e-05 0)
(0.00998971 -2.928558e-05 3.776633e-26)
(0.009986016 -8.120944e-05 -8.215435e-26)
(0.009967198 -2.696868e-05 0)
(0.009965331 -3.634986e-05 -9.62383e-26)
(0.009981956 -3.820439e-05 -9.040999e-26)
(0.009977227 -3.564203e-05 -6.953957e-26)
(0.009981862 -2.95369e-05 -4.427957e-26)
(0.009955585 -2.040474e-05 -7.697917e-26)
(0.009959746 -2.106976e-05 7.953628e-26)
(0.009977983 -3.408178e-05 0)
(0.009976872 -2.600233e-05 0)
(0.009957114 -2.109481e-05 -4.33202e-27)
(0.009974917 -1.164011e-05 -4.68805e-27)
(0.009964999 -2.656332e-05 2.667454e-26)
(0.009968881 -3.598111e-05 5.081513e-26)
(0.009979388 -3.112235e-05 -5.752606e-26)
(0.009905363 1.806849e-05 -2.118603e-25)
(0.009962443 -5.770768e-05 3.310917e-26)
(0.00986064 -0.0001219121 -2.100743e-25)
(0.01002343 -8.956373e-05 -9.76474e-27)
(0.009971532 -1.269776e-06 0)
(0.01001181 -3.292487e-05 3.358152e-27)
(0.009975306 -9.897677e-05 -9.166869e-26)
(0.009980796 1.346499e-05 -9.097261e-27)
(0.009982575 -1.516677e-05 0)
(0.01003116 -7.840357e-05 3.170194e-26)
(0.009953092 -2.576072e-05 8.596666e-26)
(0.009894877 -0.0001058205 -4.437504e-25)
(0.00986313 -1.071899e-05 0)
(0.0098479 -5.591404e-05 -2.92883e-25)
(0.01001331 -1.602188e-05 -6.544041e-28)
(0.01002707 -4.481221e-05 0)
(0.009960417 -6.117005e-05 0)
(0.01000896 -1.830758e-05 3.906713e-27)
(0.01000833 -1.706301e-05 8.675792e-28)
(0.009918049 -4.422153e-05 -2.07439e-25)
(0.01000016 -1.737941e-05 7.494037e-27)
(0.009829922 -5.943465e-05 -6.648096e-25)
(0.009964836 -4.010741e-05 1.474506e-26)
(0.009964492 -1.037538e-05 3.603229e-26)
(0.009817519 6.961647e-05 -5.250695e-25)
(0.009978354 1.285415e-05 -1.370859e-27)
(0.009968927 -8.040161e-06 2.100566e-27)
(0.01002321 -2.266388e-05 3.344277e-27)
(0.01001736 -2.056405e-05 1.340227e-26)
(0.009947519 -5.879501e-05 -3.669901e-26)
(0.009931488 -5.505795e-05 -2.055277e-25)
(0.009903397 9.691043e-06 0)
(0.009903229 -9.304736e-05 -4.296157e-25)
(0.009881081 -0.0001055148 3.773835e-25)
(0.009998743 -1.558645e-05 0)
(0.009997676 -1.624631e-05 1.187188e-28)
(0.009970695 -6.719044e-05 -1.32323e-25)
(0.009838845 -2.500799e-05 0)
(0.00997037 1.002054e-05 -1.2289e-26)
(0.009997529 -3.847733e-05 -7.126335e-27)
(0.009982703 -1.332832e-05 -7.493071e-29)
(0.01001342 -2.619637e-05 -1.323092e-27)
(0.00996017 4.997283e-06 0)
(0.00996232 9.119953e-06 -3.531259e-26)
(0.009971399 2.423402e-06 1.165094e-26)
(0.009842962 -9.610574e-05 4.94285e-25)
(0.009958155 -3.33847e-05 0)
(0.009967235 -5.736977e-06 -5.19913e-26)
(0.009962204 -3.385468e-06 0)
(0.009938041 2.848548e-05 -1.57869e-25)
(0.009943219 1.126763e-05 0)
(0.00988657 -2.766765e-05 0)
(0.009972911 -7.718273e-05 4.044517e-26)
(0.009966683 -1.004465e-05 -3.642693e-26)
(0.009970025 -4.627801e-05 8.155669e-26)
(0.009916426 -9.191419e-05 0)
(0.01009308 -0.0001104207 0)
(0.009903648 -0.0001240634 -1.048617e-25)
(0.009950277 1.397059e-05 -8.543665e-26)
(0.01012379 -0.0001178125 0)
(0.01003329 -3.750105e-05 -8.785536e-27)
(0.01002083 -1.916503e-05 0)
(0.01002937 -1.10078e-05 0)
(0.009954496 -0.0001096915 1.531531e-25)
(0.009952973 -9.046308e-05 0)
(0.009947543 -1.744078e-05 -1.474483e-27)
(0.009894186 -2.606091e-05 2.789918e-25)
(0.009882888 -3.339032e-05 0)
(0.009893924 -8.522592e-05 3.388394e-25)
(0.009983526 -4.451818e-05 0)
(0.00999305 -5.740757e-05 -2.2485e-27)
(0.01000887 -5.150932e-05 1.213766e-27)
(0.009998051 -4.583464e-05 2.749667e-26)
(0.009972186 -1.098699e-05 0)
(0.009971019 -1.542691e-05 -1.198954e-27)
(0.009977241 1.497452e-05 -7.489412e-27)
(0.01001159 -1.452842e-05 0)
(0.009965521 7.171041e-06 3.449691e-26)
(0.009961696 -3.982206e-05 5.871606e-26)
(0.009976371 -1.262151e-05 5.218393e-27)
(0.01000611 -2.902111e-05 0)
(0.0100324 -3.062227e-05 -2.039097e-26)
(0.009982735 -2.548993e-05 2.018578e-26)
(0.009955247 -1.117347e-06 6.164456e-26)
(0.009897237 -5.403898e-05 0)
(0.009944978 -7.944397e-05 -9.406514e-26)
(0.009954216 -6.9174e-05 0)
(0.009940652 1.534088e-05 1.648779e-25)
(0.009947887 -2.438643e-05 5.280107e-26)
(0.009950307 -2.414496e-05 -1.149734e-25)
(0.01001863 -7.302845e-05 3.382559e-27)
(0.0100197 -0.0001002412 2.26377e-26)
(0.009933344 -1.315476e-05 0)
(0.009836048 5.150698e-05 2.7116e-25)
(0.009921785 -3.64854e-05 1.493573e-25)
(0.009931 -3.873679e-05 0)
(0.00999129 -2.767226e-05 0)
(0.009975033 -1.49211e-05 -2.514281e-26)
(0.009949038 1.770299e-05 0)
(0.009920831 -4.218694e-05 3.651219e-26)
(0.009970719 4.715075e-06 1.093792e-28)
(0.00994823 -1.461547e-05 0)
(0.009951424 -7.813271e-06 0)
(0.009952814 -5.874914e-06 -2.028913e-26)
(0.009958151 -9.377125e-06 -4.609665e-26)
(0.01000959 -3.602116e-05 0)
(0.009958593 -5.051832e-05 1.179911e-25)
(0.009957133 -4.365102e-05 3.920145e-26)
(0.009970061 -5.668975e-06 0)
(0.009889749 -3.445536e-05 2.460186e-25)
(0.01002835 -4.150664e-05 4.312971e-26)
(0.009946464 -9.119983e-05 0)
(0.009962985 -5.010135e-06 0)
(0.009833 2.705532e-05 -4.17399e-25)
(0.01007594 -0.0001074105 2.427186e-25)
(0.009952333 -1.651341e-05 -4.588673e-27)
(0.009969606 -4.056559e-06 0)
(0.009978626 -1.214707e-05 -7.479097e-28)
(0.009895068 5.343868e-06 0)
(0.009983578 -0.0001391065 -7.562638e-26)
(0.009910299 -8.617996e-05 2.711009e-25)
(0.009981972 1.24113e-05 0)
(0.01001741 -1.321327e-05 -7.970517e-27)
(0.009998636 -1.604244e-05 0)
(0.009856155 -2.098894e-05 3.96888e-25)
(0.009979176 -4.54858e-05 -7.872472e-26)
(0.00999566 -4.786588e-05 0)
(0.00999833 -2.000247e-05 4.40614e-27)
(0.009983795 -1.840891e-05 3.875093e-26)
(0.009972697 -1.656255e-05 -5.801752e-26)
(0.00996571 -5.021094e-06 0)
(0.00996516 -2.087085e-06 1.259051e-26)
(0.01002976 -4.043521e-05 -2.142439e-26)
(0.01002155 -5.813669e-05 -1.268662e-27)
(0.01004212 -8.503845e-05 0)
(0.009862639 -3.315139e-05 0)
(0.009874623 -4.159813e-05 0)
(0.009983921 -1.743973e-05 4.131513e-27)
(0.01005023 -5.094965e-05 0)
(0.009945499 -7.474317e-05 0)
(0.01003151 -0.0001557045 -1.440521e-26)
(0.009993873 -2.273208e-05 3.419835e-27)
(0.009999839 -2.675165e-05 1.012891e-26)
(0.01003431 -5.199133e-05 7.130632e-26)
(0.00996466 -1.506701e-05 -4.359828e-26)
(0.01003157 -4.217851e-05 2.733724e-26)
(0.00996506 2.178693e-05 1.623252e-26)
(0.01004862 -0.0001127872 -1.484886e-25)
(0.00979842 -4.742132e-05 -2.713841e-25)
(0.009938413 -8.529955e-05 -9.191425e-26)
(0.01001168 -1.526246e-05 9.650066e-27)
(0.00990813 -5.714319e-05 0)
(0.00999137 -2.039683e-05 1.784955e-26)
(0.009984878 -1.876841e-05 -2.26128e-28)
(0.009979679 -4.874101e-05 5.861592e-26)
(0.01007507 -9.409915e-05 -2.877662e-25)
(0.009988978 -6.150578e-05 0)
(0.009867639 2.452181e-06 4.257461e-25)
(0.009917415 3.454738e-05 0)
(0.009943395 -3.933314e-05 0)
(0.009931341 -4.107605e-05 1.239602e-25)
(0.009944595 -4.270383e-05 -1.362128e-25)
(0.009953226 -3.806339e-05 -1.401543e-25)
(0.01005173 -3.844587e-05 0)
(0.009997285 -1.496169e-05 0)
(0.009953432 2.040386e-06 -8.816445e-26)
(0.01007131 -8.804284e-05 3.565899e-25)
(0.009967847 -1.821772e-06 -1.245181e-26)
(0.009946224 -4.414474e-05 -1.444413e-25)
(0.009962044 1.903342e-05 0)
(0.01000752 -6.37988e-05 2.955897e-27)
(0.009966047 -9.970359e-06 3.153984e-26)
(0.009971896 -1.016441e-05 9.971082e-27)
(0.00998552 -0.000123459 7.468792e-26)
(0.009950575 2.36454e-05 -8.976144e-26)
(0.009960931 -1.009633e-06 -6.756055e-26)
(0.00997408 -8.9355e-05 4.37365e-26)
(0.0100203 -7.800945e-05 1.254279e-26)
(0.01002616 -8.077614e-05 5.727015e-26)
(0.01008005 -5.358965e-05 7.201939e-26)
(0.009899268 -9.956954e-05 1.679063e-25)
(0.01001386 -2.963414e-05 -1.053565e-26)
(0.009967022 1.625279e-05 1.931348e-26)
(0.009898768 -0.0001282855 -3.358003e-25)
(0.01001269 -3.513717e-05 0)
(0.0100085 -4.559015e-05 0)
(0.01002526 -4.121034e-05 0)
(0.009891346 -2.355184e-05 -2.348408e-25)
(0.009938346 7.564741e-09 2.540982e-25)
(0.009943437 7.220294e-07 1.291979e-26)
(0.009940912 -1.470524e-05 1.145802e-25)
(0.009896632 -8.140919e-05 -1.409062e-25)
(0.009970869 -9.206727e-06 -5.044865e-27)
(0.009998805 -2.336851e-05 -1.422417e-26)
(0.009997352 -2.126135e-05 -5.540017e-27)
(0.00990398 -7.040175e-06 2.349315e-26)
(0.009893708 2.508156e-06 1.588846e-25)
(0.00995616 -2.524633e-05 6.883684e-26)
(0.009895667 -1.972397e-05 2.678988e-25)
(0.00989499 -1.118903e-05 2.725448e-25)
(0.009898678 -1.068781e-05 0)
(0.01000736 -1.65752e-05 3.304084e-27)
(0.009812335 3.183428e-05 1.101932e-25)
(0.01002362 -3.814974e-05 2.700071e-26)
(0.009964706 4.506501e-06 -1.993557e-26)
(0.00996913 3.509692e-06 6.006862e-28)
(0.009970288 -1.993254e-05 0)
(0.009875365 -3.221977e-05 0)
(0.009942798 -5.354656e-05 -1.367973e-25)
(0.01000146 -1.721936e-05 0)
(0.00997543 1.865252e-05 1.928486e-26)
(0.01002705 -0.0001376717 3.542822e-27)
(0.01000227 -8.567812e-05 -2.803854e-26)
(0.01000807 -8.545931e-05 0)
(0.01000792 -5.777671e-05 0)
(0.01000315 -2.149107e-05 1.093746e-27)
(0.009891348 2.048617e-05 2.257875e-25)
(0.009980561 -6.465627e-05 -1.38193e-26)
(0.009938378 -2.607133e-05 9.447557e-26)
(0.00996345 7.897819e-06 0)
(0.009967006 1.753144e-05 -5.641504e-26)
(0.009967076 1.28618e-05 0)
(0.009948848 -7.518748e-05 0)
(0.009973891 -4.943607e-06 -2.90113e-26)
(0.01000902 -3.035458e-05 0)
(0.009863693 5.558471e-05 -2.907774e-25)
(0.010016 -3.468052e-05 0)
(0.01003552 -6.339225e-05 -3.325351e-26)
(0.01001165 -4.236665e-05 0)
(0.01001091 -3.898153e-05 1.233615e-27)
(0.01002216 -0.0001519487 -9.513095e-27)
(0.00995462 -1.0668e-07 1.147923e-25)
(0.009984965 -1.240734e-05 1.44882e-26)
(0.009979639 -6.93977e-05 -8.699175e-26)
(0.009945732 -6.726595e-05 -1.696506e-25)
(0.009967333 2.017326e-05 0)
(0.009946182 -1.848495e-05 -2.50127e-25)
(0.009962886 -1.928888e-05 -4.417418e-26)
(0.009929905 -2.342905e-05 -3.539251e-27)
(0.009968297 -9.160878e-06 1.631673e-26)
(0.009930011 -3.22849e-06 -3.414556e-26)
(0.01004634 -8.115408e-05 -9.088435e-26)
(0.009956263 6.572817e-06 -2.084777e-26)
(0.00994058 1.929941e-05 -7.230898e-26)
(0.009995105 -1.949093e-05 1.083486e-27)
(0.009913379 -7.166616e-05 1.930824e-25)
(0.009929771 -2.57215e-05 -1.507879e-25)
(0.009934926 -1.693711e-05 0)
(0.009959118 -2.488447e-05 1.16819e-25)
(0.009958412 -2.038298e-05 5.978045e-27)
(0.00992332 -1.906539e-05 0)
(0.009923317 -8.897255e-06 0)
(0.009954192 -2.12871e-05 0)
(0.009979923 -3.389295e-05 6.044322e-26)
(0.00996935 -1.42649e-06 -2.516464e-28)
(0.00993284 -7.034355e-07 4.082343e-25)
(0.009944478 2.240777e-06 0)
(0.009969424 -6.728183e-06 0)
(0.009967407 -9.006169e-05 0)
(0.009853051 -3.157256e-05 -2.852094e-25)
(0.009944243 -3.760163e-06 -1.033855e-25)
(0.009831186 3.807816e-05 4.771689e-25)
(0.009955794 1.118076e-05 -3.421492e-26)
(0.009979203 -1.084809e-05 0)
(0.01000036 -3.324775e-05 -1.190515e-26)
(0.009971989 1.321446e-05 -4.861972e-27)
(0.00996797 1.557893e-05 0)
(0.009970347 1.656398e-05 -1.367176e-26)
(0.009965398 3.025044e-06 -4.110295e-27)
(0.009968302 1.811648e-05 0)
(0.01006628 -7.763295e-05 0)
(0.009908982 -4.408125e-05 -1.903326e-25)
(0.009951756 6.894475e-06 -7.510276e-26)
(0.009869136 1.339826e-05 -3.145779e-25)
(0.01002181 -6.943373e-05 -1.85107e-26)
(0.01002044 -1.26178e-05 0)
(0.01001512 -2.516438e-05 -1.141965e-27)
(0.01001496 -2.358509e-05 0)
(0.009964822 3.782717e-07 0)
(0.009968147 -2.025665e-05 -1.724223e-26)
(0.01003383 -9.613455e-05 5.022457e-26)
(0.01002935 -0.00011409 -2.182358e-26)
(0.009971272 1.353716e-05 0)
(0.009999697 -3.009571e-05 -1.735702e-26)
(0.009913161 -3.238405e-05 1.444557e-25)
(0.009907035 -1.53235e-05 1.555674e-25)
(0.009914188 -5.530739e-06 1.58038e-25)
(0.009998388 -2.080683e-05 2.238642e-27)
(0.01002509 -3.191951e-05 3.398931e-27)
(0.009995827 -3.00399e-05 3.061361e-26)
(0.009997148 -2.800198e-05 -1.24655e-26)
(0.01001119 -0.0001354111 4.322421e-26)
(0.009970813 9.039293e-06 -1.600319e-26)
(0.009969374 1.174698e-05 2.79022e-26)
(0.009972337 9.809081e-06 0)
(0.009970376 1.07075e-05 -1.038296e-26)
(0.009965354 1.244857e-05 -3.632036e-26)
(0.01001404 -5.59527e-05 -1.450865e-26)
(0.009935168 1.284243e-05 1.791977e-26)
(0.009994037 -2.397618e-05 -3.445003e-26)
(0.01001204 -2.617256e-05 5.798808e-28)
(0.009895149 -0.0001102919 5.453497e-25)
(0.009932685 1.500345e-05 -1.741652e-25)
(0.009945902 1.60515e-05 5.829404e-26)
(0.009998184 -1.858538e-05 2.10019e-28)
(0.01000225 -2.004111e-05 -4.745633e-28)
(0.0099967 -1.59195e-05 0)
(0.01002173 -0.0001140542 -9.631474e-29)
(0.009988558 -2.519422e-05 5.477796e-27)
(0.009987352 -1.988769e-05 -6.512403e-27)
(0.009973606 -1.062897e-05 0)
(0.009971737 -1.422544e-05 0)
(0.01003598 -7.59501e-05 0)