/*--------------------------------*- C++ -*----------------------------------*\
| =========                 |                                                 |
| \\      /  F ield         | OpenFOAM: The Open Source CFD Toolbox           |
|  \\    /   O peration     | Version:  2406                                  |
|   \\  /    A nd           | Website:  www.openfoam.com                      |
|    \\/     M anipulation  |                                                 |
\*---------------------------------------------------------------------------*/
FoamFile
{
    version     2.0;
    format      ascii;
    arch        "LSB;label=32;scalar=64";
    class       volScalarField;
    location    "2.32";
    object      p;
}
// * * * * * * * * * * * * * * * * * * * * * * * * * * * * * * * * * * * * * //

dimensions      [0 2 -2 0 0 0 0];

internalField   nonuniform List<scalar> 
217010
(
-214.7893
-141.4926
-147.2781
-150.3274
-150.2071
-142.2825
-139.7102
-138.7593
-137.833
-137.7573
-137.8658
-138.2794
-138.5858
-138.8388
-138.9741
-139.2165
-139.923
-140.7304
-140.719
-139.7346
-138.3078
-136.6258
-134.6422
-136.3546
-141.2759
-148.8992
-153.7153
-152.5192
-147.4851
-144.9572
-145.6624
-153.0146
-163.9674
-170.2642
-170.0518
-164.5748
-156.6452
-147.3904
-137.6387
-128.5635
-121.8337
-116.4596
-109.2557
-100.7287
-93.91609
-88.66382
-86.27965
-85.97037
-89.64369
-90.14726
-129.4335
-111.391
-114.2226
-119.8233
-132.5908
-150.003
-155.0195
-146.2854
-141.1105
-144.4328
-150.1577
-150.8559
-153.1083
-159.8844
-167.2139
-173.0045
-176.5437
-177.9324
-177.3405
-175.0044
-171.1424
-166.1151
-160.3485
-154.1967
-147.8368
-141.3739
-134.9143
-128.7356
-123.0521
-117.6976
-112.6285
-108.0036
-103.8071
-99.93754
-96.43257
-93.28054
-90.49564
-87.87075
-85.36674
-83.11669
-80.83431
-78.67343
-76.6289
-74.53068
-72.45457
-70.27999
-68.09673
-66.16202
-64.34165
-62.39173
-59.97827
-57.37947
-54.83125
-52.47547
-50.26621
-48.00444
-45.65462
-43.55656
-40.79
-41.33647
-44.8998
-43.07143
-35.95862
-32.2715
-30.52979
-29.33713
-28.02295
-26.6693
-25.24707
-23.8047
-22.4593
-21.30827
-20.05734
-19.58982
-20.8498
-21.36669
-20.04247
-21.713
-25.75896
-28.44135
-28.82601
-27.46099
-25.26732
-22.81787
-20.53941
-19.07964
-18.81545
-18.85494
-18.33412
-18.7173
-19.87982
-20.83943
-21.09079
-20.37193
-18.61903
-15.70699
-12.68016
-9.667119
-9.065392
-6.381803
-21.76934
-42.18813
-86.23462
-106.8253
-106.1501
-89.90552
-73.3197
-63.0714
-56.72347
-46.27064
-30.62725
-15.12228
-2.157601
6.361211
9.218689
7.973506
1.569759
-6.592981
-16.19101
-30.96559
-47.91124
-65.01807
-84.02594
-104.419
-123.6351
-139.3994
-151.9922
-161.0026
-164.5377
-161.9549
-152.8859
-137.4995
-122.2389
-119.375
-113.7244
-107.6592
-116.8605
-121.6968
-109.6725
-93.82847
-82.15427
-80.80745
-81.03836
-81.73631
-81.05337
-79.5913
-82.56239
-86.42516
-78.49789
-137.9234
-63.37908
-55.34079
-44.38893
-38.06838
-32.5602
-28.01314
-24.07993
-20.49638
-17.39306
-14.5619
-11.99303
-9.642582
-7.424382
-5.334213
-3.381009
-1.570865
0.124854
1.752164
3.30353
4.782139
6.197021
7.539798
8.80894
10.05367
11.2706
12.45615
13.58673
14.65921
15.69159
16.7063
17.70948
18.69537
19.63093
20.53565
21.43291
22.312
23.18351
24.04579
24.90496
25.71466
26.55928
27.3526
28.14189
28.91569
29.68548
30.43896
31.17675
31.91369
32.66241
33.40671
34.13373
34.84816
35.55971
36.29077
37.03237
37.76773
38.50868
39.26281
40.02129
40.79008
41.55989
42.32671
43.1202
43.96812
44.82399
45.67758
46.60302
47.63129
48.6864
49.57929
50.6442
53.35836
51.11321
49.58334
48.23475
46.9056
45.6059
44.32287
43.10851
42.01107
40.96635
39.86565
38.73924
37.64035
36.59511
35.57573
34.55437
33.51736
32.4796
31.47028
30.4699
29.45251
28.4331
27.42335
26.3973
25.37541
24.33573
23.25542
22.18962
21.14466
20.08841
19.00144
17.86867
16.76536
15.62074
14.44409
13.26043
12.06562
10.8254
9.563233
8.295139
6.995316
5.622852
4.184684
2.742384
1.302574
-0.1985624
-1.775996
-3.406546
-5.116396
-6.900751
-8.742428
-10.65481
-12.6051
-14.69392
-16.93083
-19.26544
-21.75213
-24.3674
-27.19801
-30.27587
-33.56453
-37.11223
-41.08852
-45.54368
-50.61122
-56.27822
-62.88741
-71.0589
-80.689
-96.94419
-111.7932
53.34845
51.35741
49.76415
48.39892
47.06526
45.75723
44.46413
43.23564
42.12538
41.0746
39.97199
38.84154
37.73543
36.68283
35.65823
34.63321
33.5929
32.55084
31.53717
30.53317
29.51286
28.49035
27.4776
26.44871
25.42456
24.38279
23.29996
22.23147
21.18363
20.12507
19.03636
17.90094
16.79675
15.64922
14.47034
13.28481
12.08823
10.84597
9.582027
8.312036
7.010566
5.63584
4.195395
2.751186
1.309696
-0.193918
-1.773439
-3.405856
-5.118384
-6.905913
-8.750926
-10.66679
-12.61946
-14.71406
-16.95633
-19.29595
-21.78974
-24.41092
-27.2516
-30.34035
-33.63901
-37.19974
-41.19363
-45.66658
-50.77276
-56.47314
-63.13434
-71.36939
-81.19329
-97.42533
-114.1926
-65.12871
-55.65404
-44.73444
-38.27929
-32.7331
-28.14958
-24.19543
-20.58232
-17.46709
-14.62612
-12.04661
-9.688975
-7.464223
-5.367546
-3.408228
-1.592892
0.1062104
1.737041
3.291877
4.77342
6.190868
7.53653
8.807354
10.05357
11.27212
12.45948
13.59185
14.66569
15.69941
16.71556
17.72019
18.70761
19.64458
20.55039
21.44914
22.32957
23.2027
24.06647
24.92742
25.73894
26.5849
27.37933
28.17014
28.94562
29.71678
30.47166
31.21112
31.95035
32.70102
33.44676
34.17523
34.89163
35.60642
36.34073
37.08532
37.82367
38.56847
39.32635
40.08883
40.86085
41.63387
42.40549
43.2057
44.05943
44.92064
45.78482
46.72656
47.76546
48.81137
49.7236
50.87981
-13.99028
-37.70238
-83.62277
-107.0874
-107.8186
-91.66563
-74.56507
-63.78041
-57.39323
-47.24662
-31.76703
-16.15214
-2.910478
6.059626
9.171714
8.110164
1.847857
-6.275477
-15.79314
-30.45583
-47.37494
-64.49782
-83.5134
-103.9634
-123.2509
-139.1078
-151.7913
-160.9088
-164.5837
-162.1261
-153.2244
-137.8268
-122.3289
-119.4378
-113.9342
-107.8457
-116.9972
-122.0471
-109.7161
-93.77373
-82.10521
-80.80264
-81.04635
-81.73885
-81.02968
-79.63169
-82.71657
-86.32104
-79.87061
-127.4989
-125.5342
-112.4434
-113.9114
-118.9324
-131.0978
-148.7572
-155.2798
-147.1382
-141.1913
-144.2311
-149.8276
-150.6545
-152.668
-159.3288
-166.841
-172.8395
-176.5177
-177.9972
-177.5223
-175.2641
-171.4495
-166.4549
-160.6938
-154.5344
-148.1602
-141.6792
-135.1926
-128.9768
-123.2641
-117.8875
-112.7919
-108.1418
-103.9265
-100.0341
-96.51468
-93.34703
-90.55196
-87.92205
-85.4072
-83.15412
-80.86675
-78.69891
-76.65362
-74.55135
-72.4721
-70.29316
-68.10097
-66.16491
-64.34537
-62.39821
-59.98295
-57.37723
-54.82337
-52.46383
-50.25284
-47.99161
-45.64265
-43.55018
-40.78843
-41.37201
-44.98968
-43.07691
-35.88483
-32.20891
-30.49282
-29.30451
-27.98584
-26.62966
-25.20444
-23.7625
-22.42037
-21.27308
-20.04037
-19.6136
-20.89936
-21.35834
-20.05171
-21.88544
-25.94611
-28.53107
-28.79918
-27.33896
-25.1117
-22.6631
-20.42083
-19.02982
-18.81325
-18.84284
-18.32819
-18.79512
-19.9894
-20.8972
-21.06404
-20.22519
-18.34371
-15.37566
-12.37521
-9.559827
-8.939939
-6.377422
-199.3466
-143.5574
-147.4914
-150.4005
-150.4805
-142.4825
-139.7585
-138.7789
-137.8444
-137.7587
-137.8646
-138.2766
-138.5837
-138.8383
-138.9723
-139.2133
-139.9243
-140.739
-140.7265
-139.7421
-138.3144
-136.6201
-134.6448
-136.3981
-141.383
-149.0692
-153.8067
-152.4578
-147.3579
-144.9228
-145.816
-153.4606
-164.4389
-170.465
-169.8905
-164.1623
-156.108
-146.7801
-137.0113
-128.0108
-121.3428
-115.8843
-108.5375
-100.0413
-93.3569
-88.31694
-86.16188
-86.15552
-89.8658
-92.12635
-183.8391
-144.4158
-147.6765
-150.3159
-150.9028
-142.7451
-139.8088
-138.7979
-137.8598
-137.7635
-137.8667
-138.2772
-138.584
-138.8395
-138.9728
-139.2158
-139.9397
-140.7666
-140.7586
-139.7762
-138.3472
-136.6301
-134.6638
-136.452
-141.4711
-149.2314
-153.9521
-152.417
-147.2272
-144.877
-146.0684
-154.3943
-165.3846
-170.8891
-170.1123
-164.1562
-155.9831
-146.5626
-136.7495
-127.7495
-121.1197
-115.7752
-108.3313
-99.70129
-93.07617
-88.13818
-86.13324
-86.35224
-90.15553
-92.73494
-122.7199
-112.8724
-113.8132
-118.4606
-130.2579
-148.8113
-156.0491
-147.1387
-140.9519
-144.1347
-149.9163
-150.7571
-152.7661
-159.3891
-166.8303
-172.7867
-176.486
-177.9951
-177.4889
-175.2747
-171.5188
-166.5579
-160.815
-154.6638
-148.2925
-141.8134
-135.3233
-129.0895
-123.3609
-117.9771
-112.8708
-108.208
-103.9847
-100.0881
-96.55771
-93.38048
-90.57797
-87.94696
-85.42503
-83.17235
-80.8836
-78.70972
-76.66307
-74.5606
-72.47935
-70.30435
-68.10957
-66.17613
-64.35286
-62.40701
-59.98245
-57.38092
-54.82982
-52.46449
-50.24543
-47.97997
-45.62934
-43.53585
-40.78162
-41.43507
-45.26367
-43.20983
-35.84099
-32.16324
-30.46827
-29.29621
-27.97558
-26.61417
-25.18736
-23.74457
-22.40339
-21.25855
-20.04396
-19.6549
-20.95701
-21.35805
-20.05078
-22.04816
-26.18218
-28.67812
-28.86043
-27.33083
-25.05895
-22.59358
-20.35734
-19.00037
-18.81337
-18.82462
-18.31313
-18.82498
-20.08163
-20.96842
-21.10066
-20.20443
-18.26135
-15.2387
-12.22892
-9.501645
-8.872959
-6.054339
-11.56222
-34.82504
-82.14479
-107.1178
-107.9691
-92.71572
-75.57186
-64.39235
-57.89426
-47.66846
-32.28454
-16.57214
-3.165663
5.817108
9.017482
8.132603
1.974545
-6.113514
-15.57521
-30.21732
-47.13409
-64.2583
-83.33445
-103.8366
-123.2074
-139.1179
-151.8825
-161.1015
-164.7825
-162.445
-153.9918
-139.0277
-123.1074
-119.6871
-114.2088
-107.6515
-116.7994
-123.0073
-110.0843
-93.85258
-82.10439
-80.80677
-81.06056
-81.75051
-81.01759
-79.69602
-82.81842
-86.23669
-80.35471
-116.1815
-65.04137
-55.8613
-44.89113
-38.38543
-32.81497
-28.21194
-24.24271
-20.63378
-17.49659
-14.65362
-12.06885
-9.708999
-7.482554
-5.38256
-3.42065
-1.602311
0.09651459
1.729006
3.285365
4.768251
6.186309
7.534308
8.804871
10.05181
11.27147
12.46024
13.59404
14.66798
15.70171
16.71811
17.72314
18.71221
19.64997
20.55461
21.45417
22.33478
23.20952
24.07395
24.93492
25.74389
26.59114
27.3867
28.17846
28.95386
29.72573
30.48115
31.2206
31.9596
32.71174
33.45902
34.18743
34.90395
35.61781
36.35295
37.09992
37.83862
38.58205
39.34137
40.10257
40.87503
41.64895
42.42145
43.22189
44.08154
44.94777
45.81093
46.75325
47.79057
48.8417
49.78032
50.94962
53.29383
51.47854
49.83293
48.44573
47.10999
45.80105
44.49899
43.26156
42.14964
41.1024
39.99714
38.86416
37.75365
36.70033
35.67553
34.65142
33.60927
32.56474
31.55185
30.54835
29.5264
28.50351
27.49139
26.46025
25.43819
24.396
23.30929
22.24073
21.19348
20.135
19.04338
17.91014
16.80462
15.66004
14.47846
13.2924
12.09572
10.85115
9.586888
8.317612
7.016845
5.639982
4.197036
2.752689
1.312279
-0.1930891
-1.773453
-3.406274
-5.121393
-6.910735
-8.757519
-10.67486
-12.62602
-14.7247
-16.96947
-19.30958
-21.80803
-24.42905
-27.27615
-30.36947
-33.67092
-37.23657
-41.23837
-45.73974
-50.84105
-56.56477
-63.25316
-71.53422
-81.42964
-97.73769
-113.8135
53.18888
51.64462
49.99618
48.59248
47.26475
45.95827
44.6478
43.40147
42.28129
41.22741
40.11821
38.98287
37.86715
36.80671
35.77581
34.74641
33.7005
32.65113
31.6342
30.6252
29.59902
28.573
27.55744
26.52217
25.49845
24.45299
23.36137
22.29234
21.24179
20.18074
19.0857
17.95763
16.83819
15.69597
14.50976
13.32249
12.12451
10.87547
9.610009
8.339581
7.037921
5.656352
4.209553
2.764401
1.324278
-0.1853789
-1.767716
-3.401749
-5.121602
-6.913716
-8.763533
-10.68458
-12.63416
-14.74206
-16.99247
-19.3348
-21.8434
-24.46589
-27.32653
-30.43075
-33.7398
-37.31674
-41.34401
-45.85615
-50.98157
-56.74414
-63.48232
-71.81464
-81.86862
-98.01912
-114.0151
-65.21401
-56.0413
-45.19416
-38.57222
-32.9785
-28.33722
-24.3422
-20.71729
-17.56924
-14.71454
-12.11799
-9.752748
-7.520568
-5.413092
-3.445375
-1.620196
0.07974535
1.716423
3.276287
4.762202
6.181789
7.534363
8.804356
10.05279
11.27457
12.46589
13.60282
14.67776
15.71223
16.72924
17.7354
18.72771
19.66815
20.57165
21.47335
22.35485
23.23283
24.09849
24.95745
25.78092
26.62104
27.41789
28.21178
28.98878
29.76186
30.51975
31.26105
32.00171
32.75584
33.50601
34.2367
34.9566
35.6741
36.41234
37.16464
37.90793
38.65675
39.42037
40.1867
40.96186
41.73946
42.51681
43.32058
44.18372
45.05836
45.93515
46.89187
47.92118
48.95842
49.93231
51.06506
-8.333692
-32.22966
-82.29674
-108.3799
-110.3757
-94.83849
-77.1637
-65.27346
-58.53665
-48.65929
-33.39367
-17.63589
-3.919277
5.415158
8.737005
8.107721
2.110896
-5.924402
-15.31104
-29.8741
-46.71174
-63.80329
-82.93929
-103.5194
-122.9633
-138.9096
-151.788
-161.0905
-164.8495
-162.8086
-154.9186
-140.9287
-125.0818
-120.1995
-114.3977
-106.8278
-116.2059
-124.2645
-110.5732
-94.07346
-82.16934
-80.83008
-81.09714
-81.77065
-80.99052
-79.76479
-83.04025
-86.12527
-81.69282
-107.9124
-121.0574
-113.4848
-113.7248
-117.7844
-128.9889
-147.8586
-156.7566
-147.216
-140.5403
-143.8663
-149.7116
-151.0478
-153.3968
-159.8483
-167.0026
-172.8285
-176.538
-178.1507
-177.8332
-175.6441
-171.9027
-166.9517
-161.2002
-155.0348
-148.6423
-142.141
-135.6213
-129.3406
-123.5806
-118.1778
-113.0411
-108.3473
-104.1056
-100.1891
-96.64444
-93.44802
-90.63385
-88.00311
-85.4628
-83.21281
-80.9201
-78.73453
-76.69237
-74.58407
-72.49977
-70.3281
-68.12769
-66.19378
-64.34673
-62.35524
-59.96254
-57.38616
-54.84165
-52.46254
-50.23279
-47.9609
-45.60977
-43.50656
-40.73886
-41.54987
-45.61923
-43.34369
-35.80105
-32.11714
-30.43096
-29.25466
-27.93151
-26.57177
-25.14429
-23.70438
-22.36849
-21.22625
-20.0412
-19.71713
-21.0622
-21.38786
-20.13997
-22.3396
-26.51977
-28.86905
-28.82871
-27.23056
-24.92995
-22.47517
-20.27122
-18.96939
-18.82255
-18.8165
-18.31334
-18.9174
-20.20742
-21.04685
-21.03544
-20.04862
-18.02883
-14.9953
-12.03538
-9.489048
-8.842435
-6.049409
-173.6775
-146.4136
-147.4909
-149.6985
-151.3738
-143.1917
-139.8683
-138.8266
-137.8812
-137.7721
-137.8719
-138.2782
-138.5832
-138.8407
-138.9745
-139.2319
-139.9776
-140.8208
-140.8227
-139.8524
-138.4263
-136.6585
-134.7065
-136.5293
-141.6045
-149.5382
-154.2161
-152.4115
-146.9904
-144.9492
-146.7074
-155.9653
-166.5813
-171.2629
-169.9382
-163.7846
-155.5019
-146.0127
-136.1854
-127.2219
-120.6077
-115.0985
-107.657
-99.08734
-92.61325
-87.88702
-86.11319
-86.63777
-90.56144
-94.4852
-166.4452
-148.3338
-146.9309
-148.6951
-151.9518
-143.869
-139.9476
-138.8654
-137.9069
-137.7833
-137.8803
-138.279
-138.5816
-138.841
-138.9805
-139.2664
-140.049
-140.9223
-140.9501
-139.9994
-138.5603
-136.722
-134.7962
-136.6588
-141.7679
-149.9352
-154.608
-152.4548
-146.8124
-145.2503
-148.1887
-158.2162
-168.0886
-171.9264
-170.2265
-163.6303
-155.1876
-145.5585
-135.6487
-126.6889
-120.1125
-114.7693
-107.1299
-98.49276
-92.14885
-87.66217
-86.17604
-87.03196
-91.17446
-95.79929
-119.2053
-113.9371
-113.6854
-117.1083
-127.6621
-147.16
-157.6226
-147.6162
-140.156
-143.3392
-149.3518
-151.5703
-154.2681
-160.3497
-167.1601
-172.8592
-176.5542
-178.1683
-177.8435
-175.8325
-172.1906
-167.2881
-161.5468
-155.3797
-148.9768
-142.4654
-135.9266
-129.5929
-123.7973
-118.3797
-113.2099
-108.4832
-104.2339
-100.2981
-96.73551
-93.51607
-90.68669
-88.0612
-85.49368
-83.25516
-80.96215
-78.75551
-76.71767
-74.60731
-72.51993
-70.35416
-68.15137
-66.21203
-64.32854
-62.31294
-59.93946
-57.39667
-54.85802
-52.46036
-50.2208
-47.9394
-45.58695
-43.46259
-40.65931
-41.73748
-46.01354
-43.52542
-35.77139
-32.0952
-30.41513
-29.22192
-27.89049
-26.52632
-25.09415
-23.6544
-22.32246
-21.17651
-20.02467
-19.80257
-21.20581
-21.46105
-20.37031
-22.87259
-27.00818
-29.15434
-28.97201
-27.19286
-24.83309
-22.36945
-20.18441
-18.94237
-18.83869
-18.78834
-18.33507
-19.07551
-20.37482
-21.15532
-21.09301
-19.9682
-17.84302
-14.77255
-11.89006
-9.563219
-8.917547
-5.959391
-5.008549
-29.2939
-82.92977
-110.0601
-112.6011
-97.57447
-79.26366
-66.3338
-59.06809
-49.47437
-34.61892
-18.80889
-4.815695
4.838735
8.278607
7.988046
2.16956
-5.844384
-15.15875
-29.62623
-46.39675
-63.3993
-82.61375
-103.33
-122.9173
-138.8894
-151.922
-161.4412
-165.3695
-163.4333
-156.1046
-143.3031
-128.0806
-121.2418
-114.3928
-105.6862
-115.5104
-125.6795
-111.2384
-94.5504
-82.3618
-80.91044
-81.15673
-81.80067
-80.94917
-79.83135
-83.32592
-86.07027
-83.11797
-102.1412
-65.35008
-56.11095
-45.45262
-38.73806
-33.1298
-28.45236
-24.43705
-20.80218
-17.6276
-14.76973
-12.16228
-9.793878
-7.558552
-5.444226
-3.470398
-1.636473
0.06117926
1.700973
3.263833
4.752906
6.173589
7.532616
8.799906
10.04944
11.27268
12.46646
13.60757
14.68237
15.71581
16.73333
17.74087
18.73724
19.67982
20.57972
21.48424
22.36581
23.24738
24.11255
24.96744
25.79172
26.63651
27.43431
28.22981
29.00687
29.78129
30.5412
31.2826
32.02261
32.77942
33.53317
34.26364
34.98382
35.7001
36.43983
37.19739
37.94053
38.68695
39.45413
40.22076
40.99763
41.77836
42.55959
43.36557
44.24162
45.12782
46.00452
46.96486
47.98775
49.03096
50.04514
51.13972
53.01311
51.76647
50.13971
48.70715
47.37388
46.07244
44.74681
43.47949
42.35066
41.30076
40.18483
39.0439
37.91704
36.85332
35.82044
34.79133
33.74141
32.68653
31.67093
30.66197
29.63214
28.6047
27.58994
26.54899
25.52956
24.4828
23.38286
22.31405
21.263
20.20252
19.10475
17.96889
16.85482
15.71649
14.52468
13.33722
12.13929
10.88558
9.620989
8.352052
7.051154
5.663293
4.211519
2.768219
1.330929
-0.1844223
-1.767759
-3.401298
-5.127474
-6.922477
-8.775085
-10.69918
-12.64208
-14.76318
-17.01972
-19.3621
-21.88164
-24.4994
-27.37697
-30.49136
-33.80289
-37.38598
-41.43514
-45.97682
-51.11545
-56.91142
-63.69523
-72.07579
-82.24634
-98.15497
-113.937
52.74246
51.83185
50.29279
48.85373
47.51894
46.23265
44.90104
43.62554
42.49627
41.44912
40.32594
39.18661
38.0507
36.97948
35.94042
34.91007
33.85398
32.78826
31.76974
30.75582
29.71961
28.68921
27.67332
26.62302
25.60742
24.55853
23.44637
22.37963
21.32476
20.2614
19.15632
18.037
16.90498
15.76653
14.56771
13.38008
12.17832
10.91276
9.646851
8.380488
7.084977
5.687257
4.222689
2.780267
1.35124
-0.1734585
-1.75964
-3.390043
-5.125318
-6.926115
-8.786763
-10.71702
-12.6427
-14.781
-17.04471
-19.391
-21.92831
-24.53284
-27.43673
-30.56666
-33.88473
-37.4678
-41.54504
-46.12287
-51.27547
-57.10721
-63.94283
-72.35755
-82.61878
-98.14736
-113.8151
-65.53789
-56.09826
-45.7089
-38.90988
-33.31342
-28.59338
-24.5529
-20.90252
-17.70058
-14.84306
-12.21695
-9.843313
-7.606877
-5.480406
-3.495464
-1.650779
0.03746852
1.682085
3.250815
4.746616
6.16892
7.536423
8.798552
10.05027
11.27496
12.47546
13.62372
14.69551
15.72896
16.75051
17.75903
18.75808
19.70463
20.59976
21.50921
22.38998
23.27676
24.14224
24.99926
25.84248
26.67473
27.47231
28.27133
29.05022
29.8272
30.58953
31.33097
32.07313
32.8362
33.5963
34.32687
35.05088
35.76957
36.5134
37.2814
38.0285
38.77986
39.55476
40.32235
41.09917
41.88384
42.6699
43.47317
44.35604
45.25638
46.13524
47.09635
48.09691
49.12993
50.16116
51.17738
-2.763608
-26.55491
-84.19197
-113.2278
-116.7449
-101.2988
-82.09745
-67.61853
-59.42036
-50.14504
-35.98879
-20.36173
-6.09224
4.067465
7.570608
7.767777
2.157736
-5.897351
-15.14369
-29.40405
-46.06109
-62.96197
-82.26255
-103.1386
-122.9642
-138.9584
-152.1425
-161.8501
-165.8323
-164.2451
-157.5829
-146.0303
-131.725
-123.2007
-114.4917
-104.8345
-115.1509
-127.2014
-112.1127
-95.19213
-82.68491
-81.11986
-81.31076
-81.84588
-80.8907
-79.97482
-83.76613
-86.07744
-84.06908
-96.87016
-116.982
-114.1502
-113.583
-116.3393
-125.9544
-146.0318
-158.5284
-148.4669
-140.2083
-142.7045
-149.0533
-152.3043
-155.2293
-160.9182
-167.4386
-173.0519
-176.7586
-178.5143
-178.2932
-176.2825
-172.6827
-167.8012
-162.039
-155.8522
-149.4266
-142.894
-136.3299
-129.9125
-124.0616
-118.6298
-113.424
-108.6615
-104.4034
-100.4308
-96.84605
-93.59927
-90.75178
-88.13709
-85.52984
-83.31963
-81.01773
-78.77892
-76.75778
-74.63856
-72.54796
-70.39284
-68.17631
-66.23333
-64.31499
-62.27352
-59.91675
-57.41081
-54.87463
-52.4568
-50.20465
-47.91296
-45.55532
-43.40852
-40.57967
-41.98234
-46.36828
-43.68493
-35.74182
-32.12144
-30.42751
-29.18882
-27.82576
-26.45986
-25.02329
-23.58074
-22.25676
-21.1015
-19.98217
-19.90719
-21.35615
-21.60619
-20.82787
-23.67539
-27.66001
-29.53433
-29.08954
-27.16051
-24.73616
-22.25789
-20.09367
-18.91257
-18.83438
-18.73029
-18.39929
-19.2873
-20.57723
-21.27813
-21.09504
-19.85488
-17.65088
-14.57352
-11.83224
-9.80055
-9.182545
-6.346687
-158.7313
-148.9402
-145.9438
-147.4709
-152.8198
-144.7881
-140.091
-138.9312
-137.9504
-137.8025
-137.8902
-138.2754
-138.5686
-138.8306
-138.992
-139.3258
-140.1736
-141.1056
-141.1848
-140.2567
-138.7554
-136.8508
-134.9868
-136.8816
-142.0177
-150.4292
-155.1684
-152.6283
-146.8083
-146.0932
-150.7861
-161.0304
-169.7909
-172.5624
-170.4459
-163.4514
-154.8459
-145.0056
-134.9772
-126.0326
-119.4704
-114.1907
-106.4346
-97.79134
-91.66069
-87.49294
-86.37971
-87.57134
-91.94891
-97.23002
-150.2024
-147.8983
-144.8518
-146.6178
-153.8369
-146.0923
-140.2532
-138.9774
-138.0369
-137.8601
-137.8988
-138.2613
-138.5304
-138.7922
-139.0067
-139.4242
-140.3888
-141.4237
-141.5994
-140.6982
-139.0563
-137.1282
-135.3036
-137.1086
-142.5539
-151.1023
-155.8846
-153.0622
-147.1303
-147.9966
-154.3434
-164.2912
-171.8236
-173.517
-170.8458
-163.2725
-154.2653
-144.2294
-134.2087
-125.3349
-118.8344
-113.5402
-105.53
-96.92352
-91.20586
-87.49812
-86.88875
-88.30479
-92.96763
-98.68995
-114.8866
-113.9719
-113.2011
-115.2517
-123.4338
-144.0803
-159.2492
-149.9095
-141.1174
-142.5649
-149.0178
-153.1942
-156.2962
-161.6283
-167.8673
-173.328
-176.9598
-178.7291
-178.6242
-176.7565
-173.2455
-168.4015
-162.625
-156.4389
-149.9992
-143.4355
-136.8447
-130.2954
-124.3773
-118.9499
-113.7155
-108.8903
-104.5845
-100.5847
-96.99402
-93.70931
-90.82389
-88.222
-85.58921
-83.38953
-81.07581
-78.80231
-76.8093
-74.6771
-72.5786
-70.4271
-68.1749
-66.27863
-64.30726
-62.23614
-59.89367
-57.43098
-54.89308
-52.45891
-50.18887
-47.88522
-45.51131
-43.35159
-40.58129
-42.2214
-46.53568
-43.71952
-35.77043
-32.26421
-30.47902
-29.17121
-27.77727
-26.39538
-24.94771
-23.49416
-22.17093
-21.0002
-19.9113
-19.99483
-21.4487
-21.79789
-21.6047
-24.73147
-28.49549
-30.07613
-29.29843
-27.12757
-24.57402
-22.11811
-19.99636
-18.83279
-18.72555
-18.55972
-18.48698
-19.54657
-20.82168
-21.45495
-21.14347
-19.74653
-17.4609
-14.43863
-11.96932
-10.3094
-9.849941
-7.518931
-2.556268
-25.1235
-86.7546
-117.9634
-122.0504
-106.6228
-85.84286
-69.2558
-59.57388
-50.39593
-37.49134
-22.31564
-7.813994
2.947603
6.320244
7.23482
2.11451
-5.83129
-15.10641
-29.06981
-45.43082
-62.56328
-82.09917
-103.0261
-122.9987
-139.1455
-152.7029
-162.5507
-166.5824
-165.4235
-159.5532
-149.1347
-135.873
-126.303
-115.8348
-104.8388
-115.414
-128.589
-113.2457
-95.4604
-83.07998
-81.55284
-81.54952
-81.88859
-80.79041
-80.3267
-84.45211
-86.16682
-84.31865
-91.5439
-65.62295
-55.92447
-45.9173
-39.05673
-33.5277
-28.73625
-24.65708
-21.0016
-17.79041
-14.9283
-12.26143
-9.896837
-7.666066
-5.513064
-3.520576
-1.677397
-0.002279897
1.663286
3.240744
4.746509
6.162053
7.533846
8.794001
10.04552
11.27161
12.48885
13.63161
14.69795
15.73978
16.7609
17.75797
18.76053
19.72576
20.61048
21.5255
22.4033
23.29862
24.16611
25.02288
25.85862
26.69275
27.49472
28.30119
29.081
29.85613
30.61884
31.36647
32.11107
32.87223
33.63124
34.36155
35.0915
35.80986
36.55435
37.32984
38.08143
38.83069
39.60496
40.37426
41.16124
41.95324
42.74716
43.54202
44.43815
45.36817
46.24815
47.21471
48.18962
49.21217
50.25256
51.14116
52.35206
51.79403
50.42985
49.02133
47.68484
46.40646
45.04548
43.74611
42.61059
41.56805
40.41506
39.27549
38.13213
37.0648
36.01104
34.9786
33.92342
32.85533
31.84093
30.81887
29.77436
28.74271
27.72669
26.66434
25.65568
24.59737
23.4737
22.41329
21.36079
20.3023
19.18488
18.03753
16.924
15.78446
14.5803
13.40848
12.21318
10.93466
9.664615
8.389914
7.104154
5.708941
4.232411
2.776128
1.360031
-0.1675896
-1.763405
-3.389728
-5.126289
-6.926615
-8.798812
-10.75579
-12.65841
-14.81671
-17.06686
-19.41917
-21.99284
-24.56434
-27.50443
-30.63368
-33.97825
-37.56261
-41.65995
-46.26747
-51.43435
-57.30617
-64.1987
-72.62824
-82.92212
-97.86562
-113.2584
51.87615
51.61092
50.50577
49.20655
47.92035
46.70113
45.291
43.94197
42.82919
41.83631
40.67957
39.49227
38.29362
37.24085
36.21318
35.15151
34.05148
32.96347
31.98106
30.95572
29.88987
28.86631
27.85634
26.75619
25.82201
24.71236
23.55486
22.51003
21.42343
20.39698
19.26628
18.15762
17.05688
15.87041
14.6007
13.43512
12.25082
10.97862
9.737465
8.446834
7.10925
5.716036
4.290009
2.817939
1.365332
-0.1382034
-1.736401
-3.412467
-5.1457
-6.92355
-8.754452
-10.73828
-12.66659
-14.90651
-17.10983
-19.42156
-22.09436
-24.60682
-27.64718
-30.69084
-34.05328
-37.76195
-41.88002
-46.50444
-51.68077
-57.60523
-64.59721
-73.05508
-83.37775
-97.41386
-112.5771
-65.51278
-55.75572
-46.28131
-39.31821
-33.88504
-28.86477
-24.80749
-21.18803
-17.96292
-15.00285
-12.29195
-9.99765
-7.74227
-5.539931
-3.585008
-1.74153
-0.01324891
1.68274
3.234036
4.740951
6.122019
7.511064
8.813262
10.02278
11.28289
12.51174
13.60607
14.72546
15.77639
16.76527
17.7517
18.81134
19.81146
20.63404
21.56589
22.43796
23.35182
24.21438
25.06135
25.89255
26.75674
27.56877
28.36886
29.14312
29.9057
30.69603
31.45677
32.17771
32.92345
33.72358
34.48027
35.20032
35.91829
36.64909
37.45453
38.22928
38.93406
39.74462
40.54209
41.31059
42.09609
42.89298
43.6749
44.615
45.60721
46.43422
47.35903
48.26737
49.28027
50.29986
50.99334
-4.844081
-25.64552
-89.60258
-123.7626
-129.7971
-113.8173
-90.91924
-71.9113
-59.96205
-50.95347
-39.75224
-25.01882
-10.44392
1.138638
4.417555
5.870309
1.834694
-5.484236
-15.02547
-29.01716
-44.88212
-62.20011
-82.34777
-103.3225
-122.9058
-139.1226
-153.8394
-163.9744
-167.6901
-167.009
-162.0492
-152.9267
-140.6181
-130.1849
-119.4039
-106.5126
-116.2684
-130.0525
-114.0295
-95.47821
-83.62936
-82.31322
-82.05807
-81.92342
-80.27168
-80.26603
-84.23457
-85.645
-83.62027
-86.51971
-113.1078
-112.7319
-112.1681
-113.7394
-120.0042
-140.0829
-159.2485
-151.8978
-143.4166
-143.343
-149.2426
-154.1166
-157.3693
-162.4917
-168.4085
-173.7159
-177.3905
-179.2969
-179.2099
-177.5588
-174.1685
-169.4035
-163.6314
-157.4491
-150.9201
-144.2936
-137.6417
-130.9597
-124.9962
-119.5628
-114.2792
-109.1917
-104.7907
-100.8428
-97.24431
-93.94773
-90.95696
-88.39429
-85.73595
-83.38578
-81.18429
-78.9169
-76.83564
-74.74782
-72.65174
-70.55023
-68.37471
-66.29544
-64.30708
-62.20809
-59.8736
-57.45672
-54.92219
-52.48157
-50.19151
-47.87309
-45.55989
-43.2966
-40.70113
-42.31024
-46.4338
-43.41504
-35.89545
-32.56987
-30.56144
-29.04627
-27.69651
-26.30312
-24.81542
-23.39221
-22.0324
-20.81056
-19.76596
-19.9183
-21.12046
-21.99973
-22.75876
-26.08834
-29.64036
-30.78256
-29.55396
-27.05646
-24.28253
-21.94242
-19.79883
-18.66182
-18.45052
-18.26223
-18.62101
-19.90701
-21.11469
-21.60628
-21.21503
-19.63675
-17.30058
-14.42516
-12.45515
-11.2247
-11.28767
-9.83326
-142.2399
-144.6976
-144.1121
-146.9615
-155.4647
-148.1407
-139.9696
-138.8557
-138.0559
-137.9224
-137.9015
-138.2069
-138.4268
-138.7098
-139.0183
-139.5654
-140.722
-141.9379
-142.2935
-141.4431
-139.596
-137.5705
-135.7367
-137.2007
-143.3191
-152.0333
-157.069
-154.0224
-147.9831
-151.3747
-158.6773
-167.7348
-174.1376
-174.1554
-171.3254
-162.835
-153.0404
-143.065
-133.448
-124.5172
-117.9493
-112.2064
-104.4063
-96.03421
-90.83481
-87.66644
-87.83317
-89.26743
-94.3063
-100.2753
-0.3103143
-0.07301118
3.134044
4.15011
-9.068424
-1.851069
2.239304
3.466798
2.648699
-32.4794
-11.23228
-22.70924
-0.1116581
10.32779
6.446952
3.887897
7.403152
0.2928742
4.579646
-11.26652
2.842041
4.651289
-11.27637
4.34754
-0.8864913
4.47262
4.339951
2.870694
3.791391
-1.152703
4.165854
0.02502107
12.63575
-1.278545
5.20222
-4.35554
-19.63778
5.926666
-6.632912
4.823087
6.306243
-0.09628716
-6.100183
-8.711965
1.789443
-55.67939
-1.348944
-0.1139318
-0.3163715
6.73772
1.459664
-3.067234
1.20833
-8.138925
4.888426
-17.09243
1.827893
3.358572
0.08202224
-0.08322206
-20.51698
4.622584
-2.015482
-6.358535
6.991197
-12.61111
-1.601673
-15.64692
2.269956
1.421652
-27.62984
-3.857631
5.487649
2.562287
4.010222
4.42835
3.510754
3.474707
-0.5011503
4.976846
-4.798408
3.68343
-13.75966
-1.918859
-46.76588
-12.0274
6.93715
-11.80829
-1.129831
0.8249233
5.241993
5.752507
4.419668
3.017398
-8.60619
1.235366
4.359836
4.648014
-111.915
-3.667401
-3.285176
-29.1192
9.102958
-39.92169
1.078441
4.030724
-1.123387
4.944485
4.068822
3.555846
-16.08046
-111.8704
-6.093507
1.688526
4.45618
1.927082
-1.803057
-14.69511
6.739994
2.556934
0.1239463
2.813211
-1.285212
-1.905294
3.729066
-0.9952246
-0.2473084
11.76116
-29.21623
-3.391907
9.906855
6.419083
4.116557
3.756935
5.080298
-4.975966
1.501991
-145.9301
1.452656
5.976033
4.162155
6.900213
4.064676
1.287076
-1.553536
-6.050148
5.245773
-0.06164906
-2.880238
-15.12292
-78.40379
-85.49387
-1.077006
3.845333
10.6737
3.553951
-7.38791
7.767667
0.2862648
2.392554
0.02056753
3.819716
1.436491
-4.463123
6.069192
-3.710979
0.2642782
5.254564
-1.232034
2.240798
-21.77565
-20.84102
-5.818721
2.081965
-0.75148
0.1815777
-0.4000101
1.053816
-2.054411
-36.50382
-4.413833
4.315732
0.8739443
2.414027
0.6949141
1.567158
4.998391
4.804066
5.355824
-2.403956
1.624719
-23.57421
3.934625
-0.4224702
-18.69403
0.234477
0.4628122
-1.469098
4.467951
0.374414
-23.69338
1.118375
0.8421055
9.243792
0.8653039
2.315935
1.815612
5.057394
0.3862686
1.389009
2.345682
0.493038
5.124703
4.79286
-1.393758
-11.92753
1.216675
-1.740363
3.223909
-29.77139
2.707013
1.453904
3.772453
-38.34595
19.63987
-36.4303
3.912326
-10.28227
0.1742148
1.297745
-16.74375
2.397141
3.92653
4.863175
-103.9495
-21.85043
3.481057
4.410781
-259.2773
-4.809623
1.200534
-28.04692
-3.139062
-1.292296
-32.3136
1.535633
3.066086
1.264518
3.406186
4.378855
4.371127
-107.2834
6.863679
1.633524
0.2305636
10.31229
-0.7842648
3.141021
0.6887376
1.548925
3.043667
-9.846873
2.696793
-13.65593
5.237477
3.035042
1.369573
-27.79583
3.894677
1.705879
5.44046
6.667726
-1.603559
-0.8305594
6.132673
-74.7457
4.813181
2.863711
-3.343364
-159.4299
1.034454
-8.171138
-16.7257
-0.7853904
5.932982
-13.36191
1.455511
5.377936
5.86213
3.036401
-234.2702
6.482602
-246.545
4.709232
5.328473
-24.08274
-0.9483167
-78.75783
4.431234
1.18451
0.2430458