/*--------------------------------*- C++ -*----------------------------------*\
| =========                 |                                                 |
| \\      /  F ield         | OpenFOAM: The Open Source CFD Toolbox           |
|  \\    /   O peration     | Version:  2406                                  |
|   \\  /    A nd           | Website:  www.openfoam.com                      |
|    \\/     M anipulation  |                                                 |
\*---------------------------------------------------------------------------*/
FoamFile
{
    version     2.0;
    format      ascii;
    arch        "LSB;label=32;scalar=64";
    class       volVectorField;
    location    "0.4";
    object      U;
}
// * * * * * * * * * * * * * * * * * * * * * * * * * * * * * * * * * * * * * //

dimensions      [0 1 -1 0 0 0 0];

internalField   nonuniform List<vector> 
4529
(
(0.009931907 -0.0001057576 -1.951209e-26)
(0.009983261 -0.0001187062 -2.970609e-26)
(0.01003945 -9.737947e-05 1.72003e-26)
(0.01002678 -2.494784e-05 0)
(0.009833214 1.241839e-05 1.131187e-25)
(0.009963563 -1.695941e-05 0)
(0.0097026 0.0001161423 1.093254e-25)
(0.01002947 -4.14258e-05 0)
(0.009809358 -0.0001724674 -3.885878e-26)
(0.0099726 -2.274923e-05 7.369726e-27)
(0.00988989 3.866278e-05 2.143232e-25)
(0.009961311 1.225706e-05 0)
(0.009957004 -3.643398e-06 5.729479e-26)
(0.009957006 6.873643e-06 0)
(0.009952851 -3.115817e-05 -2.894922e-26)
(0.009947833 -0.0001836422 0)
(0.01003949 -4.536249e-05 -1.04431e-25)
(0.009758106 -6.355474e-05 0)
(0.009936896 -7.293424e-05 -1.18063e-25)
(0.01010649 -0.0002103629 -1.711921e-25)
(0.009807443 1.867402e-05 -2.745605e-25)
(0.009934576 -6.003788e-05 -6.020382e-26)
(0.009888238 -8.868667e-05 -1.361086e-25)
(0.009917418 1.947227e-05 1.021741e-26)
(0.009951837 3.278405e-07 -1.234336e-27)
(0.01005586 -0.0002353401 0)
(0.009976972 -2.162331e-05 1.285349e-26)
(0.009880945 -0.0001132412 2.083089e-25)
(0.01002159 -3.796287e-05 -1.81771e-27)
(0.01000081 -0.0002092007 0)
(0.009875905 -8.48386e-05 -2.085575e-25)
(0.009914566 -2.441226e-05 1.039524e-25)
(0.01000069 -5.862201e-05 0)
(0.01000706 -4.223252e-05 1.26375e-27)
(0.009948357 -0.0001775341 -1.856785e-25)
(0.00979622 9.233044e-05 2.061731e-25)
(0.009955967 1.662924e-06 -1.493548e-26)
(0.009948947 3.540085e-05 -4.430836e-26)
(0.01000555 -0.0001787821 -3.8336e-26)
(0.0100063 -5.073948e-05 -5.123715e-28)
(0.00996922 1.922323e-05 -4.860458e-27)
(0.009968158 -3.030252e-05 -4.324992e-27)
(0.009942416 -2.850245e-05 0)
(0.009911635 -6.816734e-05 0)
(0.009980899 -5.905386e-05 0)
(0.009992701 -0.0001011477 -8.866531e-28)
(0.009973935 -0.0002262668 2.566586e-25)
(0.009955236 -7.869195e-05 0)
(0.009919104 -7.565677e-05 0)
(0.009789141 -0.0001606847 -1.661201e-25)
(0.009941759 8.325287e-06 3.55717e-27)
(0.00997958 -2.703163e-05 3.239121e-27)
(0.009945125 -7.100732e-05 8.678956e-26)
(0.01003318 -0.0001090597 -8.653501e-27)
(0.01002736 -5.451089e-05 1.253046e-26)
(0.01009559 -0.0002054727 8.450355e-26)
(0.009960121 -3.555145e-06 1.331938e-27)
(0.009888194 1.216256e-06 -2.441497e-27)
(0.009846221 -2.10537e-05 0)
(0.009866563 -0.0001255139 -1.203934e-25)
(0.01002772 -0.0001633213 5.691072e-27)
(0.009940217 1.073021e-05 -3.100925e-27)
(0.009723044 7.574396e-05 1.683053e-25)
(0.009893507 -1.675713e-06 0)
(0.009985147 -2.403056e-05 1.095972e-26)
(0.009939757 1.211267e-05 -3.082158e-26)
(0.01000354 -3.431685e-05 0)
(0.009963454 -3.570949e-05 -2.792011e-26)
(0.009952809 3.683963e-05 3.518577e-26)
(0.009788575 -3.721304e-05 -7.084105e-26)
(0.009870778 4.182553e-05 0)
(0.009997699 -2.566168e-05 0)
(0.009971332 -0.0001805223 0)
(0.01003691 -9.076843e-06 0)
(0.009952183 -0.0001869263 -1.128186e-26)
(0.01001358 -3.040657e-05 -6.222946e-27)
(0.01001844 -2.58579e-05 -1.635512e-26)
(0.009944965 -3.740555e-05 0)
(0.009947785 -3.138755e-05 0)
(0.01004129 -5.957119e-05 7.635512e-26)
(0.00986694 5.67924e-05 -1.221327e-25)
(0.01000402 -5.500869e-05 -1.687349e-27)
(0.00985724 5.450484e-05 0)
(0.009969618 -1.943495e-05 1.506311e-26)
(0.009829917 -0.0001576869 -9.587399e-27)
(0.009731453 -0.0001778406 -7.421413e-25)
(0.009879556 2.259266e-05 1.294078e-25)
(0.009892213 1.236455e-05 -8.459366e-26)
(0.01000809 -2.668562e-05 -7.266658e-27)
(0.01001639 -5.225551e-05 1.345605e-26)
(0.009949635 -7.405631e-05 4.080447e-26)
(0.009891765 -6.759656e-05 -1.385442e-25)
(0.009945037 3.744335e-05 0)
(0.009972813 -0.0002378351 0)
(0.009809518 1.348889e-06 0)
(0.009645036 7.46111e-05 -5.195253e-25)
(0.009781468 9.120928e-05 -1.299296e-25)
(0.00983882 -6.729963e-05 2.313061e-25)
(0.009922181 2.063361e-05 -7.700442e-26)
(0.009899768 -9.258352e-05 4.513528e-26)
(0.009937131 -5.671403e-06 -7.232678e-27)
(0.009961508 2.974262e-05 -3.609546e-26)
(0.009997443 -4.503453e-05 -1.061294e-26)
(0.009857169 -5.465651e-05 -3.88635e-25)
(0.009891033 -5.970661e-05 9.356748e-26)
(0.009982936 -0.0001150925 1.204332e-25)
(0.009935616 -7.149412e-07 -6.651327e-26)
(0.01001681 -6.479998e-05 8.629554e-27)
(0.009940657 -9.572423e-06 -1.650697e-26)
(0.009907775 -0.0001294287 6.152522e-26)
(0.009990015 -2.90177e-05 1.506289e-27)
(0.009931444 -1.392594e-05 0)
(0.0097481 7.283398e-05 -4.890519e-25)
(0.00988441 1.641528e-05 0)
(0.01003816 -0.0001333947 0)
(0.009970708 -2.59989e-05 8.430898e-28)
(0.009942794 -8.072038e-05 8.653014e-26)
(0.00990453 -5.348881e-05 -1.15581e-25)
(0.00975216 -0.0001057742 9.494065e-28)
(0.009952758 -2.55927e-05 0)
(0.009988993 -0.0002052605 1.465428e-26)
(0.009993123 -3.024378e-05 1.223008e-27)
(0.009981451 -4.753625e-05 -1.599313e-26)
(0.009940231 3.408729e-05 0)
(0.01001966 -4.018771e-05 8.653291e-27)
(0.009727421 -0.0001876821 3.750329e-25)
(0.009966466 -1.740394e-05 1.592902e-26)
(0.009975595 -3.335306e-05 7.775661e-27)
(0.009965189 2.088923e-05 9.024079e-27)
(0.00995005 -6.204969e-06 7.886425e-27)
(0.009957351 1.035801e-05 -1.603614e-26)
(0.00994303 -5.885515e-05 5.125572e-26)
(0.009939234 1.734175e-05 -5.567684e-26)
(0.009887734 1.528782e-05 2.955982e-25)
(0.009865956 -5.781191e-05 0)
(0.01000525 -6.785997e-05 0)
(0.009985835 -5.972384e-05 -2.366676e-26)
(0.009724363 5.041046e-05 0)
(0.009974664 -7.541913e-05 -6.237837e-26)
(0.01000789 -5.747855e-05 0)
(0.009976096 2.044101e-05 -2.992494e-26)
(0.009994083 -2.567878e-05 0)
(0.009874195 -3.896196e-06 -1.247727e-25)
(0.01001728 -0.0001375494 1.198309e-26)
(0.01000137 -8.062003e-05 -2.15633e-26)
(0.01007499 -0.0002207585 -3.295005e-26)
(0.009827435 -0.0001288957 0)
(0.009772995 -0.0001527511 0)
(0.009944851 -2.014267e-05 -1.636276e-26)
(0.009746895 1.186606e-05 -4.101085e-25)
(0.009984245 -2.854072e-05 0)
(0.009959229 2.925733e-05 -2.780351e-27)
(0.01001061 -2.799232e-05 -1.109565e-27)
(0.009982693 -0.0001867118 -6.967767e-26)
(0.009721936 -5.676208e-05 0)
(0.00981737 -8.718739e-05 2.756646e-25)
(0.0100014 -7.521104e-05 0)
(0.00995414 -2.534053e-07 1.041168e-26)
(0.01006189 -0.0001996675 0)
(0.009984279 -2.668808e-05 7.095193e-27)
(0.009992515 -4.064355e-05 -8.976956e-27)
(0.01000348 -0.0002226209 4.59445e-26)
(0.00990812 -4.340316e-05 2.003892e-25)
(0.009939815 -4.66579e-05 0)
(0.009951534 3.137997e-06 2.026351e-27)
(0.009920684 -0.0001249561 2.396271e-25)
(0.009770529 -0.0001710633 4.880327e-26)
(0.01005126 -0.0001836158 -2.350268e-26)
(0.009858527 -6.511154e-05 0)
(0.01003008 -0.000106619 0)
(0.009985226 -6.896772e-05 -1.421661e-26)
(0.009878935 -2.245955e-05 0)
(0.009669742 5.326283e-05 3.204252e-25)
(0.009974865 -5.312724e-05 -4.080928e-26)
(0.009904551 3.414196e-05 2.968804e-26)
(0.009857235 2.920685e-05 1.875908e-25)
(0.01001765 -5.069395e-05 0)
(0.009949955 -0.0001249699 2.678149e-26)
(0.009953929 -9.239588e-06 -7.419164e-27)
(0.009750752 -5.705062e-05 0)
(0.009990815 -6.866411e-05 2.014645e-26)
(0.009918493 -7.676833e-06 0)
(0.009935892 -4.10062e-05 -5.897676e-26)
(0.01002548 -6.411416e-05 0)
(0.009945197 3.571777e-05 -1.262181e-26)
(0.01006052 -4.15714e-05 -1.206468e-25)
(0.01008775 -0.0001677874 6.822492e-26)
(0.009939496 2.117003e-05 5.195157e-26)
(0.009949813 -3.899233e-05 -3.569711e-26)
(0.009774343 8.535704e-05 -2.586876e-25)
(0.009977796 -0.0001779565 0)
(0.009942274 -1.406323e-05 2.567193e-26)
(0.01001878 -4.319105e-05 4.959918e-27)
(0.009946407 -0.0001595564 0)
(0.0099222 -1.173078e-05 0)
(0.009932962 -1.963156e-05 0)
(0.009875496 4.041155e-05 0)
(0.009972536 1.931982e-05 0)
(0.009945121 -3.563434e-05 0)
(0.00992598 -2.936993e-05 -9.236802e-26)
(0.009941931 1.704455e-05 0)
(0.009943899 2.958352e-05 0)
(0.009943428 2.460395e-05 -2.132933e-26)
(0.009907963 1.656211e-05 2.044109e-26)
(0.01003379 -0.000133631 1.290624e-26)
(0.009922177 -5.001108e-07 -6.911756e-26)
(0.009935599 2.525607e-05 0)
(0.009954528 3.742538e-05 3.524758e-26)
(0.01001039 -4.600954e-05 -5.062149e-27)
(0.009699054 -3.18552e-05 6.466016e-25)
(0.009729163 -1.005684e-05 2.59793e-26)
(0.009961784 2.34764e-05 9.957077e-28)
(0.009917598 -5.808516e-05 0)
(0.009822751 4.32524e-05 2.273825e-25)
(0.009968124 -3.97457e-05 0)
(0.009966375 -3.379591e-05 4.531698e-26)
(0.009761527 -4.687484e-06 2.678241e-25)
(0.009880424 3.458484e-05 -9.240546e-27)
(0.009708199 -0.0001399981 7.907731e-25)
(0.009813998 -3.250787e-06 1.353251e-25)
(0.009966157 -1.328222e-05 -4.074021e-26)
(0.009844672 -7.577666e-05 -4.07434e-25)
(0.009958123 2.013575e-05 1.482147e-26)
(0.01003351 -6.533181e-05 -4.429478e-26)
(0.009858712 -0.0001748057 4.981032e-26)
(0.009908955 -0.0001425635 -3.963335e-25)
(0.009910391 -1.388252e-05 -5.074003e-26)
(0.009881066 3.043106e-05 0)
(0.009952643 -9.390435e-05 1.79901e-27)
(0.009928049 1.599653e-06 0)
(0.009678943 -2.560781e-05 -3.826081e-25)
(0.009943566 -2.247601e-05 6.358994e-26)
(0.01001248 -4.767225e-05 -1.94278e-27)
(0.00991862 -0.0001835191 -4.314325e-25)
(0.009943728 -2.325523e-06 -2.058487e-26)
(0.009946652 8.50177e-06 0)
(0.009991418 -2.869209e-05 -3.527817e-27)
(0.009952494 9.728756e-06 0)
(0.009913186 -7.356114e-05 0)
(0.009964771 -1.949876e-05 3.565839e-27)
(0.009980731 -2.259116e-05 2.491968e-28)
(0.009891664 1.51815e-06 0)
(0.009967365 -1.437456e-05 -3.804421e-26)
(0.00989528 -1.450227e-05 0)
(0.00989347 4.824775e-06 0)
(0.009907612 -0.0002256574 -1.642904e-25)
(0.009934332 -0.0002034287 7.06131e-26)
(0.009695525 1.146392e-05 4.782973e-25)
(0.009955524 2.119076e-05 7.0343e-27)
(0.00995179 -1.202234e-05 2.982159e-29)
(0.009931088 3.137153e-06 1.457261e-27)
(0.009961081 -0.0001794089 0)
(0.009776438 -0.0001983944 1.062176e-25)
(0.01001722 -2.519326e-05 -6.539109e-28)
(0.009873889 -0.0001391575 0)
(0.009997969 -3.84538e-05 0)
(0.009965264 -1.420886e-05 0)
(0.009949649 1.972595e-05 0)
(0.009977265 -3.668613e-05 0)
(0.009828546 -2.850814e-05 0)
(0.009938749 -0.000134772 0)
(0.009968617 -0.0001153248 -5.167128e-26)
(0.009881761 5.062738e-05 1.549471e-25)
(0.009996188 -6.06427e-05 0)
(0.01001022 -6.359211e-05 -9.449615e-28)
(0.009986426 -2.781726e-05 -4.997771e-27)
(0.009991606 -5.301053e-05 -9.024991e-27)
(0.00993783 9.344533e-06 0)
(0.009940828 1.995968e-05 5.941393e-26)
(0.00999499 -0.0002011354 -3.809014e-26)
(0.009859452 3.629726e-05 -1.615659e-25)
(0.009880955 -6.942955e-06 0)
(0.009973245 -0.0001375134 -1.191595e-26)
(0.009920038 -0.0001726495 1.026914e-27)
(0.01001368 -3.636704e-05 0)
(0.009823097 -5.748866e-05 -2.405408e-25)
(0.009914504 -1.790295e-05 7.527382e-26)
(0.00996513 1.56799e-05 -2.907073e-26)
(0.009931863 -0.0002114011 -1.385288e-25)
(0.01002135 -5.337352e-05 3.46957e-27)
(0.01001816 -4.486836e-05 1.030372e-27)
(0.01001737 -2.414436e-05 -1.44276e-26)
(0.01001118 -3.366452e-05 6.950341e-27)
(0.009960686 3.919128e-06 4.466099e-26)
(0.01004887 -0.0001558317 0)
(0.009816939 -7.346029e-05 -2.223308e-25)
(0.009957055 1.079185e-06 4.781144e-26)
(0.009921731 5.605156e-06 1.788051e-25)
(0.009909453 2.804351e-06 1.30394e-26)
(0.01012079 -9.791681e-05 -4.485773e-26)
(0.0097691 -4.415164e-06 -2.429588e-25)
(0.01014954 -9.809071e-05 -1.387634e-25)
(0.009959552 1.379703e-05 -1.590722e-26)
(0.01002506 -0.0001249667 3.751405e-27)
(0.009987254 -8.064317e-05 7.184265e-27)
(0.009912263 3.679264e-05 -2.298379e-25)
(0.009929365 -6.723506e-05 -1.138838e-25)
(0.009966999 -1.596435e-05 0)
(0.009719919 4.220457e-05 5.620046e-25)
(0.009767501 -6.005252e-05 0)
(0.009992076 -8.039629e-05 -3.221933e-26)
(0.009877729 1.526903e-05 0)
(0.00987467 -1.169143e-05 0)
(0.009878099 4.791043e-05 1.391242e-25)
(0.009914454 -2.746171e-05 -3.158638e-27)
(0.01008181 -6.999525e-05 -8.639427e-26)
(0.009981139 -9.944674e-05 0)
(0.009688965 6.266015e-05 5.831292e-26)
(0.009870606 -0.0001298199 2.427869e-25)
(0.009957959 -3.747489e-05 -4.243716e-26)
(0.01004389 -0.0001566083 -2.152572e-26)
(0.009975937 -6.490368e-05 2.735706e-26)
(0.009807196 -0.0001584464 -4.705314e-26)
(0.009925566 -6.162458e-05 1.490566e-25)
(0.009930273 -8.205342e-05 1.10234e-25)
(0.009994087 -0.0001956361 -9.147317e-26)
(0.009977042 -2.300767e-05 -3.062449e-27)
(0.009853683 -2.887758e-05 0)
(0.009804879 -1.839283e-05 -1.338327e-25)
(0.01004065 -5.459557e-05 0)
(0.009967059 2.042787e-05 -1.020242e-26)
(0.01003251 -3.149733e-05 0)
(0.009941102 2.656424e-06 1.123422e-27)
(0.009941707 -1.685828e-05 -2.290501e-26)
(0.009958116 -1.142698e-05 -2.054732e-26)
(0.009990031 -4.918505e-05 -2.815877e-26)
(0.009873415 4.976756e-05 -1.409607e-25)
(0.009938797 -8.744284e-07 3.139341e-26)
(0.009940026 3.920881e-06 -1.980614e-26)
(0.009927115 8.888831e-06 0)
(0.009925469 -2.13856e-06 1.197045e-26)
(0.01001602 -0.0002238468 2.836039e-26)
(0.009967599 1.96333e-05 0)
(0.009901736 -4.549303e-05 -1.014589e-26)
(0.009961641 -7.675917e-06 0)
(0.009989594 -0.0001029533 -3.02467e-26)
(0.01002244 -0.0001636941 -6.650298e-27)
(0.009972395 -9.447322e-05 -1.736261e-25)
(0.009914328 2.881475e-05 0)
(0.009967224 -1.816648e-05 -1.049888e-26)
(0.009953968 1.186234e-05 0)
(0.009695654 -0.0001441627 -1.955133e-25)
(0.009763932 -0.0001404515 0)
(0.00992968 2.864844e-05 -7.015556e-26)
(0.009907417 4.007983e-05 3.921759e-27)
(0.009958424 -0.0001005602 0)
(0.009965647 1.743798e-05 0)
(0.009961366 1.414879e-05 2.722778e-26)
(0.009788772 -0.0001288764 3.683822e-25)
(0.01002985 -0.0001965323 3.900137e-26)
(0.01002448 -3.919195e-05 6.455412e-27)
(0.01001367 -0.0001258316 -7.432439e-27)
(0.009673439 9.891584e-05 0)
(0.009977845 -6.700319e-05 3.450536e-27)
(0.00999301 -3.395833e-05 0)
(0.01014292 -8.19035e-05 -5.203592e-26)
(0.009983835 -4.503427e-05 0)
(0.009979703 -0.0001622549 -2.067685e-26)
(0.01001493 -2.344998e-05 4.773567e-26)
(0.009965652 -9.157246e-05 -7.315681e-27)
(0.01002938 -8.399073e-05 6.482472e-27)
(0.009899718 -0.0001172446 0)
(0.009937911 -0.0001178231 -7.805124e-26)
(0.009811561 4.821626e-05 0)
(0.009865634 2.604534e-05 0)
(0.009948397 -2.03682e-06 6.841725e-27)
(0.00998452 -0.0001266101 0)
(0.009917293 1.264605e-05 -8.470301e-26)
(0.01003543 -2.491702e-05 0)
(0.009806402 7.344598e-05 2.102915e-25)
(0.009938698 -0.0001404919 4.332449e-26)
(0.009810989 -8.385462e-05 -2.771642e-25)
(0.009942076 -0.0001197965 3.132778e-25)
(0.01002757 -8.16702e-05 6.81389e-28)
(0.01004027 -8.436798e-05 0)
(0.009852 -2.000566e-05 -9.681764e-27)
(0.009899521 -3.081707e-05 2.682395e-26)
(0.01002183 -7.090249e-05 -6.530702e-27)
(0.01001344 -8.887369e-05 -1.275866e-27)
(0.009962826 -0.0001269438 -2.616291e-26)
(0.009955881 -0.0001476186 0)
(0.0101395 -0.0001172283 5.130071e-26)
(0.01002201 -6.087195e-05 2.987506e-26)
(0.009990916 -5.565525e-05 1.018283e-26)
(0.009946018 -2.981887e-06 9.030675e-27)
(0.009994537 -0.000121004 0)
(0.009997877 -0.0001289668 2.608048e-26)
(0.009973468 -0.0001085315 3.017513e-26)
(0.009898492 -0.0002249032 0)
(0.01003872 -0.0001247262 -3.37416e-26)
(0.009813267 -0.0001051079 -2.824075e-25)
(0.009939342 1.546136e-05 2.006393e-26)
(0.009927781 1.441636e-05 0)
(0.01000091 -4.302218e-05 5.647974e-27)
(0.01004585 -0.0001126406 -4.584265e-26)
(0.009959726 -3.013679e-05 4.322362e-26)
(0.01006154 -8.96862e-05 9.798798e-26)
(0.009953876 -1.561929e-05 -3.721512e-27)
(0.009959734 1.476828e-05 1.171765e-26)
(0.009967504 1.618963e-05 -3.894361e-26)
(0.009975658 -9.583649e-05 3.159768e-26)
(0.009991952 -4.596924e-05 2.444253e-27)
(0.009961555 -0.0001186749 -4.866285e-26)
(0.009976933 -0.000140608 -7.91935e-26)
(0.009695211 0.0001000575 2.486395e-25)
(0.01004445 -7.684536e-05 -5.343992e-26)
(0.0100077 -0.0001850886 0)
(0.009929078 3.773105e-05 0)
(0.01001199 -6.042806e-05 8.235962e-27)
(0.0098702 -2.541959e-05 -2.540386e-25)
(0.009949612 6.754205e-06 -1.495129e-27)
(0.009937358 -0.0002169126 -1.452544e-26)
(0.009833682 -6.444303e-05 -2.008163e-25)
(0.01004861 -7.563657e-06 0)
(0.009948697 -6.238588e-05 0)
(0.009968312 -4.551619e-05 0)
(0.01001181 -3.925915e-05 2.261332e-26)
(0.009973096 -4.499067e-05 3.922653e-26)
(0.01016801 -0.0001079318 3.775016e-25)
(0.009969261 -8.154718e-05 -9.531029e-26)
(0.009971002 -6.326218e-05 5.225915e-26)
(0.009982339 -6.898369e-05 1.600043e-26)
(0.009985409 -5.074528e-05 -2.117738e-26)
(0.01000409 -3.041772e-05 -1.009462e-28)
(0.009953554 -2.791705e-06 0)
(0.0100557 -0.000195264 2.650645e-29)
(0.009713912 -4.873151e-05 0)
(0.01006879 -0.0001486086 0)
(0.009750717 3.73455e-06 0)
(0.009753785 -4.719786e-05 0)
(0.009984175 -0.0001542414 -1.221424e-26)
(0.009860729 -0.0001265317 0)
(0.01000243 -0.0001087318 0)
(0.009889521 -0.0001339253 4.546471e-26)
(0.01002091 -8.076476e-05 -5.57846e-27)
(0.009958323 -1.246522e-05 -1.302224e-26)
(0.009887308 -0.0002146849 -4.198836e-25)
(0.009941847 -2.152247e-05 -4.308274e-26)
(0.009936697 1.054437e-05 0)
(0.01002273 -0.0001791951 2.929366e-26)
(0.01000232 -5.390215e-05 3.303207e-27)
(0.009969409 -2.238257e-05 0)
(0.009960911 -1.618502e-05 0)
(0.009993402 -0.0001289837 0)
(0.009924263 -4.101945e-05 3.983173e-27)
(0.009966982 -1.705186e-05 -6.55663e-28)
(0.009793503 5.841537e-05 -3.003279e-26)
(0.009804574 2.944956e-05 0)
(0.009983613 -4.694055e-05 3.23332e-26)
(0.009976964 -0.0001265234 -8.476088e-26)
(0.009950558 -4.287472e-05 0)
(0.00994736 -5.749583e-05 -5.488948e-26)
(0.009972042 -6.06075e-05 -7.413278e-26)
(0.009965272 -5.655426e-05 -5.683046e-26)
(0.009972411 -4.716231e-05 -3.18061e-26)
(0.009932612 -3.239039e-05 -6.154826e-26)
(0.009939148 -3.349257e-05 6.555661e-26)
(0.009966471 -5.414513e-05 0)
(0.009965291 -4.157014e-05 0)
(0.009935009 -3.34936e-05 -3.543696e-27)
(0.009963345 -1.916226e-05 5.084413e-27)
(0.009947179 -4.220542e-05 1.954677e-26)
(0.009952764 -5.69656e-05 4.135703e-26)
(0.009968706 -4.957524e-05 -4.585169e-26)
(0.00985319 2.853244e-05 -1.969255e-25)
(0.009942417 -9.072086e-05 2.853557e-26)
(0.009785157 -0.0001938434 -1.851948e-25)
(0.01003077 -0.0001375729 1.702012e-27)
(0.009958779 -2.064233e-06 0)
(0.01001316 -5.342031e-05 1.684312e-27)
(0.009961725 -0.0001539337 -8.981033e-26)
(0.009971411 2.246581e-05 7.346005e-27)
(0.009974492 -2.496267e-05 0)
(0.01004113 -0.000120689 2.08679e-26)
(0.009928622 -4.080388e-05 6.970357e-26)
(0.009838646 -0.0001675694 -4.017684e-25)
(0.009785912 -1.730557e-05 0)
(0.009762275 -8.961724e-05 -2.585621e-25)
(0.01001555 -2.694539e-05 2.827123e-27)
(0.01003394 -7.187401e-05 0)
(0.009939309 -9.610432e-05 0)
(0.01000978 -3.033644e-05 7.078686e-27)
(0.01000897 -2.833433e-05 1.607106e-27)
(0.009873561 -7.005822e-05 -1.743431e-25)
(0.009998355 -2.864737e-05 8.682335e-27)
(0.00973355 -9.541999e-05 -5.962273e-25)
(0.009946477 -6.335328e-05 1.304254e-26)
(0.009946931 -1.667889e-05 1.982884e-26)
(0.009713865 0.0001113904 -4.714853e-25)
(0.009967915 2.138844e-05 9.481273e-27)
(0.009954133 -1.311799e-05 5.770749e-28)
(0.01002916 -3.860526e-05 3.858957e-27)
(0.01002094 -3.455704e-05 1.027206e-26)
(0.009919651 -9.254935e-05 -3.412766e-26)
(0.009894769 -8.691602e-05 -1.866853e-25)
(0.009850034 1.52468e-05 0)
(0.009851321 -0.0001472537 -3.897116e-25)
(0.009816858 -0.0001675145 3.449968e-25)
(0.009996587 -2.587844e-05 0)
(0.009995161 -2.687483e-05 -2.687168e-29)
(0.009954601 -0.0001053169 -1.204513e-25)
(0.00974716 -4.027307e-05 0)
(0.009956061 1.648433e-05 -3.246029e-27)
(0.009993874 -6.137848e-05 -5.845815e-27)
(0.009974882 -2.213632e-05 -3.897316e-28)
(0.01001546 -4.307396e-05 1.01148e-27)
(0.009940052 8.08116e-06 0)
(0.009943372 1.471377e-05 -2.132637e-26)
(0.009958452 4.183076e-06 2.567208e-26)
(0.009755737 -0.0001535633 4.49961e-25)
(0.009936395 -5.280318e-05 0)
(0.009951499 -9.326829e-06 -1.371994e-27)
(0.009943389 -5.403611e-06 0)
(0.009904865 4.49167e-05 -1.381979e-25)
(0.009913081 1.781139e-05 0)
(0.009823459 -4.419197e-05 0)
(0.009957829 -0.0001206452 3.875551e-26)
(0.009950442 -1.623076e-05 -3.281138e-26)
(0.009954091 -7.298549e-05 7.209824e-26)
(0.009871936 -0.0001450381 0)
(0.01013863 -0.0001615581 0)
(0.009853233 -0.0001957517 -9.358401e-26)
(0.009924213 2.214722e-05 -6.427882e-26)
(0.01018678 -0.0001702584 0)
(0.01004345 -6.131675e-05 -1.762009e-26)
(0.01002596 -3.278141e-05 0)
(0.01005078 -2.085346e-05 0)
(0.009930999 -0.0001712256 1.41544e-25)
(0.00992816 -0.0001416136 0)
(0.009919945 -2.765344e-05 -2.900281e-27)
(0.009835552 -4.157096e-05 2.431425e-25)
(0.009817672 -5.333014e-05 0)
(0.009836394 -0.0001352096 3.109684e-25)
(0.009973985 -7.039777e-05 0)
(0.009987041 -9.02735e-05 -2.181877e-27)
(0.01000894 -8.151353e-05 1.915443e-27)
(0.009994299 -7.269867e-05 2.78272e-26)
(0.00995913 -1.798898e-05 0)
(0.00995701 -2.492071e-05 -3.720779e-27)
(0.009966028 2.457864e-05 -2.090376e-27)
(0.01001326 -2.451124e-05 0)
(0.009948554 1.171464e-05 1.120467e-26)
(0.009941694 -6.28916e-05 5.016235e-26)
(0.009965492 -2.077279e-05 -3.567486e-27)
(0.01000575 -4.705979e-05 0)
(0.0100428 -5.127474e-05 -1.60428e-26)
(0.009973935 -4.090943e-05 1.313966e-26)
(0.009932229 -1.74872e-06 4.83067e-26)
(0.009840831 -8.58931e-05 0)
(0.009915841 -0.000124758 -8.370999e-26)
(0.009929867 -0.0001086085 0)
(0.009909015 2.422795e-05 1.408313e-25)
(0.009920453 -3.861435e-05 4.168764e-26)
(0.009924265 -3.824421e-05 -9.70353e-26)
(0.01002294 -0.0001134127 -5.398919e-27)
(0.01002617 -0.0001536551 6.027976e-26)
(0.009897495 -2.088791e-05 0)
(0.009743089 8.233739e-05 2.280547e-25)
(0.009879375 -5.781084e-05 1.378192e-25)
(0.0098939 -6.127089e-05 0)
(0.009985897 -4.448081e-05 0)
(0.009963248 -2.429288e-05 -8.035844e-27)
(0.009922217 2.801667e-05 0)
(0.00987792 -6.681392e-05 3.158013e-26)
(0.009957121 7.971839e-06 1.439737e-26)
(0.009921042 -2.31871e-05 0)
(0.009926132 -1.241359e-05 0)
(0.009928349 -9.33365e-06 -1.581759e-26)
(0.009936826 -1.494986e-05 -3.257431e-26)
(0.01001015 -5.805213e-05 0)
(0.009936712 -7.956198e-05 1.057276e-25)
(0.009934606 -6.885295e-05 3.167732e-26)
(0.009956111 -9.339362e-06 0)
(0.009828606 -5.494835e-05 2.148636e-25)
(0.0100358 -6.705369e-05 3.630131e-26)
(0.009918289 -0.0001429589 0)
(0.009944634 -8.035355e-06 0)
(0.009737782 4.321988e-05 -3.755417e-25)
(0.01011147 -0.0001588057 1.985565e-25)
(0.009927524 -2.621257e-05 -5.619e-27)
(0.009955454 -6.673985e-06 0)
(0.009968965 -2.014738e-05 -1.050688e-26)
(0.009836794 8.346113e-06 0)
(0.009976057 -0.0002145748 -7.845657e-26)
(0.009862203 -0.0001362494 2.509253e-25)
(0.009973302 2.091953e-05 0)
(0.01002144 -2.288924e-05 -1.659041e-26)
(0.009996424 -2.657224e-05 0)
(0.009774841 -3.375347e-05 3.482436e-25)
(0.009967645 -7.183857e-05 -6.940729e-26)
(0.009990939 -7.574027e-05 0)
(0.00999585 -3.269348e-05 1.901164e-27)
(0.009975983 -2.998365e-05 2.734732e-26)
(0.009959544 -2.676087e-05 -3.881725e-26)
(0.009949044 -8.115245e-06 0)
(0.009948194 -3.330584e-06 4.125839e-27)
(0.0100379 -6.551521e-05 -2.820392e-27)
(0.01002644 -9.141905e-05 1.081957e-26)
(0.01005777 -0.0001294732 0)
(0.009785372 -5.313976e-05 0)
(0.009804639 -6.648126e-05 0)
(0.00997624 -2.849175e-05 -2.958791e-27)
(0.01007102 -7.907046e-05 0)
(0.009916589 -0.0001174371 0)
(0.01004857 -0.0002357014 7.403628e-27)
(0.009989743 -3.685708e-05 3.149063e-27)
(0.009997541 -4.327396e-05 9.472443e-27)
(0.01004461 -8.218999e-05 5.526065e-26)
(0.009947046 -2.412971e-05 -3.304548e-26)
(0.01004055 -6.804885e-05 8.50613e-27)
(0.009947103 3.467832e-05 1.208174e-26)
(0.01006986 -0.000169809 -1.081654e-25)
(0.00968262 -7.636185e-05 -2.265853e-25)
(0.00990587 -0.0001340549 -7.891888e-26)
(0.01001338 -2.565075e-05 1.513156e-26)
(0.009858121 -9.05966e-05 0)
(0.009986472 -3.319354e-05 1.166245e-26)
(0.009977505 -3.056053e-05 1.278898e-28)
(0.009968237 -7.687769e-05 5.234302e-26)
(0.01010986 -0.000139018 -2.460816e-25)
(0.009981217 -9.651301e-05 0)
(0.009793083 3.742138e-06 3.886748e-25)
(0.009872387 5.455015e-05 0)
(0.009913332 -6.212139e-05 0)
(0.009894453 -6.495505e-05 1.093739e-25)
(0.009915193 -6.74056e-05 -1.119204e-25)
(0.00992866 -6.011194e-05 -1.136853e-25)
(0.01007853 -6.018498e-05 0)
(0.009994765 -2.490143e-05 0)
(0.009929325 3.274474e-06 -6.913209e-26)
(0.0101039 -0.0001304321 2.37837e-25)
(0.009952608 -2.932689e-06 2.23654e-27)
(0.009917719 -6.965335e-05 -1.220957e-25)
(0.009942563 3.03144e-05 0)
(0.01000715 -9.994544e-05 3.311423e-27)
(0.009949425 -1.608567e-05 2.414689e-26)
(0.009958735 -1.667114e-05 -2.625194e-27)
(0.009977945 -0.0001907124 7.322881e-26)
(0.009924558 3.736761e-05 -7.254638e-26)
(0.009941341 -1.565996e-06 -4.303912e-26)
(0.009959689 -0.0001392822 4.250783e-26)
(0.01002556 -0.000120686 3.787731e-26)
(0.01003405 -0.0001244693 3.194857e-26)
(0.01012499 -7.798708e-05 5.883162e-26)
(0.009845319 -0.0001576159 1.302714e-25)
(0.01001596 -4.843739e-05 -8.888542e-27)
(0.009950407 2.611033e-05 7.542757e-27)
(0.009845769 -0.0002025339 -3.061125e-25)
(0.01001428 -5.685737e-05 0)
(0.01000849 -7.258036e-05 0)
(0.01003136 -6.655327e-05 0)
(0.009831011 -3.76077e-05 -2.008893e-25)
(0.009905391 -3.616828e-08 2.049502e-25)
(0.009913455 1.11906e-06 1.107023e-26)
(0.009909465 -2.332086e-05 9.242063e-26)
(0.009840566 -0.0001291231 -1.24638e-25)
(0.009957175 -1.50897e-05 2.317524e-27)
(0.00999633 -3.795105e-05 -1.485456e-26)
(0.009994493 -3.463693e-05 -1.848996e-27)
(0.009850964 -1.131281e-05 1.999275e-26)
(0.009834629 3.837349e-06 1.362044e-25)
(0.009933441 -4.002084e-05 5.71121e-26)
(0.009837844 -3.149404e-05 2.3779e-25)
(0.009836703 -1.793405e-05 2.427305e-25)
(0.009842561 -1.71243e-05 0)
(0.01000771 -2.752945e-05 5.53825e-27)
(0.009704653 5.09501e-05 9.858814e-26)
(0.01002908 -6.197102e-05 2.298278e-26)
(0.009947355 7.396457e-06 -3.86312e-27)
(0.009954605 5.916027e-06 9.718708e-28)
(0.009955638 -3.194912e-05 0)
(0.009805672 -5.154031e-05 0)
(0.009912365 -8.43997e-05 -1.032609e-25)
(0.01000006 -2.84092e-05 0)
(0.009962996 3.013583e-05 1.256166e-26)
(0.01004024 -0.0002091 1.514636e-26)
(0.01000036 -0.0001327998 -2.50247e-26)
(0.01000862 -0.0001322562 0)
(0.01000765 -9.091532e-05 0)
(0.01000213 -3.513894e-05 1.659202e-28)
(0.009830942 3.24291e-05 1.935683e-25)
(0.009969084 -0.0001013497 -1.115937e-26)
(0.00990547 -4.12731e-05 7.399713e-26)
(0.009945216 1.279665e-05 0)
(0.009950311 2.810876e-05 -3.1726e-26)
(0.009950695 2.080446e-05 0)
(0.009921711 -0.0001180495 0)
(0.009962514 -8.301572e-06 -5.12253e-26)
(0.01000954 -4.928671e-05 0)
(0.009787423 8.852838e-05 -2.551926e-25)
(0.01001871 -5.634194e-05 0)
(0.01004671 -9.85685e-05 -1.274775e-26)
(0.01001277 -6.780144e-05 0)
(0.01001182 -6.263874e-05 3.418401e-27)
(0.01003438 -0.0002309234 -3.681638e-26)
(0.009931226 -1.379044e-07 8.239444e-26)
(0.009978351 -2.079357e-05 2.52644e-26)
(0.009967699 -0.0001086187 -8.47601e-26)
(0.009916901 -0.0001057944 -1.236247e-25)
(0.009950671 3.22223e-05 0)
(0.009917788 -2.930052e-05 -1.80617e-25)
(0.009944121 -3.074547e-05 -3.279261e-26)
(0.009892096 -3.713681e-05 -4.046936e-27)
(0.009953063 -1.488969e-05 3.942989e-27)
(0.009892202 -5.187902e-06 -2.887198e-26)
(0.01006391 -0.0001234264 -4.793734e-26)
(0.009933794 1.05252e-05 -1.639096e-26)
(0.009908885 3.046734e-05 -6.285387e-26)
(0.009991579 -3.185034e-05 2.912566e-28)
(0.009866666 -0.0001133647 1.690214e-25)
(0.009891895 -4.075722e-05 -1.276618e-25)
(0.009900006 -2.685964e-05 0)
(0.00993808 -3.948301e-05 9.124835e-26)
(0.009937064 -3.239006e-05 5.177003e-27)
(0.009881669 -3.027511e-05 0)
(0.009881619 -1.418485e-05 0)
(0.009930407 -3.376947e-05 0)
(0.009969327 -5.388652e-05 4.93151e-26)
(0.009955109 -2.301998e-06 2.675583e-26)
(0.009896676 -1.181574e-06 3.401179e-25)
(0.009915101 3.533389e-06 0)
(0.009955006 -1.102868e-05 0)
(0.00994982 -0.0001405618 0)
(0.009770014 -5.069539e-05 -2.486138e-25)
(0.009914739 -5.982955e-06 -8.217383e-26)
(0.009735039 6.087779e-05 4.576919e-25)
(0.009932972 1.782426e-05 -2.474088e-26)
(0.009970035 -1.814725e-05 0)
(0.009997933 -5.338991e-05 -1.15533e-26)
(0.009958278 2.158821e-05 -7.311555e-27)
(0.009951913 2.509587e-05 0)
(0.009955493 2.671922e-05 -5.338572e-27)
(0.009948524 5.013237e-06 -5.787391e-27)
(0.00995227 2.9056e-05 0)
(0.01009592 -0.0001156719 0)
(0.009859246 -6.995872e-05 -1.663026e-25)
(0.009926628 1.097309e-05 -5.861008e-26)
(0.009795499 2.122635e-05 -2.573902e-25)
(0.01002724 -0.0001080133 -1.025011e-26)
(0.01002632 -2.24279e-05 0)
(0.01001774 -4.158968e-05 4.893254e-28)
(0.01001758 -3.909051e-05 0)
(0.009947639 6.934067e-07 0)
(0.009952306 -3.239187e-05 -1.300976e-26)
(0.01004636 -0.0001465263 3.660413e-26)
(0.01004139 -0.0001735609 -9.45962e-27)
(0.009957148 2.205186e-05 0)
(0.009997197 -4.847512e-05 -1.680375e-26)
(0.009865703 -5.141538e-05 1.361011e-25)
(0.009855856 -2.444555e-05 1.352378e-25)
(0.00986715 -8.88483e-06 1.364754e-25)
(0.00999589 -3.39496e-05 2.652157e-27)
(0.01003131 -5.278112e-05 2.032162e-27)
(0.009991984 -4.826678e-05 2.90701e-26)
(0.009993884 -4.513108e-05 -1.08759e-26)
(0.01001665 -0.0002070036 5.725411e-26)
(0.009956849 1.495585e-05 -9.362137e-28)
(0.009954356 1.915669e-05 1.630789e-26)
(0.009959161 1.62705e-05 0)
(0.009956006 1.756944e-05 -2.929976e-28)
(0.00994802 2.008118e-05 -1.959466e-26)
(0.01001601 -8.821415e-05 -1.67484e-26)
(0.009900353 2.025259e-05 1.449231e-26)
(0.009989901 -3.879038e-05 -3.616412e-26)
(0.01001364 -4.293369e-05 4.776542e-27)
(0.009839259 -0.0001745567 4.852574e-25)
(0.009896429 2.365849e-05 -1.476749e-25)
(0.009917298 2.538507e-05 5.319142e-26)
(0.009995718 -3.048633e-05 -8.07418e-28)
(0.01000099 -3.283558e-05 -4.139942e-28)
(0.009993901 -2.636295e-05 0)
(0.01003025 -0.0001740999 2.119232e-28)
(0.009982264 -4.056911e-05 -5.547187e-28)
(0.009980926 -3.233891e-05 -1.85269e-27)
(0.009961393 -1.750197e-05 0)
(0.009958202 -2.306557e-05 0)