/*--------------------------------*- C++ -*----------------------------------*\
| =========                 |                                                 |
| \\      /  F ield         | OpenFOAM: The Open Source CFD Toolbox           |
|  \\    /   O peration     | Version:  2406                                  |
|   \\  /    A nd           | Website:  www.openfoam.com                      |
|    \\/     M anipulation  |                                                 |
\*---------------------------------------------------------------------------*/
FoamFile
{
    version     2.0;
    format      ascii;
    arch        "LSB;label=32;scalar=64";
    class       volScalarField;
    location    "4.84";
    object      p;
}
// * * * * * * * * * * * * * * * * * * * * * * * * * * * * * * * * * * * * * //

dimensions      [0 2 -2 0 0 0 0];

internalField   nonuniform List<scalar> 
15536
(
-67.13995
-68.11626
-67.46407
-65.20673
-61.61732
-57.55193
-54.11382
-50.69664
-46.12114
-40.79377
-35.39835
-30.23322
-25.87163
-24.26682
-26.05654
-29.07556
-34.44154
-47.51273
-66.9771
-88.48238
-105.8318
-115.8658
-111.226
-83.29437
-39.18384
-26.62271
-45.27643
-65.19673
-75.65541
-81.22931
-96.48119
-134.083
-175.7023
-167.8028
-121.7483
-116.5846
-128.704
-128.9556
-131.2195
-135.5606
-138.8107
-140.4833
-140.5454
-139.4868
-137.8525
-135.3217
-132.0002
-127.7343
-123.1009
-118.2357
-112.7222
-106.6732
-100.0236
-93.04504
-85.66908
-77.97285
-70.32495
-62.61773
-54.56753
-46.37539
-38.35841
-30.51891
-22.72678
-15.04138
-7.60575
-0.3095899
6.677132
13.31893
19.51065
25.26764
30.54787
35.35859
39.65472
43.35997
46.45529
49.04248
50.99404
52.37478
53.24882
53.51674
52.99341
51.87194
50.19425
47.93869
45.12846
41.78737
37.97667
33.62022
28.8672
23.77717
18.2138
12.33926
6.229318
-0.2620348
-6.888115
-13.46541
-20.17555
-26.9936
-33.74968
-40.51029
-47.11763
-53.40309
-59.31798
-64.92621
-70.32694
-75.2397
-79.63032
-83.44516
-86.67844
-89.37541
-91.28193
-92.27791
-92.36463
-91.40936
-88.98533
-84.79032
-79.19498
-74.87035
-68.02812
-78.3146
-115.5324
-112.3455
-70.05944
-40.25093
-26.81417
-14.11129
4.629425
-6.4208
-64.68019
-82.20773
-61.78167
-36.26257
-16.97462
-5.249438
2.27052
6.119848
8.732507
7.574474
3.039692
0.7454097
1.154968
2.062552
2.96608
0.1864764
-7.718529
-16.81893
-23.0238
-25.75454
-26.99531
-28.86224
-32.04141
-36.66799
-42.67956
-49.00527
-54.98676
-60.18791
-64.41068
-66.75865
-67.73138
-67.1191
-64.94481
-61.43794
-57.49017
-54.13102
-50.69755
-46.11949
-40.78968
-35.37464
-30.20866
-25.85129
-24.24337
-26.03534
-29.06032
-34.45221
-47.52781
-66.94648
-88.36377
-105.6212
-115.6147
-111.2403
-83.39917
-39.24283
-26.60758
-45.37482
-65.31696
-75.67391
-81.18641
-96.42095
-134.079
-175.7761
-167.7622
-121.6417
-116.4953
-128.6133
-128.7179
-130.5974
-134.5595
-137.4554
-138.9346
-138.914
-137.8052
-136.151
-133.6115
-130.305
-126.0614
-121.4538
-116.6304
-111.1614
-105.1652
-98.57066
-91.65366
-84.3469
-76.72119
-69.14397
-61.51264
-53.54385
-45.42826
-37.48826
-29.72661
-22.0112
-14.39988
-7.033018
0.1917628
7.107735
13.68481
19.8169
25.51695
30.74595
35.5111
39.76676
43.43929
46.50634
49.07168
51.00789
52.37736
53.24559
53.51188
52.99294
51.88311
50.22235
47.98894
45.20659
41.89912
38.12697
33.81432
29.11186
24.07316
18.56579
12.75438
6.707078
0.279711
-6.280442
-12.79018
-19.43375
-26.18235
-32.86985
-39.56335
-46.10569
-52.32737
-58.18265
-63.73972
-69.09457
-73.96304
-78.31778
-82.10101
-85.31348
-88.00388
-89.91309
-90.9284
-91.05507
-90.19977
-87.98307
-84.07273
-78.79363
-74.71082
-67.96457
-78.12091
-115.4881
-112.3232
-70.08319
-40.26499
-26.91937
-14.22663
4.599645
-6.573936
-64.86302
-82.30315
-61.67446
-36.21731
-16.98685
-5.284967
2.276402
6.167019
8.757878
7.561172
3.043091
0.7447597
1.154689
2.05064
2.943
0.1708474
-7.682037
-16.68621
-22.93425
-25.69755
-26.96628
-28.84499
-31.99991
-36.57058
-42.51815
-48.78042
-54.70549
-59.86115
-64.05644
-66.64783
-67.62014
-66.97434
-64.78167
-61.33848
-57.42644
-53.995
-50.53864
-46.04741
-40.78451
-35.37543
-30.18102
-25.80559
-24.18321
-25.98048
-29.033
-34.50433
-47.60958
-66.98046
-88.33105
-105.5563
-115.703
-111.6972
-84.38829
-39.64065
-26.35491
-45.36081
-65.32769
-75.65216
-81.2038
-96.52064
-134.2935
-176.4178
-168.1552
-122.0005
-116.1699
-127.5251
-127.9386
-129.8181
-133.4886
-136.2804
-137.8553
-137.8871
-136.7973
-135.1811
-132.6695
-129.3985
-125.1742
-120.5812
-115.7926
-110.3413
-104.3765
-97.80888
-90.93053
-83.66803
-76.06042
-68.5152
-60.93126
-52.99103
-44.90873
-37.00393
-29.28517
-21.61043
-14.03072
-6.709583
0.483726
7.363366
13.90647
20.00594
25.67614
30.87437
35.61165
39.84231
43.49525
46.54014
49.0906
51.0154
52.37443
53.23614
53.49971
52.9856
51.88674
50.23923
48.02195
45.25947
41.97442
38.22818
33.93851
29.26566
24.25832
18.77793
13.00013
6.9879
0.5888046
-5.936687
-12.40599
-19.01779
-25.73549
-32.38337
-39.05538
-45.56667
-51.76269
-57.59422
-63.11469
-68.44446
-73.28288
-77.61971
-81.38565
-84.57814
-87.25258
-89.13736
-90.11811
-90.21725
-89.29044
-87.05285
-83.29508
-78.29811
-74.30854
-67.85196
-78.47595
-115.8781
-112.9638
-70.28553
-40.33607
-26.94686
-14.2034
4.755074
-7.267869
-66.3127
-83.17235
-61.79784
-36.23646
-17.04282
-5.376228
2.258031
6.178195
8.812877
7.514834
2.96018
0.6868594
1.129757
2.016169
2.881446
0.1070715
-7.7092
-16.66867
-22.89556
-25.60123
-26.85831
-28.79627
-31.97296
-36.51291
-42.41929
-48.64709
-54.56065
-59.71372
-63.92907
-66.22617
-67.19782
-66.63962
-64.52057
-61.18548
-57.31766
-53.7474
-50.18002
-45.77867
-40.70036
-35.37865
-30.12764
-25.7179
-24.07338
-25.90086
-28.99006
-34.6263
-47.79022
-67.09679
-88.38502
-105.5943
-115.965
-112.504
-86.33833
-40.475
-25.74805
-45.00467
-64.98732
-75.38236
-81.22578
-96.68405
-134.6356
-176.6412
-168.4585
-123.4119
-116.2282
-126.03
-126.7034
-128.6855
-131.9742
-134.4791
-135.8045
-135.7363
-134.586
-132.9857
-130.4911
-127.2794
-123.09
-118.5393
-113.8223
-108.4547
-102.5791
-96.09584
-89.30252
-82.1357
-74.6243
-67.16732
-59.68313
-51.85593
-43.86059
-36.04438
-28.42166
-20.841
-13.34303
-6.111789
1.003045
7.805134
14.2823
20.31483
25.92288
31.06595
35.75619
39.94567
43.56755
46.57846
49.10858
51.01837
52.36372
53.21733
53.47638
52.96715
51.88371
50.25445
48.0596
45.32632
42.0767
38.37425
34.12581
29.50992
24.56049
19.13606
13.43261
7.490406
1.154375
-5.282787
-11.66897
-18.20677
-24.83661
-31.39809
-37.98797
-44.41491
-50.51952
-56.26079
-61.7133
-66.97441
-71.73352
-76.00534
-79.70268
-82.86069
-85.50119
-87.35968
-88.33867
-88.4803
-87.73597
-85.68377
-82.1989
-77.58941
-73.85932
-68.31359
-79.86072
-115.8701
-112.8243
-70.46036
-40.43849
-26.79546
-13.82922
5.214806
-8.780999
-69.24489
-84.54573
-62.19199
-36.32552
-17.10917
-5.491972
2.238798
6.264512
8.887715
7.409397
2.796408
0.5928626
1.069324
1.947314
2.76141
-0.03290809
-7.820642
-16.67864
-22.87311
-25.49072
-26.65828
-28.66353
-31.91445
-36.44477
-42.30117
-48.46391
-54.3222
-59.41745
-63.59123
-66.07504
-67.07526
-66.44946
-64.34453
-61.05993
-57.21878
-53.53722
-49.85561
-45.51568
-40.63395
-35.42492
-30.08703
-25.62663
-23.95654
-25.78352
-28.89513
-34.82214
-48.09225
-67.32056
-88.59111
-105.8301
-116.578
-113.7819
-89.06628
-41.74308
-24.99092
-44.20833
-64.09462
-74.86122
-81.29468
-96.77295
-134.0844
-174.8131
-167.069
-125.1962
-117.2447
-124.7118
-125.3743
-127.4311
-130.4648
-132.8261
-134.2142
-134.2388
-133.0471
-131.4802
-128.9337
-125.7593
-121.5804
-117.0002
-112.3583
-106.9938
-101.1674
-94.70414
-87.96722
-80.87469
-73.3907
-65.98952
-58.59936
-50.84195
-42.89765
-35.14984
-27.61774
-20.11625
-12.67626
-5.532187
1.521278
8.252912
14.66539
20.6272
26.17895
31.26715
35.90877
40.04911
43.63688
46.61085
49.11787
51.01111
52.33979
53.18328
53.43464
52.93077
51.86984
50.2648
48.09579
45.3947
42.18136
38.525
34.31685
29.76471
24.87061
19.48938
13.86631
7.994877
1.695837
-4.664623
-10.96957
-17.45406
-24.02276
-30.50304
-37.04957
-43.42409
-49.47496
-55.16964
-60.57236
-65.81274
-70.52977
-74.79408
-78.47815
-81.62718
-84.31471
-86.13292
-87.11607
-87.24886
-86.40303
-84.40149
-81.10176
-76.81952
-73.48149
-69.46448
-80.91507
-113.1374
-109.886
-69.81082
-40.49263
-26.46243
-13.14328
5.634678
-11.15237
-73.55367
-86.74906
-62.95274
-36.4766
-17.10473
-5.603392
2.261973
6.481472
9.002101
7.235465
2.55231
0.3999161
0.9480183
1.810342
2.564198
-0.292949
-8.069546
-16.78313
-22.90178
-25.38962
-26.38354
-28.42564
-31.80316
-36.36387
-42.18519
-48.28761
-54.11104
-59.16954
-63.37136
-65.74798
-66.71062
-66.15776
-64.09382
-60.8928
-57.10928
-53.36377
-49.60116
-45.31073
-40.64114
-35.60026
-30.16575
-25.61272
-23.86447
-25.58976
-28.69125
-35.05038
-48.46085
-67.61517
-88.95327
-106.3544
-117.6803
-115.7019
-92.61696
-43.76773
-24.68663
-43.35123
-62.89025
-74.14314
-81.35732
-96.45096
-131.184
-167.5528
-161.1885
-125.8221
-118.3175
-123.2655
-123.7939
-125.7109
-128.3673
-130.4013
-131.5615
-131.4145
-130.0734
-128.566
-126.1646
-123.1278
-118.9998
-114.4551
-109.9815
-104.7061
-99.01836
-92.65334
-86.01447
-79.04146
-71.64551
-64.36808
-57.12208
-49.46724
-41.61596
-33.9917
-26.57545
-19.18414
-11.82783
-4.809538
2.163547
8.793461
15.10496
20.98823
26.48374
31.50243
36.07982
40.15062
43.70654
46.6356
49.11018
50.98795
52.29537
53.12573
53.36536
52.87297
51.83525
50.26227
48.12602
45.46476
42.29736
38.69141
34.52453
30.06359
25.24628
19.90024
14.3734
8.626374
2.381539
-3.888553
-10.06855
-16.45737
-22.94353
-29.31436
-35.76582
-42.04245
-47.99359
-53.57434
-58.88383
-64.05937
-68.65853
-72.84758
-76.42626
-79.48861
-82.07894
-83.84132
-84.75729
-84.98184
-84.37357
-82.57984
-79.59331
-75.76977
-72.8869
-70.4245
-80.18018
-105.7685
-102.6042
-67.90455
-40.51647
-26.21967
-12.72832
5.330072
-14.65845
-79.27641
-89.92228
-64.26223
-36.78192
-17.0075
-5.662112
2.364456
6.913412
9.203803
7.002628
2.202283
0.0780905
0.7304186
1.529853
2.228579
-0.7087522
-8.486283
-17.01193
-23.01359
-25.31083
-26.05404
-28.07814
-31.61742
-36.25426
-42.06509
-48.09839
-53.89652
-58.91267
-63.12557
-65.48381
-66.48284
-65.94784
-63.90012
-60.77632
-57.03641
-53.22114
-49.38927
-45.10807
-40.64919
-35.85599
-30.42265
-25.78002
-23.83021
-25.26255
-28.31198
-35.16823
-48.65187
-67.79244
-89.33027
-107.2012
-119.4406
-118.5109
-97.11577
-47.27818
-25.73686
-43.23749
-61.86297
-73.41736
-81.32053
-95.77519
-126.4178
-155.8632
-151.4746
-124.7077
-118.6104
-121.605
-122.1341
-123.8849
-126.2712
-128.0792
-129.2061
-129.2636
-127.7951
-126.447
-123.701
-120.7275
-116.6127
-112.0101
-107.6746
-102.3947
-96.84938
-90.51384
-83.89938
-77.07976
-69.8248
-62.62109
-55.44604
-47.94938
-40.24756
-32.71296
-25.34915
-18.15592
-10.87668
-4.010732
2.883371
9.370317
15.58345
21.45671
26.83441
31.748
36.23652
40.24288
43.82132
46.65154
49.08503
50.94852
52.22513
53.03955
53.26872
52.79341
51.7521
50.20912
48.11558
45.50778
42.41962
38.88194
34.73639
30.3725
25.68122
20.41197
14.92532
9.278085
3.186426
-3.007578
-9.095353
-15.36684
-21.69234
-28.0254
-34.40176
-40.52386
-46.41394
-51.86893
-57.09636
-62.25085
-66.74453
-70.92504
-74.43475
-77.51465
-80.21136
-81.97013
-83.01173
-83.17209
-82.51554
-80.82154
-78.07488
-74.68011
-72.12558
-70.76769
-78.17214
-96.90099
-94.10294
-65.47298
-40.69206
-26.23662
-13.02237
3.35354
-19.8588
-86.12647
-94.35836
-66.19398
-37.46954
-17.0876
-5.557076
2.594301
7.618635
9.519221
6.706303
1.698471
-0.4304794
0.3639243
1.089946
1.610121
-1.261201
-9.029276
-17.4037
-23.2331
-25.24916
-25.68018
-27.62094
-31.35624
-36.12264
-41.97883
-47.9176
-53.66268
-58.65618
-62.93697
-65.26873
-66.24236
-65.7587
-63.7209
-60.63777
-56.9701
-53.12449
-49.22653
-44.96088
-40.63107
-36.14975
-30.7829
-26.09412
-23.86125
-24.77756
-27.70726
-34.97005
-48.40612
-67.68497
-89.86178
-108.4014
-121.98
-122.6139
-102.6719
-53.30088
-28.48599
-44.63409
-61.25513
-72.60642
-81.07114
-95.20744
-121.0527
-144.1847
-141.8038
-122.6842
-117.8968
-119.5663
-119.9778
-121.3042
-123.3544
-124.8146
-125.6477
-125.7672
-123.8959
-122.59
-120.2322
-117.3855
-113.5749
-108.6561
-104.5776
-99.46739
-94.14199
-87.76893
-81.25333
-74.8614
-67.79852
-60.30599
-53.34248
-46.306
-38.78875
-31.04435
-23.83085
-17.09729
-9.782505
-3.159297
3.703755
9.920923
16.2496
22.11533
27.18891
31.96342
36.33359
40.34383
43.97114
46.60957
49.05635
50.88359
52.12141
52.92547
53.15324
52.65464
51.62291
50.08971
48.04698
45.49675
42.49853
39.12679
34.969
30.67763
26.14458
21.15001
15.70702
9.848734
4.039765
-1.839589
-8.043413
-14.24102
-20.149
-26.34915
-32.98196
-38.68359
-44.57885
-49.87067
-54.93285
-60.08496
-64.34848
-68.56341
-71.84108
-74.80881
-77.51633
-79.10266
-79.94244
-80.19037
-79.87469
-78.42989
-76.01997
-73.14733
-70.95899
-70.43463
-75.97901
-88.8866
-85.86546
-62.48006
-41.50013
-26.75412
-14.49394
-0.7133925
-26.95676
-93.08984
-100.6935
-67.8815
-38.19585
-17.40077
-5.245553
3.206127
8.488343
9.891764
6.323062
0.9922366
-1.283393
-0.4061772
0.7852763
0.6085135
-2.03715
-9.980914
-18.13023
-23.75723
-25.24138
-25.25594
-27.08183
-31.07446
-35.98904
-41.96053
-47.83804
-53.41209
-58.31839
-62.8336
4.167321
3.312711
-50.10832
-4.272842
9.890439
-4.088441
2.404273
-0.1491061
6.113587
1.439164
-3.303031
-0.3013996
1.83031
2.146221
2.275584
2.21916
-10.29368
1.430008
0.7956384
-0.7299428
-32.49208
0.9706337
1.506526
1.486823
2.419906
2.973186
-2.690984
1.984907
-1.123749
1.900889
0.8760725
-33.73203
1.940081
2.635469
1.139751
0.6613446
-4.454887
0.4272921
3.182028
0.2500852
-9.106125
3.725586
3.349114
6.523926
27.88572
2.455781
3.753303
2.647107
-19.81928
1.672136
-21.98696
-2.519334
-9.937286
0.8966102
0.411523
16.48022
6.622253
0.2335352
-3.846023
0.1465713
2.216838
0.05264622
-54.63843
1.456638
-8.40546
2.944221
-45.18773
0.7182116
2.786572
2.893966
2.103091
4.385549
-3.486429
-15.93839
24.08647
1.189293
5.439876
2.15067
2.152947
1.024507
1.507403
0.4321502
3.413431
1.792167
0.1818074
2.571157
2.172263
-0.8802125
-30.7052
-0.3360354
-4.226142
27.89466
-11.92773
1.550798
2.288421
-0.03484473
-5.938474
8.152489
-75.34445
2.234182
-0.001891725
-0.757307
1.016827
-57.00395
0.248219
-27.51834
2.220414
2.327609
-8.913174
-0.0617128
-0.8418036
5.361321
8.017497
9.143414
-32.96107
-0.650104
0.6622994
2.116694
27.54292
2.288072
1.642729
0.685833
2.433531
-1.878553
-1.205441
-14.91073
2.179486
-60.80809
1.605045
2.904041
0.4344568
-7.702236
1.070324
2.375307
1.823258
1.300211
0.2711939
2.380087
0.2860687
0.7598887
-58.39413
3.139188
-39.91225
3.380995
0.4115323
2.782005
-1.416001
-26.57925
1.178789
2.120498
3.658372
-29.47418
-64.53977
2.73797
-31.922
-78.84075
1.919563
1.445182
1.024116
-4.737563
1.160612
-7.58154
-8.780711
-2.494087
2.496328
-1.070691
-9.148672
3.457228
-46.14063
-0.01506627
2.48891
-15.34667
1.433375
-64.97762
-1.540538
-9.391844
1.66689
2.343964
-82.52668
-5.595949
15.04763
-0.7687994
2.300138
2.248479
7.658449
-26.85235
2.618628
1.115117
-12.97919
1.06411
2.208827
0.2208297
2.069599
0.7955529
-0.5241428
2.306258
3.025444
3.44239
5.093667
-16.60835
-1.086952
-2.465666
3.680996
-8.810788
0.2643681
-1.482491
-0.2874363
2.801386
-1.589263
-1.339646
1.75389
-4.873998
-9.319172
-5.052003
1.233189
-14.94526
-3.304094
-0.533942
15.435
0.8721416
1.910963
-8.117644
2.959809
-20.09932
0.4101482
-3.221103
2.715681
9.517814
0.5464201
15.94219
-7.190541
-57.3067
0.5347222
0.5630608
-30.88487
1.978009
21.04474
1.527961
3.902206
3.493613
2.34013
0.9118371
0.7324803
-17.92749
0.5649257
-6.461489
2.520021
-61.44041
0.9469001
3.803534
-13.02678
3.325684
-1.456079
-0.539637
3.550131
-8.040344
3.800953
0.6531681
-19.88143
-1.22609
-11.97081
0.3765084
-21.13183
-4.156915
2.388076
1.953218
2.344959
1.102754
-3.74489
-11.58786
1.065298
1.058086
13.24195
1.747462
-8.872632
3.386817
1.107919
-42.73202
-65.45217
2.242895
2.716323
3.322228
2.837853
1.267291
2.179349
1.592127
41.25782
2.186354
1.631258
3.121848
-0.736405
0.4881
2.347134
2.62093
-53.71144
1.150415
-7.868721
1.090306
2.341383
3.25456
-22.60004
2.761464
2.409054
-36.05665
3.083015
0.5213834
3.381362
2.447427
2.712729
-12.3868
3.684367
-2.513136
2.42525
2.308344
2.678692
-3.160086
35.0781
-29.21877
-52.07263
-92.66144
2.989521
-5.322511
-2.161602
-6.575763
0.2026861
4.319985
1.978472
1.607886
2.393819
1.693003
21.08772
3.908179
-0.7623854
-79.23136
2.699784
1.205983
2.703793
-4.086866
4.209097
-0.8589965
-65.11315
8.900791
3.991333
-1.30255
-4.018567
6.990968
0.2318995
2.181142
-2.65026
0.4622476
1.49602
-9.138352
12.46804
1.064376
4.807536
-64.44421
-32.85024
-8.576296
1.287265
3.18057
2.67986
-4.333028
-5.016648
2.597509
-0.4494461
1.627988
0.7455479
2.568457
0.6614017
0.6760102
2.151757
11.54407
-19.7163
2.325619
1.801503
3.398031
0.5886262
1.634981
2.968068
-0.1780604
2.36297
1.089507
0.3751905
-22.20171
0.3074068
2.562397
2.463937
43.1173
2.752415
0.1096945
-25.32349
2.281167
4.86576
-72.84601
0.3611609
1.984977
3.811634
-3.575874
1.851115
2.31704
2.122553
-0.8973816
-12.58851
-8.128943
-2.080911
-7.91994
-52.98845
-32.56432
0.8231227
1.506235
1.091773
0.6560275
-0.5552925
0.004771876
1.790941
2.091389
5.535594
-28.95753
1.051772
-56.95273
-0.9142721
1.215125
3.187384
2.333751
2.178514
-10.67157
1.260133
-0.1662833
-23.74514
0.3249954
-13.78025
-5.913516
-2.531671
1.2896
1.884226
2.427885
1.724804
0.05761359
1.153876
-0.6672314
2.365547
1.570886
0.9433137
2.140676
1.426713
1.824727
1.07287
5.301912
-3.764362
2.462717
-0.3210274
-58.34697
2.371993
-17.28977
2.34053
-5.884695
4.548928
4.857358
1.815651
-7.498423
2.475753
-53.01726
-1.820969
2.482735
1.84232
2.497399
31.14879
2.129719
2.524139
2.037772
-2.758332
0.9748231
1.325429
7.982995
-6.296389
-18.26486
-17.20723
-52.14846
-4.682061
2.27104
-21.61643
1.793168
1.855889
2.29775
2.221484
2.540007
5.860655
16.53928
1.167166
0.5198904
2.726228
-10.90841
-3.814808
0.9076624
-7.271889
0.6700815
1.423285
5.218242
2.687826
4.390402
0.5696213
2.335937
1.922825
0.6388977
3.872127
1.746122
-0.2449798
-0.233208
-21.69264
-1.055681
-5.690535
-0.8013525
8.154836
2.707638
2.492651
1.595993
1.628209
2.722128
-1.323418
1.041181
0.8026741
1.828058
-3.733551
-5.731274
2.561189
1.072608
0.9327477
-0.8768117
1.164402
1.670517
-12.85683
-6.806565
-3.096315
0.6002599
4.737913
5.942864
4.608383
1.196545
2.347514
0.7051999
6.468728
1.899607
3.591224
3.177117
-76.89952
2.663735
5.476987
-2.940238
1.238366
10.59797
1.668494
14.52289
-23.43964
0.4797572
-4.974689
0.6921432
-1.015988
2.728874
16.32926
-14.29254
1.66228
2.058822
1.850053
3.581973
0.7299188
1.908791
0.3253032
1.56259
27.00723
-2.190619
1.568732
0.7913476
1.579852
-40.44476
1.108585
3.075668
2.559661
2.11075
2.496693
2.670444
-0.9706999
2.77786
6.174964
0.2879322
-1.279294
-9.939198
1.51914
1.009667
-51.12945
1.581115
1.27057
-32.78188
3.396169
1.03738
1.823425
1.148232
0.7027259
-79.74776
1.645776
2.038756
1.720002
0.5400849
3.322361
1.118523
3.44621
-28.96873
-14.5272
2.335265
-31.59713
2.357327
6.772818
2.411588
-29.84058
1.594038
8.776799
-4.652783
2.314215
-4.447335
-6.163429
3.283259
10.30706
-2.86969
0.4258147
1.792279
2.523583
18.61277
3.84082
2.075888
2.458011
1.23318
5.367451
-8.205917
-4.277438
-29.21411
-7.475239
-0.1574696
-4.117473
-0.2546368
2.837628
2.510419
1.647123
-3.919599
0.1716033
-9.624786
2.82531
3.94469
2.563039
3.971092
2.842689
26.01478
3.981321
-44.15939
-4.244561
1.477141
8.318022
1.729317
-37.52721
0.8719923
0.1507659
-29.6696
-1.503275
-1.582746
3.15695
1.984673
2.423363
0.2003624
-11.11539
0.4591117
4.389841
-6.582988
1.537812
0.6577552
-51.1023
1.87858
1.146413
-0.7071272
-26.40467
2.923437
3.041183
12.99036
16.46762
18.2371
2.964787
-5.859339
2.252011
-1.273746
2.257904
2.369901
3.285144
1.829398
-32.2742
5.23813
-45.61227
1.434006
2.723136
2.598192
-4.153769
3.784258
-0.1549494
-1.784788
1.462481
0.6721426
-8.414394
-7.567517
6.029053
-42.19842
0.9242061
1.358697
-31.84709
-5.364991
3.621821
3.176229
1.934958
0.7736123
-8.113127
2.21183
0.3162902
-13.09196
2.50662
-2.465504
1.332962
1.000454
2.219203
1.496592
2.80781
-0.6219802
2.326828
-12.82549
2.00378
1.559161
-0.4764085
-0.06431337
1.184325
2.346579
2.565198
4.999406
2.601905
2.905419
-22.87371
-0.7013793
0.4617568
0.06499521
0.525171
2.143626
8.139853
2.585859
-32.62297
2.407992
-7.098179
5.181921
2.876988
-23.40846
-3.336495
-11.16633
1.695941
-72.32483
0.3967373
-15.81909
-25.46419
1.475569
1.196838
-2.537958
1.491889
16.46478
4.53174
2.63633
-13.97895
2.12744
0.5104183
1.223038
0.442006
22.58773
-10.7045
0.05189336
1.923988
-0.7091231
2.066149
1.528638
-5.219005
2.70719
1.669048
3.19285
1.667854
-5.795718
10.46206
0.3393749
-0.2528189
-10.52241
2.264265
2.205332
2.135981
-2.265148
31.60252
-12.8546
1.214789
2.308855
2.376083
2.131475
1.623473
-75.57476
2.265605
-32.26002
-11.88381
1.979068
-6.045687
1.152868
-12.72322
3.18956
-1.126212
0.7804959
1.8977
-15.06674
-70.26316
1.214311
2.498162
-2.556669
1.718365
2.021215
1.564932
-10.51472
0.6709205
13.27672
0.355371
2.302448
2.158502
2.298203
3.967191
-1.832939
0.5794176
-0.9735913
-31.87041
2.382779
10.21114
-5.945111
2.823134
5.498289
-18.80694
0.689614
2.260476
1.763429
-3.022088
-2.081532
2.987714
2.098294
1.0909
0.9891479
4.036611
1.911728
-7.400377
35.15796
2.178955
0.8397672
1.80267
-90.76915
-0.3582394
1.710912
4.05219
0.08828225
36.41356
2.063002
2.509916
-0.3466059
2.308352
-11.2962
0.4552699
1.221368
1.373814
-31.96278
-5.254723
1.146011
-4.05334
-44.81685
1.371289
3.386372
0.8387819
-3.880181
5.460364
34.69314
3.540658
0.3799451
2.71263
-5.13909
-2.509178
7.034984
1.995588
1.337305
2.689203
2.08249
0.1163256
1.261344
0.321792
-11.44331
-9.336231
-37.97964
3.02841
8.464341
1.789659
0.4344226
2.97776
-1.871466
-17.40204
-7.371887
3.080632
15.30592
4.186698
4.096022
2.274892
2.302423
-16.42962
24.12709
-2.694311
0.8651992
-5.458938
-0.9730949
0.9832914
1.127451
1.017734
3.562419
2.881805
-44.56795
-6.530034
3.605889
-8.485559
2.281141
0.4720301
-36.29662
-29.91929
-62.90611
2.769299
-23.79771
3.439838
1.841826
-25.57779
2.325792
2.682118
-10.75514
0.06769464
1.056969
2.346075
1.605229
2.279443
-36.68274
-37.79008
1.321069
14.04456
3.413833
1.680748
-31.46861
25.29243
-22.49639
0.3776648
2.278775
1.393327
-5.393475
1.158589
-2.955022
1.751671
2.386738
-1.545262
-30.67176
-31.50929
2.482351
4.02447
2.922949
1.642764
0.1157444
3.481869
1.265937
1.010261
0.5573822
0.6093259
0.8428313
-4.49941
1.476911
-2.306547
3.749374
2.558735
-16.84004
3.47283
2.230633
-3.779861
-10.87934
6.547951
1.362889
1.551141
-19.37657
-52.1272
32.64445
47.72003
4.694276
-0.4234917
-2.345031
5.489367
3.413806
0.8215952
14.7813
-16.51607
3.875575
2.426154
2.425103
3.113973
2.367515
1.050775
5.0162
-31.72949
-39.75577
3.363189
1.573697
2.501163
3.759522
1.826284
-31.3574
0.7379872
1.557583
2.392107
-1.747841
3.088543
2.770177
-53.47564
-33.41355
3.442885
2.198962
2.888811
4.245689
-9.887517
3.536343
0.7210598
-34.29897
3.376031
-18.3061
4.301341
3.368876
2.814102
-36.51296
-68.42121
-1.158564
1.794831
2.708307
1.013195
-2.387122
-9.394139
1.601056
2.37244
2.285851
1.469037
1.284284
2.004984
2.958051
2.730364
-0.3618537
0.9606579
0.8872203
-1.416
-1.909212
0.9571339
0.3118392
-4.064262
-0.6593035
1.119809
3.833803
0.09262284
0.5892521
6.747549
0.3606323
-3.522102
-43.08151
-29.41474
2.161288
2.349371
0.7798231
2.147317
-14.07967
-2.744156
-26.85575
-17.44009
25.64853
2.684617
5.436949
-30.76609
-8.402493
0.4987085
4.581514
-61.96529
-16.2456
3.976781
-22.19845
3.268978
3.748516
-0.6246784
2.629953
-23.67736
2.295224
-53.09478
1.222588
-19.36292
39.88755
-3.870594
-0.1976069
1.577409
1.874311
3.235909
9.244315
2.190852
9.778601
-1.947474
2.802587
-12.84453
2.950984
1.690223
1.290547
-27.62372
0.5085599
-66.34561
8.634106
1.237632
10.04228
2.501408
33.963
-5.008108
-0.7808023
2.584166
-1.732018
18.59039
-18.67154
-104.8317
2.374327
1.007104
2.23521
2.282538
-1.19991
-14.61374
-3.888656
1.232397
-45.34473
4.341959
25.11783
-75.0304
4.53089
-35.80157
-22.28538
-6.817005
-58.20044
42.00216
6.013333
2.513346
-22.33683
2.8086
2.148653
-2.765229
3.7196
-27.16131
-45.15294
-7.302266
3.618625
1.779926
2.736307
1.175503
2.873906
0.5236203
1.410735
2.705752
1.290774
0.6207227
1.164124
-3.864788
-9.802449
0.3972531
-0.03582517
0.3236755
-57.32519
0.2208597
0.2828848
1.035093
5.033439
-51.6426
3.445073
2.470038
1.389345
0.6983242
3.069513
-10.61988
1.081565
2.020411
-47.52305
32.3537
2.45547
0.220184
3.172679
1.73375
2.393053
2.254287
2.08804
2.165124
3.168116
-31.27247
0.810849
-5.749792
1.017273
-4.794608
5.741691
2.878895
1.702746
2.197411
-10.7529
-9.520071
-66.28659
-8.422513
1.476516
-6.692836
1.490625
5.424897
2.291457
-37.03012
0.5208211
2.213339
1.234459
-13.22136
1.036639
-1.144615
4.656055
-73.70101
1.459298
3.54843
2.346092
-85.20199
2.695208
-19.58938
2.307499
2.42463
2.255361
2.190192
2.40146
-18.53985
-9.868776
1.019552
1.041154
-31.55679
0.6056566
2.667731
3.062707
5.339909
-1.859086
1.787952
1.069504
-66.27246
-16.36322
-14.67022
2.268976
2.840085
1.57827
3.130111
2.601774
2.339483
-15.16811
2.06007
1.846498
14.94171
2.674333
-3.41489
2.292861
2.667627
1.694823
-33.32752
-0.3828138
-1.67531
0.2117024
-6.804216
-17.13533
-20.99892
2.299738
-33.38412
0.7200401
-3.843556
1.090595
-0.5375406
17.94832
0.6052729
-9.002128
-53.33742
-0.2756073
-2.791517
2.815494
-1.282434
-3.000407
-1.120252
-0.7325988
0.1340149
0.501421
-5.066151
1.384966
2.613301
0.5453832
1.945897
2.561021
2.340914
-6.49421
2.558801
3.927524
4.421176
-1.019807
1.769083
-0.8154602
2.135002
21.11689
1.144604
-4.633913
2.718181
2.909946
-3.172623
11.58565
-8.772478
3.081476
4.797634
0.8370223
10.59616
-34.72987
-24.06224
1.750169
2.856234
16.11258
3.41258
1.441677
1.262505
-3.364177
0.04748763
-61.0214
-15.90657
-8.232933
17.80352
13.49726
2.364495
-23.93265
-28.85534
-46.39205
3.244675
-6.902273
-1.824016
2.109067
1.192881
0.983697
1.057364
1.04105
1.569902
2.246592
1.774145
1.055389
-14.12936
1.156445
-0.2371991
3.027732
-22.6011
21.45543
0.6984039
-58.36116
-21.16069
-15.96583
15.367
6.87121
-10.42612
-4.188218
-38.49744
0.9612226
-44.23678
3.337302
-63.0648
-29.43089
0.8421385
2.465221
-8.985724
2.148296
16.18761
0.8270266
1.812194
2.842522
1.378994
-0.4896441
1.210075
2.203135
0.1512578
2.172416
-14.51871
1.906538
2.303591
-3.380741
2.18371
1.981434
3.821547
-2.153852
-53.19978
-1.230365
1.16554
30.01671
1.309242
3.311557
-37.6541
-2.193385
-5.564794
1.513644
1.9959
2.362324
2.345609
-7.194036
-2.011503
1.831795
9.588846
0.9413912
2.431424
2.377712
16.83861
5.261222
-24.40314
12.81984
-13.93146
2.206537
-56.43997
2.31437
1.46809
3.158447
2.963944
-13.16932
-35.22215
-34.41707
-53.09483
0.1836917
-5.378613
-2.149881
1.131987
-27.38331
2.30009
3.915695
-13.92258
-20.68014
4.028209
-87.48491
3.254087
-7.770021
0.859729
-16.74652
12.20572
2.104319
-0.8732363
2.213372
2.148796
1.980489
20.52833
-1.126213
-19.07236
2.006725
2.5219
1.070696
1.669501
-2.011845
2.850335
2.63718
2.591976
0.6536454
0.7902814
-16.90694
2.513034
5.962558
-1.427424
0.4805904
1.27235
1.264899
0.6144359
0.1910865
1.018157
-49.63256
29.84784
-10.63849
0.6243104
-0.4095123
-15.03765
1.513032
0.4115833
-4.825081
2.707996
1.998777
3.127123
-0.1971453
-41.33053
2.640527
22.61673
32.19642
4.187612
-3.536106
0.3237605
1.96056
3.550895
-7.962681
33.61438
-28.39907
3.253343
-1.892035
2.579643
-12.57092
2.859443
-0.896321
1.745191
4.046546
2.343399
-17.8259
2.29927
1.610844
2.773735
-31.69788
-3.64865
1.482842
0.5451136
-53.58788
34.70266
-15.94211
2.673788
-13.4246
-6.576157
1.000479
1.515891
34.07296
3.690767
-5.42942
-14.94456
-0.5946716
0.9317611
-17.44827
2.268108
-1.794471
1.328238
1.532707
21.66421
-11.35162
3.371828
0.5038106
3.646682
-13.74285
23.02454
4.697393
12.3726
-67.13516
-52.43332
1.006483
0.8357938
-37.51708
2.890381
-15.73453
-6.762655
-1.114081
5.874065
-0.2993288
-12.28116
-3.687441
10.67384
-26.27194
-12.4592
1.872303
1.336278
-2.781604
-33.19792
-7.147829
3.392132
3.833402
0.2179182
1.840127
2.311397
1.138351
2.393647
4.029264
-14.58036
-6.264964
1.844973
1.560497
10.04037
1.339014
1.876345
-1.573757
5.386789
-1.05351
0.7469803
38.90663
2.079102
2.25164
0.2976384
0.7427809
-6.604264
-32.78998
-48.83009
13.3483
3.928491
1.826973
2.291615
2.313435
0.8664773
3.511032
1.165285
2.369362
3.328351
3.436003
2.473525
-0.4116547
13.82336
11.01001
-2.486243
2.798404
2.526605
2.434401
2.709503
-22.74463
2.994463
-30.59201
-8.385019
1.341906
2.702256
-49.68484
43.03094
-61.4064
1.400501
3.949687
5.238211
-26.20155
9.064815
-10.14198
1.661744
4.604197
2.464133
5.527991
2.322062
2.165208
3.337741
-46.23512
-0.5081953
0.5144086
1.761435
2.342006
-56.44593
-44.87565
-47.19912
0.952547
15.31232
2.765823
2.02273
2.437003
3.72229
-6.959123
1.168469
4.689252
28.33841
2.584273
2.394084
2.559328
23.65741
-1.133358
1.628764
4.421776
-2.256087
1.381275
1.403758
-92.86551
1.142195
-75.94878
2.647259
0.2383399
47.53564
-3.345056
1.52891
2.703546
5.693551
-1.93798
2.106051
-37.10816
46.59952
5.201364
-4.641548
47.34435
4.139243
1.007759
1.384574
-8.880946
0.07369467
5.293463
2.736587
6.290971
-16.91602
-22.29125
2.366276
2.382994
1.752278
2.322235
13.86266
0.1132412
2.274076
2.414049
2.094176
2.113685
2.52107
2.322113
1.049728
0.9427274
1.806285
-36.93595
-55.32254
-60.85624
-39.76697
-40.23052
3.537547
-5.964352
3.527581
1.198026
5.100186
-22.75225
-11.77364
29.1767
-7.927757
3.423852
-25.68984
2.170368
-2.738757
-19.50389
-4.377154
4.05959
-96.19307
1.741791
2.174903
-1.411019
4.127208
1.6028
1.506216
1.031648
3.425622
0.619203
2.492483
4.283804
5.826237
2.716045
-1.64132
0.1327192
-5.09513
-3.582285
0.840528
0.7612885
1.099876
-3.679246
-47.97181
3.17092
3.144645
1.436938
0.370877
8.207886
16.15717
1.379797
0.5664715
2.217137
-1.460412
-30.34959
-36.15408
1.544013
-15.65034
-10.99605
-4.063059
7.88996
-0.4364271
-8.201428
-0.05515986
1.309943
0.1229492
-8.572718
-1.34574
-6.265412
-1.232852
29.83006
0.8251594
-14.86018
0.6424748
0.07250612
0.02257636
-60.31949
1.270896
1.822669
-12.72704
1.651858
2.70245
-3.13469
4.396815
2.822996
7.065715
-0.8785333
-62.04838
0.1239199
39.71315
3.144182
8.276778
-0.2044517
-0.9121668
1.22812
1.201016
0.68362
16.38345
2.285571
2.057451
2.494823
3.451268
-0.9128956
-2.778857
-10.83805
-28.90375
0.8557506