/*--------------------------------*- C++ -*----------------------------------*\
| =========                 |                                                 |
| \\      /  F ield         | OpenFOAM: The Open Source CFD Toolbox           |
|  \\    /   O peration     | Version:  2406                                  |
|   \\  /    A nd           | Website:  www.openfoam.com                      |
|    \\/     M anipulation  |                                                 |
\*---------------------------------------------------------------------------*/
FoamFile
{
    version     2.0;
    format      ascii;
    arch        "LSB;label=32;scalar=64";
    class       volScalarField;
    location    "0.66";
    object      p;
}
// * * * * * * * * * * * * * * * * * * * * * * * * * * * * * * * * * * * * * //

dimensions      [0 2 -2 0 0 0 0];

internalField   nonuniform List<scalar> 
217010
(
-69.88169
-31.54151
-38.78121
-38.87548
-34.9151
-32.85942
-33.34622
-33.02381
-33.35065
-33.54842
-33.56362
-33.74068
-34.15294
-34.55713
-35.00294
-35.69529
-37.05405
-38.97832
-40.21434
-40.2517
-39.35684
-38.92591
-38.98919
-38.23672
-37.47457
-37.65794
-37.9532
-38.2496
-38.3541
-38.48192
-38.8091
-39.68742
-41.59425
-45.31446
-50.12078
-52.9523
-51.95838
-51.26055
-52.68314
-54.94529
-57.35757
-59.70005
-62.06719
-64.75117
-68.44729
-75.48168
-85.98628
-100.6362
-105.2061
-115.9606
-51.43624
-51.27546
-44.82019
-42.08414
-39.91821
-38.13844
-36.48627
-35.01973
-33.68002
-32.41958
-31.20769
-30.0551
-28.95991
-27.86378
-26.78529
-25.73709
-24.68812
-23.62824
-22.57585
-21.53896
-20.5155
-19.52136
-18.58602
-17.70561
-16.89629
-16.1916
-15.55107
-14.93435
-14.36018
-13.82678
-13.36906
-13.01512
-12.75104
-12.60419
-12.60175
-12.74066
-13.00712
-13.40714
-13.91095
-14.53003
-15.25299
-16.0633
-16.94347
-17.91352
-18.97666
-20.10517
-21.28717
-22.52341
-23.8359
-25.21353
-26.63499
-28.10965
-29.60999
-31.15118
-32.70322
-34.29571
-35.91724
-37.51366
-39.11334
-40.72903
-42.34362
-43.92698
-45.46785
-47.00377
-48.51088
-49.96824
-51.41117
-52.8843
-54.24326
-55.54238
-56.80396
-58.00469
-59.15169
-60.25332
-61.28393
-62.20594
-63.03818
-63.81287
-64.50378
-65.09086
-65.58785
-66.00743
-66.34471
-66.58883
-66.7469
-66.82256
-66.81329
-66.72222
-66.54948
-66.30426
-65.99494
-65.62935
-65.21588
-64.77011
-64.33137
-63.92869
-63.72897
-63.79115
-64.74367
-62.34722
-76.16089
-66.45676
-68.46214
-64.56018
-68.59657
-74.69987
-75.31919
-71.01944
-62.55248
-52.89338
-45.0382
-40.65066
-39.54638
-40.32366
-43.16285
-44.74741
-45.3026
-45.70676
-46.21785
-46.73752
-47.03098
-47.14546
-46.84933
-46.34319
-45.86034
-45.39856
-45.02706
-45.26181
-46.41512
-47.33568
-47.94529
-49.2898
-50.72758
-51.17214
-50.67528
-49.59135
-47.99774
-46.01519
-45.7512
-46.14798
-46.06743
-45.32105
-44.23555
-43.73163
-44.08818
-44.44741
-43.56474
-47.31273
-43.78267
-83.03944
-34.05509
-30.60412
-23.91969
-20.12199
-16.65696
-13.74644
-11.17046
-8.770876
-6.677555
-4.720558
-2.917038
-1.243308
0.3553384
1.88094
3.324782
4.677716
5.960036
7.204708
8.404175
9.559181
10.67456
11.74196
12.76138
13.76958
14.76117
15.73668
16.67528
17.57164
18.44237
19.30455
20.16166
21.00829
21.81819
22.60775
23.39532
24.17091
24.94246
25.70951
26.48156
27.21766
27.9825
28.70879
29.4337
30.14971
30.86444
31.56849
32.264
32.96351
33.67715
34.39036
35.09112
35.78217
36.47396
37.188
37.91403
38.63319
39.35528
40.08831
40.82658
41.57666
42.33023
43.08685
43.88127
44.73788
45.59863
46.45255
47.39583
48.46414
49.47595
50.09975
50.89506
55.66792
53.91536
52.88701
51.88138
50.87149
49.90732
48.96537
48.0753
47.274
46.51304
45.7103
44.89029
44.09557
43.3436
42.61213
41.88131
41.14289
40.40807
39.69817
38.99854
38.28902
37.58165
36.88621
36.18286
35.48723
34.78257
34.05531
33.34182
32.64863
31.9543
31.24421
30.50041
29.79172
29.05856
28.31186
27.56753
26.82295
26.05456
25.27761
24.50469
23.72124
22.90458
22.05407
21.20614
20.37061
19.51181
18.61624
17.70129
16.75516
15.77879
14.78218
13.75796
12.72942
11.64436
10.49843
9.321168
8.0864
6.80689
5.447139
3.994275
2.470575
0.8638654
-0.897323
-2.798002
-4.947425
-7.257451
-9.853554
-12.98038
-16.35347
-22.30856
-24.96154
55.58346
54.07824
53.01202
52.0045
50.99145
50.01798
49.06753
48.16724
47.35621
46.59067
45.78645
44.96328
44.16302
43.40557
42.67026
41.93667
41.19564
40.45751
39.74435
39.04202
38.3303
37.6206
36.92291
36.21742
35.52012
34.81385
34.08464
33.36923
32.67399
31.97806
31.26646
30.52036
29.81214
29.07627
28.32809
27.58247
26.83668
26.06695
25.28884
24.51466
23.73013
22.91205
22.06011
21.21101
20.37452
19.51426
18.61744
17.70148
16.75383
15.77569
14.77731
13.75127
12.7217
11.63366
10.48513
9.305614
8.067525
6.785462
5.421223
3.963588
2.435955
0.8242969
-0.9427049
-2.85018
-5.016772
-7.336656
-9.95094
-13.09591
-16.54082
-22.43657
-26.02324
-35.17363
-30.75956
-24.13153
-20.25192
-16.76709
-13.83519
-11.24812
-8.828261
-6.727526
-4.765438
-2.955099
-1.276742
0.3262137
1.85622
3.304417
4.661044
5.945676
7.192891
8.394961
9.552195
10.66959
11.73924
12.75996
13.76941
14.76232
15.7393
16.67946
17.57698
18.4489
19.31233
20.17074
21.01871
21.82993
22.62054
23.40947
24.18629
24.95933
25.72795
26.50241
27.23846
28.00544
28.73312
29.45977
30.17737
30.89362
31.59929
32.29666
32.99838
33.7142
34.42929
35.13171
35.82492
36.51963
37.23674
37.96556
38.68736
39.41258
40.14903
40.89104
41.64468
42.40209
43.16467
43.96701
44.8298
45.69531
46.55946
47.51905
48.5929
49.5738
50.20613
51.32663
-75.34835
-66.82977
-68.57715
-64.57774
-68.05706
-74.61721
-75.70153
-71.70161
-63.32026
-53.53923
-45.43661
-40.8102
-39.56254
-40.23861
-43.04276
-44.69338
-45.27699
-45.68363
-46.19744
-46.72698
-47.02921
-47.1522
-46.86222
-46.35702
-45.87109
-45.40754
-45.03228
-45.26256
-46.41481
-47.33353
-47.93879
-49.28883
-50.7366
-51.18187
-50.68232
-49.59304
-47.9893
-45.99891
-45.74664
-46.15324
-46.06466
-45.31258
-44.22975
-43.73167
-44.10195
-44.44442
-43.6213
-47.31729
-44.72516
-76.59326
-54.21388
-51.59856
-45.43424
-42.37597
-40.14356
-38.33266
-36.66149
-35.17381
-33.81665
-32.5436
-31.32119
-30.15765
-29.05642
-27.95493
-26.86958
-25.81676
-24.76489
-23.70121
-22.64439
-21.60339
-20.57574
-19.57554
-18.63434
-17.74815
-16.93169
-16.22115
-15.5774
-14.95773
-14.38082
-13.84382
-13.38179
-13.02414
-12.75643
-12.60595
-12.60076
-12.73697
-13.00118
-13.3995
-13.90208
-14.52048
-15.24303
-16.05348
-16.93397
-17.90465
-18.96875
-20.09838
-21.28166
-22.51922
-23.83343
-25.21272
-26.63582
-28.11263
-29.61513
-31.15907
-32.71313
-34.30896
-35.93353
-37.53189
-39.13469
-40.75373
-42.37153
-43.95726
-45.50001
-47.03914
-48.54823
-50.00581
-51.45015
-52.93347
-54.29078
-55.59096
-56.85304
-58.0537
-59.20153
-60.30302
-61.33187
-62.25113
-63.08168
-63.8547
-64.54197
-65.12468
-65.61779
-66.03339
-66.3656
-66.60392
-66.75629
-66.82599
-66.8108
-66.71183
-66.53092
-66.27782
-65.96062
-65.58727
-65.16653
-64.71576
-64.2753
-63.88143
-63.70832
-63.82825
-64.6324
-62.77264
-64.09342
-32.349
-38.6393
-39.00109
-35.03205
-32.88607
-33.34265
-33.02441
-33.34683
-33.54687
-33.56246
-33.73644
-34.1498
-34.55427
-34.99943
-35.69353
-37.05707
-38.9881
-40.22573
-40.25746
-39.35216
-38.9244
-38.99083
-38.23104
-37.47746
-37.66591
-37.96304
-38.25759
-38.35773
-38.48588
-38.82713
-39.73852
-41.70709
-45.5157
-50.37937
-53.0347
-51.91816
-51.27963
-52.816
-55.13151
-57.55373
-59.91087
-62.29452
-65.03086
-68.94683
-76.33209
-87.32159
-101.9405
-106.651
-109.0175
-57.13391
-32.66284
-38.41619
-39.12199
-35.16405
-32.91768
-33.33978
-33.0267
-33.34605
-33.54823
-33.56704
-33.73755
-34.14775
-34.55175
-34.99499
-35.69279
-37.06677
-39.00948
-40.24787
-40.27736
-39.37693
-38.95525
-39.01191
-38.24159
-37.49062
-37.67753
-37.97317
-38.26182
-38.35917
-38.49219
-38.84579
-39.78745
-41.80768
-45.6627
-50.46973
-53.10473
-51.88562
-51.30587
-52.91471
-55.2638
-57.6867
-59.99825
-62.41375
-65.22514
-69.32883
-76.98413
-88.25801
-102.5258
-106.4224
-103.8559
-55.5869
-51.91256
-45.58951
-42.52453
-40.24933
-38.39548
-36.70535
-35.21198
-33.85471
-32.58245
-31.35795
-30.19102
-29.08706
-27.98637
-26.90006
-25.84533
-24.79311
-23.72924
-22.67112
-21.62876
-20.60018
-19.59848
-18.65551
-17.76854
-16.95018
-16.23709
-15.5914
-14.9694
-14.39075
-13.85228
-13.38833
-13.02934
-12.75999
-12.60727
-12.59982
-12.73426
-12.99724
-13.39503
-13.89666
-14.51549
-15.23806
-16.04864
-16.92915
-17.90059
-18.96574
-20.0961
-21.28009
-22.51837
-23.83416
-25.21455
-26.63865
-28.1174
-29.6206
-31.16621
-32.71994
-34.31802
-35.94371
-37.54134
-39.14543
-40.76545
-42.38399
-43.96946
-45.51204
-47.0527
-48.56064
-50.0179
-51.4732
-52.94415
-54.30278
-55.6032
-56.86634
-58.06591
-59.21481
-60.32032
-61.34947
-62.26555
-63.09546
-63.87033
-64.55607
-65.13627
-65.62854
-66.04352
-66.37353
-66.60879
-66.75912
-66.82613
-66.80745
-66.70459
-66.52014
-66.266
-65.94792
-65.57392
-65.15354
-64.70552
-64.2699
-63.88841
-63.73589
-63.84514
-64.54063
-62.92727
-74.22743
-67.29024
-68.85406
-64.62492
-67.81723
-74.59294
-75.85937
-71.94017
-63.77887
-54.02557
-45.7912
-40.98554
-39.6066
-40.19344
-43.02655
-44.69032
-45.28235
-45.68635
-46.19646
-46.72861
-47.03183
-47.16207
-46.87397
-46.36292
-45.87658
-45.41814
-45.04257
-45.26913
-46.42073
-47.33267
-47.95061
-49.31916
-50.76988
-51.21218
-50.7077
-49.59914
-47.98418
-45.96236
-45.73055
-46.16452
-46.07878
-45.32503
-44.23846
-43.73882
-44.1192
-44.43412
-43.66363
-47.38621
-45.06173
-68.95355
-35.23669
-30.87274
-24.22301
-20.31527
-16.81765
-13.87462
-11.27821
-8.863811
-6.746206
-4.783843
-2.970373
-1.290607
0.3131899
1.845416
3.295419
4.654308
5.938405
7.186815
8.389963
9.548235
10.66611
11.73754
12.75788
13.768
14.76173
15.73981
16.68139
17.57889
18.45078
19.31441
20.17327
21.02267
21.83457
22.62417
23.41384
24.19086
24.96546
25.7346
26.50779
27.24704
28.01061
28.73973
29.46735
30.18501
30.90191
31.60791
32.30522
33.00673
33.72395
34.44044
35.14287
35.83616
36.53011
37.24826
37.97932
38.70157
39.42651
40.16473
40.907
41.66141
42.41995
43.18323
43.98537
44.85304
45.72239
46.58747
47.55277
48.62605
49.59937
50.25086
51.46964
55.47601
54.16778
53.05658
52.03818
51.026
50.05205
49.09465
48.18771
47.37599
46.61317
45.80675
44.98143
44.17798
43.41982
42.68419
41.95099
41.20847
40.46833
39.75564
39.05354
38.34039
37.63033
36.93305
36.22582
35.53009
34.82319
34.09123
33.3756
32.68084
31.98484
31.27091
30.52911
29.81698
29.08337
28.33338
27.5873
26.84152
26.0701
25.29177
24.51808
23.73404
22.91465
22.06098
21.21169
20.37614
19.51487
18.6174
17.70129
16.75218
15.77302
14.77373
13.74698
12.71855
11.62833
10.47848
9.299136
8.058678
6.777108
5.40983
3.950336
2.421908
0.8089793
-0.9602356
-2.882702
-5.042997
-7.371611
-9.994733
-13.15307
-16.62057
-22.53173
-26.09672
55.31335
54.26675
53.15806
52.14151
51.1413
50.16764
49.20189
48.28746
47.46928
46.70151
45.8915
45.06394
44.25643
43.4934
42.7536
42.01657
41.2711
40.52737
39.81207
39.10606
38.38964
37.67732
36.97761
36.26723
35.57046
34.86099
34.12538
33.40939
32.71241
32.01471
31.29797
30.5575
29.83834
29.10657
28.35317
27.60603
26.85944
26.08485
25.3058
24.53136
23.74677
22.92439
22.06806
21.21812
20.38321
19.51932
18.6204
17.70374
16.75195
15.77119
14.77019
13.7414
12.71429
11.61906
10.4662
9.286342
8.040648
6.758946
5.385146
3.920764
2.389417
0.772668
-1.005998
-2.935427
-5.100514
-7.445303
-10.08616
-13.25809
-16.79007
-22.61152
-26.24855
-35.39231
-30.97325
-24.41159
-20.43064
-16.9223
-13.95655
-11.34326
-8.921578
-6.795401
-4.826478
-3.005479
-1.3221
0.2853423
1.822716
3.276908
4.640918
5.925463
7.17704
8.382827
9.54349
10.66269
11.73773
12.75744
13.769
14.76436
15.74441
16.68896
17.58728
18.45986
19.32404
20.18406
21.03623
21.85053
22.63935
23.431
24.20897
24.98676
25.75761
26.52862
27.27766
28.03813
28.769
29.4988
30.21846
30.93686
31.64549
32.34492
33.04858
33.76791
34.48715
35.19183
35.88812
36.58506
37.30555
38.04081
38.76619
39.49459
40.23637
40.983
41.741
42.50474
43.27489
44.08234
44.95421
45.83052
46.70695
47.68326
48.739
49.68679
50.41396
51.75015
-71.93978
-67.64874
-69.29379
-64.87859
-67.9239
-74.83031
-76.41199
-72.72946
-64.62721
-54.7774
-46.29617
-41.22471
-39.68648
-40.14881
-42.95458
-44.65033
-45.27811
-45.6906
-46.20589
-46.745
-47.04508
-47.18249
-46.8936
-46.3777
-45.8875
-45.43287
-45.05282
-45.26599
-46.38966
-47.29243
-47.98224
-49.38513
-50.83559
-51.27115
-50.75483
-49.6058
-47.98246
-45.90347
-45.69927
-46.17477
-46.09183
-45.3439
-44.25785
-43.75698
-44.13461
-44.39427
-43.73696
-47.48319
-45.9976
-63.00735
-57.62336
-52.3242
-46.21644
-42.82775
-40.47264
-38.59159
-36.89832
-35.38486
-34.01028
-32.72491
-31.48883
-30.30442
-29.19602
-28.08858
-26.99189
-25.93242
-24.87788
-23.80892
-22.74494
-21.69793
-20.66459
-19.65493
-18.70534
-17.81288
-16.98678
-16.26771
-15.61911
-14.99309
-14.41163
-13.86897
-13.40014
-13.03826
-12.76535
-12.60916
-12.59911
-12.73134
-12.99256
-13.38919
-13.88879
-14.50788
-15.23039
-16.04093
-16.92083
-17.89343
-18.96025
-20.09153
-21.27637
-22.51548
-23.83412
-25.21653
-26.64211
-28.12387
-29.62774
-31.17674
-32.73024
-34.33326
-35.96238
-37.56027
-39.16866
-40.79253
-42.4147
-44.00242
-45.54686
-47.09363
-48.60371
-50.06017
-51.51991
-52.99688
-54.35943
-55.6646
-56.92983
-58.12818
-59.27963
-60.38688
-61.4115
-62.32157
-63.14984
-63.92346
-64.60358
-65.17822
-65.66733
-66.07903
-66.40357
-66.63235
-66.77766
-66.83848
-66.81343
-66.70402
-66.51243
-66.25255
-65.92801
-65.54701
-65.11988
-64.66842
-64.23268
-63.86128
-63.71286
-63.77613
-64.23827
-62.82114
-51.59632
-33.45368
-38.06033
-39.30174
-35.39269
-32.95832
-33.33271
-33.03192
-33.344
-33.54959
-33.57855
-33.73496
-34.14357
-34.54798
-34.98941
-35.69409
-37.08659
-39.04856
-40.28635
-40.31445
-39.44385
-39.03147
-39.03383
-38.25265
-37.4998
-37.68676
-37.97703
-38.2598
-38.36531
-38.50528
-38.8743
-39.8555
-41.93861
-45.86595
-50.71717
-53.21101
-51.91157
-51.43994
-53.12631
-55.46788
-57.88751
-60.22209
-62.65407
-65.54763
-69.90749
-77.94793
-89.72296
-104.1109
-107.0886
-100.8736
-47.77136
-34.22645
-37.70771
-39.60798
-35.70559
-33.00511
-33.31851
-33.04355
-33.33934
-33.55012
-33.59382
-33.72752
-34.13584
-34.54294
-34.98348
-35.69823
-37.12269
-39.11354
-40.34543
-40.36941
-39.55754
-39.1335
-39.01599
-38.24794
-37.5017
-37.69298
-37.97335
-38.25194
-38.36618
-38.51882
-38.90744
-39.93664
-42.09947
-46.06732
-50.76129
-53.13548
-51.96034
-51.69841
-53.4181
-55.70851
-58.11015
-60.43789
-62.92529
-65.94293
-70.61627
-79.12119
-91.46864
-105.6456
-107.6781
-97.46726
-59.24498
-52.70084
-46.58848
-43.11224
-40.66922
-38.74001
-37.01978
-35.49138
-34.10626
-32.81741
-31.58014
-30.3849
-29.27446
-28.16828
-27.06586
-26.00226
-24.94768
-23.87652
-22.80826
-21.75782
-20.72266
-19.70761
-18.75341
-17.85848
-17.0256
-16.30057
-15.64917
-15.01757
-14.43275
-13.88595
-13.41195
-13.04774
-12.7717
-12.6114
-12.5986
-12.72854
-12.98829
-13.38366
-13.88139
-14.50073
-15.2227
-16.03483
-16.91358
-17.88729
-18.95688
-20.08954
-21.2757
-22.51465
-23.83635
-25.22157
-26.64903
-28.13495
-29.63888
-31.19278
-32.74403
-34.35346
-35.98563
-37.58077
-39.1933
-40.82128
-42.44757
-44.03458
-45.5777
-47.13047
-48.63754
-50.09013
-51.56478
-53.0418
-54.39752
-55.70263
-56.96462
-58.15859
-59.30996
-60.41634
-61.43802
-62.34711
-63.17787
-63.95862
-64.63602
-65.20608
-65.69349
-66.10323
-66.423
-66.64574
-66.78733
-66.84242
-66.81158
-66.6956
-66.49635
-66.2311
-65.90013
-65.51361
-65.08264
-64.63216
-64.20128
-63.84187
-63.68446
-63.67773
-63.93582
-62.42935
-68.75868
-67.8212
-69.91481
-65.52141
-68.35218
-75.19707
-76.89595
-73.55589
-65.66758
-55.73864
-46.95227
-41.53699
-39.81202
-40.13166
-42.94502
-44.66437
-45.30503
-45.71537
-46.23353
-46.7791
-47.07008
-47.2123
-46.91188
-46.38619
-45.89713
-45.44721
-45.05585
-45.23987
-46.29813
-47.19598
-48.01763
-49.48258
-50.94338
-51.36823
-50.83257
-49.62395
-47.99803
-45.8257
-45.65398
-46.19503
-46.11976
-45.37632
-44.29361
-43.79167
-44.15355
-44.32142
-43.86664
-47.63959
-47.00077
-59.04484
-35.58078
-31.00252
-24.57532
-20.53243
-17.01866
-14.03163
-11.40545
-8.979639
-6.834626
-4.864904
-3.037004
-1.351578
0.2574822
1.799348
3.257951
4.628507
5.910879
7.164751
8.372716
9.535755
10.65596
11.73596
12.75324
13.76605
14.76232
15.74408
16.69253
17.59059
18.46233
19.32705
20.1884
21.04389
21.85993
22.64597
23.44004
24.21811
24.99896
25.76962
26.53753
27.29089
28.05154
28.78343
29.51477
30.23455
30.95422
31.66429
32.36392
33.06705
33.78893
34.51137
35.21634
35.91338
36.60991
37.3327
38.07303
38.79907
39.52741
40.27386
41.02224
41.78215
42.5489
43.32268
44.13211
45.01531
45.90198
46.78281
47.76738
48.80715
49.74365
50.55446
51.97777
55.08357
54.32825
53.24637
52.22085
51.22217
50.25237
49.27523
48.34631
47.52264
46.75783
45.94303
45.11139
44.29568
43.52941
42.78782
42.05062
41.30187
40.55342
39.83872
39.13252
38.41316
37.69966
37.00041
36.28565
35.59206
34.88115
34.13977
33.42349
32.7261
32.02874
31.30985
30.56876
29.84806
29.11896
28.36192
27.61453
26.86814
26.09018
25.31174
24.53823
23.75423
22.92812
22.06835
21.21925
20.38674
19.51947
18.61952
17.70344
16.74814
15.76573
14.76322
13.73269
12.7099
11.60744
10.45138
9.272394
8.020945
6.742458
5.360468
3.891768
2.360007
0.7421128
-1.044628
-2.989426
-5.154518
-7.512894
-10.16956
-13.35415
-16.93724
-22.62651
-26.39354
54.76398
54.3293
53.33107
52.31723
51.32705
50.3685
49.3836
48.44753
47.62376
46.86121
46.03915
45.20819
44.38681
43.61598
42.86957
42.13141
41.37888
40.62288
39.9064
39.19649
38.47213
37.75656
37.05661
36.3349
35.64437
34.93108
34.18168
33.46635
32.76674
32.06769
31.3429
30.60945
29.88089
29.15092
28.38921
27.64153
26.89294
26.10668
25.32741
24.55516
23.77451
22.94275
22.07454
21.2253
20.39862
19.52586
18.62344
17.7095
16.74906
15.76324
14.75633
13.72216
12.70965
11.59745
10.43762
9.257709
7.996495
6.725683
5.330452
3.854995
2.32065
0.7044226
-1.093498
-3.056434
-5.222927
-7.59568
-10.27183
-13.46518
-17.09322
-22.61353
-26.59289
-35.85795
-30.99801
-24.74524
-20.64249
-17.1386
-14.12539
-11.48399
-9.049109
-6.884795
-4.916988
-3.076577
-1.387447
0.2219183
1.772113
3.238925
4.617677
5.89249
7.149872
8.36226
9.530492
10.65233
11.73889
12.75177
13.76705
14.76427
15.75115
16.70621
17.60171
18.4736
19.34203
20.20451
21.06214
21.88147
22.66411
23.46256
24.24021
25.02556
25.79687
26.56768
27.33387
28.0875
28.81974
29.55463
30.27683
30.99961
31.712
32.41209
33.11773
33.84563
34.57341
35.27817
35.97804
36.67589
37.40177
38.1498
38.87826
39.61028
40.36252
41.11245
41.87539
42.64878
43.42978
44.23794
45.1272
46.02543
46.90835
47.89174
48.90044
49.83473
50.74294
52.18621
-65.22112
-67.56199
-70.70057
-66.69624
-69.21169
-75.83907
-77.73559
-74.70004
-67.03658
-57.02116
-47.86627
-42.04184
-39.99866
-40.13619
-42.98094
-44.70073
-45.3673
-45.77858
-46.29386
-46.83723
-47.11118
-47.25754
-46.9372
-46.40293
-45.90587
-45.46098
-45.05105
-45.1836
-46.15239
-47.053
-48.04741
-49.60905
-51.09461
-51.4907
-50.9352
-49.66326
-48.03569
-45.71806
-45.59675
-46.22571
-46.16492
-45.43324
-44.36196
-43.85141
-44.17907
-44.19485
-44.08139
-47.84738
-47.68292
-55.84801
-60.44272
-53.08651
-47.12205
-43.45933
-40.94332
-38.97573
-37.24122
-35.69125
-34.28961
-32.98888
-31.74096
-30.52102
-29.40279
-28.29364
-27.1782
-26.10639
-25.05014
-23.97517
-22.89875
-21.84182
-20.80261
-19.77748
-18.81388
-17.91482
-17.07339
-16.3412
-15.68742
-15.04756
-14.45816
-13.90549
-13.42404
-13.05798
-12.77945
-12.61469
-12.59889
-12.72609
-12.98405
-13.37831
-13.8753
-14.49627
-15.21367
-16.02905
-16.90798
-17.88174
-18.95453
-20.08916
-21.27938
-22.51905
-23.84202
-25.22875
-26.65901
-28.15046
-29.65347
-31.21542
-32.76232
-34.38239
-36.01849
-37.60904
-39.22467
-40.85565
-42.49154
-44.08109
-45.62165
-47.18773
-48.69303
-50.13599
-51.62764
-53.11428
-54.46298
-55.77824
-57.04293
-58.23417
-59.39494
-60.51241
-61.53683
-62.44088
-63.26579
-64.03352
-64.70067
-65.2632
-65.74785
-66.15336
-66.46493
-66.67845
-66.8148
-66.86139
-66.82261
-66.69676
-66.48682
-66.21524
-65.87487
-65.4805
-65.0437
-64.5927
-64.16344
-63.80731
-63.61994
-63.51327
-63.51005
-61.73347
-44.61185
-34.7497
-37.50904
-40.08925
-36.08519
-33.027
-33.29485
-33.06778
-33.32882
-33.54817
-33.60628
-33.70596
-34.12395
-34.53842
-34.97855
-35.71207
-37.184
-39.21275
-40.44087
-40.44436
-39.71147
-39.21948
-38.88495
-38.19712
-37.49839
-37.69697
-37.96939
-38.25168
-38.38344
-38.53782
-38.94602
-40.03761
-42.29265
-46.25094
-50.59261
-52.79065
-51.95897
-51.99167
-53.73965
-55.9927
-58.40732
-60.71731
-63.26579
-66.4649
-71.52914
-80.65669
-93.64123
-107.4133
-107.5668
-92.80727
-41.5901
-34.99755
-37.63815
-40.62353
-36.75271
-32.95469
-33.27638
-33.11453
-33.31746
-33.53766
-33.61085
-33.67705
-34.11154
-34.535
-34.98626
-35.75077
-37.27944
-39.34885
-40.57734
-40.5446
-39.88499
-39.25484
-38.65405
-38.09779
-37.49863
-37.69313
-37.96554
-38.25048
-38.38677
-38.54656
-38.98268
-40.15513
-42.49964
-46.38906
-50.20353
-52.35573
-51.92072
-52.2907
-54.09777
-56.31882
-58.7427
-61.05933
-63.77506
-67.26925
-72.82244
-82.74913
-96.20283
-108.6858
-106.0024
-87.46519
-61.06349
-53.39413
-47.59364
-43.81485
-41.20964
-39.1955
-37.44016
-35.86769
-34.44772
-33.13804
-31.90208
-30.64819
-29.52674
-28.42882
-27.29559
-26.21344
-25.16531
-24.08735
-23.00115
-21.93493
-20.8947
-19.85812
-18.88464
-17.98687
-17.13801
-16.395
-15.73768
-15.08378
-14.48722
-13.92803
-13.43695
-13.07241
-12.78719
-12.61947
-12.60063
-12.72376
-12.97632
-13.37437
-13.86241
-14.49915
-15.212
-16.01843
-16.90492
-17.8811
-18.95375
-20.09072
-21.28067
-22.53313
-23.86158
-25.24278
-26.67722
-28.17547
-29.67285
-31.24637
-32.78213
-34.42397
-36.06043
-37.65341
-39.27647
-40.89835
-42.53752
-44.13707
-45.67335
-47.25037
-48.7676
-50.19998
-51.68839
-53.18946
-54.5277
-55.85087
-57.11802
-58.29546
-59.45469
-60.57978
-61.5978
-62.47008
-63.28948
-64.09699
-64.75586
-65.30951
-65.79446
-66.19823
-66.50165
-66.70511
-66.83681
-66.87301
-66.82788
-66.69134
-66.46811
-66.19259
-65.84399
-65.44156
-64.9983
-64.54731
-64.11435
-63.74895
-63.50947
-63.27152
-62.95654
-60.87253
-61.69108
-66.32016
-71.42871
-68.41457
-70.71915
-76.8314
-78.88394
-76.2364
-68.91011
-58.82739
-49.30653
-43.08646
-40.36123
-40.17934
-43.10857
-44.81447
-45.49527
-45.90332
-46.40739
-46.93206
-47.17774
-47.323
-46.9551
-46.39131
-45.90186
-45.4714
-45.036
-45.10019
-45.9964
-46.8918
-48.07661
-49.74477
-51.26433
-51.6116
-51.07485
-49.71841
-48.07137
-45.58492
-45.52742
-46.26162
-46.21988
-45.52246
-44.48598
-43.94383
-44.26792
-43.9963
-44.09334
-47.96182
-47.88773
-52.8005
-36.12176
-30.90791
-24.88644
-20.7361
-17.27736
-14.2194
-11.55584
-9.117809
-6.947051
-4.978348
-3.110304
-1.426938
0.1780249
1.7466
3.218692
4.596448
5.860655
7.133797
8.35325
9.529149
10.64606
11.7358
12.74671
13.76267
14.76109
15.76043
16.71174
17.60271
18.48166
19.35001
20.20287
21.06341
21.89829
22.67284
23.47606
24.25143
25.04417
25.81775
26.58932
27.34912
28.10286
28.83924
29.58094
30.30429
31.02585
31.73733
32.44347
33.15259
33.87924
34.60536
35.31128
36.0179
36.7165
37.44388
38.19942
38.93383
39.66355
40.41698
41.17168
41.94363
42.72376
43.51202
44.31202
45.21543
46.14413
47.03111
48.01397
48.98766
49.93965
50.95489
52.32483
54.33768
54.22488
53.38568
52.41896
51.44484
50.49841
49.48953
48.53533
47.70992
46.95259
46.1087
45.27439
44.44673
43.67922
42.92389
42.18191
41.42796
40.66954
39.95737
39.24152
38.50994
37.79373
37.09369
36.36218
35.67881
34.95602
34.19913
33.4872
32.78913
32.09424
31.36006
30.61005
29.89381
29.16141
28.39548
27.65771
26.91391
26.11846
25.33708
24.55923
23.78429
22.95496
22.07875
21.22044
20.40257
19.52808
18.619
17.70803
16.74702
15.76138
14.74806
13.69875
12.70022
11.57631
10.4239
9.24289
7.961595
6.709239
5.295363
3.820984
2.274772
0.6601548
-1.144753
-3.121665
-5.290082
-7.67772
-10.37512
-13.56933
-17.22186
-22.51707
-26.75276
53.85195
53.99126
53.37282
52.5099
51.5946
50.70549
49.66293
48.67049
47.86042
47.14199
46.29348
45.4273
44.55763
43.79898
43.06174
42.30313
41.51612
40.74043
40.0518
39.33492
38.58675
37.8756
37.18137
36.421
35.79047
35.03339
34.25071
33.55058
32.82804
32.15639
31.41206
30.68876
29.97613
29.21514
28.40679
27.67284
26.93658
26.14359
25.38002
24.59344
23.78579
22.95843
22.11046
21.24309
20.40498
19.54395
18.6331
17.69365
16.73467
15.76145
14.76977
13.706
12.69596
11.52627
10.39899
9.241988
7.907865
6.6882
5.223376
3.791381
2.238218
0.568246
-1.244147
-3.228767
-5.397913
-7.804653
-10.54025
-13.74266
-17.42431
-22.39766
-26.87786
-36.30841
-30.86206
-25.13062
-20.90565
-17.50846
-14.30613
-11.6611
-9.246631
-7.065835
-5.0311
-3.134896
-1.499674
0.1225746
1.725073
3.169107
4.547644
5.852054
7.147468
8.347505
9.523858
10.61421
11.71765
12.76184
13.74368
14.77169
15.77585
16.69007
17.62631
18.51164
19.35347
20.19787
21.10793
21.9706
22.69398
23.5117
24.2827
25.09146
25.86123
26.62514
27.38042
28.16206
28.90922
29.6454
30.36459
31.07563
31.81136
32.53144
33.2192
33.93044
34.69342
35.42402
36.12072
36.81718
37.53087
38.31558
39.06575
39.75759
40.54755
41.32769
42.08579
42.86347
43.65717
44.44644
45.39473
46.38069
47.21724
48.15883
49.07492
50.0723
51.15665
52.33456
-58.17071
-63.24192
-71.40329
-70.33181
-72.71492
-78.16668
-80.50612
-78.39832
-71.49747
-61.37204
-51.49237
-44.5786
-41.18561
-40.4094
-43.36807
-45.02276
-45.72237
-46.13133
-46.60604
-47.07502
-47.28298
-47.4235
-46.97213
-46.41849
-45.9277
-45.45524
-44.9831
-44.97614
-45.84434
-46.71092
-48.07409
-49.88342
-51.51214
-51.81061
-51.30531
-49.78893
-48.01051
-45.57477
-45.54313
-46.28889
-46.23028
-45.58137
-44.60973
-44.06849
-44.25751
-44.06182
-43.51862
-47.32144
-47.33658
-49.96265
-61.80755
-53.88492
-48.14148
-44.3431
-41.64026
-39.57492
-37.78625
-36.16753
-34.71979
-33.39138
-32.16316
-30.83934
-29.7574
-28.62132
-27.47985
-26.39585
-25.34965
-24.23626
-23.14517
-22.07026
-21.034
-19.98081
-18.99758
-18.10498
-17.23765
-16.47459
-15.81025
-15.13757
-14.54022
-13.97318
-13.46148
-13.1006
-12.79676
-12.62186
-12.60199
-12.72309
-12.9726
-13.37377
-13.82695
-14.49621
-15.23493
-15.99629
-16.88538
-17.89006
-18.95623
-20.09112
-21.24288
-22.51462
-23.89642
-25.26823
-26.70084
-28.22411
-29.6955
-31.29246
-32.78274
-34.47316
-36.08235
-37.6847
-39.37821
-40.99746
-42.6062
-44.19438
-45.7675
-47.29335
-48.82769
-50.3399
-51.82662
-53.28855
-54.64783
-55.96002
-57.2233
-58.42674
-59.58204
-60.69621
-61.71807
-62.61497
-63.43689
-64.22388
-64.86119
-65.40241
-65.87702
-66.27436
-66.56487
-66.75971
-66.88606
-66.90323
-66.84538
-66.6979
-66.45407
-66.15882
-65.80035
-65.38682
-64.92816
-64.47789
-64.03349
-63.63736
-63.31828
-62.9203
-62.27246
-59.95715
-38.89027
-34.78012
-38.23219
-41.61484
-38.04672
-32.67731
-33.08494
-33.19686
-33.31703
-33.56385
-33.61057
-33.64696
-34.10997
-34.51864
-35.02353
-35.81257
-37.4006
-39.54084
-40.74197
-40.67557
-40.05786
-39.2524
-38.37936
-38.00077
-37.49618
-37.6806
-37.96851
-38.28837
-38.40801
-38.56905
-39.0397
-40.29139
-42.69252
-46.55249
-49.99719
-52.04693
-52.00042
-52.6379
-54.53003
-56.72198
-59.33549
-61.81562
-64.6474
-68.51135
-74.554
-85.26752
-98.21245
-107.7839
-101.8279
-82.16217
-0.0250106
-0.005279272
-3.978833
3.192595
0.657927
-0.2368315
0.03182018
3.064334
-0.2250265
0.08257053
1.327332
0.7342255
-0.006988338
11.56406
0.05949825
4.089203
7.476929
-14.24376
2.659522
6.305219
-0.5962356
2.619423
0.04737735
2.44502
-0.06557592
3.742628
2.316862
0.9753469
2.594647
-0.436543
0.7061968
-0.7483477
-95.83886
-0.03966458
3.666408
0.1150979
0.06259426
5.317609
0.02360178
3.925014
5.39741
-0.005486045
1.242603
0.6283766
0.2253903
5.711341
-0.002425418
-0.004549652
-0.002406363
5.85932
-3.241937
-0.03020263
-1.337978
-0.05956968
3.714408
0.07484645
-3.271574
-0.94402
-10.10649
-0.004148408
0.149229
2.094986
-0.1619647
0.6377353
6.296517
0.004354941
-0.1391406
2.462369
20.86411
-0.6294547
1.08337
0.07866586
4.102221
1.25643
1.690523
1.837019
1.104742
0.5178407
-0.009342877
2.375329
0.3788329
0.08748781
0.3048758
-0.1583606
0.2289484
0.03475337
8.221862
0.04944128
-0.4682262
-1.14066
5.875024
6.487489
4.127248
1.179983
0.4579436
-1.764953
4.382194
3.011802
-77.13327
0.4363985
-0.222933
11.2138
8.33949
0.250402
-2.191842
3.100099
0.05487999
3.946019
-0.1451632
3.217865
0.06859801
-99.29485
0.03959183
-0.5648534
-2.890626
0.01677396
-0.1926288
-18.71776
-6.853081
0.2415003
-0.6729739
-1.011539
-0.4150629
0.07136612
2.497693
-0.1463617
-0.001342792
0.09590672
1.730619
0.07940045
12.26332
6.826732
3.13485
-0.3676129
0.0600108
0.00860487
-3.567014
-130.6341
-12.88085
5.217866
3.190901
6.181718
3.527125
-5.955937
-0.03396065
0.3280462
3.524892
-0.6968814
0.006503476
8.431354
1.198414
0.1275737
-0.4461038
2.950098
10.5001
2.647243
0.02474675
-0.8647963
0.002099186
-0.6215
0.9398904
3.103852
-2.643507
0.02621093
6.653344
-0.006659952
-0.262147
5.361551
-0.1583371
1.487636
0.145008
0.3089483
0.03779167
-3.782199
-0.5200716
0.001322245
-0.5855929
-0.2452565
-0.1969045
3.544619
-0.1640768
4.018822
-7.874738
-0.2097378
-0.814273
-3.282503
4.481817
4.061772
6.93861
-0.0580667
-4.147703
0.06667785
0.524551
0.06897537
6.016665
-0.6821031
-0.4367945
0.5471205
-10.8074
-0.6918656
10.34168
-0.63254
-0.7377635
9.009698
-0.6302181
-0.5025495
0.01732089
-5.407364
-9.336429
-0.1666846
0.02742939
0.9371241
0.03309522
3.851143
0.01303522
0.0481146
-1.038576
-0.3079574
1.593475
1.202372
-6.020569
-4.926654
2.586291
0.139743
21.7139
2.632317
1.537491
0.0817314
-2.125081
-10.05902
0.006206336
-0.1203162
-5.94582
3.837703
1.552779
6.107091
2.123755
2.470031
4.020492
0.07419362
-2.074682
0.2794481
0.0219023
-0.06937596
0.1892649
1.050542
-1.154153
-1.890084
-0.8330919
2.481398
2.485491
-66.31058
7.186635
-1.085188
0.02373269
13.79716
-0.2501569
1.50135
-0.4695089
-1.503901
2.241769
0.4242291
0.5069666
0.6637689
4.220569
0.51419
0.1095946
0.7723137
2.757452
0.1576768
-0.9146661
0.05649214
-0.3257518
0.0261194
6.633592
4.440958
3.837743
0.09521376
1.773837
0.0958447
-1.059336
-39.09352
1.814784
-0.2388712
7.070455
0.0008445705
-2.710421
4.244869
4.683834
0.4024778
1.201019
0.03848894
-28.4966
3.148445
5.670257
3.971988
-0.005149731
7.906198
2.587505
-0.9261689