/*--------------------------------*- C++ -*----------------------------------*\
| =========                 |                                                 |
| \\      /  F ield         | OpenFOAM: The Open Source CFD Toolbox           |
|  \\    /   O peration     | Version:  2406                                  |
|   \\  /    A nd           | Website:  www.openfoam.com                      |
|    \\/     M anipulation  |                                                 |
\*---------------------------------------------------------------------------*/
FoamFile
{
    version     2.0;
    format      ascii;
    arch        "LSB;label=32;scalar=64";
    class       surfaceScalarField;
    location    "0.66";
    object      phi;
}
// * * * * * * * * * * * * * * * * * * * * * * * * * * * * * * * * * * * * * //

dimensions      [0 3 -1 0 0 0 0];

oriented        oriented;

internalField   nonuniform List<scalar> 
326221
(
-0.001921711
-0.004025418
0.005947129
-0.0008858304
-0.001035881
0.0002007208
-0.001086551
-0.0009598266
0.001160547
-0.0007844881
-0.0001753385
-0.0001187682
-0.0006657199
-9.352238e-05
-2.52458e-05
-1.325894e-05
-8.026344e-05
0.0001176921
-0.000130951
2.034915e-05
9.734292e-05
-0.0001637611
0.0001841103
-0.0001871478
2.338671e-05
-0.0001313748
-5.5773e-05
-0.0001019649
-2.940993e-05
-3.944676e-05
-6.251814e-05
0.0001586027
-0.0001980494
0.0004611446
-0.0003025419
0.0006261666
-0.0001650221
0.0005372152
8.895145e-05
0.0002647133
0.0002725018
-9.928226e-05
0.0003639956
-0.0004994303
0.0004001481
-0.0007641053
0.0002646749
-0.0006078426
-0.0001562627
-0.0001992106
-0.000408632
8.051138e-05
-0.000279722
0.0002593692
-0.0001788578
0.000291436
-3.20668e-05
0.0003003724
-8.93638e-06
0.0003735438
-7.317142e-05
0.0005924167
-0.0002188729
0.000973903
-0.0003814863
0.001523272
-0.0005493695
0.001953597
-0.0004303242
0.001767807
0.0001857895
0.001137855
0.000629952
0.0008541755
0.0002836796
0.0007642051
8.997039e-05
0.0004012484
0.0003629567
-9.765324e-05
0.0004989016
-0.0004947156
0.0003970624
-0.0006272163
0.0001325007
-0.0004753616
-0.0001518548
-4.377845e-05
-0.0004315831
0.000601206
-0.0006449844
0.0014338
-0.0008325942
0.002415605
-0.000981805
0.002512631
-9.702545e-05
0.001863241
0.0006493898
-0.003141091
0.005004332
-0.001970493
-0.001170599
-0.001540663
-0.0004298296
-0.001550784
1.012058e-05
-0.001277321
-0.0002734628
-0.001026834
-0.0002504873
-0.0009101288
-0.0001167048
-0.0008816689
-2.84599e-05
-0.0009008917
1.92228e-05
-0.0009421307
4.123893e-05
-0.0009784401
3.630942e-05
-0.0009945871
1.614698e-05
-0.0009935346
-1.05242e-06
-0.0009916736
-1.861091e-06
-0.0009764556
-1.521797e-05
-0.0009505163
-2.593933e-05
-0.0009260011
-2.451519e-05
-0.0008989157
-2.708538e-05
-0.0008644275
-3.448817e-05
-0.0008271651
-3.72624e-05
-0.0007901433
-3.702186e-05
-0.0007502334
-3.990985e-05
-0.0007045969
-4.563653e-05
-0.0006568069
-4.778997e-05
-0.0005979446
-5.886235e-05
-0.0005203585
-7.758604e-05
-0.0004429992
-7.735933e-05
-0.0003820231
-6.097604e-05
-0.0003345014
-4.752176e-05
-0.0002979568
-3.65446e-05
-0.0002567732
-4.11836e-05
-0.0002055284
-5.12448e-05
-0.0001444697
-6.105864e-05
-6.566379e-05
-7.880595e-05
2.78869e-05
-9.355069e-05
0.000126497
-9.861014e-05
0.0002260078
-9.951077e-05
0.0003315307
-0.0001055228
0.000428292
-9.676137e-05
0.0005318027
-0.0001035107
0.0006338006
-0.0001019979
0.0007304109
-9.661028e-05
0.0008237475
-9.333656e-05
0.0009205128
-9.67653e-05
0.00101918
-9.866733e-05
0.001115056
-9.587576e-05
0.001207478
-9.242231e-05
0.001298177
-9.069901e-05
0.001390641
-9.246394e-05
0.001480928
-9.028685e-05
0.001566826
-8.58976e-05
0.001649845
-8.301984e-05
0.001724572
-7.472694e-05
0.001795418
-7.084549e-05
0.001857276
-6.185835e-05
0.001918174
-6.089811e-05
0.001974654
-5.647934e-05
0.002021884
-4.723066e-05
0.002066783
-4.489906e-05
0.002109057
-4.227376e-05
0.002147122
-3.806468e-05
0.002178574
-3.145241e-05
0.002202882
-2.430761e-05
0.002225098
-2.221587e-05
0.00223951
-1.441202e-05
0.002244339
-4.828976e-06
0.002253857
-9.518506e-06
0.002320132
-6.627439e-05
0.002320295
-1.633883e-07
0.002307576
1.271937e-05
0.002282694
2.488149e-05
0.002246809
3.588519e-05
0.002206651
4.015772e-05
0.002163758
4.289373e-05
0.002112817
5.094045e-05
0.002050667
6.214964e-05
0.001983709
6.695861e-05
0.001915778
6.793065e-05
0.001842023
7.375538e-05
0.001762809
7.921396e-05
0.001682402
8.040721e-05
0.00160108
8.132117e-05
0.001516295
8.478523e-05
0.001427824
8.847108e-05
0.001339331
8.849296e-05
0.001250344
8.898678e-05
0.001160976
8.936806e-05
0.001071493
8.94834e-05
0.0009802597
9.123319e-05
0.0008896793
9.058049e-05
0.0007992604
9.041884e-05
0.00070795
9.131043e-05
0.0006150086
9.294134e-05
0.0005200593
9.494937e-05
0.0004211161
9.894321e-05
0.000311357
0.0001097591
0.000204433
0.000106924
4.347358e-05
0.0001609594
-0.0001327979
0.0001762715
0.000281072
-0.0004138699
0.001022407
-0.0007413352
0.0004284065
0.0005940007
0.001197256
-0.00076885
0.0004385892
0.0007586673
0.0001243401
0.0003142491
-0.0008619955
0.0009863356
-0.002619741
0.001757746
-0.003299229
0.0006794877
-0.003152354
-0.0001468754
-0.002626539
-0.0005258148
-0.001907786
-0.0007187526
-0.001109709
-0.0007980776
-0.0003831304
-0.0007265781
0.0002250373
-0.0006081677
0.0007540895
-0.0005290523
0.0008382755
-8.418595e-05
0.0006977865
0.000140489
0.0004856882
0.0002120983
0.0002663044
0.0002193837
4.196851e-05
0.0002243359
-0.0001708651
0.0002128336
-0.0003288745
0.0001580094
-0.0005040579
0.0001751834
-0.0006158488
0.0001117909
-0.0006403425
2.449376e-05
-0.0005914154
-4.892715e-05
-0.0004418066
-0.0001496088
-0.0001078979
-0.0003339087
0.0002889745
-0.0003968723
0.000509981
-0.0002210065
0.0004380702
7.191083e-05
8.772151e-05
0.0003503487
-0.0003553408
0.0004430623
-0.0007055783
0.0003502375
-0.0008430274
0.0001374491
-0.0007362151
-0.0001068124
-0.0005027161
-0.0002334989
-0.0003457281
-0.000156988
-0.0002574927
-8.823541e-05
-0.0004575103
0.0002000176
-0.0006969434
0.0002394331
-0.0007130095
1.606607e-05
-0.0004790905
-0.000233919
-2.431236e-05
-0.0004547781
0.0001095767
-0.000133889
-0.0002142654
0.000323842
0.0001505792
-0.0003648446
0.0003973928
-0.0002468136
0.001311088
-0.0009136954
0.001962296
-0.0006512074
-0.004238288
0.006200584
-0.004440704
0.0002024155
-0.003942859
-0.0004978447
-0.003726289
-0.00021657
-0.003516337
-0.0002099521
-0.003355541
-0.0001607959
-0.003207615
-0.0001479262
-0.00307822
-0.0001293946
-0.00288493
-0.0001932908
-0.002794818
-9.011142e-05
-0.002721915
-7.290324e-05
-0.002654375
-6.754023e-05
-0.002594719
-5.965603e-05
-0.002536181
-5.853797e-05
-0.002479961
-5.622004e-05
-0.002425826
-5.41349e-05
-0.00237782
-4.800609e-05
-0.002333502
-4.431796e-05
-0.002290434
-4.306778e-05
-0.002247268
-4.316576e-05
-0.002207159
-4.010928e-05
-0.002168142
-3.901675e-05
-0.002131683
-3.645905e-05
-0.00209932
-3.236305e-05
-0.002065484
-3.383635e-05
-0.002031079
-3.440437e-05
-0.001995404
-3.567536e-05
-0.001962262
-3.314225e-05
-0.00193251
-2.975147e-05
-0.001905628
-2.688266e-05
-0.001876849
-2.877888e-05
-0.001847936
-2.891291e-05
-0.001816331
-3.160455e-05
-0.001788749
-2.758257e-05
-0.001763404
-2.534446e-05
-0.001736205
-2.719975e-05
-0.001708139
-2.806575e-05
-0.001678773
-2.936569e-05
-0.00165224
-2.653344e-05
-0.00162733
-2.490942e-05
-0.001659109
3.17791e-05
-0.001647386
-1.172367e-05
-0.001630137
-1.724904e-05
-0.001612296
-1.784074e-05
-0.001596727
-1.556927e-05
-0.001580402
-1.632453e-05
-0.001565996
-1.440649e-05
-0.001552703
-1.32926e-05
-0.001539949
-1.275396e-05
-0.001524071
-1.587775e-05
-0.001507875
-1.619614e-05
-0.001494506
-1.336917e-05
-0.001483267
-1.123856e-05
-0.001474174
-9.093191e-06
-0.001461337
-1.283695e-05
-0.001445468
-1.586932e-05
-0.001431163
-1.430514e-05
-0.001419041
-1.212171e-05
-0.001404636
-1.440495e-05
-0.001392138
-1.249862e-05
-0.001378608
-1.352915e-05
-0.001364834
-1.377471e-05
-0.001352544
-1.228943e-05
-0.001339016
-1.352807e-05
-0.001309657
-2.93589e-05
-0.001271163
-3.849444e-05
-0.00123476
-3.640246e-05
-0.00118658
-4.818076e-05
-0.001108877
-7.770235e-05
-0.0009631484
-0.0001457289
-0.0007725382
-0.0001906102
-0.0005656947
-0.0002068435
0.000160512
-0.0007262067
0.000683088
-0.000522576
0.0009730079
-0.0002899199
0.001114626
-0.0001416182
0.001200201
-8.557529e-05
0.001270871
-7.066918e-05
0.001318576
-4.770557e-05
0.001341006
-2.242948e-05
0.00135635
-1.534475e-05
0.001380536
-2.418582e-05
0.001401793
-2.125691e-05
0.001417693
-1.589951e-05
0.001425904
-8.211938e-06
0.001432637
-6.732387e-06
0.00143919
-6.553209e-06
0.001448921
-9.731322e-06
0.001457687
-8.765132e-06
0.001462972
-5.285566e-06
0.001469099
-6.12697e-06
0.00147878
-9.680669e-06
0.001487362
-8.581861e-06
0.001495437
-8.075617e-06
0.001506778
-1.134127e-05
0.001515748
-8.969735e-06
0.001529453
-1.370437e-05
0.001546415
-1.69624e-05
0.001558969
-1.255383e-05
0.001567973
-9.003992e-06
0.001578779
-1.080663e-05
0.001592156
-1.337637e-05
0.001599039
-6.883119e-06
0.00156369
3.534905e-05
0.001583387
-1.969752e-05
0.001608919
-2.553155e-05
0.001634699
-2.578003e-05
0.001660481
-2.5782e-05
0.001688368
-2.788685e-05
0.001714193
-2.582538e-05
0.001736977
-2.278398e-05
0.001761574
-2.459673e-05
0.001789703
-2.812957e-05
0.001821177
-3.147317e-05
0.00184765
-2.647316e-05
0.001871799
-2.414915e-05
0.00189809
-2.629073e-05
0.001927274
-2.91845e-05
0.001956643
-2.936855e-05
0.001989826
-3.318368e-05
0.002024404
-3.457762e-05
0.002058862
-3.445755e-05
0.002094105
-3.524349e-05
0.002125941
-3.183558e-05
0.00216507
-3.912928e-05
0.002206072
-4.100251e-05
0.002248459
-4.238669e-05
0.002293971
-4.551201e-05
0.00234077
-4.679837e-05
0.002392879
-5.210932e-05
0.002450244
-5.736512e-05
0.002508106
-5.786161e-05
0.002570686
-6.258083e-05
0.002642558
-7.187144e-05
0.002730984
-8.842596e-05
0.002914287
-0.0001833031
0.003038865
-0.0001245784
0.003179697
-0.0001408319
0.00333631
-0.0001566132
0.003536014
-0.0001997032
0.003736402
-0.0002003886
0.004207833
-0.0004714313
0.0001824158
0.0002947934
0.0005690386
-0.001590039
0.0008662391
-0.001094022
0.001292888
-0.0007165683
0.001576697
-0.000425428
0.001782835
-0.0002917131
0.001961118
-0.0002489515
0.002111798
-0.0001983856
0.002233111
-0.000143743
0.002338204
-0.0001204377
0.002442874
-0.0001288557
0.002539113
-0.0001174962
0.002627912
-0.0001046988
0.002706383
-8.668278e-05
0.002779908
-8.025704e-05
0.002847682
-7.432706e-05
0.002914288
-7.633717e-05
0.002976588
-7.106518e-05
0.003033923
-6.26209e-05
0.003088083
-6.028703e-05
0.003142196
-6.37939e-05
0.003193303
-5.96891e-05
0.003241719
-5.649112e-05
0.003291086
-6.07081e-05
0.003336548
-5.443153e-05
0.003384122
-6.127842e-05
0.003432412
-6.525263e-05
0.003478414
-5.855613e-05
0.003520361
-5.095072e-05
0.003563479
-5.392496e-05
0.003606804
-5.670068e-05
0.003646993
-4.707221e-05
0.003607586
7.475577e-05
0.003658584
-7.069538e-05
0.003712673
-7.962067e-05
0.00376702
-8.012744e-05
0.003821332
-8.009371e-05
0.003876514
-8.306852e-05
0.00393105
-8.036142e-05
0.003982558
-7.429234e-05
0.004035877
-7.791561e-05
0.004089771
-8.20237e-05
0.004147519
-8.922067e-05
0.004200889
-7.984387e-05
0.004253937
-7.719705e-05
0.004307168
-7.952179e-05
0.004362942
-8.495837e-05
0.004418188
-8.461469e-05
0.004476523
-9.151828e-05
0.004536226
-9.42803e-05
0.004595903
-9.413506e-05
0.004657381
-9.672165e-05
0.004715603
-9.005713e-05
0.004780147
-0.0001036733
0.004844604
-0.0001054601
0.00491199
-0.0001097725
0.004980381
-0.0001139025
0.005051381
-0.0001177982
0.005125255
-0.0001259837
0.005204348
-0.0001364578
0.005283519
-0.0001370328
0.00536746
-0.0001465223
0.005458331
-0.0001627417
0.005562553
-0.0001926483
0.00581885
-0.0004396
0.005961058
-0.0002667871
0.006123368
-0.0003031412
0.006297112
-0.0003303579
0.006525174
-0.0004277649
0.006710272
-0.0003854866
0.007266656
-0.001027815
0.006407718
0.001041354
-0.007670956
0.006698646
0.001174725
-0.00708496
-0.001083841
-0.006888011
-0.0004135184
-0.006650677
-0.0004472867
-0.006471897
-0.0003395761
-0.006301843
-0.0003179797
-0.00615405
-0.0002771877
-0.005883599
-0.0004637415
-0.005776229
-0.0001974818
-0.005682974
-0.0001661578
-0.005593493
-0.000157022
-0.005510954
-0.000142195
-0.005428663
-0.0001408283
-0.00534971
-0.0001351737
-0.005271255
-0.0001325892
-0.005198797
-0.0001204646
-0.00512728
-0.0001158345
-0.005058556
-0.0001117918
-0.004988518
-0.0001132037
-0.004922049
-0.0001065788
-0.004855407
-0.0001056583
-0.004791232
-0.000100634
-0.004729441
-9.415388e-05
-0.004666815
-9.646308e-05
-0.004604522
-9.669657e-05
-0.004541049
-9.91488e-05
-0.004480159
-9.403178e-05
-0.004420167
-8.974357e-05
-0.004362905
-8.414497e-05
-0.004302614
-8.907041e-05
-0.0042438
-8.772638e-05
-0.004181688
-9.371659e-05
-0.004123047
-8.622389e-05
-0.004064299
-8.40926e-05
-0.004004491
-8.700689e-05
-0.003943408
-8.914941e-05
-0.003881434
-9.133923e-05
-0.003821317
-8.665036e-05
-0.003761802
-8.442447e-05
-0.00379696
6.693722e-05
-0.003749848
-5.883633e-05
-0.003700096
-6.700074e-05
-0.003648904
-6.903231e-05
-0.003599982
-6.449164e-05
-0.003548808
-6.749843e-05
-0.003499178
-6.403686e-05
-0.003448485
-6.398572e-05
-0.003397905
-6.333379e-05
-0.003344091
-6.96914e-05
-0.003289884
-7.040335e-05
-0.003236435
-6.681845e-05
-0.003182604
-6.50693e-05
-0.00312869
-6.300753e-05
-0.003070098
-7.142821e-05
-0.003008778
-7.719005e-05
-0.002946271
-7.681128e-05
-0.002883657
-7.473632e-05
-0.002816003
-8.205922e-05
-0.002747554
-8.094734e-05
-0.002673821
-8.726161e-05
-0.002595871
-9.172545e-05
-0.002513011
-9.514937e-05
-0.002423167
-0.0001033714
-0.002314272
-0.0001382539
-0.002192113
-0.0001606541
-0.002063785
-0.0001647302
-0.001916767
-0.0001951986
-0.001726348
-0.0002681215
-0.001427385
-0.0004446922
-0.001020191
-0.0005978037
-0.0006579962
0.0004145797
-0.001598316
0.001777737
0.001616851
-0.001971121
0.001022365
0.001353153
-0.0005734997
0.001910114
-0.002877188
0.003290024
-0.00432111
0.003201668
-0.004360645
0.0007190219
-0.003963098
-0.0005444222
-0.003311319
-0.001177594
-0.002410318
-0.001619754
-0.001421947
-0.001786448
-0.0004976975
-0.001650828
0.0002865052
-0.00139237
0.0009782109
-0.001220758
0.001141463
-0.0002474378
0.001003032
0.00027892
0.0007171176
0.0004980123
0.0003439625
0.0005925389
-6.929132e-05
0.0006375898
-0.0004650806
0.0006086229
-0.000750489
0.0004434178
-0.000964811
0.0003895054
-0.001008377
0.0001553571
-0.0009431147
-4.076876e-05
-0.00080806
-0.0001839818
-0.0005604886
-0.0003971801
-0.000105699
-0.0007886984
0.0003581041
-0.0008606755
0.0006437092
-0.0005066116
0.0003589642
0.0003566558
-0.0004483259
0.001157639
-0.00109486
0.001089596
-0.001428124
0.0006835022
-0.001494683
0.0002040081
-0.001324269
-0.0002772262
-0.001069921
-0.0004878477
-0.001024088
-0.000202821
-0.0009765531
-0.0001357699
-0.00107806
0.000301524
-0.001108688
0.0002700619
-0.0009360906
-0.0001565317
-0.0005584923
-0.0006115173
6.254289e-05
-0.001075813
0.0003130651
-0.0003844112
-5.846071e-05
0.0006953678
0.0002235583
-0.0006468636
0.0008728339
-0.0008960891
0.001980281
-0.002021143
0.001020376
0.0003086975
0.01391961
-0.002749408
0.003358559
-0.001779749
-0.002455717
-0.0007235208
-0.002256451
-0.000189145
-0.002080306
-0.000449608
-0.001971991
-0.0003588025
-0.001975191
-0.0001135049
-0.002038871
3.522053e-05
-0.002086734
6.708576e-05
-0.002099507
5.401203e-05
-0.002082609
1.941093e-05
-0.002039101
-2.736032e-05
-0.001979837
-6.031692e-05
-0.001922833
-5.886529e-05
-0.001856806
-8.124441e-05
-0.001783272
-9.947392e-05
-0.001712279
-9.550741e-05
-0.001640602
-9.87628e-05
-0.001564165
-0.0001109254
-0.001486664
-0.0001147629
-0.001409809
-0.0001138768
-0.001328846
-0.000120873
-0.001236626
-0.0001378567
-0.001134093
-0.0001503231
-0.001014514
-0.0001784413
-0.0008760934
-0.0002160066
-0.0007445397
-0.000208913
-0.0006379706
-0.0001675451
-0.0005502999
-0.0001351925
-0.0004776001
-0.0001092444
-0.0003997869
-0.0001189967
-0.0003082908
-0.0001427409
-0.0002014492
-0.0001679003
-6.916794e-05
-0.0002110872
8.258541e-05
-0.000245304
0.0002438155
-0.0002598402
0.0004068581
-0.0002625534
0.0005785503
-0.000277215
0.0007414861
-0.0002596972
0.0009110865
-0.0002731111
0.001079894
-0.0002708055
0.001244555
-0.0002612709
0.001404656
-0.0002534383
0.001566209
-0.0002583182
0.001728864
-0.0002613218
0.001889302
-0.0002563135
0.002047431
-0.0002505513
0.002204383
-0.0002476509
0.002363734
-0.0002518156
0.002522529
-0.0002490813
0.002678816
-0.0002421849
0.002833793
-0.0002379972
0.002981722
-0.0002226552
0.003125676
-0.0002147999
0.003259726
-0.0001959085
0.003390013
-0.0001911852
0.003513163
-0.0001796295
0.003624942
-0.000159009
0.003731331
-0.0001512886
0.00383218
-0.0001431225
0.00392704
-0.0001329242
0.004014585
-0.0001189977
0.004094756
-0.0001044792
0.004171974
-9.943359e-05
0.004241965
-8.440324e-05
0.004303455
-6.63188e-05
0.004365533
-7.159676e-05
0.004523658
-0.0002243993
0.004583214
-5.971922e-05
0.00463765
-4.171639e-05
0.004682889
-2.035782e-05
0.004716801
1.973675e-06
0.004741098
1.586081e-05
0.004755266
2.872558e-05
0.004755448
5.075784e-05
0.00473916
7.843776e-05
0.004710352
9.57668e-05
0.004670924
0.0001073588
0.004617437
0.0001272423
0.004550612
0.0001460395
0.004473391
0.0001576281
0.004386009
0.0001687028
0.004287113
0.0001836812
0.004177183
0.0001984009
0.00405901
0.0002066659
0.003932923
0.0002150742
0.003799868
0.0002224232
0.003660147
0.0002292037
0.0035136
0.0002377803
0.003361358
0.0002428227
0.003202047
0.0002497303
0.003034278
0.0002590788
0.002857018
0.000270202
0.002669763
0.0002822043
0.002467369
0.0003013367
0.002246766
0.000330362
0.001996236
0.0003574546
0.001704771
0.0004524242
0.001649648
0.0002313946
0.00162525
-0.000389472
-0.0007144015
-0.0009136322
0.01326848
-0.001820495
-0.0001290174
-0.001116571
-0.001790476
-0.001670583
0.00171456
-0.001158494
-0.000687428
-0.0003927516
-0.001431462
-0.0003186877
-9.93097e-05
-0.0001099669
-0.0002889842
9.702971e-05
-0.0003379476
-0.0001056476
0.0003000202
-0.0004492524
0.0005277151
-0.0004188746
-6.991133e-06
-0.0003056417
-0.0001690059
-0.0002853548
-4.969679e-05
-0.0001861144
-0.0001617586
0.0001225803
-0.0005067441
0.0005538299
-0.0007337915
0.0008370973
-0.0004482895
0.0008494011
7.664765e-05
0.0006243206
0.0004975824
-6.38717e-05
0.001052188
-0.0009263224
0.001262599
-0.001107594
0.0004459465
-0.0006879893
-0.0005758673
-0.0002556128
-0.0008410085
4.438367e-05
-0.0005797184
0.0003408044
-0.0004752786
0.0004032286
-9.449092e-05
0.0003161458
7.814636e-05
0.0003258359
-8.286148e-05
0.0005644066
-0.0004574435
0.0009791865
-0.0007962663
0.001551801
-0.001121984
0.002209273
-0.001087796
0.002525405
-0.0001303424
0.002211127
0.0009442303
0.001479781
0.001015025
0.0003540332
0.001215718
-0.0006976344
0.001414624
-0.001293983
0.00109525
-0.001439817
0.0005428971
-0.001254877
-5.243939e-05
-0.0008725824
-0.0005341496
-0.0002894141
-0.001014751
0.0005470174
-0.001481416
0.00152101
-0.001806587
0.002592239
-0.002053033
0.002900674
-0.0004054608
0.001849679
0.001700385
0.01021257
0.0006070952
-0.008315456
0.02097684
-0.002185395
0.002663473
-0.002058692
-0.001917179
-0.002268013
0.001923881
-0.001515846
-0.001439595
-0.0006366788
-0.002310629
-0.0004939441
-0.0002420443
-0.0002380803
-0.0005448481
7.42085e-06
-0.0005834488
-0.0002351156
0.0005425566
-0.0006187343
0.0009113338
-0.0005509053
-7.482009e-05
-0.0004735176
-0.0002463937
-0.000482787
-4.042732e-05
-0.0003323033
-0.0003122424
7.511316e-05
-0.0009141605
0.0005982105
-0.001256889
0.0009391828
-0.0007892618
0.0009642333
5.159718e-05
0.0008073531
0.0006544626
3.323978e-05
0.001826301
-0.00105437
0.002350208
-0.001166745
0.000558322
-0.0006464182
-0.001096194
-0.0003265506
-0.001160876
-0.0001620771
-0.0007441919
1.299781e-05
-0.0006503536
-1.359744e-05
-6.789567e-05
-7.687416e-05
0.0001414231
4.458518e-05
-0.0002043208
0.0002781932
-0.0006910515
0.0006108472
-0.00112892
0.001085031
-0.001596168
0.001740104
-0.001742869
0.002342139
-0.0007323783
0.002184523
0.001101846
0.0008386634
0.002360885
-0.0008399032
0.002894285
-0.001681179
0.0022559
-0.001815834
0.001229905
-0.001690736
0.000417799
-0.001432701
-0.0003104746
-0.001032679
-0.0009341713
-0.000344594
-0.001702837
0.0006653005
-0.00249131
0.001822348
-0.002963634
0.003018131
-0.003248817
0.00331808
-0.0007054095
0.001325801
0.003692663
-0.004053924
0.0155923
-0.00383333
-0.002000343
-0.003366974
-0.001189877
-0.003232813
-0.0003233059
-0.003283264
-0.0003991566
-0.0032646
-0.0003774668
-0.003186933
-0.0001911721
-0.003108424
-4.328889e-05
-0.003023639
-1.769889e-05
-0.002929865
-3.976164e-05
-0.002834343
-7.611168e-05
-0.002736156
-0.0001255469
-0.002632634
-0.0001638391
-0.002535385
-0.000156114
-0.002433084
-0.0001835455
-0.002326393
-0.0002061648
-0.002224856
-0.0001970448
-0.002125221
-0.0001983976
-0.002022657
-0.0002134896
-0.001919734
-0.0002176855
-0.001817083
-0.0002165285
-0.001708442
-0.0002295132
-0.001584349
-0.0002619499
-0.001445497
-0.0002891748
-0.00128717
-0.0003367683
-0.001110398
-0.0003927789
-0.000945869
-0.0003734421
-0.0008134879
-0.0002999262
-0.00070324
-0.0002454404
-0.0006096907
-0.0002027937
-0.0005089924
-0.0002196951
-0.0003907249
-0.0002610084
-0.0002544827
-0.0003041425
-8.875331e-05
-0.0003768165
0.000100023
-0.0004340804
0.0002996605
-0.0004594777
0.0005009336
-0.0004638265
0.0007122898
-0.0004885712
0.0009135524
-0.0004609599
0.001122
-0.0004815585
0.001329386
-0.0004781912
0.001532715
-0.0004645999
0.001730363
-0.0004510866
0.001928898
-0.0004568533
0.002128249
-0.0004606729
0.002324989
-0.0004530535
0.002519283
-0.0004448452
0.002712347
-0.0004407144
0.002908652
-0.0004481213
0.003105123
-0.0004455523
0.003299818
-0.0004368792
0.003494441
-0.0004326211
0.003682017
-0.0004102311
0.003866463
-0.0003992452
0.004040006
-0.0003694524
0.004209837
-0.0003610159
0.004371432
-0.0003412242
0.004519956
-0.0003075332
0.004662099
-0.0002934318
0.004797166
-0.000278189
0.004925124
-0.0002608824
0.005044806
-0.0002386793
0.00515632
-0.0002159939
0.005265023
-0.0002081359
0.00536621
-0.0001855907
0.005459891
-0.0001599995
0.005553515
-0.0001652208
0.005762803
-0.0004336878
0.005855404
-0.00015232
0.005945638
-0.0001319508
0.006028478
-0.0001031978
0.006102083
-7.163126e-05
0.00616962
-5.16758e-05
0.006230669
-3.232339e-05
0.006281806
-3.790612e-07
0.006320281
3.996265e-05
0.006348502
6.754573e-05
0.006367074
8.878638e-05
0.006372115
0.0001222015
0.006363931
0.0001542236
0.006344106
0.0001774527
0.006312334
0.0002004753
0.006267548
0.000228467
0.006209459
0.0002564897
0.00613939
0.0002767355
0.006056458
0.0002980063
0.005961005
0.0003178763
0.005853187
0.0003370214
0.005732939
0.000358028
0.005601503
0.0003742593
0.0054576
0.0003936334
0.005300512
0.0004161659
0.005128984
0.0004417307
0.004941533
0.0004696547
0.004733503
0.0005093667
0.004500621
0.0005632441
0.004233496
0.0006245795
0.003987545
0.0006983752
0.003876306
0.000342634
0.003429891
5.69429e-05
0.002572943
0.0001425462
0.0006799963
0.003670684
0.001933132
-0.003224257
0.001194354
0.002091931
-0.001516027
0.004620494
-0.004337122
0.006111119
-0.005316049
0.004180595
-0.00528602
0.000688993
-0.004898019
-0.0009324236
-0.004079284
-0.001996328
-0.002975399
-0.002723639
-0.001744934
-0.003016913
-0.0005847324
-0.00281103
0.0003927897
-0.002369892
0.001290273
-0.002118241
0.001527824
-0.000484989
0.001316558
0.0004901856
0.0009082775
0.000906293
0.0004170884
0.001083728
-0.000102689
0.001157367
-0.000587847
0.001093781
-0.000926698
0.0007822687
-0.00113954
0.000602347
-0.001143831
0.0001596483
-0.001047763
-0.0001368366
-0.0008883515
-0.0003433933
-0.0006278714
-0.0006576603
-0.000214862
-0.001201708
8.487278e-05
-0.00116041
0.0001697778
-0.0005915166
-0.0003414184
0.000867852
-0.001191338
0.002007559
-0.001756193
0.001654451
-0.002107158
0.001034467
-0.002206284
0.0003031346
-0.002062692
-0.0004208191
-0.001832525
-0.0007180147
-0.001720012
-0.0003153339
-0.001442985
-0.0004127967
-0.001315366
0.0001739055
-0.001212876
0.0001675716
-0.0009688156
-0.0004005922
-0.0005082238
-0.001072109
0.0001390208
-0.001723058
0.000522362
-0.0007677524
0.0003663405
0.0008513894
0.0005109473
-0.0007914705
0.00142576
-0.001810902
0.002342781
-0.002938163
-0.0005084324
0.003159911
-0.008690421
0.02210159
-0.009737157
0.002221462
-0.009132537
-0.001688462
-0.008902741
-0.0006433139
-0.008643086
-0.0007069416
-0.008449237
-0.0005334254
-0.008265218
-0.0005019986
-0.008109713
-0.0004326923
-0.007796635
-0.0007768196
-0.007681792
-0.0003123254
-0.007576523
-0.0002714269
-0.00747475
-0.0002587943
-0.007379552
-0.0002373931
-0.007283712
-0.0002366686
-0.007191473
-0.0002274129
-0.007098683
-0.0002253785
-0.00701181
-0.0002073378
-0.006924525
-0.0002031203
-0.006840364
-0.0001959522
-0.006753982
-0.0001995855
-0.006671371
-0.0001891906
-0.006587706
-0.0001893233
-0.006506225
-0.0001821149
-0.006426631
-0.0001737472
-0.006345929
-0.0001771652
-0.006265934
-0.0001766919
-0.006184376
-0.0001807066
-0.00610537
-0.0001730384
-0.006026061
-0.0001690518
-0.005949452
-0.0001607543
-0.005868797
-0.0001697253
-0.005790454
-0.0001660693
-0.005707869
-0.0001763018
-0.005628837
-0.0001652559
-0.005548605
-0.0001643246
-0.005467144
-0.000168468
-0.005384211
-0.0001720822
-0.005299902
-0.0001756479
-0.005216132
-0.0001704204
-0.005130651
-0.0001699057
-0.005161073
9.73594e-05
-0.005085754
-0.0001341557
-0.005014612
-0.0001381424
-0.004940588
-0.0001430566
-0.004869421
-0.0001356582
-0.004795038
-0.0001418822
-0.004722398
-0.0001366761
-0.004647923
-0.0001384612
-0.004573661
-0.0001375961
-0.004495694
-0.0001476585
-0.004417418
-0.0001486786
-0.00433962
-0.0001446172
-0.004260699
-0.0001439896
-0.004181455
-0.0001422514
-0.004096937
-0.0001559467
-0.00400968
-0.0001644465
-0.003921014
-0.0001654781
-0.003832046
-0.0001637036
-0.003736642
-0.0001774638
-0.003640485
-0.0001771045
-0.003537933
-0.0001898131
-0.003430727
-0.0001989315
-0.003317312
-0.0002085643
-0.003195958
-0.0002247252
-0.003052598
-0.0002816148
-0.002895988
-0.0003172638
-0.002733423
-0.0003272948
-0.002544174
-0.0003844474
-0.002300476
-0.0005118203
-0.001944341
-0.0008008266
-0.001442063
-0.001100082
-0.000717709
-0.00138235
0.0004121641
-0.002719912
0.001130989
-0.001812846
0.001627053
-0.001212633
0.001975193
-0.0007735676
0.002228822
-0.0005453419
0.002448251
-0.0004683806
0.002637274
-0.0003874092
0.002792986
-0.0002994543
0.002929006
-0.000256458
0.003065981
-0.0002658307
0.003193955
-0.0002454699
0.00331506
-0.0002258035
0.003424392
-0.0001960156
0.003528648
-0.0001845129
0.003626246
-0.0001719248
0.003722908
-0.0001729997
0.003815138
-0.0001632952
0.003901759
-0.0001492417
0.003984661
-0.0001431887
0.004067371
-0.0001465043
0.004146673
-0.0001389905
0.004222484
-0.0001323023
0.004299554
-0.000137778
0.004371246
-0.0001261241
0.004444795
-0.0001348275
0.004518606
-0.000139063
0.00459029
-0.0001302401
0.004657416
-0.0001180774
0.004725815
-0.0001223237
0.004792725
-0.0001236103
0.004864117
-0.0001184644
0.004836002
0.0001028712
0.004914168
-0.0001488618
0.004992818
-0.0001582709
0.005069869
-0.0001571781
0.005146183
-0.0001564077
0.005222821
-0.0001597065
0.005298957
-0.0001564972
0.005371532
-0.0001468677
0.00544577
-0.0001521539
0.005519074
-0.0001553277
0.005596631
-0.000166777
0.005669334
-0.0001525473
0.005742181
-0.0001500435
0.005814368
-0.0001517092
0.005888921
-0.0001595115
0.005962117
-0.0001578106
0.006038116
-0.0001675175
0.006115136
-0.0001713003
0.006191723
-0.0001707219
0.006270705
-0.000175704
0.006345393
-0.0001647451
0.006426616
-0.0001848961
0.006506388
-0.0001852317
0.006589331
-0.0001927162
0.00667244
-0.0001970114
0.006757965
-0.0002033229
0.006845409
-0.000213428
0.006937874
-0.0002289227
0.007029751
-0.0002289101
0.007125881
-0.0002426522
0.007228817
-0.0002656772
0.007340432
-0.0003042631
0.007636175
-0.0007353432
0.00778587
-0.0004164825
0.007961108
-0.0004783788
0.008150092
-0.0005193417
0.008401307
-0.0006789802
0.008622331
-0.0006065109
0.009196007
-0.001601491
0.001921905
0.000440873
0.0008070149
-0.0039678
0.001301145
-0.002673119
0.001863848
-0.001775336
0.002274773
-0.001184492
0.002582666
-0.000853235
0.002850039
-0.0007357532
0.003081151
-0.000618522
0.003273873
-0.0004921761
0.003442786
-0.0004253714
0.003612388
-0.0004354326
0.003770637
-0.0004037182
0.003921075
-0.0003762421
0.004057887
-0.0003328268
0.004188497
-0.0003151237
0.004311353
-0.00029478
0.004432531
-0.0002941785
0.004548928
-0.0002796914
0.004658166
-0.0002584801
0.004763379
-0.0002484011
0.004867941
-0.0002510664
0.00496848
-0.0002395295
0.005064786
-0.000228609
0.005162748
-0.0002357398
0.005253884
-0.0002172599
0.005347299
-0.0002282425
0.005441088
-0.0002328519
0.005531853
-0.0002210055
0.005617835
-0.0002040591
0.005704836
-0.000209325
0.005789953
-0.0002087268
0.00588219
-0.0002107011
0.005855468
0.0001295931
0.005952365
-0.0002457596
0.006051324
-0.0002572293
0.006147064
-0.0002529182
0.006241864
-0.0002512073
0.006337066
-0.0002549089
0.006431306
-0.000250737
0.006521417
-0.0002369788
0.00661321
-0.0002439472
0.006703778
-0.0002458954
0.0067992
-0.0002621993
0.006888787
-0.0002421346
0.006978484
-0.0002397397
0.00706752
-0.0002407456
0.007158951
-0.000250942
0.00724861
-0.0002474697
0.007341624
-0.0002605316
0.007435512
-0.0002651886
0.007528876
-0.000264086
0.007625178
-0.0002720062
0.007715823
-0.0002553895
0.007814734
-0.0002838074
0.007911078
-0.0002815752
0.008010979
-0.0002926179
0.008111284
-0.000297316
0.008213489
-0.0003055276
0.008318427
-0.0003183662
0.008428513
-0.0003390095
0.008537645
-0.0003380417
0.00865151
-0.0003565169
0.008773314
-0.0003874814
0.009090025
-0.0006209741
0.00925442
-0.0008997384
0.009427419
-0.000589481
0.009633115
-0.0006840748
0.009862159
-0.0007483861
0.01015853
-0.0009753506
0.01047265
-0.0009206301
0.0109974
-0.002126239
0.01031043
0.002608872
-0.01166054
0.01079263
0.003089376
-0.01110715
-0.002241853
-0.01078697
-0.0009634908
-0.01048418
-0.001009731
-0.01025263
-0.0007649818
-0.01003785
-0.0007167763
-0.009859946
-0.0006105958
-0.009689085
-0.000947681
-0.009357442
-0.0006439686
-0.009235078
-0.0003937903
-0.00911625
-0.000377623
-0.009005068
-0.0003485742
-0.008892871
-0.0003488657
-0.008784665
-0.0003356189