/*--------------------------------*- C++ -*----------------------------------*\
| =========                 |                                                 |
| \\      /  F ield         | OpenFOAM: The Open Source CFD Toolbox           |
|  \\    /   O peration     | Version:  2406                                  |
|   \\  /    A nd           | Website:  www.openfoam.com                      |
|    \\/     M anipulation  |                                                 |
\*---------------------------------------------------------------------------*/
FoamFile
{
    version     2.0;
    format      ascii;
    arch        "LSB;label=32;scalar=64";
    class       volScalarField;
    location    "3.36";
    object      p;
}
// * * * * * * * * * * * * * * * * * * * * * * * * * * * * * * * * * * * * * //

dimensions      [0 2 -2 0 0 0 0];

internalField   nonuniform List<scalar> 
15536
(
-46.07528
-43.18893
-38.84059
-33.70871
-28.75281
-24.70808
-21.91458
-20.36879
-20.08096
-20.49236
-21.74922
-23.55123
-25.16019
-26.1625
-26.13495
-25.31989
-24.99747
-26.12019
-27.78767
-29.82155
-35.41035
-47.02893
-59.8166
-66.4438
-57.61921
-34.51609
-13.97825
-8.804566
-19.91347
-34.54445
-42.5085
-48.90811
-67.36005
-105.813
-138.5128
-123.3512
-78.33989
-77.72224
-92.56648
-93.56476
-94.4419
-98.34283
-101.3822
-102.8841
-103.2893
-102.5947
-100.9612
-98.34253
-95.22098
-91.74784
-87.58887
-82.8511
-77.50027
-71.77776
-65.62984
-59.13043
-52.60686
-45.98042
-39.01394
-31.88952
-24.88841
-18.02409
-11.19149
-4.449387
2.070339
8.454163
14.54326
20.31106
25.65188
30.5695
35.02244
39.01248
42.50432
45.42433
47.73403
49.53229
50.69102
51.2567
51.26365
50.79579
49.56128
47.66678
45.1922
42.13537
38.51692
34.35733
29.72529
24.53237
18.94266
13.00278
6.561227
-0.1930489
-7.196458
-14.63085
-22.21135
-29.73867
-37.43776
-45.28752
-53.09623
-60.95293
-68.68774
-76.11402
-83.18709
-89.99611
-96.66841
-102.8861
-108.6244
-113.8362
-118.54
-122.8085
-126.3467
-129.074
-131.0492
-132.2536
-132.5682
-131.6788
-129.3553
-125.3142
-119.9481
-115.8866
-115.8953
-105.3864
-90.01416
-130.1933
-170.2835
-144.4974
-90.71895
-60.83021
-50.1654
-40.8002
-22.7769
-4.454933
-13.43846
-48.93309
-76.90467
-91.75666
-84.88025
-61.82871
-39.08091
-23.5277
-16.19617
-16.58947
-17.39109
-18.98762
-23.36784
-28.49086
-30.96426
-28.45804
-24.19074
-25.60882
-35.54775
-43.19145
-40.24925
-38.21489
-41.82567
-45.26572
-46.84565
-45.77689
-42.82331
-38.47373
-33.40345
-28.51623
-24.53657
-21.80035
-20.29637
-20.03982
-20.4652
-21.7208
-23.52112
-25.12443
-26.12435
-26.08826
-25.2865
-24.96945
-26.09165
-27.7707
-29.82336
-35.4474
-47.05502
-59.79005
-66.38986
-57.6218
-34.50273
-13.91891
-8.74015
-20.00008
-34.5925
-42.52355
-48.85664
-67.30305
-105.8401
-138.6015
-123.3031
-78.25759
-77.67146
-92.51744
-93.49896
-94.06691
-97.62629
-100.3825
-101.6601
-101.9639
-101.2314
-99.58273
-96.96113
-93.84581
-90.39812
-86.27025
-81.57135
-76.26294
-70.5906
-64.49975
-58.05977
-51.59644
-45.03521
-38.13947
-31.08217
-24.14879
-17.35312
-10.58641
-3.909515
2.546124
8.865627
14.89234
20.6031
25.89158
30.75998
35.16904
39.12047
42.57862
45.47238
47.76005
49.5425
50.69188
51.25385
51.26095
50.79603
49.57074
47.69422
45.24341
42.2158
38.63236
34.51386
29.92776
24.78643
19.25534
13.37403
6.99649
0.3139827
-6.61957
-13.98486
-21.48852
-28.93901
-36.56277
-44.33346
-52.06377
-59.84326
-67.50269
-74.85421
-81.85651
-88.6035
-95.21809
-101.3787
-107.0684
-112.2351
-116.9017
-121.1433
-124.6599
-127.3799
-129.3664
-130.5974
-130.9614
-130.1636
-128.0279
-124.3119
-119.3207
-115.6616
-115.838
-105.2557
-89.99742
-129.9808
-170.399
-144.5505
-90.63553
-60.75068
-50.14915
-40.90894
-22.88443
-4.449111
-13.45433
-49.00355
-76.80915
-91.49028
-84.64411
-61.77479
-39.12166
-23.59439
-16.19374
-16.52688
-17.32324
-18.92364
-23.29879
-28.42361
-30.95426
-28.47519
-24.18497
-25.69654
-35.62837
-43.19357
-40.18778
-38.19718
-41.80688
-45.18786
-46.64592
-45.5014
-42.57625
-38.25933
-33.21879
-28.36894
-24.42569
-21.72737
-20.24535
-20.01354
-20.44058
-21.6926
-23.50004
-25.10538
-26.10674
-26.07885
-25.26328
-24.92215
-26.02975
-27.75387
-29.85542
-35.56209
-47.17421
-59.90258
-66.61144
-57.86763
-34.75588
-13.99343
-8.565899
-20.06526
-34.60725
-42.50335
-48.86751
-67.36693
-106.1107
-139.0713
-123.7387
-78.48116
-77.37659
-91.46726
-92.79146
-93.53564
-96.83678
-99.44528
-100.7441
-101.1275
-100.423
-98.81373
-96.21233
-93.10976
-89.69031
-85.57317
-80.89877
-75.61398
-69.97114
-63.91693
-57.49165
-51.05555
-44.53532
-37.66477
-30.63689
-23.73494
-16.97793
-10.24828
-3.599275
2.817269
9.108704
15.10236
20.78279
26.04216
30.88353
35.26551
39.19249
42.62861
45.50609
47.77525
49.54594
50.68769
51.24574
51.25324
50.79127
49.57297
47.71106
45.27719
42.26943
38.70948
34.61665
30.06
24.94424
19.44603
13.59924
7.251223
0.6058736
-6.288851
-13.62193
-21.08759
-28.49355
-36.08258
-43.81937
-51.50462
-59.26054
-66.88443
-74.20618
-81.18021
-87.88394
-94.46992
-100.5933
-106.259
-111.4003
-116.043
-120.269
-123.7605
-126.4522
-128.4059
-129.608
-129.9381
-129.0732
-126.8567
-123.2237
-118.549
-115.0357
-114.7295
-104.4385
-90.2586
-130.3256
-171.0233
-144.9859
-90.75687
-60.78586
-50.16268
-40.92489
-22.91429
-4.237085
-13.72752
-49.86386
-77.07043
-91.55103
-84.72254
-61.862
-39.27228
-23.77888
-16.24857
-16.50004
-17.19418
-18.81367
-23.24461
-28.42223
-31.06679
-28.70769
-24.10163
-25.77665
-35.83093
-43.31423
-40.24834
-38.28248
-41.82445
-45.09357
-46.4266
-45.12182
-42.18911
-37.92294
-32.94889
-28.16624
-24.27993
-21.63898
-20.18498
-19.98698
-20.41174
-21.64932
-23.47852
-25.0875
-26.08468
-26.0518
-25.22801
-24.85438
-25.95131
-27.74532
-29.93295
-35.77662
-47.41569
-60.18491
-66.95904
-58.34178
-35.31589
-14.27257
-8.254325
-19.97989
-34.4455
-42.3823
-48.92164
-67.54632
-106.4651
-139.6356
-124.3075
-79.72769
-77.44025
-90.02952
-91.59037
-92.71906
-95.72373
-98.07424
-99.14833
-99.37138
-98.61942
-97.02862
-94.44953
-91.37073
-87.99535
-83.95007
-79.35041
-74.13774
-68.56882
-62.59667
-56.25576
-49.89698
-43.46407
-36.69287
-29.74238
-22.91874
-16.24668
-9.600944
-3.025386
3.310595
9.533022
15.45792
21.08031
26.2814
31.06893
35.40382
39.29087
42.69209
45.54518
47.78752
49.54329
50.67597
51.22958
51.23801
50.7787
49.56682
47.72556
45.31578
42.33716
38.81389
34.76466
30.26048
25.19359
19.762
13.98126
7.697502
1.137321
-5.678422
-12.94115
-20.30661
-27.61927
-35.12472
-42.76169
-50.34918
-58.01137
-65.5391
-72.75586
-79.62599
-86.25097
-92.75568
-98.78495
-104.3739
-109.4317
-114.0115
-118.1892
-121.6349
-124.2833
-126.2178
-127.4324
-127.8067
-127.0733
-125.0876
-121.703
-117.4432
-113.9946
-113.0107
-103.6586
-91.55308
-131.3205
-171.5969
-145.3901
-91.1046
-60.92348
-50.09396
-40.70665
-22.65913
-3.723303
-14.34517
-51.54001
-77.51878
-91.79666
-85.05367
-62.1228
-39.55622
-24.10677
-16.39043
-16.4962
-17.04447
-18.65744
-23.17157
-28.44326
-31.28158
-29.171
-23.78958
-25.68246
-36.09398
-43.50694
-40.48646
-38.63202
-42.02306
-45.04082
-46.17413
-44.80951
-41.85661
-37.63692
-32.7218
-27.99353
-24.15511
-21.57354
-20.13935
-19.97626
-20.39242
-21.61456
-23.47433
-25.08916
-26.08516
-26.04339
-25.18972
-24.76702
-25.84291
-27.72995
-30.05752
-36.11591
-47.82742
-60.71741
-67.67862
-59.10665
-36.13371
-14.80602
-7.937952
-19.66825
-33.96615
-42.15906
-49.08651
-67.73611
-106.5574
-139.6667
-124.4076
-81.96225
-78.53091
-88.7915
-90.33669
-91.77669
-94.57659
-96.78937
-97.79159
-98.14077
-97.3888
-95.82314
-93.24193
-90.11593
-86.79309
-82.73276
-78.16368
-72.95829
-67.43224
-61.52128
-55.20124
-48.88837
-42.53638
-35.82597
-28.92082
-22.1574
-15.56548
-8.989907
-2.466185
3.791648
9.959094
15.82017
21.38492
26.52362
31.26144
35.54859
39.39337
42.75186
45.57748
47.78999
49.52824
50.65148
51.20027
51.21023
50.75136
49.54325
47.7314
45.35357
42.40794
38.92386
34.91807
30.46807
25.4475
20.08842
14.36829
8.132887
1.663596
-5.074705
-12.29827
-19.57725
-26.79945
-34.24636
-41.81539
-49.31044
-56.92451
-64.39201
-71.54565
-78.35951
-84.92323
-91.39867
-97.37082
-102.9394
-107.9635
-112.5177
-116.7223
-120.1204
-122.7807
-124.7266
-125.9524
-126.3177
-125.4786
-123.4592
-120.1955
-116.2357
-112.832
-111.3684
-103.6955
-94.45374
-132.2052
-170.9555
-145.0043
-91.34181
-61.24462
-49.96948
-40.06269
-22.03365
-3.116367
-15.33609
-53.88295
-78.2373
-92.41548
-85.73179
-62.62054
-40.01389
-24.60509
-16.62175
-16.50543
-16.83689
-18.48001
-23.10625
-28.5243
-31.63435
-29.78965
-23.1937
-25.30426
-36.16665
-43.53153
-40.83349
-39.31645
-42.38831
-45.01912
-45.93891
-44.48912
-41.52202
-37.36815
-32.50837
-27.8362
-24.05361
-21.54887
-20.12761
-19.99678
-20.38446
-21.57543
-23.49597
-25.11807
-26.10577
-26.04575
-25.15044
-24.66271
-25.69338
-27.66226
-30.19615
-36.62036
-48.48906
-61.64705
-68.89096
-60.30651
-37.27038
-15.76986
-7.906981
-19.204
-33.29071
-41.87513
-49.34258
-67.6181
-104.9502
-136.3226
-122.2656
-84.21221
-80.11451
-87.56171
-88.96435
-90.50529
-92.99237
-94.96155
-95.66632
-95.85674
-95.00187
-93.53463
-91.00765
-87.92043
-84.73704
-80.76471
-76.31419
-71.19489
-65.75469
-59.9469
-53.70296
-47.49724
-41.2722
-34.65202
-27.82938
-21.1751
-14.68643
-8.208678
-1.759675
4.386122
10.48262
16.25325
21.72914
26.79853
31.48669
35.7139
39.50454
42.80401
45.60483
47.77977
49.49214
50.60723
51.15002
51.16121
50.70125
49.49931
47.72011
45.38571
42.48286
39.04663
35.09446
30.70405
25.73121
20.47792
14.84329
8.647727
2.288554
-4.30974
-11.47488
-18.65028
-25.73194
-33.07174
-40.54829
-47.91768
-55.42398
-62.77964
-69.8177
-76.49925
-82.95457
-89.35401
-95.18742
-100.6681
-105.5713
-110.0293
-114.1445
-117.4571
-120.0084
-121.8017
-123.0491
-123.5025
-122.8747
-121.0905
-118.0959
-114.564
-111.3914
-109.6683
-104.0195
-97.80706
-130.7761
-165.6171
-141.1641
-90.73032
-61.74674
-49.87266
-39.28541
-21.19249
-2.988245
-16.95381
-56.95736
-79.29847
-93.54792
-86.94562
-63.54397
-40.68861
-25.25983
-16.86832
-16.41328
-16.64534
-18.22083
-23.04182
-28.67633
-32.14849
-30.53597
-22.46694
-24.67106
-35.68913
-43.01268
-41.08941
-40.17471
-42.8213
-45.02136
-45.71705
-44.21394
-41.24973
-37.15115
-32.29285
-27.72593
-24.00852
-21.59366
-20.17532
-20.10868
-20.42914
-21.60609
-23.5796
-25.19121
-26.15737
-26.07147
-25.11268
-24.53127
-25.44684
-27.4806
-30.23571
-37.27571
-49.45857
-63.19598
-70.87394
-62.15848
-38.80572
-17.55024
-8.585671
-19.08357
-32.53376
-41.45507
-49.66244
-67.0101
-100.4484
-126.8124
-116.1003
-85.32197
-81.30217
-86.17157
-87.5438
-89.12897
-91.35737
-93.22497
-93.74071
-94.0932
-93.17149
-91.67904
-89.09636
-85.90864
-82.82567
-78.82315
-74.47757
-69.37571
-63.95217
-58.27025
-52.14462
-46.00367
-39.84051
-33.35674
-26.6656
-20.09225
-13.65108
-7.348672
-0.9693437
5.040424
11.06754
16.7124
22.0994
27.16004
31.74253
35.87827
39.5941
42.83651
45.6597
47.75337
49.43365
50.53862
51.06987
51.08293
50.63735
49.45281
47.66512
45.36457
42.51885
39.14774
35.288
30.97742
26.02868
20.88908
15.39414
9.283782
2.96971
-3.517072
-10.51242
-17.59989
-24.58094
-31.78878
-39.08479
-46.41167
-53.83364
-61.01241
-67.97952
-74.51315
-80.87057
-87.23987
-92.94079
-98.39962
-103.1951
-107.6402
-111.8205
-115.0568
-117.6555
-119.688
-120.9264
-121.3116
-120.5685
-118.8392
-116.0007
-112.8234
-109.8606
-107.9164
-103.9127
-99.97379
-125.5449
-153.7664
-132.7386
-88.91308
-62.30312
-49.97219
-38.66524
-20.96345
-4.211077
-19.82165
-60.75266
-80.81702
-95.5039
-89.10374
-65.16503
-41.4553
-25.87975
-17.01027
-16.06293
-15.91106
-17.8999
-23.07881
-29.00726
-32.80595
-31.40513
-22.00985
-23.87835
-34.8523
-41.93274
-41.20785
-41.02881
-43.25661
-45.05684
-45.53339
-44.07779
-41.14355
-36.98466
-32.13651
-27.7384
-24.04603
-21.6818
-20.26566
-20.35422
-20.64494
-21.75131
-23.77505
-25.33806
-26.25088
-26.1233
-25.05111
-24.3624
-25.07759
-27.05053
-30.06687
-37.82632
-50.60067
-65.58195
-74.09348
-65.06928
-41.10362
-20.57411
-10.24314
-19.55641
-31.84949
-41.30575
-50.53609
-66.04704
-93.79281
-115.1018
-107.7867
-85.14946
-81.6354
-84.45266
-85.8018
-87.26258
-89.09856
-90.92633
-90.8585
-91.05566
-90.16717
-88.81282
-86.48224
-83.08978
-80.19661
-76.3351
-72.17056
-67.03714
-61.69251
-56.37312
-50.41276
-44.0294
-38.04322
-31.95908
-25.43295
-18.68529
-12.36957
-6.472035
-0.0636498
5.729168
11.73026
17.13479
22.60848
27.6715
31.99245
36.00885
39.62301
42.84965
45.71518
47.66464
49.36168
50.43852
50.95268
50.98037
50.56872
49.36555
47.56703
45.25975
42.48433
39.18971
35.44373
31.32732
26.36383
21.30614
15.98199
10.19819
3.937353
-2.803889
-9.481044
-16.2011
-23.32534
-30.45362
-37.27256
-44.44526
-52.16896
-58.86077
-65.83444
-72.17781
-78.34015
-84.70402
-90.12668
-95.62544
-100.1368
-104.4299
-108.6538
-111.7054
-114.171
-115.7955
-117.1222
-117.7279
-117.1268
-115.6367
-113.0532
-110.424
-107.8355
-105.9191
-103.0572
-100.7135
-118.5646
-139.6115
-122.1761
-86.48126
-62.33287
-50.07413
-38.44341
-21.90992
-7.437087
-24.54199
-65.3828
-83.02745
-98.71252
-92.65624
-67.05815
-41.86121
-26.17511
-16.76611
-15.37966
-15.13847
-17.3797
-22.44556
-29.44711
-33.77807
-32.3912
-22.47297
-23.66491
-34.09226
-40.89667
-41.37952
-41.81537
-43.67627
-45.15662
-45.44833
1.436183
0.8735313
-35.2982
-23.33012
10.87697
-19.78269
1.389448
0.6089475
9.629389
-1.522009
-1.188244
0.8958259
-0.3322507
0.4743622
0.464011
2.549981
-18.58993
-3.158342
0.6215024
0.356966
-56.6492
-19.12496
1.874646
-1.73324
1.150694
1.31691
0.3337825
-1.271144
-7.126549
0.7640404
1.128145
-20.55049
-3.157636
2.0395
0.877197
-4.886293
2.382927
0.1378673
1.394412
-6.013929
-22.10658
1.890307
0.7291523
3.062512
32.05001
1.150866
0.4573047
1.743021
-6.104031
-1.2191
-2.031201
-3.965208
-15.68454
0.652531
0.3530104
21.23503
-5.165664
0.1942036
-13.1952
-22.05438
-1.232398
0.0241715
-17.30718
0.9534799
-7.048879
1.131641
-31.09764
-0.1871731
1.16715
-0.7423007
-0.3230839
0.1218172
14.2827
-53.51204
21.66999
0.3264698
3.810172
-2.699944
-14.32027
0.724256
-22.73954
0.3364597
2.929462
1.126179
-11.2207
0.7731593
-0.7375472
0.3128573
-37.18318
1.764532
-17.52657
22.25417
-6.682614
0.9699802
1.000208
1.160382
-15.27918
5.512651
-40.85734
1.014144
0.8745616
0.337835
0.8905771
-89.84425
-0.1122189
-17.62988
-0.1898531
0.8570595
-4.324944
-9.371083
0.5227192
0.701488
1.245526
7.043867
-21.86168
0.06889374
0.619559
0.7079811
20.52094
0.7345887
2.341846
0.5032677
-0.3929906
-4.366545
-3.070725
-9.095555
0.284874
-36.67988
1.015744
1.214852
0.3309196
-4.302963
0.7895787
0.4805233
2.035973
-23.3135
0.2123137
5.796681
0.9321786
0.631661
-35.88216
0.4409128
-66.52701
0.9796331
-0.5101398
-7.197227
0.08397444
-44.54771
0.1976373
-0.2255213
-3.86727
-19.2082
-48.51515
-1.202491
-22.05885
-37.88511
0.7737647
0.9283272
0.7422653
-29.15159
0.7350814
-22.43153
-1.760035
-0.4603085
0.4812787
-13.72912
-22.45944
1.692
-31.92798
-1.054647
1.272665
18.18391
3.837773
-38.32321
-7.090216
-10.81372
2.051016
1.059959
-49.14267
1.442939
15.16545
0.7728791
1.089411
0.7606639
3.387328
-47.3739
1.798292
0.3290458
-7.117692
0.8804104
0.1483309
0.7333947
-9.424052
-1.975439
0.06588849
0.7166178
-2.155368
0.2927781
-5.09543
-34.13586
0.1838046
-7.10066
1.191701
-35.85641
1.025346
-3.349719
-7.623754
0.2455642
-9.371823
-0.5915969
0.9706407
-0.1002777
-5.741559
-19.33795
0.9490192
-7.304723
-11.98034
0.4198839
4.644859
0.6515631
1.301806
-1.365843
2.632782
-9.77172
-3.135117
-1.024336
1.3957
7.570255
1.314964
17.9545
-2.514153
-37.86829
2.785693
-0.4305464
-82.57365
0.5669292
25.24388
-1.104455
2.169803
0.1262288
0.382662
0.9052135
-0.5654367
-9.955555
0.7518134
-15.71847
1.254178
-43.17689
0.7014577
0.4366313
-33.07991
0.9192669
0.1957643
0.4273867
2.721461
-27.29754
1.071762
0.4677618
-12.54115
-4.886842
-4.933354
0.3048209
-4.927844
-1.199584
-0.1629137
2.032549
0.6799501
0.120529
5.650014
-26.59304
0.7296789
0.7692899
12.15962
-0.5837136
-0.7099624
3.014402
1.388429
-27.03522
-49.54828
0.4483784
1.358185
0.8586182
-4.782805
1.235715
0.9739991
0.8516855
35.74387
0.06333995
1.694578
-5.072083
1.074257
-0.4183886
0.9594407
1.370556
-38.14502
1.275466
-19.82349
-0.2809731
0.6695348
0.01228101
-43.46602
1.994206
1.682879
-42.48084
-0.2465739
-0.1302966
-4.540951
1.170829
-5.4521
-7.275167
0.3495029
-0.01704177
1.008282
1.454042
-0.1715007
-12.89541
33.95551
-52.27293
-32.05688
-67.25692
-0.5979806
-2.227052
-0.037553
-2.236529
0.5945297
1.036427
0.8019611
0.4065561
1.076148
0.8129214
17.89156
0.07538941
-8.030251
-55.44468
1.288137
1.616019
1.572576
-0.9722775
-4.214827
0.8138657
-46.22489
-0.2385021
0.7602669
0.2024422
-13.74827
4.107508
-18.40938
0.02123357
-11.4482
0.6597774
1.449577
-4.67838
12.76686
0.7513593
-0.5347962
-38.52699
-54.25182
-1.696153
0.8544976
0.8594781
1.706912
1.459035
-0.003633797
1.971391
0.4755441
1.76837
1.402447
1.113312
0.9403536
1.145059
-3.237346
12.0353
-38.79792
1.045694
1.765293
1.058996
0.6116277
1.74475
0.3531849
0.8320638
1.035402
1.369664
-0.1434384
-12.98022
-0.07605746
1.340851
1.672653
37.67587
1.881633
-7.299676
-5.305964
0.5566303
2.164587
-35.20933
-0.2121313
-0.8131112
0.8864337
-17.3999
1.024035
0.9732593
1.778127
0.2977482
-29.56014
-2.869879
-6.719797
-7.807127
-37.07776
-52.38293
1.630139
0.6644577
0.7661913
0.4951423
-2.238419
0.6359273
1.688572
-0.5692198
1.93236
-27.87756
0.740156
-16.2238
0.4227718
0.2842976
3.69833
1.031446
-0.01273537
-26.91322
0.8485534
0.8887393
-35.85108
-3.569088
-4.114013
-0.3658218
0.3546276
0.7973013
0.9039132
0.006504156
-0.4327628
-6.022806
0.323477
0.3712178
-20.1188
-1.563398
2.319394
0.8073981
-4.744384
0.9825992
0.06151668
-0.1167728
0.3498563
-0.1018169
0.6266081
-41.93135
-0.1998754
-9.377432
1.213636
-3.561721
0.07168987
4.382984
0.9431166
-20.79528
0.6774212
-37.6749
-0.08930853
1.436502
-0.274291
0.1681125
26.16901
0.7311196
3.252843
-1.648193
-11.06157
-0.7279124
0.8863896
7.344305
-3.274862
-8.40967
-2.382332
-35.43738
-1.451947
0.5641954
-8.762678
1.136176
1.018817
0.8424542
1.203347
1.341568
-0.02562834
15.96039
1.178134
1.353066
0.09741259
-24.82121
-1.305231
-0.3135342
-20.00762
0.8814468
0.8067281
3.645865
1.250251
3.423395
1.261753
0.901041
1.168442
-5.125459
2.051643
0.942644
0.5484865
0.5217326
-2.143546
-9.810825
-25.03876
2.815013
13.90364
-2.071299
0.6146431
1.188738
-1.145061
0.4042951
-0.9505246
0.7243438
0.9488474
0.6433231
-8.558412
-7.511402
1.337
0.178078
0.3025684
3.728912
0.7763097
1.044462
-27.23228
-2.095361
-25.66805
0.4465679
3.814763
4.173923
3.132395
0.8378964
1.091112
0.5158234
4.257752
1.002289
0.3880522
0.5953668
-48.08529
2.334128
3.549324
-7.837415
0.1577299
7.635527
1.081489
6.15472
-3.623381
-3.648803
-11.01047
-2.097105
0.4864808
-5.199097
15.44158
-5.65232
1.032041
-6.552073
0.6844898
1.10845
0.5411139
0.8776946
0.8724785
6.741883
30.28764
-7.322065
0.9336941
4.1919
2.319043
-63.48992
0.8476672
2.546804
1.263502
2.460026
1.33714
-5.293054
-1.49299
0.1124621
5.501575
-0.01862014
-15.71163
-23.26536
0.5938155
0.9103401
-81.99265
-4.164165
-0.4979878
-20.87735
0.5675689
0.4798644
0.9326661
0.7752875
0.9248199
-54.2929
0.5746797
1.023148
0.9571501
2.128185
0.8760039
0.1138867
0.5191317
-17.12177
-8.393892
0.8828942
-20.76596
1.65378
4.471541
0.2678839
-38.19579
0.7451937
8.321629
-14.69404
-0.2812663
-0.5823667
-8.537812
3.612029
2.035074
-3.112525
0.7523273
1.595199
1.309599
17.47378
2.366051
0.377018
1.321116
-2.484003
-0.2834979
-43.48636
-15.01373
-10.84787
-40.12428
-8.745229
-15.19426
0.5635663
-0.5715999
1.075133
0.933179
-0.9180322
0.6638189
-2.697761
2.140391
0.7568244
1.34955
-51.55016
1.559792
25.07171
3.850212
-30.53137
2.167262
1.204518
6.716209
-2.982454
-22.25574
0.813979
1.072507
-20.10756
0.03317324
0.3563691
0.4349264
0.9925407
-14.85717
0.121487
-2.537615
1.859884
1.019902
-2.999738
0.8371684
0.7452476
-86.66109
1.206067
0.7717468
3.596287
-37.15332
0.8122476
0.08899656
6.077259
13.72673
9.920704
1.868038
-0.6511583
0.98392
1.477613
1.131043
-2.869232
2.50879
1.066501
-21.0872
0.34976
-47.16078
-13.46381
1.326587
1.53709
-37.66593
1.695987
0.5861743
-0.03678434
1.973198
-10.97471
-0.7081974
-3.638566
3.84038
-14.17046
1.571266
0.8902675
-20.89215
0.1703301
0.9227191
0.5197888
1.883094
0.5591739
-3.316959
0.1474291
1.089373
-43.77134
1.589637
1.46741
1.005527
0.6926064
0.1900345
0.8904053
1.695497
0.5327918
0.8790767
-27.23976
0.9600551
0.8782948
0.6434975
0.6527427
0.9513511
0.9760688
1.889361
1.272396
2.015032
3.564657
-30.32553
0.5600617
-0.1175015
1.008874
0.6734074
0.5770177
2.687048
0.218863
-53.30647
2.327131
-2.132297
7.936666
1.24391
-10.73281
-9.915218
-2.619184
1.215426
-19.41127
-0.3222397
-9.310184
-16.31203
-5.911788
-4.545982
-0.5992386
1.760447
12.70044
1.401544
0.6938954
-42.85263
1.294827
0.8568886
0.8609782
-10.39242
22.44147
3.78203
0.1018211
2.043589
0.6032752
0.9126287
1.020147
-1.088535
1.182358
-0.8962259
-1.350119
0.7815762
-0.8960596
4.596908
0.9147877
0.2281364
-9.31477
1.000286
0.1797369
-0.7107532
12.86681
30.44269
-7.43594
0.8089829
0.5504809
1.041658
1.164029
0.4976291
-55.14003
0.5296977
-56.63661
-5.963327
-0.3122394
0.6751115
0.8099392
-5.094784
0.5970408
0.1138366
0.741777
0.8414582
-6.590458
-50.40108
1.383035
-1.127694
-0.2762867
0.6067784
-0.872718
1.988691
-9.915616
-3.605027
14.9195
1.158298
0.8135986
-0.07611
-0.1216444
1.821557
-0.1623589
-1.017651
0.2416649
-26.11133
1.010211
8.143984
-27.39936
1.124866
0.007046909
-5.97345
0.9163991
0.8088699
1.05014
-0.8929692
-0.1896085
0.324319
2.758747
1.581435
2.103414
3.379927
-0.3412323
-4.859385
30.17955
0.8031198
-2.364298
1.793276
-62.83892
1.139691
0.9054273
0.9371781
0.8147418
32.35211
-0.2377481
1.230185
0.5882846
0.8201505
1.760833
1.03893
0.7843665
0.8198652
-19.65163
-16.11634
0.7713403
-1.425424
-16.32891
0.9972931
0.4607133
0.6822533
-13.16145
4.848941
29.30942
-0.1482187
0.7775738
-0.5742966
-1.470322
-1.005506
10.0307
-1.604135
0.8658821
1.348734
-0.3851405
0.6773481
0.9277055
-16.31775
-6.218926
-10.32781
-25.39733
2.819263
-10.24915
1.249848
-2.329143
-13.83949
4.106125
-8.188698
-1.442255
-1.967337
8.999924
-24.37974
5.377584
0.9855078
0.7519685
-9.113618
27.33273
0.2263272
-0.1830038
-2.331321
-35.47567
-0.3671605
0.7958519
3.021055
0.6875622
0.1633186
-26.49964
-2.890088
1.807574
-10.8619
-8.993536
0.4166334
-34.44971
-18.47093
-45.71593
2.675723
-44.64443
0.6052491
-0.2116476
-16.28715
0.8197639
-1.482517
-32.35929
-0.02388835
0.7868128
-6.896373
2.574736
1.225541
-49.77722
-44.13999
2.871787
16.36867
0.5469679
0.0972614
-23.10093
16.5068
-27.71622
0.2744352
0.3847364
2.262074
2.490471
1.671017
0.4812284
1.469226
1.005595
-0.01648899
-62.96723
-78.51802
1.243507
0.9497527
2.456983
0.9828379
0.662519
2.623726
0.801498
0.7045412
0.9466239
0.8556812
0.5968488
3.51516
0.8503536
-18.93181
0.6953572
0.6519633
-30.60896
1.298515
0.7528909
-1.239604
-30.19886
-0.2695923
-2.899025
2.483332
-11.18392
-34.19391
34.27746
47.40905
1.56221
0.5499168
-12.40709
5.80022
1.285519
0.8707995
10.64873
-35.09254
1.441508
1.153021
-0.8005761
2.088161
0.966715
1.143595
-1.833099
-20.97597
-60.82441
-3.0163
1.607818
1.272251
1.823546
1.821849
-1.958745
0.7338205
0.8883262
0.6174914
0.134752
-1.747086
1.4664
-33.27024
-20.19661
1.327341
0.9787947
-11.20509
1.530078
0.2950368
1.458412
0.5676439
-47.4615
0.4428745
-4.340424
-64.15693
-0.2055132
-0.6681734
-56.08449
-69.56039
0.5727463
0.00308059
1.109111
0.7223941
0.005424265
-3.596509
1.052545
1.025892
1.087615
-7.576658
0.7488539
-1.763686
0.1768912
3.046865
0.5383191
0.6741215
0.6150131
0.2600676
-0.1986437
0.6775563
0.7648935
-2.885188
0.4370085
0.9605679
3.537037
0.02693604
1.412195
-1.036203
0.3927851
-1.876137
-24.34692
-19.08763
-1.079923
1.024925
0.7943096
0.512503
-30.81934
-12.64019
4.105643
-33.7747
23.06375
1.840039
2.780158
-17.94691
-23.00555
0.3568634
3.261864
-69.61123
-1.534114
0.5026605
-9.190115
-0.4846398
5.672589
0.4683756
1.621833
16.19786
-14.33828
-28.88131
1.422617
-9.947948
34.78921
-13.23154
-7.702832
0.9024025
1.968601
1.166608
7.798865
0.9758294
7.214049
-0.2351171
-0.7504422
-6.763507
-5.059886
-2.860401
0.8354114
-17.44813
0.9602921
-67.09789
7.938661
2.095914
16.3559
1.25348
29.1419
-8.272432
-5.166272
-0.8627792
-0.03899075
14.18259
-9.340914
-53.61343
1.274222
0.8459663
0.5861405
0.6901917
1.849193
-8.432055
1.049988
0.8100701
-29.3229
-0.1890194
16.61627
-60.8882
1.819425
-43.87398
-13.9821
-2.785384
-27.23503
37.67401
-0.2375347
1.228431
-40.94063
1.368144
1.238016
-0.7153194
-0.6867911
-17.12221
-83.23282
-3.226338
0.6132748
1.761506
0.8318007
0.7742348
1.357661
1.506248
7.22614
3.190092
0.1951288
0.7608591
0.7734974
-5.859566
-11.2421
-11.8182
0.9400579
0.8390458
-41.20934
0.3951856
1.852604
0.7322735
-1.30439
-30.72915
1.600631
1.297008
1.550587
0.84179
-1.942369
-4.996465
0.7399052
1.01174
-47.40942
23.88081
-2.601949
0.5367288
3.20986
-1.627892
0.6050446
0.336908
1.224278
0.07951515
-6.381956
-15.94903
0.7295515
-17.31886
0.8909406
-12.33969
0.4964259
0.9438084
-0.8457603
0.2760131
-6.161267
-18.31816
-51.68186
-5.996863
0.951116
-8.319188
-0.5571823
-0.01077942
0.3192144
-49.67013
1.319378
0.6828847
0.1030506
-6.926314
0.7449985
-6.014342
2.419583
-50.66642
-0.2070876
1.214145
1.218532
-61.27634
1.448613
-36.58669
1.157516
1.387003
0.07960682
0.003469334
2.561752
-34.77129
-39.95195
0.7098892
0.7350372
-14.2783
-19.6822
2.738333
2.32683
1.733686
0.1293881
0.1513665
0.8186369
-46.61906
-12.73645
-5.929125
0.2928783
0.8070707
-1.015886
0.3600546
1.341447
0.586608
-8.829166
0.07441698
0.768461
8.224809
0.9042037
-14.08238
0.8773878
-1.803826
-1.596674
-22.15914
0.5390699
-0.08489318
0.137897
-19.93837
-5.8275
-15.41874
1.16974
-10.28863
1.241578
-11.15194
-3.427353
0.5387188
16.1086
1.075074
-11.78975
-77.99831
0.7871933
0.265322
-2.146626
0.4782374
0.2702725
0.645283
1.825504
1.976191
0.8411768
-17.75952
-0.02296945
1.281802
1.075318
2.296173
-1.261585
0.5471562
2.072631
1.256407
0.3635368
-24.5261
0.2379431
2.287076
0.6446473
-2.173389
-27.48102
-14.67793
-1.842272
-3.992866
-0.284523
0.9227643
-29.96545
-3.429213
0.9461081
0.8490718
-0.2128502
11.6122
-58.9148
-15.28456
-0.124581
-0.3911718
19.14092
-2.923508
0.8350952
1.079439
-0.9783593
-4.463943
-41.05476
-32.49873
-20.70904
10.37346
7.651208
-1.329769
-50.63134
-49.24993
-74.55116
2.168086
-3.12491
-0.1745819
0.6802826
0.7975851
-0.5703917
0.7781659
-2.806444
0.9647381
0.9668772
0.9765098
0.742126
-28.91732
0.772818
0.9608655
-0.5009886
-25.2116
19.50356
0.5992286
-18.46186
-38.07101
-7.686098
5.786884
-5.643544
-5.548669
-14.15499
-67.45308
0.2844588
-33.94878
0.9544566
-46.2685
-18.48011
1.662421
1.243009
-22.16686
0.9272261
14.1122
0.6233671
1.065089
2.371184
0.2331262
-24.55121
1.019244
0.3660243
0.6686837
0.9858224
-40.7203
1.231434
0.5971026
1.121677
1.040746
1.025627
-24.09348
-8.914408
-37.98977
0.2114158
1.626545
21.24722
-0.8542935
0.8394997
-56.33494
-0.3582811
-66.55963
1.690624
1.163578
1.082408
0.9945453
-16.35583
-1.472259
1.551466
-2.065385
0.656627
1.318574
-0.4760163
22.27785
1.894435
-14.18245
2.866913
-7.843924
1.065409
-83.20288
1.166187
0.968878
3.056711
1.995151
-1.344428
-57.96534
-46.51255
-54.27912
-0.0720059
-3.843131
-60.7946
1.44098
-8.670028
0.7383634
0.8203483
-9.043485
-38.22738
1.644379
-59.75115
0.1312621
-1.163464
0.6165984
-12.37849
9.287361
0.2936552
0.3365636
1.084197
-16.29149
-0.8853756
14.84857
0.1582388
-19.85041
0.6241067
1.969726
0.7304581
0.782302
-0.3381042
-0.9070415
-2.321052
-10.30204
1.36165
-0.140984
-2.538065
1.493423
0.05561507
-7.016066
-4.873185
0.8954787
0.8331065
-4.257349
0.3077975
1.048797
-75.02142
26.40821
-5.368204
0.9613192
0.6592308
-32.84992
0.1893605
1.364924
1.57267
-0.06933295
-0.398192
0.4712242
0.8861926
-11.6024
-0.9057609
20.85752
35.15572
1.268355
-13.2432
-0.9738519
1.480412
0.7956373
-1.552742
33.16133
-49.08822
-2.990286
3.055975
1.136365
-2.804396
0.8736318
-6.907154
1.889218
0.252823
0.8416826
5.782325
0.7215682
1.596609
-1.034449
-19.70888
-14.19871
-3.132827
0.4015851
-81.40415
26.7911
-9.652437
-0.02905125
-7.502011
-2.77223
0.7263371
2.09292
31.88632
-1.555482
-0.7952412
-6.467622
0.4191043
0.8256692
-32.65094
1.023429
-0.9068397
0.7947927
0.8861334
19.26337
-2.024506
-1.703047
2.049042
0.2175888
-30.76886
19.14197
2.806688
5.815464
-49.95461
-23.84719
0.7762814
0.5889821
-60.04247
-5.771879
-39.98187
0.7569328
1.003525
0.107347
0.6492296
-4.685841
-16.43596
0.144431
-6.471875
-3.91904
1.286276
0.824016
-0.7052753
-60.9061
-19.32641
-0.8784043
3.250889
0.1932001
-0.1044149
1.292447
0.3131927
0.5516252
-0.6098712
-62.14424
-4.801436
-2.649419
-2.047137
-92.71556
1.730262
1.861601
-11.41825
3.301091
2.931098
1.400841
35.4357
-3.200058
0.8950225
0.8697351
0.9756725
-34.06674
-21.7466
-34.0777
13.97241
0.9297068
0.9682181
0.6259885
0.7698968
0.608013
0.4508707
0.9002861
0.8514948
0.02226929
0.04728517
1.240332
0.8884131
11.85864
7.768387
0.4873802
2.414156
-2.014773
-1.597707
2.559776
-12.26301
10.00922
-49.55479
-3.979556
0.9242718
1.518724
-78.6647
42.49005
-93.52318
1.725807
1.060568
4.302519
-24.98937
9.086694
-24.65917
1.118099
3.782274
-0.1571839
2.422028
0.9196118
1.421876
-0.7048215
-63.74037
1.884767
-0.09292091
-1.190822
0.9883262
-43.6671
-70.33766
-21.4225
1.304975
15.08902
1.407343
1.024164
1.141781
0.05789561
-71.37776
0.7716944
3.109868
31.64386
1.3837
1.044161
1.254437
26.64007
5.216254
1.084438
2.732233
-6.576005
0.8504397
0.4046157
-67.81544
0.8168527
-71.78845
1.122706
0.497418
44.99058
0.03232066
0.4134665
1.285182
2.731959
0.210537
1.664195
-24.8288
41.71106
2.012061
-1.895273
45.52188
-8.209319
-1.988351
-0.4913894
-23.39793
0.9935502
0.6642789
-4.701019
0.3587381
-10.04801
-48.05569
1.115505
1.118304
1.067941
0.9294545
17.74066
1.149981
0.584756
1.084265
0.4498865
-0.1585736
-0.1766275
-0.09804484
0.7720001
1.546798
0.2570573
-22.18258
-66.8975
-39.91651
-25.06094
-6.437026
-1.307179
1.953298
0.1333638
0.7812795
3.643344
-20.28527
-9.022792
26.98464
-21.42973
0.8542815
-3.154445
0.3223657
0.4736402
-10.24479
-15.8387
1.857151
-69.23665
2.667771
-0.6356643
0.06849582
0.8651913
0.9902388
1.134945
0.7184698
0.9853977
0.06180483
1.208514
2.632255
-6.589851
0.03260586
-0.09212424
0.6755606
-29.57883
-13.10462
0.8150713
0.9321107