/*--------------------------------*- C++ -*----------------------------------*\
| =========                 |                                                 |
| \\      /  F ield         | OpenFOAM: The Open Source CFD Toolbox           |
|  \\    /   O peration     | Version:  2406                                  |
|   \\  /    A nd           | Website:  www.openfoam.com                      |
|    \\/     M anipulation  |                                                 |
\*---------------------------------------------------------------------------*/
FoamFile
{
    version     2.0;
    format      ascii;
    arch        "LSB;label=32;scalar=64";
    class       volScalarField;
    location    "1.56";
    object      p;
}
// * * * * * * * * * * * * * * * * * * * * * * * * * * * * * * * * * * * * * //

dimensions      [0 2 -2 0 0 0 0];

internalField   nonuniform List<scalar> 
15536
(
-53.92386
-44.93207
-36.08597
-27.9906
-20.88219
-15.2097
-10.68777
-7.033925
-5.191363
-3.482929
-2.172183
-2.825722
-4.51031
-5.506286
-4.720758
-2.589573
-0.4577491
1.399333
1.290197
2.730732
7.223605
14.48591
20.0864
23.00394
25.051
19.84868
10.11269
-1.468044
-25.01731
-68.55241
-111.8354
-100.5891
-38.72168
-10.53507
-33.4699
-64.31905
-84.97021
-84.02593
-73.73271
-73.38308
-79.27441
-85.24909
-89.33088
-91.55502
-92.67175
-92.6671
-91.68848
-89.68049
-87.1222
-84.16843
-80.49564
-76.20207
-71.26394
-65.92275
-60.13241
-53.96196
-47.74058
-41.39732
-34.69846
-27.81958
-21.04532
-14.39572
-7.767481
-1.214894
5.128157
11.34659
17.27582
22.89305
28.0949
32.87802
37.20464
41.07528
44.45372
47.26449
49.46193
51.14844
52.19729
52.65293
52.58716
52.03007
50.67372
48.66772
46.09293
42.93617
39.22403
34.97466
30.2512
24.96952
19.29084
13.25514
6.715069
-0.1407139
-7.248604
-14.79295
-22.49496
-30.14442
-37.96675
-45.9477
-53.89225
-61.89015
-69.77981
-77.36739
-84.6095
-91.59766
-98.45825
-104.8735
-110.8212
-116.2559
-121.1928
-125.7018
-129.4938
-132.4864
-134.7331
-136.196
-136.7376
-135.9991
-133.6491
-129.655
-125.304
-126.0876
-131.3217
-127.8736
-111.4928
-84.86938
-90.3118
-160.1775
-189.3677
-151.7545
-98.99563
-70.12457
-60.49121
-55.27605
-46.09901
-31.04494
-22.06909
-24.18851
-30.59451
-42.92739
-57.35636
-66.06026
-68.45901
-66.80933
-63.03315
-66.94045
-78.36022
-77.31856
-64.58144
-60.42937
-64.25043
-68.60743
-74.23031
-77.96483
-78.96886
-77.58694
-74.12675
-68.85908
-62.06319
-53.63394
-44.71746
-35.94229
-27.90633
-20.83924
-15.19318
-10.68538
-7.032596
-5.192691
-3.481072
-2.165558
-2.828113
-4.504151
-5.489264
-4.696453
-2.57478
-0.4617232
1.391797
1.279392
2.726113
7.211076
14.48949
20.15921
23.07908
25.01035
19.7665
10.0845
-1.39387
-24.88159
-68.39174
-111.8482
-100.7878
-38.77303
-10.5818
-33.60851
-64.55295
-85.07711
-83.94834
-73.72837
-73.25629
-78.7762
-84.42088
-88.22195
-90.28078
-91.32388
-91.28655
-90.2942
-88.28355
-85.73118
-82.80192
-79.15978
-74.90547
-70.00957
-64.71684
-58.9837
-52.87293
-46.71205
-40.43439
-33.80671
-26.9954
-20.28941
-13.70912
-7.149347
-0.6613313
5.618281
11.77169
17.63763
23.19688
28.34552
33.07839
37.36006
41.19102
44.53459
47.31801
49.49234
51.16194
52.20035
52.65078
52.58359
52.02848
50.68049
48.69239
46.1406
43.01201
39.33369
35.12396
30.44493
25.21328
19.59155
13.61288
7.135263
0.349674
-6.690022
-14.16812
-21.79381
-29.36758
-37.11599
-45.01932
-52.88665
-60.8087
-68.62417
-76.13807
-83.31045
-90.2373
-97.04165
-103.4006
-109.3003
-114.6905
-119.5908
-124.0734
-127.8446
-130.8308
-133.0893
-134.5811
-135.1793
-134.5642
-132.4776
-128.8472
-124.9273
-126.0636
-131.3205
-128.0091
-111.6195
-84.95082
-90.26485
-160.1489
-189.4388
-151.6352
-98.81178
-69.95468
-60.37616
-55.26027
-46.17797
-31.14971
-22.10304
-24.09498
-30.53832
-42.93414
-57.37384
-66.04986
-68.44278
-66.83606
-63.08864
-67.01922
-78.41697
-77.33106
-64.58301
-60.40827
-64.26136
-68.59435
-74.09736
-77.71247
-78.60118
-77.16611
-73.7099
-68.47072
-61.70709
-53.49451
-44.60465
-35.86341
-27.8628
-20.81895
-15.18835
-10.68944
-7.037364
-5.192767
-3.47322
-2.148398
-2.847507
-4.544522
-5.510841
-4.697959
-2.576731
-0.4822496
1.3688
1.2343
2.660315
7.130047
14.39023
20.16276
23.02492
24.89216
19.60966
10.02966
-1.313975
-24.83429
-68.61338
-112.8162
-102.172
-39.08405
-10.18844
-33.46797
-64.36449
-84.96683
-83.92641
-73.76427
-73.1495
-78.23925
-83.55643
-87.27286
-89.37902
-90.48191
-90.46771
-89.51351
-87.52191
-84.98127
-82.07922
-78.44911
-74.2179
-69.34181
-64.08395
-58.38862
-52.29237
-46.15852
-39.92189
-33.31975
-26.53828
-19.86382
-13.322
-6.799664
-0.3410356
5.898246
12.02323
17.85561
23.38379
28.50294
33.20817
37.46213
41.26809
44.58897
47.35559
49.51082
51.16798
52.19813
52.6433
52.57423
52.02077
50.68009
48.7071
46.17183
43.06257
39.40741
35.22285
30.57266
25.36627
19.77705
13.83232
7.38402
0.6352553
-6.365884
-13.81122
-21.39905
-28.92874
-36.64251
-44.51201
-52.33451
-60.2325
-68.01291
-75.49668
-82.64077
-89.52475
-96.29824
-102.6215
-108.4975
-113.8625
-118.7394
-123.206
-126.9525
-129.9111
-132.1375
-133.6012
-134.1661
-133.4743
-131.3667
-127.9566
-124.4209
-125.53
-130.5034
-127.394
-111.1463
-84.6251
-90.21216
-161.1326
-190.3873
-151.994
-98.82593
-69.81763
-60.32379
-55.32072
-46.33807
-31.37378
-22.21792
-24.09745
-30.6587
-43.13443
-57.49653
-66.13039
-68.48552
-66.91649
-63.21531
-67.20769
-78.66583
-77.44571
-64.364
-60.24919
-64.23643
-68.75297
-74.13036
-77.55781
-78.41849
-77.01479
-73.56441
-68.30845
-61.55013
-53.27251
-44.45084
-35.76935
-27.82501
-20.80622
-15.19164
-10.7023
-7.051183
-5.193727
-3.458094
-2.127079
-2.910093
-4.611451
-5.540082
-4.720499
-2.602577
-0.5286962
1.323157
1.136917
2.536773
6.956642
14.12599
20.0903
23.07492
24.79412
19.44344
10.02709
-1.214812
-24.8736
-69.20005
-114.1602
-104.4053
-39.90975
-9.904514
-32.94174
-63.1713
-82.67239
-82.40337
-73.47635
-72.93754
-77.45725
-82.3318
-85.81789
-87.71909
-88.70123
-88.64897
-87.71332
-85.74229
-83.22645
-80.37124
-76.80704
-72.65086
-67.84697
-62.66013
-57.04722
-51.03592
-44.97983
-38.83099
-32.32894
-25.62543
-19.03018
-12.57402
-6.136283
0.2487247
6.406526
12.46173
18.22449
23.69324
28.75323
33.40353
37.60926
41.37422
44.6589
47.40026
49.52766
51.16882
52.18894
52.62785
52.55642
52.00365
50.66975
48.71806
46.20612
43.12476
39.5052
35.36247
30.76283
25.60373
20.07908
14.19823
7.812363
1.146789
-5.7771
-13.15444
-20.64483
-28.08238
-35.71457
-43.48666
-51.21249
-59.01937
-66.70574
-74.08636
-81.1287
-87.93465
-94.62978
-100.8609
-106.6614
-111.9445
-116.7594
-121.1814
-124.8816
-127.7976
-130.009
-131.4877
-132.1083
-131.5993
-129.7458
-126.6854
-123.6102
-124.3486
-128.2946
-125.0944
-109.734
-84.41006
-91.07238
-162.693
-191.6713
-152.6503
-98.95692
-69.73119
-60.27867
-55.33157
-46.4285
-31.59576
-22.26583
-24.054
-31.02865
-43.54918
-57.72373
-66.29844
-68.59626
-67.07925
-63.44781
-67.56761
-79.04242
-77.64564
-64.22744
-60.09171
-64.32164
-69.06302
-74.17201
-77.3157
-78.03016
-76.51967
-73.11982
-67.93139
-61.24276
-53.07403
-44.31038
-35.69696
-27.82413
-20.81335
-15.20939
-10.72936
-7.079748
-5.191057
-3.435772
-2.124447
-3.026709
-4.691557
-5.59419
-4.781907
-2.663676
-0.6148841
1.231066
0.9573604
2.309669
6.65093
13.71643
19.9556
23.35366
24.88768
19.39934
10.11797
-1.130599
-25.08173
-70.18448
-116.0059
-106.9981
-41.92673
-10.67156
-32.79292
-60.81469
-78.69473
-79.40326
-72.7301
-72.5822
-76.61587
-81.14588
-84.50507
-86.36004
-87.44992
-87.39617
-86.48127
-84.51734
-81.95133
-79.1461
-75.569
-71.44189
-66.64614
-61.5023
-55.95012
-49.95997
-43.95029
-37.88201
-31.44148
-24.78415
-18.25005
-11.87426
-5.508351
0.8239213
6.902526
12.90215
18.60012
24.0095
29.00672
33.6062
37.76296
41.48461
44.72522
47.4387
49.53543
51.15795
52.16765
52.59956
52.5249
51.96957
50.64033
48.71976
46.23917
43.1895
39.60833
35.50746
30.96031
25.84673
20.39351
14.57186
8.233419
1.657721
-5.18872
-12.52765
-19.93266
-27.2793
-34.85302
-42.55805
-50.19153
-57.94897
-65.57593
-72.89231
-79.87776
-86.62334
-93.28817
-99.46096
-105.2398
-110.489
-115.2781
-119.7234
-123.3783
-126.3061
-128.5235
-130.0171
-130.6296
-130.011
-128.2065
-125.3627
-122.6221
-122.9091
-125.6537
-122.3417
-108.5655
-85.54051
-93.99497
-164.1126
-192.7715
-153.4379
-99.28225
-69.8057
-60.23099
-55.20033
-46.27537
-31.57076
-22.00115
-23.82593
-31.55085
-44.17956
-58.11703
-66.64643
-68.81386
-67.37182
-63.84066
-68.15778
-79.56819
-77.95693
-64.37171
-60.18058
-64.68944
-69.48521
-74.25571
-77.15435
-77.77865
-76.3083
-72.81661
-67.62478
-60.97391
-52.87647
-44.18103
-35.65411
-27.85074
-20.8472
-15.26671
-10.78807
-7.132144
-5.177514
-3.407732
-2.174671
-3.178493
-4.778861
-5.690426
-4.898281
-2.777408
-0.7763381
1.067154
0.6391095
1.923338
6.151615
13.1178
19.86162
23.9392
25.32456
19.58671
10.32458
-1.073393
-25.47774
-71.24714
-117.8603
-109.3975
-45.54679
-13.72955
-33.84545
-58.9017
-74.70411
-76.22702
-71.63163
-71.88872
-75.41466
-79.49113
-82.60337
-84.1914
-85.14972
-85.00031
-84.17437
-82.25985
-79.73664
-77.06792
-73.57765
-69.56858
-64.85718
-59.79769
-54.34998
-48.43725
-42.53414
-36.59139
-30.24297
-23.6695
-17.24472
-10.97132
-4.705874
1.550958
7.515986
13.44394
19.05005
24.36855
29.29659
33.84417
37.93912
41.60509
44.78492
47.47358
49.53141
51.12681
52.12752
52.55074
52.47095
51.91102
50.58952
48.70305
46.26524
43.2566
39.72249
35.67321
31.18319
26.1164
20.76702
15.02843
8.727979
2.259794
-4.447936
-11.72975
-19.03492
-26.24235
-33.71039
-41.32546
-48.83576
-56.48711
-64.0053
-71.20811
-78.06422
-84.70342
-91.29468
-97.33211
-103.0262
-108.1583
-112.8544
-117.2154
-120.7853
-123.6097
-125.6899
-127.2104
-127.9438
-127.5502
-126.0189
-123.5185
-121.2064
-121.2204
-122.9964
-119.6695
-107.9511
-88.76103
-98.4831
-164.9229
-192.6304
-153.8439
-99.71092
-70.19291
-60.21999
-54.77686
-45.64085
-31.05635
-21.2185
-23.34219
-32.14969
-45.0306
-58.77659
-67.27664
-69.1961
-67.88421
-64.41479
-68.90961
-80.2296
-78.39138
-64.94812
-60.82449
-65.38545
-69.99997
-74.35719
-76.96643
-77.41728
-75.84623
-72.44972
-67.29502
-60.68956
-52.77419
-44.2019
-35.70983
-27.82242
-20.90703
-15.39875
-10.8947
-7.198008
-5.209978
-3.395592
-2.294114
-3.33289
-4.865754
-5.864073
-5.090089
-2.983774
-1.051634
0.7464693
0.08142965
1.297571
5.377521
12.31089
19.82034
24.81746
26.10623
20.06586
10.61085
-1.095741
-25.56525
-72.03345
-119.1251
-110.8414
-50.3404
-19.1914
-35.87596
-57.13019
-70.99339
-73.23832
-70.35988
-71.02863
-74.16124
-77.83726
-80.83293
-82.23699
-83.32921
-83.14882
-82.29475
-80.32677
-77.69559
-75.12327
-71.6071
-67.70156
-63.00702
-57.96436
-52.6448
-46.85
-41.00887
-35.12958
-28.92061
-22.47892
-16.13426
-9.908921
-3.822393
2.364695
8.191704
14.04985
19.52874
24.75704
29.67465
34.11422
38.11611
41.70609
44.82686
47.53625
49.51156
51.07327
52.06305
52.47218
52.387
51.83981
50.53645
48.63939
46.23498
43.28222
39.81316
35.85458
31.44167
26.39826
21.15975
15.55864
9.343391
2.916709
-3.681598
-10.79328
-18.01421
-25.12174
-32.45875
-39.89393
-47.36203
-54.93121
-62.27321
-69.40478
-76.11363
-82.65443
-89.21528
-95.11948
-100.7907
-105.8127
-110.4929
-114.9151
-118.4096
-121.276
-123.5783
-125.0925
-125.7422
-125.2891
-123.882
-121.6136
-119.6443
-119.3747
-120.269
-116.952
-107.3513
-92.97144
-103.0234
-163.2483
-188.7319
-151.4412
-99.72116
-70.97895
-60.37102
-54.06598
-44.34719
-29.90317
-19.94378
-22.72991
-32.87949
-46.13308
-59.82298
-68.32085
-69.81717
-68.67567
-65.14293
-69.55744
-81.04915
-78.94624
-65.97556
-62.14894
-66.36499
-70.63823
-74.5792
-76.88518
-77.14952
-75.4994
-72.12953
-66.99403
-60.43948
-52.90849
-44.53495
-35.92031
-27.90825
-21.07971
-15.5623
-11.00789
-7.229391
-5.358412
-3.323689
-2.443515
-3.514546
-4.977017
-6.142685
-5.480632
-3.406392
-1.492217
0.0735323
-0.8055629
0.2825164
4.211932
11.20988
19.70243
25.78857
27.08362
20.8597
10.76373
-0.9878213
-24.96239
-70.43046
-117.0837
-108.6978
-54.75513
-26.06219
-38.20457
-55.24234
-67.31591
-70.1933
-68.7215
-69.71193
-72.40198
-75.54551
-78.46807
-79.32076
-80.31728
-80.12197
-79.4114
-77.6832
-74.85039
-72.47938
-69.09226
-65.36435
-60.6397
-55.6746
-50.7126
-45.07962
-38.99918
-33.30531
-27.49
-21.21114
-14.69384
-8.600483
-2.917821
3.298364
8.906321
14.7378
19.97619
25.28942
30.19807
34.37948
38.26111
41.74922
44.85253
47.59745
49.42997
51.00668
51.96646
52.3574
52.27943
51.76435
50.44058
48.53192
46.11895
43.23614
39.84332
35.99617
31.77477
26.71572
21.55463
16.1212
10.23345
3.855848
-3.00187
-9.796522
-16.6517
-23.90496
-31.1648
-38.12689
-45.43566
-53.31462
-60.16986
-67.30879
-73.83246
-80.17874
-86.73748
-92.36499
-98.07946
-102.8265
-107.3524
-111.8247
-115.1425
-117.8879
-119.8166
-121.424
-122.3456
-122.0369
-120.8883
-118.9137
-117.4614
-117.0647
-117.2473
-114.0476
-106.2747
-96.79859
-106.2248
-155.8084
-176.3332
-143.1015
-98.3928
-71.90763
-60.64112
-53.16578
-43.09185
-28.63053
-18.54586
-22.48258
-33.89081
-47.53328
-61.41498
-70.06467
-70.89359
-69.52665
-66.166
-70.00144
-81.1024
-78.86588
-67.28743
-64.03465
-67.64743
-71.43967
-74.92032
-76.88364
-76.94352
-75.24403
-71.87899
-66.72376
-60.31969
1.059201
0.4651718
-27.20783
-20.84953
12.98045
-18.38882
1.661065
1.16145
12.98101
-2.975528
-1.718378
2.161191
-1.561327
-0.224044
0.1028518
3.694774
2.161582
-4.890408
0.4203864
1.075649
-60.57386
-0.266468
2.897864
-3.198263
1.543139
-0.2498802
3.075647
-2.479085
-9.745587
-0.413843
1.481956
-10.87539
1.164187
-1.189995
0.3495698
-7.012023
-0.09534345
-0.09683427
0.01244468
-8.370209
-25.87438
1.926668
0.2402483
2.611103
34.59055
1.168775
0.02433024
1.329847
-10.25255
-2.526764
2.458282
-0.6694332
-0.3547332
0.3307761
0.05470403
24.36145
-6.324429
1.224524
-17.02108
-28.12805
-2.420219
0.0005706784
11.51189
0.430841
-0.6556861
-0.8654872
-22.1007
-0.08206103
-5.86892
-0.4620945
-1.192678
0.006653025
-20.70208
-85.36841
22.46648
-0.2150488
4.165862
-4.310505
-1.167437
0.4221953
-28.62174
0.07356224
3.714415
0.09136353
-13.36522
0.9233405
1.216019
1.200148
-10.62289
-0.1765042
-19.32128
22.15454
3.077986
0.08886935
1.169465
2.532187
-2.73672
5.566989
-28.4689
1.228627
1.679025
1.114513
0.3923248
-96.19205
-0.03040466
-10.62479
0.004408085
0.8213057
-0.9461052
-4.121688
1.769944
-0.3427523
-0.1974117
7.431925
-14.83745
0.008632846
0.05419424
-0.4925385
20.2376
0.4359041
4.000934
0.2365576
-1.300897
-0.09475307
-0.1171701
3.913642
-0.6750099
-9.164322
1.387436
0.1172962
0.1453155
1.155073
0.4731487
0.01430791
-4.555527
-47.84498
0.1100753
9.111295
1.550635
0.07214212
-18.17249
-0.1577961
-73.18374
0.6205724
-0.01379388
-5.696109
0.8915964
-46.81926
-0.2168429
-1.048906
0.5888982
-11.90284
-64.91971
-1.699106
-18.02681
-34.52899
-0.4489164
0.1792801
0.3973464
-47.88178
0.7677569
-52.53986
-44.56124
0.9559053
-3.024091
-0.3352014
-27.69291
1.735791
-23.098
-0.07186002
1.859236
-27.72344
0.9796897
-17.20659
-9.595069
0.01066145
3.13002
1.325625
-20.84923
-0.07162597
16.91976
2.304872
-0.6652363
0.1880811
2.715304
-53.23934
-9.036015
-0.235244
-19.84271
0.6848118
-0.4591919
1.134899
-11.24168
-3.791708
0.007669651
0.6162669
-0.6203869
-0.429805
-6.918331
-40.48025
1.020293
0.9191264
0.8532638
-24.19228
1.355711
-4.643338
-10.27452
-4.977055
-12.42738
-0.0002881983
0.2756034
1.074256
0.6732891
-9.6066
0.2516827
-2.025871
-15.6161
1.108536
4.013857
0.426676
-0.1174815
-0.6745201
3.444362
3.966024
-5.083007
-1.308212
-5.924853
8.059494
-0.2763675
20.58997
-5.571605
-37.19725
5.225182
-0.04326
-96.4721
-0.2206268
28.17403
-15.14531
2.29346
-0.6796808
-0.1333056
0.8674359
-0.05589266
-7.567285
0.9372992
0.8928559
-1.251163
-32.54872
0.06749668
-0.3034487
-41.77283
0.5406066
1.564282
1.093678
3.314268
-35.85072
0.6292986
0.2463208
-42.32257
-6.92684
0.08671228
0.06502232
-11.23119
-0.3239316
-0.988655
2.939242
0.5706502
-0.1901231
-12.69826
-32.41281
0.1966239
0.4685948
13.25936
-1.855221
1.612231
3.861618
2.184978
-14.87566
-41.09715
-0.04225268
-5.268108
0.4448066
-5.289252
1.204161
-0.7659015
0.5761782
36.16434
-0.5982291
2.498406
-0.1890473
2.911757
-0.04886528
1.073143
-1.167518
-29.95326
0.01945547
-13.23569
-0.006383651
2.062234
-0.7943586
-50.58979
-1.430143
-0.04806928
18.54957
-1.133217
-0.06347799
-0.2063581
-0.5952026
-0.4382798
2.434555
-6.994886
2.167163
-0.6418192
1.727723
-1.002397
-16.30537
35.38415
-70.15231
-3.669583
-56.09539
-1.60394
-0.01227364
1.75509
-0.01773028
0.02359473
-0.01735394
-0.468998
0.01542759
0.1934253
-7.258121
18.2985
0.01978504
-10.78758
-59.85778
-4.420432
2.589004
-2.544155
-0.01947564
-6.269121
-0.47153
-35.83757
-1.815724
0.1116665
0.9188626
-17.53932
3.976717
-2.244271
-0.6652644
-14.81004
0.01714758
-0.1040479
-0.0185644
14.55045
0.3312928
-1.877553
-19.41389
-59.14795
-0.05611818
0.5187962
-2.079381
-0.2946145
-19.828
-0.1371379
2.535582
1.1068
2.633128
2.456959
0.3971939
1.177076
1.930155
-4.995481
13.90597
-45.45789
-0.3471306
2.543217
0.7401745
1.000281
1.723703
2.256696
1.90788
-0.5586405
2.156455
-0.03359567
-7.173645
-0.01093966
2.209848
2.852475
38.175
2.326638
-0.1372169
3.244984
0.2516167
1.900047
-21.49238
-0.02536426
-1.889174
0.349355
-23.46851
-0.05945786
0.1158822
2.426622
1.055728
-36.45858
-0.3260792
-0.1162774
2.322632
-27.58246
-55.78653
2.861416
2.119636
0.543311
0.324938
-0.1166062
1.188516
2.405683
-1.541484
1.336741
-16.47839
0.2986367
11.38055
1.023265
-0.2158718
5.107443
-0.6532232
-0.7143972
-33.69964
0.2267259
2.034939
-70.65111
-7.004465
-50.06268
1.547364
0.632974
0.5970089
1.540507
-5.842696
-0.2191001
-8.407752
-0.2144412
1.085811
-0.3842219
-0.1400034
-10.44807
-0.1587127
-6.83669
0.2437405
-0.03601599
0.02375061
-1.335872
-0.9244059
1.337322
-43.43697
2.4938
-3.855517
-0.9955136
-0.0764276
-0.001910349
5.337918
0.3852551
-23.40727
0.543351
-29.7723
1.197611
-1.344797
-8.867746
-0.4723316
26.31625
-0.1408038
4.731403
-2.964083
-14.50595
-2.551255
0.5275924
8.433233
-0.2749083
-3.872548
-12.50887
-24.43067
-0.0330763
0.2299364
-53.15358
1.231306
-0.03914173
0.3947872
1.446714
-1.846773
0.01968523
17.4105
0.01642847
2.518442
-1.811846
-29.86961
0.01846805
-0.0001771199
-25.24898
1.041841
0.6589068
4.010704
-3.516836
4.038481
2.320389
0.6598728
0.05652737
-7.301642
2.117767
0.3624231
1.116502
0.7553691
-22.36942
-0.3401168
-33.47037
6.204566
17.47431
-3.544325
-2.576005
0.5501362
-6.861984
-0.5853661
-0.0451019
0.4857331
1.057556
-0.2894309
-8.668999
-0.07942598
2.311047
-1.75106
-0.1722234
2.58199
0.1769313
0.1199925
-31.49646
1.804019
-36.09699
0.1186012
4.487187
4.503341
3.483129
0.09558391
-0.2085502
0.342768
4.407857
0.1141002
-0.3238272
1.87615
-31.95085
3.099174
3.750529
-0.1146854
0.002929813
7.712795
0.232789
5.019968
2.724986
-5.628469
2.795834
-0.09898272
1.843957
-17.6153
16.74004
-0.8377822
0.08885835
-8.434923
0.8169063
0.0647466
0.1163503
0.5807001
1.53069
10.73046
32.93096
-0.7779817
0.3447938
7.474022
2.064023
-67.83396
0.3940152
3.25478
2.025754
3.595774
-1.631484
-1.564284
-54.14501
-1.416968
6.453581
-0.03172946
2.412021
-27.05234
2.121341
0.3485378
-88.77061
-6.124637
-2.237859
-5.804271
-2.456417
0.00791323
0.4268179
0.1346218
1.103209
-38.52048
0.942415
0.1652837
0.3027116
-11.91206
0.01608624
-0.190975
1.638442
-9.911752
-4.516558
0.709864
-13.04768
-0.3035225
4.600294
-0.4743722
13.52575
0.8067716
9.560418
-13.13086
-1.147912
2.763316
5.690259
4.908653
0.5927734
-0.1459437
1.00227
-0.1008704
2.074646
18.71375
2.624244
-0.4030393
-0.8170005
-4.120335
-2.938529
5.253777
-18.4599
-1.947583
-52.59532
-11.48141
-15.04978
1.141983
-1.557755
0.2161517
0.3800396
-0.03916907
0.8406383
2.806977
-0.9596455
0.1207527
0.8700393
-55.46629
-23.09518
26.50197
4.923203
-24.68492
-0.2116426
-17.33483
7.315457
-4.656674
-7.530619
0.5394812
2.194973
-10.32573
1.169711
2.105493
-0.1677817
1.446463
-1.055028
0.0629617
-0.258357
3.559032
0.3748429
-0.9651164
0.612972
0.6972628
-94.80125
-27.12773
0.543549
7.372437
-12.64846
0.007925927
-0.6555618
4.970552
14.17594
9.065127
2.223564
-4.097266
0.4121644
-0.01611173
-0.8220661
-4.540283
3.094928
-0.07015089
-14.7131
0.006759416
-80.37083
-0.4488389
-3.892051
2.728358
-52.44357
1.597943
1.195548
1.299063
-5.651577
-12.94473
3.7919
-1.79564
3.961373
15.14985
2.682112
0.4931778
-13.02429
0.3627365
0.4586668
-0.04141975
0.7259316
0.3105841
0.5648757
-0.4733337
2.081241
-55.38004
-1.106588
-0.7355864
1.369438
0.1624296
-0.5091144
0.4589698
-0.8446335
1.321646
0.6789208
-30.70182
0.3931229
0.4853946
1.7157
1.285818
0.68555
0.4360818
-1.235583
0.553475
-4.933422
5.039143
-7.55826
1.727617
-0.04380116
-0.3017217
0.8483625
-0.07899608
1.62077
-0.49814
-57.62881
3.212128
4.923716
10.93164
-0.02947073
-10.69195
-11.44564
-3.046196
0.02806203
-31.43707
2.903782
-5.065644
-9.679442
-8.242914
-6.593007
0.416913
2.697391
12.71858
0.8853606
1.741621
-31.35819
1.485991
1.127854
0.5649132
-12.68463
24.17312
-14.47605
1.333403
2.972679
1.842007
-0.5903242
0.09535239
-6.209521
-0.2354429
-4.682326
-2.652976
0.7362363
3.183311
3.539093
1.625623
1.175182
-0.07829027
-1.664899
-0.561986
-1.727305
-27.76341
31.82694
-0.08881482
0.1884741
0.2954991
0.3508643
0.06813219
-0.3337781
-69.47646
0.1374395
-91.96933
-5.625971
-1.318769
-0.08823055
0.3043581
-0.07205696
0.06499846
1.262883
0.7023901
0.7048037
-1.585589
-40.21539
1.749839
-2.288877
1.572334
-0.3817002
-1.962638
3.074523
-5.499182
-5.520056
17.42129
2.15773
0.5121309
-0.8214262
-0.9459074
1.720402
0.924964
-0.07893077
1.042452
-3.738203
1.163302
8.621821
-51.58564
-9.919215
0.001364667
-11.03731
-1.166618
0.2299066
0.06583498
-0.5221288
1.235414
-15.74323
4.128728
2.592047
3.642854
4.137991
-1.449769
-0.6271486
30.46407
-0.02640534
-4.183204
-0.04296514
-44.80259
2.740782
0.44916
0.3570333
1.437176
32.88057
-1.123205
-0.9879863
1.360143
0.7927043
-0.2589142
1.719498
0.5495065
0.5528313
-10.98784
-19.93905
0.5444243
0.04704328
-12.00433
0.05902646
0.02276702
0.8468039
-16.99867
5.773206
29.49394
0.007546438
1.07746
-1.556979
0.01567633
0.02476721
13.14549
-2.907561
0.4875732
0.02440805
-1.291195
1.16252
0.2704973
-0.4428253
-2.742327
-0.4561122
-16.55154
3.722638
-6.168353
0.03836333
-4.735257
-0.4587604
8.360576
-3.281231
-0.0271387
-17.32178
8.164842
-31.47111
7.405953
1.140004
0.6441102
-6.964683
30.09139
0.7974608
-0.1082443
-2.673651
-56.29341
-0.1117999
0.09452211
5.309549
0.1225133
-0.531136
-9.621617
-0.4294448
1.842776
-0.9839958
-3.252786
0.06455155
15.95102
-10.80811
-37.89542
3.616319
-51.48693
1.069287
-1.466121
-9.760907
0.6592557
-2.763125
-42.3177
-0.007465012
0.4016631
-1.693437
-1.452775
0.03772549
12.94996
-80.3137
2.042995
19.13812
-0.04969255
0.001796475
-5.962325
16.15572
-12.9348
0.08246243
-0.0380392
4.379526
-0.1166485
-0.0950759
0.6229852
1.090146
0.9845612
1.050752
-74.70959
-90.97272
1.791004
-1.767339
3.179827
0.09260113
1.07438
3.185205
0.5724938
0.2560295
1.326536
1.040892
0.1782375
7.445949
0.522109
-22.63157
0.08497187
0.3479856
-60.63927
1.093359
0.1084137
0.3421782
-38.77906
-6.805627
-4.57703
4.746412
-5.417463
-21.55268
36.55028
49.0306
1.067311
0.5439651
-6.664219
7.280118
1.096477
0.04132091
10.45051
-42.2059
1.171734
-0.5440609
-1.846295
2.496178
0.8331415
-15.06284
-3.569676
-13.71201
-63.59917
-4.84893
2.364869
2.03488
1.812353
2.625235
-73.91535
0.7192879
0.4695259
0.4781682
1.732391
-22.25841
-9.493775
-17.27583
-10.43242
1.147452
-0.9175523
-0.5262513
1.176634
-0.2755208
1.317306
0.07600884
-38.93862
-0.1998493
-109.4409
-43.50857
-1.120671
-1.692996
-91.82141
-73.33042
2.200515
-3.739001
-1.226515
0.5524136
2.084642
-6.753299
0.1350075
0.4793896
-0.7230034
0.2385429
0.7598814
-3.11223
-0.5234605
-1.047276
1.248713
0.2580651
0.1946189
1.697581
0.93644
0.354512
1.12037
-57.38617
1.189188
0.237465
4.487943
0.03266992
2.588246
-3.167237
0.04108911
-0.4876751
-7.063478
-11.67327
-0.228069
0.09122433
0.0432006
-0.4650164
-37.2391
-15.86505
-30.51577
-38.73623
23.82511
-2.013851
2.605965
-9.296808
-29.11945
0.1385208
3.697411
-46.55648
2.188758
-0.2545268
1.435923
2.223437
8.099425
1.379686
0.1504267
-41.15883
-1.133226
-5.627075
2.185959
6.436611
35.17828
-16.93426
-10.35913
0.4316637
2.870157
-1.341257
8.530086
-1.331038
7.425204
0.8555705
-27.65313
-2.054278
-12.02101
-4.507502
0.5457799
-11.20629
1.421488
-79.05408
9.038262
3.964734
19.6392
-1.409245
29.41763
-0.5222235
-5.093424
-0.3496176
0.1713468
14.04806
-3.56384
-13.84808
-0.8753736
0.5056331
0.07838462
0.3581828
4.783133
-4.209247
-39.24317
0.1429105
-17.28628
-0.6258724
16.21015
-8.231949
1.507484
-16.30546
-8.064007
0.3503579
-16.15037
38.30941
-1.719894
-1.192621
-46.42717
-32.51939
0.02711339
0.3607897
-1.855197
-10.82812
-91.715
0.6872808
-0.002286047
-13.144
1.418904
0.5398292
-0.8620525
2.823275
11.2331
4.521925
-0.2286226
0.6501786
0.6421981
0.7943927
-1.067802
-0.2514296
1.88867
1.297294
-33.46038
0.01119087
-0.150949
0.3207551
-2.927805
-9.53075
1.58002
0.0108154
2.3541
0.4844553
-0.4168559
-10.9276
0.5543446
-0.3224704
-68.32311
23.97838
-4.207138
0.967435
4.297494
-2.975163
0.3991738
-0.1293752
0.04214432
-0.7129554
-0.4838766
4.478987
0.6486931
-22.04647
1.605046
1.111281
-0.7216533
1.305964
-2.129263
-0.5815326
3.572187
2.731801
3.713456
-16.19602
0.1651068
-0.07492444
-2.110442
0.006922001
-0.1964163
6.56287
2.444164
0.09172144
-0.2024526
-2.059678
0.3686772
-0.8357936
2.369154
-36.68498
-0.1966796
-0.001023457
-0.8097479
-49.75503
-3.334572
-41.37313
-0.8783481
-0.8953735
-0.6929563
-0.7051891
3.615071
-37.10398
-62.33188
0.2519538
0.4718781
7.274111
-0.2803102
3.774413
2.899833
1.10709
1.831503
-0.3151722
0.6473076
-29.03947
2.750783
2.615508
-0.3264004
0.924075
-2.397808
-0.2766637
-2.57463
0.3814334
-5.05873
-0.9726339
-7.554694
7.279675
1.336915
-17.27103
0.299698
-3.031967
-2.95
-14.45523
1.17222
0.9614655
0.05339529
-25.35911
-60.10262
-52.55617
-0.7795067
-27.39989
2.133575
-11.71109
-5.26452
1.480989
16.99249
1.2725
-44.59866
-81.09615
0.1901834
0.956395
-3.657869
0.8772308
0.7735801
0.1204843
-6.852718
-0.01861128
0.4583325
-22.71071
-1.782345
-2.706471
1.151075
0.7162672
-2.461664
0.2753012
-0.327327
-1.57397
-0.4425684
-28.04287
1.186948
3.491082
2.053884
-0.1768242
-45.78782
-0.6983903
-2.017441
-4.912033
-7.5381
-0.05480339
-35.71596
0.8776118
-1.521852
-7.533298
-0.09719413
13.74458
-65.32373
-8.873745
-1.531079
-1.313928
22.11691
-4.748541
0.5524013
0.8247321
0.5680242
-0.1114291
-27.97348
-38.2789
-25.26075
9.506634
6.815569
-0.2325579
-65.35594
-54.39266
-80.71542
2.561433
-2.711668
0.7287422
-1.580942
0.1776456
-0.09601768
0.5387785
-0.126986
0.3472796
-0.7756813
0.1732312
0.4718626
-32.70495
0.6613924
2.26014
-1.478132
6.702736
20.42556
0.0659989
9.051248
-41.72557
-8.098773
4.827612
-6.314516
-2.549437
-17.9472
-75.52071
-0.1999185
-1.980731
0.5942005
-39.81819
-12.76556
-0.1889716
1.774817
-15.55197
0.5181585
14.84461
0.4008031
0.08510678
3.071848
-0.2525585
-0.1859075
0.1648468
-0.280736
1.068238
1.269194
-52.67512
0.02860244
0.3888576
-17.97461
0.2331967
0.1331968
-28.72424
0.1076674
-30.80789
1.316704
2.637169
21.2402
-0.1232813
0.4184216
-22.03315
0.8115061
-81.28169
-7.743163
0.06945592
-0.3920182
0.2983698
-9.399842
-0.02291499
0.6202204
-2.908927
0.2131244
-1.186551
-0.3461432
25.27341
1.367204
-8.836726
1.769845
-2.119539
-0.7416376
-86.96687
-0.9317004
0.4275045
4.043403
2.410732
2.026362
-63.27083
-63.69037
-84.56455
0.001313418
0.6249474
-63.98394
2.277408
-20.27743
-0.3476082
0.2251334
1.941053
-43.23431
-0.6591468
-41.83772
-0.6233159
3.509962
0.2911193
-4.881407
9.486871
-0.4223266
1.280363
1.324543
-0.2215509
-1.982695
14.47541
0.9832235
9.739689
-0.2182155
-3.830224
0.1177869
1.83676
0.9290574
-2.009539
-2.357585
-11.30281
2.442469
-0.1008906
-49.34168
2.940831
-0.00229087
-9.533025
-7.031033
0.5636489
0.5361444
-10.19787
0.001287147
1.339965
-79.08811
26.94982
-1.389019
0.1790903
0.694553
-39.72678
-0.2731304
2.620522
-18.54763
-3.140991
-1.371596
-0.1078345
1.825656
-20.38701
-1.989599
21.88468
37.57255
0.8017409
-34.96174
-48.2832
-0.0787563
0.2863005
-0.04464381
34.81554
-65.28764
-0.3537278
7.094316
-0.1707961
-0.2356228
-7.319772
-0.3084108
1.856448
-0.6286197
-1.767897
-45.38291
0.5364377
2.328376
-21.77106
0.8514496
-17.48908
-4.848361
0.1221333
-86.02059
26.94138
-48.00876
-0.8090214
-3.149722
-0.02682101
0.3733128
3.292488
32.94243
-4.427997
0.02706741
-1.489673
1.20063
0.05712404
-13.75742
1.230954
-0.03612522
0.647154
0.4703672
20.00689
1.692075
-4.420127
-13.94098
-0.0007532316
0.755822
19.35175
2.941546
4.741618
-38.67105
-11.4242
0.5390043
0.1409741
15.18105
-9.124531
-50.79525
5.116979
-0.8574764
-1.254001
1.534318
-0.8013629
-18.53371
-1.017642
-11.84304
0.7371589
0.02830377
0.5587231
0.43611
-69.47584
-24.27787
-2.054306
4.030658
0.03256862
-0.2837611
-5.540343
1.124577
0.2246714
-1.815368
-83.86846
0.02016536
-4.243288
-3.522331
-49.05575
2.722978
2.671698
-14.40687
3.411361
6.518247
2.480376
36.18845
-0.1672014
-0.01083388
1.353742
1.192049
3.829394
-14.59581
-25.29666
15.95612
0.3802516
0.2775554
0.4190385
0.65038
0.1376712
-0.2107951
0.3579202
1.107706
-0.7940885
-0.7793132
0.03879565
2.248623
12.54842
7.742615
-1.030386
-1.017531
-3.450906
-2.897233
-1.050283
-28.85644
13.65509
-52.26038
-92.20568
0.5246379
2.608209
-84.53611
44.082
-98.57954
2.683067
0.5651607
5.022736
-4.58115
10.60714
-30.4644
0.04514795
4.500936
-0.9959272
2.042009
0.4457141
-0.02561261
-1.805943
-38.83383
4.326084
1.349866
-2.434332
1.163946
-46.18062
-18.82629
-39.33057
1.880843
16.67954
-28.72639
-0.1356083
-0.1388398
-0.8226392
-79.55453
0.5388738
3.412231
34.2272
2.353704
1.314343
-0.6956171
29.39794
9.385296
-27.1729
2.945482
0.0562109
0.4981734
-0.2882881
-57.091
0.3108676
-71.03093
0.5445251
-1.499943
46.07146
3.056051
-0.3133818
-4.122751
2.437691
1.234334
-1.659749
-52.48134
42.39984
1.556999
-3.02236
46.79611
-0.1896442
-0.1506168
-0.1563343
-29.39825
1.821763
0.005677819
-6.823114
-1.009084
-5.621233
-85.26036
-0.6628305
-0.545015
0.1320453
1.040656
20.97728
2.395616
0.2302696
1.334311
-0.2632853
-0.9676275
-1.017193
-0.9174598
0.622944
-0.5310583
-3.261885
-10.01023
-42.10266
-1.689869
-13.67958
-45.69097
-2.647677
6.092447
-0.6754632
0.5416714
4.058864
-53.7002
-49.01783
27.96053
-23.89845
0.411953
2.654235
-9.517822
-26.98965
-5.737406