/*--------------------------------*- C++ -*----------------------------------*\
| =========                 |                                                 |
| \\      /  F ield         | OpenFOAM: The Open Source CFD Toolbox           |
|  \\    /   O peration     | Version:  2406                                  |
|   \\  /    A nd           | Website:  www.openfoam.com                      |
|    \\/     M anipulation  |                                                 |
\*---------------------------------------------------------------------------*/
FoamFile
{
    version     2.0;
    format      ascii;
    arch        "LSB;label=32;scalar=64";
    class       surfaceScalarField;
    location    "0.6";
    object      phi;
}
// * * * * * * * * * * * * * * * * * * * * * * * * * * * * * * * * * * * * * //

dimensions      [0 3 -1 0 0 0 0];

oriented        oriented;

internalField   nonuniform List<scalar> 
6709
(
-1.767326e-09
1.013666e-09
7.536598e-10
1.598892e-09
-5.779342e-10
-1.020958e-09
-1.614386e-09
-9.641879e-11
1.710805e-09
3.694551e-09
2.77004e-10
-3.971555e-09
1.167551e-09
4.257509e-10
-1.593302e-09
1.124843e-09
-2.018157e-09
8.933138e-10
1.59029e-09
-7.646438e-10
3.250326e-09
-2.982813e-09
-2.675128e-10
1.536718e-09
-1.213439e-09
-3.232788e-10
-2.037312e-09
7.433547e-10
1.293957e-09
-8.94128e-10
-8.068355e-10
1.700963e-09
5.589464e-10
1.13131e-09
-1.690256e-09
-1.910891e-09
7.437008e-10
1.16719e-09
-3.67371e-10
-1.06712e-09
1.43449e-09
-1.320722e-09
1.619039e-10
1.158818e-09
1.642784e-09
-1.084396e-09
-5.583885e-10
-3.763697e-09
8.065379e-10
2.957159e-09
-1.0214e-09
1.833659e-09
-8.12259e-10
-1.184439e-09
9.589846e-10
2.254545e-10
8.688467e-10
1.18139e-09
-2.050236e-09
-1.172287e-09
-3.302159e-10
1.502503e-09
1.694362e-09
-9.714259e-11
-1.59722e-09
-7.936061e-10
1.301726e-09
-5.081197e-10
8.324069e-10
1.048661e-09
-1.881068e-09
-2.265639e-09
1.535708e-09
7.299311e-10
7.026517e-10
6.722603e-10
-1.374912e-09
1.029632e-09
-1.788313e-09
7.586811e-10
-3.071812e-10
-1.338465e-09
1.645646e-09
-8.094466e-11
-1.757825e-09
1.838769e-09
1.624826e-09
-7.354904e-10
-8.893357e-10
1.544678e-09
-6.52249e-10
-8.924293e-10
-9.74713e-10
-1.065495e-09
2.040208e-09
1.532587e-09
-1.56981e-09
3.722288e-11
-1.717033e-09
8.177669e-10
8.992661e-10
1.299216e-09
3.435687e-10
-1.031193e-09
1.744199e-09
1.293924e-09
-4.248465e-10
-8.690772e-10
-4.615394e-10
-1.196615e-09
1.658155e-09
-1.972819e-09
7.625083e-10
1.21031e-09
7.057702e-10
1.156882e-09
-1.862653e-09
-1.643086e-09
6.022747e-10
1.040811e-09
-6.043598e-10
1.678773e-09
-1.074414e-09
-1.082324e-09
-1.234441e-10
1.205768e-09
1.379605e-09
1.401008e-10
-1.519705e-09
1.2098e-09
-2.322179e-09
1.112379e-09
-8.429892e-10
1.560516e-09
-7.175265e-10
1.166242e-09
-7.616404e-10
-4.046011e-10
1.206306e-09
-1.44299e-09
2.366837e-10
-1.389286e-09
1.007175e-10
1.288569e-09
1.197275e-09
3.076496e-10
-1.504925e-09
-1.387619e-09
1.48065e-09
-9.303161e-11
-7.950322e-10
-7.901865e-10
1.585219e-09
-1.237678e-09
5.138925e-11
1.186289e-09
1.384949e-09
-1.626362e-09
2.414136e-10
-2.003148e-09
9.575667e-10
1.045582e-09
-1.586255e-09
1.505919e-09
8.033583e-11
8.606033e-10
-1.629234e-09
7.686306e-10
1.90441e-09
-7.978909e-10
-1.106519e-09
1.711987e-09
-8.633223e-10
-8.486647e-10
-2.980791e-10
-1.125573e-09
1.423652e-09
1.34118e-10
-1.495889e-09
1.361771e-09
-1.001837e-09
-6.431935e-10
1.64503e-09
6.309461e-10
9.521884e-10
-1.583135e-09
-1.11925e-09
-8.36861e-10
1.956111e-09
1.588886e-09
-1.549826e-09
-3.905982e-11
-1.697509e-09
6.956725e-10
-7.694494e-10
1.545456e-09
-7.76007e-10
-1.068158e-09
-1.306963e-09
2.375121e-09
3.576425e-10
1.174535e-09
-1.532177e-09
-1.74414e-09
1.104886e-09
6.392538e-10
1.783625e-09
-1.034533e-09
-7.490923e-10
-7.782662e-10
-6.123976e-10
1.390664e-09
7.17418e-10
1.107898e-09
-1.825316e-09
-6.771639e-09
8.509459e-09
-1.73782e-09
6.776176e-10
-1.762013e-09
-1.627608e-10
1.208433e-09
-1.045672e-09
1.869229e-09
-2.221939e-09
3.527101e-10
1.147018e-09
-1.138392e-09
-8.6261e-12
6.36885e-10
-1.406272e-09
7.693874e-10
3.434712e-09
-3.403054e-09
-3.165813e-11
1.759524e-09
-8.348018e-10
1.325814e-09
4.95024e-10
-1.820838e-09
-1.552812e-09
1.950692e-09
-3.978794e-10
-1.988712e-09
1.005917e-09
9.827958e-10
1.613538e-09
-5.791142e-10
-1.034424e-09
-1.583789e-09
9.983331e-10
5.854561e-10
2.043088e-09
-1.056629e-09
-9.864583e-10
-1.420897e-09
9.395087e-10
4.813886e-10
-2.030422e-09
3.770229e-10
1.653399e-09
6.720833e-10
9.75983e-10
-1.648066e-09
1.58472e-10
1.181081e-09
-1.339553e-09
1.587313e-09
-6.810728e-10
-9.062405e-10
1.245916e-09
1.859731e-10
-1.431889e-09
1.066054e-09
2.010999e-10
1.202835e-09
4.674036e-10
-1.670239e-09
-1.165773e-09
1.716477e-09
-5.507037e-10
-5.103864e-10
1.800394e-09
-1.290007e-09
-9.653379e-10
1.639015e-09
-6.736768e-10
9.801522e-10
-1.854389e-09
8.742364e-10
-8.896518e-10
1.568669e-09
-6.790172e-10
-1.02815e-09
-3.458064e-10
1.373957e-09
3.915772e-10
-1.325956e-09
9.343793e-10
1.915034e-09
-9.865568e-10
-9.284775e-10
-1.482445e-09
4.826166e-10
9.998281e-10
8.027335e-10
6.803529e-10
-1.483086e-09
6.197723e-10
9.791197e-10
-2.69573e-10
1.696221e-09
-1.426648e-09
3.871485e-10
-1.662672e-09
1.275523e-09
-1.091443e-09
1.902144e-09
-8.107014e-10
-1.564626e-09
7.755554e-10
7.890709e-10
1.139522e-09
-1.933038e-09
7.935154e-10
-1.395921e-09
-5.635753e-10
1.959496e-09
-1.478059e-09
1.844404e-09
-3.663453e-10
1.21803e-09
-1.115514e-09
-1.025157e-10
8.061934e-10
-2.036185e-09
1.229992e-09
1.161548e-09
8.473668e-10
-2.008914e-09
7.933931e-10
-1.51462e-09
7.212274e-10
1.804774e-10
1.265521e-09
-1.445999e-09
7.684773e-10
1.007139e-09
-1.775616e-09
-1.776562e-09
1.002873e-09
7.736885e-10
7.074893e-10
-1.87657e-09
1.169081e-09
1.925898e-09
-1.183125e-09
-7.427725e-10
1.284001e-09
-2.079934e-09
7.959334e-10
-1.449296e-09
2.230631e-10
1.226233e-09
1.322588e-09
1.644021e-10
-1.48699e-09
1.274717e-10
-5.120257e-10
1.227252e-09
-7.152263e-10
-2.133869e-09
1.200745e-09
9.331242e-10
-5.818311e-10
1.679788e-09
-1.097957e-09
-4.595432e-10
1.725338e-09
-1.265795e-09
2.083592e-09
-9.973443e-10
-1.086248e-09
-7.669144e-10
1.060916e-09
-2.940016e-10
4.895526e-10
1.201713e-09
-1.691266e-09
6.388845e-10
5.791453e-10
1.060538e-09
-2.956137e-10
-7.649247e-10
-1.516325e-09
1.196519e-10
1.396674e-09
8.710595e-10
9.357914e-10
-1.806851e-09
-5.241639e-10
1.377818e-09
-8.536544e-10
1.116495e-09
-1.88629e-09
7.697951e-10
-6.075087e-10
-9.952794e-10
1.602788e-09
-5.464094e-10
-1.959271e-09
1.22606e-09
7.332113e-10
1.063754e-09
-1.872891e-09
8.091374e-10
-8.905601e-10
-1.115065e-09
2.005625e-09
1.358615e-09
-1.147523e-09
-2.110918e-10
1.905986e-09
-1.723417e-09
-1.82569e-10
1.426193e-09
-3.769899e-10
-1.049203e-09
1.465087e-09
-2.719815e-10
-1.193105e-09
-9.142411e-10
-8.35534e-10
1.749775e-09
8.37164e-10
7.268873e-10
-1.564051e-09
-7.977095e-10
1.926777e-09
-1.129067e-09
-1.266367e-09
-6.183947e-11
1.328207e-09
-2.600751e-10
2.050963e-09
-1.790888e-09
-1.092262e-09
1.983922e-09
-8.916602e-10
-1.016802e-09
1.821144e-09
-8.043417e-10
-9.050476e-10
1.718188e-09
-8.131402e-10
-1.527458e-09
-1.426884e-10
1.670146e-09
-3.732871e-10
1.688361e-09
-1.315073e-09
1.718511e-09
-1.811098e-09
9.258692e-11
-2.061577e-11
1.582024e-09
-1.561408e-09
5.43931e-10
-1.895061e-09
1.35113e-09
7.448204e-10
-1.721503e-09
9.766825e-10
-5.273905e-10
1.77373e-09
-1.246339e-09
4.94114e-10
1.0329e-09
-1.527014e-09
2.173106e-09
-1.47141e-09
-7.016952e-10
-4.535848e-10
-1.132928e-09
1.586512e-09
1.024681e-09
-1.071072e-09
4.639126e-11
4.224039e-11
-1.681157e-09
1.638916e-09
-4.714245e-10
-1.131912e-09
1.603337e-09
-2.062933e-10
1.591242e-09
-4.917559e-10
-1.404877e-09
1.896633e-09
1.864457e-09
-8.173524e-10
-1.047105e-09
9.103932e-10
1.145863e-09
-2.056257e-09
9.679179e-10
-2.077422e-09
1.109504e-09
8.328489e-10
1.169333e-09
-2.002182e-09
-1.688633e-09
1.280472e-09
4.081607e-10
-7.15555e-10
1.387638e-09
-4.018508e-10
-1.321928e-09
1.723779e-09
-1.784923e-09
6.856901e-10
1.099233e-09
8.061522e-10
-1.827552e-09
3.921817e-10
-1.703954e-09
1.311773e-09
-1.081349e-09
-1.027376e-09
2.108725e-09
-9.645976e-10
1.936918e-09
-9.723205e-10
-2.703165e-10
-1.237268e-09
1.507584e-09
1.43378e-09
-1.878641e-10
1.51468e-09
3.918845e-09
-5.433525e-09
2.138727e-09
-1.206971e-09
-9.317562e-10
1.606465e-09
-2.027799e-10
-1.403685e-09
1.402408e-09
-1.446497e-09
4.408904e-11
-1.270261e-09
7.598748e-10
-1.260953e-09
1.978371e-09
7.828454e-10
1.324641e-09
-2.107487e-09
-1.298736e-09
1.346682e-09
-4.794527e-11
-1.765959e-09
1.388516e-09
3.774424e-10
7.009435e-10
1.273077e-09
-1.974021e-09
-1.685638e-09
9.294708e-10
7.561673e-10
9.439064e-10
8.397188e-10
-1.037433e-09
-2.482417e-10
1.285675e-09
-4.190052e-10
1.566023e-09
6.536136e-10
-1.401572e-09
7.479587e-10
-1.809035e-09
2.684628e-10
1.540572e-09
-1.317208e-09
3.555043e-10
9.61704e-10
2.099461e-09
-1.381474e-09
-7.179871e-10
9.114715e-10
-1.693327e-09
7.81856e-10
-8.979878e-10
1.704181e-09
-9.895205e-10
-7.938085e-10
1.783329e-09
-1.343145e-09
-6.166394e-10
1.959784e-09
1.449469e-09
-1.62099e-09
1.007828e-09
6.131624e-10
-1.020439e-09
1.813177e-09
-7.927375e-10
-7.899491e-10
-7.487238e-10
1.538673e-09
-8.138487e-10
1.72171e-09
-9.07861e-10
1.890919e-10
1.332357e-09
-1.521449e-09
-1.326964e-09
-3.50825e-10
1.677789e-09
1.081246e-09
-2.09745e-09
1.016204e-09
-3.944919e-10
-1.517712e-09
1.912204e-09
1.809726e-09
-9.048579e-10
-9.048684e-10
9.027615e-10
-1.835109e-09
9.323475e-10
-1.90237e-09
1.257073e-09
6.452967e-10
1.624988e-09
-4.221531e-10
-7.609699e-10
-8.458034e-10
-6.69959e-10
1.651166e-09
-9.812065e-10
-1.313627e-09
1.7276e-09
-4.139738e-10
-1.552561e-09
-1.837343e-10
1.736295e-09
-2.677314e-10
1.527564e-09
-1.259832e-09
-2.316467e-10
1.524416e-09
-1.292769e-09
-1.368563e-09
-5.104832e-10
1.879047e-09
1.833125e-09
-9.303638e-10
-2.104793e-09
1.109125e-09
9.956675e-10
8.008647e-10
9.302677e-10
-1.731132e-09
1.599861e-09
-6.274314e-10
-9.7243e-10
-7.033703e-10
-9.964709e-10
1.699841e-09
9.872226e-10
6.357911e-10
-1.623014e-09
-4.877596e-10
2.164365e-09
-1.676606e-09
1.152705e-09
-1.81146e-09
6.58755e-10
1.478867e-09
-1.900605e-09
4.217378e-10
-5.904868e-10
1.730009e-09
-9.454746e-10
1.928216e-09
-9.827417e-10
-1.498498e-09
1.314699e-09
1.837989e-10
-1.267073e-09
-7.517978e-10
2.01887e-09
-1.04438e-09
1.8575e-09
-8.131195e-10
7.851597e-10
-8.483596e-10
-7.587384e-10
-8.021855e-10
-1.116948e-09
1.919134e-09
1.749061e-09
-9.639018e-10
-5.122674e-10
1.794689e-09
-1.726846e-09
7.887777e-10
9.38068e-10
-7.061957e-10
1.825984e-09
-1.119788e-09
4.533258e-10
-1.64639e-09
1.193064e-09
1.785674e-09
-1.289082e-09
-4.965921e-10
-1.548112e-09
8.262749e-10
7.218367e-10
2.927757e-10
-1.766073e-09
1.473297e-09
1.488625e-09
-2.230031e-10
-1.265622e-09
1.957245e-09
-8.801628e-11
-1.563706e-09
3.158782e-10
1.247828e-09
8.067166e-10
1.023332e-09
-1.830048e-09
1.609329e-09
-8.4706e-10
-7.622695e-10
2.370713e-10
-1.67138e-09
1.434308e-09
-2.284751e-09
5.674966e-10
1.717255e-09
6.312867e-10
8.321054e-10
-1.463392e-09
-2.132285e-09
1.518409e-09
6.138761e-10
4.618725e-10
-1.74703e-09
1.285158e-09
-8.152642e-10
1.809727e-09
-9.94463e-10
-6.650542e-10
1.755213e-09
-1.090159e-09
4.382154e-10
-1.220381e-09
7.82166e-10
-3.653686e-10
1.417889e-09
-1.05252e-09
-1.957815e-09
1.238298e-09
7.195165e-10
-1.257431e-09
-3.795566e-10
1.636988e-09
6.073217e-10
9.991431e-10
1.539805e-09
-8.323155e-10
-1.544479e-09
6.047124e-10
9.397671e-10
-1.89165e-09
8.355417e-10
1.056108e-09
-1.041956e-09
-3.87115e-10
1.429071e-09
1.450779e-10
1.619296e-09
-1.764374e-09
2.556506e-10
1.356152e-09
-1.611802e-09
-1.064783e-09
1.836152e-09
-7.7137e-10
9.280144e-10
-2.197664e-09
1.26965e-09
7.613055e-10
8.090516e-10
-1.570357e-09
-1.208182e-09
-5.186637e-10
9.495398e-10
-1.735376e-09
7.858364e-10
3.859588e-10
-1.684695e-09
1.619318e-09
3.379268e-10
-2.382942e-11
-1.385447e-09
1.409276e-09
-6.922816e-10
-9.129334e-10
1.902888e-10
-1.482978e-09
1.292689e-09
9.086131e-10
8.072216e-10
-1.715835e-09
-6.257097e-10
1.534852e-09
-9.091424e-10
7.424365e-10
1.037847e-09
-1.780283e-09
-1.356004e-09
1.280128e-09
7.587624e-11
3.702804e-09
7.099617e-10
-4.412766e-09
8.938354e-10
9.158909e-10
3.896777e-09
-5.309625e-09
1.412848e-09
-1.032958e-09
-7.21473e-10
1.754431e-09
1.934842e-09
-2.551014e-10
-1.67974e-09
-1.03016e-09
-6.331694e-10
1.663329e-09
-9.439404e-10
1.264103e-09
-3.201623e-10
1.616919e-09
-1.054787e-09
-5.621319e-10
8.445625e-10
7.617665e-10
-1.606329e-09
-1.768096e-09
1.243932e-09
8.098705e-10
1.023788e-09
-7.745335e-10
-9.651806e-10
1.739714e-09
-9.041523e-10
1.75311e-09
-8.489578e-10
-1.873143e-09
8.278965e-10
1.045246e-09
-1.784363e-09
9.690989e-10
1.012857e-09
-1.98757e-09
3.511259e-09
-6.626e-09
3.114741e-09
1.580324e-09
-7.190925e-10
-8.612316e-10
-1.74084e-09
1.00719e-09
7.336504e-10
-1.540494e-09
1.242415e-09
-2.004608e-09
1.30983e-09
6.947777e-10
1.649379e-09
-1.45909e-09
-1.117513e-09
1.918551e-09
-8.010376e-10
4.432216e-10
9.465283e-10
-1.38975e-09
1.811206e-09
-1.595485e-09
-2.157204e-10
-1.351538e-09
1.557892e-09
-2.063531e-10
5.030838e-10
1.036721e-09
7.7864e-10
1.074542e-09
-1.853182e-09
1.261887e-09
-1.473292e-09
2.114056e-10
1.190982e-09
4.931187e-10
-1.684101e-09
8.720558e-10
2.562656e-09
1.666886e-09
-5.874426e-10
-1.079443e-09
2.089079e-09
-3.257678e-09
1.168599e-09
-1.188916e-09
-5.01867e-10
1.690783e-09
-1.480383e-09
1.026172e-09
4.542103e-10
-4.958272e-10
1.624499e-09
-1.128672e-09
1.263006e-09
-2.083032e-09
8.200257e-10
-1.060239e-09
-7.241237e-10
4.359585e-10
-1.789977e-09
1.354018e-09
-1.651849e-09
4.629329e-10
-7.832735e-10
-1.019087e-09
1.802361e-09
-7.67031e-10
1.754308e-09
-9.872766e-10
-1.002402e-09
1.46923e-09
-4.668284e-10
1.064722e-09
6.021635e-10
-1.381535e-09
4.289447e-10
9.525906e-10
8.898774e-10
7.643149e-10
-1.654192e-09
-1.814958e-09
9.719691e-10
1.536736e-09
-1.402618e-09
-5.043235e-10
1.772657e-09
-1.268333e-09
-6.342975e-10
-9.429244e-10
1.577222e-09
-1.951202e-09
1.439176e-09
-1.565545e-09
1.831849e-09
-2.663036e-10
-5.553968e-10
-7.52106e-10
1.767597e-09
-1.015491e-09
1.387999e-09
-2.014935e-09
6.26936e-10
8.400409e-10
9.608997e-10
-1.800941e-09
-6.536324e-10
-1.136318e-09
1.789951e-09
-9.301303e-10
-6.718032e-10
1.601934e-09
1.802601e-09
-7.654451e-10
-1.037156e-09
6.560303e-10
8.109856e-10
-1.467016e-09
1.521061e-09
-1.439886e-09
-8.117524e-11
1.731248e-09
-2.29477e-09
5.635221e-10
2.492097e-10
-1.836787e-09
1.587577e-09
1.422583e-09
-7.466602e-10
-6.759232e-10
-1.827709e-09
7.101956e-10
-7.849064e-10
-1.047737e-09
1.832644e-09
5.851417e-09
-1.95464e-09
-2.103211e-09
1.09107e-09
1.012141e-09
-9.209809e-10
-1.259258e-09
2.180239e-09
-1.195326e-09
-6.79576e-10
1.214692e-09
8.255494e-10
-2.040242e-09
1.1735e-09
-1.431124e-09
2.576241e-10
-1.553529e-09
8.199755e-10
7.335534e-10
3.288196e-11
1.36098e-09
-1.393862e-09
1.550253e-09
-1.409454e-09
-1.407987e-10
9.786953e-10
-5.371369e-11
-9.249816e-10
-3.733695e-10
-1.301838e-09
1.675207e-09
-1.822543e-09
5.741951e-10
1.248348e-09
1.815604e-09
-9.444772e-10
-8.711267e-10
-1.702299e-09
5.547816e-09
-3.845517e-09
1.485693e-10
-1.631278e-09
-1.7068e-09
-4.25485e-10
-1.597099e-09
6.920516e-10
-1.344541e-09
1.377423e-09
8.229187e-11
1.091208e-09
-2.429537e-10
-1.862173e-09
2.105126e-09
8.525833e-10
8.594036e-10
9.213783e-10
9.572142e-10
-1.878593e-09
1.255977e-09
-1.047402e-09
-2.085752e-10
8.021698e-11
-1.486982e-09
1.406765e-09
1.355094e-09
3.845273e-10
-1.739621e-09
1.78826e-09
-1.22773e-09
-5.605296e-10
-4.808447e-09
2.999918e-09
1.808529e-09
-1.505697e-09
1.423915e-09
8.178203e-11
-7.652191e-10
-1.192596e-09
-1.723359e-09
1.153083e-09
5.702762e-10
-1.25237e-10
1.436805e-09
-1.311568e-09
2.878607e-10
-1.559335e-09
1.271475e-09
-1.440994e-09
1.036563e-09
4.044314e-10
1.287336e-09
1.127389e-09
8.6328e-10
-1.990669e-09
8.153873e-10
-1.659277e-09
8.438895e-10
1.660889e-09
-1.171337e-09
8.89153e-10
-1.670349e-09
7.811956e-10
8.421838e-10
-1.646387e-09
8.042032e-10
-2.471463e-09
1.007181e-09
1.464282e-09
2.145981e-09
-6.040551e-10
-1.541926e-09
3.297716e-09
-3.8661e-09
5.683839e-10
-3.374204e-10
-1.051348e-09
1.388768e-09
6.631031e-10
-1.696061e-09
-7.93236e-10
-5.401758e-10
1.333412e-09
1.049689e-09
-1.554013e-09
-1.905695e-09
1.075123e-09
8.305719e-10
-1.325203e-09
-3.837982e-10
1.709002e-09
-2.239208e-09
1.197252e-09
-5.951751e-10
-7.222675e-10
1.317443e-09
-3.024188e-09
4.896137e-10
2.534574e-09
-4.690775e-10
-1.503741e-09
1.870139e-09
-7.834847e-10
-1.45571e-09
3.67381e-10
1.088329e-09
-2.085731e-09
8.155137e-10
1.270217e-09
1.511062e-09
-1.661062e-09
1.499999e-10
7.308169e-10
-1.652809e-09
6.87471e-10
8.284376e-09
1.837756e-10
-8.468151e-09
-1.219921e-09
1.285289e-09
-6.536849e-11
2.075433e-09
-9.687168e-10
-1.106716e-09
1.834249e-09
-2.114132e-10
-1.622835e-09
-2.076894e-09
1.305272e-09
7.71622e-10
-1.065372e-09
-4.244253e-09
1.668197e-09
-8.859532e-10
-7.822441e-10
2.076334e-09
-9.633015e-10
-1.113033e-09
-1.68828e-09
1.196524e-09
2.081485e-09
-9.69838e-10
-1.111647e-09
-5.290851e-10
-1.193944e-09
1.723029e-09
-1.764188e-09
7.840908e-10
9.800972e-10
1.64954e-09
6.897087e-11
7.975193e-10
-1.814322e-09
1.928108e-09
-1.287139e-09
-6.409698e-10
1.830135e-09
-9.929706e-10
-1.025876e-09
1.832029e-09
-1.440351e-09
2.014153e-09
-5.738017e-10
3.829959e-10
-1.508569e-09
1.880946e-09
-1.393267e-09
-4.876788e-10
3.139082e-10
1.26917e-09
-1.583078e-09
3.059987e-10
1.394583e-09
-1.700582e-09
-1.674447e-09
1.17862e-09
3.127559e-10
1.082495e-09
-1.654162e-09
9.507921e-10
-2.074471e-10
-1.049984e-09
-1.513258e-09
1.455378e-09
5.787914e-11
-7.440332e-10
2.069847e-09
-8.709811e-10
-1.272582e-09
2.143563e-09
-7.556921e-10
2.017529e-09
-1.261836e-09
1.752621e-09
-1.46476e-09
7.626495e-10
-1.571456e-09
8.088064e-10
5.680997e-10
6.591524e-10
-1.291781e-09
-1.189818e-10
1.410762e-09
-3.265285e-10
-1.293286e-09
1.619814e-09
-8.192102e-10
5.307362e-10
1.058387e-09
-1.589123e-09
-1.169464e-09
1.286274e-09
-1.168099e-10
-9.170942e-12
1.385254e-09
-1.376083e-09
1.111293e-09
9.650414e-10
2.074272e-09
-9.645171e-10
-1.109754e-09
-1.108042e-09
-9.688521e-10
7.518126e-10
-1.684902e-09
9.330892e-10
-7.057126e-10
1.750093e-09
-1.044381e-09
9.661017e-10
1.10817e-09
-2.074005e-09
1.32687e-09
7.471346e-10
1.89058e-09
-1.138768e-09
7.565258e-10
-2.023598e-09
-2.131504e-10
-1.01101e-09
1.22416e-09
-1.741475e-09
1.052468e-09
6.890079e-10
-1.108133e-09
-9.67435e-10
2.075568e-09
-4.035356e-10
-1.285097e-09
-1.19439e-09
1.095502e-09
9.888771e-11
2.598281e-10
1.228797e-09
1.114387e-09
-2.012375e-09
-4.728134e-10
-1.195605e-09
1.668418e-09
-1.699004e-09
5.761255e-10
1.122878e-09
-7.383982e-10
1.966465e-09
-1.228066e-09
1.700693e-09
-1.40578e-09
1.908181e-09
-1.139154e-09
-7.690273e-10
-7.581477e-10
1.885536e-09
9.633864e-10
8.366547e-10
-1.800041e-09
-1.132675e-09
1.535421e-09
-4.027457e-10
-9.237576e-10
-7.77413e-10
1.701171e-09
-1.832178e-09
1.013795e-09
8.183828e-10
-1.891864e-09
4.220388e-11
1.84966e-09
-1.89057e-09
1.572136e-09
3.18434e-10
1.303409e-09
-4.080034e-10
-8.95406e-10
3.202325e-10
1.536869e-09
-1.857102e-09
1.534308e-09
-1.794383e-09
1.855929e-09
-7.553264e-10
-1.100603e-09
5.413375e-10
1.320828e-09
-1.862166e-09
1.781868e-09
-1.130795e-09
-6.510727e-10
1.795273e-10
-1.399448e-09
-1.77783e-09
1.202403e-09
5.75427e-10
7.813083e-10
8.089817e-10
1.351614e-09
-1.939057e-09
-1.869277e-09
6.265152e-10
1.242761e-09
2.522717e-09
7.276089e-10
9.069971e-10
-2.193479e-09
1.286481e-09
-1.411271e-09
-2.213655e-10
1.632637e-09
-8.156756e-10
1.675227e-09
-8.595518e-10
-1.58902e-09
1.162679e-09
4.26341e-10
-7.785731e-10
-5.03632e-10
1.282205e-09
1.099363e-09
4.373553e-10
-1.681891e-09
9.036249e-10
7.13172e-10
8.628681e-10
-1.57604e-09
1.747715e-09
-5.564377e-10
-1.191277e-09
-1.826039e-09
8.001626e-10
-1.045671e-09
1.594574e-09
-5.489034e-10
1.121041e-09
-1.786095e-09
8.839429e-10
7.137717e-10
-1.597715e-09
4.448578e-10
-1.659049e-09
1.214191e-09
-9.93794e-10
-3.938247e-10
7.716591e-10
-1.236765e-09
4.65106e-10
9.288289e-10
9.797215e-10
-1.90855e-09
-7.619813e-10
1.287473e-09
-5.254913e-10
3.696672e-10
9.638404e-10
-1.333508e-09
-1.829232e-09
1.215538e-09
6.136941e-10
1.938404e-09
-1.36721e-09
-5.71194e-10
8.431122e-10
-1.696659e-09
-1.552368e-09
9.262903e-10
6.260781e-10
1.109806e-09
8.684482e-10
-1.978254e-09
4.35681e-10
-1.760884e-09
-1.60144e-09
1.12515e-09
4.762908e-10
8.022858e-10
7.494312e-10
-1.551717e-09
-1.092676e-09
-4.7103e-10
-5.254302e-09
2.064113e-09
3.190188e-09
-1.815593e-09
2.610571e-10
1.554536e-09
1.731589e-09
-7.51437e-10
3.180237e-09
1.448504e-09
-2.019807e-09
-1.383247e-09
5.93268e-11
-2.575848e-09
2.516521e-09
-5.806932e-10
-7.6773e-09
8.257993e-09
-1.35962e-09
1.683896e-11
1.342781e-09
-1.230749e-10
-1.401304e-09
1.524379e-09
-2.105644e-09
5.079752e-10
1.597669e-09
-7.147677e-10
1.585532e-09
-8.707645e-10
-1.903923e-09
8.391402e-10
1.531067e-09
-7.421291e-10
-7.889376e-10
9.522098e-10
-1.674172e-09
7.219625e-10
1.678541e-09
-7.227135e-10
-9.558272e-10
-6.685309e-10
1.55898e-09
-8.904491e-10
-8.564583e-10
-5.603313e-10
1.41679e-09
7.610575e-10
1.260929e-09
-2.021986e-09
-5.537305e-10
-1.089328e-09
1.643058e-09
1.605217e-09
-3.186296e-10
-1.286587e-09
1.670346e-10
-1.607444e-09
1.44041e-09
-1.519448e-09
4.847245e-10
1.034724e-09
1.222688e-09
2.611858e-10
-1.483874e-09
1.266997e-09
-2.018794e-09
-8.709658e-10
1.689948e-09
-8.189823e-10
3.870716e-09
-2.99866e-09
-7.879493e-10
-1.13485e-09
1.922799e-09
-7.947854e-10
-1.000994e-09
1.795779e-09
-1.174667e-09
1.712184e-09
-5.375165e-10
1.082803e-09
-1.536388e-09
-6.244996e-10
-1.142826e-09
-9.454176e-10
-2.423729e-10
1.187791e-09
-6.358203e-10
1.398056e-09
-7.622355e-10
1.753589e-09
-9.909399e-10
1.572494e-09
-1.755606e-09
1.831115e-10
1.536211e-09
-1.623071e-09
8.685995e-11
1.88635e-09
-1.153556e-09
-7.327942e-10
-1.929522e-09
4.514638e-10
-2.206599e-09
6.432306e-10
1.563368e-09
-5.729623e-10
1.375696e-09
2.059402e-09
-9.683326e-10
7.748492e-10
-2.040132e-09
1.265283e-09
9.108024e-10
-1.511497e-09
6.006941e-10
7.012384e-10
1.154691e-09
-2.049561e-09
1.68219e-09
6.392883e-10
-1.909535e-09
1.270247e-09
6.060367e-10
-1.850325e-09
1.244289e-09
7.160292e-10
1.103437e-09
-1.819467e-09
8.599853e-10
5.425513e-10
-1.402537e-09
-1.826022e-09
1.218513e-09
-1.424547e-09
-3.429058e-11
1.458838e-09
3.509679e-10
-1.327862e-09
9.768939e-10
9.196489e-10
8.156414e-10
-1.73529e-09
9.49671e-10
8.864815e-10
2.679959e-10
-1.820557e-09
-1.220237e-09
1.384182e-09
-1.639455e-10
-5.721672e-10
1.93908e-09
-1.366912e-09
-1.314886e-09
-5.278772e-10
1.842763e-09
2.886048e-09
-2.00581e-09
-8.802381e-10
-1.587118e-09
6.568314e-10
9.302862e-10
-1.0017e-09
1.756007e-09
-7.543069e-10
-7.526327e-10
-1.23608e-09
-3.93197e-10
1.560748e-09
-7.336462e-10
2.014006e-09
-1.28036e-09
-1.6525e-09
1.224616e-09
4.278841e-10
-1.696302e-09
1.315639e-09
3.806621e-10
-4.826435e-10
-2.412249e-09
2.894892e-09
-9.687192e-10
9.363157e-10
-1.78095e-09
8.44634e-10
-1.115203e-09
-9.599128e-10
2.075116e-09
-4.218366e-10
1.78364e-09
-1.361804e-09
-1.573265e-09
9.303684e-10
6.428964e-10
1.541888e-09
1.153931e-11
-1.553427e-09
-8.701505e-10
-1.394091e-09
2.264241e-09
-1.368075e-09
1.725116e-09
-3.570412e-10
-1.724137e-09
1.350768e-09
-1.945869e-09
2.213865e-09
1.628265e-09
-1.12038e-09
-5.078845e-10
5.988895e-10
-1.847537e-09
1.248648e-09
-1.029872e-09
1.707018e-09
-6.771455e-10
-1.033911e-09
-6.410544e-10
1.674965e-09
7.447126e-10
7.971749e-10
3.363476e-09
9.590654e-10
-4.322541e-09
6.209149e-10
-1.756041e-09
1.135126e-09
-1.274007e-09
1.976659e-09
-1.801598e-09
9.965285e-10
8.050699e-10
9.127057e-10
1.002329e-09
-3.267142e-09
8.661261e-10
-1.919972e-09
1.053846e-09
-4.55816e-10
-1.490053e-09
9.722404e-10
6.546376e-10
1.53247e-09
-2.187108e-09
-1.253964e-09
1.125897e-09
1.280663e-10
-1.109039e-09
-4.555875e-10
-2.114568e-09
2.316348e-09
-2.017799e-10
-4.679274e-10
-1.271631e-09
1.739558e-09
-7.094358e-10
2.223232e-09
-1.513796e-09
1.300078e-09
-1.288538e-09
1.67288e-09
-9.486163e-10
-7.242638e-10
3.846409e-09
-2.483807e-10
-3.598029e-09
9.539355e-10
6.263886e-10
-7.607349e-10
1.497339e-09
-7.366037e-10
6.992851e-10
-2.706138e-11
-1.411418e-09
1.438479e-09
1.014351e-09
-9.891091e-11
1.478516e-09
1.325817e-09
4.853885e-10
-1.166311e-10
3.62789e-09
-7.557758e-10
-8.584597e-10
-7.472469e-10
8.121437e-10
3.034266e-09
-1.064285e-09
-6.999032e-10
1.316506e-09
-1.415417e-09
-7.59829e-10
-5.573792e-10
-1.125592e-09
-1.754958e-10
1.301088e-09
1.883734e-10
-1.789814e-09
-1.060768e-09
1.821825e-09
-1.459539e-09
3.672772e-10
1.904897e-09
-9.20029e-10
-1.810527e-09
5.692682e-10
1.241259e-09
-3.423805e-10
-1.381626e-09
1.724007e-09
1.562524e-09
3.723173e-10
-1.190409e-09
2.053689e-09
6.650412e-10
5.186376e-09
-1.278149e-09
8.426174e-10
4.355312e-10
-7.668969e-10
1.800485e-09
-1.033588e-09
-1.388468e-09
2.123464e-09
-7.349959e-10
-3.50346e-10
-1.561601e-09
1.533424e-09
2.81767e-11
-1.972101e-10
1.588856e-09
-1.391646e-09
-1.63758e-09
1.453845e-09
9.528937e-10
-1.667661e-09
6.769773e-10
1.050745e-09
-1.727722e-09
8.850176e-10
1.108418e-09
-1.993435e-09
1.931868e-09
-8.651885e-10
-1.066679e-09
1.120311e-09
4.107554e-10
1.702685e-09
-1.009006e-09
-6.936791e-10
1.860792e-09
-1.054076e-09
9.14192e-10
-1.699098e-09
-1.747041e-09
9.391865e-10
8.078541e-10
9.53435e-10
-1.346632e-09
-1.895216e-09
9.306184e-10
-1.58418e-09
8.605576e-10
7.236228e-10
1.554739e-09
-7.787179e-10
-7.760214e-10
6.91417e-10
-4.961141e-10
-1.740447e-09
1.176685e-09
5.637617e-10
1.212706e-09
-1.736281e-09
5.235751e-10
-2.633336e-10
1.742201e-09
-1.808042e-09
8.523027e-10
9.557396e-10
3.737442e-10
1.089605e-09
-1.46335e-09
-1.789983e-09
6.848261e-10
1.105157e-09
1.000933e-10
-1.500921e-09
1.400828e-09
1.884801e-09
-1.343464e-09
1.394302e-09
1.441625e-09
-4.488637e-11
-1.396738e-09
-2.014604e-09
4.552684e-10
-1.832383e-09
1.302399e-09
5.299836e-10
-1.194413e-09
1.710402e-09
-5.159897e-10
1.031216e-09
-1.800666e-09
4.311416e-10
-1.664742e-09
1.233601e-09
-1.202365e-09
3.082831e-10
8.940818e-10
1.123563e-09
-1.650953e-09
9.672225e-10
-1.700645e-09
7.334223e-10
6.404661e-10
-2.028934e-09
-1.305991e-09
1.543063e-09
1.865894e-09
-1.244979e-09
-7.158842e-10
9.851991e-10
5.879698e-10
-1.573169e-09
7.69201e-10
-2.905553e-10
-1.04737e-09
1.337925e-09
2.899727e-10
2.040096e-09
-2.330069e-09
-1.21148e-09
-6.905823e-10
1.902062e-09
-1.017494e-09
1.24835e-09
-1.507865e-09
2.595153e-10
-1.715718e-09
9.209321e-10
-8.798598e-10
-7.301711e-10
-1.190388e-09
-3.250959e-10
1.515483e-09
1.12671e-10
-1.432993e-09
1.320322e-09
-6.56649e-10
1.805047e-09
-1.148398e-09
-1.092788e-09
1.343036e-09
-5.353345e-10
-8.077018e-10
-7.183512e-10
-9.539289e-10
1.67228e-09
-1.204063e-09
8.666423e-10
-1.954395e-09
1.117534e-09
1.907607e-09
4.58094e-10
-2.365701e-09
-1.105448e-09
-4.009661e-10
1.506414e-09
-1.550067e-09
6.577099e-10
8.923567e-10
-8.548136e-10
1.929503e-09
-1.074689e-09
-1.197352e-09
1.16237e-09
3.498198e-11
-1.62873e-09
9.103788e-10
-1.223943e-09
2.145321e-09
1.17601e-09
7.609079e-10
1.184868e-09
-1.266303e-09
-8.619478e-10
2.128251e-09
-1.871773e-09
8.298397e-10
1.041934e-09
-9.076625e-10
-7.772393e-10
2.075758e-09
-1.109656e-09
-1.787182e-10
1.668167e-09
-1.489449e-09
7.618691e-10
1.194242e-09
-9.150657e-10
1.800083e-09
1.206747e-09
6.360575e-10
-1.842804e-09
-4.066338e-10
-1.534447e-09
1.941081e-09
1.837696e-09
-1.027826e-09
-1.176766e-09
1.847578e-09
-6.708119e-10
-6.293227e-11
1.686263e-09
-1.623331e-09
1.140845e-09
-1.67346e-09
5.326149e-10
-1.485628e-09
7.282788e-10
7.573497e-10
-1.27169e-09
-6.145068e-10
1.886197e-09
-2.086173e-09
7.725469e-10
1.171397e-09
9.520664e-10
2.667996e-10
9.710469e-10
-1.237847e-09
9.268491e-10
-1.814148e-09
8.872987e-10
-1.314597e-09
1.955063e-09
-4.24623e-09
1.739873e-09
2.506357e-09
-1.632311e-09
1.160887e-09
-1.669886e-09
8.866125e-10
1.498815e-09
-1.43525e-09
-6.356552e-11
1.418369e-09
-1.624662e-09
8.685299e-10
2.826022e-09
1.106797e-09
2.398844e-10
-1.271199e-09
7.461705e-10
5.250287e-10
-1.429248e-09
5.401729e-10
8.890754e-10
-3.089674e-10
-1.011755e-09
1.135392e-09
-1.473047e-09
3.376559e-10
-1.42058e-09
1.447639e-09
-2.705847e-11
-1.632848e-09
-1.4659e-09
6.923324e-10
7.735678e-10
1.270978e-09
-3.253572e-10
-9.456212e-10
2.11447e-09
1.060621e-09
8.096291e-10
-1.87025e-09
-6.590728e-10
1.31294e-09
1.140836e-09
-2.453775e-09
-6.426893e-10
-7.735187e-10
1.848642e-09
7.375927e-10
-1.572444e-09
8.34851e-10
-9.733602e-10
-8.987606e-10
1.872121e-09
-1.684428e-09
3.567368e-10
1.327691e-09
-1.878604e-09
9.297483e-10
9.488555e-10
-1.437901e-09
3.922299e-10
-1.283793e-09
-3.875867e-10
-1.286259e-09
1.366476e-09
1.616047e-09
-7.724703e-10
-8.43577e-10
-1.576693e-09
-2.249051e-10
-1.33528e-09
1.780138e-09
-1.305289e-09
1.726144e-10
-9.90374e-10
1.614118e-09
-6.237445e-10
2.15052e-09
-1.180292e-09
-9.702284e-10
1.58403e-09
-8.779539e-10
-7.060764e-10
-1.596191e-09
6.845937e-10
9.115972e-10
-1.096403e-09
-1.532367e-09
1.492923e-09
3.94441e-11
4.701672e-10
1.028752e-09
-1.498919e-09
5.464247e-10
-1.54848e-09
1.002055e-09
1.261631e-09
-2.017323e-09
1.02683e-09
1.097612e-09
-2.124442e-09
-1.233742e-09
-1.237721e-09
-1.651775e-09
1.169034e-09
4.827406e-10
-1.055624e-09
9.96145e-10
-1.817885e-09
8.217397e-10
1.025644e-09
8.095713e-10
-1.835215e-09
-8.215894e-10
1.788812e-09
9.839115e-10
-1.878039e-09
-1.973144e-09
1.068992e-09
1.79008e-09
-8.061688e-10
1.676395e-09
1.634739e-09
-1.177691e-09
-4.570484e-10
-9.013985e-10
1.716786e-09
8.86625e-10
-1.638731e-09
1.748991e-09
-7.233468e-10
8.57161e-10
-1.64711e-09
-5.401304e-10
-7.138333e-10
-1.79859e-09
8.102924e-10
9.882977e-10
-1.590614e-09
4.587016e-10
-1.50536e-09
-1.162395e-09
-1.122356e-09
-1.566373e-09
-9.012102e-10
1.700993e-09
-7.99783e-10
1.27583e-09
-7.654909e-10
1.610053e-09
1.115765e-09
9.845616e-11
-1.214221e-09
1.573738e-09
-1.425169e-09
1.116318e-09
-6.55643e-10
1.931473e-09
8.173807e-10
9.479531e-10
-1.765334e-09
2.157168e-09
-8.574089e-10
-1.299759e-09
-8.536037e-10
-1.232127e-09
8.511911e-10
1.167679e-09
-9.694103e-10
-1.110524e-09
1.053821e-09
8.543598e-10
-1.2219e-09
1.884334e-09
-6.624339e-10
1.867113e-09
-6.582025e-10
-1.20891e-09
-8.807353e-10
-6.727937e-10
1.096547e-09
-1.491039e-09
1.111467e-09
-1.689401e-09
1.685636e-09
-1.500154e-09
-1.854818e-10
-1.898381e-10
1.875474e-09
5.487188e-10