/*--------------------------------*- C++ -*----------------------------------*\
| =========                 |                                                 |
| \\      /  F ield         | OpenFOAM: The Open Source CFD Toolbox           |
|  \\    /   O peration     | Version:  2406                                  |
|   \\  /    A nd           | Website:  www.openfoam.com                      |
|    \\/     M anipulation  |                                                 |
\*---------------------------------------------------------------------------*/
FoamFile
{
    version     2.0;
    format      ascii;
    arch        "LSB;label=32;scalar=64";
    class       volVectorField;
    location    "4.02";
    object      U;
}
// * * * * * * * * * * * * * * * * * * * * * * * * * * * * * * * * * * * * * //

dimensions      [0 1 -1 0 0 0 0];

internalField   nonuniform List<vector> 
15536
(
(0.397702 -9.400215 -1.786522e-21)
(0.8296727 -9.863949 -1.016088e-18)
(1.262626 -10.09172 -1.911754e-18)
(1.642254 -9.9914 -1.742086e-18)
(1.935862 -9.538733 -2.448882e-20)
(2.15005 -8.849271 2.398929e-20)
(2.272793 -8.005335 1.681638e-20)
(2.306152 -7.074736 -1.696489e-20)
(2.270968 -6.14552 3.342529e-18)
(2.192431 -5.284484 2.883769e-18)
(2.077011 -4.505818 0)
(1.955974 -3.831839 0)
(1.838397 -3.278496 -1.682742e-20)
(1.697994 -2.772941 4.251999e-18)
(1.498976 -2.257674 2.017113e-18)
(1.184919 -1.661907 -3.956055e-18)
(0.6935451 -0.938243 1.971383e-18)
(0.04963136 -0.1376245 1.808342e-20)
(-0.6156882 0.6000907 -3.998363e-20)
(-0.7802482 0.772574 2.190759e-20)
(-0.1589485 0.1921561 0)
(-0.8296587 0.6907765 4.225373e-18)
(-2.170868 1.682374 0)
(-3.09647 2.319579 4.812425e-18)
(-2.417688 1.838203 -3.28359e-20)
(0.4754991 -0.08559168 -2.644762e-21)
(3.199575 -1.727939 2.649528e-21)
(2.82516 -1.504909 9.18452e-19)
(0.6281321 -0.3834915 -3.683327e-19)
(-1.386781 0.4942249 0)
(-2.523528 0.8908038 -1.347193e-20)
(-3.71149 1.156474 -1.88818e-18)
(-5.898967 1.591018 3.090856e-18)
(-8.49564 2.044116 0)
(-9.813505 2.253276 -7.132332e-18)
(-4.740385 1.206366 -1.88331e-20)
(2.958079 -0.2627849 1.887138e-18)
(1.881308 -0.3929853 -9.779778e-19)
(-1.29895 -0.2526243 1.28939e-21)
(-0.3264835 -0.05924656 -3.224674e-19)
(5.589482 0.5460684 1.19406e-18)
(9.527159 1.257007 -1.894213e-20)
(11.5578 1.931248 1.842931e-20)
(12.56981 2.582156 0)
(13.09929 3.243851 -4.828216e-18)
(13.35114 3.879053 -4.824594e-18)
(13.39108 4.473413 0)
(13.29536 5.03148 -9.250476e-18)
(13.08797 5.551961 9.027947e-18)
(12.81434 6.043457 8.703901e-18)
(12.48389 6.498565 3.15455e-20)
(12.08962 6.910407 -7.831923e-18)
(11.64083 7.274811 0)
(11.14706 7.592865 0)
(10.61795 7.860789 6.141971e-18)
(10.05185 8.071017 5.542316e-18)
(9.466705 8.233517 3.55353e-20)
(8.869174 8.346716 4.140978e-18)
(8.247568 8.393068 6.968497e-18)
(7.614451 8.380115 2.77593e-18)
(6.978009 8.310974 2.013107e-18)
(6.351117 8.194232 -1.316309e-20)
(5.731057 8.020985 0)
(5.115371 7.785567 -1.711039e-19)
(4.518744 7.502079 0)
(3.93878 7.157827 1.648473e-18)
(3.382562 6.759409 -2.806013e-20)
(2.8599 6.316568 -2.484609e-21)
(2.370698 5.827394 1.312867e-20)
(1.91968 5.296707 -4.287422e-18)
(1.512122 4.732066 -1.991727e-20)
(1.148893 4.130929 2.714224e-18)
(0.831596 3.493981 2.935751e-18)
(0.5653919 2.834857 0)
(0.3501511 2.160216 0)
(0.19029 1.464705 3.432677e-18)
(0.08156089 0.7572444 -5.619708e-23)
(0.02749465 0.07285495 9.099695e-19)
(0.02116618 -0.5777745 1.650641e-21)
(0.06891096 -1.273878 -6.699258e-21)
(0.1686326 -2.014475 -1.652518e-18)
(0.3263878 -2.752077 0)
(0.5406207 -3.468533 2.91384e-18)
(0.8080833 -4.157562 0)
(1.127037 -4.816874 -2.386146e-18)
(1.495475 -5.44527 2.061531e-18)
(1.91229 -6.040754 1.500751e-20)
(2.374199 -6.602035 2.841683e-18)
(2.878272 -7.120585 6.744147e-21)
(3.419919 -7.594112 -1.372555e-18)
(3.996428 -8.024035 -5.681616e-19)
(4.605389 -8.404627 1.013927e-21)
(5.244869 -8.738875 1.121906e-18)
(5.904664 -9.022697 -1.986034e-18)
(6.581183 -9.250915 2.558514e-20)
(7.263403 -9.410189 6.867154e-21)
(7.956773 -9.515867 -4.559997e-18)
(8.656936 -9.567993 0)
(9.354909 -9.558171 1.239514e-17)
(10.05355 -9.497718 6.953815e-18)
(10.73261 -9.3719 1.183915e-19)
(11.38874 -9.183557 -8.668788e-18)
(12.01823 -8.936023 0)
(12.62009 -8.633376 0)
(13.19351 -8.284095 0)
(13.72983 -7.885928 0)
(14.21903 -7.439833 1.199559e-17)
(14.65828 -6.949724 1.263806e-17)
(15.04847 -6.4204 2.845174e-20)
(15.38471 -5.859604 -1.355003e-17)
(15.64761 -5.262869 -6.916258e-18)
(15.84159 -4.640402 -7.150545e-18)
(15.90902 -3.986177 5.596034e-20)
(15.82528 -3.303937 7.312858e-18)
(15.57994 -2.605736 3.772301e-18)
(15.14097 -1.903507 -2.91706e-20)
(14.39904 -1.218656 -7.142841e-21)
(13.11205 -0.6131542 4.67403e-19)
(10.65933 -0.1269567 -9.037952e-19)
(5.953141 0.1342528 -2.210148e-20)
(-0.8948299 -0.02163121 1.582387e-20)
(-2.096027 -0.07630073 4.172228e-18)
(-0.3275782 0.2523951 2.953957e-20)
(4.382979 1.184603 0)
(-1.047519 -0.7054835 -7.417666e-18)
(-9.206137 -3.602059 -1.018896e-17)
(-11.32314 -4.40878 3.473525e-21)
(-8.646408 -3.567447 1.263056e-17)
(-5.910064 -2.710073 -8.46067e-18)
(-4.257095 -2.18969 0)
(-3.329999 -1.849592 0)
(-1.98441 -1.083521 -4.554843e-18)
(0.7388636 0.6904488 0)
(4.016928 3.012726 1.248281e-20)
(3.933227 2.936978 -2.171376e-18)
(-0.07735948 -0.4018049 -4.754636e-18)
(-3.240502 -3.404117 7.054748e-20)
(-4.493898 -4.766662 -1.984954e-17)
(-4.328943 -4.832001 -1.50187e-19)
(-3.32191 -3.903894 1.718899e-17)
(-1.839818 -2.24805 6.86022e-18)
(-0.3323477 -0.3692517 5.43066e-18)
(0.8388097 1.352014 4.377336e-18)
(1.813518 3.080651 0)
(2.446848 4.375867 -2.2952e-20)
(2.231973 4.188317 -4.99929e-18)
(1.262848 2.583803 0)
(0.7043802 1.968371 4.60307e-18)
(1.116818 3.563389 -4.148603e-20)
(1.531443 4.947612 2.27292e-20)
(1.293852 4.356587 3.38054e-18)
(0.6681856 2.665313 2.437909e-21)
(0.0745701 0.02207016 0)
(-0.3255521 -3.180293 1.870063e-18)
(-0.4467975 -5.823658 1.501802e-20)
(-0.2953502 -7.55806 4.195915e-21)
(0.01041114 -8.679916 -5.637837e-21)
(0.1825224 -12.17466 -4.229851e-19)
(0.5999907 -11.99642 8.117017e-19)
(0.9989077 -11.64085 0)
(1.364083 -11.14518 1.404352e-18)
(1.683378 -10.50092 0)
(1.940097 -9.69682 4.42152e-18)
(2.115304 -8.783289 1.350929e-20)
(2.202875 -7.801901 -1.362026e-20)
(2.217723 -6.820249 -2.678969e-18)
(2.1849 -5.899831 -2.319655e-18)
(2.101849 -5.064756 0)
(2.0148 -4.333109 1.427145e-20)
(1.910394 -3.710051 -8.010622e-22)
(1.766806 -3.128451 -1.731529e-18)
(1.548944 -2.533241 -3.336071e-18)
(1.20093 -1.853548 1.604687e-18)
(0.6621749 -1.055843 -1.570303e-18)
(0.02179759 -0.2289473 -1.315562e-20)
(-0.3422117 0.277634 0)
(0.2714635 -0.18458 0)
(0.4117767 -0.4142518 0)
(-1.296024 0.8368005 3.404459e-18)
(-2.695606 1.893237 2.98128e-20)
(-3.481204 2.491458 -3.013432e-20)
(-3.476522 2.64467 1.543343e-20)
(-1.036262 1.148804 -1.533144e-20)
(3.301801 -1.640407 0)
(3.505795 -2.049695 0)
(1.515227 -1.042636 5.899967e-19)
(0.02178288 -0.2482398 1.604117e-20)
(-0.4849912 0.02494042 -1.63704e-20)
(-1.181883 0.1402857 1.632188e-18)
(-3.152619 0.4441683 2.60167e-18)
(-5.681829 0.9389673 -4.07087e-20)
(-7.761036 1.66328 -5.960261e-18)
(-6.659874 1.761443 2.382819e-18)
(0.8087487 0.3210503 -4.402362e-21)
(4.262853 -0.4048115 7.551627e-19)
(7.152712 -0.09108262 0)
(10.33251 0.6116095 2.175419e-19)
(14.81657 1.251519 1.63643e-18)
(16.61481 1.684373 1.721284e-18)
(16.9407 2.1329 1.808765e-18)
(16.94092 2.686421 -5.777093e-20)
(16.80507 3.30236 3.839506e-18)
(16.59187 3.914595 -2.941015e-20)
(16.32087 4.526469 0)
(15.99384 5.118478 7.378289e-18)
(15.62079 5.692361 0)
(15.20679 6.241153 -5.233295e-20)
(14.73757 6.746707 5.243686e-20)
(14.21298 7.206838 6.261224e-18)
(13.64004 7.614865 -4.351577e-20)
(13.02641 7.970221 5.393368e-18)
(12.37933 8.269627 -4.947328e-18)
(11.70251 8.50977 0)
(11.00619 8.698598 2.802696e-20)
(10.29738 8.831621 -3.402484e-18)
(9.57229 8.89643 -5.538831e-18)
(8.835761 8.89455 0)
(8.099974 8.83561 -1.619199e-18)
(7.373797 8.720837 -5.511639e-21)
(6.658137 8.543169 4.004026e-19)
(5.953621 8.302541 -3.723047e-21)
(5.267812 8.004031 3.765987e-21)
(4.60568 7.643962 -1.339392e-18)
(3.969943 7.226507 1.916864e-18)
(3.371123 6.756406 0)
(2.81042 6.23903 0)
(2.293096 5.678395 -1.468723e-20)
(1.823275 5.076234 0)
(1.403914 4.43394 0)
(1.036959 3.754094 0)
(0.7273029 3.047091 -2.591988e-18)
(0.4732529 2.324081 2.06907e-20)
(0.2871356 1.576512 1.117151e-20)
(0.1561413 0.8177809 -5.477455e-21)
(0.08984281 0.07902685 -7.477951e-19)
(0.08361948 -0.6298522 2.949784e-21)
(0.1524093 -1.37996 -7.147795e-19)
(0.2750269 -2.172523 1.346138e-18)
(0.4646571 -2.96007 1.020438e-20)
(0.7182218 -3.723867 -2.361325e-18)
(1.031596 -4.459446 -3.409328e-20)
(1.403638 -5.164838 1.975882e-18)
(1.830733 -5.833869 -1.717628e-18)
(2.313258 -6.466221 0)
(2.843863 -7.061559 -4.646001e-18)
(3.42118 -7.605845 -1.124619e-20)
(4.042138 -8.102568 1.11452e-18)
(4.700955 -8.555038 4.666831e-19)
(5.395346 -8.950033 0)
(6.123699 -9.291002 0)
(6.876821 -9.582499 0)
(7.648276 -9.80657 2.015479e-20)
(8.432676 -9.960219 -2.002227e-20)
(9.229521 -10.05476 3.589356e-18)
(10.03336 -10.08833 5.55364e-21)
(10.84021 -10.05699 -5.015811e-18)
(11.6442 -9.965732 -7.9027e-20)
(12.43499 -9.809516 1.254178e-17)
(13.20443 -9.585662 6.897271e-18)
(13.94828 -9.297188 -5.586015e-20)
(14.66943 -8.950679 7.924181e-18)
(15.36316 -8.550605 6.451151e-20)
(16.02098 -8.092853 -7.264937e-20)
(16.6355 -7.583018 7.233431e-20)
(17.20323 -7.023609 7.917637e-20)
(17.72438 -6.421319 1.038773e-17)
(18.1944 -5.780675 -8.182262e-20)
(18.60148 -5.103825 0)
(18.94177 -4.394023 0)
(19.24945 -3.667777 0)
(19.50992 -2.935416 0)
(19.70507 -2.201309 2.234269e-20)
(19.81896 -1.472668 -2.228279e-20)
(19.83512 -0.7553423 1.385768e-18)
(19.69092 -0.1248635 5.340331e-21)
(19.18515 0.3330919 0)
(16.86658 0.569485 -1.260608e-18)
(11.50548 0.6807007 2.711609e-18)
(7.745583 0.9587957 -2.976034e-18)
(4.494556 1.11879 3.903033e-20)
(2.744478 0.5665717 -4.717519e-18)
(-4.310415 -2.039426 3.646889e-20)
(-9.785169 -3.795316 0)
(-7.658906 -2.562939 1.618725e-17)
(-5.672452 -1.78379 -2.129703e-17)
(-3.205008 -1.068757 -7.027192e-18)
(-2.117358 -0.8695944 -1.001435e-20)
(-1.679885 -0.7693573 -7.832843e-20)
(-0.8305379 -0.1350368 3.411444e-20)
(1.036958 1.323226 0)
(4.416134 3.639013 8.310059e-19)
(3.935624 2.615968 1.687683e-18)
(-2.240617 -2.707724 -1.798261e-20)
(-4.587634 -4.729442 -6.186803e-18)
(-5.026142 -5.142118 1.613866e-17)
(-4.814247 -5.119674 8.166737e-18)
(-3.817816 -4.152908 3.064272e-21)
(-2.309049 -2.446434 -5.403211e-18)
(-0.6607332 -0.4089367 -3.910237e-20)
(0.6740196 1.533533 -3.510714e-18)
(1.773086 3.458034 2.799715e-20)
(2.556737 4.863122 -1.22717e-23)
(2.868805 5.541997 -2.327082e-20)
(2.344998 4.867894 0)
(1.769568 4.547201 0)
(1.669969 5.186723 -4.060912e-18)
(1.747533 5.557035 0)
(1.692034 5.635471 -5.397229e-18)
(0.7041064 1.762067 2.421855e-18)
(-0.4446632 -5.100472 -2.081355e-20)
(-0.8525913 -9.103076 1.97265e-20)
(-0.8337828 -11.05357 1.51923e-18)
(-0.5790967 -11.85679 -8.229175e-19)
(-0.2219691 -12.15298 -4.102707e-19)
(0.3591217 -12.00648 3.414742e-19)
(0.8180364 -11.84619 -6.690829e-19)
(1.240375 -11.52777 1.882038e-20)
(1.585633 -11.03676 -1.175696e-18)
(1.850338 -10.37561 0)
(2.047068 -9.572345 -3.604794e-18)
(2.170603 -8.666915 -2.205499e-20)
(2.217256 -7.699747 1.307685e-18)
(2.210201 -6.733467 2.197033e-18)
(2.172291 -5.825746 1.904283e-18)
(2.07619 -5.004392 1.674415e-18)
(1.9955 -4.283375 -1.265109e-20)
(1.886375 -3.676132 0)
(1.736342 -3.116092 0)
(1.50428 -2.547903 1.341513e-18)
(1.13888 -1.89538 1.324934e-18)
(0.5823313 -1.11751 1.304476e-18)
(0.007202411 -0.308749 2.156384e-20)
(0.07060913 -0.110735 0)
(0.8163476 -0.703639 2.106623e-18)
(0.0925863 -0.2772516 2.525213e-18)
(-1.705454 0.9148278 -2.725397e-18)
(-2.955586 1.920425 0)
(-3.570771 2.545787 3.229415e-18)
(-3.367725 2.75463 0)
(-1.730715 1.980888 -8.949601e-19)
(2.315314 -0.7512515 0)
(3.441462 -2.059906 6.412025e-19)
(2.691662 -1.702495 -4.764111e-19)
(2.397214 -1.220844 0)
(2.484709 -1.03116 0)
(1.766972 -0.9218631 6.009915e-22)
(-0.1420502 -0.6608077 -2.159352e-18)
(-2.395427 -0.03426077 3.835181e-18)
(-3.563938 0.9715846 1.06955e-17)
(-4.691238 1.798555 -1.971467e-18)
(1.756282 0.7070743 1.09488e-18)
(10.54279 -0.2231938 -5.550887e-19)
(14.21765 0.2189986 0)
(16.04163 1.023973 0)
(16.93098 1.612606 -1.295348e-18)
(16.6415 1.973577 -1.424806e-18)
(16.48773 2.498702 -2.950235e-18)
(16.42142 3.12562 3.015716e-18)
(16.3072 3.773509 7.248484e-20)
(16.13416 4.408143 -4.859565e-20)
(15.89486 5.021466 0)
(15.58432 5.5986 0)
(15.2124 6.147614 5.785431e-18)
(14.79395 6.667702 -5.584273e-18)
(14.32508 7.143514 0)
(13.80302 7.572848 0)
(13.23625 7.948713 7.132275e-20)
(12.63054 8.27319 -4.496135e-18)
(11.99438 8.541015 0)
(11.33172 8.748707 -3.538114e-18)
(10.65068 8.90741 -3.116475e-18)
(9.959944 9.011258 -2.641605e-18)
(9.256609 9.046252 2.221481e-18)
(8.541924 9.017139 -2.368943e-20)
(7.828957 8.934136 1.273382e-18)
(7.126321 8.797751 0)
(6.436859 8.599058 -3.252662e-19)
(5.76105 8.3383 6.463915e-21)
(5.102251 8.023547 7.409308e-21)
(4.471345 7.646938 -1.164696e-18)
(3.863629 7.217407 0)
(3.292241 6.737501 -2.070699e-18)
(2.757023 6.213284 -2.086352e-20)
(2.265451 5.6477 2.901656e-18)
(1.818758 5.043404 1.640493e-18)
(1.420875 4.400935 -1.812539e-18)
(1.072453 3.722989 -1.971989e-18)
(0.7781169 3.019188 2.108751e-18)
(0.5341672 2.301374 -2.234093e-18)
(0.3596573 1.558636 -1.135613e-18)
(0.2297962 0.8064956 2.376329e-18)
(0.1617763 0.07505454 1.223247e-18)
(0.1536678 -0.6326879 2.440809e-21)
(0.2300451 -1.378736 5.920826e-19)
(0.3463868 -2.165575 -8.812823e-21)
(0.5263786 -2.946114 0)
(0.766046 -3.704062 -1.471378e-20)
(1.060742 -4.435782 -1.223064e-20)
(1.411659 -5.138804 -1.566468e-18)
(1.81349 -5.80751 2.822712e-18)
(2.272235 -6.44027 -1.205531e-18)
(2.774034 -7.039586 1.887406e-18)
(3.320254 -7.590194 1.30916e-20)
(3.912152 -8.094586 0)
(4.539321 -8.558726 4.362663e-19)
(5.201627 -8.967592 -6.203794e-21)
(5.900055 -9.323698 6.512455e-19)
(6.623051 -9.634077 0)
(7.363446 -9.880113 1.776798e-18)
(8.120071 -10.05655 0)
(8.889889 -10.17704 -5.353842e-20)
(9.666738 -10.23959 3.449024e-18)
(10.45074 -10.23719 0)
(11.23142 -10.17907 -4.605927e-18)
(12.00119 -10.05786 -5.146151e-18)
(12.75207 -9.870185 -5.655108e-18)
(13.47947 -9.618382 0)
(14.18811 -9.307493 -1.324168e-17)
(14.87134 -8.944742 1.059535e-19)
(15.52154 -8.523623 0)
(16.13107 -8.051111 0)
(16.69658 -7.527972 0)
(17.21902 -6.959834 8.420957e-18)
(17.69077 -6.357135 -8.717197e-18)
(18.10338 -5.715462 0)
(18.4526 -5.03712 0)
(18.73628 -4.332173 4.601191e-18)
(18.96039 -3.601984 3.673222e-20)
(19.11866 -2.852219 0)
(19.20032 -2.09039 0)
(19.21813 -1.331527 -2.313273e-18)
(19.18831 -0.5976969 2.775763e-19)
(19.32991 0.01873568 0)
(19.61413 0.4593619 9.62856e-19)
(18.48157 1.01856 2.419144e-20)
(16.34711 1.693035 2.339886e-20)
(13.21601 2.04405 -3.276161e-20)
(5.887473 0.7354936 3.351736e-18)
(-3.585551 -2.333615 4.439363e-18)
(-5.455207 -2.662827 9.106439e-20)
(-4.053092 -1.18547 9.116504e-20)
(-2.054212 -0.00972109 9.052488e-18)
(0.3159328 0.7300782 5.956915e-18)
(1.46676 0.934784 0)
(1.280886 0.839527 4.223023e-18)
(1.239359 1.20867 0)
(1.716732 2.072549 -1.548213e-20)
(3.792921 3.278443 -6.83068e-19)
(2.187527 0.6189404 3.341615e-20)
(-2.976205 -3.932139 -3.258931e-20)
(-4.259244 -4.701219 5.075372e-18)
(-4.944292 -5.221932 -6.667095e-18)
(-4.927774 -5.215259 -6.695981e-18)
(-4.13129 -4.235601 -5.599465e-18)
(-2.752246 -2.602728 -4.285162e-18)
(-1.186377 -0.7113838 0)
(0.1090328 1.096411 -5.72333e-21)
(1.177042 2.878992 0)
(2.151713 4.304474 -3.21187e-18)
(2.611068 4.990638 3.349611e-18)
(2.375986 4.827876 0)
(1.800657 4.766622 0)
(1.466026 4.89092 6.760103e-18)
(1.430217 4.601174 -2.226377e-18)
(1.46371 3.916501 4.463604e-18)
(0.314021 -2.77495 -1.488005e-20)
(-0.661821 -9.063378 1.38279e-20)
(-0.9332031 -11.08951 0)
(-0.8346203 -11.68419 -1.226e-18)
(-0.5225719 -11.91193 1.323594e-18)
(-0.104024 -12.02067 3.411129e-19)
(0.2042443 -11.91409 -5.641543e-19)
(0.5869367 -11.74342 -1.654698e-20)
(0.9736924 -11.40155 1.650922e-20)
(1.319607 -10.89377 -2.777651e-20)
(1.592774 -10.22467 2.791193e-20)
(1.802524 -9.424498 1.477904e-18)
(1.939537 -8.531069 -1.79774e-20)
(1.997691 -7.581501 -1.06866e-18)
(2.004051 -6.634484 3.065256e-20)
(1.98794 -5.741297 -1.52172e-18)
(1.901596 -4.929568 -3.32568e-20)
(1.845644 -4.213684 0)
(1.752952 -3.618479 0)
(1.619772 -3.079035 -1.162018e-18)
(1.399078 -2.541765 -1.117154e-18)
(1.045274 -1.931038 -2.173163e-18)
(0.4927942 -1.188798 -1.067583e-18)
(-0.04512916 -0.3349172 0)
(0.1260766 -0.1131712 0)
(0.7941326 -0.7210068 -3.497482e-18)
(-0.4516241 -0.02988799 -4.090714e-18)
(-2.035213 0.8969905 3.714038e-20)
(-3.078544 1.825345 -7.678046e-20)
(-3.512552 2.466184 -5.319712e-18)
(-3.117991 2.752452 -1.982686e-18)
(-1.685553 2.384885 7.224045e-19)
(1.532742 0.1503653 -3.716992e-19)
(3.505339 -1.966099 -5.260506e-19)
(4.182208 -2.357314 1.907197e-19)
(4.768706 -2.125116 0)
(5.123381 -1.999301 -2.866746e-20)
(4.554689 -1.996593 -2.049833e-18)
(3.083596 -1.869134 4.876314e-21)
(1.324582 -1.162831 5.329425e-20)
(0.1074767 0.1554336 -4.793977e-18)
(-1.140906 1.589378 -1.637456e-18)
(5.931679 1.075919 5.453431e-21)
(14.88679 0.1346862 -4.069502e-19)
(16.50038 0.2820345 -2.491199e-19)
(16.77827 0.9002244 -2.002427e-21)
(16.52558 1.373353 0)
(16.39163 1.65375 -1.837396e-20)
(16.52733 2.124262 1.244153e-18)
(16.55661 2.692119 -4.987433e-18)
(16.49287 3.312031 3.924474e-20)
(16.33998 3.936422 -2.542428e-18)
(16.10341 4.551934 -7.707589e-20)
(15.79663 5.1337 -4.839775e-18)
(15.42823 5.69118 -1.005051e-20)
(15.01145 6.228562 4.607906e-18)
(14.54572 6.719301 -4.31547e-18)
(14.02574 7.167706 0)
(13.46019 7.562879 5.753022e-20)
(12.85334 7.91011 -5.785422e-20)
(12.2146 8.201409 0)
(11.54756 8.433464 2.915569e-18)
(10.86104 8.616467 6.298627e-20)
(10.16362 8.744614 2.208211e-18)
(9.453742 8.802653 -1.766596e-18)
(8.733763 8.793433 -1.376539e-18)
(8.011996 8.731819 -1.028466e-18)
(7.301194 8.615493 -5.963874e-19)
(6.603789 8.435457 3.094392e-22)
(5.91863 8.192885 -3.124222e-22)
(5.250329 7.89568 0)
(4.610591 7.534941 9.457369e-19)
(3.993416 7.120544 -2.369456e-20)
(3.413567 6.654169 1.725039e-18)
(2.870437 6.142211 2.027753e-18)
(2.373494 5.587063 -2.35094e-18)
(1.921294 4.992574 -1.346454e-18)
(1.518865 4.35919 -3.016095e-21)
(1.166415 3.690011 1.617569e-18)
(0.8709083 2.993881 2.759143e-20)
(0.6234391 2.284124 1.789718e-18)
(0.4508268 1.546628 1.488794e-20)
(0.3184681 0.7989137 -9.926506e-19)
(0.2478138 0.07370031 -4.983491e-19)
(0.2377679 -0.6353958 -6.047796e-23)
(0.3239339 -1.378857 4.70167e-19)
(0.4412682 -2.160025 7.220954e-21)
(0.6227826 -2.933593 -8.592497e-19)
(0.8663685 -3.684255 1.604665e-18)
(1.165272 -4.407326 0)
(1.520742 -5.099931 -4.171738e-21)
(1.927059 -5.756749 -1.162043e-18)
(2.392852 -6.376388 1.015145e-18)
(2.900054 -6.962801 -1.634732e-18)
(3.456533 -7.497435 1.58024e-20)
(4.060051 -7.985358 -1.566047e-20)
(4.694097 -8.434841 -3.586027e-19)
(5.36701 -8.825621 0)
(6.080166 -9.161138 -5.421442e-19)
(6.810849 -9.454581 3.043287e-20)
(7.560476 -9.680619 -6.771991e-20)
(8.328011 -9.835008 -1.832828e-18)
(9.106951 -9.933777 -2.404041e-18)
(9.892367 -9.973299 -1.582198e-20)
(10.68425 -9.946742 3.220354e-18)
(11.47376 -9.86224 -5.409633e-20)
(12.24979 -9.71536 -4.104508e-18)
(13.00633 -9.500213 0)
(13.7404 -9.218448 4.916708e-18)
(14.45277 -8.880341 5.37874e-18)
(15.1357 -8.494258 5.556763e-18)
(15.78496 -8.048706 -5.894041e-18)
(16.39196 -7.553476 6.29788e-18)
(16.95452 -7.00754 0)
(17.47351 -6.417247 -1.378456e-17)
(17.94088 -5.797354 1.438864e-17)
(18.34823 -5.138046 -1.704895e-19)
(18.69091 -4.447539 -3.70182e-18)
(18.97228 -3.727933 -3.771014e-18)
(19.18549 -2.996295 0)
(19.32115 -2.263097 1.950761e-18)
(19.37086 -1.525044 -1.939716e-18)
(19.32152 -0.8161987 9.585332e-19)
(19.17778 -0.161556 -2.376863e-19)
(18.96667 0.3541276 -4.465233e-19)
(19.14691 0.6860303 1.289808e-20)
(19.47105 1.284114 -1.623043e-18)
(19.06422 2.060977 2.818129e-20)
(17.95938 2.395871 0)
(11.4477 1.027748 0)
(0.1229771 -1.932243 -1.387611e-19)
(-0.4210215 -1.167485 1.659188e-19)
(-0.05330374 0.4933492 0)
(1.811884 1.965428 0)
(3.634584 2.548548 0)
(4.658945 2.625539 3.699946e-18)
(4.412018 2.500008 -6.595619e-18)
(3.706951 2.635868 2.460194e-18)
(2.857052 2.901359 -1.058993e-18)
(3.030143 2.550071 -2.83097e-20)
(0.6782015 -1.346894 1.094738e-18)
(-2.653714 -4.213078 2.437148e-18)
(-3.82715 -4.514422 7.442152e-20)
(-4.788564 -5.147104 9.016053e-21)
(-4.948676 -5.159646 -8.607963e-20)
(-4.357145 -4.175918 -6.25915e-20)
(-3.147527 -2.680107 3.576291e-18)
(-1.766363 -1.073783 0)
(-0.514791 0.5834517 2.323911e-18)
(0.5429516 2.302891 -2.231036e-18)
(1.673962 3.685887 2.670684e-18)
(2.216171 4.204368 0)
(2.034191 4.011701 0)
(1.540885 4.186068 -4.203534e-20)
(0.9189812 3.232877 -2.947551e-18)
(0.6949537 1.580208 1.955227e-18)
(0.805228 -0.9391855 -1.757215e-18)
(0.04964231 -7.258472 0)
(-0.5853412 -10.60878 0)
(-0.8534348 -11.04233 0)
(-0.7963948 -11.39691 -9.942508e-19)
(-0.5345098 -11.71274 -5.642832e-19)
(-0.181769 -11.90301 -5.634642e-19)
(0.291588 -11.59305 2.333385e-19)
(0.6680185 -11.39285 0)
(1.000506 -11.03101 -8.362986e-19)
(1.279098 -10.51466 0)
(1.487974 -9.848726 -1.36937e-18)
(1.652097 -9.062529 0)
(1.757938 -8.19355 0)
(1.798417 -7.277997 -8.552302e-19)
(1.80051 -6.375232 -1.44695e-18)
(1.797533 -5.529879 1.27256e-18)
(1.716709 -4.754193 -1.116689e-18)
(1.679516 -4.063541 1.031552e-18)
(1.59864 -3.488931 0)
(1.480185 -2.988606 1.912416e-18)
(1.274513 -2.510409 9.186271e-19)
(0.9471689 -1.976754 9.195344e-19)
(0.4115457 -1.304761 -2.765606e-20)
(-0.1071189 -0.3921105 -3.264519e-20)
(-0.07371257 0.1697342 -1.135896e-18)
(0.5043012 -0.4772439 2.916376e-18)
(-1.045349 0.2096525 1.662432e-18)
(-2.356595 0.8698284 6.102669e-20)
(-3.177279 1.708004 2.053089e-18)
(-3.419923 2.378627 2.227422e-18)
(-2.831081 2.738593 1.63395e-18)
(-1.30896 2.572733 0)
(1.303373 0.8172481 1.381821e-20)
(3.877792 -1.822325 0)
(5.746055 -2.874418 1.211037e-19)
(6.963049 -2.864647 8.020122e-19)
(7.587741 -2.86077 1.272834e-18)
(7.333094 -3.027799 -6.213083e-20)
(6.483151 -3.100979 3.254723e-20)
(5.317794 -2.435845 -4.863126e-18)
(3.789297 -0.7085832 0)
(4.166448 1.298936 -1.226029e-18)
(11.0211 1.506946 -6.3704e-19)
(16.48252 0.5510435 6.444616e-19)
(16.03033 0.353758 1.96188e-19)
(16.18579 0.9236677 0)
(16.09891 1.474558 4.43924e-19)
(16.16659 1.907299 0)
(16.26711 2.455392 0)
(16.2694 3.049696 2.081437e-18)
(16.19458 3.678482 -3.191787e-20)
(16.04407 4.282117 4.022385e-20)
(15.8134 4.877908 -2.013047e-18)
(15.51182 5.434149 4.064176e-18)
(15.14901 5.963998 -3.876572e-18)
(14.74073 6.473126 -3.724054e-18)
(14.28992 6.925213 1.79601e-19)
(13.78343 7.340419 -1.074844e-19)
(13.23481 7.700772 -9.323269e-20)
(12.64442 8.018371 -2.657973e-18)
(12.02439 8.282078 -2.663035e-18)
(11.37668 8.487069 -6.791297e-20)
(10.70725 8.649207 2.132246e-18)
(10.03139 8.756289 0)
(9.344613 8.793574 1.454685e-18)
(8.642243 8.770204 1.133172e-18)
(7.938971 8.696454 7.6628e-19)
(7.248985 8.569323 4.907054e-19)
(6.571438 8.381009 0)
(5.906043 8.130797 0)
(5.254161 7.830915 -5.066761e-19)
(4.633349 7.466898 0)
(4.02975 7.053485 0)
(3.465011 6.58897 1.476915e-18)
(2.937464 6.079794 -3.602313e-20)
(2.449319 5.530839 -1.038068e-20)
(2.004154 4.942367 -3.626628e-20)
(1.609229 4.315065 2.48415e-18)
(1.264997 3.651956 0)
(0.979273 2.961924 0)
(0.7281142 2.264017 1.513175e-18)
(0.5614216 1.533708 7.498444e-19)
(0.4253557 0.7900438 7.999257e-19)
(0.3509634 0.07181628 -4.078079e-19)
(0.3392811 -0.638317 0)
(0.4403164 -1.376285 -2.366238e-22)
(0.5601343 -2.151146 2.283258e-20)
(0.7322536 -2.918916 6.816287e-19)
(0.968219 -3.660919 -1.315487e-18)
(1.261155 -4.372609 -3.627314e-20)
(1.61025 -5.053447 1.095194e-18)
(2.0091 -5.699266 3.189833e-20)
(2.467211 -6.309738 1.645959e-18)
(2.958603 -6.891211 -1.582354e-20)
(3.499795 -7.42143 -1.049882e-18)
(4.092419 -7.906572 2.637173e-20)
(4.709829 -8.357411 0)
(5.360461 -8.751833 -7.038038e-21)
(6.058127 -9.090711 0)
(6.773156 -9.390278 0)
(7.499397 -9.627156 -1.162869e-18)
(8.24646 -9.792044 3.021999e-18)
(9.007625 -9.902508 6.482499e-20)
(9.771455 -9.957848 -1.210907e-19)
(10.54268 -9.948316 -2.645942e-18)
(11.31091 -9.885347 -2.956427e-18)
(12.06611 -9.761587 3.493025e-18)
(12.80069 -9.57369 -3.761086e-18)
(13.51253 -9.322242 -7.689522e-20)
(14.20747 -9.012058 0)
(14.87256 -8.658748 -4.810224e-18)
(15.50631 -8.245427 1.010067e-17)
(16.09877 -7.786079 -5.357932e-18)
(16.64776 -7.276985 0)
(17.15706 -6.722913 9.502001e-20)
(17.61565 -6.140069 -5.765428e-18)
(18.01661 -5.513738 -9.204369e-20)
(18.35649 -4.853898 1.4624e-19)
(18.63505 -4.159091 -9.624369e-20)
(18.84829 -3.447812 0)
(18.98686 -2.725905 -3.110226e-18)
(19.0409 -2.000833 1.510081e-18)
(19.00572 -1.278169 7.539871e-19)
(18.89115 -0.5804239 -1.186673e-20)
(18.71032 0.03591673 3.614406e-19)
(18.61216 0.5240623 6.779069e-19)
(18.77576 1.189163 0)
(18.52162 1.973063 1.324889e-18)
(18.7932 2.212906 -6.500741e-20)
(16.21533 1.065919 1.904577e-18)
(6.69148 -1.062623 0)
(3.611569 0.1790956 0)
(4.490624 2.529427 0)
(5.97205 4.093421 7.089201e-20)
(7.116803 4.39203 3.511495e-18)
(7.761355 4.217015 -3.017142e-18)
(7.421576 4.012915 2.644654e-18)
(6.236311 3.969169 -3.874181e-18)
(4.346553 3.677505 8.971563e-19)
(2.607829 1.743719 0)
(0.04024901 -2.610339 -9.000891e-19)
(-1.928911 -3.998174 -1.994223e-18)
(-3.380222 -4.370472 3.696623e-18)
(-4.527026 -5.060383 -1.292511e-19)
(-4.906175 -5.042345 -1.327071e-19)
(-4.525853 -4.020887 1.26594e-19)
(-3.47541 -2.664713 0)
(-2.295017 -1.36118 -2.296081e-18)
(-1.06229 0.2664912 5.845638e-20)
(-0.01401308 1.988819 3.607314e-18)
(1.287133 3.29545 -2.275141e-18)
(1.939567 3.609475 1.422915e-19)
(1.75334 3.298985 -2.190112e-18)
(1.226255 3.132562 0)
(0.1376763 0.03442212 -2.445306e-18)
(-0.1230712 -2.901424 1.494092e-18)
(0.1531127 -6.095561 -8.014873e-20)
(-0.006681926 -9.785125 1.210481e-18)
(-0.4364662 -10.63634 -5.82204e-20)
(-0.7496494 -10.72447 2.1811e-20)
(-0.701409 -11.16358 8.390818e-19)
(-0.4489507 -11.47818 -7.093567e-21)
(-0.09706818 -11.62312 9.23714e-21)
(0.1874204 -11.08886 1.171716e-20)
(0.5197443 -10.87207 3.531304e-19)
(0.8168891 -10.50671 6.922907e-19)
(1.066357 -9.993022 -6.28426e-19)
(1.251383 -9.331313 1.13241e-18)
(1.389497 -8.553866 0)
(1.473644 -7.698471 7.886674e-19)
(1.499012 -6.80377 7.552346e-19)
(1.493343 -5.938351 1.195377e-18)
(1.50808 -5.151095 0)
(1.445083 -4.441433 0)
(1.441231 -3.823216 -8.512821e-19)
(1.386035 -3.282407 -2.488919e-20)
(1.2879 -2.825164 -7.624821e-19)
(1.106967 -2.419367 -7.569138e-19)
(0.8223374 -2.004564 -7.387327e-19)
(0.3152338 -1.454639 7.191526e-19)
(-0.1825256 -0.5618673 -7.56317e-19)
(-0.3849957 0.5087311 9.020174e-19)
(0.028664 -0.09571164 -1.158788e-18)
(-1.633328 0.4205603 0)
(-2.674234 0.8470647 0)
(-3.324059 1.619698 -1.733092e-18)
(-3.392402 2.364866 0)
(-2.532757 2.771651 -3.147805e-20)
(-0.7871868 2.682518 2.399287e-20)
(1.611835 1.276301 2.188651e-19)
(4.580156 -1.607445 9.561907e-21)
(7.201486 -3.172358 -1.879203e-20)
(8.748554 -3.385813 -6.427296e-19)
(9.59496 -3.517466 -4.313605e-21)
(9.759882 -3.834252 6.421982e-19)
(9.73992 -4.170344 -4.506276e-20)
(9.756619 -3.636549 1.979516e-18)
(9.436386 -1.542926 -7.514044e-20)
(10.5716 1.094582 3.733996e-18)
(14.89463 1.803102 2.166812e-20)
(16.2831 0.7858864 8.104374e-21)
(15.46565 0.3706778 -3.346704e-19)
(16.01025 0.9011773 -2.722464e-21)
(16.06768 1.352811 -3.694951e-19)
(16.19843 1.72756 -2.449831e-20)
(16.29873 2.210763 -7.711742e-19)
(16.31005 2.747933 1.620744e-18)
(16.23627 3.351753 -1.636125e-18)
(16.08418 3.945666 3.204984e-18)
(15.8524 4.543024 1.761541e-18)
(15.55379 5.108533 0)
(15.18901 5.657731 0)
(14.78047 6.188561 3.019769e-18)
(14.32974 6.659937 2.875353e-18)
(13.82274 7.093529 0)
(13.27611 7.465736 -7.468764e-20)
(12.68552 7.797018 2.410636e-18)
(12.06267 8.078973 2.121412e-18)
(11.41563 8.295181 1.824288e-18)
(10.75181 8.462388 -4.690642e-20)
(10.07805 8.580845 -1.314826e-18)
(9.388855 8.633104 3.114832e-20)
(8.691042 8.615093 -3.143041e-20)
(7.996 8.544495 -6.448174e-19)
(7.309206 8.425983 3.492051e-19)
(6.628372 8.252014 0)
(5.971158 8.005549 0)
(5.322202 7.715055 8.402304e-19)
(4.710484 7.356365 -7.727944e-21)
(4.111404 6.951115 -7.382712e-21)
(3.562132 6.490469 -1.138851e-18)
(3.043626 5.987753 -2.765335e-18)
(2.54987 5.455257 1.513284e-18)
(2.108082 4.878938 -1.775888e-18)
(1.717854 4.262465 -9.714775e-19)
(1.381489 3.608307 -3.293059e-20)
(1.103575 2.922552 0)
(0.8473544 2.239122 -1.181318e-18)
(0.6956579 1.520178 -3.966703e-20)
(0.5541516 0.7802139 -6.64942e-19)
(0.476289 0.06876368 3.493812e-19)
(0.4648726 -0.641766 -4.904377e-23)
(0.5813491 -1.371438 -3.347347e-19)
(0.6949978 -2.142964 2.835543e-20)
(0.8605687 -2.901992 -5.947758e-19)
(1.086632 -3.626508 1.079338e-18)
(1.372999 -4.320562 -1.02797e-18)
(1.717687 -4.987056 2.868663e-21)
(2.112898 -5.620052 8.213251e-19)
(2.57558 -6.218139 -1.311392e-18)
(3.058004 -6.793395 1.08837e-18)
(3.588307 -7.317729 7.870545e-19)
(4.181904 -7.794206 8.467127e-21)
(4.807447 -8.232739 8.868991e-21)
(5.450983 -8.620087 1.052861e-20)
(6.132434 -8.960081 -2.657615e-19)
(6.84782 -9.251233 2.339164e-20)
(7.573524 -9.47766 8.535888e-19)
(8.312977 -9.63609 -2.437567e-18)
(9.066572 -9.74258 1.51103e-18)
(9.835775 -9.779917 -5.77645e-20)
(10.60448 -9.760114 -2.134895e-18)
(11.36534 -9.692657 4.869721e-18)
(12.12097 -9.554898 8.861735e-20)
(12.85273 -9.355936 2.916893e-18)
(13.56504 -9.087567 -3.380164e-18)
(14.26189 -8.759972 1.046293e-19)
(14.92566 -8.393127 -3.8053e-18)
(15.55961 -7.960812 -3.877158e-18)
(16.15075 -7.485355 1.331355e-19)
(16.7005 -6.952988 -4.440363e-18)
(17.20968 -6.377267 4.577254e-18)
(17.66732 -5.775271 0)
(18.06574 -5.131904 0)
(18.40074 -4.452647 2.480982e-18)
(18.67326 -3.75501 2.481313e-18)
(18.88426 -3.045541 0)
(19.02265 -2.331326 1.331865e-18)
(19.0791 -1.615177 1.219982e-18)
(19.04273 -0.9297699 -6.316605e-19)
(18.92007 -0.2907468 1.461798e-19)
(18.74665 0.249326 2.956148e-19)
(18.57032 0.6691521 -5.654786e-19)
(18.51093 1.201932 0)