/*--------------------------------*- C++ -*----------------------------------*\
| =========                 |                                                 |
| \\      /  F ield         | OpenFOAM: The Open Source CFD Toolbox           |
|  \\    /   O peration     | Version:  2406                                  |
|   \\  /    A nd           | Website:  www.openfoam.com                      |
|    \\/     M anipulation  |                                                 |
\*---------------------------------------------------------------------------*/
FoamFile
{
    version     2.0;
    format      ascii;
    arch        "LSB;label=32;scalar=64";
    class       volScalarField;
    location    "2.02";
    object      p;
}
// * * * * * * * * * * * * * * * * * * * * * * * * * * * * * * * * * * * * * //

dimensions      [0 2 -2 0 0 0 0];

internalField   nonuniform List<scalar> 
217010
(
-160.8108
-97.71166
-102.2054
-103.7374
-103.7215
-100.1689
-98.79371
-97.41862
-98.64409
-99.30419
-98.5672
-98.35824
-99.24654
-100.5029
-102.3001
-104.0608
-105.8308
-107.3991
-108.0142
-107.6978
-105.6209
-99.1789
-90.33308
-98.48152
-106.3926
-110.2521
-115.3694
-114.9871
-111.1055
-106.5478
-107.8189
-112.9203
-111.2961
-112.222
-128.0476
-145.8542
-156.9024
-160.5216
-156.9842
-145.7505
-129.7476
-113.295
-96.79621
-80.25655
-62.57539
-45.21577
-32.88924
-24.17028
-19.09691
-12.10344
-20.09837
-16.58231
-15.59569
-14.56593
-16.32769
-19.99788
-25.14755
-30.69142
-36.58786
-43.28155
-50.3543
-57.22712
-63.52416
-67.14486
-67.88351
-66.10231
-61.13649
-53.03142
-43.97166
-41.48562
-45.51993
-46.56519
-43.23586
-42.2148
-50.3413
-56.41495
-56.70089
-49.82463
-36.61227
-26.62307
-32.32553
-42.58116
-52.42932
-61.85179
-68.39886
-69.63709
-72.93182
-92.28578
-127.8798
-140.5483
-104.7478
-82.70381
-96.94576
-110.0524
-115.3753
-113.6031
-111.3153
-111.217
-112.6094
-114.2123
-115.3927
-116.0054
-116.1112
-115.7569
-114.9594
-113.8322
-112.4112
-110.6745
-108.6137
-106.2959
-103.8304
-101.1947
-98.46963
-95.62319
-92.54263
-89.34125
-86.2025
-82.94289
-79.69295
-76.42619
-73.13638
-69.96101
-66.96953
-64.21353
-61.70998
-59.56325
-57.84985
-56.64094
-56.01058
-56.13578
-57.00972
-58.68979
-60.74228
-64.9186
-69.25482
-74.20299
-79.62956
-85.3386
-90.65305
-95.13522
-98.60594
-100.9113
-102.2259
-103.0669
-103.9644
-105.3026
-107.348
-110.1288
-116.3784
-119.0695
-206.8955
-179.1592
-169.9231
-164.1506
-157.1601
-144.0583
-125.3643
-107.2557
-95.50983
-88.87787
-86.43332
-91.63804
-98.19874
-100.4582
-98.92615
-92.92227
-83.90414
-71.70728
-61.96263
-65.71154
-80.0171
-98.17852
-117.8892
-138.3123
-157.6904
-173.0128
-183.3629
-187.8629
-185.0157
-174.3438
-158.096
-142.0669
-133.6492
-133.0763
-139.9953
-150.9353
-152.0608
-141.911
-122.3217
-114.2595
-110.2245
-111.3758
-112.6956
-113.1739
-112.1077
-112.4723
-114.0199
-116.5136
-109.97
-174.7855
-90.15076
-79.52952
-66.5258
-58.90082
-52.3384
-46.9056
-42.20518
-37.94381
-34.22902
-30.85198
-27.77774
-24.96289
-22.3087
-19.79876
-17.44611
-15.26566
-13.224
-11.26039
-9.381424
-7.584591
-5.866007
-4.235176
-2.688679
-1.169939
0.3136593
1.765042
3.156563
4.47255
5.744593
6.997892
8.235717
9.449341
10.60691
11.73209
12.84808
13.9425
15.02523
16.09411
17.1659
18.19395
19.23876
20.2366
21.22651
22.2022
23.17333
24.12658
25.06265
26.0012
26.95619
27.90853
28.83942
29.75455
30.66753
31.60669
32.55849
33.4983
34.4416
35.39537
36.3537
37.32584
38.2983
39.26774
40.28519
41.39551
42.52135
43.61139
44.74872
46.03805
47.46379
48.76422
50.32536
53.99364
52.01391
50.75097
49.74194
48.77311
47.8012
46.81267
45.8739
45.0347
44.23748
43.39034
42.51976
41.67283
40.86752
40.07935
39.28753
38.48332
37.67889
36.89736
36.12181
35.32948
34.53484
33.74895
32.94787
32.15084
31.33533
30.4862
29.64937
28.8307
28.00388
27.15041
26.25179
25.38578
24.47926
23.54775
22.61249
21.66877
20.68497
19.68174
18.67433
17.64052
16.54885
15.40296
14.25044
13.09985
11.90154
10.63964
9.333047
7.962448
6.531395
5.052827
3.512861
1.943245
0.2618732
-1.538847
-3.417617
-5.423556
-7.534293
-9.818814
-12.3012
-14.95284
-17.81193
-21.01391
-24.58669
-28.66212
-33.19556
-38.45954
-44.9524
-52.47757
-65.3247
-75.72702
53.91618
52.23851
50.90408
49.8661
48.89201
47.91604
46.92099
45.97139
45.1215
44.31968
43.47146
42.59786
41.74526
40.93438
40.14243
39.34795
38.5412
37.7334
36.9486
36.17045
35.37596
34.57898
33.79086
32.9876
32.18892
31.37173
30.52105
29.68188
28.8608
28.03237
27.1778
26.27683
25.41047
24.5016
23.56831
22.63156
21.6865
20.70108
19.69651
18.68765
17.65256
16.55909
15.41138
14.25734
13.10549
11.90522
10.64163
9.333556
7.960805
6.527221
5.045965
3.503145
1.931686
0.2456098
-1.559392
-3.442142
-5.453932
-7.569398
-9.862093
-12.35321
-15.01288
-17.8824
-21.09801
-24.68518
-28.79218
-33.35146
-38.65642
-45.19761
-52.87654
-65.68649
-77.733
-92.14676
-79.91175
-66.93519
-59.1522
-52.54358
-47.06813
-42.34195
-38.04626
-34.3172
-30.92852
-27.84178
-25.0182
-22.35637
-19.83885
-17.4788
-15.29204
-13.24642
-11.27867
-9.395587
-7.595134
-5.873353
-4.239095
-2.690599
-1.169961
0.3156343
1.769095
3.162978
4.480636
5.754348
7.009423
8.249103
9.464581
10.62394
11.75058
12.86845
13.96454
15.04925
16.12031
17.19493
18.22356
19.27081
20.27047
21.26262
22.24043
23.21351
24.16882
25.10727
26.04874
27.00653
27.96125
28.89417
29.81204
30.7288
31.67185
32.62721
33.5704
34.51774
35.47581
36.43893
37.41543
38.39241
39.36941
40.39794
41.51728
42.64787
43.74566
44.9014
46.21198
47.63946
48.98158
50.55585
-194.604
-181.2147
-170.7641
-164.8074
-158.2353
-145.6756
-127.2694
-108.7747
-96.3707
-89.21559
-86.36434
-91.29063
-97.90752
-100.3936
-99.09288
-93.33801
-84.49896
-72.29924
-62.08348
-65.52665
-79.62634
-97.71297
-117.4205
-137.8897
-157.3442
-172.7696
-183.2343
-187.8893
-185.1742
-174.594
-158.3117
-142.1723
-133.6386
-133.0907
-140.0231
-150.9837
-152.1685
-141.9913
-122.2778
-114.2463
-110.2437
-111.4097
-112.7231
-113.1761
-112.0993
-112.5121
-114.1002
-116.4934
-111.5715
-162.8495
-19.58284
-16.91821
-15.71823
-14.54685
-16.04565
-19.52728
-24.57777
-30.09803
-35.96271
-42.61268
-49.68929
-56.61636
-63.07412
-66.92923
-67.88427
-66.30922
-61.58795
-53.61366
-44.39165
-41.45483
-45.40067
-46.65403
-43.33576
-42.12217
-50.07533
-56.2625
-56.8427
-50.23492
-37.15053
-26.67169
-32.17573
-42.35414
-52.19233
-61.65738
-68.30472
-69.52441
-72.64796
-91.86995
-127.7921
-141.0353
-105.2763
-82.73944
-96.89383
-110.0966
-115.4044
-113.621
-111.3481
-111.2615
-112.6645
-114.2537
-115.4178
-116.0199
-116.1191
-115.7607
-114.9577
-113.8253
-112.3969
-110.6508
-108.5817
-106.2564
-103.7841
-101.1415
-98.40854
-95.55342
-92.46406
-89.25854
-86.09953
-82.83879
-79.58239
-76.30894
-73.01467
-69.8387
-66.84944
-64.09878
-61.6044
-59.47217
-57.77849
-56.59575
-55.99888
-56.1608
-57.07718
-58.80411
-60.93255
-65.20704
-69.59004
-74.59686
-80.08224
-85.82252
-91.115
-95.54938
-98.93792
-101.1257
-102.3541
-103.1681
-104.0909
-105.4995
-107.6253
-110.6905
-116.7872
-122.2868
-148.4609
-99.42576
-102.2982
-103.7628
-103.8393
-100.2691
-98.84061
-97.42957
-98.64023
-99.3101
-98.57962
-98.35702
-99.23748
-100.4914
-102.2934
-104.0664
-105.836
-107.4066
-108.0291
-107.7275
-105.6465
-99.11705
-90.32933
-98.69976
-106.5624
-110.3737
-115.4186
-114.9178
-110.9884
-106.5125
-107.9405
-113.0416
-111.3048
-112.7303
-129.1038
-146.812
-157.3281
-160.398
-156.3
-144.6498
-128.4107
-111.8708
-95.28868
-78.62376
-60.88463
-43.76515
-31.77092
-23.40617
-18.46263
-12.11474
-135.4351
-100.0705
-102.4648
-103.7087
-103.9438
-100.4159
-98.91448
-97.46002
-98.66775
-99.34754
-98.61441
-98.35413
-99.21568
-100.4699
-102.2978
-104.0851
-105.8463
-107.4298
-108.0733
-107.8147
-105.7491
-99.06229
-90.34064
-98.99943
-106.8607
-110.5987
-115.5283
-114.9937
-110.9068
-106.5097
-108.1925
-113.2425
-111.3877
-113.7915
-131.2892
-148.3998
-158.0578
-160.851
-156.557
-144.5651
-128.0142
-111.4162
-94.74473
-77.97628
-60.16508
-42.97181
-31.21346
-23.03822
-18.07757
-12.15615
-19.2408
-17.06016
-15.87202
-14.56593
-15.89183
-19.28417
-24.33893
-29.85375
-35.70435
-42.36579
-49.46891
-56.46447
-63.07902
-66.93878
-68.01342
-66.62023
-62.12376
-54.29059
-44.82985
-41.45428
-45.33369
-46.78597
-43.51046
-42.13256
-50.00254
-56.3483
-57.23647
-50.9164
-37.76251
-26.43506
-32.01871
-42.18323
-52.0468
-61.57954
-68.31378
-69.5067
-72.4512
-91.56387
-127.9206
-142.0386
-106.1876
-82.47001
-96.71541
-109.9067
-115.2298
-113.6589
-111.5404
-111.5227
-112.8658
-114.3703
-115.4819
-116.0583
-116.1451
-115.7818
-114.9765
-113.8427
-112.413
-110.6651
-108.5921
-106.2589
-103.7854
-101.139
-98.40192
-95.54551
-92.44803
-89.23432
-86.10645
-82.81945
-79.55678
-76.2815
-72.98059
-69.80177
-66.81113
-64.06179
-61.56813
-59.44021
-57.75438
-56.58435
-56.00365
-56.19498
-57.13923
-58.90161
-61.07493
-65.39599
-69.77645
-74.82258
-80.31261
-86.02839
-91.26542
-95.62526
-98.96898
-101.1623
-102.3798
-103.1911
-104.1287
-105.549
-107.7695
-110.9204
-117.2087
-123.7979
-186.7676
-182.302
-171.453
-165.3581
-159.0004
-146.9907
-128.8057
-109.8003
-96.78186
-89.54432
-86.3683
-91.0802
-97.86105
-100.5365
-99.27922
-93.72801
-85.00958
-72.82684
-62.35066
-65.46614
-79.41153
-97.49032
-117.2302
-137.7596
-157.3057
-172.8119
-183.3812
-188.1679
-185.5016
-175.1609
-159.0315
-142.5818
-133.6551
-133.0323
-139.867
-150.9589
-152.5265
-142.3793
-122.3074
-114.3154
-110.3162
-111.4819
-112.7644
-113.1896
-112.0914
-112.5561
-114.1216
-116.4658
-112.1444
-150.0052
-92.0379
-80.1656
-67.12424
-59.28061
-52.64163
-47.1434
-42.39871
-38.10732
-34.35249
-30.9613
-27.86841
-25.04175
-22.37803
-19.85685
-17.49353
-15.30302
-13.25778
-11.28819
-9.403401
-7.601216
-5.878511
-4.241663
-2.693596
-1.171851
0.3150168
1.769784
3.165893
4.483472
5.757019
7.012524
8.252898
9.470187
10.63018
11.75563
12.87452
13.97081
15.05745
16.1292
17.20162
18.23412
19.27766
20.27905
21.27229
22.24998
23.2239
24.1797
25.11782
26.0588
27.01829
27.97498
28.90764
29.8254
30.7409
31.6852
32.64343
33.58666
34.53355
35.49384
36.45692
37.43424
38.41238
39.38999
40.41834
41.54463
42.67987
43.77637
44.93647
46.2485
47.68684
49.06539
50.6595
53.80156
52.34548
50.96034
49.89756
48.92288
47.94862
46.94786
45.99158
45.14123
44.34246
43.49211
42.61646
41.76083
40.94941
40.15723
39.36321
38.555
37.7452
36.96098
36.18307
35.38712
34.58982
33.80218
32.99708
32.20034
31.38254
30.52865
29.68943
28.86893
28.04064
27.18321
26.28496
25.41707
24.51046
23.57494
22.63775
21.69271
20.70524
19.70046
18.6922
17.65762
16.56245
15.41275
14.25846
13.10761
11.90596
10.64164
9.333217
7.958379
6.523373
5.040675
3.496523
1.926466
0.2369723
-1.570043
-3.453001
-5.468848
-7.583974
-9.882026
-12.37673
-15.03861
-17.91187
-21.13341
-24.74463
-28.84625
-33.42428
-38.75035
-45.32633
-53.06137
-65.92572
-77.55791
53.6259
52.47801
51.10635
50.0163
49.04005
48.06865
47.06267
46.099
45.24111
44.4369
43.58298
42.70521
41.84538
41.02883
40.23239
39.43458
38.6234
37.80982
37.02313
36.24136
35.44201
34.64253
33.85258
33.0441
32.2468
31.42617
30.56832
29.72894
28.90609
28.07607
27.21578
26.32235
25.44285
24.53861
23.59937
22.6612
21.7154
20.72414
19.71864
18.70965
17.67437
16.57544
15.42262
14.26755
13.11726
11.91223
10.64622
9.336835
7.958192
6.521016
5.035869
3.488526
1.920089
0.2229503
-1.588567
-3.472957
-5.497459
-7.613396
-9.922703
-12.42599
-15.09395
-17.97609
-21.2177
-24.83893
-28.9577
-33.56753
-38.93296
-45.5475
-53.41169
-66.1339
-77.73468
-92.24296
-80.39406
-67.48268
-59.50375
-52.8355
-47.293
-42.51759
-38.20563
-34.43935
-31.03384
-27.92727
-25.09347
-22.42317
-19.89356
-17.52296
-15.32416
-13.27755
-11.30317
-9.414269
-7.608232
-5.883254
-4.241283
-2.693952
-1.169922
0.3195336
1.776676
3.177363
4.496118
5.770563
7.027107
8.269193
9.490103
10.65304
11.77788
12.89948
13.99703
15.08776
16.16212
17.23187
18.27775
19.31696
20.32042
21.31648
22.29692
23.27272
24.23197
25.17288
26.11709
27.07933
28.03951
28.97492
29.89661
30.81637
31.76372
32.72721
33.67447
34.62627
35.59104
36.55965
37.54128
38.5257
39.51257
40.54957
41.6814
42.82255
43.9283
45.10432
46.41862
47.84987
49.24677
50.78524
-179.918
-182.6624
-172.5491
-166.2931
-160.2051
-148.7699
-131.0045
-111.5347
-97.71811
-89.87708
-86.25893
-90.65332
-97.60449
-100.4728
-99.50446
-94.39097
-85.81351
-73.67618
-62.77476
-65.47936
-79.24076
-97.24675
-116.981
-137.5756
-157.2041
-172.7692
-183.4467
-188.2978
-185.9316
-175.9145
-160.235
-143.6196
-133.8238
-132.9426
-139.4668
-150.9195
-153.0017
-142.977
-122.3769
-114.4874
-110.476
-111.6251
-112.8684
-113.2142
-112.0516
-112.6221
-114.1879
-116.3477
-113.6948
-140.9351
-19.03122
-17.35154
-16.08443
-14.60042
-15.64682
-18.84319
-23.80839
-29.29459
-35.11658
-41.73158
-48.79985
-55.82292
-62.55444
-66.7447
-68.05467
-66.94226
-62.7595
-55.23491
-45.67516
-41.62914
-45.27737
-47.00029
-43.79251
-42.22632
-49.95564
-56.38983
-57.47382
-51.83403
-38.5346
-26.28475
-31.6896
-41.85221
-51.72852
-61.25999
-68.0661
-69.47473
-72.34823
-91.28778
-127.9371
-143.0234
-107.4125
-82.81373
-96.49842
-109.2895
-114.6528
-113.6269
-111.8718
-111.8857
-113.1078
-114.5024
-115.5521
-116.0966
-116.1658
-115.7855
-114.9681
-113.8271
-112.3916
-110.6374
-108.5586
-106.2118
-103.7337
-101.0803
-98.33326
-95.47286
-92.36857
-89.14644
-85.97799
-82.71117
-79.44326
-76.16636
-72.86067
-69.68399
-66.69721
-63.9575
-61.47549
-59.36563
-57.70234
-56.5622
-56.01244
-56.25023
-57.23146
-59.05657
-61.29221
-65.70945
-70.12425
-75.24714
-80.79175
-86.54459
-91.78839
-96.15677
-99.43709
-101.4287
-102.5354
-103.3096
-104.2669
-105.7904
-108.0477
-111.4566
-117.7121
-125.8033
-126.4963
-101.7388
-102.4391
-103.4454
-104.0488
-100.6565
-99.03799
-97.52392
-98.71495
-99.40946
-98.68235
-98.34762
-99.17064
-100.4414
-102.3098
-104.1141
-105.8587
-107.4712
-108.1588
-107.995
-105.9822
-99.01573
-90.37743
-99.44437
-107.2994
-110.996
-115.6727
-114.9917
-110.7184
-106.4422
-108.6207
-113.6918
-111.839
-116.0701
-134.3557
-150.1284
-158.5837
-160.5064
-155.7979
-143.541
-126.6925
-110.0335
-93.30479
-76.46242
-58.73592
-41.68396
-30.25912
-22.4001
-17.58079
-12.25987
-120.3186
-103.3404
-102.1965
-102.8667
-104.1378
-101.0132
-99.23649
-97.65084
-98.7738
-99.4726
-98.7835
-98.33949
-99.10936
-100.4142
-102.33
-104.1599
-105.876
-107.5431
-108.3188
-108.3355
-106.3739
-98.97353
-90.49631
-99.9837
-107.8225
-111.5623
-115.7413
-114.8821
-110.3941
-106.1626
-108.9992
-114.3119
-113.2426
-120.0241
-138.2298
-152.204
-159.6748
-161.3025
-155.9188
-143.0362
-125.6639
-108.9796
-92.12506
-75.1233
-57.37706
-40.3928
-29.3611
-21.79864
-17.11064
-12.45561
-18.76717
-17.6227
-16.38534
-14.68937
-15.40936
-18.40755
-23.32826
-28.7981
-34.59396
-41.1975
-48.25973
-55.37121
-62.59019
-66.72423
-68.25606
-67.44899
-63.58846
-56.5018
-47.15507
-42.19411
-45.27729
-47.28184
-44.27217
-42.51432
-50.06034
-56.60912
-58.04298
-53.07747
-39.56379
-26.27253
-31.24945
-41.4903
-51.41665
-60.92216
-67.83454
-69.61802
-72.55218
-91.16173
-127.9721
-143.6191
-109.1321
-84.31201
-96.80056
-108.7317
-113.8849
-113.4859
-112.2024
-112.2661
-113.3856
-114.6736
-115.6587
-116.1711
-116.2275
-115.8567
-115.0205
-113.8644
-112.4219
-110.662
-108.5781
-106.212
-103.7332
-101.071
-98.30841
-95.4472
-92.33835
-89.10495
-85.95007
-82.65352
-79.37394
-76.09635
-72.78111
-69.60101
-66.61143
-63.88046
-61.40704
-59.31038
-57.6657
-56.55794
-56.04065
-56.33466
-57.35423
-59.25803
-61.55224
-66.07333
-70.51405
-75.72076
-81.3052
-87.06534
-92.22849
-96.40982
-99.53887
-101.5423
-102.5937
-103.3607
-104.3504
-105.8907
-108.3302
-111.9305
-118.2703
-127.4653
-171.6737
-181.4704
-173.7706
-167.6407
-161.7961
-151.0597
-134.1181
-114.5978
-99.36739
-90.2996
-85.9595
-89.94912
-97.27085
-100.2248
-99.66702
-95.32577
-86.8852
-74.84091
-63.49058
-65.71796
-79.23106
-97.11822
-116.8173
-137.5397
-157.3219
-172.9477
-183.7706
-188.9396
-186.6962
-177.0026
-161.9203
-145.4394
-134.4614
-133.1456
-139.1448
-151.114
-153.5625
-143.678
-122.5413
-114.8238
-110.7636
-111.8853
-113.054
-113.2462
-111.9463
-112.7022
-114.2849
-116.1725
-115.2196
-134.6615
-92.37274
-80.49698
-67.79129
-59.70348
-53.01571
-47.43181
-42.63221
-38.30515
-34.50968
-31.09985
-27.98069
-25.1419
-22.46815
-19.93131
-17.55286
-15.3435
-13.29941
-11.32175
-9.429412
-7.619409
-5.892446
-4.243443
-2.69947
-1.173436
0.3177807
1.776474
3.1833
4.501752
5.77463
7.032075
8.276111
9.501581
10.66622
11.78781
12.91264
14.01033
15.10484
16.17899
17.24471
18.29217
19.33536
20.33976
21.3377
22.31787
23.29515
24.25631
25.19732
26.14063
27.10553
28.06977
29.0051
29.92762
30.84652
31.79676
32.76661
33.71394
34.66544
35.63586
36.60639
37.59062
38.57833
39.56943
40.60977
41.75792
42.91043
44.01509
45.20184
46.52289
47.96944
49.39453
50.87973
53.37544
52.55929
51.22849
50.10407
49.11661
48.15175
47.13686
46.15837
45.29498
44.49448
43.63586
42.75413
41.88635
41.06701
40.26912
39.47141
38.65696
37.83859
37.05295
36.27116
35.46867
34.66814
33.87891
33.06556
32.27247
31.45009
30.58577
29.74642
28.92301
28.09365
27.23075
26.33301
25.45574
24.55496
23.61133
22.67288
21.72728
20.7317
19.72714
18.71953
17.68487
16.58092
15.42398
14.27009
13.1226
11.91306
10.64604
9.33707
7.953349
6.513913
5.0265
3.476296
1.913869
0.2056908
-1.610664
-3.494602
-5.528762
-7.640261
-9.963799
-12.47491
-15.14495
-18.03169
-21.29045
-24.93668
-29.06405
-33.70123
-39.10266
-45.75334
-53.71432
-66.21878
-77.76856
53.02833
52.57141
51.35559
50.22488
49.22593
48.27129
47.2527
46.26857
45.40446
44.60571
43.7395
42.85861
41.9849
41.16054
40.35769
39.55922
38.74086
37.91437
37.12726
36.34181
35.53396
34.73153
33.94202
33.12089
32.33232
31.50715
30.63389
29.79613
28.97041
28.13965
27.27011
26.38505
25.49486
24.59356
23.64486
22.70662
21.75863
20.75276
19.74746
18.74181
17.7115
16.6002
15.43288
14.27887
13.13879
11.92202
10.65229
9.345933
7.955049
6.511103
5.017227
3.461192
1.913626
0.1909536
-1.630782
-3.517182
-5.567073
-7.666723
-10.01255
-12.53532
-15.21106
-18.09731
-21.37823
-25.05481
-29.19191
-33.85825
-39.30113
-45.9775
-54.01599
-66.19779
-77.78743
-92.52505
-80.49846
-68.09575
-59.91022
-53.23337
-47.60197
-42.77218
-38.42291
-34.59681
-31.18747
-28.0469
-25.19991
-22.52505
-19.97534
-17.58266
-15.36007
-13.3268
-11.34423
-9.445018
-7.626805
-5.896702
-4.238525
-2.701017
-1.17117
0.3222146
1.786484
3.20425
4.519015
5.791226
7.054365
8.300797
9.529289
10.69676
11.81466
12.94545
14.0426
15.14248
16.21743
17.2878
18.35564
19.3877
20.39169
21.39381
22.37702
23.35864
24.32386
25.2647
26.21094
27.1837
28.15641
29.09138
30.01714
30.93795
31.89192
32.87213
33.82156
34.77849
35.75747
36.7297
37.71661
38.71226
39.71368
40.75559
41.91117
43.07247
44.17429
45.37054
46.68225
48.11458
49.53678
50.93504
-162.8937
-178.4643
-174.7557
-169.485
-163.8831
-153.895
-137.9907
-118.8686
-102.1756
-91.07572
-85.31321
-88.87212
-96.83418
-99.77249
-99.70713
-96.43053
-88.25483
-76.56138
-64.76392
-66.41385
-79.38438
-97.24298
-116.8052
-137.6477
-157.6543
-173.3515
-184.3182
-189.7069
-187.7424
-178.4927
-164.1463
-148.0744
-136.0634
-133.9361
-139.112
-151.75
-154.1877
-144.4723
-122.8994
-115.2488
-111.1945
-112.3193
-113.3761
-113.2769
-111.7112
-112.796
-114.4626
-115.8754
-116.0444
-128.6234
-18.43371
-17.87591
-16.76609
-14.86773
-15.1616
-17.88171
-22.75897
-28.21192
-33.97757
-40.55161
-47.57858
-54.69298
-62.19133
-66.54084
-68.43672
-68.06407
-64.60646
-58.00969
-49.13941
-43.3576
-45.32508
-47.51087
-44.95306
-43.09598
-50.33013
-57.02246
-58.81263
-54.744
-40.99895
-26.76698
-30.93868
-41.20064
-51.03439
-60.4236
-67.538
-70.0469
-73.24837
-91.17854
-127.5873
-143.277
-111.3851
-87.40011
-97.83802
-108.3558
-113.1878
-113.3297
-112.5305
-112.6719
-113.7007
-114.8735
-115.7824
-116.254
-116.2463
-115.8789
-115.0336
-113.8661
-112.4243
-110.6589
-108.566
-106.1682
-103.6898
-101.0111
-98.23053
-95.38454
-92.26808
-88.99811
-85.84534
-82.55163
-79.25865
-75.99841
-72.66837
-69.48162
-66.49735
-63.79155
-61.32985
-59.24993
-57.63222
-56.576
-56.09417
-56.46217
-57.52016
-59.5354
-61.92335
-66.502
-70.99535
-76.32361
-81.95134
-87.74502
-92.85826
-97.05116
-100.1278
-101.8782
-102.78
-103.4979
-104.5163
-106.227
-108.6828
-112.4854
-118.895
-128.7519
-114.1714
-104.0003
-101.6524
-102.2463
-104.2857
-101.5939
-99.56844
-97.88744
-98.86059
-99.51227
-98.89572
-98.3261
-99.03968
-100.4014
-102.3683
-104.23
-105.8955
-107.6646
-108.6197
-108.9101
-106.8613
-99.01482
-90.91909
-100.5075
-108.3727
-112.1761
-115.5561
-114.424
-109.815
-105.5131
-109.0878
-114.9419
-116.3812
-125.225
-142.5865
-154.3492
-160.5565
-161.2141
-155.6121
-142.307
-124.3429
-107.6696
-90.64381
-73.51196
-55.81384
-38.97636
-28.28585
-21.12798
-16.62962
-12.75908
-107.4807
-103.3575
-100.8888
-101.4194
-104.4109
-102.1145
-100.0512
-98.25029
-99.02086
-99.51337
-98.96747
-98.30835
-98.98127
-100.4156
-102.43
-104.3411
-105.9028
-107.8624
-109.1839
-109.858
-107.5636
-99.68457
-91.84715
-100.9423
-108.9608
-112.7157
-115.1916
-113.5215
-109.0912
-104.7396
-109.071
-116.1818
-121.4064
-131.1507
-147.4783
-157.095
-162.1309
-161.9027
-155.5833
-141.6817
-122.7
-105.7777
-88.66531
-71.5299
-54.03399
-37.44191
-26.83429
-20.34724
-16.19337
-13.17434
-18.09165
-18.07216
-17.20256
-15.17165
-14.95033
-17.25529
-22.06027
-27.50876
-33.25612
-39.78117
-46.70759
-53.98835
-62.25314
-66.56175
-68.83272
-68.97948
-65.9911
-59.83587
-51.56837
-45.13816
-45.4061
-47.19483
-45.22097
-43.86467
-50.72202
-57.62248
-59.91637
-56.88643
-43.10336
-28.12806
-31.24383
-41.26424
-50.8148
-60.07926
-67.26708
-70.98871
-74.46546
-91.04392
-125.2913
-140.2606
-113.3842
-91.51984
-99.35709
-108.139
-112.6367
-113.2309
-112.9157
-113.1482
-114.1002
-115.1556
-115.9809
-116.4134
-116.3765
-115.9899
-115.1157
-113.9381
-112.4944
-110.6997
-108.5935
-106.1658
-103.6882
-100.9927
-98.22537
-95.39236
-92.23588
-88.91382
-85.80212
-82.46302
-79.17163
-75.92969
-72.53941
-69.35631
-66.395
-63.71372
-61.2413
-59.19499
-57.62485
-56.64667
-56.18073
-56.65039
-57.76068
-59.94875
-62.52719
-67.13361
-71.6061
-77.20154
-82.82954
-88.61119
-93.61063
-97.5799
-100.5105
-102.1066
-102.8788
-103.5774
-104.6283
-106.3344
-109.0561
-113.1213
-119.6121
-129.5444
-154.8659
-173.4425
-174.7348
-171.6137
-166.7057
-157.394
-142.5893
-124.1786
-106.5478
-92.83028
-85.47331
-87.47429
-96.47515
-99.36887
-99.67748
-97.71059
-90.05414
-79.23447
-66.68166
-67.51037
-79.92524
-97.93925
-117.1963
-137.9538
-158.057
-173.997
-185.3079
-190.9317
-189.2449
-180.532
-167.0325
-151.5434
-138.9759
-135.6798
-139.6375
-152.8957
-154.9054
-145.5251
-123.6664
-115.5423
-111.6857
-113.0548
-113.8852
-113.2752
-111.2879
-113.1038
-114.9641
-115.6488
-115.9183
-122.2306
-92.50154
-80.3095
-68.34572
-60.09025
-53.48741
-47.77637
-42.89898
-38.53998
-34.70305
-31.28937
-28.10228
-25.26253
-22.59437
-20.01613
-17.61249
-15.39103
-13.3736
-11.36743
-9.457651
-7.627607
-5.903352
-4.241441
-2.707244
-1.175385
0.3203706
1.799944
3.215395
4.52248
5.803669
7.067916
8.301763
9.532797
10.71884
11.82884
12.96581
14.05991
15.16885
16.24779
17.32093
18.37104
19.4088
20.41748
21.42899
22.41368
23.3943
24.35749
25.30419
26.25708
27.22873
28.19849
29.13124
30.06643
30.98851
31.94547
32.93503
33.88877
34.84667
35.82559
36.80051
37.80025
38.80504
39.8174
40.85204
42.02397
43.21504
44.32159
45.54134
46.83874
48.25399
49.6678
50.91938
52.56804
52.4659
51.44928
50.3547
49.34699
48.39701
47.35683
46.35767
45.49267
44.69945
43.81031
42.92694
42.04803
41.2277
40.41568
39.61375
38.79447
37.96572
37.18402
36.39244
35.57672
34.77421
33.98502
33.15275
32.374
31.53683
30.65542
29.82196
28.99801
28.17293
27.29217
26.38757
25.51203
24.60691
23.65362
22.72816
21.78645
20.76891
19.76167
18.74915
17.72568
16.61735
15.44089
14.27456
13.14549
11.92696
10.64879
9.345432
7.953886
6.510675
5.00789
3.428913
1.901104
0.160837
-1.648796
-3.538876
-5.620754
-7.69145
-10.06864
-12.58896
-15.28711
-18.17397
-21.47015
-25.17132
-29.31865
-34.01703
-39.50531
-46.19181
-54.2621
-65.97599
-77.47317
52.04685
52.21808
51.4677
50.48379
49.5157
48.61202
47.53423
46.49914
45.65338
44.90157
44.00679
43.08907
42.16715
41.3571
40.56551
39.74524
38.89047
38.04313
37.28862
36.49627
35.66182
34.86596
34.08406
33.21843
32.50422
31.62566
30.71534
29.89656
29.04325
28.24735
27.35352
26.4795
25.61609
24.67489
23.66863
22.74819
21.81667
20.80154
19.81864
18.79555
17.72832
16.62195
15.48603
14.30717
13.14915
11.95069
10.67124
9.326041
7.937683
6.512872
5.043438
3.442405
1.89612
0.08646586
-1.68349
-3.537817
-5.704844
-7.723256
-10.18627
-12.63353
-15.34642
-18.33448
-21.64663
-25.36165
-29.5158
-34.25602
-39.82411
-46.53317
-54.63712
-65.67194
-77.34357
-92.20245
-80.10737
-68.7798
-60.40879
-53.90982
-47.93689
-43.08076
-38.76125
-34.90678
-31.37993
-28.14318
-25.37958
-22.68271
-20.05144
-17.68809
-15.46616
-13.3867
-11.34392
-9.465507
-7.634627
-5.946843
-4.266991
-2.684639
-1.19889
0.336428
1.823268
3.188402
4.55634
5.849047
7.075647
8.298126
9.596196
10.82125
11.86376
13.01811
14.10683
15.2361
16.31147
17.37567
18.41911
19.49058
20.51788
21.52006
22.49983
23.46542
24.45918
25.42796
26.35235
27.30163
28.3167
29.28635
30.20884
31.12817
32.06713
33.09016
34.06794
34.97632
35.99864
37.00997
37.9915
38.99276
40.01221
41.03391
42.25786
43.51687
44.56667
45.75289
46.98338
48.38238
49.7628
50.78887
-148.07
-165.3136
-172.6115
-173.4582
-170.0575
-162.0784
-148.3739
-130.6471
-112.9265
-96.72519
-86.93397
-86.03518
-96.73676
-99.32764
-99.69155
-99.34739
-92.55566
-82.74681
-68.52893
-69.07429
-81.69976
-99.2506
-118.34
-138.8967
-158.645
-174.8597
-187.1401
-193.1704
-191.498
-183.3791
-170.8678
-156.2236
-143.3182
-138.5873
-140.6128
-154.8063
-155.5568
-146.1477
-124.7395
-115.9411
-112.283
-114.2915
-114.7117
-113.2108
-110.631
-113.83
-115.3361
-115.149
-114.7167
-116.0879
-17.82746
-17.98659
-17.56976
-15.5318
-14.86115
-16.65782
-21.1667
-26.59683
-32.33065
-38.83101
-45.22907
-52.85048
-62.18467
-66.25191
-69.34333
-70.12666
-67.89407
-62.23133
-54.51367
-47.61255
-45.62214
-45.57893
-43.90837
-44.18856
-51.36869
-58.2164
-61.24439
-59.8925
-46.15141
-30.56186
-32.28344
-41.83374
-50.91556
-59.65937
-66.85965
-71.49025
-76.08202
-90.15456
-120.0636
-133.124
-113.9599
-95.7083
-100.9325
-108.0577
-112.2142
-113.1656
-113.3699
-113.6716
-114.5422
-115.4673
-116.1815
-116.5471
-116.4566
-116.1218
-115.2139
-114.0219
-112.5122
-110.6849
-108.6196
-106.2061
-103.6423
-101.0022
-98.23558
-95.25006
-92.0625
-88.80408
-85.67444
-82.29752
-79.07615
-75.76179
-72.2988
-69.22437
-66.32066
-63.59919
-61.1248
-59.14446
-57.68012
-56.76567
-56.312
-56.89907
-58.13548
-60.52917
-63.44929
-68.08722
-72.54031
-78.55847
-84.15002
-89.85688
-94.77752
-98.57327
-101.2626
-102.4944
-103.0623
-103.7297
-104.8365
-106.7976
-109.6547
-113.9572
-120.4577
-129.9507
-101.1565
-101.0205
-100.3302
-101.7629
-105.4413
-103.6375
-100.5626
-98.61833
-99.00361
-99.60585
-98.98224
-98.28544
-98.95635
-100.493
-102.5806
-104.546
-105.9237
-108.2492
-110.3595
-111.6292
-109.2759
-101.3302
-93.63877
-101.9044
-109.6717
-113.3454
-115.1255
-112.9708
-107.8252
-104.1239
-109.3904
-119.3596
-128.1407
-137.8481
-153.0296
-160.045
-163.6167
-162.5201
-155.6989
-141.0519
-120.0554
-102.5575
-86.06343
-69.24391
-52.26096
-35.59565
-25.33027
-19.69244
-15.94845
-13.70933
-0.2422525
-0.05493302
1.575386
5.110901
-127.385
-1.768406
1.116441
5.768158
1.93944
2.928456
-10.54539
-65.84673
-0.08739956
1.711006
1.312145
6.511545
7.548367
-0.5575468
3.986365
-29.80719
-8.73641
3.884985
1.716798
3.896241
-0.6882262
5.519397
3.758705
3.412913
4.649423
-1.621919
-0.2211785
-0.6519501
-4.358337
-0.3242291
4.679459
4.305969
2.240691
6.126312
1.093949
5.39668
5.82871
-0.06782032
-3.914713
-147.7679
1.05935
-15.10578
0.1668063
-0.0714379
-0.1314424
5.970345
2.860458
-1.255108
0.9823191
-4.500374
5.050302
2.758399
1.121198
-0.3194222
-1.969917
-0.05344928
1.224907
3.283172
-1.657231
-45.45399
6.30475
-3.109835
-1.319048
-19.09512
13.85336
-2.465116
-11.36476
-4.93643
4.959461
4.709882
3.280408
3.178483
2.860668
2.482778
-0.2586193
3.131208
-9.407565
1.933812
-57.46778
-1.582715
-4.033496
-1.828523
8.843373
1.751515
-1.877748
0.5624828
7.407863
7.719423
6.082138
3.304724
-19.41876
2.973997
6.442277
4.3588
-70.79181
-97.84017
-3.75372
-41.92622
5.192471
-10.11489
3.857741
5.126702
-14.28123
5.30083
-10.23575
5.854949
2.568243
-120.7545
1.409651
-1.377775
-1.265945
0.6467663
-1.605833
-29.0439
4.827736
2.830098
-0.4297217
-5.211041
-1.72896
0.1374843
4.579545
-13.59246
-0.100399
2.530124
-4.88254
2.172893
11.6529
7.600811
5.067051
-9.916955
1.086379
0.8293749
1.74616
-14.42648
0.865375
5.942964
5.094197
6.248949
5.689771
-0.8288532
-0.2162681
4.535564
4.449936
-1.084657
-0.7887612
-3.86093
-0.4817621
-2.287657
-1.543387
5.153424
5.998471
5.12433
-1.392755
-8.57492
0.2267085
1.716006
-11.93738
5.410153
1.762495
0.9360176
7.677734
0.4184769
-4.0077
6.814977
-1.695112
5.324674
2.142372
-15.87774
1.381085
4.674088
-1.288378
0.1625534
-0.9639579
-0.5292053
-1.817018
-77.55509
-5.504055
6.050814
5.424024
1.466539
0.2027405
3.017352
5.954108
5.600041
8.400829
-3.012487
1.034458
2.41007
2.123825
2.272724
-23.09274
-0.3106273
-2.69819
-51.00426
11.45092
-0.1628511
-2.578673
2.301674
0.3336311
7.444775
0.7812689
0.8312002
0.8193313
2.608445
-1.423193
2.906966
0.9765588
4.680415
1.132691
5.329051
-0.3161597
1.878902
4.762567
-1.932652
3.772308
-2.920989
3.922044
1.538428
4.666614
2.72577
17.554
-10.79507
3.173072
3.052602
4.579785
1.09527
-5.07408
1.785466
3.930561
5.239238
7.198349
1.718408
4.340865
3.884258
-243.9403
-0.1645266
3.774304
-10.50655
-0.641618
-0.6793606
1.161134
0.882636
-4.70395
3.053439
0.9254638
3.918406
3.927985
-185.3125
7.66958
1.192015
0.1472597
-0.7467447
-7.246286
3.822666
-2.624774
1.245169
5.267605
-14.7418
2.379344
-137.2349
5.368798
2.376282
1.967685
-42.36022
4.769558
-1.931899
-7.520148
1.908602
-1.808586
-0.106601
7.606502
-20.46588
5.290642
1.397529
1.992059
3.065907
2.146157
-6.057055
-9.663377
-2.335361
8.227408
-3.715228
3.590933
5.259798
5.338018
2.335725
5.219109
1.439474
-57.38644
4.478936
7.115127
-110.5945
0.07854547
-32.63951
4.007021
5.42246
-0.3263062