/*--------------------------------*- C++ -*----------------------------------*\
| =========                 |                                                 |
| \\      /  F ield         | OpenFOAM: The Open Source CFD Toolbox           |
|  \\    /   O peration     | Version:  2406                                  |
|   \\  /    A nd           | Website:  www.openfoam.com                      |
|    \\/     M anipulation  |                                                 |
\*---------------------------------------------------------------------------*/
FoamFile
{
    version     2.0;
    format      ascii;
    arch        "LSB;label=32;scalar=64";
    class       volScalarField;
    location    "0.58";
    object      p;
}
// * * * * * * * * * * * * * * * * * * * * * * * * * * * * * * * * * * * * * //

dimensions      [0 2 -2 0 0 0 0];

internalField   nonuniform List<scalar> 
4529
(
-2.659102e-07
-1.515124e-07
-3.267966e-08
-2.646652e-08
-3.816322e-07
9.518969e-08
-8.655069e-07
-2.34854e-08
-4.736909e-07
5.662754e-08
-2.535899e-07
1.264244e-07
1.260109e-07
1.173972e-07
-4.201284e-08
5.959602e-09
1.214666e-07
-5.870009e-07
-6.592547e-08
1.554987e-07
-4.685412e-07
-1.346487e-07
-2.628022e-07
-1.497991e-07
1.624425e-08
-5.189676e-08
6.710014e-08
-1.851456e-07
-4.994119e-08
-1.999151e-07
-3.885816e-07
-8.816194e-08
1.235617e-08
3.707365e-09
-4.314842e-07
-2.089979e-07
1.091449e-07
-5.124525e-08
4.020605e-08
3.768057e-08
8.141658e-08
1.302081e-08
-1.532515e-08
-1.657972e-07
-8.173073e-08
-8.848101e-08
-1.372601e-07
-1.991874e-07
-1.922101e-07
-4.775707e-07
9.143066e-09
1.150718e-08
-1.216906e-07
-1.553296e-07
-1.687193e-09
7.288102e-08
2.039962e-07
-2.314904e-07
-3.460175e-07
-3.70074e-07
-4.307616e-08
4.048851e-08
-5.874574e-07
-1.75894e-07
5.824251e-08
-1.333396e-09
-1.135726e-08
4.99321e-09
-2.4593e-08
-5.383574e-07
-2.728979e-07
4.674089e-09
-2.349595e-07
-7.864053e-08
-1.348546e-07
-3.051375e-08
-5.936425e-08
-3.913807e-08
-4.635727e-08
1.324624e-07
-1.663371e-07
6.387577e-08
-3.190224e-07
8.586937e-08
-4.35643e-07
-5.622559e-07
-2.870082e-07
-2.365876e-07
-1.250168e-08
4.219727e-08
-1.776793e-07
-1.984232e-07
-3.210599e-08
-7.043488e-07
-5.108386e-07
-9.41954e-07
-8.090889e-07
-3.916612e-07
-1.10095e-07
-3.03119e-07
-9.963303e-09
-6.786637e-08
-1.133068e-08
-3.913902e-07
-2.228124e-07
-1.13961e-07
3.811335e-08
-1.695402e-08
-3.249238e-10
-1.66446e-07
3.157286e-08
-4.96629e-08
-5.516593e-07
-1.894003e-07
6.109963e-08
2.827194e-08
2.029537e-08
-1.732763e-07
-6.39993e-07
9.915904e-10
-2.331986e-08
1.41679e-08
-3.200005e-08
-5.754532e-08
2.023913e-08
-1.09413e-06
1.024795e-07
7.437388e-09
4.873696e-08
5.99446e-08
9.894979e-08
-4.211549e-08
-2.061573e-08
-1.600625e-07
-3.031677e-07
-2.873517e-08
5.047631e-08
-5.422374e-07
-6.817513e-08
-1.193083e-07
1.249534e-07
3.088642e-08
-2.673257e-07
-1.057079e-07
-8.186541e-08
-7.679732e-11
-6.093463e-07
-1.090453e-06
5.854563e-09
-7.376437e-07
1.155268e-08
1.746315e-08
-1.224712e-08
-1.425774e-07
-6.69954e-07
-4.715394e-07
-5.977719e-08
1.221579e-07
-2.752844e-08
5.475938e-08
-2.010261e-08
-1.553282e-07
-2.155876e-07
-3.599616e-08
2.824281e-08
-3.013811e-07
-9.356729e-07
2.292506e-08
-2.854674e-07
-3.555113e-08
-6.425963e-08
-2.247518e-07
-9.766632e-07
-3.787643e-08
-1.917746e-07
-6.497265e-07
-1.603175e-08
-1.467584e-07
7.485956e-08
-6.64574e-07
-4.432949e-08
-1.259346e-07
-1.140127e-07
-2.3236e-08
-3.782998e-08
5.484211e-08
-2.282116e-07
-6.63262e-08
1.285478e-08
-5.126012e-07
-1.269956e-07
-1.238043e-08
-2.2953e-08
-1.917155e-07
-1.073355e-07
-5.167612e-08
-2.966165e-07
1.457925e-07
-1.215928e-07
-9.124606e-08
-7.033504e-08
-9.022028e-08
5.150151e-09
-1.916928e-07
-2.126501e-08
-7.921491e-08
-6.417932e-08
-1.498935e-08
2.976894e-08
-7.036579e-07
-6.759348e-07
3.518596e-08
-1.33623e-07
-4.602895e-07
-2.795741e-08
-3.906942e-08
-6.681492e-07
-2.529913e-07
-8.191319e-07
-4.801149e-07
1.691432e-07
-3.374914e-07
3.759131e-08
4.038354e-08
-3.67179e-07
-4.330775e-07
-1.511636e-07
-2.227588e-07
-8.170239e-08
-7.98002e-08
-7.920739e-07
6.690328e-09
-2.298972e-08
-3.53033e-07
1.348812e-08
3.107408e-08
1.112504e-08
5.270918e-08
-2.236889e-07
6.219524e-08
8.959466e-08
-2.390215e-07
1.597063e-07
-1.728038e-07
-2.090926e-07
-3.465129e-07
-2.603363e-07
-1.065388e-06
3.180884e-08
5.487543e-08
-1.08344e-07
-2.303814e-07
-6.830449e-07
-3.610263e-08
-4.142996e-07
-1.202255e-08
1.356446e-07
2.62668e-08
-2.923877e-08
-3.525365e-07
-7.900804e-08
-7.02317e-08
-2.656728e-07
-1.565339e-08
-2.274291e-08
3.238378e-08
-6.746795e-09
-1.060239e-07
8.348583e-09
-3.535626e-08
-1.588492e-07
-2.526856e-07
-5.756958e-09
-1.7633e-07
-1.778959e-08
-4.421036e-07
-2.198193e-07
1.092553e-07
-2.138138e-07
-2.226141e-08
1.156889e-08
-5.552662e-08
1.916128e-08
1.958556e-07
2.709849e-08
-4.977071e-07
1.39192e-07
-1.193738e-07
-9.736114e-08
2.617636e-07
-6.552126e-07
3.141312e-07
8.50576e-08
-6.077878e-08
2.662608e-08
-2.023374e-07
-2.724154e-07
1.054414e-07
-6.937967e-07
-6.077423e-07
-1.257061e-07
-1.796427e-07
-2.929074e-07
-2.803108e-07
-1.438731e-07
2.935795e-07
-1.150587e-07
-9.485551e-07
-3.710995e-07
-1.904966e-08
-1.398103e-08
-5.13998e-08
-6.977963e-07
-1.467853e-07
-1.199155e-07
-1.995622e-07
7.397908e-08
-2.194478e-07
-4.926984e-07
-1.964492e-08
6.725984e-08
-2.936553e-08
1.089509e-08
-2.638449e-08
9.206361e-08
-4.564126e-08
-2.642919e-07
7.437975e-09
-2.168464e-08
-8.629469e-08
-6.464049e-08
-1.806501e-07
7.62092e-08
-1.332929e-07
1.942125e-07
-8.143609e-08
1.366509e-08
-1.319634e-07
-1.439375e-07
7.115968e-08
1.273054e-08
-8.086162e-07
-5.115818e-07
-1.045063e-07
-1.92263e-07
-1.646003e-07
9.444782e-08
1.002547e-07
-5.686655e-07
-1.399146e-07
-5.733481e-08
1.309708e-08
-8.521122e-07
-3.801857e-08
-5.025207e-09
2.388041e-07
-2.082222e-08
-1.103469e-07
-6.014521e-08
-1.896577e-08
-8.449673e-08
-1.599135e-07
-3.971631e-08
-4.654468e-07
-2.401485e-07
7.166437e-08
-1.02667e-07
-1.260474e-07
3.537789e-08
-4.16202e-07
-2.602082e-07
-5.345247e-07
-3.560102e-07
-1.629608e-08
3.089364e-08
-3.315825e-07
-2.144691e-07
-3.04828e-08
4.721957e-09
-1.261258e-07
-1.679144e-07
3.165888e-07
2.643891e-08
-1.297771e-08
2.29039e-08
-8.607603e-08
-3.494958e-10
-2.762933e-07
-4.423232e-07
1.546898e-08
-4.864802e-07
-1.896097e-08
-8.849062e-08
-1.613238e-08
8.15032e-08
-1.480041e-08
1.701608e-07
1.749297e-08
7.683499e-08
1.179163e-07
-1.197231e-07
-8.529053e-09
-1.878598e-07
-2.786662e-08
-5.822852e-07
-1.797447e-08
-1.979874e-07
-8.982722e-08
-2.095023e-08
-2.92153e-07
7.267429e-08
-2.779937e-07
-4.08849e-07
5.836652e-08
-1.762506e-07
-1.164871e-08
5.488586e-08
-4.359256e-08
2.888708e-07
-1.394254e-07
-5.455253e-08
-5.919306e-08
-8.310383e-09
-6.026231e-09
6.096818e-08
2.154849e-08
-7.753037e-07
7.03474e-08
-6.614494e-07
-5.73111e-07
-2.03137e-07
-4.088607e-07
-1.667368e-07
-6.467051e-07
8.525504e-08
7.630513e-08
-6.868922e-07
-4.289658e-08
2.799115e-08
-9.263439e-08
1.827141e-08
5.965526e-08
6.471392e-08
-1.719388e-07
-1.371155e-07
1.159469e-07
-4.195846e-07
-3.932025e-07
-3.777183e-08
-1.701339e-07
-9.656354e-08
-5.487312e-10
-5.156005e-08
-5.10232e-08
-8.026311e-09
-8.069579e-08
-8.623733e-08
-5.27605e-08
-3.989136e-08
-8.628026e-08
6.379483e-08
-3.235659e-08
-5.420388e-08
-3.620264e-08
-3.932189e-07
-2.449925e-07
-7.143303e-07
-5.934793e-08
1.625005e-07
-1.80449e-08
-1.767405e-07
5.804768e-08
5.562024e-08
-6.013178e-09
-1.215081e-07
-5.044749e-07
-4.769976e-07
-6.300249e-07
-1.163644e-08
-4.193638e-08
-1.800935e-07
-4.144063e-08
-1.983593e-08
-2.555423e-07
-3.656941e-08
-6.567023e-07
-1.526096e-07
1.144449e-08
-7.81725e-07
8.106459e-08
4.23479e-08
-6.912524e-08
3.523967e-09
-2.159267e-07
-3.304949e-07
-3.434684e-07
-3.963371e-07
-5.819662e-07
5.194433e-09
1.410974e-08
-1.735144e-07
-6.396441e-07
4.12237e-08
-5.299729e-08
7.060187e-08
-1.34464e-08
1.97965e-08
3.137262e-08
1.243974e-07
-6.509813e-07
-6.551334e-08
7.359994e-08
1.119705e-08
-2.350662e-07
-1.221747e-07
-4.482541e-07
-1.655303e-07
-2.428941e-08
-1.496038e-07
-3.483238e-07
5.000985e-07
-4.11262e-07
-5.347729e-08
3.797763e-07
1.715359e-07
-3.994028e-08
1.662744e-08
-2.68182e-07
-1.778969e-07
-2.258318e-07
-3.545741e-07
-4.291979e-07
-4.469332e-07
-6.881066e-08
-7.460007e-08
2.752454e-08
-6.11833e-08
5.10509e-08
5.945099e-08
3.334036e-09
-6.963374e-08
3.672081e-08
-1.198251e-07
5.676221e-08
-1.67747e-08
-1.894415e-08
4.93286e-09
-4.540701e-08
-2.753117e-07
-1.794223e-07
-2.370761e-07
-1.912662e-07
-1.063645e-07
-1.421289e-07
-1.993012e-08
-1.944997e-07
-1.601739e-07
-6.714386e-07
-3.763097e-07
-2.538537e-07
-1.260787e-08
2.971405e-08
1.015581e-08
-3.280062e-07
6.213234e-08
-1.057457e-07
-1.012586e-07
-8.495303e-08
-5.509749e-09
-9.706232e-09
-2.390896e-07
-4.205588e-08
8.363933e-08
-4.305086e-07
4.176327e-08
-2.623074e-07
1.764074e-08
-7.748443e-07
2.274768e-07
-1.135892e-07
9.772869e-08
5.837349e-08
-3.364425e-07
-1.695187e-07
-4.481904e-07
7.472746e-08
-4.924201e-08
6.119093e-09
-5.89727e-07
-8.34957e-08
-1.338139e-08
1.111554e-08
-1.175437e-08
1.033165e-08
3.886209e-08
5.591893e-08
-3.179949e-08
-7.139044e-09
1.459648e-07
-4.817188e-07
-4.191987e-07
6.229948e-08
-6.584718e-08
-2.590709e-07
-1.236278e-07
7.378484e-09
-1.717994e-08
9.986038e-08
-5.575464e-08
-8.407339e-08
-4.390778e-08
-3.930587e-08
-5.336489e-07
-2.988711e-07
-4.571891e-08
-3.647293e-07
1.543388e-09
1.042399e-07
-9.327346e-08
3.721233e-07
-1.205633e-07
-4.029992e-07
-2.545706e-07
-1.722331e-07
-3.301772e-07
-1.542344e-07
-1.307245e-07
-4.825077e-08
4.264203e-08
-7.537332e-08
-3.731062e-08
7.319791e-08
-1.795586e-07
-1.10835e-07
7.396558e-08
-3.202651e-08
7.003736e-08
-1.890417e-07
-1.224346e-07
-7.691508e-09
-1.985464e-07
-1.632514e-07
-1.637935e-08
2.85714e-07
-1.226349e-07
3.29529e-08
3.484977e-08
-5.223926e-07
1.739733e-08
2.815017e-08
2.261791e-09
-4.184394e-07
-1.345983e-07
-1.600658e-07
-1.408548e-07
-5.306632e-07
7.056698e-08
-2.298108e-08
1.040275e-08
-3.220633e-07
-2.791217e-07
-9.876129e-08
-4.258582e-07
-3.740826e-07
-4.016494e-07
-1.597092e-08
-8.434374e-07
1.763388e-08
6.348952e-08
1.032991e-07
7.808173e-09
-5.014455e-07
-1.059152e-07
2.81627e-08
7.918953e-08
-3.245408e-07
-7.195099e-08
3.926626e-08
-3.25732e-08
5.194453e-09
-3.693593e-07
-4.827282e-08
-1.168812e-07
-7.253972e-09
9.880165e-09
4.55386e-08
-2.627721e-07
1.720726e-07
9.23793e-09
-7.67882e-07
1.585999e-08
-1.058837e-07
6.983419e-08
-5.22583e-08
-1.9909e-07
-2.685706e-08
1.045774e-07
-1.813536e-07
1.724417e-08
-5.045634e-08
-6.330801e-08
-2.933266e-09
-2.189234e-07
9.006887e-08
-2.101468e-07
-5.931227e-08
-5.654977e-08
-1.332648e-07
1.522062e-08
-4.537006e-07
-2.133374e-07
-2.065495e-07
-6.627825e-08
-9.776837e-08
-2.627763e-07
-2.618152e-07
-1.141338e-07
-4.328741e-08
1.098219e-07
-1.984831e-07
-7.879719e-08
7.169155e-08
-2.726249e-07
-5.309557e-07
-1.000323e-07
-1.107531e-06
-4.874822e-08
9.327959e-08
-1.242432e-08
-6.953273e-09
-3.462373e-08
2.520524e-08
-3.880264e-08
-2.39174e-08
1.590389e-07
-3.263272e-07
-8.525828e-08
-3.222855e-07
-4.852224e-08
-8.468041e-08
-2.60744e-08
8.686344e-09
4.573799e-08
-2.442905e-08
-5.749396e-10
-4.396224e-08
1.203657e-08
-4.525509e-08
-1.530212e-07
-3.586012e-07
-3.058243e-07
1.354383e-08
-1.417578e-08
-3.232776e-08
-3.009798e-08
-1.014937e-07
5.084523e-08
1.759974e-08
4.501298e-08
6.213507e-08
3.574944e-08
1.567393e-08
-1.862701e-07
-6.338132e-08
-3.144848e-08
-4.09246e-07
-1.602282e-07
-2.501374e-07
-2.379498e-08
-4.026021e-09
1.133664e-08
-6.682534e-08
5.926871e-08
7.524543e-08
6.16497e-08
-2.708039e-08
5.485856e-08
-1.989685e-07
-3.190015e-07
-8.76581e-07
-6.212428e-07
6.579604e-09
-2.422473e-07
-3.241784e-07
-2.033384e-07
-6.99221e-08
-4.550187e-07
-4.580679e-07
-7.246856e-07
-6.227755e-07
-7.414805e-07
-7.444089e-07
-3.03072e-07
-2.676847e-07
-3.763461e-07
-3.808484e-07
1.424897e-08
-4.09158e-08
1.231031e-07
1.258484e-08
9.821832e-08
-5.166075e-07
-3.896113e-07
8.449287e-08
1.392423e-08
3.453026e-08
1.20134e-08
-2.280114e-07
6.296188e-08
2.162359e-10
5.961893e-08
2.384595e-09
-6.664183e-09
-3.434765e-07
-1.486866e-07
5.445252e-08
-1.010054e-07
-2.282867e-07
-4.419071e-07
-1.946834e-07
-3.483103e-07
-7.518756e-08
-1.310661e-08
-2.502983e-08
-2.945546e-07
-2.437838e-07
2.66038e-08
-1.820345e-07
7.623156e-08
-3.897947e-08
-1.839112e-07
1.05746e-07
8.689377e-08
8.593975e-08
-7.705282e-07
-5.377617e-08
-4.813695e-09
1.106725e-07
-5.594962e-09
-7.642803e-09
-3.39842e-07
4.910558e-08
-9.982753e-07
-9.25212e-08
1.199711e-07
3.703297e-07
-2.70559e-08
-2.80547e-08
-1.395095e-07
-2.163117e-07
-2.791922e-07
-2.472476e-07
7.483689e-08
-2.622263e-07
-1.106939e-07
-7.010413e-07
7.791893e-09
3.101277e-08
-1.872429e-07
-4.558528e-07
-3.317947e-07
-3.611059e-07
-3.921484e-07
8.717093e-08
9.4684e-09
4.572636e-08
-3.594768e-07
8.244192e-08
-2.422384e-09
5.076459e-09
-9.066056e-08
-1.734316e-07
-3.47177e-07
-2.872093e-08
-6.514012e-07
-7.035275e-07
-2.265306e-08
-1.007655e-06
-2.287013e-07
-3.450342e-07
-5.978656e-08
-4.46023e-07
-6.71489e-07
-1.990086e-07
1.472446e-08
-1.053216e-07
-4.745545e-08
-7.118294e-08
-2.049693e-07
-2.407113e-07
-3.323511e-07
-2.759439e-07
9.985736e-08
-3.484878e-07
-2.026196e-07
-3.513478e-07
-3.494277e-07
-2.743929e-07
-1.923251e-07
-8.801692e-09
-8.855734e-08
-1.014176e-07
1.859821e-08
-6.830818e-09
6.315298e-08
2.891286e-08
4.589935e-08
-1.389646e-07
-3.925796e-08
1.235615e-09
-1.48409e-07
8.264732e-08
-2.488574e-07
-2.602622e-07
-4.547879e-07
-3.474983e-08
1.526885e-08
4.887748e-08
9.633326e-09
3.584383e-08
-5.45775e-07
-9.672691e-08
1.365521e-07
-3.526574e-09
1.253274e-07
-2.335083e-07
-3.719144e-07
-7.406844e-08
-2.040417e-07
-2.061703e-08
-2.138168e-09
-3.492206e-07
-4.394294e-07
-3.345041e-08
3.70489e-08
2.694983e-08
5.223888e-08
1.390041e-08
-2.583999e-07
-7.83731e-07
-7.118882e-08
-4.232622e-08
-4.876801e-09
-2.128928e-09
-3.764131e-07
-5.00521e-07
-3.533119e-07
-4.601228e-07
-4.975723e-07
-5.205714e-07
-2.731763e-07
-4.924452e-07
-4.063757e-07
-6.581646e-07
-3.368309e-07
-1.021801e-07
-1.56841e-08
-1.021248e-07
1.599439e-07
5.450183e-08
-2.911037e-07
-1.995702e-07
-1.842711e-07
-7.467685e-07
-3.040116e-09
-1.87404e-07
-1.860162e-07
-1.798601e-07
-7.156661e-07
-2.861708e-07
5.744209e-08
6.674907e-08
1.700273e-08
-3.185239e-08
-1.928063e-08
1.117867e-07
-1.420854e-07
-2.208384e-07
-2.235758e-08
-5.526407e-08
-5.840339e-08
-4.457868e-08
-9.338611e-09
-1.719118e-07
-2.065527e-07
-9.9328e-08
-8.396005e-08
-1.519768e-07
-7.108522e-08
-7.533425e-08
-4.105771e-07
-4.365124e-07
-1.236341e-07
-3.24767e-07
-6.390132e-08
-1.036312e-08
7.455845e-08
-6.921458e-07
6.627298e-08
-8.469873e-08
-4.195004e-07
-2.781167e-07
-2.312376e-07
-2.879169e-07
-1.434102e-07
-1.682806e-08
-1.525376e-09
-3.80771e-07
-6.20097e-08
-7.851845e-08
1.576974e-09
4.958301e-07
-1.981388e-08
1.292787e-08
-6.60782e-09
-3.402114e-08
1.288695e-08
-1.202824e-07
-9.752342e-08
-4.710259e-07
-8.636471e-07
-1.745849e-08
-6.165787e-08
-1.058687e-07
-1.72782e-07
-6.440976e-07
8.837982e-08
-3.463036e-07
-3.728395e-09
-4.360643e-07
-2.329172e-07
-1.377439e-07
4.163878e-08
-1.860504e-07
-9.63985e-08
-1.819594e-07
-1.958487e-07
-2.618633e-07
-2.515452e-07
8.558104e-08
-2.520484e-07
-3.235331e-07
-5.15949e-07
-1.275753e-07
-2.065944e-07
-1.550992e-07
-8.416903e-08
-1.744618e-07
-3.798843e-08
-1.251117e-07
-1.726681e-07
1.604808e-07
-1.745703e-07
-3.131433e-08
8.584987e-08
1.182738e-07
3.990485e-08
6.568803e-08
-1.289067e-07
-7.896416e-08
-4.231636e-08
-5.115641e-08
-5.468798e-08
-2.271857e-08
7.591054e-08
1.587435e-07
9.214785e-08
1.352655e-07
-3.684707e-07
-5.675855e-08
1.213269e-07
8.575783e-08
1.981634e-08
-4.453484e-07
-3.561416e-07
-1.356916e-07
5.273827e-08
-1.440105e-08
3.412839e-08
7.437128e-08
3.97884e-08
1.061215e-07
1.035979e-07
-8.783614e-07
-9.381129e-07
-4.869991e-07
-6.823037e-07
-6.251011e-07
-7.263028e-07
-8.000372e-07
1.495116e-07
-5.210402e-08
-2.966334e-07
1.284216e-07
-2.409907e-07
-3.903545e-07
-3.243618e-07
-7.002148e-08
-2.350237e-07
-1.216009e-07
-1.792491e-07
-2.467758e-07
-2.331404e-07
-1.912367e-07
-4.39586e-08
-7.535522e-08
-1.533707e-07
-7.37179e-07
-4.625323e-08
-2.009753e-07
-1.238549e-07
-1.055644e-07
-1.995569e-07
-5.624599e-07
-5.93157e-07
9.863753e-09
9.413642e-09
-3.669629e-08
-1.477718e-07
-1.119955e-07
-1.479792e-07
-1.340484e-07
-9.650884e-08
-2.504914e-07
-8.943791e-07
1.052789e-07
-5.640007e-08
-9.685841e-09
-4.243418e-07
-1.861463e-07
-2.572313e-07
6.897517e-08
-1.013822e-07
5.302745e-08
-4.946989e-08
9.019496e-08
1.471359e-07
-5.611317e-08
-1.876737e-08
-7.311056e-08
-3.593097e-07
-3.22284e-07
-2.775013e-07
-3.514314e-07
-3.543697e-07
-1.397928e-07
-1.723885e-07
1.380742e-07
-2.329627e-08
-5.790044e-08
-3.665472e-08
-5.723555e-07
-7.969502e-07
-3.754999e-07
8.702102e-08
-1.28866e-07
-7.967145e-07
-1.911289e-08
-1.260269e-08
-4.457102e-08
-1.326704e-08
-1.764655e-07
-3.546789e-07
-1.073529e-07
-4.263548e-07
-1.505289e-07
-2.462929e-07
-2.672712e-07
-3.219753e-07
-2.635918e-07
-9.53586e-08
-7.800322e-08
6.690221e-08
-6.177776e-07
-5.796797e-07
-1.710758e-07
9.945969e-09
-5.462605e-07
-2.461592e-08
8.960403e-08
1.001352e-07
-6.486437e-08
-4.26278e-08
-2.178504e-07
-6.631118e-08
-1.170267e-07
-4.198991e-08
-6.001965e-08
-4.15223e-08
-9.57927e-07
-9.444097e-07
-1.566269e-07
-8.177865e-08
-4.723784e-08
2.300288e-08
8.567091e-09
9.289884e-09
-5.84842e-07
-2.825472e-07
1.773547e-09
-2.155837e-07
-1.865689e-08
-3.451145e-07
-4.82891e-09
1.832938e-08
9.485653e-09
5.807998e-08
-7.795704e-07
-2.041561e-08
-8.063352e-07
2.125985e-08
-1.239197e-07
-5.87584e-08
-1.335572e-07
1.719987e-07
-5.328292e-07
-7.670523e-07
-4.359267e-07
-1.001349e-07
-2.314958e-07
-4.696809e-08
-6.718017e-08
9.634988e-08
-4.947731e-08
-1.723967e-08
1.066976e-07
1.231509e-08
1.185251e-08
-1.175048e-07
-1.173445e-07
1.901424e-07
-3.295636e-07
9.256795e-08
-3.708799e-09
3.707427e-09
-1.20523e-07
1.838072e-08
-7.317885e-09
2.805521e-08
-1.386051e-07
-4.657697e-08
-6.075071e-07
2.573943e-08
1.737292e-07
-4.832185e-07
-7.815015e-07
4.32058e-08
-2.389137e-07
-6.242786e-08
8.680168e-08
8.163065e-08
-2.03254e-07
-2.074673e-07
-5.056879e-08
-1.152428e-07
1.650432e-08
-8.243652e-08
-3.96157e-07
6.997753e-08
1.54283e-08
-4.995276e-07
1.636292e-07
-9.901445e-08
8.443589e-08
7.974278e-08
-7.271593e-07
-3.37806e-07
-6.946448e-07
-1.132691e-07
4.787329e-08
3.353996e-08
-6.957151e-08
-1.232582e-07
1.461816e-08
-4.932064e-08
-5.22148e-07
-1.370192e-07
-1.071914e-06
-1.039064e-07
-2.698902e-08
-4.736513e-07
7.787578e-08
-2.004679e-07
-1.383679e-07
-1.294693e-08
-3.096629e-08
7.670841e-08
9.25785e-08
-9.992824e-07
2.589933e-07
-4.118024e-07
-1.160641e-06
-2.735774e-07
7.369804e-08
-2.141047e-07
4.058136e-08
-3.976774e-07
1.12591e-07
1.171205e-07
-1.049241e-07
-5.125678e-07
-9.298669e-08
-1.805869e-07
-1.089071e-07
-2.328002e-07
-1.197677e-07
-1.842102e-07
-4.581531e-07
-2.727661e-07
1.35757e-08
3.623586e-08
4.224275e-08
6.764772e-08
-9.512828e-08
-2.247277e-07
-3.97451e-07
-2.35484e-07
-2.560113e-07
-3.032353e-07
-4.872201e-07
5.629592e-09
3.467762e-08
-1.056605e-06
3.72318e-08
-6.643274e-08
-4.885623e-07
4.825635e-08
-2.427076e-07
-1.730075e-07
-3.143136e-07
-4.517661e-07
-1.51273e-07
-4.049564e-07
-5.063018e-08
-5.389463e-07
-1.156534e-06
8.015705e-08
-3.168968e-07
-2.540903e-07
9.165862e-08
-7.697613e-07
-2.386052e-08
5.329789e-08
5.69863e-08
-5.512306e-08
9.02177e-08
-8.663202e-08
-5.203767e-08
1.458964e-07
6.011788e-08
9.416054e-08
-6.986905e-09
-1.367865e-06
-3.700218e-07
1.608103e-08
1.098387e-07
-1.221982e-07
-2.316468e-07
6.309201e-08
-4.228806e-09
-3.278041e-07
-9.390053e-08
-2.566647e-07
-3.04186e-07
4.004285e-08
-1.629857e-08
-1.736432e-08
2.650287e-08
6.437848e-08
-9.232045e-08
-6.420814e-07
1.443311e-07
-1.012358e-07
-2.450959e-07
-9.57948e-08
-9.768539e-09
-2.241378e-07
-2.205457e-07
-2.288579e-07
-1.164667e-07
-2.59639e-08
-8.431837e-09
-1.031542e-08
-4.958906e-09
1.760413e-07
2.653671e-08
2.490447e-07
2.36626e-07
-1.124012e-07
-2.061603e-07
9.300789e-09
4.830833e-08
1.297683e-08
-3.147502e-09
-1.795221e-07
-7.986658e-08
-3.92942e-08
6.842829e-08
-2.149903e-07
6.628157e-09
-3.501187e-08
-3.342792e-08
-1.952438e-07
-4.161656e-08
-1.06282e-08
-6.366662e-07
-4.702853e-07
1.056731e-07
1.454543e-07
-3.146132e-07
-4.184009e-07
-4.206834e-07
-7.792024e-07
-1.320184e-07
2.18298e-08
9.695696e-09
-3.541837e-08
-1.002181e-07
2.455686e-08
-1.630132e-08
-6.142341e-08
-9.517261e-09
-8.860453e-08
6.427778e-08
-4.754161e-08
-1.848188e-07
-1.279409e-08
-2.973654e-08
-1.653345e-07
-4.43333e-07
-1.377894e-07
-1.454253e-07
-7.471386e-08
1.021795e-07
-1.061797e-07
-8.413701e-07
3.196086e-08
6.057294e-08
1.696548e-08
-8.836113e-08
1.0857e-07
-4.905563e-07
-3.916516e-07
5.047576e-08
4.496385e-08
2.803143e-08
-9.183991e-08
8.141396e-08
3.813739e-08
-4.905358e-07
8.686922e-08
4.596545e-08
-2.34719e-09
-1.378855e-07
-1.127337e-07
-5.308461e-08
-2.322806e-10
-9.972157e-09
-1.372566e-08
4.194282e-08
5.438717e-08
-2.991752e-09
6.428821e-08
1.032289e-08
5.175962e-08
7.389434e-08
6.333871e-08
5.854774e-08
3.597886e-08
-2.55813e-08
4.922536e-08
-2.042387e-07
-2.897374e-08
-5.021958e-07
1.830253e-08
1.323439e-07
-5.348474e-07
-2.602918e-07
-1.140935e-07
1.581901e-07
1.382674e-07
-2.386073e-07
-3.285576e-07
6.115351e-07
-5.664395e-08
-3.439094e-08
-1.057666e-08
-1.674589e-07
1.460681e-08
2.3431e-08
-5.617739e-09
-9.824885e-08
-3.065621e-07
-2.851609e-07
-1.623416e-07
-5.559383e-07
-3.489135e-07
-3.876906e-07
-6.679416e-08
4.890966e-07
-5.601828e-08
-6.59498e-08
-1.202841e-06
-2.151007e-08
-7.679949e-08
-1.296759e-07
-4.632556e-08
-6.75891e-08
5.084121e-08
1.18772e-07
-3.979657e-08
-5.250601e-08
1.049129e-07
-5.311841e-07
-4.493786e-07
-5.309143e-07
2.647791e-08
4.060081e-08
2.429899e-08
-2.791462e-09
2.787638e-08
-4.46668e-10
-1.455503e-07
-2.91322e-07
-3.392689e-07
-3.79931e-07
1.412799e-07
3.368654e-08
-2.206781e-07
-3.44471e-08
-7.482593e-08
-6.684638e-08
4.786076e-08
1.878528e-09
7.231923e-09
9.679901e-08
6.998648e-09
-5.754616e-08
1.368886e-08
-3.261822e-08
-4.668559e-08
1.781734e-07
-3.260011e-08
-1.286641e-07
1.027837e-08
-1.381175e-08
-2.232051e-08
-1.274383e-08
1.813668e-08
-1.119088e-06
-7.998141e-07
1.227323e-09
-3.228246e-07
-2.416495e-07
3.295317e-08
5.999259e-08
-8.882816e-08
-1.280557e-07
-1.415804e-07
-1.010718e-07
1.15239e-07
-7.798558e-08
-5.080358e-07
-2.604337e-07
-2.645642e-07
-2.111071e-07
-3.936152e-08
-1.328408e-07
-4.510954e-08
1.279018e-07
5.808483e-08
-1.931871e-07
1.039819e-07
8.131794e-08
-1.6079e-08
-3.214471e-08
-3.350684e-09
-4.631094e-07
-4.05598e-08
-7.9066e-08
-3.226839e-08
2.330264e-08
-1.951872e-07
-1.548144e-07
-1.842986e-07
-9.258691e-08
-1.071428e-07
-3.922428e-07
9.141784e-08
3.508295e-08
1.038912e-07
-3.782104e-08
-3.421134e-08
-2.289585e-08
-4.53214e-08
-6.798804e-08
-1.051141e-07
-7.327426e-08
-7.119616e-08
-3.626349e-08
-6.049362e-08
-5.77319e-08
-4.203148e-08
-5.711223e-08
-5.011436e-09
-6.697148e-08
-4.312177e-08
-7.03975e-08
-4.546752e-08
-5.821796e-08
-5.025052e-08
-1.835449e-08
-5.011094e-08
-6.187019e-08
-8.973082e-08
-6.178069e-08
-1.270278e-07
-8.25168e-07
-4.198232e-07
-6.218746e-07
2.585455e-09
-2.726528e-07
-1.017783e-08
-3.347134e-08
-2.834888e-08
5.247499e-08
2.28581e-07
2.152802e-07
-1.690036e-07
1.824532e-07
2.411861e-08
-2.252561e-09
8.511635e-08
3.705441e-08
-3.596104e-08
-8.831675e-08
-3.234313e-08
-3.619185e-08
-1.161009e-07
-8.456145e-08
-6.950937e-08
-5.078692e-08
-2.774942e-08
1.356948e-08
-2.836994e-08
-2.651774e-09
6.0237e-08
-3.072e-07
-2.664825e-07
-6.914949e-07
-6.50232e-07
-7.266333e-07
8.783758e-08
-5.093206e-07
1.348294e-07
-5.671421e-07
-2.544071e-07
-4.934974e-07
-3.395113e-07
-3.084381e-07
-2.957087e-07
-1.807107e-09
3.002645e-09
-3.526574e-07
-6.463947e-07
-5.904055e-07
-3.235558e-07
-6.542548e-07
-6.035563e-07
-7.093046e-07
-6.755774e-07
-5.041481e-07
-2.488762e-08
-5.610087e-08
-6.587266e-07
-2.227785e-07
-8.018182e-08
-6.296368e-07
-3.490663e-07
-4.55433e-07
-7.839937e-07
1.673643e-07
1.191807e-07
-2.292281e-07
-1.914887e-07
-1.591333e-07
-2.442469e-07
-6.169604e-08
-6.679287e-07
-5.432425e-07
-1.963932e-07
-3.104955e-08
-8.869194e-09
-1.576434e-09
-7.184667e-08
7.289867e-08
3.102139e-08
-4.857195e-07
-2.975428e-07
-4.879943e-07
-1.382607e-07
2.222525e-09
6.763105e-08
1.868335e-07
1.612929e-07
-4.142355e-08
-7.134403e-08
-6.178168e-08
-1.533505e-07
-1.799776e-07
-2.258724e-07
1.539856e-07
-3.853491e-08
-4.006305e-09
-4.287804e-08
-5.039251e-08
-4.073659e-08
6.11135e-08
-4.131892e-08
4.621677e-08
9.948237e-08
-7.048815e-08
-3.176908e-09
-2.07564e-07
-1.088256e-07
-7.578339e-08
1.289736e-08
-3.104575e-07
2.872452e-08
-2.378752e-07
-9.324271e-08
1.551295e-09
-4.89917e-07
2.32178e-07
-9.262592e-08
-2.160666e-08
-3.919656e-08
1.03429e-07
-4.057127e-08
4.868849e-08
6.524831e-08
3.64055e-08
4.016352e-08
-3.224736e-09
-3.002225e-08
1.277545e-07
-1.576786e-07
5.13268e-08
4.435057e-08
3.406895e-08
3.176795e-07
-5.777813e-07
-7.784307e-09
-2.9984e-08
4.190021e-08
7.023439e-08
6.465695e-08
7.503734e-08
1.065993e-07
-6.530559e-07
-5.573748e-07
9.619096e-08
1.074989e-07
-3.007036e-08
-6.894021e-08
2.819482e-08
-9.575049e-08
1.161909e-07
-5.663973e-07
-6.983884e-07
-4.932704e-07
-2.050356e-08
-5.057754e-07
-1.576676e-07
-7.98411e-08
-1.550144e-07
-6.864351e-08
-4.738606e-08
-4.091506e-08
-5.484432e-08
-4.471479e-08
-6.832447e-08
-7.67675e-08
-2.288704e-08
-4.25945e-08
-2.598576e-08
-4.734853e-08
-1.285901e-08
-3.805124e-08
-1.198281e-07
-8.878625e-09
-1.021539e-07
-8.206133e-08
-8.158705e-08
-4.888553e-08
-3.747497e-08
-3.316334e-08
-8.843689e-09
-6.673619e-08
-7.563755e-08
-1.012328e-07
-7.500492e-08
-7.110195e-09
-1.815013e-08
-5.083767e-08
-4.954274e-08
-1.920642e-07
-8.942559e-08
-4.988633e-08
-5.77941e-08
-4.347276e-08
-2.766344e-08
-1.581542e-08
7.297661e-08
-7.932916e-08
-5.156058e-08
1.321486e-07
-4.857904e-09
-3.26644e-08
-8.327964e-08
-7.257345e-09
-4.688099e-08
-3.596445e-07
-3.541059e-07
-6.978228e-07
-1.6949e-07
-3.911602e-07
-5.372624e-08
3.565249e-09
-4.532707e-07
-1.439176e-07
-1.904161e-07
1.122159e-07
9.459968e-09
-2.015231e-08
1.080276e-07
3.000165e-09
1.216701e-08
2.737789e-08
-4.106864e-11
8.715565e-09
5.67638e-08
-5.128456e-08
-2.681235e-08
-4.1012e-07
7.418708e-09
7.433465e-08
9.279724e-08
-1.067349e-07
-9.339395e-08
8.525065e-08
-2.121477e-07
-3.763464e-07
-1.347899e-07
7.645325e-08
-9.249925e-08
-9.782877e-08
-5.212771e-07
-3.847112e-07
-9.04034e-09
1.827384e-07
2.232398e-08
3.80545e-08
-9.190385e-07
-1.78868e-07
-1.538791e-07
-2.568609e-07
-1.236099e-07
-1.397835e-07
-3.258115e-07
-1.864743e-07
2.57003e-08
-1.284775e-07
-5.756146e-07
-1.138298e-09
-3.310327e-08
-2.961615e-07
-1.187395e-07
1.216299e-07
-2.106764e-07
-3.327268e-07
1.171571e-07
-2.92417e-07
-6.534314e-07
-6.605587e-07
-5.849793e-07
4.87937e-08
-9.699568e-08
-4.244781e-08
-8.652495e-08
-2.091896e-07
8.441663e-08
-7.843499e-07
-1.557648e-07
-2.673092e-07
-9.126791e-09
2.602079e-07
-3.31249e-08
-2.060802e-07
-4.927975e-07
-5.954485e-08
-3.674113e-07
-4.315123e-07
2.268024e-08
-3.832863e-08
-1.955385e-08
9.428807e-08
7.768352e-08
1.022557e-07
6.122183e-08
1.698237e-07
9.413874e-08
-6.123294e-08
2.710679e-08
-1.763468e-07
-1.505463e-07
-1.444902e-07
-2.338718e-08
2.140181e-08
1.222194e-07
6.819561e-08
2.204142e-08
1.919979e-08
-6.602327e-08
-1.375093e-08
2.750142e-08
-2.371078e-08
3.433771e-08
5.921142e-09
3.948958e-08
1.269727e-07
1.066132e-07
1.117595e-07
-6.617926e-08
-6.778241e-08
-3.002462e-07
-2.340807e-07
9.283205e-08
2.003735e-07
-2.400646e-08
-1.511814e-08
1.374074e-08
-2.097186e-08
6.030974e-09
-4.932379e-08
-6.538449e-07
1.462846e-07
7.026672e-09
-2.058325e-07
5.145808e-09
5.377726e-08
2.303051e-08
-4.828871e-07
-1.247562e-07
-9.07073e-07
-7.940035e-07
-7.034617e-07
-6.363085e-07
-2.434401e-08
3.619836e-08
-3.625603e-08
2.658926e-08
-3.81188e-07
-2.8484e-07
-2.144015e-07
-4.187457e-07
-1.454656e-08
-2.46588e-08
-1.072639e-08
-5.827524e-08
4.386248e-10
2.897546e-08
-7.058586e-08
3.926517e-09
-3.804297e-08
4.56044e-08
-1.621948e-07
-2.669687e-07
-1.262101e-07
4.975667e-08
-6.881729e-08
-3.373363e-09
1.274109e-08
-1.66854e-08
1.4283e-07
-1.688125e-09
-2.415743e-07
-1.754584e-07
-2.364967e-07
-9.173289e-09
1.12568e-08
-4.524431e-08
-3.558985e-08
-4.969108e-07
-3.34049e-08
-5.949836e-08
-6.262261e-08
9.259824e-10
-3.180689e-08
1.627761e-08
9.455095e-08
-1.907547e-07
-1.796756e-07
-6.560255e-09
7.419736e-09
-3.287042e-07
-4.306441e-07
-1.424548e-07
-4.495424e-08
-5.35075e-07
-7.955671e-09
-2.609847e-08
1.856393e-08
1.853948e-08
-4.039736e-08
4.239592e-08
-2.788217e-09
2.771752e-08
2.838737e-08
5.686456e-08
-2.801514e-07
-2.619857e-08
-2.222685e-08
-2.839823e-07
-3.09268e-07
3.169304e-08
2.672182e-08
-6.372413e-07
-9.816121e-08
-7.326592e-08
-1.021369e-06
-8.321016e-07
-6.14861e-07
-5.766639e-07
-3.462485e-07
-3.351292e-07
-3.179665e-07
-2.683904e-07
-2.478178e-07
-2.312529e-07
-3.314839e-07
-3.511529e-07
-7.831366e-07
-7.250111e-07
-5.992705e-07
-5.766171e-07
-6.680085e-07
-7.047466e-07
-6.937997e-07
-5.306233e-07
-1.364002e-07
-2.39389e-07
-2.400749e-07
-2.493485e-07
-9.305709e-09
-6.186436e-07
-6.114069e-07
-3.38402e-07
-2.585461e-07
-2.969955e-07
-1.494976e-07
-3.583966e-08
-1.113758e-07
-8.645491e-08
-9.388217e-08
3.286809e-08
3.945802e-08
5.65517e-08
1.844315e-07
-2.746689e-07
-3.15227e-07
-1.102954e-08
8.610447e-08
6.926962e-08
-4.39665e-08
-3.293873e-08
-1.15168e-07
-7.803391e-08
-4.965009e-07
-4.233993e-07
1.38475e-08
8.604124e-09
3.69772e-08
5.97547e-08
6.43761e-08
-5.883236e-07
-1.638152e-07
-1.948237e-07
-2.473896e-07
-2.36456e-07
4.068011e-08
-4.593687e-08
-4.495142e-08
4.383545e-08
4.273408e-08
-1.77167e-07
5.0021e-08
5.46435e-08
8.181532e-08
9.771299e-08
1.413298e-08
3.985051e-08
4.514724e-08
3.822058e-08
2.375026e-08
4.088317e-08
-2.027523e-08
-7.255053e-09
-5.982548e-08
-3.016703e-08
-4.481056e-08
3.420078e-08
4.421271e-08
-4.51441e-07
-3.331221e-07
9.112048e-08
-2.269664e-08
-2.458995e-10
-1.329215e-07
-9.509476e-08
-1.177484e-07
-1.610486e-07
2.085938e-08
-4.438431e-07
-6.077653e-07
1.250388e-07
1.028269e-07
-8.31114e-07
-8.610612e-07
-2.047955e-07
-9.290996e-08
-7.051499e-08
-2.409962e-09
6.088563e-08
1.143886e-07
5.090488e-08
-5.523467e-08
1.03876e-08
-1.035058e-08
2.258004e-08