/*--------------------------------*- C++ -*----------------------------------*\
| =========                 |                                                 |
| \\      /  F ield         | OpenFOAM: The Open Source CFD Toolbox           |
|  \\    /   O peration     | Version:  2406                                  |
|   \\  /    A nd           | Website:  www.openfoam.com                      |
|    \\/     M anipulation  |                                                 |
\*---------------------------------------------------------------------------*/
FoamFile
{
    version     2.0;
    format      ascii;
    arch        "LSB;label=32;scalar=64";
    class       volScalarField;
    location    "1.6";
    object      p;
}
// * * * * * * * * * * * * * * * * * * * * * * * * * * * * * * * * * * * * * //

dimensions      [0 2 -2 0 0 0 0];

internalField   nonuniform List<scalar> 
217010
(
-137.5356
-72.58169
-86.51652
-90.4001
-80.28558
-69.5466
-75.16974
-74.68245
-74.65357
-76.30837
-80.56769
-87.94545
-91.81324
-90.27945
-94.58283
-99.48966
-97.91701
-91.64848
-86.65518
-84.36895
-82.55996
-82.92651
-80.5637
-80.34364
-81.15477
-82.76333
-87.96061
-94.41194
-98.6493
-101.6939
-105.5388
-112.0445
-118.1916
-110.3805
-79.65952
-66.87765
-78.64365
-92.87944
-106.2598
-124.1412
-136.9636
-141.3521
-138.3002
-129.8937
-118.2649
-105.6373
-94.3008
-86.82054
-83.32553
-96.62223
-5.689639
-5.410188
-3.754495
-6.85174
-8.706364
-9.114701
-7.73832
-4.952849
-1.947219
-0.5338022
-1.635161
-4.218069
-4.833144
-6.067342
-8.770917
-13.72561
-20.43316
-27.61224
-34.45286
-37.90098
-35.15778
-27.2798
-20.31164
-18.52925
-19.62603
-21.48671
-23.38115
-25.25145
-27.15763
-29.10832
-30.94766
-32.75992
-35.59813
-41.35356
-49.92932
-54.02723
-46.67818
-38.94938
-41.69122
-45.32081
-48.82878
-50.89796
-51.38387
-52.3108
-53.89212
-55.8374
-57.91138
-60.10607
-62.55693
-65.25235
-68.29243
-71.72708
-75.43848
-79.6626
-84.2247
-89.13567
-94.41336
-99.95622
-105.6409
-111.4228
-117.377
-123.5628
-130.0623
-137.101
-144.3624
-151.2974
-158.0773
-164.6873
-170.8507
-176.6711
-182.158
-187.1878
-191.8305
-196.1482
-199.9673
-203.1136
-205.7322
-208.0765
-209.892
-211.1427
-211.9814
-212.4962
-212.6564
-212.4382
-211.8519
-210.7508
-208.8938
-206.0054
-202.7418
-203.1197
-205.266
-198.7882
-189.8832
-191.3568
-197.9297
-199.517
-190.7781
-184.2712
-186.6371
-247.8393
-116.8616
-118.7193
-103.9896
-96.26139
-88.78959
-82.55886
-76.99127
-72.27441
-68.2425
-65.22103
-63.525
-62.91287
-63.45684
-66.05868
-69.74929
-74.01896
-84.89696
-100.208
-115.3595
-130.1023
-148.0977
-165.0517
-179.652
-190.6039
-196.2399
-196.5888
-192.8339
-182.3193
-165.6606
-153.1759
-147.7109
-144.1084
-152.0454
-161.1872
-159.6897
-153.188
-142.0086
-136.3642
-136.0124
-132.871
-130.1299
-131.6403
-132.5964
-135.9842
-132.0781
-137.4686
-140.1523
-140.3971
-131.6551
-208.8078
-108.023
-92.23101
-76.14225
-66.65947
-58.74521
-52.2644
-46.73304
-41.782
-37.47971
-33.6138
-30.11951
-26.93885
-23.9557
-21.14739
-18.52607
-16.10533
-13.84958
-11.6895
-9.628198
-7.661763
-5.78588
-4.009778
-2.33084
-0.6866059
0.9174104
2.483245
3.985388
5.400915
6.765635
8.109478
9.436613
10.7358
11.97195
13.17224
14.36244
15.52928
16.68275
17.81949
18.95833
20.05402
21.15946
22.2186
23.26783
24.30209
25.33258
26.34349
27.33322
28.32561
29.33688
30.34683
31.33189
32.29957
33.26432
34.25752
35.26438
36.25736
37.2565
38.26574
39.27787
40.30558
41.33784
42.36882
43.44256
44.6027
45.78479
46.96546
48.20213
49.47098
50.77942
52.27954
54.66973
50.92263
50.09479
49.36723
48.32832
47.255
46.29604
45.40511
44.56304
43.78755
43.03995
42.25301
41.45053
40.66905
39.92391
39.1946
38.46323
37.72017
36.9781
36.25766
35.54248
34.81154
34.07894
33.35495
32.61708
31.88434
31.13507
30.35506
29.58539
28.83253
28.07229
27.29051
26.45891
25.67208
24.8397
23.98294
23.12605
22.26408
21.36611
20.45
19.53128
18.58775
17.59256
16.55106
15.5057
14.46028
13.37311
12.23198
11.05041
9.811669
8.521717
7.192456
5.809485
4.400191
2.892901
1.285199
-0.3857981
-2.167944
-4.040797
-6.06064
-8.246832
-10.57155
-13.07243
-15.86646
-18.95514
-22.48343
-26.37065
-30.84963
-36.35719
-42.59182
-53.44642
-60.80304
51.24495
50.21148
49.47889
48.46364
47.38195
46.4066
45.5033
44.65144
43.86781
43.11642
42.32808
41.52256
40.73595
39.98582
39.25303
38.5192
37.77377
37.02855
36.30506
35.5875
34.85458
34.11975
33.39361
32.65382
31.91912
31.16867
30.38717
29.61542
28.86022
28.09855
27.31577
26.48192
25.69482
24.86022
24.00187
23.14358
22.28034
21.38087
20.46351
19.54348
18.59873
17.60188
16.55872
15.51198
14.46535
13.37641
12.23378
11.0508
9.810084
8.517849
7.186196
5.800657
4.389641
2.87809
1.26665
-0.4078217
-2.195219
-4.072287
-6.099311
-8.293082
-10.62463
-13.13472
-15.94022
-19.04094
-22.59734
-26.50552
-31.0192
-36.56555
-42.93156
-53.74748
-62.66973
-110.4161
-92.75895
-76.64534
-66.96717
-58.99085
-52.45676
-46.89215
-41.90142
-37.58164
-33.70105
-30.19209
-27.00114
-24.00913
-21.19212
-18.56245
-16.13454
-13.87421
-11.70952
-9.643686
-7.673239
-5.793847
-4.013998
-2.332835
-0.6865916
0.9196444
2.487657
3.992368
5.409712
6.776199
8.121939
9.451056
10.75224
11.99026
13.1921
14.38431
15.55292
16.70849
17.84753
18.98895
20.08635
21.19386
22.25479
23.30607
24.34282
25.3754
26.38847
27.38066
28.37622
29.39052
30.40297
31.39009
32.36061
33.32938
34.32675
35.33738
36.33397
37.3374
38.35111
39.36826
40.40084
41.43797
42.47632
43.56057
44.72998
45.91896
47.10941
48.35575
49.63096
50.95667
52.52419
54.63773
-122.9929
-119.3882
-105.3306
-97.11095
-89.52223
-83.15363
-77.47221
-72.65781
-68.52917
-65.3961
-63.60675
-62.92491
-63.38669
-65.90438
-69.56382
-73.71377
-84.37959
-99.57643
-114.7567
-129.5176
-147.5207
-164.5486
-179.2556
-190.377
-196.1475
-196.6626
-193.0908
-182.7345
-165.9956
-153.3044
-147.7988
-144.1839
-152.0678
-161.255
-159.8089
-153.2963
-142.0371
-136.345
-136.0078
-132.8564
-130.134
-131.67
-132.6565
-135.9892
-132.132
-137.6279
-140.2708
-140.216
-133.4692
-193.8611
-8.813032
-5.51674
-3.696998
-6.567551
-8.555016
-9.1484
-7.945572
-5.274133
-2.201204
-0.5513488
-1.489486
-4.055919
-4.753681
-5.915542
-8.505327
-13.33538
-19.97571
-27.15715
-34.10215
-37.88777
-35.44624
-27.71265
-20.57167
-18.54614
-19.57996
-21.42214
-23.31042
-25.18048
-27.08796
-29.04385
-30.88517
-32.68251
-35.47452
-41.18179
-49.82671
-54.1484
-46.86758
-38.99868
-41.65882
-45.29303
-48.8097
-50.89074
-51.37233
-52.29684
-53.87762
-55.82296
-57.9015
-60.09738
-62.55213
-65.25084
-68.29372
-71.73083
-75.45332
-79.68251
-84.25353
-89.1745
-94.46375
-100.0187
-105.715
-111.5076
-117.4764
-123.6772
-130.1952
-137.2597
-144.5382
-151.4797
-158.2666
-164.8967
-171.0584
-176.8831
-182.3697
-187.3919
-192.0317
-196.3467
-200.1579
-203.2844
-205.8814
-208.2031
-209.9885
-211.2129
-212.0346
-212.537
-212.6837
-212.4496
-211.828
-210.6574
-208.6935
-205.7207
-202.6012
-203.175
-205.0344
-198.1259
-189.6566
-191.8403
-198.3535
-199.0581
-190.1531
-184.3768
-190.9781
-232.5263
-126.8567
-73.89077
-86.12106
-90.72392
-80.73022
-69.71546
-75.15154
-74.67985
-74.62887
-76.25494
-80.50557
-87.90863
-91.83106
-90.30304
-94.64819
-99.61331
-97.9961
-91.68544
-86.68588
-84.39304
-82.59356
-82.95834
-80.5635
-80.391
-81.22607
-82.82472
-88.06542
-94.54551
-98.75264
-101.8042
-105.7112
-112.3592
-118.4349
-109.7936
-78.28138
-66.89733
-79.50726
-94.03234
-107.5537
-125.3693
-137.5898
-141.2663
-137.6661
-128.8841
-117.0583
-104.4529
-93.40129
-86.28149
-83.86796
-84.8671
-115.0106
-74.35576
-85.55355
-91.02583
-81.25975
-70.00114
-75.17739
-74.69864
-74.60576
-76.2016
-80.46033
-87.96511
-91.96845
-90.52596
-95.05063
-99.91473
-98.16959
-91.81235
-86.78751
-84.47714
-82.69384
-83.05016
-80.57604
-80.46269
-81.30971
-82.87261
-88.13294
-94.62949
-98.83353
-101.8894
-105.7824
-112.6194
-118.915
-109.6202
-77.34271
-66.68698
-79.82419
-94.89696
-109.3994
-127.0304
-138.4999
-141.7713
-137.7655
-128.6735
-116.6346
-103.9559
-92.95053
-85.93001
-83.69457
-78.12248
-10.68195
-5.843652
-3.722131
-6.446049
-8.55804
-9.269396
-8.153817
-5.527596
-2.325382
-0.5345097
-1.387569
-4.003154
-4.735115
-5.852825
-8.366496
-13.12598
-19.75848
-26.98084
-34.0946
-38.07
-35.8719
-28.22344
-20.81003
-18.54614
-19.56609
-21.39401
-23.27422
-25.14746
-27.05755
-29.01589
-30.86475
-32.65278
-35.40296
-41.08637
-49.85614
-54.43206
-47.16922
-38.99379
-41.61001
-45.25756
-48.75489
-50.8535
-51.3845
-52.32065
-53.89599
-55.82821
-57.90802
-60.09629
-62.54986
-65.25025
-68.29457
-71.73478
-75.46587
-79.69878
-84.27669
-89.2036
-94.49777
-100.0603
-105.7605
-111.5595
-117.5388
-123.7449
-130.2687
-137.3453
-144.6215
-151.5543
-158.3563
-164.9706
-171.1277
-176.9515
-182.4311
-187.4473
-192.0868
-196.3958
-200.1845
-203.2969
-205.8989
-208.2479
-210.0195
-211.234
-212.0577
-212.5675
-212.7222
-212.4985
-211.8746
-210.6679
-208.6544
-205.6558
-202.5735
-203.288
-205.1042
-197.8897
-189.4609
-192.0986
-199.0662
-199.2621
-189.98
-184.9488
-192.747
-218.9041
-125.1016
-120.0754
-105.9534
-97.54479
-89.87737
-83.46071
-77.73203
-72.88164
-68.72188
-65.52914
-63.6827
-62.96552
-63.35388
-65.82356
-69.47396
-73.54327
-84.11568
-99.3044
-114.4998
-129.2455
-147.3661
-164.4177
-179.3079
-190.5136
-196.3506
-196.8558
-193.5648
-183.7113
-167.1279
-153.729
-147.9305
-144.1963
-151.878
-161.2772
-160.1854
-153.6254
-142.139
-136.3425
-136.0582
-132.8832
-130.155
-131.7118
-132.707
-136.036
-132.2639
-137.8398
-140.3131
-139.9851
-134.1388
-178.5373
-109.919
-93.08784
-76.87985
-67.12574
-59.10884
-52.5462
-46.9586
-41.97149
-37.62297
-33.73844
-30.22229
-27.02767
-24.03333
-21.21216
-18.57886
-16.14681
-13.88662
-11.71998
-9.652297
-7.679954
-5.799554
-4.016892
-2.336028
-0.6886851
0.9190349
2.488235
3.995371
5.41271
6.778946
8.125165
9.455033
10.75818
11.99676
13.19739
14.39071
15.55957
16.71711
17.8569
18.9964
20.0944
21.20119
22.26379
23.31618
24.3526
25.38604
26.39974
27.39147
28.38647
29.4024
30.41707
31.40387
32.37434
33.34189
34.3405
35.35422
36.35057
37.3538
38.36986
39.38704
40.42057
41.45917
42.49873
43.58347
44.7602
45.95509
47.14522
48.39627
49.6718
51.01724
52.64805
54.56368
51.3398
50.2557
49.50488
48.49247
47.41265
46.43564
45.52575
44.66884
43.88614
43.13752
42.34671
41.53915
40.74977
39.99922
39.2663
38.53291
37.78594
37.03899
36.31616
35.59883
34.86451
34.12946
33.4038
32.6622
31.92959
31.17843
30.39395
29.62216
28.86751
28.10592
27.32057
26.48897
25.70117
24.86811
24.00767
23.14896
22.28578
21.38444
20.46695
19.54758
18.60319
17.60469
16.55982
15.51296
14.46713
13.37699
12.23382
11.05041
9.807767
8.514317
7.18144
5.794786
4.385005
2.87038
1.257293
-0.4171209
-2.208239
-4.084831
-6.116509
-8.313171
-10.64629
-13.15951
-15.96965
-19.09234
-22.64147
-26.56558
-31.0963
-36.66989
-43.0811
-53.94515
-62.55226
51.52633
50.4064
49.60819
48.62097
47.55205
46.56113
45.63542
44.76967
43.98087
43.2271
42.43208
41.62199
40.82867
40.07344
39.3366
38.59955
37.84965
37.09914
36.3741
35.65307
34.91551
34.17845
33.45061
32.70578
31.97268
31.21882
30.43051
29.65874
28.90187
28.13871
27.35042
26.52363
25.72495
24.89423
24.03031
23.17065
22.30675
21.40175
20.48363
19.56371
18.61854
17.61638
16.56882
15.5213
14.47581
13.38261
12.23814
11.0536
9.80742
8.512096
7.177053
5.787581
4.379141
2.857483
1.240479
-0.4348928
-2.234115
-4.1113
-6.153103
-8.357235
-10.69528
-13.21646
-16.0434
-19.17567
-22.7377
-26.68988
-31.25386
-36.85742
-43.38321
-54.10362
-62.69525
-110.037
-93.37722
-77.31441
-67.39789
-59.34039
-52.72303
-47.09861
-42.08431
-37.72371
-33.82115
-30.28915
-27.08613
-24.084
-21.25325
-18.6118
-16.17057
-13.90833
-11.73652
-9.664337
-7.687781
-5.804905
-4.016762
-2.336408
-0.6868023
0.9239572
2.495354
4.007411
5.426204
6.793361
8.140758
9.472356
10.77938
12.02094
13.22103
14.41716
15.58729
16.7488
17.891
19.02837
20.14386
21.24343
22.30761
23.36299
24.40235
25.43779
26.45504
27.44969
28.44824
29.46716
30.48546
31.47493
32.44946
33.42155
34.42351
35.44268
36.44326
37.45157
38.47233
39.49498
40.53297
41.5774
42.62513
43.71692
44.89922
46.10176
47.29756
48.54847
49.81428
51.17327
52.81442
54.43314
-128.9306
-121.3078
-107.304
-98.44306
-90.6426
-84.09462
-78.24009
-73.29542
-69.05039
-65.74173
-63.7962
-63.0381
-63.32138
-65.71561
-69.36522
-73.34096
-83.7635
-98.79964
-113.9274
-128.6821
-146.9289
-163.9713
-179.0323
-190.3752
-196.2099
-196.9193
-194.1086
-184.9578
-169.113
-154.863
-148.1328
-144.0079
-151.2792
-161.2005
-160.7274
-154.1274
-142.2986
-136.3372
-136.1686
-132.9681
-130.2009
-131.7693
-132.8309
-136.1323
-132.5234
-138.2168
-140.4023
-139.6596
-135.942
-168.091
-13.06946
-6.267642
-3.788757
-6.26171
-8.440769
-9.247722
-8.39514
-5.891507
-2.584641
-0.5602905
-1.176274
-3.837815
-4.667307
-5.744473
-8.161385
-12.79821
-19.37075
-26.60859
-33.84434
-38.12727
-36.3745
-28.91502
-21.22515
-18.59083
-19.51439
-21.32612
-23.18713
-25.06646
-26.98318
-28.9427
-30.80115
-32.59837
-35.31986
-40.9644
-49.81992
-54.7335
-47.56049
-39.13637
-41.57578
-45.20098
-48.6083
-50.70799
-51.37445
-52.3638
-53.91992
-55.82893
-57.90991
-60.09211
-62.54771
-65.25115
-68.29673
-71.74395
-75.48397
-79.72416
-84.31323
-89.25067
-94.55602
-100.139
-105.8495
-111.6587
-117.6544
-123.8742
-130.4137
-137.5211
-144.818
-151.7569
-158.5718
-165.2044
-171.3602
-177.1972
-182.6821
-187.6895
-192.3297
-196.6483
-200.4418
-203.5423
-206.1272
-208.4307
-210.1404
-211.3283
-212.1396
-212.6411
-212.7904
-212.5735
-211.9548
-210.7364
-208.7374
-205.773
-202.7418
-203.4973
-204.9779
-197.3624
-188.9691
-192.4025
-199.8811
-199.0575
-189.7641
-185.9342
-195.0655
-211.0498
-106.1282
-75.77622
-84.75955
-91.49641
-82.10152
-70.42359
-75.17686
-74.68955
-74.56802
-76.13444
-80.37156
-87.94483
-92.09125
-91.10492
-95.85678
-100.4056
-98.4771
-92.06096
-86.99002
-84.65933
-82.90225
-83.24052
-80.61021
-80.59483
-81.42383
-82.89069
-88.19996
-94.66292
-98.83656
-101.9747
-105.8544
-113.1683
-120.1378
-109.9262
-75.45906
-66.04005
-80.13197
-96.23398
-111.859
-128.9274
-139.212
-141.7139
-137.2704
-127.8811
-115.6987
-103.0538
-92.2017
-85.35385
-82.83558
-71.55955
-99.85077
-77.31221
-84.08914
-92.21944
-83.16189
-70.98992
-75.11625
-74.64466
-74.51546
-76.04922
-80.19257
-87.71017
-92.0802
-92.03596
-97.0267
-101.1366
-99.00987
-92.50409
-87.35723
-85.00965
-83.25901
-83.54288
-80.66025
-80.79653
-81.55845
-82.85311
-88.26776
-94.64458
-98.70421
-102.014
-105.8198
-114.0464
-122.3936
-110.7601
-72.95201
-65.25935
-80.93629
-98.7457
-115.1369
-131.3517
-140.78
-142.3688
-137.2229
-127.3809
-114.945
-102.2203
-91.38947
-84.41791
-80.34478
-63.52145
-15.30915
-6.883095
-3.937101
-6.13199
-8.414928
-9.458201
-8.719841
-6.39501
-3.019045
-0.660365
-0.9833521
-3.732784
-4.61998
-5.661432
-7.96659
-12.47242
-19.02319
-26.28219
-33.73653
-38.48283
-37.06335
-29.86648
-21.95164
-18.7269
-19.42274
-21.23625
-23.09894
-24.99917
-26.92171
-28.87807
-30.76532
-32.58916
-35.26974
-40.84802
-49.7513
-55.00432
-48.00948
-39.56183
-41.68599
-45.17689
-48.44018
-50.53016
-51.33718
-52.40538
-53.94477
-55.82923
-57.91811
-60.08721
-62.5459
-65.2542
-68.29997
-71.75966
-75.5078
-79.75957
-84.36444
-89.314
-94.63174
-100.2297
-105.9525
-111.7748
-117.8017
-124.021
-130.5751
-137.7238
-145.0184
-151.9427
-158.7946
-165.4274
-171.5572
-177.4029
-182.876
-187.8633
-192.5038
-196.8156
-200.5659
-203.6037
-206.155
-208.4818
-210.2086
-211.3829
-212.1922
-212.6979
-212.8522
-212.6506
-212.0389
-210.8075
-208.8714
-206.0934
-203.2848
-203.8912
-204.6237
-196.5207
-188.2406
-192.9219
-200.8823
-199.1113
-189.7373
-187.4726
-196.8518
-204.8951
-132.7997
-122.5614
-108.6485
-99.37604
-91.41683
-84.77115
-78.79977
-73.76943
-69.4537
-66.01615
-63.94625
-63.16486
-63.31239
-65.61433
-69.3148
-73.19505
-83.48423
-98.39095
-113.4331
-128.1628
-146.6686
-163.6619
-179.0251
-190.5758
-196.5648
-197.4264
-194.9313
-186.4677
-171.726
-157.0772
-148.5779
-143.5783
-150.3986
-161.2161
-161.371
-154.7607
-142.5266
-136.3335
-136.3702
-133.1528
-130.3247
-131.8416
-133.0835
-136.2782
-132.9995
-138.7816
-140.5491
-139.4229
-137.9437
-160.6055
-109.9012
-93.51243
-77.68122
-67.64138
-59.5551
-52.88675
-47.23333
-42.19857
-37.80545
-33.89598
-30.34967
-27.14067
-24.13417
-21.29526
-18.64514
-16.19224
-13.93203
-11.75686
-9.680941
-7.700019
-5.81495
-4.019242
-2.342053
-0.690665
0.9225453
2.494952
4.013683
5.432524
6.797798
8.146074
9.479658
10.79187
12.03505
13.23177
14.43137
15.60182
16.76743
17.90969
19.04391
20.15275
21.26293
22.32831
23.38555
24.42448
25.46143
26.48093
27.4756
28.47327
29.49463
30.51751
31.50681
32.48244
33.45372
34.45863
35.48483
36.48518
37.49364
38.52034
39.54526
40.58679
41.63553
42.68867
43.78478
44.98466
46.2011
47.39446
48.64964
49.92153
51.30867
52.93146
54.22676
51.66426
50.51812
49.66577
48.68901
47.63345
46.64046
45.69666
44.81664
44.02713
43.27886
42.47869
41.66442
40.86379
40.10661
39.36895
38.63223
37.87889
37.12411
36.40065
35.67968
34.93902
34.20119
33.47408
32.72456
31.99577
31.24022
30.44556
29.67412
28.91674
28.15435
27.36327
26.53435
25.73529
24.90862
24.04063
23.18075
22.31721
21.40807
20.49097
19.57262
18.6278
17.6207
16.5697
15.52342
14.48023
13.383
12.23804
11.05348
9.802605
8.505413
7.168447
5.776551
4.373347
2.841508
1.220453
-0.4538579
-2.262212
-4.135049
-6.189629
-8.400197
-10.73915
-13.26457
-16.10573
-19.26111
-22.82753
-26.80346
-31.39724
-37.02886
-43.63867
-54.14606
-62.73534
51.77363
50.65923
49.7592
48.79196
47.76403
46.77979
45.81768
44.92509
44.13522
43.38837
42.57956
41.76458
40.95746
40.1953
39.45327
38.71563
37.95773
37.19509
36.47071
35.74616
35.00014
34.2607
33.53334
32.77615
32.05215
31.2939
30.49027
29.72069
28.96084
28.19735
27.39912
26.58414
25.7721
24.94511
24.07184
23.21196
22.34624
21.42721
20.5097
19.59368
18.65243
17.63792
16.57788
15.53179
14.4949
13.3911
12.24436
11.06144
9.803884
8.502751
7.160071
5.763279
4.373236
2.827799
1.202202
-0.4734391
-2.2968
-4.15855
-6.233537
-8.453934
-10.79666
-13.3224
-16.18263
-19.36548
-22.93769
-26.93909
-31.56827
-37.21928
-43.89801
-54.10605
-62.79071
-109.7401
-93.48553
-78.03258
-67.8876
-59.81126
-53.08605
-47.39603
-42.33338
-37.9061
-33.9949
-30.42479
-27.20592
-24.19771
-21.34451
-18.67859
-16.21102
-13.96172
-11.7817
-9.698353
-7.708493
-5.819902
-4.014344
-2.343611
-0.6888344
0.9276018
2.504637
4.03566
5.451061
6.814944
8.169307
9.505708
10.82174
12.06708
13.25986
14.4658
15.63572
16.80688
17.94941
19.08799
20.22292
21.31912
22.38309
23.44442
24.4863
25.52783
26.55227
27.54625
28.5466
29.5759
30.60858
31.59725
32.576
33.54919
34.55764
35.59519
36.59685
37.61074
38.64686
39.67303
40.71652
41.77193
42.8338
43.92963
45.13654
46.36162
47.54451
48.79909
50.06681
51.44737
52.98178
53.9253
-136.5749
-124.6528
-110.3323
-100.5486
-92.37314
-85.64807
-79.5207
-74.36861
-69.98276
-66.38712
-64.14099
-63.37548
-63.34399
-65.50692
-69.34242
-73.20282
-83.30534
-97.98303
-112.9641
-127.5332
-146.4377
-163.345
-179.0678
-190.7874
-196.8102
-197.5699
-195.9595
-188.1702
-174.7683
-160.2979
-149.8898
-143.4568
-149.8613
-161.6413
-162.1267
-155.4334
-142.8205
-136.3013
-136.7149
-133.4733
-130.6771
-131.9998
-133.5517
-136.4312
-133.777
-139.5856
-140.6783
-139.0956
-139.1557
-152.9887
-17.5023
-7.789801
-4.234181
-6.015592
-8.381556
-9.584488
-9.094173
-7.023533
-3.627094
-0.8908572
-0.7667107
-3.624125
-4.584254
-5.594724
-7.767905
-12.10573
-18.62387
-25.97496
-33.65534
-38.8363
-37.95978
-31.07146
-23.04489
-19.02008
-19.26909
-21.09817
-22.94969
-24.87669
-26.81442
-28.78125
-30.72636
-32.61342
-35.25282
-40.72106
-49.60375
-55.05811
-48.49301
-40.27845
-41.95358
-45.1725
-48.27119
-50.36063
-51.28687
-52.43824
-53.96316
-55.82796
-57.93488
-60.08174
-62.54717
-65.26356
-68.30614
-71.78708
-75.54276
-79.81302
-84.43918
-89.39928
-94.73913
-100.3354
-106.0768
-111.9264
-118.0163
-124.227
-130.782
-138.021
-145.3161
-152.1825
-159.0855
-165.7481
-171.842
-177.7235
-183.1927
-188.1541
-192.8113
-197.1459
-200.8803
-203.8971
-206.4741
-208.8313
-210.3852
-211.5268
-212.3241
-212.824
-212.9713
-212.7806
-212.1692
-210.9134
-209.0518
-206.5489
-204.1257
-204.2953
-203.6906
-195.0515
-187.5246
-193.8455
-202.0651
-199.1216
-189.7403
-189.1017
-198.2955
-198.1437
-94.24056
-78.48518
-83.6846
-93.17174
-84.44659
-71.70054
-74.96776
-74.54575
-74.43955
-75.91903
-79.86705
-87.01312
-91.90254
-93.24442
-98.57541
-102.194
-99.89686
-93.2773
-87.99714
-85.61767
-83.76239
-83.93365
-80.78611
-81.06694
-81.70902
-82.75169
-88.38763
-94.66664
-98.52834
-102.0041
-105.6376
-115.4696
-126.2924
-112.6655
-70.31964
-65.08779
-83.27101
-102.5617
-119.1496
-134.1472
-142.0252
-143.0254
-137.2022
-126.8829
-114.1679
-101.2909
-90.37114
-82.80149
-76.15968
-55.14361
-88.66239
-79.07623
-83.83306
-94.14131
-86.40243
-72.34724
-74.64685
-74.35605
-74.33631
-75.7441
-79.23653
-85.97514
-91.72461
-94.69183
-100.5339
-103.73
-101.3449
-94.56891
-89.03854
-86.52282
-84.43328
-84.46278
-81.12175
-81.37835
-81.80755
-82.4781
-88.60173
-94.82214
-98.4092
-101.9986
-105.4488
-118.271
-132.529
-116.0822
-68.68492
-67.06038
-87.73036
-107.756
-124.0627
-137.7721
-144.536
-144.089
-137.2791
-126.3679
-113.2193
-99.91595
-88.63389
-79.9645
-70.19727
-47.39891
-19.95229
-9.417969
-4.890712
-5.99058
-8.404629
-9.838352
-9.599841
-7.817681
-4.432615
-1.352612
-0.5867991
-3.556302
-4.566712
-5.55249
-7.568078
-11.64465
-17.96601
-25.71713
-33.7228
-39.68332
-39.20645
-32.53853
-24.48712
-19.53115
-19.13629
-20.9744
-22.83777
-24.78968
-26.75646
-28.71367
-30.69756
-32.67815
-35.30449
-40.55099
-49.13494
-54.58202
-48.83515
-41.1672
-42.37139
-45.16878
-48.12286
-50.20984
-51.23722
-52.48134
-54.01016
-55.83348
-57.96071
-60.07987
-62.55078
-65.27854
-68.30778
-71.82403
-75.57953
-79.87263
-84.52214
-89.50203
-94.84437
-100.547
-106.2837
-112.1569
-118.2562
-124.5429
-131.0361
-138.3426
-145.7247
-152.535
-159.4001
-166.1348
-172.1753
-178.0845
-183.5572
-188.4624
-193.1205
-197.476
-201.1833
-204.0901
-206.5901
-208.9595
-210.4796
-211.6336
-212.4338
-212.9453
-213.0946
-212.9387
-212.3368
-211.0599
-209.3074
-207.0702
-204.9947
-204.5193
-202.2978
-193.5259
-187.3506
-195.2725
-203.2324
-198.9348
-189.4115
-190.0609
-198.1284
-191.4798
-140.0127
-126.6764
-112.334
-101.9762
-93.58063
-86.83873
-80.43969
-75.15689
-70.7141
-66.93431
-64.4175
-63.75466
-63.49236
-65.35259
-69.42464
-73.48726
-83.17294
-97.08381
-112.3669
-126.7048
-145.9651
-163.0105
-179.3802
-191.1732
-197.3018
-198.4009
-197.4878
-190.2237
-178.1431
-164.2564
-152.7963
-143.9776
-149.9994
-162.5982
-162.9162
-155.8882
-143.2395
-136.249
-137.3144
-133.9419
-131.3186
-132.334
-134.2805
-136.4262
-134.6438
-140.8837
-141.0672
-138.574
-138.9781
-144.7726
-109.3168
-93.20309
-78.31451
-68.10216
-60.11115
-53.29221
-47.54261
-42.46746
-38.02803
-34.10947
-30.48715
-27.27581
-24.27503
-21.39005
-18.71129
-16.24494
-14.01225
-11.80717
-9.712351
-7.709556
-5.826607
-4.017487
-2.349763
-0.6934764
0.9262924
2.518114
4.048277
5.455382
6.828017
8.184148
9.507404
10.82582
12.0894
13.27514
14.4876
15.65429
16.83453
17.98028
19.11961
20.24193
21.3431
22.40998
23.48155
24.52503
25.56593
26.58847
27.587
28.59566
29.62397
30.65416
31.63854
32.62781
33.60265
34.6145
35.66284
36.66678
37.68439
38.72052
39.74785
40.80615
41.8719
42.94594
44.03608
45.26145
46.51865
47.69914
48.96137
50.20976
51.54259
52.93727
53.51813
51.80423
50.77843
49.85517
48.89004
47.87846
46.90288
45.90875
44.99665
44.20969
43.47153
42.64088
41.82369
41.01176
40.25434
39.50439
38.76429
38.00494
37.24056
36.52189
35.79153
35.03793
34.29871
33.57173
32.8037
32.08934
31.32007
30.50824
29.74352
28.98511
28.22733
27.4173
26.58192
25.78777
24.95728
24.07933
23.23134
22.37156
21.44108
20.52189
19.60027
18.66486
17.65231
16.58456
15.52749
14.50009
13.39483
12.24141
11.06016
9.80203
8.501869
7.150946
5.733737
4.361492
2.799694
1.185571
-0.4922776
-2.345712
-4.180469
-6.284341
-8.502052
-10.8628
-13.3897
-16.26253
-19.46685
-23.04558
-27.07414
-31.74146
-37.39737
-44.10585
-53.88466
-62.6676
51.70386
50.82081
49.94907
49.02287
48.0623
47.14
46.09316
45.13459
44.36462
43.66515
42.82763
41.97789
41.12238
40.37458
39.6444
38.8882
38.09329
37.31221
36.62033
35.88847
35.11689
34.38476
33.66414
32.86417
32.21201
31.40278
30.56346
29.81295
29.02667
28.29693
27.47409
26.67402
25.88345
25.01863
24.09225
23.24939
22.39955
21.47032
20.57448
19.6441
18.66715
17.65523
16.62651
15.55772
14.50248
13.41661
12.26335
11.04178
9.786735
8.503903
7.183748
5.746125
4.35641
2.731414
1.155338
-0.4898051
-2.421943
-4.207618
-6.389695
-8.540012
-10.91425
-13.5313
-16.41646
-19.63291
-23.21636
-27.28035
-32.01561
-37.68756
-44.43098
-53.59751
-62.47559
-108.4381
-92.83408
-78.80914
-68.47809
-60.61226
-53.48184
-47.75058
-42.72128
-38.26254
-34.21444
-30.53216
-27.40725
-24.37501
-21.42984
-18.79462
-16.32902
-14.02836
-11.78077
-9.721466
-7.717721
-5.873427
-4.047031
-2.326531
-0.7182553
0.9410675
2.543381
4.019712
5.489397
6.876863
8.192243
9.502757
10.89155
12.19918
13.3133
14.54281
15.70411
16.90561
18.04882
19.17768
20.28949
21.42844
22.51686
23.57728
24.61576
25.64042
26.69443
27.71808
28.69634
29.69946
30.77655
31.8024
32.77804
33.74976
34.742
35.82375
36.85514
37.81987
38.89887
39.96654
41.00549
42.0658
43.14457
44.22056
45.49742
46.82079
47.92934
49.14025
50.31416
51.5699
52.81558
53.04317
-143.6938
-129.5964
-115.135
-104.1967
-95.518
-88.5343
-81.64175
-76.27357
-71.71243
-67.748
-64.78712
-64.34775
-63.83527
-64.99062
-69.51522
-73.88289
-83.10192
-95.57721
-111.0258
-126.0494
-145.2043
-162.5146
-180.2169
-191.8917
-197.7713
-198.8254
-199.4283
-192.6032
-181.9018
-168.9214
-157.3505
-146.0671
-151.6292
-164.7685
-163.7728
-156.0339
-143.8157
-136.3656
-138.0017
-134.5436
-131.5628
-132.9749
-135.1993
-135.9916
-134.0984
-142.9092
-141.3911
-137.6737
-137.1063
-136.7364
-22.11599
-11.48139
-6.159577
-6.288475
-8.590831
-10.25546
-10.24597
-8.872658
-5.55219
-2.239672
-0.5769224
-3.723379
-4.507616
-5.540338
-7.403653
-11.11978
-17.05403
-25.24941
-33.8085
-40.581
-40.88432
-34.3644
-26.45073
-20.33156
-19.02608
-20.79872
-22.63261
-24.63849
-26.61579
-28.50341
-30.53586
-32.77249
-35.42258
-40.22627
-48.09142
-53.23148
-48.81232
-42.01533
-42.93309
-45.26907
-47.93306
-50.05695
-51.19602
-52.51022
-54.02812
-55.75543
-57.96878
-60.10588
-62.55608
-65.30095
-68.30827
-71.88926
-75.61944
-79.92355
-84.60331
-89.651
-94.90761
-101.0306
-106.691
-112.533
-118.4796
-125.002
-131.4026
-138.5759
-146.2159
-153.3609
-160.0366
-166.6769
-172.7663
-178.6192
-184.1061
-189.0674
-193.7009
-197.9855
-201.6147
-204.5291
-207.0236
-209.4321
-210.7387
-211.9003
-212.6418
-213.1647
-213.3015
-213.1966
-212.621
-211.2902
-209.6433
-207.6296
-205.7088
-204.4976
-200.9193
-192.5888
-188.28
-197.4719
-204.2701
-198.2332
-188.7131
-189.784
-194.8691
-185.7912
-83.56273
-78.70393
-84.7002
-95.15959
-88.99457
-71.96828
-73.95342
-74.202
-74.16543
-75.46875
-78.46952
-84.77979
-91.70535
-96.50925
-103.0994
-105.9668
-103.5991
-96.36977
-90.47806
-87.6261
-85.31097
-85.46477
-81.56504
-82.13236
-81.92582
-82.0758
-88.90097
-95.09124
-98.35581
-101.9838
-105.1663
-122.9164
-143.0956
-122.4715
-69.66586
-73.66644
-95.48654
-114.7267
-129.8432
-142.0102
-146.6779
-145.1022
-137.2239
-125.6223
-111.7689
-97.40652
-84.81795
-74.33952
-61.44658
-40.68626
-0.05805402
-0.01379975
2.100817
5.722392
1.661521
-0.4654068
0.1226476
5.894117
3.19348
0.1936301
-13.32861
1.57237
-0.01880986
2.244539
-0.4745643
6.582852
8.251398
8.009258
5.104429
-108.562
-1.041559
5.055244
0.1454865
4.97906
-0.1636631
6.089356
4.891404
4.225344
5.318111
-0.4761469
1.214709
-0.5013671
-51.77332
0.1571914
5.713934
0.3147419
0.1771898
6.896376
0.1412146
6.108316
6.739116
-0.0155178
-3.657861
1.5652
-28.72793
-46.65514
0.05540502
-0.01560114
-0.02685544
6.898363
4.194208
-0.218164
1.25877
-0.7100662
5.894488
0.208367
3.465672
1.453039
2.708061
-0.01157241
-4.304837
4.639132
-0.4051307
1.033221
7.194937
-0.3465112
-0.3240039
-37.88302
15.13442
1.262982
2.057657
0.3151882
5.964566
4.778209
4.496648
4.547235
4.042811
3.913909
-0.05230469
4.517068
0.746119
3.649732
-1.091838
-0.3882039
-0.4730096
-0.1170364
9.203212
0.1471707
-0.7297835
0.3137395
7.669216
8.041613
6.454605
4.265797
0.2469032
-0.9231565
6.691385
5.368047
-16.18867
-1.625004
-0.9950829
-152.6796
6.048081
-0.5664411
3.137601
5.691479
-2.243882
6.078291
-4.799752
5.989319
0.2057072
-97.05407
0.1260592
1.708224
1.097788
0.06125487
-0.4104381
-28.61288
9.619561
3.723496
0.2134348
0.1924238
-0.5169237
-0.1172
5.254552
-0.5978758
-0.02125878
0.227438
-25.99541
0.353479
12.07547
8.10847
5.682493
-2.810835
-1.000636
0.2016823
3.857948
-6.470523
11.68524
6.772265
5.714512
7.14039
6.067786
2.457864
0.1561221
0.7198349
5.555953
-1.716792
-0.1230088
16.32011
1.88224
-0.02182014
-0.4308339
5.641641
6.748521
5.506851
-0.1239285
-5.601578
-0.01025522
2.972083
-14.3558
5.793497
2.692856
0.09289838
8.087495
0.2860369
-5.794488
7.228779
0.4084424
5.052596
-5.144884
-0.5835877
0.1245328
11.53075
-0.3265073
-0.007557231
-0.1527755
-10.86886
-0.4578173
-97.86438
-1.266402
6.398594
2.324679
3.030249
0.6638695
2.577362
6.540693
6.239841
8.490846
0.3294054
3.847096
0.1810774
3.77268
0.1902931
-127.91
0.324199
0.9426143
-1.465589
7.549907
0.4578259
-5.826661
-10.89684
0.9468128
8.281345
-7.099976
2.674944
-0.06215114
3.536477
3.232324
-25.54359
0.1076455
-206.8743
0.1195556
6.054042
-0.0809548
0.1822823
-7.66329
-0.549878
4.602536
-3.896727
2.727247
5.003158
5.321022
-1.29644
18.29399
-31.24352
4.401349
0.2426845
3.292043
9.302599
-0.5691507
2.852826
19.38491
6.013614
-2.733826
-18.89641
5.019391
4.991753
-187.7356
0.1092964
3.161563
-0.5352547
-0.0915184
0.229856
-3.1567
-36.90464
0.2652824
-0.2760877
2.826097
5.003027
5.006705
-106.0367
8.254402
2.034684
-0.1046247
-0.2439493
0.2147786
4.583749
1.036863
2.052643
5.377964
0.2071774
3.653501
1.652759
6.201205
3.544507
-0.7669803
1.509854
5.425877
-17.36913
-2.555302
0.21927
-0.5042601
-0.09454098
8.049432
-123.8768
6.03409
-1.715451
-83.41125
0.1601348
-4.975042
1.089049
-18.08572
0.5337144
8.485429
-0.4330347
3.649311
6.158312
6.302847
3.551492
0.193118
0.1598815
-18.73545
5.464706
7.471173