/*--------------------------------*- C++ -*----------------------------------*\
| =========                 |                                                 |
| \\      /  F ield         | OpenFOAM: The Open Source CFD Toolbox           |
|  \\    /   O peration     | Version:  2406                                  |
|   \\  /    A nd           | Website:  www.openfoam.com                      |
|    \\/     M anipulation  |                                                 |
\*---------------------------------------------------------------------------*/
FoamFile
{
    version     2.0;
    format      ascii;
    arch        "LSB;label=32;scalar=64";
    class       surfaceScalarField;
    location    "1.6";
    object      phi;
}
// * * * * * * * * * * * * * * * * * * * * * * * * * * * * * * * * * * * * * //

dimensions      [0 3 -1 0 0 0 0];

oriented        oriented;

internalField   nonuniform List<scalar> 
326221
(
-0.002325654
-0.005417783
0.007743438
-0.001031103
-0.001294551
0.0001586353
-0.001189738
-0.001955951
0.002114586
-0.001476733
-0.0004792179
0.0004430798
-0.001919813
0.0008048767
-0.0003617969
0.0006005248
0.0002043519
0.0004973299
0.0001031949
0.0008637404
-0.0003664105
0.001467891
-0.0006041508
0.001576048
-0.0001081571
0.001073938
0.0005021102
-8.338086e-05
0.001157319
-0.001846464
0.001763083
-0.002880352
0.001033888
-0.002650217
-0.0002301353
-0.001764114
-0.0008861026
-0.0007525177
-0.001011596
7.126638e-05
-0.0008237841
0.0009444024
-0.000873136
0.001503505
-0.0005591031
0.002240382
-0.000736876
0.002606777
-0.0003663954
0.001932083
0.0006746937
0.001055478
0.0008766056
0.0007328296
0.000322648
0.0008463375
-0.0001135079
0.001145199
-0.0002988618
0.001210174
-6.49745e-05
0.00149228
-0.0002821066
0.002139286
-0.0006470051
0.001610547
0.0005287388
-0.0006562593
0.002266806
-0.001089732
0.0004334726
0.000925121
-0.002014853
0.00213332
-0.001208199
0.0006195218
0.001513799
-0.002258351
0.002877872
-0.004470885
0.002212534
-0.005357357
0.0008864724
-0.005359547
2.189869e-06
-0.004929702
-0.0004298443
-0.004307506
-0.0006221964
-0.003532238
-0.0007752677
-0.002636547
-0.0008956919
-0.00151727
-0.001119277
-0.0001936471
-0.001323623
-0.0005290519
0.0003354048
-0.004018196
0.003489144
-0.001647266
-0.00237093
8.059627e-06
-0.001655326
0.0003869184
-0.0003788587
0.0008999801
-0.0005130618
0.00109974
-0.0001997598
0.0009482513
0.0001514886
0.0004291296
0.0005191217
-0.0003162949
0.0007454245
-0.0007699999
0.000453705
-0.0004782642
-0.0002917357
-6.770716e-05
-0.000410557
-1.202093e-05
-5.568623e-05
-0.0001279797
0.0001159588
-2.713999e-05
-0.0001008397
0.0004573887
-0.0004845287
0.001054405
-0.0005970167
0.001583727
-0.0005293215
0.002091599
-0.0005078724
0.00229774
-0.0002061408
0.00192828
0.00036946
0.0009228922
0.001005388
-0.0002799082
0.0012028
-0.001046639
0.0007667306
-0.0009855687
-6.107007e-05
-0.0004812918
-0.0005042769
-1.378973e-06
-0.0004799129
0.0003175424
-0.0003189214
0.0005515149
-0.0002339725
0.0007607552
-0.0002092403
0.000935676
-0.0001749208
0.001072337
-0.0001366612
0.00126159
-0.0001892526
0.001635936
-0.0003743466
0.00216885
-0.0005329136
0.002275859
-0.0001070093
0.001074505
0.001201354
-0.0004336224
0.001508127
-0.0004898384
5.6216e-05
0.000267476
-0.0007573144
0.000839383
-0.000571907
0.001019966
-0.0001805827
0.0008523034
0.0001676623
0.0005531209
0.0002991825
0.0002257939
0.000327327
-1.94563e-05
0.0002452502
-0.000182744
0.0001632877
-0.000289129
0.000106385
-0.0003052287
1.60997e-05
-0.0002824662
-2.27625e-05
-0.0002117162
-7.074998e-05
-0.0001021206
-0.0001095956
2.959936e-05
-0.00013172
0.0001915864
-0.0001619871
0.0003615937
-0.0001700073
0.0005532495
-0.0001916558
0.0007660127
-0.0002127632
0.0009618103
-0.0001957976
0.001169494
-0.0002076833
0.00136542
-0.0001959266
0.001595665
-0.0002302446
0.001854519
-0.0002588543
0.002122494
-0.0002679744
0.002407618
-0.0002851242
0.002659046
-0.0002514285
0.002852439
-0.0001933925
0.003020844
-0.0001684051
0.003242723
-0.0002218791
0.003387331
-0.0001446075
0.003518487
-0.000131156
0.003631986
-0.0001134997
0.003723369
-9.138309e-05
0.003807294
-8.392493e-05
0.003887156
-7.986172e-05
0.003942767
-5.561133e-05
0.003943385
-6.176833e-07
0.003879242
6.414261e-05
0.003764183
0.0001150597
0.003600714
0.0001634688
0.003427858
0.0001728561
0.003262969
0.0001648884
0.003075824
0.0001871451
0.002799998
0.0002758268
0.002369583
0.0004304148
0.001751636
0.0006179464
0.0009833846
0.0007682517
0.000200104
0.0007832807
-0.0004059093
0.0006060133
-0.0006595294
0.0002536201
-0.0006023305
-5.719894e-05
-0.0009515959
0.0003492654
-0.001574002
0.0006224056
-0.0008910685
-0.0006829331
0.0006271512
-0.00151822
-2.796762e-05
0.0006551188
-0.001949462
0.001921495
-0.002784137
0.0008346747
-0.001513276
-0.00127086
0.001659593
-0.003172869
0.003524387
-0.001864794
-0.005107169
0.008631556
-0.005549688
0.0004425187
-0.005323005
-0.0002266831
-0.004785089
-0.0005379154
-0.004388189
-0.0003969006
-0.003999978
-0.0003882105
-0.003614483
-0.0003854951
-0.003206334
-0.0004081495
-0.002793997
-0.0004123362
-0.002348102
-0.0004458953
-0.001865916
-0.0004821859
-0.001388568
-0.0004773483
-0.0008858018
-0.0005027661
-0.0002734932
-0.0006123086
0.000249811
-0.0005233042
0.0008198555
-0.0005700445
0.00188075
-0.001060895
0.002859568
-0.0009788178
0.003457261
-0.0005976931
0.003945636
-0.000488375
0.004530256
-0.0005846197
0.004966921
-0.0004366646
0.005398
-0.0004310791
0.005603929
-0.0002059295
0.005721017
-0.0001170881
0.005650266
7.075145e-05
0.005317657
0.000332609
0.004267007
0.00105065
0.00206518
0.002201827
-0.0005863276
0.002651507
-0.001955358
0.00136903
-0.001603428
-0.0003519293
-0.0002108299
-0.001392598
0.0007009398
-0.0009117697
-0.0001270455
0.0008279852
-0.002106159
0.001979114
-0.003155025
0.001048866
-0.002321799
-0.0008332262
-0.0014124
-0.000909399
-0.001039766
-0.000372634
-0.0004382721
-0.0006014939
0.0002464478
-0.0006847199
0.0006309005
-0.0003844526
0.0003819652
0.0002489353
-0.0001713626
0.0005533278
0.0007648958
-0.0009362584
0.001071242
-0.0003063464
-3.926489e-05
0.001110507
0.001543854
-0.001583119
0.00244247
-0.0008986152
-0.006498754
0.008941223
-0.006761029
0.0002622749
-0.005731189
-0.001029839
-0.005354678
-0.000376511
-0.004973624
-0.0003810542
-0.004691359
-0.0002822646
-0.004435193
-0.0002561662
-0.004213846
-0.0002213476
-0.003925702
-0.0002881433
-0.003773603
-0.0001520989
-0.003643581
-0.0001300228
-0.003524573
-0.000119008
-0.003418681
-0.0001058917
-0.003317152
-0.0001015292
-0.00322068
-9.647203e-05
-0.003129043
-9.163672e-05
-0.003047159
-8.188415e-05
-0.002972341
-7.481735e-05
-0.002900854
-7.148754e-05
-0.002830545
-7.030886e-05
-0.002764996
-6.554867e-05
-0.002702257
-6.273961e-05
-0.002643961
-5.829531e-05
-0.002591833
-5.212871e-05
-0.002538796
-5.30366e-05
-0.002485874
-5.292188e-05
-0.002432835
-5.303957e-05
-0.002382537
-5.029758e-05
-0.002338014
-4.452359e-05
-0.002297795
-4.021867e-05
-0.002255698
-4.209693e-05
-0.002214046
-4.165236e-05
-0.002170357
-4.36889e-05
-0.002132385
-3.797119e-05
-0.002097142
-3.52434e-05
-0.002060237
-3.69053e-05
-0.002023129
-3.710734e-05
-0.001985133
-3.799601e-05
-0.001951145
-3.398827e-05
-0.001920015
-3.113004e-05
-0.001949187
2.917217e-05
-0.001931083
-1.81044e-05
-0.001907938
-2.314488e-05
-0.001884812
-2.312576e-05
-0.001864623
-2.01894e-05
-0.001843475
-2.114769e-05
-0.001824506
-1.8969e-05
-0.001807913
-1.659292e-05
-0.001792263
-1.564984e-05
-0.001773208
-1.905541e-05
-0.001753577
-1.963093e-05
-0.001738451
-1.5126e-05
-0.001726251
-1.220019e-05
-0.001717074
-9.17676e-06
-0.001703994
-1.307994e-05
-0.001687751
-1.624277e-05
-0.001674851
-1.290028e-05
-0.00166391
-1.094139e-05
-0.001651015
-1.289497e-05
-0.001641266
-9.748858e-06
-0.001629936
-1.132995e-05
-0.001616495
-1.344076e-05
-0.001601542
-1.495319e-05
-0.001581232
-2.030961e-05
-0.001537018
-4.42147e-05
-0.001474677
-6.234054e-05
-0.001403708
-7.09692e-05
-0.001298223
-0.0001054853
-0.001130977
-0.0001672457
-0.000815282
-0.0003156949
-0.0003010235
-0.0005142586
0.0004415448
-0.0007425682
0.0007690748
-0.0003275301
0.0009555265
-0.0001864517
0.001074958
-0.0001194312
0.001135091
-6.013334e-05
0.001177913
-4.282176e-05
0.001226396
-4.848327e-05
0.001267964
-4.156773e-05
0.001294618
-2.665433e-05
0.001320035
-2.54169e-05
0.001355907
-3.587232e-05
0.001389166
-3.325862e-05
0.001417023
-2.785706e-05
0.00143701
-1.998667e-05
0.001455245
-1.823523e-05
0.001472894
-1.764874e-05
0.001493593
-2.069934e-05
0.001512613
-1.902024e-05
0.001527993
-1.537979e-05
0.001544097
-1.610369e-05
0.001563596
-1.949897e-05
0.001581647
-1.805121e-05
0.001598987
-1.733986e-05
0.001619555
-2.056829e-05
0.001637249
-1.769415e-05
0.00166016
-2.29105e-05
0.001686257
-2.609684e-05
0.001708117
-2.186052e-05
0.001726741
-1.862427e-05
0.001747315
-2.057379e-05
0.001770513
-2.319743e-05
0.001787956
-1.744341e-05
0.001756527
3.142946e-05
0.001787217
-3.069018e-05
0.001823621
-3.640474e-05
0.001860322
-3.670096e-05
0.001897348
-3.702572e-05
0.001936991
-3.964286e-05
0.001974995
-3.800406e-05
0.002010212
-3.521677e-05
0.002048365
-3.815335e-05
0.002090373
-4.200771e-05
0.002135658
-4.528461e-05
0.002176165
-4.050709e-05
0.002215555
-3.939046e-05
0.00225729
-4.173514e-05
0.002302102
-4.481178e-05
0.002348215
-4.611267e-05
0.002399066
-5.085098e-05
0.002451677
-5.261129e-05
0.002504734
-5.305669e-05
0.002559831
-5.509767e-05
0.002612125
-5.229355e-05
0.002673351
-6.122571e-05
0.002736867
-6.351661e-05
0.002802946
-6.607935e-05
0.002874108
-7.116157e-05
0.002947694
-7.358607e-05
0.003028646
-8.095159e-05
0.003116744
-8.809794e-05
0.003206858
-9.011469e-05
0.003304918
-9.805998e-05
0.003416113
-0.0001111945
0.003546114
-0.0001300013
0.003796899
-0.0002507843
0.003981004
-0.0001841054
0.004189879
-0.0002088751
0.004422844
-0.0002329651
0.004722529
-0.0002996846
0.00501859
-0.0002960607
0.005745367
-0.0007267775
0.0003275837
0.001051815
-0.000454446
-0.0009248987
0.001453548
-0.0005881856
0.001731094
-0.0003969766
0.0019115
-0.0002405392
0.002053818
-0.0001851405
0.002189086
-0.0001837511
0.002309783
-0.0001622646
0.00241025
-0.0001271209
0.002501361
-0.0001165279
0.002596533
-0.0001310442
0.002687414
-0.0001241398
0.002773989
-0.0001144325
0.002852623
-9.862016e-05
0.002928331
-9.394342e-05
0.002999929
-8.924724e-05
0.00307219
-9.295988e-05
0.003141009
-8.783966e-05
0.003206001
-8.03715e-05
0.003268941
-7.904345e-05
0.00333292
-8.347788e-05
0.00339455
-7.968119e-05
0.003454219
-7.70087e-05
0.003515601
-8.195107e-05
0.003573393
-7.548555e-05
0.003634253
-8.377034e-05
0.003696253
-8.809744e-05
0.003756386
-8.199305e-05
0.003812797
-7.503587e-05
0.003870939
-7.871512e-05
0.00392947
-8.172846e-05
0.003985826
-7.380014e-05
0.003954592
6.266413e-05
0.004023584
-9.968274e-05
0.004095868
-0.0001086887
0.004168452
-0.0001092847
0.004241328
-0.0001099013
0.004315454
-0.000113769
0.004389272
-0.0001118224
0.004460124
-0.0001060684
0.004533807
-0.0001118365
0.004608395
-0.0001165959
0.004687128
-0.0001240176
0.004761437
-0.0001148162
0.004836401
-0.0001143545
0.004911776
-0.0001171105
0.00499008
-0.0001231152
0.005068705
-0.0001247374
0.005151289
-0.0001334354
0.005235693
-0.0001370156
0.005320525
-0.000137888
0.005408266
-0.0001428385
0.005493094
-0.000137122
0.005585923
-0.0001540546
0.00567902
-0.0001566141
0.005776279
-0.000163338
0.005876042
-0.0001709247
0.005979607
-0.0001771511
0.006087807
-0.0001891519
0.006203117
-0.0002034072
0.006319785
-0.000206783
0.006444138
-0.0002224129
0.006578945
-0.0002460016
0.006730163
-0.0002812194
0.007066013
-0.0005866341
0.007269781
-0.0003878739
0.007503571
-0.0004426652
0.007756541
-0.0004859343
0.008089998
-0.000633142
0.008369603
-0.0005756657
0.009228377
-0.001585552
0.008406958
0.001149003
-0.01023374
0.009638022
0.0008579954
-0.009103642
-0.00215994
-0.008726802
-0.0007533509
-0.008313905
-0.0007939517
-0.008008878
-0.0005872912
-0.007726617
-0.0005384268
-0.00748566
-0.0004623054
-0.007110957
-0.000662846
-0.006935437
-0.0003276186
-0.006779751
-0.000285709
-0.006633559
-0.0002652004
-0.006499678
-0.0002397725
-0.006369378
-0.0002318289
-0.006245518
-0.0002203325
-0.006125038
-0.0002121166
-0.006014269
-0.0001926524
-0.005907611
-0.0001814759
-0.005805968
-0.0001731309
-0.005704485
-0.0001717915
-0.00560859
-0.000161444
-0.005514274
-0.0001570555
-0.005424376
-0.0001481934
-0.005338921
-0.0001375834
-0.005253442
-0.0001385159
-0.005169285
-0.0001370785
-0.005085192
-0.0001371323
-0.005004337
-0.0001311529
-0.004926469
-0.0001223914
-0.004852721
-0.0001139669
-0.004776184
-0.0001186341
-0.004701998
-0.0001158385
-0.00462511
-0.0001205765
-0.004553257
-0.0001098244
-0.0044818
-0.0001067004
-0.004409634
-0.0001090713
-0.004336832
-0.0001099087
-0.004263466
-0.0001113621
-0.004192548
-0.0001049069
-0.004122267
-0.0001014107
-0.004150709
5.761381e-05
-0.004092555
-7.625788e-05
-0.004034152
-8.154847e-05
-0.003974269
-8.30082e-05
-0.003917097
-7.73611e-05
-0.00385739
-8.085485e-05
-0.003799383
-7.697592e-05
-0.003740929
-7.504729e-05
-0.003682527
-7.405155e-05
-0.003620371
-8.121171e-05
-0.003557399
-8.260279e-05
-0.003495924
-7.660079e-05
-0.003433915
-7.420931e-05
-0.003371823
-7.126878e-05
-0.003304277
-8.062631e-05
-0.00323327
-8.724998e-05
-0.003161539
-8.463078e-05
-0.003088066
-8.441443e-05
-0.003008162
-9.279946e-05
-0.002926141
-9.176907e-05
-0.002835557
-0.0001019143
-0.002736598
-0.0001123999
-0.002628167
-0.000123384
-0.002508091
-0.0001403856
-0.002361341
-0.0001909645
-0.002195212
-0.0002284701
-0.002014283
-0.0002518976
-0.001788993
-0.000330776
-0.001485814
-0.000470424
-0.001041904
-0.0007596053
-0.000458639
-0.001097523
-0.001655653
-0.007344134
0.005809365
0.001977287
-0.007201059
-0.0003697577
-0.00656214
-0.001176834
-0.006040736
-0.0009183046
-0.005523789
-0.0009051575
-0.005007455
-0.000901829
-0.004461541
-0.0009540633
-0.003908109
-0.0009657689
-0.003318103
-0.001035901
-0.002683914
-0.001116374
-0.002047662
-0.001113601
-0.001387914
-0.001162514
-0.0006023177
-0.001397905
9.738471e-05
-0.001223007
0.0008187541
-0.001291414
0.002089931
-0.002332072
0.003378349
-0.002267236
0.004267913
-0.001487256
0.004979137
-0.001199599
0.005757635
-0.001363117
0.006362772
-0.001041802
0.006947375
-0.001015682
0.007287972
-0.0005465272
0.007576552
-0.0004056677
0.00771552
-6.821713e-05
0.007804811
0.0002433185
0.007569851
0.00128561
0.006028453
0.003743225
0.002099409
0.006580551
-0.001785561
0.005254001
-0.002711167
0.0005736763
-0.001395694
-0.002708072
-0.0007522291
-0.001555234
-0.002297701
0.002373457
-0.004300731
0.003982144
-0.004278407
0.001026542
-0.002833231
-0.002278403
-0.001819631
-0.001922999
-0.001225705
-0.0009665591
-0.0003858465
-0.001441353
0.0004961947
-0.001566761
0.000964831
-0.000853089
0.0003506141
0.0008631521
-0.0003040251
0.001207967
0.001098134
-0.002338417
0.001782583
-0.0009907952
0.001705687
0.001187403
0.002848039
-0.002725471
0.0004625697
0.001486854
0.01904181
-0.002086586
0.004213995
-0.004498338
-0.0005238165
-0.003218095
0.0003313238
-0.001233999
0.00105647
-0.001238208
0.001439827
-0.0005831173
0.001531607
5.970851e-05
0.001270565
0.0007801637
0.0003843164
0.001631673
-0.0006902244
0.001528246
-0.001002318
2.035738e-05
-0.0008924924
-0.0005203821
-0.001086588
0.0001384091
-0.0009752908
4.661797e-06
-0.0004351112
-0.0006410194
0.0003629155
-0.001282555
0.001126866
-0.001360967
0.001806905
-0.001209361
0.002486561
-0.001187528
0.00292389
-0.0006434702
0.002916357
0.0003769934
0.002240765
0.00168098
0.0005749607
0.002868604
-0.001247202
0.002588893
-0.001699949
0.0003916773
-0.001088975
-0.001115251
-0.000573072
-0.0009958164
-0.0002937099
-0.0005982835
-8.193908e-05
-0.0004457433
0.0001034771
-0.0003946564
0.0002827221
-0.0003541658
0.0004190431
-0.0002729822
0.0006324814
-0.0004026909
0.001128238
-0.0008701027
0.001858722
-0.001263398
0.002540945
-0.0007892325
0.001960938
0.001781361
0.0001356605
0.003333405
-0.0007585248
0.0009504013
-0.0005484795
-0.0009673598
-0.0001987923
-0.0009215941
0.0001842126
-0.0005635877
3.597517e-05
0.0003158998
-0.0007001116
0.001035269
-0.001331489
0.0009587039
-0.001655234
0.0005689952
-0.001770501
0.0002785549
-0.001760401
9.628477e-05
-0.001637136
-0.0001071648
-0.001460749
-0.0001991493
-0.001240325
-0.0002911743
-0.0009869721
-0.0003629485
-0.0007184846
-0.0004002075
-0.0004130911
-0.0004673805
-0.0001115424
-0.000471556
0.0002147443
-0.0005179425
0.0005545554
-0.0005525743
0.0008753476
-0.0005165898
0.001205189
-0.0005375247
0.001517967
-0.0005087046
0.001868548
-0.0005808256
0.002253193
-0.0006434996
0.002644628
-0.0006594088
0.003056497
-0.0006969931
0.003429727
-0.0006246584
0.00373308
-0.0004967461
0.004006641
-0.0004419665
0.004344278
-0.0005595158
0.004573534
-0.0003738634
0.004795574
-0.0003531958
0.004999372
-0.0003172975
0.005178959
-0.0002709707
0.00534881
-0.0002537752
0.005511973
-0.0002430251
0.005650075
-0.0001937132
0.005760952
-0.0001114947
0.005859322
-3.422777e-05
0.005935816
3.85659e-05
0.005947362
0.0001519232
0.005893525
0.0002266928
0.005791349
0.0002670648
0.005662025
0.000316469
0.005509491
0.0004283605
0.005294449
0.0006454565
0.00491616
0.0009962351
0.004267102
0.00141731
0.003305373
0.00174501
0.001978599
0.001932787
0.0003583409
0.001873879
-0.0009410441
0.001242186
-0.001670254
0.001078475
-0.001906157
0.0008583089
-0.0008927609
-0.001696329
0.0002975148
-0.002708495
-0.001216574
0.002169208
-0.003308387
0.004013307
-0.002875495
0.0004017827
-0.001012808
-0.003133547
0.00161956
-0.005805237
0.002727596
-0.00297283
0.01716852
-0.0007294063
0.0168798
-0.002511858
0.0004878998
-0.001992111
-0.001709485
-0.002913645
0.00303612
-0.001865465
-0.001527398
0.0002634905
-0.004048769
0.001061193
-0.0011595
0.001022726
0.0002428193
0.0007496853
0.0003762354
0.001024309
-0.0006410341
0.001661359
-0.001241201
0.002021016
-0.0004678139
0.001091621
0.001431505
-0.001542237
0.003791177
-0.003885632
0.004106479
-0.004192272
0.001340528
-0.003504056
-0.0009183519
-0.002409113
-0.001981045
-0.001111655
-0.002309055
-2.592764e-05
-0.001909511
0.001114843
-0.002013906
0.001896103
-0.001340363
0.002730686
-0.001571459
0.003675894
-0.001311604
0.004089512
0.0002610761
0.003376958
0.001589159
0.002265671
0.001433935
0.001846586
0.0003055779
0.002159124
-0.0006114003
0.002606678
-0.0005125288
0.003244464
-0.0009198926
0.00390437
-0.00130691
0.003329581
0.001103527
0.0009228079
0.004673579
0.0006612883
0.0006949922
0.001992196
-0.003345761
0.0008036426
-1.964578e-05
-0.003028399
0.005345841
-0.006532836
0.006382309
-0.007671076
0.003350774
-0.007536144
0.0007515397
-0.007081308
-0.0004526454
-0.006389787
-0.001121366
-0.005462444
-0.001549539
-0.004374689
-0.001863023
-0.003162866
-0.002107516
-0.00187865
-0.002403492
-0.001028513
-0.00217376
-0.001301986
0.000608877
0.006401153
0.00116769
-0.01070894
0.02642105
-0.00280634
0.004461929
-0.00308982
-0.001426005
-0.003622368
0.003568669
-0.002262836
-0.002886931
-6.377124e-05
-0.006247833
0.0009206446
-0.002143915
0.0008998839
0.0002635801
0.0006467929
0.0006293264
0.0009556883
-0.0009499295
0.001512602
-0.001798115
0.001681317
-0.0006365287
-0.000158658
0.00327148
-0.003526253
0.007158772
-0.005275039
0.005855264
-0.005171183
0.001236672
-0.004411373
-0.001678162
-0.003070047
-0.003322371
-0.001527431
-0.003851671
-0.0001997618
-0.00323718
0.001165301
-0.003378969
0.002104097
-0.002279159
0.003061667
-0.002529029
0.004060015
-0.002309952
0.005126469
-0.0008053785
0.005472595
0.001243034
0.004743493
0.002163037
0.004062083
0.0009869878
0.003935596
-0.0004849137
0.004221041
-0.0007979734
0.005004913
-0.001703765
0.005766132
-0.002068129
0.005045712
0.001823948
0.002488183
0.007231108
0.001793823
0.001389352
0.0008888248
-0.002440763
-0.002901019
0.003770198
-0.007288399
0.00973322
-0.009367976
0.008461887
-0.009577137
0.003559935
-0.009417806
0.0005922087
-0.008958922
-0.0009115298
-0.008118881
-0.001961406
-0.007013597
-0.002654824
-0.005710362
-0.003166257
-0.004312928
-0.00350495
-0.003065823
-0.003650597
-0.002490569
-0.002749013
-0.002867938
0.0009862463
-0.004942367
0.008475582
-0.002798607
-0.006642099
-0.0008680564
-0.005148646
0.0003517141
-0.00245377
0.001279528
-0.002166022
0.001775643
-0.001079232
0.00190865
-7.329841e-05
0.001787083
0.0009017306
0.001123047
0.002295709
-0.0001669679
0.002818261
-0.001246054
0.001099443
-0.001565098
-0.0002013378
-0.001775737
0.0003490482
-0.001362954
-0.0004081212
-0.0005972261
-0.001406748
0.000311013
-0.002190794
0.001216818
-0.002266772
0.002036061
-0.002028604
0.002876017
-0.002027484
0.003411887
-0.00117934
0.003393683
0.000395197
0.002928259
0.002146405
0.00153159
0.004265273
-0.0008286633
0.004949146
-0.002086124
0.001649138
-0.001758355
-0.00144302
-0.0014466
-0.001307571
-0.001348196
-0.0006966868
-0.00127598
-0.0005179598
-0.001193534
-0.0004771019
-0.001096109
-0.0004515913
-0.000945688
-0.0004234031
-0.0005568787
-0.0007915002
0.0002329828
-0.001659964
0.00125367
-0.002284085
0.002070989
-0.001606551
0.001901505
0.001950844
0.000366838
0.004868072
-0.001303693
0.002620932
-0.002003709
-0.0002673438
-0.002083191
-0.0008421117
-0.002031374
-0.000615405
-0.002215627
0.0005001526
-0.002570452
0.001390095
-0.002805344
0.001193595
-0.002791279
0.0005549306
-0.002665317
0.0001525931
-0.00248731
-8.172286e-05
-0.002254285
-0.0003401895
-0.001996499
-0.0004569354
-0.001695769
-0.0005919042
-0.001364764
-0.0006939536
-0.001021048
-0.0007439238
-0.0006388579
-0.0008495702
-0.0002636838
-0.0008467301
0.0001374764
-0.0009191026
0.0005508362
-0.0009659342
0.0009445772
-0.0009103308
0.001344716
-0.000937663
0.00172584
-0.0008898291
0.00215008
-0.001005065
0.002617975
-0.001111395
0.003090864
-0.001132298
0.003590096
-0.001196225
0.004043112
-0.001077675
0.004411889
-0.0008655228
0.00474419
-0.0007742678
0.005145908
-0.0009612342
0.005423677
-0.0006516319
0.005695474
-0.0006249929
0.005947244
-0.0005690673
0.006172172
-0.0004958986
0.006385579
-0.0004671827
0.006588409
-0.0004458549
0.006761392
-0.0003666966
0.006895975
-0.0002460776
0.007003886
-0.0001421384
0.007096102
-5.36499e-05
0.007132831
0.000115194
0.007114176
0.0002453475
0.007038156
0.0003430849
0.006921871
0.0004327539
0.006797571
0.0005526606
0.006701368
0.0007416601
0.006620488
0.001077114
0.006458546
0.001579253
0.006058227
0.002145328
0.005070125
0.002920889
0.003005716
0.003938287
0.0002035975
0.004044305
-0.001598849
0.002880922
-0.001834706
0.001094166
-0.001043928
-0.002487107
-0.0005987887
-0.003153635
-0.002506591
0.00407701
-0.003879723
0.005386439
-0.002851132
-0.0006268081
-0.0008416538
-0.005143025
0.002220401
-0.008867292
0.00220711
-0.002959538
-0.006558375
0.025934
-0.009091486
0.004510398
-0.009016836
-0.0004444074
-0.008281437
-0.001912234
-0.007595617
-0.001604124
-0.006946204
-0.001554571
-0.006302036
-0.001545997
-0.005628049
-0.00162805
-0.004947003
-0.001646814
-0.004229837
-0.001753067
-0.003463296
-0.001882916
-0.002694389
-0.001882508
-0.001912449
-0.001944454
-0.0009793084
-0.002331046
-0.0001290835
-0.002073231
0.0006888853
-0.002109383
0.002133329
-0.003776515
0.003740822
-0.00387473
0.004900226
-0.002646661
0.005790298
-0.002089671
0.006738249
-0.002311068
0.007470463
-0.001774015
0.008187631
-0.00173285
0.008606405
-0.0009653021
0.008961444
-0.0007607064
0.009102611
-0.0002093842
0.009138519
0.0002074107
0.009015651
0.001408478
0.008490079
0.004268797
0.005665498
0.009405131
0.0004526639
0.01046683
-0.003004379
0.00403072
-0.003106221
-0.00260623
-0.00329611
-0.001365346
-0.004870225
0.003947572
-0.005712065
0.004823985
-0.004943902
0.0002583787
-0.00336935
-0.003852955
-0.002182877
-0.003109472
-0.001469565
-0.001679871
-0.0003848346
-0.002526083
0.0008033337
-0.002754929
0.001217055
-0.00126681
0.0001795032
0.001900704
-0.000400984
0.001788454
0.001470765
-0.004210167
0.002318146
-0.001838175
0.00254622
0.0009593283
0.002865123
-0.003044375
-0.001661398
0.006013376
-0.01202242
0.02940284
-0.01246755
0.001303129
-0.01134768
-0.003279817
-0.01085174
-0.001249292
-0.01038827
-0.001257421
-0.01004293
-0.0009326303
-0.009728237
-0.0008531172
-0.009465139
-0.0007254035
-0.009034535
-0.00109345
-0.008840278
-0.0005218748
-0.008664855
-0.0004611322
-0.008499535
-0.0004305203
-0.008347142
-0.0003921658
-0.008198035
-0.0003809359
-0.008056053
-0.0003623146
-0.007916941
-0.0003512282
-0.007787872
-0.0003217215
-0.00766205
-0.0003072978
-0.007541637
-0.0002935444
-0.007420721
-0.0002927069
-0.007305788
-0.0002763776
-0.007191789
-0.0002710541
-0.007081957
-0.0002580252
-0.006976326
-0.0002432153
-0.006870341
-0.0002445009
-0.006766027
-0.0002413919
-0.00666152
-0.0002416397
-0.006560155
-0.0002325178
-0.006460809
-0.0002217368
-0.006365452
-0.0002093243
-0.006266238
-0.0002178477
-0.006170154
-0.0002119226
-0.006070315
-0.0002204161
-0.005975619
-0.0002045197
-0.005880253
-0.0002020668
-0.005783829
-0.0002054951
-0.005686558
-0.0002071796
-0.005588049
-0.0002098715
-0.005490577
-0.0002023786
-0.005390819
-0.0002011694
-0.005409521
7.631606e-05
-0.005319456
-0.0001663226
-0.005236041
-0.0001649632
-0.005149429
-0.0001696208
-0.005065972
-0.0001608177
-0.004978823
-0.0001680039
-0.004893373
-0.0001624264
-0.004806662
-0.0001617584
-0.004719803
-0.0001609103
-0.004628479
-0.0001725359
-0.004536105
-0.0001749762
-0.004445034
-0.0001676716
-0.004352406
-0.0001668382
-0.004259404
-0.0001642702
-0.004160098
-0.0001799327
-0.004056847
-0.0001905009
-0.003953193
-0.0001882844
-0.003847515
-0.0001900927
-0.003734355
-0.0002059595
-0.00361996
-0.0002061637
-0.003496795
-0.0002250794
-0.003366272
-0.0002429228
-0.003227029
-0.0002626273
-0.003077191
-0.0002902238
-0.00289811
-0.0003700452
-0.002700808
-0.0004257727
-0.002490364
-0.000462341
-0.002224352
-0.0005967879
-0.001869614
-0.0008251623
-0.001366688
-0.001262531
-0.0006192712
-0.001844941
0.000573836
-0.00284876
0.001446865
-0.001797928
0.001984089
-0.001125409
0.002336658
-0.0007495459
0.002577956
-0.0004818371
0.00276643
-0.0003736138
0.002941935
-0.0003592562
0.003099348
-0.0003196779
0.003232739
-0.0002605117
0.003353623
-0.0002374121
0.003479068
-0.000256489
0.003599395
-0.0002444671
0.003715799
-0.0002308369
0.003822841
-0.000205662
0.003926796
-0.0001978981
0.004025558
-0.0001880095
0.004125233
-0.0001926351
0.004221104
-0.0001837104
0.004312637
-0.0001719044
0.004401492
-0.0001678979
0.004491266
-0.000173252
0.004578296
-0.0001667114
0.004662652
-0.000161365
0.004749063
-0.0001683617
0.004830428
-0.0001568505
0.004914807
-0.0001681497
0.0049999
-0.0001731906
0.005083377
-0.00016547
0.005162533
-0.0001541921
0.005243543
-0.0001597248
0.005323657
-0.0001618421
0.005407664
-0.0001578072
0.005378751
9.157702e-05
0.005473419
-0.000194351
0.005569205
-0.0002044741
0.005663783
-0.0002038629
0.005758035
-0.0002041532
0.005853014
-0.0002087479
0.005947831
-0.0002066396
0.006039026
-0.0001972637
0.006133027
-0.0002058378
0.006226544
-0.0002101122
0.006324824
-0.0002222974
0.006418032
-0.0002080246
0.006512411
-0.0002087333
0.006606416
-0.0002111157
0.006703316
-0.0002200156
0.006799774
-0.0002211954
0.006900083
-0.000233744
0.007001978
-0.0002389108
0.007103958
-0.0002398678
0.007209467
-0.0002483478
0.007310926
-0.0002385811
0.007420935
-0.0002640634
0.007529884
-0.0002655627
0.007643406
-0.0002768609
0.007758725
-0.0002862432
0.007877731
-0.0002961576
0.008000757
-0.0003121773
0.008130967
-0.0003336171
0.008261996
-0.0003378127
0.008400611
-0.0003610273
0.008550095
-0.0003954861
0.00871359
-0.0004447143
0.009099073
-0.0009721166
0.009316428
-0.0006052287
0.009571252
-0.0006974896
0.009851442
-0.0007661245
0.01022087
-0.001002565
0.01057942
-0.0009342251
0.01143593
-0.002442056
0.001875991
0.001684516
-0.0006555339
-0.00282691
0.002404873
-0.001845765
0.002864776
-0.00120945
0.003180581
-0.0007976423
0.003423638
-0.0006166705
0.003646451
-0.0005820687
0.003847095
-0.0005203221
0.004018972
-0.0004323894
0.004173095
-0.0003915348
0.004329661
-0.0004130545
0.004478563
-0.0003933694
0.004622829
-0.0003751028
0.004756193
-0.0003390264
0.004885426
-0.0003271305
0.005008241
-0.0003108245
0.00513133
-0.0003157242
0.005250196
-0.0003025766
0.005363432
-0.0002851404
0.005473583
-0.0002780489
0.00558419
-0.000283859
0.005691449
-0.0002739701
0.005795329
-0.0002652448
0.005901617
-0.0002746498
0.006001351
-0.0002565846
0.006104585
-0.0002713844
0.006208439
-0.0002770445
0.006310001
-0.0002670318
0.006407008
-0.0002511992
0.006505698
-0.0002584144
0.006603096
-0.0002592398
0.006706728
-0.0002614392
0.006672989
0.0001253157
0.006785713
-0.0003070749
0.006901647
-0.0003204085
0.007014713
-0.0003169292
0.007127247
-0.0003166871
0.007240561
-0.0003220616
0.007353299
-0.0003193778
0.007461746
-0.0003057102
0.007573227
-0.0003173189
0.007683866
-0.0003207515
0.007799969
-0.0003384001
0.007909954
-0.0003180097
0.008021321
-0.0003201006
0.008132253
-0.0003220477
0.00824621
-0.0003339725
0.008359518
-0.0003345031
0.008477394
-0.0003516206
0.008596828
-0.0003583448
0.008716407
-0.000359446
0.008840287
-0.0003722282
0.008958782
-0.000357076
0.009088074
-0.0003933551
0.009215162
-0.0003926514
0.009347591
-0.000409289
0.009482435
-0.0004210878
0.009620598
-0.0004343208
0.009764239
-0.0004558175
0.00991552
-0.0004848983
0.01006759
-0.0004898838
0.01022854
-0.0005219774
0.01040251
-0.0005694585
0.01081358
-0.0008557783
0.01104847
-0.001207007
0.01129959
-0.0008563545
0.01159815
-0.0009960434
0.01193673
-0.001104711
0.01237218
-0.001438016
0.0128725
-0.001434544
0.01365921
-0.003228759
0.01320667
0.002328531
-0.01482692
0.01472743
0.001402626
-0.01376043
-0.004346308
-0.01307553
-0.001934193
-0.01252281
-0.001810144
-0.01210021
-0.001355231
-0.01172352
-0.001229801
-0.01141193
-0.001036996
-0.01112512
-0.001380264
-0.01066491
-0.0009820792
-0.01045697
-0.000669072
-0.0102604
-0.0006270963
-0.01007943
-0.000573127
-0.009902254
-0.0005581162
-0.00973322
-0.0005313491
-0.009567605
-0.0005168428
-0.009413265
-0.0004760619
-0.009263118
-0.0004574446
-0.009118968
-0.0004376939
-0.008974143
-0.0004375326
-0.008836196
-0.0004143238
-0.008699514
-0.000407737
-0.008567077
-0.0003904613
-0.008440061
-0.0003702313
-0.008312307
-0.0003722558
-0.008186407