/*--------------------------------*- C++ -*----------------------------------*\
| =========                 |                                                 |
| \\      /  F ield         | OpenFOAM: The Open Source CFD Toolbox           |
|  \\    /   O peration     | Version:  2406                                  |
|   \\  /    A nd           | Website:  www.openfoam.com                      |
|    \\/     M anipulation  |                                                 |
\*---------------------------------------------------------------------------*/
FoamFile
{
    version     2.0;
    format      ascii;
    arch        "LSB;label=32;scalar=64";
    class       volScalarField;
    location    "4.42";
    object      p;
}
// * * * * * * * * * * * * * * * * * * * * * * * * * * * * * * * * * * * * * //

dimensions      [0 2 -2 0 0 0 0];

internalField   nonuniform List<scalar> 
15536
(
-25.56364
-31.63133
-39.36516
-47.70267
-55.52264
-61.58087
-64.91344
-65.17728
-62.67584
-58.45532
-53.62301
-48.56106
-44.0091
-41.84952
-41.05954
-40.39539
-39.02277
-37.0411
-35.99048
-38.79
-44.63376
-51.94539
-62.22829
-77.53575
-98.85716
-124.6147
-138.272
-96.73349
-36.95207
-43.16927
-63.33161
-74.14655
-85.00627
-109.6151
-143.9699
-148.6983
-120.0231
-106.9245
-110.0977
-112.1441
-115.965
-118.9508
-120.0798
-119.7776
-118.7185
-116.7131
-113.9061
-110.1849
-106.064
-101.6728
-96.65586
-91.11903
-85.00757
-78.57409
-71.758
-64.63592
-57.54166
-50.37894
-42.90579
-35.31106
-27.87736
-20.60752
-13.39531
-6.304267
0.5385038
7.225751
13.5972
19.62556
25.20759
30.3479
35.00453
39.18084
42.84269
45.9193
48.38075
50.33
51.63118
52.33686
52.4889
52.15758
51.06932
49.30916
46.96258
44.03341
40.53999
36.50488
32.00056
26.93746
21.48178
15.68759
9.397794
2.800846
-4.027575
-11.2684
-18.64735
-25.95779
-33.42202
-41.01583
-48.55337
-56.10956
-63.51626
-70.59325
-77.29299
-83.69766
-89.92755
-95.6679
-100.8929
-105.5493
-109.6516
-113.2657
-116.1017
-118.0714
-119.2131
-119.5303
-118.837
-116.7757
-113.0553
-107.5184
-100.8157
-98.22001
-101.5986
-95.92691
-75.60601
-49.12942
-74.63756
-140.7471
-144.3174
-89.15823
-39.3037
-15.63076
-4.647133
8.031446
21.7292
21.83467
11.34898
-4.9874
-22.12703
-33.21922
-36.71486
-33.81098
-28.26102
-21.70679
-13.69295
-6.820621
-5.677331
-10.11154
-16.10903
-18.86484
-15.65267
-11.95299
-13.85365
-12.21839
-10.98022
-11.84366
-13.56195
-16.50143
-20.81094
-25.47883
-31.55548
-39.30538
-47.61698
-55.38739
-61.39819
-64.7322
-65.04575
-62.58395
-58.4172
-53.61695
-48.55295
-43.99623
-41.83871
-41.04865
-40.37503
-38.97516
-36.96607
-35.94024
-38.78045
-44.64931
-51.95139
-62.20851
-77.48266
-98.74806
-124.5775
-138.553
-96.89075
-36.79852
-43.29182
-63.42886
-74.21705
-85.01937
-109.6334
-143.9748
-148.6719
-119.8627
-106.8626
-109.916
-111.6806
-115.1582
-117.821
-118.744
-118.3473
-117.2516
-115.2304
-112.4271
-108.7195
-104.6183
-100.2621
-95.28315
-89.7921
-83.7294
-77.35224
-70.59857
-63.54019
-56.51035
-49.4168
-42.01759
-34.49272
-27.12933
-19.93052
-12.78762
-5.761358
1.016263
7.63792
13.94597
19.91649
25.4456
30.53636
35.14893
39.28662
42.91492
45.9656
48.40525
50.33902
51.6314
52.33369
52.4864
52.15864
51.08002
49.33792
47.01544
44.1158
40.65768
36.66405
32.20601
27.19482
21.79814
16.06277
9.837134
3.311994
-3.447734
-10.62098
-17.92165
-25.15535
-32.54475
-40.06013
-47.5201
-54.99996
-62.33242
-69.33611
-75.96674
-82.31167
-88.48708
-94.17265
-99.35132
-103.9654
-108.0339
-111.6255
-114.4462
-116.4158
-117.5728
-117.9259
-117.295
-115.3563
-111.8756
-106.6861
-100.4051
-98.18423
-101.6369
-96.08584
-75.68268
-49.07976
-74.50526
-140.8629
-144.2816
-88.98612
-39.12713
-15.51531
-4.663193
7.932571
21.59111
21.8734
11.37684
-5.00692
-22.15258
-33.1989
-36.69319
-33.791
-28.19205
-21.61264
-13.64397
-6.825871
-5.71042
-10.14461
-16.11014
-18.85859
-15.63889
-11.95131
-13.83188
-12.21777
-11.00248
-11.8681
-13.57724
-16.49714
-20.77042
-25.45079
-31.53793
-39.27266
-47.56461
-55.32041
-61.34325
-64.70057
-64.97253
-62.54764
-58.42539
-53.6233
-48.52095
-43.96587
-41.82854
-41.06456
-40.36968
-38.92039
-36.90044
-35.90095
-38.81458
-44.71055
-51.97721
-62.18634
-77.43184
-98.70949
-124.8271
-139.7698
-98.07898
-36.82696
-43.19518
-63.33778
-74.17763
-85.06334
-109.8178
-144.4546
-148.9392
-120.1928
-106.7731
-109.4061
-111.0915
-114.3041
-116.8161
-117.8035
-117.443
-116.3827
-114.3876
-111.6179
-107.9266
-103.8383
-99.5125
-94.54933
-89.08727
-83.05183
-76.70603
-69.99141
-62.95054
-55.95066
-48.89994
-41.52822
-34.03466
-26.70452
-19.54552
-12.44094
-5.445005
1.292327
7.884833
14.1589
20.09833
25.59766
30.66068
35.24565
39.3585
42.96455
45.99884
48.41977
50.34186
51.62669
52.32512
52.47881
52.15466
51.08319
49.35565
47.0505
44.17107
40.73673
36.76926
32.34127
27.35614
21.99275
16.29258
10.09694
3.609226
-3.110728
-10.25014
-17.51281
-24.7022
-32.05684
-39.538
-46.95346
-54.40968
-61.70681
-68.68124
-75.28331
-81.58336
-87.72842
-93.38068
-98.53738
-103.1283
-107.174
-110.7493
-113.5475
-115.4882
-116.6121
-116.9383
-116.2699
-114.2421
-110.7476
-105.7492
-99.91078
-97.79305
-100.7653
-95.41815
-75.15499
-48.60907
-74.46691
-142.0248
-145.3216
-89.25309
-39.08463
-15.42299
-4.692882
7.802664
21.41212
21.90424
11.21714
-5.264543
-22.29823
-33.30448
-36.83033
-33.80694
-28.12739
-21.54588
-13.62812
-6.866495
-5.791363
-10.23879
-16.168
-18.93789
-15.75384
-12.03945
-13.89328
-12.24399
-11.03861
-11.89502
-13.6012
-16.51371
-20.73639
-25.38152
-31.52403
-39.26105
-47.52889
-55.25916
-61.25365
-64.54501
-64.88823
-62.51411
-58.46057
-53.66501
-48.50475
-43.9449
-41.84661
-41.14387
-40.41387
-38.86622
-36.81712
-35.859
-38.89152
-44.81411
-52.01043
-62.14235
-77.37758
-98.76051
-125.4316
-141.8961
-100.4624
-37.42551
-42.73522
-62.83535
-73.88847
-85.02038
-109.662
-143.7475
-148.4013
-120.8232
-107.0303
-108.7659
-110.24
-113.0813
-115.2994
-116.0626
-115.5502
-114.4763
-112.4739
-109.7543
-106.0926
-102.0377
-97.77524
-92.88674
-87.50418
-81.54442
-75.27792
-68.65093
-61.69646
-54.77705
-47.8179
-40.54769
-33.13315
-25.88352
-18.81169
-11.79222
-4.870182
1.785168
8.308008
14.51298
20.39396
25.8346
30.84376
35.38173
39.45486
43.02628
46.03643
48.43058
50.33819
51.61426
52.30835
52.46375
52.1432
51.07834
49.37126
47.09083
44.24105
40.84366
36.9203
32.54541
27.60948
22.31316
16.67977
10.54829
4.145925
-2.494552
-9.564352
-16.72781
-23.82368
-31.09519
-38.47721
-45.79576
-53.15888
-60.36116
-67.2321
-73.732
-79.95601
-86.02371
-91.5839
-96.66493
-101.1746
-105.1661
-108.7025
-111.4533
-113.3582
-114.4781
-114.8301
-114.2313
-112.3919
-109.1145
-104.4318
-99.14076
-96.86468
-98.65398
-93.27088
-74.06069
-48.84688
-75.43449
-143.6237
-146.3691
-89.7869
-39.13205
-15.39019
-4.62605
7.78971
21.43462
22.27528
10.87502
-5.755151
-22.53688
-33.50844
-37.00655
-33.85551
-28.07878
-21.47714
-13.64322
-6.954331
-5.948003
-10.41521
-16.30179
-19.11739
-16.04496
-12.26838
-13.98391
-12.27189
-11.07012
-11.91042
-13.63214
-16.5206
-20.65928
-25.32597
-31.53821
-39.30385
-47.53873
-55.2339
-61.21811
-64.53897
-64.86083
-62.52367
-58.53853
-53.77157
-48.56573
-43.99594
-41.92985
-41.31893
-40.50697
-38.79972
-36.70186
-35.792
-39.00768
-44.94963
-52.02254
-62.04873
-77.33494
-98.96898
-126.6
-144.9578
-103.7533
-39.06897
-42.21415
-61.97686
-73.30336
-84.75094
-108.4392
-139.8384
-144.3592
-120.2619
-107.4982
-108.1244
-109.2964
-111.8405
-113.8963
-114.6838
-114.1989
-113.1414
-111.1233
-108.4225
-104.762
-100.6769
-96.47672
-91.58897
-86.24953
-80.30714
-74.09121
-67.5312
-60.6031
-53.73643
-46.86343
-39.65836
-32.29218
-25.10732
-18.11885
-11.17187
-4.303978
2.270962
8.737037
14.87699
20.6989
26.07606
31.03522
35.52521
39.55593
43.08445
46.06704
48.43121
50.32174
51.58878
52.27836
52.43625
52.11751
51.05653
49.37801
47.13028
44.31424
40.95644
37.07737
32.75759
27.86841
22.64535
17.07393
10.99081
4.679326
-1.882329
-8.912089
-15.9893
-22.99401
-30.20663
-37.52065
-44.74857
-52.06233
-59.20511
-66.0143
-72.45924
-78.62379
-84.66272
-90.16799
-95.23206
-99.7132
-103.6831
-107.2483
-109.9562
-111.868
-112.987
-113.358
-112.7135
-110.7944
-107.5668
-103.099
-98.22591
-95.69528
-96.24068
-90.86495
-73.60821
-50.87092
-78.00874
-144.9694
-147.3995
-90.45847
-39.39041
-15.44905
-4.442846
8.052147
21.87307
22.94252
10.51153
-6.3958
-22.95248
-33.8495
-37.26263
-33.93305
-28.05935
-21.43349
-13.72178
-7.112353
-6.209017
-10.71441
-16.5439
-19.43529
-16.53863
-12.63898
-14.08123
-12.28316
-11.07883
-11.90541
-13.66531
-16.51557
-20.5748
-25.30947
-31.58794
-39.39652
-47.6117
-55.25959
-61.24317
-64.5452
-64.88866
-62.59491
-58.68904
-53.9766
-48.7592
-44.17866
-42.15452
-41.60607
-40.62888
-38.6972
-36.50964
-35.67453
-39.17069
-45.09637
-51.95856
-61.87004
-77.32463
-99.35599
-128.5674
-148.9867
-107.6345
-42.58461
-42.37212
-61.51499
-72.7908
-84.3246
-106.2432
-133.054
-136.9084
-117.9405
-107.4885
-107.1925
-108.0202
-110.1273
-111.8691
-112.4634
-111.6553
-110.6103
-108.6698
-106.0959
-102.4824
-98.43105
-94.38147
-89.57361
-84.35945
-78.50536
-72.37787
-65.92545
-59.07713
-52.32421
-45.5806
-38.46766
-31.18729
-24.11613
-17.23222
-10.38483
-3.593485
2.867289
9.261044
15.30949
21.04091
26.34835
31.25833
35.68844
39.66505
43.13432
46.09241
48.41874
50.28385
51.54347
52.22766
52.38777
52.06952
51.01467
49.36744
47.16389
44.39177
41.08242
37.25813
32.99926
28.158
23.04113
17.55712
11.51413
5.312008
-1.109442
-8.079016
-15.05373
-21.91873
-29.02481
-36.24531
-43.35147
-50.55756
-57.58922
-64.28564
-70.60059
-76.65884
-82.6242
-87.99514
-92.97463
-97.33735
-101.2137
-104.691
-107.3196
-109.1281
-110.154
-110.5675
-110.0998
-108.3525
-105.3771
-101.2495
-96.88287
-94.26613
-93.84829
-88.60657
-74.04439
-55.18476
-81.54127
-145.22
-147.4618
-90.84514
-39.89451
-15.74299
-4.078511
8.692956
22.7384
23.80411
10.12324
-7.158147
-23.64546
-34.37585
-37.50207
-34.03872
-28.07455
-21.43585
-13.89524
-7.370526
-6.583355
-11.2602
-16.96176
-19.95668
-17.27328
-13.1437
-14.14089
-12.23938
-11.04075
-11.87419
-13.69073
-16.48957
-20.4996
-25.34916
-31.65678
-39.44509
-47.79837
-55.43394
-61.38177
-64.67596
-65.03385
-62.77007
-58.95568
-54.31047
-49.14579
-44.5702
-42.58714
-42.00388
-40.75414
-38.50926
-36.21818
-35.5092
-39.338
-45.17677
-51.71994
-61.49304
-77.2746
-99.82427
-131.197
-153.3782
-112.3875
-48.19118
-44.01263
-61.59816
-72.4607
-83.92408
-103.7563
-125.9807
-129.244
-114.9662
-106.8807
-106.0465
-106.664
-108.3763
-109.8801
-110.4754
-109.6806
-108.7716
-106.5384
-103.9967
-100.381
-96.2719
-92.33975
-87.52577
-82.43925
-76.61129
-70.50682
-64.19475
-57.47595
-50.79289
-44.1137
-37.14613
-30.00409
-23.01771
-16.18181
-9.516117
-2.796991
3.52465
9.846954
15.76755
21.40907
26.7102
31.5119
35.8496
39.75076
43.16379
46.14741
48.3902
50.22398
51.47487
52.14828
52.31053
52.00605
50.96798
49.31386
47.14538
44.431
41.18698
37.45608
33.27898
28.46209
23.4597
18.11712
12.15992
6.00432
-0.3063978
-7.106028
-13.99119
-20.75614
-27.73144
-34.7704
-41.83428
-48.95802
-55.81383
-62.44074
-68.61046
-74.57298
-80.51018
-85.75272
-90.71361
-94.97442
-98.84423
-102.3945
-104.9613
-106.8325
-108.0459
-108.4443
-107.8387
-106.087
-103.2461
-99.3581
-95.42289
-92.71224
-91.4508
-86.32684
-74.58738
-60.4764
-84.39635
-141.9083
-143.4588
-88.90275
-40.41854
-16.43745
-3.922955
9.483601
23.78191
24.40807
9.579887
-8.124105
-24.84091
-35.22105
-37.83375
-34.1849
-28.14705
-21.50743
-14.16328
-7.751674
-7.160436
-12.23625
-17.73319
-20.79353
-18.30149
-13.82738
-14.05237
-12.063
-10.96073
-11.8228
-13.68125
-16.4444
-20.44826
-25.48084
-31.88578
-39.58811
-48.18147
-55.95972
-61.79659
-64.99094
-65.332
-63.15652
-59.4286
-54.85693
-49.80319
-45.2142
-43.28936
-42.50456
-40.87727
-38.23923
-35.78876
-35.0154
-39.19473
-44.92034
-51.13911
-60.79157
-76.9882
-100.9084
-132.6729
-156.5953
-117.6443
-55.3082
-47.20186
-62.53171
-72.55101
-83.4291
-100.7364
-119.0209
-122.3675
-111.9999
-105.6683
-104.3456
-104.7358
-105.9892
-107.1063
-107.769
-106.3347
-105.3973
-103.4857
-101.0581
-97.70973
-93.31868
-89.61098
-84.94645
-80.05647
-74.19183
-68.17835
-62.25376
-55.7104
-48.76898
-42.27763
-35.72826
-28.75842
-21.58768
-14.88428
-8.635419
-1.884972
4.21407
10.51025
16.18396
21.91983
27.22375
31.7581
35.97511
39.77338
43.17443
46.20464
48.29874
50.15043
51.37526
52.03258
52.20822
51.93544
50.87705
49.21901
47.04758
44.40237
41.23363
37.61655
33.63508
28.80447
23.88749
18.71454
13.07606
6.985298
0.4255846
-6.067632
-12.57907
-19.48407
-26.38045
-32.95572
-39.85465
-47.27807
-53.65627
-60.2892
-66.27149
-72.04463
-77.9775
-82.95048
-87.95201
-91.941
-95.67097
-99.262
-101.653
-103.3902
-104.2425
-104.8568
-104.4998
-102.8812
-100.3164
-96.7203
-93.33888
-90.7044
-88.84173
-83.91511
-74.56659
-65.18254
-84.96445
-131.1728
-130.4906
-82.47427
-40.43713
-17.4768
-4.059437
9.932755
24.0718
24.08741
8.686515
-9.35076
-26.82435
-36.21123
-38.49621
-34.60264
-28.34093
-21.50456
-14.58479
-8.183177
-8.298435
-13.44516
-19.17063
-22.17439
-19.67165
-14.66518
-13.69685
-11.68167
-10.90612
-11.68418
-13.6097
-16.38725
-20.4642
3.118715
2.470958
-42.37892
-12.96223
10.46479
-11.77009
2.392257
0.6025172
8.136352
0.6886251
-1.130442
0.4427477
1.605954
1.903005
2.220569
2.508278
-0.8242383
-0.2997149
1.075284
0.178203
-37.53028
-2.860316
1.844148
0.5851567
2.433506
1.224257
-1.25708
0.9777118
-3.594167
1.685707
1.44611
-28.85677
1.293313
2.509088
2.146679
-1.584077
-1.010116
0.3689872
4.395684
-2.384056
-15.85872
3.082691
2.423227
5.039126
31.72949
2.415347
3.453104
2.177685
-10.97816
0.9611942
2.688159
-6.501419
-63.87073
1.338965
0.5186328
20.24291
-1.169596
2.464222
-8.078676
-12.35986
1.06496
0.05534395
-20.41042
1.251897
-5.827586
0.7475416
-38.73599
0.435674
2.987989
1.908737
1.629598
3.60298
10.8549
-3.35336
22.94395
0.9377717
4.816706
0.2039481
-4.010252
1.515671
-12.3104
0.5583083
3.333862
2.426995
-6.442533
2.833355
1.990034
-0.01817871
-56.32745
2.367622
-12.76951
24.69565
-6.850899
1.897716
2.612201
0.680085
-28.03389
7.017944
-66.39578
2.752723
1.006346
0.08885146
2.317447
-75.83797
0.1340735
-23.4267
-1.862388
2.385968
-6.795679
-29.34364
0.002419019
3.3166
4.670617
8.244611
-27.3821
-0.7541498
0.7885455
1.674328
23.28241
2.219003
3.10764
0.9807884
1.582462
-2.395869
-0.2465746
-7.580417
2.191947
-56.69009
3.081555
1.517133
0.5971798
-0.4416218
1.934524
2.430181
1.479488
-12.97506
0.3750267
4.161799
1.098972
0.915276
-51.88087
2.214405
-54.4283
2.540484
2.090377
-11.38788
-0.1619191
-38.65378
0.8426373
1.71207
0.9606298
-25.09543
-21.06221
1.894492
-17.33911
-69.07496
1.686516
1.981933
1.633092
-18.61208
2.077382
-15.32728
-4.928585
-1.294189
-0.06326249
-7.554367
-15.47185
2.851807
-39.44622
0.7709291
2.413568
1.352521
3.667088
-59.36285
-3.821213
-10.58391
1.999606
2.492625
-78.6731
-7.511343
15.238
0.1008821
1.929358
2.128511
5.72569
-37.77781
1.897569
0.9117871
-24.63155
1.141019
1.962288
0.8238393
-4.899077
0.1335479
-1.375896
2.454839
2.787837
2.26815
-0.7574564
-25.27059
-0.1285358
-20.6538
2.77334
-21.82916
2.460165
-1.86455
-3.521865
0.6839844
-4.991255
1.377816
1.341594
3.52299
-0.7687498
-31.31339
2.280633
-10.84973
-7.188227
0.2566957
8.077573
1.186365
1.848588
-0.1039756
2.962396
-2.984465
-0.7043409
-1.11296
2.982011
8.678055
2.210658
17.30952
-3.239299
-46.49502
1.635748
0.543924
-64.83876
1.763508
24.50042
-15.43886
3.288899
2.211371
2.335924
1.143221
0.7326281
-13.87164
0.9361116
-8.728998
2.694831
-52.97142
1.152269
2.492524
-22.67896
2.492317
-0.4788348
0.2803233
3.32563
-17.73595
2.782701
0.9298199
-24.54397
-2.526612
-8.203739
0.4882801
-10.30462
-0.5425208
1.694704
2.156571
2.5272
0.7582223
5.219676
-18.81832
1.482251
1.790123
12.80078
1.407391
3.35432
3.355971
1.444129
-37.24878
-76.99622
2.069787
2.916171
2.467691
-8.652424
1.638943
1.112787
1.752042
37.86785
1.941457
1.849227
-0.1583
0.2100731
0.4656648
2.449773
2.740518
-45.48013
1.226809
-12.93548
1.086009
2.917583
2.057246
-33.09414
2.668068
4.216703
-47.61072
1.863453
0.3156747
0.4123042
2.476543
-1.521769
2.050136
7.730882
-1.266871
1.955979
2.360785
1.768195
-7.730294
34.81149
-33.03393
-77.55143
-79.63873
1.647803
-7.225899
-1.023506
-5.353425
0.2933561
3.5458
1.71041
0.982907
2.356472
0.5184534
19.51803
-0.7728594
-3.922229
-45.03496
3.044808
1.578685
2.511593
1.15862
-0.06078201
2.700919
-56.01986
3.752994
2.730123
0.108942
-8.474123
5.75391
-21.41648
1.87558
-6.627995
0.499415
2.54271
-14.76759
12.73492
1.657371
2.427357
-89.44107
-45.16389
0.6474178
1.301316
-0.2604435
2.35993
-1.496229
-10.30121
2.491523
0.3647027
1.873394
1.233039
1.680174
1.148254
1.117593
-0.0980935
11.88663
-29.25222
2.285665
1.970208
2.57952
2.394129
2.430706
2.847061
0.5039096
1.058789
1.426804
0.2436508
-17.12396
0.2434301
2.43171
2.371841
39.74893
2.541398
-3.947778
-0.4376136
2.245528
3.790475
-71.95109
0.2996819
1.284681
2.706444
-18.36945
1.303275
2.254456
2.147675
0.07979818
-20.77571
-15.39241
-5.087912
1.644408
-45.4686
-45.03242
1.354432
3.083008
1.798161
0.9274442
0.492166
0.5895115
1.937724
1.453283
4.008228
-19.66932
1.565089
-12.18179
0.5535956
0.921664
3.523492
1.921274
1.86386
-18.51331
1.834264
0.525851
-31.20183
-20.35391
-5.156962
3.098265
3.352454
1.776695
2.978138
-0.7742293
0.9481456
-2.452191
0.9151341
0.1788747
1.265277
0.6877775
3.122225
2.00578
-1.218124
1.350764
-4.759265
-0.7079995
2.191112
1.734287
0.6438422
-68.89912
2.577556
-13.20533
2.24329
-2.836426
-1.157867
4.745679
1.528673
-15.33234
2.658504
-44.71496
-0.7620248
2.439817
-3.72398
1.693454
28.36024
1.973894
2.966303
0.7723861
-6.426088
0.8945995
1.246935
7.765939
-13.97379
-11.3807
-6.326464
-45.16229
0.4718527
2.204329
-11.79433
2.315912
1.285114
2.213962
2.512603
2.600049
-0.1238305
16.37117
1.228427
1.081361
2.200685
-17.69314
-2.259107
0.2967292
-13.31175
1.075809
1.897144
4.625675
2.856851
4.080753
1.585696
2.284295
2.27916
-1.726591
3.225463
1.448944
0.4826506
2.227618
-5.124473
-10.9676
-15.70472
0.9684903
12.36639
0.7557673
0.2908688
1.601316
-5.745355
2.012277
1.088346
1.350398
1.180511
1.633543
-5.793054
-11.77525
2.424474
1.421289
0.8019984
2.323999
1.562761
2.266932
-20.34805
-4.618288
-15.3096
0.7925188
4.440627
5.243247
4.076574
1.461388
1.257358
0.9873641
5.558026
1.308641
2.375568
3.471255
-66.18024
2.674792
4.721532
-7.591771
-4.07801
9.257884
1.42368
9.707597
2.336751
-0.9412134
-6.394954
0.3927801
-0.1256441
12.66202
15.99022
-8.73838
2.047429
-6.277564
2.005083
1.282299
0.9479702
1.810195
0.8296239
4.68559
29.89296
-9.233581
1.29312
2.509393
2.888704
-54.5233
2.096533
2.986832
2.426119
2.411044
2.543105
0.6368299
-1.516308
2.664245
5.956038
0.2044508
-10.68085
-16.92965
2.912508
2.362785
-68.19602
-0.8363371
1.205886
-28.88755
-0.642604
0.6630448
1.585885
1.464817
1.133096
-69.21853
2.122033
1.393627
1.355975
1.647872
3.399163
0.767348
3.77726
-24.15824
-11.69763
2.299765
-27.02025
1.758777
5.816113
1.687187
-67.26105
2.05857
8.641102
-9.61803
1.617485
-2.640445
-4.211268
3.541632
5.782077
-8.188161
0.8694609
3.078005
2.434756
18.14883
3.334197
1.768752
2.1335
0.02619904
3.540257
-11.76744
-9.529422
-12.15088
-22.48306
-4.19942
-9.785137
0.5248789
1.614425
1.543748
1.377198
-9.432499
2.523151
-0.101368
2.908541
2.706437
2.572458
-39.86038
2.236757
25.74401
4.033327
-35.42448
0.8654009
11.58363
7.649797
-0.103381
-32.91975
2.2858
0.7737868
-24.38851
-0.5041127
-0.5428141
2.219002
3.075314
0.4374102
0.3047323
-1.128019
1.214257
3.033946
-4.666046
1.776139
2.351278
-68.19882
-5.320055
1.691192
1.534818
-45.43044
1.741279
2.016314
9.356777
15.16714
13.25735
2.650796
-0.8181215
1.686413
-0.8091376
2.108554
0.1856451
3.092617
1.389255
-26.00717
4.033654
-9.125869
-0.2398305
2.859233
2.421881
-22.49409
3.03508
0.4849633
-0.7351941
1.372596
-6.296376
-3.374966
-5.390411
5.141092
-9.990389
1.394673
1.278269
-27.29956
0.7182614
2.632333
2.262532
2.752034
1.136027
-5.903474
1.936887
0.8833283
-23.48049
2.334108
1.818862
3.038857
1.330371
1.850769
1.377939
2.581909
0.5166448
2.285309
-20.89584
1.619722
1.515348
0.2730767
0.5479213
1.229319
2.288931
2.44468
3.443378
2.078823
3.309486
-52.91837
0.1051154
0.314169
2.417496
2.349866
1.940557
5.564897
1.813538
-44.90313
2.528489
-2.555762
6.644666
3.714029
-17.11318
-6.362055
-1.6772
1.713126
-32.30783
1.604014
-12.86801
-21.48439
-1.898887
-1.186322
-1.15707
1.792987
14.62912
3.283195
2.993725
-30.10167
2.454491
1.016275
1.242929
-5.600617
22.74714
-1.091896
2.519748
2.145051
0.1068867
1.81896
1.894995
-0.8673123
1.216708
-4.337904
1.329929
1.972882
-3.410925
7.602047
0.8512594
2.46885
-15.72878
1.283371
1.773973
1.354163
15.8938
31.27203
-17.49918
1.667826
2.359716
2.33618
2.7214
1.286718
-30.03799
2.166595
-7.987601
-8.308437
1.670114
-9.036199
1.836225
-8.354632
2.303639
2.629403
2.220259
1.953442
-9.859828
-60.34441
1.83759
1.205635
-1.344332
1.416492
1.248644
1.918476
-44.27902
-0.8477502
14.31034
1.449488
2.230874
1.813051
1.695361
3.183029
-0.7296872
0.6714507
-0.03818139
-12.96642
2.38883
9.300323
-19.17818
3.54985
-0.1988783
-11.9815
1.549975
2.155591
1.358776
-1.176704
-0.9730996
2.34174
2.522057
1.499117
1.62486
3.867484
1.632313
-12.86932
32.30198
2.049183
-0.04904878
3.930026
-79.27003
0.4702137
1.5626
2.837107
0.9199406
34.19289
1.7321
2.589535
3.143697
2.438739
-7.663348
1.275145
1.502803
1.579259
-27.2515
-10.43638
1.749412
-2.498342
-28.53895
1.609579
3.187025
2.242368
-8.125029
5.279532
31.54888
-1.721838
0.8931557
1.572779
-2.802919
-2.622907
8.731706
0.7823864
1.311849
3.619223
1.586736
0.6672412
2.184285
-5.610171
-9.003516
-4.467916
-32.71364
3.074541
5.753464
2.750469
-3.734637
2.411271
1.75908
-11.44056
0.3468633
-2.473482
11.99371
-12.27213
4.766731
2.683454
2.381151
-12.61903
26.79073
1.599801
0.5159275
-2.922506
-28.51139
0.5898985
1.379562
2.010826
2.503621
1.994216
-39.15418
-4.705783
2.986579
-13.73423
-16.26909
0.5854173
-44.3715
-25.36213
-53.15506
2.870838
-34.41175
3.598847
1.687937
-21.67864
2.305678
1.064555
-21.26888
0.03177492
1.83445
-3.340243
3.586393
2.726569
-46.51879
-8.115096
3.500864
15.5588
2.372487
-0.4495445
-27.87927
19.51252
-49.39737
0.502611
2.231885
2.870038
-1.805144
3.058693
1.106282
2.06222
2.346327
-0.5252633
-47.35362
-60.07291
2.453432
0.08227193
2.866681
2.003468
0.6895976
3.250273
1.643502
1.458154
1.156499
1.033708
1.135608
1.396595
1.583134
-11.32643
2.590039
2.684423
-14.87835
2.712822
2.102244
-2.321747
-20.28696
8.799919
-0.1778027
3.156039
-15.28613
-45.44405
34.30739
48.25462
3.435181
1.125545
-26.17375
5.719664
2.676357
0.9480903
12.76749
-25.5616
2.97557
2.429848
1.363952
2.824401
2.320877
0.05306198
1.757002
-26.67975
-53.88193
-3.34367
1.785969
2.436761
3.070902
2.006583
-8.373968
2.278209
1.464322
2.529256
-0.7035011
-3.820866
2.684987
-47.18165
-28.54652
2.711394
1.068088
2.555101
3.19836
-13.34306
2.811436
0.8943814
-56.37249
2.312134
-30.97318
-16.82268
1.994766
1.557926
-9.43323
-37.30382
-0.2028631
-2.100093
0.671139
1.299656
-1.174213
-4.943317
2.335401
2.326897
2.20407
-1.404299
2.060068
0.6920985
2.026905
2.957016
0.3524636
1.398951
1.250759
-0.4414265
-0.7971864
1.395047
0.876507
-5.021097
0.376618
2.382996
3.821647
0.1443296
1.141939
3.998627
0.4422531
-3.03454
-37.67097
-25.12857
1.002415
2.303709
0.9125338
1.588948
-22.2217
-7.494719
-15.90974
-25.95886
24.41289
2.474031
4.360203
-10.8028
-15.41866
0.6810099
4.116066
-67.89667
3.009022
2.600444
-10.79543
2.976406
4.72578
0.1544781
2.546025
-1.711638
-1.49395
-78.41956
1.526478
-7.830435
36.87812
-8.13977
-3.537909
1.428235
2.085907
0.4452222
8.64424
1.161975
8.640094
-0.8111769
-10.07764
-10.09046
-13.36652
-0.04401191
1.349828
-22.1138
1.172072
-29.42606
8.38524
2.690037
15.09036
2.552818
31.24274
-12.4271
-7.12391
1.387211
-0.002930132
16.36669
-3.439897
-42.759
2.137989
2.14412
2.077002
2.203205
0.256716
-11.82691
-1.452354
1.596242
-39.57884
0.009073252
19.63573
-79.7292
3.469784
-66.77061
-18.71628
-4.92033
-72.13383
39.51849
3.061225
2.59478
-32.16738
1.052533
2.664432
-1.357944
1.893951
-21.83808
-64.69352
1.397158
2.490897
2.724075
3.043569
1.573926
2.962086
1.132265
5.175835
3.041279
0.9124118
2.414479
1.923586
-4.370298
-8.114971
-2.942809
1.123138
0.9871909
-48.30949
0.2414164
1.732428
1.634749
2.08973
-45.85608
2.816151
3.110263
1.660789
2.474894
1.680464
-9.25282
1.38846
1.206996
-24.7024
26.51492
0.3687913
2.458549
3.313187
0.7031738
2.529255
2.157358
2.768374
2.025388
2.296152
-14.47661
1.08152
-11.22863
3.153289
-1.052993
3.378331
3.112428
1.219153
2.18579
-11.01373
-46.37852
-59.56799
-31.44365
2.041872
-11.9091
1.297303
-0.3936743
2.242672
-42.07334
1.071692
2.069108
0.8359255
-10.3454
1.653234
-9.308382
3.794587
-63.96801
0.8585978
3.900129
2.075341
-73.36553
2.821467
-28.70073
2.21264
2.175869
1.764529
1.828366
2.617667
-29.0905
-3.54741
1.473541
1.669563
-13.50086
-1.616585
2.838698
2.891132
3.823953
-0.7833735
1.205643
1.190866
-87.24324
0.6642232
-3.600563
2.228276
3.03675
1.063109
2.172876
2.767098
2.439796
-12.21191
1.983369
6.470993
11.36864
3.051556
-8.751002
2.206537
-1.025348
0.7164709
-28.34123
0.4904102
-0.6047957
0.3031955
-13.11442
-0.6714863
-16.68416
2.033322
-22.96326
1.174216
-7.360329
-0.5639131
0.2217261
17.12701
3.018041
-1.824645
-70.01862
2.846421
3.257531
0.7570419
3.000405
3.454172
2.970258
0.5115798
2.389587
2.604783
-11.30246
1.529875
2.812691
2.280867
3.32196
1.145392
2.426705
0.009999347
2.686617
2.51174
-11.99975
-0.1353639
2.149633
0.04231427
0.7531419
-8.124401
-7.360895
-2.302689
-8.574241
1.354508
-2.99472
-11.36942
-6.252183
3.417676
8.238907
0.4980988
11.20264
-47.82243
-20.28557
1.693839
1.712391
18.24211
0.5564859
1.616493
1.399456
-1.988147
-1.917181
-53.06453
-24.1881
-14.23953
13.59821
10.53713
0.9833335
-32.45949
-40.21511
-62.36811
2.930956
-4.330112
-0.5812741
3.136692
1.612505
0.5980188
1.90358
0.1739894
1.281523
1.023315
1.282663
1.688389
-22.25557
1.967232
0.4945101
1.712509
-9.11684
20.58173
0.835842
-31.57038
-31.06533
-11.21769
9.364211
-2.00321
-8.059744
-8.780025
-53.52577
0.8080024
-67.98558
2.511206
-52.43091
-22.75545
2.59519
2.398797
-13.9673
1.770803
15.23746
1.128866
2.257144
2.79153
0.9874952
-4.202998
2.440876
1.933348
0.7019025
2.857838
-25.86388
2.079281
2.383371
-3.958169
1.499126
1.345022
-12.09802
-9.006613
-44.40273
-0.2957614
1.55686
23.98305
0.6936414
2.455069
-39.03027
-1.013645
-0.1375902
1.529727
2.608503
2.338651
2.293519
-8.171642
-6.492382
2.216162
1.644408
1.309025
2.385055
1.365461
21.38149
3.861507
-17.9944
6.601196
-6.377502
2.039722
-74.01209
2.24158
1.272404
3.247563
2.70633
2.927885
-48.17551
-21.5284
-10.81553
0.2445928
-1.152927
1.527427
1.476207
-19.84049
2.538159
2.721965
-30.27313
-30.05302
0.3449398
-76.02548
2.114301
-4.010652
1.234092
-6.63342
10.84544
1.740131
-0.02662959
2.701609
-1.939246
1.235121
17.4734
-0.1286546
-7.455382
1.811714
2.049041
1.320866
3.189071
2.868727
1.432747
-0.8503668
-6.31941
1.165442
0.475697
-3.992723
2.429331
1.894345
-3.72022
-1.629286
1.227352
1.308479
-10.78099
0.1866757
2.942173
-65.80355
28.08325
-8.266697
2.550809
2.819282
-23.70731
1.048031
1.01728
-1.16058
-1.943084
1.605056
2.221872
1.08722
-32.7356
1.365293
21.85637
35.03517
3.05658
-13.91856
-0.915818
2.148103
2.544577
0.5630353
33.77218
-27.80623
1.450385
0.7840761
1.239966
-1.324911
2.254096
-9.033566
2.869112
2.509583
0.8775741
2.627871
2.302404
1.800516
-14.14068
-19.20206
-8.849222
-0.2755812
0.7380247
-70.99631
29.33521
-18.02455
1.8361
-10.77048
-4.751817
1.622675
1.927173
33.09914
-2.168491
-10.701
-3.765799
0.1833962
1.085471
-29.76133
2.621714
1.738811
1.86327
1.439126
20.53192
3.144769
-2.689487
0.3201375
-1.118488
-4.645878
21.05
3.985713
8.996346
-83.62232
-41.15018
2.009887
1.094545
-69.9935
-8.927223
-26.93219
-1.759634
2.460364
3.210879
0.3962784
-3.268214
-11.49367
4.001908
-11.72686
-6.824877
2.049422
1.458967
-1.411709
-47.3849
-12.86994
1.662568
3.699363
0.2707788
1.13832
1.971669
2.239793
2.493313
2.062325
3.954148
-0.5527133
0.1331271
0.3986784
-57.51046
1.69732
2.050577
-6.39506
4.564856
0.9458748
1.786744
37.07478
0.2052041
2.154097
1.003572
1.209462
-14.62056
-27.38167
-41.66913
13.78888
2.778696
1.393956
2.361899
2.356628
1.12868
2.370227
2.175041
2.823812
2.093042
2.147681
2.868603
0.3650016
12.94362
9.521259
2.477732
2.880562
0.7202848
0.9159551
2.693824
-15.47077
8.297631
-43.0611
-26.70949
1.239969
2.291548
-66.54338
43.30923
-81.46513
1.725509
2.848895
4.920978
-11.63682
9.155094
-17.10685
1.930158
4.351571
1.710937
4.240987
2.249933
3.576039
1.726584
-62.26151
0.6567955
2.401579
0.9869252
2.501011
-55.0274
-48.54568
-38.20853
1.68671
15.32238
0.304463
1.234046
1.284013
2.272829
4.424828
1.529418
4.111082
31.31622
2.40012
2.417494
2.621585
26.09208
2.98079
1.712202
3.804634
-7.422602
1.400427
1.10406
-79.78657
1.860135
-46.19692
3.046891
2.160251
46.38112
-1.762733
1.195307
2.975813
4.466327
2.848118
2.519095
-21.05838
43.60189
3.889483
-1.992403
46.70935
-1.321725
0.7713048
0.7413201
-15.84395
1.141954
3.916263
-0.7670802
3.514432
-13.82787
-13.43278
2.350952
2.371441
2.291058
2.54076
16.58945
0.7711477
2.189491
2.40573
1.827469
1.783017
1.718515
1.702245
2.009771
2.049937
-1.588863
-31.92764
-73.37052
-51.11933
-34.54882
-26.98759
1.488127
-0.3673049
2.227525
1.519362
4.561362
-15.08724
-11.24537
28.18142
-16.05411
2.511365
2.428021
-0.5552027
-3.853415
-25.14829
-0.2369713
3.246521
-82.72458
3.659856
1.406948
-0.4256883
2.842793
1.291334
2.462669
1.404467
2.569171
0.4308929
2.466663
3.691226
-2.761925
1.88027
-0.5237719
0.6704478
-18.2163
-7.94363
1.055144
2.508426
1.981175
-8.034184
-40.98072
3.236292
1.450696
0.8217261
1.086446
8.300551
16.38665
1.906286
0.7314925
3.438076
12.86766
-53.93642
-33.76012
1.151566
-12.74954
-4.180059
-8.271539
9.773151
0.3075275
-5.938413
0.5711006
-15.14095
-13.00709
2.11332
-17.0211
-4.406647
-0.1905124
29.21483
1.390203
-11.08583
1.262271
0.7962964
0.7097729
-52.0454
1.672485
2.161303
-14.58196
2.721655
-3.591129
-8.96723
-0.06494119
3.925857
7.630747
0.8882735
-85.11344
0.7192455
38.84938
2.292061
7.830756
0.4645047
-6.08582
1.539214
1.537976
0.7869592
19.30544
1.575542
1.676727
3.221858
0.7135951
-14.50454
0.2645327
-6.312448
-23.88586
-0.1355396
-2.122584