/*--------------------------------*- C++ -*----------------------------------*\
| =========                 |                                                 |
| \\      /  F ield         | OpenFOAM: The Open Source CFD Toolbox           |
|  \\    /   O peration     | Version:  2406                                  |
|   \\  /    A nd           | Website:  www.openfoam.com                      |
|    \\/     M anipulation  |                                                 |
\*---------------------------------------------------------------------------*/
FoamFile
{
    version     2.0;
    format      ascii;
    arch        "LSB;label=32;scalar=64";
    class       volScalarField;
    location    "1.2";
    object      p;
}
// * * * * * * * * * * * * * * * * * * * * * * * * * * * * * * * * * * * * * //

dimensions      [0 2 -2 0 0 0 0];

internalField   nonuniform List<scalar> 
15536
(
-76.73934
-80.85313
-80.25743
-76.43839
-73.48208
-69.92141
-63.11533
-55.04061
-46.73096
-37.68392
-27.67038
-19.10735
-11.67251
-5.653803
-1.308816
1.222462
2.640192
3.200976
3.426006
4.095873
6.566683
10.51523
14.97957
17.47439
18.93787
18.37017
12.87387
3.238948
-13.26337
-45.23907
-88.34542
-95.87542
-51.01321
-0.7577251
-9.339033
-33.15743
-61.59867
-81.23813
-76.60998
-62.46521
-61.62299
-66.765
-72.13035
-75.81312
-77.97
-78.74354
-78.43564
-77.05916
-75.06557
-72.6303
-69.46717
-65.67056
-61.23046
-56.37667
-51.06676
-45.36942
-39.59505
-33.68492
-27.42383
-20.98049
-14.62241
-8.373261
-2.140927
4.02247
9.985165
15.8229
21.37906
26.63333
31.4811
35.91671
39.90175
43.43436
46.48229
48.97382
50.85888
52.23752
52.98148
53.13861
52.75143
51.87587
50.26421
47.99859
45.14753
41.71484
37.72578
33.19709
28.19709
22.63719
16.68547
10.37915
3.566683
-3.553675
-10.92673
-18.74739
-26.71713
-34.62947
-42.72471
-50.98584
-59.2112
-67.50015
-75.68126
-83.55934
-91.09412
-98.38522
-105.5666
-112.3113
-118.5982
-124.3843
-129.6943
-134.611
-138.8269
-142.2682
-145.0031
-147.0261
-148.2209
-148.3252
-147.1569
-144.3829
-140.2726
-136.6495
-137.2991
-133.7429
-116.437
-124.5474
-176.5741
-187.2272
-145.3587
-103.7013
-85.48408
-79.73597
-71.40977
-54.91239
-34.2769
-28.24831
-48.57012
-78.98008
-105.8485
-116.6472
-111.4823
-93.52185
-70.1989
-53.04333
-43.48218
-39.13446
-37.97626
-41.9972
-47.38095
-47.65382
-46.58135
-47.97081
-51.58806
-56.93609
-61.9368
-65.36318
-67.69111
-69.45556
-71.92891
-76.71562
-80.84331
-80.24584
-76.39846
-73.3955
-69.77539
-62.81994
-54.58705
-46.14098
-37.15688
-27.25349
-18.80933
-11.48158
-5.548414
-1.262007
1.229177
2.629256
3.1873
3.415025
4.087359
6.557392
10.50204
15.0034
17.5392
18.96127
18.33082
12.82438
3.246168
-13.17863
-45.10222
-88.24859
-96.0894
-51.1717
-0.6834577
-9.566053
-33.34612
-61.75139
-81.27775
-76.49717
-62.44223
-61.53266
-66.366
-71.42299
-74.83993
-76.82781
-77.52704
-77.19135
-75.80128
-73.80271
-71.38258
-68.2436
-64.47981
-60.07624
-55.26649
-50.00816
-44.3654
-38.64664
-32.79702
-26.60212
-20.2219
-13.92768
-7.743314
-1.572232
4.527865
10.42932
16.20601
21.703
26.90307
31.7012
36.09031
40.03398
43.53037
46.54683
49.01424
50.87935
52.24413
52.98061
53.13536
52.74949
51.87835
50.27762
48.03174
45.20633
41.80484
37.85272
33.36705
28.41482
22.9084
17.01711
10.77086
4.024118
-3.022693
-10.32464
-18.07586
-25.96596
-33.79965
-41.81791
-49.9981
-58.14306
-66.35286
-74.45649
-82.25755
-89.71932
-96.94616
-104.0673
-110.7521
-116.9877
-122.7255
-127.9951
-132.881
-137.0696
-140.4972
-143.2392
-145.2808
-146.5149
-146.6903
-145.6772
-143.2067
-139.4695
-136.2755
-137.2203
-133.6915
-116.3861
-124.4128
-176.538
-187.272
-145.3064
-103.5675
-85.36157
-79.71461
-71.48897
-55.03166
-34.41039
-28.08615
-48.60687
-78.9714
-105.7895
-116.4087
-111.2595
-93.45893
-70.21723
-53.04823
-43.47299
-39.11864
-37.95312
-41.97445
-47.32719
-47.57105
-46.52019
-47.96951
-51.59829
-56.91266
-61.84345
-65.19756
-67.51999
-69.3308
-71.86064
-76.70434
-80.87579
-80.25359
-76.3271
-73.07751
-69.22601
-62.3531
-54.22176
-45.81645
-36.88239
-27.00171
-18.62368
-11.36687
-5.492863
-1.24461
1.212738
2.597626
3.156194
3.392654
4.073192
6.510254
10.41897
14.9917
17.58831
18.97207
18.23169
12.72907
3.24286
-13.10478
-45.18198
-88.75792
-97.34597
-52.3593
-0.3393153
-9.481017
-33.43194
-61.74293
-81.40135
-76.63414
-62.66566
-61.49677
-65.9629
-70.68949
-73.97707
-76.01224
-76.77028
-76.47135
-75.10486
-73.12101
-70.72476
-67.59601
-63.85238
-59.46862
-54.6868
-49.46222
-43.83224
-38.13819
-32.3267
-26.15541
-19.80292
-13.53835
-7.390749
-1.255146
4.819083
10.68334
16.43323
21.89848
27.06948
31.83993
36.20308
40.12102
43.59424
46.58972
49.04209
50.89012
52.24432
52.97447
53.12674
52.74271
51.87619
50.28341
48.05312
45.24545
41.86476
37.93709
33.47781
28.55577
23.07547
17.21778
11.00654
4.289799
-2.719057
-9.981364
-17.69943
-25.55096
-33.33925
-41.32221
-49.46804
-57.56654
-65.75243
-73.81966
-81.58985
-89.02223
-96.20426
-103.2958
-109.9417
-116.1517
-121.8622
-127.1057
-131.9759
-136.1373
-139.5362
-142.2479
-144.2604
-145.4586
-145.5867
-144.4762
-142.0119
-138.5239
-135.5659
-136.13
-132.579
-116.2288
-124.6761
-177.0518
-187.8229
-145.5355
-103.6211
-85.37296
-79.729
-71.53738
-55.13837
-34.51096
-27.87163
-49.08359
-79.49915
-106.0416
-116.5234
-111.2522
-93.55461
-70.34164
-53.103
-43.43491
-39.07477
-37.90282
-41.96966
-47.34376
-47.50531
-46.49426
-48.04192
-51.73463
-57.01199
-61.79457
-65.12924
-67.40899
-69.23763
-71.79515
-76.63851
-80.85662
-80.16625
-76.15822
-72.62542
-68.53363
-61.74627
-53.63765
-45.20563
-36.44414
-26.63124
-18.38037
-11.23504
-5.445955
-1.247276
1.164944
2.52758
3.086988
3.341654
4.031978
6.420245
10.27144
14.95654
17.68555
19.06522
18.13822
12.63863
3.271253
-13.03727
-45.50539
-89.75555
-99.43688
-54.55779
-0.1377937
-8.938307
-33.12037
-60.77856
-79.7472
-75.62571
-62.83607
-61.46523
-65.3712
-69.65392
-72.67024
-74.53359
-75.14545
-74.83204
-73.4704
-71.50136
-69.14547
-66.07351
-62.39785
-58.08139
-53.36711
-48.21854
-42.66835
-37.04705
-31.31735
-25.23996
-18.96104
-12.7707
-6.70343
-0.6479846
5.356067
11.14364
16.82816
22.22787
27.34342
32.05884
36.37097
40.24453
43.68021
46.6427
49.07299
50.89669
52.2377
52.96042
53.11009
52.72877
51.86709
50.28193
48.07386
45.29152
41.94172
38.05279
33.63909
28.77159
23.3421
17.55333
11.40964
4.759013
-2.162219
-9.343874
-16.99052
-24.73931
-32.43214
-40.32975
-48.37341
-56.37165
-64.46176
-72.4305
-80.09276
-87.41861
-94.51983
-101.5276
-108.0763
-114.207
-119.8313
-125.0083
-129.8213
-133.9359
-137.2888
-139.964
-141.9789
-143.2063
-143.4021
-142.5343
-140.3115
-137.1924
-134.4537
-134.3558
-131.0119
-116.5247
-126.0654
-177.5854
-188.263
-145.8732
-103.7295
-85.40416
-79.57936
-71.33722
-54.97097
-34.30696
-27.46166
-50.15935
-80.58155
-106.5432
-116.6782
-111.4169
-93.83864
-70.58931
-53.20843
-43.37137
-39.00244
-37.82007
-41.98334
-47.40534
-47.45182
-46.54074
-48.25062
-52.063
-57.17524
-61.71027
-64.85093
-67.17136
-69.07191
-71.66963
-76.34423
-80.47587
-79.68325
-75.83725
-72.17777
-67.85601
-61.14331
-53.1692
-44.65022
-36.07026
-26.28155
-18.17177
-11.13627
-5.441471
-1.289745
1.068239
2.395558
2.955555
3.225898
3.915811
6.242898
10.06495
14.93666
17.90004
19.3076
18.12688
12.61802
3.358961
-13.04631
-46.17901
-91.37971
-102.229
-57.41116
-0.9298932
-8.569581
-32.58323
-58.35285
-75.37532
-72.69813
-62.53291
-61.33925
-64.71345
-68.65157
-71.46571
-73.33194
-74.03663
-73.74989
-72.39108
-70.3705
-68.05243
-64.95961
-61.30328
-56.98705
-52.30874
-47.21499
-41.68228
-36.10193
-30.44672
-24.42608
-18.19012
-12.05625
-6.064166
-0.07554064
5.879155
11.5922
17.22455
22.56303
27.62328
32.27996
36.54469
40.37295
43.76868
46.69063
49.09618
50.89267
52.21811
52.93336
53.08055
52.70298
51.84413
50.26348
48.08704
45.33823
42.02314
38.17528
33.80662
28.99514
23.61359
17.89951
11.81689
5.215761
-1.611874
-8.714847
-16.32263
-23.98265
-31.58273
-39.42099
-47.39564
-55.29834
-63.33966
-71.24673
-78.84327
-86.11055
-93.14794
-100.1242
-106.612
-112.719
-118.3047
-123.4505
-128.2876
-132.3476
-135.7027
-138.4133
-140.4273
-141.6502
-141.8143
-140.8186
-138.6561
-135.7752
-133.1889
-132.5468
-129.7118
-118.0135
-128.1516
-177.1088
-187.6184
-145.6572
-103.8291
-85.54857
-79.24517
-70.63705
-54.28176
-33.6548
-27.03294
-51.7764
-82.1182
-107.3979
-117.2755
-111.862
-94.36517
-70.9862
-53.35633
-43.26677
-38.88569
-37.69585
-42.02556
-47.55346
-47.47079
-46.71498
-48.70242
-52.56225
-57.39315
-61.65988
-64.71935
-66.90918
-68.84973
-71.41834
-75.5565
-79.28108
-78.47498
-75.30951
-71.7103
-67.12418
-60.45331
-52.59828
-43.99278
-35.7183
-25.93046
-17.98328
-11.08547
-5.515385
-1.393461
0.9006855
2.179431
2.735969
3.014079
3.679599
5.92273
9.804348
14.91304
18.27678
19.7364
18.26213
12.71363
3.550421
-13.18888
-47.07138
-93.42399
-105.3952
-60.60236
-4.033387
-9.503822
-32.54891
-55.70803
-70.64356
-69.17589
-61.75663
-60.89857
-63.74854
-67.26707
-69.71889
-71.42809
-71.87203
-71.59718
-70.2738
-68.30591
-66.11379
-63.1112
-59.56612
-55.33071
-50.73256
-45.73577
-40.27485
-34.79355
-29.25722
-23.32271
-17.16524
-11.13398
-5.239284
0.655523
6.539135
12.14541
17.71064
22.96291
27.93857
32.53013
36.74669
40.51802
43.86313
46.72972
49.11359
50.87498
52.17689
52.88576
53.02986
52.65667
51.79941
50.22458
48.08421
45.38184
42.11223
38.31435
34.00073
29.25062
23.91863
18.31428
12.3182
5.757457
-0.9565506
-7.915625
-15.46534
-23.0191
-30.47476
-38.20362
-46.08465
-53.85742
-61.78879
-69.58161
-77.05873
-84.18993
-91.11605
-98.01412
-104.3586
-110.3751
-115.8364
-120.8841
-125.6317
-129.5999
-132.8472
-135.3704
-137.3974
-138.6534
-138.9315
-138.23
-136.3129
-133.8171
-131.5394
-130.6057
-128.3732
-119.8871
-129.5035
-172.8738
-182.0676
-143.1634
-103.5876
-85.78163
-78.65557
-69.40026
-53.039
-32.72236
-27.24365
-53.82998
-84.10107
-108.6862
-118.3244
-112.7083
-95.19088
-71.69185
-53.48259
-43.10069
-38.69913
-37.49274
-42.00688
-47.70014
-47.56237
-47.13244
-49.41745
-53.17673
-57.63917
-61.5923
-64.43609
-66.55166
-68.52296
-70.91199
-74.17114
-77.27757
-76.56216
-74.59821
-71.16098
-66.31835
-59.71949
-52.13874
-43.30057
-35.40562
-25.62079
-17.70619
-11.11068
-5.698151
-1.584105
0.6368876
1.853599
2.389318
2.652426
3.279533
5.422436
9.404911
14.91553
18.83979
20.38216
18.56155
12.93723
3.815952
-13.07155
-47.54334
-95.40269
-108.0016
-64.35859
-9.56079
-12.18033
-32.87827
-53.12071
-66.22265
-65.88143
-60.77261
-60.26845
-62.72085
-65.9333
-68.0444
-69.73458
-70.30901
-70.03213
-68.61083
-66.4899
-64.37168
-61.32388
-57.86259
-53.63748
-49.0519
-44.16872
-38.81484
-33.39234
-27.91463
-22.10779
-16.07336
-10.11842
-4.269395
1.458833
7.276223
12.75278
18.25285
23.38626
28.2764
32.85854
36.97417
40.65922
43.93512
46.74656
49.15103
50.83865
52.1119
52.81097
52.94738
52.57989
51.74559
50.19112
48.03939
45.37083
42.1629
38.43372
34.21577
29.54762
24.24031
18.75398
12.90012
6.426616
-0.2426593
-7.087357
-14.46312
-21.92722
-29.28049
-36.87376
-44.57007
-52.2994
-60.14533
-67.75575
-75.15944
-82.13764
-88.96241
-95.82812
-102.0336
-108.0247
-113.3689
-118.3974
-123.2034
-127.0816
-130.3573
-133.1143
-135.1563
-136.4092
-136.5916
-135.8492
-134.0114
-131.8019
-129.751
-128.5857
-126.7284
-121.001
-129.0143
-163.6353
-169.7277
-137.7756
-102.7768
-86.09652
-77.96969
-67.98743
-51.9419
-32.3701
-28.72119
-56.71822
-86.54175
-110.521
-120.0815
-114.0952
-96.37386
-72.82506
-53.395
-42.70716
-38.38694
-37.07038
-41.62465
-47.35271
-47.67494
-47.82327
-50.30259
-53.88383
-57.9746
-61.60848
-64.19901
-66.09739
-68.08399
-70.0992
-72.24875
-74.93602
-74.31492
-73.85628
-70.55277
-65.49322
-59.04833
-52.0258
-42.48756
-35.34693
-25.43213
-17.48265
-11.3251
-5.92219
-1.893315
0.2538529
1.388082
1.862287
2.062975
2.652251
4.70523
8.803727
14.90401
19.52622
21.06149
19.07141
13.24149
4.313062
-12.6519
-46.86019
-95.83906
-108.2029
-67.5779
-16.59275
-16.33222
-33.36256
-50.47192
-61.93486
-62.57878
-59.47714
-59.22858
-61.20623
-64.15383
-65.65956
-67.25992
-67.42449
-67.27925
-66.11897
-63.88479
-61.93347
-59.01177
-55.71253
-51.46062
-46.94326
-42.38938
-37.18646
-31.54567
-26.23353
-20.79494
-14.91494
-8.803701
-3.072
2.277159
8.120251
13.39059
18.86641
23.77329
28.73545
33.31778
37.19303
40.76709
43.94912
46.7362
49.17518
50.73996
52.03044
52.70428
52.82865
52.47724
51.6948
50.13017
47.95389
45.26774
42.13707
38.49117
34.39449
29.92862
24.60523
19.20112
13.52018
7.393198
0.7753458
-6.34179
-13.38665
-20.4692
-27.97666
-35.49037
-42.69145
-50.26172
-58.42704
-65.53047
-72.94203
-79.72496
-86.34734
-93.2077
-99.12305
-105.1564
-110.2036
-115.0678
-119.9239
-123.6088
-126.7634
-129.1631
-131.1352
-132.4784
-132.8121
-132.3247
-130.729
-129.0528
-127.3619
-126.188
-124.6596
-120.9826
-127.0761
-152.8038
-156.4904
-130.7304
-100.9954
-86.14916
-77.20798
-66.7488
-51.53327
-33.76871
-32.06284
-60.73569
-89.41384
-112.9828
-122.8095
-116.1666
-98.29562
-73.41
-52.93813
-41.80952
-37.75131
-36.28264
-40.51725
-46.04432
-47.51211
-48.67422
-51.306
-54.69178
-58.42632
-61.70173
-63.97677
-65.47581
-67.57311
-69.04985
1.257176
0.6125787
-21.17575
-18.76726
14.27571
-16.8251
-4.080463
1.094434
15.09055
-2.986002
-2.148835
2.960366
-1.489566
-0.8382463
-0.5121819
4.512327
-0.5470988
-4.984362
0.6444077
1.106995
-49.42853
-0.1114905
3.634337
-3.243126
-1.566036
1.055494
4.695655
-2.59718
-9.718224
-0.427058
1.126793
-4.886081
-0.2613723
-0.2868621
0.2194629
-7.134431
-0.01581794
-0.1013906
0.03688646
-8.552897
-27.67899
2.277833
0.3569874
2.778917
37.11647
-1.138754
0.00954882
-1.502911
-2.041665
-2.568581
-0.06048692
-0.0225346
-13.58629
0.3419108
0.04580792
27.06986
-8.899181
0.1447217
-17.23921
-25.93596
-2.519656
0.0006784447
-0.6249327
1.305697
-1.145917
1.418909
-16.66784
-0.05163244
-0.417317
-0.1741499
-1.432437
0.00949562
-29.17508
-76.36804
22.85272
-0.2133929
4.659511
-4.422952
-0.1062042
0.4589922
-26.10742
0.07133601
4.378455
0.1097932
-15.32835
1.361047
-0.1235164
1.623945
-19.85606
0.005400009
-22.14246
21.5233
-0.1136592
0.08954418
-1.56161
3.410242
-1.459587
5.923002
-21.07283
-1.840543
0.7129709
1.404062
0.2133122
-104.5975
-0.01115068
-6.637623
0.002088316
-0.9986786
1.009989
-4.344862
2.522738
-0.391749
-0.7150848
7.916724
-10.2405
0.0001674883
0.0408726
-0.2599342
19.10404
-0.9149938
0.9750168
0.3210901
-1.434793
-0.0638815
-0.07029901
2.096636
-0.5092374
-3.392693
-6.21688
0.8311778
0.1615169
-0.06057588
0.3053085
0.1878713
-1.318692
-42.4669
0.1252679
11.12033
0.9251509
0.0598268
-11.71047
-0.1097846
-78.94829
0.7915225
-0.01737864
-0.1489835
0.5081525
-51.04073
-0.1463432
-1.281844
-0.5616929
-7.835036
-67.12263
-0.1968566
-13.54483
-26.68725
-0.4005487
0.1560573
0.3614885
-47.47637
0.4119229
-47.18235
-6.879603
1.712001
2.40398
-14.76284
-28.64274
2.071797
-17.5589
-0.04455095
-2.963563
-13.08589
1.028601
-10.37402
-9.442001
1.090805
3.899664
-1.734452
-32.95223
-0.06096131
18.007
3.253314
-0.2785783
-0.7949936
2.745208
-56.91782
-0.9315383
-0.2350423
-17.75365
1.244102
-0.8884596
1.162215
-13.38969
-3.6983
-0.003555341
-0.3038826
-0.176532
-0.3714894
-8.568298
-42.60309
1.243305
-0.2213504
1.050549
-24.14423
-26.37849
-4.499076
-10.59827
-0.2718741
-12.679
-0.01803737
1.201801
0.04284905
-20.81762
4.237012
0.1724187
1.43968
-15.63744
1.322372
1.555782
0.5886408
1.739325
-10.6244
4.115986
-0.2297823
-5.013206
-1.735044
-0.7037071
8.578852
0.06807738
22.26217
-4.287103
-12.39909
6.700459
-0.02574877
-104.7759
-0.6414926
30.66923
-0.3818645
2.679264
-0.6380126
-0.02362139
1.26232
-0.03570153
-3.778351
1.279773
-14.31875
-0.6790022
-25.70854
0.06507282
-0.2322474
-43.28688
0.6979518
2.365801
1.221825
3.893376
-36.07295
0.7935287
0.1716337
-62.46178
-6.738316
3.335979
0.05791914
-1.951457
-0.0159862
-1.275895
3.628055
0.1665076
-0.1309087
-13.53668
-33.7106
0.1626088
0.3552282
14.01844
-1.79347
-0.00618285
4.555165
2.772768
-9.125568
-58.26215
-0.8457099
-0.6784987
0.5881685
-0.1771861
1.323559
1.784712
0.6367635
35.27615
-0.8666742
3.121416
-0.09323342
4.048359
-0.02787779
-1.319166
-0.814895
-23.60061
0.01577909
-12.86124
-0.007260901
2.770959
-0.7708432
-53.72585
-0.2459647
4.821676e-05
24.13182
-1.1405
-0.04022581
-0.1035556
-0.6927377
-0.9793066
-0.3291605
-12.15254
3.474563
-0.2437342
-3.560349
-1.127591
-17.04528
36.05503
-75.00997
-38.04194
-46.17542
-1.630996
-0.0361367
2.824354
-0.03777971
0.009470103
-0.003643728
-0.3622005
-0.004231554
-0.8198388
-3.100287
18.50587
0.00284595
-11.04603
-74.69279
-0.4927603
3.28497
-0.3208406
-0.02288033
-7.14611
0.07997186
-28.63896
-3.175886
0.2157215
0.01967968
-18.007
4.257578
-6.584056
-0.9780614
-15.2134
0.01174342
0.06148735
-0.04832481
15.67451
0.2858414
-2.036646
-56.11912
-63.52991
-0.04424308
0.9948995
1.76078
-1.107975
-1.236446
-0.05307728
3.079681
1.164372
3.290696
3.178675
0.6828844
1.177338
2.482244
-5.152252
15.07671
-48.07126
-0.6712049
3.161123
0.926982
0.2621426
1.432089
2.180591
2.589762
1.575719
2.741219
-0.02027011
-3.1049
-0.006877059
-1.574504
-1.88261
37.27496
2.823172
-0.08120223
-0.1316087
-0.6074264
2.147176
-13.04389
-0.01560108
-2.028855
0.482027
0.7647198
1.544227
-0.7817445
2.987691
1.016231
-37.77373
-0.01972538
-0.07244138
-0.4376382
-21.45827
-60.17145
3.688233
2.282031
0.4377388
0.3493803
-0.06423416
1.583637
2.992755
-1.728029
1.454948
-9.195994
0.2521899
-9.679818
-0.3546316
-0.1930394
6.066774
-0.2740792
-1.023164
-34.61081
0.1814113
2.761311
-49.14342
-0.3847309
-51.27429
0.03060563
0.07419782
0.5506643
1.397563
2.746943
-0.1084759
-8.544211
-0.21471
1.264014
-0.1286769
-0.07991993
0.8831512
-0.6693715
-7.066923
1.182545
0.004250195
-0.0138001
0.03330799
-1.077626
0.7964604
-50.1517
1.910834
-0.3457394
-0.444546
-0.05615805
-0.00514747
6.090852
0.8766116
-25.86051
0.7783592
-23.43873
1.891233
-0.4193457
3.427771
-0.1973873
25.85041
-0.6901691
5.72227
-3.059626
-14.61987
-2.45587
1.126686
9.242798
-0.06141482
0.7865852
-2.08341
-18.41654
-0.03621136
-0.7456796
-12.40648
-9.401684
1.543588
-0.883523
-5.195508
-0.4967628
-0.005435447
18.30949
0.01487845
3.293974
-0.2230791
-31.26732
0.5881277
-0.01193871
-25.63479
1.214525
0.5233209
4.507617
-0.5288375
4.637961
0.765694
-0.9936387
0.05298838
-7.44679
2.481977
0.9671683
1.213529
-40.89747
-1.669423
-0.1071564
-33.01151
8.204657
20.52394
-3.646676
2.239005
1.501122
3.415471
-0.2069326
-0.03294901
0.6680909
1.222921
-0.4923809
-8.347862
-0.0634939
-1.650224
-1.65533
-0.2293975
2.878293
0.1459338
0.1063624
-33.5726
4.050523
-34.94133
0.1158088
5.11737
4.984588
3.972867
0.08077054
1.316226
0.3518654
4.811395
1.285442
-0.2532704
2.024431
-24.29378
3.741065
4.180079
-0.07434427
-0.00459116
8.018694
1.522879
3.75996
-0.1606956
-5.607587
3.990604
-0.06019142
2.668356
-53.16471
17.55588
3.220777
0.06426618
-0.01684833
0.3468304
0.3594328
0.1039677
0.6089058
1.951663
13.43699
35.09347
-0.06880462
1.142709
9.441671
-1.160829
-72.97839
0.2418581
3.878921
-2.037326
4.407013
-0.4670105
-0.1546861
1.456662
-0.2080857
7.20506
-0.01912878
-3.736152
-28.97691
1.312965
0.1859997
-96.33775
-6.308514
-2.137263
5.677384
1.458573
0.01282037
0.8310838
0.1165408
1.196643
-30.18861
0.2826772
1.125456
1.114491
-2.45444
0.02825014
-0.1254934
1.640898
-3.748268
-2.039688
-0.9816045
-8.792736
-2.438476
4.99405
-0.1990144
2.505986
0.4084336
10.43264
-12.3474
-1.369072
4.709298
5.47533
5.813383
-0.4814802
-0.1102226
1.188318
0.03391522
-2.097628
19.4586
3.070933
-0.8341497
-0.2867659
-4.157097
-5.785429
5.166375
-19.56762
-36.41505
-59.30603
-12.15147
-14.08138
1.108473
-1.606983
0.8137921
1.089967
-0.0249581
0.2334312
-23.87378
-0.2131197
0.2270556
-1.018527
-75.49652
-0.6892517
27.28717
5.727286
-18.61196
-0.03242791
-36.00683
7.895507
-4.761378
-0.1842106
0.2557495
2.927611
7.670515
1.745775
3.167724
-0.1164852
-0.05717771
-0.1319697
0.07807705
-18.22866
4.634079
0.4847895
0.2418552
0.6121751
0.2632043
-104.598
-0.5530516
0.5171215
9.669167
-20.63818
-0.02627363
-0.6555334
4.283792
14.52533
7.690033
2.684705
-3.805009
0.7232466
-0.03478985
-0.4246837
-4.684714
3.665459
1.605452
-9.882163
0.003076495
-65.99389
-0.1085315
-0.3800823
-1.650093
-59.04136
1.894325
1.545884
2.045783
-1.673955
-15.08051
7.521987
-0.567373
4.356232
3.583631
3.443445
1.10985
-8.739382
-15.96864
0.6068008
0.02339234
1.604141
0.3297347
2.794238
-0.9405516
2.749419
-62.31234
-0.3233261
0.04483386
-13.6008
0.1326886
-0.9912207
0.9584599
-0.2262852
0.5415037
-0.9360265
-33.17558
0.8315799
0.838822
2.369009
1.723668
1.310194
-0.8770801
-0.3142832
0.6383425
-1.123955
6.030933
-6.226709
2.43275
-0.02764765
0.089854
0.2832438
-0.8187008
1.416632
-0.1981102
-61.96456
3.904877
4.922115
12.74495
-0.02778638
-0.1314374
-10.9997
-4.35319
0.02022263
-19.38078
-1.501632
-2.411755
-5.987425
-8.690744
-6.762363
0.5085686
3.385216
12.82146
1.040834
2.759189
-31.58613
-5.677011
1.162123
1.088169
-14.36619
25.19168
-9.14779
0.08192074
3.672885
2.597537
-0.3763026
0.06998622
-5.622578
1.161025
3.353855
-2.725382
0.4585315
5.588569
3.239421
2.11148
0.1807495
-0.07982841
2.021927
-0.9748763
-1.901557
-49.38626
32.51723
-0.08061993
0.1582454
-0.2248947
-0.8553761
0.06607619
-0.2587465
-71.83096
-0.7659369
-84.15112
-3.247556
-1.322094
-0.06153568
0.2189631
3.471806
0.1453599
0.1303533
0.3177647
0.481052
2.35807
-32.50622
1.19015
-2.366037
2.67309
-0.2965899
-2.111206
3.84517
-17.49385
-5.535945
18.95367
0.5142014
-0.9305182
-1.115555
-1.191971
2.018866
1.388484
-0.04616693
1.232273
-16.07072
-1.205966
9.120535
-50.51119
-0.4716416
-0.004923287
-2.766534
-1.084215
-0.8250891
1.55029
-0.9542502
2.034897
-0.3497064
5.059226
3.304805
4.646999
4.797415
-1.420002
-0.04560897
29.91363
-0.6869546
-4.114431
-0.01900061
-35.25247
3.74745
0.8360166
0.4821216
0.9395403
32.61868
-1.205641
-0.6782039
-21.60167
-0.7784677
-0.03675007
0.9474307
0.7096319
0.7193362
-5.429614
-20.87596
0.4913939
0.7791702
-7.968058
0.05066866
0.02414458
0.3329219
-16.97586
6.516369
28.81589
-0.01392248
1.211789
-1.625353
-0.02700434
-0.02590882
15.07716
-3.006068
1.011217
0.05077989
-1.512137
1.54957
0.1889373
-0.08350963
-0.6350591
-17.43537
-11.74862
4.436299
-20.11793
0.08167076
2.444257
-0.1394332
11.35732
1.009377
-0.03699864
-0.2958919
7.604347
-28.27399
8.677182
-1.386265
-0.7063525
-3.623456
32.21453
-43.44829
-0.06770943
-2.305152
-63.44369
-0.06154312
0.08029112
6.709387
0.2321131
-0.571334
-3.843658
1.012332
2.189804
-0.4752971
0.01368436
0.05994417
23.82434
-5.727407
-30.68857
4.342772
-54.78076
1.286064
-1.360489
-5.984853
-0.9157106
-2.828827
-43.50442
-0.002404734
0.3000563
-1.468995
1.127166
0.05187161
21.70603
-63.94915
0.4721087
20.90481
0.03925248
0.002334305
9.363144
14.32741
-6.931932
0.06751413
-0.3507901
0.1736099
-0.05209392
0.03646522
-17.63174
-5.102529
-1.112986
1.528896
-80.3646
-99.30566
-2.799036
0.7680789
3.807991
0.09339688
1.297212
3.751772
0.6170727
0.228018
1.08915
1.201769
0.1602903
11.41154
0.744514
-21.11168
0.1914586
0.6679456
-45.3018
1.333748
-0.7803424
1.166661
-39.75761
-14.33576
-4.653363
0.2975201
-1.8574
-15.44901
38.11218
49.84026
1.230838
-1.202716
4.277538
8.286944
1.340145
0.02891255
10.4789
-44.29239
1.400356
-0.6795974
-1.946991
2.99182
-1.059983
-3.501079
-4.027837
-9.361426
-68.6412
1.515754
2.961478
-1.729831
2.141945
3.262533
-42.92676
0.2958708
0.8942063
0.3406453
2.6848
-0.3141999
-0.7648895
-11.03378
-4.172145
1.39913
1.867861
-0.1448816
1.383301
-0.0295239
1.589984
0.06643805
-46.48166
-0.1269631
-65.63404
-70.79715
-1.107561
-1.740986
-77.71878
-67.76554
3.199344
2.923802
1.798811
0.709906
3.333982
-4.629133
0.1245723
-0.8924443
-0.5233774
-1.086671
0.4255219
-3.204191
-0.5358268
-0.2249397
1.651899
0.2297649
0.177
2.552392
1.445728
0.3919709
1.165415
-2.124072
0.7311071
0.1636836
5.235116
0.01307646
3.373677
-6.88752
0.04708674
-0.01781481
-1.66395
-7.583187
-0.1122255
-0.7979671
0.03101626
-0.2248175
-38.89809
-16.7681
-0.05431594
-41.20007
24.15359
-0.287739
2.886987
-1.082698
-29.54093
0.1462632
4.221491
-61.59784
-0.04952103
-0.1833831
-39.43649
1.739217
9.584312
1.888251
-1.079454
-15.79473
-0.1104499
-43.43714
2.76834
3.844527
34.50697
-17.29557
-10.72804
0.9501989
3.553248
1.47688
9.162962
2.034185
7.813043
1.282041
-0.3748364
0.6063982
-0.2097023
-4.604287
0.9274961
-6.8124
1.060865
-65.6642
9.846285
0.7391889
22.97574
-0.5684822
28.94701
-0.03328614
2.529632
-0.1569043
-0.8411537
13.96292
-4.823277
-6.030121
-0.3382175
0.3043193
-0.8855846
-0.882446
6.517726
-1.676221
-5.034335
0.1250117
-11.60338
-0.5489173
14.52299
-7.569116
1.734546
-25.29617
-4.685163
2.184289
-60.07527
37.83392
-2.066851
-0.6449439
-49.50501
-0.490305
0.08018991
0.5585496
-1.899222
-6.51783
-101.0964
-23.03583
0.09739041
1.867048
2.129104
0.5967974
-0.1989199
3.688878
14.22222
5.43835
-0.1538245
0.23237
0.4645452
-0.04490458
-11.56223
-0.1027695
0.4549907
1.042054
-26.7269
0.001359304
-0.05084066
0.2563365
-3.268288
-4.38962
1.899851
0.05556081
2.964975
0.2020743
-0.1617792
-0.6584455
0.680378
1.616204
-73.35221
22.04171
-4.334624
0.2406405
5.099263
-3.060638
0.4382122
-0.5533353
0.07569713
-0.6666026
-0.1525664
-0.4794393
1.00471
-22.14088
-6.762826
0.1878321
-0.8649774
1.928951
-2.108975
-0.4281658
-37.46536
-10.95123
6.769669
-12.11566
0.1443796
-0.08649597
-2.000571
-0.005980088
-0.2108359
20.03002
3.196166
-0.8486173
-0.1304127
0.7012308
0.3241558
-0.06034301
2.69565
-28.83453
-0.1169995
0.0386861
-0.3326343
-40.67457
-0.3781558
-44.1859
-0.4615988
-0.3155825
-1.052669
-1.077027
4.390223
-40.71266
-51.64297
0.2159348
0.3815576
2.367523
-0.11143
4.545629
3.468237
1.220704
2.852749
-0.175466
1.072707
-58.07401
-0.4293407
-0.1117977
-0.2343538
1.405313
-2.375792
-0.2407481
-0.4882639
0.0367572
-2.495558
-0.8122369
-11.4494
6.60181
2.06668
-18.47896
-0.833508
-0.2048346
-3.028512
-10.04164
0.9946112
1.396263
0.0579132
-25.53165
-38.95502
-29.37944
-0.3285722
-65.65222
2.751923
-11.19798
-5.332716
2.033888
17.56859
-27.41853
-31.57469
-87.18189
0.1173076
0.08191406
-3.774
0.1238602
0.06778161
0.09202291
-2.527457
-0.01900588
0.1786715
-22.26875
-1.684129
-0.5334673
-20.93759
1.435117
-2.527279
0.0897967
-0.01941074
-0.6494945
-0.3861556
-24.86326
1.639592
4.329541
2.920804
-0.08952288
-39.28694
-0.09594728
-1.901543
-0.1973686
-0.2575495
-0.0002443682
-30.7701
3.371386
-4.023136
-13.13539
-0.05703281
15.05874
-70.19624
-5.330871
-1.402761
-1.357684
24.1415
-5.053888
0.7086316
1.34769
1.395447
-0.07281252
-21.21872
-40.35635
-26.37408
8.500664
6.432916
-0.1138086
-70.48411
-58.31833
-87.2323
3.055168
-1.857427
0.7037234
-3.943407
0.1478943
-0.05859784
0.3579751
-0.07441425
1.27969
1.740169
1.266797
0.3942885
-35.17019
0.4414585
3.087097
-1.498122
-7.842624
20.96633
0.0526538
-14.8874
-45.01083
-3.895949
2.995313
-9.382797
-0.6592298
-18.53579
-81.69763
-0.2519819
-23.6862
0.7598555
-32.44507
-7.873578
0.02149511
-3.194042
-14.80149
0.6196455
15.36027
0.544134
0.09786636
3.690246
-0.1745861
-0.09619389
0.1295629
-0.8887353
1.32121
-0.3499901
-56.32981
0.03170874
-0.1837598
-0.7926698
0.9509252
1.213198
-25.68241
-0.1193264
-24.33788
1.914237
3.352186
19.24159
-0.07070176
0.5571881
9.460064
1.312875
-77.18672
-2.245242
0.08769154
-0.6743506
-0.8400213
-0.2825684
-0.02728834
1.661872
-5.577892
0.183456
-0.4525615
-0.1549276
28.28163
1.516638
-4.188608
-0.1389134
-3.76177
-0.43173
-93.51422
-0.4743745
1.35148
4.801395
2.905432
-0.03873496
-67.9884
-70.20444
-70.21057
-0.002617597
-0.02556285
-61.22524
2.895259
1.485965
-0.1349642
0.3419386
-35.07774
-46.14529
0.1693732
-32.70515
-0.5904538
6.674562
0.2993745
-1.324656
9.80016
-0.8448607
1.770006
-2.596062
-0.09802057
-2.125211
13.9807
1.095048
2.904854
-0.6572431
-1.261387
0.1105276
0.2173969
-28.21044
-2.051693
-0.2053572
-14.35317
3.174288
-0.06076742
-44.86951
-1.294087
0.0006639466
-9.414737
-7.118647
1.195657
0.9828025
3.553121
0.002761844
-18.13789
-85.098
26.98254
0.8892687
0.114632
0.1535091
-41.55663
-0.1756149
3.444456
-1.636782
2.522474
-1.43513
-0.05572882
0.1430376
-19.87301
-2.049885
22.47877
39.61989
0.9684523
2.889715
2.444837
1.790723
0.4143244
-0.04422773
35.69946
-71.24554
-0.1457632
9.640057
1.148776
-15.40309
-0.3964697
-0.0877269
-1.279274
-0.5919138
2.07649
-40.94491
-0.7796706
2.910375
-0.3440688
-4.25659
-18.60053
-4.946155
0.09682455
-92.68829
25.20019
-61.92307
-0.924899
-0.6585933
1.591663
0.3262318
4.121712
33.29816
0.6472682
-0.02265636
-8.207476
1.561932
0.0430871
-17.76688
-1.791945
-0.02274613
0.5289325
0.9355552
20.42108
-0.05212772
1.430247
-1.314717
-0.006198688
-1.094624
19.36122
3.343041
4.178387
-65.70085
-14.72272
0.3389637
0.1386579
13.44371
-0.1808605
-53.59017
8.789494
0.06909423
-1.49841
2.07893
-12.92132
-21.01417
-3.117624
-1.817405
4.774443
0.02153186
0.8163936
0.7872652
-74.84339
-24.81547
-2.095446
4.69795
0.0250462
-0.1538447
2.171347
0.1885004
0.3420472
-1.87872
-98.81939
-27.49057
-4.342273
-3.596773
-119.2972
3.437222
3.31185
-15.40542
3.804036
8.667767
0.7460374
36.07873
-0.0866261
-0.7100915
1.041662
1.169768
3.475702
-10.06748
-19.49299
17.1789
0.5130838
1.067125
-0.3904875
-0.8209565
0.1323265
-0.1335758
0.2379356
0.7776997
-0.7656219
-0.7447774
0.03949924
3.102894
13.09255
7.989746
0.05240613
-0.2183812
-3.541285
-2.972485
-0.2440933
-12.39168
17.235
-56.63754
-65.60948
1.248875
-1.934768
-91.39892
44.87195
-106.6059
3.378953
0.7168853
5.67232
-1.468803
11.61481
-31.42651
0.05329875
5.149156
-1.174547
2.244278
-0.8956643
0.03808821
-1.832738
-50.37384
5.80046
0.07104597
-2.502858
-1.488681
-58.31933
7.937442
-10.65585
1.108415
17.67361
-0.690376
1.414143
1.23789
-0.7909078
-97.41897
0.6300468
3.882236
36.40396
-2.12315
-1.382189
-0.7719521
31.43922
12.57109
2.106498
3.374588
-0.0389404
0.8844942
-0.238563
-47.14859
0.2270714
-74.91355
0.8042162
-3.260268
46.15171
4.81722
-0.2402683
-0.6363123
2.671547
0.1181825
1.916198
-46.86407
41.63493
1.733525
-2.943045
47.11879
-0.09826758
-0.07643951
-0.08927439
-29.98518
0.7046045
-0.003681821
-7.348574
-1.292263
-2.811609
-68.52985
-0.6164244
-0.6519101
0.1260145
-1.130714
23.30206
3.201275
-0.7829298
-1.408174
-0.8056269
-1.137852
-1.181496
-1.171009
0.3911458
-0.3925266
2.850661
-3.41926
-57.20882
0.8402689
-8.035928
-21.80702
-2.743181
9.976452
-0.6322246