/*--------------------------------*- C++ -*----------------------------------*\
| =========                 |                                                 |
| \\      /  F ield         | OpenFOAM: The Open Source CFD Toolbox           |
|  \\    /   O peration     | Version:  2406                                  |
|   \\  /    A nd           | Website:  www.openfoam.com                      |
|    \\/     M anipulation  |                                                 |
\*---------------------------------------------------------------------------*/
FoamFile
{
    version     2.0;
    format      ascii;
    arch        "LSB;label=32;scalar=64";
    class       surfaceScalarField;
    location    "1.2";
    object      phi;
}
// * * * * * * * * * * * * * * * * * * * * * * * * * * * * * * * * * * * * * //

dimensions      [0 3 -1 0 0 0 0];

oriented        oriented;

internalField   nonuniform List<scalar> 
23794
(
-0.001981715
0.002999096
-0.00101738
-0.001757926
-0.0002237886
-0.002248968
0.0004910414
-0.002702554
0.0004535859
-0.003043589
0.0003410351
-0.004690581
0.001646992
-0.00772071
0.003030129
-0.01002692
0.002306207
-0.01021417
0.0001872503
-0.009276168
-0.0009379994
-0.00805162
-0.001224548
-0.006834469
-0.001217152
-0.005518634
-0.001315835
-0.004184538
-0.001334096
-0.002828513
-0.001356025
-0.001609425
-0.001219089
-0.0004413015
-0.001168123
0.0005400579
-0.0009813595
0.001412753
-0.0008726951
0.001553329
-0.0001405762
0.0003190228
0.001234306
-0.001400805
0.001719828
-0.00253347
0.001132665
-0.003178965
0.000645495
-0.002565501
-0.0006134635
-0.0003179281
-0.002247573
0.001917236
-0.002235164
0.003887497
-0.00197026
0.006674481
-0.002786984
0.01002907
-0.003354587
0.01054857
-0.0005195045
0.004778603
0.005769969
-0.0039947
0.008773303
-0.003990322
-4.377819e-06
0.0007101873
-0.004700509
0.004800194
-0.004090007
0.006661577
-0.001861383
0.005396244
0.001265333
0.00270507
0.002691174
-0.0006921738
0.003397244
-0.005385388
0.004693214
-0.009147321
0.003761932
-0.01120158
0.002054256
-0.01228299
0.001081415
-0.01293481
0.000651819
-0.01328593
0.0003511227
-0.01348069
0.0001947579
-0.0135762
9.550924e-05
-0.01357631
1.132064e-07
-0.01353611
-4.020804e-05
-0.0134349
-0.0001012048
-0.01328627
-0.0001486337
-0.01307687
-0.0002094016
-0.01283914
-0.0002377269
-0.01257967
-0.0002594642
-0.01226486
-0.000314812
-0.0119266
-0.0003382665
-0.01157675
-0.0003498418
-0.0111638
-0.0004129508
-0.01072596
-0.0004378442
-0.01026115
-0.0004648083
-0.009787282
-0.000473869
-0.009291253
-0.0004960293
-0.008746596
-0.0005446568
-0.00820644
-0.0005401553
-0.007625294
-0.0005811468
-0.007026692
-0.000598602
-0.006419219
-0.0006074729
-0.005801677
-0.0006175417
-0.005154633
-0.0006470438
-0.00450352
-0.0006511127
-0.003842511
-0.0006610094
-0.003165897
-0.0006766139
-0.002482627
-0.0006832698
-0.001820707
-0.0006619204
-0.001113887
-0.0007068201
-0.0004333955
-0.0006804913
0.0002117127
-0.0006451082
0.0008377352
-0.0006260225
0.001578027
-0.0007402914
0.002312602
-0.0007345756
0.003038193
-0.000725591
0.003748873
-0.0007106799
0.004440051
-0.0006911782
0.005129043
-0.000688992
0.005795097
-0.0006660533
0.006471233
-0.0006761367
0.007126622
-0.0006553884
0.007746992
-0.0006203699
0.00837095
-0.0006239581
0.00898228
-0.0006113304
0.009571886
-0.0005896055
0.01015959
-0.0005877064
0.01073397
-0.0005743766
0.01125399
-0.0005200187
0.01177183
-0.0005178436
0.01227602
-0.0005041907
0.01273927
-0.0004632465
0.01320581
-0.0004665378
0.01362037
-0.0004145619
0.01400903
-0.00038866
0.01436007
-0.000351047
0.01466986
-0.0003097815
0.01497809
-0.0003082343
0.01525126
-0.0002731673
0.01548753
-0.0002362691
0.01568406
-0.0001965331
0.01584162
-0.000157558
0.01597402
-0.0001324049
0.01604616
-7.213521e-05
0.01610793
-6.176981e-05
0.01610768
2.481383e-07
0.01594858
0.0001591032
0.01566258
0.0002859965
0.01525918
0.0004034052
0.014681
0.0005781748
0.01374248
0.0009385184
0.01205111
0.001691376
0.008832221
0.003218885
0.003898655
0.004933566
5.201442e-06
0.003893453
0.0005116845
-0.000506483
0.001518453
-0.001006768
-0.001968567
0.003487019
-0.008580019
0.006611452
-0.0104129
0.001832882
-0.007681702
-0.002731198
-0.005101985
-0.002579717
-0.003961947
-0.001140038
-0.003503495
-0.0004584521
-0.002393907
-0.001109588
0.0005780206
-0.002971927
0.004222599
-0.003644578
0.004478417
-0.0002558183
0.0001148068
0.00436361
-0.004292117
0.004406924
-0.007152
0.002859883
-0.007731621
0.0005796203
-0.006804465
-0.0009271559
-0.005126415
-0.00167805
-0.002530089
-0.002596326
-0.0006494482
-0.001880641
0.0004325893
-0.001082038
0.001382239
-0.0009496492
0.002884643
-0.001502405
0.003886157
-0.001001514
0.003371785
0.0005143729
0.002605674
0.0007661108
0.002441872
0.0001638019
0.001537201
0.0009046708
-0.0009043682
0.002441569
-0.003536336
0.002631968
-0.00494134
0.001405005
-0.005303894
0.0003625535
-0.004986858
-0.000317036
-0.004180357
-0.0008065006
-0.001181262
-0.003465284
0.00468925
-0.002241346
-0.003161541
-0.0005275312
-0.004122982
0.001452482
-0.006482138
0.002812742
-0.00995745
0.003816347
-0.01331924
0.005008779
-0.01498072
0.004691615
-0.01444803
0.001773512
-0.01293463
-0.001326148
-0.01170015
-0.002172477
-0.01023331
-0.002691396
-0.008646482
-0.002803976
-0.006992406
-0.002969911
-0.005318033
-0.003008469
-0.003618743
-0.003055315
-0.002070247
-0.002767585
-0.0005963312
-0.002642039
0.0006042959
-0.002181987
0.001340051
-0.00160845
0.001417713
-0.0002182389
0.0002268011
0.002425219
-0.001874209
0.003820838
-0.003695708
0.002954163
-0.004541581
0.001491368
-0.003191624
-0.00196342
-0.0003490622
-0.005090135
0.001937338
-0.004521565
0.00399943
-0.004032352
0.007065317
-0.005852872
0.01076815
-0.007057415
0.01272738
-0.00247874
0.008952466
0.009544884
-0.001714649
0.01944042
-0.005013548
0.003294522
-0.001700493
-0.008013565
-7.75002e-05
-0.005713
0.00251775
-0.004456633
0.003485823
0.0002972612
-0.001774157
0.007951153
-0.01071452
0.01233761
-0.01664056
0.01061925
-0.01893512
0.006056501
-0.01954134
0.002660475
-0.0197059
0.001245976
-0.01973283
0.0006787433
-0.01961886
0.0002371506
-0.01946956
4.545993e-05
-0.01930929
-6.47616e-05
-0.01911411
-0.0001950636
-0.01890242
-0.0002519
-0.01862482
-0.0003788037
-0.01830199
-0.000471464
-0.01791425
-0.0005971422
-0.01749737
-0.0006546073
-0.01706416
-0.0006926741
-0.01657155
-0.0008074248
-0.01605129
-0.0008585243
-0.01552295
-0.0008781789
-0.01492246
-0.001013437
-0.01429805
-0.001062255
-0.01364256
-0.001120299
-0.01297645
-0.001139984
-0.01228961
-0.001182871
-0.01154557
-0.001288692
-0.0108086
-0.001277131
-0.01002846
-0.00136128
-0.009225993
-0.001401072
-0.008416477
-0.001416988
-0.007599145
-0.001434874
-0.006745822
-0.001500367
-0.005887021
-0.001509914
-0.00501886
-0.00152917
-0.004133575
-0.001561899
-0.003243328
-0.001573518
-0.00237463
-0.001530618
-0.001459735
-0.001621715
-0.0005740969
-0.00156613
0.0002716503
-0.001490855
0.00109601
-0.001450382
0.002047657
-0.001691939
0.002997763
-0.001684681
0.003938413
-0.001666241
0.004860735
-0.001633002
0.005763583
-0.001594026
0.006665994
-0.001591403
0.007542213
-0.001542272
0.008430754
-0.001564678
0.00929617
-0.001520805
0.0101188
-0.001442997
0.01094836
-0.001453516
0.01176762
-0.001430595
0.01255924
-0.001381226
0.01334951
-0.001377976
0.01412874
-0.001353604
0.01484391
-0.001235187
0.01556084
-0.00123478
0.01626255
-0.001205895
0.01691859
-0.001119286
0.01758041
-0.001128359
0.0181811
-0.001015257
0.01876023
-0.0009677896
0.01929704
-0.0008878568
0.01978846
-0.0008012042
0.020285
-0.0008047659
0.02074412
-0.0007322947
0.02116247
-0.0006546189
0.02154011
-0.0005741665
0.02187735
-0.0004948017
0.02218982
-0.0004448733
0.02244292
-0.0003252364
0.02269284
-0.0003116899
0.02291598
-0.000222896
0.02305429
2.080103e-05
0.02315568
0.0001846051
0.02323708
0.0003220028
0.02328739
0.0005278653
0.02323379
0.0009921224
0.02295025
0.001974908
0.02165155
0.004517586
0.01802738
0.008557744
0.01319694
0.008723886
0.007712318
0.004978141
0.002361277
0.004344273
-0.003861009
0.009709305
-0.008168268
0.01091871
-0.007496601
0.001161215
-0.004331029
-0.00589677
-0.001779824
-0.005130922
-0.001151454
-0.001768409
-0.001073048
-0.000536858
-0.0003278684
-0.001854768
0.001946741
-0.005246537
0.005898231
-0.007596068
0.004690523
0.0009518889
-0.002655544
0.01170968
-0.007985673
0.009737053
-0.0099268
0.00480101
-0.009877706
0.0005305265
-0.00866654
-0.002138322
-0.00648823
-0.003856359
-0.003035229
-0.006049327
-7.362326e-05
-0.004842247
0.001529116
-0.002684777
0.002334077
-0.00175461
0.003720906
-0.002889234
0.004991876
-0.002272485
0.004960751
0.0005454978
0.004376467
0.001350395
0.003075967
0.001464302
-0.0007166737
0.004697311
-0.005224001
0.006948896
-0.007567737
0.004975704
-0.008019389
0.001856656
-0.007780089
0.0001232534
-0.007157355
-0.0009397693
-0.006118544
-0.001845312
-0.002610556
-0.00568675
0.007007728
-0.003562325
-0.005538035
-0.0006762462
-0.007871807
0.003786255
-0.01258577
0.007526701
-0.01709366
0.008324242
-0.01897901
0.006894129
-0.01829438
0.004006985
-0.0167209
0.0002000291
-0.01535598
-0.002691066
-0.01400372
-0.003524735
-0.01219293
-0.004502183
-0.01034891
-0.004648003
-0.008405779
-0.004913038
-0.006436153
-0.004978094
-0.004434088
-0.00505738
-0.002582399
-0.004619274
-0.0007778735
-0.004446564
0.0008759899
-0.00383585
0.001617663
-0.002350123
0.001090999
0.0003084245
-0.0001073775
0.003623596
-0.001717838
0.005431299
-0.003409591
0.004645916
-0.004361931
0.002443709
-0.003071086
-0.003254266
-0.0005228188
-0.007638402
0.001289553
-0.006333936
0.003292834
-0.006035633
0.006663455
-0.009223493
0.01107467
-0.01146863
0.0128428
-0.004246868
0.01018929
0.01219839
0.0007656315
0.02886408
-0.006037197
0.01009735
-0.007688914
-0.006361848
-0.008375852
-0.005026061
-0.007192415
-0.005640071
-0.008285325
0.001390172
-0.01419945
0.01386528
-0.02083465
0.0189728
-0.02301333
0.01279793
-0.02299397
0.006037137
-0.02301804
0.002684552
-0.0231461
0.00137403
-0.02324038
0.0007730237
-0.02319004
0.0001868119
-0.02308305
-6.152579e-05
-0.02293783
-0.0002099816
-0.02272265
-0.0004102461
-0.02247939
-0.0004951562
-0.02215769
-0.0007005031
-0.02178241
-0.0008467479
-0.02132881
-0.001050738
-0.02083978
-0.00114364
-0.02033245
-0.0012
-0.0197514
-0.001388482
-0.01913729
-0.001472628
-0.01851502
-0.001500448
-0.01780368
-0.001724784
-0.01706393
-0.001802003
-0.01628663
-0.001897602
-0.01549636
-0.001930248
-0.01468131
-0.001997928
-0.01379518
-0.00217482
-0.01291881
-0.002153496
-0.01198834
-0.00229175
-0.01103127
-0.002358144
-0.01006495
-0.002383305
-0.009088763
-0.002411064
-0.008068933
-0.002520196
-0.007042155
-0.002536693
-0.00600309
-0.002568235
-0.004943805
-0.002621184
-0.003877358
-0.002639964
-0.002834526
-0.00257345
-0.00173886
-0.002717382
-0.0006764752
-0.002628514
0.0003423923
-0.002509723
0.001338563
-0.002446553
0.002473739
-0.002827115
0.003607937
-0.00281888
0.004731002
-0.002789306
0.005831269
-0.002733268
0.00690858
-0.002671338
0.007985187
-0.002668009
0.00902966
-0.002586745
0.01008889
-0.002623913
0.01111921
-0.002551118
0.01209808
-0.002421865
0.01308523
-0.002440669
0.01405884
-0.002404204
0.01499893
-0.002321314
0.01593762
-0.002316671
0.01686222
-0.002278203
0.01770911
-0.002082073
0.01855881
-0.002084482
0.01938939
-0.00203648
0.02016368
-0.001893576
0.02094702
-0.001911694
0.02165438
-0.001722616
0.02233692
-0.001650329
0.02296746
-0.001518401
0.02354165
-0.001375397
0.02412378
-0.001386892
0.02465836
-0.00126687
0.02514533
-0.001141589
0.02558209
-0.00101093
0.02597035
-0.0008830582
0.02632972
-0.0008042412
0.0266156
-0.0006111191
0.02690229
-0.0005983863
0.02713594
-0.0004565399
0.02722888
-7.214233e-05
0.0272601
0.0001533822
0.0272634
0.0003187054
0.02724154
0.0005497323
0.02717599
0.001057669
0.02719569
0.001955204
0.02751279
0.004200493
0.02738769
0.00868284
0.02558489
0.01052669
0.02026475
0.01029828
0.009867433
0.01474159
-0.0007574476
0.02033419
-0.003512506
0.01367377
-0.00141393
-0.0009373608
0.001711574
-0.009022275
0.004966007
-0.008385355
0.005831132
-0.002633533
0.004916405
0.0003778686
0.004138985
-0.001077347
0.004714552
-0.005822104
0.006669595
-0.009551111
0.003128368
0.004493116
-0.005160625
0.01999867
-0.009776204
0.01435263
-0.01168391
0.006708717
-0.01176766
0.0006142761
-0.01045373
-0.003452249
-0.008060724
-0.00624937
-0.004183053
-0.009926998
-0.0005539661
-0.008471333
0.00172425
-0.004962993
0.002796049
-0.002826409
0.004402276
-0.004495461
0.005731616
-0.003601824
0.005614155
0.0006629586
0.004554925
0.002409624
0.0008129299
0.005206298
-0.00506397
0.01057421
-0.008883795
0.01076872
-0.00993976
0.006031669
-0.01015643
0.002073327
-0.01008477
5.159714e-05
-0.009519768
-0.001504776
-0.008480461
-0.002884619
-0.004083289
-0.009895449
0.01075542
-0.004422294
-0.01067244
0.0001007461
-0.0144382
0.007552012
-0.01977457
0.01286307
-0.02288711
0.01143678
-0.02267792
0.006684942
-0.02115443
0.002483491
-0.01968775
-0.00126665
-0.01818419
-0.004194629
-0.01651754
-0.005191384
-0.01437982
-0.006639907
-0.01220975
-0.006818066
-0.009933486
-0.007189305
-0.00764968
-0.0072619
-0.005344619
-0.007362441
-0.003221562
-0.006742331
-0.00112864
-0.006539486
0.001069261
-0.006033751
0.002470567
-0.003751428
0.001792725
0.000986266
0.0002503917
0.005165929
-0.001166779
0.006848469
-0.002539402
0.006018539
-0.00337837
0.003282676
-0.002590328
-0.004042307
-0.001060095
-0.009168636
-4.859737e-05
-0.007345434
0.001941267
-0.008025498
0.005677294
-0.01295952
0.01074934
-0.01654067
0.01240818
-0.005905715
0.01012112
0.01448546
0.001680622
0.03730457
-0.009110629
0.0208886
-0.0165484
0.001075922
-0.02020262
-0.001371844
-0.02157868
-0.004264007
-0.02354761
0.003359096
-0.02638827
0.01670594
-0.02779709
0.02038162
-0.02736128
0.01236212
-0.02732195
0.005997811
-0.02772477
0.003087373
-0.02800079
0.001650044
-0.0281574
0.0009296382
-0.02808179
0.0001111985
-0.02792875
-0.000214564
-0.02772804
-0.0004106915
-0.02744525
-0.0006930338
-0.0271325
-0.0008079113
-0.02672806
-0.001104938
-0.02626177
-0.001313042
-0.02570288
-0.001609624
-0.02510236
-0.001744168
-0.02448121
-0.001821147
-0.02377398
-0.002095716
-0.02302731
-0.002219298
-0.02227141
-0.002256346
-0.02141221
-0.002583983
-0.0205173
-0.002696907
-0.01957841
-0.002836495
-0.01862529
-0.002883364
-0.017644
-0.002979227
-0.01657639
-0.003242425
-0.01552315
-0.003206734
-0.01440382
-0.003411078
-0.01325435
-0.003507623
-0.01209288
-0.003544775
-0.01092006
-0.00358388
-0.009695093
-0.003745163
-0.008461732
-0.003770054
-0.00721321
-0.003816757
-0.005942524
-0.00389187
-0.004660968
-0.00392152
-0.003407281
-0.003827137
-0.002089069
-0.004035594
-0.0008091835
-0.0039084
0.0004250279
-0.003743934
0.001635099
-0.003656623
0.002995355
-0.004187371
0.004351845
-0.00417537
0.005698295
-0.004135756
0.007015946
-0.004050918
0.008305224
-0.003960616
0.009592992
-0.003955777
0.01084186
-0.003835616
0.01211107
-0.003893118
0.01334338
-0.003783429
0.01451762
-0.003596109
0.01570333
-0.003626374
0.01687124
-0.003572117
0.01800276
-0.003452833
0.01913471
-0.003448625
0.02024688
-0.003390366
0.02126994
-0.003105142
0.02229723
-0.003111764
0.02330058
-0.003039829
0.0242389
-0.002831901
0.02518874
-0.002861529
0.02604848
-0.002582364
0.02687852
-0.002480362
0.02764744
-0.002287321
0.02835238
-0.002080337
0.02906637
-0.002100883
0.02972369
-0.001924188
0.03032705
-0.001744954
0.03086927
-0.001553146
0.03135671
-0.001370498
0.03181072
-0.001258257
0.03217931
-0.0009797093
0.03254892
-0.0009679907
0.03285933
-0.0007669572
0.03300312
-0.0002159289
0.03306117
9.533302e-05
0.03307027
0.0003096083
0.03302571
0.0005942929
0.03285103
0.001232347
0.03256603
0.0022402
0.03249536
0.004271161
0.03297881
0.008199388
0.03317024
0.01033527
0.03108579
0.01238272
0.02198894
0.02383844
0.009756156
0.03256697
0.004303381
0.01912654
0.006314203
-0.002948182
0.01071255
-0.01342062
0.01383419
-0.011507
0.01455195
-0.003351292
0.01331408
0.001615733
0.0113073
0.0009294299
0.009300527
-0.003815326
0.007675852
-0.007926436
0.001392341
0.01077663
-0.006831265
0.02822228
-0.01091083
0.01843219
-0.01310022
0.008898115
-0.01328386
0.0007979164
-0.01196599
-0.004770118
-0.00951103
-0.008704335
-0.005447849
-0.01399018
-0.001407126
-0.01251206
0.001433079
-0.007803198
0.002960583
-0.004353913
0.004868566
-0.006403444
0.006277085
-0.005010343
0.00593869
0.001001353
0.002948362
0.005399953
-0.003642078
0.01179674
-0.009550106
0.01648224
-0.01172736
0.01294598
-0.01236816
0.006672466
-0.01294352
0.002648684
-0.01305173
0.0001598112
-0.0126731
-0.001883412
-0.01189953
-0.003658185
-0.005227401
-0.01682809
0.01642681
-0.004021012
-0.01888427
0.002156929
-0.02290895
0.01157669
-0.02675039
0.01670452
-0.02750886
0.01219525
-0.02610755
0.005283631
-0.02462955
0.001005491
-0.02314955
-0.002746647
-0.02128767
-0.006056506
-0.01935146
-0.007127595
-0.01681232
-0.00917905
-0.01424797
-0.009382417
-0.01155398
-0.009883294
-0.008877594
-0.009938286
-0.006214899
-0.01002514
-0.003809912
-0.009147318
-0.001452173
-0.008897224
0.0009927445
-0.008478669
0.003238805
-0.005997489
0.003451291
0.0007737805
0.001833704
0.006783516
-6.039481e-05
0.008742568
-0.001638919
0.007597063
-0.002392035
0.004035793
-0.0022105
-0.004223842
-0.002182509
-0.009196626
-0.002223611
-0.007304331
-0.0003274114
-0.009921698
0.003575565
-0.0168625
0.008913467
-0.02187857
0.0105937
-0.007585945
0.008224532
0.01685462
0.0004138345
0.04511527
-0.01391889
0.03522132
-0.0249523
0.01210934
-0.02975532
0.003431171
-0.03249341
-0.001525912
-0.03441753
0.005283211
-0.03440666
0.01669507
-0.03290596
0.01888092
-0.03218473
0.0116409
-0.03254654
0.006359613
-0.03301617
0.003557011
-0.03332998
0.001963848
-0.03353109
0.001130748
-0.03347801
5.811537e-05
-0.0333232
-0.0003693664
-0.03311068
-0.0006232172
-0.03278311
-0.001020598
-0.03243537
-0.001155657
-0.03196147
-0.001578832
-0.031419
-0.001855511
-0.03075813
-0.002270501
-0.03004817
-0.002454126
-0.02931678
-0.002552538
-0.02847443
-0.002938062
-0.02758511
-0.00310862
-0.02668827
-0.003153184
-0.02566401
-0.003608252
-0.02459405
-0.003766864
-0.02347193
-0.003958612
-0.02233496
-0.004020334
-0.02116393
-0.004150263
-0.01988316
-0.004523188
-0.01862671
-0.004463188
-0.01728492
-0.004752871
-0.01591052
-0.004882015
-0.01451974
-0.004935556
-0.01311736
-0.004986268
-0.01164903
-0.005213484
-0.0101701
-0.00524899
-0.008669851
-0.005317004
-0.007146339
-0.005415381
-0.005607586
-0.005460273
-0.004104306
-0.005330417
-0.002517347
-0.005622553
-0.0009732013
-0.005452545
0.000522634
-0.00523977
0.001992053
-0.005126043
0.003624851
-0.005820168
0.005248268
-0.005798788
0.006864107
-0.005751594
0.008437756
-0.005624567
0.009973986
-0.005496846
0.01150976
-0.00549155
0.01299921
-0.005325067
0.01451936
-0.005413268
0.01598942
-0.005253486
0.01739746
-0.005004155
0.01882179
-0.005050697
0.02021636
-0.004966687
0.02157319
-0.004809664
0.02293564
-0.004811074
0.02426426
-0.00471899
0.02548893
-0.004329813
0.02672098
-0.004343818
0.02792032
-0.004239164
0.02903807
-0.00394965
0.03017628
-0.003999737
0.03119973
-0.003605821
0.03218744
-0.003468069
0.03310048
-0.003200358
0.03393315
-0.002913014
0.03478035
-0.002948079
0.03555168
-0.002695518
0.0362636
-0.002456876
0.03689471
-0.002184258
0.03746012
-0.001935902
0.03799001
-0.001788151
0.03840164
-0.001391343
0.03882431
-0.001390656
0.03917095
-0.001113598
0.03930942
-0.0003543979
0.03934863
5.612078e-05
0.03932864
0.0003295976
0.03923944
0.000683501
0.03903198
0.001439798
0.03872423
0.002547958
0.03845322
0.004542167
0.03854682
0.008105792
0.03854774
0.01033434
0.03867438
0.01225609
0.0352953
0.02721752
0.02649575
0.04136652
0.01994824
0.02567405
0.02012963
-0.003129571
0.02346932
-0.01676031
0.02543307
-0.01347075
0.02548361
-0.003401824
0.02383233
0.00326701
0.02076665
0.003995105
0.01589267
0.001058654
0.009740882
-0.001774644
0.0004883436
0.02002916
-0.007474526
0.03618515
-0.0114362
0.02239387
-0.0140145
0.01147642
-0.01443385
0.001217267
-0.01318071
-0.006023261
-0.01069601
-0.01118903
-0.006554484
-0.01813171
-0.002426478
-0.01664006
0.0009023645
-0.01113204
0.002889682
-0.00634123
0.004828557
-0.008342319
0.00612776
-0.006309545
0.004762492
0.00236662
-0.001249461
0.01141191
-0.009212401
0.01975968
-0.01332885
0.02059868
-0.01442356
0.01404069
-0.01536746
0.007616366
-0.01627975
0.003560982
-0.01668537
0.0005654301
-0.01672501
-0.001843772
-0.0166246
-0.003758599
-0.005425194
-0.02564925
0.02374358
-0.002115339
-0.02850079
0.005008471
-0.03148387
0.01455977
-0.03289466
0.0181153
-0.03178064
0.01108123
-0.03008264
0.003585629
-0.02866612
-0.0004110225
-0.02693787
-0.004474895
-0.02468293
-0.008311454
-0.02251413
-0.009296396
-0.01952899
-0.01216418
-0.01656404
-0.01234737
-0.01337955
-0.01306778
-0.01019948
-0.01311836
-0.007058837
-0.01316578
-0.00430771
-0.01189845
-0.001648165
-0.01155677
0.0009950217
-0.01112186
0.00367197
-0.008674437
0.005039794
-0.0005940432
0.004254731
0.007568578
0.001732044
0.01126526
-0.0007156825
0.01004479
-0.002057953
0.005378063
-0.002685696
-0.003596099
-0.004281496
-0.007600827
-0.005541747
-0.00604408
-0.004305585
-0.01115786
-0.0007890046
-0.02037908
0.004112115
-0.02677969
0.00551883
-0.008992659
0.002969117
0.01940433
-0.005623451
0.05370784
-0.02069779
0.05029567
-0.03185989
0.02327143
-0.03598911
0.007560388
-0.03921567
0.001700651
-0.0411717
0.007239244
-0.04048408
0.01600745
-0.03899144
0.01738829
-0.03884542
0.01149488
-0.03935891
0.006873102
-0.03987856
0.004076657
-0.04021168
0.002296965
-0.04043667
0.001355738
-0.04030492
-7.363712e-05
-0.04009452
-0.0005797591
-0.03981894
-0.0008987971
-0.03940287
-0.001436666
-0.03898092
-0.001577607
-0.03839877
-0.002160983
-0.03774181
-0.002512479
-0.03693858
-0.003073726
-0.03607657
-0.003316137
-0.03519649
-0.003432617
-0.03417709
-0.003957459
-0.03310437
-0.004181343
-0.03203006
-0.004227494
-0.0307983
-0.004840014
-0.02950744
-0.005057723
-0.02815993
-0.005306121
-0.02679525
-0.005385011
-0.02539351
-0.005552007
-0.0238499
-0.0060668
-0.02235076
-0.005962321
-0.02073772
-0.006365919
-0.01909085
-0.006528884
-0.01742447
-0.006601935
-0.0157485
-0.006662237
-0.01399289
-0.006969089
-0.0122274
-0.007014479
-0.01042696
-0.007117444
-0.00860205
-0.007240295
-0.006747658
-0.007314666
-0.004950855
-0.007127219
-0.003043825
-0.007529583
-0.001174773
-0.007321597
0.0006382404
-0.007052783
0.002421577
-0.006909379
0.004387114
-0.007785706
0.006336044
-0.007747718
0.008265299
-0.007680849
0.01013297
-0.007492243
0.01195845
-0.007322326
0.01379045
-0.007323542
0.01557108
-0.007105702
0.01740107
-0.007243259
0.01915712
-0.007009529
0.02085278
-0.006699821
0.02257402
-0.006771937
0.02424206
-0.006634723
0.02587082
-0.006438424
0.02752359
-0.006463844
0.02911522
-0.006310626
0.03058368
-0.005798265
0.03206859
-0.005828736
0.03351139
-0.005681956
0.03485012
-0.005288381
0.0362237
-0.00537332
0.03745583
-0.004837947
0.03864554
-0.004657787
0.03974364
-0.00429845
0.04075042
-0.003919799
0.04178045
-0.003978108
0.04270855
-0.003623617
0.04358024
-0.003328567
0.04434493
-0.002948942
0.04503976
-0.002630741
0.04569312
-0.002441506
0.04620724
-0.001905461
0.04673383
-0.001917249
0.04715733
-0.001537103
0.04736783
-0.0005648911
0.04744435
-2.040176e-05
0.04746232
0.000311622
0.04741135
0.0007344796
0.04718338
0.001667768
0.04685421
0.002877127
0.04648373
0.004912649
0.04632266
0.00826686
0.04563997
0.01101703
0.04550258
0.01239348
0.0468518
0.0258683
0.04557402
0.0426443
0.04172707
0.029521
0.03946172
-0.0008642143
0.03911522
-0.01641381
0.03860011
-0.01295564
0.03739956
-0.002201276
0.0351554
0.005511175
0.03133099
0.007819514
0.02427844
0.008111204
0.01348691
0.009016885
0.001340656
0.03217542
-0.006707815
0.04423362
-0.01102958
0.02671563
-0.01444844
0.01489528
-0.01545738
0.002226214
-0.01430265
-0.007177995
-0.01153385
-0.01395783
-0.007193922
-0.02247163
-0.003275627
-0.02055836
0.0003514083
-0.01475908
0.002436502
-0.008426324
0.003661121
-0.009566938
0.003938008
-0.006586433
0.0005356181
0.005769011
-0.007761683
0.01970921
-0.01439365
0.02639165
-0.01649068
0.02269571
-0.01742674
0.01497675
-0.01880586
0.008995489
-0.0199976
0.004752719
-0.02085581
0.00142364
-0.02159387
-0.001105714
-0.02258011
-0.002772354
-0.00426173
-0.03450451
0.03152534
0.0008638358
-0.03744197
0.007945925
-0.03883459
0.01595239
-0.03826464
0.01754535
-0.03623632
0.009052912
-0.03456899
0.001918301
-0.03298514
-0.001994873
-0.03098767
-0.006472368
-0.02820331
-0.01109581
-0.02579266
-0.01170704
-0.02233165
-0.0156252
-0.01902114
-0.01565788
-0.01545513
-0.01663379
-0.01169713
-0.01687636
-0.007925189
-0.01693772
-0.004741468
-0.01508217
-0.001713302
-0.01458493
0.001338306
-0.01417346
0.004302253
-0.01163838
0.006196439
-0.002488228
0.006344134
0.007420883
0.003903996
0.01370539
0.0002873071
0.01366148
-0.002445797
0.008111167
-0.004449323
-0.001592572
-0.007750511
-0.004299639
-0.0105461
-0.003248492
-0.01057429
-0.01112967
-0.008413137
-0.02254023
-0.004288396
-0.03090443
-0.003652953
-0.009628103
-0.006678208
0.02242959
-0.01591653
0.06294616
-0.02972699
0.06410612
-0.03853962
0.03208407
-0.04197082
0.01099159
-0.04570156
0.005431385
-0.04789129
0.009428979
-0.04767193
0.01578809
-0.04676054
0.0164769
-0.04676446
0.0114988
-0.0471899
0.007298541
-0.04776229
0.004649048
-0.04810807
0.002642745
-0.04838897
0.001636635
-0.04827989
-0.0001827118
-0.04804775
-0.0008119024
-0.04772655
-0.001219992
-0.04719947
-0.001963751
-0.04672993
-0.002047149
-0.04601732
-0.002873587
-0.04524556
-0.003284246
-0.04428329
-0.004035988
-0.0432443
-0.004355131
-0.04220062
-0.0044763
-0.04098266
-0.005175411
-0.03969567
-0.005468341
-0.03840661
-0.005516547
-0.03693889
-0.006307737
-0.03539291
-0.006603705
-0.03377918
-0.006919849
-0.03212542
-0.007038768
-0.03047023
-0.007207201
-0.02860011
-0.007936922
-0.02681683
-0.007745599
-0.02487071
-0.008312036
-0.02290098
-0.008498617
-0.02091015
-0.008592766
-0.01887402
-0.008698361
-0.01678962
-0.00905349
-0.0146899
-0.009114197
-0.01253674
-0.009270609
-0.01037551
-0.009401517
-0.008111538
-0.009578642
-0.005983432
-0.009255326
-0.003692014
-0.009821001
-0.001423333
-0.009590278
0.0007783096
-0.009254426
0.002941241
-0.00907231
0.005312275
-0.01015674
0.007657205
-0.01009265
0.009921207
-0.009944852
0.01213473
-0.009705762
0.01432144
-0.009509041
0.01651032
-0.009512422
0.0186454
-0.009240781
0.02086917
-0.009467024
0.02297434
-0.009114707
0.02500797
-0.008733444
0.02707639
-0.008840363
0.02909174
-0.008650071
0.03105015
-0.008396832
0.03302605
-0.008439743
0.03493848
-0.008223056
0.03669386
-0.007553646
0.03847233
-0.007607207
0.04018175
-0.007391373
0.04180005
-0.006906687
0.04344888
-0.007022142
0.04491453
-0.006303599
0.04635228
-0.006095543
0.04764912
-0.005595285
0.04885412
-0.005124802
0.05009334
-0.005217325
0.0511832
-0.004713479
0.05223737
-0.004382737
0.0531277
-0.003839271
0.05395844
-0.003461485
0.05474412
-0.003227179
0.0553286
-0.00248994
0.05595527
-0.002543923
0.05648072
-0.002062555
0.05669791
-0.0007820728
0.05677399
-9.648668e-05
0.05675113
0.0003344867
0.05666454
0.0008210686
0.05638614
0.00194616
0.05605371
0.003209559
0.05569277
0.005273592
0.05554606
0.008413574
0.05492495
0.01163814
0.05394874
0.01336968
0.05663754
0.02317951
0.06113012
0.03815172
0.0607748
0.02987631
0.05706728
0.002843306
0.05333314
-0.01267968
0.05049881
-0.01012131
0.04795992
0.0003376173
0.04517461
0.008296483
0.0411105
0.01188363
0.03327267
0.01594903
0.01936768
0.02292188
0.005103003
0.0464401
-0.003962318
0.05329894
-0.009405546
0.03215886
-0.01449787
0.0199876
-0.0165805
0.004308849
-0.01559039
-0.00816811
-0.01210682
-0.01744141
-0.007293281
-0.02728517
-0.003644153
-0.02420748
-8.449171e-05
-0.01831874
0.001182665
-0.009693481
0.0002845285
-0.008668801
-0.001596356
-0.004705548
-0.007418285
0.01159094
-0.01473558
0.0270265
-0.01846911
0.03012518
-0.01939515
0.02362175
-0.02068786
0.01626947
-0.02232515
0.01063278
-0.02384849
0.006276061
-0.0253085
0.002883644
-0.02688325
0.0004690344
-0.02911652
-0.0005390763
-0.001852916
-0.04211949
0.03861455
0.004368777
-0.04477304
0.01059947
-0.04469803
0.01587738
-0.04330583
0.01615316
-0.0411028
0.006849884
-0.03948923
0.0003047239
-0.03753433
-0.003949766
-0.03543828
-0.008568417
-0.03168268
-0.01485141
-0.02907222
-0.01431751
-0.02489493
-0.01980249
-0.02120095
-0.01935186
-0.01761967
-0.02021507
-0.01328008
-0.02121595
-0.008806808
-0.02141099
-0.005062338
-0.01882664
-0.001536222
-0.01811105
0.002045989
-0.01775567
0.005402398
-0.01499479
0.007312158
-0.004397989
0.007641133
0.007091908
0.00551968
0.01582685
0.001456619
0.01772454
-0.002769324
0.01233711
-0.007285575
0.002923679
-0.01295625
0.001371037
-0.01794185
0.001737111
-0.01999255
-0.009078975
-0.02026567
-0.02226711
-0.01767924
-0.03349086
-0.01829606
-0.009011287
-0.02268376
0.02681729
-0.03241012
0.07267252
-0.04200908
0.07370509
-0.04652576
0.03660074
-0.04993354
0.01439938
-0.0542481
0.009745937
-0.05669269
0.01187358
-0.05692938
0.01602477
-0.05637958
0.0159271
-0.0564312
0.01155042
-0.05681684
0.007684183
-0.05752502
0.005357221
-0.05778383
0.002901559
-0.05815272
0.002005521
-0.05790582
-0.0004296087
-0.05762256
-0.00109516
-0.05729783
-0.001544721
-0.05661017
-0.002651418
-0.05607775
-0.002579569
-0.05521065
-0.003740684
-0.05430894
-0.004185959
-0.05313596
-0.005208969
-0.05185891
-0.005632181
-0.05062843
-0.005706775
-0.04919536
-0.006608489
-0.04759429
-0.007069404
-0.0460525
-0.007058341
-0.0443166
-0.008043631
-0.0424797
-0.008440612
-0.04051296
-0.008886585
-0.03850661
-0.009045122
-0.03661152
-0.009102291
-0.0342847
-0.01026374
-0.03219402
-0.009836272
-0.0297868
-0.01071926
-0.02747876
-0.01080666
-0.02510171
-0.01096981
-0.02262159
-0.01117848
-0.02015993
-0.01151514
-0.01762352
-0.01165061
-0.01503112
-0.01186301
-0.01250955
-0.01192308
-0.009758531
-0.01232966
-0.007268352
-0.01174551
-0.004478582
-0.01261077
-0.001740956
-0.0123279
0.0009460738
-0.01194146
0.003589585
-0.01171582
0.006474005
-0.01304116
0.009184154
-0.0128028
0.01182365
-0.01258435
0.01449203
-0.01237414
0.01716099
-0.01217801
0.01980043
-0.01215186
0.02233363
-0.01177399
0.02507565
-0.01220904
0.02758241
-0.01162147
0.03003288