/*--------------------------------*- C++ -*----------------------------------*\
| =========                 |                                                 |
| \\      /  F ield         | OpenFOAM: The Open Source CFD Toolbox           |
|  \\    /   O peration     | Version:  2406                                  |
|   \\  /    A nd           | Website:  www.openfoam.com                      |
|    \\/     M anipulation  |                                                 |
\*---------------------------------------------------------------------------*/
FoamFile
{
    version     2.0;
    format      ascii;
    arch        "LSB;label=32;scalar=64";
    class       surfaceScalarField;
    location    "0.1";
    object      phi;
}
// * * * * * * * * * * * * * * * * * * * * * * * * * * * * * * * * * * * * * //

dimensions      [0 3 -1 0 0 0 0];

oriented        oriented;

internalField   nonuniform List<scalar> 
6741
(
5.606392e-10
1.04989e-09
-1.610529e-09
-1.198285e-09
-9.718171e-11
1.295467e-09
1.66903e-09
-1.6459e-09
-2.313018e-11
6.596165e-10
8.485997e-10
-1.508216e-09
1.5748e-09
-8.457138e-10
-7.290858e-10
2.065279e-09
-8.528341e-10
-1.212445e-09
-1.192197e-09
-2.528192e-10
1.445016e-09
-8.834742e-10
1.823724e-09
-9.402495e-10
1.750605e-10
2.03758e-09
-2.21264e-09
-1.526572e-09
3.055618e-10
1.22101e-09
-1.550985e-10
1.914075e-09
-1.758976e-09
1.269907e-09
-1.873772e-09
6.038651e-10
1.391501e-09
-1.954287e-09
5.627859e-10
1.86089e-09
-1.654577e-09
-2.063127e-10
-2.349156e-10
1.479312e-09
-1.244396e-09
3.389015e-09
-1.95763e-09
-1.431385e-09
-9.209563e-10
-5.513475e-10
1.472304e-09
1.214291e-09
-1.471206e-09
2.569145e-10
1.915998e-09
-1.767009e-09
8.422519e-10
-1.730594e-09
8.88342e-10
-2.349587e-09
1.275378e-09
1.074209e-09
4.40115e-10
-1.355895e-09
9.157799e-10
-1.632289e-09
1.342101e-09
2.901885e-10
4.888558e-10
1.459841e-09
-1.948697e-09
3.89437e-10
1.322004e-09
-1.711441e-09
1.756234e-09
-1.523334e-09
-2.328998e-10
1.772729e-09
-1.123127e-09
-6.496015e-10
-2.060748e-09
1.141139e-09
9.196096e-10
-1.403855e-09
1.656505e-09
-2.526498e-10
-4.608295e-09
6.817889e-10
3.926506e-09
-2.061751e-09
7.395802e-10
1.322171e-09
-1.456786e-09
1.075792e-09
3.809941e-10
1.732665e-09
-9.851708e-10
-7.474941e-10
2.668332e-09
-1.666356e-10
-2.501696e-09
4.004867e-09
2.091049e-09
-6.095916e-09
-1.345132e-09
1.589428e-09
-2.442958e-10
-1.484607e-09
-2.795937e-10
1.7642e-09
4.797127e-09
2.35323e-09
-7.150358e-09
1.752789e-09
-5.888868e-10
-1.163902e-09
-1.783784e-09
2.116473e-09
-3.326888e-10
1.511431e-09
6.109812e-10
-2.122412e-09
-7.147791e-10
-1.265095e-09
1.979875e-09
1.449632e-09
-1.929158e-10
-1.256716e-09
9.764278e-10
-1.587788e-09
6.113601e-10
-2.084607e-09
1.371716e-09
7.128908e-10
-1.505597e-09
6.064657e-10
8.991312e-10
-6.137821e-10
-1.138124e-09
1.751907e-09
-1.414581e-10
-1.551685e-09
1.693143e-09
-6.059774e-10
-1.328686e-09
1.934664e-09
5.74928e-10
1.282457e-09
-1.857385e-09
-1.727679e-09
1.742123e-09
-1.444407e-11
-1.30632e-09
3.841874e-10
9.221323e-10
1.409568e-09
-2.647817e-10
-1.144787e-09
1.855521e-09
-4.441668e-10
-1.411354e-09
-1.462851e-10
1.309447e-09
-1.163162e-09
4.650639e-10
1.335543e-09
-1.800607e-09
-1.670141e-09
1.435841e-09
2.342999e-10
-1.791825e-10
-1.623267e-09
1.802449e-09
-1.427287e-09
2.130777e-09
-7.034905e-10
5.954165e-10
-1.678449e-09
1.083032e-09
-9.14319e-10
-4.239513e-10
1.33827e-09
-1.513751e-09
1.010273e-09
5.034773e-10
-1.415725e-09
1.53082e-09
-1.150948e-10
4.555197e-10
1.404184e-09
-1.859704e-09
-2.301807e-09
1.19594e-09
1.105867e-09
1.455591e-09
-1.128851e-09
-3.267399e-10
-1.76823e-09
1.379084e-09
3.891467e-10
4.595355e-10
9.978829e-10
-1.457418e-09
6.780076e-09
-7.242006e-09
4.619298e-10
-1.835674e-09
3.258432e-10
1.509831e-09
4.093097e-10
-2.008395e-09
1.599085e-09
1.398139e-09
-1.595224e-09
1.970846e-10
1.419513e-09
-2.921446e-10
-1.127368e-09
1.495146e-09
-1.981986e-09
4.868402e-10
5.120158e-09
1.088672e-09
-6.20883e-09
-1.231261e-09
7.804315e-12
1.223457e-09
2.124579e-09
-6.775833e-10
-1.446996e-09
1.644468e-09
-2.365129e-10
-1.407955e-09
-1.651305e-09
-4.249046e-10
2.07621e-09
1.938809e-09
-2.33173e-09
3.929208e-10
3.426513e-10
1.27799e-09
-1.620641e-09
1.129466e-09
-1.240232e-09
1.107651e-10
-8.928787e-10
-1.875803e-10
-1.642378e-09
-3.73505e-10
2.015883e-09
-1.623369e-09
1.238614e-09
3.847552e-10
-4.71479e-10
2.157797e-09
-1.686318e-09
9.746186e-10
-1.650644e-09
6.760259e-10
5.960934e-10
2.436837e-09
-3.03293e-09
-5.421458e-10
-1.174433e-09
1.716579e-09
8.049972e-10
-1.674958e-09
8.699604e-10
2.549965e-10
-1.467136e-09
1.21214e-09
1.299163e-09
3.141294e-10
-1.613293e-09
-2.622733e-10
2.023997e-09
-1.761724e-09
-1.122789e-10
-1.668781e-09
1.78106e-09
-9.672139e-10
1.563126e-09
-5.959123e-10
5.906608e-12
-2.948707e-09
2.942801e-09
8.656137e-10
-1.83656e-09
9.709465e-10
-1.693733e-10
1.232831e-09
-1.063458e-09
-1.417458e-09
-8.813938e-11
-5.966224e-09
3.86704e-09
2.099185e-09
1.444851e-09
-7.852344e-10
1.351781e-09
-1.71544e-09
3.636591e-10
-3.059569e-09
7.279054e-11
2.986778e-09
-2.38338e-09
-3.060537e-09
5.443917e-09
4.364828e-10
-2.078861e-09
2.147046e-10
1.362039e-09
-1.576744e-09
-1.886238e-09
1.417827e-09
4.684118e-10
-2.148273e-09
5.890618e-10
-2.581996e-10
1.986722e-09
-1.728523e-09
1.139095e-09
-1.75951e-09
6.204148e-10
1.135721e-09
-8.306673e-10
-3.050536e-10
-1.956217e-09
1.035261e-09
-7.241061e-10
-7.713192e-10
1.495425e-09
-1.148344e-09
1.660011e-09
-5.11667e-10
1.122455e-09
-4.688774e-11
-1.075568e-09
1.679719e-09
-2.602063e-10
-1.638227e-09
2.507947e-10
1.387432e-09
-1.927026e-09
1.011371e-09
9.156546e-10
-1.576476e-09
-1.187953e-10
1.695271e-09
-2.406886e-09
2.406148e-09
7.37463e-13
-9.626809e-10
-1.729422e-10
1.135623e-09
3.315947e-09
8.122587e-10
-4.128206e-09
1.656678e-09
-1.326576e-09
-3.301015e-10
-1.160188e-09
-9.244194e-10
1.292888e-09
-1.574654e-09
2.817663e-10
-1.0672e-09
-8.327391e-10
1.899939e-09
3.017107e-09
-3.202432e-09
1.853253e-10
-2.986745e-09
3.900162e-10
2.596728e-09
-1.816279e-09
1.56576e-09
2.505185e-10
2.146711e-09
-3.383705e-10
-1.808341e-09
1.670147e-11
-1.317811e-09
1.30111e-09
-1.356569e-09
-5.867017e-10
1.943271e-09
5.106049e-10
1.090087e-09
-1.600692e-09
2.413386e-09
-2.215026e-09
-1.983592e-10
-1.64926e-09
8.86981e-10
7.622789e-10
1.516286e-09
-2.383822e-09
8.67536e-10
-1.920892e-09
1.486864e-09
4.340275e-10
-1.450861e-09
1.231999e-09
2.188619e-10
-8.442694e-10
-1.216479e-09
1.899091e-10
-2.694993e-09
2.505084e-09
3.485922e-09
-5.869302e-09
-7.687311e-11
-1.851104e-09
1.927977e-09
1.010112e-09
-1.579541e-09
5.694298e-10
-1.170135e-09
-3.564369e-10
-1.255178e-09
2.316745e-09
-1.061567e-09
-1.622008e-09
2.217425e-09
-5.307817e-10
-1.245177e-09
1.775959e-09
1.126426e-09
-1.213856e-09
8.743039e-11
-1.385965e-09
1.216592e-09
-7.851128e-10
-5.104554e-10
1.295568e-09
1.192695e-09
-1.069346e-09
-1.233491e-10
-2.691879e-09
1.207272e-09
-1.974478e-09
-2.338672e-10
2.208345e-09
4.175483e-09
-1.366669e-09
-2.808814e-09
1.069216e-09
8.181237e-10
-1.88734e-09
2.544273e-11
-1.060132e-09
1.034689e-09
1.986181e-09
-1.234889e-09
-7.512921e-10
1.383088e-09
3.68148e-11
-1.419903e-09
6.127486e-10
-1.978078e-09
1.365329e-09
1.628839e-09
-2.343713e-09
7.148735e-10
2.054326e-09
-1.856978e-09
-1.973484e-10
-1.943574e-09
6.740701e-09
1.866898e-09
-1.871794e-10
-7.939251e-10
1.547255e-09
-7.5333e-10
1.11078e-09
-1.361412e-09
-3.208231e-09
2.087676e-10
2.999464e-09
2.180413e-10
1.299989e-09
-1.51803e-09
1.474455e-09
6.404061e-10
-2.114861e-09
1.081452e-09
3.638104e-10
-1.445263e-09
8.572543e-10
7.663791e-10
-1.623633e-09
-1.968547e-09
5.880958e-10
1.380451e-09
3.01258e-09
-2.085314e-09
-9.272658e-10
7.498888e-09
-3.494021e-09
-1.010268e-09
5.332423e-10
1.586394e-09
-2.119636e-09
-4.355141e-10
-8.943332e-10
1.329847e-09
-1.762042e-09
1.680634e-09
8.140846e-11
-7.957974e-10
1.854134e-09
-1.058337e-09
-1.210171e-09
1.381804e-09
-1.716339e-10
-7.73429e-10
-1.143213e-09
1.916642e-09
-2.347993e-10
-1.326943e-09
1.561743e-09
2.059766e-09
-5.995104e-10
-1.460256e-09
-5.857596e-10
-8.82935e-10
1.468695e-09
-3.471162e-09
3.268734e-09
2.024273e-10
-1.024325e-09
1.939695e-09
-9.153699e-10
-2.924585e-10
-7.515292e-10
1.043988e-09
1.104419e-09
5.522587e-10
1.720698e-09
-1.187456e-09
-1.932131e-10
-1.081877e-09
1.27509e-09
1.620652e-09
-6.460337e-10
3.439938e-10
-1.700563e-09
7.213763e-11
-1.475993e-09
7.731545e-10
-2.307479e-09
1.534324e-09
-1.424394e-09
-5.651853e-10
-1.143021e-09
-5.675169e-10
1.710537e-09
-1.721636e-09
6.29689e-10
1.091947e-09
-4.507381e-10
1.309911e-09
-8.591733e-10
-1.659014e-09
9.556917e-10
7.033223e-10
-1.08413e-09
-5.634075e-10
1.647537e-09
4.699092e-10
-1.99207e-09
1.522161e-09
9.791933e-10
4.279569e-10
-1.40715e-09
5.596197e-11
-1.569713e-09
1.702867e-09
-4.855056e-10
-1.217361e-09
-9.408705e-10
1.893422e-09
-9.52551e-10
5.134508e-09
-2.199805e-09
-2.934703e-09
-1.832823e-09
1.695415e-09
1.374078e-10
-6.231e-10
1.509715e-09
-8.86615e-10
1.643015e-09
-2.007166e-09
3.641504e-10
1.70078e-09
-3.979964e-10
-1.302784e-09
-5.05386e-10
1.340924e-09
-8.355385e-10
-1.313091e-09
1.615757e-09
-3.026655e-10
-5.067562e-09
7.617083e-09
-2.549521e-09
1.96964e-10
1.650348e-09
-1.847312e-09
5.546236e-10
-1.560884e-09
1.006261e-09
9.286346e-10
8.163301e-10
-1.744965e-09
-8.938136e-10
-1.31788e-09
2.211694e-09
1.43925e-10
-1.55965e-09
2.400755e-09
-2.096019e-10
-2.191153e-09
-9.239223e-11
-1.484084e-09
1.226645e-09
4.374762e-10
-1.664121e-09
-1.658982e-09
1.695011e-09
-3.602935e-11
-1.829648e-09
-4.20154e-10
2.249802e-09
1.947403e-11
1.912254e-09
-1.931728e-09
2.187334e-09
-5.501622e-10
-1.637172e-09
-1.436557e-09
1.41741e-09
1.914711e-11
-1.667208e-09
7.340769e-10
9.331313e-10
2.067539e-09
-4.514208e-10
-1.616118e-09
-1.210603e-09
-3.902349e-10
1.600837e-09
-1.343142e-09
-2.611389e-10
1.604281e-09
3.270104e-10
-1.404968e-09
1.077957e-09
1.468134e-09
-1.506514e-09
3.837989e-11
1.411595e-10
1.389661e-09
1.894658e-09
-2.474814e-09
5.801566e-10
1.095394e-09
-1.762419e-09
6.670249e-10
1.734509e-09
-2.057299e-09
3.227896e-10
-7.421915e-10
1.821614e-09
-1.079423e-09
1.572723e-09
-7.740056e-10
-7.987175e-10
-1.289192e-09
1.603225e-09
-3.140326e-10
1.108498e-09
3.346507e-12
-1.111844e-09
4.573348e-10
1.771424e-09
-2.228759e-09
1.196758e-09
-1.57395e-09
3.771911e-10
2.007164e-11
-1.397405e-09
1.377334e-09
3.170614e-09
-2.685532e-09
-4.850818e-10
1.404862e-09
-6.560948e-11
-1.339252e-09
8.931881e-10
6.816114e-10
1.84834e-09
-9.20521e-09
7.356871e-09
-8.224971e-10
-2.239927e-09
3.062424e-09
4.112643e-10
-8.241577e-09
7.830313e-09
1.746886e-09
-1.758224e-09
1.13381e-11
3.253876e-10
5.63563e-09
-5.961018e-09
2.071625e-09
-2.250695e-09
1.790697e-10
-1.524573e-09
-1.064277e-10
1.631e-09
8.073003e-10
-1.352542e-09
5.452422e-10
1.179818e-09
-4.414395e-10
-7.383783e-10
-1.423132e-09
1.443204e-09
1.440802e-09
-4.540858e-10
-9.867158e-10
1.1054e-09
5.030807e-10
-1.608481e-09
-8.371983e-10
1.816392e-09
1.470433e-09
-8.204712e-10
-6.499616e-10
1.508466e-09
-6.378945e-10
-8.705715e-10
1.952066e-09
-1.068738e-09
-8.833282e-10
1.475385e-09
-9.638755e-10
-5.115093e-10
1.451243e-09
-1.444552e-09
-6.690672e-12
1.144101e-10
-1.369186e-09
1.254776e-09
8.452057e-10
2.905152e-10
-1.773026e-10
-1.454987e-09
-3.374302e-10
-7.73074e-09
8.068171e-09
-1.620846e-09
2.146176e-09
-5.253296e-10
1.687174e-09
-1.313829e-09
-3.733447e-10
1.195856e-09
4.268605e-10
-1.622717e-09
1.876342e-09
-2.07312e-10
-4.369751e-10
-1.823941e-09
2.260916e-09
8.81846e-10
6.960467e-10
-1.577893e-09
6.292777e-10
1.274858e-09
-1.904136e-09
-1.528133e-09
-7.580597e-11
1.603939e-09
-8.470367e-10
8.842092e-09
-7.995056e-09
7.163545e-11
1.622902e-09
-1.694537e-09
-2.750833e-09
1.96207e-09
7.887638e-10
-8.906595e-10
2.029598e-09
-1.138939e-09
1.55137e-09
-9.543068e-10
-5.970631e-10
1.162789e-09
-1.530013e-09
3.672239e-10
1.37896e-09
-1.307389e-09
-7.157124e-11
-1.523639e-09
7.352037e-10
7.884353e-10
-1.954428e-09
-1.403596e-09
3.358024e-09
1.414077e-09
2.44759e-10
-1.658836e-09
-1.580052e-09
-7.892972e-11
5.016833e-10
-1.902642e-09
1.400958e-09
9.235094e-10
1.128752e-10
-1.036385e-09
3.917597e-09
-2.750822e-09
-1.166775e-09
-3.216185e-10
1.535269e-09
-1.213651e-09
-9.094496e-10
1.982975e-09
-1.073525e-09
2.246686e-09
-5.159015e-10
1.762712e-09
-1.246811e-09
1.051288e-10
-1.210996e-09
1.105867e-09
1.902387e-09
-3.794699e-10
-1.522917e-09
1.343126e-09
4.692488e-10
-1.812375e-09
9.249165e-10
5.306749e-10
-7.223722e-10
1.732484e-09
1.958869e-10
1.718065e-09
-1.913951e-09
1.883025e-09
-7.418859e-10
-3.140175e-10
-1.635204e-09
1.949222e-09
4.865317e-10
-1.683921e-09
1.197389e-09
-2.210256e-09
4.286139e-10
1.781642e-09
-4.283513e-10
1.638774e-09
-1.210423e-09
-1.185453e-09
1.256812e-09
-7.135874e-11
7.710606e-11
1.298899e-09
-1.376005e-09
-1.559601e-09
8.720548e-10
6.87546e-10
2.067588e-09
-4.1149e-09
2.047312e-09
-1.603856e-09
1.617581e-09
-1.372476e-11
5.0576e-10
-1.638205e-09
1.132445e-09
-1.055036e-09
1.843641e-09
-7.886053e-10
-5.350765e-10
-1.181296e-09
1.716372e-09
6.14855e-10
-1.773044e-09
1.158189e-09
-1.853484e-09
1.206194e-09
6.472903e-10
2.346911e-09
-1.403056e-09
-9.438549e-10
-5.199433e-10
-8.25812e-10
1.345755e-09
3.540653e-11
-1.4803e-09
1.444894e-09
-1.707555e-09
-1.274991e-09
2.982547e-09
4.871133e-10
-1.454327e-09
1.197653e-09
7.199494e-10
-1.917603e-09
-2.504584e-09
-5.84185e-10
3.088769e-09
9.686009e-10
5.067839e-10
-5.803682e-10
-8.092751e-10
1.389643e-09
-9.494588e-10
-8.021117e-10
1.75157e-09
1.149106e-09
7.15327e-10
-1.864433e-09
-1.094636e-09
-3.327078e-10
-1.36354e-09
1.696248e-09
-1.18744e-09
1.776785e-09
-5.893453e-10
-1.581594e-09
7.373242e-10
-2.259508e-10
2.175679e-09
-1.949728e-09
1.570757e-09
-8.759856e-10
-6.947717e-10
2.248685e-09
-4.112868e-10
-1.837398e-09
1.04893e-10
-1.44449e-09
1.339597e-09
1.017408e-09
-1.916714e-09
8.99306e-10
1.031528e-09
6.72195e-10
-1.703723e-09
4.310888e-10
-1.955495e-09
1.524406e-09
-1.599372e-09
1.758351e-09
-1.58979e-10
1.574703e-09
-2.77881e-10
-1.296822e-09
1.344158e-09
-1.233899e-09
-1.10259e-10
1.184766e-09
1.943537e-10
-1.37912e-09
-1.159537e-09
-3.882166e-10
1.547754e-09
-1.017788e-09
-6.174881e-10
1.635277e-09
-1.603396e-09
-6.068604e-10
6.534527e-10
-2.207131e-09
1.553678e-09
1.280001e-10
-1.695832e-09
1.567832e-09
-1.605383e-09
6.095441e-10
9.958385e-10
8.601973e-10
-1.655995e-09
2.107139e-09
-2.06854e-09
-3.859992e-11
-2.941953e-10
-1.311474e-09
1.605669e-09
1.938609e-09
-1.541574e-09
-3.97035e-10
-3.151585e-10
-1.529582e-09
1.844741e-09
-3.367397e-10
-3.04229e-09
3.37903e-09
1.956868e-09
-1.183713e-09
-1.383634e-09
3.923292e-09
-2.539658e-09
-4.315664e-09
1.027304e-09
3.28836e-09
-1.7674e-09
1.291372e-09
4.76028e-10
-1.501375e-09
1.2366e-09
2.647751e-10
1.116115e-09
-1.566853e-09
1.537461e-09
-1.278927e-10
7.95687e-10
1.062342e-09
-1.858029e-09
-1.576462e-09
1.254843e-09
1.009428e-09
-2.264606e-09
1.361387e-09
-7.95399e-10
-5.659883e-10
8.167474e-10
-1.138198e-09
3.214508e-10
-2.176319e-09
1.347858e-09
8.284616e-10
-3.86582e-10
1.271797e-09
-8.85215e-10
-2.031771e-09
4.109251e-10
-1.366912e-10
1.684865e-09
-1.548174e-09
6.28786e-09
-4.43952e-09
-5.03826e-09
-7.522571e-10
5.790518e-09
1.100341e-09
-8.629016e-10
-2.374393e-10
-1.205633e-11
1.134512e-09
-1.83565e-09
2.092731e-09
-2.570808e-10
1.043294e-09
5.901585e-10
-1.633453e-09
-2.984439e-09
1.802712e-09
1.181727e-09
3.17301e-10
-1.84315e-09
1.525849e-09
6.767709e-10
1.078014e-09
-1.754785e-09
-1.6412e-09
4.079255e-11
1.600408e-09
-1.823228e-10
-1.308167e-09
1.49049e-09
-5.281168e-11
-1.733132e-09
1.785944e-09
1.817147e-09
-1.311387e-09
9.573634e-11
-1.577886e-09
1.482149e-09
8.747406e-10
-2.220071e-09
1.34533e-09
5.2522e-10
-1.56203e-09
1.03681e-09
-7.925182e-10
1.869583e-09
-1.077065e-09
-2.036892e-09
1.993679e-10
1.837524e-09
1.936681e-09
1.176447e-10
1.278936e-09
1.079305e-10
-1.386867e-09
1.464842e-09
-6.178306e-10
-8.47011e-10
-9.179081e-10
-4.968095e-10
1.414718e-09
1.26791e-09
-1.986798e-09
7.188886e-10
-4.227227e-11
2.698429e-09
-2.656156e-09
1.912509e-09
-4.934754e-10
-1.419034e-09
1.15579e-09
-2.0586e-09
9.028105e-10
1.567991e-09
3.569928e-10
-1.924984e-09
1.936212e-09
-1.199789e-09
-7.364237e-10
1.329495e-09
2.872776e-10
-1.616773e-09
-5.457574e-10
1.881979e-09
-1.336222e-09
-1.518692e-09
9.349158e-10
5.83776e-10
-8.206475e-10
2.192364e-09
2.122447e-09
-1.053231e-09
-1.847459e-09
1.221969e-09
6.254905e-10
-6.580648e-11
-1.266436e-09
1.332242e-09
-1.459807e-09
1.33407e-09
1.257377e-10
7.573273e-10
-2.092728e-09
1.335401e-09
-8.329772e-12
1.711654e-09
-1.703324e-09
1.303085e-09
-1.185068e-09
-1.18017e-10
2.312876e-10
1.956047e-09
1.799243e-09
-1.378917e-09
-4.203256e-10
-2.921284e-09
4.64582e-09
-1.724536e-09
-4.83589e-10
-1.504101e-09
1.98769e-09
2.327652e-09
-1.136151e-09
-1.191502e-09
9.986739e-10
-1.730926e-09
7.322522e-10
1.861599e-09
-9.665037e-10
-8.950952e-10
-1.902381e-09
2.182792e-09
-2.804109e-10
-9.128253e-10
1.466293e-09
6.277873e-10
-2.094081e-09
1.070367e-09
8.097639e-10
-1.880131e-09
-1.467073e-09
1.498718e-09
-3.164525e-11
6.885091e-10
-1.092163e-09
4.036541e-10
-1.832531e-09
2.996293e-10
1.532901e-09
9.935413e-10
-2.144925e-09
1.151383e-09
4.238636e-09
-1.86986e-09
-2.368777e-09
-1.620464e-09
1.837165e-09
-2.167009e-10
2.00851e-09
-1.705673e-09
-3.028375e-10
5.562644e-11
1.2875e-09
2.024264e-09
-1.681613e-09
1.835489e-09
-4.656113e-10
-1.369877e-09
1.928592e-09
-1.400995e-09
-5.275966e-10
1.630057e-10
1.59359e-09
-1.756596e-09
3.640993e-10
1.49542e-09
-1.859519e-09
1.464163e-09
-1.124675e-09
-3.394871e-10
-2.332686e-09
-2.275609e-09
-2.885007e-10
1.335123e-09
-1.046622e-09
-1.542537e-10
-1.796061e-09
1.950314e-09
-2.22707e-09
2.525926e-10
3.76331e-10
-1.899044e-09
1.522713e-09
-1.059552e-09
-5.749386e-10
1.634491e-09
-1.145219e-09
1.36081e-09
-2.155909e-10
1.818193e-09
-1.569682e-09
-2.485111e-10
1.452464e-09
-1.823582e-09
3.711177e-10
1.524301e-09
-1.068559e-09
-4.557423e-10
-1.820658e-09
1.664637e-09
1.560214e-10
8.728417e-10
-2.364822e-09
1.49198e-09
1.735795e-09
-1.641006e-09
-9.478886e-11
-1.009757e-09
1.576319e-09
-5.665613e-10
-1.709041e-09
2.915835e-10
1.704467e-09
-4.442319e-10
-1.260235e-09
5.45291e-11
1.255708e-09
-1.310237e-09
-2.684671e-09
1.14176e-09
1.542912e-09
-1.339875e-10
1.556613e-09
-1.422625e-09
-7.316894e-10
-1.251511e-09
2.771685e-09
-1.520174e-09
-1.69446e-10
-1.277338e-09
1.446784e-09
1.997369e-09
-5.75239e-10
-1.42213e-09
1.239216e-09
-1.015999e-09
-2.23217e-10
-1.873636e-09
1.330234e-09
5.434029e-10
3.196638e-10
-2.449596e-09
2.129933e-09
-4.021762e-09
2.326142e-09
1.69562e-09
-4.840484e-09
1.540706e-09
3.299777e-09
2.749296e-09
-3.571793e-09
1.257491e-09
-1.998715e-09
7.412245e-10
-4.51772e-10
1.709263e-09
1.906425e-09
-9.652724e-10
-9.411523e-10
-2.182143e-09
1.288329e-09
1.514864e-09
-8.377982e-10
-6.770663e-10
8.244991e-10
-2.448799e-09
1.6243e-09
1.689544e-09
-1.234024e-09
-1.540263e-09
1.688082e-09
1.582994e-09
-1.317513e-10
-1.527169e-09
1.782809e-09
-2.556407e-10
-1.188723e-09
-4.814183e-10
4.100934e-10
-1.718015e-09
1.307922e-09
-1.662562e-09
1.310386e-09
3.521752e-10
1.980652e-09
-1.89117e-10
-1.791535e-09
-1.905595e-09
6.078895e-10
1.297705e-09
1.435452e-09
-6.397645e-10
1.380318e-09
3.644115e-10
-1.74473e-09
1.773021e-09
1.63123e-10
-1.936144e-09
-3.712107e-09
9.373428e-10
2.774764e-09
-1.365939e-09
-2.605822e-10
1.626521e-09
-6.455057e-09
1.755993e-09
4.699064e-09
-1.973336e-09
-3.145969e-10
2.287933e-09
3.113391e-10
-1.825479e-09
1.51414e-09
3.157542e-09
2.314727e-10
-2.332897e-09
1.582766e-09
7.501304e-10
1.262257e-09
-6.235794e-10
-6.386778e-10
-5.464487e-11
-1.748201e-09
1.802846e-09
1.441157e-09
5.264327e-10
-1.96759e-09
-1.67648e-09
1.102175e-09
5.74305e-10
8.222428e-11
-1.386016e-09
1.303791e-09
-1.91785e-09
5.582509e-10
1.359599e-09
4.469525e-10
-4.762617e-09
1.455479e-09
-1.015955e-09
-4.395243e-10
1.131234e-09
4.206471e-10
-1.551881e-09
8.232701e-10
-1.720204e-09
5.390473e-10
1.181157e-09
-4.49971e-09
7.423868e-10
3.757323e-09
1.577942e-09
2.265789e-10
-1.804521e-09
-1.585861e-11
1.671958e-09
-1.6561e-09
-7.475987e-10
1.187714e-09
8.973333e-10
1.219411e-09
-2.116745e-09
8.830889e-10
-1.613415e-09
7.30326e-10
-1.630613e-09
7.471392e-10
-2.146086e-09
1.059379e-09
1.086707e-09
-1.20525e-09
1.063792e-09
-9.860778e-10
9.849074e-10
1.170364e-12
-1.331126e-09
2.305783e-09
-9.74657e-10
1.117187e-09
1.199558e-09
2.017893e-09
1.036674e-09
-3.054567e-09
-5.067725e-10
-1.392986e-09
1.899758e-09
-1.870872e-09
1.870527e-09
3.446897e-13
-6.679544e-10
-9.115871e-10
-8.397404e-10
3.138859e-09
-2.299118e-09
1.350791e-09
-7.280124e-11
1.289886e-09
-1.777387e-09
4.87501e-10
-8.97675e-10
1.743383e-09
-8.457077e-10
7.460335e-10
-1.963751e-09
1.217718e-09
-3.011966e-09
1.765991e-09
1.245975e-09
-2.160115e-10
-1.051009e-09
1.267021e-09
-1.135144e-10
1.278894e-09
-1.16538e-09
-4.656297e-09
9.265216e-10
-1.923761e-09
9.972397e-10
-8.717214e-10
1.805102e-09
-9.333808e-10
2.353725e-11
1.304987e-09
-1.328524e-09
8.643565e-10
6.060763e-10
-1.781812e-09
8.195092e-10
9.623031e-10
1.686604e-09
-3.324867e-10
-1.354117e-09
6.218978e-10
5.828658e-10
-1.204764e-09
1.629239e-09
-5.399544e-10
-1.089285e-09
2.066117e-09
8.419298e-10
-2.908047e-09
1.798046e-09
-3.48414e-10
9.449258e-10
-1.281784e-10
-1.220719e-09
3.064001e-10
3.574298e-10
1.70872e-09
-2.06615e-09
-9.008598e-10
-9.833239e-10
1.884184e-09
1.031677e-09
-1.598773e-09
5.67096e-10
-7.747775e-10
1.698665e-09
-9.238876e-10
6.018756e-10
-1.470516e-09
8.686401e-10
4.352919e-10
1.173914e-09
-1.609206e-09
-1.445812e-09
7.762255e-10
6.695869e-10
8.152739e-10
-1.711478e-09
8.962042e-10
1.654864e-09
-4.766095e-10
-1.178255e-09
-8.647328e-10
1.704199e-09
-8.394663e-10
-1.228623e-09
2.197224e-09
-1.222113e-09
1.393518e-09
-1.714049e-10
-3.35977e-09
8.551855e-10
-1.398597e-09
1.277493e-09
1.211038e-10
-6.161232e-10
-1.50052e-09
2.116643e-09
1.084764e-09
-1.09682e-09
8.265876e-10
-1.673239e-09
8.466512e-10
1.304111e-09
5.484803e-10
-1.852591e-09
-7.146078e-10
-1.090299e-09
1.804907e-09
1.871021e-09
-6.011138e-10
-2.181762e-09
7.142588e-10
1.467504e-09
1.843191e-09
3.206944e-10
-2.163886e-09
1.871702e-09
-3.09552e-09
1.223818e-09
-2.658606e-10
-1.329159e-09
1.59502e-09
-1.147027e-09
-8.070123e-10
1.954039e-09
-7.946784e-10
-1.129878e-09
1.924556e-09
-2.078416e-09
6.186092e-10
-1.240193e-09
1.750798e-09
1.480291e-09
-8.583933e-10
5.495597e-10
-2.379207e-09
3.793115e-10
-1.234993e-09
9.44556e-10
2.904366e-10
-2.727607e-09
3.888636e-09
-1.161029e-09
4.788325e-10
1.376688e-09
1.650928e-09
-1.619107e-09
-3.182085e-11
1.364833e-09
-3.589909e-10
-1.005842e-09
9.609997e-10
9.381612e-10
-1.899161e-09
1.405615e-09
3.41271e-10
1.982044e-09
-1.155456e-09
1.333096e-09
-1.288445e-09
-4.465067e-11
1.355863e-09
-1.182081e-09
-1.737819e-10
1.715235e-09
-1.000541e-09
-7.146947e-10
1.519847e-09
-7.041093e-11
-1.449436e-09
1.142301e-10
1.601459e-09
-1.715689e-09
9.617981e-10
-2.023365e-09
1.343657e-09
-8.272363e-10
1.426389e-09
-5.991531e-10
1.959384e-09
-1.244196e-09
-7.151885e-10
-1.521348e-09
1.553249e-09
-3.190106e-11
3.13428e-09
-5.907105e-09
2.772825e-09
-4.197133e-09
4.180336e-09
1.679761e-11
1.312576e-09
-1.21684e-09
-1.112782e-09
-8.202647e-10
1.933046e-09
1.923642e-09
-1.222747e-09
-7.00895e-10
1.990269e-09
-4.482793e-10
-1.54199e-09
-7.466013e-10
-9.679389e-10
1.71454e-09
-1.486662e-09
-3.296174e-10
-4.806987e-11
-1.269088e-09
1.317158e-09
1.209489e-09
1.800235e-09
-3.009724e-09
4.768614e-10
-1.534018e-09
1.057157e-09
-7.451765e-10
-7.509377e-10
1.496114e-09
-1.051747e-09
-4.596431e-10
1.51139e-09
1.810119e-09
2.574193e-10
1.110197e-09
1.048349e-10
-1.215032e-09
1.72443e-09
-1.694442e-09
-2.99873e-11
-1.057483e-09
1.200921e-09
-1.434382e-10
-1.382544e-09
5.453461e-10
-1.123228e-09
9.764272e-10
1.468006e-10
2.041886e-09
-7.397769e-10
-1.302109e-09
-1.939848e-09
1.134587e-09
8.052611e-10
-1.268354e-09
1.409409e-09
-1.410549e-10
-6.107923e-10
1.759898e-09
-9.712577e-10
1.656425e-09
-6.851672e-10
3.551394e-10
1.386818e-09
-1.741958e-09
-7.549521e-10
-8.622727e-10
1.617225e-09
-1.565605e-09
-2.012748e-10
1.76688e-09
-1.279036e-09
8.683862e-11
-1.816149e-09
4.10652e-10
1.405497e-09
-2.202347e-11
-2.279248e-09
2.301271e-09
1.573078e-09
3.837901e-10
-1.331104e-09
2.200492e-10
1.111054e-09
-3.468823e-09
2.646591e-09
8.222322e-10
-1.493753e-09
1.970614e-09
1.867803e-10
-3.898887e-09
-1.61834e-09
-2.995108e-10
8.076965e-09
-8.076965e-09
1.580613e-09
-1.365908e-09
-1.756781e-09
4.391466e-10
1.317635e-09
1.124222e-09
6.392214e-10
-1.763443e-09
-1.271619e-09
4.587566e-09
1.250142e-09
6.516044e-09
-7.766186e-09
-1.233802e-09
1.812115e-09
-5.783131e-10
7.057545e-10
-1.822628e-09
1.116873e-09
1.128977e-09
-3.216772e-10
1.037482e-09
-1.565283e-09
5.278004e-10
8.815431e-10
-1.936579e-09
2.027868e-09
-4.776511e-10
-1.550217e-09
1.270721e-09
9.462084e-10
-2.216929e-09
1.906777e-09
-2.779378e-10
9.701138e-10
9.819526e-10
3.54088e-10
1.398701e-09
-1.995359e-09
1.854895e-09
-1.907707e-09
1.920767e-09
2.147851e-10
-2.135552e-09
1.387488e-09
2.362297e-10
-1.623718e-09
-1.125927e-09
1.604759e-09
-4.833094e-10
-4.339397e-09
4.822707e-09
-1.440211e-10
-1.377481e-09
1.521502e-09
9.309989e-10
-1.044513e-09
1.634489e-09
-1.680584e-09
6.210315e-10
2.782513e-09
3.046881e-11
-2.812981e-09
1.191725e-09
-8.11821e-10
-3.799039e-10
5.042876e-10
1.054901e-09
-1.559188e-09
-1.093336e-11
1.45209e-09
1.230977e-09
-1.850103e-09
6.191254e-10
-1.731156e-10
-2.554492e-09
3.63815e-10
-1.447489e-09
1.083674e-09
-1.354899e-09
1.413454e-09
-1.336348e-09
-1.243891e-09
1.128397e-09
1.154949e-10
1.783845e-09
4.883631e-10
-2.272208e-09
1.690814e-10
1.666407e-09
1.372686e-09
-1.258456e-09
5.430265e-10
-1.677372e-09
1.134346e-09
-9.67196e-11
-1.285825e-09
9.319988e-11
1.320877e-09
-1.879095e-09
2.408679e-10
-1.752814e-09
1.451393e-09
3.014215e-10
-1.940131e-09
1.174662e-10
1.822665e-09
-6.483206e-11
-1.490005e-09
1.554837e-09
1.375229e-09
6.514682e-10
-2.026697e-09
1.925908e-10
-1.160715e-09
9.681243e-10
2.297049e-09
1.765597e-09
1.504002e-10
-1.180717e-09
1.973525e-10
9.833644e-10
-1.155627e-09
-1.785377e-09
2.941004e-09
3.67943e-10
1.566494e-09
-1.934437e-09
-2.052526e-09
1.955478e-10
3.514916e-10
-2.200038e-09
1.848546e-09
-7.110011e-10
-2.489039e-11
-1.301686e-09
1.681281e-09
-2.359607e-10
-1.445321e-09
1.059852e-09
-1.789648e-09
7.297956e-10
-4.29071e-09
4.331218e-09
-4.050775e-11
-1.908514e-09
1.492807e-09
3.74557e-09
-4.275229e-09
5.296585e-10
6.403902e-09
1.898978e-09
5.910928e-10
1.287258e-09
-1.87835e-09
1.563486e-09
-2.476311e-09
1.50387e-09
-1.729412e-09
2.255419e-10
9.725701e-10
5.422943e-10
5.847708e-10
8.099335e-10
-1.394704e-09
-1.708658e-09
2.293429e-09
-1.234227e-09
9.869003e-10
2.473269e-10
5.724753e-11
1.533133e-09
-1.59038e-09
1.87325e-09
-1.801614e-09
9.20037e-10
5.207645e-10
2.160519e-10
1.692233e-09
-1.908285e-09
2.889292e-10
1.370894e-09
-1.617391e-09
2.46497e-10
1.643332e-09
-2.114811e-09
1.679191e-10
9.168447e-10
-1.830062e-09
1.956405e-09
-1.263439e-10
5.134489e-10
1.523224e-09
-2.036673e-09
-1.062078e-09
-5.009232e-10
1.563001e-09
5.427804e-10
-2.919065e-10
-8.581928e-10
1.150099e-09
-8.128663e-11
1.659229e-09
3.251e-10
-1.81103e-09
1.48593e-09
1.021534e-09
4.339455e-10
-1.049003e-09
-4.659513e-10
1.514954e-09
-1.273318e-10
1.767368e-09
-1.640036e-09
4.783582e-10
1.381843e-09
-1.860201e-09
-8.94851e-10
-1.013663e-09
-1.46442e-10
-2.441685e-09
-2.470917e-10
1.845081e-09
5.237766e-10
-1.21421e-09
6.904333e-10
-9.357243e-11
1.754392e-09
-1.66082e-09
6.1229e-10
-1.320819e-09
7.08529e-10
-2.072304e-09
6.313432e-10
1.440961e-09
-2.464783e-10
1.804225e-09
-1.557747e-09
1.450056e-09
8.171412e-11
-1.53177e-09
1.145238e-09
8.307574e-10
-1.975995e-09
-4.217638e-10
-1.286192e-09
1.707956e-09
1.113468e-09
-1.860069e-09
-1.235438e-09
-3.271652e-10
1.562603e-09
1.054574e-09
-1.945233e-09
-1.637438e-09
1.650304e-09
-1.286584e-11
-1.681082e-09
-5.205043e-11
-1.599003e-09
1.755631e-09
-1.566279e-10
7.237421e-10
-1.648295e-09
9.245524e-10
-1.856176e-09
3.725469e-10
1.483629e-09
-4.864009e-11
1.109723e-09
-1.061083e-09
-6.897913e-10
8.140317e-09
-7.450525e-09
-1.114914e-09
1.472344e-09
-1.974364e-09
7.647941e-10
1.20957e-09
1.29143e-09
4.3139e-09
-4.083509e-10
-3.905549e-09
1.355601e-09
-1.961579e-09
2.969427e-09
-4.241046e-09
8.001885e-10
6.35263e-10
1.533906e-09
-2.021431e-09
7.271884e-10
1.294243e-09
8.337286e-09
-8.337286e-09
1.239422e-09
-1.328896e-09
8.947401e-11
-1.025416e-10
-2.148153e-09
-2.512582e-10
-1.612397e-09
1.863655e-09
-1.668306e-09
1.71136e-09
-4.305415e-11
1.485817e-10
1.298917e-09
-1.447498e-09
1.152032e-09
2.634809e-10
-1.415513e-09
-4.892054e-10
2.176397e-09
-1.687192e-09
-2.254857e-10
-1.251179e-09
1.476665e-09
-3.338464e-10
-1.386358e-09
1.842756e-09
-5.006556e-10
-1.342067e-09
1.165503e-09
1.765642e-10
-8.616263e-10
2.15413e-09
-1.292504e-09
-5.302154e-10
2.004671e-09
-7.002103e-11
-1.713017e-09
1.783038e-09
-5.373124e-10
-1.370101e-09
1.907414e-09
4.186268e-10
1.34638e-09
-1.765007e-09
4.804136e-10
1.140239e-09
-1.929645e-09
6.612907e-10
-1.526264e-09
-6.034082e-10
2.129672e-09
-1.805319e-09
3.969357e-10
1.408384e-09
-1.981675e-09
5.148171e-12
1.976527e-09
2.970479e-10
-1.943061e-09
1.646013e-09
-1.701872e-09
1.093372e-09
-1.777938e-09
6.845658e-10
-1.746831e-09
1.500353e-09
1.314466e-09
-2.756614e-09
1.442147e-09
-4.1788e-09
2.094374e-09
2.084426e-09
-1.993743e-09
-6.909285e-10
8.091569e-10
-1.450864e-09
6.417066e-10
1.787011e-09
-9.198895e-10
-8.671216e-10
-1.304833e-09
5.197204e-10
1.634467e-09
-1.997089e-09
3.626218e-10
-1.258868e-09
-4.74515e-11
6.791712e-09
-4.197107e-09
-2.594605e-09
-1.308309e-09
4.671954e-10
8.411135e-10
8.633387e-10
-1.60553e-09
-1.17148e-09
-3.371477e-10
1.508628e-09
1.282713e-09
-1.419833e-09
-9.024494e-10
-4.288019e-10
1.331251e-09
2.691646e-09
4.922306e-09
-9.026885e-10
1.822371e-09
-9.196821e-10
1.740952e-09
1.273463e-10
-1.868298e-09
8.14264e-10
-2.09295e-09
-2.747534e-09
-9.442932e-10
1.954567e-09
-1.441865e-09
1.726609e-09
-8.266142e-10
-8.999948e-10
2.045409e-10
1.270971e-09
-1.475512e-09
4.081317e-10
-1.09341e-09
-3.96194e-10
-1.048358e-09
-4.101827e-09
4.889109e-10
1.085792e-09
1.579201e-09
-1.33346e-09
-2.457416e-10
5.960347e-10
-1.613823e-09
1.591526e-09
-6.150979e-10
9.525666e-10
2.854733e-10
-1.23804e-09
-6.289651e-10