/*--------------------------------*- C++ -*----------------------------------*\
| =========                 |                                                 |
| \\      /  F ield         | OpenFOAM: The Open Source CFD Toolbox           |
|  \\    /   O peration     | Version:  2406                                  |
|   \\  /    A nd           | Website:  www.openfoam.com                      |
|    \\/     M anipulation  |                                                 |
\*---------------------------------------------------------------------------*/
FoamFile
{
    version     2.0;
    format      ascii;
    arch        "LSB;label=32;scalar=64";
    class       surfaceScalarField;
    location    "2.14";
    object      phi;
}
// * * * * * * * * * * * * * * * * * * * * * * * * * * * * * * * * * * * * * //

dimensions      [0 3 -1 0 0 0 0];

oriented        oriented;

internalField   nonuniform List<scalar> 
326221
(
-0.001875674
-0.003850907
0.005726581
-0.0009782253
-0.0008974485
0.0005636648
-0.00154189
-0.0002489699
0.0008126347
-0.0003421289
9.315903e-05
0.0003890365
-0.0007311655
0.0007222699
-0.0003332334
0.001021189
-0.0002989193
0.0009142706
0.0001069186
0.0004101073
0.0005041633
-8.023993e-06
0.0004181313
-0.0003165711
0.0003085471
-0.0004361668
0.0001195956
-0.0001166819
-0.0003194848
0.0004350917
-0.0005517736
0.0009211438
-0.0004860521
0.00151649
-0.0005953459
0.002087515
-0.0005710256
0.002606854
-0.0005193384
0.003114297
-0.0005074435
0.003213183
-9.88856e-05
0.002216929
0.0009962535
0.0004550687
0.001761861
-0.0006461802
0.001101249
-0.0005475073
-9.867292e-05
-0.0005462287
-1.278603e-06
-0.0007278842
0.0001816555
-5.276687e-05
-0.0006751173
0.001192137
-0.001244903
0.002533156
-0.001341019
0.003983286
-0.00145013
0.00450815
-0.0005248638
0.002573408
0.001934742
-0.0006836463
0.003257054
-0.001427438
0.0007437918
0.0001020623
-0.0015295
0.001193687
-0.001091625
0.0008807311
0.0003129559
-0.0001392977
0.001020029
-0.00117255
0.001033252
-0.001811455
0.0006389053
-0.001980061
0.0001686058
-0.001718376
-0.0002616848
-0.0009891454
-0.0007292306
0.0002302744
-0.00121942
0.001738718
-0.001508444
0.002798256
-0.001059538
0.002262075
0.0005361818
0.0005047696
0.001757305
-0.005295266
0.005800036
-0.002254642
-0.003040624
-0.0003701449
-0.001884498
-0.0001025401
-0.0002676048
0.0004815715
-0.0005841116
0.0009283834
-0.0004468118
0.001361699
-0.0004333161
0.001717331
-0.0003556318
0.001986664
-0.0002693327
0.002135411
-0.0001487473
0.00204718
8.823124e-05
0.001742465
0.0003047149
0.001320612
0.0004218531
0.0008873521
0.0004332599
0.0006929956
0.0001943566
0.000730936
-3.794041e-05
0.0008823438
-0.0001514078
0.0009816682
-9.932443e-05
0.0009105924
7.107582e-05
0.0006800408
0.0002305516
0.0003884434
0.0002915973
0.0002338994
0.0001545441
0.0003814986
-0.0001475993
0.0006624756
-0.000280977
0.0007982282
-0.0001357526
0.0007818836
1.634457e-05
0.0007663968
1.548683e-05
0.000860765
-9.436818e-05
0.00104078
-0.0001800153
0.001232794
-0.0001920142
0.001405016
-0.0001722211
0.001539412
-0.0001343967
0.001644955
-0.0001055423
0.001758582
-0.0001136275
0.001830638
-7.205611e-05
0.001925987
-9.534842e-05
0.002019024
-9.303692e-05
0.002113807
-9.478375e-05
0.002236089
-0.000122282
0.002365811
-0.0001297213
0.002506832
-0.0001410211
0.002661952
-0.0001551206
0.002806412
-0.0001444597
0.002951932
-0.0001455203
0.003101976
-0.0001500439
0.00324851
-0.0001465337
0.003397114
-0.0001486038
0.003531123
-0.0001340087
0.00366103
-0.0001299075
0.003783065
-0.0001220352
0.003897315
-0.0001142496
0.004014522
-0.0001172069
0.004131227
-0.0001167054
0.004245617
-0.0001143897
0.00433413
-8.851363e-05
0.004389153
-5.502229e-05
0.004389803
-6.501521e-07
0.004336623
5.318017e-05
0.00428674
4.988237e-05
0.004246178
4.056205e-05
0.004216395
2.978304e-05
0.004177205
3.919062e-05
0.004167675
9.529734e-06
0.004168461
-7.864211e-07
0.004141167
2.72941e-05
0.004084495
5.667184e-05
0.003961019
0.0001234761
0.003809442
0.000151577
0.003419489
0.0003899532
0.002726825
0.0006926638
0.001496913
0.001229913
-0.0001233583
0.001620271
-0.001531007
0.001407649
-0.002348683
0.0008176761
-0.002495173
0.0001464895
-0.0007597393
-0.001735433
0.002119052
-0.002878792
0.002075396
4.36568e-05
-0.001462723
0.003538118
-0.004077721
0.002614999
-0.002541494
-0.001536227
-0.000301258
-0.002240237
0.002768914
-0.003070172
0.004404947
-0.001636033
0.001969815
0.002435132
0.000256657
0.001713158
0.000673186
-0.000416529
-0.0004866012
0.001159787
-0.002945175
0.002458574
-0.004545572
0.001600396
-0.004925829
0.0003802577
-0.004576291
-0.0003495382
-0.003784076
-0.000792215
-0.002481779
-0.001302297
-0.001344517
-0.001137263
-0.0002103592
-0.001134157
0.0007240538
-0.0009344129
0.000812764
-8.871022e-05
0.0005835311
0.0002292329
0.0007082599
-0.0001247287
-0.001409745
0.002118004
-0.0004273412
-0.0009824034
0.001256775
-0.001684116
0.002351897
-0.001095122
0.002855518
-0.0005036211
0.003350715
-0.0004951975
0.004004831
-0.0006541158
0.004449353
-0.0004445219
0.004792429
-0.0003430756
0.00509376
-0.0003013313
0.005322123
-0.0002283626
0.005403975
-8.185193e-05
0.005274172
0.0001298023
0.004773321
0.0005008516
0.003249465
0.001523855
0.0005948182
0.002654647
-0.001276778
0.001871596
-0.001460334
0.0001835559
-0.0007402663
-0.0007200673
0.0006083904
-0.001348657
0.001079647
-0.000471257
0.0001223136
0.0009573338
-0.001473203
0.001595517
-0.002392961
0.0009197578
-0.002035677
-0.0003572836
-0.001105645
-0.0009300318
-0.0004099527
-0.0006956926
0.0006377049
-0.001047658
0.001277537
-0.0006398318
0.0007627149
0.0005148218
-0.0002980526
0.001060767
-0.0007212379
0.0004231853
-0.0004632753
-0.0002579626
-0.0003477141
-0.0001155612
-0.0007693241
0.00042161
-0.001465005
0.0006956813
-0.001845601
0.0003805955
-0.001499106
-0.0003464954
-0.0003550767
-0.001144029
0.0001673782
-0.0005224549
0.0002026308
-3.525259e-05
0.0001124725
9.015827e-05
0.0003058771
-0.0001934046
0.0004870771
-0.0001812
0.0003410276
0.0001460495
0.001035324
-0.0006942963
0.001153588
-0.0001182639
8.869413e-06
0.001144718
0.001708867
-0.001699998
0.002744731
-0.001035864
-0.007151227
0.009895958
-0.007401202
0.0002499753
-0.006309156
-0.001092046
-0.005912528
-0.0003966284
-0.005505769
-0.0004067592
-0.005203871
-0.0003018975
-0.004928976
-0.0002748958
-0.004690646
-0.0002383291
-0.004376968
-0.0003136781
-0.004213265
-0.0001637034
-0.004072665
-0.0001406004
-0.003943395
-0.0001292695
-0.00382811
-0.0001152855
-0.0037174
-0.0001107099
-0.003612243
-0.0001051563
-0.003512178
-0.0001000657
-0.003422614
-8.956407e-05
-0.003340248
-8.236555e-05
-0.003261302
-7.894577e-05
-0.003183652
-7.765059e-05
-0.00311126
-7.23917e-05
-0.003041827
-6.943262e-05
-0.002977142
-6.4685e-05
-0.002918636
-5.85067e-05
-0.002859137
-5.949926e-05
-0.002800313
-5.88232e-05
-0.002741143
-5.917006e-05
-0.002685354
-5.578927e-05
-0.002635153
-5.020122e-05
-0.002589099
-4.605378e-05
-0.002541108
-4.799069e-05
-0.002494063
-4.704573e-05
-0.002444889
-4.917341e-05
-0.00240114
-4.374906e-05
-0.002359907
-4.123324e-05
-0.002317297
-4.260968e-05
-0.002274537
-4.275995e-05
-0.002231115
-4.342222e-05
-0.002191792
-3.932258e-05
-0.002155394
-3.639885e-05
-0.002188078
3.268437e-05
-0.00216573
-2.234791e-05
-0.00213798
-2.775026e-05
-0.002109878
-2.810201e-05
-0.002084668
-2.520965e-05
-0.002058293
-2.637531e-05
-0.00203416
-2.413252e-05
-0.002011425
-2.273549e-05
-0.001989209
-2.221542e-05
-0.001963127
-2.608207e-05
-0.00193603
-2.709712e-05
-0.001911667
-2.436304e-05
-0.001888532
-2.313476e-05
-0.001866535
-2.199761e-05
-0.001838976
-2.755872e-05
-0.001806978
-3.199818e-05
-0.001774505
-3.247274e-05
-0.001740052
-3.445287e-05
-0.001698993
-4.105917e-05
-0.001655108
-4.388489e-05
-0.001603947
-5.116085e-05
-0.001545193
-5.875436e-05
-0.001475656
-6.95366e-05
-0.001389081
-8.657526e-05
-0.001269321
-0.0001197597
-0.001106409
-0.0001629129
-0.0008586883
-0.0002477203
-0.00046119
-0.0003974983
1.630209e-05
-0.0004774921
0.0005059069
-0.0004896048
-0.0001006602
0.0006065671
-0.001940582
0.001839921
-0.0006759865
-0.001264595
0.0005894602
-0.001265447
0.0009035605
-0.0003141003
0.0009242833
-2.072278e-05
0.0009500851
-2.580178e-05
0.0009930199
-4.293479e-05
0.001027772
-3.475232e-05
0.001050694
-2.292141e-05
0.001076075
-2.5381e-05
0.001113515
-3.744004e-05
0.00114684
-3.332554e-05
0.001174673
-2.783252e-05
0.001195709
-2.103658e-05
0.001215256
-1.954648e-05
0.001233461
-1.820526e-05
0.001253284
-1.982337e-05
0.001271297
-1.801222e-05
0.001284926
-1.362914e-05
0.001298848
-1.392199e-05
0.001315789
-1.694104e-05
0.001330921
-1.513239e-05
0.001344909
-1.398807e-05
0.00136193
-1.702034e-05
0.00137587
-1.394073e-05
0.001395341
-1.947088e-05
0.001417337
-2.199607e-05
0.001433742
-1.640486e-05
0.001446544
-1.280215e-05
0.001460906
-1.436166e-05
0.001478107
-1.720101e-05
0.00148921
-1.110337e-05
0.001460763
2.844724e-05
0.001484316
-2.355305e-05
0.001513085
-2.876887e-05
0.001541535
-2.84497e-05
0.001569847
-2.83125e-05
0.001600458
-3.061044e-05
0.00162895
-2.84925e-05
0.001654513
-2.556235e-05
0.001682331
-2.781861e-05
0.001713518
-3.11867e-05
0.001747425
-3.39075e-05
0.001776554
-2.912823e-05
0.001803736
-2.718218e-05
0.001832985
-2.924937e-05
0.001865076
-3.209073e-05
0.001897831
-3.275496e-05
0.001934172
-3.634167e-05
0.001971583
-3.741029e-05
0.002008855
-3.727179e-05
0.002047086
-3.823099e-05
0.002082255
-3.516982e-05
0.002124866
-4.261101e-05
0.002169098
-4.423192e-05
0.002214314
-4.521615e-05
0.002263007
-4.869301e-05
0.002312912
-4.990496e-05
0.002368154
-5.52413e-05
0.002428351
-6.019715e-05
0.002488713
-6.036216e-05
0.002554081
-6.536816e-05
0.002628584
-7.450318e-05
0.002719315
-9.073113e-05
0.002904182
-0.000184867
0.003030648
-0.000126466
0.003173025
-0.0001423762
0.003331058
-0.000158033
0.003530185
-0.000199127
0.003735678
-0.0002054933
0.004179848
-0.0004441697
0.0003289407
-0.0008149638
0.002070285
-0.002519916
0.0002646492
-0.00234506
0.000671843
-0.0007212941
0.0009390342
-0.000287914
0.001167122
-0.0002538895
0.001377399
-0.0002532115
0.001551656
-0.0002090093
0.001694081
-0.0001653468
0.001820711
-0.0001520109
0.001945889
-0.0001626184
0.002059903
-0.0001473395
0.002164829
-0.0001327582
0.002259211
-0.0001154185
0.00234816
-0.0001084958
0.00243064
-0.0001006849
0.002510912
-0.0001000953
0.002586562
-9.366208e-05
0.002656571
-8.363812e-05
0.002723118
-8.046962e-05
0.002789259
-8.308179e-05
0.002851963
-7.783641e-05
0.00291148
-7.350463e-05
0.002971831
-7.737108e-05
0.003027688
-6.979815e-05
0.003086008
-7.779076e-05
0.003144699
-8.068703e-05
0.003200213
-7.191928e-05
0.003251476
-6.406466e-05
0.003303309
-6.619527e-05
0.003355164
-6.905544e-05
0.003404293
-6.023266e-05
0.003378645
5.40952e-05
0.003436994
-8.190212e-05
0.003498053
-8.982742e-05
0.003558891
-8.928779e-05
0.003619566
-8.898745e-05
0.003681209
-9.225355e-05
0.0037421
-8.93837e-05
0.003799997
-8.345921e-05
0.003859914
-8.773527e-05
0.00392037
-9.164343e-05
0.00398422
-9.775677e-05
0.004043834
-8.874223e-05
0.004103244
-8.659263e-05
0.004162752
-8.875778e-05
0.004224634
-9.397197e-05
0.004286268
-9.438899e-05
0.004350777
-0.0001008512
0.004416413
-0.0001030463
0.004481945
-0.0001028035
0.004549294
-0.0001055796
0.004613529
-9.940565e-05
0.004684104
-0.0001131859
0.004754438
-0.0001145661
0.004827367
-0.0001181443
0.00490155
-0.0001228768
0.004978196
-0.0001265501
0.005057734
-0.0001347803
0.005142253
-0.0001447158
0.005226609
-0.000144718
0.005315871
-0.0001546299
0.005411991
-0.0001706229
0.005520809
-0.0001995496
0.005780282
-0.0004443397
0.005926821
-0.000273005
0.00609347
-0.0003090253
0.006270868
-0.0003354312
0.006503686
-0.0004319448
0.006686873
-0.0003886806
0.007256543
-0.001013839
0.006334223
0.00125126
-0.01119097
0.0104897
0.0009512415
-0.01000487
-0.002278136
-0.009608643
-0.0007928594
-0.009172291
-0.0008431118
-0.008849391
-0.0006247974
-0.008550107
-0.0005741791
-0.008294214
-0.0004942226
-0.007888596
-0.0007192956
-0.007702425
-0.0003498744
-0.00753733
-0.0003056955
-0.007381753
-0.0002848468
-0.007239179
-0.0002578591
-0.007100088
-0.0002498013
-0.006967791
-0.000237453
-0.006838733
-0.0002291242
-0.006719994
-0.0002083027
-0.006605137
-0.0001972221
-0.006495441
-0.0001886424
-0.00638565
-0.0001874412
-0.006281783
-0.0001762586
-0.006179308
-0.0001719074
-0.006081411
-0.0001625826
-0.00598781
-0.000152108
-0.005893974
-0.000153335
-0.005801713
-0.0001510837
-0.005709028
-0.0001518556
-0.005619936
-0.0001448805
-0.005533381
-0.0001367571
-0.005450859
-0.0001285756
-0.005365108
-0.0001337416
-0.005281985
-0.0001301689
-0.005195646
-0.0001355125
-0.005114071
-0.0001253243
-0.005032433
-0.000122871
-0.004950059
-0.0001249834
-0.004866617
-0.0001262023
-0.004782365
-0.0001276741
-0.004700196
-0.000121491
-0.00461828
-0.0001183157
-0.004648328
6.273321e-05
-0.004579513
-9.116321e-05
-0.00450953
-9.773346e-05
-0.004437194
-0.0001004378
-0.004367161
-9.524269e-05
-0.004293744
-9.979224e-05
-0.004221512
-9.636485e-05
-0.004147456
-9.679095e-05
-0.004072608
-9.706401e-05
-0.003992695
-0.0001059948
-0.003910725
-0.0001090669
-0.003828209
-0.000106879
-0.003743351
-0.0001079931
-0.003656349
-0.0001089995
-0.003561632
-0.0001222759
-0.003461383
-0.0001322466
-0.003356894
-0.0001369618
-0.003247948
-0.0001433997
-0.003129452
-0.0001595552
-0.003005613
-0.0001677231
-0.002870866
-0.0001859077
-0.002725607
-0.0002040136
-0.00256482
-0.0002303237
-0.002382256
-0.0002691395
-0.002163385
-0.0003386307
-0.001903229
-0.000423069
-0.001575724
-0.0005752251
-0.001136895
-0.0008363274
-0.0005252182
-0.001089169
8.361591e-05
-0.001098439
-0.0004540229
0.001144206
0.003456184
-0.0007637094
0.001519397
-0.001738091
0.0007565675
-0.003204393
0.002002175
-0.002340729
0.002830674
-0.00133212
0.003586394
-0.001250918
0.004520239
-0.001587961
0.005236423
-0.001160705
0.005833712
-0.0009403652
0.006376341
-0.0008439602
0.006832189
-0.00068421
0.007150698
-0.0004003613
0.007329265
-4.876469e-05
0.007449381
0.0003807362
0.006913196
0.002060039
0.004153757
0.005414087
-0.0001939714
0.006219324
-0.002327388
0.002316972
-0.001724794
-0.001322662
-9.964207e-05
-0.002973808
0.0007836859
-0.001354585
-0.0007778861
0.002518906
-0.003152934
0.003970565
-0.003403103
0.001169926
-0.002284998
-0.001475389
-0.00122036
-0.001994669
-0.0002873474
-0.001628705
0.001055405
-0.00239041
0.002027359
-0.001611786
0.00182995
0.000712231
0.0002899631
0.002600754
-0.001077025
0.001790173
-0.001402021
6.703346e-05
-0.001797389
0.0002798071
-0.002523626
0.001147848
-0.002869968
0.001042023
-0.002481486
-7.886174e-06
-0.001647623
-0.001180358
-0.0003225436
-0.002469109
0.0003220748
-0.001167073
0.0004122431
-0.0001254209
0.0003732464
0.0001291549
0.0006443585
-0.0004645167
0.0009141801
-0.0004510216
0.0007589284
0.0003013012
0.001496589
-0.001431957
0.001878121
-0.0004997955
0.001816873
0.001205966
0.003082413
-0.002965538
0.0006593899
0.001387159
0.02104505
-0.003150883
0.005546765
-0.005436505
-0.001442229
-0.003593152
-0.0004248722
-0.001284961
0.0004036858
-0.00141267
0.0009990459
-0.001042172
0.001587625
-0.001021896
0.002112343
-0.0008803493
0.002547518
-0.000704508
0.002938628
-0.0005398572
0.00325915
-0.0002322902
0.003418957
0.0001449074
0.003292571
0.0005482394
0.002820389
0.0009054415
0.002250825
0.000763921
0.001814395
0.0003984898
0.001636987
2.599992e-05
0.001714491
-0.0001768282
0.001727646
5.792028e-05
0.001262778
0.0006954199
0.0005818514
0.0009725237
0.0002754347
0.0004609608
0.000451765
-0.0003239296
0.0008183362
-0.0006475482
0.001056805
-0.0003742211
0.001102301
-2.915147e-05
0.00110533
1.245739e-05
0.00123751
-0.0002265478
0.001493499
-0.0004360046
0.00178624
-0.0004847554
0.002071084
-0.0004570644
0.002316104
-0.0003794167
0.002516634
-0.0003060728
0.00271039
-0.0003073832
0.002844634
-0.0002063001
0.003022187
-0.0002729016
0.003192029
-0.000262879
0.003352251
-0.0002550061
0.003530031
-0.0003000611
0.003713637
-0.0003133274
0.003911407
-0.0003387918
0.004129211
-0.0003729238
0.004343812
-0.0003590609
0.004562565
-0.0003642737
0.004785304
-0.0003727825
0.005002971
-0.0003642014
0.005224665
-0.0003702978
0.005441358
-0.0003507017
0.005668597
-0.000357146
0.005902271
-0.000355709
0.006135091
-0.0003470694
0.006369287
-0.0003514031
0.006602032
-0.0003494505
0.00684526
-0.0003576176
0.007101888
-0.0003451423
0.00738625
-0.0003393839
0.007666011
-0.0002804115
0.007837974
-0.0001187827
0.007820947
6.690978e-05
0.007601669
0.0002598393
0.007279222
0.0003522308
0.006956793
0.0003616197
0.006745811
0.0002205111
0.006646525
9.84995e-05
0.00661359
6.022992e-05
0.006646703
2.355862e-05
0.006685593
8.458601e-05
0.00680775
2.941987e-05
0.006707062
0.0004906413
0.006368043
0.001031683
0.00537936
0.002218595
0.002937371
0.004062261
-0.0007241726
0.005069192
-0.002765182
0.002858685
-0.002686523
6.78309e-05
-0.001262247
-0.003159709
0.001952046
-0.006093085
0.000907846
0.001087857
-0.0041613
0.008607264
-0.005754817
0.004208516
-0.003112831
-0.004178214
-0.0007000184
-0.004653049
0.002573632
-0.006343822
0.005218693
-0.004281094
0.004229015
0.00342481
0.001932481
0.004009692
-0.0003431965
0.001859148
-0.003714235
0.004530826
-0.006091887
0.004836226
-0.006572472
0.002080982
-0.006199919
7.70486e-06
-0.005469441
-0.001080017
-0.004347718
-0.001913938
-0.002751619
-0.002898396
-0.001405156
-0.002483725
-0.0001136907
-0.002425623
0.0009244625
-0.001972566
0.001103624
-0.0002678717
0.0008353328
0.0004975241
0.0007921453
-8.154118e-05
0.004429546
-0.0008875509
0.01294835
-0.001752144
-3.285496e-05
-0.0005701199
-0.002723915
-0.001093931
0.001336446
-0.0007371837
-0.0002635885
0.0002488149
-0.001717164
0.0007113915
-0.00079581
0.001165745
-0.0007532727
0.0013915
-0.0001188361
0.001002374
0.0008932893
0.0001090981
0.001311407
-0.0006542728
0.001071918
-0.0007145314
0.0001798542
-0.0002129706
-0.0008210456
0.0005056011
-0.001270345
0.001159841
-0.001140292
0.001935492
-0.001370997
0.002696298
-0.001331832
0.003420386
-0.001243426
0.004072282
-0.00115934
0.004614415
-0.0006410186
0.004433701
0.001176967
0.002526556
0.003669005
5.119309e-05
0.003576612
-0.000962231
0.0009147512
-0.0012124
0.0002488905
-0.00122522
0.0001944751
2.569158e-05
-0.001926029
0.001673243
-0.002892455
0.003278668
-0.002946443
0.004915912
-0.003087374
0.005996352
-0.001605305
0.004843519
0.003087576
0.0009529291
0.007147644
-0.0006638325
0.002360553
6.08312e-06
-0.002199416
0.0001820413
-0.001267583
-0.000727712
0.001222709
-0.002211935
0.002504252
-0.003179921
0.002001238
-0.003457635
0.0009166199
-0.003288379
-6.501258e-07
-0.002780409
-0.0007696552
-0.001858239
-0.001651401
-0.0004603331
-0.002617325
0.001193176
-0.003161953
0.002442132
-0.002308494
0.002610798
0.0003675155
0.0004434009
0.003924702
0.0117902
0.0006358711
-0.008296699
0.02060918
-0.002170314
0.00277333
-0.00180458
-0.003089649
-0.001828786
0.001360653
-0.001116775
-0.0009756002
-0.0002394263
-0.002594513
0.0001598315
-0.001195068
0.0005339619
-0.001127403
0.001058468
-0.0006433422
0.00102437
0.0009273877
-3.744698e-05
0.002373223
-0.0009678453
0.002002316
-0.00094465
0.0001566589
-0.0003804803
-0.001385215
0.0005097119
-0.002160538
0.001322481
-0.001953061
0.00226019
-0.002308706
0.003174206
-0.002245848
0.004034794
-0.002104014
0.004835778
-0.001960324
0.00540409
-0.00120933
0.005659989
0.0009210681
0.004561483
0.004767512
0.001596409
0.006541686
-0.0006501927
0.003161352
-0.001432543
0.001031241
-0.001319145
8.107716e-05
0.000315774
-0.003560948
0.002279763
-0.004856444
0.004054097
-0.004720777
0.005901565
-0.004934843
0.006951487
-0.002655227
0.006054715
0.003984347
0.002764383
0.01043798
0.0004923493
0.004632587
-0.0005274149
-0.001179652
-0.001718536
-7.646142e-05
-0.00317606
0.002680233
-0.004371758
0.003699949
-0.004917594
0.002547074
-0.005022608
0.001021635
-0.004798032
-0.0002252262
-0.004164841
-0.001402847
-0.003038288
-0.002777954
-0.001388222
-0.004267392
0.0004973996
-0.005047574
0.00193081
-0.003741904
0.002226245
7.207978e-05
-0.000732832
0.006883779
-0.00640839
0.01746576
-0.004364806
-0.007480089
-0.002203778
-0.005754179
-0.0007849027
-0.002703837
0.000237585
-0.002435157
0.0009913365
-0.001795923
0.001744819
-0.001775378
0.002428115
-0.001563646
0.003005243
-0.001281636
0.003500416
-0.00103503
0.003894582
-0.0006264565
0.004249273
-0.0002097832
0.004498724
0.000298788
0.004382185
0.001021981
0.003919184
0.001226922
0.003253993
0.001063681
0.00261903
0.0006609629
0.002337743
0.0001044592
0.002290728
0.0001049344
0.001738835
0.001247314
0.0008087238
0.001902635
0.0003648253
0.0009048593
0.0005441154
-0.0005032196
0.0009309476
-0.00103438
0.001188767
-0.0006320406
0.001274549
-0.0001149333
0.001334746
-4.773948e-05
0.001520003
-0.000411805
0.001823029
-0.0007390309
0.002163654
-0.00082538
0.002497732
-0.0007911429
0.002787057
-0.0006687412
0.003020892
-0.0005399076
0.003247871
-0.0005343621
0.00340383
-0.0003622593
0.003613679
-0.0004827509
0.003814892
-0.0004640923
0.004001836
-0.00044195
0.00420903
-0.0005072547
0.004422243
-0.0005265402
0.004653735
-0.0005702845
0.004911656
-0.000630845
0.005167612
-0.0006150163
0.005430398
-0.0006270596
0.005697896
-0.0006402811
0.005958718
-0.0006250236
0.006225409
-0.0006369887
0.006487457
-0.0006127493
0.00676592
-0.0006356088
0.007054773
-0.0006445618
0.007344057
-0.0006363535
0.007634133
-0.0006414799
0.007918545
-0.0006338623
0.008209971
-0.0006490431
0.008512313
-0.0006474848
0.008856518
-0.0006835887
0.009249492
-0.0006733856
0.009650964
-0.0005202543
0.009968985
-0.000251111
0.0100426
0.0001862228
0.009822576
0.0005722562
0.009390676
0.0007935192
0.008971929
0.0006392581
0.008683951
0.0003864781
0.008528439
0.0002157419
0.008492535
5.946205e-05
0.008482583
9.453826e-05
0.008603139
-9.11357e-05
0.008518908
0.0005748723
0.008354654
0.001195936
0.007981438
0.002591811
0.006553277
0.005490423
0.003004126
0.008618343
-0.0007029928
0.006565804
-0.001618842
0.0009836798
-0.0009010064
-0.003877545
0.0006694979
-0.007663589
-0.001741391
0.003498745
-0.006479276
0.01334515
-0.006730479
0.004459719
-0.003622347
-0.007286345
-0.001038656
-0.00723674
0.002512553
-0.009895031
0.005434057
-0.007202598
0.005080841
0.003778026
0.002290287
0.006800246
-0.002352512
0.006501947
-0.0065472
0.008725514
-0.007860756
0.006149782
-0.00786986
0.002090085
-0.007520794
-0.000341361
-0.006575023
-0.002025788
-0.005087044
-0.003401917
-0.003075255
-0.004910185
-0.001415426
-0.004143554
0.0001417204
-0.00398277
0.001323382
-0.003154227
0.001473675
-0.0004181653
0.001106441
0.0008647586
0.0006785194
0.0003463802
-0.002002338
0.007110404
-0.001399307
-0.002341122
0.0002587099
-0.00486241
0.001848622
-0.003930641
0.00305425
-0.002537748
0.004023456
-0.002220123
0.005195357
-0.002759863
0.006108395
-0.002073743
0.006853034
-0.001685005
0.007508561
-0.001499487
0.008061642
-0.001237291
0.00843811
-0.0007768285
0.008598935
-0.0002095907
0.00867308
0.0003065918
0.00875453
0.001978589
0.007429795
0.006738822
0.002832998
0.01081612
-0.001718937
0.006868907
-0.00268528
-0.0003563184
-0.0011592
-0.004499888
-0.0004920617
-0.002021723
-0.002337961
0.004364805
-0.004353261
0.005985865
-0.00376166
0.0005783258
-0.002356387
-0.002880662
-0.00114982
-0.003201237
5.95173e-05
-0.002838043
0.001616055
-0.003946948
0.002720061
-0.002715792
0.002715419
0.0007168736
0.001141848
0.004174325
-0.0009801604
0.003912181
-0.002162067
0.00124894
-0.002941149
0.001058889
-0.003544897
0.001751595
-0.003358851
0.0008559764
-0.002603384
-0.0007633529
-0.001610084
-0.002173658
-9.554738e-05
-0.003983645
0.0007088825
-0.001971503
0.0008101865
-0.0002267249
0.0007886198
0.0001507216
0.001082536
-0.0007584333
0.001315546
-0.0006840311
0.001078724
0.0005381229
0.001944673
-0.002297906
0.002406816
-0.0009619378
0.002661317
0.0009514651
0.003110892
-0.003415113
-0.001689897
0.006187948
-0.01305884
0.03241399
-0.01365273
0.001545123
-0.01247404
-0.003456819
-0.01195561
-0.001311291
-0.01146742
-0.001331303
-0.01110403
-0.0009881851
-0.01077248
-0.0009057325
-0.01049554
-0.0007711589
-0.01003082
-0.001184017
-0.009827151
-0.0005535453
-0.009643559
-0.0004892869
-0.009470142
-0.0004582645
-0.009310439
-0.0004175623
-0.00915385
-0.00040639
-0.009004807
-0.000386496
-0.008858383
-0.0003755482
-0.008722692
-0.0003439942
-0.008589925
-0.0003299887
-0.008462797
-0.0003157705
-0.008334811
-0.0003154274
-0.008213192
-0.000297877
-0.008092238
-0.000292861
-0.007975652
-0.0002791696
-0.007863151
-0.0002646083
-0.007750077
-0.0002664091
-0.007639009
-0.0002621518
-0.007527151
-0.0002637141
-0.007418918
-0.0002531136
-0.007312183
-0.000243492
-0.007209506
-0.0002312522
-0.007102432
-0.0002408153
-0.006998841
-0.0002337599
-0.006890849
-0.0002435048
-0.006787785
-0.0002283883
-0.0066835
-0.0002271557
-0.006578102
-0.000230381
-0.006471217
-0.0002330881
-0.006362749
-0.0002361417
-0.006254898
-0.0002293422
-0.006144596
-0.0002286178
-0.00617258
9.071789e-05
-0.006074323
-0.0001894202
-0.005981386
-0.0001906706
-0.005884651
-0.0001971728
-0.005790911
-0.0001889829
-0.005692725
-0.0001979786
-0.005596031
-0.0001930585
-0.005496734
-0.0001960883
-0.005396688
-0.0001971102
-0.005290962
-0.0002117209
-0.005183233
-0.0002167959
-0.005074929
-0.0002151828
-0.004963671
-0.0002192505
-0.004850194
-0.0002224772
-0.004728352
-0.0002441176
-0.004601033
-0.0002595657
-0.004469608
-0.0002683871
-0.004333768
-0.0002792397
-0.004187592
-0.0003057307
-0.004036757
-0.0003185586
-0.003874522
-0.0003481422
-0.003702072
-0.0003764643
-0.003513697
-0.000418698
-0.003304127
-0.0004787095
-0.003058853
-0.0005839047
-0.002775162
-0.0007067606
-0.002428265
-0.0009221218
-0.001979276
-0.001285317
-0.001403196
-0.001665248
-0.001133251
-0.001368384
-0.001612768
0.001623723
-0.002574865
0.004418281
-0.001139217
-0.003955565
1.418081e-05
-0.003498457
0.0005320819
-0.001239195
0.0009685252
-0.0007243573
0.001302209
-0.0005875737
0.001594985
-0.0005459872
0.001836088
-0.0004501123
0.002033162
-0.0003624209
0.002206861
-0.0003257097
0.002378366
-0.0003341231
0.002535896
-0.0003048698
0.002682779
-0.000279641
0.002816361
-0.0002490006
0.002943316
-0.0002354506
0.003062201
-0.0002195708
0.003178298
-0.0002161922
0.003289185
-0.0002045486
0.003393265
-0.000187718
0.003492931
-0.0001801362
0.003591654
-0.0001818041
0.003686273
-0.0001724555
0.003776582
-0.0001638144
0.003867854
-0.0001686426
0.003952821
-0.0001547654
0.004039888
-0.0001648571
0.004126878
-0.0001676779
0.004210764
-0.0001558053
0.004289879
-0.0001431792
0.004369409
-0.0001457252
0.004447455
-0.0001471017
0.004529409
-0.0001421863
0.004517203
6.630059e-05
0.004604641
-0.0001693398
0.004692143
-0.0001773293
0.004777696
-0.0001748411
0.004862286
-0.0001735769
0.004947191
-0.000177159
0.005031344
-0.000173537
0.005111838
-0.000163953
0.005194074
-0.0001699708
0.005275362
-0.0001729318
0.005360402
-0.0001827967
0.005440703
-0.0001690436
0.005521168
-0.0001670571
0.005600883
-0.0001684725
0.005682719
-0.0001758086
0.005763472
-0.0001751417
0.005846814
-0.000184193
0.005930978
-0.000187211
0.006014632
-0.000186457
0.006100634
-0.0001915816
0.00618243
-0.000181202
0.006270756
-0.0002015113
0.00635755
-0.0002013604
0.006447164
-0.0002077586
0.006537266
-0.0002129785
0.006629585
-0.0002188687
0.006723946
-0.0002291412
0.006823155
-0.0002439251
0.006921597
-0.00024316
0.007024507
-0.0002575401
0.007134252
-0.0002803676
0.007252399
-0.0003176967
0.007552387
-0.0007443282
0.007708594
-0.0004292116
0.007890412
-0.0004908433
0.008085734
-0.0005307531
0.008344409
-0.0006906197
0.008567307
-0.0006115791
0.009161058
-0.00160759
0.00211562
-0.001472625
0.00307722
-0.00556016
-0.0002975356
-0.004673546
0.0005022985
-0.002039029
0.001064814
-0.001286873
0.001475775
-0.0009985348
0.001834413
-0.0009046253
0.002131085
-0.000746784
0.002374214
-0.0006055502
0.002587401
-0.0005388967
0.002797577
-0.0005442992
0.002990515
-0.0004978076
0.003171364
-0.0004604902
0.003336494
-0.0004141302
0.003493642
-0.0003925993
0.003641155
-0.0003670835
0.003784981
-0.0003600182
0.003923058
-0.0003426253
0.004052566
-0.0003172261
0.004177123
-0.0003046936
0.00430021
-0.000304891
0.004418369
-0.0002906147
0.004531274
-0.0002767189
0.004645539
-0.0002829076
0.004751688
-0.0002609141
0.004860552
-0.0002737218
0.004969242
-0.0002763671
0.005073834
-0.0002603976
0.005173407
-0.0002427524
0.005273039
-0.0002453568
0.005370872
-0.000244935
0.00547442
-0.0002457343
0.005466534
7.418651e-05
0.005573863
-0.0002766688
0.00568308
-0.0002865456
0.005788746
-0.0002805074
0.005893241
-0.0002780721
0.005998178
-0.0002820956
0.006101852
-0.0002772116
0.006201264
-0.0002633651
0.00630247
-0.0002711764
0.006402409
-0.0002728706
0.006506611
-0.0002869988
0.006605113
-0.000267546
0.006703711
-0.0002656551
0.0068015
-0.0002662615
0.006901391
-0.0002756991
0.006999852
-0.0002736025
0.007101376
-0.0002857179
0.007203576
-0.0002894104
0.007305169
-0.00028805
0.007409625
-0.0002960373
0.007508533
-0.00028011
0.00761572
-0.0003086982
0.00772027
-0.0003059107
0.007827979
-0.0003154674
0.007936557
-0.0003215564
0.008046766
-0.0003290784
0.008159952
-0.0003423267
0.00827811
-0.0003620831
0.008395139
-0.0003601889
0.008517271
-0.0003796725
0.008647362
-0.0004104584
0.008969936
-0.0006402711
0.009142463
-0.0009168548
0.009323932
-0.0006106807
0.009538134
-0.0007050454
0.009775671
-0.0007682902
0.01008127
-0.0009962173
0.01040149
-0.0009317995
0.01094495
-0.002151054
0.01031366
0.002746907
-0.01624337
0.0160018
0.001786688
-0.01512544
-0.004574745
-0.0144099
-0.002026831
-0.01382921
-0.00191199
-0.01338625
-0.00143115
-0.01299137
-0.001300609
-0.01266572
-0.001096809
-0.01236583
-0.001483905
-0.01187145
-0.00104793
-0.01165624
-0.000704498
-0.01145256
-0.0006619432
-0.01126557
-0.0006045543
-0.01108227
-0.0005896874
-0.01090776
-0.0005610014
-0.01073649
-0.0005468272
-0.01057739
-0.0005030894
-0.01042225
-0.0004851283
-0.0102735
-0.0004645258
-0.01012378
-0.0004651407
-0.009981541
-0.0004401176
-0.009840361
-0.0004340407
-0.009703778
-0.0004157533
-0.009572644
-0.0003957423
-0.009440589
-0.0003984637
-0.009311067
-0.000391674
-0.009180859
-0.000393922
-0.009054626
-0.0003793469
-0.008930237
-0.0003678807
-0.008810546
-0.0003509429
-0.008685488