/*--------------------------------*- C++ -*----------------------------------*\
| =========                 |                                                 |
| \\      /  F ield         | OpenFOAM: The Open Source CFD Toolbox           |
|  \\    /   O peration     | Version:  2406                                  |
|   \\  /    A nd           | Website:  www.openfoam.com                      |
|    \\/     M anipulation  |                                                 |
\*---------------------------------------------------------------------------*/
FoamFile
{
    version     2.0;
    format      ascii;
    arch        "LSB;label=32;scalar=64";
    class       volScalarField;
    location    "0.96";
    object      p;
}
// * * * * * * * * * * * * * * * * * * * * * * * * * * * * * * * * * * * * * //

dimensions      [0 2 -2 0 0 0 0];

internalField   nonuniform List<scalar> 
217010
(
-93.11106
-48.88337
-57.66557
-58.39581
-53.55954
-50.48656
-50.72807
-50.49571
-50.42564
-50.41613
-50.37525
-50.05633
-49.81542
-51.14084
-50.61392
-50.4829
-50.38338
-50.1845
-50.24333
-50.84725
-52.08114
-53.95881
-55.28344
-55.33821
-54.08455
-54.04218
-54.37856
-56.07339
-60.15815
-62.0184
-56.57353
-51.88356
-54.55152
-56.81941
-57.49435
-57.52352
-56.04489
-53.06223
-49.69558
-47.25975
-46.01261
-51.27332
-59.69758
-68.71527
-76.50601
-81.23968
-79.75452
-78.41582
-73.62961
-72.02478
-74.6507
-88.34427
-102.3972
-111.2322
-104.5199
-89.45616
-87.41389
-93.39573
-98.51262
-101.9629
-103.897
-104.9866
-105.8293
-106.5438
-106.9097
-106.9343
-106.9246
-107.0287
-107.1908
-107.3011
-107.2708
-107.052
-106.6361
-106.043
-105.2831
-104.3424
-103.2227
-101.9478
-100.5313
-98.97764
-97.31171
-95.55631
-93.67045
-91.57584
-89.40242
-87.11845
-84.77303
-82.33346
-79.87148
-77.29835
-74.57752
-71.92314
-69.28563
-66.58878
-63.83679
-61.03176
-58.29792
-55.619
-52.92021
-50.20469
-47.49256
-44.82668
-42.2165
-39.67787
-37.13626
-34.66881
-32.30942
-30.05757
-27.86801
-25.74208
-23.75531
-21.8979
-20.10595
-18.44782
-16.87214
-15.35157
-13.93973
-12.66484
-11.51009
-10.50135
-9.609412
-8.828046
-8.172663
-7.603216
-7.19734
-6.888309
-6.703837
-6.612674
-6.643681
-6.771863
-6.997744
-7.310921
-7.69873
-8.150732
-8.664534
-9.25293
-9.882825
-10.55208
-11.27601
-12.03226
-12.81072
-13.61342
-14.42639
-15.23672
-16.05696
-16.87655
-17.78631
-18.51143
-20.28372
-18.03172
-39.07146
-23.50697
-30.99596
-29.73522
-30.21728
-35.48007
-38.21743
-37.6148
-33.29423
-26.10683
-17.56102
-9.402951
-3.341186
-0.6939409
0.1213969
-1.362091
-2.867527
-4.072475
-4.79566
-5.180947
-4.132682
-0.3245354
-0.4876022
-7.480518
-10.88114
-9.966732
-6.969717
-5.221292
-4.634341
-4.821146
-4.62905
-3.833736
-2.499272
-1.020351
-0.3601663
-0.9069355
-1.123877
-1.266868
-1.695104
-2.461317
-3.105452
-3.118391
-2.18057
-1.438061
-1.31264
-1.754758
-1.293732
-2.939934
-0.4324986
-23.62839
5.090359
5.498934
8.864861
10.69297
12.48634
14.01644
15.40413
16.72811
17.88506
18.99891
20.03914
21.01832
21.96512
22.87773
23.75078
24.57909
25.37422
26.15318
26.91041
27.64629
28.36432
29.05755
29.72531
30.39173
31.0533
31.70796
32.3427
32.95421
33.55193
34.14856
34.7469
35.34192
35.91337
36.4743
37.03867
37.59821
38.15791
38.71596
39.28135
39.82748
40.39459
40.93744
41.48102
42.02079
42.56335
43.10061
43.63241
44.17006
44.72221
45.27706
45.82319
46.36302
46.905
47.46771
48.04279
48.61279
49.18738
49.77169
50.35858
50.95474
51.55476
52.15622
52.78479
53.46143
54.12887
54.77051
55.48247
56.27911
56.96701
57.11104
58.8587
41.42571
44.12644
45.04552
45.17336
44.48753
43.56964
42.69047
41.87161
41.09059
40.31826
39.51088
38.68628
37.87527
37.09761
36.33748
35.57752
34.80803
34.0386
33.28959
32.54925
31.79755
31.04527
30.30277
29.55085
28.80455
28.05005
27.27007
26.49861
25.74443
24.98563
24.21209
23.39374
22.62577
21.82031
20.9939
20.17016
19.34606
18.49567
17.63322
16.77232
15.89584
14.9791
14.02485
13.07366
12.13007
11.15647
10.14264
9.104309
8.025922
6.911
5.771626
4.599314
3.417003
2.167539
0.8475299
-0.5135816
-1.943058
-3.427322
-5.006835
-6.698047
-8.47572
-10.35456
-12.41904
-14.64957
-17.17619
-19.89747
-22.96292
-26.65978
-30.67706
-37.72445
-41.14953
43.43168
43.8785
44.98781
45.19327
44.56959
43.66886
42.78354
41.95689
41.17014
40.39541
39.58679
38.75944
37.94373
37.16121
36.39746
35.63485
34.86288
34.09031
33.33817
32.59522
31.84132
31.08672
30.34198
29.58784
28.83981
28.08367
27.3017
26.52832
25.77207
25.01156
24.23642
23.41543
22.64829
21.83983
21.01187
20.18672
19.3613
18.50944
17.64576
16.78351
15.90584
14.98751
14.0317
13.07923
12.13451
11.15928
10.14409
9.104581
8.02444
6.907513
5.766123
4.591732
3.408139
2.155277
0.832274
-0.5315494
-1.96485
-3.452143
-5.03687
-6.733712
-8.516042
-10.40077
-12.47221
-14.71065
-17.25761
-19.99059
-23.07762
-26.79634
-30.89826
-37.87676
-42.36367
4.394424
5.442983
8.756197
10.62677
12.42785
13.96863
15.36042
16.69628
17.85702
18.97293
20.01677
20.99835
21.94753
22.86262
23.73818
24.5686
25.36509
26.14557
26.90441
27.64163
28.36093
29.05562
29.72422
30.39147
31.05392
31.7096
32.3454
32.95775
33.55632
34.15384
34.75313
35.34914
35.92157
36.48332
37.04872
37.60921
38.17003
38.72929
39.2967
39.8427
40.41154
40.95552
41.50048
42.04156
42.58538
43.12397
43.65728
44.19677
44.75074
45.30716
45.85463
46.39623
46.94065
47.50594
48.08335
48.65552
49.23265
49.81966
50.40943
51.00843
51.61136
52.2173
52.85198
53.53292
54.20263
54.85105
55.57477
56.36942
57.01361
57.18017
58.3339
-37.57755
-24.02538
-30.67023
-29.74685
-29.91176
-35.24608
-38.29813
-37.99145
-33.86266
-26.75266
-18.16274
-9.865295
-3.59909
-0.7916654
0.1190056
-1.306054
-2.813921
-4.050758
-4.809291
-5.22001
-4.23095
-0.398892
-0.3685602
-7.409807
-10.9205
-10.03105
-7.00921
-5.231616
-4.630466
-4.825489
-4.640311
-3.846432
-2.505984
-1.020844
-0.356876
-0.9075504
-1.127008
-1.272241
-1.706811
-2.475343
-3.119972
-3.119262
-2.172892
-1.434631
-1.320002
-1.758964
-1.318706
-2.932885
-0.9946704
-20.49803
-73.93259
-86.71174
-100.9941
-110.9798
-105.5183
-90.51284
-87.29245
-92.91845
-98.07162
-101.6623
-103.7276
-104.883
-105.7492
-106.4934
-106.8964
-106.9385
-106.929
-107.0329
-107.199
-107.3139
-107.2904
-107.0796
-106.671
-106.0842
-105.3306
-104.3962
-103.2814
-102.0094
-100.5964
-99.04458
-97.37808
-95.62344
-93.73944
-91.63291
-89.46211
-87.17643
-84.82913
-82.38552
-79.9198
-77.34619
-74.61773
-71.95741
-69.31698
-66.61572
-63.86001
-61.04918
-58.31016
-55.62777
-52.92491
-50.2061
-47.4902
-44.82106
-42.20686
-39.66545
-37.12031
-34.64963
-32.28746
-30.03311
-27.84136
-25.71338
-23.72482
-21.86638
-20.07313
-18.41395
-16.83721
-15.31666
-13.90436
-12.63093
-11.47838
-10.47192
-9.582008
-8.80307
-8.150241
-7.585352
-7.183588
-6.878697
-6.698837
-6.612036
-6.648587
-6.782203
-7.014312
-7.333571
-7.727261
-8.185036
-8.705559
-9.301239
-9.936336
-10.61216
-11.34361
-12.10542
-12.88964
-13.69779
-14.51533
-15.33065
-16.15666
-16.98632
-17.89605
-18.68144
-20.22458
-18.88693
-86.3621
-49.78869
-57.45481
-58.55504
-53.71882
-50.52548
-50.72665
-50.49907
-50.42555
-50.4169
-50.38042
-50.06076
-49.81712
-51.14258
-50.61543
-50.48361
-50.38346
-50.18237
-50.24306
-50.85347
-52.09654
-53.98604
-55.31327
-55.35067
-54.07083
-54.04453
-54.40695
-56.16147
-60.30246
-62.06281
-56.41579
-51.83926
-54.64979
-56.90373
-57.5339
-57.50794
-55.91717
-52.87935
-49.53454
-47.17598
-46.16935
-51.80371
-60.4527
-69.53143
-77.27658
-81.65956
-79.81332
-78.14294
-73.31405
-72.03612
-78.2864
-50.1418
-57.15033
-58.70616
-53.89705
-50.57272
-50.72327
-50.50103
-50.42382
-50.41796
-50.38815
-50.07004
-49.82738
-51.1583
-50.61832
-50.48584
-50.38387
-50.17606
-50.23775
-50.85937
-52.11746
-54.02097
-55.35324
-55.39411
-54.09152
-54.06294
-54.43646
-56.29053
-60.48481
-62.1857
-56.30347
-51.79542
-54.61814
-56.96573
-57.65535
-57.58253
-55.91281
-52.81265
-49.459
-47.14454
-46.38467
-52.28721
-60.968
-69.96911
-77.53223
-81.91664
-80.02994
-78.22332
-73.18368
-71.73165
-73.34936
-85.69725
-100.3201
-111.2168
-106.6722
-91.15686
-87.12182
-92.57125
-97.91425
-101.608
-103.6962
-104.8636
-105.7194
-106.4552
-106.8833
-106.9652
-106.9761
-107.0795
-107.2357
-107.3413
-107.3128
-107.1003
-106.6908
-106.1032
-105.3501
-104.4166
-103.2993
-102.0253
-100.6119
-99.05883
-97.39329
-95.64088
-93.75307
-91.66759
-89.48376
-87.19614
-84.85103
-82.40606
-79.93905
-77.37064
-74.63815
-71.97456
-69.33522
-66.63248
-63.87739
-61.06303
-58.32079
-55.63831
-52.93366
-50.21266
-47.49354
-44.82297
-42.20522
-39.66419
-37.11649
-34.64354
-32.27955
-30.02413
-27.83172
-25.7013
-23.71034
-21.85336
-20.05802
-18.39856
-16.82197
-15.30054
-13.88779
-12.61455
-11.46233
-10.45705
-9.5676
-8.789282
-8.137744
-7.575141
-7.176256
-6.872958
-6.696503
-6.612479
-6.653546
-6.789617
-7.025065
-7.346825
-7.742635
-8.202268
-8.72541
-9.323624
-9.959213
-10.63742
-11.37093
-12.13309
-12.91849
-13.72779
-14.54511
-15.36005
-16.18633
-17.0196
-17.93149
-18.71207
-20.23101
-19.05311
-35.07584
-24.31481
-30.53998
-29.87858
-29.8714
-35.20124
-38.36224
-38.00136
-34.02592
-27.08443
-18.56997
-10.26232
-3.872508
-0.9180103
0.08725689
-1.305692
-2.808522
-4.112694
-4.913763
-5.287621
-4.212328
-0.4029148
-0.2530478
-7.443207
-11.05026
-10.12985
-7.034181
-5.22468
-4.633113
-4.8412
-4.660724
-3.862579
-2.517064
-1.021488
-0.3493174
-0.9093977
-1.134277
-1.282776
-1.722602
-2.494684
-3.169767
-3.148992
-2.181154
-1.440205
-1.33285
-1.764911
-1.312838
-2.937884
-1.230832
-16.34418
4.241486
5.388441
8.713766
10.59653
12.40251
13.94857
15.34511
16.67591
17.84753
18.96305
20.00834
20.99056
21.94003
22.85642
23.73293
24.56468
25.3607
26.14192
26.90139
27.63923
28.3588
29.05462
29.72292
30.39049
31.05357
31.71006
32.34681
32.95921
33.55771
34.15531
34.7549
35.3521
35.92505
36.48594
37.05192
37.61256
38.17459
38.73422
39.3004
39.84956
40.4155
40.96058
41.50634
42.04745
42.59181
43.13083
43.66408
44.20338
44.75847
45.31619
45.86377
46.4055
46.94941
47.51551
48.0949
48.66743
49.24457
49.83314
50.42327
51.02292
51.62696
52.23409
52.86905
53.55321
54.22544
54.87393
55.60377
56.39275
57.00435
57.17977
57.97069
44.34654
43.82557
44.96569
45.20306
44.59998
43.70036
42.81062
41.97907
41.1918
40.41908
39.60878
38.77937
37.96063
37.17713
36.41277
35.65028
34.87691
34.10243
33.35043
32.60757
31.85232
31.09728
30.35285
29.59701
28.85027
28.09381
27.3092
26.53556
25.77964
25.01888
24.24131
23.42441
22.65427
21.8477
21.01774
20.19204
19.36654
18.51295
17.64903
16.78735
15.91014
14.99022
14.03265
13.08012
12.13622
11.15983
10.14412
9.104371
8.02251
6.904453
5.762028
4.586868
3.404416
2.149145
0.8246734
-0.5391237
-1.975061
-3.461855
-5.050064
-6.749128
-8.532413
-10.41872
-12.49284
-14.74869
-17.28869
-20.03183
-23.12944
-26.86428
-30.99271
-37.98754
-42.42172
45.53304
43.94005
44.91603
45.20434
44.65443
43.78412
42.89919
42.06433
41.27591
40.50302
39.6904
38.85883
38.03678
37.24985
36.48236
35.71656
34.94039
34.16248
33.40852
32.66219
31.90362
31.14639
30.39973
29.64061
28.89299
28.13418
27.34547
26.57153
25.81352
25.05102
24.27045
23.45539
22.67758
21.87303
21.03946
20.21263
19.38629
18.52935
17.6647
16.80236
15.9245
15.00099
14.04071
13.08769
12.14419
11.16483
10.14785
9.107332
8.022302
6.902465
5.758113
4.580769
3.399541
2.138711
0.8108625
-0.5538036
-1.995613
-3.482675
-5.078354
-6.783205
-8.569899
-10.46075
-12.54601
-14.81006
-17.35575
-20.11784
-23.23635
-26.98754
-31.19001
-38.07981
-42.57378
4.043812
5.335311
8.611831
10.53681
12.34581
13.90357
15.3093
16.64233
17.81979
18.93803
19.98731
20.97133
21.9228
22.84229
23.72118
24.55595
25.35217
26.13544
26.89658
27.63589
28.35631
29.05457
29.72241
30.39074
31.05503
31.71296
32.35169
32.96478
33.56382
34.16174
34.7621
35.36144
35.93623
36.49653
37.06398
37.62531
38.18973
38.7508
39.31552
39.8719
40.43581
40.98213
41.52964
42.0723
42.61785
43.15897
43.69395
44.23498
44.79173
45.35161
45.90089
46.445
46.99126
47.55928
48.14188
48.71679
49.29628
49.88758
50.48068
51.08284
51.69014
52.30208
52.94087
53.62762
54.3038
54.9586
55.69479
56.46483
57.01468
57.16297
57.46889
-32.02937
-24.50515
-30.4042
-30.10852
-30.16026
-35.43229
-38.60455
-38.58048
-34.69891
-27.79753
-19.25868
-10.86424
-4.279701
-1.115787
0.01676151
-1.324088
-2.792527
-4.134906
-5.0621
-5.385227
-4.204009
-0.332155
-0.09566424
-7.597772
-11.33618
-10.30159
-7.023706
-5.178203
-4.635189
-4.864201
-4.689742
-3.884983
-2.53205
-1.021819
-0.3409761
-0.9142734
-1.144801
-1.295574
-1.730287
-2.512716
-3.26166
-3.195448
-2.19729
-1.455481
-1.356948
-1.778602
-1.304
-2.93495
-1.814978
-12.62442
-72.53611
-84.11691
-98.83868
-110.6955
-107.7797
-92.31408
-87.26216
-92.0816
-97.30802
-101.1421
-103.4528
-104.7636
-105.6686
-106.4179
-106.8788
-107.0116
-107.0501
-107.1524
-107.2966
-107.3919
-107.3595
-107.1492
-106.7436
-106.1608
-105.4148
-104.495
-103.3878
-102.1121
-100.6982
-99.14494
-97.47624
-95.7226
-93.82411
-91.73881
-89.55572
-87.26093
-84.91644
-82.46374
-79.98934
-77.42611
-74.68083
-72.00868
-69.36939
-66.66136
-63.90534
-61.08252
-58.33313
-55.65049
-52.94289
-50.21827
-47.49333
-44.82053
-42.19619
-39.65605
-37.10393
-34.62643
-32.25861
-30.00163
-27.80929
-25.67548
-23.68008
-21.82588
-20.02727
-18.36561
-16.78963
-15.26891
-13.85454
-12.58446
-11.43546
-10.43275
-9.54473
-8.76786
-8.119399
-7.561195
-7.166845
-6.866091
-6.695
-6.614298
-6.662354
-6.802682
-7.044998
-7.372569
-7.774295
-8.239679
-8.769637
-9.376281
-10.01631
-10.70207
-11.44453
-12.21232
-13.00472
-13.82172
-14.64498
-15.46702
-16.30337
-17.15267
-18.06352
-18.88491
-20.23993
-19.3361
-71.90568
-51.02387
-56.70903
-58.95697
-54.20534
-50.64353
-50.71502
-50.5047
-50.42131
-50.42125
-50.40401
-50.08866
-49.84986
-51.17913
-50.6232
-50.48926
-50.38386
-50.16378
-50.22379
-50.86325
-52.14922
-54.08224
-55.42177
-55.47045
-54.15405
-54.0915
-54.44391
-56.48453
-60.80937
-62.44278
-56.24432
-51.76838
-54.6532
-57.06628
-57.81718
-57.60219
-55.84053
-52.70933
-49.38187
-47.1526
-46.72101
-52.99547
-61.81217
-70.85994
-78.43122
-82.58352
-80.66263
-78.54955
-72.45389
-70.90824
-67.49436
-51.91275
-56.28851
-59.3737
-54.62771
-50.7515
-50.70074
-50.50603
-50.41652
-50.42714
-50.43164
-50.12094
-49.88758
-51.21685
-50.6322
-50.49424
-50.3803
-50.14203
-50.19826
-50.86301
-52.19475
-54.18084
-55.52362
-55.57251
-54.23448
-54.10302
-54.34304
-56.71855
-61.27325
-62.84854
-56.25277
-51.88381
-54.82073
-57.26771
-58.04176
-57.72948
-55.8463
-52.66104
-49.35801
-47.23648
-47.19275
-53.90762
-62.82099
-71.88055
-79.30995
-83.26879
-81.50815
-78.80122
-71.34796
-69.55578
-71.5427
-82.43411
-97.15191
-110.4552
-108.7815
-94.21336
-88.19639
-92.1881
-97.0664
-100.7448
-103.139
-104.6065
-105.5882
-106.365
-106.8643
-107.049
-107.1168
-107.2207
-107.3541
-107.438
-107.3992
-107.1885
-106.7809
-106.1954
-105.4393
-104.5189
-103.4199
-102.1518
-100.7445
-99.19678
-97.52889
-95.78157
-93.88324
-91.80563
-89.61587
-87.31544
-84.97765
-82.51793
-80.03689
-77.49107
-74.72808
-72.04593
-69.41359
-66.69999
-63.94498
-61.10973
-58.35138
-55.67203
-52.96099
-50.23336
-47.50128
-44.82766
-42.19369
-39.65688
-37.09794
-34.61401
-32.24283
-29.98622
-27.79401
-25.6543
-23.65212
-21.80363
-19.9973
-18.33465
-16.7622
-15.24097
-13.8228
-12.55736
-11.40941
-10.40953
-9.524435
-8.74698
-8.101252
-7.547288
-7.159093
-6.860722
-6.696266
-6.618508
-6.675359
-6.819246
-7.069584
-7.402649
-7.809413
-8.279272
-8.815901
-9.430028
-10.07078
-10.76325
-11.51212
-12.28158
-13.07854
-13.89925
-14.723
-15.5461
-16.3848
-17.23628
-18.14128
-18.96672
-20.22556
-19.53516
-28.92706
-24.31366
-30.30014
-30.53058
-30.73854
-35.77452
-38.84431
-38.80642
-35.31682
-28.6165
-20.09111
-11.63743
-4.84196
-1.421617
-0.1133337
-1.386695
-2.805713
-4.205089
-5.268379
-5.553545
-4.276544
-0.3048015
0.01226013
-7.904933
-11.81973
-10.58551
-6.963844
-5.068077
-4.618066
-4.890022
-4.730684
-3.920137
-2.559899
-1.025791
-0.3421055
-0.923724
-1.151133
-1.305519
-1.711118
-2.52005
-3.387501
-3.263736
-2.225654
-1.489732
-1.401694
-1.788483
-1.291455
-2.928218
-2.39846
-9.963059
3.815699
5.316845
8.522276
10.48461
12.29455
13.86329
15.27563
16.60878
17.79819
18.91624
19.96905
20.95381
21.90597
22.82809
23.70934
24.54798
25.34278
26.1275
26.88997
27.63063
28.35164
29.05326
29.71953
30.3884
31.05349
31.71265
32.35384
32.96699
33.56544
34.16358
34.7648
35.36684
35.94293
36.5011
37.0704
37.63184
38.19859
38.75966
39.32251
39.88047
40.44604
40.99305
41.54187
42.08461
42.63124
43.17379
43.709
44.24977
44.80861
45.37138
45.92105
46.46599
47.01226
47.58226
48.16929
48.74499
49.32497
49.92047
50.51518
51.11905
51.72917
52.34512
52.98595
53.67895
54.36063
55.01545
55.7583
56.51446
57.00296
57.09762
56.91375
46.86565
44.24204
44.88831
45.20595
44.71274
43.8619
42.96814
42.1212
41.32986
40.56068
39.7445
38.90918
38.07955
37.28906
36.51953
35.75329
34.97391
34.19108
33.43748
32.6908
31.92925
31.17083
30.42457
29.66095
28.91615
28.15647
27.36159
26.58759
25.82899
25.06644
24.28304
23.46929
22.68866
21.88712
21.0493
20.22209
19.39581
18.53524
17.67133
16.81026
15.93305
15.0049
14.0411
13.08937
12.14811
11.1649
10.14729
9.107184
8.017998
6.896368
5.750325
4.571236
3.394467
2.125642
0.794223
-0.5698554
-2.018011
-3.501562
-5.106535
-6.816569
-8.603723
-10.49602
-12.5908
-14.87291
-17.41847
-20.1966
-23.33371
-27.09991
-31.36064
-38.09539
-42.71142
48.12746
44.77002
44.91482
45.1931
44.76193
43.94669
43.05372
42.20231
41.41635
40.65609
39.83549
39.00062
38.16705
37.37433
36.60107
35.83411
35.05192
34.26208
33.50739
32.7572
31.99053
31.23015
30.4835
29.71281
28.971
28.20987
27.40629
26.63364
25.87292
25.10867
24.31842
23.51075
22.72475
21.92339
21.07986
20.25227
19.42349
18.554
17.68916
16.82975
15.9562
15.02117
14.04861
13.09718
12.16165
11.17234
10.15278
9.114644
8.019428
6.894043
5.743044
4.560239
3.394421
2.114975
0.7793191
-0.5864576
-2.045293
-3.520414
-5.140312
-6.858482
-8.648459
-10.53903
-12.64698
-14.9503
-17.49731
-20.29236
-23.45221
-27.2286
-31.53948
-38.07479
-42.90685
3.518769
5.302912
8.421659
10.42428
12.2281
13.81141
15.2312
16.56777
17.76907
18.88551
19.94507
20.93165
21.88384
22.81099
23.6969
24.54055
25.33066
26.11752
26.8827
27.62646
28.34853
29.0547
29.71814
30.38822
31.05419
31.71691
32.36244
32.97427
33.57269
34.17331
34.77542
35.3795
35.95782
36.51329
37.08592
37.64702
38.21709
38.77852
39.34365
39.91244
40.47245
41.01921
41.5708
42.1152
42.66423
43.20889
43.7443
44.28687
44.8502
45.41723
45.96641
46.5135
47.06064
47.63275
48.22563
48.80261
49.38475
49.98433
50.57913
51.18472
51.79858
52.41945
53.05812
53.75254
54.44174
55.09712
55.83993
56.55975
56.95575
56.93532
56.25979
-26.12966
-23.69146
-29.69285
-31.08875
-31.61377
-36.31054
-39.33626
-39.54199
-36.19718
-29.68776
-21.17318
-12.70824
-5.600477
-1.877241
-0.3577848
-1.525205
-2.848765
-4.303558
-5.532248
-5.821588
-4.518007
-0.4956244
-0.1027356
-8.428159
-12.57216
-11.05585
-6.890457
-4.886984
-4.571697
-4.921075
-4.792372
-3.97641
-2.609437
-1.034209
-0.3699639
-0.9485911
-1.147648
-1.306474
-1.660112
-2.529442
-3.530113
-3.343855
-2.26543
-1.558089
-1.478917
-1.841062
-1.30464
-2.936689
-2.818991
-8.046888
-70.3051
-80.50623
-94.69855
-108.7325
-109.1818
-96.47799
-89.85401
-92.54708
-96.82492
-100.368
-102.8058
-104.4255
-105.49
-106.3013
-106.8511
-107.0965
-107.2006
-107.3131
-107.4407
-107.5165
-107.4741
-107.2687
-106.864
-106.3074
-105.563
-104.6419
-103.5394
-102.2644
-100.8519
-99.30056
-97.6262
-95.88549
-93.98511
-91.9081
-89.71218
-87.39668
-85.06569
-82.59458
-80.10557
-77.58492
-74.78719
-72.09341
-69.4737
-66.74623
-63.99173
-61.14007
-58.37423
-55.70107
-52.98315
-50.25475
-47.51013
-44.83599
-42.18553
-39.65556
-37.08808
-34.59872
-32.22882
-29.97103
-27.77443
-25.62646
-23.61499
-21.77444
-19.95837
-18.30305
-16.73595
-15.20789
-13.78491
-12.52791
-11.38029
-10.3865
-9.504067
-8.724484
-8.081987
-7.533396
-7.153796
-6.858098
-6.702566
-6.626498
-6.695334
-6.841666
-7.103159
-7.442596
-7.856342
-8.330442
-8.876874
-9.503079
-10.14372
-10.84906
-11.60794
-12.37963
-13.1874
-14.01749
-14.84589
-15.67661
-16.52674
-17.39385
-18.3056
-19.16075
-20.26976
-19.67579
-63.81545
-52.53047
-56.06445
-59.98511
-55.15039
-50.8785
-50.68044
-50.50064
-50.4082
-50.4361
-50.47731
-50.18272
-49.95114
-51.27018
-50.64816
-50.5013
-50.37771
-50.1098
-50.1605
-50.85967
-52.25059
-54.32551
-55.68266
-55.71002
-54.31426
-54.05993
-54.08217
-56.98799
-61.86064
-63.37777
-56.41214
-52.27642
-55.21893
-57.60155
-58.34471
-57.9042
-55.92468
-52.69919
-49.43165
-47.43954
-47.84092
-55.17986
-64.13319
-73.19799
-80.55813
-84.34635
-82.55951
-78.83504
-69.81533
-67.81907
-60.27682
-52.82328
-56.24279
-60.63426
-56.01992
-50.91314
-50.59245
-50.48749
-50.39467
-50.45265
-50.56577
-50.34265
-50.09034
-51.33372
-50.68002
-50.51325
-50.3703
-50.06317
-50.10437
-50.8482
-52.31501
-54.51659
-55.91424
-55.88604
-54.36538
-53.93276
-53.64097
-57.26704
-62.56065
-63.99956
-56.84778
-53.06329
-55.9159
-58.10568
-58.78613
-58.18822
-56.08074
-52.85159
-49.67709
-47.84308
-48.94929
-57.23843
-66.08967
-75.05761
-82.21911
-85.75851
-83.77055
-78.83203
-68.26617
-66.11049
-69.50465
-78.85653
-91.72954
-105.3175
-107.8821
-98.32599
-91.8326
-93.13578
-96.68473
-100.0063
-102.4438
-104.2237
-105.3736
-106.2243
-106.836
-107.1465
-107.2898
-107.4127
-107.5328
-107.5985
-107.5477
-107.3443
-106.9217
-106.3387
-105.6142
-104.7178
-103.6276
-102.3484
-100.9386
-99.40064
-97.73476
-96.00206
-94.08866
-92.00728
-89.81796
-87.48589
-85.16365
-82.69536
-80.19684
-77.68432
-74.85431
-72.15574
-69.54073
-66.79481
-64.04866
-61.19323
-58.41687
-55.73624
-53.0173
-50.29405
-47.52086
-44.8527
-42.17742
-39.66587
-37.09165
-34.59936
-32.22572
-29.9451
-27.75052
-25.60393
-23.57779
-21.73968
-19.93457
-18.27537
-16.69607
-15.16486
-13.74819
-12.48486
-11.35123
-10.3687
-9.471996
-8.694424
-8.06331
-7.527833
-7.152662
-6.85693
-6.71565
-6.640199
-6.729759
-6.874833
-7.151606
-7.493677
-7.920132
-8.397072
-8.949724
-9.593614
-10.22867
-10.94883
-11.72233
-12.49007
-13.30657
-14.14564
-14.97376
-15.80819
-16.66768
-17.54131
-18.43577
-19.25101
-20.28739
-19.80926
-23.91619
-22.71138
-28.33469
-31.46379
-32.80049
-37.05007
-39.96881
-40.33932
-37.35505
-31.13668
-22.74825
-14.44948
-6.686835
-2.498307
-0.8463839
-1.841111
-2.967513
-4.446163
-5.898464
-6.238487
-4.99042
-1.096126
-0.6705036
-9.214059
-13.57706
-11.76579
-6.783267
-4.641829
-4.489529
-4.960236
-4.881053
-4.059262
-2.67424
-1.049887
-0.4490347
-1.018457
-1.158188
-1.337855
-1.622082
-2.554382
-3.663019
-3.434669
-2.31479
-1.665512
-1.573903
-1.812742
-1.263224
-2.96864
-3.028736
-6.48517
3.194565
5.322776
8.332443
10.37217
12.15158
13.75948
15.18981
16.52751
17.73295
18.84899
19.92397
20.90721
21.85638
22.79465
23.68342
24.52639
25.30944
26.10611
26.87605
27.62461
28.34369
29.05212
29.71412
30.38411
31.05101
31.72264
32.36555
32.97442
33.57755
34.17822
34.77354
35.37979
35.96903
36.51873
37.09512
37.6545
38.23011
38.79336
39.3593
39.92223
40.48381
41.03328
41.59043
42.13572
42.68402
43.22853
43.76837
44.31391
44.87639
45.4428
45.99303
46.54574
47.09387
47.66718
48.26659
48.84857
49.42917
50.03092
50.62943
51.24172
51.86061
52.48802
53.12128
53.82266
54.53348
55.1856
55.91329
56.56612
56.83079
56.59041
55.50863
49.28313
45.6348
45.1055
45.19705
44.80591
44.0439
43.14849
42.28102
41.4982
40.74973
39.91221
39.06969
38.22808
37.44029
36.66106
35.88878
35.10381
34.31126
33.56237
32.8067
32.0321
31.27109
30.52443
29.74318
29.0088
28.23868
27.42577
26.65745
25.8976
25.13791
24.3384
23.51912
22.73565
21.93575
21.08701
20.27033
19.44662
18.56767
17.70051
16.83543
15.96757
15.03426
14.05414
13.09324
12.16588
11.17487
10.14928
9.113505
8.017499
6.892486
5.734222
4.534859
3.383555
2.091948
0.7647614
-0.6032325
-2.08401
-3.538749
-5.179261
-6.896991
-8.700205
-10.58934
-12.70548
-15.02498
-17.57394
-20.38625
-23.5706
-27.34737
-31.68331
-37.95249
-43.04845
50.21164
46.77574
45.60953
45.33716
44.89809
44.20195
43.30044
42.39408
41.62286
40.92012
40.087
39.22285
38.33611
37.55604
36.79653
36.01443
35.19545
34.38328
33.6584
32.9037
32.11224
31.3562
30.61705
29.80524
29.1238
28.32516
27.48018
26.72872
25.94021
25.20469
24.39523
23.60644
22.82136
21.99611
21.10041
20.28814
19.47135
18.59661
17.74886
16.87674
15.9709
15.03706
14.09137
13.12233
12.16878
11.19326
10.16878
9.098478
8.004624
6.893847
5.76043
4.546504
3.378733
2.03716
0.7384199
-0.603914
-2.142866
-3.562273
-5.25934
-6.929477
-8.739107
-10.69346
-12.8184
-15.1468
-17.69605
-20.53024
-23.75849
-27.5434
-31.90849
-37.79645
-43.13777
2.872145
5.295606
8.183386
10.27736
12.0224
13.70853
15.12818
16.45311
17.6641
18.81556
19.90831
20.86288
21.82104
22.78033
23.65147
24.49442
25.3014
26.1136
26.87152
27.62014
28.3216
29.03855
29.72223
30.37
31.05557
31.73344
32.34955
32.9885
33.59739
34.17934
34.76812
35.40933
36.0203
36.53243
37.11936
37.67543
38.26312
38.82406
39.38442
39.94316
40.526
41.08401
41.63734
42.17923
42.71927
43.28249
43.8336
44.36245
44.91278
45.5078
46.07812
46.62261
47.1687
47.73075
48.35238
48.94787
49.4971
50.12665
50.74472
51.34501
51.96075
52.59061
53.21364
53.93961
54.68529
55.28669
55.95045
56.49252
56.61066
56.17125
54.80578
-22.26467
-20.14668
-26.28104
-31.32956
-33.97325
-37.9364
-40.92315
-41.49429
-38.92834
-33.15315
-25.05771
-16.91657
-8.517743
-3.335647
-1.634347
-2.415685
-3.287839
-4.647241
-6.348309
-6.800751
-5.813845
-2.277863
-1.816502
-10.14716
-14.80009
-12.55989
-6.731773
-4.322266
-4.354816
-5.022863
-5.035471
-4.209115
-2.812205
-1.15985
-0.6077951
-1.145084
-1.14081
-1.415883
-1.643332
-2.652696
-3.795266
-3.497574
-2.352997
-1.734563
-1.694778
-1.961945
-0.949994
-2.747429
-2.852631
-5.132709
-69.43518
-77.50558
-88.49363
-100.7818
-105.343
-99.43625
-93.71747
-93.83435
-96.63134
-99.60347
-102.0368
-103.9611
-105.2225
-106.1368
-106.8128
-107.2019
-107.4067
-107.5437
-107.659
-107.7265
-107.6676
-107.4741
-107.0884
-106.5087
-105.7729
-104.8765
-103.7901
-102.5127
-101.1262
-99.6045
-97.93713
-96.14083
-94.22579
-92.18419
-90.01006
-87.6741
-85.29906
-82.92163
-80.29762
-77.76032
-75.05621
-72.25446
-69.62595
-66.90636
-64.18247
-61.3594
-58.4715
-55.75681
-53.08219
-50.35602
-47.52336
-44.90818
-42.18259
-39.72757
-37.12331
-34.62814
-32.18224
-29.86044
-27.7257
-25.6174
-23.53605
-21.71668
-19.9556
-18.20918
-16.58044
-15.11722
-13.71363
-12.42435
-11.33697
-10.36021
-9.427861
-8.655003
-8.05651
-7.540707
-7.161319
-6.853898
-6.73683
-6.661834
-6.783233
-6.921024
-7.224193
-7.567346
-8.014474
-8.511138
-9.065866
-9.728734
-10.36469
-11.09792
-11.89553
-12.68073
-13.50358
-14.35011
-15.18358
-16.02241
-16.89338
-17.78017
-18.65204
-19.46487
-20.37084
-20.0439
-57.11134
-52.57234
-56.9471
-61.65607
-57.48949
-50.66845
-50.37758
-50.48982
-50.36411
-50.46271
-50.70815
-50.66681
-50.41935
-51.39667
-50.71227
-50.5304
-50.3649
-49.99864
-50.02088
-50.83135
-52.49824
-54.83956
-56.18434
-56.18292
-54.3759
-53.69256
-53.02956
-57.40429
-63.72953
-64.4537
-57.65482
-54.33286
-56.96188
-58.83458
-59.42592
-58.54817
-56.33394
-53.15409
-50.20952
-48.60151
-51.20125
-60.05291
-68.89575
-77.77502
-84.60203
-87.67216
-84.88182
-78.65325
-67.23458
-64.70741
-0.01323278
-0.002393441
-6.283113
3.28664
1.013072
-0.1254915
0.03497556
2.360413
1.121796
0.0697723
1.952466
1.104886
-0.007024007
24.40452
0.08011744
3.525591
9.703025
-21.0556
4.671575
12.0814
-1.071286
4.84058
0.03864973
4.21944
-0.03133576
4.049697
4.222288
0.04519603
2.403227
-0.2577181
7.372287
-0.5525626
-108.0316
-0.1244948
5.841275
0.09192358
0.04462878
7.057019
-0.006227702
4.831709
7.894965
-0.00346101
-0.06616675
0.9456032
0.4836117
10.14348
-0.01822068
-0.001836285
0.003258403
8.769467
-4.840642
0.01247115
-1.045489
0.02504787
5.076208
0.05227762
-2.663377
4.518385
-9.661568
-0.002433674
0.2025192
4.930663
-0.08034627
0.5524498
9.193185
0.07477889
-0.07365395
3.583839
12.73426
-1.45816
1.372553
-0.01022006
6.381859
0.02537952
3.618656
4.498324
2.762577
2.498764
-0.002921751
5.932933
0.4747847
3.029273
0.4239805
-0.07913971
0.3133353
0.09197432
9.004123
0.03964568
-0.2990304
-0.9667998
6.021978
6.90914
4.124499
0.4008553
0.5229861
-2.68851
4.199291
4.739864
-171.2824
0.5562271
-0.109646
18.00272
15.18217
0.345885
-4.55613
3.042639
-0.01878068
5.13582
-0.2042094
2.565389
0.04448111
-157.8229
0.03465939
-1.492572
-4.507064
0.01901054
-0.1014358
1.567485
-9.535943
-0.940197
-0.3351411
-1.82498
-0.2442856
0.1108687
2.251741
-0.3887327
0.004281694
0.1178127
-3.278309
0.006536615
13.63882
7.94798
3.202844
-0.6204907
0.0839991
-0.05594794
-4.204862
-141.6569
-23.15083
7.187571
3.307515
9.019631
3.327255
-3.998864
-0.1122706
0.4153348
5.994738
-0.6201699
0.03980273
-2.008837
1.492961
0.1982572
-0.2615025
2.687895
18.40977
2.124032
0.07268538
-1.010566
0.004975176
0.5750971
1.553169
2.754922
-3.00418
0.01713308
7.386412
-0.1143643
-0.2032394
5.819656
-0.4191084
0.04230779
0.1870462
0.4089734
0.03359861
-8.436283
-0.3001566
0.003345193
-0.3212357
-0.24106
-0.09548961
5.435904
-0.0582093
3.930893
-11.89395
-1.365999
-0.4099102
-5.727631
5.183184
4.764768
6.721639
-0.2413517
-3.999369
0.05199939
3.649079
0.07493891
16.29628
-0.3184586
-1.054308
0.6294463
-15.69141
-0.3016576
4.280456
-0.9473926
-0.2375946
13.50552
-0.7943011
-1.688969
0.02616381
-7.895442
-9.200853
-0.2937812
0.03029648
0.9424962
0.03837013
4.774145
0.03648253
0.01930385
-2.429144
-0.1819799
0.9537291
1.614073
-9.152626
-6.066607
2.368542
0.1759368
27.19989
2.195326
3.436139
0.05263354
-4.766744
-15.87353
0.08962572
1.050175
-18.43136
4.962929
1.605871
3.727493
1.658978
4.347312
6.542846
0.1189952
-4.367772
0.3756215
0.05709779
-0.1979951
0.249981
2.301202
-2.044232
-2.908537
2.930543
4.277515
4.260821
-170.7565
8.718954
-0.4191549
0.04202154
30.16191
-0.600847
0.7757349
-1.135744
-1.048745
1.307438
0.4842296
-0.4581388
1.009753
5.764494
1.979198
0.143809
1.156231
2.655346
0.3968693
-1.39634
0.06462619
-0.1872191
0.05166491
7.475324
8.983802
4.831925
0.1301669
1.866972
0.09967161
-1.494646
-47.4387
2.524205
-0.5962399
7.371286
0.07453195
-4.566422
6.085057
7.087163
1.90969
1.598194
0.04704294
-119.5691
4.841516
6.037162
6.629502
-0.0245477
20.91872
4.368129
-2.853467