/*--------------------------------*- C++ -*----------------------------------*\
| =========                 |                                                 |
| \\      /  F ield         | OpenFOAM: The Open Source CFD Toolbox           |
|  \\    /   O peration     | Version:  2406                                  |
|   \\  /    A nd           | Website:  www.openfoam.com                      |
|    \\/     M anipulation  |                                                 |
\*---------------------------------------------------------------------------*/
FoamFile
{
    version     2.0;
    format      ascii;
    arch        "LSB;label=32;scalar=64";
    class       volScalarField;
    location    "2.76";
    object      p;
}
// * * * * * * * * * * * * * * * * * * * * * * * * * * * * * * * * * * * * * //

dimensions      [0 2 -2 0 0 0 0];

internalField   nonuniform List<scalar> 
217010
(
-239.2785
-153.8975
-161.276
-160.6724
-159.9116
-152.0375
-148.5874
-147.6408
-146.2071
-145.9389
-146.1788
-147.1884
-149.984
-153.7792
-155.8593
-155.4861
-153.9587
-152.0124
-150.3865
-150.6933
-152.4698
-156.2408
-160.3266
-178.1043
-181.6886
-164.1339
-152.1535
-163.6699
-175.9358
-187.2268
-198.9717
-200.3167
-190.7248
-173.8532
-157.8532
-145.3609
-131.0898
-113.7484
-99.00273
-89.52406
-81.16929
-75.99361
-73.37888
-71.99646
-71.98142
-73.17017
-76.54123
-81.11424
-89.99087
-91.35763
-162.6531
-134.2508
-146.663
-147.4576
-145.429
-141.508
-140.198
-144.3565
-149.3128
-151.0086
-150.4804
-150.6559
-149.0206
-143.9056
-135.1558
-128.8851
-125.7551
-130.1918
-141.9819
-162.2276
-203.3416
-261.0589
-285.4993
-238.1237
-174.0806
-184.8665
-229.0179
-259.8332
-261.5696
-252.4794
-255.2272
-264.3331
-273.0948
-279.185
-282.7378
-283.847
-282.8547
-279.9507
-275.411
-269.1905
-261.1514
-252.0869
-242.0592
-230.8235
-218.5109
-205.3986
-192.2856
-179.2119
-166.0692
-153.0406
-140.4143
-128.5117
-117.381
-107.1605
-97.46808
-88.51607
-80.40389
-73.12773
-66.4922
-60.4621
-55.20601
-50.69621
-46.61159
-43.10513
-40.06313
-37.27068
-34.7253
-32.58402
-30.71115
-29.06116
-27.6382
-26.26126
-25.03632
-24.01086
-23.28058
-23.41007
-23.87924
-22.23911
-20.9181
-19.60558
-18.49517
-17.56315
-16.81969
-16.15418
-15.4925
-14.82942
-14.15073
-13.43667
-12.69559
-11.92443
-11.10918
-10.21282
-9.260481
-8.245965
-7.155631
-5.959774
-4.690287
-3.285148
-2.186569
0.07808332
-0.7587481
0.8412469
3.827103
11.10316
19.36388
19.97369
14.92819
13.30005
15.24264
18.33942
21.51291
24.59666
26.70437
26.49078
23.54236
18.66634
11.53228
2.394716
-9.265473
-21.0861
-32.7898
-43.62899
-52.27055
-57.68278
-59.16522
-56.12011
-48.47918
-37.42755
-27.76197
-23.86097
-24.11689
-25.0424
-28.15133
-31.4976
-32.1228
-30.3656
-25.37605
-14.61653
-6.064022
-5.419324
-9.913297
-17.06992
-18.94302
-14.95328
-13.24537
-12.54433
-9.046914
-13.27453
-9.395043
-44.30069
0.7632709
3.451396
9.425003
12.85223
16.01041
18.66987
21.02555
23.21833
25.13053
26.91875
28.56329
30.08915
31.54424
32.9294
34.23778
35.4642
36.626
37.75036
38.83139
39.87104
40.87458
41.83381
42.74785
43.65174
44.54224
45.41436
46.25253
47.05293
47.82822
48.59588
49.36002
50.11457
50.83379
51.53428
52.23426
52.92376
53.60916
54.28814
54.97116
55.62576
56.30287
56.9468
57.58809
58.22068
58.85305
59.47626
60.09037
60.70807
61.3392
61.97031
62.58878
63.1976
63.80587
64.43444
65.07527
65.70887
66.34472
66.99021
67.63654
68.29028
68.94585
69.60153
70.28698
71.02746
71.76045
72.4621
73.23497
74.10965
74.88625
74.93579
77.09243
57.35437
60.74074
61.71371
61.11086
59.86271
58.63146
57.51113
56.42912
55.37288
54.32894
53.24045
52.13047
51.03376
49.9787
48.94458
47.90509
46.84598
45.7841
44.74872
43.72017
42.67099
41.6162
40.56774
39.49886
38.4314
37.34354
36.21173
35.08833
33.98289
32.86494
31.71293
30.50326
29.33017
28.10412
26.84313
25.5731
24.28826
22.95114
21.58702
20.21373
18.80206
17.30789
15.73871
14.16139
12.58241
10.93275
9.195895
7.395808
5.502901
3.52299
1.474982
-0.6575355
-2.837189
-5.176604
-7.687347
-10.31593
-13.12453
-16.08489
-19.29784
-22.80037
-26.55334
-30.6143
-35.17973
-40.31325
-46.17033
-52.74
-60.43199
-69.97821
-81.29434
-100.4384
-118.4994
59.62007
60.47035
61.67715
61.20676
60.00033
58.76556
57.63377
56.54461
55.48236
54.43465
53.34507
52.23116
51.12852
50.0673
49.02863
47.98591
46.92368
45.85748
44.81774
43.78561
42.73352
41.67572
40.6244
39.55273
38.48309
37.39311
36.25886
35.13277
34.02434
32.90399
31.75029
30.53722
29.36415
28.1349
26.87148
25.59946
24.31277
22.97346
21.60748
20.2322
18.8188
17.32218
15.75054
14.17115
12.59036
10.93799
9.198846
7.396686
5.500819
3.517404
1.465636
-0.6708216
-2.853193
-5.199103
-7.71591
-10.35026
-13.16701
-16.13416
-19.3587
-22.87378
-26.63843
-30.71461
-35.30064
-40.45488
-46.357
-52.9664
-60.71972
-70.34168
-81.88683
-101.011
-121.2351
-0.3624208
3.296233
9.231321
12.732
15.90831
18.58781
20.95353
23.16507
25.08412
26.87736
28.52823
30.05841
31.51754
32.90679
34.21911
35.44889
36.61291
37.73961
38.823
39.86464
40.86999
41.83128
42.74652
43.65149
44.54321
45.41668
46.25621
47.05768
47.83403
48.6028
49.36809
50.12387
50.84425
51.54567
52.24688
52.93748
53.6242
54.30454
54.98967
55.64428
56.32358
56.96853
57.61112
58.24529
58.87897
59.50364
60.11938
60.73907
61.37217
62.00492
62.62475
63.23537
63.84621
64.4776
65.12098
65.75693
66.39555
67.04386
67.69311
68.34968
69.00824
69.66886
70.3614
71.10706
71.84243
72.55096
73.33804
74.21124
74.93155
75.01948
76.50141
-0.623321
0.6218612
3.255837
10.22055
18.79965
20.15022
15.2857
13.30639
14.94815
17.9663
21.12349
24.39168
26.62955
26.54331
23.70035
18.9082
11.85827
2.794788
-8.838153
-20.68639
-32.42746
-43.32484
-52.0429
-57.58888
-59.20392
-56.25695
-48.70552
-37.62875
-27.85974
-23.86508
-24.11004
-25.03156
-28.16354
-31.52769
-32.14054
-30.42341
-25.44182
-14.6116
-6.080233
-5.500123
-10.04602
-17.23297
-18.98524
-14.90454
-13.21208
-12.49074
-9.081117
-13.31224
-10.26314
-38.85923
-153.2184
-135.4218
-145.8097
-147.6727
-145.8251
-141.7995
-140.1362
-143.9722
-148.9546
-150.9226
-150.447
-150.7011
-149.3263
-144.5278
-135.7924
-129.2996
-125.717
-129.7866
-141.15
-160.6742
-200.9883
-259.1252
-286.2801
-240.9323
-175.3514
-184.2033
-228.102
-259.2595
-261.5959
-252.6756
-255.235
-264.3454
-273.1015
-279.1872
-282.7538
-283.9022
-282.9437
-280.064
-275.5455
-269.344
-261.303
-252.2265
-242.1942
-230.946
-218.6193
-205.4818
-192.3458
-179.2534
-166.0914
-153.0464
-140.402
-128.4861
-117.3396
-107.1102
-97.4077
-88.44807
-80.33068
-73.05167
-66.41489
-60.38519
-55.12983
-50.62303
-46.54008
-43.03617
-39.99592
-37.20614
-34.66213
-32.52552
-30.657
-29.00998
-27.58835
-26.21362
-24.99587
-23.9822
-23.2725
-23.43277
-23.87413
-22.1692
-20.84796
-19.53614
-18.4333
-17.50939
-16.77104
-16.10534
-15.44153
-14.77526
-14.09179
-13.37293
-12.62618
-11.84779
-11.02293
-10.11593
-9.152873
-8.124511
-7.015874
-5.80054
-4.510809
-3.108028
-1.951375
0.169908
-220.4754
-156.1778
-161.6196
-160.7383
-160.2507
-152.2704
-148.6324
-147.6684
-146.224
-145.944
-146.1789
-147.1817
-149.9732
-153.7879
-155.8981
-155.5304
-153.9713
-152.0276
-150.4077
-150.7133
-152.4964
-156.2683
-160.4637
-178.5595
-181.8807
-163.8036
-152.1258
-164.0963
-176.4961
-187.8736
-199.3892
-200.224
-190.1239
-173.085
-157.1141
-144.5698
-130.1469
-112.8156
-98.25165
-88.91556
-80.70882
-75.71478
-73.23526
-71.95512
-72.03832
-73.39616
-76.97239
-81.90208
-90.54481
-94.85659
-201.9443
-157.3296
-162.448
-161.077
-160.9637
-152.5191
-148.6652
-147.6863
-146.2458
-145.9588
-146.1913
-147.1955
-149.9947
-153.8349
-156.0041
-155.6737
-153.938
-151.9727
-150.4359
-150.7498
-152.5274
-156.2836
-160.5726
-179.2208
-182.3952
-163.3128
-151.8072
-164.2145
-177.5812
-189.5512
-200.3402
-200.621
-190.1657
-172.8471
-156.786
-144.327
-129.8551
-112.3825
-97.81178
-88.63275
-80.4584
-75.57304
-73.17009
-71.95571
-72.1241
-73.59219
-77.30039
-82.35902
-91.06317
-95.82175
-146.5154
-135.2842
-145.4504
-147.4968
-146.0525
-142.095
-140.1472
-143.795
-148.9612
-151.0375
-150.5702
-150.7921
-149.5316
-144.8051
-135.9142
-129.4027
-125.6909
-129.5639
-140.6183
-159.5327
-199.4797
-258.8258
-288.8715
-244.956
-175.3665
-183.2233
-226.838
-258.8746
-261.8005
-253.5501
-256.1874
-264.8985
-273.2872
-279.2465
-282.7688
-283.9359
-282.9934
-280.1138
-275.5781
-269.4061
-261.376
-252.3017
-242.2829
-231.0376
-218.7175
-205.5637
-192.4138
-179.3152
-166.141
-153.0819
-140.4178
-128.4939
-117.3298
-107.1002
-97.38965
-88.42341
-80.30039
-73.01973
-66.38286
-60.35067
-55.08969
-50.58884
-46.50407
-43.00033
-39.96367
-37.1765
-34.63002
-32.49645
-30.63156
-28.98427
-27.5663
-26.19034
-24.97872
-23.96779
-23.27282
-23.48713
-23.94616
-22.16262
-20.81835
-19.50479
-18.40531
-17.4852
-16.75278
-16.09055
-15.42633
-14.75986
-14.07603
-13.35419
-12.60655
-11.82791
-11.00055
-10.09057
-9.124341
-8.096458
-6.990505
-5.775217
-4.48676
-3.072578
-1.872246
0.264457
-0.4074097
0.3417126
2.717403
9.608205
18.602
20.30718
15.43932
13.23047
14.62023
17.58437
20.90733
24.21556
26.52066
26.55221
23.77594
19.03433
12.03445
3.015606
-8.648998
-20.52702
-32.32478
-43.28762
-52.11189
-57.72255
-59.35911
-56.50361
-49.1488
-38.17003
-28.12568
-23.87748
-24.10134
-25.0325
-28.22
-31.59328
-32.17542
-30.71599
-25.72508
-14.71492
-6.176716
-5.683825
-10.26304
-17.40129
-19.08707
-14.95316
-13.25448
-12.46678
-9.144235
-13.43757
-10.57767
-32.30569
-0.4889403
3.178497
9.150987
12.67637
15.86357
18.55303
20.92749
23.13301
25.0675
26.8612
28.5148
30.0462
31.50608
32.89739
34.21127
35.44301
36.60662
37.73441
38.81875
39.86129
40.86705
41.82993
42.74488
43.65023
44.54287
45.4174
46.25808
47.05962
47.83587
48.60475
49.3704
50.12763
50.84863
51.54895
52.25081
52.94155
53.62967
54.31041
54.9942
55.6518
56.32801
56.97435
57.61787
58.2519
58.88613
59.51124
60.12685
60.74621
61.38045
62.01462
62.63448
63.24519
63.85545
64.48765
65.1332
65.76956
66.40769
67.05744
67.70696
68.36423
69.02411
69.686
70.37841
71.12727
71.8653
72.57373
73.36737
74.23225
74.90825
75.01609
76.09851
60.44539
60.35579
61.65282
61.26662
60.05198
58.80479
57.66584
56.57142
55.5088
54.46348
53.37084
52.25449
51.14737
50.08469
49.04544
48.00348
46.93969
45.87142
44.83249
43.80079
42.74699
41.6887
40.63788
39.56389
38.49639
37.40613
36.26816
35.14184
34.03412
32.91396
31.75679
30.54876
29.37169
28.14614
26.87985
25.6072
24.32049
22.97873
21.61246
20.23799
18.82537
17.32645
15.75215
14.17259
12.59297
10.9387
9.198709
7.396117
5.497403
3.512013
1.458227
-0.6799754
-2.86064
-5.211055
-7.730649
-10.36561
-13.1877
-16.15462
-19.38654
-22.90684
-26.6748
-30.75673
-35.35199
-40.53907
-46.43574
-53.07275
-60.85808
-70.53481
-82.16401
-101.3774
-120.663
61.95068
60.51241
61.59688
61.32898
60.17111
58.93282
57.78734
56.689
55.62645
54.58043
53.48479
52.36643
51.25562
50.18886
49.14582
48.09982
47.03284
45.95989
44.9175
43.88048
42.82237
41.7612
40.70735
39.62936
38.56057
37.4673
36.32433
35.19768
34.08656
32.96391
31.80274
30.59799
29.4087
28.1864
26.91492
25.64066
24.3525
23.00579
21.63821
20.26252
18.84896
17.34488
15.76642
14.18591
12.6066
10.94762
9.20554
7.401564
5.497583
3.509127
1.451934
-0.6905217
-2.869435
-5.230085
-7.75598
-10.39361
-13.22732
-16.19591
-19.44343
-22.97617
-26.75309
-30.84825
-35.47319
-40.67286
-46.59764
-53.28048
-61.12449
-70.8623
-82.6767
-101.7019
-120.7987
-0.7394026
3.069331
8.972846
12.56901
15.76585
18.47661
20.86679
23.07987
25.02182
26.82167
28.48223
30.0169
31.48029
32.87652
34.19415
35.43039
36.59464
37.7254
38.81217
39.85683
40.86376
41.82996
42.7444
43.65062
44.54505
45.42149
46.26458
47.06701
47.84392
48.61321
49.37975
50.13961
50.86286
51.56235
52.26597
52.95747
53.64841
54.33075
55.01271
55.67962
56.35264
57.00026
57.64573
58.28157
58.91701
59.54441
60.16186
60.78316
61.41924
62.05568
62.67721
63.29036
63.90316
64.53745
65.1866
65.82579
66.46666
67.11925
67.77183
68.43164
69.09515
69.7627
70.45994
71.21179
71.95373
72.66889
73.47062
74.3106
74.9059
74.99393
75.53359
-0.1008926
0.1254705
2.140288
8.857583
18.0923
20.35821
15.5844
12.9013
14.08583
17.01837
20.47799
23.91666
26.33532
26.52894
23.84044
19.16525
12.25078
3.331115
-8.342071
-20.24687
-32.09179
-43.0935
-51.97118
-57.67146
-59.45642
-56.80201
-49.71789
-39.04805
-28.76904
-23.9772
-24.07622
-25.03151
-28.31637
-31.59516
-32.12677
-31.28045
-26.20042
-14.92628
-6.376492
-6.021441
-10.64109
-17.7499
-19.31255
-15.13246
-13.32647
-12.39489
-9.267936
-13.61536
-11.52113
-26.85306
-143.2662
-135.596
-144.7504
-147.8706
-146.5254
-142.5542
-140.2412
-143.595
-148.7556
-151.2249
-150.7376
-150.9567
-149.8628
-145.5225
-136.689
-129.6666
-125.5604
-129.18
-139.817
-158.0518
-197.4984
-257.8945
-291.7932
-249.6209
-176.1234
-181.7961
-224.587
-256.1098
-261.3188
-255.0144
-257.6745
-265.6324
-273.555
-279.3814
-282.8614
-284.0455
-283.1347
-280.3245
-275.7773
-269.6204
-261.5617
-252.4621
-242.4502
-231.1929
-218.8723
-205.6779
-192.4985
-179.3921
-166.1991
-153.1179
-140.4209
-128.4868
-117.2924
-107.065
-97.34134
-88.36313
-80.23055
-72.95164
-66.32044
-60.28704
-55.01621
-50.52665
-46.43855
-42.93
-39.89654
-37.11632
-34.56485
-32.43749
-30.58178
-28.93328
-27.51616
-26.14193
-24.9453
-23.93973
-23.24543
-23.58611
-24.05437
-22.12049
-20.75489
-19.43987
-18.34467
-17.43039
-16.70083
-16.0349
-15.36809
-14.69768
-14.00761
-13.28203
-12.52814
-11.73959
-10.89928
-9.9805
-9.001796
-7.953946
-6.816805
-5.570748
-4.244074
-2.842705
-1.599404
0.4103743
-190.2638
-159.8424
-162.404
-160.81
-162.1809
-153.0943
-148.7031
-147.7242
-146.2779
-145.9843
-146.2194
-147.2282
-150.0423
-153.9096
-156.1479
-155.8682
-153.8303
-151.7872
-150.4455
-150.7876
-152.556
-156.2878
-160.7156
-180.3591
-183.2503
-162.6902
-151.1052
-164.4136
-179.4891
-191.8056
-201.3272
-200.4382
-189.7245
-172.1879
-155.9927
-143.5592
-129.1087
-111.6387
-97.12075
-88.13814
-80.09753
-75.37991
-73.09003
-71.96914
-72.2517
-73.87976
-77.82295
-83.18468
-91.85645
-98.35143
-182.1215
-162.2305
-161.3623
-159.1206
-163.412
-153.9283
-148.7585
-147.7682
-146.3189
-146.0238
-146.2718
-147.2888
-150.1311
-154.0325
-156.3344
-156.0838
-153.6721
-151.5207
-150.4349
-150.8145
-152.5676
-156.2759
-160.8969
-182.003
-184.4677
-162.2241
-150.8281
-165.481
-182.4061
-194.498
-202.5628
-201.0595
-189.6556
-171.7017
-155.3038
-142.9873
-128.5834
-110.9834
-96.41514
-87.65736
-79.76827
-75.23284
-73.0567
-72.02675
-72.44052
-74.24636
-78.48765
-84.10306
-92.8868
-100.8231
-140.2625
-135.3657
-143.9918
-147.8064
-147.1344
-143.2174
-140.5041
-143.4574
-148.7202
-151.5409
-151.0646
-151.2943
-150.2934
-146.2506
-137.2991
-130.0198
-125.3911
-128.6103
-138.8696
-156.4424
-195.3369
-256.9068
-294.9979
-255.0982
-179.3015
-181.629
-222.8727
-252.8187
-259.9661
-256.3216
-259.1466
-266.4088
-273.8817
-279.5395
-282.9753
-284.1685
-283.286
-280.44
-275.9328
-269.8665
-261.7863
-252.6616
-242.6856
-231.4177
-219.1024
-205.8427
-192.628
-179.5241
-166.3035
-153.1976
-140.455
-128.5125
-117.2709
-107.052
-97.30804
-88.31338
-80.17265
-72.90168
-66.27215
-60.23158
-54.94296
-50.47241
-46.37005
-42.85772
-39.83346
-37.06158
-34.49688
-32.37975
-30.53376
-28.88003
-27.46813
-26.09356
-24.91122
-23.88925
-23.17586
-23.73806
-24.20251
-22.0884
-20.70227
-19.38252
-18.29018
-17.38393
-16.66232
-15.9993
-15.33007
-14.66024
-13.96762
-13.23483
-12.48014
-11.6911
-10.84476
-9.913978
-8.929487
-7.883039
-6.752589
-5.508292
-4.199562
-2.763091
-1.4467
0.5792229
0.2416237
-0.08995915
1.447694
7.972117
17.21574
20.06888
15.38414
12.2756
13.35798
16.36245
19.96831
23.50796
26.03849
26.44145
23.85621
19.25888
12.42728
3.582536
-8.128738
-20.05734
-31.98517
-43.04163
-52.04402
-57.91715
-59.84752
-57.30082
-50.48603
-40.24352
-29.95529
-24.32546
-24.11448
-24.9859
-28.44505
-31.39209
-31.84403
-32.05233
-26.93091
-15.30591
-6.747923
-6.590811
-11.24111
-18.31475
-19.68485
-15.42046
-13.34928
-12.15133
-9.457933
-13.83785
-12.51644
-22.98167
-1.010065
3.019949
8.820381
12.475
15.67769
18.40841
20.8101
23.02667
24.98612
26.7873
28.45394
29.99031
31.45531
32.8558
34.17714
35.41911
36.58178
37.71467
38.80338
39.85008
40.85783
41.82869
42.74118
43.64787
44.54371
45.4218
46.2679
47.07047
47.84653
48.616
49.38353
50.14685
50.87174
51.56836
52.27417
52.96577
53.65957
54.34181
55.02122
55.68926
56.36462
57.01314
57.66002
58.29575
58.9322
59.56115
60.17886
60.79961
61.43778
62.07732
62.6992
63.31315
63.92581
64.56209
65.21602
65.8561
66.49658
67.1534
67.80769
68.4693
69.13571
69.80731
70.50645
71.26552
72.0137
72.72869
73.53824
74.3587
74.87704
74.91775
74.90838
63.37742
60.7044
61.52803
61.38203
60.28911
59.04181
57.87326
56.7608
55.69634
54.65476
53.55321
52.42953
51.30741
50.23623
49.19073
48.14458
47.07341
45.99502
44.95421
43.91726
42.85532
41.79269
40.73956
39.65551
38.59113
37.49657
36.34541
35.21865
34.10722
32.98551
31.82165
30.6138
29.42412
28.20673
26.92966
25.6554
24.36765
23.01597
21.6495
20.2756
18.86294
17.35206
15.76829
14.1898
12.6136
10.94843
9.20541
7.401963
5.490995
3.49942
1.439163
-0.7068533
-2.878277
-5.253619
-7.786288
-10.42416
-13.27044
-16.23353
-19.50051
-23.04475
-26.8248
-30.92712
-35.57746
-40.81116
-46.7515
-53.47377
-61.37137
-71.16627
-83.11498
-101.8504
-120.6288
64.75149
61.27447
61.54001
61.41771
60.411
59.18003
57.99686
56.87781
55.8216
54.79028
53.68343
52.56244
51.43414
50.35946
49.31034
48.26484
47.18934
46.10086
45.05793
44.01622
42.94778
41.88252
40.82877
39.73531
38.67552
37.5794
36.41617
35.29118
34.17567
33.05136
31.87893
30.68491
29.48194
28.26368
26.9785
25.70353
24.41159
23.04682
21.67896
20.30787
18.90099
17.3793
15.78164
14.20398
12.6368
10.9614
9.215436
7.41537
5.494298
3.496342
1.427124
-0.7260385
-2.878138
-5.272589
-7.813162
-10.45575
-13.32237
-16.27023
-19.56751
-23.12919
-26.91725
-31.01964
-35.70244
-40.97791
-46.93477
-53.69917
-61.65742
-71.49234
-83.54345
-101.8248
-120.4307
-1.347382
2.992213
8.656263
12.37074
15.56636
18.32216
20.73758
22.96225
24.9394
26.73983
28.41727
29.95718
31.42273
32.8309
34.1594
35.40879
36.56524
37.70117
38.7937
39.84482
40.85401
41.8311
42.73993
43.64777
44.54519
45.42783
46.27944
47.08036
47.85608
48.62863
49.39738
50.16341
50.89084
51.58381
52.29369
52.98485
53.68259
54.36496
55.04661
55.72873
56.39693
57.04484
57.69466
58.33216
58.97126
59.60274
60.22037
60.84273
61.48597
62.13053
62.7516
63.36751
63.98106
64.61966
65.28018
65.92196
66.56446
67.22593
67.8802
68.54323
69.21381
69.89128
70.58874
71.34895
72.10413
72.81931
73.62901
74.40265
74.80935
74.7349
74.15895
0.6519992
-0.3140693
0.765486
6.979255
16.01848
19.21565
14.55951
11.34212
12.40879
15.49526
19.28723
22.93805
25.60505
26.25699
23.79211
19.32795
12.60034
3.778181
-8.027637
-19.94782
-31.97348
-43.08271
-52.18243
-58.21533
-60.29253
-57.98641
-51.49741
-41.74164
-31.65504
-25.22373
-24.31717
-24.90415
-28.68493
-30.96969
-31.23732
-32.98131
-27.95008
-15.83251
-7.410777
-7.576119
-12.17083
-19.221
-20.261
-15.79619
-13.28223
-11.6033
-9.65913
-14.03816
-13.23238
-19.96841
-136.6604
-135.0995
-143.2577
-148.1055
-147.9667
-144.2169
-141.0298
-143.4141
-148.7881
-152.0055
-151.7104
-151.8586
-150.8815
-147.2336
-138.2201
-130.4541
-125.1556
-127.7164
-137.7087
-154.6255
-192.6077
-255.1723
-297.8032
-261.3037
-186.4926
-184.2629
-222.2609
-249.8429
-258.4869
-257.4153
-260.6641
-267.3601
-274.384
-279.8498
-283.2231
-284.4239
-283.5877
-280.7664
-276.2129
-270.2392
-262.0976
-252.9363
-243.014
-231.7042
-219.3903
-206.0438
-192.8111
-179.7124
-166.4417
-153.3175
-140.4964
-128.5415
-117.2248
-107.0243
-97.26121
-88.25615
-80.12263
-72.85612
-66.21386
-60.16484
-54.85188
-50.40324
-46.27942
-42.77738
-39.76674
-36.9954
-34.40945
-32.31124
-30.47663
-28.81452
-27.4132
-26.03404
-24.86373
-23.79673
-23.07366
-23.93666
-24.3705
-22.0488
-20.64931
-19.31615
-18.22651
-17.32567
-16.61039
-15.93621
-15.26037
-14.5878
-13.88449
-13.14667
-12.38698
-11.5839
-10.72048
-9.778502
-8.783382
-7.71206
-6.532879
-5.237766
-3.870504
-2.425888
-1.058462
0.8428124
-173.1788
-163.0245
-159.5698
-157.3263
-164.6567
-155.0468
-148.8891
-147.835
-146.3865
-146.0986
-146.354
-147.3963
-150.2769
-154.2212
-156.5586
-156.3332
-153.5325
-151.2522
-150.4171
-150.8264
-152.5694
-156.2727
-161.1873
-184.3017
-186.1498
-162.4535
-151.5699
-168.3267
-186.2752
-197.4137
-203.7946
-201.3848
-189.5229
-171.0543
-154.331
-142.2946
-128.0534
-110.2902
-95.65421
-87.1646
-79.50792
-75.14632
-73.04929
-72.12487
-72.70856
-74.72604
-79.35751
-85.2082
-94.24797
-103.3114
-163.0918
-161.6712
-157.5051
-155.8267
-165.8454
-156.5923
-149.066
-147.9044
-146.5078
-146.2412
-146.4575
-147.5751
-150.465
-154.4648
-156.7436
-156.5567
-153.4404
-151.0696
-150.4182
-150.8377
-152.5602
-156.2376
-161.9367
-187.0595
-188.242
-164.0876
-154.5197
-173.143
-190.9807
-200.6031
-205.3766
-202.0191
-189.4874
-170.2049
-152.8155
-141.366
-126.9918
-109.1041
-94.92175
-86.73642
-79.38448
-75.13001
-72.99903
-72.28071
-73.17
-75.49921
-80.7137
-86.64715
-95.88229
-105.8989
-133.7665
-134.8501
-142.4872
-148.4566
-149.0486
-145.7236
-141.8896
-143.4805
-148.9753
-152.7378
-152.7485
-152.7515
-151.6846
-148.5341
-139.6012
-131.0624
-124.8911
-126.5302
-136.2783
-152.356
-188.5894
-252.056
-298.156
-268.0795
-197.2055
-190.2179
-222.755
-247.5265
-257.3671
-258.5538
-262.2918
-268.485
-275.0625
-280.2874
-283.56
-284.7472
-283.9188
-281.1848
-276.5892
-270.6733
-262.51
-253.3149
-243.4173
-232.0566
-219.7837
-206.4052
-193.1353
-179.9394
-166.6584
-153.5372
-140.5511
-128.6091
-117.1887
-107.0402
-97.26611
-88.24627
-80.08925
-72.75
-66.14011
-60.11912
-54.7759
-50.30924
-46.22307
-42.69669
-39.66331
-36.90567
-34.31453
-32.20984
-30.41926
-28.74779
-27.35273
-25.9587
-24.80181
-23.66546
-22.97514
-24.13847
-24.49613
-22.01527
-20.57182
-19.23882
-18.15862
-17.26865
-16.56287
-15.88419
-15.19857
-14.53131
-13.82059
-13.06712
-12.31926
-11.51405
-10.63273
-9.670066
-8.674976
-7.602368
-6.423964
-5.126708
-3.771333
-2.278352
-0.8054223
1.202142
1.152056
-0.6357375
-0.2585894
5.72298
14.42648
17.62795
13.08792
10.05715
11.25975
14.38399
18.26746
22.03755
24.9779
25.91108
23.56872
19.21195
12.79065
4.17173
-7.875885
-19.87092
-31.98139
-43.26199
-52.5269
-58.75057
-61.07587
-59.03727
-52.93826
-43.6335
-33.8682
-26.90314
-24.9016
-24.86192
-28.79728
-30.13776
-30.31489
-34.0114
-29.19611
-16.60671
-8.579141
-9.245019
-13.69868
-20.64877
-21.11659
-16.27314
-13.12103
-10.75908
-9.622333
-14.08668
-13.49923
-17.28691
-1.675945
3.038887
8.516232
12.28166
15.43861
18.23493
20.67115
22.89956
24.8827
26.68415
28.38603
29.92162
31.38284
32.80783
34.14146
35.39001
36.53665
37.68648
38.78559
39.84351
40.8489
41.829
42.73589
43.64325
44.54201
45.43669
46.28509
47.08173
47.86323
48.63612
49.39644
50.16462
50.90528
51.59142
52.30582
52.99476
53.69894
54.38326
55.06558
55.74131
56.41086
57.06125
57.71764
58.35617
58.99452
59.62514
60.24727
60.87343
61.51608
62.15928
62.78038
63.40268
64.01729
64.6575
65.32446
65.9718
66.61258
67.2754
67.93272
68.60313
69.27916
69.9639
70.65537
71.4223
72.20102
72.9134
73.70631
74.40012
74.65541
74.35051
73.2938
66.05739
62.16686
61.6815
61.43956
60.52709
59.33838
58.12443
56.97976
55.92877
54.91044
53.77828
52.65183
51.51364
50.44507
49.38397
48.33431
47.25853
46.16783
45.13012
44.08028
43.00279
41.93625
40.88245
39.77601
38.72319
37.61789
36.44351
35.32407
34.21158
33.09297
31.90693
30.68327
29.50093
28.28264
26.99174
25.73358
24.44888
23.06985
21.69782
20.31791
18.92157
17.40281
15.79243
14.19937
12.64628
10.9679
9.211596
7.415875
5.493534
3.496406
1.41434
-0.7691906
-2.895443
-5.312024
-7.836888
-10.48661
-13.39461
-16.30451
-19.64363
-23.20377
-27.023
-31.12702
-35.83282
-41.14241
-47.11594
-53.92726
-61.95182
-71.80342
-83.88722
-101.4705
-119.7172
67.08403
63.34248
62.14913
61.60355
60.7157
59.60765
58.34999
57.14525
56.1142
55.15401
54.02701
52.86656
51.66845
50.6146
49.58247
48.51181
47.39091
46.28003
45.27666
44.22486
43.12544
42.06804
41.02136
39.87534
38.90057
37.74246
36.53563
35.42975
34.28262
33.19856
31.99878
30.82424
29.64367
28.3755
27.01604
25.76466
24.49162
23.11909
21.77881
20.38322
18.9292
17.41179
15.85764
14.2478
12.65337
11.00218
9.244654
7.392277
5.473731
3.501886
1.466089
-0.7473199
-2.902579
-5.410649
-7.882443
-10.48697
-13.50755
-16.34937
-19.8041
-23.26494
-27.10485
-31.35228
-36.08224
-41.4113
-47.39582
-54.26843
-62.40862
-72.29208
-84.40298
-100.9026
-118.8208
-1.944858
3.042346
8.276686
12.12094
15.22086
18.14951
20.57433
22.78243
24.77395
26.63186
28.36436
29.85581
31.33055
32.7881
34.09707
35.3448
36.52546
37.6994
38.78046
39.83876
40.82038
41.81116
42.74728
43.62626
44.54733
45.45429
46.26594
47.09952
47.89042
48.63885
49.39053
50.20134
50.9714
51.60993
52.33645
53.02127
53.73981
54.42176
55.09733
55.76742
56.46111
57.12294
57.77391
58.40867
59.03672
59.68732
60.32434
60.93032
61.55893
62.23267
62.87784
63.49019
64.102
64.72996
65.41888
66.08495
66.68814
67.37961
68.06018
68.71724
69.3895
70.07663
70.75567
71.54802
72.36594
73.02001
73.73969
74.30677
74.39873
73.88135
72.4749
1.728127
-0.5435962
-1.737493
3.593428
12.14424
15.36748
10.98167
8.363403
9.742916
12.75251
16.60345
20.73146
23.8017
25.21783
23.08491
18.49286
12.74474
4.901981
-7.57757
-19.96626
-32.11786
-43.59487
-53.31569
-59.67184
-62.27016
-60.5672
-54.83874
-45.97459
-36.72673
-29.46645
-26.27441
-25.19086
-30.29251
-30.22298
-29.39418
-35.40931
-30.57066
-18.41296
-10.48561
-11.53685
-16.30511
-22.91891
-22.30833
-16.83484
-12.89906
-9.620659
-9.156361
-13.44661
-12.97634
-14.81934
-131.9131
-133.7251
-141.6903
-148.7753
-150.284
-147.8335
-143.1406
-143.6564
-149.3719
-153.8148
-154.1543
-154.3359
-152.688
-150.0375
-141.857
-132.4241
-124.8932
-125.1375
-134.4143
-149.2837
-182.7146
-245.2219
-294.4312
-272.9155
-209.319
-198.2981
-223.8997
-245.7234
-256.4801
-259.6126
-263.8807
-269.9472
-276.0757
-280.9071
-284.1043
-285.2966
-284.4344
-282.0363
-277.0316
-271.1693
-263.5195
-253.8881
-244.0021
-232.7841
-220.6298
-207.3816
-193.5795
-180.1785
-167.0723
-153.8963
-140.5702
-128.8608
-117.1949
-107.2446
-97.34826
-88.33298
-79.94409
-72.48264
-66.06301
-60.14661
-54.70555
-50.21303
-46.26671
-42.54429
-39.36335
-36.76768
-34.20256
-32.03673
-30.36246
-28.64386
-27.17795
-25.85499
-24.72418
-23.55187
-22.92115
-24.2965
-24.59059
-21.94286
-20.40086
-19.13806
-18.08589
-17.20764
-16.47528
-15.77945
-15.11241
-14.42389
-13.68768
-12.95041
-12.16423
-11.3428
-10.44505
-9.453932
-8.46092
-7.35839
-6.116001
-4.74882
-3.366585
-1.789974
-0.3034102
1.700782
-153.6257
-157.4678
-155.8384
-156.0701
-167.4504
-158.9625
-148.7697
-147.7648
-146.5179
-146.2981
-146.5815
-147.7339
-150.5547
-154.4964
-157.1277
-156.7032
-153.3792
-150.9541
-150.4602
-150.8967
-152.4813
-156.0246
-162.9913
-189.338
-189.9889
-167.5073
-160.1981
-179.7626
-196.7524
-203.9603
-207.2142
-203.0149
-189.7978
-169.2879
-151.1573
-140.3038
-125.4649
-107.1023
-94.24009
-86.33445
-79.18696
-75.30432
-72.95292
-72.5625
-73.95822
-76.79667
-82.9509
-88.72133
-98.45242
-108.9952
1.542979
0.3743954
15.47174
21.46352
18.10493
10.93515
10.61825
20.09561
22.20285
7.660358
19.8722
25.85223
0.6137747
40.04322
26.9482
20.8477
27.4537
19.13685
24.57474
-26.10602
18.10336
24.89402
8.811153
24.07952
4.257874
22.14209
24.24436
18.45056
20.62299
14.67849
28.71771
17.47615
19.77413
3.734297
25.2949
-1.4155
8.130149
25.42799
5.141341
23.27418
26.66968
0.4225063
-69.12108
17.91734
17.98941
-26.99265
1.611821
0.4713806
1.1119
27.53139
19.56991
7.630662
19.56321
14.51312
23.96225
6.141365
21.64369
27.02974
21.47935
0.3690143
23.04077
25.59442
9.425574
-10.54324
27.76046
15.06021
7.91484
14.47519
13.69446
15.3854
30.79116
14.12321
25.67014
18.35673
24.01386
25.24276
23.22818
23.71456
1.794915
26.65216
-3.33802
25.01348
13.72533
9.137828
19.82674
14.85221
25.56507
8.894107
15.46292
18.79569
23.0604
23.89015
21.83723
18.71875
-10.20969
18.75719
21.6655
24.26184
-119.4111
4.851103
14.28928
-61.50733
33.59449
17.98324
15.50375
21.16055
19.96886
23.77765
19.28774
20.25757
6.479704
-205.0328
8.446699
15.7197
16.28363
7.039113
9.728031
20.10599
15.01702
17.66356
17.47873
16.90708
14.40058
12.5222
20.47287
18.52079
0.895299
23.29634
-99.31281
5.456577
29.32838
25.28188
21.38703
18.95148
21.50255
5.388363
20.37199
-98.95825
18.84699
25.74746
21.50155
27.60897
21.17584
22.88027
3.796019
13.58264
25.68697
17.41216
4.153159
13.48037
27.88185
23.07985
14.80783
20.74258
36.0898
20.15704
10.92314
17.99929
22.07082
21.84766
19.70479
20.69654
20.02416
5.320001
24.52047
6.872476
17.6104
23.30637
8.933652
18.11231
21.39278
13.74184
8.339339
19.62438
15.62416
21.05245
16.41412
17.88381
10.47426
2.57767
15.20389
21.63449
13.46973
17.0745
18.58829
15.23174
23.22548
22.99903
22.99719
11.7156
21.37147
8.403121
25.38443
16.2735
-67.73449
17.68544
13.81796
-23.21161
15.07746
17.95516
3.703198
17.92055
18.84042
31.56831
17.92259
16.73562
38.40923
15.38965
21.47597
17.60162
9.708935
13.56223
13.99167
23.2638
-9.224054
6.527313
18.06208
12.82121
19.24122
21.57808
14.68099
20.56897
20.5775
19.78252
43.0785
5.394786
23.89809
4.044081
14.91358
19.74478
16.37766
21.60989
19.74715
23.61069
19.60736
4.783604
19.8917
24.2651
-24.26305
15.48927
15.63004
16.19943
-1.89158
5.200162
20.31059
12.29246
16.89096
18.83213
25.62503
24.13332
24.09979
-289.0683
26.17588
20.4198
-126.2405
43.59751
15.46565
19.08388
14.22569
20.31295
19.30185
-2.700874
17.87294
23.59521
24.52526
22.59012
24.79395
26.1432
20.87204
18.36744
18.14925
17.73292
12.88579
-55.81422
24.68936
-23.00559
23.38086
26.20469
2.364973
14.29476
18.24845
12.37767
18.30703
10.83349
24.01975
15.39731
19.19775
25.03231
26.15118
22.67437
24.14576
16.40582
-201.5615
24.26528
23.32605
-0.0423564
1.364674
-191.921
24.15521
18.07222
17.79764
2.13484
18.10375
25.52774
19.4194
3.410707
15.8787
24.22492
21.87911
16.833
18.33601
29.05277
9.56171
30.35201
16.8655
12.52486
17.85141
24.20821
17.4558
15.69755
15.9577
23.59704
13.82295
16.75396
20.49139
19.83118
22.19948
21.90867
17.14318
25.94218
22.85224
5.434073
18.15404
20.85759
23.30363
17.52601
16.68352
-137.7895
14.3671
-47.46975
25.9177
12.87485
22.35524
22.19066
23.40444
24.25193
30.55909
1.692544
-56.78105
8.566133
14.41916
17.88983