/*--------------------------------*- C++ -*----------------------------------*\
| =========                 |                                                 |
| \\      /  F ield         | OpenFOAM: The Open Source CFD Toolbox           |
|  \\    /   O peration     | Version:  2406                                  |
|   \\  /    A nd           | Website:  www.openfoam.com                      |
|    \\/     M anipulation  |                                                 |
\*---------------------------------------------------------------------------*/
FoamFile
{
    version     2.0;
    format      ascii;
    arch        "LSB;label=32;scalar=64";
    class       volVectorField;
    location    "0.5";
    object      U;
}
// * * * * * * * * * * * * * * * * * * * * * * * * * * * * * * * * * * * * * //

dimensions      [0 1 -1 0 0 0 0];

internalField   nonuniform List<vector> 
4529
(
(0.009906842 -0.0001474278 -2.475739e-26)
(0.009976697 -0.0001638039 -3.18477e-26)
(0.01005145 -0.0001329226 -4.970145e-27)
(0.01003365 -3.696759e-05 0)
(0.009767926 1.740262e-05 1.028698e-25)
(0.009951382 -2.446813e-05 0)
(0.009586809 0.0001599315 1.046555e-25)
(0.01003696 -5.908424e-05 0)
(0.009738087 -0.0002391048 -3.642926e-26)
(0.009963255 -3.285419e-05 1.53674e-26)
(0.009847883 5.43194e-05 1.9262e-25)
(0.009948355 1.77543e-05 0)
(0.009942772 -5.251849e-06 9.572603e-26)
(0.009942583 9.955305e-06 0)
(0.009935932 -4.408361e-05 -1.72209e-26)
(0.009931117 -0.0002526603 0)
(0.01005129 -6.401135e-05 -1.041737e-25)
(0.009662897 -8.893101e-05 0)
(0.009913391 -0.0001020917 -9.170796e-26)
(0.01014766 -0.0002788179 -1.517407e-25)
(0.009731641 2.617727e-05 -2.507512e-25)
(0.009910246 -8.422358e-05 -4.74814e-26)
(0.009846103 -0.0001243981 -1.222555e-25)
(0.009886533 2.735892e-05 8.947816e-27)
(0.009935334 4.877034e-07 -1.18911e-26)
(0.01008063 -0.0003150897 0)
(0.009969218 -3.14286e-05 2.120753e-26)
(0.009836415 -0.0001584457 1.784942e-25)
(0.01002611 -5.451476e-05 2.779278e-27)
(0.01000463 -0.0002842113 0)
(0.0098288 -0.0001191272 -1.969004e-25)
(0.009882551 -3.442725e-05 8.314306e-26)
(0.009998673 -8.225859e-05 0)
(0.010007 -6.016173e-05 1.599504e-27)
(0.009931601 -0.000244462 -2.087424e-25)
(0.009716962 0.0001291414 1.89521e-25)
(0.009941267 2.430759e-06 -2.917122e-26)
(0.009930271 4.980007e-05 -3.531756e-26)
(0.01000947 -0.0002435614 -4.64174e-26)
(0.01000598 -7.16355e-05 -8.01096e-28)
(0.009958632 2.777508e-05 -8.694908e-27)
(0.009956825 -4.31673e-05 3.926564e-27)
(0.009921525 -4.0254e-05 0)
(0.009878474 -9.567378e-05 0)
(0.009972785 -8.283186e-05 0)
(0.009988797 -0.0001397894 -2.639229e-27)
(0.009968882 -0.0003080933 2.736628e-25)
(0.009938365 -0.000109868 0)
(0.009888874 -0.0001060221 0)
(0.00970927 -0.0002228871 -1.51302e-25)
(0.009920887 1.179343e-05 1.588488e-27)
(0.009972184 -3.894968e-05 -3.069454e-27)
(0.009924649 -9.936137e-05 7.474919e-26)
(0.01004335 -0.0001488063 -2.504577e-26)
(0.01003398 -7.652615e-05 7.575978e-27)
(0.01013271 -0.0002731443 6.94758e-26)
(0.009947296 -5.141655e-06 2.019274e-27)
(0.009845417 1.633348e-06 -3.533906e-27)
(0.009786305 -2.977732e-05 0)
(0.009816648 -0.0001754388 -1.099315e-25)
(0.01003864 -0.0002216711 3.082668e-26)
(0.009918673 1.517303e-05 -8.695946e-28)
(0.009614144 0.0001050775 1.626132e-25)
(0.009852904 -2.437504e-06 0)
(0.009979674 -3.500719e-05 2.092661e-26)
(0.009918004 1.712138e-05 -1.547579e-26)
(0.01000256 -4.941272e-05 0)
(0.009950238 -5.056672e-05 -1.523249e-26)
(0.009935531 5.182125e-05 2.438877e-26)
(0.00970526 -5.238272e-05 -6.498852e-26)
(0.009821033 5.879687e-05 0)
(0.009995465 -3.758856e-05 0)
(0.009963124 -0.0002475573 0)
(0.01005387 -1.37834e-05 0)
(0.00993725 -0.0002568852 -1.090309e-26)
(0.01001551 -4.428543e-05 -1.028734e-26)
(0.01002194 -3.820776e-05 -2.6154e-26)
(0.009924873 -5.271843e-05 0)
(0.009928917 -4.434031e-05 0)
(0.01005346 -8.276314e-05 7.937127e-26)
(0.00981578 7.979971e-05 -1.001063e-25)
(0.01000301 -7.738431e-05 -2.449218e-27)
(0.009802116 7.661164e-05 0)
(0.009959522 -2.814425e-05 2.582825e-26)
(0.009766364 -0.0002193751 -9.152572e-27)
(0.00962927 -0.0002442502 -6.940417e-25)
(0.009833279 3.174146e-05 1.17373e-25)
(0.009851081 1.733854e-05 -7.190157e-26)
(0.01000849 -3.91815e-05 -9.562339e-27)
(0.01001921 -7.366446e-05 1.311788e-26)
(0.009930782 -0.0001035396 3.642134e-26)
(0.009850747 -9.500884e-05 -1.200396e-25)
(0.009924851 5.261249e-05 0)
(0.009967917 -0.0003232556 0)
(0.009734522 1.792362e-06 0)
(0.009506284 0.0001018541 -4.923205e-25)
(0.009696229 0.0001274186 -9.054006e-26)
(0.009776397 -9.473187e-05 2.11166e-25)
(0.009893216 2.900185e-05 -6.161777e-26)
(0.009862233 -0.0001296991 4.236173e-26)
(0.009914406 -8.044658e-06 -3.997398e-27)
(0.009947591 4.211237e-05 -2.203382e-26)
(0.009994559 -6.385394e-05 -1.008241e-26)
(0.00980204 -7.702141e-05 -3.678227e-25)
(0.009849651 -8.398782e-05 8.597851e-26)
(0.009976143 -0.0001589168 1.252751e-25)
(0.009912264 -1.032024e-06 -2.958935e-26)
(0.01001992 -9.041844e-05 9.245379e-27)
(0.009919369 -1.35764e-05 -8.910041e-27)
(0.009874125 -0.0001803432 5.144506e-26)
(0.009985525 -4.194527e-05 6.841775e-27)
(0.009906334 -1.96874e-05 0)
(0.009649052 0.0001014534 -4.474738e-25)
(0.009840096 2.30406e-05 0)
(0.01005121 -0.0001810761 0)
(0.009960482 -3.728494e-05 -7.022826e-27)
(0.009921468 -0.0001127936 4.394358e-26)
(0.009868501 -7.522456e-05 -9.762482e-26)
(0.00965558 -0.0001472356 -6.768831e-29)
(0.009935986 -3.630179e-05 0)
(0.009988359 -0.0002796334 7.770961e-27)
(0.009989432 -4.368072e-05 1.969861e-27)
(0.009973743 -6.708668e-05 -1.428492e-26)
(0.009918271 4.791764e-05 0)
(0.01002351 -5.749711e-05 4.348761e-27)
(0.00962405 -0.0002572325 3.582572e-25)
(0.009955371 -2.519603e-05 2.909902e-26)
(0.009966578 -4.753801e-05 3.351481e-27)
(0.009953032 2.99635e-05 2.791723e-26)
(0.009932744 -8.861873e-06 -1.691001e-26)
(0.009942891 1.494362e-05 -3.601204e-26)
(0.009921872 -8.255113e-05 5.216156e-26)
(0.009917183 2.447423e-05 -3.128323e-26)
(0.009844776 2.145532e-05 2.449625e-25)
(0.00981443 -8.142507e-05 0)
(0.01000471 -9.467638e-05 0)
(0.009979267 -8.375189e-05 -2.435089e-26)
(0.009615519 7.000711e-05 0)
(0.009964429 -0.0001051972 -5.483348e-26)
(0.01000808 -8.070067e-05 0)
(0.009967804 2.96345e-05 -4.378667e-26)
(0.009990912 -3.751816e-05 0)
(0.009825691 -5.580206e-06 -1.098351e-25)
(0.01002319 -0.0001877588 2.177263e-26)
(0.009999801 -0.0001118887 -2.5729e-26)
(0.01010576 -0.0002947194 -1.171751e-26)
(0.009761889 -0.0001800922 0)
(0.009686317 -0.000211809 0)
(0.009925108 -2.853661e-05 -8.00349e-27)
(0.009646628 1.647618e-05 -3.883885e-25)
(0.009978143 -4.114195e-05 0)
(0.009944514 4.140149e-05 -1.936335e-27)
(0.01001168 -4.098521e-05 -2.309707e-27)
(0.00997883 -0.0002553143 -7.399925e-26)
(0.00961226 -7.902476e-05 0)
(0.009746618 -0.0001223925 2.581446e-25)
(0.00999975 -0.0001046138 0)
(0.009938649 -3.440756e-07 2.190412e-26)
(0.01008688 -0.0002678799 0)
(0.009978312 -3.861444e-05 1.366975e-26)
(0.009988303 -5.782503e-05 -8.976515e-27)
(0.01000896 -0.0003017814 5.502718e-26)
(0.009873498 -6.109091e-05 1.792726e-25)
(0.009917601 -6.560172e-05 0)
(0.009934868 4.512318e-06 -3.528641e-27)
(0.009891834 -0.0001739716 2.344606e-25)
(0.00968359 -0.0002364311 4.80595e-26)
(0.01007161 -0.000247276 -1.073901e-26)
(0.009804078 -9.166857e-05 0)
(0.01003905 -0.0001456995 0)
(0.00997842 -9.632974e-05 -1.360182e-26)
(0.009832418 -3.173053e-05 0)
(0.009539875 7.317142e-05 2.873934e-25)
(0.009964928 -7.469761e-05 -3.217482e-26)
(0.009868451 4.795234e-05 2.859127e-26)
(0.009801867 4.106321e-05 1.91978e-25)
(0.01002087 -7.156842e-05 0)
(0.009931913 -0.0001733158 1.684891e-26)
(0.00993821 -1.324963e-05 -2.171028e-26)
(0.009652492 -7.979632e-05 0)
(0.009985769 -9.588e-05 1.86269e-26)
(0.009888105 -1.087002e-05 0)
(0.009912247 -5.771084e-05 -4.968335e-26)
(0.01003153 -8.932526e-05 0)
(0.009925103 5.021527e-05 -8.93418e-27)
(0.01008388 -5.740588e-05 -8.562067e-26)
(0.01012032 -0.0002237591 1.134838e-25)
(0.009917478 2.985412e-05 4.355116e-26)
(0.00993152 -5.496867e-05 -7.836003e-27)
(0.009686099 0.0001192054 -2.471619e-25)
(0.009971775 -0.000243844 0)
(0.009921597 -1.993948e-05 1.236594e-26)
(0.01002233 -6.152237e-05 2.216107e-28)
(0.009928199 -0.0002203368 0)
(0.009893321 -1.658199e-05 0)
(0.009908422 -2.773071e-05 0)
(0.009827659 5.680323e-05 0)
(0.00996312 2.799704e-05 0)
(0.00992513 -5.024724e-05 0)
(0.009898543 -4.13963e-05 -7.161254e-26)
(0.009920967 2.408988e-05 0)
(0.009923437 4.166391e-05 0)
(0.009922894 3.4701e-05 -1.114301e-26)
(0.009873248 2.325328e-05 1.468096e-26)
(0.0100453 -0.0001816102 1.499079e-27)
(0.009893295 -7.5089e-07 -5.420559e-26)
(0.009911969 3.555007e-05 0)
(0.009937861 5.264576e-05 2.334642e-26)
(0.0100113 -6.528188e-05 -5.484351e-27)
(0.009580122 -4.425841e-05 6.013721e-25)
(0.009621857 -1.414376e-05 3.561675e-26)
(0.009948247 3.34512e-05 -1.057502e-27)
(0.009886735 -8.158214e-05 0)
(0.009753407 6.077525e-05 2.096646e-25)
(0.00995637 -5.621885e-05 0)
(0.009954271 -4.796275e-05 3.44091e-26)
(0.009667093 -6.684965e-06 2.560586e-25)
(0.009834554 4.860877e-05 -8.245598e-27)
(0.009595434 -0.0001926673 7.623277e-25)
(0.009740831 -4.685769e-06 1.248385e-25)
(0.009955405 -1.931484e-05 -6.070181e-26)
(0.009784775 -0.0001065782 -3.683442e-25)
(0.009943408 2.871889e-05 -2.408154e-27)
(0.01004253 -9.068131e-05 -3.562464e-26)
(0.009807307 -0.000242539 4.470708e-26)
(0.009876126 -0.0001982521 -4.085879e-25)
(0.009876693 -1.961522e-05 -4.282618e-26)
(0.009835434 4.276802e-05 0)
(0.009934943 -0.0001307876 1.701262e-27)
(0.009901573 2.220793e-06 0)
(0.00955225 -3.545834e-05 -3.503973e-25)
(0.009923259 -3.180407e-05 3.365128e-26)
(0.01001404 -6.752437e-05 -2.48999e-28)
(0.009890979 -0.0002534067 -4.328088e-25)
(0.009923765 -3.308413e-06 -4.703067e-27)
(0.009927805 1.209677e-05 0)
(0.009987334 -4.153735e-05 -7.341565e-27)
(0.009936047 1.39383e-05 0)
(0.009880662 -0.0001031626 0)
(0.009952881 -2.806708e-05 1.280918e-26)
(0.009974085 -3.288566e-05 3.917245e-28)
(0.009850306 2.060895e-06 0)
(0.009956996 -2.090595e-05 -5.673387e-26)
(0.009855418 -2.05033e-05 0)
(0.00985285 6.720864e-06 0)
(0.009877502 -0.0003095827 -1.622297e-25)
(0.009913479 -0.0002795053 4.953199e-26)
(0.009575112 1.575756e-05 4.724968e-25)
(0.009939779 3.013181e-05 -9.153365e-27)
(0.009935092 -1.717008e-05 4.46164e-28)
(0.009905858 4.397993e-06 1.204739e-27)
(0.009949061 -0.0002465012 0)
(0.009693005 -0.0002730537 1.038444e-25)
(0.01002031 -3.730284e-05 -1.025027e-27)
(0.00982728 -0.0001940905 0)
(0.009995358 -5.492662e-05 0)
(0.009954018 -2.062925e-05 0)
(0.009931693 2.796423e-05 0)
(0.009968624 -5.215064e-05 0)
(0.009761441 -4.026507e-05 0)
(0.009916898 -0.0001869653 0)
(0.009956912 -0.0001596731 -4.333456e-26)
(0.009836546 7.112463e-05 1.400028e-25)
(0.009992803 -8.499326e-05 0)
(0.01001119 -8.888778e-05 -1.799298e-27)
(0.009981003 -4.021508e-05 -9.805827e-27)
(0.009986882 -7.463815e-05 -3.182208e-27)
(0.009915327 1.319629e-05 0)
(0.009919366 2.816876e-05 4.271831e-26)
(0.00999628 -0.0002738653 -2.726588e-26)
(0.009805038 5.103808e-05 -1.334813e-25)
(0.009835222 -9.868871e-06 0)
(0.009963863 -0.0001896059 -2.68402e-26)
(0.009892496 -0.0002387548 6.124337e-27)
(0.01001562 -5.232678e-05 0)
(0.009754101 -8.096299e-05 -2.225925e-25)
(0.009882478 -2.527249e-05 6.086604e-26)
(0.009953383 2.27056e-05 -4.760191e-26)
(0.00991041 -0.0002901556 -1.374532e-25)
(0.01002583 -7.511392e-05 -5.059069e-27)
(0.01002151 -6.376991e-05 1.22277e-27)
(0.01002052 -3.588806e-05 -2.074649e-26)
(0.01001237 -4.865016e-05 6.593693e-27)
(0.009948035 5.730352e-06 6.62665e-26)
(0.01006689 -0.0002104043 0)
(0.009745717 -0.0001032702 -2.035815e-25)
(0.00994285 1.592294e-06 8.144466e-26)
(0.009892653 7.853393e-06 1.448425e-25)
(0.009875363 3.88974e-06 9.429785e-27)
(0.0101651 -0.0001289476 -3.776626e-26)
(0.00967771 -6.307212e-06 -2.281901e-25)
(0.01020439 -0.0001279649 -1.152869e-25)
(0.009945772 1.988154e-05 -3.775118e-26)
(0.01003307 -0.0001704917 3.211953e-27)
(0.009981153 -0.0001121576 1.019378e-26)
(0.00987926 5.165728e-05 -2.152842e-25)
(0.009903038 -9.424824e-05 -1.045796e-25)
(0.00995626 -2.317863e-05 0)
(0.009609223 5.857374e-05 5.219622e-25)
(0.009676001 -8.416026e-05 0)
(0.009987527 -0.0001117536 -3.569352e-26)
(0.009830682 2.143096e-05 0)
(0.009826374 -1.656711e-05 0)
(0.009831377 6.732443e-05 1.232234e-25)
(0.009882388 -3.871361e-05 -3.670561e-27)
(0.01011186 -9.390833e-05 -7.081269e-26)
(0.009973335 -0.0001377805 0)
(0.009566576 8.640244e-05 5.577618e-26)
(0.009822423 -0.0001813267 2.30575e-25)
(0.009942712 -5.294338e-05 -3.064265e-26)
(0.01006017 -0.0002117411 -1.184356e-26)
(0.009966164 -9.082632e-05 2.323853e-26)
(0.009734503 -0.0002201713 -4.545666e-26)
(0.00989779 -8.647176e-05 1.281823e-25)
(0.009904324 -0.0001147724 9.661481e-26)
(0.009994759 -0.0002666192 -1.078308e-25)
(0.009969163 -3.334424e-05 -4.106678e-27)
(0.009796871 -4.079798e-05 0)
(0.009728038 -2.599516e-05 -1.220701e-25)
(0.01005264 -7.61892e-05 0)
(0.009955599 2.937571e-05 -2.212314e-26)
(0.01004179 -4.572415e-05 0)
(0.009920018 3.757444e-06 1.08681e-27)
(0.009920755 -2.38768e-05 -1.155764e-26)
(0.009944079 -1.646435e-05 -4.967335e-26)
(0.009984895 -6.942165e-05 -2.731662e-26)
(0.00982481 6.99399e-05 -1.277461e-25)
(0.009916767 -1.253896e-06 1.667936e-26)
(0.009918487 5.543726e-06 -1.251476e-26)
(0.009900226 1.249661e-05 0)
(0.009897939 -3.056505e-06 6.938239e-27)
(0.01002608 -0.0003026328 3.781201e-26)
(0.009956396 2.829432e-05 0)
(0.009864559 -6.404272e-05 -8.432369e-27)
(0.00994935 -1.11411e-05 0)
(0.009984706 -0.0001423165 -3.222552e-26)
(0.01003151 -0.0002224619 -9.913587e-27)
(0.009961547 -0.0001312034 -1.801056e-25)
(0.009882165 4.047182e-05 0)
(0.009956347 -2.628997e-05 -1.922653e-26)
(0.009938046 1.699236e-05 0)
(0.009578159 -0.0001978421 -1.876185e-25)
(0.009673166 -0.0001949238 0)
(0.009903656 4.027038e-05 -5.708024e-26)
(0.009872476 5.626982e-05 3.493897e-27)
(0.009942856 -0.000139787 0)
(0.009953924 2.518378e-05 0)
(0.009948282 2.042885e-05 5.075768e-26)
(0.009707614 -0.0001796159 3.620459e-25)
(0.01004336 -0.0002657612 6.437672e-26)
(0.01003005 -5.615338e-05 2.008314e-26)
(0.01001777 -0.0001721947 -1.026318e-26)
(0.009545904 0.0001356787 0)
(0.009968677 -9.368926e-05 2.923358e-27)
(0.009989141 -4.872741e-05 0)
(0.01019606 -0.0001069075 -4.296488e-26)
(0.009976935 -6.369267e-05 0)
(0.009973636 -0.0002227106 -2.072196e-26)
(0.01001729 -3.492966e-05 6.386152e-26)
(0.009952471 -0.0001273762 -9.828506e-27)
(0.01003727 -0.0001156052 4.422226e-27)
(0.009862638 -0.0001637424 0)
(0.009915299 -0.0001638355 -5.832784e-26)
(0.009737712 6.770158e-05 0)
(0.009813685 3.660949e-05 0)
(0.009930416 -2.90071e-06 -8.146027e-28)
(0.009978669 -0.0001744588 0)
(0.009886382 1.775799e-05 -6.93181e-26)
(0.01004722 -3.668451e-05 0)
(0.009730878 0.0001029648 1.905076e-25)
(0.009917001 -0.000194744 4.333939e-26)
(0.009737572 -0.0001177165 -2.595487e-25)
(0.009921035 -0.0001664516 3.394938e-25)
(0.01003476 -0.0001125921 -2.006825e-28)
(0.01005218 -0.0001156333 0)
(0.009794447 -2.830323e-05 -1.392182e-26)
(0.009861413 -4.345102e-05 2.353779e-26)
(0.01002675 -9.844767e-05 -5.080362e-27)
(0.01001601 -0.0001226765 -1.047056e-27)
(0.009949419 -0.0001756285 -2.264175e-26)
(0.009940687 -0.0002038908 0)
(0.01019024 -0.0001536595 4.528074e-26)
(0.0100268 -8.508694e-05 2.526862e-26)
(0.009985953 -7.822687e-05 8.774347e-27)
(0.009927021 -4.244574e-06 1.222727e-27)
(0.009991897 -0.0001665172 0)
(0.0099967 -0.0001771149 1.921297e-26)
(0.009963274 -0.0001503058 3.741552e-26)
(0.00986482 -0.0003087795 0)
(0.01005153 -0.0001694505 -1.720021e-26)
(0.009741307 -0.0001472158 -2.59688e-25)
(0.009917366 2.18313e-05 1.204778e-26)
(0.009901127 2.028237e-05 0)
(0.009999057 -6.116458e-05 5.548433e-27)
(0.01006075 -0.0001529206 -3.742125e-26)
(0.009945399 -4.277101e-05 2.479136e-26)
(0.01008201 -0.0001214608 8.702841e-26)
(0.009937911 -2.230659e-05 8.175087e-27)
(0.009945962 2.125574e-05 2.797403e-26)
(0.009956628 2.3488e-05 -6.237048e-26)
(0.009965937 -0.000132994 3.195523e-26)
(0.009987448 -6.506204e-05 4.099245e-27)
(0.009947468 -0.0001644246 -4.95605e-26)
(0.009968985 -0.0001936427 -6.290466e-26)
(0.009576074 0.0001378041 2.238254e-25)
(0.0100579 -0.0001054023 -4.00336e-26)
(0.0100127 -0.0002518423 0)
(0.009902735 5.296833e-05 0)
(0.01001348 -8.463112e-05 7.510764e-27)
(0.009820127 -3.591237e-05 -2.281455e-25)
(0.009932041 9.655364e-06 -1.136735e-26)
(0.009918226 -0.0002972701 -1.411184e-26)
(0.009769117 -9.072725e-05 -1.835329e-25)
(0.01007206 -1.098981e-05 0)
(0.009929576 -8.742774e-05 0)
(0.009956418 -6.417981e-05 0)
(0.01001316 -5.620422e-05 2.748251e-26)
(0.009962802 -6.350828e-05 3.170195e-26)
(0.01022891 -0.0001402577 3.106011e-25)
(0.009957233 -0.0001136256 -1.012923e-25)
(0.009959624 -8.858686e-05 4.392137e-26)
(0.009974609 -9.636892e-05 1.530851e-26)
(0.009978844 -7.150797e-05 -1.505946e-26)
(0.01000334 -4.414118e-05 -7.995348e-28)
(0.009937805 -3.998439e-06 0)
(0.01007824 -0.000262437 -1.774489e-30)
(0.009600972 -6.77964e-05 0)
(0.01009364 -0.0001995297 0)
(0.009651955 5.109544e-06 0)
(0.00965658 -6.61014e-05 0)
(0.009979339 -0.0002117265 -1.295233e-26)
(0.009808509 -0.0001768738 0)
(0.010002 -0.0001497049 0)
(0.009848953 -0.0001867589 4.453823e-26)
(0.01002576 -0.0001116125 -3.304811e-27)
(0.009944318 -1.794792e-05 -3.725751e-26)
(0.00984886 -0.0002954851 -4.439441e-25)
(0.00992087 -3.044817e-05 -2.592603e-26)
(0.009913714 1.488244e-05 0)
(0.01003277 -0.0002431502 5.377809e-26)
(0.01000079 -7.588637e-05 3.012401e-27)
(0.009958991 -3.223545e-05 0)
(0.009947749 -2.329397e-05 0)
(0.009990687 -0.0001773007 0)
(0.009896064 -5.772087e-05 5.124306e-27)
(0.009956129 -2.471128e-05 -1.126632e-27)
(0.009712456 8.187736e-05 -2.62236e-26)
(0.009727678 4.132413e-05 0)
(0.009976591 -6.629482e-05 2.777911e-26)
(0.009968496 -0.0001745976 -9.17825e-26)
(0.009932445 -6.037679e-05 0)
(0.009927813 -8.065872e-05 -1.748327e-26)
(0.009961045 -8.494697e-05 -6.107212e-26)
(0.009952075 -7.936937e-05 -4.664108e-26)
(0.009961826 -6.648616e-05 -2.060175e-26)
(0.009907789 -4.56481e-05 -4.913952e-26)
(0.009916882 -4.721925e-05 5.462281e-26)
(0.009953731 -7.605678e-05 0)
(0.009952498 -5.870189e-05 0)
(0.009911119 -4.720014e-05 -2.924284e-27)
(0.009950935 -2.75516e-05 1.535318e-26)
(0.00992782 -5.942758e-05 1.337851e-26)
(0.009935178 -7.992448e-05 3.384479e-26)
(0.009956829 -6.977662e-05 -3.599724e-26)
(0.009796163 4.011441e-05 -1.925048e-25)
(0.009921012 -0.000126574 2.553883e-26)
(0.009705031 -0.0002672297 -1.724666e-25)
(0.01004141 -0.0001870547 1.215825e-26)
(0.009945364 -2.969391e-06 0)
(0.01001496 -7.523715e-05 1.358136e-28)
(0.009948879 -0.0002122158 -9.273884e-26)
(0.009961289 3.231435e-05 2.404009e-26)
(0.009965613 -3.596571e-05 0)
(0.01005463 -0.0001639343 1.106987e-26)
(0.009902142 -5.741914e-05 5.694698e-26)
(0.009778953 -0.0002327821 -3.853702e-25)
(0.009701354 -2.442722e-05 0)
(0.009669307 -0.0001251465 -2.404781e-25)
(0.0100181 -3.964449e-05 6.685913e-27)
(0.01004322 -9.932447e-05 0)
(0.009916824 -0.0001340273 0)
(0.01001059 -4.413725e-05 1.018843e-26)
(0.01000958 -4.141918e-05 2.268858e-27)
(0.009825275 -9.853663e-05 -1.511916e-25)
(0.009996131 -4.163342e-05 9.505267e-27)
(0.009629296 -0.0001326222 -5.657715e-25)
(0.00992654 -8.877314e-05 1.194444e-26)
(0.00992811 -2.368224e-05 4.566898e-27)
(0.009602296 0.0001537908 -4.490411e-25)
(0.009956679 3.073045e-05 2.055939e-26)
(0.009938366 -1.877186e-05 -9.233181e-28)
(0.01003659 -5.531098e-05 4.326113e-27)
(0.01002524 -4.9944e-05 7.294186e-27)
(0.009889786 -0.00012942 -3.32946e-26)
(0.009855184 -0.0001218829 -1.780012e-25)
(0.00979165 2.139919e-05 0)
(0.009795997 -0.0002052462 -3.723756e-25)
(0.009748419 -0.000232539 3.338818e-25)
(0.009994048 -3.785464e-05 0)
(0.009992188 -3.916071e-05 -2.28118e-28)
(0.009937764 -0.0001463762 -1.150037e-25)
(0.009647221 -5.638401e-05 0)
(0.00994075 2.355827e-05 5.577368e-27)
(0.00998978 -8.599425e-05 -4.757399e-27)
(0.009966371 -3.206915e-05 -7.426437e-28)
(0.01001794 -6.135796e-05 3.220467e-27)
(0.009918479 1.143143e-05 0)
(0.009923044 2.082693e-05 -8.532754e-27)
(0.009944788 6.09901e-06 4.073989e-26)
(0.009662178 -0.0002124531 4.340883e-25)
(0.009912809 -7.415618e-05 0)
(0.009934747 -1.333425e-05 4.91823e-26)
(0.009923273 -7.680487e-06 0)
(0.009868911 6.304959e-05 -1.257514e-25)
(0.009880443 2.501682e-05 0)
(0.009754427 -6.231033e-05 0)
(0.009942476 -0.0001672056 3.901248e-26)
(0.00993306 -2.310677e-05 -3.039145e-26)
(0.009936825 -0.0001020266 6.630231e-26)
(0.009824732 -0.0002021273 0)
(0.01018929 -0.0002123529 0)
(0.009800508 -0.0002706055 -8.884567e-26)
(0.009896057 3.113281e-05 -4.65921e-26)
(0.0102539 -0.0002209662 0)
(0.01005654 -8.494464e-05 -2.713934e-26)
(0.01003219 -4.755211e-05 0)
(0.0100731 -2.97451e-05 0)
(0.009907536 -0.000236528 1.381869e-25)
(0.00990257 -0.0001965409 0)
(0.009890093 -3.898219e-05 -4.404938e-27)
(0.009771436 -5.864813e-05 2.211659e-25)
(0.009746398 -7.511481e-05 0)
(0.009774663 -0.0001887765 3.009841e-25)
(0.009963535 -9.834422e-05 0)
(0.00998101 -0.0001252117 -2.210738e-27)
(0.01000984 -0.0001129437 2.765823e-27)
(0.009990376 -0.0001013209 2.892868e-26)
(0.009945155 -2.578278e-05 0)
(0.009941886 -3.544727e-05 -6.342974e-27)
(0.009953945 3.508013e-05 3.28209e-27)
(0.01001512 -3.634185e-05 0)
(0.00993041 1.667582e-05 -1.117301e-26)
(0.009920007 -8.815363e-05 4.403456e-26)
(0.009953778 -2.987222e-05 -1.28151e-26)
(0.01000527 -6.667001e-05 0)
(0.01005592 -7.167255e-05 -1.236967e-26)
(0.009964051 -5.790798e-05 6.454368e-27)
(0.00990748 -2.49812e-06 3.737315e-26)
(0.009779572 -0.0001206793 0)
(0.009885144 -0.0001738006 -7.811612e-26)
(0.009904095 -0.0001513875 0)
(0.009874719 3.403231e-05 1.240668e-25)
(0.009890757 -5.43566e-05 3.277616e-26)
(0.009896086 -5.38364e-05 -8.393229e-26)
(0.01002969 -0.0001551403 -1.423736e-26)
(0.010036 -0.0002088585 1.005089e-25)
(0.009858544 -2.949172e-05 0)
(0.009642261 0.0001145335 2.014969e-25)
(0.009833288 -8.138585e-05 1.334624e-25)
(0.009853676 -8.616202e-05 0)
(0.009979628 -6.296597e-05 0)
(0.009950491 -3.471449e-05 9.238463e-27)
(0.009893223 3.936311e-05 0)
(0.009831339 -9.398867e-05 2.840833e-26)
(0.009942692 1.153289e-05 2.929008e-26)
(0.009891652 -3.270536e-05 0)
(0.009898857 -1.754633e-05 0)
(0.009901993 -1.32055e-05 -1.214354e-26)
(0.009913907 -2.115144e-05 -2.065065e-26)
(0.01001104 -8.146302e-05 0)
(0.009913149 -0.0001112621 9.866467e-26)
(0.009910252 -9.645565e-05 2.594864e-26)
(0.00994132 -1.343575e-05 0)
(0.00976182 -7.741673e-05 1.960719e-25)
(0.01004572 -9.28656e-05 3.125953e-26)
(0.009889022 -0.0001986007 0)
(0.009925018 -1.142305e-05 0)
(0.009634158 6.017612e-05 -3.568435e-25)
(0.01015229 -0.0002103363 1.630615e-25)
(0.009900731 -3.696586e-05 -6.863461e-27)
(0.00994047 -9.602619e-06 0)
(0.009958562 -2.911582e-05 -2.114999e-26)
(0.009772964 1.166476e-05 0)
(0.009971172 -0.0002925749 -8.542739e-26)
(0.009810877 -0.0001901817 2.445773e-25)
(0.009963954 3.0237e-05 0)
(0.01002608 -3.420357e-05 -2.682418e-26)
(0.009993795 -3.878447e-05 0)
(0.00968593 -4.746216e-05 3.20783e-25)
(0.009955071 -0.0001003557 -6.324935e-26)
(0.009985974 -0.0001054673 0)
(0.009992811 -4.706487e-05 -1.133807e-27)
(0.009967269 -4.291982e-05 1.543467e-26)
(0.009945296 -3.806746e-05 -2.065604e-26)
(0.009931282 -1.157578e-05 0)
(0.009930121 -4.74741e-06 -4.103646e-27)
(0.01004865 -9.072512e-05 1.567577e-26)
(0.01003354 -0.0001256214 2.259184e-26)
(0.01007776 -0.0001746448 0)
(0.009700967 -7.466614e-05 0)
(0.009728269 -9.344988e-05 0)
(0.009967694 -4.087097e-05 -1.052655e-26)
(0.0100958 -0.0001066675 0)
(0.009885996 -0.0001637545 0)
(0.01007077 -0.0003160509 3.20364e-26)
(0.009984848 -5.26162e-05 2.850114e-27)
(0.009994712 -6.146776e-05 8.766679e-27)
(0.01005817 -0.0001125158 4.275417e-26)
(0.00992808 -3.416882e-05 -2.39179e-26)
(0.01005239 -9.393582e-05 -9.898271e-27)
(0.00992775 4.878332e-05 8.551894e-27)
(0.01009614 -0.0002276958 -7.161551e-26)
(0.009558074 -0.0001053504 -1.991382e-25)
(0.00987162 -0.0001867083 -7.067157e-26)
(0.01001527 -3.787424e-05 2.095045e-26)
(0.009803971 -0.000127209 0)
(0.00998078 -4.755147e-05 4.888108e-27)
(0.009969239 -4.374406e-05 5.034737e-28)
(0.009955853 -0.0001072527 4.841154e-26)
(0.01014963 -0.0001841354 -2.142651e-25)
(0.009973378 -0.0001337971 0)
(0.009711393 5.15079e-06 3.737397e-25)
(0.009823412 7.664705e-05 0)
(0.009880808 -8.72334e-05 0)
(0.009854485 -9.130886e-05 1.005838e-25)
(0.009883415 -9.458474e-05 -9.374684e-26)
(0.009902074 -8.434957e-05 -9.340372e-26)
(0.01010816 -8.101374e-05 0)
(0.009991899 -3.647719e-05 0)
(0.009903368 4.586715e-06 -5.360082e-26)
(0.0101414 -0.0001730699 1.373696e-25)
(0.009936443 -4.196605e-06 1.699294e-26)
(0.00988693 -9.769216e-05 -1.063783e-25)
(0.009921571 4.26702e-05 0)
(0.01000801 -0.0001377263 3.9572e-27)
(0.00993163 -2.288242e-05 1.759376e-26)
(0.009944676 -2.391631e-05 -1.547502e-26)
(0.009972601 -0.0002608757 7.777047e-26)
(0.00989644 5.245723e-05 -5.917929e-26)
(0.009920376 -2.230771e-06 -2.069492e-26)
(0.009945588 -0.0001924797 4.334214e-26)
(0.01003356 -0.0001647265 6.412883e-26)
(0.01004518 -0.0001693706 8.213912e-27)
(0.01017186 -0.0001023723 4.857592e-26)
(0.009787929 -0.0002193289 1.034775e-25)
(0.01001861 -6.855134e-05 -7.668996e-27)
(0.009932531 3.689434e-05 -3.61284e-27)
(0.009790322 -0.0002796221 -2.970694e-25)
(0.01001646 -7.983165e-05 0)
(0.01000905 -0.000100968 0)
(0.01003959 -9.237452e-05 0)
(0.009764997 -5.307106e-05 -1.786182e-25)
(0.009869644 -1.182849e-07 1.666388e-25)
(0.009881002 1.518471e-06 9.781585e-27)
(0.009875383 -3.289688e-05 7.512568e-26)
(0.009780346 -0.0001804399 -1.157852e-25)
(0.009942571 -2.163929e-05 9.835945e-27)
(0.009993273 -5.421639e-05 -1.543013e-26)
(0.009991014 -4.968101e-05 2.454748e-27)
(0.009792951 -1.604839e-05 1.762466e-26)
(0.009769904 5.307787e-06 1.213579e-25)
(0.009908855 -5.633005e-05 4.811251e-26)
(0.00977457 -4.447674e-05 2.210693e-25)
(0.009772873 -2.537971e-05 2.264477e-25)
(0.009781127 -2.424085e-05 0)
(0.01000799 -4.030938e-05 7.239672e-27)
(0.009588128 7.049316e-05 9.338728e-26)
(0.0100364 -8.638186e-05 2.007048e-26)
(0.009928826 1.05371e-05 1.180528e-26)
(0.009939188 8.536881e-06 1.380233e-27)
(0.00993973 -4.522787e-05 0)
(0.009729485 -7.255456e-05 0)
(0.009879612 -0.000118216 -7.596432e-26)
(0.009998299 -4.134301e-05 0)
(0.009949586 4.267641e-05 6.460993e-27)
(0.01005811 -0.0002817835 2.706763e-26)
(0.0100002 -0.000182153 -2.389647e-26)
(0.0100113 -0.0001810602 0)
(0.01000838 -0.0001255837 0)
(0.01000074 -5.050173e-05 -1.121272e-27)
(0.009764838 4.55804e-05 1.726664e-25)
(0.009957226 -0.00014064 -9.223357e-27)
(0.009869781 -5.811411e-05 5.758522e-26)
(0.009925681 1.814575e-05 0)
(0.009932337 3.967903e-05 -8.974317e-27)
(0.009933108 2.949447e-05 0)
(0.009893076 -0.000164495 0)
(0.009950582 -1.20548e-05 -7.592663e-26)
(0.01001019 -6.968874e-05 0)
(0.009704533 0.0001237744 -2.345821e-25)
(0.01002232 -7.910389e-05 0)
(0.01006147 -0.0001341205 6.666478e-27)
(0.01001461 -9.449294e-05 0)
(0.01001329 -8.759286e-05 5.719173e-27)
(0.01005136 -0.0003107517 -6.932243e-26)
(0.009906059 -2.242215e-07 5.424034e-26)
(0.009971222 -3.03144e-05 3.825937e-26)
(0.009955514 -0.000150583 -8.670263e-26)
(0.009886195 -0.0001477409 -8.5621e-26)
(0.009932721 4.539789e-05 0)
(0.009887059 -4.129559e-05 -1.211664e-25)
(0.009923848 -4.340943e-05 -2.297744e-26)
(0.009850998 -5.234683e-05 -4.736254e-27)
(0.009936792 -2.126248e-05 -8.335505e-27)
(0.009851068 -7.386941e-06 -2.513286e-26)
(0.01008597 -0.0001662358 -8.359203e-27)
(0.009909624 1.483535e-05 -1.275525e-26)
(0.00987453 4.279178e-05 -5.660977e-26)
(0.009987391 -4.583171e-05 -6.436406e-28)
(0.009816467 -0.0001587121 1.550148e-25)
(0.009850732 -5.743079e-05 -1.113825e-25)
(0.009862088 -3.788574e-05 0)
(0.009915304 -5.558821e-05 7.020324e-26)
(0.009913998 -4.566457e-05 4.609148e-27)
(0.009836302 -4.272637e-05 0)
(0.009836173 -2.007342e-05 0)
(0.009904696 -4.757611e-05 0)
(0.009957553 -7.571248e-05 4.023995e-26)
(0.009940049 -3.301299e-06 5.488226e-26)
(0.009857369 -1.73893e-06 2.899963e-25)
(0.009883317 4.922942e-06 0)
(0.009939681 -1.582284e-05 0)
(0.009932193 -0.0001945219 0)
(0.009679371 -7.112826e-05 -2.274751e-25)
(0.009882815 -8.485569e-06 -6.525633e-26)
(0.009630609 8.467697e-05 4.632279e-25)
(0.009908387 2.510274e-05 -1.658427e-26)
(0.009960238 -2.6349e-05 0)
(0.009995099 -7.518057e-05 -1.144518e-26)
(0.009943553 3.074881e-05 -9.977835e-27)
(0.009934644 3.550662e-05 0)
(0.009939506 3.78227e-05 2.547838e-27)
(0.009930534 7.162831e-06 -7.682086e-27)
(0.009935007 4.101835e-05 0)
(0.01013025 -0.0001538596 0)
(0.009805169 -9.84427e-05 -1.516507e-25)
(0.009899528 1.543031e-05 -4.512903e-26)
(0.00971485 2.973807e-05 -2.166418e-25)
(0.01003526 -0.0001477234 -2.611548e-27)
(0.01003314 -3.354408e-05 0)
(0.01002096 -5.937325e-05 2.090386e-27)
(0.01002073 -5.601868e-05 0)
(0.009929326 9.961597e-07 0)
(0.009935134 -4.579634e-05 -9.312705e-27)
(0.01006299 -0.0001981405 2.42776e-26)
(0.01005769 -0.0002344864 -3.50989e-28)
(0.009941976 3.136602e-05 0)
(0.009994193 -6.851766e-05 -1.637155e-26)
(0.009813998 -7.246139e-05 1.347703e-25)
(0.009799907 -3.455602e-05 1.22396e-25)
(0.009815767 -1.261703e-05 1.223396e-25)
(0.00999282 -4.87736e-05 3.103266e-27)
(0.01003944 -7.413058e-05 8.286856e-28)
(0.009987447 -6.818753e-05 2.82007e-26)
(0.009989968 -6.394195e-05 -9.408376e-27)
(0.01002602 -0.000280442 7.4209e-26)
(0.009941928 2.143215e-05 1.390965e-26)
(0.009938251 2.726407e-05 5.588614e-27)
(0.009945069 2.33458e-05 0)
(0.009940617 2.507863e-05 9.637872e-27)
(0.009929409 2.843214e-05 -4.024069e-27)
(0.01001943 -0.0001217108 -1.890117e-26)
(0.009862544 2.844008e-05 1.185526e-26)
(0.009984993 -5.525398e-05 -3.811426e-26)
(0.01001555 -6.116036e-05 8.776123e-27)
(0.00978008 -0.0002422035 4.56974e-25)
(0.009857027 3.323084e-05 -1.290202e-25)
(0.009886344 3.566379e-05 5.068537e-26)
(0.009992721 -4.406603e-05 -2.033372e-27)
(0.009999345 -4.735953e-05 -2.928206e-28)
(0.00999063 -3.843481e-05 0)
(0.01004265 -0.0002359186 5.571663e-28)
(0.009975027 -5.756079e-05 -6.665365e-27)
(0.009973623 -4.626428e-05 3.051182e-27)
(0.009948336 -2.516313e-05 0)
(0.009943614 -3.288038e-05 0)