/*--------------------------------*- C++ -*----------------------------------*\
| =========                 |                                                 |
| \\      /  F ield         | OpenFOAM: The Open Source CFD Toolbox           |
|  \\    /   O peration     | Version:  2406                                  |
|   \\  /    A nd           | Website:  www.openfoam.com                      |
|    \\/     M anipulation  |                                                 |
\*---------------------------------------------------------------------------*/
FoamFile
{
    version     2.0;
    format      ascii;
    arch        "LSB;label=32;scalar=64";
    class       surfaceScalarField;
    location    "0.26";
    object      phi;
}
// * * * * * * * * * * * * * * * * * * * * * * * * * * * * * * * * * * * * * //

dimensions      [0 3 -1 0 0 0 0];

oriented        oriented;

internalField   nonuniform List<scalar> 
6770
(
5.527167e-11
-1.758493e-09
1.703221e-09
-1.466591e-09
3.364916e-10
1.1301e-09
-1.471603e-09
1.372003e-09
9.960039e-11
1.687166e-09
-1.015052e-09
-6.721138e-10
7.57529e-09
-6.826213e-09
-7.490769e-10
6.207186e-10
8.563187e-10
-1.477037e-09
-1.12228e-09
1.624295e-09
-5.020148e-10
-1.268397e-09
1.224329e-09
4.406844e-11
-8.815743e-10
-8.240291e-10
1.705603e-09
-1.179862e-09
1.226996e-09
-4.713352e-11
2.418304e-10
-1.287125e-09
1.045295e-09
7.34465e-10
-1.669954e-09
9.354894e-10
1.367192e-09
-1.401226e-09
3.403446e-11
1.109915e-09
-1.645066e-09
5.351514e-10
-2.180123e-10
1.807258e-09
1.823922e-09
-4.898891e-09
3.074969e-09
4.47474e-10
1.362644e-09
-1.810118e-09
-2.322075e-09
5.677157e-10
1.754359e-09
-1.308381e-09
9.811628e-10
3.272182e-10
-6.416343e-10
-1.167417e-09
1.809052e-09
-7.750737e-10
-1.073039e-09
1.848113e-09
5.485748e-10
-1.508256e-09
9.59681e-10
8.823803e-10
-1.801743e-09
9.193627e-10
1.515256e-09
-1.116255e-09
-3.990014e-10
-1.197797e-09
8.981499e-10
2.996474e-10
-1.309261e-09
-3.257498e-10
1.635011e-09
1.210963e-09
4.088108e-10
-1.619774e-09
7.73834e-10
9.637773e-10
-1.737611e-09
-1.581308e-09
8.463803e-10
1.428147e-10
-1.042677e-09
8.998627e-10
3.444818e-10
-1.393958e-09
1.049477e-09
1.887031e-09
-1.550155e-09
-3.368762e-10
1.488195e-09
-2.721353e-10
-1.21606e-09
-1.922119e-10
1.703116e-09
-1.510904e-09
-2.081771e-09
2.004482e-09
7.728867e-11
-6.565295e-09
5.018966e-09
1.546329e-09
8.489671e-10
-1.7127e-09
8.637329e-10
-2.041172e-09
1.406691e-09
6.344814e-10
-1.007485e-09
2.1691e-09
-1.161615e-09
3.091071e-09
-2.677529e-09
-4.135415e-10
1.595076e-09
-1.50692e-09
-8.815644e-11
1.737357e-09
-7.542397e-10
-9.831175e-10
-1.977758e-09
1.634884e-09
3.428745e-10
-1.591117e-09
1.006543e-09
5.845744e-10
-1.271726e-09
8.63237e-10
4.084893e-10
-1.981329e-09
1.636596e-09
3.447326e-10
-1.219211e-09
8.238302e-10
3.953806e-10
-7.896786e-10
-8.258734e-10
1.615552e-09
-5.576922e-10
-1.435302e-09
1.992994e-09
-1.587441e-09
-5.395637e-10
2.127005e-09
5.682441e-10
9.409433e-10
-1.509187e-09
-1.185993e-09
3.336831e-10
8.523096e-10
-5.884928e-09
2.613095e-10
5.623619e-09
-1.180637e-09
-4.44347e-10
1.624985e-09
1.605129e-09
7.79425e-10
-2.384554e-09
-1.486613e-09
1.013004e-09
4.736097e-10
1.483279e-09
-2.824945e-10
-1.200784e-09
-1.580349e-09
1.160027e-09
4.203216e-10
3.766229e-10
1.43048e-09
-1.807103e-09
-5.052915e-10
-2.335872e-09
2.841163e-09
-1.504447e-09
1.440958e-09
6.348932e-11
-1.174149e-09
3.150294e-10
8.591198e-10
3.938364e-10
1.294331e-09
-1.688168e-09
-3.36744e-10
-1.439925e-09
1.77667e-09
-1.661524e-09
1.853307e-09
-1.694961e-09
1.010885e-09
6.840756e-10
2.161842e-11
-1.744584e-09
1.722966e-09
1.03341e-09
-1.752137e-09
7.187266e-10
-3.028791e-11
-1.457617e-09
1.487905e-09
-1.486951e-09
9.416814e-10
5.452693e-10
-6.414871e-10
-1.006196e-09
1.647683e-09
2.188895e-09
-9.530298e-10
-1.235865e-09
1.176255e-09
6.239659e-10
-1.800221e-09
-9.142357e-10
-8.298874e-10
1.744123e-09
-3.870964e-10
1.901148e-09
-1.514051e-09
5.296665e-10
1.847401e-09
-2.377067e-09
-1.069592e-09
1.569468e-09
-4.998758e-10
-1.698386e-09
3.800882e-10
1.318298e-09
1.860363e-09
-4.503226e-10
-1.41004e-09
-2.012666e-10
3.362737e-09
-3.16147e-09
-4.693667e-09
8.18564e-09
-3.491973e-09
-1.267977e-09
-3.163563e-09
4.431539e-09
-2.058227e-09
1.434499e-09
6.237283e-10
-5.816251e-10
1.796794e-09
-1.215169e-09
-1.702677e-09
1.510465e-09
-1.077862e-09
-7.15657e-10
1.793519e-09
7.12212e-10
1.288935e-09
-2.001147e-09
-1.413683e-09
5.849701e-10
8.287129e-10
-1.556128e-10
-1.212299e-09
1.367912e-09
-1.714709e-09
3.728586e-10
1.341851e-09
-9.405578e-10
-1.128929e-09
2.069487e-09
7.256582e-10
-1.626304e-09
9.00646e-10
-1.204977e-09
-4.518759e-10
1.656853e-09
1.518317e-09
-3.219788e-10
-1.196338e-09
9.875745e-10
5.623769e-10
-1.549951e-09
1.187012e-09
-3.633381e-10
-8.236741e-10
8.065224e-10
-1.667291e-09
8.607681e-10
-1.285719e-09
1.170965e-09
1.147549e-10
6.744404e-10
-1.537198e-09
9.758915e-10
8.24372e-10
-1.800263e-09
-6.37836e-10
1.524865e-09
-8.870294e-10
-1.00349e-09
1.727494e-09
-7.240039e-10
1.650024e-09
-3.999255e-10
-1.250098e-09
-1.788679e-09
1.110289e-09
6.783896e-10
1.551126e-09
-1.236277e-09
-3.148494e-10
1.209122e-09
-1.025929e-09
-1.83193e-10
-1.340895e-09
1.215851e-09
1.250436e-10
2.089828e-09
-1.532214e-09
-5.576136e-10
9.781789e-10
-1.407272e-09
4.290928e-10
6.179207e-09
-9.59918e-10
-5.219289e-09
1.755105e-09
-4.405682e-10
-1.314537e-09
1.587093e-09
-5.098384e-10
-1.077255e-09
-8.892333e-10
1.455811e-09
-5.665781e-10
1.677965e-09
-1.259192e-09
-4.187731e-10
1.009857e-09
9.4011e-10
-1.949967e-09
1.044343e-09
6.930146e-10
-1.88259e-10
-4.455865e-09
4.644124e-09
-2.818239e-11
-1.371611e-09
1.399793e-09
-1.534906e-09
5.127147e-10
1.022191e-09
-1.302429e-09
1.08534e-09
2.170899e-10
9.388253e-10
1.679519e-09
-2.618344e-09
-7.006663e-10
1.726975e-09
-1.026308e-09
-1.545762e-09
1.68196e-09
-1.36198e-10
1.821901e-09
-1.249392e-09
-5.725094e-10
8.076027e-10
1.057412e-09
-1.865014e-09
-3.794661e-10
1.705139e-09
-1.325673e-09
5.83058e-10
-1.916477e-09
1.333419e-09
-1.264215e-09
1.634542e-09
-3.703264e-10
1.951209e-09
-9.636346e-10
-1.955671e-09
1.450861e-09
5.048104e-10
1.019505e-09
8.616469e-10
-1.881152e-09
-7.922881e-10
-5.170654e-10
1.309353e-09
1.542472e-09
-3.333499e-10
-5.51144e-10
-8.214399e-10
1.372584e-09
1.562813e-09
-4.501121e-10
-1.112701e-09
2.014527e-09
-9.855702e-10
-1.028957e-09
1.229288e-09
4.934685e-10
-1.722757e-09
-1.662428e-09
1.419015e-09
2.434129e-10
4.450584e-09
8.871802e-10
-5.337764e-09
1.530388e-09
-1.445301e-09
-8.508724e-11
-1.596239e-09
9.607145e-10
6.355241e-10
1.184099e-09
-4.935782e-09
3.751683e-09
-1.552545e-09
3.117336e-10
1.240811e-09
1.168665e-09
7.834464e-10
9.189167e-10
6.92211e-10
-1.611128e-09
1.703998e-09
-1.428281e-09
-2.757174e-10
7.145917e-10
-1.363132e-09
6.485405e-10
5.699903e-10
-1.37133e-09
8.013399e-10
1.843038e-09
-1.484914e-09
-3.581248e-10
-7.682831e-09
1.797903e-09
2.1865e-10
1.07628e-09
-1.29493e-09
-1.156416e-09
7.449869e-10
4.114288e-10
6.077307e-10
9.683472e-10
-1.576078e-09
7.342458e-10
8.848095e-10
-1.619055e-09
1.544765e-09
-9.681945e-10
-5.765707e-10
-5.696827e-11
2.640358e-09
-2.58339e-09
-1.698529e-09
9.081997e-10
7.903289e-10
-9.079891e-10
1.891936e-09
-9.839473e-10
1.510269e-09
4.20136e-10
-1.930405e-09
-1.579062e-09
-2.830351e-10
1.862097e-09
1.142611e-09
-1.781737e-09
6.39126e-10
-1.903456e-09
2.433122e-09
1.224538e-09
-1.018312e-09
-2.062265e-10
4.460417e-10
-1.531783e-09
1.085742e-09
-2.459078e-10
1.531064e-09
-1.285156e-09
-1.731409e-09
2.447953e-10
-1.554164e-09
2.675285e-10
1.286636e-09
3.666079e-10
-1.744556e-09
1.377948e-09
-1.717704e-09
6.970692e-10
1.020635e-09
-6.142924e-10
2.433352e-09
-1.81906e-09
-1.95625e-09
1.181176e-09
1.419526e-09
-3.069242e-11
-1.388834e-09
8.019625e-10
7.857139e-10
-1.587676e-09
2.813084e-10
-1.627574e-09
1.346265e-09
-8.218172e-10
1.82366e-09
-1.001843e-09
-5.134176e-10
2.023687e-09
1.206019e-09
-1.582177e-09
3.76158e-10
9.166164e-11
-1.637424e-09
-1.515015e-11
1.30742e-09
-1.29227e-09
-1.477187e-09
6.796489e-10
7.975379e-10
1.36422e-09
-1.589971e-09
2.257509e-10
1.773928e-10
-1.642032e-09
1.464639e-09
-9.458738e-10
1.660465e-09
2.787359e-09
-1.369897e-09
6.978329e-10
6.720637e-10
2.084579e-10
8.273603e-10
-1.035818e-09
1.107741e-09
-1.502978e-09
3.952372e-10
3.930262e-10
1.281754e-09
-1.67478e-09
-1.241359e-09
1.903963e-09
-6.626036e-10
1.01005e-09
-1.182234e-09
1.721837e-10
1.50409e-09
-5.411936e-10
-9.628966e-10
1.148649e-09
5.228883e-10
-1.671537e-09
-1.674524e-09
1.142945e-09
5.315788e-10
3.539054e-10
-1.329991e-09
9.760854e-10
-1.647234e-09
1.021512e-09
6.25722e-10
-2.684952e-10
-1.208692e-09
-1.799855e-09
1.309917e-09
4.899381e-10
-7.796665e-10
1.755558e-09
-1.730656e-09
1.116363e-09
1.072928e-09
7.12459e-10
-1.785387e-09
6.443516e-10
-2.034744e-09
1.390393e-09
-8.059972e-10
-1.071215e-09
1.877212e-09
-1.628066e-09
5.066282e-10
1.121438e-09
1.606905e-10
-1.17671e-09
1.01602e-09
1.007962e-09
1.684362e-10
-1.176398e-09
-1.882128e-10
1.554079e-09
-1.365866e-09
1.596345e-09
-1.360201e-09
-2.361437e-10
2.015278e-09
-9.450152e-10
-1.070263e-09
3.140947e-10
1.371365e-09
-1.68546e-09
8.804504e-10
8.87401e-10
-1.767851e-09
-1.116515e-09
-5.545289e-10
1.671044e-09
5.183776e-10
-1.304999e-09
7.866209e-10
1.765824e-09
-7.25969e-10
-1.039855e-09
9.745126e-10
4.923508e-10
-1.466863e-09
2.03042e-10
9.643414e-10
-1.167383e-09
1.374946e-09
6.403317e-10
-4.772614e-10
-1.225489e-09
1.702751e-09
-1.291738e-09
-2.598242e-10
1.551563e-09
1.535323e-09
-5.095978e-10
-1.025725e-09
8.298746e-10
-1.944041e-09
1.114166e-09
-1.397809e-09
3.451989e-10
1.052611e-09
1.111389e-09
-1.652383e-09
5.409939e-10
-1.980634e-12
-1.861959e-09
1.86394e-09
3.127391e-09
-1.522262e-09
1.409687e-09
-1.171433e-09
-2.382543e-10
-1.586985e-09
9.872674e-10
5.997174e-10
-9.239621e-10
1.137046e-09
-2.130842e-10
1.521509e-10
-1.370957e-09
1.218806e-09
9.01378e-10
-1.786061e-09
8.846834e-10
-1.554943e-09
-5.322344e-10
2.087178e-09
-1.320536e-09
-1.460554e-10
-1.731934e-09
9.735415e-10
7.583926e-10
8.236632e-10
9.927253e-10
-1.816389e-09
1.442828e-09
-2.150899e-09
7.080715e-10
-1.061969e-09
1.603864e-09
-5.418941e-10
1.749815e-09
-5.20527e-10
-1.771432e-09
2.884122e-10
1.48302e-09
-1.074998e-09
1.953269e-09
-8.782708e-10
-8.010961e-10
-1.081959e-09
1.883055e-09
-1.248008e-09
2.218057e-09
-9.700486e-10
-1.789976e-09
1.99393e-09
-1.220096e-09
-1.212529e-09
1.738468e-09
-5.259396e-10
-1.224015e-09
3.625263e-10
8.614887e-10
1.821605e-09
-1.322983e-09
-4.986217e-10
2.045337e-09
-1.592051e-09
-4.532864e-10
1.742443e-09
-6.170607e-10
-1.125382e-09
-1.243895e-09
-4.007528e-10
1.644648e-09
1.158309e-09
3.770133e-10
1.529432e-09
2.363919e-10
1.579527e-09
-9.282747e-10
-6.512519e-10
8.528053e-10
-1.852722e-09
9.99917e-10
1.483594e-09
5.757221e-11
-1.541166e-09
-8.861786e-10
-5.701652e-10
1.456344e-09
1.424387e-09
-1.05016e-09
-3.742265e-10
-1.22738e-09
-4.869825e-10
1.714362e-09
1.969065e-10
-1.222614e-09
1.025707e-09
-1.666163e-09
1.703002e-09
-3.683915e-11
-1.090884e-09
-6.99092e-10
-9.260769e-10
-3.507953e-10
1.276872e-09
-1.95722e-09
8.682159e-10
1.089004e-09
1.872156e-09
-1.439317e-09
-4.328396e-10
1.041594e-09
9.473914e-10
-1.988985e-09
-1.653671e-09
3.709755e-10
1.282696e-09
1.755285e-09
-2.967341e-10
-1.458551e-09
6.7358e-10
1.267138e-09
-1.417053e-09
1.499158e-10
-1.439396e-09
-3.382196e-10
1.777616e-09
1.210671e-09
9.097944e-10
-2.120466e-09
-2.107724e-09
9.487623e-10
1.158962e-09
-8.07453e-10
1.599429e-09
-7.91976e-10
8.244883e-10
-1.132885e-09
3.083969e-10
-1.991341e-10
-1.493449e-09
1.692583e-09
-4.771922e-09
3.503945e-09
1.827548e-09
-5.127128e-09
3.29958e-09
-1.730998e-09
1.277075e-09
4.539228e-10
-1.745442e-09
1.487837e-09
2.576049e-10
1.394884e-09
-2.721945e-11
-1.367665e-09
-1.711777e-09
1.394866e-09
3.169108e-10
-2.94608e-09
-8.225488e-11
3.028335e-09
-5.129179e-10
1.928103e-09
-1.415185e-09
1.357288e-09
-2.368466e-09
1.011179e-09
-2.449921e-12
1.390232e-09
-1.387783e-09
-1.36218e-09
-4.818664e-10
1.844046e-09
-1.521969e-09
1.794143e-09
-2.721735e-10
2.348934e-09
-1.249826e-09
-1.099108e-09
-1.615129e-09
4.504155e-10
1.164714e-09
-1.583917e-09
8.933187e-10
6.905985e-10
2.895518e-10
1.45234e-09
-1.741892e-09
-1.646108e-09
1.004621e-09
1.393006e-09
1.013311e-10
-1.494337e-09
1.565545e-09
-8.107965e-10
-7.547488e-10
-1.64504e-10
1.19752e-09
-1.033016e-09
-7.587647e-10
-1.0374e-09
1.796165e-09
-1.860875e-09
6.91932e-10
1.168943e-09
1.259076e-09
3.31025e-11
-1.292178e-09
1.082218e-09
1.239039e-09
-2.321257e-09
1.108729e-09
1.132548e-09
-1.370888e-09
2.383403e-10
2.648834e-09
-7.224767e-09
4.575933e-09
1.832659e-09
5.391963e-11
-1.886579e-09
-1.477296e-09
9.569102e-10
5.203854e-10
1.673068e-09
-8.213649e-10
-8.517035e-10
1.017659e-09
-1.193092e-09
1.754328e-10
-4.977867e-09
-2.704964e-09
-6.113664e-10
1.489304e-09
-8.779375e-10
1.732884e-09
-8.839171e-10
-1.817533e-09
-9.464843e-11
1.912181e-09
1.737797e-10
1.47769e-09
-1.65147e-09
1.068338e-09
-1.607179e-10
-9.076199e-10
-8.775653e-10
-5.274162e-10
1.404982e-09
-1.610178e-09
-1.34853e-09
2.958708e-09
-1.035069e-09
-8.982983e-10
1.933367e-09
9.944792e-10
-1.675889e-09
6.814096e-10
-8.090694e-12
-1.303749e-09
1.31184e-09
-5.192722e-10
-1.176037e-09
1.695309e-09
-6.757075e-10
1.796252e-09
-1.120544e-09
1.642094e-09
-2.649579e-09
1.597727e-09
-1.786821e-09
1.890942e-10
1.397433e-09
-2.150033e-09
7.526004e-10
7.827274e-10
2.544462e-10
-1.037174e-09
2.127515e-09
6.598446e-10
-3.559122e-10
-1.621486e-09
1.977398e-09
2.625438e-10
-1.784245e-09
1.521701e-09
-7.608698e-10
-8.284474e-10
1.589317e-09
1.598352e-09
-1.626534e-09
-2.965371e-10
1.476009e-09
-1.179472e-09
5.058787e-11
-1.508829e-09
1.458241e-09
-1.19917e-09
-4.993584e-10
-8.448079e-10
1.090358e-09
-2.455497e-10
1.545729e-09
-1.896058e-09
3.503286e-10
2.747151e-09
-2.729703e-09
-1.744799e-11
1.480499e-09
-1.122559e-09
-3.579402e-10
-1.507498e-09
1.125438e-09
3.820598e-10
1.730476e-09
-1.237775e-09
3.88627e-10
1.341849e-09
1.094912e-09
-1.54759e-09
4.526779e-10
1.004996e-09
-1.169536e-09
1.645398e-10
-6.851035e-10
8.425145e-10
9.075636e-10
-1.750078e-09
1.018645e-09
-1.178263e-09
1.596184e-10
-1.364581e-09
1.578673e-09
-2.140925e-10
1.44503e-09
-2.963809e-10
-1.860741e-09
7.99965e-10
1.060776e-09
1.937046e-09
-2.36833e-10
-1.700213e-09
-2.191353e-12
1.233663e-09
-1.231472e-09
-1.429434e-10
1.308685e-09
-1.165742e-09
-1.50344e-09
-7.785401e-11
1.581294e-09
-1.413606e-09
1.520824e-09
-1.072181e-10
-1.411529e-09
1.041214e-09
3.703156e-10
1.182477e-09
-1.017727e-09
-1.647507e-10
1.924951e-09
-1.589902e-09
-3.350496e-10
-1.389916e-09
1.885603e-10
1.201356e-09
1.837729e-09
-1.16811e-09
-6.696192e-10
-8.986649e-10
-1.96285e-09
2.644632e-10
-6.1189e-10
-1.069937e-09
1.681827e-09
-8.473087e-10
1.081833e-09
-2.34524e-10
1.635342e-09
-1.983401e-09
3.480591e-10
-1.23049e-09
2.138689e-09
1.744309e-09
-9.539796e-10
-1.234199e-09
-3.956265e-10
1.629826e-09
-3.4436e-10
-9.273663e-10
8.059581e-10
2.439766e-09
-3.245724e-09
-1.110215e-09
1.693273e-09
2.124815e-09
-1.511199e-09
-6.136159e-10
8.905125e-10
8.638163e-10
-1.754329e-09
1.781382e-09
-1.386578e-10
-1.642724e-09
-7.00792e-11
-1.340645e-09
1.410725e-09
-1.052781e-09
-5.695528e-10
1.622334e-09
9.716423e-11
1.626181e-09
-1.723345e-09
-1.470297e-09
1.823022e-09
-3.527251e-10
1.115971e-09
5.981974e-10
-1.714168e-09
-5.010525e-10
1.323613e-09
-8.225603e-10
-1.801413e-09
1.53012e-09
2.712933e-10
-1.222726e-09
1.287434e-09
-6.470758e-11
-4.650932e-10
-7.730612e-10
1.238154e-09
2.029106e-09
-1.305217e-09
-7.238899e-10
-5.031327e-10
-7.343486e-10
1.237481e-09
-2.535603e-11
1.111772e-09
-1.086416e-09
1.356005e-09
-1.440753e-09
8.474806e-11
1.444758e-09
2.32921e-10
-1.677679e-09
5.127193e-10
7.359482e-10
-1.248668e-09
-4.867221e-10
-8.522193e-10
1.338941e-09
-8.707842e-10
1.583857e-09
-7.130724e-10
1.346404e-09
-1.593922e-10
-6.774873e-10
2.082079e-09
-1.404592e-09
8.064068e-10
6.664678e-10
-1.472875e-09
1.868356e-09
-1.001719e-09
-8.666369e-10
-4.35747e-10
-1.221527e-09
1.657274e-09
-8.846177e-10
1.575319e-09
-6.907014e-10
2.396266e-09
-6.375671e-10
-1.758699e-09
1.881717e-09
-1.134275e-09
-7.474416e-10
1.433705e-09
3.402322e-10
-1.773937e-09
-3.082112e-09
-2.351892e-09
5.434004e-09
1.781112e-09
-5.181847e-09
3.400734e-09
-1.275978e-09
-4.954537e-10
1.659767e-09
1.024909e-09
-1.482609e-09
4.577002e-10
1.32818e-09
-1.33848e-09
1.029992e-11
-8.756251e-10
-1.081595e-09
1.661216e-09
-8.331642e-10
-1.719814e-09
2.49517e-10
-9.625479e-10
-4.752063e-10
1.437754e-09
9.06638e-10
1.427112e-09
-2.33375e-09
8.576609e-10
4.447714e-10
-1.302432e-09
1.783849e-09
-5.601386e-10
6.619691e-10
-5.428963e-10
1.50809e-09
-9.651937e-10
4.351145e-10
-1.69933e-09
4.832354e-11
1.486317e-09
-1.534641e-09
-9.806943e-11
1.469729e-09
-1.371659e-09
-6.561359e-09
1.789477e-09
4.771882e-09
-1.220498e-09
1.434244e-09
-2.137464e-10
-1.470133e-09
1.434694e-09
3.543885e-11
1.591512e-09
-5.729377e-10
-1.018574e-09
-1.835769e-09
1.437475e-09
3.982938e-10
7.106521e-10
-1.819186e-09
1.108534e-09
-1.372363e-09
-8.633824e-10
-6.235683e-10
4.211747e-10
-8.815505e-10
4.603758e-10
1.390375e-09
-1.683464e-10
-1.222029e-09
-1.583919e-09
1.409594e-09
1.515364e-09
2.10453e-10
-1.725817e-09
-7.413612e-11
-1.540952e-09
1.271926e-09
-1.626571e-09
3.546458e-10
-7.965216e-13
1.545562e-09
-1.636575e-09
-3.447537e-10
-1.793234e-09
-3.509974e-10
2.144231e-09
-1.296276e-09
-1.152531e-10
-9.910005e-10
-1.050172e-09
3.214723e-11
1.518675e-09
-1.550822e-09
1.287637e-09
-1.75273e-09
-1.634466e-09
-3.244574e-10
1.958924e-09
1.887947e-09
-9.211187e-10
-9.668287e-10
-3.373491e-10
-4.614004e-09
4.951354e-09
1.376e-09
-1.186568e-09
-1.894317e-10
-4.945444e-10
-1.226629e-09
1.721173e-09
-1.591711e-09
1.735066e-09
-1.433554e-10
-9.056051e-10
-5.804041e-10
1.486009e-09
-1.655379e-09
1.964748e-10
1.458904e-09
1.454433e-09
-1.406284e-09
-4.814863e-11
6.763735e-10
-1.679863e-09
3.889046e-10
-1.835322e-09
1.446417e-09
1.595863e-09
1.378707e-10
-1.733734e-09
1.755696e-09
-7.373593e-11
8.374944e-10
-2.190377e-09
1.352882e-09
-1.304531e-09
1.358529e-09
-5.399773e-11
-7.762085e-10
1.656659e-09
1.179101e-09
4.709224e-10
1.483103e-09
-1.355074e-10
-1.347596e-09
-4.921144e-09
5.414464e-10
4.379698e-09
-1.088644e-09
1.651021e-09
1.885533e-10
-1.796776e-09
1.608223e-09
4.843742e-11
1.405995e-09
-1.108681e-09
-6.890122e-10
1.797693e-09
5.261058e-10
1.302179e-09
1.764899e-09
-1.306128e-09
-4.587712e-10
1.94679e-09
-8.987156e-10
-1.048074e-09
-2.121291e-09
-1.839137e-10
2.305205e-09
-1.011647e-09
-4.168246e-10
1.428472e-09
1.52544e-09
-1.694352e-10
-4.611911e-10
1.61828e-09
-1.157089e-09
8.029877e-10
9.518127e-10
-1.7548e-09
1.191722e-09
-1.736454e-09
5.447323e-10
1.12693e-09
4.324886e-10
-1.559419e-09
-1.404306e-09
8.910136e-10
5.132922e-10
1.157281e-09
1.383493e-09
-8.547274e-12
-1.730228e-09
6.882675e-10
1.04196e-09
6.747684e-10
-2.083303e-09
1.408534e-09
5.187253e-10
-1.591764e-09
5.405841e-10
8.497913e-10
3.290519e-10
-1.769667e-09
6.934667e-10
-2.786197e-09
2.092731e-09
-1.44169e-09
-1.151554e-09
-4.213484e-10
1.572902e-09
-7.728482e-11
1.444477e-09
2.314719e-10
1.403588e-09
-1.63506e-09
-1.289014e-09
-4.909529e-10
1.779967e-09
-2.182915e-11
1.273323e-09
-1.251494e-09
1.295787e-09
-8.133155e-10
-4.824711e-10
1.873945e-09
-1.748066e-09
-1.258796e-10
3.469537e-09
2.891044e-10
-3.758642e-09
-1.673414e-09
-2.822574e-10
-3.177132e-09
2.504276e-09
6.728556e-10
-1.608882e-09
2.029213e-10
1.40596e-09
1.342909e-09
-1.8041e-09
-1.270847e-09
9.870907e-11
-1.577478e-09
1.478769e-09
1.497189e-09
-1.628508e-09
1.313195e-10
1.492571e-09
-3.908386e-10
-1.101732e-09
1.337368e-09
-1.433754e-09
9.638617e-11
-1.248566e-09
-4.175974e-10
3.347126e-10
-1.358365e-09
1.023653e-09
5.561957e-10
-1.706217e-09
1.150021e-09
-2.686216e-10
1.531456e-09
-1.262834e-09
-8.125358e-11
1.287272e-09
1.44322e-09
-4.323349e-10
-1.054531e-09
1.170215e-09
-1.15684e-10
-1.280096e-09
1.012575e-09
2.675207e-10
-1.523688e-09
5.162017e-10
1.007486e-09
-1.020064e-09
1.17978e-09
-1.597163e-10
-1.075826e-09
-1.367029e-10
1.522447e-09
-4.147065e-10
-1.12205e-09
1.644938e-09
1.531369e-09
-3.599864e-10
-1.171383e-09
-9.692328e-10
-7.023047e-10
-2.450447e-10
1.168571e-09
-9.235265e-10
-1.024523e-09
-8.344699e-10
1.858993e-09
-1.186723e-09
1.027481e-09
1.592422e-10
-1.584624e-10
1.177107e-09
-1.529896e-09
8.360369e-10
6.938588e-10
1.562423e-09
-1.390755e-09
-1.716688e-10
4.00874e-10
1.042042e-09
-1.442916e-09
5.23433e-10
-1.930679e-09
1.407246e-09
-4.316506e-09
6.144054e-09
-8.119852e-10
1.903783e-09
-1.091798e-09
-3.129631e-09
1.226176e-09
-2.2111e-09
1.088298e-09
1.122802e-09
-8.554044e-10
3.462076e-09
-2.606672e-09
4.648771e-10
8.664065e-10
-1.331284e-09
1.775646e-09
-8.053309e-10
1.757621e-09
-9.522899e-10
1.842123e-09
-1.285927e-09
-1.305675e-09
-3.122461e-10
1.617921e-09
-1.572594e-09
2.021344e-09
-4.4875e-10
5.195018e-09
-3.751285e-10
-4.81989e-09
-1.840447e-09
2.291346e-11
2.025409e-09
-1.056869e-09
-2.004562e-09
1.248805e-09
-8.155505e-10
-7.952818e-10
1.610832e-09
1.985464e-09
-1.863526e-09
-1.219381e-10
1.517175e-09
-5.788924e-10
-9.382829e-10
1.807555e-10
1.214129e-09
1.464759e-09
1.50777e-10
-1.615536e-09
1.064556e-09
4.079815e-10
-1.472537e-09
-8.946222e-10
-9.067907e-10
4.176151e-10
-1.597948e-09
1.180333e-09
-5.68162e-10
1.729768e-09
-1.161606e-09
-1.997108e-09
-2.924601e-09
4.921708e-09
-1.656067e-09
8.036216e-10
8.524451e-10
-1.580608e-09
8.043995e-10
-6.561267e-10
1.738969e-09
-1.082842e-09
-6.099569e-10
3.682275e-09
-3.072318e-09
-1.533418e-09
-5.191892e-10
2.052607e-09
1.979959e-09
2.211446e-09
-7.686183e-10
-8.310941e-10
1.638697e-09
-7.170735e-10
1.845894e-09
-1.128821e-09
9.381407e-10
3.900392e-10
1.278962e-09
3.69565e-10
-1.648527e-09
1.334106e-09
3.778749e-10
-1.71198e-09
-1.3418e-09
1.630212e-09
1.554603e-09
5.323278e-10
-2.08693e-09
8.087218e-10
-1.810219e-09
1.001497e-09
-1.832774e-09
1.268788e-09
5.639866e-10
-1.171741e-09
-1.313696e-09
2.485437e-09
1.77337e-09
-2.375119e-09
6.017487e-10
4.467217e-10
-1.775053e-09
1.328331e-09
2.188634e-09
-8.732899e-10
-1.315344e-09
-5.367027e-10
-1.372329e-09
1.909032e-09
-4.46363e-10
-9.548632e-10
-8.643594e-10
-7.530402e-10
-1.004611e-09
-1.053121e-10
1.109923e-09
-9.57058e-10
1.40378e-09
-1.15825e-09
-8.001091e-10
1.958359e-09
1.248337e-09
-4.651037e-10
-1.142442e-09
1.607546e-09
1.707549e-09
-2.738444e-10
-8.40376e-11
-9.276095e-10
-3.384206e-10
-1.234173e-09
2.046073e-10
-1.760033e-09
1.555426e-09
-1.045463e-09
-7.600958e-10
1.805559e-09
8.042353e-09
-8.042353e-09
-2.236115e-10
1.402362e-09
-1.17875e-09
-6.69388e-10
1.387525e-09
-7.181367e-10
2.962814e-10
-1.775944e-09
1.479662e-09
-1.039698e-09
-8.767785e-10
1.607531e-09
-5.736321e-10
-1.033899e-09
-1.183929e-09
-2.516969e-10
1.435626e-09
4.660904e-10
1.704116e-09
-1.294083e-09
-4.100329e-10
-1.03268e-09
1.597642e-09
-1.611171e-09
4.857936e-10
1.125377e-09
1.146779e-09
7.316165e-10
-1.878396e-09
-1.038861e-09
1.550613e-09
-5.117519e-10
-1.086781e-09
2.202752e-09
1.869645e-09
-1.449509e-09
-1.458765e-09
1.443615e-09
-4.15785e-10
-7.503393e-10
1.166124e-09
-6.922142e-09
1.665733e-09
5.256409e-09
9.583247e-10
6.137127e-10
-1.572037e-09
8.190016e-10
-1.255921e-09
4.369192e-10
-1.815505e-09
9.504825e-10
8.650221e-10
7.939216e-10
-1.379969e-09
5.860474e-10
-1.491368e-09
5.511109e-10
9.402571e-10
1.286083e-11
1.539354e-09
-1.552215e-09
-1.047994e-09
2.182407e-09
-1.134413e-09
4.699164e-10
9.489379e-10
6.284142e-11
-1.011779e-09
-4.335083e-10
1.340359e-09
-9.068511e-10
-9.434093e-10
1.364584e-09
-9.37173e-10
2.031199e-09
-1.094026e-09
8.053071e-09
-6.389402e-09
-1.663669e-09
-1.123278e-09
-1.027621e-09
-4.731972e-10
-1.620832e-09
2.094029e-09
-7.530491e-10
-8.732551e-10
-1.373433e-09
1.00082e-10
1.273351e-09
1.806939e-09
-1.192028e-09
-6.149103e-10
1.335856e-09
-1.419604e-09
8.374867e-11
1.506294e-09
-1.252184e-09
1.690374e-09
-4.381896e-10
7.931528e-10
-1.542734e-09
3.149333e-10
1.227801e-09
-1.755814e-09
9.360986e-10
8.197154e-10
1.382993e-09
-5.080692e-09
4.91164e-09
1.690524e-10
-1.452551e-09
1.810788e-09
-1.511944e-09
-2.988443e-10
6.717523e-10
1.061701e-09
-1.733453e-09
1.405715e-09
-1.499125e-09
9.341044e-11
-1.644572e-09
8.044768e-10
8.400948e-10
1.493058e-09
-3.410379e-10
-1.15202e-09
-1.614304e-10
-1.121258e-09
1.282689e-09
-3.06676e-09
6.926169e-09
-3.859409e-09
2.240414e-09
2.1506e-09
-4.391014e-09
-2.046652e-09
8.749109e-10
1.023971e-09
9.336751e-10
-1.957646e-09
-1.504478e-09
1.207941e-09
-1.862658e-09
5.803087e-10
1.282349e-09
1.796514e-09
-7.970484e-10
-9.994659e-10
-1.041168e-09
1.077303e-09
-3.61354e-11
-1.711668e-09
2.605846e-10
-1.08829e-09
1.378516e-09
-2.902253e-10
1.803821e-09
-7.958586e-10
1.462949e-09
2.446006e-10
-1.643948e-09
-3.929082e-10
2.036856e-09
5.911824e-10
-1.580821e-09
9.896382e-10
9.657666e-10
1.01304e-09
-1.978806e-09
-1.679755e-09
4.062885e-11
1.639126e-09
7.538176e-10
-2.311314e-09
1.557496e-09
8.070952e-10
6.96995e-10
1.294908e-09
-3.253123e-10
-9.695957e-10
1.982356e-09
-1.715682e-10
-3.270174e-10
1.374371e-09
-1.047354e-09
-1.693091e-09
1.15264e-09
-1.828347e-09
4.026965e-10
1.353e-09
-1.812112e-09
1.405474e-09
4.066386e-10
-1.863242e-09
2.192945e-10
1.424356e-09
2.615751e-10
-1.685931e-09
1.486619e-09
3.365422e-10
-1.823161e-09
-2.010789e-09
1.61788e-09
4.078674e-10
-2.005922e-09
1.598055e-09
-7.946306e-10
-6.967374e-10
-1.198309e-09
1.042696e-09
-1.10787e-09
-3.771094e-10
1.484979e-09
-1.399383e-09
1.802079e-09
-1.761803e-09
7.337689e-10
1.028034e-09
-9.809275e-10
1.427459e-09
-4.465314e-10
-1.123419e-09
-4.375966e-10
1.561016e-09
-1.222779e-10
1.581718e-09
-1.45944e-09
-1.301202e-09
1.272764e-09
4.678415e-10
-1.740605e-09
-1.585045e-09
1.602022e-09
-1.697637e-11
-5.049871e-10
2.614367e-09
-2.10938e-09
1.835818e-09
-6.925836e-10
-1.143234e-09
3.969158e-09
-4.170425e-09
-1.725485e-09
1.649088e-09
7.639763e-11
1.97727e-09
-1.029667e-09
-9.476026e-10
-1.186235e-09
9.980222e-10
2.015897e-10
1.352489e-09
-4.080984e-09
3.471027e-09
-1.685351e-09
1.339701e-09
3.456501e-10
1.424851e-09
-4.867103e-10
-1.059614e-09
-1.18431e-09
2.243925e-09
-1.160547e-09
1.849293e-09
-6.887459e-10
-2.628873e-09
5.483633e-10
2.080509e-09
1.29849e-09
-2.037125e-09
7.386348e-10
6.0296e-10
8.430675e-10
-1.446027e-09
-7.481187e-10
-4.302452e-10
1.178364e-09
3.617317e-10
1.190104e-09
-1.551836e-09
1.127194e-09
-1.552382e-09
4.25188e-10
-3.706278e-10
-1.284752e-09
1.918961e-09
-2.89009e-12
-1.916071e-09
-1.932512e-09
4.143831e-10
1.270572e-09
-1.684955e-09
1.518725e-09
-1.14775e-09
-1.278576e-09
-2.730259e-10
1.551602e-09
7.575768e-10
8.079684e-10
3.395546e-10
-1.612933e-09
1.273378e-09
-1.728035e-09
6.115196e-10
1.354949e-09
-1.445386e-09
9.043628e-11
1.799035e-09
-7.521146e-10
-1.04692e-09
-1.338735e-09
3.902539e-10
9.484815e-10
-1.761599e-09
9.876543e-10
7.739445e-10
1.360099e-09
-1.559233e-09
-1.511102e-09
9.231038e-10
5.879982e-10
-1.546046e-10
2.053211e-09
-1.898607e-09
-8.020168e-10
1.760342e-09
1.315564e-09
-5.810992e-10
8.849602e-10
-1.872397e-09
9.874366e-10
-6.491201e-10
-4.193425e-10
1.068463e-09
-1.450501e-09
9.647861e-10
4.857148e-10
-7.686657e-10
-1.028534e-09
1.891771e-09
-6.383689e-10
1.5583e-09
-9.199315e-10
1.30792e-09
1.892686e-10
1.224276e-09
6.178476e-10
-7.287267e-10
-9.839733e-10
-6.001482e-10
1.443432e-09
-8.432836e-10
-6.748853e-10
1.421199e-09
-7.463136e-10
9.357393e-10
-1.849975e-09
-4.239538e-11
1.110733e-09
-5.061499e-10
1.893562e-09
-1.387412e-09
-1.167648e-09
4.65223e-10
-8.886318e-10
1.48178e-09
-5.931483e-10
-1.000181e-09
1.734427e-09
-1.968198e-09
1.694354e-09
1.3141e-09
-1.808864e-09
4.947634e-10
1.468988e-09
-1.534731e-09
6.574278e-11
1.356559e-09
1.265442e-10
-8.052411e-10
-7.296651e-10
-1.338066e-09
5.369698e-10
4.154037e-10
1.077654e-09
-5.542365e-10
-1.413962e-09
1.537557e-09
-1.761169e-09
-1.157298e-09
1.214598e-09
-5.729981e-11
4.036099e-09
-3.331887e-09
-7.042125e-10
-1.635213e-09
1.230707e-09
4.045057e-10
1.303976e-09
-1.475983e-09
1.720068e-10
-1.261528e-09
-4.238238e-10
-1.419678e-09
2.962581e-10
1.881686e-09
-1.321714e-09
-5.599724e-10
3.535675e-09
8.040244e-10
-4.339699e-09
1.068623e-09
6.392437e-11
5.838227e-10
-1.555301e-09
-5.272835e-10
1.069512e-09
-1.090019e-09
4.559557e-09
-1.275175e-09
-5.369376e-10
-2.231535e-09
3.46599e-10
1.884936e-09
-1.271596e-09
2.669857e-10
-1.280405e-09
1.372067e-09
1.422114e-09
7.99959e-10
-2.222073e-09
-3.37414e-10
4.107078e-10
1.94707e-09
-2.357778e-09
-7.451353e-10
-7.895824e-10
-2.551197e-09
3.340779e-09
-1.255826e-09
1.006882e-09
2.489443e-10
-1.831309e-09
6.559476e-10
1.175362e-09
2.090248e-10
-1.864607e-09
6.165986e-10
5.005589e-10
1.2976e-09
-1.798159e-09
1.428743e-09
-1.035716e-09
-8.586505e-10
-9.741238e-10
-6.029585e-10
1.016407e-09
-4.134489e-10
1.989296e-09
-1.155699e-09
-1.066739e-09
2.222438e-09
-1.577674e-09
-1.737725e-10
1.751446e-09
-1.346579e-09
3.818466e-10
9.647326e-10
1.984396e-09
-1.639561e-09
-3.448349e-10
1.262184e-09
6.257635e-10
1.723679e-09
-6.590651e-10
-1.064614e-09
1.023574e-09
-2.206195e-09
1.182621e-09
7.966321e-10
-5.791429e-10
-1.035986e-09
1.862111e-09
-1.321551e-09
-5.405596e-10
-1.702209e-10
1.396076e-09
-1.225855e-09
-5.563774e-09
8.212608e-09
-6.519136e-10
1.228161e-09
-5.76247e-10
-1.326329e-09
5.22589e-11
1.27407e-09
-1.155176e-09
1.444728e-09
1.742991e-09
-1.349335e-09
-3.936556e-10
-1.838076e-09
1.043445e-09
-1.939082e-09
8.640834e-10
-9.366975e-10
-1.044928e-09
1.893435e-09
-8.485076e-10
-1.11088e-09
1.965684e-09
-8.548039e-10
5.738889e-09
-4.55479e-09
2.575326e-09
5.98522e-10
-1.57945e-09
-6.703387e-10
-9.468139e-10
1.401431e-09
-1.29682e-09
-1.046113e-10
1.230967e-09
-3.867145e-10
-8.442529e-10
9.138786e-10
9.544772e-10
-3.190285e-11
1.58449e-09
-1.552587e-09
-8.584239e-10
1.026349e-09
-1.67925e-10
1.561183e-09
-1.304563e-09
-2.566205e-10
4.68756e-10
-1.43695e-09
-1.221354e-09
1.453242e-09
-2.318881e-10
1.109872e-09
-1.48111e-09
1.370938e-09
1.101714e-10
9.861469e-11
1.372552e-09
-1.471167e-09
1.274778e-09
-1.777911e-09
3.82988e-09
-2.995104e-10
-3.53037e-09
-2.265854e-09
-9.112779e-10
-1.449111e-09
-5.838628e-11
-7.74813e-10
-1.119988e-09
1.894801e-09
1.048832e-09
-1.365374e-09
3.165417e-10
-1.326015e-09
2.976489e-10
1.028366e-09
-2.240126e-10
-1.59682e-09
1.820832e-09
-1.778541e-09
1.643033e-09
8.759773e-10
1.077292e-09
7.503279e-10