/*--------------------------------*- C++ -*----------------------------------*\
| =========                 |                                                 |
| \\      /  F ield         | OpenFOAM: The Open Source CFD Toolbox           |
|  \\    /   O peration     | Version:  2406                                  |
|   \\  /    A nd           | Website:  www.openfoam.com                      |
|    \\/     M anipulation  |                                                 |
\*---------------------------------------------------------------------------*/
FoamFile
{
    version     2.0;
    format      ascii;
    arch        "LSB;label=32;scalar=64";
    class       volScalarField;
    location    "0.52";
    object      p;
}
// * * * * * * * * * * * * * * * * * * * * * * * * * * * * * * * * * * * * * //

dimensions      [0 2 -2 0 0 0 0];

internalField   nonuniform List<scalar> 
4531
(
-0.0004772124
-4.393546e-05
-0.0001268466
-9.619975e-05
-7.007026e-05
-8.881361e-05
-5.355618e-05
-6.68012e-05
-6.374609e-05
-4.946334e-05
-6.215868e-05
-4.976595e-05
-5.732545e-05
-3.108541e-05
-3.983068e-05
-3.244245e-05
-3.33331e-05
-3.113678e-05
-1.875812e-05
-3.164416e-05
-7.347368e-06
-1.613538e-05
4.147722e-05
-0.0001201722
0.0005607386
-0.0009538851
-0.0001988788
-0.0003120623
-0.0002530198
-0.0002362027
-0.0002212452
-0.0002110693
-0.0002006885
-0.0001887686
-0.0001861695
-0.0001791575
-0.0001748357
-0.0001702061
-0.0001676112
-0.0001639479
-0.000161472
-0.0001594004
-0.0001574861
-0.0001561137
-0.0001548273
-0.0001534453
-0.0001529891
-0.0001518969
-0.0001516615
-0.0001514216
-0.0001516016
-0.0001518995
-0.0001525847
-0.0001533335
-0.0001546147
-0.0001556446
-0.0001578009
-0.0001593559
-0.0001612495
-0.0001646616
-0.0001666487
-0.0001706413
-0.0001748138
-0.0001807641
-0.0001854514
-0.0001933938
-0.0001991928
-0.0002134978
-0.0002190274
-0.0002418476
-0.0002447737
-0.0003269674
-0.000179765
-0.000966215
0.0005608053
-0.0001209853
4.970409e-05
-1.659635e-05
-2.259004e-06
-2.786875e-05
-1.73878e-05
-3.387938e-05
-2.583185e-05
-4.271152e-05
-4.356937e-05
-4.019794e-05
-5.543265e-05
-4.078594e-05
-5.681273e-05
-5.225256e-05
-7.084947e-05
-5.829134e-05
-7.196929e-05
-6.128409e-05
-8.741056e-05
-9.382552e-05
-0.0001474475
-1.380132e-05
-0.0004710448
0.0005428852
0.0001280607
0.0002035422
0.000162436
0.0001637131
0.0001540705
0.0001451751
0.0001515976
0.0001426975
0.0001309976
0.0001510606
0.00014559
0.0001418155
0.0001287985
0.0001451477
0.0001481007
0.0001427721
0.0001423639
0.0001435696
0.0001482488
0.000140209
0.0001528275
0.0001446682
0.0001577107
0.0001559012
0.0001605211
0.0001643552
0.0001691292
0.0001702486
0.000183666
0.0001879602
0.0002012975
0.0002191016
0.0002250799
0.0003270264
0.0003352718
0.0002254735
0.0002214985
0.0002031775
0.0001899399
0.0001856277
0.000172686
0.0001711903
0.0001666456
0.0001627538
0.0001581309
0.000159863
0.000146517
0.0001548019
0.0001418322
0.0001491672
0.0001450299
0.0001419852
0.0001425832
0.0001474616
0.0001445889
0.0001283316
0.0001414207
0.0001450975
0.0001502845
0.0001300629
0.0001414946
0.0001502602
0.0001434662
0.0001550068
0.0001629704
0.0001672709
0.0002264072
9.477631e-05
0.0005684675
0.0003385033
0.0002298454
0.0002224478
0.000204391
0.0001904979
0.0001860521
0.0001733234
0.0001713498
0.0001668249
0.0001629184
0.0001579607
0.0001599487
0.0001467082
0.0001547258
0.0001420634
0.0001488058
0.0001450859
0.0001420638
0.0001424099
0.0001472412
0.0001444424
0.0001283974
0.0001414093
0.0001445965
0.0001496741
0.0001301572
0.0001411538
0.0001497008
0.00014337
0.0001545902
0.0001623589
0.0001666931
0.0002240046
9.596384e-05
0.0005433377
0.0005178493
0.000128332
0.0002019526
0.0001616256
0.0001632222
0.0001535405
0.0001450119
0.0001510022
0.0001423433
0.0001310831
0.0001504469
0.0001450913
0.000141807
0.0001288612
0.0001449867
0.0001478553
0.000142571
0.000142404
0.000143634
0.0001479037
0.0001404485
0.0001527718
0.0001448673
0.0001578059
0.0001557463
0.000160697
0.0001645474
0.0001692925
0.0001709061
0.0001841063
0.0001885225
0.000202506
0.0002201063
0.0002292031
0.0003307209
0.0005159319
-0.0001008773
4.580225e-05
-1.560843e-05
-2.606974e-06
-2.764402e-05
-1.742956e-05
-3.375661e-05
-2.601578e-05
-4.243279e-05
-4.351948e-05
-3.992519e-05
-5.521789e-05
-4.073754e-05
-5.659748e-05
-5.208885e-05
-7.036355e-05
-5.789936e-05
-7.155908e-05
-6.128724e-05
-8.694142e-05
-9.24639e-05
-0.0001455864
-1.443463e-05
-0.0004471654
-0.0009113978
-0.0002241615
-0.0003103396
-0.0002550787
-0.0002369474
-0.0002217499
-0.0002114002
-0.000201081
-0.0001890835
-0.0001862783
-0.000179302
-0.0001749534
-0.0001702867
-0.0001676553
-0.0001640047
-0.0001615109
-0.0001594285
-0.0001575034
-0.000156117
-0.0001548333
-0.0001534533
-0.0001529874
-0.0001519033
-0.0001516685
-0.0001514293
-0.00015161
-0.0001519079
-0.0001525928
-0.0001533448
-0.0001546256
-0.0001556669
-0.0001578129
-0.000159376
-0.0001612927
-0.0001646949
-0.0001667258
-0.0001707571
-0.00017496
-0.0001809019
-0.0001856413
-0.0001936084
-0.0001995676
-0.0002138049
-0.000219665
-0.0002423376
-0.0002472802
-0.0003245261
-0.0002054964
-0.0009247506
-0.000452401
-4.401483e-05
-0.0001253298
-9.54065e-05
-6.970286e-05
-8.803655e-05
-5.344081e-05
-6.638278e-05
-6.32384e-05
-4.945978e-05
-6.197251e-05
-4.950068e-05
-5.705956e-05
-3.104848e-05
-3.9926e-05
-3.225843e-05
-3.322703e-05
-3.108452e-05
-1.915101e-05
-3.141223e-05
-7.403879e-06
-1.531963e-05
3.781104e-05
-9.967162e-05
0.0005163091
-0.0004221426
-4.3291e-05
-0.0001228031
-9.440936e-05
-6.900822e-05
-8.706053e-05
-5.317044e-05
-6.580978e-05
-6.259489e-05
-4.940738e-05
-6.174182e-05
-4.912945e-05
-5.677423e-05
-3.095414e-05
-4.006265e-05
-3.20184e-05
-3.310607e-05
-3.106664e-05
-1.962609e-05
-3.121945e-05
-7.51448e-06
-1.454533e-05
3.410986e-05
-7.883134e-05
0.0004648703
-0.0008597969
-0.0002505664
-0.0003090346
-0.0002574084
-0.0002378203
-0.0002223236
-0.0002117706
-0.0002015357
-0.0001894427
-0.0001864081
-0.0001794657
-0.0001750888
-0.0001703767
-0.0001677039
-0.000164068
-0.0001615542
-0.0001594606
-0.0001575211
-0.0001561183
-0.0001548384
-0.0001534602
-0.0001529846
-0.0001519092
-0.0001516761
-0.0001514379
-0.0001516198
-0.0001519174
-0.0001526019
-0.0001533575
-0.0001546375
-0.0001556908
-0.0001578252
-0.0001593972
-0.0001613394
-0.0001647335
-0.0001668144
-0.000170893
-0.0001751301
-0.0001810615
-0.0001858575
-0.0001938556
-0.0001999918
-0.0002141631
-0.0002203822
-0.0002429374
-0.0002500875
-0.0003224552
-0.0002324204
-0.0008742941
0.0004640446
-8.053591e-05
4.181248e-05
-1.464922e-05
-3.071672e-06
-2.747082e-05
-1.74827e-05
-3.366133e-05
-2.621797e-05
-4.213555e-05
-4.346528e-05
-3.957478e-05
-5.494548e-05
-4.06207e-05
-5.63396e-05
-5.18206e-05
-6.975638e-05
-5.735224e-05
-7.098096e-05
-6.117953e-05
-8.611922e-05
-9.091969e-05
-0.0001427099
-1.435476e-05
-0.0004178429
0.0004871611
0.0001277911
0.0001995962
0.0001603533
0.0001626085
0.000152752
0.0001447155
0.000150239
0.0001418454
0.0001311015
0.0001496628
0.0001444507
0.0001417774
0.0001288715
0.0001447757
0.0001475573
0.0001423057
0.0001424366
0.0001437034
0.0001474846
0.0001407096
0.0001527154
0.0001450877
0.0001579184
0.0001555476
0.0001609123
0.0001647785
0.0001695246
0.0001717018
0.0001846597
0.0001892378
0.000203987
0.0002213491
0.0002343292
0.0003325636
0.0003397995
0.000235227
0.0002236342
0.0002058746
0.0001912072
0.0001865853
0.0001740937
0.0001715748
0.0001670394
0.0001631185
0.0001577414
0.0001600474
0.0001469167
0.0001546431
0.000142311
0.0001483625
0.0001451462
0.0001421434
0.0001421823
0.0001469762
0.0001442511
0.0001284123
0.0001413768
0.0001439534
0.0001488946
0.0001301879
0.0001406747
0.0001489847
0.00014316
0.0001539225
0.0001616593
0.0001655686
0.0002207674
9.643008e-05
0.0005125785
0.000337765
0.0002411886
0.0002249147
0.0002074996
0.0001920397
0.000187182
0.0001749607
0.0001718737
0.0001672873
0.0001633376
0.0001575069
0.0001601175
0.0001471589
0.000154557
0.0001425479
0.000147871
0.0001452243
0.0001422035
0.0001419084
0.000146719
0.0001440333
0.0001283373
0.0001412942
0.0001432841
0.0001480525
0.0001301104
0.0001400724
0.0001481723
0.0001428647
0.0001530397
0.000160887
0.0001641983
0.0002162643
9.770981e-05
0.0004775998
0.0004524815
0.0001281274
0.0001959858
0.0001588613
0.0001618321
0.0001517995
0.0001443217
0.0001493788
0.0001412203
0.0001310096
0.0001488148
0.0001437828
0.0001416967
0.0001287903
0.0001445362
0.0001472629
0.0001419907
0.000142447
0.0001437887
0.0001470203
0.000140963
0.0001526572
0.0001453446
0.0001580052
0.0001553365
0.0001611485
0.0001650457
0.0001698329
0.0001725971
0.0001852788
0.000190079
0.000205609
0.0002226907
0.0002400446
0.0003311454
0.0004073933
-6.097798e-05
3.72937e-05
-1.349916e-05
-3.715895e-06
-2.735006e-05
-1.7565e-05
-3.355415e-05
-2.644407e-05
-4.185438e-05
-4.34042e-05
-3.914648e-05
-5.468434e-05
-4.045723e-05
-5.59852e-05
-5.154004e-05
-6.907536e-05
-5.668292e-05
-7.02942e-05
-6.095055e-05
-8.489258e-05
-8.963735e-05
-0.0001382009
-1.510013e-05
-0.0003844179
-0.0008001551
-0.0002766037
-0.0003075405
-0.0002600302
-0.0002387523
-0.0002229389
-0.0002121799
-0.0002020275
-0.0001898164
-0.0001865495
-0.0001796475
-0.000175231
-0.0001704721
-0.0001677551
-0.0001641341
-0.0001615969
-0.0001594941
-0.0001575371
-0.0001561177
-0.000154841
-0.0001534647
-0.0001529797
-0.0001519126
-0.0001516811
-0.000151445
-0.0001516278
-0.0001519255
-0.0001526092
-0.0001533693
-0.0001546476
-0.0001557135
-0.0001578373
-0.0001594169
-0.0001613855
-0.0001647754
-0.0001669084
-0.0001710369
-0.0001753153
-0.0001812341
-0.0001860933
-0.0001941163
-0.0002004508
-0.000214547
-0.0002211577
-0.0002435631
-0.0002532103
-0.0003201425
-0.0002590264
-0.0008157891
-0.0003878361
-4.341629e-05
-0.0001189238
-9.34622e-05
-6.807383e-05
-8.593047e-05
-5.275773e-05
-6.516293e-05
-6.185259e-05
-4.926938e-05
-6.14847e-05
-4.879179e-05
-5.646648e-05
-3.081745e-05
-4.015757e-05
-3.174154e-05
-3.300627e-05
-3.108581e-05
-2.019891e-05
-3.106074e-05
-7.760117e-06
-1.357039e-05
2.995188e-05
-5.862762e-05
0.0004084658
-0.0003486228
-4.459341e-05
-0.0001134214
-9.268686e-05
-6.723639e-05
-8.4368e-05
-5.22265e-05
-6.464473e-05
-6.073176e-05
-4.888292e-05
-6.126879e-05
-4.878761e-05
-5.595114e-05
-3.081742e-05
-3.996531e-05
-3.132492e-05
-3.296491e-05
-3.126804e-05
-2.114775e-05
-3.077777e-05
-8.323985e-06
-1.207836e-05
2.533203e-05
-3.940853e-05
0.0003458219
-0.0007306617
-0.0003015551
-0.0003060246
-0.0002630507
-0.000239802
-0.000223627
-0.0002126957
-0.0002025526
-0.0001902287
-0.0001866894
-0.0001798553
-0.000175387
-0.0001705794
-0.000167814
-0.000164208
-0.0001616396
-0.00015953
-0.0001575521
-0.0001561156
-0.000154841
-0.0001534688
-0.0001529711
-0.0001519123
-0.0001516818
-0.0001514491
-0.0001516337
-0.0001519305
-0.0001526133
-0.0001533777
-0.0001546577
-0.0001557373
-0.0001578508
-0.0001594361
-0.0001614296
-0.0001648178
-0.0001670207
-0.0001711987
-0.0001755286
-0.000181429
-0.0001863646
-0.0001944019
-0.0002009605
-0.0002149417
-0.0002220403
-0.000244212
-0.0002567422
-0.000317561
-0.0002845982
-0.0007475977
0.0003452956
-4.301439e-05
3.202484e-05
-1.181583e-05
-4.814626e-06
-2.727265e-05
-1.763816e-05
-3.313883e-05
-2.699467e-05
-4.153121e-05
-4.320414e-05
-3.837855e-05
-5.465794e-05
-4.028267e-05
-5.518281e-05
-5.160419e-05
-6.823726e-05
-5.563202e-05
-6.97986e-05
-6.071255e-05
-8.328423e-05
-8.868731e-05
-0.0001317616
-1.714425e-05
-0.0003461798
0.0004133323
0.0001299813
0.0001907589
0.000157125
0.000160812
0.0001507534
0.0001440432
0.0001482582
0.0001403884
0.0001307825
0.0001480091
0.0001431283
0.0001415659
0.0001285937
0.0001442677
0.000146974
0.0001415729
0.0001424372
0.0001438845
0.0001464623
0.0001412492
0.0001526712
0.0001458164
0.0001579165
0.000155047
0.0001614017
0.0001653962
0.0001703313
0.0001737327
0.0001858461
0.0001910372
0.0002073012
0.0002243615
0.0002461078
0.0003257887
0.0003317049
0.0002474832
0.000226518
0.0002091951
0.0001929862
0.000187725
0.0001760638
0.0001723602
0.0001676149
0.0001635719
0.0001571913
0.0001600095
0.0001476132
0.0001545428
0.0001428169
0.0001472916
0.0001453172
0.0001422406
0.0001415293
0.00014647
0.0001437866
0.0001281484
0.0001411631
0.0001426296
0.0001472549
0.0001299008
0.0001392695
0.0001470923
0.0001426998
0.0001520414
0.0001598177
0.0001627234
0.0002100222
0.0001003755
0.0004375421
0.0003213421
0.0002532855
0.0002288066
0.0002108773
0.0001940343
0.0001879944
0.0001774355
0.0001731749
0.0001681111
0.0001638329
0.0001567136
0.0001595727
0.0001484598
0.0001547889
0.0001432646
0.0001465743
0.0001453076
0.0001422264
0.0001409745
0.0001463586
0.0001435451
0.0001276903
0.0001410096
0.0001421596
0.0001466538
0.0001294289
0.0001381685
0.0001456168
0.0001429046
0.0001509995
0.0001582974
0.000161332
0.0002020547
0.0001043835
0.0003924074
0.0003687148
0.0001334101
0.0001837658
0.0001550153
0.0001595369
0.0001497022
0.0001441067
0.0001467643
0.0001392515
0.0001302882
0.000147397
0.0001426555
0.0001414108
0.0001281273
0.000144008
0.0001468205
0.0001409927
0.0001423838
0.0001438725
0.0001457511
0.0001417123
0.0001529412
0.0001466798
0.0001574999
0.0001545963
0.0001616832
0.0001659199
0.0001711614
0.0001751385
0.000186143
0.0001921005
0.0002089808
0.0002267254
0.0002517114
0.0003162148
0.000277365
-2.847641e-05
2.603529e-05
-9.258726e-06
-6.584198e-06
-2.722709e-05
-1.767827e-05
-3.18017e-05
-2.830882e-05
-4.100805e-05
-4.272312e-05
-3.693695e-05
-5.499574e-05
-4.010792e-05
-5.341645e-05
-5.251634e-05
-6.717531e-05
-5.394848e-05
-6.984061e-05
-6.061523e-05
-8.134882e-05
-8.829744e-05
-0.0001232566
-2.044274e-05
-0.0003030631
-0.0006484884
-0.000323142
-0.0003049449
-0.000266499
-0.0002410518
-0.0002244353
-0.0002134058
-0.0002030962
-0.0001907424
-0.0001868082
-0.0001800914
-0.0001755671
-0.0001707064
-0.0001678877
-0.0001642947
-0.0001616816
-0.0001595703
-0.0001575662
-0.0001561112
-0.0001548392
-0.0001534744
-0.0001529548
-0.0001519037
-0.0001516748
-0.0001514474
-0.0001516371
-0.0001519284
-0.000152609
-0.0001533761
-0.0001546704
-0.0001557659
-0.0001578693
-0.0001594553
-0.0001614702
-0.0001648581
-0.0001671757
-0.0001713988
-0.0001757931
-0.0001816633
-0.0001866912
-0.0001947328
-0.0002015367
-0.0002153396
-0.0002231222
-0.0002448874
-0.0002607632
-0.0003150003
-0.0003065133
-0.0006669954
-0.0003038742
-4.636424e-05
-0.000106012
-9.217848e-05
-6.681295e-05
-8.207864e-05
-5.16055e-05
-6.431849e-05
-5.892426e-05
-4.80813e-05
-6.119772e-05
-4.938123e-05
-5.499416e-05
-3.113123e-05
-3.91939e-05
-3.0603e-05
-3.303327e-05
-3.178169e-05
-2.270066e-05
-3.01296e-05
-9.314389e-06
-9.923306e-06
2.035083e-05
-2.263481e-05
0.0002763635
-0.0002510794
-5.070519e-05
-9.568605e-05
-9.073258e-05
-6.385392e-05
-8.078441e-05
-5.033396e-05
-6.203854e-05
-5.830188e-05
-4.773715e-05
-6.087153e-05
-4.858483e-05
-5.477642e-05
-3.019344e-05
-3.930329e-05
-3.007488e-05
-3.309822e-05
-3.189087e-05
-2.290254e-05
-3.038277e-05
-9.087565e-06
-9.91753e-06
1.323213e-05
-1.115488e-05
0.0001967643
-0.0005441581
-0.0003377073
-0.0003028169
-0.000269094
-0.0002424682
-0.0002252062
-0.000214006
-0.0002038229
-0.0001913029
-0.0001869936
-0.00018036
-0.0001757514
-0.0001708245
-0.0001679587
-0.0001643685
-0.0001617054
-0.0001596099
-0.000157561
-0.0001560894
-0.0001548291
-0.0001534535
-0.0001529252
-0.000151873
-0.0001516488
-0.0001514338
-0.0001516285
-0.0001519122
-0.0001525856
-0.000153364
-0.0001546656
-0.000155779
-0.0001578887
-0.0001594568
-0.0001615121
-0.0001649271
-0.0001673198
-0.0001716083
-0.0001760953
-0.000181939
-0.0001870336
-0.000195086
-0.0002021994
-0.0002159709
-0.0002242478
-0.0002458313
-0.0002644473
-0.0003123796
-0.0003198122
-0.000563377
0.0001953426
-1.705292e-05
1.949508e-05
-8.342729e-06
-6.897188e-06
-2.754669e-05
-1.809161e-05
-3.075544e-05
-2.850797e-05
-4.052004e-05
-4.288298e-05
-3.643843e-05
-5.378955e-05
-3.948387e-05
-5.246587e-05
-5.212739e-05
-6.648911e-05
-5.339315e-05
-6.798923e-05
-5.947263e-05
-7.872706e-05
-8.831599e-05
-0.0001141796
-2.367671e-05
-0.00025368
0.0003125974
0.0001370626
0.000174823
0.0001524893
0.0001577669
0.0001481678
0.0001426126
0.0001462161
0.0001380269
0.0001288782
0.0001463527
0.0001427244
0.0001410277
0.0001267694
0.0001438684
0.0001473608
0.0001405234
0.0001420687
0.0001434902
0.0001451511
0.0001422349
0.0001533272
0.0001466795
0.0001578036
0.0001544634
0.0001620756
0.0001665645
0.0001717843
0.0001755727
0.0001870391
0.0001935356
0.0002110293
0.0002293399
0.0002545508
0.0003050823
0.0003093398
0.0002562525
0.0002313248
0.0002129172
0.0001954454
0.0001888448
0.000177851
0.0001737767
0.0001687246
0.0001642042
0.0001565579
0.0001598574
0.000148445
0.0001551599
0.0001437539
0.0001459194
0.0001449234
0.0001419874
0.0001405353
0.0001469603
0.0001434267
0.0001263448
0.0001406353
0.0001422363
0.000145618
0.0001280407
0.0001369712
0.0001450721
0.000141603
0.0001493255
0.0001561715
0.0001602704
0.000193321
0.0001081682
0.0003426142
0.0003049882
0.0002518516
0.0002303753
0.0002169917
0.0001978105
0.0001958142
0.0001732782
0.0001715047
0.0001686246
0.0001647637
0.000158893
0.0001655047
0.0001418816
0.000153709
0.0001419688
0.0001466414
0.0001443632
0.0001411511
0.000141699
0.0001488742
0.0001434226
0.0001232833
0.0001388763
0.0001425855
0.0001408532
0.0001243404
0.0001367912
0.0001506266
0.0001301304
0.00014458
0.0001529501
0.0001583804
0.0001843691
0.0001060332
0.0002868985
0.0002342524
0.0001361156
0.0001629304
0.000149588
0.00015399
0.0001438211
0.0001309689
0.0001516301
0.0001378808
0.0001251816
0.0001415987
0.0001430593
0.0001392351
0.000123669
0.0001437829
0.0001491361
0.0001414706
0.0001409467
0.0001429574
0.0001462726
0.0001405748
0.0001519219
0.0001401778
0.0001634888
0.0001568308
0.0001626614
0.0001664973
0.0001695467
0.0001709816
0.0001940969
0.0001959479
0.0002151577
0.000228531
0.000250186
0.0003016695
7.82851e-05
-1.505804e-06
1.295782e-05
-2.204165e-05
3.198684e-06
-3.028288e-05
-2.006833e-05
-4.093764e-05
-1.706437e-05
-4.285211e-05
-4.764689e-05
-4.504712e-05
-4.407789e-05
-3.6615e-05
-6.285933e-05
-3.846628e-05
-6.872742e-05
-6.134979e-05
-5.302356e-05
-5.151135e-05
-7.345197e-05
-8.536225e-05
-0.0001087832
-2.201013e-05
-0.0001917072
-0.0004145317
-0.0003403995
-0.0002918226
-0.0002646497
-0.0002432794
-0.000224724
-0.0002126144
-0.0002055281
-0.0001909415
-0.0001876715
-0.0001806689
-0.0001757772
-0.0001707472
-0.0001678986
-0.0001642905
-0.000161642
-0.0001596021
-0.0001574649
-0.0001559976
-0.0001547696
-0.0001532815
-0.000152896
-0.0001518
-0.0001515796
-0.0001514007
-0.0001515604
-0.0001518851
-0.0001525407
-0.000153391
-0.0001545346
-0.0001556603
-0.000157855
-0.0001593584
-0.0001615551
-0.0001651511
-0.0001670114
-0.0001715385
-0.0001761834
-0.0001821075
-0.0001870559
-0.0001951628
-0.0002028103
-0.0002176089
-0.0002235487
-0.0002479887
-0.0002620772
-0.0003081487
-0.0003190071
-0.0004289143
-0.0001851338
-6.842011e-05
-8.00323e-05
-8.332511e-05
-4.566123e-05
-8.848721e-05
-4.565066e-05
-5.043106e-05
-6.733763e-05
-5.151387e-05
-5.828275e-05
-3.808759e-05
-6.148776e-05
-2.102846e-05
-4.792909e-05
-3.267071e-05
-3.247475e-05
-2.811717e-05
-1.390434e-05
-3.885862e-05
-9.212818e-07
-2.368855e-05
-1.789817e-06
-1.024725e-05
0.0001024047
-2.093778e-05
5.896224e-06
-1.195392e-05
-4.544854e-05
-0.0001087374
-3.482036e-05
-0.0001683843
-0.0001615714
-1.71991e-05
-0.0001497697
-2.291288e-05
-2.599273e-05
-1.023653e-05
-2.955556e-05
-2.821515e-05
-0.0001475258
-0.0001795385
7.359692e-05
5.469026e-05
2.528712e-05
-0.0001487423
-0.0001494638
-0.0001403496
9.784994e-05
0.0001323548
-1.263978e-05
6.719961e-06
0.0001234328
8.319136e-05
-2.310355e-05
0.0001097965
-1.611587e-05
0.0001396962
0.0001397558
-5.203355e-05
-1.236457e-05
0.0001533445
-1.512842e-05
0.0001575346
7.518761e-05
-2.342968e-05
0.0001351802
-3.247587e-06
-6.38934e-05
-2.235898e-05
-6.251706e-05
-0.0001634159
0.0001200825
-9.863233e-05
-2.487823e-05
4.559647e-05
-7.780238e-05
-4.665147e-05
-3.272008e-05
6.010302e-05
-2.700819e-05
-1.987073e-05
8.510336e-05
0.0001199296
-4.97467e-05
-3.1935e-05
-4.154829e-05
-1.275535e-05
7.440717e-05
-3.089635e-05
-4.776618e-05
-0.0001405308
-2.300174e-05
-2.320139e-05
-0.0001399797
-0.0001235112
9.827648e-05
-6.771594e-05
-8.29441e-06
-0.0001802887
-3.132073e-05
-0.0001507705
-4.6977e-05
-0.0001901041
-9.179607e-05
7.224639e-05
-2.788795e-05
-1.70231e-05
-9.652296e-06
-4.673444e-05
-0.0001519502
-1.699515e-05
-1.438301e-05
-4.131261e-06
-1.448858e-05
-1.336118e-05
-4.205702e-05
-1.53916e-05
-1.149001e-05
-1.640953e-05
-0.000125513
-8.595023e-05
-4.094664e-05
-1.485216e-05
-4.347798e-05
-2.27051e-05
0.000118075
-8.597448e-06
-2.770056e-05
-6.827239e-05
-4.881886e-05
-1.901676e-05
9.666337e-05
-1.357851e-05
-5.296449e-05
-2.69286e-05
-9.597314e-05
-5.931264e-05
-4.33927e-05
-4.537729e-05
9.510407e-05
-0.0001673993
-1.858142e-05
-4.516448e-05
0.0001528072
0.0001768422
-1.389154e-05
-7.25055e-05
-1.898243e-05
-1.803309e-05
-3.332055e-05
0.0001094513
-2.857739e-05
-1.407209e-05
-3.476681e-05
-1.266588e-05
0.0001435702
-1.215381e-05
-3.262856e-05
-5.553297e-05
8.425469e-05
-3.307273e-05
-1.651438e-05
-3.604566e-05
0.00011512
-6.76533e-05
0.0001910324
-2.277548e-05
-2.806459e-05
-1.340363e-05
-4.907851e-05
-0.0001193723
9.072799e-05
-3.117588e-05
-2.027941e-05
-2.684767e-05
-6.557492e-06
-1.03522e-05
1.296893e-05
0.0001362307
-5.054835e-05
0.0001989052
-3.330525e-05
-4.806857e-05
-2.211157e-05
0.0001515428
7.204148e-06
-5.927984e-05
3.615612e-06
-1.664666e-05
-3.791799e-05
6.114017e-05
-0.0001345481
-3.1002e-05
-4.370891e-05
-1.780908e-05
-9.104428e-05
0.0001073289
-2.906196e-05
5.147515e-05
5.635611e-05
-3.379983e-05
-9.892581e-05
-4.231343e-05
-8.43511e-05
-3.45658e-05
-8.409725e-05
0.0001282209
-1.497447e-05
-0.0001583314
-0.000167965
-2.24354e-05
-6.174648e-05
0.0001161111
-1.638656e-05
0.0001149231
-1.586552e-05
1.484364e-05
0.000100812
-0.0001024057
-2.39996e-05
-1.499007e-05
0.0001342388
0.0001611688
-2.586974e-05
-2.275777e-05
-8.977727e-06
0.0001122892
-1.543936e-05
-1.818377e-05
-0.0001534672
-2.647326e-05
-6.699322e-05
-4.900364e-05
-2.798118e-05
8.19928e-05
-1.375979e-05
-0.0001042312
2.11864e-05
2.311491e-05
-0.0001185789
-0.0001251655
3.655476e-05
0.0001365332
-9.942791e-06
-4.856358e-05
-0.0001505453
-1.863569e-05
-3.605389e-05
-5.573066e-05
-0.0001543435
0.0001199817
2.821311e-05
-0.0001155699
0.0001352669
-0.000155154
-8.005196e-05
-0.0001787214
-0.0001987409
-4.072117e-05
-0.0001560375
-2.20789e-05
-0.0001685934
7.095662e-05
0.0001250211
8.232526e-05
-6.280101e-05
-2.666318e-05
-2.794398e-05
4.635025e-06
-4.745726e-05
-2.851607e-05
-4.139049e-05
1.315615e-06
-9.24421e-06
-0.0001347304
1.679848e-06
-2.540917e-05
8.501848e-05
-3.972831e-05
0.0002115072
-3.822849e-05
-1.71803e-05
-3.866439e-05
8.792714e-05
-3.202832e-05
-1.423176e-05
0.0001289384
-0.0001851667
-3.919485e-05
-2.340347e-05
-3.895866e-05
9.693897e-05
0.0001186089
6.348679e-05
0.0001110045
-7.518295e-05
6.219218e-06
-0.0001476379
-4.049154e-05
-3.850162e-05
0.0001741512
-0.0001572814
-1.759259e-05
-0.0001469417
-9.480307e-05
-3.50707e-05
-0.0001768908
-3.165399e-05
-1.820572e-05
-2.059898e-05
0.0001241181
-1.848215e-05
-7.417324e-05
-1.205666e-06
0.0001813738
7.994207e-05
-0.00013026
-2.934915e-05
-0.0001229586
-1.321737e-05
-3.401116e-05
-4.307678e-05
-7.682603e-05
-0.0001475167
0.000166131
-2.407513e-05
-3.597358e-05
4.476748e-05
-2.104386e-05
-0.0001065954
-6.833609e-05
-9.810982e-05
-3.975345e-05
-3.054359e-05
-2.375649e-05
0.0001243889
0.0001505901
0.000141495
-0.0001349516
-1.104263e-05
-2.286353e-05
2.916244e-06
-7.235515e-05
-4.842466e-05
-0.0001460811
4.652352e-06
0.0001021163
-4.405948e-05
-1.99619e-06
-3.476797e-05
-0.0001073951
2.493342e-05
-0.0001907905
0.0001179519
-1.749678e-05
-0.000144613
-1.503632e-05
-1.219386e-05
-1.141186e-05
-1.291179e-05
-1.633993e-05
-5.919326e-05
-4.037721e-05
-3.303947e-05
0.0001326407
-4.603756e-05
9.517616e-05
7.057522e-05
-1.484948e-05
-2.216443e-05
0.0001316767
0.000108413
0.0001116273
9.849814e-05
0.0001399911
-2.449011e-05
-3.60409e-05
-3.792834e-05
-8.102217e-05
-9.149016e-05
0.0001575573
0.0001445542
0.0001451523
0.0001602477
-6.014116e-05
-0.0001668261
-0.0001382242
-2.536861e-05
-5.390015e-05
6.305263e-05
-2.74611e-05
-2.947014e-05
-3.837527e-05
-1.997583e-05
-1.763931e-05
2.552775e-05
-4.452361e-05
-4.678735e-05
-3.859124e-05
-2.827242e-05
-3.684991e-05
0.000182851
-5.310027e-05
-1.671052e-05
-3.301734e-05
-3.406103e-05
-1.132026e-05
-9.524823e-06
0.0001241829
-2.907762e-05
-3.326075e-05
0.0001452341
0.0001290886
-0.0001524078
0.000122015
1.567148e-05
-1.966842e-05
-2.885694e-05
0.0001271024
-2.434687e-05
-1.215391e-05
-0.0001073631
-1.387705e-05
-1.655681e-05
-1.354865e-05
2.009272e-05
9.140847e-09
0.0001329129
0.0001754188
-2.929625e-05
5.812734e-05
-1.209207e-05
-0.0001564876
-0.00014861
-0.0001358457
0.0001299777
-1.461327e-05
-0.0001535679
-1.271215e-05
9.404989e-05
-2.791114e-05
-4.641952e-05
-2.920805e-05
-2.45775e-05
-2.399645e-05
-1.646667e-05
0.000135381
7.654707e-05
-5.868358e-05
-3.427849e-05
-3.250134e-05
-2.106377e-05
-2.671078e-05
3.432026e-05
-2.607228e-05
-6.143675e-05
-7.66522e-05
-5.656475e-05
5.143746e-05
-0.000148899
-3.509059e-05
-4.053533e-05
-2.024591e-05
-2.44169e-05
-3.182208e-05
-4.322393e-05
-6.866195e-05
0.0001334345
-1.406223e-05
-5.300478e-06
-3.502775e-05
-4.010956e-05
-3.253377e-05
-1.585449e-05
-6.366042e-05
0.0001498882
1.170817e-05
-3.095896e-05
-3.736163e-05
-3.293748e-05
-2.250327e-05
-1.74232e-05
-2.345421e-05
-2.661067e-05
-1.428273e-05
-6.357321e-05
-1.573456e-05
7.301884e-05
-4.039987e-05
-6.762138e-05
-2.518651e-05
-4.71667e-05
-4.389748e-05
-1.210254e-05
0.0001441296
-2.504383e-05
-1.903269e-05
-0.0001386235
0.0001522592
-0.0001481399
-0.0001486186
-1.309726e-05
-2.246809e-05
8.104706e-05
-1.410317e-05
-1.577335e-05
9.994888e-05
-3.745371e-05
0.0001456978
0.0001526469
-0.0001464066
0.0001087671
0.000141276
0.0001221166
-0.0001389005
0.0001226116
-1.951423e-05
0.0001013646
-2.68866e-05
-7.039616e-05
-1.985636e-05
-3.536489e-05
0.0001181965
1.523134e-06
-2.110546e-05
-8.961303e-05
6.210388e-05
-0.0001139389
-3.087857e-05
0.0001196498
0.0001348119
-5.616209e-05
6.708825e-05
8.97626e-05
-7.476964e-05
-2.336683e-06
-2.308579e-05
-1.565553e-05
-1.465315e-05
-6.434766e-05
-3.671597e-05
3.06014e-05
0.0001792603
-2.548875e-05
-4.139593e-05
0.0001772389
0.0001194062
-2.64301e-05
7.892858e-05
-0.0001046342
-3.334024e-05
-4.784602e-05
-0.0001089495
-5.824276e-06
0.0001434713
0.0001510911
0.0001444118
-7.497964e-05
-3.390521e-05
-4.096722e-05
-2.486444e-05
-2.544408e-05
-2.053867e-05
-1.690802e-05
-1.745332e-05
-1.794524e-05
-1.552247e-05
-1.356325e-05
-5.558022e-05
-0.0001544057
-0.0002246599
-8.444999e-05
5.264342e-05
-2.599321e-05
-2.743857e-05
-2.782444e-05
0.000189567
-1.159876e-05
-2.472824e-05
-1.282383e-05
-1.084709e-05
-1.172026e-05
9.796456e-06
-0.0001939265
-7.194994e-05
-8.578231e-06
-4.878167e-05
-5.144199e-05
2.347245e-05
7.234934e-05
-5.012801e-05
-5.573271e-05
-8.681121e-05
0.0001247786
-4.102226e-05
-2.15593e-05
-1.449487e-05
-3.420008e-05
-0.0001627362
-2.908658e-05
0.0001155277
0.0001251785
-1.09776e-05
-5.743285e-05
-5.363161e-05
1.622993e-05
-9.531811e-07
-2.998158e-05
0.0001256401
-1.84316e-05
7.260482e-05
-1.240896e-05
8.856615e-05
0.0001139715
1.270749e-05
-1.865399e-06
-3.212801e-06
-0.0001105257
7.038955e-05
0.0001071208
-3.152594e-05
9.692412e-05
-1.23971e-05
-2.023828e-05
-0.0001488576
2.983042e-05
-0.0001064984
-3.628416e-05
-2.109786e-05
-0.0001686648
6.113766e-05
0.000172063
-0.0001867804
-1.432424e-05
-2.253238e-05
-5.721452e-05
2.405637e-05
-3.167448e-05
-2.008449e-05
-1.910845e-05
-3.071118e-05
-0.0001475019
-8.429993e-05
-0.000118033
-0.000150602
-0.0001486304
-2.41346e-05
4.346295e-05
3.80789e-05
-2.622472e-06
8.695055e-05
0.0001899369
0.0001072281
-1.784508e-05
-2.099579e-05
-1.307783e-05
-1.346902e-05
-1.629821e-05
-1.183293e-05
-1.733896e-05
0.0001099318
-2.488297e-05
0.0001836788
-1.11097e-05
-3.123755e-05
-3.844296e-05
7.939948e-05
-3.132279e-05
-3.139362e-05
-0.0001717915
-0.0001180233
-0.0001750396
-0.0001263295
8.056729e-05
-0.000235521
-3.014607e-05
-2.882376e-05
-5.73822e-05
-3.880911e-05
-0.0001172732
-0.0001427487
-0.0001010591
9.450864e-05
-0.0001535711
-3.988907e-05
-3.573328e-05
-2.256383e-06
-3.066677e-05
0.0001083282
-4.566673e-05
-3.959432e-05
-0.000161865
-2.36881e-05
-3.07558e-05
-0.0001001258
-3.865923e-05
-1.779909e-05
-0.0001060529
-2.282e-05
7.120503e-05
-2.656526e-05
-2.923639e-05
-2.334446e-05
0.0001487095
-0.000122513
-1.124245e-05
-1.059198e-05
3.333682e-05
-0.0001047094
-0.0001129222
-9.152186e-06
-3.913289e-05
7.227344e-05
-2.018058e-05
-0.00013971
-2.618006e-05
-2.562669e-05
-5.906552e-05
-0.0001732786
-0.0001756088
0.0001222598
-4.366966e-05
-3.456889e-05
0.0001283365
-9.470256e-05
9.572525e-05
-3.876441e-05
-5.840906e-05
0.0001163692
-0.0001513458
-2.206402e-05
-2.507079e-08
-2.191605e-05
-0.0001563835
-1.142593e-05
-9.679509e-06
0.0001278064
9.892895e-05
0.0001119866
0.0001147212
0.0001313187
0.0001530477
-1.324524e-05
7.545206e-06
-7.444976e-06
-3.179915e-05
-3.014193e-05
-3.401707e-05
-3.123178e-05
-0.0001483573
-1.359907e-05
-1.266758e-05
-2.576842e-05
-3.243469e-05
0.0001723601
0.000161182
0.000117017
0.0001270316
-3.304045e-05
-5.319668e-05
-2.493769e-05
-2.417217e-05
7.242246e-05
-2.398002e-05
-7.96317e-06
-3.758698e-06
-4.329707e-05
0.0001160601
0.0001457547
-1.621516e-05
-1.245898e-05
3.695121e-05
-4.963196e-05
-0.0001278214
-2.436587e-05
7.420647e-05
-9.238615e-06
-3.524432e-05
-1.903464e-05
-6.733678e-05
-1.719404e-05
6.093853e-05
-0.0001299346
0.000174722
-2.640706e-05
7.114792e-05
3.046426e-05
3.520774e-05
-0.0001504998
-4.335042e-05
-0.0001714484
4.953467e-07
-3.102466e-05
-9.080318e-05
-4.879147e-05
-1.815933e-05
-1.067126e-05
-2.621049e-05
-1.826338e-05
-2.272643e-05
4.077695e-05
8.123415e-05
-5.253695e-05
-7.580147e-05
-2.620703e-05
3.459455e-05
-6.807461e-05
-0.0001555373
-3.907368e-05
-1.528501e-05
-0.0001357942
3.550618e-05
-1.211224e-05
-3.775444e-06
-2.682971e-05
-4.104394e-05
0.0001784915
0.0001560634
0.0001744914
0.0001444177
-0.0001551715
-1.490377e-05
1.475782e-05
-3.948993e-05
-0.0001166735
-1.610257e-05