/*--------------------------------*- C++ -*----------------------------------*\
| =========                 |                                                 |
| \\      /  F ield         | OpenFOAM: The Open Source CFD Toolbox           |
|  \\    /   O peration     | Version:  2406                                  |
|   \\  /    A nd           | Website:  www.openfoam.com                      |
|    \\/     M anipulation  |                                                 |
\*---------------------------------------------------------------------------*/
FoamFile
{
    version     2.0;
    format      ascii;
    arch        "LSB;label=32;scalar=64";
    class       surfaceScalarField;
    location    "0.52";
    object      phi;
}
// * * * * * * * * * * * * * * * * * * * * * * * * * * * * * * * * * * * * * //

dimensions      [0 3 -1 0 0 0 0];

oriented        oriented;

internalField   nonuniform List<scalar> 
7340
(
2.512192e-14
-4.093163e-14
1.580972e-14
1.775908e-14
7.362844e-15
1.659318e-14
1.165905e-15
1.503556e-14
1.557617e-15
1.495328e-14
8.228525e-17
1.392997e-14
1.023306e-15
1.387067e-14
5.930031e-17
1.340342e-14
4.672456e-16
1.273338e-14
6.70041e-16
1.275334e-14
-1.995448e-17
1.24393e-14
3.14035e-16
1.204383e-14
3.954707e-16
1.160292e-14
4.409053e-16
1.222802e-14
-6.250959e-16
1.228365e-14
-5.563273e-17
1.21511e-14
1.325496e-16
1.20201e-14
1.310015e-16
1.224538e-14
-2.252853e-16
1.27599e-14
-5.145104e-16
1.272347e-14
3.641943e-17
1.321057e-14
-4.870939e-16
1.405948e-14
-8.489273e-16
1.38174e-14
2.42081e-16
1.501712e-14
-1.199732e-15
2.533122e-14
-1.03141e-14
1.972796e-15
2.335844e-14
7.410795e-16
1.231737e-15
1.630366e-15
-8.892866e-16
9.518184e-16
6.785471e-16
7.970814e-16
1.547336e-16
5.81308e-16
2.157717e-16
3.529313e-16
2.283773e-16
2.119682e-16
1.409608e-16
2.583526e-16
-4.638316e-17
1.590673e-16
9.928441e-17
9.784535e-17
6.122188e-17
7.687209e-17
2.097287e-17
5.625515e-17
2.061695e-17
1.27707e-17
4.348445e-17
2.804352e-18
9.966361e-18
1.716609e-20
2.787196e-18
-5.078758e-18
5.095909e-18
-9.958176e-18
4.879364e-18
-2.509856e-17
1.514041e-17
-3.304924e-17
7.950726e-18
-2.897948e-17
-4.06966e-18
-3.692736e-17
7.94785e-18
-2.916921e-17
-7.758083e-18
-1.876188e-17
-1.040728e-17
-6.971452e-18
-1.179043e-17
5.142745e-18
-1.2114e-17
1.548972e-17
-1.034702e-17
2.230368e-17
-6.813987e-18
2.853823e-17
-6.234893e-18
2.942746e-17
-8.888534e-19
3.684816e-17
-7.420606e-18
1.797685e-17
1.887136e-17
9.256813e-18
8.720161e-18
3.359188e-18
5.897593e-18
-3.214096e-17
3.549974e-17
-2.30044e-17
-9.13622e-18
-1.444014e-17
-8.56441e-18
-2.292874e-17
8.48858e-18
-7.881374e-17
5.588528e-17
-1.354351e-16
5.662183e-17
-2.190229e-16
8.358784e-17
-3.078782e-16
8.885531e-17
-5.494399e-16
2.415609e-16
-6.984136e-16
1.489751e-16
-9.755361e-16
2.771189e-16
-1.407707e-15
4.321722e-16
-1.090753e-15
-3.169605e-16
-1.437166e-15
3.464202e-16
-2.53557e-14
2.391855e-14
-1.542361e-14
-9.9321e-15
-1.404141e-14
-1.382209e-15
-1.397718e-14
-6.422323e-17
-1.32566e-14
-7.205874e-16
-1.252059e-14
-7.360095e-16
-1.243595e-14
-8.464398e-17
-1.22425e-14
-1.934534e-16
-1.224117e-14
-1.337131e-18
-1.181255e-14
-4.286162e-16
-1.193511e-14
1.225575e-16
-1.209238e-14
1.572739e-16
-1.186689e-14
-2.254909e-16
-1.235949e-14
4.926035e-16
-1.246076e-14
1.012649e-16
-1.275322e-14
2.924607e-16
-1.292811e-14
1.748913e-16
-1.358186e-14
6.53748e-16
-1.403309e-14
4.512258e-16
-1.447379e-14
4.407071e-16
-1.435711e-14
-1.166846e-16
-1.490786e-14
5.507504e-16
-1.692079e-14
2.012931e-15
-1.858843e-14
1.66764e-15
-2.458004e-14
5.991613e-15
-4.048662e-14
1.590658e-14
-2.548726e-14
-1.499936e-14
-1.767498e-14
-7.812284e-15
-1.693889e-14
-7.36092e-16
-1.500401e-14
-1.934877e-15
-1.408938e-14
-9.146348e-16
-1.377981e-14
-3.095697e-16
-1.356592e-14
-2.138857e-16
-1.275288e-14
-8.130435e-16
-1.252282e-14
-2.300527e-16
-1.253998e-14
1.715001e-17
-1.183861e-14
-7.013661e-16
-1.127242e-14
-5.661911e-16
-1.10822e-14
-1.90214e-16
-1.141231e-14
3.301068e-16
-1.100987e-14
-4.024438e-16
-1.050024e-14
-5.09624e-16
-1.045021e-14
-5.00272e-17
-1.027117e-14
-1.790418e-16
-1.014565e-14
-1.255188e-16
-1.03371e-14
1.914427e-16
-1.035537e-14
1.827584e-17
-1.033119e-14
-2.417951e-17
-1.057562e-14
2.444286e-16
-1.03118e-14
-2.63814e-16
-1.024479e-14
-6.701839e-17
-1.016042e-14
-8.436155e-17
-1.013653e-14
-2.388916e-17
-1.035708e-14
2.205505e-16
-1.057878e-14
2.216987e-16
-1.061191e-14
3.313054e-17
-1.077895e-14
1.670383e-16
-1.085358e-14
7.463273e-17
-1.139893e-14
5.453493e-16
-1.250594e-14
1.107018e-15
-1.249942e-16
-1.238095e-14
1.242678e-14
-1.255177e-14
1.132235e-14
1.104433e-15
1.077893e-14
5.434229e-16
1.071518e-14
6.374413e-17
1.054953e-14
1.65651e-16
1.052091e-14
2.862871e-17
1.032272e-14
1.981848e-16
1.011063e-14
2.120893e-16
1.014597e-14
-3.533832e-17
1.024645e-14
-1.004788e-16
1.033451e-14
-8.805947e-17
1.061769e-14
-2.831744e-16
1.038586e-14
2.318276e-16
1.04394e-14
-5.353773e-17
1.044734e-14
-7.938596e-18
1.027048e-14
1.768578e-16
1.042411e-14
-1.536365e-16
1.056751e-14
-1.433963e-16
1.058174e-14
-1.422483e-17
1.106206e-14
-4.803252e-16
1.144588e-14
-3.838224e-16
1.111145e-14
3.344313e-16
1.13067e-14
-1.952516e-16
1.187682e-14
-5.701139e-16
1.257303e-14
-6.962097e-16
1.254434e-14
2.869136e-17
1.275598e-14
-2.11641e-16
1.351802e-14
-7.620403e-16
1.366013e-14
-1.42114e-16
1.39312e-14
-2.710649e-16
1.472053e-14
-7.893321e-16
1.697415e-14
-2.253616e-15
1.82263e-14
-1.252159e-15
2.471925e-14
-6.49295e-15
-1.621239e-14
4.332755e-14
4.197144e-16
-5.629903e-14
4.353276e-14
8.992149e-16
4.145249e-14
2.623696e-15
4.113501e-14
3.812274e-16
4.061736e-14
6.83295e-16
4.044139e-14
2.045977e-16
3.98066e-14
8.329791e-16
3.894962e-14
1.069072e-15
3.903396e-14
-1.19678e-16
3.940609e-14
-4.726174e-16
3.977575e-14
-4.577217e-16
4.076119e-14
-1.268611e-15
4.006076e-14
9.322551e-16
4.009168e-14
-8.445246e-17
4.028054e-14
-1.968002e-16
3.949986e-14
9.575399e-16
4.008135e-14
-7.351266e-16
4.069364e-14
-7.556851e-16
4.077439e-14
-9.497855e-17
4.249472e-14
-2.200654e-15
4.387674e-14
-1.765845e-15
4.289087e-14
1.320298e-15
4.361575e-14
-9.201298e-16
4.57301e-14
-2.684462e-15
4.818822e-14
-3.154334e-15
4.840235e-14
-1.854303e-16
4.925146e-14
-1.060757e-15
5.204347e-14
-3.55405e-15
5.276847e-14
-8.671129e-16
5.384316e-14
-1.345752e-15
5.710042e-14
-4.046593e-15
6.600347e-14
-1.115666e-14
7.093195e-14
-6.18064e-15
9.83328e-14
-3.38938e-14
1.470106e-13
-6.489022e-14
-1.007557e-13
1.448885e-13
-5.913216e-14
-6.935934e-14
-3.920861e-14
-6.586757e-14
-4.227863e-15
-5.949138e-14
-8.311072e-15
-5.455922e-14
-5.846792e-15
-5.320814e-14
-1.66065e-15
-5.222837e-14
-1.193647e-15
-4.924445e-14
-3.796975e-15
-4.832373e-14
-1.150766e-15
-4.806428e-14
-2.422969e-16
-4.558726e-14
-3.178391e-15
-4.3486e-14
-2.667455e-15
-4.277801e-14
-8.982006e-16
-4.37462e-14
1.298303e-15
-4.229335e-14
-1.855301e-15
-4.046397e-14
-2.338999e-15
-4.024405e-14
-2.699523e-16
-3.951297e-14
-9.101173e-16
-3.902213e-14
-6.163627e-16
-3.986753e-14
1.036841e-15
-3.977819e-14
-7.105643e-17
-3.985389e-14
5.151673e-17
-4.060612e-14
9.966595e-16
-3.96943e-14
-1.175631e-15
-3.940441e-14
-3.569094e-16
-3.909323e-14
-3.955483e-16
-3.905063e-14
-6.648716e-17
-3.994754e-14
1.117458e-15
-4.066329e-14
9.374535e-16
-4.085819e-14
2.280257e-16
-4.138384e-14
6.926944e-16
-4.174407e-14
4.34864e-16
-4.382848e-14
2.629757e-15
-4.375117e-14
1.02971e-15
-5.571241e-14
-6.772215e-14
8.585855e-14
-2.806846e-14
-5.487181e-14
-1.423258e-14
-5.466559e-14
-2.704382e-16
-5.163774e-14
-3.748424e-15
-4.884429e-14
-3.529472e-15
-4.808236e-14
-8.465648e-16
-4.747851e-14
-7.973034e-16
-4.729255e-14
-1.872916e-16
-4.581281e-14
-1.908365e-15
-4.607649e-14
3.862432e-16
-4.662779e-14
7.085795e-16
-4.586051e-14
-9.927702e-16
-4.752398e-14
2.156073e-15
-4.814672e-14
7.240047e-16
-4.917105e-14
1.316795e-15
-4.998043e-14
9.842628e-16
-5.226297e-14
2.93629e-15
-5.417788e-14
2.366144e-15
-5.576101e-14
2.02383e-15
-5.565915e-14
-2.185403e-16
-5.789801e-14
2.789605e-15
-6.568502e-14
9.799941e-15
-7.225611e-14
8.238727e-15
-9.751418e-14
3.124968e-14
6.328087e-14
2.111432e-14
-8.599004e-14
8.823413e-14
4.390898e-15
1.795516e-14
6.898673e-15
-3.397067e-15
4.40457e-15
3.172642e-15
3.491568e-15
1.067736e-15
2.567991e-15
1.139346e-15
1.65173e-15
1.144633e-15
1.058165e-15
7.345273e-16
1.104745e-15
-9.296741e-17
7.553257e-16
4.487037e-16
4.856699e-16
3.308772e-16
3.87809e-16
1.188338e-16
2.848635e-16
1.235618e-16
1.196669e-16
2.086807e-16
6.375748e-17
6.58755e-17
4.214826e-17
2.43961e-17
1.614299e-17
3.110107e-17
-1.005831e-17
3.108066e-17
-7.070206e-17
7.578399e-17
-1.036843e-16
4.093293e-17
-9.780248e-17
-9.951539e-18
-1.256576e-16
3.580313e-17
-1.051618e-16
-2.825385e-17
-6.894826e-17
-4.662081e-17
-2.930096e-17
-5.143757e-17
1.336908e-17
-5.478429e-17
4.762368e-17
-4.460138e-17
7.021721e-17
-2.940735e-17
8.786296e-17
-2.387995e-17
8.967026e-17
-2.696979e-18
1.057701e-16
-2.352085e-17
3.559843e-17
8.904269e-17
-6.519671e-18
5.083762e-17
-4.85562e-17
4.793369e-17
-1.766355e-16
1.635794e-16
-1.626398e-16
-2.313324e-17
-1.464315e-16
-2.477329e-17
-2.08547e-16
7.06037e-17
-4.304643e-16
2.778018e-16
-6.923304e-16
3.184866e-16
-1.032892e-15
4.241478e-16
-1.498592e-15
5.545552e-16
-2.402821e-15
1.14579e-15
-3.182459e-15
9.286083e-16
-4.351069e-15
1.445729e-15
-6.33746e-15
2.418555e-15
-5.208621e-15
-1.445807e-15
-1.942649e-14
1.456431e-14
9.035056e-14
9.945006e-14
6.337029e-14
6.976048e-14
3.705243e-14
6.591417e-14
5.012201e-15
5.851828e-14
8.953512e-15
5.76106e-14
9.899596e-16
5.40449e-14
4.589017e-15
5.339225e-14
7.119366e-16
5.16778e-14
2.181688e-15
4.920102e-14
3.146831e-15
4.905022e-14
1.308485e-16
4.800968e-14
1.35457e-15
4.64115e-14
1.993649e-15
4.500338e-14
1.849043e-15
4.716948e-14
-2.791209e-15
4.744661e-14
-3.327547e-16
4.68859e-14
6.932618e-16
4.648629e-14
5.306132e-16
4.751574e-14
-1.254738e-15
4.930804e-14
-2.306815e-15
4.956663e-14
-2.221548e-16
5.149046e-14
-2.410932e-15
5.485436e-14
-4.212824e-15
5.402548e-14
1.070972e-15
6.621954e-14
-1.339379e-14
-3.008458e-14
2.21485e-13
-3.08992e-13
1.508772e-13
1.573304e-13
1.012071e-13
1.463806e-13
1.596196e-14
1.299095e-13
2.542469e-14
1.269992e-13
3.900222e-15
1.194928e-13
1.209536e-14
1.175034e-13
2.701378e-15
1.137683e-13
5.916833e-15
1.08448e-13
8.467069e-15
1.078379e-13
7.409554e-16
1.057257e-13
3.466763e-15
1.022482e-13
5.471174e-15
9.952213e-14
4.575097e-15
1.040497e-13
-7.318776e-15
1.046513e-13
-9.343109e-16
1.03394e-13
1.950528e-15
1.027383e-13
1.186302e-15
1.052838e-13
-3.800252e-15
1.091115e-13
-6.134495e-15
1.102274e-13
-1.33805e-15
1.148951e-13
-7.078705e-15
1.221484e-13
-1.14661e-14
1.225111e-13
7.082435e-16
1.534039e-13
-4.428656e-14
1.746003e-13
-5.128104e-14
6.370335e-14
1.991311e-13
1.537008e-14
6.628846e-14
1.651389e-14
-4.540882e-15
1.1199e-14
8.487545e-15
8.588832e-15
3.677901e-15
6.351028e-15
3.377151e-15
4.244816e-15
3.250851e-15
2.80514e-15
2.174199e-15
2.703903e-15
8.275313e-18
1.946623e-15
1.205983e-15
1.305533e-15
9.719681e-16
1.045477e-15
3.788898e-16
7.815195e-16
3.875204e-16
4.094914e-16
5.807094e-16
2.567681e-16
2.185993e-16
1.85155e-16
9.600956e-17
1.127657e-16
1.034906e-16
4.113368e-17
1.027129e-16
-9.85367e-17
2.154547e-16
-1.787846e-16
1.211811e-16
-1.810806e-16
-7.655288e-18
-2.436301e-16
9.835269e-17
-2.137969e-16
-5.808687e-17
-1.452618e-16
-1.151558e-16
-6.918318e-17
-1.275161e-16
1.478325e-17
-1.387502e-16
7.910708e-17
-1.089253e-16
1.190553e-16
-6.935559e-17
1.466433e-16
-5.146856e-17
1.422919e-16
1.655483e-18
1.581493e-16
-3.937776e-17
2.565417e-18
2.44627e-16
-1.091075e-16
1.625113e-16
-2.329116e-16
1.717382e-16
-5.120766e-16
4.427439e-16
-5.138184e-16
-2.13898e-17
-5.19625e-16
-1.896601e-17
-7.06106e-16
2.570855e-16
-1.226481e-15
7.981782e-16
-1.871942e-15
9.639502e-16
-2.69768e-15
1.249888e-15
-3.905403e-15
1.762279e-15
-5.952847e-15
3.193236e-15
-7.960427e-15
2.936196e-15
-1.095885e-14
4.444156e-15
-1.556321e-14
7.022919e-15
-1.655825e-14
-4.507714e-16
-6.035713e-14
5.836319e-14
-1.74019e-13
2.040125e-13
-1.564976e-13
-4.558989e-14
-1.24426e-13
-4.630417e-14
-1.218982e-13
-2.798251e-15
-1.152328e-13
-1.041386e-14
-1.087479e-13
-1.001437e-14
-1.064368e-13
-3.157723e-15
-1.051084e-13
-2.125675e-15
-1.045323e-13
-7.633669e-16
-1.014007e-13
-5.040043e-15
-1.016473e-13
6.329324e-16
-1.027546e-13
1.815861e-15
-1.011151e-13
-2.632266e-15
-1.044915e-13
5.532481e-15
-1.061179e-13
2.350405e-15
-1.083432e-13
3.542082e-15
-1.102018e-13
2.842829e-15
-1.149543e-13
7.688833e-15
-1.193401e-13
6.75187e-15
-1.228178e-13
5.501532e-15
-1.230901e-13
5.382573e-17
-1.286682e-13
8.367699e-15
-1.487834e-13
2.991507e-14
-1.619959e-13
2.145131e-14
-2.173605e-13
8.661425e-14
-3.041194e-13
1.500398e-13
-2.24056e-13
-1.391956e-13
-1.562851e-13
-1.069795e-13
-1.45998e-13
-1.451496e-14
-1.320006e-13
-2.230845e-14
-1.205595e-13
-1.728796e-14
-1.172557e-13
-4.964368e-15
-1.148734e-13
-3.576013e-15
-1.085026e-13
-1.01678e-14
-1.063546e-13
-3.298732e-15
-1.053067e-13
-1.290151e-15
-1.001391e-13
-8.34605e-15
-9.57511e-14
-7.055435e-15
-9.415847e-14
-2.490833e-15
-9.582674e-14
2.966575e-15
-9.273589e-14
-4.946149e-15
-8.897573e-14
-6.099156e-15
-8.847166e-14
-7.74029e-16
-8.677729e-14
-2.604482e-15
-8.572848e-14
-1.665172e-15
-8.770735e-14
3.015711e-15
-8.734928e-14
-4.291234e-16
-8.769113e-14
3.933606e-16
-8.913863e-14
2.444156e-15
-8.722986e-14
-3.084394e-15
-8.658205e-14
-1.004715e-15
-8.593257e-14
-1.045028e-15
-8.597239e-14
-2.666575e-17
-8.799783e-14
3.142894e-15
-8.942897e-14
2.368593e-15
-8.989279e-14
6.918501e-16
-9.091545e-14
1.715359e-15
-9.186311e-14
1.382524e-15
-9.543863e-14
6.205282e-15
-8.729557e-14
-7.113354e-15
-8.478091e-16
-1.421602e-13
8.62326e-14
-1.433794e-13
9.475491e-14
-7.623092e-15
9.121366e-14
6.164947e-15
9.036006e-14
1.234832e-15
8.936152e-14
1.681835e-15
8.89376e-14
6.285257e-16
8.767293e-14
2.097647e-15
8.574433e-14
2.997671e-15
8.579451e-14
-1.698587e-16
8.657472e-14
-1.252825e-15
8.739551e-14
-1.278515e-15
8.946601e-14
-3.339104e-15
8.813534e-14
2.262924e-15
8.801704e-14
3.3845e-17
8.859372e-14
-7.734826e-16
8.676514e-14
2.786127e-15
8.79935e-14
-1.963485e-15
8.944996e-14
-2.212149e-15
8.965246e-14
-2.974836e-16
9.317729e-14
-5.725478e-15
9.611511e-14
-4.703663e-15
9.440595e-14
3.029455e-15
9.603118e-14
-2.545357e-15
1.004448e-13
-7.098065e-15
1.055721e-13
-8.281684e-15
1.065194e-13
-1.132696e-15
1.08508e-13
-3.049396e-15
1.144728e-13
-9.518782e-15
1.163146e-13
-2.708988e-15
1.189513e-13
-3.982412e-15
1.294717e-13
-1.456703e-14
1.463583e-13
-2.804323e-14
1.590513e-13
-1.887365e-14
2.194567e-13
-9.42992e-14
-1.544255e-13
1.430269e-13
1.498544e-15
-2.879049e-13
1.722733e-13
-3.686956e-14
1.695161e-13
8.922192e-15
1.679101e-13
2.840789e-15
1.662672e-13
3.32481e-15
1.655565e-13
1.339222e-15
1.633551e-13
4.29902e-15
1.597262e-13
6.626525e-15
1.595254e-13
3.101732e-17
1.608921e-13
-2.619579e-15
1.623826e-13
-2.769018e-15
1.661895e-13
-7.145992e-15
1.639268e-13
4.525621e-15
1.635179e-13
4.426987e-16
1.647514e-13
-2.006931e-15
1.612351e-13
6.302413e-15
1.633877e-13
-4.116031e-15
1.663049e-13
-5.12942e-15
1.667006e-13
-6.93162e-16
1.727445e-13
-1.17694e-14
1.781211e-13
-1.008027e-14
1.756878e-13
5.462792e-15
1.788629e-13
-5.720442e-15
1.865251e-13
-1.47603e-14
1.957219e-13
-1.747848e-14
1.982214e-13
-3.632177e-15
2.022281e-13
-7.056138e-15
2.131281e-13
-2.041872e-14
2.169166e-13
-6.497513e-15
2.224979e-13
-9.563705e-15
2.438736e-13
-3.594276e-14
2.745469e-13
-5.871646e-14
3.035335e-13
-4.786027e-14
4.099014e-13
-2.006671e-13
5.540267e-13
-2.985508e-13
-4.175267e-13
5.450598e-13
-2.667287e-13
-2.992936e-13
-2.252126e-13
-2.737752e-13
-4.003333e-14
-2.477028e-13
-4.838095e-14
-2.25278e-13
-3.971275e-14
-2.186341e-13
-1.160819e-14
-2.138536e-13
-8.356579e-15
-2.022375e-13
-2.17839e-14
-1.979311e-13
-7.605101e-15
-1.952436e-13
-3.977605e-15
-1.859733e-13
-1.761642e-14
-1.783533e-13
-1.467541e-14
-1.752304e-13
-5.613745e-15
-1.77584e-13
5.320171e-15
-1.719295e-13
-1.060059e-14
-1.654534e-13
-1.257528e-14
-1.645133e-13
-1.714115e-15
-1.61183e-13
-5.934841e-15
-1.593438e-13
-3.504386e-15
-1.631462e-13
6.818197e-15
-1.62322e-13
-1.253341e-15
-1.63127e-13
1.198373e-15
-1.656083e-13
4.925459e-15
-1.62104e-13
-6.588706e-15
-1.609304e-13
-2.178366e-15
-1.597988e-13
-2.176633e-15
-1.601667e-13
3.412917e-16
-1.63987e-13
6.963212e-15
-1.664829e-13
4.864425e-15
-1.672588e-13
1.467794e-15
-1.689625e-13
3.419015e-15
-1.707449e-13
3.164924e-15
-1.736523e-13
9.112702e-15
-1.45127e-13
-3.563862e-14
-2.857887e-13
-2.945206e-13
3.07438e-13
-5.850724e-14
-2.413803e-13
-9.944455e-14
-2.303767e-13
-1.380181e-14
-2.183944e-13
-2.239607e-14
-2.051497e-13
-2.325908e-14
-1.997912e-13
-8.516225e-15
-1.969845e-13
-4.932411e-15
-1.958085e-13
-1.9393e-15
-1.899699e-13
-1.087874e-14
-1.898501e-13
5.131758e-16
-1.917102e-13
3.675952e-15
-1.885736e-13
-5.768816e-15
-1.945195e-13
1.147841e-14
-1.978202e-13
5.651025e-15
-2.021134e-13
7.835316e-15
-2.054989e-13
6.228367e-15
-2.140417e-13
1.623161e-14
-2.223583e-13
1.506846e-14
-2.290946e-13
1.223778e-14
-2.303605e-13
1.319801e-15
-2.423575e-13
2.036464e-14
-2.795989e-13
6.71565e-14
-3.089178e-13
5.077021e-14
-4.055789e-13
1.832754e-13
2.895207e-13
1.398426e-13
-3.088707e-13
3.681592e-13
4.406869e-14
1.620623e-13
3.441781e-14
5.109987e-15
2.425235e-14
1.865299e-14
1.810875e-14
9.821504e-15
1.341449e-14
8.071406e-15
9.256347e-15
7.408985e-15
6.249819e-15
5.180731e-15
5.700307e-15
5.577796e-16
4.231301e-15
2.674988e-15
2.956281e-15
2.246987e-15
2.366415e-15
9.687557e-16
1.804911e-15
9.490224e-16
1.075102e-15
1.310518e-15
7.350576e-16
5.586435e-16
5.485442e-16
2.825224e-16
3.785305e-16
2.735041e-16
2.168196e-16
2.644238e-16
-5.931669e-17
4.915907e-16
-2.283463e-16
2.902107e-16
-2.58575e-16
2.257334e-17
-3.865123e-16
2.262904e-16
-3.582736e-16
-8.632556e-17
-2.574869e-16
-2.159424e-16
-1.384669e-16
-2.465358e-16
-4.755753e-18
-2.724616e-16
9.229359e-17
-2.059742e-16
1.434344e-16
-1.204962e-16
1.731727e-16
-8.120595e-17
1.413818e-16
3.344523e-17
1.375027e-16
-3.549907e-17
-1.63652e-16
5.457812e-16
-4.143012e-16
4.131594e-16
-7.013012e-16
4.587374e-16
-1.2367e-15
9.781433e-16
-1.298214e-15
4.012225e-17
-1.406116e-15
8.893438e-17
-1.848143e-15
6.991111e-16
-2.911862e-15
1.861896e-15
-4.246644e-15
2.29873e-15
-6.00186e-15
3.005101e-15
-8.570658e-15
4.331075e-15
-1.266212e-14
7.284695e-15
-1.693732e-14
7.211384e-15
-2.3755e-14
1.126184e-14
-3.284984e-14
1.611774e-14
-4.555789e-14
1.225726e-14
-1.34078e-13
1.468833e-13
3.773724e-13
4.130904e-13
2.918136e-13
3.01304e-13
2.129934e-13
2.748857e-13
4.238025e-14
2.439508e-13
5.635962e-14
2.372434e-13
1.06076e-14
2.234336e-13
2.590513e-14
2.189691e-13
7.165952e-15
2.119284e-13
1.295746e-14
2.02163e-13
1.823255e-14
2.006899e-13
2.214026e-15
1.969404e-13
7.216269e-15
1.907508e-13
1.166078e-14
1.861726e-13
9.153316e-15
1.944068e-13
-1.555305e-14
1.953491e-13
-1.876532e-15
1.930374e-13
4.262211e-15
1.922764e-13
1.947256e-15
1.975482e-13
-9.071975e-15
2.047608e-13
-1.334714e-14
2.076912e-13
-4.268439e-15
2.176365e-13
-1.702404e-14
2.306262e-13
-2.445575e-14
2.376514e-13
-6.316972e-15
2.89294e-13
-9.592913e-14
-7.085764e-14
7.075135e-13
-9.164813e-13
5.007814e-13
5.329814e-13
3.875255e-13
4.77084e-13
9.827766e-14
4.231179e-13
1.103258e-13
4.095661e-13
2.415938e-14
3.857507e-13
4.972055e-14
3.76839e-13
1.607762e-14
3.644422e-13
2.535427e-14
3.477868e-13
3.488794e-14
3.447963e-13
5.204503e-15
3.386666e-13
1.334593e-14
3.286454e-13
2.168207e-14
3.216124e-13
1.618622e-14
3.355578e-13
-2.949843e-14
3.367635e-13
-3.082204e-15
3.328755e-13
8.150218e-15
3.324734e-13
2.349311e-15
3.426713e-13
-1.926984e-14
3.554662e-13
-2.614201e-14
3.621743e-13
-1.097663e-14
3.816992e-13
-3.654888e-14
4.038821e-13
-4.663865e-14
4.251936e-13
-2.762853e-14
4.942405e-13
-1.64976e-13
5.065393e-13
-8.315652e-14
2.677255e-13
6.06973e-13
1.068275e-13
3.229604e-13
6.931253e-14
4.262493e-14
4.899409e-14
3.897144e-14
3.584958e-14
2.296602e-14
2.647023e-14
1.745075e-14
1.875078e-14
1.512845e-14
1.290194e-14
1.102957e-14
1.126202e-14
2.197697e-15
8.532983e-15
5.404033e-15
6.171917e-15
4.608054e-15
4.944744e-15
2.195929e-15
3.836422e-15
2.057345e-15
2.487704e-15
2.659237e-15
1.795215e-15
1.251134e-15
1.365815e-15
7.119234e-16
9.989367e-16
6.403825e-16
6.638702e-16
5.994908e-16
1.516546e-16
1.003807e-15
-1.806926e-16
6.225584e-16
-2.805706e-16
1.22452e-16
-5.306044e-16
4.763245e-16
-5.345323e-16
-8.239718e-17
-4.168622e-16
-3.336121e-16
-2.576604e-16
-4.057369e-16
-7.424555e-17
-4.558757e-16
4.673993e-17
-3.269596e-16
8.555881e-17
-1.593145e-16
9.408344e-17
-8.973085e-17
-1.303682e-17
1.405669e-16
-8.044227e-17
3.190664e-17
-6.303026e-16
1.095642e-15
-1.151273e-15
9.341306e-16
-1.753672e-15
1.061137e-15
-2.724783e-15
1.949255e-15
-2.946391e-15
2.617322e-16
-3.332606e-15
4.7515e-16
-4.278943e-15
1.645449e-15
-6.323578e-15
3.906534e-15
-8.901649e-15
4.876804e-15
-1.240576e-14
6.509212e-15
-1.746206e-14
9.387374e-15
-2.518622e-14
1.500887e-14
-3.378428e-14
1.580945e-14
-4.815806e-14
2.563562e-14
-6.677632e-14
3.473602e-14
-1.083956e-13
5.387646e-14
-2.58563e-13
2.970508e-13
-5.03752e-13
6.225615e-13
-5.020593e-13
-6.019999e-14
-4.319635e-13
-1.695403e-13
-4.037696e-13
-4.199569e-14
-3.833656e-13
-4.280017e-14
-3.582296e-13
-4.839507e-14
-3.46867e-13
-1.987879e-14
-3.411625e-13
-1.063695e-14
-3.390498e-13
-4.051986e-15
-3.288468e-13
-2.108177e-14
-3.275044e-13
-8.291718e-16
-3.303342e-13
6.50571e-15
-3.246162e-13
-1.148684e-14
-3.343675e-13
2.122972e-14
-3.404048e-13
1.168832e-14
-3.481619e-13
1.559238e-14
-3.537098e-13
1.177629e-14
-3.679398e-13
3.04616e-14
-3.824348e-13
2.956344e-14
-3.947513e-13
2.455429e-14
-3.981991e-13
4.767605e-15
-4.216926e-13
4.385821e-14
-4.851894e-13
1.306533e-13
-5.440578e-13
1.096386e-13
-6.948873e-13
3.341048e-13
-9.017773e-13
4.964107e-13
-7.146812e-13
-4.538248e-13
-5.295374e-13
-4.103564e-13
-4.746173e-13
-9.495343e-14
-4.292841e-13
-9.371409e-14
-3.886374e-13
-8.035948e-14
-3.763586e-13
-2.388699e-14
-3.675748e-13
-1.71404e-14
-3.479273e-13
-4.143143e-14
-3.398798e-13
-1.565256e-14
-3.340453e-13
-9.812123e-15
-3.185776e-13
-3.308408e-14
-3.065622e-13
-2.66908e-14
-3.008773e-13
-1.129865e-14
-3.036058e-13
8.048661e-15
-2.939928e-13
-2.021361e-14
-2.838626e-13
-2.270553e-14
-2.822714e-13
-3.30523e-15
-2.762174e-13
-1.198889e-14
-2.733161e-13
-6.405726e-15
-2.799928e-13
1.349495e-14
-2.783527e-13
-2.893498e-15
-2.799866e-13
2.832313e-15
-2.839746e-13
8.913481e-15
-2.779317e-13
-1.263165e-14
-2.759827e-13
-4.127299e-15
-2.742285e-13
-3.930868e-15
-2.754375e-13
1.550301e-15
-2.820824e-13
1.360814e-14
-2.860733e-13
8.855328e-15
-2.870672e-13
2.461647e-15
-2.895487e-13
5.900524e-15
-2.916604e-13
5.276661e-15
-2.871604e-13
4.612722e-15
-2.180639e-13
-1.047352e-13
-2.457776e-15
-5.013948e-13
2.143474e-13
-5.0471e-13
2.845838e-13
-1.071059e-13
2.894897e-13
4.016253e-15
2.87702e-13
4.62852e-15
2.853568e-13
5.669984e-15
2.844553e-13
2.240698e-15
2.809454e-13
7.808972e-15
2.746459e-13
1.292599e-14
2.737247e-13
9.521963e-16
2.758663e-13
-4.761191e-15
2.783498e-13
-5.252444e-15
2.84917e-13
-1.371318e-14
2.813026e-13
8.13997e-15
2.803122e-13
1.433163e-15
2.826616e-13
-4.356338e-15
2.764872e-13
1.247674e-14
2.799011e-13
-7.529891e-15
2.852865e-13
-1.051488e-14
2.859776e-13
-1.384188e-15
2.953748e-13
-2.116661e-14
3.045251e-13
-1.923057e-14
3.016542e-13
8.33372e-15
3.074138e-13
-1.148009e-14
3.194923e-13
-2.683884e-14
3.348357e-13
-3.282188e-14
3.403459e-13
-9.142319e-15
3.478766e-13
-1.458683e-14
3.663719e-13
-3.891408e-14
3.73458e-13
-1.358363e-14
3.841345e-13
-2.024019e-14
4.240443e-13
-7.585258e-14
4.758314e-13
-1.105035e-13
5.35454e-13
-1.074829e-13
7.030135e-13
-3.682266e-13
-5.120186e-13
2.990471e-13
3.831339e-15
-8.075884e-13
4.401714e-13
-2.482302e-13
4.684898e-13
-2.430221e-14
4.69698e-13
3.420316e-15
4.67182e-13
8.185965e-15
4.666149e-13
2.807896e-15
4.615364e-13
1.288747e-14
4.510176e-13
2.344475e-14
4.484175e-13
3.552239e-15
4.514169e-13
-7.760539e-15
4.553845e-13
-9.220088e-15
4.664102e-13
-2.473886e-14
4.608901e-13
1.36601e-14
4.586553e-13
3.667975e-15
4.629386e-13
-8.639664e-15
4.526407e-13
2.277463e-14
4.57663e-13
-1.25522e-14
4.671713e-13
-2.002315e-14
4.68294e-13
-2.506892e-15
4.818906e-13
-3.476323e-14
4.968422e-13
-3.418212e-14
4.9444e-13
1.073584e-14
5.043931e-13
-2.143315e-14
5.222076e-13
-4.465329e-14
5.468381e-13
-5.745247e-14
5.578561e-13
-2.016032e-14
5.715337e-13
-2.826442e-14
6.016721e-13
-6.905248e-14
6.141748e-13
-2.608628e-14
6.336003e-13
-3.966572e-14
7.046926e-13
-1.469448e-13
7.890288e-13
-1.948398e-13
9.014902e-13
-2.199442e-13
1.146753e-12
-6.134893e-13
1.442899e-12
-8.081645e-13
-1.163623e-12
1.420663e-12
-7.108655e-13
-8.938836e-13
-6.800954e-13
-7.875173e-13
-2.013198e-13
-7.111207e-13
-1.701107e-13
-6.405604e-13
-1.509198e-13
-6.188648e-13
-4.558254e-14
-6.035621e-13
-3.244311e-14
-5.716736e-13
-7.331991e-14
-5.571555e-13
-3.017064e-14
-5.456002e-13
-2.136746e-14
-5.207692e-13
-5.791512e-14
-5.030427e-13
-4.441731e-14
-4.931879e-13
-2.115346e-14
-4.953501e-13
1.021088e-14
-4.796674e-13
-3.589632e-14
-4.648858e-13
-3.748713e-14
-4.623481e-13
-5.842879e-15
-4.517977e-13
-2.25393e-14
-4.475822e-13
-1.062123e-14
-4.587318e-13
2.464455e-14
-4.556248e-13
-6.000462e-15
-4.588467e-13
6.054166e-15
-4.649713e-13
1.503807e-14
-4.54816e-13
-2.278691e-14
-4.517074e-13
-7.235891e-15
-4.493118e-13
-6.326458e-15
-4.523859e-13
4.624425e-15
-4.634972e-13
2.47194e-14
-4.69322e-13
1.468014e-14
-4.700035e-13
3.143114e-15
-4.728083e-13
8.705325e-15
-4.722015e-13
4.669926e-15
-4.447352e-13
-2.285356e-14
-3.052009e-13
-2.442695e-13
-8.027643e-13
-8.057469e-13
7.859834e-13
-4.043643e-14
-7.337964e-13
-2.414908e-13
-6.789446e-13
-9.684747e-14
-6.450771e-13
-7.666763e-14
-5.99761e-13
-9.371117e-14
-5.763802e-13
-4.325958e-14
-5.651625e-13
-2.185468e-14
-5.615296e-13
-7.684956e-15
-5.445109e-13
-3.810045e-14
-5.398582e-13
-5.481803e-15
-5.439218e-13
1.056932e-14
-5.337356e-13
-2.167307e-14
-5.49081e-13
3.657509e-14
-5.595537e-13
2.216105e-14
-5.729522e-13
2.899083e-14
-5.815294e-13
2.035349e-14
-6.040879e-13
5.302013e-14
-6.282827e-13
5.375824e-14
-6.501575e-13
4.642909e-14
-6.579025e-13
1.251259e-14
-7.014513e-13
8.740708e-14
-8.052788e-13
2.344808e-13
-9.140813e-13
2.184411e-13
-1.13237e-12
5.523932e-13
7.847043e-13
4.729418e-13
-7.903243e-13
9.243555e-13
2.301654e-13
5.657367e-13
1.38298e-13
1.344924e-13
9.586954e-14
8.139986e-14
6.902734e-14
4.980821e-14
5.052469e-14
3.59534e-14
3.652714e-14
2.9126e-14
2.560268e-14
2.195403e-14
2.154064e-14
6.259735e-15
1.65581e-14
1.038657e-14
1.230398e-14
8.862172e-15
9.885413e-15
4.614496e-15
7.773092e-15
4.169666e-15
5.346543e-15
5.085787e-15
4.002891e-15
2.594785e-15
3.084967e-15
1.629848e-15
2.33215e-15
1.3932e-15
1.670003e-15
1.261638e-15
7.45686e-16
1.928124e-15
1.166919e-16
1.251553e-15
-1.36175e-16
3.753193e-16
-6.123627e-16
9.525126e-16
-7.202016e-16
2.544224e-17
-6.352607e-16
-4.185523e-16
-4.620005e-16
-5.789971e-16
-2.512449e-16
-6.666309e-16
-1.421646e-16
-4.36039e-16
-1.771979e-16
-1.242811e-16
-2.447762e-16
-2.215245e-17
-5.280133e-16
4.23804e-16
-7.483489e-16
2.522432e-16
-1.726704e-15
2.073997e-15
-2.765124e-15
1.972551e-15
-3.968211e-15
2.264223e-15
-5.683024e-15
3.664068e-15
-6.278169e-15
8.568759e-16
-7.304016e-15
1.500997e-15
-9.220659e-15
3.562091e-15
-1.303411e-14
7.719986e-15
-1.787422e-14
9.716908e-15
-2.463918e-14
1.327417e-14
-3.427228e-14
1.902048e-14
-4.845005e-14
2.918662e-14
-6.55548e-14
3.29142e-14
-9.459795e-14
5.467877e-14
-1.343662e-13
7.450422e-14
-2.314968e-13
1.510071e-13
-4.59085e-13
5.246391e-13
9.494597e-13
1.152664e-12
7.910163e-13
8.9958e-13
6.406093e-13
7.922231e-13
2.056346e-13
7.014439e-13
2.01105e-13
6.760832e-13
4.952003e-14
6.364362e-13
8.936761e-14
6.196381e-13
3.287567e-14
5.986421e-13
4.63503e-14
5.712766e-13
6.225343e-14
5.657301e-13
1.075102e-14
5.564124e-13
2.266363e-14
5.410133e-13
3.708119e-14
5.310407e-13
2.61588e-14
5.536157e-13
-5.207341e-14
5.54803e-13
-4.26951e-15
5.485497e-13
1.440352e-14
5.496671e-13
1.231892e-15
5.689585e-13
-3.856123e-14
5.908388e-13
-4.802233e-14
6.053243e-13
-2.546208e-14
6.415062e-13
-7.273079e-14
6.787053e-13
-8.383775e-14
7.217383e-13
-7.066157e-14
7.953621e-13
-2.385998e-13
-7.811864e-14
1.818012e-12
-2.195381e-12
1.168386e-12
1.470934e-12
9.876873e-13
1.280539e-12
3.960296e-13
1.130181e-12
3.514623e-13
1.086407e-12
9.329458e-14
1.020476e-12
1.552988e-13
9.899336e-13
6.341758e-14
9.561072e-13
8.01767e-14
9.11017e-13
1.073437e-13
9.014382e-13
2.032978e-14
8.8828e-13
3.582183e-14
8.66104e-13
5.925722e-14
8.521454e-13
4.01174e-14
8.886607e-13
-8.858877e-14
8.884408e-13
-4.04952e-15
8.786161e-13
2.422812e-14
8.83869e-13
-4.020995e-15
9.199833e-13
-7.467552e-14
9.57535e-13
-8.557403e-14
9.862851e-13
-5.421217e-14
1.05218e-12
-1.386253e-13
1.111238e-12
-1.428962e-13
1.177677e-12
-1.371009e-13
1.230789e-12
-2.917114e-13
1.187828e-12
-3.515797e-14
7.934624e-13
1.318721e-12
4.53792e-13
9.054073e-13
2.732343e-13
3.150501e-13
1.854337e-13
1.692004e-13
1.315152e-13
1.037267e-13
9.493758e-14
7.253105e-14
6.974936e-14
5.431422e-14
4.962732e-14
4.207606e-14
4.056386e-14
1.53232e-14
3.144764e-14
1.95028e-14
2.383939e-14
1.647042e-14
1.924694e-14
9.206948e-15
1.528844e-14
8.128161e-15
1.095921e-14
9.415024e-15
8.430082e-15
5.123912e-15
6.556165e-15
3.503766e-15
5.059606e-15
2.88976e-15
3.791157e-15
2.530089e-15
2.13713e-15
3.582153e-15
9.685975e-16
2.420088e-15
4.105505e-16
9.333669e-16
-4.881898e-16
1.851255e-15
-8.539254e-16
3.911788e-16
-9.221624e-16
-3.503144e-16
-8.140607e-16
-6.870968e-16
-6.452527e-16
-8.354378e-16
-6.443061e-16
-4.369855e-16
-8.911829e-16
1.225975e-16
-1.15731e-15
2.439768e-16
-1.817096e-15
1.083591e-15
-2.360266e-15
7.954142e-16
-4.089369e-15
3.803102e-15
-6.105064e-15
3.98825e-15
-8.442035e-15
4.601194e-15
-1.1458e-14
6.680036e-15
-1.284128e-14
2.240161e-15
-1.522486e-14
3.884568e-15
-1.896875e-14
7.305989e-15
-2.600026e-14
1.475149e-14
-3.499696e-14
1.871362e-14
-4.782549e-14
2.61027e-14
-6.5894e-14
3.708898e-14
-9.177093e-14
5.506357e-14
-1.257808e-13
6.692402e-14
-1.835265e-13
1.124245e-13
-2.669757e-13
1.579535e-13
-4.552361e-13
3.392674e-13