/*--------------------------------*- C++ -*----------------------------------*\
| =========                 |                                                 |
| \\      /  F ield         | OpenFOAM: The Open Source CFD Toolbox           |
|  \\    /   O peration     | Version:  2406                                  |
|   \\  /    A nd           | Website:  www.openfoam.com                      |
|    \\/     M anipulation  |                                                 |
\*---------------------------------------------------------------------------*/
FoamFile
{
    version     2.0;
    format      ascii;
    arch        "LSB;label=32;scalar=64";
    class       volScalarField;
    location    "0.5";
    object      p;
}
// * * * * * * * * * * * * * * * * * * * * * * * * * * * * * * * * * * * * * //

dimensions      [0 2 -2 0 0 0 0];

internalField   nonuniform List<scalar> 
4541
(
2.243805e-05
1.942451e-05
1.490254e-05
5.179719e-06
2.411315e-05
3.823977e-05
2.58687e-05
2.443728e-05
3.944156e-05
4.792049e-06
3.761969e-05
2.456311e-05
1.348202e-05
2.933224e-05
8.480748e-06
-1.242417e-06
-7.193594e-06
-8.443399e-06
-1.211218e-05
1.864706e-05
-1.207827e-05
2.211122e-05
1.667013e-07
4.698324e-05
2.149757e-05
2.46954e-05
2.922626e-05
2.482279e-05
3.973804e-05
1.284183e-05
2.699619e-05
2.90639e-05
4.973621e-06
3.540862e-05
1.966071e-05
1.319723e-05
1.571532e-05
1.224168e-05
3.10109e-05
-9.326771e-06
1.346841e-05
4.14408e-05
1.679792e-05
5.357593e-06
1.178803e-05
4.448406e-06
1.212928e-05
-2.011277e-05
1.877007e-05
2.6906e-05
3.14775e-05
2.975652e-06
-3.315472e-06
2.794465e-05
-3.96732e-06
3.250139e-05
2.494881e-05
3.644361e-05
-7.33089e-06
1.929708e-05
3.071233e-05
1.780784e-05
-1.231035e-05
5.953563e-05
3.980621e-05
1.854422e-05
3.382258e-05
1.038425e-05
1.558135e-06
-1.710823e-05
-8.666784e-06
-2.948679e-06
2.668413e-05
2.793369e-06
3.72241e-05
8.844409e-07
-4.441014e-06
-1.308383e-05
9.209202e-06
3.549028e-05
-1.080884e-05
9.731357e-06
3.306899e-05
7.630701e-06
2.710713e-05
2.250948e-05
1.965183e-05
-1.573746e-05
-8.128645e-06
-1.455727e-06
2.207532e-05
-1.823517e-05
-9.72622e-06
-5.894574e-06
2.812702e-05
-1.462023e-05
2.397504e-05
1.814441e-05
2.185572e-05
2.356425e-05
2.828732e-05
1.627847e-05
3.570994e-05
-4.101784e-06
5.141683e-06
3.111608e-05
-9.791189e-06
1.226585e-05
1.692965e-05
6.893734e-06
2.204033e-05
3.115952e-05
5.277031e-06
7.368366e-07
3.353152e-05
3.094803e-05
2.882464e-05
-7.385235e-06
3.044173e-05
4.272133e-05
3.92202e-06
1.363601e-06
1.094198e-05
-5.247929e-06
-3.073739e-06
1.675157e-05
4.888748e-05
5.437676e-05
2.016525e-05
4.008962e-05
3.693602e-05
2.47196e-05
2.845471e-05
1.635805e-05
1.764617e-05
6.103627e-05
4.234681e-06
2.561371e-05
3.535315e-06
1.061427e-05
2.715217e-05
-6.504119e-06
3.942515e-05
-3.510071e-06
1.633023e-05
3.847054e-05
4.066559e-05
3.080338e-05
-4.801431e-06
3.382964e-05
-1.286954e-06
7.776311e-06
2.908325e-05
2.042258e-05
2.350883e-05
4.007702e-05
3.86954e-05
-1.277272e-05
3.454758e-05
1.00466e-05
2.89395e-05
2.368285e-05
4.179326e-05
-9.498993e-06
7.269741e-06
1.333589e-06
3.866771e-05
1.973743e-05
2.191395e-05
3.487504e-05
3.600594e-05
-4.621805e-07
-1.413358e-05
-3.606812e-07
-2.423045e-06
1.28416e-05
-9.732362e-06
2.614442e-05
1.826447e-05
3.740576e-05
-4.854316e-06
4.577615e-05
4.420745e-06
2.362903e-05
2.293519e-05
1.173233e-06
1.253645e-05
3.268707e-05
6.749037e-06
3.591726e-05
2.231477e-05
1.534665e-07
9.72043e-07
6.685312e-08
-6.547861e-06
9.425894e-06
2.808352e-05
-1.525404e-05
-1.508623e-05
-3.540164e-06
6.101014e-06
5.788898e-05
2.589697e-05
-1.192713e-06
4.973794e-06
-1.269013e-06
1.937164e-06
-5.124849e-06
2.791962e-05
1.501121e-05
2.82714e-05
-1.179555e-05
1.733555e-05
2.498954e-05
4.51865e-05
2.399142e-05
-2.298379e-06
1.784855e-05
5.151468e-05
4.253119e-05
6.776649e-05
-8.378876e-08
3.481144e-05
3.037893e-05
3.297908e-06
2.961564e-05
-7.961518e-07
5.5136e-07
-4.505599e-06
3.449387e-05
2.334828e-05
2.320719e-05
1.51703e-06
3.668422e-05
5.068102e-05
-2.135105e-05
6.452594e-06
1.325742e-05
2.915021e-05
3.269334e-05
2.348669e-05
-1.661138e-06
2.357407e-05
3.391194e-05
3.344731e-05
2.378766e-05
2.309743e-05
1.916556e-05
-1.212507e-05
2.215953e-05
2.916182e-05
4.153888e-05
-2.895148e-06
2.654609e-06
3.88383e-05
2.070901e-05
3.607972e-05
-2.180575e-06
-3.768514e-06
-1.640398e-06
3.67874e-05
2.498965e-05
3.516454e-06
5.871041e-05
2.611954e-05
-1.720558e-05
2.503961e-05
-1.635217e-05
8.319642e-06
-7.573742e-06
-1.480289e-05
1.563192e-05
4.01475e-05
3.161195e-05
2.422037e-06
2.483231e-07
4.413021e-05
-6.342003e-06
1.758173e-05
2.157666e-05
2.958043e-05
-7.753777e-06
2.200393e-05
1.325268e-05
-3.136591e-06
-3.179535e-07
1.424353e-05
-8.385453e-06
-1.267514e-05
-1.215662e-05
2.709735e-05
2.596733e-05
3.822025e-05
-1.460962e-05
-1.431774e-05
2.511289e-05
3.128175e-05
2.49134e-05
-9.395646e-06
9.155248e-06
-3.905125e-06
3.402681e-05
2.304184e-05
9.730801e-06
1.098072e-05
4.502637e-05
4.369133e-05
-9.327433e-06
-2.028957e-06
-4.77816e-06
1.498772e-05
4.788986e-06
3.05924e-05
2.246211e-06
3.939807e-05
3.509789e-05
-3.627294e-06
4.096153e-05
-7.113515e-08
6.244329e-05
4.145653e-06
-5.682699e-06
3.086065e-06
1.931679e-05
3.396049e-05
2.767528e-05
1.033238e-05
2.328302e-05
2.210613e-05
3.352657e-05
2.200904e-05
-2.46655e-06
-3.530863e-06
2.663651e-05
2.394952e-05
2.674662e-05
3.891768e-05
3.47724e-05
1.16814e-06
6.462272e-06
2.565355e-05
1.709598e-05
3.462492e-05
2.248787e-05
5.733029e-05
1.067745e-05
4.694337e-06
2.054865e-05
-1.688092e-06
1.938738e-05
-3.090976e-06
7.523585e-06
-5.927691e-06
2.877497e-05
-6.229701e-06
2.172828e-05
-7.617999e-06
-4.887081e-06
2.640632e-05
-2.732761e-07
-1.186083e-05
-3.869234e-07
9.529581e-06
2.566887e-05
-1.54457e-06
-1.262822e-05
1.227094e-05
2.952921e-05
1.696895e-05
-4.786678e-06
-4.423963e-06
6.226605e-05
-1.283883e-05
-1.057579e-05
1.858376e-05
2.427725e-05
2.277561e-05
2.789721e-05
6.004477e-06
2.357226e-05
3.177266e-05
-1.04957e-05
-9.113948e-06
2.027404e-06
-1.551687e-05
4.516118e-05
-4.168949e-06
1.211433e-05
3.541926e-05
3.204287e-05
5.469984e-06
4.600863e-06
-1.011997e-05
3.592901e-05
2.242039e-05
3.477684e-05
3.443433e-05
-7.556559e-06
1.112452e-05
2.148337e-05
7.978968e-06
5.507314e-06
2.872509e-05
2.782393e-05
3.806781e-05
-8.266664e-06
-1.005542e-05
8.573725e-06
-3.6918e-06
1.945412e-05
1.051984e-05
-1.061117e-05
1.72439e-05
3.816412e-05
3.497865e-05
1.122031e-05
3.301585e-06
6.120877e-06
-1.993592e-06
9.945294e-06
4.185221e-05
4.971598e-05
1.968145e-06
3.710906e-05
3.171487e-05
6.005806e-06
6.404922e-06
5.343891e-06
2.944455e-05
3.328088e-05
2.186948e-06
3.685838e-05
1.721621e-05
-1.387741e-06
6.538027e-06
2.992326e-05
-2.372208e-06
4.624939e-05
1.887585e-05
1.539352e-05
-6.382363e-06
3.629918e-05
2.145637e-05
-1.848145e-05
2.403021e-05
2.238556e-05
1.096113e-05
4.817689e-05
2.727296e-05
7.185898e-06
6.395841e-06
2.588275e-05
-5.100852e-06
-2.901932e-06
2.337001e-06
3.014973e-05
3.150769e-05
2.334912e-05
3.490512e-05
3.146505e-05
-1.037515e-05
9.919891e-08
2.790182e-05
-4.697649e-06
1.349153e-05
-8.017822e-06
-6.025932e-06
1.684221e-05
1.408374e-06
2.315306e-05
7.039925e-06
-3.54667e-07
6.351139e-07
4.243388e-05
2.017126e-05
-6.048877e-07
-2.054812e-05
2.658591e-05
2.183094e-05
2.356709e-05
1.743982e-06
-1.653965e-05
2.401709e-05
3.500166e-05
5.187137e-06
3.604125e-05
3.066715e-05
2.585097e-05
3.609776e-05
3.709717e-05
2.229357e-05
2.002397e-06
8.077923e-06
5.501525e-06
1.823426e-05
5.371848e-05
2.641121e-05
3.543273e-05
1.020089e-05
1.614671e-05
2.684147e-05
2.263434e-05
2.691807e-05
4.657083e-05
1.429966e-07
2.105904e-05
3.342496e-05
1.496374e-05
2.685407e-05
1.374932e-05
-9.706578e-06
5.120809e-06
-1.597007e-06
2.456156e-05
2.519343e-05
-1.564237e-05
1.628241e-06
2.590427e-05
-3.892612e-08
2.742964e-05
2.824256e-05
-2.352512e-06
3.934328e-05
3.813577e-05
3.12929e-05
3.3726e-05
3.277894e-05
2.30942e-05
2.581952e-05
2.555769e-05
2.593738e-05
7.229732e-05
2.052905e-05
8.489307e-06
1.129648e-06
3.079193e-05
8.034595e-06
2.428018e-05
2.52356e-05
5.186034e-05
1.588874e-06
1.815395e-05
2.323012e-05
3.887526e-05
5.10703e-05
3.000144e-05
-7.495405e-06
2.509926e-05
6.542458e-05
4.767123e-05
1.56724e-05
2.437742e-05
1.79245e-05
3.709364e-05
3.534384e-06
3.005027e-05
2.639295e-05
8.869645e-08
1.503994e-05
3.459837e-05
9.257456e-06
3.046279e-05
1.650834e-05
4.797103e-05
2.14463e-05
-1.18601e-05
-2.443729e-06
-6.421335e-06
1.567771e-05
-9.610943e-06
-5.365848e-06
-9.993691e-07
4.788384e-05
2.533717e-05
5.222448e-07
-2.67823e-06
-1.418555e-06
-2.049513e-06
-2.303224e-06
1.215989e-05
1.133437e-05
2.628161e-05
5.296673e-06
5.000111e-06
2.581269e-05
4.725856e-06
-6.501803e-06
4.234505e-05
1.907942e-05
2.899282e-05
2.827375e-05
-3.733561e-06
-2.49472e-06
2.7445e-05
3.076625e-05
1.527453e-05
3.546174e-06
4.027628e-05
9.623141e-06
2.713284e-05
2.769458e-05
1.765334e-06
1.593768e-05
-3.971061e-06
-4.144878e-06
2.509207e-06
1.600411e-05
2.277415e-05
2.8743e-05
-5.978423e-06
3.409e-05
2.810542e-05
-1.938026e-05
3.135835e-06
2.635952e-05
2.503464e-05
3.03502e-05
1.093302e-06
-2.106076e-06
3.57202e-05
4.225278e-05
-5.208567e-06
2.958761e-05
3.611106e-05
3.259018e-05
2.604098e-06
-9.118289e-06
5.029129e-05
3.290801e-05
3.852662e-05
-1.823936e-06
-3.2491e-06
1.461534e-05
3.643388e-05
2.833151e-06
1.667837e-05
-1.367062e-05
1.709046e-05
1.444447e-06
2.62568e-05
-1.62771e-05
3.170919e-05
3.014159e-05
1.128934e-06
-9.677372e-07
2.292598e-05
2.361841e-05
3.764557e-05
3.621338e-05
2.178707e-05
-1.065159e-06
1.309505e-05
-6.316267e-06
1.957729e-05
3.393972e-06
2.24387e-05
3.856665e-05
-3.046855e-06
3.054356e-05
1.736746e-05
-4.14555e-06
3.784474e-06
-5.615767e-06
1.111381e-05
3.181201e-05
2.431468e-05
-9.085825e-07
4.019607e-07
3.534335e-05
3.705257e-05
2.247428e-05
5.378309e-06
9.5281e-06
5.747376e-06
6.825363e-06
1.067029e-05
4.712363e-06
7.440154e-06
3.510924e-05
3.93039e-05
2.800441e-06
3.325867e-05
-9.027116e-06
2.526446e-07
2.961993e-05
3.027881e-05
2.34145e-05
3.24756e-05
2.602951e-05
3.654712e-05
3.658313e-05
-1.489865e-05
-2.196004e-05
-4.981295e-06
-8.140637e-06
-4.563385e-06
-9.674863e-07
-1.618586e-06
-5.918631e-06
3.113812e-05
2.506205e-05
2.618258e-05
2.736292e-05
3.235043e-06
-4.784833e-06
2.549334e-05
2.206364e-05
2.250383e-05
3.226976e-05
1.431737e-05
8.73038e-06
2.581971e-05
-5.474667e-06
3.482259e-05
-3.663945e-06
-5.700431e-06
1.572461e-05
2.116119e-05
4.450095e-05
3.130845e-05
3.143616e-06
3.132551e-06
3.6339e-06
2.108114e-06
1.498675e-06
1.026353e-06
-1.177489e-07
2.016408e-05
-3.619008e-07
2.836572e-06
3.34986e-05
2.922605e-05
2.991808e-05
1.261154e-05
1.541194e-05
6.555725e-06
5.738955e-06
1.663265e-05
1.616177e-05
2.84546e-05
6.550818e-05
2.014377e-05
2.088768e-05
2.220298e-05
2.046302e-05
1.729057e-07
2.389518e-05
2.395473e-05
2.593089e-05
-3.206517e-06
-3.331236e-06
-6.193185e-06
2.614534e-05
-8.273236e-07
-1.200007e-06
1.13543e-05
1.384632e-05
1.898797e-05
-4.670735e-06
5.062626e-06
1.669156e-05
1.267514e-05
-9.92322e-07
3.466533e-05
3.567806e-05
6.134503e-05
-1.913179e-06
2.63029e-05
-1.621055e-06
-4.205245e-06
3.630676e-05
2.450261e-05
5.227835e-05
-8.911295e-08
2.98631e-05
-1.476006e-05
2.091761e-05
8.777987e-06
1.432072e-05
-7.463693e-06
-1.300616e-05
2.464061e-05
2.963725e-05
3.032091e-05
1.201805e-05
3.769842e-05
-3.029696e-07
2.531565e-05
3.06579e-05
3.318106e-06
3.30017e-05
2.251786e-05
2.316027e-05
3.208482e-06
2.22714e-05
2.405312e-05
2.723993e-05
4.360065e-05
1.807042e-05
1.450047e-05
8.990985e-07
2.212958e-05
2.252896e-05
2.753293e-05
2.082505e-05
3.694219e-05
3.512439e-05
3.399843e-05
-4.474174e-06
-1.736106e-05
2.2223e-05
8.545687e-07
9.685776e-06
8.978589e-06
1.188875e-05
2.444146e-05
1.575015e-05
2.26234e-05
-1.442592e-06
2.717434e-05
3.666186e-05
3.498658e-05
2.304271e-05
5.126836e-07
4.404832e-06
2.725812e-06
3.548262e-06
2.104185e-05
1.056576e-05
1.440028e-06
-2.153456e-05
3.872188e-05
3.852242e-05
3.83101e-05
3.860941e-05
2.451604e-05
5.352914e-05
3.964492e-05
2.189134e-05
3.044928e-05
1.022361e-05
-3.154878e-06
-8.145069e-07
2.341111e-05
5.849259e-06
8.48235e-06
-4.508624e-06
-6.794291e-06
-2.207633e-05
4.919587e-05
1.161101e-05
2.294407e-05
-6.833044e-06
-2.22804e-05
1.967624e-05
5.004648e-05
2.471401e-05
-4.239799e-06
3.608141e-05
-3.775991e-06
1.700737e-05
-1.062085e-05
3.318204e-05
-1.073322e-06
8.354906e-06
5.483087e-05
1.946294e-05
5.136335e-05
-8.20462e-06
-5.73971e-06
-1.355716e-06
3.35243e-06
-7.880175e-07
-1.332623e-06
2.402759e-05
-7.253759e-06
3.084504e-05
2.693834e-05
5.943599e-05
-1.811237e-05
-2.150183e-05
2.873884e-05
5.93149e-06
3.207356e-05
3.115166e-05
1.850388e-05
2.729497e-05
2.749333e-06
-1.330014e-05
2.442304e-06
9.214325e-06
9.604813e-06
1.74514e-05
1.285945e-06
8.793468e-07
4.535696e-07
8.977513e-07
-1.370821e-05
3.279926e-05
3.121623e-05
1.72776e-05
1.202681e-05
3.169187e-05
1.890872e-05
2.557305e-05
1.21128e-05
-4.970154e-07
2.337961e-05
2.050399e-05
1.97279e-05
2.490376e-05
8.3981e-06
3.931283e-05
1.652022e-06
2.31436e-05
2.507962e-05
-1.202543e-06
-3.541239e-06
4.815718e-05
1.736541e-05
-2.451486e-06
3.105945e-05
-3.172605e-06
1.307713e-06
-9.778829e-06
4.499414e-07
-1.945872e-07
8.381874e-07
1.385865e-05
9.918373e-06
3.378438e-05
-8.380081e-06
-8.951854e-06
-9.670519e-06
-1.012966e-05
1.610499e-05
-7.583096e-06
-8.585135e-06
3.936505e-05
2.758743e-05
3.676948e-05
-3.905119e-06
-9.914125e-06
-1.154471e-05
3.001744e-05
3.818466e-07
3.499914e-05
4.800148e-06
9.826044e-08
2.234435e-05
3.21214e-05
3.080105e-05
3.208116e-05
3.129518e-05
-2.133345e-07
3.560035e-05
2.597055e-05
3.541352e-05
8.01601e-06
8.870553e-06
7.822513e-06
1.867501e-05
1.762534e-05
1.809924e-05
1.818508e-05
-2.860293e-06
-4.43327e-06
-4.949519e-06
3.60476e-05
3.540401e-05
-1.803611e-06
2.310052e-05
-2.641182e-06
1.419736e-05
2.545091e-05
3.503839e-05
3.003742e-05
3.582844e-05
1.8665e-05
2.182167e-05
2.80436e-05
3.419779e-05
3.45714e-05
2.531558e-05
-9.016922e-06
-5.801125e-06
-1.589506e-05
-1.997842e-05
9.61629e-07
3.912432e-05
-4.171217e-06
-2.796877e-06
-4.352317e-06
2.816761e-05
7.409394e-06
8.677281e-06
2.191708e-05
2.827784e-05
2.716572e-05
-1.042049e-05
-1.409336e-05
2.342938e-05
2.888722e-05
8.87154e-06
4.679594e-05
3.568127e-05
3.833597e-05
-5.130896e-06
4.010143e-06
8.468701e-06
2.146433e-05
3.689665e-05
8.823576e-06
2.090978e-06
-1.12318e-05
-1.53572e-05
1.475744e-05
4.441409e-05
-4.631536e-06
2.490232e-06
-6.465497e-07
1.38302e-06
-1.433102e-07
-3.81398e-06
1.318544e-05
-9.885523e-06
3.283242e-05
1.337643e-05
-1.046993e-05
1.501799e-05
4.009204e-05
4.066107e-05
1.92203e-05
-8.880217e-07
1.158295e-05
-4.355323e-06
3.633489e-06
1.292267e-05
1.395405e-05
4.279111e-05
4.110395e-05
7.36168e-06
6.019354e-05
1.112425e-05
4.230061e-05
-1.211139e-05
4.118535e-07
4.976247e-07
4.477485e-07
-7.218726e-07
-9.052966e-07
1.410685e-06
2.433039e-06
1.916263e-05
2.822006e-05
3.722529e-06
4.692137e-06
2.834934e-07
1.984253e-06
-3.846359e-06
-7.460622e-06
-8.035335e-06
2.35105e-05
2.07425e-06
2.477614e-05
-5.45609e-06
1.560152e-05
1.478893e-05
1.517003e-05
-2.737261e-06
3.733431e-06
3.23985e-05
2.943652e-05
2.939173e-05
2.437864e-05
3.170131e-05
4.02675e-05
-8.520781e-06
-6.391575e-06
2.938851e-05
2.955311e-05
3.094508e-05
2.192381e-05
-4.104881e-06
4.283374e-06
8.228876e-06
9.979604e-06
4.567773e-06
2.066302e-05
2.218979e-05
3.445886e-06
8.792896e-06
1.53203e-05
-1.208356e-05
-4.854449e-07
1.139312e-06
3.695304e-06
7.397102e-06
-1.199055e-05
-2.491736e-05
-7.764659e-06
-6.284047e-06
2.567826e-05
-8.160949e-07
1.381846e-05
1.628743e-05
3.70168e-05
1.477098e-06
4.425084e-05
3.699845e-05
2.173349e-05
-3.513612e-07
-3.318229e-06
-9.726981e-06
2.665528e-05
2.9266e-05
1.165329e-05
2.688709e-05
2.769686e-05
-2.168614e-05
-1.341598e-05
-2.241781e-05
-1.963372e-05
-9.822927e-06
-1.675154e-05
-2.055218e-05
1.135254e-05
1.129223e-05
2.69746e-05
-1.124403e-05
-9.909107e-06
-1.265654e-05
2.056369e-05
1.832454e-05
8.154472e-06
5.049741e-06
3.370056e-05
7.952953e-06
2.267652e-05
2.487135e-05
2.819557e-06
3.58985e-06
6.27632e-06
4.201891e-05
3.44588e-05
-1.240307e-05
-1.103195e-05
1.918089e-05
3.277749e-05
3.445098e-05
-1.528903e-07
3.234272e-05
3.286865e-05
3.294759e-05
1.036662e-05
4.551371e-05
3.609179e-05
1.37162e-05
5.517634e-05
1.801114e-05
2.12324e-05
1.202361e-05
-1.778802e-06
2.138443e-05
3.598667e-05
2.461389e-06
6.07413e-07
9.815689e-06
4.180396e-05
3.539727e-05
1.95202e-05
2.679013e-05
-2.016199e-06
-3.664892e-06
-1.016758e-05
-7.448238e-06
2.129656e-07
-2.261901e-06
1.57337e-05
1.560635e-05
1.952496e-05
1.671768e-05
3.351612e-05
-7.236152e-06
2.450767e-05
2.513385e-05
3.099665e-05
2.998105e-05
2.316383e-06
4.415752e-06
2.361946e-05
2.823256e-05
-3.147642e-06
3.431937e-05
3.694444e-05
3.561956e-05
2.779843e-05
3.951368e-05
3.28699e-05
3.248916e-05
1.082407e-05
-4.280036e-06
-1.126713e-06
-1.703877e-06
-1.93851e-07
2.271486e-05
2.288402e-05
2.38731e-06
3.823232e-05
-6.482668e-06
5.483924e-05
3.726992e-05
3.006534e-05
2.723995e-05
2.328227e-05
2.335898e-05
-1.239581e-05
1.318671e-05
3.471317e-05
4.777641e-06
5.37977e-06
1.023716e-05
-1.196621e-06
-1.02313e-05
2.691078e-05
2.949249e-05
2.801453e-05
1.534276e-05
1.379492e-05
2.639479e-06
2.563325e-05
6.858168e-08
4.370796e-05
2.077013e-05
2.851486e-05
2.430174e-05
2.81693e-05
2.56829e-05
2.564269e-05
3.631394e-05
-1.059157e-05
6.809276e-05
6.850205e-05
2.282219e-05
2.577808e-05
2.698989e-05
3.577612e-05
2.3536e-05
5.024251e-07
2.572694e-05
3.416662e-05
2.455509e-05
2.936479e-05
-1.040378e-05
-1.098554e-05
4.248745e-05
1.613744e-05
3.216351e-06
3.390047e-06
1.559646e-06
3.79792e-05
3.680135e-05
-2.015297e-07
-1.309555e-06
1.866709e-05
5.93367e-06
7.391891e-06
1.377418e-05
6.214163e-06
6.470627e-06
4.123775e-05
3.203854e-05
2.70864e-05
3.508863e-05
3.314574e-05
2.76681e-05
3.671793e-05
3.571155e-05
2.788488e-05
2.569722e-05
2.254773e-05
2.582708e-05
1.932583e-05
8.97191e-06
1.296359e-05
7.277621e-06
-8.329635e-06
-3.457138e-06
1.819945e-06
2.087758e-05
2.224636e-05
-1.01195e-05
3.683855e-05
3.382224e-05
3.788505e-05
2.052863e-05
5.458513e-05
4.699996e-05
1.370203e-05
1.747949e-05
8.060171e-06
3.321473e-05
3.983218e-05
2.242676e-05
1.936348e-05
2.72524e-05
2.543111e-05
4.113978e-05
3.060251e-05
2.830272e-05
2.901692e-05
3.658572e-05
3.591723e-05
-5.711062e-08
1.561074e-05
3.046818e-05
-1.66287e-06
-1.094279e-06
-1.981177e-06
1.180788e-05
4.45442e-05
8.213928e-06
3.480907e-05
1.855125e-05
3.284201e-05
3.266614e-05
1.709592e-06
8.048674e-06
4.094129e-05
-7.464086e-07
2.711998e-05
3.747913e-05
1.77555e-05
1.871366e-06
-6.961104e-06
-1.305427e-06
-1.975434e-06
2.688585e-05
1.281012e-05
2.889038e-06
-5.30652e-06
2.266082e-05
3.973232e-05
4.15716e-05
3.611123e-05
3.591437e-05
4.521695e-05
2.337092e-05
9.364495e-06
2.662831e-05
1.547332e-05
2.495492e-05
3.005678e-05
2.889092e-05
2.840448e-05
1.92939e-05
8.128303e-06
-6.525963e-06
1.420741e-05
7.552387e-06
6.061704e-05
6.315493e-05
7.251852e-05
9.199738e-06
1.585106e-06
1.03554e-05
-2.155853e-06
2.129041e-05
3.855223e-05
1.559516e-06
3.821912e-06
1.123945e-05
1.783914e-06
2.605251e-05
3.477568e-07
2.582742e-05
1.366304e-05
2.02527e-05
2.711645e-05
2.798325e-05
-3.355323e-06
-8.265792e-06
2.5498e-05
1.783144e-05
3.330542e-05
7.41739e-06
8.710476e-06
-9.914153e-06
-1.606136e-05
-1.897174e-05
2.750607e-05
-2.245955e-05
1.766073e-06
1.567622e-05
-1.149848e-05
1.371438e-05
4.063846e-05
4.073512e-05
3.604971e-05
6.227719e-05
3.033053e-05
-1.369551e-05
1.519657e-05
-1.385962e-05
2.52983e-05
1.752752e-05
1.308901e-05
2.602404e-05
2.772399e-05
2.860691e-05
4.714494e-05
1.870574e-05
2.110909e-05
3.195193e-05
3.145476e-05
3.042707e-05
1.433236e-05
-2.880806e-06
4.640018e-06
-5.864946e-06
-4.13406e-06
-3.000118e-06
-5.284195e-06
-8.756178e-06
3.365485e-05
2.842968e-05
1.834273e-06
-4.935952e-06
3.663956e-05
2.52909e-05
-6.225709e-06
2.268402e-06
-3.640293e-06
-9.443196e-06
1.519368e-05
6.761055e-06
3.346095e-05
6.610355e-06
2.246736e-05
1.611472e-05
6.538558e-06
6.238256e-06
2.825898e-05
1.626103e-05
2.571631e-05
2.696224e-05
2.430046e-05
1.458064e-05
2.763023e-05
-3.677446e-06
-3.019261e-06
-1.398609e-05
-5.47484e-06
-8.040399e-07
6.958902e-06
8.918096e-06
-1.91968e-05
-1.404389e-05
-1.07084e-05
3.178797e-05
3.153977e-05
3.396709e-05
3.574155e-05
2.011928e-05
1.7708e-05
2.768473e-05
1.643708e-05
1.993416e-05
2.922001e-05
2.53985e-05
2.447635e-05
2.675941e-05
-1.23149e-05
-1.07499e-05
-1.706484e-06
2.310192e-06
4.248433e-06
5.310317e-05
6.183851e-06
7.328428e-06
9.508266e-06
2.871756e-05
4.173268e-05
-8.165392e-07
-1.995374e-06
2.700707e-05
2.763615e-05
1.878823e-05
1.342889e-05
1.01136e-05
-3.848188e-06
2.400962e-05
1.869734e-06
6.068521e-06
4.898568e-06
3.747864e-06
-9.420757e-07
-8.283117e-07
-3.038408e-07
-6.74446e-06
1.272738e-06
2.333144e-05
2.262908e-05
6.181122e-06
5.477393e-06
2.876095e-05
3.014112e-05
4.424716e-05
3.295391e-05
8.120648e-06
2.634557e-05
2.4653e-05
5.255126e-05
1.537857e-05
1.829169e-05
2.879348e-05
2.911299e-05
6.264763e-06
6.179733e-06
6.019323e-06
8.047977e-06
3.256708e-05
3.345176e-05
-1.143072e-05
-1.444499e-05
-1.121798e-05
2.177173e-05
3.9007e-06
3.740752e-06
9.642293e-06
7.571648e-06
1.075019e-05
1.097784e-05
2.619456e-05
3.541371e-05
2.58738e-05
-3.974301e-06
-2.022633e-06
3.772458e-06
3.602492e-05
3.450603e-05
3.450922e-05
2.688291e-06
1.145159e-06
-5.037569e-07
-8.014611e-06
-1.836047e-06
-5.457022e-06
4.891595e-05
6.710436e-05
4.903292e-06
-3.703523e-06
-2.625454e-06
-9.320022e-06
-1.10288e-05
-3.160961e-06
1.143184e-05
9.229422e-06
5.096553e-06
-9.395455e-06
5.054866e-06
-5.954816e-06
3.08876e-05
3.058494e-05
1.174002e-05
2.36723e-05
6.633839e-05
3.71288e-05
4.212519e-05
4.2958e-05
3.6465e-05
2.167016e-05
1.605276e-06
2.645744e-06
2.754648e-05
8.406963e-06
1.51443e-05
2.962647e-05
4.441639e-05
1.448044e-05
1.585636e-05
3.48678e-05
2.311127e-05
2.258445e-05
-9.646108e-06
-1.088033e-05
-1.054042e-05
-1.181834e-05
-3.487147e-06
1.075269e-05
9.542153e-06
3.113658e-05
2.4126e-06
3.450263e-05
3.32155e-05
3.317265e-05
3.229033e-05
3.253813e-05
3.291415e-05
2.543875e-05
1.779239e-05
-5.550577e-06
7.967289e-06
9.589342e-06
2.342764e-05
3.371867e-05
2.186647e-05
-7.302317e-06
-5.11936e-06
6.048829e-06
6.193958e-06
2.557814e-05
2.546729e-05
2.44005e-05
1.43456e-05
1.371169e-05
1.397425e-05
1.470328e-05
2.13242e-05
1.327977e-05
1.163571e-05
1.377595e-05
2.666417e-05
1.034356e-05
4.460812e-05
1.762771e-05
1.576508e-05
2.334854e-05
-1.026376e-05
-1.070647e-06
1.866162e-05
3.234425e-05
2.139053e-05
-3.085164e-06
3.999335e-05
3.841956e-05
1.500191e-06
5.680044e-05
1.480966e-05
3.100417e-05
-4.010272e-06
4.223841e-05
4.537805e-05
1.618391e-06
3.225331e-05
2.712387e-05
9.997284e-06
1.016926e-07
-2.349804e-06
-3.742387e-06
4.598252e-06
7.620881e-06
6.982924e-06
2.039601e-05
5.126425e-05
1.968445e-05
5.423677e-06
4.662004e-06
-5.411699e-06
2.544384e-06
7.067235e-06
2.298311e-05
1.90292e-05
1.852128e-05
2.219063e-05
2.990778e-05
3.009034e-05
2.399425e-05
3.282415e-05
2.0998e-05
1.398147e-05
4.544533e-05
4.580601e-05
2.490671e-06
-1.197013e-05
1.724128e-05
2.631802e-05
2.632299e-05
5.987111e-05
3.325292e-05
3.442474e-05
2.932086e-05
2.388323e-05
3.481952e-05
-5.224986e-06
2.670282e-05
-3.042568e-06
3.259704e-06
4.008461e-06
2.226993e-05
8.339618e-06
3.631715e-05
3.112848e-05
3.351767e-05
6.42386e-06
5.075565e-06
5.198812e-06
2.662028e-06
3.850477e-06
6.174255e-06
-7.400477e-06
-1.454197e-05
2.289566e-07
2.743001e-05
2.420592e-06
2.649231e-05
3.166671e-05
5.741018e-07
2.88142e-05
2.961124e-05
2.95785e-05
-1.684883e-05
2.325536e-05
-8.634771e-06
2.256717e-05
1.270741e-05
3.086448e-05
2.473726e-05
2.550147e-05
2.515057e-05
3.26746e-05
3.231484e-05
-1.683249e-05
2.712533e-05
2.47935e-05
1.921493e-05
2.3865e-05
3.503242e-05
1.895282e-05
2.40742e-05
1.263103e-05
-1.983533e-05
-2.09417e-05
-1.692218e-05
-1.986953e-05
-1.473831e-05
-1.621303e-05
2.528452e-05
3.852911e-06
6.600462e-06
2.966201e-05
9.536027e-06
-3.752344e-06
1.046897e-05
-6.896767e-06
-1.461923e-06
-5.389376e-07
3.415571e-05
3.505173e-06
4.848137e-06
3.024295e-05
9.782743e-06
2.089489e-05
3.066674e-05
4.750935e-07
3.021316e-05
-1.040163e-05
-9.196707e-06
1.601429e-05
2.479752e-07
2.334262e-05
2.017418e-05
-1.398571e-06
2.639344e-05
-1.145306e-05
-8.763292e-06
3.799715e-05
-4.66574e-07
-1.778417e-06
1.925371e-05
1.271293e-05
2.23679e-05
2.141801e-05
4.204528e-06
-6.076601e-06
-5.790298e-06
1.008749e-05
2.793965e-05
5.847148e-05
-6.902415e-06
4.314581e-05
-1.377394e-05
-1.496678e-05
-7.325483e-06
-7.747478e-06
1.713705e-05
1.829173e-05
2.202716e-05
7.471512e-06
1.06183e-05
2.942222e-05
2.787867e-05
2.418959e-05
1.944463e-05
3.593236e-05
-2.198443e-05
2.792572e-05
1.359763e-05
2.46566e-05
1.836039e-05
3.968138e-05
3.966298e-05
2.467369e-05
-4.914279e-06
-4.372944e-06
1.350849e-05
1.509284e-05
2.320575e-05
2.251931e-05
2.222355e-05
-4.354482e-06
-5.310121e-06
3.565203e-05
3.476591e-05
2.809799e-05
3.914669e-05
3.522662e-05
8.789845e-06
1.123598e-05
1.635105e-05
5.757538e-05
5.708435e-05
5.595955e-05
3.855093e-05
3.970495e-05
3.401417e-06
3.812063e-05
3.90657e-05
-5.056021e-06
2.010114e-05
1.885699e-05
2.037684e-05
-7.829535e-06
4.096545e-06
3.93693e-05
2.788274e-06
1.381928e-06
3.592514e-06
3.289863e-06
2.359603e-06
8.894244e-07
3.757544e-08
3.487928e-06
3.176424e-05
1.49525e-05
1.558953e-05
3.068157e-05
-6.646797e-06
-5.347e-06
1.859929e-05
-4.4749e-06
-3.748246e-06
3.9679e-06
3.545211e-05
2.34589e-05
2.331242e-05
3.969125e-05
-2.396321e-06
2.406745e-05
2.411279e-05
3.56301e-05
4.623745e-05
-1.361459e-07
-1.869454e-05
3.794475e-05
3.967622e-05
8.818086e-06
3.997123e-05
3.767337e-05
4.609084e-05
3.690797e-05
3.841311e-05
3.40006e-05
3.919452e-05
3.505257e-05
2.282289e-05
2.333155e-05
-1.423747e-05
-1.525974e-05
2.693035e-05
2.83854e-05
5.938912e-06
-6.201757e-07
-1.925668e-06
-1.937689e-06
3.807064e-05
-3.988054e-06
-1.890051e-06
3.439674e-05
2.206576e-05
1.976133e-05
1.668222e-06
1.284408e-05
4.128434e-05
2.812041e-05
2.764304e-05
-1.994353e-06
1.775074e-05
1.776176e-05
2.206869e-05
2.413802e-05
2.122788e-05
2.177044e-05
2.197038e-05
2.102511e-05
2.172032e-05
-3.907304e-06
-6.66178e-06
-5.346017e-07
1.336186e-05
-5.911439e-06
1.723209e-05
1.510889e-05
1.63501e-05
1.627845e-05
1.259649e-05
-2.998421e-06
-1.935092e-06
3.66921e-05
2.499111e-05
2.532208e-05
3.141461e-05
3.105422e-05
3.237699e-05
-8.891615e-06
-9.040535e-06
6.348318e-06
3.398549e-05
3.407256e-05
1.630122e-05
3.662149e-05
-3.233778e-06
3.782453e-05
3.570792e-05
3.631077e-05
2.066138e-06
2.405967e-05
1.779888e-05
-6.355258e-06
5.208826e-06
3.604632e-05
3.723479e-05
3.134544e-05
3.099139e-05
2.407556e-05
1.605776e-07
-3.106522e-06
-3.507184e-06
1.769086e-05
-7.591682e-06
1.990525e-05
1.948652e-05
-1.453965e-05
4.501571e-05
4.519954e-05
1.469966e-05
1.546429e-05
2.560603e-05
2.555284e-05
-5.17623e-06
-7.225702e-06
2.458413e-05
2.388438e-05
-3.056198e-06
2.134736e-05
2.069604e-05
4.286109e-05
2.447707e-05
2.262991e-05
3.198445e-05
6.432699e-06
2.56273e-05
1.910876e-05
1.006449e-05
-4.337779e-06
-5.567676e-06
1.994798e-05
2.728302e-05
-1.628855e-06
8.184372e-06
-3.231739e-07
3.183954e-05
3.116084e-05
4.832044e-06
2.592428e-05
2.400628e-05
1.965525e-05
1.994242e-05
2.223563e-05
2.197228e-05
3.951652e-05
3.009573e-05
5.280764e-05
1.991488e-05
1.883217e-05
1.827894e-05
4.531889e-06
2.265207e-06
4.893541e-05
4.914829e-05
-9.861604e-07
4.023073e-05
-1.636129e-06
2.20587e-07
2.494006e-05
-4.164082e-07
1.954307e-05
1.918274e-05
2.77352e-05
5.734651e-05
3.739602e-05
1.902251e-05
1.952546e-05
3.777283e-05
-5.703982e-06
2.329894e-05
2.425097e-05
3.878542e-06
4.110941e-06
-2.792602e-07
6.93551e-07
3.289563e-05
3.255794e-05
4.398109e-05
-1.052734e-06
3.630532e-05
3.685356e-05
2.644756e-06
3.939549e-06
3.230769e-05
2.520904e-05
2.477941e-05
-1.592041e-06
8.78322e-07
2.476014e-05
3.176823e-05
2.817275e-05
6.000642e-06
-5.919353e-06
1.282062e-07
-8.27506e-09
2.522563e-05
2.315542e-05
2.241382e-05
-1.306164e-05
-1.068262e-05
1.87615e-06
1.496917e-06
1.777291e-05
-1.729417e-05
1.391921e-05
-1.181479e-06
5.281775e-05
1.607148e-05
1.66183e-05
3.351302e-06
3.538898e-05
-8.841659e-06
-1.075296e-05
-8.612002e-06
-9.124338e-06
4.138411e-05
4.92368e-05
5.110421e-05
3.382936e-05
3.453816e-05
6.321858e-06
-7.325827e-06
1.09776e-05
2.070233e-05
2.130211e-05
-3.84602e-06
5.701711e-08
-2.397393e-07
3.679173e-05
-9.247207e-06
1.707134e-05
-7.511749e-07
2.8008e-05
2.389035e-05
2.407148e-05
1.942686e-05
1.865873e-05
2.18415e-05
-7.655273e-06
-3.737086e-06
2.102405e-05
2.218062e-05
2.365301e-05
2.2449e-05
1.105373e-05
-1.813532e-06
-1.509164e-06
1.969028e-05
3.761346e-05
3.793742e-05
3.050944e-06
4.105271e-05
4.405473e-05
3.343966e-05
3.347275e-05
2.983168e-05
3.570883e-06
2.370716e-05
3.631713e-05
3.735329e-05
-1.634257e-06
3.897627e-05
4.075045e-05
4.31288e-05
-4.584072e-06
-4.007017e-06
-1.06454e-05
2.219637e-05
3.59582e-05
4.801593e-05
5.064294e-05
4.854053e-05
4.833144e-05
1.175417e-06
1.358304e-07
7.101265e-06
6.383279e-06
3.770942e-06
2.583263e-05
2.931245e-05
2.871853e-05
7.438483e-06
7.209904e-06
1.591977e-05
3.060038e-05
3.059653e-05
8.900422e-06
8.554043e-06
3.210825e-05
3.117586e-05
2.666286e-05
-1.361472e-05
-2.217693e-05
5.207277e-05
-1.028711e-05
-8.78142e-06
2.835643e-05
3.986078e-05
7.529333e-06
3.76791e-06
-2.104278e-05
7.208619e-06
1.095701e-06
-4.586804e-06
2.424483e-05
3.275474e-06
9.975725e-06
-9.963321e-06
3.889359e-06
2.541632e-06
-1.127197e-06
3.823398e-06
5.40982e-06
-6.191643e-06
8.903646e-06
6.616298e-05
6.438525e-05
1.706156e-05
2.118075e-05
2.723494e-05
2.617478e-05
-5.398877e-06
1.539783e-05
2.17492e-05
2.387259e-05
-1.078988e-06
-6.159113e-07
-1.211485e-06
2.700678e-05
7.173043e-06
3.527437e-06
2.572271e-05
1.769676e-05
1.67296e-05
3.788641e-05
2.42746e-05
2.396217e-05
-8.200494e-06
-8.765911e-06
1.571657e-05
6.41968e-06
6.952609e-06
1.760399e-05
3.213068e-05
3.14867e-05
-1.020756e-05
-6.554385e-06
-7.114858e-06
2.666634e-05
-1.792979e-06
-9.212023e-06
3.711515e-05
-1.04349e-05
-8.524199e-06
9.552851e-07
-2.853446e-07
1.743885e-05
1.752711e-05
-1.413813e-06
9.186225e-06
2.085961e-05
2.469242e-05
2.902138e-05
2.982256e-05
4.952261e-05
5.563384e-05
5.376033e-05
4.703819e-05
5.377787e-05
5.163985e-05
2.027165e-05
2.066878e-05