/*--------------------------------*- C++ -*----------------------------------*\
| =========                 |                                                 |
| \\      /  F ield         | OpenFOAM: The Open Source CFD Toolbox           |
|  \\    /   O peration     | Version:  2406                                  |
|   \\  /    A nd           | Website:  www.openfoam.com                      |
|    \\/     M anipulation  |                                                 |
\*---------------------------------------------------------------------------*/
FoamFile
{
    version     2.0;
    format      ascii;
    arch        "LSB;label=32;scalar=64";
    class       surfaceScalarField;
    location    "4.12";
    object      phi;
}
// * * * * * * * * * * * * * * * * * * * * * * * * * * * * * * * * * * * * * //

dimensions      [0 3 -1 0 0 0 0];

oriented        oriented;

internalField   nonuniform List<scalar> 
23794
(
0.00711488
-0.007021959
-9.292107e-05
0.006784696
0.0003301834
0.006310414
0.0004742819
0.005789236
0.0005211781
0.004984595
0.0008046409
0.003725857
0.001258739
0.002121046
0.001604811
0.0005256481
0.001595398
-0.0004515771
0.0009772253
-0.0004100856
-4.149154e-05
5.167738e-05
-0.0004617629
-0.0002698461
0.0003215235
-0.001219636
0.0009497904
-0.0020343
0.0008146635
-0.002361961
0.0003276612
-0.002068982
-0.0002929792
-0.001000779
-0.001068203
0.0003702261
-0.001371005
0.001351796
-0.00098157
0.002243801
-0.0008920043
0.003733181
-0.00148938
0.005499063
-0.001765882
0.007166359
-0.001667296
0.007694708
-0.0005283493
0.004321789
0.003372919
-0.002729161
0.007050949
-0.005397583
0.002668422
-0.002157602
-0.003239981
0.0005593274
-0.002716929
0.001657638
-0.00109831
0.002514572
-0.0008569346
0.004405961
-0.001891389
0.007400312
-0.002994351
0.007765113
-0.0003648008
0.003532282
0.004232831
-7.728699e-06
0.003540011
-0.0008444023
0.0008366737
-0.003094654
0.002250251
-0.007819307
0.004724653
-0.01132805
0.003508748
-0.01317584
0.001847782
-0.01412391
0.0009480687
-0.01467114
0.0005472311
-0.01501301
0.0003418749
-0.0152306
0.0002175852
-0.01526525
3.465611e-05
-0.01522601
-3.924284e-05
-0.0151524
-7.361492e-05
-0.01503683
-0.0001155702
-0.01490863
-0.0001281949
-0.01472474
-0.0001838947
-0.01450376
-0.0002209732
-0.01422663
-0.0002771313
-0.01392811
-0.0002985254
-0.01361409
-0.0003140152
-0.0132482
-0.0003658884
-0.01286501
-0.0003831955
-0.01247479
-0.0003902199
-0.01202192
-0.0004528696
-0.01154787
-0.0004740481
-0.01105041
-0.0004974593
-0.01054721
-0.0005031976
-0.01002359
-0.000523623
-0.009452183
-0.0005714058
-0.008889297
-0.0005628858
-0.008286089
-0.000603208
-0.00766582
-0.0006202687
-0.007040407
-0.000625413
-0.006407512
-0.0006328953
-0.005744487
-0.0006630248
-0.005080346
-0.0006641414
-0.004408478
-0.0006718679
-0.003722992
-0.0006854858
-0.003038035
-0.0006849566
-0.002371395
-0.0006666402
-0.00166514
-0.0007062554
-0.0009858531
-0.0006792867
-0.0003436386
-0.0006422144
0.0002934705
-0.0006371091
0.001052266
-0.0007587959
0.001793743
-0.000741477
0.002514674
-0.0007209309
0.003219703
-0.0007050284
0.00390679
-0.0006870869
0.004590597
-0.000683808
0.005251801
-0.0006612038
0.005923609
-0.0006718081
0.006574557
-0.0006509478
0.00718905
-0.000614493
0.007806849
-0.000617799
0.008411486
-0.0006046368
0.008992085
-0.0005805997
0.009567927
-0.0005758411
0.0101295
-0.0005615694
0.01063643
-0.0005069347
0.0111382
-0.0005017661
0.01162366
-0.0004854644
0.01206791
-0.0004442441
0.01251096
-0.00044305
0.01290086
-0.0003899061
0.01326268
-0.0003618214
0.01358438
-0.0003217007
0.01386202
-0.0002776334
0.01413275
-0.0002707297
0.01436461
-0.0002318608
0.01455514
-0.0001905293
0.01470072
-0.0001455803
0.01480099
-0.0001002738
0.01486758
-6.658907e-05
0.0148612
6.376098e-06
0.01480256
5.863972e-05
0.01463155
0.0001710171
0.01426626
0.0003652856
0.01369697
0.000569287
0.01283953
0.0008574481
0.01138056
0.001458963
0.008559277
0.002821286
0.003788405
0.004770871
-0.001318362
0.005106767
-0.00413042
0.002812058
-0.004519228
0.0003888076
-0.00243806
-0.002081167
0.002198183
-0.004636243
0.003236943
-0.001038761
-0.004884097
0.008121041
-0.01149051
0.006606416
-0.01134478
-0.0001457287
-0.007763821
-0.003580964
-0.004773696
-0.002990125
-0.0030517
-0.001721995
-0.001586945
-0.001464756
0.001209037
-0.002795981
0.004060183
-0.002851146
0.00388758
0.0001726027
0.002051877
0.001835703
0.0005497672
0.00150211
-0.001006357
0.001556124
-0.00295102
0.001944663
-0.004473852
0.001522832
-0.004776232
0.0003023798
-0.003895882
-0.0008803492
-0.00246389
-0.001431992
-3.872584e-05
-0.002425164
0.00251704
-0.002555766
0.004135219
-0.001618179
0.003305893
0.0008293267
0.0009122868
0.002393606
-0.0002073775
0.001119664
-0.0009291244
0.0007217469
-0.001181675
0.0002525508
0.0007085981
-0.001890273
0.002074535
-0.001365937
0.003197592
-0.001123056
0.004214296
-0.001016704
0.005292962
-0.001078666
0.006384578
-0.001091617
-0.0006373802
0.009271159
-0.008299806
-0.001064273
0.009426528
0.000174814
0.008855074
0.001045735
0.008163506
0.001212747
0.007568671
0.001399476
0.006816777
0.002010633
0.005529305
0.002892282
0.003595161
0.003529542
0.001655298
0.002917089
0.0005719174
0.001041889
0.0002645706
-0.0001544161
-0.0007828109
0.001368905
-0.002459163
0.002626143
-0.003572466
0.001927966
-0.003892707
0.0006479027
-0.003362089
-0.0008235977
-0.001745879
-0.002684413
0.00020066
-0.003317543
0.001645898
-0.002426808
0.002964487
-0.002210593
0.004926146
-0.003451039
0.007082963
-0.003922699
0.009037256
-0.003621589
0.00998536
-0.001476453
0.007532577
0.005825703
-0.001150021
0.01573355
-0.007218933
0.008737334
-0.004658754
-0.00580016
-0.002627699
-0.004747984
-0.0024126
-0.001313409
-0.002208647
-0.001060888
-0.0007608704
-0.003339165
0.001849592
-0.005604813
0.004668163
-0.003183372
0.003643459
0.005257535
-0.002493664
0.009677134
-0.01010253
0.008445535
-0.01639433
0.00854206
-0.02021929
0.008549609
-0.02181579
0.005105252
-0.02209089
0.002122882
-0.02210207
0.0009592418
-0.0220379
0.0004830648
-0.02193977
0.0002437468
-0.02182301
0.0001008234
-0.02160642
-0.0001819351
-0.02137441
-0.0002712541
-0.02112298
-0.0003250369
-0.02082884
-0.0004097195
-0.02052277
-0.0004342641
-0.02015873
-0.0005479271
-0.01975813
-0.0006215723
-0.01929654
-0.0007387277
-0.01881245
-0.0007826181
-0.0183187
-0.0008077633
-0.01776884
-0.0009157456
-0.01719753
-0.000954504
-0.01662333
-0.0009644184
-0.01597711
-0.001099095
-0.01531094
-0.001140211
-0.01461767
-0.001190735
-0.01391718
-0.001203691
-0.01319881
-0.001241993
-0.01242345
-0.001346759
-0.01165947
-0.001326873
-0.01085363
-0.001409043
-0.0100258
-0.001448095
-0.009195208
-0.001456009
-0.008360061
-0.001468042
-0.007488097
-0.001534989
-0.006613811
-0.001538427
-0.005732977
-0.001552702
-0.004837249
-0.001581214
-0.00394446
-0.001577745
-0.003071196
-0.001539904
-0.002157588
-0.001619863
-0.00127451
-0.001562364
-0.0004329507
-0.001483774
0.0004036103
-0.00147367
0.001381092
-0.001736277
0.002342517
-0.001702903
0.003281404
-0.001659817
0.004199699
-0.001623324
0.005099021
-0.001586408
0.005996105
-0.001580892
0.006867217
-0.001532316
0.007750628
-0.001555219
0.008610925
-0.001511245
0.009427091
-0.001430659
0.01024936
-0.001440063
0.01106057
-0.001415854
0.01184194
-0.00136197
0.0126187
-0.001352598
0.01338324
-0.001326112
0.01408371
-0.001207404
0.01478244
-0.001200494
0.01546312
-0.001166145
0.01609784
-0.001078964
0.01673349
-0.001078695
0.01730698
-0.0009633957
0.01785642
-0.000911264
0.01836116
-0.0008264472
0.01881779
-0.0007342548
0.01927381
-0.0007267547
0.01968887
-0.0006469206
0.02005918
-0.0005608421
0.02038402
-0.0004704179
0.02066291
-0.00037916
0.0209094
-0.0003130782
0.02109508
-0.0001793039
0.02128826
-0.0001345471
0.02145607
3.206616e-06
0.02152769
0.0002936736
0.02153031
0.0005666643
0.02145277
0.0009349821
0.02117457
0.001737171
0.02009103
0.003904823
0.01643156
0.008430339
0.009727775
0.01181055
0.003475806
0.009064027
0.001197525
0.002667088
0.001567888
-0.00245153
0.002770827
-0.005839183
-0.0003084147
0.002040482
-0.009148519
0.01696114
-0.01301611
0.01047401
-0.01100231
-0.00215953
-0.007114529
-0.007468743
-0.003950851
-0.006153804
-0.002264738
-0.003408109
-0.000854141
-0.002875352
0.001903144
-0.005553267
0.00559
-0.006538001
0.005505968
0.0002566349
0.002410326
0.004931345
0.0001680339
0.003744402
-0.002072313
0.003796471
-0.00480946
0.004681811
-0.006210102
0.002923473
-0.006001048
9.332614e-05
-0.004752186
-0.002129212
-0.002904585
-0.003279593
9.075284e-05
-0.005420502
0.003147747
-0.00561276
0.005495001
-0.003965433
0.005844128
0.0004801997
0.002956321
0.005281412
-0.0002050415
0.004281027
-0.001636246
0.002152952
-0.00151825
0.0001345544
0.0006673774
-0.004075901
0.002279138
-0.002977697
0.003437601
-0.00228152
0.0044383
-0.002017403
0.005574728
-0.002215094
0.006973968
-0.002490857
-0.001963219
0.009179459
-0.007987546
-0.002256186
0.009788014
-0.0004337409
0.009742661
0.001091088
0.009378958
0.001576451
0.008839674
0.00193876
0.008153733
0.002696573
0.00725467
0.003791345
0.005782008
0.005002204
0.003674347
0.00502475
0.001602368
0.003113868
0.0001479451
0.001300006
-0.001615643
0.003132493
-0.003497392
0.004507892
-0.004557884
0.002988458
-0.004775147
0.0008651656
-0.003903876
-0.001694869
-0.001690666
-0.004897623
0.000839601
-0.00584781
0.002589122
-0.004176329
0.004082011
-0.003703482
0.006178344
-0.005547372
0.008371799
-0.006116155
0.0103246
-0.005574386
0.01102868
-0.002180532
0.008893107
0.007961271
0.0002675894
0.02435907
-0.007797405
0.01680233
-0.008602635
-0.00499493
-0.009324235
-0.004026384
-0.01045105
-0.0001865907
-0.01076702
-0.0007449216
-0.00932772
-0.004778464
-0.005914733
-0.0090178
-0.002032203
-0.007065902
-0.002456705
0.005682036
-0.01164796
0.01886839
-0.02179893
0.0185965
-0.02587907
0.0126222
-0.0263025
0.008973045
-0.02598612
0.00478887
-0.02587952
0.002016282
-0.02592477
0.001004491
-0.02594141
0.000499705
-0.0259156
0.0002179371
-0.02585553
4.075419e-05
-0.02563766
-0.0003998023
-0.02537501
-0.0005339066
-0.02508753
-0.0006125154
-0.02474848
-0.0007487713
-0.02439755
-0.0007851969
-0.02397445
-0.0009710266
-0.02350875
-0.001087273
-0.02296874
-0.001278733
-0.02240111
-0.001350246
-0.02182303
-0.001385845
-0.02117499
-0.001563786
-0.02050129
-0.001628208
-0.01982546
-0.001640246
-0.01906056
-0.001863995
-0.01827194
-0.00192883
-0.01745048
-0.002012192
-0.01662005
-0.002034125
-0.01576816
-0.002093886
-0.01484585
-0.00226907
-0.0139385
-0.002234215
-0.01297838
-0.00236917
-0.01199213
-0.002434338
-0.01100181
-0.002446332
-0.01000555
-0.002464301
-0.008964493
-0.002576046
-0.007920151
-0.002582769
-0.006866775
-0.002606078
-0.005795584
-0.002652405
-0.004726311
-0.002647018
-0.003678635
-0.00258758
-0.002584167
-0.002714331
-0.001524195
-0.002622337
-0.0005116656
-0.002496303
0.0004976193
-0.002482955
0.001665938
-0.002904595
0.00281727
-0.002854235
0.003942058
-0.002784606
0.005040661
-0.002721927
0.006115982
-0.002661729
0.007187724
-0.002652635
0.008227265
-0.002571857
0.009281104
-0.002609058
0.01030605
-0.002536187
0.01127781
-0.002402426
0.01225673
-0.002418976
0.01322127
-0.002380398
0.01414965
-0.002290351
0.0150725
-0.002275452
0.01597995
-0.002233556
0.01680974
-0.002037199
0.01763802
-0.002028772
0.01844379
-0.001971914
0.01919315
-0.001828328
0.01994541
-0.001830947
0.02062073
-0.00163872
0.02126826
-0.001558797
0.02186107
-0.001419255
0.0223941
-0.00126728
0.02292822
-0.001260875
0.02341122
-0.001129923
0.02384152
-0.0009911386
0.02421639
-0.0008452908
0.02453583
-0.0006986032
0.02481726
-0.0005945086
0.02501992
-0.0003819598
0.02520839
-0.0003230152
0.02533441
-0.0001228213
0.02533105
0.0002970401
0.02525228
0.0006454323
0.02514871
0.001038548
0.02505756
0.001828322
0.02520578
0.003756603
0.02494715
0.008688967
0.02236876
0.01438895
0.01820736
0.01322543
0.01499215
0.00588229
0.01166981
0.0008708154
0.006389396
-0.0005587702
-0.001539755
0.009969632
-0.009096006
0.0245174
-0.0117825
0.0131605
-0.009903497
-0.004038532
-0.005147363
-0.01222488
-0.001606926
-0.00969424
-0.0001405958
-0.004874439
0.0008888527
-0.003904801
0.002977487
-0.007641901
0.006146655
-0.00970717
0.00524243
0.00116086
0.001559955
0.008613819
-0.0003145102
0.005618867
-0.002535605
0.006017566
-0.005579714
0.007725919
-0.007414361
0.00475812
-0.007206186
-0.000114848
-0.005584692
-0.003750706
-0.003332466
-0.00553182
0.0002166548
-0.008969622
0.003937306
-0.009333411
0.00660693
-0.006635057
0.00747097
-0.0003838407
0.004940423
0.007811959
0.0004071038
0.008814347
-0.001846489
0.004406544
-0.001573496
-0.0001384383
0.0006383074
-0.006287705
0.002239814
-0.004579204
0.003212744
-0.003254451
0.004097683
-0.002902341
0.005219056
-0.003336468
0.006632507
-0.003904307
-0.003318258
0.009417051
-0.008062207
-0.00361103
0.01046866
-0.001485352
0.01098189
0.000577864
0.01101269
0.001545646
0.01047806
0.002473388
0.009499835
0.0036748
0.008363124
0.004928056
0.006994157
0.006371171
0.004937675
0.007081233
0.002256399
0.005795144
-0.0002756654
0.003832071
-0.002674897
0.005531725
-0.00450879
0.006341785
-0.005417229
0.003896898
-0.005542818
0.0009907543
-0.004377842
-0.002859844
-0.001637775
-0.007637691
0.001410645
-0.00889623
0.003433377
-0.006199061
0.004939255
-0.00520936
0.006839712
-0.007447829
0.008771578
-0.00804802
0.01064081
-0.007443621
0.01133078
-0.002870502
0.009015519
0.01027653
0.0007930358
0.03258155
-0.009112182
0.02670755
-0.01434359
0.0002364791
-0.0181234
-0.000246574
-0.02028813
0.001978144
-0.02101134
-2.172002e-05
-0.02011827
-0.005671533
-0.01747285
-0.01166322
-0.01473462
-0.009804129
-0.01720696
0.008154375
-0.02511361
0.02677504
-0.03108855
0.02457144
-0.03160848
0.01314213
-0.03104436
0.008408929
-0.03103762
0.00478213
-0.03126582
0.002244474
-0.03140726
0.001145937
-0.03144187
0.0005343121
-0.03139589
0.0001719545
-0.03130199
-5.314107e-05
-0.0310101
-0.0006916961
-0.03067199
-0.0008720162
-0.03030292
-0.0009815872
-0.02987353
-0.001178157
-0.02943334
-0.001225384
-0.02890816
-0.00149621
-0.02833365
-0.001661785
-0.02767081
-0.001941573
-0.02697571
-0.002045348
-0.02626968
-0.002091869
-0.0254815
-0.002351967
-0.02466281
-0.002446899
-0.02384242
-0.002460639
-0.02291861
-0.002787798
-0.02196456
-0.00288288
-0.02097237
-0.003004391
-0.01997091
-0.00303558
-0.01894512
-0.003119676
-0.01783362
-0.003380575
-0.01674306
-0.003324767
-0.0155882
-0.003524037
-0.01440387
-0.003618661
-0.01321391
-0.003636293
-0.01201791
-0.0036603
-0.01076862
-0.003825344
-0.009515606
-0.00383578
-0.008251435
-0.00387025
-0.006967276
-0.003936564
-0.005682321
-0.003931974
-0.004422786
-0.003847115
-0.003104828
-0.004032289
-0.001825072
-0.003902093
-0.0005982513
-0.003723123
0.0006243849
-0.003705591
0.002024181
-0.004304391
0.003404254
-0.004234309
0.004754898
-0.00413525
0.006071338
-0.004038366
0.00735802
-0.003948411
0.008639589
-0.003934203
0.009882462
-0.00381473
0.01114522
-0.003871819
0.01237133
-0.003762295
0.01353695
-0.003568048
0.01471287
-0.003594898
0.01586994
-0.003537458
0.01698705
-0.00340747
0.01809962
-0.003388013
0.01919104
-0.003324983
0.02019293
-0.003039082
0.02119398
-0.00302983
0.02216703
-0.002944955
0.02307481
-0.002736113
0.02398674
-0.002742881
0.02480746
-0.002459439
0.025595
-0.002346337
0.02631809
-0.002142342
0.0269732
-0.001922394
0.02762948
-0.001917156
0.02822463
-0.001725068
0.02875955
-0.001526063
0.02922739
-0.001313131
0.02963396
-0.001105175
0.02999545
-0.000955991
0.03026427
-0.0006507859
0.03052087
-0.0005796101
0.03070009
-0.0003020487
0.03070557
0.00029156
0.03059238
0.0007586255
0.03038401
0.001246916
0.03005979
0.00215254
0.02977517
0.004041226
0.03023194
0.008232198
0.03076632
0.01385456
0.02992995
0.0140618
0.02784217
0.007970067
0.02385849
0.0048545
0.01408058
0.009219142
0.0005991493
0.02345106
-0.006487229
0.03160377
-0.008828421
0.01550169
-0.007283598
-0.005583354
-0.002126577
-0.0173819
0.001995483
-0.0138163
0.003651589
-0.006530545
0.003801833
-0.004055045
0.004597561
-0.008437628
0.00614441
-0.01125402
0.003953365
0.003351905
0.0002452897
0.01232189
-0.001128106
0.006992263
-0.003230633
0.008120093
-0.0065217
0.01101699
-0.008919007
0.007155428
-0.008677906
-0.0003559497
-0.00658677
-0.005841842
-0.003875482
-0.008243108
0.0003500894
-0.01319519
0.004803423
-0.01378674
0.007969351
-0.009800985
0.009188646
-0.001603136
0.007004326
0.009996279
0.001622849
0.01419582
-0.001809895
0.007839289
-0.001487007
-0.000461327
0.0007766412
-0.008551352
0.002204006
-0.006006569
0.003077831
-0.004128275
0.004022816
-0.003847327
0.005243751
-0.004557403
0.006725007
-0.005385563
-0.004655457
0.01117022
-0.009538547
-0.005242707
0.01238433
-0.002699457
0.01296328
-1.090309e-06
0.01302994
0.00147899
0.01241667
0.003086657
0.01119267
0.004898806
0.009642209
0.006478512
0.007929555
0.008083825
0.005688849
0.009321939
0.002526539
0.008957454
-0.000863728
0.007222338
-0.003776703
0.008444701
-0.005499137
0.008064218
-0.006282736
0.004680497
-0.006355555
0.001063573
-0.004934388
-0.004281012
-0.001720771
-0.01085131
0.0016903
-0.0123073
0.003866034
-0.008374794
0.005032797
-0.006376123
0.006272662
-0.008687694
0.007911688
-0.009687046
0.01009825
-0.009630181
0.01113549
-0.003907742
0.008174297
0.01323773
0.0002009224
0.04055492
-0.01199953
0.038908
-0.02175829
0.009995235
-0.02792905
0.005924184
-0.03083577
0.004884868
-0.03223437
0.001376883
-0.03276227
-0.005143637
-0.03280025
-0.01162524
-0.03320734
-0.009397034
-0.03528342
0.01023045
-0.0376189
0.02911052
-0.03768222
0.02463476
-0.03677645
0.01223636
-0.03671658
0.008349061
-0.03694041
0.005005956
-0.0371955
0.002499568
-0.03735588
0.001306311
-0.03743775
0.0006161883
-0.03740095
0.0001351506
-0.03732595
-0.0001281359
-0.03699599
-0.001021656
-0.03661621
-0.001251804
-0.03619727
-0.001400521
-0.03569333
-0.001682098
-0.03519224
-0.001726479
-0.0345732
-0.002115243
-0.03390126
-0.002333726
-0.03311564
-0.0027272
-0.03229202
-0.002868964
-0.03145865
-0.002925236
-0.03051886
-0.003291755
-0.02954323
-0.003422532
-0.028569
-0.003434873
-0.02746709
-0.003889701
-0.02632551
-0.004024462
-0.02513922
-0.004190677
-0.0239441
-0.004230707
-0.02271931
-0.00434446
-0.02138541
-0.004714481
-0.02008382
-0.004626353
-0.01869907
-0.00490879
-0.01728239
-0.005035335
-0.01585686
-0.005061823
-0.0144266
-0.005090559
-0.01292916
-0.00532279
-0.0114279
-0.005337036
-0.009911377
-0.005386775
-0.008374342
-0.005473599
-0.006832951
-0.005473364
-0.005322091
-0.005357974
-0.003733507
-0.005620873
-0.002185084
-0.005450515
-0.0006941326
-0.005214075
0.0007868101
-0.005186534
0.002462601
-0.005980182
0.004114534
-0.005886242
0.005732557
-0.005753273
0.007302233
-0.005608042
0.008834792
-0.00548097
0.01036417
-0.00546358
0.01184847
-0.005299029
0.01336291
-0.005386257
0.01482754
-0.005226931
0.01622621
-0.004966717
0.01764003
-0.005008718
0.01902265
-0.004920073
0.02036237
-0.004747194
0.02170156
-0.004727208
0.02300591
-0.004629329
0.02420514
-0.004238317
0.02540572
-0.004230403
0.02656873
-0.004107963
0.02765049
-0.003817878
0.02874273
-0.003835119
0.02971978
-0.003436487
0.03065676
-0.003283322
0.03151509
-0.00300067
0.03228842
-0.002695721
0.03306623
-0.002694967
0.03376331
-0.002422148
0.03439311
-0.002155866
0.03493552
-0.00185554
0.03540329
-0.001572949
0.0358218
-0.001374501
0.03611312
-0.0009420984
0.03639619
-0.0008626846
0.0365803
-0.0004861541
0.03655569
0.0003161684
0.03639644
0.0009178786
0.0361391
0.001504249
0.03578792
0.002503721
0.03532403
0.004505122
0.03538667
0.008169549
0.0363236
0.01291764
0.03676563
0.01361977
0.03561636
0.009119344
0.03292455
0.007546307
0.02373792
0.01840577
0.008532541
0.03865644
-0.001204456
0.04134077
-0.002907408
0.01720464
-0.001135959
-0.007354803
0.003323277
-0.02184113
0.007281704
-0.01777473
0.008624259
-0.007873101
0.008001969
-0.003432754
0.006907654
-0.007343314
0.005792471
-0.01013884
0.002277676
0.006866701
-0.0009841916
0.01558376
-0.002367892
0.008375963
-0.004726643
0.01047884
-0.008240558
0.0145309
-0.01088447
0.009799339
-0.01051023
-0.0007301865
-0.007893049
-0.008459026
-0.004581943
-0.01155421
0.0004789327
-0.01825607
0.005763381
-0.01907119
0.009618517
-0.01365612
0.01118979
-0.003174409
0.009331287
0.01185478
0.003320151
0.02020696
-0.001423296
0.01258274
-0.001122843
-0.0007617801
0.001162148
-0.01083634
0.002322874
-0.007167295
0.003291717
-0.005097119
0.004467745
-0.005023355
0.005983505
-0.006073163
0.007878342
-0.0072804
-0.006315662
0.01325175
-0.011216
-0.007278452
0.01473313
-0.004180837
0.01537745
-0.0006454108
0.01543855
0.001417886
0.0146679
0.003857313
0.01320272
0.00636398
0.01126453
0.008416709
0.009032709
0.01031564
0.006325485
0.01202916
0.002594681
0.01268826
-0.001530479
0.0113475
-0.004825193
0.01173941
-0.006496143
0.009735169
-0.007229458
0.005413811
-0.007262916
0.001097032
-0.005664313
-0.005879615
-0.002341077
-0.01417454
0.0008224196
-0.0154708
0.002870789
-0.01042316
0.003381817
-0.006887151
0.00397873
-0.009284607
0.006001983
-0.0117103
0.009013053
-0.01264125
0.01042946
-0.005324147
0.006362401
0.01730478
-0.002458813
0.04937614
-0.01670352
0.05315271
-0.02938388
0.0226756
-0.0363254
0.01286569
-0.0393482
0.007907677
-0.0413184
0.003347075
-0.0431224
-0.003339632
-0.04541966
-0.009327986
-0.04813985
-0.006676835
-0.04916508
0.01125568
-0.0469394
0.02688483
-0.0443364
0.02203176
-0.04404192
0.01194189
-0.044381
0.008688139
-0.04465409
0.005279049
-0.04492885
0.002774328
-0.04508333
0.001460784
-0.04514322
0.0006760822
-0.04504193
3.386361e-05
-0.04492647
-0.0002436029
-0.04451212
-0.001436008
-0.04404441
-0.001719514
-0.04352277
-0.001922155
-0.04289035
-0.002314515
-0.04229014
-0.002326688
-0.04153075
-0.002874637
-0.0407199
-0.003144577
-0.03976706
-0.003680043
-0.03876873
-0.003867295
-0.03776713
-0.003926834
-0.03663039
-0.004428491
-0.03545484
-0.004598085
-0.03428789
-0.004601819
-0.03296274
-0.005214854
-0.03158533
-0.005401872
-0.03016094
-0.005615072
-0.02872588
-0.005665759
-0.02725889
-0.005811454
-0.02565038
-0.006322989
-0.02409622
-0.006180515
-0.02243054
-0.006574471
-0.02073159
-0.006734289
-0.01902241
-0.006770998
-0.01731178
-0.006801188
-0.01551851
-0.007116065
-0.0137246
-0.007130948
-0.01190475
-0.007206622
-0.01006641
-0.007311933
-0.008213532
-0.007326247
-0.006408036
-0.007163471
-0.004497241
-0.007531669
-0.002618233
-0.007329523
-0.0008019374
-0.007030371
0.0009929679
-0.006981439
0.002998048
-0.007985262
0.004975278
-0.007863472
0.00689859
-0.007676584
0.008761115
-0.007470568
0.01058757
-0.007307424
0.01241749
-0.007293502
0.01419626
-0.0070778
0.01602209
-0.007212086
0.01777419
-0.006979033
0.01945818
-0.006650702
0.0211664
-0.006716941
0.02282028
-0.006573954
0.02442811
-0.006355023
0.02605099
-0.006350085
0.02761351
-0.006191853
0.02905052
-0.005675329
0.03049666
-0.005676539
0.03189456
-0.005505862
0.03319058
-0.005113904
0.03450754
-0.005152073
0.03568354
-0.004612494
0.03681224
-0.004412022
0.03784432
-0.004032744
0.0387794
-0.003630803
0.03972554
-0.003641106
0.04056484
-0.003261446
0.04133739
-0.002928418
0.04199561
-0.002513761
0.04257316
-0.002150502
0.04309144
-0.001892776
0.04346297
-0.001313634
0.04381937
-0.001219079
0.0440741
-0.0007408904
0.04409401
0.0002962672
0.04393438
0.001077501
0.04365688
0.001781753
0.04326578
0.002894821
0.04274317
0.005027733
0.04248767
0.008425049
0.04282454
0.01258077
0.04287684
0.01356747
0.04141534
0.01058084
0.03957121
0.009390436
0.03414773
0.02382925
0.02102091
0.05178326
0.009776743
0.05258494
0.005715457
0.02126593
0.007208482
-0.008847828
0.01189628
-0.02652893
0.01488057
-0.02075902
0.01539197
-0.008384499
0.01365197
-0.00169275
0.01023151
-0.003922861
0.005708004
-0.005615328
0.0008328342
0.01174187
-0.002080765
0.01849736
-0.004162148
0.01045735
-0.007237043
0.01355374
-0.01092795
0.01822181
-0.01344777
0.01231916
-0.0128755
-0.00130246
-0.009602013
-0.01173251
-0.005453857
-0.01570237
0.0006777478
-0.02438767
0.006912418
-0.02530586
0.01165714
-0.01840084
0.01357783
-0.005095097
0.01205157
0.01338104
0.005657441
0.02660109
-0.0005351673
0.01877534
-0.0002384633
-0.001058484
0.001850821
-0.01292563
0.002565165
-0.007881639
0.003670809
-0.006202763
0.00519988
-0.006552426
0.007047652
-0.007920935
0.009263526
-0.009496275
-0.008268139
0.01584988
-0.01325348
-0.009874856
0.01763727
-0.005968223
0.01830061
-0.001308757
0.01825423
0.001464274
0.01718321
0.004928329
0.01539974
0.008147453
0.0131176
0.01069885
0.01037158
0.01306166
0.007065625
0.01533512
0.00263074
0.01712314
-0.002144602
0.01612284
-0.005788688
0.0153835
-0.007527554
0.01147403
-0.008254351
0.006140608
-0.008282614
0.001125295
-0.006920969
-0.007241261
-0.004438773
-0.01665674
-0.002233928
-0.01767564
-0.0009240856
-0.01173301
-0.0009362408
-0.006874996
-4.181518e-05
-0.01017903
0.002956097
-0.01470821
0.006344494
-0.01602965
0.007600113
-0.006579766
0.002129231
0.02277566
-0.008600253
0.06010562
-0.0237779
0.06833036
-0.03692367
0.03582136
-0.04329532
0.01923734
-0.04622729
0.01083965
-0.04866666
0.005786447
-0.05113253
-0.0008737651
-0.05440943
-0.006051086
-0.05800547
-0.003080794
-0.05861517
0.01186538
-0.05528791
0.02355758
-0.05285984
0.01960369
-0.05305417
0.01213622
-0.05322596
0.008859932
-0.05346917
0.005522256
-0.05374623
0.003051389
-0.0539148
0.001629354
-0.05404304
0.0008043245
-0.05390451
-0.0001046652
-0.05384446
-0.0003036518
-0.05329646
-0.00198401
-0.05276142
-0.00225456
-0.05215319
-0.002530381
-0.05137748
-0.003090229
-0.05069432
-0.003009847
-0.04977035
-0.003798607
-0.04881743
-0.004097496
-0.04767553
-0.00482194
-0.04647187
-0.005070959
-0.04528425
-0.005114452
-0.04392641
-0.005786328
-0.04251641
-0.006008088
-0.0411157
-0.006002525
-0.03953739
-0.006793171
-0.03788805
-0.007051213
-0.03618285
-0.007320269
-0.03444362
-0.007404992
-0.03271207
-0.007543
-0.03076328
-0.008271774
-0.02891388
-0.008029921
-0.02690286
-0.00858549
-0.02486854
-0.008768611
-0.02282479
-0.008814744
-0.02074496
-0.008881021
-0.01861429
-0.009246734
-0.01647658
-0.009268654
-0.01429636
-0.009386842
-0.01211633
-0.009491964
-0.009855201
-0.009587377
-0.007723676
-0.009294995
-0.005427663
-0.009827682
-0.003141882
-0.009615304
-0.0009265765
-0.009245677
0.001253799
-0.009161814
0.00364961
-0.01038107
0.006011117
-0.01022498
0.008264928
-0.009930395
0.01048528
-0.009690919
0.01268538
-0.009507528
0.01487796
-0.009486084
0.01701252
-0.009212358
0.01923097
-0.009430536
0.02133161
-0.009079667
0.02334814
-0.00866723
0.02540016
-0.008768971
0.0273975
-0.008571292
0.02933006
-0.008287576
0.03126787
-0.008287897
0.03314454
-0.008068527
0.03486146
-0.007392245
0.03659323
-0.007408312
0.03824879
-0.007161416
0.0398158
-0.006680917
0.04139634
-0.006732611
0.04279521
-0.006011367
0.0441595
-0.005776308
0.04537838
-0.005251631
0.04649738
-0.004749804
0.04763578
-0.004779505
0.04862041
-0.004246069
0.04955483
-0.003862845
0.05031972
-0.003278649
0.05101019
-0.002840966
0.05163515
-0.002517745
0.05205224
-0.001730719
0.05248588
-0.001652718
0.05277781
-0.001032823
0.05275035
0.000323731
0.05255208
0.001275762
0.05222038
0.002113454
0.05179986
0.003315347
0.05128076
0.005546832
0.0510479
0.00865791
0.05115443
0.01247424
0.050823
0.01389889
0.04882677
0.01257707
0.04648252
0.01173468
0.04487122
0.02544055
0.03799026
0.05866423
0.0277391
0.0628361
0.02160905
0.02739598
0.02162285
-0.008861623
0.02444237
-0.02934845
0.02516652
-0.02148316
0.02408637
-0.007304356
0.02094095
0.001452675
0.01505535
0.001962739
0.007035119
0.002404903
0.0002707544
0.01850624
-0.003175948
0.02194406
-0.006494151
0.01377555
-0.01053679
0.01759638
-0.01444604
0.02213106
-0.01677552
0.01464864
-0.01591244
-0.002165539
-0.01174154
-0.01590341
-0.006440103
-0.02100381
0.001039377
-0.03186715
0.008419
-0.03268549
0.01440697
-0.02438881
0.01667371
-0.007361839
0.01530663
0.01474811
0.008725273
0.03318245
0.001209022
0.02629159
0.0009688764
-0.000818339
0.002747952
-0.0147047
0.002791903
-0.00792559
0.003971062
-0.007381921
0.005849356
-0.00843072
0.008230923
-0.0103025
0.01090724
-0.0121726
-0.01061437
0.01912746
-0.0159812
-0.01302112
0.02092332
-0.007764091
0.02145285
-0.001838279
0.02135692
0.001560203
0.0199549
0.006330347
0.01792388
0.01017848
0.01534315
0.01327957
0.01220993
0.01619488
0.008193363
0.01935169
0.002879105
0.0224374
-0.002737309
0.02173925
-0.006834136
0.01948033
-0.008391755
0.01303165
-0.009096551
0.006845405
-0.009439486
0.00146823
-0.009365385
-0.007315362
-0.008916571
-0.01710555
-0.008449012
-0.0181432
-0.008014424
-0.01216759
-0.007839267
-0.007050152
-0.005660949
-0.01235735
-0.002570739
-0.01779842
-0.0005063058
-0.01809408
-0.0005379651
-0.006548106
-0.005919813
0.02815751
-0.01915988
0.07334569
-0.03503978
0.08421026
-0.04540373
0.04618532
-0.0507826
0.02461621
-0.05426836
0.01432542
-0.05734185
0.00885994
-0.0602483
0.002032676
-0.06366847
-0.002630914
-0.06734928
0.0006000164
-0.06820473
0.01272083
-0.06560594
0.02095879
-0.06383498
0.01783273
-0.06401324
0.01231447
-0.06406533
0.008912022
-0.06436719
0.005824124
-0.06465086
0.003335057
-0.06474162
0.001720115
-0.06494719
0.001009894
-0.06465423
-0.0003976245
-0.06455653
-0.0004013571
-0.06396647
-0.002574066
-0.06328383
-0.002937197
-0.06262137
-0.003192842
-0.06159327
-0.004118333
-0.06082401
-0.003779104
-0.05970039
-0.004922231
-0.05858762
-0.005210259
-0.05719591
-0.006213654
-0.0557218
-0.00654507
-0.05432277
-0.006513484
-0.05272661
-0.007382479
-0.05096994
-0.007764758
-0.04929822
-0.007674248
-0.04743403
-0.008657367
-0.04547623
-0.009009012
-0.04339273
-0.009403765
-0.04128615
-0.009511567
-0.03930804
-0.009521111
-0.03688209
-0.01069772
-0.03471689
-0.01019513
-0.0322281
-0.01107428
-0.02985026
-0.01114645
-0.02739817
-0.01126684
-0.0248618
-0.01141738
-0.02235181
-0.01175672
-0.01976228
-0.01185819
-0.01713792
-0.0120112
-0.01458117
-0.01204871
-0.01181835
-0.01235019
-0.009348284
-0.01176506
-0.006546767
-0.0126292
-0.003786381
-0.01237569
-0.00108569
-0.01194637
0.001589044
-0.01183655
0.004478647
-0.01327068
0.0071921
-0.01293843
0.009836191
-0.01257449
0.01253627
-0.012391
0.01522249
-0.01219374
0.01786354
-0.01212713
0.0203947
-0.01174352
0.02312482
-0.01216066
0.02562256
-0.01157741
0.02804969
-0.01109436