/*--------------------------------*- C++ -*----------------------------------*\
| =========                 |                                                 |
| \\      /  F ield         | OpenFOAM: The Open Source CFD Toolbox           |
|  \\    /   O peration     | Version:  2406                                  |
|   \\  /    A nd           | Website:  www.openfoam.com                      |
|    \\/     M anipulation  |                                                 |
\*---------------------------------------------------------------------------*/
FoamFile
{
    version     2.0;
    format      ascii;
    arch        "LSB;label=32;scalar=64";
    class       surfaceScalarField;
    location    "0.58";
    object      phi;
}
// * * * * * * * * * * * * * * * * * * * * * * * * * * * * * * * * * * * * * //

dimensions      [0 3 -1 0 0 0 0];

oriented        oriented;

internalField   nonuniform List<scalar> 
326221
(
-0.001845645
-0.003748117
0.005593762
-0.0008094628
-0.001036182
0.0002011146
-0.001010577
-0.000918194
0.001119309
-0.0007673207
-0.0001508733
-4.270176e-05
-0.0007246189
0.0004867752
-0.000529477
0.0006893321
-0.0002025569
0.0003882246
0.0003011075
7.589685e-05
0.0003123278
0.000130942
-5.504516e-05
0.0002732529
-0.0001423109
0.0001583005
0.0001149524
-6.340261e-05
0.0002217031
-0.0003530317
0.0002896291
-0.0006867006
0.0003336689
-0.0008165743
0.0001298737
-0.0005938735
-0.0002227008
-0.0001046289
-0.0004892446
0.0005101526
-0.0006147815
0.0010147
-0.0005045471
0.001479714
-0.0004650138
0.00181992
-0.000340207
0.001699412
0.0001205087
0.0009900985
0.0007093133
0.0003738802
0.0006162183
0.0004147042
-4.082398e-05
0.0006253826
-0.0002106784
2.160161e-05
0.000603781
-0.0005625791
0.0005841807
-0.0001360203
-0.0004265588
0.0007196705
-0.0008556908
0.001550452
-0.0008307819
0.002279344
-0.0007288919
0.002903429
-0.0006240848
0.003433109
-0.0005296796
0.003821808
-0.000388699
0.003967338
-0.0001455303
0.003489091
0.0004782469
0.001975057
0.001514034
0.0001472627
0.001827794
-0.0005845953
0.000731858
2.755397e-05
-0.0006121493
0.0006941588
-0.0006666048
-0.0001962711
0.0008904299
-0.001455118
0.001258847
-0.0013444
-0.0001107186
4.418457e-05
-0.001388584
0.001015749
-0.0009715641
-0.001285882
0.002301631
-0.001488203
0.0002023214
-0.001630897
0.0001426932
-0.001578206
-5.269062e-05
-0.001560794
-1.741169e-05
-0.001539532
-2.126249e-05
-0.001527281
-1.225103e-05
-0.001517364
-9.916801e-06
-0.001509647
-7.717272e-06
-0.001506292
-3.35506e-06
-0.001502861
-3.430916e-06
-0.001490485
-1.237538e-05
-0.001473499
-1.698585e-05
-0.001461292
-1.220725e-05
-0.00144293
-1.836177e-05
-0.001417303
-2.562745e-05
-0.001389575
-2.772843e-05
-0.001356799
-3.277571e-05
-0.001314928
-4.187099e-05
-0.001267057
-4.787124e-05
-0.001214177
-5.287949e-05
-0.001153906
-6.027126e-05
-0.001087309
-6.659712e-05
-0.001017062
-7.024646e-05
-0.0009429865
-7.407586e-05
-0.0008638718
-7.911466e-05
-0.0007820364
-8.183544e-05
-0.0006974092
-8.462714e-05
-0.0006134289
-8.398036e-05
-0.0005311104
-8.231844e-05
-0.0004474576
-8.365282e-05
-0.0003674496
-8.000801e-05
-0.0002884403
-7.900928e-05
-0.0002069113
-8.152903e-05
-0.0001229394
-8.397188e-05
-4.679837e-05
-7.614104e-05
2.293178e-05
-6.973016e-05
9.049077e-05
-6.755899e-05
0.0001659933
-7.550256e-05
0.0002178894
-5.189605e-05
0.0002885792
-7.068979e-05
0.0003597505
-7.117135e-05
0.0004120844
-5.233388e-05
0.0004659532
-5.38688e-05
0.0005128864
-4.693315e-05
0.0005544905
-4.160412e-05
0.0005976641
-4.317362e-05
0.0006400406
-4.237647e-05
0.000688574
-4.853343e-05
0.0007377351
-4.91611e-05
0.0007856926
-4.795753e-05
0.0008330792
-4.738658e-05
0.0008756192
-4.253996e-05
0.0009156501
-4.003093e-05
0.0009488962
-3.324616e-05
0.0009800652
-3.116896e-05
0.001006942
-2.687694e-05
0.001025918
-1.897566e-05
0.001043188
-1.72702e-05
0.001058585
-1.53975e-05
0.001070614
-1.202889e-05
0.001076572
-5.958014e-06
0.001079316
-2.743892e-06
0.001080412
-1.095845e-06
0.001075394
5.018403e-06
0.00106697
8.424205e-06
0.00106557
1.399328e-06
0.001091606
-2.603594e-05
0.001080959
1.064688e-05
0.001065434
1.552549e-05
0.001043322
2.211199e-05
0.001017462
2.585941e-05
0.0009911988
2.626358e-05
0.0009631854
2.801338e-05
0.0009293422
3.384322e-05
0.0008917965
3.75457e-05
0.000851783
4.001347e-05
0.0008110556
4.072741e-05
0.0007621196
4.893604e-05
0.0007066748
5.544473e-05
0.0006488982
5.777666e-05
0.0005908959
5.80023e-05
0.0005364098
5.44861e-05
0.000492296
4.411378e-05
0.0004605195
3.177648e-05
0.0004379111
2.260837e-05
0.0004240723
1.383885e-05
0.0004218863
2.185943e-06
0.0004229791
-1.092754e-06
0.0003647932
5.818592e-05
0.0001748383
0.0001899549
-2.633226e-05
0.0002011706
-7.103486e-05
4.470259e-05
1.071431e-05
-8.174916e-05
7.143465e-05
-6.072034e-05
7.251671e-05
-1.08206e-06
3.665484e-05
3.586187e-05
-9.100601e-05
0.0001276609
-0.0002922543
0.0002012483
-0.0004028452
0.0001105909
4.313493e-05
-0.0004459801
0.0006695026
-0.0006263677
0.0002922143
0.0003772883
-0.001268974
0.001561189
-0.002665843
0.001396868
-0.002478496
-0.0001873466
-0.001579056
-0.0008994399
-0.0004316425
-0.001147414
0.0007332014
-0.001164844
0.002205665
-0.001472464
0.003201319
-0.0009956544
0.003951809
-0.0007504899
0.004401031
-0.0004492217
0.004464758
-6.372657e-05
0.004103166
0.0003615914
0.003360367
0.0007427987
0.002294559
0.001065808
0.0009032224
0.001391337
-0.0005738284
0.001477051
-0.001547631
0.0009738024
-0.001688051
0.0001404202
-0.001093553
-0.0005944984
8.517657e-07
-0.001094404
0.001108745
-0.001107893
0.001382968
-0.0002742229
0.0007356381
0.0006473299
-0.0001528377
0.0008884758
-0.0007435039
0.0005906662
-0.001145273
0.0004017693
-0.001611823
0.0004665494
-0.00231968
0.0007078573
-0.002801975
0.0004822955
-0.002619607
-0.0001823687
-0.001936532
-0.0006830747
-0.001357033
-0.0005794994
-0.001060226
-0.0002968062
-0.000839541
-0.0002206854
-0.0004480905
-0.0003914505
-9.190389e-05
-0.0003561867
0.0002734577
-0.0003653616
0.0005020151
-0.0002285574
0.000346131
0.0001558841
-0.0001125435
0.0004586746
-0.0004820641
0.0003695206
-0.0007122362
0.0002301721
-0.0006826136
-2.962265e-05
0.0002337432
-0.0009163568
0.0006511471
-0.0004174039
0.001501918
-0.0008507712
0.002058688
-0.0005567702
-0.00462048
0.006679168
-0.004855187
0.0002347075
-0.004295056
-0.0005601315
-0.00405608
-0.0002389755
-0.003823096
-0.0002329842
-0.003645117
-0.0001779788
-0.003481374
-0.0001637436
-0.003337954
-0.00014342
-0.0031283
-0.0002096531
-0.003028677
-9.962391e-05
-0.002947162
-8.151491e-05
-0.00287154
-7.562135e-05
-0.002804572
-6.696858e-05
-0.002739123
-6.544914e-05
-0.002676308
-6.281419e-05
-0.002615913
-6.0395e-05
-0.002562307
-5.360606e-05
-0.002512905
-4.94027e-05
-0.002464944
-4.796092e-05
-0.002417032
-4.791186e-05
-0.002372462
-4.457028e-05
-0.002329284
-4.317728e-05
-0.002289073
-4.021106e-05
-0.002253266
-3.58077e-05
-0.002215949
-3.731701e-05
-0.002178386
-3.756301e-05
-0.002139654
-3.873194e-05
-0.002103612
-3.604193e-05
-0.002071433
-3.217874e-05
-0.002042286
-2.914642e-05
-0.002011224
-3.106216e-05
-0.001980327
-3.089704e-05
-0.00194703
-3.329759e-05
-0.001917862
-2.916752e-05
-0.001890796
-2.706652e-05
-0.001861957
-2.883867e-05
-0.001832371
-2.958603e-05
-0.001801626
-3.074505e-05
-0.001774137
-2.748857e-05
-0.001748987
-2.514986e-05
-0.001783455
3.446759e-05
-0.001772675
-1.078013e-05
-0.001755488
-1.718712e-05
-0.00173794
-1.754813e-05
-0.001722916
-1.502361e-05
-0.001707334
-1.558192e-05
-0.001693899
-1.343527e-05
-0.001681708
-1.219067e-05
-0.001670229
-1.147892e-05
-0.001655837
-1.43927e-05
-0.001641382
-1.445431e-05
-0.001630241
-1.114085e-05
-0.001621565
-8.67596e-06
-0.001615364
-6.201391e-06
-0.001605557
-9.806938e-06
-0.001592898
-1.265935e-05
-0.001581821
-1.107688e-05
-0.001572292
-9.529374e-06
-0.001559483
-1.280844e-05
-0.001547086
-1.239718e-05
-0.001531232
-1.585442e-05
-0.001511878
-1.935312e-05
-0.001489392
-2.248642e-05
-0.001460204
-2.918794e-05
-0.001409477
-5.07267e-05
-0.001343119
-6.635864e-05
-0.001269573
-7.354537e-05
-0.001173036
-9.653692e-05
-0.001040897
-0.000132139
-0.0008849759
-0.0001559215
-0.0007862666
-9.870933e-05
-0.000908026
0.0001217595
-9.2907e-05
-0.000815119
0.000687858
-0.000780765
0.001023442
-0.0003355842
0.001129673
-0.0001062305
0.001178664
-4.899166e-05
0.001220092
-4.142748e-05
0.001246338
-2.624609e-05
0.00125489
-8.551567e-06
0.001263747
-8.857735e-06
0.001286871
-2.312402e-05
0.001310005
-2.313359e-05
0.001329177
-1.917226e-05
0.001341511
-1.233384e-05
0.001352646
-1.113479e-05
0.001363529
-1.088315e-05
0.001377213
-1.368365e-05
0.001389444
-1.223128e-05
0.001397709
-8.2655e-06
0.001406507
-8.797768e-06
0.001418557
-1.205037e-05
0.001429115
-1.055719e-05
0.001438834
-9.718854e-06
0.001451654
-1.282061e-05
0.001461791
-1.013641e-05
0.001476798
-1.500772e-05
0.00149482
-1.802127e-05
0.00150797
-1.315024e-05
0.001517527
-9.557077e-06
0.001528749
-1.122246e-05
0.001542448
-1.369888e-05
0.0015497
-7.25199e-06
0.001515463
3.423693e-05
0.001535506
-2.004288e-05
0.001561074
-2.556763e-05
0.001586529
-2.545565e-05
0.001611739
-2.520964e-05
0.001638909
-2.717007e-05
0.001663866
-2.495672e-05
0.001685706
-2.183997e-05
0.001709503
-2.379762e-05
0.001736681
-2.717795e-05
0.001766552
-2.987016e-05
0.001791241
-2.468914e-05
0.001813827
-2.258585e-05
0.001838374
-2.454698e-05
0.001865541
-2.716778e-05
0.001893001
-2.745925e-05
0.001924055
-3.105415e-05
0.001956148
-3.209303e-05
0.001987874
-3.1726e-05
0.002020147
-3.227284e-05
0.002049095
-2.894853e-05
0.002085057
-3.596171e-05
0.002122613
-3.755599e-05
0.002161233
-3.862028e-05
0.002202614
-4.138132e-05
0.002245067
-4.245225e-05
0.002292372
-4.730563e-05
0.002344517
-5.214509e-05
0.002396667
-5.21496e-05
0.002453133
-5.646607e-05
0.002518259
-6.512566e-05
0.002599548
-8.128941e-05
0.0027721
-0.0001725518
0.002886046
-0.0001139458
0.003014745
-0.0001286996
0.0031578
-0.000143055
0.003339326
-0.0001815253
0.003524607
-0.0001852811
0.003946523
-0.0004219165
0.0001984066
-2.866008e-05
0.0008786767
-0.001665136
0.0008135914
-0.001623016
0.001295214
-0.0008172069
0.001553687
-0.0003647039
0.001733323
-0.0002286269
0.001893272
-0.0002013772
0.00202869
-0.0001616641
0.002137349
-0.00011721
0.002232946
-0.0001044548
0.002331083
-0.0001212608
0.002423155
-0.0001152055
0.002509467
-0.000105485
0.002586951
-8.98174e-05
0.00266058
-8.476358e-05
0.00272937
-7.967305e-05
0.002797628
-8.194168e-05
0.00286208
-7.668363e-05
0.002921901
-6.808672e-05
0.002978943
-6.583992e-05
0.003036218
-6.932488e-05
0.003090594
-6.49338e-05
0.003142321
-6.144574e-05
0.003195073
-6.557198e-05
0.00324379
-5.885384e-05
0.003294761
-6.59789e-05
0.003346316
-6.957629e-05
0.003395187
-6.202081e-05
0.003439877
-5.424683e-05
0.00348549
-5.683575e-05
0.003531138
-5.934737e-05
0.003573307
-4.942093e-05
0.003536883
7.066125e-05
0.00358944
-7.259944e-05
0.003644896
-8.102436e-05
0.00370029
-8.084893e-05
0.00375537
-8.029022e-05
0.003811072
-8.287223e-05
0.003865866
-7.975038e-05
0.003917419
-7.339267e-05
0.003970712
-7.709071e-05
0.004024378
-8.084457e-05
0.004081325
-8.681711e-05
0.004133638
-7.700132e-05
0.004185609
-7.455696e-05
0.004237479
-7.64169e-05
0.00429152
-8.120885e-05
0.004344967
-8.090649e-05
0.004401207
-8.729379e-05
0.004458439
-8.932569e-05
0.004515352
-8.863886e-05
0.004573723
-9.064389e-05
0.004628774
-8.399916e-05
0.004689756
-9.694412e-05
0.004750331
-9.81305e-05
0.00481348
-0.0001017694
0.004877235
-0.0001051367
0.004943312
-0.0001085293
0.005011784
-0.0001157775
0.00508502
-0.0001253811
0.005157849
-0.0001249787
0.005235005
-0.0001336224
0.005318391
-0.0001485116
0.005414741
-0.0001776385
0.005659356
-0.0004171676
0.005791078
-0.0002456671
0.005941207
-0.0002788292
0.006101314
-0.0003031621
0.006311534
-0.0003917447
0.006479718
-0.0003534649
0.006987411
-0.0009296099
0.006098
0.001087818
-0.008194008
0.007223741
0.001204974
-0.007534103
-0.001220036
-0.007317143
-0.0004559357
-0.007056479
-0.0004936482
-0.006861028
-0.0003734293
-0.006675492
-0.0003492805
-0.006514609
-0.0003043025
-0.00622614
-0.0004981226
-0.006109401
-0.0002163623
-0.006007366
-0.0001835502
-0.005909724
-0.0001732635
-0.005819813
-0.0001568791
-0.005730564
-0.0001546989
-0.005645101
-0.000148277
-0.00556049
-0.0001450058
-0.005482573
-0.0001315229
-0.00540605
-0.0001259257
-0.005332665
-0.0001213462
-0.005258184
-0.0001223932
-0.005187692
-0.0001150621
-0.00511735
-0.0001135187
-0.005049943
-0.0001076182
-0.004985287
-0.0001004643
-0.004919921
-0.0001026823
-0.004855313
-0.0001021713
-0.004789712
-0.0001043331
-0.004726983
-9.877122e-05
-0.004665555
-9.360667e-05
-0.004607148
-8.755343e-05
-0.004545771
-9.24385e-05
-0.004486282
-9.038625e-05
-0.004423719
-9.58603e-05
-0.004364851
-8.803627e-05
-0.004305835
-8.608189e-05
-0.004245973
-8.870056e-05
-0.004184997
-9.056226e-05
-0.004123277
-9.246518e-05
-0.004063654
-8.711164e-05
-0.004004886
-8.391742e-05
-0.004045713
7.52945e-05
-0.003999968
-5.6525e-05
-0.003951394
-6.576121e-05
-0.003901334
-6.760831e-05
-0.003853541
-6.281657e-05
-0.003803247
-6.587658e-05
-0.00375434
-6.234198e-05
-0.003703956
-6.257492e-05
-0.003653321
-6.211325e-05
-0.003598972
-6.874167e-05
-0.003543709
-6.971766e-05
-0.003488651
-6.61986e-05
-0.003432447
-6.488045e-05
-0.003375364
-6.328397e-05
-0.00331258
-7.259072e-05
-0.003246034
-7.920619e-05
-0.003176998
-8.011193e-05
-0.003106172
-8.035574e-05
-0.003028393
-9.058779e-05
-0.002947784
-9.3006e-05
-0.002859328
-0.0001043105
-0.002763982
-0.0001146993
-0.002660529
-0.0001259396
-0.002546709
-0.0001430075
-0.002409942
-0.0001874937
-0.002256264
-0.0002200367
-0.002094266
-0.0002355433
-0.001914706
-0.0002760967
-0.001699713
-0.0003471322
-0.001384384
-0.0004712502
-0.001007835
-0.0004752586
-7.398824e-06
0.0006102595
-9.945489e-05
-0.001137172
-0.0005196185
0.001507166
-0.002870215
0.003911785
-0.00370264
0.002229294
-0.003031748
-0.0008582385
-0.002034449
-0.00189674
-0.0006389364
-0.002542926
0.0007522582
-0.002556038
0.002529568
-0.003249773
0.003856052
-0.002322139
0.004909692
-0.00180413
0.005629297
-0.001168827
0.006024275
-0.0004587044
0.006123434
0.0002624326
0.005868107
0.0009981251
0.005201301
0.001732614
0.003875093
0.002717545
0.001702166
0.003649978
-0.0005733405
0.003249308
-0.00175881
0.00132589
-0.001579157
-0.0007741523
-0.0005939222
-0.002079639
0.0004701992
-0.002172015
0.0007674106
-0.0005714344
1.898921e-06
0.001412842
-0.001057705
0.00194808
-0.001907066
0.001440028
-0.003085774
0.001580477
-0.004288613
0.001669389
-0.004785827
0.00120507
-0.004287487
-1.60442e-05
-0.003375083
-0.001094773
-0.002508353
-0.001549804
-0.00184771
-0.001240142
-0.001411282
-0.000733234
-0.001053182
-0.0005787856
-0.0005226739
-0.0009219583
-2.275191e-05
-0.0008561086
0.0004749409
-0.0008630544
0.0008590163
-0.0006126328
0.0009053167
0.0001095837
0.0002496915
0.0011143
-0.0006291335
0.001248346
-0.0009589332
0.0005599719
-0.0006342886
-0.0003542672
0.0003891744
-0.00193982
0.001160273
-0.001188502
0.002165559
-0.001856058
0.0009784358
0.0006303535
0.01488135
-0.003120634
0.002003815
0.00131914
-0.003430914
0.0004529733
-0.003365322
-0.0001182826
-0.003329019
-5.37146e-05
-0.003289307
-6.097458e-05
-0.003252201
-4.935683e-05
-0.00321396
-4.815759e-05
-0.003173435
-4.824312e-05
-0.003132316
-4.44733e-05
-0.003088141
-4.760642e-05
-0.003034596
-6.592032e-05
-0.002974145
-7.743649e-05
-0.002914188
-7.216468e-05
-0.002846262
-8.628739e-05
-0.002769488
-0.0001024021
-0.002687849
-0.0001093668
-0.002599263
-0.0001213614
-0.002500712
-0.0001404221
-0.002394706
-0.0001538772
-0.002282451
-0.0001651349
-0.00216228
-0.0001804425
-0.002035355
-0.0001935217
-0.001904117
-0.0002014844
-0.001768886
-0.0002093074
-0.001629126
-0.0002188743
-0.001487453
-0.0002235083
-0.001343889
-0.000228191
-0.001201379
-0.0002264908
-0.001060682
-0.0002230152
-0.0009188646
-0.0002254704
-0.0007800135
-0.0002188591
-0.0006413416
-0.0002176812
-0.0005001215
-0.0002227491
-0.0003529015
-0.0002311918
-0.0002193409
-0.0002097016
-9.121472e-05
-0.0001978564
3.355861e-05
-0.0001923323
0.0001637312
-0.0002056751
0.0002673666
-0.0001555314
0.0003949086
-0.0001982319
0.0005254757
-0.0002017384
0.0006317599
-0.0001586181
0.0007377269
-0.0001598358
0.0008345645
-0.0001437708
0.0009238984
-0.000130938
0.001013237
-0.0001325118
0.001100624
-0.0001297634
0.001194033
-0.0001419429
0.001289166
-0.000144294
0.001385061
-0.0001438528
0.001482624
-0.0001449491
0.001577286
-0.0001372019
0.001670537
-0.0001332824
0.001757308
-0.0001200172
0.001840824
-0.0001146849
0.001918502
-0.0001045547
0.001986544
-8.70184e-05
0.002049504
-8.022971e-05
0.002106913
-7.280648e-05
0.002158204
-6.331984e-05
0.002201574
-4.932858e-05
0.002239607
-4.077656e-05
0.002274199
-3.568791e-05
0.002302819
-2.360185e-05
0.00232654
-1.529595e-05
0.002351917
-2.397809e-05
0.002429771
-0.0001038899
0.002452098
-1.167974e-05
0.002470638
-3.014881e-06
0.00248061
1.213997e-05
0.002482914
2.355574e-05
0.002478748
3.04289e-05
0.002466364
4.039807e-05
0.00244271
5.749694e-05
0.002409175
7.108093e-05
0.002366437
8.275093e-05
0.002314944
9.222054e-05
0.002248645
0.0001152354
0.00216771
0.0001363792
0.00207239
0.0001530972
0.001960501
0.0001698915
0.001829809
0.0001851781
0.001676715
0.000197207
0.001494632
0.0002138597
0.001293289
0.0002239512
0.001112794
0.000194334
0.000996673
0.0001183072
0.000929957
6.562332e-05
0.0007712423
0.0002169006
0.0004477876
0.0005134095
0.0001925319
0.0004564262
0.0002327012
4.533291e-06
0.0004825724
-0.0003316203
0.0007221567
-0.0003003047
0.0006869442
3.413036e-05
0.0003635855
0.0003592206
-3.086394e-05
0.0005221103
-0.0002716084
0.0004419928
-0.0002848133
0.0001237958
-0.0008302483
-0.0009209834
0.01261275
-0.001774674
-0.0001824918
-0.001148005
-0.001637247
-0.001613421
0.001584725
-0.001137301
-0.0006269934
-0.000257091
-0.001604829
0.0004964411
-0.001283009
0.000998599
-0.0007047148
0.0009122081
0.0003874984
0.0004649767
0.0007595592
0.0003053019
0.0001046296
0.0003798531
-0.000216862
0.000213757
0.0002810485
-0.0001892843
0.0006247444
-0.0007116838
0.0008120286
-0.001145376
0.0007673608
-0.001202376
0.0001868739
-0.0008436674
-0.0005814093
-0.0001802585
-0.001152653
0.0006419567
-0.001436997
0.001334919
-0.001197509
0.001947638
-0.001077733
0.002473906
-0.0008664745
0.002832553
-0.0002381391
0.002581865
0.0009600019
0.001798205
0.001399878
0.001292711
0.00046467
0.001054406
2.762649e-05
-3.525726e-05
0.001693444
-0.0006921806
0.001241104
1.918027e-05
-0.00113792
0.00107932
-0.001915831
0.002134808
-0.001886269
0.003077476
-0.00167156
0.003898699
-0.001445308
0.004614651
-0.001245632
0.005151945
-0.000925993
0.005520237
-0.000513822
0.005699247
0.0002992366
0.004843734
0.002369548
0.002355923
0.004315605
5.521554e-06
0.00308226
-0.000347718
-0.0002589097
-8.481055e-06
-0.001005842
-0.0009638344
0.001845783
-0.001870908
0.00216592
-0.001252416
-0.0007292104
0.0001175798
-0.00275858
0.0009070854
-0.00176107
0.005212531
0.0005406625
-0.008001404
0.02007349
-0.002117454
0.002475625
-0.002033663
-0.001721037
-0.002233809
0.001784871
-0.001558711
-0.001302092
-0.0005739688
-0.002589571
0.0003347274
-0.002191705
0.001036728
-0.001406715
0.001193595
0.0002306314
0.0008528906
0.001100263
0.0005261816
0.0004313387
0.0003936206
-8.430108e-05
0.0001422138
0.0005324553
-0.0003561286
0.001123087
-0.0009993753
0.001455275
-0.001506408
0.001274394
-0.001565336
0.0002458016
-0.001123995
-0.00102275
-0.0003079473
-0.001968701
0.0006953206
-0.002440265
0.001529281
-0.00203147
0.002285672
-0.001834124
0.00286718
-0.001447982
0.003350019
-0.000720979
0.003565705
0.0007443164
0.003158748
0.001806835
0.002401466
0.001221952
0.001503486
0.0009256071
-1.549337e-05
0.003212423
-0.0006110535
0.001836664
0.0002103778
-0.001959351
0.001503646
-0.003209099
0.002746107
-0.003128731
0.00386062
-0.002786073
0.00483656
-0.002421248
0.005685451
-0.002094523
0.006341523
-0.001582065
0.006732244
-0.0009045429
0.006932499
9.89817e-05
0.006720853
0.002581194
0.004893521
0.006142937
0.001747838
0.006227943
5.958701e-05
0.001429341
-0.0003379803
-0.0006082744
-0.001525848
0.003033651
-0.002268797
0.002908869
-0.00140229
-0.001595718
0.0001760768
-0.004336946
0.00065964
-0.002244633
-0.002612739
0.00848491
-0.004216103
0.002922504
-0.004573375
0.0008102455
-0.004521381
-0.0001702768
-0.004469413
-0.0001056829
-0.004409452
-0.0001209351
-0.00434869
-0.0001101192
-0.00428416
-0.0001126872
-0.004215249
-0.0001171546
-0.004143652
-0.0001160698
-0.004068047
-0.0001232113
-0.003982842
-0.0001511259
-0.003889063
-0.0001712155
-0.003794734
-0.0001664937
-0.003692078
-0.0001889436
-0.003579798
-0.0002146821
-0.003461858
-0.0002273063
-0.003336627
-0.0002465929
-0.003200832
-0.0002762164
-0.003057095
-0.0002976142
-0.002906867
-0.0003153637
-0.002748555
-0.000338754
-0.002583421
-0.000358656
-0.002414087
-0.0003708181
-0.002241151
-0.0003822438
-0.002063989
-0.0003960364
-0.00188563
-0.0004018663
-0.001705873
-0.0004079484
-0.001527641
-0.0004047224
-0.001351803
-0.000398853
-0.001174755
-0.0004025191
-0.001000908
-0.0003927058
-0.0008271876
-0.0003914017
-0.0006509603
-0.0003989764
-0.0004673168
-0.0004148353
-0.0003002468
-0.0003767716
-0.0001391354
-0.0003589678
1.827222e-05
-0.0003497399
0.0001787629
-0.0003661658
0.0003093359
-0.0002861044
0.0004686772
-0.0003575732
0.0006325255
-0.0003655867
0.0007676343
-0.0002937269
0.0009034444
-0.0002956458
0.001029059
-0.0002693858
0.001145677
-0.0002475554
0.001261404
-0.0002482387
0.001373489
-0.000241849
0.001491583
-0.0002600364
0.001611021
-0.0002637319
0.001731778
-0.0002646105
0.001855584
-0.0002687546
0.001977445
-0.0002590634
0.002099617
-0.0002554537
0.002215808
-0.000236209
0.00232969
-0.0002285665
0.00243793
-0.0002127946
0.00253605
-0.0001851382
0.002628664
-0.0001728438
0.002714501
-0.0001586439
0.002793201
-0.0001420193
0.002862744
-0.0001188718
0.002925855
-0.0001038872
0.002984616
-9.444906e-05
0.003036502
-7.548785e-05
0.003083743
-6.253666e-05
0.003131268
-7.150368e-05
0.003243829
-0.000216451
0.003290644
-5.849499e-05
0.003336549
-4.891992e-05
0.003377882
-2.919281e-05
0.00341504
-1.360166e-05
0.00344855
-3.081124e-06
0.003476257
1.269123e-05
0.003494865
3.888874e-05
0.003505132
6.081383e-05
0.003505836
8.204671e-05
0.003497312
0.000100745
0.003473963
0.0001385841
0.003436301
0.000174041
0.003383056
0.0002063427
0.00330994
0.0002430069
0.00321078
0.0002843382
0.003076271
0.0003317161
0.002891757
0.0003983734
0.002647214
0.0004684948
0.002334648
0.0005069
0.00195399
0.0004989648
0.001566806
0.0004528076
0.001190319
0.0005933873
0.000811235
0.0008924936
0.0006132401
0.0006544211
0.0007201195
-0.0001023461
0.0009712721
-0.0005827729
0.001182172
-0.0005112044
0.001175748
4.055427e-05
0.0007957795
0.0007391892
0.0002510094
0.00106688
-0.0001477299
0.000840732
-0.0001914995
0.0001675654
0.0002115844
-0.001233332
0.0004925696
-0.001418157
-0.001572475
0.003572211
-0.004121977
0.006461287
-0.004575392
0.00268271
-0.003735475
-0.001698156
-0.002529834
-0.00310238
-0.0008472696
-0.004225491
0.0008284468
-0.004231755
0.002971056
-0.005392383
0.004623412
-0.003974494
0.005922935
-0.003103653
0.006832412
-0.002078303
0.007310982
-0.0009372749
0.007403241
0.0001701735
0.007183412
0.001217955
0.006741723
0.002174303
0.005971357
0.003487911
0.004416777
0.005204559
0.002046068
0.005620018
-0.000144276
0.003516234
-0.001230633
0.0003122047
-0.000938792
-0.00237148
-0.0001707109
-0.002940096
-0.0002475116
-0.0004946337
-0.00126946
0.00243479
-0.002443882
0.003122502
-0.00383744
0.002833585
-0.005420766
0.003163804
-0.006276099
0.002524721
-0.005909823
0.0008387952
-0.004835415
-0.001090452
-0.003805898
-0.00212429
-0.002831579
-0.002524123
-0.002032221
-0.002039501
-0.001513428
-0.001252027
-0.001094342
-0.0009978715
-0.0004534864
-0.001562814
0.0001435105
-0.001453106
0.0007216415
-0.001441185
0.001126514
-0.001017505
0.001302842
-6.674473e-05
0.0007770863
0.001640055
-0.0003137938
0.002339226
-0.0008213498
0.001067528
-0.0004289601
-0.000746657
0.0005603112
-0.002929091
0.001702324
-0.002330515
0.002485413
-0.002639147
-0.0006416075
0.003757374
-0.009282896
0.02352263
-0.01029517
0.002217245
-0.009618981
-0.001896222
-0.009358258
-0.0007166591
-0.009071446
-0.0007804599
-0.008857574
-0.0005873012
-0.008655564
-0.0005512908
-0.008485212
-0.0004746541
-0.008152457
-0.0008308779
-0.008026796
-0.0003420237
-0.00791152
-0.0002988263
-0.007800536
-0.0002842471
-0.007697066
-0.0002603488
-0.007593462
-0.0002583031
-0.007493998
-0.0002477411
-0.007394437
-0.0002445667
-0.007301565
-0.0002243947
-0.007208826
-0.0002186647
-0.007119592
-0.0002105804
-0.007028444
-0.0002135412
-0.006941556
-0.0002019498
-0.006853999
-0.0002010755
-0.006769127
-0.0001924912
-0.006686591
-0.000183
-0.006603094
-0.0001861787
-0.006520797
-0.0001844683
-0.006437167
-0.0001879631
-0.006356414
-0.0001795248
-0.006275821
-0.0001741989
-0.006198235
-0.0001651394
-0.006116712
-0.0001739624
-0.006037941
-0.0001691571
-0.005955165
-0.0001786358
-0.005876221
-0.0001669807
-0.005796092
-0.0001662104
-0.005714985
-0.0001698074
-0.005632603
-0.0001729451
-0.00554896
-0.0001761076
-0.005465879
-0.0001701931
-0.005380933
-0.0001688628
-0.005415276
0.0001096375
-0.005340269
-0.0001315324
-0.005270431
-0.0001355989
-0.005197431
-0.0001406084
-0.005127291
-0.0001329562
-0.005053607
-0.0001395612
-0.004981472
-0.0001344768
-0.004907049
-0.0001369975
-0.004832453
-0.0001367098
-0.00475363
-0.0001475649
-0.004673944
-0.0001494031
-0.004594203
-0.0001459396
-0.004512579
-0.000146505
-0.004429913
-0.0001459494
-0.004341
-0.000161504
-0.004248401
-0.0001718052
-0.00415338
-0.0001751331
-0.00405665
-0.0001770853
-0.003952031
-0.0001952073
-0.003845214
-0.0001998227
-0.003730115
-0.0002194097
-0.003608457
-0.0002363576
-0.003478205
-0.0002561916
-0.0033372
-0.0002840118
-0.003171126
-0.0003535677
-0.002988865
-0.000402298
-0.002797984
-0.0004264244
-0.00258156
-0.0004925209
-0.002321234
-0.0006074577
-0.001974862
-0.0008176225
-0.001559201
-0.0008909198
-0.001110126
-0.0004564733
2.302415e-05
-0.002798286
0.0009602056
-0.002560198
0.001538259
-0.001395261
0.001884023
-0.0007104672
0.002123945
-0.000468549
0.00233584
-0.0004132719
0.002519208
-0.0003450324
0.002670322
-0.0002683241
0.002803283
-0.0002374155
0.002938474
-0.0002564523
0.003065772
-0.0002425037
0.003187065
-0.0002267779
0.003297631
-0.0002003833
0.003403804
-0.0001909363
0.003503935
-0.0001798045
0.003603497
-0.0001815032
0.003698973
-0.0001721593
0.003789086
-0.0001581998
0.003875754
-0.000152508
0.003962406
-0.0001559766
0.004045726
-0.000148254
0.004125553
-0.0001412734
0.004206665
-0.0001466835
0.004282241
-0.0001344298
0.00435978
-0.0001435176
0.004437425
-0.0001472213
0.004512577
-0.0001371731
0.00458307
-0.0001247396
0.004654543
-0.0001283095
0.004724398
-0.0001292016
0.004798134
-0.0001231571
0.004772965
9.583005e-05
0.004853202
-0.0001528365
0.004933787
-0.0001616092
0.005012527
-0.0001595891
0.005090259
-0.0001580217
0.005168033
-0.0001606468
0.005245033
-0.0001567504
0.005318206
-0.0001465652
0.005392924
-0.0001518088
0.005466485
-0.000154406
0.005543741
-0.0001640729
0.005615876
-0.0001491366
0.005688123
-0.0001468037
0.005759376
-0.0001476695
0.005832576
-0.0001544096
0.005904319
-0.0001526492
0.005978525
-0.0001615001
0.006053374
-0.0001641746
0.006127489
-0.0001627534
0.006203621
-0.0001667762
0.006275376
-0.0001557538
0.00635319
-0.000174758
0.006429195
-0.0001741361
0.006508014
-0.0001805879
0.006586529
-0.0001836523
0.006667169
-0.0001891689
0.00674915
-0.0001977589
0.006835668
-0.0002118986
0.006921065
-0.000210376
0.007010206
-0.0002227628
0.007105326
-0.0002436316
0.007208317
-0.0002806303
0.007491775
-0.0007006258
0.007630227
-0.0003841183
0.007792186
-0.0004407884
0.00796585
-0.0004768258
0.00819746
-0.0006233553
0.008394427
-0.0005504316
0.008923145
-0.001458329
0.00200956
1.448147e-05
0.001187814
-0.004000582
0.001020866
-0.003566583
0.001680475
-0.002054869
0.002108778
-0.00113877
0.002414963
-0.0007747346
0.00268524
-0.0006835482
0.002920818
-0.000580611
0.003117358
-0.0004648641
0.003289838
-0.0004098953
0.00346301
-0.0004296243
0.003624978
-0.0004044719
0.003779295
-0.0003810951
0.003920476
-0.0003415643
0.004055735
-0.0003261945
0.004183443
-0.0003075133
0.004309563
-0.0003076234
0.004430968
-0.0002935636
0.00454528
-0.0002725121
0.004655632
-0.0002628595
0.004765351
-0.0002656962
0.004870944
-0.0002538464
0.004972138
-0.0002424676
0.005074908
-0.0002494536
0.005170485
-0.0002300072
0.005268405
-0.0002414373
0.00536639
-0.0002452069
0.005460928
-0.0002317105
0.005550534
-0.0002143455
0.005640813
-0.0002185887
0.005729015
-0.0002174034
0.00582375
-0.0002178923
0.005800145
0.0001194349
0.005899194
-0.0002518855
0.006000112
-0.0002625274
0.006097544
-0.000257021
0.00619374
-0.0002542177
0.006290023
-0.0002569294
0.006385062
-0.0002517893
0.006475666
-0.0002371694
0.006567843
-0.0002439854
0.006658514
-0.0002450772
0.00675339
-0.0002589489
0.006842161
-0.0002379075
0.006931043
-0.0002356855
0.007018835
-0.0002354624
0.007108542
-0.0002441159
0.007196379
-0.0002404868
0.007287142
-0.000252263
0.007378361
-0.0002553933
0.007468715
-0.0002531072
0.007561569
-0.0002596303
0.007648705
-0.0002428894
0.007743494
-0.0002695472
0.007835319
-0.000265961
0.007930291
-0.0002755608
0.008025095
-0.0002784555
0.008121495
-0.0002855696
0.008219883
-0.0002961469
0.008322884
-0.0003148992
0.008424284
-0.0003117765
0.008529799
-0.0003282778
0.008642232
-0.0003560642
0.008945354
-0.0005837523
0.0090977
-0.0008529715
0.009256804
-0.0005432221
0.009446186
-0.000630171
0.009655907
-0.000686547
0.009928479
-0.0008959268
0.01020868
-0.000830633
0.01069154
-0.001941188
0.009955188
0.002745912
-0.01229097
0.0114805
0.003027713
-0.01166977
-0.002517418
-0.01130218
-0.001084253
-0.01096456
-0.001118078
-0.01070576
-0.0008461037
-0.01046698
-0.0007900684
-0.01026889
-0.0006727446
-0.01008042
-0.001019349
-0.00972545
-0.000696991
-0.009589511
-0.0004347658
-0.009457961
-0.0004157967
-0.009335272
-0.0003830377
-0.009212199
-0.0003813765
-0.009093732
-0.000366208
-0.008975055
-0.0003632433
-0.008863688
-0.0003357625
-0.008752651
-0.000329701
-0.008645397
-0.0003178341