/*--------------------------------*- C++ -*----------------------------------*\
| =========                 |                                                 |
| \\      /  F ield         | OpenFOAM: The Open Source CFD Toolbox           |
|  \\    /   O peration     | Version:  2406                                  |
|   \\  /    A nd           | Website:  www.openfoam.com                      |
|    \\/     M anipulation  |                                                 |
\*---------------------------------------------------------------------------*/
FoamFile
{
    version     2.0;
    format      ascii;
    arch        "LSB;label=32;scalar=64";
    class       volScalarField;
    location    "0.58";
    object      p;
}
// * * * * * * * * * * * * * * * * * * * * * * * * * * * * * * * * * * * * * //

dimensions      [0 2 -2 0 0 0 0];

internalField   nonuniform List<scalar> 
4529
(
-2.680527e-06
-2.504547e-06
-1.271431e-06
-6.080666e-06
-2.77417e-06
-8.76747e-06
-1.615433e-06
-3.809226e-06
-2.820068e-06
-1.419742e-06
1.343055e-06
-1.579003e-06
-3.71225e-07
-1.29503e-06
-1.014077e-06
-3.012385e-07
-3.152402e-06
-1.35709e-06
2.110997e-07
-2.650406e-06
-2.865819e-07
-1.053018e-06
-9.167814e-07
-1.832286e-06
-2.118934e-07
-2.404926e-06
-5.422667e-06
-3.995211e-06
-4.436621e-06
-5.140204e-06
-6.531426e-07
-1.177127e-06
-7.614285e-07
-4.166378e-07
1.354328e-07
-2.105578e-06
-1.750727e-06
-2.681795e-06
-5.485042e-06
-1.574697e-06
-7.13914e-07
-6.86829e-07
-1.62921e-06
-4.091006e-07
-8.064061e-08
-6.169162e-07
-1.203139e-06
-2.089436e-06
2.283407e-07
-2.544205e-06
-6.918542e-06
-1.674991e-06
-8.172298e-06
-7.460563e-07
-3.891357e-06
-3.24487e-06
-2.538949e-06
2.327372e-06
-7.620686e-06
-8.961705e-06
-4.057345e-06
-3.929788e-07
-9.360558e-07
-9.103151e-06
-1.759462e-06
-6.991251e-08
-2.487561e-06
-1.013283e-06
-1.63582e-06
1.61519e-06
-1.867901e-06
-2.230427e-06
-4.263918e-06
-6.478451e-07
-9.835386e-06
-6.446573e-06
-1.352362e-06
8.78951e-07
-8.409854e-06
-2.551892e-06
-4.150672e-06
-1.812852e-06
3.848627e-07
-2.271274e-06
-2.248331e-06
-6.857106e-07
-1.332915e-07
5.040096e-08
-4.065548e-07
-3.273787e-06
-8.731745e-06
-7.539649e-07
2.50209e-07
-1.462686e-06
-9.91415e-07
-1.743342e-06
-6.446013e-06
-4.868276e-06
-6.984125e-06
-3.556263e-06
-1.174852e-06
-5.903399e-06
-2.251483e-06
-4.588517e-06
-1.256629e-06
-3.273752e-07
-7.911403e-06
-1.845114e-07
7.472127e-07
-1.31742e-06
-1.738872e-07
-1.184292e-06
-5.351469e-06
-5.092275e-06
-4.374205e-06
-9.124861e-07
-2.025527e-06
-3.6716e-06
-1.613429e-06
-7.705625e-07
-3.747253e-06
-2.16321e-06
-1.845326e-06
-2.381686e-06
-9.310901e-07
-2.93048e-06
-3.693293e-06
-9.771115e-08
-5.645443e-07
-5.368639e-06
-1.805371e-06
-4.666971e-06
-9.8415e-06
-1.115184e-06
-1.331317e-06
1.174152e-07
2.242076e-07
-4.502808e-07
-2.047251e-06
-2.787964e-06
-4.059614e-06
-3.163494e-06
-1.267736e-06
-3.99782e-06
-5.840269e-06
-3.448269e-06
-1.336731e-06
-3.71348e-06
-3.312557e-06
-1.853047e-06
-1.95695e-06
-4.57083e-06
-4.315645e-06
-8.266127e-07
-5.373055e-06
-7.884338e-07
-6.849929e-07
-3.844766e-06
-1.512183e-06
-1.195593e-06
-8.213118e-08
-5.448051e-07
-6.467248e-06
-5.160569e-06
-2.26666e-07
-1.945091e-07
-3.98725e-07
-2.850355e-06
-4.835591e-06
-2.400812e-06
-7.412668e-06
-1.67086e-06
-1.018687e-05
-1.411833e-07
-1.33837e-06
-3.714489e-06
-2.759162e-06
-9.517027e-06
-1.022657e-05
-2.833327e-07
-1.649348e-08
-3.124599e-06
-1.781335e-06
-1.992847e-06
1.145658e-06
-1.084594e-05
-2.869381e-06
-9.114778e-07
-5.727881e-06
-1.12324e-06
-2.480078e-06
-8.197854e-06
8.451896e-07
-4.945567e-06
-1.788351e-06
-3.167655e-07
9.472756e-08
-5.521122e-06
9.319463e-07
-2.431084e-07
-1.410687e-06
5.392282e-07
-1.615025e-06
-8.13098e-06
-8.927281e-07
-2.149616e-06
-6.676787e-06
-2.554644e-06
-3.251895e-06
-9.042519e-06
-4.641933e-07
-3.240965e-06
-1.608134e-06
-5.564871e-06
-2.765873e-06
-3.193305e-06
-2.202776e-06
-1.217971e-06
-2.31386e-06
4.8895e-06
-3.213518e-06
-4.086352e-07
-2.843236e-06
-8.536757e-07
-1.827513e-06
3.210168e-07
-7.830383e-07
-2.79239e-06
-7.671657e-06
-9.647158e-07
-6.121727e-06
-8.514521e-06
-1.283585e-05
-9.584503e-07
-3.19377e-06
-3.789642e-06
-3.182341e-06
-5.416763e-06
-8.693729e-08
-1.597428e-06
-2.86686e-06
-1.865824e-07
-5.740471e-07
-6.681797e-06
1.228662e-06
-3.800286e-06
-8.848528e-06
-1.05218e-06
-2.066765e-06
-8.995826e-08
-6.76003e-06
6.50768e-07
-3.297371e-06
2.677648e-06
-1.024128e-06
-2.06055e-06
-4.670523e-06
-7.405941e-06
-5.699707e-06
-1.147651e-06
8.214608e-07
-7.084251e-07
-1.038037e-06
-1.62247e-06
-1.367954e-06
-6.186764e-06
-1.647394e-06
-5.919229e-06
-3.207117e-06
-5.387642e-07
-2.477355e-06
-5.507339e-07
-2.009196e-06
-5.690589e-06
-7.579669e-06
-3.980191e-07
-4.971563e-07
-2.567365e-07
-6.130769e-06
-1.305921e-05
-1.61046e-06
-1.585039e-06
-2.358115e-07
-4.154339e-06
-7.180897e-08
-1.476223e-06
-2.612026e-06
-4.803503e-07
-3.146605e-06
-1.377463e-06
-5.764207e-06
-1.278114e-06
-1.33927e-06
-1.523921e-06
-2.466306e-06
-1.363542e-06
-1.049145e-06
-3.50047e-06
-1.322728e-06
-2.397607e-06
-1.042045e-06
-1.622351e-06
-3.048207e-06
2.237547e-06
-2.476122e-06
-3.500248e-06
-5.598798e-06
-9.285467e-07
-3.717938e-06
-1.498461e-06
-1.098066e-06
-2.329422e-06
1.943524e-07
-1.566742e-06
-4.146593e-06
-2.367795e-06
-1.618659e-06
-1.209309e-06
-8.532745e-06
4.687783e-07
-1.579354e-06
6.764174e-07
-2.288218e-06
-4.025533e-06
-1.883119e-06
-3.436859e-06
-4.646087e-06
-4.970158e-07
-8.534221e-07
-6.115938e-07
-2.286087e-07
-6.935921e-07
-4.706941e-07
-4.921801e-07
-9.124244e-07
-5.039403e-06
-4.26951e-06
-3.331845e-06
-3.814811e-07
-8.370762e-07
-8.955166e-07
-4.874725e-06
1.117548e-06
-5.42864e-06
-5.827518e-06
1.360322e-07
-1.801876e-06
-7.039507e-06
-5.119975e-06
-1.424011e-06
-1.378624e-06
1.489424e-06
-1.454751e-06
-1.527675e-06
-8.915552e-07
-3.488313e-06
-4.902162e-06
2.912613e-06
-1.817955e-06
-7.561698e-07
-6.232608e-07
-1.986692e-06
-2.716294e-06
-8.847867e-07
-5.334307e-07
-7.297939e-07
-7.685482e-07
-2.922566e-06
-1.698509e-06
-3.742795e-06
-4.545382e-07
-9.505957e-07
-2.647883e-06
4.144671e-07
-1.843051e-06
-2.688899e-07
6.186443e-07
-7.301357e-06
-1.000113e-05
-2.620812e-06
-1.089935e-06
-5.101633e-07
3.274331e-07
-3.800491e-07
-2.020767e-06
-3.577876e-07
-5.847885e-06
1.059713e-06
-2.945833e-06
-1.479029e-07
-7.411502e-06
-2.422208e-07
2.738471e-06
-2.372543e-06
-2.721303e-06
-2.393566e-06
-2.658901e-06
-3.821393e-06
-3.44469e-06
-3.475474e-06
-1.785639e-06
4.681309e-07
-6.904277e-06
-6.444024e-06
-6.720783e-06
-1.320695e-06
-6.780045e-06
-1.485622e-07
-8.539792e-08
-1.744891e-06
-2.846968e-06
-1.175514e-06
-5.253912e-06
-2.183933e-06
-6.481832e-07
-1.294939e-06
-7.483702e-07
-2.990486e-06
-6.834131e-07
1.895585e-07
-7.679054e-06
-3.35048e-06
-7.515235e-06
-4.292418e-06
-1.02306e-05
-8.280801e-06
-6.682308e-06
-3.518377e-06
-3.189647e-06
-2.395417e-06
-5.754778e-07
-1.279346e-06
-9.972792e-06
-8.041716e-06
4.724897e-07
-1.222785e-06
3.587806e-07
-7.247964e-08
-2.595763e-06
-2.373893e-07
-3.192769e-06
-7.169645e-07
-7.002528e-06
-1.54486e-06
-1.492191e-06
-1.54454e-06
-8.568841e-08
-1.565065e-06
-1.348982e-06
-2.492591e-06
-3.980685e-06
-2.806693e-06
-2.494224e-06
-1.644461e-06
-1.486699e-06
-6.312616e-06
-9.856675e-07
-5.647016e-06
-1.850155e-06
-1.13895e-06
-7.102209e-07
-2.466066e-06
-1.31257e-06
7.631082e-07
-5.731732e-06
-3.786983e-06
-6.962592e-07
-6.436986e-07
-7.227177e-07
-4.3923e-07
-5.575009e-07
6.311702e-07
-2.304006e-06
-1.496779e-06
-4.571659e-06
-1.725509e-07
-4.839537e-06
-1.299538e-06
-1.920359e-07
-1.016219e-06
-2.627724e-07
-2.835234e-06
-3.678376e-06
-5.179259e-07
-2.255677e-06
-1.760795e-07
-2.92076e-06
-4.006267e-08
-2.02304e-06
-4.693836e-06
-1.28571e-05
-2.201438e-06
-2.173717e-06
-3.833e-07
-1.296315e-06
-2.863931e-06
-2.666555e-06
-3.469255e-06
-1.632672e-06
-4.89697e-06
-2.616671e-06
-6.779058e-07
-3.405724e-06
-5.418504e-06
-1.968428e-06
-7.889888e-07
-4.158455e-07
-4.046083e-07
-3.427281e-07
-6.109491e-07
-4.034662e-07
-8.216741e-07
-3.595962e-06
7.359664e-07
-9.326798e-07
-4.527431e-06
-1.278735e-06
-2.802059e-06
-6.301684e-07
-1.661342e-06
-1.179359e-06
-3.982147e-07
-2.51832e-06
-9.281849e-07
-1.161937e-06
-1.723862e-08
-1.069341e-06
-2.257163e-06
-2.157204e-08
-9.111387e-08
-1.668037e-06
-9.758225e-07
-8.636028e-07
-1.02107e-06
-4.310714e-07
-4.762517e-06
-1.091644e-07
6.55532e-08
-1.795459e-07
1.043444e-06
-1.139735e-05
-6.496091e-07
9.97833e-07
-7.494083e-07
-3.861685e-06
-3.265142e-07
-1.549327e-06
-3.214914e-06
-1.391423e-06
1.043845e-06
-2.538816e-06
-1.720874e-06
-2.028185e-06
-2.32448e-06
-1.542647e-06
-2.57572e-06
-5.579163e-06
-5.373008e-06
6.108358e-07
-4.10125e-06
-5.212737e-07
-1.156338e-06
-4.173643e-06
-7.624637e-06
-4.150553e-06
-4.095345e-07
-1.150924e-06
-4.982507e-06
-3.81719e-06
-7.070135e-06
-1.604501e-06
6.01114e-07
-2.41537e-07
-4.19709e-06
-2.134415e-06
-2.526764e-06
-2.284165e-06
-4.476448e-06
-4.579388e-07
-9.57751e-08
-2.788108e-06
-4.627382e-06
-3.065449e-06
-1.350117e-06
-1.348068e-06
-3.494342e-06
-1.675581e-06
-4.398275e-06
-1.4944e-06
-1.385788e-06
-2.290823e-07
-4.062013e-06
-1.937678e-06
3.225256e-06
-3.996502e-06
-1.004913e-06
-2.423728e-06
-2.193705e-06
-8.287936e-08
4.769452e-07
-2.134433e-07
-1.610356e-06
-5.419398e-07
-1.33463e-06
-1.021544e-06
-5.101657e-07
-3.166352e-07
-1.773064e-06
-5.952951e-07
-2.555429e-06
-6.878984e-06
-1.977453e-06
-2.409106e-06
-1.132151e-06
-1.980203e-06
2.259469e-06
2.871599e-07
-2.208482e-07
-6.330021e-06
-1.256246e-06
-1.050717e-06
-4.410193e-06
-4.632961e-06
-1.177662e-06
-5.093733e-06
-4.417279e-07
-1.028195e-07
-1.418401e-06
-4.556051e-06
-1.108235e-06
-4.292777e-06
-7.035799e-06
-7.147593e-06
-1.006008e-06
-6.395664e-07
-1.022518e-07
6.097028e-07
-1.073721e-06
-2.123949e-06
-1.644171e-06
-9.560518e-07
-6.186434e-08
3.149629e-07
2.441418e-06
-3.262499e-06
-2.929207e-07
-2.934808e-06
-4.133139e-06
-6.578221e-07
-2.201672e-06
-1.750859e-08
-4.745312e-06
-4.742559e-06
-7.055444e-06
-1.371664e-06
-2.339914e-06
-4.52947e-07
-6.037731e-06
-8.934544e-07
-1.009405e-05
-1.744789e-06
-2.472618e-06
-5.661964e-06
-1.211237e-06
-5.298481e-06
-3.388187e-06
-2.660744e-06
-1.513529e-06
-1.032159e-05
-1.61365e-06
-1.967763e-06
2.025136e-07
-1.559672e-06
-2.057064e-07
-4.342126e-06
-1.13277e-06
-1.124092e-06
1.284103e-07
-3.316354e-06
-1.612392e-06
-1.247949e-06
-1.3894e-06
-1.588456e-06
-1.498937e-06
1.922459e-08
-9.369639e-07
6.742971e-07
-2.615727e-06
-1.531718e-06
-7.28454e-06
-3.095058e-06
-2.809064e-06
-3.943994e-06
-4.116609e-06
-6.389125e-07
-1.222885e-06
-9.419208e-07
-4.893817e-06
-6.065073e-06
-6.015531e-07
-7.463263e-07
-6.002248e-07
-1.022597e-05
-1.010393e-06
-3.405388e-07
1.261003e-06
-2.669626e-06
-1.796686e-06
-1.573673e-06
-8.221151e-06
-7.359326e-06
-2.535022e-06
-7.544009e-06
-1.088982e-06
-1.925576e-06
-6.045063e-06
-1.252717e-06
-1.920622e-06
-2.891953e-06
-1.785779e-06
-6.065979e-06
-1.362919e-06
-2.903429e-06
-1.621929e-06
-7.192463e-07
-4.318678e-06
5.683598e-07
-1.378984e-07
2.150469e-06
-1.854601e-06
-1.764092e-06
-3.373962e-06
-2.029328e-06
-1.568331e-06
-3.355221e-06
-2.949219e-06
-1.639802e-06
-6.408753e-06
-2.935946e-06
-7.363024e-06
-5.044311e-07
-6.514752e-06
-6.772512e-06
-8.767668e-06
-6.171244e-06
-2.174227e-06
-1.12467e-06
-1.551172e-06
-1.410371e-06
-9.669209e-06
-1.371216e-06
-2.217312e-06
-7.169339e-06
-2.66239e-06
-5.953358e-06
-2.730525e-06
-8.674553e-07
-1.120722e-05
-8.734869e-06
-9.741591e-06
-5.694839e-06
-4.430225e-06
-6.785367e-07
-8.024957e-06
-1.563464e-06
-5.661726e-06
-7.361427e-06
-1.863762e-06
-5.244575e-06
-5.609449e-06
-3.991526e-06
-6.327855e-06
-7.976286e-06
-3.402425e-06
-2.101529e-06
-1.0887e-06
-5.353151e-07
-3.568534e-07
-3.885065e-06
-4.709934e-06
-1.053893e-05
-2.905083e-06
-7.17891e-07
-1.583055e-06
-7.296402e-07
-1.211066e-06
-6.899113e-06
-3.607483e-06
-1.487052e-06
-1.527571e-06
-2.9199e-06
-1.684823e-06
-4.948492e-06
-1.883073e-08
-1.719048e-06
-5.884087e-07
-1.365639e-06
-8.041083e-06
-2.311264e-06
-2.43577e-06
-1.614716e-07
-1.295498e-06
-6.01841e-06
-1.062516e-05
-3.40921e-06
-2.207782e-06
-1.292484e-06
-1.868726e-06
-1.506591e-06
-9.985014e-08
-6.970355e-07
-1.073574e-06
-4.699804e-07
-1.181113e-06
-1.32077e-06
-2.347647e-06
-1.494349e-06
-1.64717e-06
-4.014353e-06
-5.732231e-07
-7.722862e-07
-6.02841e-06
-1.237529e-05
-1.062719e-07
4.531502e-07
-2.387847e-06
-1.236541e-06
-1.089253e-06
-8.331277e-07
-3.561588e-06
-4.012314e-07
-1.15791e-06
-3.405044e-06
-3.444798e-06
-2.12229e-06
1.358328e-08
2.749349e-07
-3.656074e-06
-4.597328e-07
-4.021333e-06
-2.531917e-06
-4.835767e-06
-2.826667e-06
-6.55043e-06
-3.779931e-06
-7.952246e-06
-7.797218e-06
-3.996826e-06
-5.329731e-06
-1.932068e-06
-1.292767e-07
2.832359e-07
-1.350399e-06
-1.770638e-06
-1.811757e-06
-2.878328e-06
-1.184107e-06
-1.343781e-06
-1.325678e-06
-1.483611e-06
-4.556414e-06
-3.003961e-06
-4.012695e-07
-1.726705e-06
-1.141428e-06
-1.647178e-06
-8.135207e-06
-5.654214e-06
-5.107866e-06
-6.980886e-06
-6.326787e-06
-4.00896e-06
-2.920012e-06
-8.711009e-06
-3.331583e-06
-7.058781e-06
6.286491e-07
-7.482282e-06
-1.031968e-06
-2.6694e-06
-6.85469e-07
-5.966745e-06
-9.263629e-07
-4.00014e-06
-6.155418e-06
-9.342346e-06
-3.665826e-06
-2.845404e-06
-2.083664e-06
-1.085959e-06
-1.462847e-06
-4.705425e-07
-4.13217e-06
-4.259679e-06
-2.416445e-06
-7.550426e-06
-8.325277e-06
-7.372677e-06
-6.207807e-06
-9.584875e-06
-6.82185e-07
-1.33382e-06
-2.632473e-07
-2.428508e-07
-2.400993e-06
-2.067412e-06
-2.942677e-06
-2.361312e-06
-5.758576e-06
-4.619175e-06
-4.252385e-06
-5.973634e-06
-5.275399e-06
-3.19634e-06
-4.066533e-06
-6.072514e-06
-4.449384e-06
-7.641322e-08
-1.741005e-07
-5.45276e-06
-7.502469e-06
-9.518778e-06
-7.365342e-06
-2.315814e-06
-2.455601e-06
-9.296579e-06
-9.982747e-06
-1.029559e-05
-2.239094e-06
-4.361064e-07
-5.417201e-06
-5.86108e-06
-1.08613e-06
-1.470647e-06
-1.138369e-06
-4.244303e-06
-7.654846e-06
-5.303834e-06
-5.504059e-06
-5.123288e-06
-5.50554e-06
-6.837755e-06
-6.058318e-06
-3.241049e-07
-6.133798e-06
-6.755311e-06
6.745271e-07
-4.710151e-06
-3.619805e-06
-3.773612e-06
-6.432057e-06
-3.185356e-06
-1.592184e-06
-5.940053e-06
-9.010725e-06
-8.763422e-07
-4.46547e-07
-8.607074e-06
8.652586e-07
-5.660998e-06
-1.265647e-06
-2.572392e-06
-5.209044e-06
-1.958137e-06
-4.033549e-07
-3.713121e-07
-6.146206e-06
-3.112949e-06
-5.051609e-06
-7.186555e-06
-3.928412e-06
-4.296032e-06
-4.552259e-06
-5.809089e-06
-1.817923e-06
-2.543909e-06
-2.920511e-06
-1.921672e-06
-4.350012e-06
-1.048204e-05
-9.127812e-06
-3.645536e-06
-1.152358e-06
-8.869341e-06
3.569553e-07
-7.731215e-06
-2.491768e-06
1.215728e-06
-3.831916e-07
-3.804662e-06
-9.21209e-06
-7.711475e-07
-5.689584e-07
-1.146282e-06
-6.637954e-06
-1.091915e-05
-1.373514e-06
-1.93478e-06
2.097292e-06
-2.626606e-06
-2.358717e-06
1.083615e-06
-1.739916e-06
2.358537e-07
-5.591839e-06
-2.286026e-06
-4.720552e-06
-8.88871e-07
-1.185208e-06
-4.592157e-06
-1.095457e-05
-7.471995e-07
-8.490149e-06
-5.78517e-06
-5.571518e-06
-3.30582e-06
-8.657568e-07
-6.182706e-06
-1.744377e-06
-2.284322e-06
-2.129306e-06
-2.170965e-06
8.530771e-07
-1.056944e-05
-1.04585e-05
-8.388401e-06
-1.214261e-05
-1.060878e-05
-1.064131e-05
-1.291756e-05
-4.356473e-06
-8.021065e-06
-1.24879e-07
-1.344809e-07
-8.741185e-08
-1.114586e-07
-4.133003e-06
-2.771405e-06
-6.229427e-06
-1.487299e-06
-1.139431e-06
-1.290228e-06
-2.244803e-06
-1.388663e-06
-6.801528e-07
-6.305704e-07
-7.145663e-07
-5.180461e-07
-6.84241e-07
-6.616388e-07
-5.44528e-06
-2.627253e-06
-1.385532e-06
-9.176736e-07
1.300092e-06
-1.011815e-06
-2.774512e-07
-2.205389e-06
-6.55222e-06
-2.187543e-06
-7.527487e-06
-9.415252e-06
-6.631709e-06
-2.953867e-06
-2.028561e-06
-5.733659e-06
-3.620513e-06
-7.535681e-06
-3.446912e-06
-8.20573e-07
9.01653e-07
-2.961767e-06
-4.688463e-06
-7.773869e-07
-8.834153e-07
9.54964e-08
-2.268396e-06
-8.225268e-07
-9.279941e-07
-1.176395e-06
-5.27364e-07
-4.316473e-07
-8.19214e-07
-1.222085e-07
-1.770565e-06
-8.699332e-08
-6.772937e-07
-7.421263e-07
-1.403161e-07
-2.177535e-07
-1.594692e-07
-3.217082e-06
-2.05422e-06
-2.830801e-06
-7.438999e-06
-9.711077e-06
-6.723606e-06
-1.195157e-06
-9.930608e-06
-6.61112e-06
-8.629185e-06
-1.150132e-06
-1.349322e-06
-5.231888e-06
5.159662e-07
-4.247431e-07
-2.101589e-06
-1.56189e-06
-1.620384e-06
-2.643778e-06
-1.838543e-06
-2.671009e-06
-1.799072e-07
-3.71254e-06
5.208e-07
-8.052638e-07
-7.815518e-07
-1.408911e-06
-1.386886e-06
-1.691162e-06
-7.270113e-06
-2.367546e-06
-3.024605e-06
-4.063691e-06
-4.659318e-06
-5.138551e-06
-6.111261e-06
-9.700706e-06
-9.709701e-06
-9.480225e-07
-9.740027e-06
-2.704e-07
9.792535e-10
-1.583531e-07
-3.493142e-07
-2.546872e-07
1.6142e-07
-6.945047e-06
-6.707721e-06
-2.068154e-06
-3.714408e-06
-3.286533e-06
-5.644087e-06
-1.991803e-06
-2.090547e-06
-2.098123e-06
-6.491412e-06
-7.279625e-07
-1.008285e-05
-3.456241e-06
-1.685546e-06
-4.736588e-07
-1.87254e-06
-2.890117e-06
-6.052045e-07
-6.297257e-07
-3.767556e-06
-1.46985e-06
-1.992284e-06
-2.614703e-06
-2.318105e-06
-1.766129e-06
-8.241559e-08
-3.006301e-06
-3.044552e-06
-2.448018e-06
-1.489774e-06
-2.782367e-06
-2.876511e-06
-1.506026e-06
-5.795942e-07
-5.625144e-06
-8.409997e-07
-6.024323e-06
-2.827554e-06
-4.014998e-06
-3.893809e-06
-1.105384e-06
-2.133532e-06
-2.194467e-06
-7.221211e-06
-1.459737e-06
-7.350152e-07
-1.20894e-06
-6.186303e-06
-1.365305e-06
-1.585107e-06
-4.355821e-07
-1.017835e-06
-1.792931e-06
-1.697264e-06
3.728921e-07
-6.636946e-06
-9.242973e-06
-7.098985e-06
-1.593327e-06
5.196041e-07
4.786961e-07
-1.120531e-06
-8.054837e-07
-1.30027e-06
-9.399671e-07
-2.323458e-06
-1.899077e-06
-2.293968e-06
-4.668823e-06
-4.95542e-06
-2.786751e-06
-2.565907e-06
-3.304315e-06
-1.24341e-06
-1.94626e-06
-2.383251e-06
-7.187185e-06
-4.828637e-06
-4.4078e-06
1.647267e-07
8.373036e-07
-7.525248e-07
-4.596923e-06
-6.332546e-06
-1.363272e-06
-9.104942e-07
-2.007264e-06
-1.583269e-06
-5.687105e-07
-1.137892e-06
-1.003302e-06
-4.22042e-07
-1.332415e-06
-7.504188e-07
-9.506509e-07
-2.155801e-06
-1.154649e-06
-5.549344e-06
-2.66709e-06
-1.746508e-06
-2.797536e-06
2.843374e-08
-8.743602e-07
-6.420216e-07
-1.039413e-06
-5.714437e-06
-6.643319e-06
-1.287229e-06
-7.918841e-07
-1.318676e-06
-1.453947e-07
-1.915705e-06
-2.542509e-07
-3.868585e-06
-3.101441e-06
-3.646572e-06
-1.07809e-05
-6.995289e-06
-1.277217e-06
-4.976501e-06
-7.659381e-06
-7.642493e-06
-9.132601e-07
-5.52507e-07
-1.215732e-06
-3.73368e-07
-2.884206e-06
-5.40963e-07
-4.509078e-08
-1.86729e-06
-1.062843e-05
-7.252319e-07
-5.203268e-07
-1.549613e-06
-1.197298e-06
-2.297322e-06
-9.793441e-07
-4.453328e-06
-6.545439e-06
-1.554357e-06
-4.951056e-06
-7.109031e-07
-5.680366e-07
-1.005291e-06
-9.055439e-06
-1.684408e-06
-2.405663e-06
-1.07223e-06
-2.396706e-06
1.758614e-06
-2.370148e-06
-5.067656e-06
-5.613122e-07
-2.521626e-06
-1.96656e-06
-1.674027e-07
-5.740452e-07
-3.130257e-07
-1.139679e-06
-7.306629e-07
-3.980725e-07
-5.491409e-07
-8.675155e-06
-8.032401e-07
-5.022114e-07
-1.370113e-07
-7.640205e-07
-1.401772e-06
-6.361323e-07
-6.175486e-07
-4.023789e-07
-1.055788e-06
-7.419349e-07
-1.077139e-07
-9.204551e-07
-2.33422e-06
-6.16954e-07
-1.07841e-06
-5.906996e-07
-1.390063e-06
-1.134027e-06
-1.170505e-06
-1.267914e-06
-1.051899e-08
-1.239939e-06
-4.743363e-06
8.543596e-07
6.560127e-07
-2.288093e-06
-4.515265e-06
-3.21843e-06
-4.614569e-06
-1.577024e-06
-7.504772e-06
-2.544523e-06
-6.846219e-07
4.565544e-07
-2.307127e-07
-6.91249e-07
-1.600829e-07
-1.727154e-06
-8.004451e-07
-4.171274e-06
-3.638547e-06
-9.460855e-06
-3.916263e-06
-3.276116e-06
-3.475084e-06
-2.28484e-06
-3.79054e-06
-3.418584e-06
-4.528967e-06
-3.542128e-06
-2.875174e-06
-2.773248e-08
-7.041253e-06
-5.669681e-06
-3.196998e-06
1.663708e-07
-6.507547e-06
8.985814e-09
-1.60857e-06
1.015128e-07
-6.459096e-06
-5.369503e-06
-6.499829e-06
-9.568901e-06
-9.405564e-06
-3.398428e-06
-1.29732e-06
-1.468407e-06
-1.48641e-06
-1.301709e-06
-3.003813e-06
-5.447063e-07
-7.991614e-06
-2.012733e-06
-1.075655e-06
-2.616018e-07
5.516079e-07
-5.908727e-06
-7.848316e-06
-5.3595e-06
-5.432725e-06
-5.077484e-06
-5.488148e-06
-3.068261e-06
-2.007278e-06
-4.239284e-06
-1.44041e-07
-6.171616e-07
-1.434013e-06
-6.110669e-06
-5.435202e-06
-6.175144e-06
-5.683005e-06
-3.400888e-06
-5.743562e-06
-7.57747e-06
-7.667474e-06
-6.501804e-06
-4.734226e-06
-1.899492e-06
-5.182982e-06
-8.674481e-07
-9.335062e-06
-3.01127e-07
-4.898156e-07
-5.549499e-06
-8.616366e-07
-1.287158e-07
6.797625e-07
-2.178364e-06
1.942974e-06
1.436616e-06
-2.511709e-06
-5.643532e-06
-9.220571e-06
1.067058e-07
-3.435715e-07
-4.723154e-07
-5.157534e-07
-6.535189e-06
-6.077313e-06
-6.378419e-06
-6.492471e-07
-3.140079e-07
-6.47783e-06
-9.454045e-06
-9.588293e-06
-4.36765e-06
-3.587262e-06
-6.944197e-06
-8.358012e-06
-2.120428e-06
-3.299335e-06
-4.570382e-06
-3.070895e-06
-2.692558e-06
-9.217323e-07
-1.042009e-05
-7.725798e-08
-1.346794e-06
7.544528e-07
-3.199793e-07
-2.369076e-06
-1.367677e-07
-4.150609e-06
-3.150764e-07
-7.314201e-06
-1.415583e-06
-2.967484e-06
1.28036e-07
-2.381693e-06
-1.814784e-07
-7.922835e-07
-1.968366e-06
-2.611966e-06
-1.560166e-06
-1.519645e-06
-2.02196e-06
-1.187356e-06
-1.278709e-06
-2.21608e-06
-7.646476e-06
-3.168497e-06
-2.190008e-06
-4.229984e-06
5.548916e-07
6.300312e-07
-6.074535e-06
-2.59573e-07
-4.411234e-06
-2.377206e-06
-1.846713e-06
-8.253057e-07
-1.439836e-06
1.53912e-06
-4.495003e-07
-3.311101e-07
-5.904601e-06
3.278121e-06
-1.120355e-06
-4.161502e-06
-1.394767e-06
-1.453893e-06
-9.624393e-07
-1.065625e-06
-1.917315e-06
-1.29466e-06
-1.126317e-06
2.651652e-06
-2.058367e-07
-1.913867e-07
-1.73864e-06
-2.334129e-06
-3.259675e-06
-1.158609e-06
-1.908236e-06
-6.761881e-07
-2.188769e-07
9.887479e-08
-5.904598e-07
-1.213346e-06
1.274696e-06
7.337208e-07
-1.287705e-06
9.606777e-08
-1.321446e-07
-1.156545e-06
-1.349899e-06
-2.442839e-06
-1.20565e-06
-1.414664e-06
-1.396791e-06
-5.796926e-06
-7.380608e-07
-9.992068e-07
5.346783e-07
7.169635e-07
-6.458994e-06
-1.63025e-06
-2.140414e-06
2.528669e-08
-2.574786e-07
-9.568235e-06
-3.533329e-06
-4.775189e-06
-5.593345e-06
-1.06721e-06
-1.513602e-06
-2.456399e-07
-1.612128e-06
-1.085931e-05
4.808628e-07
-5.466303e-06
8.015782e-07
-5.312122e-07
-1.785952e-06
-1.657599e-06
-4.818006e-07
-5.172961e-07
-3.306334e-06
-8.315608e-07
-7.031284e-08
-1.222291e-07
-6.759004e-06
-8.730502e-06
-4.149105e-07
-4.916568e-08
-2.798278e-06
-8.711345e-07
-3.718558e-07
-4.29027e-06
-1.112867e-05
-7.436748e-07
-4.678438e-07
-2.700803e-06
-5.836663e-06
-6.483631e-06
-4.8437e-06
-7.511513e-07
-8.665211e-07
-3.080821e-06
-2.064808e-06
-6.97832e-07
-7.718788e-07
-4.629694e-07
-8.162041e-07
7.890519e-08
8.099287e-07
7.442128e-07
-2.200757e-07
-3.18866e-06
-5.110935e-06
-4.154475e-06
-3.722792e-06
8.445286e-07
-7.834377e-06
-2.082529e-06
-2.142046e-06
-2.441311e-06
-1.868175e-06
-2.02679e-06
-1.732232e-06
-5.790086e-06
-6.919132e-06
-2.404284e-07
-5.224261e-06
3.268694e-07
-2.510318e-06
6.485666e-09
-1.107455e-06
-9.055456e-06
-8.602363e-06
-1.521902e-07
-2.574083e-06
-3.628313e-06
-4.598642e-06
-1.711348e-07
-6.554898e-07
-2.739596e-06
-2.037681e-06
-1.778756e-06
1.976697e-06
2.422541e-06
-1.084589e-07
-1.985229e-07
-5.065624e-06
-5.932444e-07
-1.191581e-06
-1.631869e-06
-5.324151e-06
-6.367806e-06
-1.062217e-06
-1.279863e-07
-1.63135e-06
-1.206138e-06
9.572914e-08
-4.610897e-06
-4.016574e-07
-5.587338e-07
-9.506703e-06
-9.269464e-07
1.258084e-06
3.091176e-06
-1.640594e-06
-1.85045e-06
-1.646306e-07
5.685787e-09
-1.137082e-06
-4.049489e-07
5.598618e-07
1.574556e-07
-3.205747e-07
-1.439887e-06
-1.530851e-06
2.793963e-06
1.225431e-06
-2.657097e-06
-8.613838e-07
1.074882e-06
-5.891865e-06
-1.73776e-06
-2.338012e-06
-2.422956e-06
-6.654788e-07
-1.171947e-06
-1.876129e-06
-3.187429e-06
-2.314493e-06
-2.588645e-06
-3.691598e-06
-2.851323e-06
-3.133077e-06
-5.700823e-06
-1.064465e-06
-2.624876e-06
-2.903661e-06
-3.402585e-06
-3.536589e-06
-3.314243e-06
-2.473898e-06
-3.195258e-06
-2.704398e-06
-2.565845e-06
-2.06019e-06
-1.147768e-07
-1.746586e-06
-2.301939e-06
-4.457148e-06
-4.718256e-06
-2.514063e-06
5.785385e-08
-4.511422e-06
-5.359326e-06
8.946084e-08
-1.001778e-06
-5.93279e-06
-1.172094e-06
-4.221297e-06
-2.750403e-06
-2.459778e-06
-2.471112e-06
-2.570352e-06
-1.558518e-06
-2.826774e-06
-2.752969e-06
-3.885893e-06
-2.54255e-06
-2.631659e-06
-4.458135e-06
-5.356365e-07
-1.729558e-07
-1.789978e-07
1.147304e-06
2.852822e-07
-1.084659e-06
-1.01588e-06
-4.728885e-07
-1.290065e-06
-1.687854e-06
-8.407894e-08
-6.114433e-06
-5.452174e-06
-2.647195e-06
-1.881613e-06
-1.546916e-06
-1.020916e-06
3.128246e-07
2.797135e-07
-9.820005e-07
-1.472033e-06
-1.285782e-06
-4.887475e-06
-4.058627e-06
-1.676605e-06
-2.276941e-06
-1.115826e-06
-3.925272e-06
-1.17389e-07
-3.400293e-06
-2.508803e-06
-4.979557e-06
-2.168995e-06
8.282517e-08
-3.478968e-06
-2.429341e-07
-1.892238e-06
-1.707067e-06
-1.593351e-06
-9.642227e-08
-3.666588e-06
-8.119022e-06
-6.971814e-07
-2.024965e-07
-2.522418e-07
2.566668e-07
-3.419626e-07
-1.55289e-06
-1.440596e-06
-1.720612e-06
-7.747469e-07
-4.328254e-06
-6.567203e-07
-3.608368e-07
-2.275214e-06
-4.65131e-06
-9.57515e-07
-2.171603e-06
-1.755434e-06
3.041287e-06
-7.999506e-06
-7.455676e-06
-9.89564e-07
-1.212847e-06
-3.334407e-06
-8.735113e-07
-5.806969e-06
-1.900912e-06
-3.262622e-06
-2.038149e-06
-1.614418e-06
-1.545924e-06
-1.832326e-06
-1.325043e-06
-2.025464e-06
-3.993313e-06
-2.337065e-06
-2.726025e-06
-7.02998e-07
-4.794191e-08
-9.403539e-06
-5.555446e-06
-5.492195e-06
-2.271067e-07
-2.421746e-06
-1.03927e-07
1.079551e-06
1.111921e-06
-1.560169e-06
-5.785072e-07
-1.650116e-06
-3.019529e-06
-5.495515e-07
4.664408e-07
-8.197502e-06
-7.236704e-06
-9.83641e-07
-7.017623e-07
-8.184109e-07
-5.669937e-06
-5.641939e-06
-7.315134e-06
-6.985193e-07
-7.037382e-07
-9.89363e-06
1.101903e-06
-5.10112e-06
-3.153071e-06
1.686006e-08
-1.48719e-06
-1.146227e-06
-7.267617e-07
-2.586765e-06
-2.828905e-06
-1.756113e-07
-2.449792e-06
-1.755658e-06
2.012645e-07
-1.0786e-05
-6.899485e-06
-3.115311e-06
-1.591222e-06
-1.725728e-06
-5.959073e-07
-1.527966e-06
-3.12369e-06
-1.838129e-06
-2.296532e-06
-1.937413e-06
1.899631e-07
-3.591388e-07
-8.133855e-06
-7.509427e-06
5.498407e-07
-2.99908e-07
-4.74953e-07
-7.528192e-07
-5.021248e-07
-3.664943e-06
-4.58954e-07
-1.114762e-06
-1.316132e-06
-1.630692e-06
3.163417e-06
-1.392169e-06
-1.157591e-07
-7.383008e-07
-2.076571e-06
-5.09832e-06
-1.6511e-06
-1.249043e-06
-1.311459e-06
-2.080169e-06
-2.014586e-06
-3.751689e-06
-6.680802e-06
-2.878659e-06
-8.359886e-06
-9.039755e-06
-2.696212e-07
-1.938628e-06
-9.64718e-07
-9.841162e-06
-2.054915e-06
-9.164806e-06
-3.996318e-07
-6.150506e-07
-4.410204e-07
-1.907147e-08
-1.146185e-06
-1.892195e-06
-6.747645e-07
-4.851723e-07
-2.34988e-06
-2.56485e-06
-2.569493e-06
-1.14902e-06
-2.337674e-07
-8.862046e-06
-7.257696e-07
-1.902158e-07
-4.546039e-06
-4.610316e-06
-4.601371e-06
-3.03286e-06
-5.630998e-07
-1.400096e-06
-4.968864e-07
-4.219502e-06
-6.267968e-06
-1.280997e-06
-7.046016e-06
-6.191576e-06
-6.482336e-06
-7.059054e-06
-1.718888e-06
-7.185539e-06
-3.193239e-07
-4.336402e-06
-4.367818e-06
-4.532448e-06
-9.354258e-06
-4.774656e-06
-2.822284e-06
-3.294726e-06
-3.842043e-06
-7.35547e-06
-5.970183e-07
-2.701001e-06
-1.591932e-06
-5.28195e-07
-9.374445e-06
-1.127425e-05
-9.787066e-06
-2.721237e-06
-8.034657e-06
-1.007014e-05
-1.092392e-05
-1.03327e-06
-2.083624e-06
-1.423814e-06
-3.525351e-06
-2.864231e-06
-5.352215e-06
-3.821064e-06
-1.453753e-07
-7.581849e-06
-2.016941e-06
-2.602898e-08
4.227288e-07
-2.017001e-06
-3.072316e-07
-5.124172e-06
-4.050721e-07
-1.217929e-06
-1.324157e-06
-6.317677e-07
-2.561415e-06
2.887529e-07
-1.752672e-06
-9.948364e-06
-5.175762e-06
-7.792669e-06
-8.686195e-06
-7.706098e-06
-1.048851e-06
-7.788073e-06
-4.864114e-06
-4.077739e-06
-1.90694e-06
-1.70244e-06
-1.479054e-06
-2.459334e-06
-6.026865e-07
-3.789071e-06
-4.571579e-06
-8.038981e-06
-6.722588e-06
-4.980269e-06
-4.889039e-06
1.588106e-07
-1.015323e-06
-1.584925e-06
1.318162e-06
-3.443828e-06
-3.675085e-06
-3.585142e-06
-1.223383e-06
-5.123022e-07
-5.237102e-06
-3.30995e-06
-2.073471e-07
-4.492767e-06
-2.184775e-06
-2.036851e-06
-2.200608e-06
-3.472906e-06
-6.45639e-06
-9.177697e-07
-1.263466e-06
-2.052644e-07
-1.696234e-07
-6.537343e-07
-6.80624e-07
-6.840088e-07
-4.498729e-07
-7.575308e-07
-1.046418e-06
-1.569658e-06
-4.386181e-06
-7.395153e-06
-4.11215e-07
-1.552937e-06
-8.806442e-07
-9.648342e-07
-1.470148e-06
7.406609e-07
-4.562531e-07
-9.132348e-07
-1.843883e-06
-1.810659e-06
-1.671343e-06
-2.804578e-06
-4.56353e-07
-4.942996e-07
-8.139623e-08
-1.274249e-07
-7.317125e-08
-6.719657e-06
-1.303987e-06
-5.911253e-07
-4.173431e-07
-8.029461e-07
-2.864478e-06
-3.277651e-06
-8.677567e-07
-6.985678e-07
5.583624e-07
-6.690661e-08
-7.208397e-07
8.664719e-07
-5.949224e-06
-8.206708e-06
-5.414862e-07
-2.458814e-06
-1.628581e-06
-2.084555e-06
-1.919446e-07
-1.19842e-06
-1.11212e-06
-3.695412e-06
-4.729415e-06
-4.534425e-06
-1.833704e-06
-1.165919e-06
-1.003964e-05
-3.409985e-06
-6.585945e-06
3.173117e-07
-2.722376e-06
-3.017107e-06
-2.947843e-07
-4.124284e-07
-9.062627e-07
-1.044144e-06
-1.623634e-06
-3.175596e-07
-1.535756e-06
-2.484248e-06
-2.159057e-06
-3.333912e-06
-1.300521e-06
-1.172325e-06
-1.425062e-06
-9.952946e-07
2.171372e-06
8.703805e-07
-1.677363e-06
-1.595099e-06
-8.740838e-07
-2.026097e-06
-1.61146e-06
-3.680784e-06
-3.165682e-06
-1.739403e-06
-2.46786e-06
-3.231515e-06
-2.455004e-06
-7.729168e-06
-8.231539e-06
-5.381931e-06
-5.121167e-06
-1.541683e-06
-1.508306e-06
4.321704e-08
-1.081911e-05
-9.913661e-06
-1.013451e-05
-4.250522e-06
4.817137e-07
-6.541944e-07
-7.238818e-07
1.967268e-07
3.215193e-07
-7.79472e-07
6.27924e-07
-2.421396e-06
-2.327134e-06
-1.567733e-06
-1.466148e-06
-1.092752e-06
-1.260602e-06
-1.113507e-06
-8.485696e-07
-1.954769e-06
-2.393017e-06
-2.567286e-06
-1.111822e-06
-1.105409e-06
-1.614186e-06
-1.586742e-06
1.743642e-07
-5.279615e-06
-5.66691e-06
-5.436954e-06
-6.045885e-06
-5.812277e-06
-6.589842e-06
-7.351356e-06
-6.181354e-06
-5.567101e-06
-7.286143e-06
-9.42082e-06
-1.079391e-06
-2.035691e-06
-1.888052e-06
-6.460878e-06
-3.158633e-06
-2.346611e-06