/*--------------------------------*- C++ -*----------------------------------*\
| =========                 |                                                 |
| \\      /  F ield         | OpenFOAM: The Open Source CFD Toolbox           |
|  \\    /   O peration     | Version:  2406                                  |
|   \\  /    A nd           | Website:  www.openfoam.com                      |
|    \\/     M anipulation  |                                                 |
\*---------------------------------------------------------------------------*/
FoamFile
{
    version     2.0;
    format      ascii;
    arch        "LSB;label=32;scalar=64";
    class       volScalarField;
    location    "4.34";
    object      p;
}
// * * * * * * * * * * * * * * * * * * * * * * * * * * * * * * * * * * * * * //

dimensions      [0 2 -2 0 0 0 0];

internalField   nonuniform List<scalar> 
15536
(
-50.85687
-53.20733
-52.75382
-50.05246
-45.67019
-40.44176
-34.95446
-29.7699
-25.56011
-22.50364
-20.22211
-19.15796
-18.45889
-17.88028
-17.64368
-18.22698
-19.93866
-22.80714
-26.53705
-29.0924
-27.80807
-21.94249
-12.35151
-3.169546
3.091615
4.78144
-1.81756
-11.04974
-18.30693
-29.829
-59.99901
-106.0215
-129.0906
-93.04729
-43.50732
-50.68694
-73.32829
-84.59009
-84.21532
-81.4629
-84.59213
-89.16282
-92.23925
-93.69882
-94.16041
-93.58601
-92.10046
-89.65988
-86.72257
-83.42937
-79.46328
-74.92498
-69.78219
-64.27505
-58.35223
-52.08395
-45.78722
-39.3885
-32.66627
-25.79552
-19.04492
-12.42898
-5.854884
0.6212594
6.871103
12.97632
18.77908
24.25873
29.31163
33.9338
38.08688
41.77043
44.95301
47.56453
49.55929
51.03926
51.87041
52.11056
51.7982
50.98118
49.42397
47.20093
44.38412
40.97998
37.01205
32.49882
27.51195
21.95958
16.01219
9.711325
2.898793
-4.224547
-11.5951
-19.41315
-27.38102
-35.28606
-43.37191
-51.62021
-59.83016
-68.09545
-76.24511
-84.08469
-91.57142
-98.80468
-105.9201
-112.5838
-118.7783
-124.4564
-129.6437
-134.4234
-138.4867
-141.7522
-144.2904
-146.0958
-147.053
-146.897
-145.4416
-142.2993
-137.3359
-131.4361
-128.486
-135.352
-151.5588
-149.6136
-122.0453
-91.03441
-61.69965
-60.63258
-139.0396
-188.7929
-160.3209
-103.8662
-66.91114
-51.67854
-42.89728
-32.32579
-17.03964
-8.342554
-10.28625
-11.30298
-20.34059
-37.40215
-46.42626
-44.92438
-38.28567
-33.74164
-38.43747
-44.52265
-46.62263
-45.47324
-42.44437
-39.15567
-35.75062
-31.81281
-31.97149
-37.67581
-45.29682
-50.66149
-52.91504
-52.39253
-49.68525
-45.31802
-40.11281
-34.64972
-29.4818
-25.30471
-22.29211
-20.05255
-19.02974
-18.37572
-17.83927
-17.63662
-18.23733
-19.94832
-22.8082
-26.53538
-29.09955
-27.82961
-21.96665
-12.35882
-3.120212
3.143735
4.740282
-1.889459
-11.08885
-18.26952
-29.72046
-59.8866
-105.9631
-129.1972
-93.02434
-43.356
-50.76897
-73.51566
-84.62831
-84.23879
-81.35426
-84.12918
-88.3786
-91.18533
-92.47465
-92.86318
-92.25884
-90.76156
-88.32033
-85.39117
-82.12414
-78.18909
-73.68945
-68.58879
-63.13152
-57.26508
-51.05528
-44.81796
-38.48338
-31.83037
-25.02537
-18.34111
-11.79219
-5.281984
1.130309
7.317671
13.36059
19.10316
24.52781
29.53045
34.10574
38.21723
41.86445
45.01561
47.60322
49.57819
51.04463
51.8689
52.10705
51.79662
50.98504
49.4394
47.23653
44.44593
41.07359
37.14324
32.67385
27.73558
22.23766
16.35183
10.11212
3.366484
-3.682157
-10.98177
-18.72921
-26.61531
-34.44027
-42.44793
-50.61401
-58.74233
-66.92722
-74.99825
-82.75971
-90.17223
-97.34026
-104.3958
-110.9988
-117.1407
-122.7698
-127.9159
-132.6647
-136.7004
-139.9517
-142.4962
-144.3193
-145.3138
-145.2227
-143.8967
-141.017
-136.4491
-130.9952
-128.4286
-135.2633
-151.4758
-149.7943
-122.1915
-91.20429
-61.94189
-60.5041
-139.2291
-188.9782
-160.1261
-103.5935
-66.67715
-51.52951
-42.85983
-32.3952
-17.13971
-8.367233
-10.18096
-11.22203
-20.33227
-37.40975
-46.38808
-44.9097
-38.33823
-33.80105
-38.4709
-44.50599
-46.63357
-45.48892
-42.46679
-39.17535
-35.73541
-31.78323
-31.94622
-37.66535
-45.22212
-50.47209
-52.60991
-52.06555
-49.35208
-44.99156
-39.81348
-34.4007
-29.28233
-25.13608
-22.17361
-19.94645
-18.95723
-18.33904
-17.83339
-17.65587
-18.26602
-19.96419
-22.80582
-26.54613
-29.14816
-27.91768
-22.04364
-12.47139
-3.162264
3.173161
4.693221
-1.994254
-11.14241
-18.23796
-29.63998
-59.99734
-106.3643
-130.1009
-93.66948
-43.14232
-50.41623
-73.11862
-83.99079
-83.64894
-81.05152
-83.59558
-87.545
-90.26543
-91.60559
-92.05305
-91.47379
-90.01302
-87.59037
-84.67303
-81.4329
-77.50927
-73.03423
-67.95755
-62.52877
-56.69814
-50.5036
-44.29343
-37.99873
-31.37127
-24.59565
-17.94269
-11.43172
-4.958091
1.426557
7.575634
13.59082
19.30081
24.69573
29.6701
34.21882
38.30412
41.92785
45.0578
47.63024
49.58795
51.04388
51.86198
52.098
51.79018
50.98424
49.44699
47.26001
44.48766
41.13663
37.23124
32.78887
27.88159
22.41045
16.55896
10.35519
3.640285
-3.369658
-10.62808
-18.341
-26.18797
-33.9669
-41.93862
-50.06949
-58.1508
-66.31113
-74.34508
-82.07524
-89.45796
-96.57955
-103.6012
-110.1674
-116.2842
-121.8859
-127.0061
-131.7378
-135.7463
-138.9694
-141.4839
-143.2785
-144.2376
-144.1026
-142.6932
-139.7942
-135.47
-130.4905
-128.2756
-135.3243
-151.4516
-149.644
-122.1168
-91.13504
-61.73993
-60.43773
-140.8037
-190.4034
-160.5578
-103.5936
-66.47839
-51.42932
-42.88775
-32.56772
-17.37761
-8.515021
-10.28579
-11.35059
-20.63354
-37.62495
-46.48956
-45.00069
-38.48515
-33.94775
-38.5775
-44.58755
-46.71054
-45.38041
-42.37552
-39.19542
-35.70645
-31.72828
-31.98685
-37.85357
-45.26075
-50.29116
-52.28628
-51.6857
-48.97762
-44.61411
-39.44129
-34.05322
-28.96463
-24.8417
-21.96281
-19.76916
-18.8421
-18.29474
-17.84289
-17.70543
-18.32815
-20.00742
-22.81144
-26.58704
-29.27404
-28.05667
-22.19316
-12.69703
-3.297286
3.34041
4.781631
-2.031447
-11.13578
-18.15833
-29.63937
-60.26468
-107.0268
-131.4106
-94.84153
-43.64325
-49.96002
-71.75329
-82.00914
-82.21529
-80.42428
-82.81002
-86.36871
-88.86945
-89.9989
-90.33526
-89.72279
-88.28472
-85.88688
-82.99285
-79.79913
-75.94548
-71.54367
-66.5373
-61.18151
-55.43192
-49.31937
-43.18495
-36.97598
-30.44479
-23.74457
-17.16806
-10.73967
-4.347655
1.96597
8.036887
13.98585
19.6297
24.96864
29.88744
34.38493
38.42574
42.01195
45.10897
47.65944
49.59279
51.03586
51.84679
52.08058
51.77643
50.97678
49.44785
47.28355
44.53737
41.21797
37.352
32.95618
28.10459
22.68514
16.90385
10.76906
4.121179
-2.799612
-9.97585
-17.6168
-25.35987
-33.04152
-40.9267
-48.95401
-56.93362
-64.99676
-72.93112
-80.55207
-87.82675
-94.86648
-101.8056
-108.2736
-114.3094
-119.8234
-124.8767
-129.5555
-133.5136
-136.6895
-139.1684
-140.9645
-141.9506
-141.8727
-140.6704
-138.017
-134.0868
-129.736
-127.9336
-134.6265
-149.1478
-147.0576
-120.9324
-90.52447
-61.13602
-60.95529
-143.6128
-192.6536
-161.458
-103.8033
-66.30473
-51.32267
-42.91116
-32.72488
-17.74196
-8.76308
-10.36724
-11.87084
-21.37022
-38.03052
-46.72296
-45.21905
-38.7683
-34.2299
-38.80077
-44.74205
-46.81388
-45.1518
-42.12844
-39.21701
-35.64442
-31.69308
-32.22566
-38.34392
-45.41093
-50.15099
-51.97738
-51.291
-48.57078
-44.19866
-39.03714
-33.69277
-28.6498
-24.54133
-21.77147
-19.59267
-18.73992
-18.27503
-17.88817
-17.80258
-18.45145
-20.11092
-22.85073
-26.65936
-29.42833
-28.28862
-22.46704
-13.02799
-3.456015
3.711369
5.13309
-1.892703
-11.01173
-18.08896
-29.75924
-60.67459
-107.7834
-132.6481
-96.19893
-45.94164
-50.47222
-70.42144
-79.68021
-80.51562
-79.61314
-81.9256
-85.20638
-87.59814
-88.69816
-89.1364
-88.51739
-87.10617
-84.70383
-81.76686
-78.62332
-74.75833
-70.38822
-65.39111
-60.07817
-54.3889
-48.29863
-42.2109
-36.08121
-29.6106
-22.95601
-16.43984
-10.08957
-3.766416
2.495776
8.490044
14.38523
19.96664
25.24906
30.10804
34.5577
38.55285
42.09886
45.15504
47.68058
49.58655
51.01431
51.81806
52.04988
51.75068
50.95575
49.43208
47.29962
44.58801
41.30433
37.48021
33.1306
28.3364
22.96579
17.26073
11.18876
4.591028
-2.234752
-9.330088
-16.93099
-24.58391
-32.17076
-39.99524
-47.95221
-55.8355
-63.84769
-71.71938
-79.27358
-86.48851
-93.46385
-100.3701
-106.7751
-112.7869
-118.2619
-123.2841
-127.9846
-131.8881
-135.066
-137.5739
-139.3723
-140.3559
-140.2533
-138.9353
-136.3291
-132.6868
-128.8447
-127.3615
-132.8855
-144.2643
-141.4528
-118.4157
-89.94143
-61.33499
-63.51852
-146.8171
-195.3792
-162.8427
-104.2207
-66.25776
-51.21265
-42.83928
-32.74352
-18.02124
-8.935129
-10.35283
-12.78057
-22.59516
-38.65511
-47.18641
-45.62069
-39.26189
-34.69362
-39.1786
-45.02269
-46.97072
-44.9011
-41.85339
-39.29481
-35.73482
-31.80029
-32.86653
-39.08117
-45.6386
-50.0662
-51.69765
-50.90155
-48.15064
-43.73436
-38.56426
-33.25836
-28.2727
-24.17432
-21.56527
-19.39799
-18.64296
-18.28813
-17.99475
-17.97452
-18.66902
-20.31525
-22.96253
-26.8196
-29.62204
-28.59349
-22.93756
-13.46613
-3.630335
4.252881
5.77779
-1.490569
-10.65281
-18.13938
-30.08467
-61.04501
-108.2805
-132.8371
-97.66045
-49.96166
-52.48406
-69.4123
-77.43305
-78.73912
-78.53187
-80.6745
-83.58975
-85.75901
-86.59229
-86.88706
-86.20594
-84.9006
-82.55284
-79.65362
-76.64614
-72.86409
-68.60977
-63.69556
-58.46563
-52.87748
-46.86227
-40.87961
-34.87194
-28.48944
-21.91638
-15.50718
-9.256094
-3.028392
3.160831
9.046126
14.87282
20.36682
25.56314
30.35629
34.75791
38.69589
42.19113
45.19161
47.6955
49.56602
50.97051
51.7682
51.99775
51.70424
50.91316
49.39612
47.29977
44.63591
41.39925
37.62617
33.33307
28.60195
23.28161
17.68808
11.70513
5.148528
-1.562455
-8.511466
-16.05213
-23.59776
-31.03834
-38.75178
-46.6127
-54.36616
-62.26614
-70.02174
-77.45577
-84.53298
-91.39549
-98.22308
-104.484
-110.4053
-115.7548
-120.6785
-125.2907
-129.1019
-132.1726
-134.5011
-136.3112
-137.3225
-137.3146
-136.2774
-133.9174
-130.7344
-127.5009
-126.3455
-130.6302
-139.0593
-136.0743
-115.9971
-90.21262
-63.82243
-69.03698
-149.9615
-197.6865
-164.3491
-104.8466
-66.38464
-51.14824
-42.58981
-32.44049
-17.92944
-8.683184
-10.0691
-13.96226
-24.3477
-39.56512
-48.00292
-46.37058
-40.1514
-35.41941
-39.79311
-45.47128
-47.23845
-44.67145
-41.60957
-39.46757
-36.06176
-32.30975
-33.96747
-39.97697
-45.92139
-50.06837
-51.47972
-50.52472
-47.71807
-43.2565
-38.09384
-32.84048
-27.95373
-23.82562
-21.35769
-19.21232
-18.52236
-18.33503
-18.18045
-18.24365
-18.999
-20.63864
-23.18003
-27.13179
-30.07695
-29.23881
-23.73603
-14.05089
-3.766413
4.709293
6.597588
-0.8957356
-10.35826
-18.47976
-30.46322
-60.73162
-106.8316
-130.3318
-97.77743
-54.55282
-55.17915
-68.4247
-75.20938
-76.88302
-77.31494
-79.3344
-81.94902
-84.03243
-84.70926
-85.19795
-84.40356
-83.07213
-80.68047
-77.69186
-74.78144
-70.97781
-66.82914
-61.93366
-56.72209
-51.2601
-45.3619
-39.44302
-33.49646
-27.24928
-20.80537
-14.47638
-8.271708
-2.215926
3.904622
9.657188
15.41689
20.78999
25.89964
30.68512
34.98342
38.83395
42.25921
45.20482
47.73157
49.52651
50.90291
51.69126
51.91413
51.62717
50.86038
49.36496
47.25872
44.62979
41.45628
37.75302
33.55744
28.91069
23.6154
18.14205
12.30448
5.836954
-0.8277249
-7.661403
-15.0251
-22.47828
-29.81544
-37.39167
-45.06355
-52.77268
-60.58681
-68.15687
-75.51656
-82.43832
-89.19761
-95.99245
-102.1119
-108.0075
-113.2363
-118.1393
-122.8098
-126.5301
-129.6266
-132.1816
-134.0006
-135.0157
-134.9272
-133.8472
-131.5808
-128.7666
-126.0236
-125.0381
-128.2084
-134.1653
-130.8855
-113.2643
-90.89445
-68.64682
-76.49167
-152.5281
-198.0786
-165.1788
-105.5778
-67.11806
-51.2732
-41.98098
-31.58438
-17.31141
-7.757105
-9.423184
-15.28514
-26.69788
-40.88603
-49.40676
-47.7253
-41.69106
-36.68487
-40.87775
-46.16564
-47.65859
-44.47744
-41.36309
-39.80843
-36.71244
-33.48014
-35.40933
-40.9879
-46.29755
-50.24028
-51.39678
-50.12136
-47.27816
-42.86527
-37.70608
-32.48629
-27.75537
-23.5013
-21.18711
-19.0985
-18.42383
-18.44692
-18.38389
-18.52116
-19.37957
-21.04261
-23.61054
-27.67424
-30.83118
-30.23843
-25.01179
-14.91558
-4.127415
4.834165
7.403611
-0.5427904
-10.09454
-18.44212
-30.44328
-59.09552
-100.4012
-121.209
-94.44559
-58.52599
-57.56216
-67.21827
-72.87234
-74.72683
-75.67637
-77.4816
-79.67928
-81.73893
-81.87568
-82.20356
-81.5188
-80.32104
-78.16626
-74.96835
-72.25074
-68.5785
-64.60635
-59.67977
-54.54698
-49.43743
-43.69986
-37.54906
-31.77682
-25.91549
-19.63285
-13.13983
-7.057899
-1.392052
4.755744
10.2967
16.03204
21.1726
26.35987
31.14667
35.19909
38.93707
42.26708
45.19014
47.75432
49.42336
50.81819
51.58245
51.79407
51.52314
50.80893
49.30435
47.17876
44.5335
41.43769
37.81829
33.74594
29.30527
23.99423
18.60656
12.94297
6.822124
0.2185669
-6.888984
-13.92512
-20.98477
-28.47745
-35.97339
-43.15038
-50.68852
-58.82779
-65.88638
-73.25366
-79.97738
-86.53236
-93.32233
-99.14838
-105.0879
-110.0192
-114.7573
-119.4802
-123.0068
-125.9865
-128.1935
-129.95
-131.0517
-131.0954
-130.2649
-128.2467
-126.049
-123.8878
-123.1307
-125.3957
-129.1497
-125.4544
-110.2305
-91.72123
-74.88588
-84.11771
-152.125
-193.4515
-161.7201
-105.0368
-68.71729
-52.13445
-41.09486
-30.19867
-16.24356
-6.170635
-8.570533
-16.86186
-29.60738
-42.7114
-51.74047
-49.66022
-43.65838
-38.88688
-42.68964
-47.43697
-48.23241
-44.26099
-41.30069
-40.36351
-37.65096
-35.33441
-37.10936
-42.17544
-46.88466
1.2995
0.8021214
-29.09554
-19.11513
12.39124
-17.32167
1.212913
1.535814
12.23514
-2.066214
0.6155884
2.209857
-0.6800425
0.4555441
0.5683147
3.601885
0.1631799
-4.062136
1.004339
1.45918
-75.9818
-3.074724
2.902004
-2.308533
1.315819
1.212979
2.537364
-1.757904
-8.439451
0.6911691
1.696631
-14.08414
1.742001
1.232558
1.259428
-6.102375
0.3409662
0.1264549
1.699773
-7.461274
-26.27185
2.08986
0.590034
2.697972
35.04632
1.345865
-2.029856
1.651439
-10.57547
-1.677366
2.666305
-14.92698
-14.96115
0.912385
0.245919
24.44286
-8.901307
1.945233
-15.57195
-23.29167
-1.750978
0.02215581
-11.82064
1.295617
-3.799239
0.8779217
-24.90334
0.1899531
1.238594
0.3517178
-0.5269171
-3.171874
6.71604
-21.93581
21.87314
0.3496126
4.139912
-3.655424
-4.632865
1.115629
-23.43174
0.3015086
3.672044
1.31564
-14.78628
1.361921
1.873363
1.51274
-25.13569
2.135156
-21.86802
21.11404
-5.826711
0.8413682
1.236925
2.50436
-13.3592
5.487254
-33.44137
1.327012
1.855927
1.470868
1.331324
-102.0619
0.06120255
-12.57544
-5.50804
1.016596
-1.483491
-8.211722
1.879206
-0.1262954
-0.3989751
7.247599
-16.6108
-0.6348557
0.329496
0.6441475
18.79736
0.8317375
2.582142
0.6897617
-0.703666
-0.3581672
0.3762499
-4.211852
0.1224186
-22.49121
1.525525
1.322518
0.4184576
-4.075859
1.242736
0.6288888
0.1261012
-35.57205
0.2776651
8.303829
1.752236
0.4054559
-26.6843
0.2525418
-76.26611
0.9311415
1.420649
-10.91171
1.398016
-50.70176
0.3083581
-0.3920243
1.278017
-14.08961
-55.40841
1.572828
-33.17412
-33.81566
0.6941711
1.072888
1.105149
-38.75007
1.574897
-38.70434
-13.2405
1.152508
-0.3428272
-17.86381
-26.47703
1.911567
-25.73351
0.6155732
1.301094
15.80582
2.540787
-27.13866
-8.167223
-16.46622
3.099071
1.229789
-31.83658
-8.260864
16.36216
2.257343
0.7952414
0.82814
2.729893
-54.61346
1.772258
0.3273018
-27.49052
1.371433
0.1133011
1.534234
-13.03203
-2.644942
-4.505595
0.9517144
0.2806285
-0.03546085
-8.162265
-40.02437
1.39243
-13.11889
1.126843
-26.58454
0.7532952
-3.418254
-9.455615
0.6961183
-11.32117
-0.1237268
1.277352
1.595722
-1.146049
-9.374495
1.277872
-3.168226
-14.01122
1.481583
1.326848
1.03116
1.087164
-3.651423
3.422598
0.4702105
-3.912838
0.7384933
1.912283
7.837528
1.34113
19.99901
-0.6841791
-10.91073
4.701079
0.3654512
-91.65786
0.5461924
28.24731
-14.12532
2.417324
-0.2764077
0.4810831
1.445503
0.4801144
-6.069561
1.441386
-19.23452
1.487865
-35.96137
0.5009213
0.048742
-39.64653
0.8647018
1.669377
1.476129
3.324758
-32.42895
0.9196439
0.6063465
-15.72917
-5.512592
-1.009601
0.2501769
-10.41346
-6.141753
-0.3910273
2.953552
0.978765
0.2730659
3.31601
-31.3151
0.8137008
1.191421
12.82774
-0.9677281
2.205865
3.802769
2.321221
-19.91519
-58.82365
0.4761998
1.88684
0.7796412
-5.909292
1.569367
0.8302889
1.428275
34.69688
0.00967913
2.579551
-0.2295628
2.710646
0.3260472
1.128025
1.811504
-31.78047
0.3182753
-15.29702
0.7173457
2.253289
-0.3598521
-50.83896
1.607173
2.022748
-13.7467
-0.6601364
0.1338468
-0.2358081
1.309431
0.6871099
2.142549
0.2654358
1.907033
0.7475446
1.324567
-0.4626956
-15.66483
34.78748
-77.00885
-25.47743
-58.99245
-1.103411
-2.221344
1.686184
-1.291816
0.1494687
-1.391232
0.7074981
-0.3197049
1.224855
2.401856
17.75345
-13.94951
-9.825642
-77.0612
1.427719
2.63938
1.538228
1.186772
-6.531726
0.8408493
-38.95018
-2.870186
0.4283761
1.595501
-16.39664
3.973794
-10.21018
-0.05981421
-13.77002
0.1548491
1.787339
-13.89893
14.01272
1.0378
-1.625696
-42.1055
-61.75462
1.196256
1.309111
0.07912099
1.971855
-11.45804
-10.67101
2.618398
1.49472
2.690611
2.511053
1.491939
1.566304
2.118128
-4.372742
13.35394
-45.37535
1.112666
2.619378
1.035126
1.7965
1.745812
2.128058
2.039056
0.9729252
2.299108
0.1283414
-8.325039
0.1483233
1.526017
1.719619
36.67486
2.434662
-0.896227
0.2913409
0.6725837
2.060582
-26.337
0.1889182
-1.163186
0.6608102
-18.69193
1.116546
1.076956
2.517708
1.444738
-34.91912
-8.601835
-1.207546
2.167861
-30.45724
-59.22289
2.830477
2.359817
1.290987
0.7351381
0.5253408
1.56698
2.505975
-0.8554883
1.502017
-28.66512
0.9548217
-13.59993
1.861799
0.3407468
4.869491
0.764897
-0.1011105
-31.78697
1.023716
2.130031
-57.7647
-17.39301
-3.46879
2.207689
1.477846
1.378615
1.851937
-1.594123
0.3279409
-7.40971
0.3374667
1.464002
-5.590523
0.3820469
-0.7127449
0.8247061
-6.158916
1.272815
-11.54534
-9.345432
-2.023865
-0.3349684
1.648527
-42.94274
2.2197
-5.150155
1.060073
-0.06195309
-16.67618
5.172304
1.351057
-25.12781
1.052123
-31.37648
1.392714
1.212597
-3.570971
0.5085514
25.32061
0.7470184
4.500804
-2.252166
-13.07774
-1.343647
1.310094
8.126365
-9.195954
-3.568736
-8.79412
-28.46107
0.9570882
0.6568549
-38.41425
0.9257376
1.135805
0.9422977
1.168926
1.32325
-9.678422
16.8804
0.2617189
2.541377
1.939798
-29.22003
0.4920733
-4.577619
-23.42822
1.508669
1.483945
3.993457
1.388546
3.994766
2.142748
1.02996
0.7544062
-6.407271
2.261387
1.327299
1.505762
0.1841408
-12.60708
-16.59336
-29.42981
5.366176
17.44758
-2.986589
-0.03543801
1.328707
-3.53222
0.5859089
1.033185
1.165519
1.517503
0.6099282
-7.9946
-2.904061
1.526308
-0.4615846
0.2813042
3.35077
0.8373215
1.142957
-31.95155
0.8620093
-30.48617
0.4352093
4.412795
4.458308
3.503829
0.628633
1.13364
0.7645504
4.378255
1.225768
0.04868745
2.035268
-40.25661
3.11201
3.761059
-1.837006
-13.15909
7.514089
1.203886
3.845811
2.621023
-4.519533
-7.033005
0.4011589
1.910914
-10.39614
16.22578
-1.183628
0.7810293
-5.932103
1.706389
1.416016
0.4960386
1.488875
1.816276
10.02796
32.9505
-17.57459
1.28478
6.669837
4.33457
-71.55634
1.261211
3.257851
1.364935
3.512784
1.241604
0.6820759
-11.41103
1.616714
6.23741
0.08676159
-5.334759
-27.57843
2.3083
1.33256
-93.58968
-5.428411
-1.099693
-10.55467
-0.05807698
-0.1469209
1.36771
0.722162
1.536188
-45.11774
1.765505
1.271534
1.295495
1.454897
0.1684391
0.2767856
1.818716
-11.19846
-4.914516
1.016021
-15.43229
0.7126395
4.562048
0.5222043
-16.15094
1.651803
9.194707
-12.93324
-0.5312509
2.007729
-5.586984
4.704531
-0.2291245
-18.27316
1.490539
1.961663
1.41627
18.17409
2.715714
0.3160044
0.8985068
-3.188341
1.295444
-10.39582
-18.2388
-17.1193
-48.83736
-11.10039
-14.08601
1.52323
-1.027089
1.360618
1.300839
-5.934087
1.653951
0.2429978
1.174338
0.4390597
1.696891
-36.51285
1.888823
25.91842
4.761505
-24.70063
1.736204
-0.7853448
7.109397
-3.909812
-14.54586
1.40745
2.272044
-6.566513
1.417827
2.011352
0.2403788
1.739507
-1.923137
0.1970896
-4.318621
3.347999
0.6496923
-0.6953959
1.432471
1.518057
-100.4585
-4.905559
1.28023
6.469495
-25.24293
-3.323498
-0.1976364
4.380463
13.74553
7.635233
2.3421
-4.157765
1.429622
-2.498417
0.9668408
-3.949301
3.122371
1.086351
-15.85868
-5.090911
-48.72975
-8.602555
1.355201
1.69816
-44.34005
1.795135
1.560149
1.460379
-0.5425825
-14.6415
3.492914
-1.211969
3.961385
-10.2482
2.695594
1.313342
-15.48414
-1.494294
0.7722746
0.3527785
1.366393
0.8207863
-0.3299955
0.1005971
2.206444
-56.16917
1.109638
1.05107
1.249883
0.7049136
0.1091858
1.312199
0.9519707
1.685083
1.005683
-32.00049
1.384596
1.333057
1.88008
1.630779
1.382379
1.106212
1.245235
0.7853025
1.818595
4.792091
-18.7959
1.864579
0.1587613
0.9464584
1.652737
0.5781014
1.571334
0.519126
-60.49836
3.201226
1.640912
10.18343
-1.03292
-4.540732
-10.11786
-6.295106
0.2893004
-57.33609
2.4968
-5.661766
-11.57541
-7.788694
-5.816319
0.9546743
2.737107
12.30147
1.125536
2.02273
-37.93484
1.187806
1.546839
1.326324
-13.71809
23.6033
3.478585
2.046066
2.98138
1.9428
0.7733448
0.7522815
0.1366719
1.166789
-2.29917
-2.171589
1.5983
2.178241
3.315532
1.884155
1.912617
-13.25411
0.441387
0.07102016
-1.053847
9.190697
31.23431
-10.35539
0.9006235
0.7356488
1.18815
1.076192
0.4937391
-73.51497
0.6020145
-46.04616
-3.045816
-0.549576
-8.631146
1.085663
-0.9638975
0.4532718
1.977772
1.521422
1.598895
-2.171779
-43.01483
1.788954
-1.677682
1.506513
0.5572124
-1.244116
3.048444
-18.34831
-4.487311
16.77741
2.156318
0.9157595
-0.1918333
-0.3219958
1.905119
1.250529
0.5055002
1.417754
-13.37366
1.17679
8.373823
-39.57077
1.122772
-17.36466
-2.323938
0.2245144
0.8859353
1.154662
0.8470972
1.376334
-1.033331
3.959126
2.635899
3.469932
4.070414
-0.6300116
-12.771
29.34374
0.8389037
-3.080138
0.5263812
-51.87305
2.627754
1.353469
0.6513467
1.693295
31.9164
-0.4132725
1.412072
1.070939
1.019048
-1.409399
1.82202
1.274507
1.334719
-13.55966
-19.33476
1.302646
0.427745
-30.01242
0.5943477
-0.4896584
1.641012
-15.27197
5.593845
28.30071
-6.533841
1.516817
-1.001501
-1.210621
-2.560459
12.41143
-2.188687
1.303569
1.505283
-0.6079978
1.565646
1.237224
-8.794798
-3.124262
-3.571693
-19.50036
3.66508
-7.530096
1.545305
-4.294408
-1.850752
7.682609
-3.553092
0.9580124
-6.317704
7.55767
-24.89272
6.928783
1.269882
0.9270068
-5.461871
29.95247
-0.7169573
0.2073327
-0.2950084
-40.11676
0.2665142
0.6128358
4.829597
0.4677856
-0.05814818
-18.6821
-0.5131214
2.016124
-20.17496
-20.96136
0.2796353
-12.13066
-12.786
-39.06153
3.562489
-52.01909
1.325487
-0.5660925
-11.46499
0.9505734
-2.195198
-39.21032
0.01275567
1.168904
-0.1837762
0.8809447
1.012736
-16.00539
-44.62772
1.9561
18.5285
0.3202364
-1.837769
-8.548913
14.03301
-19.35012
0.3140656
0.4875682
3.439705
-0.2228299
2.256016
-0.9006702
1.129378
1.15684
1.346921
-75.54253
-89.08091
1.289412
0.3819588
3.188049
0.8788015
1.504019
3.211479
1.314598
0.8791466
1.633846
1.505857
0.6672666
7.810257
1.342665
-19.52961
0.4193544
0.9305213
-26.37121
1.348263
0.8115848
0.5947796
-36.13574
-1.163086
-3.724437
3.282915
-6.851638
-26.80305
36.29076
48.63407
1.289697
2.088912
-7.188261
6.940592
1.350931
0.3366361
10.08934
-41.38253
1.408527
1.268183
-1.231374
2.589991
1.110852
1.333177
-3.50569
-15.76866
-68.1246
-5.068068
2.470949
1.446078
1.984421
2.69139
-61.80723
1.531322
1.325648
0.919234
1.7358
-7.10041
2.037697
-24.82248
-13.62684
1.397186
0.7931915
-2.674137
1.402705
-5.638278
1.548177
0.4129982
-25.12673
0.1880533
-60.24015
-43.20531
-0.6874011
-1.150526
-48.7019
-108.5736
2.137259
-1.422501
0.6911285
1.159798
1.87279
-1.538502
1.261892
1.173435
1.033778
1.020661
1.579173
-2.395996
-0.06112822
1.552722
1.589782
0.8499153
0.7147226
1.760245
1.24156
0.9777607
1.533238
-21.02422
1.560583
1.297436
4.372727
0.08117609
2.600527
0.4264529
0.201531
-9.785331
-18.06409
-13.88904
0.2952304
1.142321
0.3500741
0.5713842
-36.26698
-15.51657
13.2198
-39.27698
23.20556
1.842587
2.707321
-18.33552
-26.97165
0.4103955
3.693875
-65.3413
2.617123
0.08130262
-10.06263
1.68914
7.506695
1.64513
2.136785
16.82294
-2.034453
-26.36403
2.32712
-4.478439
33.92139
-15.71429
-9.602721
1.317622
2.891715
0.6375877
8.268314
0.6151777
7.240523
1.198151
-8.829939
-3.232712
-16.33404
-3.742612
1.29502
-12.49965
1.677076
-104.4242
8.708955
2.833442
20.11095
1.30479
28.37087
-13.73408
-7.595309
0.3117334
1.530135
13.52944
-11.89098
-57.47539
0.9572437
1.348547
0.6255164
0.7808521
4.113026
-4.911486
-5.149066
0.8020135
-22.22447
0.8713122
14.25983
-26.65467
1.702293
-27.54988
-9.5485
-0.1774681
-36.68803
37.14624
-1.671221
1.379566
-47.36051
1.158159
1.459618
0.8806075
-1.447618
-12.21467
-96.24006
-1.334758
0.3467187
-1.52718
1.78526
1.258372
1.061092
2.776875
10.75672
4.333574
0.3296568
1.493492
1.431447
-7.639135
-4.810664
-14.70996
2.042452
1.616501
-34.76555
0.08373858
1.275315
1.019529
-2.775312
-21.26707
1.780217
1.422772
2.459146
1.41603
0.1545447
-29.54528
1.193871
1.03125
-89.14602
21.55914
-3.617683
1.74354
4.169425
-2.180531
0.8996318
0.4010729
1.387417
-0.007415867
-0.204315
-9.197911
1.259662
-20.11478
1.706935
-10.93243
-0.5514019
1.77924
-1.255943
0.1774658
-4.357641
-10.42476
-19.07965
-18.10365
1.087393
-18.78964
-1.075513
-15.43384
0.3989729
-16.06136
2.485743
0.7261193
0.2983817
-3.306171
1.070529
-15.68569
2.489129
-42.10953
0.3041386
1.179054
0.9083079
-53.07956
1.400224
-42.36729
1.035835
0.9754201
-0.05972616
-0.09985215
3.544871
-40.26082
-7.500924
0.8751512
1.156001
-7.824538
-13.70134
3.693973
2.948209
1.298384
1.786333
0.4174723
1.318853
-52.35263
1.027318
-5.113788
0.3244398
1.39496
-1.483931
0.1436167
1.359091
0.8246732
-5.268917
-0.148029
0.6999946
6.611698
1.762332
-17.29823
0.9734077
0.5987804
-2.136616
-16.78628
1.545585
1.29026
0.1835609
-23.23904
-63.57341
-68.14023
0.8908373
-19.08979
2.266356
-10.7483
-4.33862
1.72085
16.51025
0.9531657
-74.1511
-86.58866
1.227423
1.747351
-3.12185
1.704775
1.527402
1.175503
-1.644968
1.066349
1.413137
-20.15578
-0.6229858
1.383363
0.4327153
1.505365
-1.870602
0.7673981
1.419455
1.453344
-0.09243519
-22.58276
1.48017
3.404875
2.074516
0.272782
-31.70017
-9.193737
0.07026483
-3.96553
-1.057978
-4.730195
-25.9508
-0.1887015
2.675185
0.1743128
0.2050269
13.14781
-67.64862
-10.66463
-0.5578582
-0.7951901
21.63423
-4.399099
1.351783
1.432411
0.7881123
-0.1697241
-33.27278
-38.02567
-24.51986
8.462268
6.391979
0.2606324
-68.5624
-56.38722
-84.82166
2.653306
-0.881251
1.212894
2.155038
0.8501557
0.3039624
1.280745
0.3469423
1.266973
0.8324372
1.215666
1.178221
-33.82546
1.449532
2.284253
-0.9856925
-13.04359
19.88651
0.3611926
-14.78301
-43.81463
-4.306299
2.967009
-9.678808
-2.633896
-16.94825
-78.21865
0.2773221
-21.58806
0.9109025
-39.7181
-13.33897
2.00252
1.275104
-17.22267
1.483635
14.40137
0.9631724
1.067822
3.094561
0.3581735
-8.643572
1.339711
0.3400254
1.503091
1.502252
-51.1008
0.4571454
0.8026028
-17.61943
1.333769
1.275388
-23.1181
-13.8046
-31.76728
1.548555
2.674391
18.7926
0.3320706
0.757858
-20.68643
1.136371
-40.31434
-1.025513
1.242372
1.167294
1.121372
-17.98519
-3.569666
1.338044
-5.731584
0.7523324
1.165985
0.3604177
25.73031
1.546037
-9.246033
-0.1092218
-8.758839
0.9195804
-92.5398
1.051495
1.28471
3.953676
2.515691
2.514704
-66.00913
-80.12265
-59.52218
0.2769775
-5.456466
-6.429459
2.39424
1.810333
0.5140931
0.5366511
-11.4222
-44.22553
1.384527
-49.46184
-0.1986679
2.619068
0.8176024
-16.87381
9.199237
0.2137914
1.558233
1.318304
-2.487899
-1.256641
13.718
1.373786
-14.09907
0.6085092
1.337984
0.64668
2.075295
-0.008392331
-1.478642
0.9995178
-14.49424
2.492902
0.185651
0.3174714
1.869653
-13.68451
-8.145125
-6.034335
1.328542
1.28834
-6.387218
0.03341336
1.085148
-83.89648
26.2078
-2.220573
1.383912
1.569161
-38.73203
0.3740016
2.610122
-6.347377
-1.069336
-0.6327781
0.2983631
2.147226
-29.06544
-1.421526
21.33148
37.70127
1.061182
-18.37873
-9.381193
1.123746
0.6192939
1.120609
34.27481
-74.34252
-0.02088968
6.192703
1.187398
-4.845675
0.8538175
-13.55487
3.836215
-0.282175
0.3474856
8.239204
0.8600231
2.440028
-11.08094
-11.8101
-17.35158
-4.043631
0.4290743
-91.18485
24.70994
-11.66106
-0.2769794
-4.062649
-0.3135404
1.073724
3.223791
32.24788
-1.878694
-6.48286
-7.853197
1.532312
0.4032327
-22.4472
1.264625
1.279121
1.441912
1.317871
19.45832
0.1531109
-3.664581
-4.816481
-16.08029
-3.084663
18.74351
3.013442
4.265075
-63.6119
-28.56533
1.343205
0.598761
-21.2912
-13.51067
-49.08315
4.883866
0.5907412
-1.139694
1.776876
-5.668974
-20.5534
-3.072185
-10.79872
0.5153823
0.4086374
1.303991
0.8907719
-71.22483
-22.73667
-1.600375
3.967659
0.1291975
0.3751995
-0.5394586
1.892078
0.7823721
-1.447186
-35.31513
-2.471344
-3.502586
-2.685538
-23.76402
2.753844
2.729853
-14.29438
3.449627
5.643686
2.215352
35.27039
0.1946847
0.9564206
1.651919
1.575846
-10.83044
-16.49572
-27.78577
15.37222
0.6819149
1.290362
0.8065119
0.9276489
0.5992887
0.160311
1.268836
1.420636
-0.3676299
-0.366428
0.7855966
2.258579
12.16875
7.539489
0.0915033
1.421135
-2.8563
-2.280021
1.336357
-38.11418
13.99082
-56.07962
-61.03045
1.321341
1.490848
-89.1595
43.61317
-104.8435
2.721519
0.8544776
4.908724
-8.709211
10.16686
-29.01913
0.671091
4.417425
-0.4044783
2.177411
1.035224
1.777404
-1.349441
-38.42277
3.838968
2.026496
-1.639357
1.180829
-44.64373
-23.86311
-0.1636953
1.86422
16.14251
-0.4652517
1.131133
1.200706
-0.4398909
-28.37886
1.243667
3.441129
34.31799
1.447088
1.2088
1.515993
29.17559
8.936103
-3.632337
3.013088
-9.371544
1.303709
0.4144993
-59.65833
1.104708
-110.6867
1.2758
1.946468
45.24289
2.408267
0.4454694
1.62134
2.545151
2.006834
0.6517553
-13.13513
40.95715
1.729799
-0.005946735
46.09981
-0.8413376
0.4794911
0.2848414
-27.47133
1.948377
-4.062357
-6.602835
-0.948456
-6.261231
-34.70246
1.162794
1.195164
1.242633
1.153239
20.57787
2.416501
0.669498
1.244389
0.4126475
-0.2997399
-0.4406709
-0.2997686
1.416654
0.7655987
-0.929765
-15.03674
-66.36736
-23.00813
-18.20705
2.750541
-2.227128
6.21091
-0.2773403
1.254867
4.033962
-54.10711
-32.98242
27.31623
-25.83811
0.741421
2.31028
-2.465771
-5.415086
-23.9543
1.145473
1.921963
-60.61472
2.100596
-0.9619431
1.409218
0.5257675
1.251518
1.3974
1.149447
0.9237645
0.1552525
1.443884
2.923411
-10.5858
-0.203551
1.251774
1.544488
-37.60169
-15.72537
1.40081
1.249227
1.213752
-12.43626
-18.16174
2.000468
1.423918
0.2916215
1.68102
9.31287
17.55825
1.014688
0.5473924
1.438232
4.56465
-84.21408
-83.59892
0.4243159
-5.362201
2.821479
-15.5702
13.59982
1.87401
-1.519353
1.761163
-10.21407
-12.74998
2.161555
-20.47007
-0.4946068
1.362906
28.85129
2.985283
-4.56276
2.987892
2.704859
2.443773
-15.11047