/*--------------------------------*- C++ -*----------------------------------*\
| =========                 |                                                 |
| \\      /  F ield         | OpenFOAM: The Open Source CFD Toolbox           |
|  \\    /   O peration     | Version:  2406                                  |
|   \\  /    A nd           | Website:  www.openfoam.com                      |
|    \\/     M anipulation  |                                                 |
\*---------------------------------------------------------------------------*/
FoamFile
{
    version     2.0;
    format      ascii;
    arch        "LSB;label=32;scalar=64";
    class       surfaceScalarField;
    location    "0.28";
    object      phi;
}
// * * * * * * * * * * * * * * * * * * * * * * * * * * * * * * * * * * * * * //

dimensions      [0 3 -1 0 0 0 0];

oriented        oriented;

internalField   nonuniform List<scalar> 
326221
(
-0.002420338
-0.005457176
0.007877514
-0.001424968
-0.0009953698
0.001066445
-0.002491413
0.0001159883
0.0009504565
-0.001280171
0.00139616
-0.0009077136
-0.0003724576
-0.0001503422
-0.0007573714
0.0007956519
-0.0009459941
0.00184613
-0.001050478
0.001646844
0.0001992854
0.0005181428
0.001128701
0.0002762362
0.0002419065
0.001036388
-0.0007601513
0.001412421
-0.0003760334
0.001073045
0.0003393755
0.000487084
0.0005859615
9.117873e-05
0.0003959052
-0.000381551
0.0004727297
-0.001066847
0.000685296
-0.001848356
0.000781509
-0.002597441
0.0007490854
-0.003160864
0.0005634225
-0.003352169
0.0001913048
-0.002970191
-0.0003819776
-0.001993377
-0.0009768143
-0.0002604844
-0.001732892
0.001432794
-0.001693278
0.002418551
-0.0009857576
0.002044714
0.0003738376
0.001369553
0.0006751605
0.0004309034
0.0009386498
-0.0004650542
0.0008959576
-0.0005048784
3.982423e-05
0.000184368
-0.0006892465
0.0008353787
-0.0006510106
0.001206183
-0.0003708048
0.001990422
-0.0007842386
0.002371913
-0.0003814905
0.002358489
1.342323e-05
0.002166396
0.0001920929
0.001074604
0.001091793
-0.0004741819
0.001548785
-0.001514661
0.001040479
-0.001773822
0.0002591616
-0.001439063
-0.0003347597
-0.0006144527
-0.0008246099
0.000585065
-0.001199518
0.002307469
-0.001722404
0.002063629
0.0002438399
-0.005245568
0.007309197
-0.002201007
-0.00304456
-0.0008769059
-0.001324101
-0.0009364841
5.957821e-05
-0.0006486736
-0.0002878105
-0.0004519962
-0.0001966774
-0.0001909465
-0.0002610497
7.33082e-05
-0.0002642547
0.0003346492
-0.000261341
0.0006063315
-0.0002716823
0.0007959525
-0.000189621
0.0008361914
-4.023893e-05
0.000801668
3.45234e-05
0.0007597383
4.192974e-05
0.0007699203
-1.018205e-05
0.0008328037
-6.288337e-05
0.0008393697
-6.566041e-06
0.0007781138
6.125599e-05
0.0006787957
9.931808e-05
0.0005670003
0.0001117954
0.0004103692
0.0001566311
0.0001727703
0.0002375989
-0.0001541392
0.0003269095
-0.0005660912
0.000411952
-0.00103974
0.0004736484
-0.001539132
0.0004993926
-0.002018028
0.0004788963
-0.002441414
0.0004233851
-0.002785353
0.0003439397
-0.003048933
0.0002635797
-0.003246364
0.0001974311
-0.003381197
0.000134833
-0.003457717
7.652045e-05
-0.003473314
1.559698e-05
-0.003380328
-9.298666e-05
-0.003337235
-4.309274e-05
-0.003266497
-7.073777e-05
-0.003175106
-9.139129e-05
-0.003054381
-0.0001207247
-0.002915109
-0.0001392726
-0.002764312
-0.0001507963
-0.002581155
-0.0001831572
-0.002392806
-0.0001883493
-0.002204505
-0.000188301
-0.002001061
-0.000203444
-0.001791311
-0.0002097499
-0.001566306
-0.0002250053
-0.001338138
-0.0002281672
-0.001114869
-0.000223269
-0.0008870814
-0.0002277879
-0.000648547
-0.0002385344
-0.0003937984
-0.0002547487
-0.0001640284
-0.0002297699
5.486585e-05
-0.0002188943
0.0002552123
-0.0002003464
0.0004983994
-0.0002431871
0.0007192122
-0.0002208128
0.0009501974
-0.0002309853
0.001172861
-0.0002226634
0.001393217
-0.0002203557
0.001604308
-0.0002110913
0.001816647
-0.0002123396
0.002008437
-0.0001917895
0.0021943
-0.0001858628
0.002366332
-0.0001720323
0.002514388
-0.0001480557
0.002651818
-0.0001374307
0.002847392
-0.0001955736
0.002963043
-0.0001156506
0.003054524
-9.148124e-05
0.00312416
-6.963589e-05
0.003159604
-3.544442e-05
0.003153317
6.287101e-06
0.003089983
6.333405e-05
0.002951027
0.0001389556
0.002722199
0.0002288287
0.002421598
0.0003006008
0.002078795
0.000342803
0.001724087
0.0003547076
0.00138965
0.0003344373
0.00110623
0.00028342
0.0008848123
0.0002214176
0.0007142885
0.0001705238
0.0005779622
0.0001363263
0.0004652943
0.0001126679
0.0003679132
9.738107e-05
0.0002713823
9.653092e-05
0.0001565964
0.0001147859
4.930051e-05
0.0001072959
-1.920044e-05
6.850095e-05
-7.318542e-05
5.398498e-05
-0.0001240072
5.082181e-05
-0.0001730691
4.906183e-05
-0.000225102
5.203298e-05
-0.0002953539
7.025181e-05
-0.0004043224
0.0001089685
-0.000619197
0.0002148746
-0.0007225373
0.0001033403
-0.0008228729
0.0001003356
0.0002480377
-0.001070911
-0.0003554386
0.0006034763
-0.0001202377
-0.0002352009
-0.0005755231
0.0004552854
-0.001800966
0.001225443
-0.00276788
0.0009669142
-0.002722488
-4.539199e-05
-0.002293262
-0.0004292263
-0.001848088
-0.0004451741
-0.001364916
-0.0004831724
-0.000819517
-0.0005453986
-0.0002601203
-0.0005593967
0.0002948848
-0.0005550051
0.0008806863
-0.0005858015
0.001636337
-0.0007556511
0.002322218
-0.0006858802
0.002811652
-0.0004894346
0.003518096
-0.0007064436
0.004305289
-0.0007871934
0.005184361
-0.0008790718
0.005949335
-0.0007649744
0.00651135
-0.0005620145
0.006856114
-0.0003447644
0.006992478
-0.000136364
0.00664656
0.0003459181
0.005872064
0.0007744964
0.004197942
0.001674122
0.001363556
0.002834385
-0.001414177
0.002777733
-0.002302298
0.0008881206
-0.001792639
-0.0005096587
-0.001118424
-0.0006742149
0.0001941133
-0.001312537
0.001188859
-0.0009947462
0.0003107148
0.0008781447
-0.001989433
0.002300148
-0.003936899
0.001947467
-0.003682071
-0.0002548285
-0.001914061
-0.00176801
-0.0002265565
-0.001687504
0.001100265
-0.001326822
0.001626801
-0.0005265359
0.001399942
0.0002268591
0.0007372432
0.0006626987
0.0001136244
0.0006236188
-0.0003494016
0.000463026
4.314463e-05
-0.0003925462
0.001022488
-0.0009793434
0.0006837762
0.0003387118
0.001657727
-0.000973951
0.002277235
-0.0006195081
-0.005740208
0.008017444
-0.005946831
0.0002066227
-0.005120703
-0.0008261284
-0.004803813
-0.0003168901
-0.004488422
-0.0003153904
-0.004251894
-0.0002365283
-0.004036306
-0.0002155884
-0.003848927
-0.0001873783
-0.003594231
-0.0002546967
-0.003464778
-0.0001294523
-0.003355821
-0.0001089574
-0.003255347
-0.0001004743
-0.0031661
-8.924696e-05
-0.00307978
-8.631974e-05
-0.002997459
-8.232088e-05
-0.002918942
-7.851667e-05
-0.002848795
-7.014751e-05
-0.00278428
-6.451514e-05
-0.002722119
-6.216026e-05
-0.002660784
-6.133552e-05
-0.002603698
-5.708564e-05
-0.002548727
-5.4971e-05
-0.002497378
-5.134915e-05
-0.002451469
-4.590961e-05
-0.002404396
-4.707287e-05
-0.002357023
-4.737259e-05
-0.002308973
-4.804974e-05
-0.002264337
-4.463589e-05
-0.0022243
-4.003723e-05
-0.002187922
-3.637842e-05
-0.002149814
-3.810756e-05
-0.00211202
-3.779384e-05
-0.002071836
-4.01844e-05
-0.002036536
-3.529989e-05
-0.002003977
-3.255886e-05
-0.001969754
-3.422291e-05
-0.001935067
-3.468765e-05
-0.001899349
-3.571722e-05
-0.001867393
-3.195612e-05
-0.001838183
-2.921084e-05
-0.001869294
3.11118e-05
-0.001854215
-1.507909e-05
-0.001833138
-2.107683e-05
-0.00181185
-2.128829e-05
-0.00179339
-1.845986e-05
-0.001774355
-1.903516e-05
-0.001757564
-1.679067e-05
-0.001742489
-1.507541e-05
-0.001728368
-1.412108e-05
-0.0017112
-1.716742e-05
-0.001693872
-1.732869e-05
-0.001680239
-1.363274e-05
-0.001669344
-1.089501e-05
-0.001661318
-8.026333e-06
-0.001649866
-1.145144e-05
-0.001635629
-1.423706e-05
-0.001623827
-1.180225e-05
-0.001614486
-9.340627e-06
-0.001602878
-1.160877e-05
-0.001593534
-9.343101e-06
-0.001582655
-1.087991e-05
-0.001570422
-1.223231e-05
-0.001558659
-1.176356e-05
-0.001545364
-1.329443e-05
-0.001515159
-3.02057e-05
-0.001474667
-4.049159e-05
-0.001435162
-3.950538e-05
-0.001381734
-5.342795e-05
-0.00130355
-7.81839e-05
-0.001140109
-0.0001634405
-0.0008532993
-0.0002868099
-3.790404e-07
-0.0008529203
0.000853452
-0.000853831
0.001111979
-0.0002585269
0.001276628
-0.0001646491
0.001359869
-8.324121e-05
0.001416595
-5.672589e-05
0.001469094
-5.249865e-05
0.001505749
-3.665564e-05
0.001521754
-1.600485e-05
0.001534323
-1.25693e-05
0.001558522
-2.419875e-05
0.001581744
-2.322204e-05
0.001600682
-1.8938e-05
0.001612486
-1.180371e-05
0.001623286
-1.079959e-05
0.00163395
-1.066443e-05
0.001648007
-1.405741e-05
0.001661128
-1.312014e-05
0.001670848
-9.720341e-06
0.001681438
-1.05902e-05
0.001695775
-1.433669e-05
0.001709017
-1.324265e-05
0.001721832
-1.281425e-05
0.001738235
-1.640289e-05
0.001752077
-1.384259e-05
0.001771096
-1.901869e-05
0.001793888
-2.27919e-05
0.001812407
-1.851935e-05
0.00182748
-1.507249e-05
0.001844638
-1.715847e-05
0.001864648
-2.000958e-05
0.001877557
-1.290959e-05
0.001841914
3.564319e-05
0.001868571
-2.665713e-05
0.001902127
-3.355624e-05
0.001936435
-3.430721e-05
0.001971239
-3.480394e-05
0.002008783
-3.754433e-05
0.002044505
-3.572196e-05
0.002077234
-3.272946e-05
0.002112445
-3.521036e-05
0.002151895
-3.944997e-05
0.002195324
-4.342898e-05
0.002233615
-3.829154e-05
0.00226997
-3.635459e-05
0.002309043
-3.907307e-05
0.002351549
-4.250626e-05
0.002394802
-4.325271e-05
0.002442974
-4.817257e-05
0.002493246
-5.027156e-05
0.002543993
-5.074681e-05
0.00259649
-5.249703e-05
0.002645552
-4.906174e-05
0.002703783
-5.82316e-05
0.002764751
-6.096811e-05
0.002828309
-6.355762e-05
0.002896555
-6.82457e-05
0.002966948
-7.039335e-05
0.003044825
-7.787683e-05
0.003130046
-8.522172e-05
0.003217206
-8.716001e-05
0.003311461
-9.425448e-05
0.003418722
-0.0001072613
0.003545196
-0.0001264736
0.00379106
-0.0002458644
0.003970402
-0.0001793419
0.004173461
-0.0002030585
0.004399437
-0.0002259765
0.00469051
-0.0002910729
0.004973724
-0.0002832136
0.005683493
-0.0007097689
0.0002263166
0.001055578
4.279663e-06
-0.001913689
0.001483194
-0.0006861423
0.001766405
-0.00044786
0.001988294
-0.0003051311
0.002164366
-0.0002327976
0.002321572
-0.0002097046
0.002456805
-0.0001718882
0.002567785
-0.0001269856
0.002666651
-0.0001114346
0.002768297
-0.0001258447
0.002864135
-0.0001190599
0.002954458
-0.0001092617
0.003035837
-9.318239e-05
0.003113656
-8.861842e-05
0.003186569
-8.357743e-05
0.003259319
-8.680739e-05
0.003328347
-8.214824e-05
0.003393055
-7.442831e-05
0.00345508
-7.26152e-05
0.003517682
-7.693904e-05
0.003577599
-7.315969e-05
0.003635116
-7.033142e-05
0.003694092
-7.537896e-05
0.003749105
-6.885519e-05
0.003806729
-7.664257e-05
0.003865383
-8.144616e-05
0.003921914
-7.505002e-05
0.003974345
-6.750372e-05
0.004028385
-7.119794e-05
0.004082612
-7.423744e-05
0.004134403
-6.469995e-05
0.00409716
7.288583e-05
0.004160876
-9.037297e-05
0.004228036
-0.000100716
0.004295551
-0.0001018224
0.004363301
-0.0001025538
0.004432309
-0.000106553
0.004500934
-0.0001043463
0.004566492
-9.828827e-05
0.004634541
-0.0001032588
0.004703618
-0.0001085268
0.004777322
-0.0001171334
0.004846468
-0.0001074374
0.004915808
-0.0001056942
0.004985813
-0.000109078
0.005059033
-0.0001157271
0.005132202
-0.0001164212
0.005209487
-0.0001254573
0.005288869
-0.0001296536
0.005368785
-0.0001306631
0.005451567
-0.0001352796
0.005531077
-0.0001285709
0.005618801
-0.0001459559
0.005707145
-0.0001493125
0.005799729
-0.0001561414
0.005894636
-0.0001631521
0.005993212
-0.00016897
0.006096548
-0.0001812129
0.006207184
-0.0001958572
0.006319208
-0.0001991846
0.006438298
-0.0002133437
0.006567836
-0.0002367993
0.006713519
-0.0002721571
0.007041992
-0.0005743374
0.007239248
-0.0003765979
0.00746561
-0.0004294208
0.007710387
-0.0004707531
0.008032747
-0.0006134333
0.008303792
-0.0005542586
0.009117865
-0.001523842
0.008270427
0.001073755
-0.009390196
0.00862005
0.0009767687
-0.008479019
-0.001737305
-0.008173066
-0.0006228432
-0.007829492
-0.0006589646
-0.007573639
-0.0004923804
-0.007334666
-0.0004545617
-0.007129182
-0.0003928629
-0.006790983
-0.0005928951
-0.00664132
-0.0002791149
-0.00650899
-0.0002412877
-0.006383608
-0.0002258566
-0.006268472
-0.0002043828
-0.006155409
-0.000199383
-0.006047579
-0.0001901504
-0.005941954
-0.000184142
-0.005844615
-0.0001674861
-0.00574999
-0.0001591408
-0.005659456
-0.0001526937
-0.005568582
-0.0001522096
-0.005482658
-0.0001430095
-0.005397602
-0.0001400269
-0.005316196
-0.0001327559
-0.005238493
-0.0001236125
-0.005160488
-0.0001250775
-0.005083428
-0.0001244324
-0.005005914
-0.0001255642
-0.004931967
-0.0001185829
-0.00486
-0.0001120041
-0.004791656
-0.0001047222
-0.004720559
-0.0001092045
-0.004651667
-0.0001066859
-0.004579829
-0.0001120227
-0.004512396
-0.0001027326
-0.004445321
-9.963437e-05
-0.004377569
-0.0001019746
-0.004309012
-0.000103245
-0.00423989
-0.0001048394
-0.004173205
-9.864065e-05
-0.004107561
-9.4855e-05
-0.00414232
6.587098e-05
-0.004089767
-6.763226e-05
-0.004035562
-7.528175e-05
-0.00398002
-7.682979e-05
-0.003927181
-7.129917e-05
-0.003872056
-7.416005e-05
-0.00381868
-7.016735e-05
-0.003764397
-6.935813e-05
-0.00371028
-6.823806e-05
-0.003652678
-7.476935e-05
-0.003594511
-7.54957e-05
-0.00353723
-7.091371e-05
-0.003479328
-6.879672e-05
-0.003421162
-6.619281e-05
-0.003357743
-7.487029e-05
-0.003290977
-8.100344e-05
-0.00322263
-8.01486e-05
-0.003153228
-7.874291e-05
-0.003077703
-8.713411e-05
-0.00300071
-8.633523e-05
-0.002917029
-9.456168e-05
-0.00282753
-0.000101731
-0.002731637
-0.0001076567
-0.002628124
-0.0001168069
-0.002504431
-0.000153899
-0.002366223
-0.0001786997
-0.00221702
-0.0001887085
-0.002036671
-0.0002337769
-0.001813747
-0.0003011078
-0.001519813
-0.0004573743
-0.001063337
-0.0007432856
-0.001911978
-0.0008157737
0.0001007438
0.000479829
-0.002991326
0.002630838
-0.004328907
0.002563024
-0.004345412
0.0009834192
-0.003800987
-0.0005898176
-0.003307084
-0.0009231287
-0.002709719
-0.00104254
-0.002066098
-0.001126793
-0.001360779
-0.001250717
-0.0006310515
-0.001289124
0.0001030197
-0.001289076
0.0008722592
-0.001355041
0.001833729
-0.001717121
0.002748397
-0.001600548
0.003429516
-0.001170553
0.004319646
-0.001596573
0.005309997
-0.001777544
0.00642567
-0.001994745
0.007443263
-0.001782567
0.008253205
-0.001371956
0.008811412
-0.0009029717
0.009216385
-0.0005413371
0.009286105
0.0002761979
0.009236589
0.0008240126
0.008524017
0.002386694
0.00596335
0.005395053
0.0009700412
0.007771042
-0.002825842
0.004684004
-0.00314025
-0.0001952507
-0.002244058
-0.001570407
-0.0007040334
-0.002852562
0.0005275036
-0.002226283
-0.0009103329
0.002315981
-0.004527742
0.005917556
-0.005871002
0.003290727
-0.004432893
-0.001692938
-0.002331366
-0.003869538
-0.0002371837
-0.003781686
0.001463263
-0.003027269
0.002202074
-0.001265347
0.002127016
0.0003019178
0.001522655
0.001267059
0.0006000759
0.001546198
-0.0002072796
0.001270382
0.0002226596
-0.0008224854
0.001506883
-0.002263566
0.001696647
0.0001489478
0.002543554
-0.001820858
0.0007377864
0.001186259
0.01737528
-0.002942106
0.005779718
-0.005882172
-0.00161698
-0.002649227
-0.001033062
-0.0005243395
-0.000675256
-0.0006456169
-0.0004465631
-0.0004253702
-0.0001349741
-0.0005726388
0.000224915
-0.0006241438
0.0005636277
-0.0006000537
0.0008912551
-0.0005993097
0.001140892
-0.0004392581
0.001247965
-0.0001473115
0.001283593
-1.104495e-06
0.001280823
4.469945e-05
0.001249689
2.095236e-05
0.001199043
-1.223801e-05
0.001043192
0.0001492853
0.0007470808
0.000357367
0.0002410646
0.0006053343
-0.0004818724
0.0008347324
-0.001328979
0.001003738
-0.002213748
0.001122368
-0.003062881
0.001176042
-0.003832334
0.001181405
-0.004497553
0.001138867
-0.005037176
0.001039015
-0.005437472
0.0008791925
-0.005704615
0.0006905282
-0.005855819
0.0004951439
-0.005917218
0.000324978
-0.005916475
0.0001966881
-0.005865716
8.407428e-05
-0.005777941
-1.125464e-05
-0.005662833
-9.951081e-05
-0.005417086
-0.0003387335
-0.00526318
-0.0001969989
-0.005082406
-0.0002515122
-0.004882415
-0.0002913815
-0.004654635
-0.0003485045
-0.004408836
-0.0003850716
-0.004152515
-0.0004071182
-0.003864843
-0.0004708289
-0.003571845
-0.0004813473
-0.003277718
-0.0004824282
-0.002967368
-0.0005137937
-0.002650322
-0.000526796
-0.002317749
-0.0005575777
-0.001981448
-0.000564469
-0.001648517
-0.0005561999
-0.001309049
-0.0005672553
-0.0009583239
-0.0005892599
-0.0005925945
-0.000620478
-0.0002565032
-0.0005658612
6.494107e-05
-0.0005403386
0.0003642761
-0.0004996814
0.0007164438
-0.0005953548
0.001045073
-0.0005494423
0.001384519
-0.0005704306
0.001714411
-0.0005525559
0.002041762
-0.000547707
0.002359092
-0.0005284209
0.00267738
-0.0005306278
0.002974267
-0.0004886759
0.003264324
-0.0004759206
0.003539256
-0.0004469644
0.003788998
-0.0003977976
0.004027978
-0.0003764098
0.004348948
-0.0005165435
0.004559858
-0.0003265611
0.004752694
-0.000284317
0.004925061
-0.0002420033
0.005067131
-0.0001775137
0.005189727
-0.0001163092
0.005295947
-4.288652e-05
0.005369613
6.529025e-05
0.005383327
0.000215115
0.005324143
0.0003597846
0.005181877
0.0004850684
0.004954574
0.0005820115
0.004657534
0.0006314773
0.004318912
0.0006220418
0.003957473
0.0005828567
0.003572168
0.0005558284
0.003145685
0.0005628091
0.002656106
0.0006022467
0.002110613
0.0006428741
0.001577563
0.0006295816
0.001146975
0.0005453739
0.0008758212
0.0003784493
0.0007343843
0.0002099379
0.0006481209
0.0001402483
0.0005821022
0.0001168406
0.0005327653
9.839871e-05
0.0004920733
9.272493e-05
0.0004317529
0.0001305723
0.0003012528
0.0002394687
9.33327e-05
0.0004227947
-0.0001649642
0.0003616371
5.856656e-06
-7.048521e-05
0.001065118
-0.002130172
0.001769338
-0.001005323
0.01715326
-0.002302429
0.0003017358
-0.0002285669
-0.004565275
-0.001118126
0.001840015
-0.002133496
0.00241153
-0.001291292
-0.001214661
-0.0003706391
-0.001678024
0.0007948727
-0.002111506
0.002222171
-0.002477776
0.002666448
-0.0002449919
0.001967907
0.001827243
0.001489183
0.00072063
0.001649287
-0.000920255
0.001507558
-0.0002343048
0.0006697011
0.001177233
-9.825845e-07
0.001256645
-0.0003554316
0.0007503543
-0.001242785
0.001360083
-0.002338107
0.001780618
-0.003272308
0.001715711
-0.003956989
0.001433766
-0.0043889
0.0009953332
-0.004454652
0.0002570567
-0.003930916
-0.000905713
-0.002720733
-0.002186997
-0.0006457527
-0.003807873
0.001699271
-0.004038301
0.003805298
-0.003091786
0.003933212
0.0002459237
0.00258831
0.002020063
0.0008208511
0.002706108
-0.0002584931
0.001975302
-3.017434e-05
-0.0001884945
0.0008689534
-0.001588374
0.001851384
-0.001633441
0.002426766
-0.0009461869
0.0033273
-0.001684773
0.00386509
-0.0009192802
0.003838457
4.005619e-05
0.002335946
0.001694604
-0.0006893291
0.004117068
-0.002852191
0.003711648
-0.003411356
0.001599643
-0.003244241
9.204703e-05
-0.00269331
-0.0008856904
-0.001800498
-0.001717423
-0.0004987864
-0.002501229
0.0008477044
-0.003068895
-0.0003438503
0.001435395
0.01274506
0.0009883273
-0.01048446
0.0266494
-0.002673869
0.003963932
-0.002020487
-0.005218658
-0.002586615
0.002406143
-0.002891885
0.0027168
-0.001794663
-0.002311884
-0.0006918611
-0.002780826
0.0006482043
-0.003451571
0.002252575
-0.004082147
0.003025229
-0.001017646
0.002762739
0.002089733
0.002268362
0.001215007
0.001731607
-0.0003834996
0.0006993723
0.0007979299
-0.0002291263
0.002105731
-0.0004701788
0.001497698
-0.0008336371
0.001113813
-0.001931579
0.002458025
-0.003222635
0.003071674
-0.004304852
0.002797928
-0.005130841
0.002259755
-0.005670098
0.00153459
-0.005755932
0.0003428901
-0.005082414
-0.00157923
-0.003600982
-0.00366843
-0.001159814
-0.00624904
0.001555876
-0.006753992
0.0044027
-0.005938609
0.0052894
-0.0006407763
0.003898192
0.00341127
0.00167759
0.004926711
0.0003777923
0.003275099
0.0005354567
-0.0003461589
0.001652812
-0.00270573
0.002807903
-0.002788532
0.003574387
-0.001712671
0.004665457
-0.002775843
0.005190445
-0.001444268
0.004238056
0.0009924446
0.0006542032
0.005278457
-0.003168332
0.007939603
-0.004570418
0.005113734
-0.004727793
0.001757018
-0.004501259
-0.0001344867
-0.003904731
-0.001482218
-0.002961097
-0.002661056
-0.001803683
-0.003658644
-0.001313967
-0.00355861
-0.002522698
0.002644125
-0.006761878
0.01698424
-0.004204534
-0.008439516
-0.002425336
-0.004428425
-0.001537345
-0.001412331
-0.001126541
-0.001056421
-0.0008376561
-0.0007142554
-0.0004902596
-0.0009200352
-7.666116e-05
-0.001037742
0.0003381632
-0.001014878
0.0007168203
-0.0009779668
0.00102154
-0.0007439777
0.001163243
-0.0002890149
0.001185313
-2.317418e-05
0.001144686
8.532681e-05
0.0008843678
0.0002812703
0.0003604512
0.0005116785
-0.0003524039
0.0008621404
-0.001260392
0.001265355
-0.002360642
0.001705584
-0.003537953
0.002012044
-0.004634305
0.00210009
-0.005556107
0.00204417
-0.006266874
0.001886809
-0.006774424
0.001688956
-0.007110117
0.00147456
-0.007310211
0.001239109
-0.007409249
0.0009782305
-0.007441138
0.0007224177
-0.007426474
0.0004804792
-0.007377993
0.0002764976
-0.0073063
0.0001249945
-0.007207811
-1.441484e-05
-0.007083397
-0.0001356678
-0.006928599
-0.0002543091
-0.006615493
-0.00065184
-0.006411499
-0.0004009927
-0.006179003
-0.0004840081
-0.005926859
-0.000543525
-0.00564386
-0.0006315037
-0.005340039
-0.0006888929
-0.005025687
-0.0007214697
-0.004674929
-0.000821587
-0.004317931
-0.0008383459
-0.003960308
-0.0008400511
-0.003583373
-0.0008907282
-0.003199042
-0.0009111272
-0.002796767
-0.000959853
-0.002390164
-0.0009710724
-0.0019877
-0.0009586631
-0.001577336
-0.0009776195
-0.001154181
-0.001012415
-0.0007148866
-0.001059773
-0.0003103527
-0.000970395
7.534848e-05
-0.0009260398
0.0004383745
-0.0008627074
0.0008637585
-0.001020739
0.001262235
-0.0009479188
0.001671967
-0.0009801629
0.002070018
-0.0009506064
0.002465918
-0.0009436073
0.002850318
-0.0009128203
0.003236285
-0.0009165956
0.003596823
-0.0008492132
0.003950133
-0.0008292314
0.004285274
-0.000782105
0.004591743
-0.0007042666
0.004887187
-0.0006718536
0.00527828
-0.0009076371
0.005539324
-0.0005876047
0.005782714
-0.0005277066
0.006004128
-0.0004634182
0.006193319
-0.0003667044
0.006358307
-0.0002812973
0.006501641
-0.0001862199
0.00662337
-5.643936e-05
0.006720897
0.000117588
0.006802672
0.0002780099
0.006859187
0.000428553
0.006871245
0.0005699537
0.006822127
0.0006805955
0.006706252
0.0007379167
0.006520712
0.0007683973
0.006257976
0.000818564
0.005898991
0.0009217944
0.005410779
0.001090458
0.004774266
0.001279388
0.00402305
0.001380797
0.003244223
0.001324201
0.002538397
0.001084275
0.00194587
0.0008024647
0.001471641
0.0006144776
0.001132065
0.0004564158
0.0009186298
0.0003118344
0.0007910612
0.0002202935
0.0006882926
0.0002333408
0.0005337811
0.0003939802
0.0003278349
0.0006287409
0.000140354
0.000549118
0.0003232506
-0.0002533818
0.001320799
-0.00312772
-0.001102088
0.004192224
-0.003173112
0.002550854
-0.005517126
0.004974851
-0.005872752
0.00291865
-0.005280317
0.0003909842
-0.00471995
-0.001150185
-0.00411144
-0.001531639
-0.003381485
-0.001772495
-0.002608707
-0.001899571
-0.001750941
-0.002108484
-0.0008634614
-0.002176604
2.900128e-05
-0.002181539
0.000951088
-0.002277128
0.00209776
-0.002863793
0.003220276
-0.002723064
0.004034992
-0.00198527
0.00507029
-0.002631871
0.006240498
-0.002947753
0.007594641
-0.003348888
0.008846094
-0.00303402
0.00984319
-0.002369053
0.01053084
-0.001590624
0.0109939
-0.001004394
0.01097692
0.0002931773
0.01086677
0.0009341661
0.01052466
0.002728801
0.009295469
0.006624243
0.004879103
0.01218741
-0.001326609
0.01088972
-0.00411582
0.00259396
-0.003756066
-0.001930161
-0.002232419
-0.004376209
-0.001215961
-0.003242741
-0.003367624
0.004467644
-0.006726567
0.009276499
-0.007048339
0.003612499
-0.005145353
-0.003595923
-0.002715387
-0.006299504
-0.0001650099
-0.006332063
0.001816715
-0.005008993
0.002754498
-0.00220313
0.002729454
0.0003269616
0.002100289
0.001896225
0.001056871
0.002589615
0.0001061494
0.002221103
0.0005709181
-0.001287254
0.001840749
-0.003533398
0.002217423
-0.0002277259
0.002600376
-0.002203811
-0.001186355
0.00497299
-0.010842
0.02703092
-0.01157087
0.001705638
-0.01065704
-0.002651128
-0.01027036
-0.001009526
-0.009888382
-0.001040942
-0.009603525
-0.0007772374
-0.009340308
-0.0007177778
-0.00911942
-0.0006137509
-0.008731086
-0.0009812299
-0.008567808
-0.0004423928
-0.00841919
-0.0003899052
-0.008277757
-0.0003672894
-0.008146802
-0.0003353378
-0.008017362
-0.0003288232
-0.007893703
-0.0003138098
-0.007771527
-0.0003063172
-0.007657824
-0.0002811896
-0.007545791
-0.0002711735
-0.007438248
-0.000260237
-0.007329638
-0.00026082
-0.00722632
-0.0002463272
-0.007123155
-0.0002431921
-0.007023405
-0.0002325054
-0.006927046
-0.0002199721
-0.006830107
-0.0002220168
-0.006734558
-0.0002199813
-0.006638231
-0.0002218912
-0.006545446
-0.0002113679
-0.006453517
-0.0002039331
-0.006365149
-0.0001930899
-0.006272994
-0.000201359
-0.006183869
-0.0001958109
-0.006090817
-0.0002050749
-0.006002266
-0.0001912834
-0.005912978
-0.0001889229
-0.005822742
-0.0001922102
-0.005731505
-0.0001944824
-0.005639102
-0.0001972419
-0.005547599
-0.0001901441
-0.00545428
-0.0001881743
-0.00548117
9.276133e-05
-0.005398001
-0.0001508014
-0.005320807
-0.0001524757
-0.005240581
-0.0001570557
-0.005163572
-0.0001483081
-0.005083165
-0.0001545666
-0.005004588
-0.0001487445
-0.004924257
-0.0001496894
-0.004844049
-0.0001484455
-0.004759753
-0.0001590656
-0.004674851
-0.0001603982
-0.00459051
-0.000155254
-0.004504621
-0.0001546859
-0.004418087
-0.0001527271
-0.00432548
-0.000167477
-0.004229206
-0.0001772781
-0.004131157
-0.0001781967
-0.004031665
-0.0001782354
-0.003924566
-0.0001942328
-0.003816134
-0.0001947671
-0.003699924
-0.0002107722
-0.003577592
-0.0002240633
-0.003447819
-0.000237429
-0.003309549
-0.0002550775
-0.003147152
-0.0003162952
-0.002969632
-0.0003562199
-0.002782542
-0.0003757988
-0.002558765
-0.000457554
-0.002284362
-0.0005755104
-0.001908942
-0.0008327941
-0.001224767
-0.001427461
-7.232625e-06
-0.003129513
0.00121341
-0.003134331
0.001862809
-0.001335541
0.002219929
-0.0008049809
0.002491451
-0.0005766524
0.002708791
-0.0004501381
0.002906623
-0.0004075363
0.003080994
-0.0003462597
0.003226837
-0.0002728276
0.003357016
-0.0002416146
0.00349135
-0.0002601777
0.003619276
-0.0002469867
0.003742269
-0.0002322546
0.003854829
-0.0002057422
0.00396377
-0.0001975591
0.004066907
-0.0001867142
0.004170199
-0.0001901003
0.004269623
-0.0001815718
0.004364082
-0.0001688873
0.004455299
-0.0001638322
0.004546982
-0.0001686223
0.004635554
-0.0001617311
0.004720894
-0.0001556719
0.004808044
-0.0001625288
0.004889693
-0.000150504
0.004973743
-0.0001606929
0.005058384
-0.0001660872
0.005140987
-0.0001576526
0.005218909
-0.000145426
0.005298504
-0.0001507928
0.00537667
-0.0001524036
0.005460096
-0.0001481254
0.005432264
0.0001007171
0.005524049
-0.0001821581
0.005616545
-0.0001932114
0.005707424
-0.000192702
0.00579778
-0.0001929095
0.005888838
-0.0001976106
0.005979606
-0.0001951144
0.006066688
-0.0001853698
0.006156122
-0.0001926933
0.0062451
-0.0001975051
0.006339205
-0.0002112382
0.006428162
-0.0001963944
0.006517757
-0.0001952893
0.006607218
-0.0001985389
0.006699788
-0.000208297
0.006791476
-0.0002081087
0.006887112
-0.0002210942
0.00698454
-0.0002270814
0.007082121
-0.0002282438
0.007183254
-0.0002364131
0.007279962
-0.0002252788
0.007385422
-0.0002514158
0.007490171
-0.000254061
0.007599529
-0.0002655001
0.007710613
-0.0002742358
0.007825246
-0.0002836031
0.007944088
-0.0003000548
0.00807031
-0.000322079
0.008197494
-0.000326369
0.008331632
-0.0003474813
0.008476784
-0.0003819513
0.008635121
-0.0004304943
0.009011895
-0.0009511112
0.009223115
-0.0005878181
0.009471133
-0.0006774389
0.009743456
-0.0007430761
0.01010285
-0.0009728254
0.01044913
-0.000900539
0.01127334
-0.002348055
0.001862638
0.001278863
1.078709e-05
-0.004423981
0.002090916
-0.002147594
0.002536887
-0.001250952
0.002871828
-0.0009115934
0.003147162
-0.000725472
0.003397763
-0.0006581377
0.003617648
-0.0005661442
0.003803433
-0.0004586134
0.003969197
-0.0004073783
0.004138341
-0.0004293215
0.004298595
-0.0004072408
0.004452717
-0.0003863768
0.004594446
-0.0003474711
0.004731256
-0.0003343687
0.004861078
-0.0003165366
0.004990236
-0.0003192585
0.005115155
-0.0003064902
0.005233467
-0.0002872
0.005348174
-0.0002785388
0.00546285
-0.000283298
0.005573742
-0.0002726232
0.005680586
-0.0002625166
0.005789661
-0.0002716038
0.005891633
-0.000252476
0.005996483
-0.0002655427
0.006102077
-0.0002716815
0.006204664
-0.0002602393
0.006302339
-0.0002431012
0.006401452
-0.0002499051
0.006498832
-0.0002497842
0.00660383
-0.0002531232
0.006576148
0.0001283989
0.006687676
-0.0002936856
0.006802111
-0.0003076463
0.006913177
-0.0003037679
0.007023595
-0.0003033279
0.007134916
-0.0003089319
0.007245487
-0.0003056847
0.007351789
-0.0002916719
0.007460587
-0.0003014914
0.007568802
-0.0003057204
0.007682912
-0.0003253481
0.007790813
-0.0003042953
0.007899384
-0.0003038609
0.008007975
-0.0003071298
0.008119817
-0.0003201387
0.00823049
-0.0003187819
0.008345949
-0.000336553
0.008463169
-0.0003443017
0.008580607
-0.0003456815
0.00870236
-0.000358166
0.008818208
-0.0003411266
0.008945199
-0.000378407
0.009070397
-0.0003792586
0.00920091
-0.000396013
0.009333828
-0.0004071547
0.009469844
-0.0004196189
0.009611673
-0.000441884
0.009761365
-0.0004717707
0.009912021
-0.0004770246
0.01007082
-0.0005062828
0.01024281
-0.0005539428
0.01064803
-0.0008357118
0.01087881
-0.001181895
0.0111265
-0.0008355063
0.01142077
-0.0009717019
0.01175393
-0.001076242
0.01218149
-0.00140038
0.01267024
-0.001389296
0.01343488
-0.003112691
0.0129274
0.002370114
-0.01377541
0.01331557
0.002165479
-0.01291788
-0.003508661
-0.01237983
-0.001547574
-0.01192628
-0.001494496
-0.01157894
-0.001124579
-0.01126522
-0.001031499
-0.01100527
-0.0008737016
-0.01076289
-0.001223606
-0.01034793
-0.0008573526
-0.01017219
-0.0005656473
-0.01000428
-0.0005351946
-0.009848978
-0.0004906441
-0.00969531
-0.0004824908
-0.009548204
-0.0004609158
-0.009402853
-0.000451668
-0.00926693
-0.0004171122
-0.009133297
-0.0004048073
-0.009004581
-0.0003889526
-0.00887455
-0.0003908512
-0.00875061
-0.0003702667
-0.008626999
-0.0003668032
-0.0085068
-0.0003527043
-0.00839104
-0.0003357328
-0.008274302
-0.0003387546
-0.008159248
-0.0003350353
-0.008043332