/*--------------------------------*- C++ -*----------------------------------*\
| =========                 |                                                 |
| \\      /  F ield         | OpenFOAM: The Open Source CFD Toolbox           |
|  \\    /   O peration     | Version:  2406                                  |
|   \\  /    A nd           | Website:  www.openfoam.com                      |
|    \\/     M anipulation  |                                                 |
\*---------------------------------------------------------------------------*/
FoamFile
{
    version     2.0;
    format      ascii;
    arch        "LSB;label=32;scalar=64";
    class       surfaceScalarField;
    location    "1.26";
    object      phi;
}
// * * * * * * * * * * * * * * * * * * * * * * * * * * * * * * * * * * * * * //

dimensions      [0 3 -1 0 0 0 0];

oriented        oriented;

internalField   nonuniform List<scalar> 
326221
(
-0.001590201
-0.003100425
0.004690626
-0.0006868514
-0.0009033498
0.0001305231
-0.0008173745
-0.0009094976
0.001040021
-0.0007117745
-0.0001977231
-8.182793e-06
-0.0007035917
0.0002304938
-0.0002386766
0.0001673918
6.310202e-05
-6.511416e-05
0.0002325059
-0.0001938501
0.000128736
-0.0003090155
0.0001151654
-0.0005812291
0.0002722135
-0.0007012574
0.0001200283
-0.0005124891
-0.0001887683
-0.0001479915
-0.0003644977
0.0004562586
-0.00060425
0.0009497127
-0.0004934541
0.001143702
-0.0001939894
0.0007774347
0.0003662674
0.0001201393
0.0006572954
-0.0001841296
0.0003042689
-0.0001971677
1.303818e-05
-0.0003544975
0.0001573298
-0.0002457271
-0.0001087705
4.290327e-05
-0.0002886303
0.0001992727
-0.0001563694
0.0003105432
-0.0001112705
0.00041907
-0.0001085268
0.0006605758
-0.0002415058
0.0007938249
-0.0001332492
0.0005677183
0.0002261066
0.0003473217
0.0002203966
0.0003958636
-4.854191e-05
0.0005679719
-0.0001721083
0.0007344813
-0.0001665094
0.0009059995
-0.0001715182
0.001082421
-0.0001764218
0.001298308
-0.0002158865
0.00155295
-0.0002546421
0.001823615
-0.0002706647
0.002097051
-0.0002734366
0.002373486
-0.0002764349
0.002645314
-0.0002718278
0.0028941
-0.0002487862
0.003029962
-0.0001358616
0.002820018
0.000209944
0.002171575
0.0006484429
0.001564524
0.0006070504
0.001342737
0.0002217871
0.001435324
-9.258708e-05
-0.001600008
0.003035332
-0.001147598
-0.0004524099
8.056382e-05
-0.001228162
0.001486962
-0.001406398
0.002064282
-0.0005773194
0.002135467
-7.118556e-05
0.001690409
0.000445058
0.001122157
0.0005682518
0.0008793693
0.000242788
0.00098267
-0.0001033007
0.001295708
-0.0003130384
0.001688714
-0.0003930054
0.001980501
-0.0002917871
0.002173971
-0.0001934701
0.002291527
-0.0001175559
0.002354565
-6.303844e-05
0.002407268
-5.270297e-05
0.002490244
-8.297585e-05
0.002575654
-8.54094e-05
0.002643948
-6.829445e-05
0.002696948
-5.299975e-05
0.002740469
-4.352107e-05
0.002796356
-5.588724e-05
0.002879554
-8.319808e-05
0.002948164
-6.860951e-05
0.002929936
1.822732e-05
0.002851646
7.829015e-05
0.002792415
5.923121e-05
0.002774457
1.795824e-05
0.002792018
-1.756121e-05
0.00282847
-3.645169e-05
0.002894616
-6.614643e-05
0.003017786
-0.0001231703
0.003095224
-7.74372e-05
0.0032055
-0.0001102765
0.003283009
-7.7509e-05
0.00333088
-4.787128e-05
0.003367414
-3.653385e-05
0.003390238
-2.282377e-05
0.003411969
-2.173051e-05
0.003441235
-2.926638e-05
0.003466124
-2.488943e-05
0.003490727
-2.460249e-05
0.003512674
-2.194716e-05
0.003521701
-9.026813e-06
0.003513327
8.374048e-06
0.003477949
3.537791e-05
0.003427336
5.061304e-05
0.003360011
6.732509e-05
0.003273707
8.630352e-05
0.003175152
9.855503e-05
0.003071346
0.0001038058
0.002964501
0.0001068452
0.002854635
0.0001098657
0.002741719
0.000112916
0.002625646
0.0001160732
0.002504719
0.0001209272
0.002385939
0.0001187798
0.002264344
0.0001215957
0.002135764
0.0001285791
0.001990017
0.0001457477
0.001841414
0.0001486028
0.001687946
0.0001534684
0.001528139
0.0001598063
0.001378439
0.0001497002
0.001253388
0.000125051
0.001176685
7.670352e-05
0.00107458
0.000102105
0.00100398
7.059958e-05
0.00094282
6.116009e-05
0.0008992658
4.355421e-05
0.0008669728
3.229297e-05
0.0008292942
3.767861e-05
0.0007771734
5.212079e-05
0.0007340291
4.314431e-05
0.0006945688
3.946029e-05
0.0006532314
4.133738e-05
0.0005898052
6.342622e-05
0.0005261449
6.36603e-05
0.0004589628
6.718208e-05
0.0003860716
7.289124e-05
0.0003071033
7.896831e-05
0.0002313922
7.571108e-05
0.0001500953
8.129688e-05
5.246058e-05
9.763475e-05
-3.852961e-05
9.099019e-05
-0.0001435191
0.0001049895
-0.0002686851
0.000125166
-0.0003897519
0.0001210669
-0.0004850869
9.533492e-05
-0.0005302622
4.517532e-05
-0.0004802805
-4.998163e-05
-0.000430878
-4.940254e-05
-0.000711596
0.000280718
-0.001176358
0.0004647625
-0.001234469
5.811018e-05
-0.0008082441
-0.0004262245
0.0009060903
-0.001714334
0.002092546
-0.001186456
-0.003632604
0.00572515
-0.00348352
-0.000149084
-0.002776496
-0.0007070242
-0.002151807
-0.0006246887
-0.001637304
-0.0005145035
-0.001173716
-0.0004635873
-0.0007248278
-0.0004488886
-0.0002689779
-0.00045585
0.0001614272
-0.000430405
0.000638333
-0.0004769059
0.0008720187
-0.0002336857
0.0007325584
0.0001394603
0.0005066357
0.0002259227
0.0009086763
-0.0004020406
0.001557819
-0.0006491422
0.001787974
-0.0002301558
0.001935585
-0.0001476106
0.002090022
-0.0001544376
0.002351096
-0.0002610734
0.002346649
4.447077e-06
0.001820538
0.0005261106
0.001029275
0.0007912633
0.0004822421
0.0005470328
0.0003035741
0.000178668
0.0003621987
-5.862459e-05
0.0004829754
-0.0001207767
0.0006540359
-0.0001710605
0.0007857968
-0.0001317609
0.0008087215
-2.292478e-05
0.0008022182
6.503326e-06
0.0008249731
-2.27549e-05
0.0007826192
4.23539e-05
0.0006336435
0.0001489757
0.0004246768
0.0002089667
0.0001586576
0.0002660192
-0.0001303115
0.0002889691
-0.0002099786
7.966714e-05
3.150901e-06
-0.0002131295
0.0001686518
-0.0001655009
-6.20707e-05
0.0002307225
9.974217e-05
-0.0001618129
0.0008071725
-0.0007074303
0.001043712
-0.0002365396
0.0004016864
0.0006420257
-0.0003423104
0.0007439968
-0.0006572571
0.0003149466
-0.001056387
0.0003991299
-0.0006645069
-0.0003918801
0.001893097
-0.002557604
0.00266355
-0.0007704535
-0.006747757
0.009411307
-0.006972023
0.0002242663
-0.005923275
-0.001048748
-0.005539373
-0.0003839016
-0.005146967
-0.0003924059
-0.004856144
-0.0002908228
-0.004591823
-0.0002643212
-0.004363187
-0.0002286363
-0.004065282
-0.0002979054
-0.003908054
-0.0001572276
-0.003773637
-0.0001344168
-0.003650505
-0.0001231321
-0.003540985
-0.0001095204
-0.003436044
-0.0001049402
-0.003336481
-9.956359e-05
-0.003241969
-9.451229e-05
-0.003157615
-8.43533e-05
-0.003080482
-7.713342e-05
-0.003006772
-7.370989e-05
-0.002934365
-7.240694e-05
-0.002866986
-6.737859e-05
-0.002802559
-6.442755e-05
-0.002742739
-5.98204e-05
-0.002689069
-5.366976e-05
-0.002634507
-5.456225e-05
-0.002580319
-5.418777e-05
-0.002525845
-5.447362e-05
-0.002474582
-5.126302e-05
-0.002428988
-4.559395e-05
-0.002387562
-4.142569e-05
-0.002344337
-4.322513e-05
-0.002301872
-4.246489e-05
-0.002257432
-4.444029e-05
-0.00221833
-3.910172e-05
-0.002181808
-3.652268e-05
-0.002143885
-3.792318e-05
-0.002105793
-3.809159e-05
-0.002066947
-3.884647e-05
-0.002032236
-3.471063e-05
-0.002000656
-3.15801e-05
-0.002033611
3.295488e-05
-0.002016943
-1.666784e-05
-0.001994483
-2.246011e-05
-0.001972063
-2.242009e-05
-0.00195268
-1.93831e-05
-0.001932715
-1.996438e-05
-0.001915139
-1.757628e-05
-0.001899124
-1.601535e-05
-0.001883542
-1.55815e-05
-0.001864218
-1.932423e-05
-0.001844132
-2.008615e-05
-0.001827608
-1.652414e-05
-0.00181394
-1.366755e-05
-0.001803885
-1.00546e-05
-0.001791294
-1.259103e-05
-0.001776751
-1.454307e-05
-0.001764101
-1.265019e-05
-0.001750904
-1.319692e-05
-0.001730684
-2.022053e-05
-0.001706471
-2.421216e-05
-0.00167361
-3.286117e-05
-0.001632379
-4.123079e-05
-0.001582896
-4.948375e-05
-0.001522532
-6.036384e-05
-0.001436542
-8.598975e-05
-0.001328213
-0.0001083296
-0.001195286
-0.0001329265
-0.0009964811
-0.0001988049
-0.0007052076
-0.0002912735
-0.0005036329
-0.0002015747
-0.0006232475
0.0001196147
-0.00137384
0.000750592
-0.0003794225
-0.000994417
0.000643772
-0.001023195
0.0009725995
-0.0003288276
0.001036361
-6.376189e-05
0.001054777
-1.84156e-05
0.001074181
-1.94037e-05
0.001084175
-9.99386e-06
0.001082888
1.28612e-06
0.001087733
-4.844938e-06
0.001109427
-2.169371e-05
0.00113087
-2.144312e-05
0.001146772
-1.590175e-05
0.001154458
-7.685755e-06
0.001160197
-5.739682e-06
0.001166304
-6.106972e-06
0.001176533
-1.022835e-05
0.001186438
-9.905651e-06
0.001192721
-6.2824e-06
0.001199443
-6.721795e-06
0.001209055
-9.611954e-06
0.001216807
-7.752176e-06
0.00122351
-6.703761e-06
0.001233246
-9.735721e-06
0.001240411
-7.16507e-06
0.001252548
-1.213712e-05
0.001267444
-1.489596e-05
0.001276778
-9.333875e-06
0.001282678
-5.900185e-06
0.001290158
-7.479657e-06
0.001300267
-1.010915e-05
0.001305371
-5.104075e-06
0.001273988
3.138346e-05
0.00129161
-1.762247e-05
0.00131358
-2.19693e-05
0.001334777
-2.119751e-05
0.001355344
-2.056693e-05
0.001377601
-2.225715e-05
0.001397734
-2.013317e-05
0.001414999
-1.726463e-05
0.001434536
-1.953671e-05
0.001457366
-2.28299e-05
0.001482418
-2.50528e-05
0.001502548
-2.012976e-05
0.001520985
-1.84367e-05
0.001541219
-2.023449e-05
0.001563749
-2.252947e-05
0.001586895
-2.314661e-05
0.001613273
-2.637714e-05
0.001640279
-2.700627e-05
0.001666659
-2.637974e-05
0.001693296
-2.663736e-05
0.001717135
-2.38395e-05
0.001747402
-3.026684e-05
0.001778943
-3.154119e-05
0.001811139
-3.219579e-05
0.001845817
-3.467814e-05
0.001881363
-3.554608e-05
0.001921175
-3.981184e-05
0.001965203
-4.402736e-05
0.002008768
-4.356583e-05
0.002056464
-4.769511e-05
0.002112018
-5.555487e-05
0.002181571
-6.955291e-05
0.002331617
-0.0001500457
0.002428714
-9.70971e-05
0.002539266
-0.0001105514
0.002662928
-0.0001236628
0.002819168
-0.0001562396
0.002982873
-0.0001637055
0.003341243
-0.0003583695
0.0002408177
-0.0003940203
0.001396924
-0.00199732
0.0006169745
-0.002034189
0.001100662
-0.0008125154
0.001343557
-0.0003066568
0.00151445
-0.0001893086
0.001669305
-0.0001742585
0.001799074
-0.0001397624
0.001901519
-0.0001011594
0.001990177
-9.35024e-05
0.002080473
-0.0001119905
0.00216452
-0.0001054893
0.002243288
-9.466976e-05
0.002314311
-7.870903e-05
0.002382168
-7.359716e-05
0.002445921
-6.985968e-05
0.002509627
-7.393428e-05
0.002569935
-7.021398e-05
0.002625545
-6.189211e-05
0.002678021
-5.919781e-05
0.002730074
-6.166519e-05
0.002778548
-5.622544e-05
0.002823634
-5.178988e-05
0.002868892
-5.499378e-05
0.00290958
-4.785317e-05
0.002951875
-5.443257e-05
0.002994152
-5.71727e-05
0.003032858
-4.804009e-05
0.003067094
-4.013638e-05
0.003101627
-4.201221e-05
0.003136237
-4.471883e-05
0.003166317
-3.518469e-05
0.003125123
7.25777e-05
0.003165913
-5.841256e-05
0.003209696
-6.575256e-05
0.003253513
-6.501409e-05
0.00329712
-6.417437e-05
0.003341548
-6.668434e-05
0.003385306
-6.389126e-05
0.003426394
-5.835334e-05
0.003469762
-6.29046e-05
0.003514169
-6.723643e-05
0.003561841
-7.272455e-05
0.003605471
-6.376013e-05
0.003649164
-6.212973e-05
0.003693032
-6.410219e-05
0.003738986
-6.848401e-05
0.003784834
-6.899429e-05
0.003833394
-7.493754e-05
0.003882782
-7.639436e-05
0.003931827
-7.542434e-05
0.003982007
-7.681764e-05
0.004029423
-7.125512e-05
0.004082355
-8.319939e-05
0.004134948
-8.413343e-05
0.004189801
-8.704949e-05
0.004245329
-9.020606e-05
0.004303025
-9.324147e-05
0.004362997
-9.978408e-05
0.004427304
-0.0001083345
0.004491055
-0.0001073167
0.004559116
-0.0001157558
0.00463281
-0.0001292496
0.004719495
-0.0001562379
0.004938923
-0.0003694736
0.005056805
-0.0002149788
0.005191231
-0.0002449772
0.005334935
-0.0002673668
0.005522366
-0.0003436708
0.005675362
-0.0003167017
0.006115782
-0.0007987889
0.005266362
0.001090238
-0.01054208
0.009884248
0.0008821024
-0.009404081
-0.002186752
-0.009018917
-0.000769066
-0.008597045
-0.0008142778
-0.008285191
-0.0006026763
-0.007996773
-0.0005527395
-0.007750632
-0.0004747769
-0.007365877
-0.0006826603
-0.007187189
-0.0003359157
-0.007029103
-0.000292503
-0.006880734
-0.0002715011
-0.006745139
-0.0002451152
-0.006613274
-0.0002368059
-0.006488154
-0.000224683
-0.006366507
-0.0002161594
-0.00625493
-0.0001959304
-0.006147485
-0.0001845786
-0.006045209
-0.0001759856
-0.005943107
-0.000174509
-0.005846812
-0.0001636732
-0.005752124
-0.0001591154
-0.005661993
-0.0001499517
-0.005576278
-0.0001393847
-0.005490575
-0.0001402652
-0.005406423
-0.0001383399
-0.005322182
-0.0001387144
-0.005241598
-0.0001318477
-0.005163906
-0.0001232853
-0.005090449
-0.0001148827
-0.005014344
-0.0001193306
-0.004941087
-0.0001157212
-0.004865364
-0.0001201635
-0.004794834
-0.0001096321
-0.004725007
-0.0001063495
-0.00465517
-0.0001077602
-0.004585161
-0.0001081008
-0.004515186
-0.0001088213
-0.004448281
-0.0001016158
-0.004382775
-9.708583e-05
-0.004424503
7.468234e-05
-0.004373389
-6.778111e-05
-0.004320519
-7.533005e-05
-0.004265779
-7.71603e-05
-0.004213172
-7.199067e-05
-0.004157255
-7.58807e-05
-0.004102219
-7.261285e-05
-0.004045075
-7.315921e-05
-0.003986813
-7.384299e-05
-0.003923602
-8.253517e-05
-0.003858405
-8.528344e-05
-0.003792727
-8.220194e-05
-0.003724861
-8.153359e-05
-0.003655107
-7.980903e-05
-0.00357803
-8.966756e-05
-0.00349537
-9.720373e-05
-0.003408378
-9.964204e-05
-0.003316877
-0.0001046974
-0.003215448
-0.00012165
-0.003108673
-0.0001309874
-0.002991358
-0.0001501757
-0.002864994
-0.0001675951
-0.00272815
-0.0001863277
-0.00257838
-0.0002101334
-0.002402941
-0.0002614288
-0.002207246
-0.0003040253
-0.001996759
-0.000343413
-0.001763798
-0.0004317658
-0.001529448
-0.0005256241
-0.001276987
-0.0004540351
-0.001061752
-9.562e-05
0.001085763
-0.004252054
0.00382917
0.0002737993
-0.003675058
-0.00128402
-0.002865679
-0.001434068
-0.002218919
-0.001161263
-0.001623129
-0.001059377
-0.001049253
-0.001022764
-0.0004646947
-0.001040409
9.239126e-05
-0.000987491
0.0007186061
-0.001103121
0.001132089
-0.000647169
0.001104
0.0001675499
0.0007778522
0.0005520704
0.001144815
-0.0007690034
0.001950473
-0.0014548
0.0023513
-0.0006309825
0.002629153
-0.0004254636
0.002872062
-0.0003973469
0.003203865
-0.0005928763
0.003430187
-0.0002218746
0.003340822
0.0006154749
0.002824158
0.001307927
0.002131045
0.001240146
0.001490412
0.0008193013
0.001118932
0.0003128553
0.0009645713
3.358418e-05
0.001006101
-0.0002125903
0.001115217
-0.0002408772
0.001172513
-8.022042e-05
0.001216136
-3.711953e-05
0.001301838
-0.0001084572
0.001345706
-1.513803e-06
0.001281126
0.0002135554
0.001122657
0.0003674359
0.0008365127
0.0005521636
0.0004027921
0.0007226897
0.0001214117
0.0003610476
0.0001842289
-0.0002759467
0.0002731588
-0.0002544308
-5.057785e-05
0.0005544592
0.000236665
-0.0004490557
0.001134717
-0.001605482
0.001659513
-0.0007613357
0.000946963
0.001354576
-0.000466118
0.002157078
-0.000757157
0.0006059856
3.811862e-05
-0.0003961457
0.001033363
-0.001387125
0.002874523
-0.004398763
0.000709632
0.001394437
0.02000519
-0.001552723
-0.001854842
0.006442897
-0.001172454
-0.0008326791
0.0001240926
-0.002524708
0.001742529
-0.003024835
0.002542007
-0.001376797
0.0031302
-0.0006593786
0.003363777
0.0002114816
0.002872542
0.001059486
0.002061328
0.001054002
0.001653097
0.0003049309
0.001804308
-0.0004642496
0.00223366
-0.0008223575
0.002642323
-0.0007004495
0.002980522
-0.0005316694
0.003239772
-0.0003768064
0.00341777
-0.000241036
0.003545595
-0.0001805279
0.00367549
-0.0002128709
0.003806189
-0.0002161087
0.003934707
-0.0001968124
0.004063422
-0.0001817147
0.004182573
-0.0001626719
0.004278601
-0.0001519156
0.004348241
-0.000152838
0.004437031
-0.0001573996
0.004594204
-0.0001389451
0.004829893
-0.0001573994
0.00510869
-0.0002195655
0.005334768
-0.0002081204
0.005391083
-7.387527e-05
0.005239748
0.0001148831
0.005006862
0.0001667395
0.004864458
1.923385e-05
0.004772577
1.444317e-05
0.004870411
-0.0002081102
0.005008106
-0.0002152039
0.00514959
-0.0001893551
0.005287968
-0.0001749119
0.00540644
-0.0001412956
0.005506615
-0.0001219056
0.005592827
-0.0001154784
0.005656464
-8.852693e-05
0.005706432
-7.457028e-05
0.005747946
-6.346149e-05
0.005780551
-4.163123e-05
0.005814549
-2.562392e-05
0.005850419
-4.92058e-07
0.005900458
5.733845e-07
0.005963479
4.304482e-06
0.006033829
1.595327e-05
0.006106502
2.588181e-05
0.006171797
3.85111e-05
0.006214016
6.462655e-05
0.00621543
0.0001084511
0.006162446
0.0001659
0.006051839
0.0002266802
0.005891466
0.0002813008
0.005703809
0.0003064367
0.00550408
0.0003213242
0.005303911
0.0003287482
0.005103939
0.0003457201
0.004913716
0.0003388259
0.004726476
0.0003407085
0.004534442
0.0003518398
0.004339688
0.0003444548
0.004158367
0.0003063712
0.004069423
0.000165648
0.003890681
0.0002808472
0.003724893
0.0002363874
0.003566285
0.0002197683
0.003423041
0.0001867982
0.003288808
0.0001665254
0.003149522
0.0001769651
0.00300195
0.0001996928
0.002863794
0.0001812998
0.002733277
0.000169978
0.002604463
0.0001701506
0.002464311
0.000203579
0.002326614
0.000201357
0.002181629
0.0002121672
0.002025112
0.0002294083
0.001859307
0.000244773
0.001692483
0.0002425354
0.001513989
0.0002597901
0.001318976
0.0002926484
0.001124471
0.0002854946
0.0008998672
0.0003295937
0.000614761
0.0004102721
0.0002860956
0.0004497323
-6.813587e-05
0.0004495664
-0.000383814
0.0003608535
-0.0006534948
0.0002196991
-0.0009371563
0.000234259
-0.001211607
0.0005551689
-0.00112401
0.0003771651
-0.0004991713
-0.0005667283
5.172581e-06
-0.0009305684
0.001113906
-0.002823068
0.001740589
-0.001813139
0.01129491
-0.000863038
0.01082003
-0.001648615
-0.0001177726
-0.001172739
-0.001293251
-0.001528606
0.001395888
-0.001000834
-0.0007254945
-0.0001063684
-0.001598057
0.0003568807
-0.0007019257
0.0004238673
-3.884511e-06
5.949399e-05
0.0005968792
-0.0003830925
0.0005713224
-0.0007728159
0.0005048889
-0.001107243
0.0006066403
-0.001076818
8.96038e-05
-0.0007259582
-0.0005396283
-0.0002170669
-0.0008733889
0.0005936614
-0.001414978
0.00126198
-0.001161773
0.001688336
-0.0006203452
0.001566975
0.0004876286
0.0006596414
0.001564629
-0.0002224349
0.001186345
-0.0004780307
0.0002686339
-0.0005912175
0.0002705166
-0.0003639905
-0.0003359974
3.815182e-05
-0.0006907727
0.000277306
-0.0003955236
0.0004638675
-0.000297832
0.0006216919
-0.0002663512
0.0008897053
-0.0005095192
0.001219476
-0.0004630203
0.001314425
0.000131158
0.001149718
0.0003851034
0.001023057
7.811904e-05
0.001070904
-0.000219955
0.001203253
-0.0002988581
0.001387914
-0.0003561799
0.001599706
-0.0003882132
0.001873577
-0.0004897578
0.002208235
-0.0005892998
0.002576256
-0.0006386862
0.002956919
-0.0006540996
0.003344938
-0.0006644536
0.003733273
-0.0006601632
0.004073861
-0.0005893739
0.004384553
-0.0004465534
0.004627132
-3.263521e-05
0.004584245
0.0006913294
0.004137369
0.001053927
0.002985887
0.001373269
0.001038458
0.0004105784
-0.007102477
0.01751192
-0.001968737
0.002261543
-0.001910788
-0.001351199
-0.002047637
0.001532736
-0.001333885
-0.001439246
-0.0002899253
-0.002642017
0.0002788229
-0.001270674
0.0004823615
-0.0002074231
0.0001809643
0.0008982765
-0.0004452814
0.001197568
-0.001066743
0.00112635
-0.001437336
0.0009772338
-0.001333339
-1.439365e-05
-0.0009032525
-0.0009697145
-0.0002943227
-0.001482319
0.0006855286
-0.00239483
0.001523486
-0.00199973
0.002038081
-0.00113494
0.00206388
0.0004618292
0.001216938
0.002411571
-9.982233e-05
0.002503105
-0.0006956307
0.0008644423
-0.0007915023
0.0003663882
-0.0004702349
-0.0006572649
-9.927057e-06
-0.00115108
0.000250656
-0.0006561067
0.0004450101
-0.0004921861
0.000622979
-0.0004443201
0.0009026131
-0.0007891534
0.001281382
-0.0008417888
0.001630156
-0.0002176165
0.001806761
0.0002084985
0.001803807
8.107272e-05
0.001743805
-0.0001599529
0.001694265
-0.000249318
0.001748351
-0.0004102658
0.001927717
-0.0005675788
0.002255293
-0.0008173339
0.002684791
-0.001018798
0.003156879
-0.001110774
0.003639954
-0.001137174
0.004127887
-0.001152387
0.004609498
-0.001141773
0.005050082
-0.001029959
0.005412027
-0.0008084982
0.005721774
-0.0003423823
0.006012877
0.0004002267
0.006068053
0.0009987501
0.004970251
0.002471072
0.0028225
0.003186209
-0.001510785
0.01077618
-0.001466555
-0.0008769083
0.0001440409
-0.004135304
0.002145037
-0.005025831
0.003204537
-0.002436297
0.003830794
-0.001285636
0.004390112
-0.0003478362
0.004457748
0.00099185
0.003795549
0.001716201
0.002997396
0.001103084
0.002675276
-0.0001421298
0.002841815
-0.0009888958
0.003139478
-0.0009981127
0.00344336
-0.0008355514
0.003700564
-0.0006340106
0.003882533
-0.0004230046
0.004006837
-0.0003048318
0.004138004
-0.0003440388
0.004275579
-0.0003536828
0.004419625
-0.0003408586
0.004569816
-0.0003319064
0.004707814
-0.00030067
0.004820876
-0.0002649772
0.004913956
-0.0002459175
0.005029299
-0.0002727428
0.00520962
-0.0003192669
0.005492421
-0.0004402004
0.005884458
-0.0006116016
0.006338848
-0.0006625104
0.006741511
-0.0004765387
0.00691661
-6.021548e-05
0.006800836
0.0002825135
0.00652545
0.0002946189
0.006137132
0.0004027621
0.005985361
-5.633931e-05
0.005961018
-0.0001908612
0.006027882
-0.0002562192
0.006151188
-0.0002982173
0.006278701
-0.0002688091
0.006394903
-0.0002381078
0.006499031
-0.0002196059
0.006580325
-0.0001698216
0.006652992
-0.0001472371
0.006722526
-0.0001329958
0.006783719
-0.0001028238
0.00684153
-8.343446e-05
0.006889406
-4.836885e-05
0.00694405
-5.407064e-05
0.007005995
-5.764024e-05
0.007074153
-5.220432e-05
0.007151201
-5.116671e-05
0.007240084
-5.037212e-05
0.007339923
-3.5212e-05
0.007438498
9.875862e-06
0.007510521
9.387744e-05
0.00752907
0.0002081305
0.007476258
0.0003341136
0.007362773
0.0004199213
0.007207632
0.0004764658
0.007039223
0.000497157
0.006871215
0.0005137275
0.006720655
0.0004893861
0.006584483
0.0004768811
0.006455466
0.0004808564
0.006330383
0.000469538
0.006207524
0.0004292301
0.006206111
0.0001670604
0.006071879
0.0004150795
0.005931575
0.0003766917
0.005779728
0.0003716151
0.005627326
0.0003392007
0.005473199
0.0003206519
0.005311348
0.0003388159
0.005138092
0.0003729493
0.004964532
0.0003548594
0.004785923
0.0003485872
0.004601638
0.0003544351
0.004405202
0.0004000151
0.004212822
0.0003937375
0.004015613
0.0004093761
0.00381124
0.0004337808
0.003598838
0.000457175
0.003380203
0.0004611709
0.003142499
0.0004974937
0.002881295
0.000553853
0.002612531
0.0005542585
0.002313705
0.0006284194
0.001957603
0.0007663745
0.00153673
0.0008706051
0.001027645
0.0009586516
0.000433377
0.0009551211
-0.0002226287
0.0008757048
-0.0008394272
0.0008510575
-0.001070342
0.0007860842
-0.0007035653
1.038787e-05
-7.138397e-06
-0.001263155
0.0005024211
-0.001440128
0.001692775
-0.004013422
0.001466734
-0.001587097
-0.004531814
0.01729346
-0.00549095
0.001232936
-0.004812361
-0.001962609
-0.003835113
-0.002411316
-0.002962668
-0.002033708
-0.002181696
-0.001840349
-0.001433557
-0.001770904
-0.000683077
-0.001790889
1.306279e-05
-0.001683631
0.0007990431
-0.001889101
0.001396403
-0.001244529
0.001406979
0.0001569739
0.0009727334
0.0009863158
0.001360291
-0.001156561
0.002360786
-0.002455296
0.002880682
-0.001150879
0.003216477
-0.000761258
0.003490939
-0.0006718091
0.003902594
-0.001004531
0.004150374
-0.0004696553
0.004155512
0.0006103377
0.003943822
0.001519617
0.003522614
0.001661353
0.002886681
0.001455234
0.002370612
0.0008289245
0.001951005
0.0004531908
0.001673879
6.453601e-05
0.001544517
-0.0001115158
0.001506996
-4.269893e-05
0.001555231
-8.535499e-05
0.001675371
-0.000228597
0.001741039
-6.718151e-05
0.001689554
0.0002650399
0.001565068
0.0004919222
0.00137963
0.0007376015
0.001029312
0.001073008
0.0006709998
0.00071936
0.0004633264
-6.827337e-05
0.0002929157
-8.40201e-05
-5.223747e-05
0.0008996123
0.0004379434
-0.0009392366
0.00151912
-0.002686659
0.002191276
-0.001433492
0.001620593
0.001925259
0.0002053146
0.003572356
4.658933e-05
0.0007647109
0.0008728268
-0.001222383
0.002036635
-0.002550933
0.003008034
-0.005370162
-0.001535743
0.005938215
-0.01231661
0.03078606
-0.01285559
0.001421083
-0.01171839
-0.00332395
-0.01121491
-0.001272547
-0.01074204
-0.001287152
-0.0103903
-0.0009544147
-0.01007002
-0.0008730197
-0.009802842
-0.0007419554
-0.009361987
-0.001123516
-0.009165885
-0.0005320171
-0.008989293
-0.0004690955
-0.008823093
-0.0004377011
-0.00867037
-0.0003978385
-0.008521106
-0.0003860693
-0.008379374
-0.0003664154
-0.008240624
-0.000354909
-0.008112365
-0.0003241897
-0.0079874
-0.0003095438
-0.007868123
-0.0002952628
-0.007748424
-0.0002942076
-0.007635045
-0.0002770525
-0.007522693
-0.0002714671
-0.007414773
-0.0002578713
-0.007311147
-0.0002430111
-0.007207342
-0.00024407
-0.007105647
-0.0002400355
-0.007003704
-0.0002406571
-0.006905547
-0.0002300049
-0.006809408
-0.0002194241
-0.006717612
-0.0002066791
-0.006622275
-0.0002146674
-0.006530807
-0.0002071889
-0.006435972
-0.0002149983
-0.006346603
-0.0001990016
-0.00625692
-0.0001960321
-0.006166941
-0.0001977394
-0.006076454
-0.0001985873
-0.005985165
-0.0002001107
-0.005895066
-0.0001917143
-0.005803153
-0.000188999
-0.005838999
0.0001105284
-0.005757819
-0.0001489612
-0.005682652
-0.0001504972
-0.005603715
-0.0001560971
-0.005527523
-0.0001481828
-0.005446992
-0.0001564118
-0.005367663
-0.0001519421
-0.005285641
-0.0001551807
-0.005202788
-0.000156696
-0.005114682
-0.0001706418
-0.005024779
-0.000175186
-0.004934269
-0.000172712
-0.00484068
-0.0001751226
-0.004744795
-0.0001756933
-0.004640664
-0.0001937993
-0.004530729
-0.0002071385
-0.004416738
-0.0002136333
-0.004298677
-0.0002227577
-0.004170506
-0.0002498211
-0.004038518
-0.0002629757
-0.003896306
-0.0002923882
-0.003745887
-0.0003180136
-0.003584461
-0.0003477535
-0.003409117
-0.0003854779
-0.003205299
-0.0004652462
-0.002980989
-0.0005283357
-0.002740203
-0.0005841992
-0.002474678
-0.0006972911
-0.002212979
-0.0007873226
-0.00194504
-0.0007219746
-0.001737221
-0.0003034383
-0.001745262
0.001093803
-0.0004895593
-0.003253022
0.0005814978
-0.003105246
0.001160874
-0.001391891
0.001511221
-0.0006570043
0.001761516
-0.0004396034
0.001986197
-0.0003989399
0.00217933
-0.0003328948
0.002337943
-0.0002597728
0.002476077
-0.0002316361
0.002613297
-0.0002492106
0.002740223
-0.0002324154
0.002859821
-0.0002142675
0.002968653
-0.0001875408
0.00307294
-0.0001778845
0.003171239
-0.0001681586
0.003268872
-0.0001715676
0.003362591
-0.0001639327
0.003451025
-0.0001503264
0.003535899
-0.0001440714
0.003620359
-0.0001461257
0.00370118
-0.0001370464
0.003778082
-0.000128692
0.003855602
-0.0001325128
0.003927244
-0.0001194961
0.004000193
-0.0001273808
0.004072662
-0.0001296418
0.004141866
-0.000117244
0.00420613
-0.0001044007
0.004270479
-0.000106361
0.004332908
-0.000107148
0.004397223
-9.950015e-05
0.004369079
0.0001007222
0.004438865
-0.0001281988
0.004509068
-0.0001359557
0.004577334
-0.0001332793
0.004644372
-0.0001312131
0.004711167
-0.0001334791
0.004777034
-0.0001297581
0.004839177
-0.0001204961
0.004902918
-0.0001266459
0.004965683
-0.0001300017
0.005031835
-0.0001388765
0.005093301
-0.0001252258
0.00515522
-0.000124049
0.005216325
-0.0001252071
0.005279286
-0.0001314451
0.005341329
-0.0001310374
0.005405796
-0.0001394039
0.005470869
-0.0001414681
0.005535336
-0.000139891
0.005601514
-0.0001429959
0.005663994
-0.0001337349
0.005731994
-0.0001511994
0.00579828
-0.0001504192
0.005867111
-0.0001558804
0.005935602
-0.0001586971
0.006006117
-0.000163757
0.00607775
-0.0001714169
0.006153487
-0.000184071
0.006227937
-0.0001817672
0.006306117
-0.0001939359
0.006389437
-0.0002125694
0.006481315
-0.0002481161
0.006738331
-0.0006264895
0.00686195
-0.000338598
0.007006106
-0.0003891326
0.007160557
-0.0004218183
0.007365748
-0.000548862
0.007538247
-0.0004892004
0.00799594
-0.001256482
0.001983701
-0.0006185555
0.001965082
-0.004599549
0.0004579717
-0.004181774
0.001148467
-0.002082387
0.001612875
-0.001121412
0.001947745
-0.0007744741
0.002242237
-0.0006934314
0.002494832
-0.0005854898
0.002704158
-0.0004690992
0.002886414
-0.0004138923
0.003065969
-0.000428765
0.00323147
-0.0003979164
0.003387438
-0.0003702357
0.003529526
-0.0003296293
0.003664691
-0.0003130493
0.0037915
-0.0002949672
0.003915965
-0.0002960328
0.004035407
-0.0002833749
0.004147687
-0.0002626068
0.004255798
-0.0002521822
0.004362973
-0.0002533008
0.004465976
-0.0002400492
0.004564457
-0.0002271734
0.004664135
-0.0002321907
0.004756735
-0.0002120957
0.004851319
-0.0002219653
0.004945711
-0.0002240332
0.005036401
-0.0002079338
0.005122393
-0.0001903934
0.005208493
-0.0001924609
0.005292205
-0.00019086
0.005381984
-0.0001892794
0.005361051
0.0001216559
0.005453582
-0.0002207297
0.005547392
-0.0002297665
0.005637703
-0.00022359
0.005726517
-0.000220027
0.005814918
-0.0002218796
0.005901893
-0.0002167337
0.005984356
-0.0002029592
0.006068177
-0.0002104661
0.006150157
-0.0002119821
0.006235641
-0.000224361
0.00631527
-0.0002048543
0.006395169
-0.0002039481
0.006473706
-0.0002037442
0.006553722
-0.0002114607
0.006632178
-0.0002094937
0.006713116
-0.0002203421
0.006794288
-0.0002226403
0.006874556
-0.0002201582
0.00695684
-0.0002252807
0.007034139
-0.0002110335
0.007118085
-0.0002351457
0.007199034
-0.0002313676
0.007282729
-0.0002395752
0.007365923
-0.0002418913
0.007450565
-0.0002483994
0.007536522
-0.0002573737
0.007626473
-0.000274022
0.007714435
-0.0002697293
0.007806221
-0.0002857216
0.007903744
-0.0003100929
0.008175576
-0.0005199483
0.00831092
-0.0007618333
0.008449637
-0.0004773152
0.008614934
-0.0005544295
0.008797097
-0.0006039812
0.009035078
-0.0007868425
0.009270253
-0.0007243757
0.009688987
-0.001675216
0.008954178
0.002718509
-0.01529469
0.01510983
0.001605939
-0.01420836
-0.004410279
-0.01351232
-0.001968588
-0.01294807
-0.0018514
-0.01251732
-0.001385161
-0.01213379
-0.001256558
-0.01181727
-0.001058471
-0.01152638
-0.001414403
-0.01105567
-0.001002733
-0.01084638
-0.0006783813
-0.01064883
-0.0006352568
-0.01046759
-0.0005790726
-0.0102904
-0.0005632633
-0.0101219
-0.0005349119
-0.009957024
-0.0005197855
-0.009804026
-0.0004771882
-0.009655391
-0.0004581789
-0.009513166
-0.0004374873
-0.00937047
-0.0004369037
-0.009235155
-0.000412368
-0.009101308
-0.0004053135
-0.008972114
-0.0003870651
-0.008848552
-0.000366574
-0.008724491
-0.0003681306
-0.008602939
-0.0003615875
-0.008481256
-0.0003623398
-0.008363585