/*--------------------------------*- C++ -*----------------------------------*\
| =========                 |                                                 |
| \\      /  F ield         | OpenFOAM: The Open Source CFD Toolbox           |
|  \\    /   O peration     | Version:  2406                                  |
|   \\  /    A nd           | Website:  www.openfoam.com                      |
|    \\/     M anipulation  |                                                 |
\*---------------------------------------------------------------------------*/
FoamFile
{
    version     2.0;
    format      ascii;
    arch        "LSB;label=32;scalar=64";
    class       surfaceScalarField;
    location    "2.34";
    object      phi;
}
// * * * * * * * * * * * * * * * * * * * * * * * * * * * * * * * * * * * * * //

dimensions      [0 3 -1 0 0 0 0];

oriented        oriented;

internalField   nonuniform List<scalar> 
326221
(
-0.002716692
-0.006813094
0.009529786
-0.00201813
-0.0006985617
0.001336687
-0.003354818
0.001580098
-0.0002434101
-0.0004165876
0.001996685
-0.001178582
0.0007619944
-0.0009065732
-0.0002720088
-0.0005749626
-0.0003316106
-0.0001116254
-0.0004633372
0.0001581724
-0.0002697978
0.0003764971
-0.0002183247
0.000542408
-0.0001659109
0.0005690579
-2.664991e-05
0.0004588516
0.0001102063
0.0004089437
4.990788e-05
0.0004127346
-3.790843e-06
0.0003684197
4.431482e-05
0.0001840146
0.0001844051
-0.0005119103
0.0006959249
-0.001357895
0.0008459844
-0.001542825
0.0001849306
-0.001151343
-0.0003914817
-0.0006693628
-0.0004819807
-0.0001891436
-0.0004802192
0.0005678541
-0.0007569977
0.001596231
-0.001028377
0.002149045
-0.0005528141
0.001550948
0.0005980979
7.985685e-05
0.001471091
-0.0006998667
0.0007797236
-6.844831e-05
-0.0006314184
0.001023299
-0.001091748
0.001660724
-0.0006374248
0.001395017
0.0002657072
-0.0004505618
0.001845579
-0.002869811
0.00241925
-0.004238989
0.001369177
-0.004696687
0.0004576989
-0.004796217
9.953001e-05
-0.004758124
-3.809392e-05
-0.004587587
-0.0001705365
-0.004302422
-0.0002851646
-0.00386803
-0.000434392
-0.003260697
-0.0006073338
-0.002588841
-0.0006718554
-0.001503843
-0.001084998
-0.0004744613
-0.001029382
7.314035e-05
-0.0005476016
0.001036954
-0.0009638138
0.001567859
-0.0005309048
-0.001314357
0.002882215
-0.000547267
-0.0007670896
0.001275241
-0.001822508
0.002852874
-0.001577633
0.003906545
-0.001053671
0.004553258
-0.0006467133
0.004172638
0.0003806197
0.002275162
0.001897476
1.453075e-05
0.002260632
-0.001398084
0.001412615
-0.002109688
0.0007116046
-0.0008169032
-0.001292785
0.001391875
-0.002208778
0.002171483
-0.0007796084
0.001314497
0.0008569866
0.001136732
0.0001777647
0.001093244
4.348786e-05
3.948605e-05
0.001053758
-0.0013108
0.001350287
-0.002264918
0.0009541179
-0.002787668
0.0005227495
-0.003067155
0.0002794869
-0.003212788
0.0001456336
-0.003284822
7.203405e-05
-0.003314563
2.974051e-05
-0.003317603
3.040362e-06
-0.003298938
-1.866542e-05
-0.003260032
-3.890604e-05
-0.003206291
-5.374116e-05
-0.003133572
-7.271862e-05
-0.003040097
-9.347505e-05
-0.002945378
-9.471862e-05
-0.002862932
-8.24468e-05
-0.002742125
-0.0001208069
-0.002696411
-4.57138e-05
-0.002654503
-4.19078e-05
-0.002623468
-3.103539e-05
-0.002591219
-3.224855e-05
-0.002565559
-2.56596e-05
-0.002569354
3.794074e-06
-0.002562896
-6.457997e-06
-0.002582889
1.999363e-05
-0.002641825
5.893605e-05
-0.002678811
3.698609e-05
-0.002666514
-1.229707e-05
-0.002605994
-6.05203e-05
-0.002538891
-6.710322e-05
-0.002495669
-4.322205e-05
-0.002445229
-5.043941e-05
-0.002381967
-6.326221e-05
-0.002285073
-9.689432e-05
-0.002123958
-0.0001611151
-0.001870853
-0.0002531047
-0.001549184
-0.0003216691
-0.001255642
-0.0002935415
-0.001169737
-8.590521e-05
-0.001528735
0.0003589975
-0.002170042
0.0006413072
-0.002452885
0.0002828432
-0.002269041
-0.0001838435
-0.002024163
-0.0002448786
-0.001902043
-0.0001221202
-0.00180174
-0.0001003026
-0.001696017
-0.0001057232
-0.00158546
-0.0001105566
-0.001471252
-0.0001142081
-0.001360482
-0.0001107698
-0.001244827
-0.0001156555
-0.001110301
-0.0001345258
-0.000958532
-0.0001517692
-0.0008125047
-0.0001460273
-0.000630641
-0.0001818637
-0.0004382323
-0.0001924087
-0.0001505778
-0.0002876545
0.0001786258
-0.0003292036
0.0003082362
-0.0001296104
4.878606e-05
0.0002594502
-2.861593e-05
7.740199e-05
0.0002572075
-0.0002858234
0.0002858297
-2.862222e-05
-0.000310561
0.0005963908
-0.001098991
0.0007884302
-0.001531285
0.0004322939
-0.001497876
-3.340956e-05
-0.001302996
-0.0001948801
-0.001219871
-8.312445e-05
-0.001146159
-7.371168e-05
-0.0009758253
-0.0001703341
-0.0008174063
-0.0001584189
-0.0008171041
-3.02203e-07
-0.001071149
0.0002540447
-0.001523055
0.0004519062
-0.001917746
0.0003946904
-0.002124301
0.0002065555
-0.002176947
5.264584e-05
-0.002095226
-8.172111e-05
-0.001732779
-0.0003624469
-0.0009274355
-0.0008053433
0.0003317169
-0.001259152
-0.0004536353
0.0007853522
-0.0001551345
-0.0002985008
5.378149e-06
-0.0001605126
-0.0002907356
0.0002961137
-0.0008392426
0.0005485071
-0.00143678
0.0005975377
-0.001490257
5.347679e-05
-0.00120243
-0.0002878274
-0.0008358908
-0.0003665389
-0.0003931291
-0.0004427617
9.581277e-05
-0.0004889419
0.0006031462
-0.0005073334
0.001154041
-0.0005508948
0.001905664
-0.0007516228
0.00264025
-0.0007345864
0.003181236
-0.0005409862
0.003861911
-0.0006806747
0.004577303
-0.0007153915
0.005378864
-0.0008015611
0.006106268
-0.0007274039
0.006669953
-0.0005636853
0.007029495
-0.0003595425
0.007191946
-0.0001624507
0.006873541
0.0003184054
0.006067007
0.0008065334
0.004158946
0.001908061
0.0009379338
0.003221012
-0.001879165
0.002817099
-0.002708087
0.0008289215
-0.002061217
-0.0006468693
-9.959585e-05
-0.001961621
0.001571355
-0.00167095
0.001354132
0.0002172221
-0.0002458739
0.001600006
-0.002734285
0.002488411
-0.004367648
0.001633364
-0.003664179
-0.0007034688
-0.00177249
-0.00189169
-0.0002041777
-0.001568312
0.001050445
-0.001254623
0.001757586
-0.0007071416
0.001899855
-0.000142269
0.001225462
0.0006743931
0.0001627775
0.001062685
-0.0004372885
0.000600066
-5.999581e-05
-0.0003772927
0.001036115
-0.001096111
0.0008205315
0.0002155838
0.001671649
-0.0008511176
0.002178556
-0.0005069066
-0.005502742
0.007681297
-0.00572511
0.0002223682
-0.004924558
-0.000800552
-0.004611413
-0.0003131451
-0.004301409
-0.0003100042
-0.004068119
-0.0002332895
-0.003855579
-0.0002125398
-0.003671448
-0.0001841313
-0.00342224
-0.0002492077
-0.003294612
-0.0001276286
-0.003185947
-0.0001086652
-0.003085901
-0.0001000456
-0.002996812
-8.908936e-05
-0.002910473
-8.633905e-05
-0.00282816
-8.231286e-05
-0.002749752
-7.840799e-05
-0.002679432
-7.031935e-05
-0.002614457
-6.497558e-05
-0.002551907
-6.254999e-05
-0.002490231
-6.167595e-05
-0.002432825
-5.740584e-05
-0.002377461
-5.536447e-05
-0.002325494
-5.196672e-05
-0.002278805
-4.668874e-05
-0.002231125
-4.768025e-05
-0.002183045
-4.808031e-05
-0.002134478
-4.85661e-05
-0.00208938
-4.509812e-05
-0.002048432
-4.094808e-05
-0.002011048
-3.738392e-05
-0.001972027
-3.902114e-05
-0.001933196
-3.88307e-05
-0.00189174
-4.145679e-05
-0.001855165
-3.657442e-05
-0.001821386
-3.377935e-05
-0.00178589
-3.549638e-05
-0.001749936
-3.595331e-05
-0.001712917
-3.701884e-05
-0.001678846
-3.40711e-05
-0.001645806
-3.303981e-05
-0.001669408
2.360162e-05
-0.001647767
-2.164141e-05
-0.001623587
-2.417969e-05
-0.001599213
-2.437421e-05
-0.001577732
-2.148047e-05
-0.001555559
-2.217296e-05
-0.001535458
-2.010164e-05
-0.001517062
-1.839607e-05
-0.00149946
-1.76012e-05
-0.001478538
-2.092256e-05
-0.001457587
-2.095037e-05
-0.001441077
-1.651042e-05
-0.001428675
-1.240205e-05
-0.001421047
-7.627543e-06
-0.001412183
-8.864262e-06
-0.001402373
-9.809857e-06
-0.001396262
-6.110896e-06
-0.001392761
-3.50116e-06
-0.001385364
-7.397413e-06
-0.001378391
-6.972807e-06
-0.001369991
-8.399731e-06
-0.001363403
-6.588625e-06
-0.001363333
-7.014197e-08
-0.001368165
4.832195e-06
-0.001359754
-8.410313e-06
-0.001341353
-1.840145e-05
-0.001323595
-1.775766e-05
-0.001291455
-3.214026e-05
-0.001232048
-5.940673e-05
-0.001083053
-0.0001489949
-0.0008111535
-0.0002719
6.715448e-06
-0.0008178689
0.0008309497
-0.0008242343
0.001071252
-0.0002403026
0.001229716
-0.000158464
0.001319297
-8.958116e-05
0.001393606
-7.430846e-05
0.001471662
-7.805579e-05
0.001536063
-6.44013e-05
0.001578407
-4.23443e-05
0.001613782
-3.537482e-05
0.001657162
-4.33796e-05
0.001695235
-3.807343e-05
0.001725597
-3.036191e-05
0.00174494
-1.934316e-05
0.001760352
-1.54113e-05
0.001773554
-1.320213e-05
0.001789218
-1.566416e-05
0.001803254
-1.403587e-05
0.001813365
-1.0111e-05
0.001824135
-1.076987e-05
0.001838598
-1.446317e-05
0.001851952
-1.335437e-05
0.001864968
-1.301566e-05
0.001881859
-1.689134e-05
0.001896324
-1.446516e-05
0.001916274
-1.99494e-05
0.001940851
-2.45777e-05
0.00196104
-2.018908e-05
0.001978087
-1.704706e-05
0.001997762
-1.967462e-05
0.002020552
-2.278941e-05
0.002036129
-1.557729e-05
0.002000476
3.565283e-05
0.002029738
-2.926219e-05
0.002067001
-3.726279e-05
0.002105307
-3.830576e-05
0.002144481
-3.917386e-05
0.002186756
-4.227552e-05
0.002227375
-4.061842e-05
0.002265157
-3.77821e-05
0.002306058
-4.090185e-05
0.002352213
-4.615437e-05
0.002402723
-5.050994e-05
0.002447715
-4.499252e-05
0.002491225
-4.350939e-05
0.002538215
-4.699047e-05
0.002588918
-5.07033e-05
0.00264093
-5.201169e-05
0.002698928
-5.799821e-05
0.002759563
-6.063446e-05
0.00282103
-6.146715e-05
0.002884815
-6.378512e-05
0.002945386
-6.057127e-05
0.003016869
-7.14823e-05
0.003092155
-7.528668e-05
0.003171043
-7.888747e-05
0.003255972
-8.492948e-05
0.003343957
-8.798519e-05
0.003441628
-9.767087e-05
0.003548803
-0.000107175
0.003659473
-0.0001106694
0.003779794
-0.0001203211
0.003917277
-0.0001374833
0.004076533
-0.0001592562
0.004372469
-0.0002959353
0.004600795
-0.0002283265
0.004862083
-0.0002612881
0.005155936
-0.0002938532
0.005543738
-0.0003878016
0.005913089
-0.0003693513
0.00695296
-0.001039871
0.0001398655
0.001018513
9.555906e-06
-0.001852304
0.001432146
-0.0006539356
0.001711189
-0.0004375063
0.001935926
-0.000314318
0.002120108
-0.000258491
0.002291777
-0.0002497243
0.002445638
-0.0002182624
0.002576598
-0.0001733048
0.002695808
-0.0001545848
0.002818135
-0.0001657064
0.002933203
-0.0001531412
0.003041372
-0.0001385313
0.003138254
-0.0001162247
0.003229648
-0.0001068059
0.003314419
-9.797319e-05
0.003397874
-9.911861e-05
0.003476378
-9.253992e-05
0.003549248
-8.298097e-05
0.003618379
-7.990133e-05
0.003687167
-8.32506e-05
0.003752371
-7.855881e-05
0.003814352
-7.499659e-05
0.003877301
-7.983989e-05
0.003935665
-7.282978e-05
0.003996271
-8.055527e-05
0.004058148
-8.645457e-05
0.004117531
-7.957181e-05
0.004172794
-7.231033e-05
0.004230013
-7.68939e-05
0.004287405
-8.018151e-05
0.004343195
-7.136738e-05
0.004306753
7.209556e-05
0.004374491
-9.700096e-05
0.004446082
-0.0001088532
0.004518122
-0.0001103455
0.004590701
-0.0001117534
0.004664929
-0.0001165035
0.004739044
-0.000114733
0.004810297
-0.0001090352
0.004884681
-0.0001152862
0.004961026
-0.0001224993
0.005042667
-0.0001321512
0.005119674
-0.0001219994
0.005197449
-0.0001212845
0.005276718
-0.0001262593
0.005359742
-0.0001337277
0.005443353
-0.0001356227
0.005532193
-0.0001468372
0.005623842
-0.0001522838
0.005716553
-0.0001541786
0.005812897
-0.0001601292
0.005906224
-0.0001538984
0.006009501
-0.0001747589
0.006114427
-0.0001802132
0.006224695
-0.0001891552
0.00633867
-0.0001989042
0.006457326
-0.000206641
0.006582862
-0.0002232074
0.006717865
-0.0002421774
0.006855845
-0.0002486496
0.007003456
-0.0002679324
0.007165559
-0.0002995863
0.007347258
-0.0003409548
0.007730906
-0.0006795835
0.00797801
-0.00047543
0.008264639
-0.0005479179
0.00858069
-0.0006099038
0.008999948
-0.0008070597
0.009381849
-0.0007512522
0.01048525
-0.002143276
0.009909436
0.0007156839
-0.009080282
0.008330243
0.0009724074
-0.008184865
-0.001695969
-0.00787512
-0.0006228902
-0.007531513
-0.0006536111
-0.00727329
-0.0004915123
-0.007032363
-0.0004534674
-0.006824771
-0.0003917237
-0.006488663
-0.0005853153
-0.006335632
-0.0002806591
-0.006200317
-0.0002439807
-0.006072024
-0.0002283389
-0.005953925
-0.0002071876
-0.005837893
-0.0002023714
-0.005727067
-0.0001931385
-0.005618645
-0.0001868304
-0.005518336
-0.0001706277
-0.005420747
-0.0001625653
-0.005327239
-0.0001560574
-0.005233487
-0.0001554284
-0.005144637
-0.0001462555
-0.005056675
-0.0001433265
-0.004972174
-0.0001364679
-0.004891312
-0.0001275502
-0.004810176
-0.0001288164
-0.004729667
-0.0001285891
-0.00464868
-0.0001295539
-0.004571073
-0.0001227044
-0.00449506
-0.0001169612
-0.004422265
-0.0001101791
-0.00434643
-0.0001148563
-0.004272046
-0.0001132142
-0.004194144
-0.0001193594
-0.004120245
-0.0001104732
-0.004046691
-0.0001073332
-0.003972229
-0.0001099582
-0.003897129
-0.0001110535
-0.003821975
-0.0001121728
-0.003749865
-0.0001061813
-0.003679661
-0.0001032442
-0.003705287
4.922836e-05
-0.003651938
-7.499112e-05
-0.003599192
-7.692497e-05
-0.003547434
-7.613238e-05
-0.003500711
-6.82035e-05
-0.003454404
-6.847986e-05
-0.003412295
-6.22105e-05
-0.003371912
-5.877969e-05
-0.003333394
-5.611887e-05
-0.00329228
-6.203675e-05
-0.003250733
-6.249759e-05
-0.00320984
-5.740307e-05
-0.003167648
-5.459422e-05
-0.003124367
-5.090807e-05
-0.003075288
-5.794375e-05
-0.003022553
-6.254471e-05
-0.002968315
-6.034902e-05
-0.002913484
-5.833169e-05
-0.002853026
-6.785578e-05
-0.002791878
-6.812046e-05
-0.002725713
-7.456483e-05
-0.00265575
-7.655146e-05
-0.002581243
-7.457723e-05
-0.002499336
-7.707555e-05
-0.002397139
-0.0001106071
-0.002279593
-0.0001359476
-0.002149761
-0.0001475896
-0.001988226
-0.0001936747
-0.001780855
-0.0002667781
-0.001496844
-0.0004330062
-0.001048476
-0.000720268
-0.001856789
-0.0002464598
0.0005799824
-0.0006320234
-0.0002110373
-0.0001959351
-0.001286571
0.001371648
-0.002517669
0.001779605
-0.002725178
0.0008050462
-0.002373997
-0.0002977036
-0.001941624
-0.0007202005
-0.001433695
-0.0008744682
-0.0008358545
-0.001040602
-0.0001895151
-0.001135281
0.0004955913
-0.00119244
0.001218581
-0.001273885
0.002169925
-0.001702966
0.003137325
-0.001701987
0.003889416
-0.001293077
0.004770597
-0.001561856
0.005686869
-0.001631663
0.006705406
-0.001820098
0.007663137
-0.001685135
0.008458124
-0.001358672
0.009022388
-0.0009238058
0.009435514
-0.0005755768
0.009511103
0.0002428162
0.009492696
0.0008249406
0.008701668
0.002699089
0.005600704
0.006321976
2.958523e-05
0.008388218
-0.003591422
0.004449929
-0.003356325
-0.0008819668
-0.001066167
-0.004251779
0.0009028142
-0.003639932
0.0007199952
0.0004000411
-0.002318346
0.004638348
-0.00571752
0.005887585
-0.006087964
0.002003808
-0.004356184
-0.00243525
-0.002201763
-0.00404611
-0.0002230398
-0.003547036
0.001365215
-0.002842878
0.002229056
-0.001570982
0.002651377
-0.00056459
0.002407575
0.0009181953
0.001040088
0.002430171
-0.0002974251
0.001937579
5.502435e-06
-0.0006802203
0.001467623
-0.002558231
0.001724699
-4.149234e-05
0.002491155
-0.001617574
0.0007244493
0.001259799
0.01673599
-0.001225594
-0.001742249
0.005850059
-0.0006056219
-0.001387062
0.001192649
-0.003620779
0.003001849
-0.003386833
0.004400247
-0.002452069
0.005434029
-0.001680495
0.005905919
-9.126987e-05
0.005103928
0.002699467
0.001800642
0.005563917
-0.001392797
0.004606054
-0.002036255
0.001355063
-0.0001568653
-0.003172175
0.001828822
-0.004194465
0.00303979
-0.001990577
0.002589692
0.001307084
0.001992517
0.0007749397
8.449815e-05
0.001951507
-0.002517799
0.003656055
-0.00430325
0.003135738
-0.005037936
0.001688803
-0.00530274
0.0007875536
-0.005407132
0.0003838796
-0.00544429
0.0001827914
-0.005446469
7.421316e-05
-0.005422308
5.579555e-06
-0.005371173
-4.809523e-05
-0.005290121
-9.971687e-05
-0.005179755
-0.0001492727
-0.005052181
-0.0001813147
-0.004914174
-0.0002107257
-0.004770925
-0.0002367238
-0.004641004
-0.0002246402
-0.004537116
-0.0001863346
-0.004370749
-0.000287174
-0.004334836
-8.16266e-05
-0.004353268
-2.347546e-05
-0.004445426
6.112241e-05
-0.004570038
9.236382e-05
-0.004654328
5.863028e-05
-0.004643
-7.534497e-06
-0.004496954
-0.0001525039
-0.004301873
-0.0001750869
-0.004120297
-0.0001226398
-0.00395987
-0.0001234412
-0.003846201
-0.0001259665
-0.003753319
-0.0001534021
-0.003659026
-0.0001613959
-0.003568152
-0.0001340962
-0.003454844
-0.0001637476
-0.003318782
-0.0001993245
-0.003132465
-0.0002832112
-0.002867521
-0.0004260587
-0.00252827
-0.000592356
-0.002233864
-0.0006160752
-0.002265095
-0.00026231
-0.002852295
0.0005012945
-0.003630117
0.00113682
-0.003844228
0.0008554174
-0.003394881
-0.0001665037
-0.002972294
-0.0006064303
-0.002794218
-0.0004229547
-0.002641188
-0.0002751497
-0.002458853
-0.0002826378
-0.002273909
-0.0002906673
-0.002087458
-0.0002970077
-0.001902217
-0.0002994489
-0.00172848
-0.000284507
-0.001546627
-0.0002975079
-0.001341829
-0.0003393242
-0.001125386
-0.0003682116
-0.0009164935
-0.0003549203
-0.0006656686
-0.0004326886
-0.0004009736
-0.0004571037
-3.305782e-05
-0.0006555703
0.0003886029
-0.0007508643
0.0007114198
-0.0004524272
0.0006416305
0.0003292394
0.0005254801
0.0001935524
0.0005251402
-0.0002854835
-0.0002047969
0.0007013149
-0.001452724
0.001844317
-0.002251663
0.001587369
-0.002349868
0.000530499
-0.00208031
-0.0003029673
-0.001745912
-0.000529278
-0.001542649
-0.0002863871
-0.001424576
-0.0001917854
-0.001378895
-0.0002160144
-0.001591775
5.446041e-05
-0.002077176
0.0004850992
-0.002613036
0.0007899048
-0.002980556
0.0008194263
-0.003096587
0.0005107214
-0.003054921
0.0001648896
-0.002944468
-5.78078e-05
-0.002706031
-0.000320158
-0.002145906
-0.000922572
-0.001191314
-0.001759935
0.0001164269
-0.002566894
0.001481761
-0.00078471
0.02022393
-0.002812971
0.0013297
-0.0001669681
-0.006000821
0.0003422568
-0.000752635
-0.001366464
0.003705406
-0.001917881
0.001313411
-0.001271254
-0.0009186364
-0.0008722085
-0.0007306559
-0.0002278748
-0.001107671
0.0001576328
-0.0006553054
0.0004825345
-0.0005432264
0.0007716563
-0.0004550326
0.0009253033
-0.0001802969
0.000886855
0.0001486545
0.0008197658
0.0001169971
0.0007309091
8.506578e-05
0.0004329056
0.0003423184
-0.0004174501
0.001034761
-0.001700933
0.001979408
-0.002388238
0.00153329
-0.002152944
-5.036354e-05
-0.001566848
-0.0009775777
-0.0009446205
-0.001104208
-0.0003013979
-0.001123442
0.0007129013
-0.001771297
0.001958346
-0.002273822
0.002942968
-0.001537435
0.003026309
0.0005147571
0.001258102
0.003239298
2.255649e-05
0.002015269
0.0007561432
-0.001365005
0.002061806
-0.002397411
0.002630108
-0.001205726
0.0006335452
0.00226227
-0.003474591
0.005953715
-0.006052843
0.004997502
-0.006559697
0.001876031
-0.00649427
0.0003922717
-0.006330254
-6.448613e-05
-0.006082448
-0.0002859002
-0.005691896
-0.0005610882
-0.005173427
-0.0008036333
-0.004487946
-0.001119873
-0.003624375
-0.001470905
-0.002698885
-0.001597345
-0.001418633
-0.00236525
-0.0002421573
-0.002205858
0.0007294391
-0.001519198
0.001645619
-0.001879994
-0.0006275348
0.001521324
-0.01234397
0.03104658
-0.002969691
0.005820714
-0.001572446
-0.007398066
-0.001070899
-0.001254181
-0.00244662
0.005081127
-0.0024836
0.001350391
-0.001647356
-0.00175488
-0.001146358
-0.001231654
-0.0004054788
-0.00184855
5.689883e-05
-0.001117683
0.0004532378
-0.0009395654
0.0008339908
-0.0008357856
0.001065388
-0.0004116939
0.001082531
0.000131511
0.001016152
0.0001833764
0.0007816986
0.0003195192
8.758939e-05
0.001036428
-0.001328878
0.002451228
-0.002675592
0.003326122
-0.003016508
0.001874205
-0.00265644
-0.0004104315
-0.00204693
-0.001587087
-0.001329032
-0.001822106
-0.0005329751
-0.001919499
0.00072796
-0.003032232
0.002250495
-0.003796357
0.003383754
-0.002670695
0.003928223
-2.971205e-05
0.002922231
0.00424529
0.001652882
0.003284618
0.002015679
-0.001727802
0.003098981
-0.003480712
0.002361886
-0.0004686315
-0.001813086
0.006437242
-0.006314806
0.01045543
-0.007617898
0.006300595
-0.007599335
0.001857468
-0.007580882
0.0003738182
-0.007411018
-0.0002343502
-0.007116864
-0.0005800538
-0.006635819
-0.001042134
-0.005994472
-0.00144498
-0.005136495
-0.001977849
-0.004027463
-0.002579937
-0.002796573
-0.002828235
-0.001218306
-0.003943517
0.0001467646
-0.003570929
0.00138403
-0.002756463
0.002428108
-0.002924072
0.002290119
-0.0004895455
-0.001072038
0.009212216
-0.0008713998
-0.0015877
0.001272907
-0.005765086
0.0035626
-0.005676526
0.005417697
-0.004307166
0.006813146
-0.003075944
0.007312157
-0.000590281
0.007090574
0.00292105
0.004189303
0.008465188
-0.0005714937
0.009366851
-0.001956855
0.002740425
0.000290754
-0.005419784
0.002347657
-0.006251368
0.003786003
-0.003428923
0.003316214
0.001776873
0.001536669
0.002554485
-0.002085991
0.005574166
-0.005022313
0.006592378
-0.006094985
0.004208409
-0.006392914
0.001986732
-0.00653989
0.0009345304
-0.006621762
0.0004657511
-0.006656128
0.0002171569
-0.006655279
7.336487e-05
-0.006622745
-2.695469e-05
-0.00655455
-0.0001162906
-0.006447129
-0.0002071378
-0.006302683
-0.0002937187
-0.006137886
-0.0003461112
-0.005964671
-0.0003839406
-0.005790404
-0.0004109911
-0.005635682
-0.0003793621
-0.005511766
-0.0003102508
-0.005309157
-0.0004897835
-0.005254722
-0.0001360609
-0.005264369
-1.382886e-05
-0.005347053
0.0001438071
-0.00541845
0.00016376
-0.00537789
1.807106e-05
-0.005218387
-0.0001670382
-0.004963868
-0.0004070225
-0.004724005
-0.0004149504
-0.00454173
-0.0003049144
-0.004389391
-0.0002757799
-0.004270789
-0.0002445682
-0.004157255
-0.0002669365
-0.004044329
-0.0002743224
-0.003953293
-0.0002251322
-0.003848084
-0.0002689564
-0.003727753
-0.0003196548
-0.003563496
-0.000447469
-0.003349342
-0.0006402118
-0.003156708
-0.00078499
-0.00320285
-0.000569934
-0.003717544
0.0002523846
-0.004518467
0.001302218
-0.004872883
0.001491236
-0.004350656
0.0003331904
-0.003532549
-0.0009846113
-0.003046111
-0.001092868
-0.002743923
-0.0007251432
-0.002508766
-0.0005103062
-0.002305867
-0.0004855376
-0.002110241
-0.0004862928
-0.001912171
-0.0004950775
-0.00172427
-0.0004873504
-0.001543449
-0.000465328
-0.001373737
-0.0004672195
-0.001169476
-0.0005435852
-0.0009576111
-0.0005800767
-0.0007668994
-0.000545632
-0.0005346936
-0.0006648944
-0.0002838314
-0.0007079659
8.417747e-05
-0.001023579
0.0005186857
-0.001185373
0.0009371942
-0.0008709358
0.001012217
0.0002542165
0.0008346281
0.0003711415
0.0002872561
0.0002618885
-0.001157249
0.00214582
-0.002551847
0.003238915
-0.003069029
0.002104552
-0.003021237
0.0004827071
-0.002684933
-0.0006392715
-0.002248109
-0.0009661021
-0.002016856
-0.0005176401
-0.002029622
-0.0001790196
-0.0022905
4.486419e-05
-0.002789215
0.0005531753
-0.003314714
0.001010597
-0.003648771
0.001123962
-0.003732518
0.0009031742
-0.003672162
0.0004503652
-0.003610563
0.0001032909
-0.003513864
-0.000154507
-0.003244466
-0.0005895559
-0.002544835
-0.001622203
-0.001249167
-0.003055603
7.138104e-05
-0.003887442
-0.001256279
0.002809422
-0.001411626
-0.0004766766
-0.002246066
0.0006385047
-0.003214112
0.002339693
-0.003751273
0.002316766
-0.003418653
0.0004724265
-0.002976283
-0.0007400743
-0.00248101
-0.001215473
-0.001859212
-0.001496267
-0.001142112
-0.001757701
-0.0003585025
-0.001918891
0.0004685419
-0.002019484
0.001333019
-0.002138362
0.002460521
-0.002830468
0.003644113
-0.002885579
0.004557568
-0.002206532
0.0055972
-0.002601489
0.00667438
-0.002708842
0.007897766
-0.003043484
0.009068215
-0.002855584
0.01004936
-0.002339817
0.01075067
-0.001625117
0.01123418
-0.001059083
0.01122458
0.00025241
0.01111987
0.0009296578
0.01084548
0.002973472
0.009370892
0.007796566
0.004142012
0.0136171
-0.002129479
0.01072142
-0.004204592
0.001193147
-0.002410049
-0.006046322
-0.0005559242
-0.005494056
-0.001395265
0.001239382
-0.005191135
0.008434218
-0.007801175
0.008497625
-0.007107388
0.001310021
-0.00504961
-0.004493028
-0.002466403
-0.006629317
-8.785103e-05
-0.005925588
0.001747226
-0.004677955
0.002752764
-0.00257652
0.003169367
-0.0009811922
0.003101898
0.0009856636
0.001899135
0.003632934
0.0002021578
0.003634557
0.0002625609
-0.0007406234
0.001750239
-0.004045909
0.002204989
-0.0004962432
0.002551406
-0.001963991
-0.001123953
0.004935159
-0.01056877
0.02618081
-0.01130087
0.001704512
-0.01040676
-0.00259008
-0.01001958
-0.001010074
-0.009639351
-0.001033839
-0.009353275
-0.0007775883
-0.009089141
-0.0007176015
-0.008866426
-0.0006144385
-0.008478402
-0.0009733393
-0.008312198
-0.0004468632
-0.00816233
-0.0003938484
-0.008019549
-0.0003711198
-0.007887215
-0.0003395213
-0.007756356
-0.0003332307
-0.007631224
-0.0003182706
-0.007507695
-0.0003103597
-0.007392498
-0.0002858241
-0.007278915
-0.0002761487
-0.007169878
-0.0002650943
-0.007059767
-0.0002655392
-0.006954897
-0.0002511256
-0.006850163
-0.0002480607
-0.006748677
-0.0002379537
-0.006650464
-0.0002257633
-0.006551695
-0.0002275856
-0.006453887
-0.0002263977
-0.00635516
-0.0002282808
-0.006259766
-0.0002180982
-0.006164773
-0.0002119536
-0.006073071
-0.000201882
-0.005977347
-0.0002105796
-0.005884196
-0.0002063654
-0.005786969
-0.0002165868
-0.005694546
-0.0002028963
-0.00560229
-0.0001995887
-0.005509975
-0.0002022732
-0.00541794
-0.0002030885
-0.005326455
-0.0002036581
-0.005237983
-0.0001946528
-0.005150084
-0.0001911439
-0.005184789
8.39342e-05
-0.005111766
-0.0001480142
-0.005042417
-0.0001462738
-0.004970894
-0.0001476555
-0.004902711
-0.0001363865
-0.004831607
-0.000139584
-0.004762742
-0.0001310762
-0.0046928
-0.0001287217
-0.004623332
-0.0001255862
-0.004549839
-0.0001355297
-0.004475588
-0.0001367488
-0.0044017
-0.0001312915
-0.004325891
-0.0001304033
-0.004249043
-0.0001277559
-0.004166013
-0.0001409734
-0.004079358
-0.0001492
-0.003990971
-0.0001487354
-0.003901974
-0.0001473292
-0.003805905
-0.0001639249
-0.003709143
-0.0001648822
-0.003605529
-0.0001781786
-0.003496394
-0.000185687
-0.003379796
-0.0001911754
-0.003254037
-0.0002028344
-0.00310367
-0.000260974
-0.002936869
-0.0003027483
-0.002759289
-0.0003251697
-0.002544717
-0.000408247
-0.0022771
-0.0005343948
-0.001904668
-0.000805438
-0.001226951
-0.001397986
-1.978327e-05
-0.003063956
0.001192325
-0.003064412
0.001833619
-0.001295229
0.002188834
-0.0007927213
0.002464895
-0.0005903787
0.002690211
-0.0004838073
0.002900349
-0.0004598619
0.003089407
-0.0004073212
0.003250373
-0.0003342702
0.00339545
-0.0002996622
0.003545406
-0.0003156619
0.003688068
-0.0002958037
0.003824998
-0.0002754615
0.003949428
-0.0002406538
0.004068697
-0.0002260757
0.00418084
-0.0002101159
0.004292443
-0.0002107211
0.004399293
-0.0001993907
0.004500056
-0.0001837441
0.004596879
-0.0001767244
0.004693639
-0.0001800098
0.004786691
-0.0001716114
0.004875971
-0.0001642763
0.004966931
-0.0001708004
0.005051931
-0.0001578295
0.005139161
-0.0001677854
0.005227524
-0.0001748172
0.005313385
-0.0001654327
0.005394609
-0.0001535342
0.005477894
-0.000160179
0.005559857
-0.0001621445
0.005647947
-0.0001594579
0.005621934
9.81088e-05
0.005718682
-0.0001937492
0.005816597
-0.000206768
0.005912943
-0.0002066919
0.006009145
-0.0002079551
0.00610655
-0.0002139079
0.006203936
-0.0002121193
0.006297837
-0.0002029358
0.006394731
-0.0002121806
0.006492253
-0.000220021
0.006595689
-0.0002355876
0.006693893
-0.0002202035
0.006793299
-0.0002206905
0.006893534
-0.0002264942
0.006997485
-0.0002376789
0.007101261
-0.0002393988
0.007210239
-0.0002558153
0.007321797
-0.0002638412
0.007434121
-0.0002665031
0.007550841
-0.0002768485
0.007663325
-0.0002663824
0.007786532
-0.0002979666
0.007910121
-0.0003038021
0.008039498
-0.0003185321
0.008172228
-0.0003316346
0.008309539
-0.000343951
0.008453561
-0.0003672301
0.008607374
-0.0003959899
0.008763982
-0.0004052576
0.008930524
-0.0004344745
0.009112771
-0.0004818338
0.009313396
-0.0005415795
0.00975358
-0.001119768
0.01002285
-0.000744703
0.01034153
-0.0008665923
0.01069948
-0.0009678528
0.01117294
-0.001280526
0.01167574
-0.00125405
0.01278117
-0.003248702
0.001152884
0.001254193
3.269002e-05
-0.004351295
0.002061106
-0.002102143
0.002513489
-0.001245104
0.002861613
-0.0009385024
0.003150213
-0.0007724074
0.003415078
-0.0007247266
0.003649651
-0.0006418948
0.003848937
-0.0005335562
0.004026775
-0.0004775002
0.004208523
-0.0004974091
0.004380258
-0.0004675388
0.004545358
-0.0004405615
0.00469596
-0.0003912559
0.004840277
-0.0003703928
0.004976474
-0.0003463126
0.005111686
-0.000345933
0.005242139
-0.0003298443
0.005365088
-0.0003066926
0.00548411
-0.0002957462
0.005602974
-0.0002988739
0.005717883
-0.0002865209
0.005828604
-0.0002749969
0.00594187
-0.0002840669
0.006047931
-0.0002638906
0.006157002
-0.0002768561
0.006267873
-0.0002856875
0.006375245
-0.0002728053
0.006477977
-0.0002562658
0.006582618
-0.0002648198
0.006685856
-0.0002653834
0.00679699
-0.0002705915
0.006772766
0.0001223332
0.006891125
-0.0003121086
0.007013491
-0.0003291344
0.007132465
-0.000325665
0.007251315
-0.0003268055
0.007371669
-0.0003342615
0.007491518
-0.0003319684
0.007607272
-0.00031869
0.007726193
-0.0003311022
0.007845832
-0.00033966
0.007972176
-0.0003619313
0.008092053
-0.0003400807
0.008213144
-0.0003417809
0.008335309
-0.0003486591
0.008461272
-0.0003636428
0.008586832
-0.0003649579
0.008718592
-0.0003875759
0.008852904
-0.0003981528
0.0089881
-0.0004016995
0.009128509
-0.0004172576
0.009263093
-0.0004009661
0.009411266
-0.0004461399
0.009558789
-0.0004513249
0.009713005
-0.0004727481
0.009871626
-0.0004902557
0.01003442
-0.0005067462
0.01020626
-0.0005390638
0.01038874
-0.0005784714
0.01057439
-0.0005909063
0.01077194
-0.0006320248
0.01098843
-0.0006983302
0.01146165
-0.001014801
0.01175305
-0.001411163
0.01207155
-0.001063208
0.01245219
-0.001247229
0.0128921
-0.001407766
0.0134592
-0.00184762
0.01415645
-0.001951301
0.01520867
-0.004300918
0.01514885
0.001212696
-0.01355057
0.01305344
0.002201637
-0.01271701
-0.00342364
-0.01219351
-0.001533567
-0.01174895
-0.001478404
-0.01140783
-0.001118707
-0.01109951
-0.00102592
-0.0108438
-0.0008701462
-0.01060271
-0.001214434
-0.01019343
-0.0008561458
-0.01002083
-0.0005664414
-0.009856229
-0.0005357249
-0.009703888
-0.0004918618
-0.009553006
-0.0004841129
-0.009408599
-0.0004626782
-0.00926589
-0.0004530685
-0.009132373
-0.0004193408
-0.009000752
-0.0004077696
-0.008874192
-0.0003916543
-0.008746155
-0.000393576
-0.008624122
-0.0003731592
-0.008502247