/*--------------------------------*- C++ -*----------------------------------*\
| =========                 |                                                 |
| \\      /  F ield         | OpenFOAM: The Open Source CFD Toolbox           |
|  \\    /   O peration     | Version:  2406                                  |
|   \\  /    A nd           | Website:  www.openfoam.com                      |
|    \\/     M anipulation  |                                                 |
\*---------------------------------------------------------------------------*/
FoamFile
{
    version     2.0;
    format      ascii;
    arch        "LSB;label=32;scalar=64";
    class       volScalarField;
    location    "1.94";
    object      p;
}
// * * * * * * * * * * * * * * * * * * * * * * * * * * * * * * * * * * * * * //

dimensions      [0 2 -2 0 0 0 0];

internalField   nonuniform List<scalar> 
217010
(
-192.2077
-123.4445
-127.4214
-129.5276
-130.3159
-124.5806
-122.5674
-121.3705
-120.3785
-120.0754
-120.2279
-121.1329
-121.8162
-121.5637
-121.6504
-121.8239
-122.0653
-122.6071
-123.298
-123.848
-124.6656
-125.3154
-125.0603
-124.0619
-122.771
-122.3151
-124.3372
-129.432
-134.7095
-135.581
-133.0293
-132.2203
-132.007
-129.5438
-125.9081
-121.9135
-115.9545
-108.1603
-101.6331
-95.35775
-88.60746
-86.53245
-83.80966
-78.81614
-73.9289
-69.78118
-68.65898
-69.59616
-75.25551
-76.28831
-131.7574
-107.9735
-111.4609
-111.7456
-111.9771
-112.1652
-112.6744
-113.9204
-116.1653
-119.1711
-121.773
-123.2119
-124.1498
-125.7408
-129.2474
-135.6719
-143.4291
-147.8935
-147.3398
-145.2441
-144.8027
-145.9683
-147.9572
-150.4462
-153.2256
-156.037
-158.5823
-160.7016
-162.4001
-163.6415
-164.392
-164.9286
-165.3842
-165.3869
-165.0298
-164.1911
-162.9738
-161.168
-158.8197
-156.1093
-153.0105
-149.9176
-146.7307
-143.3252
-139.7144
-135.9262
-132.1486
-128.3959
-124.5455
-120.5963
-116.5734
-112.5546
-108.5893
-104.6835
-100.7523
-96.88033
-93.12549
-89.44153
-85.74522
-82.10548
-78.61822
-75.26164
-71.99696
-68.93227
-65.90266
-62.85518
-60.02729
-57.21368
-53.71904
-50.17477
-47.76437
-47.18206
-50.53351
-59.49073
-67.34514
-64.01309
-51.53051
-45.0731
-43.47384
-42.02925
-39.14191
-35.78151
-32.81615
-29.37818
-25.38816
-21.07605
-16.46171
-11.82571
-7.352549
-3.319432
-0.5333372
0.3263401
-1.086325
-4.303722
-7.883271
-10.82216
-12.53413
-13.76362
-16.08835
-17.63267
-70.52227
-79.11626
-92.39488
-109.8084
-126.6606
-140.1401
-149.3572
-153.5203
-150.9678
-141.215
-124.0736
-99.78926
-73.05932
-57.45997
-55.58903
-51.40765
-46.95214
-57.27259
-77.17903
-81.05881
-69.20612
-58.59726
-52.13955
-41.17455
-31.48189
-26.40278
-31.85822
-50.44234
-79.11367
-106.4305
-128.1322
-142.8695
-147.7363
-142.3723
-129.6625
-112.8979
-105.2621
-111.7496
-115.5734
-106.1407
-92.97244
-86.96785
-85.81304
-85.61733
-85.0846
-85.97154
-88.05647
-90.20639
-83.01082
-142.8673
-67.33075
-58.55207
-47.19128
-40.58226
-34.86041
-30.13108
-26.03884
-22.31615
-19.08813
-16.14482
-13.4709
-11.02342
-8.714879
-6.537091
-4.499645
-2.611362
-0.8425581
0.8559334
2.477287
4.023909
5.503311
6.907368
8.236296
9.539841
10.81295
12.05418
13.23987
14.36369
15.44688
16.51177
17.56321
18.59527
19.5764
20.52685
21.46863
22.39172
23.30715
24.21338
25.11601
25.96925
26.85586
27.69101
28.52206
29.33755
30.1487
30.94313
31.72211
32.5015
33.2939
34.08362
34.85692
35.6176
36.37548
37.15275
37.93792
38.71149
39.48627
40.27067
41.05932
41.86158
42.66841
43.47555
44.31234
45.20556
46.10666
47.00595
47.98315
49.07213
50.16858
51.03297
52.06918
55.57607
53.47534
52.10997
50.88174
49.66072
48.46986
47.29561
46.18478
45.18199
44.22712
43.21904
42.18698
41.18171
40.2264
39.29451
38.36057
37.41266
36.46457
35.5433
34.63049
33.7017
32.77132
31.85044
30.91446
29.98279
29.03399
28.0483
27.0764
26.12443
25.16281
24.1728
23.1389
22.13452
21.09123
20.0194
18.94177
17.85425
16.72463
15.57478
14.41992
13.23634
11.98687
10.67729
9.363335
8.051922
6.685193
5.248388
3.762766
2.204789
0.5786299
-1.100219
-2.844963
-4.624344
-6.530512
-8.572349
-10.70402
-12.97678
-15.36865
-17.95886
-20.77662
-23.78985
-27.04339
-30.69347
-34.78425
-39.44742
-44.6658
-50.75947
-58.30704
-67.21168
-82.30149
-96.04345
55.53897
53.69389
52.27241
51.03165
49.80699
48.60811
47.42452
46.30061
45.28607
44.32582
43.31612
42.28037
41.26842
40.30637
39.36973
38.43246
37.48152
36.52946
35.60418
34.68807
33.7566
32.82339
31.89978
30.9612
30.0275
29.0768
28.08877
27.11441
26.15982
25.1961
24.20448
23.1681
22.16312
21.11709
20.04322
18.96388
17.87475
16.74327
15.59182
14.43524
13.25017
11.99864
10.68698
9.371296
8.058375
6.689397
5.250689
3.763377
2.202954
0.5739043
-1.107983
-2.85591
-4.637441
-6.548894
-8.595613
-10.73184
-13.01113
-15.40839
-18.00785
-20.83558
-23.858
-27.12352
-30.78969
-34.89702
-39.59591
-44.84506
-50.98688
-58.59336
-67.67807
-82.74382
-98.28677
-69.09786
-58.87859
-47.54934
-40.80153
-35.03968
-30.27273
-26.15867
-22.40546
-19.16505
-16.21155
-13.52661
-11.07161
-8.756302
-6.571818
-4.527986
-2.634285
-0.861972
0.8401544
2.46511
4.014812
5.496917
6.90395
8.234631
9.539759
10.81457
12.05765
13.24522
14.37046
15.45505
16.52145
17.57441
18.60804
19.59062
20.54225
21.4856
22.41013
23.32727
24.23506
25.13937
25.99462
26.88284
27.71914
28.55179
29.36906
30.18166
30.97763
31.75863
32.54041
33.33517
34.12686
34.90186
35.66474
36.42558
37.20584
37.99365
38.76986
39.54799
40.33609
41.12904
41.93532
42.746
43.55859
44.40271
45.30214
46.20906
47.11972
48.11378
49.21209
50.29276
51.17241
52.3703
-62.72495
-77.49904
-90.75773
-107.8702
-124.9194
-138.7983
-148.4883
-153.2295
-151.2875
-142.1062
-125.5898
-101.6749
-74.61542
-58.06302
-55.8049
-51.62448
-46.85361
-56.76294
-76.73229
-81.19711
-69.5142
-58.93011
-52.51245
-41.61139
-31.69694
-26.49596
-31.8505
-50.31708
-78.95123
-106.2939
-128.0561
-142.8936
-147.8874
-142.5664
-129.8111
-112.8452
-105.1937
-111.7736
-115.6266
-106.0562
-92.86256
-86.91833
-85.79889
-85.61141
-85.09506
-86.0365
-88.17354
-90.08344
-84.40654
-132.2513
-125.6386
-109.4008
-111.3217
-111.6992
-111.9542
-112.1198
-112.5833
-113.7524
-115.9179
-118.8958
-121.5763
-123.0832
-124.035
-125.5476
-128.9023
-135.1941
-143.0149
-147.7799
-147.3806
-145.2775
-144.7695
-145.8566
-147.8172
-150.3101
-153.1038
-155.9352
-158.503
-160.6435
-162.3617
-163.624
-164.3868
-164.9267
-165.39
-165.4041
-165.051
-164.2157
-163.0031
-161.209
-158.8689
-156.1682
-153.0673
-149.9647
-146.7716
-143.3584
-139.7438
-135.9518
-132.1745
-128.4108
-124.5528
-120.5978
-116.5692
-112.5448
-108.5735
-104.6626
-100.7255
-96.84781
-93.08735
-89.39829
-85.69703
-82.05254
-78.56087
-75.20142
-71.93345
-68.86538
-65.83154
-62.78342
-59.93827
-57.11118
-53.60464
-50.06378
-47.73066
-47.24461
-50.76205
-59.87387
-67.56971
-63.80554
-51.06202
-44.82286
-43.35639
-41.88655
-38.95978
-35.62469
-32.66564
-29.12576
-25.06247
-20.71147
-16.07758
-11.4412
-6.992596
-3.036432
-0.3959449
0.2867515
-1.31232
-4.665448
-8.275286
-11.14036
-12.74007
-14.00264
-16.24581
-19.27972
-177.8959
-125.3766
-127.583
-129.5568
-130.4977
-124.7345
-122.6155
-121.394
-120.3917
-120.0775
-120.2248
-121.1272
-121.8182
-121.5634
-121.6496
-121.8233
-122.0642
-122.6084
-123.3019
-123.8528
-124.6783
-125.3327
-125.0644
-124.0497
-122.7595
-122.3288
-124.4158
-129.5772
-134.8638
-135.5922
-133.0058
-132.2674
-132.047
-129.4812
-125.6987
-121.5909
-115.5242
-107.7136
-101.1897
-94.91006
-88.2991
-86.29859
-83.43482
-78.36214
-73.52101
-69.54744
-68.66611
-69.96484
-75.59976
-79.01598
-163.3265
-126.1279
-127.802
-129.4674
-130.7228
-124.9578
-122.6713
-121.4175
-120.4079
-120.0834
-120.2268
-121.1308
-121.8298
-121.5627
-121.6481
-121.8215
-122.0614
-122.6098
-123.3045
-123.8681
-124.7343
-125.3896
-125.094
-124.0542
-122.7559
-122.3439
-124.4869
-129.6906
-134.8787
-135.5689
-133.1268
-132.6215
-132.3217
-129.5745
-125.6855
-121.5724
-115.4685
-107.5362
-100.9903
-94.76818
-88.11645
-86.24956
-83.40092
-78.17172
-73.30316
-69.4453
-68.74115
-70.28196
-76.01414
-79.88775
-121.1927
-109.8215
-111.2847
-111.6831
-111.94
-112.1177
-112.5474
-113.6684
-115.795
-118.8002
-121.547
-123.0726
-123.9811
-125.4216
-128.6629
-134.9233
-142.9426
-147.8317
-147.4991
-145.3395
-144.7877
-145.8761
-147.8406
-150.3565
-153.1511
-155.9526
-158.4972
-160.6272
-162.3431
-163.6153
-164.3833
-164.9185
-165.3838
-165.4031
-165.0604
-164.2258
-163.0225
-161.2443
-158.9003
-156.195
-153.0892
-149.9812
-146.7917
-143.3761
-139.7636
-135.9711
-132.1946
-128.4308
-124.5669
-120.6072
-116.5746
-112.5473
-108.5717
-104.6603
-100.7202
-96.83933
-93.07678
-89.38783
-85.68391
-82.03456
-78.53946
-75.18213
-71.91011
-68.84237
-65.80538
-62.7555
-59.90669
-57.08711
-53.61791
-50.04082
-47.75295
-47.34279
-50.99065
-60.21301
-67.72936
-63.63046
-50.79235
-44.74086
-43.3238
-41.83913
-38.96454
-35.6849
-32.69318
-29.09174
-24.98634
-20.61676
-15.95802
-11.30134
-6.849294
-2.911702
-0.3451814
0.2112854
-1.530774
-4.910765
-8.440843
-11.18337
-12.76765
-14.05549
-16.38725
-20.06878
-58.39971
-76.87812
-90.21048
-107.1713
-124.4613
-138.6966
-148.6824
-153.7301
-151.9709
-143.1494
-127.2509
-103.9403
-76.49052
-58.70908
-55.90049
-52.00577
-46.89355
-56.44272
-76.70331
-81.55826
-70.09783
-59.51065
-53.06162
-41.95813
-32.01216
-26.73786
-32.0188
-50.40084
-79.05436
-106.4054
-128.2149
-143.1384
-148.1929
-143.0525
-130.4534
-113.2425
-105.3651
-111.9364
-115.8362
-106.1015
-92.78664
-86.87175
-85.78857
-85.60999
-85.12006
-86.12745
-88.24389
-89.95637
-84.90864
-120.8193
-68.9761
-59.09302
-47.71257
-40.91276
-35.12506
-30.33797
-26.20842
-22.45876
-19.19592
-16.24031
-13.54992
-11.09246
-8.775408
-6.587586
-4.540979
-2.644118
-0.8720637
0.8317242
2.458257
4.0094
5.492208
6.901596
8.231999
9.537982
10.81393
12.05835
13.24754
14.37289
15.45749
16.52423
17.57767
18.61298
19.59633
20.54692
21.49114
22.41586
23.33455
24.24299
25.14747
26.00063
26.88972
27.72707
28.56068
29.37784
30.19127
30.98778
31.76862
32.55005
33.34621
34.13942
34.9142
35.67697
36.43676
37.21804
38.00844
38.78502
39.56266
40.35268
41.1451
41.95156
42.76303
43.576
44.41975
45.32526
46.23707
47.14606
48.14157
49.2396
50.32321
51.22832
52.46791
55.46274
53.80652
52.33295
51.0736
49.84818
48.64857
47.45666
46.32471
45.30875
44.35167
43.33946
42.30129
41.28534
40.32258
39.38573
38.44923
37.49659
36.54224
35.61773
34.70208
33.76906
32.8355
31.91247
30.9718
30.0401
29.0889
28.09734
27.12289
26.16886
25.20522
24.21085
23.17701
22.17026
21.12699
20.05066
18.97083
17.88165
16.74801
15.59627
14.44035
13.25593
12.00245
10.6885
9.372656
8.060766
6.690195
5.250703
3.763025
2.200229
0.569532
-1.113967
-2.863277
-4.643373
-6.558595
-8.607603
-10.74424
-13.02788
-15.42496
-18.03037
-20.86229
-23.8873
-27.15734
-30.83071
-34.96444
-39.65891
-44.92967
-51.09673
-58.74596
-67.89705
-83.03252
-97.93968
55.3328
53.95121
52.47618
51.20538
49.9893
48.79195
47.59189
46.45144
45.42794
44.46512
43.44936
42.40909
41.38844
40.41937
39.47711
38.53585
37.57976
36.62097
35.69283
34.77213
33.83518
32.89877
31.97262
31.02814
30.09505
29.14077
28.14468
27.16981
26.21282
25.24691
24.24931
23.21999
22.20081
21.15981
20.07919
18.99822
17.9079
16.77011
15.61733
14.4604
13.27518
12.01737
10.69987
9.383279
8.071753
6.69727
5.255953
3.767184
2.200053
0.5668362
-1.119426
-2.872161
-4.650713
-6.574415
-8.62856
-10.76713
-13.06016
-15.45849
-18.07637
-20.9182
-23.95017
-27.23052
-30.92721
-35.07135
-39.7875
-45.09428
-51.30735
-59.00398
-68.3017
-83.28912
-98.11015
-69.14488
-59.28153
-48.02428
-41.10676
-35.29427
-30.46806
-26.31201
-22.54514
-19.27128
-16.3036
-13.6011
-11.13782
-8.814918
-6.619517
-4.56675
-2.662761
-0.8895592
0.8184605
2.44862
4.002979
5.487489
6.901506
8.231264
9.538938
10.81707
12.0639
13.25654
14.38289
15.46818
16.53566
17.59037
18.62903
19.61504
20.5647
21.51124
22.43702
23.35909
24.26898
25.1718
26.03819
26.92152
27.76043
28.5963
29.41538
30.23023
31.02958
31.8127
32.59647
33.39502
34.1914
34.96856
35.7345
36.49731
37.28063
38.07539
38.85549
39.63751
40.43217
41.23053
42.04145
42.85819
43.67737
44.52545
45.43467
46.35516
47.27851
48.28772
49.37372
50.43823
51.39037
52.63734
-52.01285
-74.57656
-88.84036
-105.4835
-122.7444
-137.2836
-147.6651
-153.2245
-152.2659
-144.18
-129.0515
-106.7077
-79.40106
-59.9904
-56.24761
-52.49272
-47.00695
-56.03975
-76.50468
-82.02762
-71.05981
-60.65433
-53.96549
-42.57067
-32.54147
-27.20082
-32.45056
-50.73971
-79.38629
-106.6681
-128.4873
-143.4612
-148.5897
-143.719
-131.5324
-114.3965
-106.0914
-112.3544
-116.1644
-106.1895
-92.68856
-86.80672
-85.78194
-85.61605
-85.16848
-86.26069
-88.39598
-89.77286
-86.258
-112.5812
-118.891
-110.5723
-111.1876
-111.6275
-111.9115
-112.0758
-112.4778
-113.5281
-115.5703
-118.5444
-121.3351
-122.9019
-123.8672
-125.2149
-128.2928
-134.4034
-142.4653
-147.7044
-147.6067
-145.4946
-144.9207
-146.0253
-148.0088
-150.4968
-153.2357
-155.9771
-158.4926
-160.6147
-162.3309
-163.6178
-164.3932
-164.923
-165.3969
-165.4456
-165.1083
-164.2726
-163.0811
-161.3257
-158.9725
-156.2755
-153.1557
-150.0331
-146.8418
-143.4156
-139.8013
-136.0014
-132.2177
-128.4515
-124.5796
-120.612
-116.5705
-112.5369
-108.5522
-104.639
-100.6927
-96.80455
-93.03483
-89.34363
-85.63648
-81.98028
-78.4785
-75.1255
-71.84817
-68.77812
-65.73789
-62.66479
-59.81789
-56.99794
-53.47585
-49.9771
-47.78704
-47.46976
-51.27764
-60.63557
-68.05269
-63.49035
-50.60328
-44.56671
-43.37318
-41.87544
-38.9951
-35.69962
-32.48823
-28.80343
-24.64716
-20.2627
-15.60045
-10.95484
-6.555269
-2.711656
-0.2985747
0.07197147
-1.851913
-5.320338
-8.860864
-11.58541
-13.00704
-14.32169
-16.52593
-20.97863
-153.7111
-127.9773
-127.7514
-129.0588
-130.9878
-125.3199
-122.7425
-121.4538
-120.4304
-120.0951
-120.2345
-121.1378
-121.8506
-121.5636
-121.6468
-121.818
-122.0562
-122.6008
-123.2893
-123.9013
-124.8351
-125.4688
-125.1152
-124.0533
-122.7394
-122.3417
-124.5356
-129.7376
-134.8024
-135.423
-133.398
-133.1417
-132.6243
-129.4507
-125.4091
-121.2274
-115.1261
-107.1295
-100.5586
-94.44257
-87.80453
-86.00096
-83.0389
-77.78536
-72.95465
-69.31624
-68.86555
-70.7554
-76.60232
-82.26307
-146.9203
-129.7583
-127.3788
-128.2363
-131.306
-125.8535
-122.8266
-121.5064
-120.4565
-120.1134
-120.25
-121.1504
-121.8825
-121.5687
-121.6477
-121.8134
-122.048
-122.5669
-123.245
-123.9481
-124.961
-125.5712
-125.1631
-124.0561
-122.7016
-122.3104
-124.5493
-129.587
-134.4648
-135.1296
-133.7018
-133.7048
-132.9823
-129.5745
-125.2853
-121.0654
-114.9732
-106.7992
-100.1517
-94.15913
-87.47474
-85.87571
-82.86171
-77.4228
-72.60936
-69.23509
-69.1133
-71.36693
-77.46409
-84.0305
-116.5833
-111.1062
-111.1081
-111.543
-111.8709
-112.0676
-112.4414
-113.4077
-115.3407
-118.2511
-121.1186
-122.8538
-123.8042
-125.1435
-128.0483
-133.8736
-141.814
-147.2626
-147.6114
-145.7448
-145.2176
-146.3071
-148.2388
-150.6436
-153.3118
-155.9925
-158.4809
-160.5968
-162.3125
-163.6187
-164.4001
-164.9128
-165.402
-165.4811
-165.1631
-164.3277
-163.1417
-161.4148
-159.0334
-156.361
-153.226
-150.0908
-146.9089
-143.4725
-139.8586
-136.0473
-132.2542
-128.4891
-124.6071
-120.632
-116.5812
-112.5422
-108.5467
-104.6348
-100.6804
-96.78177
-93.0039
-89.31607
-85.60692
-81.94038
-78.42897
-75.08453
-71.79323
-68.72264
-65.68576
-62.6224
-59.76413
-56.91329
-53.35185
-49.87821
-47.80836
-47.60054
-51.5814
-61.07892
-68.30483
-63.31426
-50.61127
-44.69972
-43.64928
-41.97838
-39.03454
-35.72083
-32.49531
-28.67446
-24.42236
-20.01675
-15.32689
-10.67368
-6.318363
-2.553225
-0.3087291
-0.1552209
-2.28367
-5.818609
-9.291708
-11.79285
-13.10868
-14.4312
-16.60854
-21.56519
-45.86567
-71.62206
-87.50025
-104.1781
-121.5202
-136.5508
-147.5531
-154.0505
-153.4
-145.8039
-131.4489
-110.2134
-83.72064
-62.70261
-56.90203
-52.94737
-47.13079
-55.59309
-76.23697
-82.62083
-72.51394
-62.56978
-55.27607
-43.39537
-33.31794
-27.95946
-33.29038
-51.49995
-80.15575
-107.2737
-129.0775
-144.1179
-149.2853
-144.7061
-133.0333
-116.2335
-107.7227
-113.0718
-116.6176
-106.3208
-92.53243
-86.71672
-85.77602
-85.64173
-85.25715
-86.44283
-88.59906
-89.63095
-87.68021
-106.8019
-69.25432
-59.35841
-48.29025
-41.27923
-35.45099
-30.58805
-26.41094
-22.63304
-19.33184
-16.36102
-13.64732
-11.18036
-8.854291
-6.65206
-4.592713
-2.679573
-0.9087487
0.8023411
2.435603
3.993371
5.479216
6.899746
8.226605
9.53565
10.81534
12.06438
13.2618
14.38793
15.47213
16.54033
17.59666
18.63943
19.62747
20.57375
21.52319
22.44907
23.37466
24.28395
25.18254
26.05148
26.93817
27.77793
28.61542
29.43444
30.25065
31.05195
31.83502
32.61784
33.41887
34.2189
34.99587
35.76219
36.52388
37.30931
38.11001
38.89038
39.67145
40.47047
41.26923
42.08126
42.90037
43.72261
44.57247
45.49529
46.4275
47.35092
48.36539
49.44413
50.51098
51.51705
52.7647
55.13171
54.0532
52.60158
51.30724
50.0881
48.89601
47.68234
46.52318
45.49204
44.53282
43.51089
42.46541
41.43447
40.46212
39.51796
38.57689
37.61707
36.65308
35.72622
34.8056
33.86525
32.92758
32.00219
31.05242
30.1235
29.16784
28.16417
27.18943
26.23198
25.26665
24.26646
23.23087
22.21568
21.17836
20.09267
19.0115
17.9213
16.77909
15.62718
14.47167
13.28721
12.02363
10.70156
9.386601
8.077833
6.698162
5.255884
3.767606
2.194692
0.5588496
-1.129955
-2.885571
-4.657817
-6.59368
-8.65339
-10.79188
-13.09512
-15.48898
-18.12252
-20.97357
-24.00789
-27.29381
-31.01053
-35.18225
-39.91016
-45.24801
-51.50328
-59.24432
-68.64991
-83.40834
-98.02187
54.83543
54.09586
52.73203
51.43638
50.21876
49.04092
47.82106
46.65431
45.62306
44.66682
43.63801
42.59427
41.55564
40.57684
39.62708
38.68495
37.71973
36.74586
35.81646
34.89122
33.94487
33.00451
32.07815
31.11969
30.19457
29.23661
28.22196
27.24905
26.28828
25.32049
24.31335
23.29268
22.26145
21.22384
20.1319
19.05067
17.95712
16.80386
15.65079
14.49755
13.31807
12.04557
10.71176
9.397384
8.096384
6.708253
5.263261
3.777899
2.196707
0.5556118
-1.140519
-2.902011
-4.658245
-6.609946
-8.676075
-10.81798
-13.13781
-15.51926
-18.17714
-21.04216
-24.08265
-27.36839
-31.11075
-35.31608
-40.05654
-45.4275
-51.73052
-59.50267
-68.99143
-83.39097
-97.89132
-69.4037
-59.34571
-48.55259
-41.4571
-35.64045
-30.73482
-26.53136
-22.73684
-19.40729
-16.43715
-13.70442
-11.23143
-8.904364
-6.690071
-4.61883
-2.694427
-0.9333668
0.7824577
2.421766
3.986625
5.474402
6.903371
8.224691
9.536293
10.81766
12.07297
13.27837
14.40121
15.48538
16.55794
17.61546
18.66099
19.65295
20.59496
21.5496
22.4749
23.40581
24.31561
25.21678
26.10457
26.97952
27.81927
28.66044
29.48173
30.30115
31.10559
31.88877
32.674
33.48171
34.2886
35.06511
35.83415
36.59676
37.38479
38.19476
38.97783
39.76393
40.57167
41.3733
42.18794
43.013
43.84128
44.68898
45.61894
46.56522
47.49033
48.50369
49.55625
50.61464
51.66103
52.86058
-40.25695
-67.361
-85.39636
-102.5241
-119.9025
-135.4139
-146.9145
-153.8152
-154.076
-147.5135
-134.2583
-114.3083
-89.13835
-67.18151
-58.21397
-53.27261
-46.98652
-54.82937
-75.49865
-83.03387
-74.4926
-65.29123
-57.10997
-44.50111
-34.49631
-29.10949
-34.73518
-52.81277
-81.56109
-108.3442
-130.0651
-145.2035
-150.3502
-146.1161
-135.0372
-118.6059
-110.257
-113.7898
-116.4394
-106.0185
-92.18612
-86.58178
-85.76696
-85.66927
-85.37196
-86.71749
-88.83643
-89.50473
-88.58094
-101.3849
-113.7438
-111.5825
-111.0816
-111.4209
-111.7869
-112.0048
-112.3811
-113.2764
-115.0629
-117.7817
-120.5994
-122.5329
-123.672
-125.0832
-127.8327
-133.218
-140.6049
-146.0783
-147.1679
-145.9398
-145.5924
-146.6386
-148.4821
-150.7991
-153.4075
-156.0283
-158.4896
-160.6022
-162.3155
-163.6515
-164.4466
-164.9313
-165.4557
-165.5723
-165.2642
-164.4177
-163.224
-161.5494
-159.1318
-156.4955
-153.3237
-150.1704
-147.0038
-143.5454
-139.9293
-136.0999
-132.299
-128.5374
-124.6382
-120.6553
-116.5884
-112.5401
-108.5249
-104.6139
-100.6462
-96.736
-92.95688
-89.27836
-85.55738
-81.8741
-78.34985
-75.01926
-71.70965
-68.65812
-65.62589
-62.54676
-59.69724
-56.78062
-53.12171
-49.70678
-47.80058
-47.75645
-51.89991
-61.26328
-68.22234
-62.83299
-50.92947
-45.31319
-44.12334
-42.0991
-39.06484
-35.62316
-32.31918
-28.42208
-24.09351
-19.69155
-14.99054
-10.35288
-6.07191
-2.416575
-0.4063567
-0.529343
-2.897162
-6.469478
-9.83891
-12.18414
-13.32294
-14.65413
-16.648
-21.84223
-139.7161
-130.2971
-126.5977
-127.2485
-131.7766
-126.6313
-122.9952
-121.5923
-120.5022
-120.1501
-120.2805
-121.1695
-121.9223
-121.5825
-121.6553
-121.8114
-122.0402
-122.517
-123.1836
-123.9948
-125.0998
-125.6996
-125.2227
-124.0492
-122.6317
-122.2792
-124.6218
-129.4517
-134.1282
-134.8422
-133.997
-134.2434
-133.2971
-129.5245
-125.0269
-120.8521
-114.8502
-106.3885
-99.65212
-93.86731
-87.11274
-85.72661
-82.58266
-76.98894
-72.27684
-69.24493
-69.56262
-72.1801
-78.5408
-85.97107
-131.7216
-129.2519
-125.6176
-126.3855
-132.359
-127.5804
-123.2815
-121.6614
-120.6031
-120.2409
-120.3374
-121.2057
-121.9608
-121.6022
-121.6668
-121.8197
-122.0408
-122.4692
-123.1264
-124.044
-125.2732
-125.8911
-125.3196
-124.0735
-122.5883
-122.309
-124.844
-129.4151
-133.9791
-134.7028
-134.3366
-134.8187
-133.782
-129.5822
-124.684
-120.5818
-114.5649
-105.7462
-99.12587
-93.62356
-86.78643
-85.65944
-82.22805
-76.46488
-72.04238
-69.51236
-70.45375
-73.29617
-79.95888
-87.99442
-111.1871
-111.8392
-111.2561
-111.3298
-111.7182
-111.9731
-112.3652
-113.2037
-114.8208
-117.2415
-119.9513
-122.1515
-123.5235
-125.0982
-127.8431
-132.6824
-139.2115
-144.442
-146.3017
-145.9642
-145.9289
-146.9826
-148.767
-150.9973
-153.5455
-156.095
-158.5244
-160.6356
-162.3311
-163.7061
-164.5258
-164.9517
-165.5374
-165.6899
-165.4058
-164.5317
-163.2851
-161.7098
-159.2442
-156.6412
-153.4484
-150.2814
-147.1219
-143.6348
-140.0203
-136.187
-132.3791
-128.6018
-124.6885
-120.7019
-116.6011
-112.5454
-108.5022
-104.6027
-100.628
-96.71617
-92.93456
-89.2367
-85.4917
-81.80653
-78.26436
-74.94484
-71.64593
-68.61096
-65.56525
-62.46196
-59.64122
-56.62743
-52.86213
-49.50021
-47.81332
-48.0564
-52.24221
-60.75015
-66.60203
-61.48665
-51.34809
-46.11896
-44.67005
-42.27892
-39.20688
-35.71542
-32.25485
-28.20283
-23.7393
-19.31856
-14.62484
-9.985511
-5.780758
-2.336374
-0.661755
-1.135343
-3.807566
-7.358115
-10.53675
-12.58486
-13.48511
-14.72724
-16.59372
-21.74836
-35.72968
-61.92774
-82.15505
-100.3105
-117.8637
-134.0904
-146.5618
-154.8308
-155.7437
-149.9897
-137.9368
-119.2177
-95.27043
-73.03924
-60.95091
-53.61871
-46.16543
-52.73877
-73.70171
-82.64659
-76.77612
-68.7788
-59.64698
-46.21262
-36.52721
-31.09652
-37.00004
-54.78311
-83.65435
-109.9941
-131.4481
-146.6978
-151.9046
-148.1729
-137.7187
-121.3578
-113.3474
-113.995
-114.6976
-104.695
-91.52924
-86.38858
-85.79601
-85.62077
-85.36539
-87.21483
-89.42984
-89.42566
-88.71232
-95.82513
-69.43024
-59.16469
-48.76563
-41.60973
-35.86144
-30.88403
-26.63971
-22.83936
-19.49983
-16.52538
-13.75111
-11.2864
-8.965211
-6.724401
-4.644605
-2.72155
-0.9741332
0.7629965
2.41131
3.986607
5.467959
6.900955
8.22007
9.531993
10.81536
12.08645
13.28732
14.40445
15.49711
16.56936
17.61537
18.66463
19.67522
20.60726
21.56753
22.4899
23.4294
24.34163
25.24339
26.12131
26.9987
27.84302
28.69192
29.51422
30.33203
31.13613
31.92513
32.71398
33.52007
34.32557
35.10167
35.87783
36.6406
37.42951
38.24809
39.03587
39.81987
40.62762
41.43096
42.25531
43.08736
43.92344
44.76265
45.70679
46.68327
47.61066
48.62986
49.65501
50.7116
51.79623
52.88345
54.42112
54.03225
52.84098
51.58123
50.36768
49.19967
47.95256
46.76407
45.72827
44.77688
43.72065
42.67559
41.62992
40.65479
39.69204
38.74738
37.78256
36.80638
35.88132
34.94867
33.99441
33.05316
32.12675
31.15689
30.23926
29.27143
28.24659
27.27919
26.32066
25.35776
24.33891
23.29286
22.27953
21.2399
20.1429
19.07614
17.98879
16.82338
15.66692
14.50598
13.33524
12.06522
10.7207
9.393366
8.104303
6.71368
5.259739
3.778039
2.195758
0.5552158
-1.151254
-2.937529
-4.672468
-6.642813
-8.696149
-10.84323
-13.19698
-15.54767
-18.23918
-21.1029
-24.16807
-27.455
-31.21552
-35.44837
-40.2017
-45.60959
-51.96503
-59.75009
-69.26755
-83.11651
-97.35704
53.92926
53.82644
52.8848
51.73324
50.57294
49.4643
48.17362
46.93949
45.92438
45.01985
43.95989
42.87239
41.77603
40.814
39.8752
38.90502
37.89902
36.90376
36.00852
35.07322
34.0989
33.16506
32.24472
31.2394
30.39119
29.37616
28.31981
27.36712
26.37692
25.4442
24.41257
23.40214
22.40032
21.31827
20.16125
19.10017
18.02313
16.8629
15.73301
14.55823
13.33968
12.07122
10.7729
9.431433
8.109052
6.740469
5.28477
3.757106
2.177907
0.5579312
-1.110791
-2.921381
-4.679251
-6.725191
-8.735247
-10.84425
-13.28998
-15.58565
-18.37019
-21.15431
-24.23545
-27.63709
-31.41656
-35.66489
-40.4266
-45.88267
-52.32963
-60.13975
-69.68202
-82.6803
-96.6983
-69.24035
-58.9824
-49.13953
-41.88172
-36.22961
-31.01914
-26.79602
-23.03261
-19.67807
-16.60281
-13.78448
-11.39009
-9.043478
-6.753549
-4.71127
-2.787946
-0.9855525
0.7826697
2.403818
3.980193
5.427119
6.877199
8.239512
9.508263
10.82758
12.10748
13.26067
14.43267
15.53428
16.57379
17.60927
18.71799
19.76319
20.63297
21.61035
22.52729
23.48556
24.39304
25.28527
26.15926
27.06711
27.92334
28.76519
29.58245
30.38755
31.2198
32.0242
32.78822
33.57677
34.42395
35.22743
35.99157
36.7515
37.52434
38.37524
39.18292
39.92461
40.77226
41.60613
42.41395
43.24079
44.08025
44.90645
45.89659
46.93662
47.80979
48.78504
49.74443
50.80772
51.89768
52.78704
-33.06467
-55.97144
-77.80188
-97.38574
-114.9753
-131.312
-145.2075
-155.614
-157.3187
-152.9296
-142.3153
-125.7664
-103.0128
-80.2033
-66.2023
-54.63387
-44.30423
-48.33755
-68.97663
-80.99898
-79.12279
-73.24846
-63.40147
-49.20013
-39.39758
-34.78869
-40.05373
-57.97742
-86.4852
-112.8081
-133.5567
-148.5446
-153.4522
-150.5791
-141.3448
-124.4779
-116.5597
-113.4507
-111.2773
-101.1487
-90.27094
-86.10081
-85.83706
-85.53003
-85.09561
-87.84081
-89.68992
-89.03819
-87.93584
-90.56561
-109.2517
-110.7308
-110.6155
-111.1258
-111.5739
-111.874
-112.2578
-113.0094
-114.497
-116.5808
-118.9981
-121.6288
-123.1887
-124.9637
-127.6139
-131.8275
-137.5148
-142.8277
-145.3005
-145.8204
-146.1628
-147.3017
-149.0558
-151.1888
-153.6989
-156.175
-158.5734
-160.685
-162.341
-163.797
-164.6624
-164.9775
-165.6832
-165.8595
-165.6195
-164.7209
-163.3215
-162.041
-159.3735
-156.7983
-153.7595
-150.463
-147.2932
-143.8276
-140.2272
-136.4401
-132.5029
-128.6487
-124.7806
-120.7752
-116.6065
-112.5905
-108.4953
-104.6471
-100.6449
-96.7209
-92.82202
-89.06273
-85.3991
-81.78785
-78.15972
-74.87041
-71.63423
-68.45265
-65.32233
-62.3373
-59.57618
-56.3994
-52.62286
-49.35148
-48.10327
-48.70558
-52.5363
-59.38368
-63.82056
-59.31104
-51.73246
-46.76217
-45.2264
-42.46765
-39.32127
-35.46088
-31.88812
-27.86733
-23.16542
-18.77442
-14.22513
-9.562855
-5.501202
-2.449854
-1.141797
-1.95371
-4.974181
-8.479883
-11.41679
-13.08122
-13.7411
-14.90955
-16.52167
-21.61907
-124.2322
-126.1771
-124.8953
-126.6729
-133.653
-129.5968
-123.2234
-121.5831
-120.6199
-120.3216
-120.434
-121.2375
-121.9819
-121.6596
-121.7205
-121.8427
-122.0568
-122.4434
-123.0784
-124.0951
-125.4967
-126.1869
-125.5265
-124.1536
-122.4477
-122.4434
-125.2434
-129.5521
-134.1203
-134.7049
-134.6532
-135.2792
-134.0887
-129.2903
-123.9714
-120.0118
-113.7633
-104.7716
-98.69734
-93.28623
-86.34867
-85.27444
-81.79177
-75.90568
-71.97106
-70.10284
-71.96654
-74.77882
-81.85963
-90.28296
-0.1813317
-0.04202398
-2.816902
5.077078
-42.30858
-1.331537
0.5093995
4.919705
4.006906
1.735349
-23.24557
-141.7003
-0.06497805
10.99814
0.2084676
5.803754
9.480232
1.252206
6.217026
-1.780237
-10.9955
6.329115
0.9975605
5.91992
-0.5116304
5.69676
5.936998
2.329168
4.325502
-1.116609
6.080409
-0.2152408
-19.66705
0.1150212
6.922693
2.616483
1.36745
7.73429
0.8033713
6.228674
8.18683
-0.04894949
-13.72828
-37.30979
-5.539781
-27.28976
0.1911059
-0.05391253
-0.09854662
8.672687
3.653758
-0.9070895
2.066259
-3.20924
6.422415
1.722393
3.549619
5.333606
2.219375
-0.04028437
0.5007115
6.387628
-1.24985
-22.62783
8.955779
-2.120135
-0.9883785
-2.311802
8.929104
-2.344526
-71.93661
2.813699
7.250439
3.315068
5.586949
6.163363
4.973777
5.063146
-0.1883983
6.824336
0.5494575
5.476347
-18.16143
-1.192231
-1.975184
-1.278204
9.37527
1.019736
-1.442865
1.274762
7.371533
7.938278
5.92261
2.406889
-6.23957
3.123599
6.096744
6.240478
-91.27681
-57.75746
-3.037097
-11.98883
10.9368
-4.468921
1.203044
4.932763
-22.76506
6.450234
-19.42767
5.055166
1.621656
-346.9957
0.7896596
-1.669848
-5.550358
0.242324
-1.20764
-13.7883
-11.86305
1.462939
0.313085
-6.567233
-1.233202
-0.1394419
4.199695
-8.00048
-0.07225818
1.185077
9.263989
2.477643
12.67521
8.495503
5.008155
-16.64663
0.1856264
0.8868595
3.317654
-71.46
1.216659
7.795344
5.085837
8.855176
5.337502
3.320256
0.1882688
5.141086
7.003629
-1.160915
-0.5555619
-4.461339
-76.12813
-1.53127
-1.026668
4.744762
12.36122
4.446028
-0.9844856
-12.53004
0.2928599
3.722909
-21.24876
4.91065
3.034664
0.5565654
8.192778
1.108975
-7.072786
7.094204
-0.3860375
3.767557
1.058726
-6.242308
0.7715235
4.438489
-0.739077
0.1778904
-0.3543676
-4.13362
-1.372069
-4.844602
-4.415327
5.806739
0.3096638
0.2255782
1.108788
-0.1853179
6.52241
6.195786
8.017715
0.7150372
3.430875
1.450658
5.741836
1.15817
-20.62117
0.4752482
-1.753253
-50.98658
-2.452564
0.6747899
-6.915167
1.027034
1.36299
11.29117
-0.6331395
-0.4251202
0.1659767
-4.552838
2.457578
0.581798
0.4324584
4.420082
0.3837849
6.186357
-0.2067417
1.255223
4.297129
-1.453267
3.001901
-69.24508
-1.658764
3.382613
4.314487
1.434967
21.71165
13.67428
5.475721
1.953032
1.916987
2.467201
-3.353838
3.594895
2.140377
6.328353
-6.463068
-4.63035
3.736075
6.009308
-28.50194
-0.3170334
1.165767
-4.383044
-0.4575655
0.01356634
0.6091544
-4.395545
-6.53716
3.262387
5.310006
5.958437
5.945942
-163.0581
8.951309
2.679004
0.1538923
9.865078
-2.541596
2.954721
-1.852846
2.687966
4.183706
-4.01037
1.337169
-68.60534
6.879852
4.404405
0.8599751
-168.8974
4.53744
-11.60168
-12.56368
0.8117311
-1.33127
-0.06430875
8.224674
-63.12899
6.229665
0.4862788
3.820216
1.696118
1.67476
-3.383676
-5.860225
-0.8586788
8.322926
-2.516559
3.95842
7.083399
7.680807
4.434988
-80.25451
0.4569962
-152.5532
6.300931
7.296291
-30.51348