/*--------------------------------*- C++ -*----------------------------------*\
| =========                 |                                                 |
| \\      /  F ield         | OpenFOAM: The Open Source CFD Toolbox           |
|  \\    /   O peration     | Version:  2406                                  |
|   \\  /    A nd           | Website:  www.openfoam.com                      |
|    \\/     M anipulation  |                                                 |
\*---------------------------------------------------------------------------*/
FoamFile
{
    version     2.0;
    format      ascii;
    arch        "LSB;label=32;scalar=64";
    class       surfaceScalarField;
    location    "1.94";
    object      phi;
}
// * * * * * * * * * * * * * * * * * * * * * * * * * * * * * * * * * * * * * //

dimensions      [0 3 -1 0 0 0 0];

oriented        oriented;

internalField   nonuniform List<scalar> 
326221
(
-0.002582627
-0.006471115
0.009053743
-0.001920792
-0.0006618348
0.001218917
-0.003139709
0.001469642
-0.0002507246
-0.0003628406
0.001832482
-0.001046905
0.000684064
-0.0007592653
-0.0002876393
-0.0005565894
-0.0002026759
-0.0002582142
-0.0002983752
2.195206e-06
-0.0002604094
0.0002855626
-0.0002833674
0.0003367913
-5.122873e-05
0.000118361
0.0002184304
7.019147e-05
4.816949e-05
0.0001441258
-7.393433e-05
0.0002002061
-5.608034e-05
0.0002817379
-8.153178e-05
0.0003592148
-7.747687e-05
0.0003429105
1.63043e-05
7.778169e-05
0.0002651288
-0.0004864859
0.0005642676
-0.0009805555
0.0004940696
-0.001107501
0.0001269453
-0.0009962625
-0.0001112383
-0.0007246515
-0.000271611
-0.000256515
-0.0004681366
0.0003734637
-0.0006299786
0.0008883673
-0.0005149037
0.0009302776
-4.191031e-05
0.000567057
0.0003632207
-0.0004752497
0.001042307
-0.002194464
0.001719215
-0.003511234
0.001316769
-0.003947414
0.0004361808
-0.003919105
-2.830943e-05
-0.003798163
-0.0001209417
-0.003564561
-0.0002336022
-0.003088914
-0.0004756468
-0.002617043
-0.0004718711
-0.002200202
-0.0004168414
-0.001506917
-0.0006932847
-0.001313003
-0.0001939143
-0.001238836
-7.416659e-05
-0.0008330421
-0.0004057941
-0.0002786706
-0.0005543714
0.0004293574
-0.000708028
0.00116928
-0.0007399223
0.001924252
-0.0007549725
0.002733402
-0.0008091498
0.003019578
-0.000286176
-0.001873895
0.004893473
-0.0008381433
-0.001035752
0.0006080427
-0.001446186
0.0008187454
-0.0002107027
0.0007135139
0.0001052315
0.0006970344
1.647951e-05
0.0008747949
-0.0001777605
0.001193354
-0.0003185594
0.001508092
-0.0003147375
0.001576049
-6.795746e-05
0.001400415
0.0001756345
0.001312773
8.764131e-05
0.00147499
-0.0001622167
0.001839304
-0.0003643141
0.00234737
-0.0005080663
0.002687071
-0.0003397006
0.00242571
0.0002613609
0.00166936
0.0007563503
0.001156481
0.0005128794
0.001114256
4.222472e-05
0.0011468
-3.254394e-05
0.0009646736
0.0001821261
0.0004543817
0.0005102919
-0.0002975705
0.0007519521
-0.001027185
0.0007296149
-0.001606708
0.0005795227
-0.00205357
0.0004468617
-0.002405701
0.0003521308
-0.002694691
0.00028899
-0.002939726
0.000245035
-0.003137437
0.0001977111
-0.003292469
0.0001550326
-0.003416774
0.0001243044
-0.003420955
4.181845e-06
-0.003478657
5.770187e-05
-0.003522897
4.423997e-05
-0.00358069
5.779298e-05
-0.00365437
7.367967e-05
-0.003716886
6.251652e-05
-0.003776193
5.930694e-05
-0.003797539
2.134525e-05
-0.003806402
8.863631e-06
-0.003819844
1.344128e-05
-0.00384623
2.638635e-05
-0.00390376
5.753045e-05
-0.003958984
5.52235e-05
-0.003958439
-5.444162e-07
-0.003880535
-7.790467e-05
-0.00376212
-0.0001184151
-0.003646633
-0.0001154865
-0.003539379
-0.0001072539
-0.00343684
-0.0001025396
-0.003335988
-0.0001008522
-0.003241014
-9.497323e-05
-0.003143758
-9.725595e-05
-0.003046302
-9.745628e-05
-0.002948651
-9.765094e-05
-0.002847397
-0.0001012543
-0.002731631
-0.0001157658
-0.002604361
-0.0001272699
-0.002477181
-0.0001271805
-0.002352121
-0.0001250592
-0.002211439
-0.0001406828
-0.002072202
-0.0001392366
-0.001925216
-0.0001469862
-0.001780417
-0.000144799
-0.001736366
-4.405061e-05
-0.001824958
8.859149e-05
-0.002000448
0.00017549
-0.001905901
-9.454703e-05
-0.001339485
-0.0005664156
-0.0004461807
-0.0008933045
0.0005625683
-0.001008749
0.001245612
-0.0006830436
0.0009334079
0.0003122039
-0.0001255046
0.001058913
-0.0008910291
0.0007655244
-0.0007636256
-0.0001274034
-0.0005552027
-0.000208423
-0.0009080332
0.0003528305
-0.002038254
0.00113022
-0.003195647
0.001157394
-0.003741866
0.000546219
-0.00377286
3.099373e-05
-0.00361368
-0.0001591799
-0.003415298
-0.0001983818
-0.003148475
-0.0002668237
-0.002805529
-0.0003429458
-0.002380527
-0.0004250022
-0.001833046
-0.0005474808
-0.001181671
-0.0006513748
-0.000461823
-0.000719848
0.0002302004
-0.0006920234
0.0007338739
-0.0005036734
0.001001977
-0.0002681036
0.001051814
-4.983652e-05
0.001135072
-8.325778e-05
0.001186053
-5.098099e-05
0.001762039
-0.0005759866
0.003160197
-0.001398158
0.002359845
0.0008003518
0.003515439
-0.001155594
0.004389102
-0.0008736628
0.005031847
-0.0006427448
0.005476369
-0.0004445227
0.005747237
-0.0002708672
0.005864002
-0.000116765
0.005731759
0.0001322424
0.005287827
0.0004439317
0.004402746
0.0008850812
0.002773135
0.001629611
0.0002423032
0.002530832
-0.002080926
0.002323229
-0.002803307
0.0007223811
-0.0025313
-0.0002720064
-0.00176762
-0.0007636805
-0.000402386
-0.001365234
0.0008910202
-0.001293406
0.001129722
-0.0002387023
0.0003998626
0.0007298599
-0.0007562818
0.001156144
-0.00224941
0.001493129
-0.003722126
0.001472716
-0.003810255
8.812918e-05
-0.002516547
-0.001293709
-0.0008256282
-0.001690918
0.001017524
-0.001843153
0.002744649
-0.001727125
0.004007504
-0.001262855
0.004964116
-0.0009566126
0.005622152
-0.0006580356
0.005654096
-3.194342e-05
0.004828048
0.0008260479
0.003223621
0.001604427
0.001046575
0.002177045
-0.0006340982
0.001680674
-0.00125865
0.0006245523
-0.001898627
0.0006399761
-0.002711099
0.0008124721
-0.002462856
-0.0002482432
-0.001458567
-0.001004289
-0.0007020676
-0.0007564991
-0.0003935028
-0.0003085648
-0.0002300108
-0.000163492
0.0002571312
-0.000487142
0.0007914956
-0.0005343644
0.0001179882
0.0006735074
0.001387791
-0.001269803
0.002264638
-0.0008768468
-0.005481119
0.007745757
-0.005711733
0.0002306133
-0.004941185
-0.0007705475
-0.004633465
-0.0003077197
-0.004326844
-0.0003066217
-0.004095172
-0.0002316714
-0.003883261
-0.0002119113
-0.003699205
-0.0001840559
-0.003449123
-0.0002500817
-0.003321128
-0.0001279954
-0.003211747
-0.0001093812
-0.003110758
-0.0001009891
-0.003020624
-9.013334e-05
-0.002933145
-8.747922e-05
-0.002849651
-8.349449e-05
-0.002769962
-7.968877e-05
-0.002698353
-7.16092e-05
-0.002632092
-6.626105e-05
-0.002568193
-6.389873e-05
-0.002505077
-6.311567e-05
-0.002446193
-5.888441e-05
-0.002389284
-5.690848e-05
-0.002335728
-5.355675e-05
-0.002287366
-4.836193e-05
-0.002237891
-4.947489e-05
-0.002188134
-4.975648e-05
-0.002137771
-5.036362e-05
-0.002090694
-4.707703e-05
-0.00204771
-4.298357e-05
-0.00200818
-3.953001e-05
-0.001966963
-4.121676e-05
-0.00192602
-4.09432e-05
-0.00188256
-4.345976e-05
-0.001844051
-3.850916e-05
-0.001808398
-3.565345e-05
-0.00177129
-3.710812e-05
-0.001734048
-3.724188e-05
-0.001695906
-3.814179e-05
-0.001660627
-3.527864e-05
-0.00162609
-3.453783e-05
-0.001648013
2.192372e-05
-0.001623883
-2.413059e-05
-0.001597788
-2.609464e-05
-0.001570959
-2.682919e-05
-0.001546566
-2.439284e-05
-0.001520963
-2.560302e-05
-0.001497294
-2.366886e-05
-0.001475633
-2.166126e-05
-0.001455587
-2.004565e-05
-0.001433253
-2.233371e-05
-0.001411675
-2.157894e-05
-0.00139426
-1.741457e-05
-0.001379272
-1.498751e-05
-0.001366038
-1.323419e-05
-0.00134772
-1.831792e-05
-0.001324959
-2.276135e-05
-0.001303961
-2.099793e-05
-0.001285858
-1.810273e-05
-0.001267706
-1.815223e-05
-0.001255998
-1.170823e-05
-0.001247619
-8.378937e-06
-0.001241561
-6.058404e-06
-0.001236631
-4.929523e-06
-0.001227807
-8.824079e-06
-0.001201442
-2.636533e-05
-0.001172323
-2.911886e-05
-0.001161277
-1.104619e-05
-0.001152408
-8.86855e-06
-0.001114359
-3.804887e-05
-0.0009898044
-0.0001245548
-0.0007789444
-0.00021086
-0.0004266062
-0.0003523382
0.0002987911
-0.0007253973
0.0007702982
-0.0004715071
0.001078486
-0.0003081881
0.001255108
-0.0001766215
0.001370655
-0.0001155466
0.001463795
-9.31403e-05
0.001527261
-6.346624e-05
0.001559397
-3.213616e-05
0.001579623
-2.022625e-05
0.001606236
-2.661258e-05
0.001628386
-2.21496e-05
0.001645064
-1.667876e-05
0.001653706
-8.641418e-06
0.001661036
-7.330297e-06
0.001668276
-7.240195e-06
0.001679334
-1.105769e-05
0.001689753
-1.041896e-05
0.001696977
-7.223588e-06
0.001705622
-8.645273e-06
0.001718587
-1.296475e-05
0.001731093
-1.250603e-05
0.001743755
-1.266201e-05
0.001760528
-1.677288e-05
0.001775075
-1.454701e-05
0.001795109
-2.00342e-05
0.00181946
-2.435082e-05
0.001839151
-1.969126e-05
0.001855563
-1.641201e-05
0.001874391
-1.882853e-05
0.001896232
-2.184084e-05
0.001911355
-1.512266e-05
0.001877812
3.354329e-05
0.001905786
-2.797483e-05
0.001941243
-3.545689e-05
0.001977519
-3.627565e-05
0.002014586
-3.706738e-05
0.00205466
-4.00739e-05
0.002093047
-3.838634e-05
0.002128627
-3.558054e-05
0.002167087
-3.845954e-05
0.002210583
-4.349627e-05
0.002258166
-4.758318e-05
0.002300282
-4.211591e-05
0.002340774
-4.049178e-05
0.002384584
-4.381027e-05
0.00243194
-4.735574e-05
0.002480494
-4.855421e-05
0.002534748
-5.425359e-05
0.002591451
-5.67037e-05
0.002648861
-5.740961e-05
0.002708372
-5.951145e-05
0.002764751
-5.637846e-05
0.002831603
-6.685196e-05
0.002902108
-7.050482e-05
0.002975975
-7.386775e-05
0.003055643
-7.966781e-05
0.003138223
-8.258021e-05
0.003230112
-9.188833e-05
0.003331082
-0.0001009701
0.003435386
-0.0001043041
0.003549002
-0.0001136164
0.003679124
-0.0001301221
0.003830584
-0.00015146
0.004111639
-0.0002810547
0.004328708
-0.0002170686
0.004577485
-0.0002487775
0.004857809
-0.0002803241
0.005228033
-0.0003702235
0.005582072
-0.000354039
0.006579827
-0.0009977548
0.0001087113
0.0004595928
0.0004374651
-0.001622455
0.0009991506
-0.001011065
0.001430475
-0.0007395124
0.001741204
-0.0004873503
0.001974761
-0.0003491036
0.002177824
-0.0002962032
0.002350139
-0.0002357812
0.002489273
-0.0001712702
0.00260877
-0.0001397239
0.002725661
-0.0001435035
0.002831568
-0.0001280565
0.002928374
-0.0001134844
0.003012962
-9.322939e-05
0.003091591
-8.595969e-05
0.003163731
-7.938049e-05
0.003234909
-8.223551e-05
0.003301957
-7.746717e-05
0.003364256
-6.95225e-05
0.003423783
-6.817219e-05
0.003483866
-7.304696e-05
0.003541377
-7.001732e-05
0.003596645
-6.79304e-05
0.003653695
-7.382292e-05
0.003707054
-6.790582e-05
0.00376335
-7.633039e-05
0.003821457
-8.245714e-05
0.003877456
-7.569059e-05
0.003929802
-6.875814e-05
0.003984314
-7.334063e-05
0.004039373
-7.690001e-05
0.004093193
-6.894262e-05
0.004059922
6.681451e-05
0.004125598
-9.365047e-05
0.004195221
-0.0001050802
0.004265452
-0.0001065065
0.00433641
-0.0001080256
0.004409155
-0.0001128186
0.004481836
-0.0001110677
0.004551785
-0.000105529
0.004624659
-0.0001113334
0.004699387
-0.000118225
0.004779055
-0.000127251
0.004854083
-0.000117144
0.004929575
-0.0001159835
0.005006328
-0.0001205638
0.005086494
-0.0001275212
0.005167024
-0.0001290848
0.005252371
-0.0001396
0.005340215
-0.0001445476
0.005428881
-0.0001460761
0.005520814
-0.0001514439
0.005609707
-0.0001452713
0.005707989
-0.000165134
0.00580774
-0.0001702564
0.005912465
-0.0001785922
0.006020654
-0.0001878568
0.006133264
-0.0001951908
0.006252404
-0.0002110285
0.006380543
-0.0002291091
0.006511514
-0.0002352746
0.006651734
-0.0002538368
0.006805837
-0.000284225
0.006978952
-0.0003245751
0.00734457
-0.0006466722
0.007580277
-0.0004527755
0.007853766
-0.0005222672
0.008155704
-0.0005822614
0.008555963
-0.0007704827
0.008923061
-0.0007211369
0.009972428
-0.002047122
0.009426428
0.0006547112
-0.009079593
0.008278857
0.001031349
-0.00820588
-0.00164426
-0.007901344
-0.0006122561
-0.007559188
-0.0006487779
-0.007301063
-0.0004897965
-0.007059247
-0.0004537271
-0.006850294
-0.0003930091
-0.006511756
-0.0005886196
-0.006356673
-0.0002830778
-0.006219019
-0.0002470353
-0.006088106
-0.0002319023
-0.005967227
-0.0002110127
-0.005848233
-0.0002064731
-0.0057343
-0.0001974269
-0.005622597
-0.0001913923
-0.005518889
-0.0001753173
-0.005417793
-0.0001673568
-0.005320577
-0.000161115
-0.005222902
-0.0001607904
-0.005129945
-0.0001518409
-0.005037668
-0.0001491857
-0.004948644
-0.0001425807
-0.004863043
-0.0001339634
-0.004776887
-0.0001356309
-0.004691243
-0.0001354001
-0.004604909
-0.0001366976
-0.004521785
-0.0001302008
-0.004440356
-0.0001244128
-0.004362289
-0.0001175973
-0.004281553
-0.0001219525
-0.004202849
-0.000119647
-0.004121443
-0.0001248658
-0.00404499
-0.0001149625
-0.003969931
-0.0001107126
-0.003894966
-0.0001120724
-0.003820288
-0.0001119204
-0.003746117
-0.0001123129
-0.003675101
-0.0001062941
-0.003605553
-0.0001040866
-0.003629916
4.628687e-05
-0.00357456
-7.948647e-05
-0.003518373
-8.228194e-05
-0.003460806
-8.439527e-05
-0.003405569
-7.963063e-05
-0.003347824
-8.334722e-05
-0.003291617
-7.987626e-05
-0.003235209
-7.806896e-05
-0.003179822
-7.543253e-05
-0.00312215
-8.00058e-05
-0.0030655
-7.822919e-05
-0.003011655
-7.126001e-05
-0.00295877
-6.787187e-05
-0.002906634
-6.537086e-05
-0.00285006
-7.489161e-05
-0.002791772
-8.104957e-05
-0.002736373
-7.639656e-05
-0.002686792
-6.768344e-05
-0.002639712
-6.523306e-05
-0.002599108
-5.23114e-05
-0.002556451
-5.103626e-05
-0.002507384
-5.512595e-05
-0.002447531
-6.47822e-05
-0.002374207
-8.214781e-05
-0.002278147
-0.0001224251
-0.002169652
-0.0001376139
-0.002058287
-0.000122411
-0.00192812
-0.0001390364
-0.0017522
-0.0002139687
-0.001466168
-0.0004105868
-0.001050134
-0.0006268933
-0.0009650075
0.002351528
-0.00319981
0.001648634
0.003949226
-0.002753292
0.005274121
-0.002198557
0.006167922
-0.001536546
0.006832751
-0.001109352
0.007314783
-0.0007528994
0.00763858
-0.000440562
0.007778081
-7.257867e-06
0.007760893
0.0004611189
0.007511425
0.001134549
0.006632508
0.002508529
0.004090004
0.005073335
-0.0003906964
0.00680393
-0.003819543
0.004151228
-0.004177722
8.617217e-05
-0.003078431
-0.001862972
-0.001322851
-0.003120814
0.000268981
-0.002885238
0.00081379
-0.0007835113
6.778673e-05
0.001475863
-0.00230873
0.003532661
-0.005187161
0.00437156
-0.006078433
0.002363988
-0.004809976
-0.001180328
-0.003040643
-0.003063042
-0.001105426
-0.003626135
0.001208361
-0.00415694
0.003380961
-0.003899725
0.005011429
-0.002893323
0.006276008
-0.002221191
0.007171958
-0.001553986
0.007655823
-0.0005158082
0.007619297
0.0008625738
0.006652047
0.002571677
0.00429965
0.004529442
0.0007783757
0.005201948
-0.002056394
0.003459322
-0.003286005
0.001869587
-0.003596012
0.001122479
-0.002925533
-0.0009187215
-0.00178469
-0.002145132
-0.0009518051
-0.001589384
-0.000542808
-0.000717562
-0.0001669486
-0.0005393513
0.0005184474
-0.001172538
0.001342755
-0.001358672
0.001494088
0.0005221743
0.002500403
-0.002276118
0.0008660682
0.0007574876
0.01689068
-0.00163646
-0.003208206
0.009738139
-0.001131958
-0.001540255
-0.000320066
-0.002258078
5.868375e-05
-0.0005894525
0.0003831452
-0.00021923
0.0005184978
-0.0001188731
0.0007302488
-0.0003895114
0.001094043
-0.0006823537
0.001576467
-0.0007971613
0.002012626
-0.0005041167
0.002211412
-2.315109e-05
0.002254959
4.409402e-05
0.002317976
-0.0002252336
0.002500042
-0.0005463799
0.002866752
-0.000874777
0.003355581
-0.0008285293
0.003589905
2.703715e-05
0.003223696
0.001122559
0.002629512
0.001107064
0.002000772
0.0006709648
0.0009459674
0.00102226
-0.0006228285
0.001750922
-0.002277552
0.002165016
-0.00360594
0.00208034
-0.004516051
0.001639726
-0.005095399
0.001158871
-0.005478072
0.0008295341
-0.005744457
0.0006185156
-0.005930938
0.000475471
-0.006051651
0.000365748
-0.006103575
0.0002496349
-0.006104424
0.0001558821
-0.006103155
0.0001230355
-0.006023187
-7.578621e-05
-0.006171768
0.000206283
-0.006451104
0.000323576
-0.006839254
0.0004459426
-0.007202125
0.0004365509
-0.007392925
0.0002533159
-0.007377244
4.362595e-05
-0.007201042
-0.000154856
-0.006985644
-0.0002065348
-0.00678359
-0.0001886127
-0.00658697
-0.000170233
-0.006388453
-0.0001409867
-0.006184115
-0.0001491143
-0.006001067
-0.0001835927
-0.005847525
-0.000231447
-0.005701931
-0.0002640091
-0.005554565
-0.0002628524
-0.005404073
-0.0002577457
-0.005251965
-0.0002546476
-0.005097629
-0.000255188
-0.004945112
-0.0002474907
-0.004784793
-0.000257575
-0.004617694
-0.0002645556
-0.004444635
-0.0002707094
-0.004265507
-0.0002803821
-0.004072922
-0.0003083515
-0.003870158
-0.0003300339
-0.003664161
-0.0003331765
-0.003450831
-0.0003383894
-0.003209488
-0.000382026
-0.002968464
-0.0003802608
-0.002773574
-0.0003418759
-0.002742453
-0.00017592
-0.003034018
0.0002475144
-0.003360053
0.0004146265
-0.003284023
9.945973e-05
-0.002606157
-0.0007724127
-0.001643731
-0.001528841
-0.0006048325
-0.001932203
0.0005016624
-0.002115244
0.001318593
-0.001499974
0.001173965
0.0004568312
8.941174e-05
0.002143466
-0.000852418
0.001707354
-0.001292403
0.0003125816
-0.00253937
0.001038544
-0.004271868
0.002085328
-0.005488747
0.0023471
-0.005884793
0.001553439
-0.005676676
0.0003381022
-0.005359721
-0.0002859615
-0.005049514
-0.0004693872
-0.004682157
-0.0005657384
-0.004234122
-0.0007148585
-0.003702581
-0.0008744867
-0.003078849
-0.001048734
-0.002329805
-0.001296525
-0.001487474
-0.001493705
-0.0006004212
-0.001606901
0.0002243885
-0.001516833
0.0008378018
-0.001117087
0.001181675
-0.0006119772
0.001287626
-0.0001557875
0.001455295
-0.0002509264
0.001607228
-0.0002029139
0.002217119
-0.001185878
-0.002380849
-0.0007516574
0.01923183
-0.002683386
0.001269894
-0.0002225688
-0.005600527
0.0002838235
-0.000757117
-0.001246411
0.003362717
-0.001747616
0.001185269
-0.001125185
-0.0009100698
-0.0008813556
-0.0004465056
-0.0004475729
-0.0007321579
-8.517759e-05
-0.0006228047
0.0003501486
-0.0007186935
0.0005523762
-0.0002534564
0.0003083464
0.0004624601
0.0001548582
0.0002016577
0.0001780301
-9.71062e-05
0.0002251191
-0.0001031694
0.0002935465
-0.0001499591
0.0003978249
-0.0001817553
0.0002286331
0.0001854961
-0.0005690185
0.00106278
-0.001503909
0.001499158
-0.001862324
0.0008524849
-0.001793305
5.792594e-05
-0.001591844
-0.0003126991
-0.001245764
-0.0006176914
-0.000725972
-0.0009879282
-0.0001029233
-0.001253027
0.0003199178
-0.0009377447
0.0004060852
-0.0001280777
-0.0008169887
0.001586295
-0.003333066
0.003558384
-0.005284974
0.003671122
-0.00579654
0.001828336
-0.005567854
0.0002074939
-0.005268558
-0.0003276051
-0.00497509
-0.0004144098
-0.004538594
-0.0006700978
-0.00386814
-0.001146101
-0.003226686
-0.001113325
-0.00264771
-0.0009958176
-0.001829231
-0.001511763
-0.00158049
-0.0004426552
-0.001369585
-0.0002850724
-0.0007725824
-0.001002796
-1.19422e-05
-0.001315012
0.0008533699
-0.00157334
0.001723375
-0.001609927
0.00268585
-0.001717448
0.00343028
-0.00155358
-6.410237e-05
0.001435667
-0.01175679
0.02955295
-0.002840398
0.005545958
-0.00148863
-0.006952294
-0.0009727644
-0.001272983
-0.002268036
0.004657988
-0.002288642
0.001205875
-0.001486638
-0.001712073
-0.001168979
-0.0007641652
-0.0006740056
-0.001227131
-0.0002343768
-0.001062434
0.0003009074
-0.001253978
0.0006362901
-0.0005888391
0.000425207
0.0006735432
0.0001840788
0.000442786
8.243515e-05
4.537433e-06
5.019744e-05
-7.09317e-05
6.540587e-05
-0.0001651676
6.727943e-05
-0.0001836288
-0.0004470727
0.0006998483
-0.001484904
0.002100612
-0.002168515
0.002182769
-0.002214741
0.0008987101
-0.002096057
-6.0758e-05
-0.00195329
-0.0004554661
-0.001721483
-0.000849498
-0.001458001
-0.00125141
-0.001224751
-0.001486278
-0.001307361
-0.0008551344
-0.00218791
0.0007524716
-0.004172763
0.003571147
-0.006257023
0.005642644
-0.00703032
0.004444419
-0.006830234
0.00162825
-0.006536255
-8.648521e-05
-0.006201656
-0.0006622038
-0.005810592
-0.0008054736
-0.005255447
-0.001225243
-0.004429659
-0.001971889
-0.003666676
-0.001876308
-0.00298439
-0.001678103
-0.002086735
-0.002409418
-0.001886455
-0.0006429353
-0.001610464
-0.0005610637
-0.0008188851
-0.001794375
0.0001428909
-0.002276788
0.001303067
-0.002733516
0.002441999
-0.002748859
0.003620545
-0.002895994
0.004509955
-0.002442989
0.003854716
0.0005911364
-0.001435328
0.01502818
-0.001680869
-0.001294714
-0.0008780052
-0.003060941
-0.0005661886
-0.000901269
-0.0002604952
-0.0005249234
-4.450371e-05
-0.0003348646
0.0001451806
-0.0005791957
0.0004965309
-0.001033704
0.001038287
-0.001338918
0.001633384
-0.001099214
0.002017032
-0.0004067991
0.002127349
-6.622231e-05
0.002050504
-0.0001483889
0.001902426
-0.0003983022
0.001948264
-0.0009206152
0.002384356
-0.001264621
0.002947663
-0.0005362693
0.003081451
0.0009887714
0.002340025
0.001848489
0.0004897159
0.002521274
-0.001898982
0.003410959
-0.004039552
0.003891492
-0.005545823
0.003671287
-0.006386736
0.002921252
-0.006817
0.00206999
-0.007064628
0.001406499
-0.007239851
0.001004757
-0.007371535
0.0007502005
-0.007468981
0.0005729161
-0.00754344
0.0004402079
-0.007606795
0.0003129895
-0.007703918
0.000253005
-0.007905339
0.0003244568
-0.008071152
9.002725e-05
-0.008513806
0.0006489363
-0.008974899
0.000784669
-0.009315424
0.0007864681
-0.009403804
0.0005249306
-0.009221736
7.124808e-05
-0.008910001
-0.0002681097
-0.008579639
-0.0004852174
-0.008294714
-0.0004914602
-0.008036202
-0.0004471249
-0.007777865
-0.0004285696
-0.007523136
-0.0003957158
-0.007272426
-0.0003998243
-0.007045402
-0.0004106172
-0.006846335
-0.0004305133
-0.006661652
-0.0004486925
-0.00648292
-0.0004415845
-0.006301331
-0.0004393342
-0.006118625
-0.0004373535
-0.005935917
-0.0004378959
-0.005759419
-0.0004239895
-0.005576094
-0.0004408998
-0.005386621
-0.0004540281
-0.005190733
-0.000466598
-0.004988098
-0.0004830166
-0.004769195
-0.0005272545
-0.004537892
-0.0005613367
-0.004301829
-0.0005692399
-0.004057872
-0.0005823468
-0.003779851
-0.0006600464
-0.003505933
-0.0006541792
-0.003308428
-0.0005393806
-0.003360512
-0.0001238361
-0.00380239
0.0006893927
-0.00410905
0.0007212866
-0.003799751
-0.0002098395
-0.00294753
-0.001624634
-0.002036274
-0.002440097
-0.001127503
-0.002840975
-9.826218e-05
-0.003144485
0.0007585646
-0.002356801
0.0007722337
0.000443162
-0.0001333971
0.003049097
-0.00164258
0.003216537
-0.003684005
0.002354006
-0.00601323
0.003367769
-0.007348955
0.003421054
-0.007568682
0.002566826
-0.007203679
0.001188437
-0.006854154
-1.142317e-05
-0.00654917
-0.0005909456
-0.006162637
-0.0008559201
-0.005714466
-0.001013909
-0.005166652
-0.001262673
-0.004511909
-0.00152923
-0.00373765
-0.001822994
-0.002801942
-0.002232233
-0.001751534
-0.002544114
-0.0006476145
-0.00271082
0.000374188
-0.002538636
0.001136121
-0.001879019
0.001565714
-0.001041571
0.001706076
-0.0002961495
0.001890709
-0.0004355591
0.002073974
-0.0003861795
0.002730551
-0.001842455
0.003906054
-0.003556352
0.003758518
0.00179617
0.005287374
-0.004282148
0.006784782
-0.003695966
0.007834675
-0.002586439
0.008586567
-0.001861244
0.00909854
-0.001264872
0.009416052
-0.0007580736
0.009469567
-6.077256e-05
0.009312946
0.0006177395
0.008990685
0.001456811
0.008497906
0.003001307
0.007189943
0.006381299
0.003012851
0.01098102
-0.002662593
0.009826672
-0.005250824
0.002674403
-0.004502972
-0.002610823
-0.002453363
-0.005170424
-0.0004084797
-0.004930121
6.726867e-05
-0.00125926
-0.001045971
0.002589103
-0.004280936
0.006767627
-0.007425591
0.007516214
-0.007379728
0.002318124
-0.005564981
-0.002995075
-0.003662475
-0.004965547
-0.001284822
-0.006003788
0.001483899
-0.006925661
0.004056036
-0.006471861
0.006015247
-0.004852534
0.007537808
-0.003743752
0.008637719
-0.002653896
0.00916893
-0.00104702
0.009141136
0.0008903674
0.008470444
0.00324237
0.00676534
0.006234545
0.003118101
0.008849188
-0.001461172
0.008038595
-0.003734709
0.004143124
-0.003876682
0.001264452
-0.003009258
-0.001786146
-0.001789329
-0.003365062
-0.0009747781
-0.002403935
-0.0005432303
-0.00114911
2.718318e-05
-0.001109765
0.0009244094
-0.002069764
0.001801823
-0.002236085
0.002174366
0.0001496312
0.002660017
-0.002761769
-0.001018944
0.004436449
-0.01052225
0.02639399
-0.01131696
0.001826056
-0.01043834
-0.002522879
-0.01005611
-0.0009944861
-0.009676364
-0.001028522
-0.00938913
-0.0007770303
-0.009122925
-0.0007199318
-0.008897661
-0.0006182732
-0.008505561
-0.0009807199
-0.008336082
-0.0004525564
-0.008183138
-0.0003999799
-0.008036975
-0.0003780647
-0.007901173
-0.0003468146
-0.007766685
-0.0003409619
-0.007637795
-0.0003263163
-0.007510358
-0.0003188298
-0.007391177
-0.0002944976
-0.007273546
-0.0002849876
-0.00716028
-0.0002743819
-0.007045743
-0.0002753267
-0.006936309
-0.0002612751
-0.006826866
-0.000258629
-0.006720542
-0.0002489046
-0.006617415
-0.0002370899
-0.006513575
-0.0002394712
-0.006410743
-0.0002382317
-0.006307007
-0.0002404342
-0.006206759
-0.0002304483
-0.006107404
-0.0002237682
-0.006011856
-0.0002131455
-0.005912938
-0.0002208709
-0.005817331
-0.000215254
-0.005718448
-0.0002237487
-0.005625087
-0.0002083229
-0.00553243
-0.0002033698
-0.005439835
-0.0002046676
-0.005347294
-0.0002044609
-0.005254643
-0.0002049643
-0.00516415
-0.0001967866
-0.005073189
-0.0001950478
-0.005104068
7.716579e-05
-0.005026462
-0.0001570927
-0.004951471
-0.0001572728
-0.004873914
-0.0001619522
-0.004799364
-0.000154181
-0.004721699
-0.0001610115
-0.004646428
-0.0001551478
-0.004570816
-0.0001536805
-0.004496903
-0.0001493455
-0.004420678
-0.0001562316
-0.004345754
-0.0001531533
-0.004273326
-0.0001436876
-0.004200686
-0.000140512
-0.004127963
-0.0001380934
-0.004049197
-0.0001536581
-0.003966934
-0.0001633122
-0.003883923
-0.000159408
-0.003801619
-0.0001499872
-0.003714139
-0.0001527135
-0.003627619
-0.0001388314
-0.003534768
-0.0001438864
-0.003436005
-0.0001538892
-0.00332923
-0.0001715575
-0.003213551
-0.0001978263
-0.003076013
-0.0002599636
-0.002926544
-0.0002870824
-0.002772226
-0.0002767292
-0.002588678
-0.0003225842
-0.002347014
-0.0004556326
-0.001983854
-0.0007737471
-0.001429829
-0.001180918
-0.0005483267
-0.00184651
0.0006162646
-0.002787047
0.001323674
-0.001718475
0.001815432
-0.00123127
0.002181742
-0.0008536598
0.002457236
-0.0006245979
0.002696955
-0.0005359222
0.002903034
-0.0004418604
0.00307178
-0.0003400163
0.003217901
-0.000285845
0.003364273
-0.0002898752
0.0035
-0.0002637835
0.003628091
-0.0002415757
0.003742951
-0.0002080895
0.00385235
-0.0001953578
0.003954772
-0.0001818028
0.004056923
-0.0001843869
0.004155011
-0.0001755548
0.004247684
-0.000162196
0.004337191
-0.0001576787
0.004427233
-0.000163089
0.004514266
-0.0001570499
0.004598222
-0.0001518865
0.004684413
-0.0001600139
0.004765345
-0.0001488382
0.004849099
-0.0001600842
0.004934479
-0.000167837
0.005017733
-0.0001589446
0.005096853
-0.0001478782
0.005178222
-0.0001547098
0.005258749
-0.0001574271
0.005345133
-0.000155327
0.005323038
8.890934e-05
0.005418114
-0.0001887256
0.005514509
-0.0002014753
0.005609509
-0.0002015068
0.005704437
-0.0002029533
0.005800561
-0.0002089433
0.005896581
-0.000207087
0.005989148
-0.0001980965
0.006084387
-0.0002065724
0.006180065
-0.0002139032
0.006281183
-0.0002283684
0.006377034
-0.0002129954
0.006473717
-0.0002126662
0.006570936
-0.000217783
0.006671461
-0.0002280457
0.006771549
-0.000229173
0.006876353
-0.0002444045
0.006983387
-0.0002515817
0.007090928
-0.0002536162
0.007202459
-0.000262975
0.007309768
-0.0002525811
0.007427144
-0.0002825094
0.00754473
-0.0002878429
0.0076677
-0.0003015617
0.007793745
-0.0003139016
0.007924097
-0.0003255427
0.008060726
-0.0003476574
0.008206609
-0.0003749925
0.0083551
-0.000383766
0.008513043
-0.000411779
0.008685909
-0.0004570919
0.008876208
-0.000514874
0.009295095
-0.001065559
0.009550921
-0.0007086018
0.009853866
-0.0008252121
0.01019428
-0.0009226778
0.01064504
-0.001221244
0.01112371
-0.001199804
0.0121763
-0.00309971
0.001074219
0.000666597
0.0006252517
-0.004078895
0.001532999
-0.002584877
0.002095466
-0.001793737
0.002521779
-0.001279973
0.002847729
-0.0009505476
0.003131508
-0.0008197014
0.003376464
-0.0006868162
0.003579642
-0.0005431949
0.003756626
-0.0004628287
0.003934576
-0.0004678252
0.004100612
-0.0004298192
0.004259225
-0.0004001897
0.004403554
-0.0003524176
0.004541856
-0.0003336604
0.004672634
-0.0003125802
0.00480281
-0.0003145635
0.004928873
-0.0003016175
0.00504792
-0.0002812432
0.005163568
-0.0002733268
0.005279327
-0.0002788471
0.005391496
-0.0002692191
0.00549982
-0.0002602112
0.005610866
-0.0002710591
0.005715077
-0.0002530497
0.005822582
-0.0002675891
0.005932007
-0.0002772616
0.006038065
-0.0002650033
0.006139704
-0.000249517
0.006243206
-0.0002582112
0.006345519
-0.0002597407
0.006455135
-0.0002649422
0.006435594
0.0001084496
0.00655201
-0.0003051416
0.006672193
-0.0003216578
0.006788947
-0.0003182608
0.006905367
-0.000319374
0.00702302
-0.0003265956
0.007139895
-0.0003239628
0.007252575
-0.0003107757
0.007367942
-0.0003219399
0.007483717
-0.0003296779
0.007605639
-0.0003502901
0.007721121
-0.000328478
0.00783747
-0.0003290153
0.00795462
-0.0003349324
0.008075206
-0.0003486323
0.008195189
-0.0003491556
0.008320906
-0.0003701218
0.0084489
-0.0003795755
0.008577594
-0.00038231
0.00871115
-0.000396531
0.008839047
-0.0003804779
0.0089798
-0.0004232628
0.009119839
-0.0004278819
0.009266176
-0.0004478991
0.009416644
-0.0004643698
0.00957108
-0.0004799785
0.009734025
-0.0005106025
0.009907064
-0.0005480313
0.01008309
-0.000559787
0.01027043
-0.0005991288
0.01047578
-0.0006624326
0.01092565
-0.0009647452
0.01120234
-0.001342255
0.01150477
-0.001011024
0.01186646
-0.001186908
0.01228466
-0.00134088
0.01282436
-0.001760939
0.01348779
-0.001863239
0.01449065
-0.004102564
0.014431
0.00113387
-0.01359522
0.01302706
0.002394212
-0.01277626
-0.003341839
-0.01226002
-0.001510726
-0.01181669
-0.001471847
-0.01147488
-0.001118839
-0.01116479
-0.001030021
-0.01090679
-0.0008762772
-0.01066227
-0.001225242
-0.01024864
-0.0008661809
-0.01007342
-0.0005752062
-0.009905999
-0.0005454823
-0.009750819
-0.0005019944
-0.009597002
-0.0004947785
-0.00944963
-0.0004736881
-0.009303875
-0.0004645855
-0.009167353
-0.0004310195
-0.009032766
-0.0004195741
-0.008903191
-0.0004039574
-0.008772029
-0.0004064891
-0.008646857
-0.0003864468
-0.008521796
-0.0003836899
-0.008399908
-0.000370793