/*--------------------------------*- C++ -*----------------------------------*\
| =========                 |                                                 |
| \\      /  F ield         | OpenFOAM: The Open Source CFD Toolbox           |
|  \\    /   O peration     | Version:  2406                                  |
|   \\  /    A nd           | Website:  www.openfoam.com                      |
|    \\/     M anipulation  |                                                 |
\*---------------------------------------------------------------------------*/
FoamFile
{
    version     2.0;
    format      ascii;
    arch        "LSB;label=32;scalar=64";
    class       volScalarField;
    location    "1";
    object      p;
}
// * * * * * * * * * * * * * * * * * * * * * * * * * * * * * * * * * * * * * //

dimensions      [0 2 -2 0 0 0 0];

internalField   nonuniform List<scalar> 
15536
(
-25.33018
-32.15763
-38.68726
-43.20263
-44.88973
-43.73298
-40.40608
-37.12078
-34.99988
-32.66798
-31.22159
-32.56083
-35.92375
-40.66481
-47.1716
-55.23574
-63.39183
-68.12944
-64.51654
-51.66014
-34.51859
-25.27388
-20.37955
-22.79296
-36.04022
-48.66509
-55.52598
-62.11462
-82.25085
-127.8027
-179.2905
-175.809
-110.7211
-79.21402
-102.2694
-122.6373
-129.8214
-126.1485
-123.5878
-127.443
-131.8417
-134.7296
-135.7037
-135.3194
-134.2293
-132.1694
-129.2675
-125.3835
-121.0862
-116.5199
-111.2783
-105.4756
-99.05475
-92.28381
-85.09809
-77.57456
-70.08136
-62.51563
-54.59547
-46.52053
-38.60828
-30.86377
-23.15785
-15.54965
-8.182991
-0.9494799
5.979841
12.57001
18.71499
24.42778
29.66544
34.43351
38.68688
42.34792
45.39286
47.92522
49.81816
51.13271
51.92979
52.13231
51.51657
50.30014
48.52289
46.1574
43.22916
39.76192
35.81663
31.31336
26.40354
21.14436
15.39408
9.318397
2.991374
-3.741076
-10.62536
-17.47452
-24.47942
-31.61736
-38.71384
-45.84469
-52.8508
-59.55616
-65.91106
-71.98576
-77.89403
-83.3429
-88.29985
-92.71521
-96.59193
-99.98308
-102.6244
-104.4221
-105.3899
-105.51
-104.5489
-102.0554
-97.81729
-92.1445
-88.87918
-92.2324
-90.55868
-75.24906
-48.20867
-53.20017
-117.4452
-140.6517
-103.1355
-51.64156
-22.90229
-11.64458
-2.351242
10.00645
14.01818
8.735373
-2.203125
-16.28361
-24.67948
-27.28333
-26.06251
-23.55291
-20.70052
-17.89172
-16.79491
-16.55816
-15.85306
-13.78486
-12.4055
-13.44971
-16.16486
-15.72636
-12.97048
-12.78675
-12.28062
-11.61832
-11.89423
-14.40757
-19.21482
-25.27105
-32.03565
-38.49652
-42.97015
-44.70657
-43.6073
-40.355
-37.11623
-34.99951
-32.67494
-31.2332
-32.55834
-35.90467
-40.61345
-47.12832
-55.23038
-63.36236
-68.06583
-64.51214
-51.66301
-34.51138
-25.19725
-20.35016
-22.87664
-36.13012
-48.70375
-55.45679
-61.96663
-82.06695
-127.6374
-179.2383
-175.9785
-110.6259
-79.12379
-102.356
-122.8427
-129.8245
-126.1575
-123.3113
-126.7195
-130.7347
-133.3126
-134.1407
-133.687
-132.5662
-130.4929
-127.5993
-123.7323
-119.4573
-114.9303
-109.731
-103.9793
-97.61161
-90.90016
-83.78227
-76.32818
-68.90466
-61.41396
-53.57452
-45.57559
-37.73986
-30.07284
-22.44337
-14.90907
-7.61108
-0.4488899
6.409699
12.93509
19.02037
24.67614
29.86251
34.58495
38.79783
42.42617
45.44288
47.95347
49.83116
51.13468
51.92619
52.12746
51.5166
50.31266
48.55313
46.2107
43.31136
39.87888
35.97337
31.5153
26.65763
21.45139
15.75898
9.74861
3.486486
-3.179575
-9.995559
-16.77384
-23.70894
-30.77385
-37.79781
-44.85739
-51.79399
-58.43061
-64.72066
-70.73863
-76.59423
-81.99216
-86.90672
-91.2834
-95.12917
-98.50067
-101.1307
-102.9329
-103.9197
-104.0835
-103.214
-100.9136
-96.98645
-91.68083
-88.80382
-92.25814
-90.64765
-75.36999
-48.28733
-53.13154
-117.4505
-140.6933
-103.0409
-51.51175
-22.79291
-11.62859
-2.430335
9.919311
13.99596
8.774299
-2.197834
-16.31882
-24.68999
-27.30922
-26.08473
-23.55736
-20.69308
-17.87886
-16.78783
-16.553
-15.85074
-13.78176
-12.40002
-13.46995
-16.19073
-15.72856
-12.97035
-12.77412
-12.265
-11.6222
-11.91097
-14.42072
-19.20662
-25.24951
-31.97576
-38.41873
-42.89871
-44.61961
-43.55904
-40.37102
-37.09451
-34.88432
-32.58173
-31.20173
-32.53432
-35.86206
-40.57533
-47.11538
-55.25467
-63.40483
-68.14523
-64.63449
-51.85077
-34.72205
-25.25409
-20.32463
-23.07435
-36.29838
-48.8182
-55.45336
-61.84275
-81.98138
-127.8668
-180.1829
-177.1609
-110.7505
-78.70103
-101.8509
-122.3047
-129.0109
-125.483
-122.8434
-125.9248
-129.6433
-132.2018
-133.1215
-132.6902
-131.6079
-129.5631
-126.7046
-122.856
-118.5959
-114.1019
-108.9186
-103.1968
-96.85418
-90.18224
-83.10818
-75.67144
-68.27922
-60.83545
-53.02413
-45.05813
-37.25726
-29.63288
-22.04392
-14.54108
-7.288694
-0.1578856
6.664402
13.15582
19.20851
24.83438
29.98997
34.68454
38.87234
42.48114
45.4757
47.9714
49.83773
51.13097
51.9161
52.11524
51.50963
50.31735
48.57148
46.24566
43.36682
39.95734
36.07842
31.6439
26.81664
21.6426
15.97797
10.00226
3.776353
-2.860408
-9.640206
-16.37646
-23.27842
-30.31087
-37.2931
-44.32953
-51.23302
-57.8417
-64.10555
-70.08458
-75.9157
-81.2784
-86.17131
-90.52605
-94.35188
-97.70892
-100.3169
-102.0903
-103.0466
-103.184
-102.2475
-99.89512
-96.09514
-91.15529
-88.49095
-91.54916
-89.96358
-74.88502
-47.96581
-53.01635
-118.4075
-141.5515
-103.3945
-51.56486
-22.70675
-11.61843
-2.526303
9.757745
13.98951
8.651318
-2.441607
-16.50685
-24.7831
-27.40136
-26.15842
-23.59441
-20.68193
-17.8388
-16.77142
-16.55409
-15.87971
-13.8015
-12.36356
-13.48633
-16.25711
-15.77775
-13.02224
-12.79099
-12.2728
-11.64734
-11.9508
-14.45739
-19.2273
-25.25862
-31.93403
-38.3233
-42.72414
-44.45192
-43.48823
-40.39045
-37.03112
-34.60538
-32.30787
-31.10035
-32.47844
-35.79952
-40.51252
-47.10465
-55.30861
-63.53044
-68.33096
-64.89334
-52.21133
-35.23356
-25.42869
-20.09786
-23.21724
-36.45941
-48.84375
-55.41818
-61.7636
-81.96939
-128.3217
-181.1658
-178.7746
-111.8178
-78.9109
-100.7542
-120.2215
-126.6774
-123.9765
-122.0253
-124.772
-128.0616
-130.3596
-131.0611
-130.5367
-129.4553
-127.4092
-124.6079
-120.7955
-116.5683
-112.1421
-107.0423
-101.4084
-95.14901
-88.55996
-81.5803
-74.23925
-66.93457
-59.58974
-51.89103
-44.01171
-36.29912
-28.77053
-21.27553
-13.85439
-6.691884
0.3604455
7.105074
13.53037
19.51603
25.07965
30.18003
34.82752
38.97401
42.55189
45.51258
47.98797
49.83939
51.11917
51.89624
52.09177
51.49141
50.3155
48.58848
46.28584
43.43728
40.06436
36.23056
31.83856
27.06999
21.95554
16.34865
10.44974
4.296147
-2.275371
-8.963663
-15.61358
-22.43849
-29.37924
-36.27074
-43.22119
-50.03584
-56.54804
-62.71628
-68.62161
-74.37731
-79.65407
-84.47725
-88.75596
-92.52557
-95.84844
-98.41533
-100.1586
-101.1171
-101.2998
-100.516
-98.36116
-94.8352
-90.36169
-87.77557
-89.83534
-87.82111
-73.54314
-47.7951
-53.7555
-119.918
-142.756
-104.0412
-51.7409
-22.68563
-11.54487
-2.53739
9.702068
14.21535
8.351306
-2.977887
-16.83735
-24.97524
-27.58482
-26.30031
-23.67895
-20.67745
-17.79
-16.75687
-16.55703
-15.92184
-13.83098
-12.25769
-13.47337
-16.35564
-15.87873
-13.14759
-12.84019
-12.29954
-11.70294
-12.02818
-14.53202
-19.28835
-25.31571
-31.93977
-38.28212
-42.62178
-44.37354
-43.4608
-40.41549
-36.94559
-34.27132
-31.97278
-30.9305
-32.38356
-35.71888
-40.41288
-47.13947
-55.44667
-63.79278
-68.73707
-65.39269
-52.74419
-35.99264
-25.58088
-19.50436
-23.05491
-36.40782
-48.66891
-55.30995
-61.80074
-82.14926
-128.9282
-182.1486
-180.1303
-114.2579
-80.81513
-100.3402
-117.8308
-123.9036
-122.1981
-120.9999
-123.5365
-126.5371
-128.7543
-129.5783
-129.0309
-127.9673
-125.8988
-123.1228
-119.3155
-115.0562
-110.7005
-105.5991
-100.0109
-93.7692
-87.23465
-80.32758
-73.0126
-65.76227
-58.51027
-50.88051
-43.05172
-35.40689
-27.9684
-20.55235
-13.18905
-6.113594
0.8774333
7.551495
13.91191
19.82685
25.33398
30.37938
34.97817
39.07531
42.61927
45.54312
47.9954
49.83039
51.09375
51.86048
52.04976
51.45485
50.30279
48.60083
46.32479
43.50954
40.17393
36.38755
32.037
27.33406
22.27638
16.71402
10.89814
4.81772
-1.715465
-8.324055
-14.88925
-21.65818
-28.53467
-35.34031
-42.24381
-49.00202
-55.45531
-61.57126
-67.42086
-73.15091
-78.37734
-83.18452
-87.4376
-91.19084
-94.54423
-97.07552
-98.82957
-99.78848
-99.97387
-99.09307
-96.9481
-93.58919
-89.44941
-86.84931
-87.84001
-85.34376
-72.46256
-48.91793
-56.40974
-121.3624
-143.8861
-104.8348
-52.07786
-22.78257
-11.42328
-2.350895
9.944761
14.81777
8.101356
-3.797152
-17.32072
-25.32065
-27.90328
-26.53879
-23.78913
-20.64533
-17.7242
-16.7427
-16.56913
-15.97385
-13.84733
-12.09376
-13.42556
-16.43504
-15.98757
-13.34882
-12.93964
-12.36213
-11.80176
-12.16967
-14.67718
-19.41361
-25.43944
-32.00648
-38.31912
-42.5782
-44.33082
-43.47108
-40.45928
-36.86823
-33.95397
-31.61243
-30.71626
-32.23991
-35.63008
-40.27643
-47.24661
-55.75267
-64.25525
-69.47091
-66.27639
-53.52482
-36.95869
-25.59155
-18.4262
-22.41923
-35.93976
-48.08741
-55.1196
-62.11515
-82.60379
-129.2633
-182.2991
-180.3695
-117.5145
-84.9516
-100.9467
-115.5803
-121.1532
-120.2384
-119.5729
-121.8073
-124.3796
-126.3205
-126.9371
-126.1396
-125.1097
-123.1443
-120.5065
-116.7504
-112.5256
-108.3352
-103.324
-97.87204
-91.72737
-85.28973
-78.50112
-71.27337
-64.14513
-57.03642
-49.50899
-41.77274
-34.25062
-26.92764
-19.62177
-12.34204
-5.392315
1.518353
8.090526
14.34976
20.18614
25.63655
30.61225
35.14683
39.17425
42.68668
45.56556
47.98528
49.8049
51.04722
51.80002
51.98052
51.39677
50.26922
48.60044
46.35818
43.58415
40.29569
36.56116
32.25308
27.64413
22.66529
17.1392
11.4226
5.47073
-1.006273
-7.521271
-13.95665
-20.62576
-27.416
-34.10679
-40.91014
-47.56527
-53.91301
-59.90798
-65.6574
-71.31829
-76.41807
-81.14526
-85.28828
-88.95148
-92.21912
-94.67426
-96.32554
-97.22401
-97.51577
-96.84171
-94.90034
-91.85601
-88.12935
-85.64553
-85.80924
-82.97764
-71.93022
-51.99042
-60.6213
-122.2479
-143.9842
-105.4923
-52.44712
-23.16072
-11.31148
-1.854845
10.59285
15.82541
7.997488
-4.865966
-18.01192
-25.90079
-28.42051
-26.89728
-23.88056
-20.58258
-17.6361
-16.74493
-16.59971
-16.04694
-13.84766
-11.91809
-13.34254
-16.39218
-16.04975
-13.61373
-13.10037
-12.46395
-11.96631
-12.4056
-14.9349
-19.64097
-25.67227
-32.15993
-38.42884
-42.61363
-44.39041
-43.57075
-40.55959
-36.82381
-33.65644
-31.23447
-30.42481
-32.01321
-35.50395
-40.10369
-47.43713
-56.32745
-65.00707
-70.64439
-67.71315
-54.65434
-38.13776
-25.53804
-17.33718
-21.41519
-35.01028
-47.0692
-54.96501
-62.82256
-83.01659
-127.5728
-178.6121
-176.94
-120.0184
-90.08395
-101.7725
-113.258
-118.3578
-118.1488
-117.9675
-120.0069
-122.247
-124.039
-124.7435
-123.9257
-123.0497
-120.7575
-118.1636
-114.4094
-110.1156
-106.058
-101.0369
-95.72128
-89.60353
-83.18863
-76.5503
-69.46082
-62.40447
-55.36646
-47.99581
-40.40769
-32.97433
-25.704
-18.5956
-11.39269
-4.595233
2.236588
8.66579
14.82639
20.65214
25.98424
30.85469
35.30057
39.26301
42.79803
45.57835
47.95689
49.762
50.97388
51.71072
51.88429
51.31851
50.18618
48.54773
46.34978
43.63133
40.42438
36.76008
32.47387
27.96486
23.11546
17.66892
11.99347
6.144189
-0.173701
-6.609979
-12.94962
-19.49647
-26.11786
-32.76836
-39.49177
-45.98338
-52.26498
-58.12363
-63.78152
-69.41566
-74.39499
-79.10522
-83.15631
-86.81436
-90.15532
-92.56378
-94.29433
-95.35336
-95.5635
-94.82165
-92.93849
-90.11862
-86.69788
-84.30993
-83.74714
-80.6384
-71.46562
-55.98401
-65.05354
-121.0502
-141.019
-104.0142
-52.0375
-23.87568
-11.36378
-1.188183
11.53333
16.75004
7.862729
-6.236038
-19.03942
-26.84025
-29.23205
-27.3942
-23.98031
-20.52739
-17.53538
-16.77641
-16.66876
-16.13636
-13.85079
-11.80449
-13.20388
-16.16047
-16.02815
-13.93032
-13.3362
-12.63579
-12.25113
-12.74832
-15.27644
-20.0048
-26.13874
-32.56841
-38.65522
-42.73274
-44.6278
-43.81698
-40.78098
-36.83842
-33.38941
-30.85027
-30.01119
-31.69186
-35.23958
-39.92913
-47.61347
-57.20965
-66.37551
-72.56203
-70.0061
-56.31412
-39.65855
-25.86552
-16.61635
-20.23797
-34.00885
-45.77423
-55.02914
-63.51366
-82.76184
-121.8959
-166.3081
-165.4274
-119.9828
-94.58041
-102.057
-110.7155
-115.3297
-115.6418
-115.6798
-117.4809
-119.2969
-120.7356
-121.5513
-120.1174
-119.2392
-117.3225
-114.8553
-111.3937
-106.7986
-102.9902
-98.13326
-93.03222
-86.87772
-80.55862
-74.34117
-67.44072
-60.09888
-53.27176
-46.35628
-38.951
-31.30993
-24.19003
-17.53859
-10.30067
-3.745653
3.054972
9.214807
15.48883
21.30554
26.335
31.06643
35.39414
39.35804
42.94092
45.53196
47.92387
49.69229
50.86612
51.5945
51.76882
51.18076
50.05657
48.42573
46.28097
43.6229
40.50903
37.01563
32.71671
28.28199
23.59468
18.43271
12.80263
6.7335
0.7084003
-5.400913
-11.86152
-18.33187
-24.51667
-31.02641
-38.0181
-44.06632
-50.35254
-56.03722
-61.5151
-67.14652
-71.8729
-76.62072
-80.42147
-83.94618
-87.32355
-89.56839
-91.15811
-91.89973
-92.43894
-91.91421
-90.2182
-87.73947
-84.65646
-82.50355
-81.43438
-78.20698
-70.69166
-59.57202
-68.42586
-114.6945
-130.6253
-97.53062
-49.52456
-24.60462
-11.59924
-0.6513804
12.22784
17.05567
7.225312
-7.963077
-20.5935
-28.36568
-30.50066
-28.11322
-24.19826
-20.4006
-17.3389
-16.74919
-16.78213
-16.29825
-13.85297
-11.84678
-13.08742
-15.82116
-16.02163
-14.3222
-13.68096
-12.96125
-12.73384
-13.22474
-15.57502
-20.51669
2.279492
1.551697
-49.29193
-12.76342
8.490552
-10.94615
-0.1247036
-0.9168627
5.125082
0.5179924
-3.972636
-1.414251
1.474998
0.3850812
0.4788892
0.8625646
-0.07636908
-0.510008
-0.2125217
-1.518155
-14.764
0.01487162
0.204394
0.3867525
0.01981636
-0.1651743
-3.71238
0.416433
-3.224654
0.1342135
0.3329264
-33.87094
-0.1620172
0.05519098
-0.06824413
-1.596534
-0.01006426
0.05344963
-0.02338623
-2.287097
-13.40693
2.008461
1.549964
4.376607
27.00124
0.09867903
-0.00575819
0.0438639
-0.1526266
0.653781
-0.07118561
-0.03731847
-23.94786
-0.1191996
-0.01089744
15.65299
3.345475
-0.1223859
-7.318054
-12.67633
0.4994937
-0.001871417
-16.97888
-0.01372285
-3.750701
-0.1959252
-44.38409
0.01532989
0.05452105
0.0389367
0.7058015
-0.004121636
-4.078339
-28.55378
22.17218
0.06908734
3.680732
-0.05702149
0.01914355
-0.1034568
-13.12792
-0.02145419
1.904531
-0.03749941
-3.41711
0.143853
-0.1537119
-1.786467
-19.90364
-0.01936759
-8.022118
25.60662
-0.02351972
-0.02162155
-0.1647453
-1.184585
-33.76452
6.141627
-77.39209
-0.4127439
-0.3502009
-1.62733
-0.06490456
-66.96613
0.007012102
-27.6283
-0.0005948117
0.1482414
-9.704099
-15.68208
-1.892175
2.963271
5.11498
7.22365
-32.68681
0.0006050778
-0.01350991
0.05647763
25.14421
0.2512544
2.667544
-0.08944053
0.7332034
0.009700518
0.01344512
-4.81577
1.83464
-55.4806
-1.524853
-0.1452068
-0.04119591
-0.03465348
-0.08055505
1.162067
0.04994842
-9.931363
-0.054042
1.368633
-0.2120661
-0.01700365
-56.23118
1.373751
-48.25721
1.614959
0.003717329
0.006191999
-1.95801
-31.64017
0.04867897
0.7310998
-0.1698836
-29.38865
-27.84845
0.03456537
-3.28295
-86.55554
0.1235259
-0.04563045
-0.09997752
-16.98499
-0.1144252
-10.08404
-1.068914
-3.390665
0.3733146
-4.811906
-13.92692
1.767798
-45.3159
0.01031264
-0.07932509
-18.45227
4.917781
-62.2237
-3.273897
-36.39582
0.3512043
-0.05634057
-60.76177
-0.003078294
13.50708
-1.862875
0.07387547
0.2588158
5.303347
-33.37379
0.06145971
0.1131113
-3.881946
-0.2055316
0.6162535
-0.6075087
-1.427795
0.4861517
-0.004232517
0.1970487
0.03339717
1.545117
1.763728
-22.64214
-1.93909
-0.005903926
1.871503
-10.09786
-1.128957
-0.8395082
-3.224096
0.03269005
-4.562471
-0.005035429
-0.0542428
-0.06628154
-5.030087
-2.069464
-0.05964302
-15.26494
-6.526786
-1.416474
12.51505
-0.1593983
1.153706
-0.2629193
1.494379
-0.08331569
-0.436728
-3.814537
0.06916082
7.625073
-0.03354109
14.73064
-8.314664
-61.98205
-0.6152367
0.007184247
-60.5813
0.2492995
20.15795
0.01529265
2.19131
1.544026
1.09982
-0.11334
0.007091562
-18.87035
-0.6058043
-5.549888
0.1222613
-59.88961
-0.01963399
1.820821
-20.9195
1.565177
-2.455668
-1.364564
1.987984
-16.67269
1.94144
-0.06171342
-0.2666872
-1.779751
-12.38617
-0.01203942
-0.03943834
-0.08068957
0.7241805
0.594889
0.2515059
0.04636659
-4.856164
-16.94317
-0.04604505
-0.09145887
11.48854
1.266851
-0.08048185
1.893288
-0.1285434
-42.04189
-97.88889
0.4268374
0.0723836
1.552883
0.004170319
0.6305685
0.3344238
-0.1268052
39.32619
0.7151985
0.3076902
0.02042014
-1.847793
0.01005683
0.05444109
0.08159281
-52.79753
-0.002617359
-10.55005
0.0008130255
-4.764918
1.360727
-29.64434
0.04697007
-0.0133828
-36.1814
1.198853
0.01121148
0.02324411
0.1146178
-0.1943559
-0.1008835
2.70759
-3.535849
0.05390028
-0.1319537
0.9412151
-6.753734
33.53288
-27.89664
-39.53434
-90.00811
1.061679
0.003533497
-3.175903
0.005316571
-0.004937041
-0.007248266
0.1061974
-0.006215591
0.1313983
0.7263664
19.00059
-0.004912855
-3.610673
-61.02138
0.06915779
-0.06277517
0.05371144
0.00428239
0.9764547
-0.05043257
-63.48094
5.770554
2.021106
-1.683467
-7.61776
4.954818
-7.710641
0.6401202
-5.979435
-0.002816828
-0.03230138
0.002625409
10.95433
-0.1108305
2.233877
-68.53808
-39.47489
-0.0139396
-0.186926
-0.3743552
0.05822316
0.03152602
0.00141257
1.118203
-1.250069
0.3073457
-0.4681
-0.1480263
-0.1278639
-0.5388652
-0.2723888
10.06343
-26.19351
0.1618132
0.4509923
1.638627
-0.11567
1.647392
-6.548053
-1.290763
0.03169019
-0.1492199
0.004764902
-22.28889
0.0002600794
0.03040076
-0.002688551
41.2392
1.230499
0.0131022
-0.04735327
0.3617283
2.942128
-75.92278
0.003753768
0.6177233
1.915814
-0.3127609
0.2852001
0.161145
0.7143102
-1.628964
-18.93707
0.0001550511
0.01181162
-0.1093352
-51.87592
-38.45217
-0.4047282
-4.8239
-0.1159151
-0.0946274
0.01332837
-1.076969
0.4412572
0.6746699
3.391835
-3.039319
-0.06465281
-6.171967
-1.129835
0.0406725
1.806167
0.06788746
0.6938941
-16.98566
-0.04843089
-1.282432
-16.70941
0.007337666
-8.996347
-0.07904989
-0.06379355
-0.1203147
-1.982679
0.6897204
0.02909471
-2.349563
0.06664797
-1.521412
0.01759796
0.01721988
4.483688
0.1863756
-1.216271
-0.05322287
0.004393424
-0.003436765
-0.04982254
0.7658805
-0.8404456
-91.92296
-10.63643
-17.54522
0.1014133
0.01028657
-0.005501512
3.29657
-0.1214686
-11.54752
0.6400336
-52.17665
-2.760624
0.08001145
-0.009549765
0.04770022
29.00425
0.2306107
1.188989
0.303723
-5.822948
1.522601
-0.1653663
6.335729
-0.00465278
-18.54646
-0.001505751
-50.90995
0.01179385
0.332389
-4.7426
-0.3623875
0.2388931
0.2164468
-0.2665611
0.09034514
-0.001101633
14.88161
-0.008448792
-0.6757665
0.0381995
-15.7222
-4.591102
2.663488e-05
-12.15159
-0.232661
-0.1190618
3.476225
0.0817995
2.773216
0.4817606
0.1925044
-0.01609531
-1.734165
2.150409
-0.117888
-1.121962
-1.261405
-0.05188727
-0.009943717
-15.00156
-1.77482
7.444083
0.4574971
0.5765753
0.6874677
-0.5135608
0.04519312
0.005963774
-0.1724747
-0.06437882
0.1519808
-4.616852
0.01020156
0.05184594
2.277349
0.07835662
1.823695
-0.04185176
-0.04350661
-17.53615
-7.586164
-14.91698
-0.02866076
3.114798
4.145194
2.904401
-0.02095955
-0.03678809
-0.07318469
4.576357
-0.002807942
1.666204
-1.087323
-74.42816
1.213996
3.665711
0.01316869
-0.004281219
8.498653
0.4592565
11.63093
-0.07967289
-0.799742
-19.54131
0.01264112
-2.065725
4.333877
14.61701
-14.60231
-0.02802967
-0.4824325
-0.1297299
-0.1914934
-0.02602371
-0.1239223
-0.8456272
0.8295118
26.03775
-0.02010418
-0.09267592
-0.215633
3.222189
-47.4984
-0.06986213
1.578589
0.01296255
0.7627923
0.08812782
0.03255709
2.681054
0.03489124
4.552267
4.778367e-05
-36.69156
-14.28591
-5.10175
-0.06024586
-60.40119
-0.9041922
1.776341
-33.56073
-0.4005213
-0.0010788
-0.1195065
-0.03404971
-0.1356735
-76.56101
-0.1268314
-0.06740819
-0.08894021
3.628755
-0.004952986
0.03145374
1.114339
-29.58224
-15.17444
0.1779462
-31.42871
-0.00319381
4.855881
0.05372834
-35.83488
-0.123618
7.150887
-8.356214
0.6978962
-5.360844
-7.273184
1.877898
7.281151
0.004328732
-0.5401075
-0.02072606
-0.01783693
16.86838
2.172343
0.4698724
0.06918589
-0.1027017
5.408111
-12.96597
-8.077731
-8.802652
-22.47562
-3.477767
-8.747345
-1.02272
0.9867854
-0.1324348
-0.1022521
-0.004070275
-0.08349121
-12.72042
0.0423803
1.987651
0.08047596
-51.45682
0.03907246
24.37272
2.495543
-43.90666
-0.01574199
1.302859
6.501849
-0.3388637
-37.66227
-0.08255622
-0.9990381
-30.30864
-2.453452
-2.630288
1.371688
-1.487494
0.02192072
-0.02662689
-0.9523131
-0.7318011
2.362012
-7.405405
-0.1279592
-0.08260103
-60.90896
0.06279793
-0.1200127
-1.568562
-15.40913
-0.004578741
1.215488
10.17576
14.41807
15.4773
1.39517
-0.1148482
-0.1244612
-0.003152849
0.1122501
-0.009308315
1.744314
0.4915764
-32.09194
-0.003285597
-19.87716
0.006616996
0.05418839
0.0407925
-23.15713
2.027182
-1.187288
-2.746843
0.02267564
-2.90381
-8.834017
-8.403132
4.153157
-5.30325
-0.3134211
-0.1488493
-31.68592
-0.4183964
1.785119
1.405549
2.161025
-0.1125727
-8.875754
0.5652473
-0.8473492
-22.18768
0.06945905
-0.03077126
-1.423684
-0.03136003
0.5318768
-0.1519918
0.04710987
-1.041317
0.1804941
-17.3369
-0.1119127
-0.1351723
-1.524261
-1.086714
0.04016529
0.1680097
0.07380396
2.850761
0.0368216
1.551765
-43.5742
-1.754005
0.009731974
-0.04426545
-0.09858998
0.3156393
5.506905
0.04955233
-38.95023
1.002208
-1.497771
4.068013
-0.008466348
-24.85247
-5.40899
-0.2053852
-0.0113502
-86.10283
-14.99487
-16.40528
-25.51813
-1.578045
-1.2469
-3.222114
0.1881653
14.22303
2.540986
-2.927356
-9.017574
-0.2481984
-0.3317493
-0.1901114
-3.126104
21.04922
-12.37619
-0.1236243
0.5709448
-1.771112
0.09887053
-0.02165234
-6.396322
-0.127951
-0.634709
0.964914
-0.1215775
-6.552364
7.74929
-0.8240101
-0.110927
0.01380345
0.8304257
0.6020177
0.6012901
-1.788592
29.9956
0.01929231
-0.03919918
0.4129895
0.14815
-0.01909053
0.08141294
-46.04538
0.3904352
-31.07522
-12.93551
1.127897
-0.005257811
-0.06444629
-13.0838
1.42656
-0.09789352
-0.09478986
-0.1277876
-15.35139
-68.52217
0.8986973
0.6604579
-3.543955
0.08962813
0.5862208
0.2599855
-9.842507
-0.802824
11.99503
0.2989866
0.2186287
0.7158771
0.6576357
2.189417
-2.682545
0.01130898
-1.834721
-4.447011
0.1129336
8.289883
-15.77546
0.06556534
-0.002928042
-20.49482
2.890192
0.2179989
0.3738226
-3.581448
-3.036685
0.03610701
0.7754044
-0.1639191
-0.2422846
2.477681
1.293609
-0.03363266
33.11707
0.1851091
0.175351
-0.005324364
-86.53954
-1.487119
-0.1244013
2.101395
-0.4598012
34.49462
0.9257649
0.1085724
-2.647784
0.1034066
-0.01171938
0.04905812
-0.1585399
-0.1334876
-32.19654
-9.129435
-0.1217403
-4.856232
-114.1653
-0.02162218
-0.001387561
-0.1041945
-7.362733
3.863674
32.60477
0.001054864
-0.5028015
0.89878
0.002027047
0.0008851447
5.960648
0.3096163
-0.1883128
-0.01773536
0.7020344
-0.9816909
-0.06026418
0.01022481
-12.1675
-2.231543
-37.5125
1.572443
6.256598
-0.03651176
-0.9825869
0.02779826
-2.491003
-17.65551
0.01035768
0.02177217
12.62876
-14.10232
2.77619
-0.2553458
0.1815172
-17.37458
23.13814
-1.232161
0.01946005
-6.273309
-30.60489
0.01662559
-0.02614353
-0.1633529
1.69997
1.095293
-43.2099
-7.400167
1.902811
0.0090336
0.0007211453
-0.01324574
-36.6354
-30.23188
-61.90901
1.339422
-30.7308
3.267463
1.661939
-25.78338
0.2158219
0.6335276
-19.83816
0.0009073124
-0.08197739
-0.2313845
3.967162
-0.0177889
-34.27401
-18.0084
4.1252
12.87495
1.567357
0.0007621853
-31.98345
22.75023
-43.79198
-0.008839963
0.6130476
2.478317
-0.01045812
-0.02032869
-0.4022252
-0.2239898
0.1351542
-2.435932
-42.62626
-55.84108
-0.07046731
-0.3104878
1.442638
-0.02521565
-0.8319078
1.918844
-0.1347977
-0.05959092
-0.09244091
-0.3205531
-0.04346023
-5.002268
-0.1372131
-11.03034
1.835772
1.279737
-17.64036
1.728236
0.2590979
-4.630632
-18.82453
5.15329
-0.3901892
3.005464
-19.57022
-50.87885
31.49519
46.49617
2.694338
-0.5185801
-2.466901
4.025132
1.680636
-0.00878812
12.45457
-23.09607
2.058882
0.1160005
0.6703505
1.55201
0.1650961
0.1208637
2.071475
-31.48356
-45.8768
-0.8838795
0.2586123
0.03454111
2.025892
0.4778127
5.182598
-0.09056745
-0.1433186
0.366887
-2.754592
0.01907597
0.05501716
-51.7682
-33.63631
1.710655
0.3423221
0.02452158
2.353936
-0.003401043
1.801566
-0.02131052
-12.31271
1.527161
-13.47064
-26.40654
1.389006
0.934767
-30.62138
-40.7543
-2.2308
-0.2127985
-0.08249195
-0.1903925
-3.411093
-10.59947
-0.03966437
0.1544322
0.1198346
-0.2037013
-0.1118157
0.249601
1.180751
0.04163861
-1.360947
-0.05892826
-0.0484568
-2.433401
-2.783392
-0.1072607
-0.5311419
1.895359
-1.219643
-0.05427392
2.331835
0.01453104
-0.6134983
6.444086
-0.01376413
-0.06529733
-42.48051
-29.38627
0.02907059
0.155973
-0.01482289
0.05961815
-20.04838
-6.352133
-30.44119
-22.72103
23.72844
0.04636949
3.49352
-0.06007417
-14.20499
-0.03995909
2.902921
-32.08882
-0.07102085
1.956277
-13.32138
-6.211498
2.515644
-1.651386
0.06421015
-29.67345
0.03020045
-43.50647
-0.0357488
-4.465928
37.95233
-7.328066
-3.207573
-0.1355659
0.5237706
-0.2877046
7.444254
0.5998118
7.762425
-2.779137
0.01955698
-13.39516
0.008069476
-0.3014767
-0.180309
-27.55362
-0.09184222
-38.89467
6.970163
1.962129
9.343787
0.09711531
31.90737
-0.01293336
-1.66172
0.03580519
-2.096782
16.2594
-0.6122817
-49.97124
0.0786592
-0.07913251
0.3313222
0.2831369
-2.24231
-15.21259
3.641312
-0.0377598
-44.52285
-0.2427627
22.57877
-35.45355
2.62178
-16.73507
-22.56346
-7.66885
-51.0087
40.19
3.204925
0.1028436
-28.3351
0.05075476
-0.03500266
-3.479721
1.487052
-27.0964
-58.19829
-3.752054
1.730284
3.443976
-0.8956459
-0.1334025
0.03935755
-0.675835
0.7472254
1.339613
0.04913724
-0.07609825
-0.112792
-0.03701591
-1.913954
0.01388613
-0.1833024
-0.3422802
-56.44215
-0.006064092
3.095867
-0.0919796
2.201154
-48.36842
1.749855
-0.02583542
0.1009236
-0.06863941
0.03085372
-0.00788639
-0.1788593
0.2377781
-19.23209
30.03549
0.1306645
-0.09964854
1.738508
0.3053289
0.5538685
0.622292
-0.03297659
1.213499
0.0331938
-8.72364
-0.3322314
-10.267
-2.507561
-9.572343
3.173298
0.1756878
1.005848
1.664591
-23.40755
-38.04179
-48.00064
-1.837651
-0.04647768
0.01079192
1.590868
-0.004407791
0.9254251
-34.27089
-0.6714595
0.26066
0.03768434
-13.73672
-0.09032256
-0.02387046
2.824665
-71.12911
0.03189406
-0.009735646
0.08543737
-82.6879
0.0586974
-24.98962
0.09592326
0.07329388
0.582457
0.6361641
1.018893
-23.15644
-20.44144
-0.05598412
-0.1017611
-9.144949
0.01635194
1.261217
1.540161
3.204695
-2.870366
0.0482528
-0.2524778
-85.18448
-0.08042577
-0.01086129
1.199631
1.039945
0.9697269
1.335483
0.07957647
0.3878766
-15.83967
1.725694
0.8582219
12.20427
-0.3188016
-7.174299
0.2049369
0.01736873
0.3353542
-33.02341
-1.033345
-2.535798
-0.01499121
-12.05072
5.269169
-14.85594
0.09041509
1.990805
-0.4536634
-6.241064
-0.6923096
-1.570241
16.07102
-1.315468
-5.796388
-60.73506
-0.05833461
-0.07194661
0.4878382
-0.07642243
-0.06139125
-0.06111494
-0.04071539
-0.01031786
-0.06230601
-10.53353
2.171013
0.08333871
-0.5593685
3.004821
0.6382551
0.5141017
-0.01891447
0.09299579
1.892423
-14.44256
-1.967233
0.4544879
-1.890767
0.02027623
-13.75111
-0.03530825
-5.364411
0.007182833
0.0396139
-0.005877394
-17.78845
-9.446856
3.036422
3.71421
0.01314587
9.200281
-42.37872
-24.20068
1.916015
1.029789
15.06732
0.599927
-0.1371723
0.3482007
-4.236739
0.01344324
-59.23951
-21.53628
-12.61893
15.0814
10.84491
0.02894159
-28.56604
-35.22477
-55.11608
1.668098
-7.741837
-2.501482
1.927376
-0.03467574
0.01544714
-0.09253773
0.01529374
0.02169715
0.2100316
-0.004272774
-0.09942652
-18.78418
-0.1162348
-1.360719
1.105305
-7.600845
19.58795
-0.01492293
-13.99768
-26.29597
-17.16841
12.46217
3.624641
-11.19423
-7.834523
-47.83566
0.1188645
-29.3585
1.579052
-62.43994
-29.39271
-0.02837373
-0.1033237
-11.23942
-0.1282453
14.25988
-0.1577105
-0.0210009
1.365359
0.05004811
0.0184661
-0.04400697
0.4402159
-0.8184095
-0.7735167
-23.86195
-0.01273624
0.3293633
0.06813142
-0.1083698
-0.05047297
-14.18373
-0.03913702
-52.51763
-2.190756
-0.09881526
27.62093
0.01907135
1.54473
-37.17492
-3.029466
-28.32662
-0.01256737
-0.02211574
0.1439122
0.164087
-0.6704002
0.001555197
1.505955
6.448961
-0.0460846
0.09295801
0.04759527
16.0571
3.182667
-24.49408
9.810045
-1.414473
0.09513925
-64.70563
0.1060889
0.05228685
1.70877
1.415636
-0.08006672
-42.31084
-17.40912
-26.31986
0.001419883
-0.05834018
-24.50337
-0.1164283
-30.07777
2.662933
1.97856
-23.51738
-26.27733
-0.2846256
-83.41398
1.382224
-8.272594
-0.09516811
-1.135831
10.11335
0.5205532
-1.860922
-0.3534151
0.02049403
0.5902091
18.06264
-1.919145
-5.809591
0.2404742
0.03997353
-0.03837282
-3.613403
-2.849933
0.8979996
0.0233409
-0.8407264
-0.5537855
0.01803473
-15.31865
0.09689889
-0.003184331
-3.214134
-1.609082
-0.1401875
-0.2177997
-0.5508525
-0.001622086
-1.22129
-57.46178
27.86484
-11.34055
-0.05759596
-0.06873952
-21.44224
0.05015607
-0.7757504
0.04862984
-0.638111
0.9363893
1.356134
-0.278232
-89.65326
0.7716965
20.79508
31.21124
2.260844
0.3213222
2.473297
1.558036
1.710819
0.006140796
32.15029
-23.60842
0.03359571
-2.650941
-0.1189811
-0.6825524
0.03568326
0.01585114
2.638054
1.947361
0.5497147
-16.86969
0.2377211
0.2877744
0.01109728
-13.05259
-7.403945
-0.4777167
-0.02897418
-62.32292
32.47128
-2.274813
0.9439528
-14.02373
-7.440901
-0.0848763
0.2232594
32.35142
-0.4862976
-0.002019138
-1.08234
-1.562351
-0.01479595
-11.92538
-0.2430706
0.006125201
-0.1177291
-0.1369365
19.71971
-0.06863517
-0.6850532
0.004780168
-0.01055149
-0.1182424
20.85055
2.923068
9.594296
-97.67427
-49.89975
-0.09598888
-0.03587406
-29.3332
0.01095019
-24.74902
-7.22521
-0.03929308
3.180115
-1.361994
-1.183715
-7.483691
7.567408
-0.05815173
-12.814
-0.008544963
-0.1604672
-3.546151
-42.46777
-11.66588
1.22356
2.292674
-0.001957176
0.04291333
2.100564
-0.1251934
0.8675246
1.708951
-31.65431
-2.424641
-0.1361247
0.1047905
-58.0238
0.05526913
0.5205782
-5.176293
3.550527
-1.970726
0.7895559
37.11281
0.01844606
0.1662233
-0.3498048
-0.0161245
-20.30575
-32.50803
-47.93439
11.88972
2.009345
-0.09023852
0.3239069
0.212914
-0.03627978
1.622076
-0.0648347
-0.5078177
1.411507
1.489231
-0.01626578
-1.521516
11.90891
8.850893
-0.05634825
0.04161606
0.3808295
0.4760904
0.04891768
-2.868879
2.385841
-36.05067
-18.30645
-0.08951872
0.02433423
-58.71349
41.69365
-71.7184
0.1102854
2.049599
3.597803
-0.1301491
7.513803
-15.52235
-0.01687408
3.000523
0.7677464
3.49284
0.1894601
-0.02244567
1.251045
-23.59124
-1.620587
-0.1293511
0.5323991
0.001191807
-84.99298
-37.08317
-61.88107
0.6286175
13.71312
0.03221201
0.07136994
-0.07511552
1.680821
-31.9207
-0.1280711
2.965239