/*--------------------------------*- C++ -*----------------------------------*\
| =========                 |                                                 |
| \\      /  F ield         | OpenFOAM: The Open Source CFD Toolbox           |
|  \\    /   O peration     | Version:  2406                                  |
|   \\  /    A nd           | Website:  www.openfoam.com                      |
|    \\/     M anipulation  |                                                 |
\*---------------------------------------------------------------------------*/
FoamFile
{
    version     2.0;
    format      ascii;
    arch        "LSB;label=32;scalar=64";
    class       surfaceScalarField;
    location    "1";
    object      phi;
}
// * * * * * * * * * * * * * * * * * * * * * * * * * * * * * * * * * * * * * //

dimensions      [0 3 -1 0 0 0 0];

oriented        oriented;

internalField   nonuniform List<scalar> 
23794
(
0.004615032
-0.00338611
-0.001228923
0.005620055
-0.001005023
0.006239214
-0.0006191585
0.006326303
-8.708927e-05
0.005614149
0.000712154
0.003893099
0.00172105
0.00140301
0.002490089
-0.0007366786
0.002139688
-0.001307265
0.0005705866
-0.0004021274
-0.0009051378
0.0007615785
-0.001163706
0.00174828
-0.0009867015
0.002436366
-0.0006880864
0.002433687
2.679139e-06
0.002474629
-4.094155e-05
0.003384867
-0.0009102383
0.004221251
-0.0008363835
0.004207762
1.348838e-05
0.002897884
0.001309878
0.0004174915
0.002480392
-0.002443593
0.002861084
-0.004339757
0.001896164
-0.003352471
-0.0009872852
-0.0001388392
-0.003213632
0.002342204
-0.002481043
0.003417795
-0.001075591
0.004038217
-0.0006204226
0.005493041
-0.001454824
0.008439376
-0.002946335
0.01175594
-0.003316563
0.01073929
0.001016646
0.002856699
0.007882594
-0.003640584
0.006497283
-0.001502496
-0.002138088
0.002137611
-0.003640106
0.003011215
-0.0008736038
0.00153808
0.001473134
-0.002951917
0.004489997
-0.008201066
0.005249149
-0.01169337
0.003492306
-0.01348032
0.001786943
-0.01442931
0.0009489974
-0.01500472
0.0005754041
-0.01537805
0.000373331
-0.01562368
0.0002456313
-0.01568004
5.636362e-05
-0.01565475
-2.529509e-05
-0.01559057
-6.417691e-05
-0.01548248
-0.0001080874
-0.01536094
-0.0001215447
-0.01518198
-0.0001789557
-0.01496443
-0.0002175542
-0.01468959
-0.0002748412
-0.01439271
-0.0002968824
-0.01408038
-0.00031233
-0.0137149
-0.0003654796
-0.0133315
-0.0003833994
-0.01294176
-0.0003897384
-0.01248798
-0.0004537825
-0.01201268
-0.0004752982
-0.01151337
-0.0004993066
-0.01100888
-0.0005044919
-0.01048415
-0.0005247335
-0.009910124
-0.0005740215
-0.009345309
-0.0005648152
-0.008739841
-0.0006054682
-0.008116753
-0.000623088
-0.007489492
-0.0006272604
-0.006854933
-0.0006345588
-0.006188856
-0.0006660776
-0.005522016
-0.0006668395
-0.004848218
-0.0006737982
-0.004162348
-0.0006858702
-0.003481648
-0.0006807002
-0.002820694
-0.0006609536
-0.002127016
-0.0006936782
-0.001455809
-0.0006712069
-0.0008007692
-0.0006550397
-8.207157e-05
-0.0007186976
0.0007185924
-0.000800664
0.001461489
-0.0007428969
0.002177919
-0.0007164298
0.002881246
-0.000703327
0.003565805
-0.0006845591
0.004248165
-0.0006823596
0.004909908
-0.0006617429
0.005583179
-0.000673271
0.006236262
-0.0006530833
0.006854413
-0.0006181513
0.007476522
-0.0006221089
0.008085843
-0.0006093203
0.008672288
-0.0005864457
0.009254669
-0.0005823806
0.00982223
-0.000567561
0.01033692
-0.0005146893
0.01084614
-0.0005092194
0.01133956
-0.000493424
0.01179219
-0.0004526265
0.01224463
-0.0004524382
0.0126453
-0.0004006758
0.01301847
-0.0003731641
0.01335242
-0.0003339563
0.01364315
-0.0002907297
0.01392807
-0.0002849131
0.01417523
-0.0002471598
0.01438235
-0.0002071217
0.01454625
-0.000163901
0.01466649
-0.000120239
0.01475456
-8.807557e-05
0.01477866
-2.409261e-05
0.01476297
1.568343e-05
0.01464511
0.0001178597
0.01434352
0.0003015923
0.01386309
0.000480433
0.01314968
0.0007134058
0.01198643
0.001163251
0.009786557
0.002199873
0.005766375
0.004020182
0.0003404001
0.005425975
-0.002825844
0.003166245
-0.003044568
0.000218724
-6.068176e-05
-0.002983887
0.003263387
-0.003324069
-0.0004771185
0.003740506
-0.008818793
0.008341674
-0.01178736
0.002968565
-0.009385946
-0.002401412
-0.005959333
-0.003426612
-0.003740896
-0.002218438
-0.002496069
-0.001244827
-0.0005908728
-0.001905196
0.00256229
-0.003153163
0.004425441
-0.001863151
0.002150437
0.002275004
-0.000930802
0.003081239
-0.002328458
0.001397656
-0.001979994
-0.000348464
-0.00103167
-0.0009483237
-1.689366e-05
-0.001014777
0.0003103766
-0.0003272703
0.0003714216
-6.104505e-05
0.0009916121
-0.0006201905
0.001729952
-0.0007383402
0.001893788
-0.0001638352
0.000908431
0.0009853565
-0.0003657219
0.001274153
-0.0004796146
0.0001138927
0.0007589745
-0.001238589
0.001170713
-0.0004117383
0.0001684852
0.001002228
-0.001073178
0.001241663
-0.002035572
0.0009623939
-0.001949656
-8.591638e-05
-0.0008442537
-0.001105402
0.0005815784
-0.001425832
0.002037324
-0.001455746
-0.001348785
0.005733465
-0.0041762
-0.002786188
0.007043145
-0.002314703
0.007883633
-0.001459646
0.008307683
-0.0005111392
0.008360432
0.0006594051
0.007668714
0.002412768
0.005599294
0.004559509
0.002719067
0.005019916
0.001108158
0.002181496
0.001330468
-0.001127448
0.00223088
-0.002064118
0.003108912
-0.001864733
0.003259714
-0.0008388885
0.00241093
0.000851463
0.002535427
-0.0001654387
0.004156639
-0.00253145
0.005376726
-0.002056471
0.005599719
-0.0002095049
0.004623904
0.002285693
0.002095851
0.005008446
-0.002511216
0.007468152
-0.006124083
0.005509031
-0.004400777
-0.002710592
-0.0003994495
-0.00721496
0.001988847
-0.004869339
0.002910995
-0.00199774
0.003302764
-0.001012191
0.00445407
-0.00260613
0.007406827
-0.005899091
0.01088159
-0.006791322
0.01206982
-0.000171589
0.006844951
0.01310746
-0.0005579106
0.01390014
-0.002822663
0.0001266639
-0.003195838
-0.003266931
-0.005726499
0.001657058
-0.01043059
0.006177221
-0.01645292
0.01051234
-0.02082004
0.009616263
-0.02231824
0.004990511
-0.02261337
0.002082072
-0.02265255
0.0009881729
-0.02260856
0.0005314196
-0.02252408
0.0002888504
-0.02241637
0.0001379222
-0.02220485
-0.000155163
-0.02197903
-0.0002511133
-0.02173537
-0.0003078322
-0.02144612
-0.0003973433
-0.02114452
-0.0004231368
-0.02078327
-0.0005402125
-0.02038403
-0.0006167898
-0.01992269
-0.0007361879
-0.01943811
-0.0007814558
-0.01894424
-0.0008061994
-0.01839295
-0.0009167757
-0.01781947
-0.0009568807
-0.01724401
-0.0009651932
-0.0165949
-0.001102895
-0.0159256
-0.001144595
-0.01522853
-0.001196382
-0.01452482
-0.001208198
-0.0138036
-0.001245954
-0.01302369
-0.001353928
-0.01225596
-0.001332545
-0.01144601
-0.001415425
-0.01061339
-0.001455702
-0.009779227
-0.001461426
-0.008941001
-0.001472785
-0.008064305
-0.001542774
-0.007185736
-0.001545409
-0.006301877
-0.001557657
-0.005404911
-0.001582836
-0.004516273
-0.001569338
-0.003649689
-0.001527537
-0.002749691
-0.001593677
-0.001874036
-0.001546862
-0.001013752
-0.001515323
-8.075356e-05
-0.001651696
0.0009454037
-0.001826821
0.001908658
-0.001706151
0.002841509
-0.001649281
0.003756001
-0.001617819
0.004650858
-0.001579415
0.005544597
-0.001576099
0.00641471
-0.001531856
0.007298111
-0.001556673
0.008159405
-0.001514377
0.008978588
-0.001437334
0.009804508
-0.001448029
0.01061978
-0.001424595
0.01140662
-0.001373279
0.01218927
-0.001365032
0.01296007
-0.001338366
0.01366812
-0.001222734
0.01437421
-0.001215315
0.01506275
-0.001181961
0.01570577
-0.00109565
0.01635068
-0.001097345
0.01693499
-0.0009849804
0.01749563
-0.0009338122
0.01801252
-0.0008508418
0.01848204
-0.0007602533
0.0189518
-0.0007546659
0.01938168
-0.0006770407
0.01976785
-0.0005932928
0.02011011
-0.0005061636
0.02040757
-0.0004176937
0.02067422
-0.0003547309
0.02087726
-0.0002271324
0.0210814
-0.0001884545
0.02126325
-6.399333e-05
0.021355
0.0002098421
0.02138949
0.0004459463
0.02136532
0.0007375759
0.02120793
0.001320642
0.02058565
0.002822146
0.01816008
0.006445752
0.0129483
0.01063776
0.007303151
0.008811392
0.003769249
0.003752626
0.002297576
-0.001512214
0.001648618
-0.002675112
-0.003737916
0.00912704
-0.01114682
0.01575058
-0.01172712
0.003548868
-0.008512165
-0.005616372
-0.004688935
-0.007249842
-0.002558743
-0.00434863
-0.001448382
-0.002355188
0.0002206963
-0.003574274
0.003664118
-0.006596585
0.006009674
-0.004208707
0.001948632
0.006336046
-0.002513538
0.007543409
-0.003511066
0.002395183
-0.002982944
-0.0008765854
-0.001820997
-0.002110271
-0.0001564494
-0.002679324
0.001266255
-0.001749975
0.001883438
-0.0006782277
0.002303514
-0.001040267
0.002567897
-0.001002723
0.00275618
-0.0003521185
0.002056644
0.001684893
0.0002476178
0.003083179
-0.0001998363
0.0005613468
0.00124495
-0.002683376
0.001647883
-0.000814671
2.33502e-05
0.002626761
-0.002518137
0.003783151
-0.00342227
0.001866526
-0.002515882
-0.000992304
-0.00109096
-0.002530324
0.0006236073
-0.003140399
0.002474943
-0.003307081
-0.003050043
0.006817484
-0.004970101
-0.00463357
0.008382658
-0.003879878
0.00942379
-0.002500778
0.009871563
-0.0009589124
0.009788664
0.0007423045
0.009392739
0.002808693
0.008433201
0.005519047
0.006555315
0.006897801
0.004727501
0.00400931
0.00383658
-0.0002365272
0.003791556
-0.002019094
0.004083829
-0.002157007
0.003315263
-7.032184e-05
0.002330423
0.001836302
0.003282397
-0.001117412
0.005297426
-0.004546479
0.006710864
-0.003469908
0.006921467
-0.0004201079
0.005715428
0.003491732
0.003412845
0.007311029
-0.001367471
0.01224847
-0.006041792
0.01018335
-0.004842041
-0.003910342
-0.001328433
-0.01072857
2.177946e-05
-0.006219552
0.0004443038
-0.002420264
0.0002806879
-0.0008485749
0.000951389
-0.003276831
0.004224297
-0.009171999
0.008468215
-0.01103524
0.01003289
-0.001736259
0.006550767
0.01658958
-0.001302341
0.02175325
-0.01021944
0.009043764
-0.01679418
0.003307811
-0.02061094
0.005473819
-0.02402507
0.00959135
-0.02642159
0.01290885
-0.02683292
0.0100276
-0.0265034
0.004660989
-0.02647699
0.002055661
-0.02654557
0.001056751
-0.02658582
0.0005716682
-0.02657924
0.0002822737
-0.02653612
9.480206e-05
-0.02633204
-0.0003592419
-0.02608107
-0.0005020905
-0.02580385
-0.0005850488
-0.02547228
-0.0007289106
-0.02512803
-0.000767388
-0.02470936
-0.0009588856
-0.02424647
-0.001079672
-0.02370747
-0.001275189
-0.02314041
-0.001348515
-0.02256317
-0.001383439
-0.0219141
-0.001565846
-0.02123839
-0.001632593
-0.02056186
-0.001641729
-0.01979395
-0.001870806
-0.01900198
-0.001936557
-0.01817627
-0.002022098
-0.01734223
-0.002042236
-0.01648709
-0.002101096
-0.01555916
-0.002281861
-0.01464732
-0.002244383
-0.01368198
-0.002380766
-0.01268948
-0.002448197
-0.01169418
-0.002456725
-0.01069332
-0.002473643
-0.009645249
-0.002590847
-0.008594129
-0.002596529
-0.007535077
-0.00261671
-0.006459815
-0.002658098
-0.005392297
-0.002636855
-0.004349526
-0.002570308
-0.003267736
-0.002675467
-0.002214763
-0.002599835
-0.001181754
-0.002548332
-7.052282e-05
-0.002762927
0.001144221
-0.003041565
0.002293673
-0.002855602
0.003408681
-0.00276429
0.004500952
-0.00271009
0.005570112
-0.002648575
0.006637467
-0.002643454
0.007675869
-0.002570257
0.008730046
-0.002610849
0.009756878
-0.002541209
0.01073316
-0.002413617
0.01171737
-0.002432238
0.01268772
-0.002394951
0.01362363
-0.002309185
0.01455482
-0.002296218
0.01547052
-0.002254072
0.01631017
-0.002062378
0.017148
-0.002053146
0.01796393
-0.001997897
0.01872398
-0.001855695
0.01948801
-0.001861378
0.02017703
-0.001673996
0.0208386
-0.001595384
0.02144658
-0.001458819
0.02199599
-0.001309663
0.02254745
-0.001306127
0.0230483
-0.001177896
0.02349827
-0.001043263
0.02389436
-0.0009022479
0.02423689
-0.0007602239
0.02454265
-0.0006604965
0.02477208
-0.0004565642
0.02498912
-0.0004054953
0.02514526
-0.0002201335
0.02516945
0.0001856525
0.02512114
0.0004942646
0.02504
0.0008187107
0.02494563
0.001415008
0.02500857
0.002759214
0.02512421
0.006330109
0.02395894
0.01180303
0.02089808
0.01187225
0.01733817
0.007312537
0.01174455
0.004081405
0.004006525
0.005062913
-0.004724608
0.01785817
-0.009843973
0.02086995
-0.009681959
0.003386854
-0.006324871
-0.008973459
-0.001884647
-0.01169007
0.0004237694
-0.006657047
0.001097888
-0.003029308
0.001855962
-0.004332347
0.004521945
-0.009262568
0.00577204
-0.005458801
0.0005322445
0.01157584
-0.003751575
0.01182723
-0.004398445
0.003042053
-0.004010831
-0.001264199
-0.002860066
-0.003261036
-0.001024338
-0.004515053
0.0009275553
-0.003701868
0.002023131
-0.001773803
0.002557039
-0.001574175
0.002757678
-0.001203362
0.002932904
-0.0005273446
0.002541291
0.002076505
0.001041416
0.004583054
0.0006255497
0.0009772133
0.00157778
-0.003635606
0.001256173
-0.0004930639
-0.001040093
0.004923026
-0.003839778
0.006582836
-0.00432015
0.002346898
-0.002983118
-0.002329336
-0.001333906
-0.004179537
0.0007716985
-0.005246003
0.002962237
-0.00549762
-0.005057907
0.008134164
-0.005962129
-0.006805605
0.009992673
-0.005738387
0.01124242
-0.003750528
0.01181943
-0.001535918
0.01166591
0.0008958224
0.01097392
0.003500681
0.01017336
0.006319612
0.009047622
0.008023536
0.007427217
0.005629716
0.005873263
0.001317427
0.005088079
-0.001233911
0.004790263
-0.00185919
0.003033893
0.001686048
0.002238944
0.002631251
0.00428296
-0.003161428
0.006660196
-0.006923715
0.008257985
-0.005067697
0.008472412
-0.0006345351
0.006935101
0.005029043
0.004447696
0.009798434
0.0001529083
0.01654326
-0.0049134
0.01524966
-0.00524088
-0.003582862
-0.003465584
-0.01250386
-0.003483141
-0.006201995
-0.004535912
-0.001367493
-0.005625394
0.0002409073
-0.004552697
-0.004349528
-0.0007197543
-0.01300494
0.003715571
-0.01547057
0.005107263
-0.00312795
0.002509568
0.01918728
-0.007463104
0.03172592
-0.02111657
0.02269723
-0.02921484
0.01140608
-0.0317879
0.008046877
-0.03278894
0.01059239
-0.03240147
0.01252139
-0.03167562
0.009301743
-0.03170785
0.004693217
-0.03200221
0.00235002
-0.03217247
0.001227013
-0.03223926
0.0006384618
-0.03221838
0.0002613941
-0.03214595
2.237127e-05
-0.0318686
-0.0006365934
-0.03154235
-0.0008283443
-0.03118465
-0.0009427461
-0.03076207
-0.001151489
-0.03032832
-0.001201134
-0.02980753
-0.001479683
-0.02923533
-0.001651872
-0.02857284
-0.001937676
-0.02787736
-0.002043996
-0.02717135
-0.002089448
-0.02638134
-0.002355857
-0.02555959
-0.002454343
-0.02473752
-0.002463795
-0.02380971
-0.002798623
-0.02285111
-0.00289515
-0.02185326
-0.003019957
-0.02084692
-0.003048574
-0.01981662
-0.003131392
-0.01869775
-0.00340073
-0.01760088
-0.003341249
-0.01643883
-0.003542821
-0.01524589
-0.00364114
-0.01404856
-0.003654056
-0.01284542
-0.003676779
-0.01158574
-0.003850531
-0.01032212
-0.00386015
-0.009047989
-0.003890836
-0.007754916
-0.003951171
-0.006467191
-0.00392458
-0.005208667
-0.003828833
-0.003900814
-0.003983319
-0.002626186
-0.003874463
-0.001379279
-0.003795239
-5.268925e-05
-0.004089517
0.001386257
-0.004480511
0.002760402
-0.004229748
0.004097527
-0.004101415
0.005405656
-0.004018219
0.00668563
-0.003928549
0.007963645
-0.003921469
0.009207249
-0.003813861
0.01047244
-0.003876044
0.01170265
-0.003771419
0.01287509
-0.003586051
0.01405842
-0.003615568
0.01522332
-0.003559852
0.01635009
-0.00343596
0.01747286
-0.003418987
0.01857442
-0.003355629
0.01958832
-0.003076273
0.0206009
-0.003065729
0.02158613
-0.002983131
0.02250653
-0.002776092
0.02343243
-0.002787277
0.02426915
-0.002510718
0.02507314
-0.002399368
0.02581393
-0.00219961
0.02648784
-0.001983582
0.02716397
-0.001982252
0.0277799
-0.001793827
0.02833792
-0.001601277
0.02883042
-0.001394751
0.02926225
-0.001192054
0.02965302
-0.001051271
0.02995229
-0.0007558292
0.03024037
-0.000693575
0.03045646
-0.0004362247
0.03050064
0.0001414715
0.03043967
0.0005552353
0.03028841
0.0009699711
0.03003624
0.001667175
0.02968971
0.003105745
0.02985757
0.006162253
0.03055273
0.01110787
0.03023469
0.01219029
0.02841179
0.009135437
0.02289653
0.00959666
0.01072989
0.01722956
-0.001627979
0.03021604
-0.006078594
0.02532056
-0.006003291
0.00331155
-0.002179328
-0.01279742
0.002376854
-0.01624625
0.004953835
-0.009234027
0.005080915
-0.003156388
0.004702536
-0.003953968
0.005478229
-0.01003826
0.004456309
-0.004436882
-0.001104537
0.01713669
-0.004662365
0.01538506
-0.005414538
0.003794226
-0.005197272
-0.001481465
-0.004159073
-0.004299235
-0.002334558
-0.006339568
-0.0001440414
-0.005892385
0.001134385
-0.003052229
0.001856799
-0.00229659
0.002557824
-0.001904387
0.003071435
-0.001040956
0.002767059
0.002380882
0.001635349
0.005714763
0.001199151
0.001413412
0.001130423
-0.003566879
-9.936778e-05
0.0007367268
-0.002792367
0.007616025
-0.00533961
0.00913008
-0.005239803
0.002247091
-0.003555788
-0.004013351
-0.001565852
-0.006169473
0.001016928
-0.007828783
0.003612901
-0.008093593
-0.007407135
0.009758605
-0.007196381
-0.009367829
0.0119656
-0.007945383
0.01345185
-0.005236782
0.01417707
-0.002261136
0.01404432
0.00102858
0.0130999
0.004445092
0.01187318
0.007546338
0.01062209
0.009274629
0.008992233
0.007259568
0.00708742
0.00322224
0.005968623
-0.0001151142
0.005212358
-0.001102926
0.002648793
0.004249613
0.002236928
0.003043116
0.005290182
-0.006214682
0.008153985
-0.009787518
0.01005409
-0.006967804
0.01029685
-0.0008772981
0.008366441
0.006959457
0.005365072
0.0127998
0.00159757
0.02031076
-0.003430173
0.0202774
-0.00601088
-0.001002154
-0.007255584
-0.01125916
-0.009542752
-0.003914828
-0.01194201
0.001031765
-0.01337516
0.00167406
-0.01247354
-0.005251148
-0.008908791
-0.01656969
-0.004198616
-0.02018074
-0.002534429
-0.004792137
-0.005956295
0.02260914
-0.01812406
0.04389369
-0.03201921
0.03659237
-0.03731714
0.01670402
-0.038315
0.009044735
-0.03852297
0.01080036
-0.03783063
0.01182904
-0.03745127
0.00892239
-0.03774062
0.004982562
-0.03804961
0.002659008
-0.03824997
0.001427373
-0.03836786
0.0007563566
-0.03836464
0.000258177
-0.0383148
-2.747434e-05
-0.03800736
-0.0009440334
-0.03764285
-0.001192857
-0.03723959
-0.001346007
-0.03674525
-0.001645828
-0.03625383
-0.001692552
-0.0356411
-0.002092416
-0.03497331
-0.002319655
-0.03418931
-0.002721682
-0.0333665
-0.0028668
-0.0325346
-0.002921354
-0.03159373
-0.003296725
-0.0306154
-0.003432671
-0.02964051
-0.003438688
-0.02853488
-0.00390425
-0.02738902
-0.004041008
-0.02619695
-0.004212033
-0.0249972
-0.004248317
-0.02376829
-0.004360301
-0.02242653
-0.004742497
-0.0211184
-0.004649379
-0.01972572
-0.004935496
-0.01829918
-0.005067688
-0.01686477
-0.00508846
-0.01542541
-0.005116135
-0.01391435
-0.005361596
-0.01239855
-0.005375944
-0.01086724
-0.005422148
-0.009315314
-0.0055031
-0.007764558
-0.005475337
-0.006248101
-0.005345289
-0.004665119
-0.005566302
-0.003118182
-0.0054214
-0.001609009
-0.005304413
-2.424746e-05
-0.005674278
0.001677022
-0.006181781
0.003318559
-0.005871285
0.004920243
-0.005703098
0.006482931
-0.005580906
0.008012577
-0.005458196
0.009543138
-0.00545203
0.01103238
-0.005303103
0.01255223
-0.005395897
0.01402349
-0.005242676
0.01543135
-0.004993909
0.01685471
-0.005038933
0.01824727
-0.004952411
0.01959897
-0.004787661
0.02095071
-0.004770721
0.02226764
-0.004672568
0.02348162
-0.00429025
0.02469615
-0.004280261
0.02587396
-0.004160943
0.02697084
-0.003872969
0.02808008
-0.003896512
0.02907648
-0.003507117
0.03003347
-0.003356362
0.03091338
-0.003079521
0.03170972
-0.002779916
0.03251212
-0.002784655
0.03323478
-0.002516487
0.03389284
-0.002259341
0.03446538
-0.001967285
0.03496501
-0.001691685
0.03541884
-0.001505104
0.0357483
-0.001085292
0.03607267
-0.001017943
0.03630085
-0.0006644039
0.03632713
0.0001151872
0.03621926
0.0006631123
0.0360256
0.001163627
0.03574016
0.001952612
0.03531138
0.003534533
0.03512421
0.00634942
0.03566333
0.01056875
0.03587778
0.01197584
0.03511474
0.009898472
0.03207638
0.01263503
0.0208515
0.02845443
0.007320599
0.04374694
0.001062446
0.03157871
0.001244845
0.00312915
0.004408451
-0.01596103
0.008917665
-0.02075546
0.01110615
-0.01142251
0.01064782
-0.002698058
0.00881315
-0.002119295
0.00679406
-0.008019171
0.002812411
-0.0004552325
-0.002701248
0.02265035
-0.005438024
0.01812183
-0.006661401
0.005017603
-0.00665142
-0.001491446
-0.005798827
-0.005151828
-0.004119018
-0.008019376
-0.001990417
-0.008020987
-0.0006065648
-0.004436081
0.000720171
-0.003623326
0.002449065
-0.00363328
0.003425109
-0.002017001
0.002943026
0.002862965
0.001813281
0.006844509
0.001001187
0.002225506
-0.0004883127
-0.002077379
-0.002651489
0.002899903
-0.005499358
0.01046389
-0.007121906
0.01075263
-0.006227421
0.001352605
-0.004200344
-0.006040429
-0.00177536
-0.008594456
0.001347143
-0.01095129
0.00444234
-0.01118879
-0.01016118
0.01177198
-0.008701115
-0.0124387
0.01441819
-0.01059159
0.01616572
-0.006984315
0.01703815
-0.003133564
0.0169275
0.001139232
0.01583066
0.005541927
0.01411036
0.009266636
0.01221006
0.01117493
0.01011251
0.009357123
0.00786785
0.005466899
0.006585834
0.001166901
0.005275062
0.000207847
0.002293802
0.007230872
0.002656972
0.002679947
0.006442124
-0.009999835
0.009849035
-0.01319443
0.01218641
-0.009305182
0.01252025
-0.001211131
0.01007161
0.009408091
0.006313009
0.01655841
0.002559927
0.02406384
-0.002452708
0.02529004
-0.007892203
0.004437341
-0.01316866
-0.005982701
-0.01818505
0.001101562
-0.02178317
0.004629882
-0.02365888
0.00354977
-0.02350464
-0.005405382
-0.02112052
-0.01895382
-0.01670315
-0.02459811
-0.01503843
-0.006456862
-0.02098456
0.02855528
-0.03301771
0.05592684
-0.04182576
0.04540042
-0.04358904
0.0184673
-0.04466857
0.01012427
-0.04542555
0.01155734
-0.04526792
0.01167141
-0.04526684
0.008921304
-0.04564442
0.005360146
-0.04596986
0.00298445
-0.04617433
0.001631836
-0.04628296
0.0008649908
-0.04621628
0.0001914961
-0.04612966
-0.0001140909
-0.04573708
-0.001336618
-0.04528667
-0.001643264
-0.04478241
-0.001850265
-0.04415975
-0.002268491
-0.04356967
-0.002282631
-0.04281734
-0.002844744
-0.04201034
-0.003126653
-0.04105864
-0.003673391
-0.04006048
-0.003864955
-0.03906005
-0.003921784
-0.03792167
-0.004435107
-0.03674215
-0.004612192
-0.03557451
-0.004606321
-0.03424504
-0.005233717
-0.03286253
-0.005423526
-0.03143128
-0.005643279
-0.02999137
-0.005688227
-0.02852029
-0.005831384
-0.02690315
-0.006359637
-0.02534247
-0.006210058
-0.02366865
-0.006609315
-0.02195949
-0.006776847
-0.0202412
-0.006806755
-0.01852051
-0.006836825
-0.01671072
-0.007171385
-0.01489832
-0.007188337
-0.01305842
-0.007262053
-0.0111984
-0.007363119
-0.009328086
-0.00734565
-0.007506932
-0.007166443
-0.005594185
-0.007479049
-0.003710629
-0.007304955
-0.001879262
-0.00713578
1.251927e-05
-0.00756606
0.002027024
-0.008196286
0.00399022
-0.007834481
0.00589905
-0.007611929
0.007763833
-0.007445689
0.009595413
-0.007289776
0.01143138
-0.007287999
0.0132171
-0.007088825
0.01504862
-0.007227411
0.01680851
-0.007002567
0.01850304
-0.006688443
0.02022207
-0.006757954
0.02188753
-0.006617879
0.02350962
-0.006409747
0.02514719
-0.00640829
0.02672443
-0.006249805
0.02817852
-0.005744349
0.02964075
-0.005742491
0.03105599
-0.005576173
0.03236909
-0.005186069
0.03370615
-0.005233574
0.03490489
-0.004705862
0.03605709
-0.004508562
0.03711468
-0.004137108
0.03807672
-0.003741953
0.03905188
-0.003759816
0.03992091
-0.003385522
0.04072668
-0.003065111
0.04142047
-0.002661073
0.04203497
-0.002306179
0.0425954
-0.002065541
0.04301118
-0.00150107
0.04341609
-0.001422848
0.04371363
-0.0009619463
0.04378981
3.901002e-05
0.04370348
0.0007494433
0.04350229
0.001364816
0.04318946
0.00226544
0.04271742
0.00400657
0.04234409
0.006722751
0.042395
0.01051784
0.04206888
0.01230197
0.04077195
0.0111954
0.03953142
0.01387556
0.03323897
0.03474688
0.02140704
0.05557887
0.01266848
0.04031727
0.0112834
0.004514232
0.01496533
-0.01964295
0.0183588
-0.02414893
0.01939401
-0.01245773
0.01798628
-0.001290326
0.01439801
0.00146897
0.009034779
-0.002655936
0.001784171
0.006795376
-0.003855337
0.02828985
-0.006425207
0.0206917
-0.008280201
0.006872597
-0.00845523
-0.001316417
-0.007729849
-0.005877209
-0.006205079
-0.009544146
-0.004250417
-0.009975649
-0.002440573
-0.006245926
5.71755e-05
-0.006121074
0.002444657
-0.006020762
0.003694276
-0.00326662
0.002923703
0.003633538
0.001509211
0.008259
-0.0004483762
0.004183093
-0.003642745
0.00111699
-0.006870241
0.006127399
-0.009106203
0.01269986
-0.009077436
0.01072386
-0.007305553
-0.0004192767
-0.00494064
-0.008405342
-0.001968633
-0.01156646
0.001762834
-0.01468275
0.005439071
-0.01486503
-0.01342322
0.01425113
-0.01051899
-0.01617083
0.0174142
-0.01375465
0.01944134
-0.009011456
0.02048018
-0.00417241
0.0203672
0.001252216
0.01912572
0.006783408
0.01697736
0.011415
0.01428121
0.01387107
0.01135643
0.0122819
0.008586017
0.008237315
0.007018479
0.002734439
0.004803375
0.002422951
0.001993639
0.01004061
0.003716127
0.0009574593
0.007970339
-0.01425405
0.01192926
-0.01715335
0.01484166
-0.01221758
0.01536753
-0.001737005
0.01222529
0.01255034
0.007416111
0.02136758
0.002663437
0.02881651
-0.003208692
0.03116217
-0.01192208
0.01315073
-0.0215336
0.003628816
-0.02904592
0.008613882
-0.03353293
0.009116893
-0.03608766
0.006104502
-0.03732396
-0.004169081
-0.03749667
-0.01878112
-0.03631143
-0.02578334
-0.03754208
-0.005226212
-0.04347085
0.03448404
-0.04991099
0.06236699
-0.05114675
0.04663617
-0.05124909
0.01856965
-0.05324796
0.01212313
-0.05426209
0.01257147
-0.05427858
0.01168791
-0.05428683
0.00892955
-0.05463902
0.005712332
-0.05497275
0.003318187
-0.05520383
0.00186291
-0.05538443
0.001045596
-0.05529658
0.0001036387
-0.05527339
-0.0001372752
-0.05475397
-0.00185604
-0.05423978
-0.002157456
-0.05365431
-0.002435733
-0.052889
-0.003033806
-0.05222042
-0.002951207
-0.05130472
-0.003760444
-0.05035678
-0.004074591
-0.04921673
-0.004813443
-0.04801356
-0.005068122
-0.04682759
-0.005107755
-0.04546819
-0.005794511
-0.04405334
-0.006027045
-0.0426525
-0.00600716
-0.04106928
-0.006816934
-0.03941418
-0.007078629
-0.03770095
-0.007356508
-0.03595671
-0.00743246
-0.03422144
-0.007566662
-0.03226295
-0.008318119
-0.03040744
-0.008065569
-0.02838797
-0.008628787
-0.02634398
-0.00882084
-0.02429168
-0.008859051
-0.02220416
-0.008924341
-0.0200562
-0.009319347
-0.0178982
-0.009346341
-0.01569419
-0.009466064
-0.01348474
-0.009572567
-0.0111972
-0.009633185
-0.009036604
-0.009327043
-0.006727522
-0.009788131
-0.004427345
-0.009605132
-0.002203402
-0.009359723
6.047845e-05
-0.00982994
0.002448717
-0.01058452
0.00479759
-0.01018335
0.00704975
-0.009864089
0.009288486
-0.009684425
0.01149654
-0.009497831
0.01369342
-0.009484875
0.0158333
-0.009228704
0.01805677
-0.009450887
0.02016768
-0.009113479
0.02219633
-0.008717092
0.02426124
-0.008822863
0.02627354
-0.008630178
0.0282231
-0.008359305
0.03017756
-0.008362752
0.03207224
-0.00814448
0.03380886
-0.00748097
0.03555995
-0.007493589
0.03723605
-0.007252273
0.03882379
-0.006773806
0.04042875
-0.006838536
0.04185565
-0.00613276
0.04324852
-0.005901428
0.0444985
-0.005387097
0.04565012
-0.004893568
0.04682409
-0.004933788
0.04784458
-0.004406012
0.0488198
-0.00404033
0.04962769
-0.00346896
0.05036259
-0.003041085
0.05103834
-0.002741288
0.05150848
-0.001971211
0.05199685
-0.001911219
0.05235712
-0.001322218
0.0524006
-4.47369e-06
0.05227456
0.0008754871
0.05202414
0.001615239
0.05167543
0.002614144
0.05118433
0.004497673
0.05083821
0.007068869
0.05076438
0.01059167
0.05024333
0.01282302
0.04826119
0.01317753
0.04705321
0.01508354
0.04637709
0.03542301
0.04082692
0.06112904
0.0329065
0.04823769
0.02947495
0.007945782
0.03020676
-0.02037477
0.03085875
-0.02480092
0.02970944
-0.01130841
0.02690993
0.001509176
0.02157442
0.006804481
0.01278744
0.006131051
0.002502434
0.01708038
-0.004238781
0.03503107
-0.007888419
0.02434134
-0.01043508
0.009419262
-0.01074124
-0.001010258
-0.009920781
-0.006697671
-0.008232999
-0.01123193
-0.005929184
-0.01227946
-0.003383816
-0.008791294
-0.0002289121
-0.009275977
0.0021979
-0.008447574
0.003648344
-0.004717064
0.002595826
0.004686057
0.0005447439
0.01031008
-0.003224046
0.007951883
-0.00830789
0.006200834
-0.0119563
0.00977581
-0.01293377
0.01367732
-0.01109368
0.00888377
-0.008586378
-0.002926576
-0.005791252
-0.01120047
-0.002177961
-0.01517975
0.002250906
-0.01911162
0.006615191
-0.01922931
-0.01732702
0.01727769
-0.0127176
-0.02073093
0.02095386
-0.01743082
0.02329577
-0.01135337
0.0245995
-0.005476141
0.02445485
0.001396868
0.02305964
0.008178615
0.02046605
0.01400858
0.01703662
0.01730051
0.01313485
0.01618367
0.009646573
0.01172559
0.007114112
0.005266899
0.003198178
0.006338886
0.001473898
0.01176489
0.005250427
-0.00281907
0.009970829
-0.01897445
0.01444497
-0.02162749
0.017866
-0.01563861
0.0186759
-0.002546907
0.014667
0.01655924
0.008877614
0.02715697
0.002705801
0.03498833
-0.005251358
0.03911932
-0.01825716
0.02615653
-0.03200565
0.0173773
-0.04099908
0.01760732
-0.04576003
0.01387784
-0.04924655
0.009591017
-0.05221479
-0.001200836
-0.05574466
-0.01525125
-0.05938958
-0.02213841
-0.06455889
-5.690244e-05
-0.06775945
0.0376846
-0.06586673
0.06047427
-0.06141419
0.04218363
-0.06175148
0.01890693
-0.06413874
0.01451039
-0.06512376
0.01355649
-0.06530284
0.01186699
-0.06536132
0.008988029
-0.06577585
0.006126867
-0.06613392
0.003676253
-0.06629411
0.002023099
-0.06657239
0.001323881
-0.06632984
-0.0001389103
-0.06626911
-0.0001980042
-0.06571775
-0.002407398
-0.06506052
-0.002814689
-0.06442244
-0.003073812
-0.06340894
-0.004047312
-0.06265521
-0.003704938
-0.06154094
-0.004874707
-0.06043315
-0.005182386
-0.05904332
-0.006203267
-0.0575676
-0.006543847
-0.05617006
-0.006505289
-0.05457201
-0.007392562
-0.05280739
-0.00779167
-0.05113522
-0.007679327
-0.0492652
-0.008686954
-0.0473002
-0.009043632
-0.04520528
-0.009451427
-0.0430926
-0.009545135
-0.0411118
-0.00954746
-0.03867381
-0.01075611
-0.03650219
-0.0102372
-0.03400367
-0.0111273
-0.03161708
-0.01120743
-0.02915412
-0.01132201
-0.02661241
-0.01146604
-0.02408735
-0.01184441
-0.02147809
-0.0119556
-0.01883217
-0.01211199
-0.01624077
-0.01216396
-0.01344044
-0.01243352
-0.01092855
-0.01183893
-0.008096516
-0.01262017
-0.005308481
-0.01239317
-0.002609056
-0.01205915
0.0001366407
-0.01257564
0.002997607
-0.01344549
0.005716429
-0.01290218
0.008380692
-0.01252835
0.01110454
-0.01240827
0.01378644
-0.01217973
0.01642849
-0.01212693
0.01896691
-0.01176712
0.02170486
-0.01218884
0.02421792
-0.01162654
0.02665832
-0.01115749
0.02912153