/*--------------------------------*- C++ -*----------------------------------*\
| =========                 |                                                 |
| \\      /  F ield         | OpenFOAM: The Open Source CFD Toolbox           |
|  \\    /   O peration     | Version:  2406                                  |
|   \\  /    A nd           | Website:  www.openfoam.com                      |
|    \\/     M anipulation  |                                                 |
\*---------------------------------------------------------------------------*/
FoamFile
{
    version     2.0;
    format      ascii;
    arch        "LSB;label=32;scalar=64";
    class       volVectorField;
    location    "1";
    object      U;
}
// * * * * * * * * * * * * * * * * * * * * * * * * * * * * * * * * * * * * * //

dimensions      [0 1 -1 0 0 0 0];

internalField   nonuniform List<vector> 
15536
(
(-0.08028465 4.106802 -2.156057e-22)
(-0.2780053 5.273259 -5.073112e-19)
(-0.5360721 6.120706 -1.206344e-18)
(-0.8120163 6.571708 -1.335567e-18)
(-0.9740097 6.323427 -2.158161e-20)
(-0.9318777 5.141328 1.45962e-20)
(-0.5930433 2.908169 1.979199e-20)
(0.04435567 0.05987151 -2.038411e-20)
(0.5245763 -1.552897 4.810997e-18)
(0.2924752 -0.8931076 4.496017e-18)
(-0.1519394 0.1768067 0)
(-0.6061253 1.107105 0)
(-1.165959 2.044052 -4.02889e-20)
(-1.389075 2.300857 1.098101e-17)
(-1.225886 1.900936 6.266178e-18)
(-1.640598 2.295497 -1.459343e-17)
(-2.365202 3.066813 8.272889e-18)
(-2.839739 3.449999 6.718689e-20)
(-2.567386 3.002172 -1.259265e-19)
(-1.364288 1.628426 6.019666e-20)
(0.7245923 -0.4746591 0)
(3.20207 -2.601384 3.273845e-18)
(3.711859 -2.905813 0)
(1.451464 -1.182511 3.021907e-18)
(-1.143485 0.6369597 -3.080267e-20)
(-2.658339 1.596541 -5.349596e-20)
(-3.481786 1.975982 5.306918e-20)
(-4.400788 2.257062 -7.857524e-18)
(-6.372919 2.907252 -9.911101e-18)
(-9.20698 3.813561 0)
(-11.5382 4.531919 -7.884635e-20)
(-8.291823 3.324096 -9.947482e-18)
(1.080084 0.04850816 6.751266e-18)
(5.089072 -1.453343 0)
(-0.9078271 -0.1347479 -6.717369e-18)
(-2.981463 0.328448 -3.296593e-20)
(-3.148009 0.2715406 4.375305e-18)
(-0.5114981 0.0199938 -2.047648e-18)
(6.282347 0.1224873 1.856904e-21)
(10.90313 0.5842765 -4.547908e-19)
(13.26501 1.164651 1.824453e-18)
(14.41954 1.812899 -2.878887e-20)
(15.03386 2.508658 2.851263e-20)
(15.3548 3.201123 0)
(15.48846 3.878766 -7.089914e-18)
(15.46863 4.528815 -7.006667e-18)
(15.29481 5.141434 0)
(15.03895 5.724176 -1.326905e-17)
(14.71621 6.277091 1.290153e-17)
(14.35195 6.803339 1.243332e-17)
(13.93513 7.288121 4.524994e-20)
(13.45983 7.727427 -1.128151e-17)
(12.93404 8.116162 0)
(12.36676 8.456324 0)
(11.76739 8.744407 9.180374e-18)
(11.13369 8.972258 8.457583e-18)
(10.48458 9.151529 5.683476e-20)
(9.82633 9.280387 6.783668e-18)
(9.145264 9.339584 1.205715e-17)
(8.454598 9.337998 5.209218e-18)
(7.762565 9.278898 4.333139e-18)
(7.082788 9.171817 -3.091432e-20)
(6.411799 9.006591 0)
(5.747139 8.776396 1.800913e-18)
(5.102786 8.498345 0)
(4.474266 8.158523 -8.528094e-20)
(3.870282 7.763324 -2.762894e-20)
(3.301531 7.323582 -3.004745e-21)
(2.767407 6.836998 7.44792e-21)
(2.272099 6.307467 -3.023549e-18)
(1.821485 5.743706 -1.567155e-20)
(1.416291 5.14342 2.194834e-18)
(1.058197 4.509165 2.481235e-18)
(0.7526509 3.857497 0)
(0.4990965 3.192867 0)
(0.3002196 2.51349 3.166637e-18)
(0.153507 1.831763 -4.088683e-22)
(0.06173734 1.162959 8.797229e-19)
(0.02645963 0.4688452 1.640433e-21)
(0.04371689 -0.3168123 -7.018612e-21)
(0.1088117 -1.110787 -1.747966e-18)
(0.2316717 -1.854727 0)
(0.4103051 -2.565487 3.214001e-18)
(0.6417896 -3.251537 0)
(0.9248542 -3.911597 -2.785565e-18)
(1.257037 -4.542494 2.505413e-18)
(1.637854 -5.143247 1.868606e-20)
(2.063898 -5.712404 3.912999e-18)
(2.531708 -6.239649 1.145061e-20)
(3.037289 -6.722831 -2.61369e-18)
(3.578104 -7.164307 -1.892771e-18)
(4.151477 -7.558089 1.153181e-20)
(4.755284 -7.905962 -3.53822e-19)
(5.381764 -8.202304 -4.385424e-19)
(6.023331 -8.444665 1.272445e-20)
(6.67032 -8.62018 6.223522e-21)
(7.327733 -8.742593 -2.805736e-18)
(7.991243 -8.811937 0)
(8.652449 -8.820781 8.637879e-18)
(9.313638 -8.779629 5.020692e-18)
(9.95547 -8.674798 9.596722e-20)
(10.57423 -8.508827 -6.569435e-18)
(11.16566 -8.284703 0)
(11.72843 -8.006597 0)
(12.26181 -7.68225 0)
(12.75682 -7.310074 0)
(13.20328 -6.891449 9.521586e-18)
(13.59763 -6.430241 1.005906e-17)
(13.93981 -5.931128 3.016797e-20)
(14.22422 -5.401702 -1.079304e-17)
(14.43134 -4.839372 -5.498245e-18)
(14.53485 -4.244629 -5.659626e-18)
(14.49122 -3.616169 4.420624e-20)
(14.26709 -2.959995 5.716069e-18)
(13.81763 -2.289896 2.918347e-18)
(13.03459 -1.633499 -2.2451e-20)
(11.57964 -1.028095 -5.260875e-21)
(8.738338 -0.4865506 3.45847e-19)
(3.382083 -0.09090604 -6.988961e-19)
(-2.9405 -0.1239225 -1.778829e-20)
(-3.362498 -0.2912544 1.195122e-20)
(-2.55365 -0.09828868 2.491953e-18)
(2.725604 0.8642594 1.591795e-20)
(3.877453 0.8094888 0)
(-5.687582 -2.189642 -6.881305e-18)
(-11.3319 -4.065325 -8.029977e-18)
(-9.926016 -3.715114 4.864122e-21)
(-7.137518 -2.896843 6.112128e-18)
(-4.575153 -2.063741 -2.876258e-18)
(-3.005092 -1.493987 0)
(-1.605483 -0.7949026 0)
(0.6333999 0.5440312 1.320401e-18)
(3.630894 2.484042 0)
(3.530361 2.412299 -3.286002e-21)
(0.09406337 -0.1464841 -2.88604e-19)
(-1.633488 -1.561065 -2.183201e-18)
(-1.66062 -1.577404 2.722357e-20)
(-1.094086 -1.085238 -7.391523e-18)
(-0.2840958 -0.3044167 -5.554399e-20)
(0.2679952 0.2759719 6.633083e-18)
(0.1706537 0.2217932 2.892163e-18)
(0.3099265 0.5293147 2.472759e-18)
(0.6948443 1.145497 2.277216e-18)
(1.049335 1.733628 0)
(0.8986057 1.485713 -8.007733e-21)
(0.1884713 0.2532069 -1.883164e-18)
(-0.3907335 -0.8780914 0)
(-0.05119783 0.005493339 1.860903e-18)
(0.438184 1.260142 -1.654602e-20)
(0.3437286 0.9169667 8.545828e-21)
(-0.08726012 -0.4820278 8.934537e-19)
(-0.3486636 -1.85654 3.894093e-22)
(-0.3918959 -2.3696 0)
(-0.229701 -1.449342 3.903486e-19)
(-0.07405192 -0.1265575 3.141381e-21)
(0.0230925 1.330031 1.110403e-21)
(0.02577432 2.769021 -1.111619e-21)
(-0.2553793 4.229236 -1.681623e-19)
(-0.4898287 5.455129 4.139861e-19)
(-0.7821556 6.393506 0)
(-1.077333 6.888641 1.098037e-18)
(-1.321695 7.104459 0)
(-1.445581 6.983329 4.373306e-18)
(-1.303034 5.977476 1.511166e-20)
(-0.760942 3.453701 -1.5579e-20)
(-0.2627386 1.025899 -3.87005e-18)
(-0.463894 0.831781 -3.687909e-18)
(-0.741683 1.285009 0)
(-1.109879 1.96179 2.925177e-20)
(-1.538949 2.670208 3.462161e-21)
(-1.288689 2.186763 -4.510529e-18)
(-0.8613305 1.280404 -1.059931e-17)
(-1.724699 2.159119 5.902284e-18)
(-2.612517 3.165425 -6.590266e-18)
(-3.099911 3.62323 -5.47672e-20)
(-3.004585 3.461478 0)
(-2.219957 2.642032 0)
(-0.1838303 0.7102411 0)
(3.916588 -3.021375 2.59233e-18)
(4.152475 -3.533785 1.773677e-20)
(1.206131 -1.454995 -1.739178e-20)
(-0.8984418 0.186371 3.569242e-20)
(-1.976651 1.026954 -3.618673e-20)
(-2.549692 1.315258 0)
(-3.124124 1.348445 0)
(-4.537281 1.637232 1.637512e-17)
(-7.076303 2.402116 1.130067e-19)
(-8.803552 3.131027 -1.160619e-19)
(-9.925836 4.014331 7.727001e-18)
(-2.632669 1.59723 5.177798e-18)
(3.526834 -0.9620678 -3.943128e-20)
(2.536497 -0.9351579 -5.352518e-18)
(3.437674 -0.6508017 3.301494e-18)
(6.27774 -0.4648296 3.160695e-22)
(11.22265 -0.1515662 1.338405e-18)
(16.85821 0.09425079 0)
(18.9565 0.3978754 3.231e-19)
(19.32786 0.8579217 2.704641e-18)
(19.37023 1.484065 2.806896e-18)
(19.27401 2.181799 2.827897e-18)
(19.09061 2.887148 -8.765309e-20)
(18.84628 3.603235 5.692766e-18)
(18.54916 4.309236 -4.324487e-20)
(18.21467 5.002608 0)
(17.81623 5.662904 1.057708e-17)
(17.35862 6.292216 0)
(16.8594 6.888535 -7.489031e-20)
(16.31069 7.4386 7.510525e-20)
(15.70894 7.939405 9.007748e-18)
(15.06138 8.384473 -6.357754e-20)
(14.37489 8.77405 7.938028e-18)
(13.65763 9.103915 -7.384797e-18)
(12.91282 9.371713 0)
(12.15103 9.586604 4.501114e-20)
(11.37909 9.74388 -5.56445e-18)
(10.59212 9.829964 -9.617891e-18)
(9.794743 9.846901 0)
(8.999727 9.805561 -3.478425e-18)
(8.216182 9.707338 -1.891952e-20)
(7.444553 9.54437 2.084751e-18)
(6.685784 9.315865 8.253076e-21)
(5.946848 9.027762 -8.351313e-21)
(5.231614 8.676887 6.919955e-20)
(4.543445 8.267088 5.991771e-19)
(3.893347 7.803781 0)
(3.282435 7.292652 0)
(2.715526 6.737062 -2.079788e-20)
(2.19684 6.138867 0)
(1.729587 5.500284 0)
(1.315564 4.826088 0)
(0.9594777 4.128561 -2.268507e-18)
(0.6602915 3.417517 1.836215e-20)
(0.4265526 2.68869 1.097593e-20)
(0.2495907 1.956567 -5.362763e-21)
(0.1364502 1.233436 -7.224466e-19)
(0.09547087 0.4826929 2.987489e-21)
(0.1202088 -0.3561687 -7.422193e-19)
(0.1946139 -1.203842 1.424521e-18)
(0.3408176 -2.000674 1.090143e-20)
(0.5520441 -2.761598 -2.606237e-18)
(0.823026 -3.496435 -3.860826e-20)
(1.153222 -4.204117 2.308319e-18)
(1.538568 -4.877801 -2.083196e-18)
(1.979937 -5.517284 0)
(2.469794 -6.122488 -6.388172e-18)
(3.006311 -6.67849 -1.885639e-20)
(3.586916 -7.187678 2.11981e-18)
(4.205955 -7.65427 1.542362e-18)
(4.860924 -8.065686 0)
(5.549972 -8.423759 0)
(6.265207 -8.731896 0)
(6.997708 -8.975397 9.822954e-21)
(7.743113 -9.150115 -9.757737e-21)
(8.500817 -9.266258 2.184985e-18)
(9.265412 -9.322227 5.031535e-21)
(10.03292 -9.314679 -3.492782e-18)
(10.79766 -9.248336 -7.010958e-20)
(11.54939 -9.118526 9.296837e-18)
(12.28003 -8.922744 5.211408e-18)
(12.98496 -8.663815 -4.25751e-20)
(13.66641 -8.347956 6.150687e-18)
(14.31922 -7.980785 5.03447e-20)
(14.93604 -7.557033 -5.745014e-20)
(15.50904 -7.08262 5.721503e-20)
(16.03424 -6.560391 6.295718e-20)
(16.51094 -5.996892 8.27335e-18)
(16.93484 -5.396585 -6.511171e-20)
(17.29309 -4.762924 0)
(17.59958 -4.105609 0)
(17.86664 -3.437199 0)
(18.07852 -2.769142 0)
(18.21041 -2.102238 1.696228e-20)
(18.23313 -1.456922 -1.687885e-20)
(18.04753 -0.9088101 1.007311e-18)
(17.30266 -0.5248808 3.801629e-21)
(13.92052 -0.2441462 0)
(7.97261 0.07081426 -1.073918e-18)
(4.178149 0.4050503 2.369105e-18)
(2.549478 0.7377521 -2.022244e-18)
(2.40122 0.7998741 2.152566e-20)
(0.7300334 -0.3832798 -2.695668e-18)
(-8.426307 -3.323958 1.004172e-20)
(-9.683432 -3.281586 0)
(-7.855962 -2.453852 9.709353e-18)
(-5.123806 -1.600782 -1.009226e-17)
(-2.902777 -1.006219 -2.342975e-18)
(-1.778428 -0.6955256 -8.76094e-21)
(-0.7221059 -0.09711291 -2.833405e-21)
(0.8894322 1.067021 -3.034781e-21)
(3.961562 3.009716 0)
(4.176659 2.667858 -8.900145e-19)
(-1.071513 -1.374207 2.210745e-19)
(-2.159692 -2.039849 -9.478739e-21)
(-2.100931 -1.876866 -2.686116e-18)
(-1.546665 -1.380236 5.983168e-18)
(-0.7132384 -0.5526572 2.915665e-18)
(0.3507576 0.5360392 2.188501e-21)
(0.9437083 1.225704 -2.324027e-18)
(1.037827 1.534704 -1.680014e-20)
(1.039726 1.70784 -1.851838e-18)
(1.105752 1.906717 1.411883e-20)
(1.231422 2.043025 1.159315e-22)
(0.7386198 1.10483 -1.359601e-20)
(-0.3199256 -0.7371229 0)
(0.001135231 0.4900208 0)
(0.4084701 1.347921 -1.833792e-18)
(0.5141508 1.223934 0)
(-0.1287436 -1.225538 -1.429675e-18)
(-0.5988536 -3.190994 6.98568e-19)
(-0.5365781 -2.636006 -5.169538e-21)
(-0.3546453 -1.449758 5.138463e-21)
(-0.2093287 -0.237188 3.337143e-19)
(-0.1127586 1.328414 -2.02467e-19)
(-0.1195545 2.835337 -1.265194e-19)
(-0.3729873 4.176715 1.344305e-19)
(-0.5581891 5.386017 -3.36124e-19)
(-0.7674943 6.32394 1.330928e-20)
(-0.9802395 6.868239 -9.194845e-19)
(-1.166782 6.975212 0)
(-1.275854 6.772161 -3.612702e-18)
(-1.289553 6.453134 -2.452658e-20)
(-1.138739 5.354422 1.527703e-18)
(-1.000644 3.674002 3.011019e-18)
(-1.163585 2.770401 2.962084e-18)
(-1.206672 2.291834 2.813026e-18)
(-1.360647 2.361342 -2.225337e-20)
(-1.530563 2.687636 0)
(-0.7699586 1.478755 0)
(-0.9031473 1.343169 4.270795e-18)
(-1.973544 2.295441 4.806909e-18)
(-2.798449 3.253558 5.447054e-18)
(-3.193747 3.766069 9.019907e-20)
(-2.977304 3.610212 0)
(-2.162838 2.868766 4.380278e-18)
(-0.7526512 1.722797 2.892613e-18)
(3.144584 -1.954836 -2.091144e-18)
(3.585405 -3.221779 0)
(1.051011 -1.719473 1.905695e-18)
(0.01411876 -0.605267 0)
(-0.3895406 -0.01476645 -4.549493e-18)
(-0.4225992 0.122574 0)
(-0.2361943 -0.133325 -5.79511e-18)
(-1.562074 0.06842414 -1.392409e-17)
(-4.054076 0.8899435 0)
(-5.823691 2.071042 0)
(-6.720044 3.316658 5.08116e-20)
(-3.222901 2.301543 -4.080029e-18)
(5.107154 -0.903826 3.289131e-18)
(10.85093 -1.991534 7.965363e-18)
(13.37019 -1.547206 -2.262424e-18)
(15.80661 -0.8989861 2.177534e-18)
(18.18956 -0.1548818 -1.003044e-18)
(19.35842 0.3307632 0)
(18.93965 0.7351783 0)
(18.77931 1.336415 -2.250604e-18)
(18.76827 2.055472 -2.355594e-18)
(18.69648 2.78893 -4.625091e-18)
(18.55382 3.520963 4.581639e-18)
(18.34781 4.243334 1.075921e-19)
(18.08028 4.934207 -7.135547e-20)
(17.74159 5.600766 0)
(17.33621 6.22525 0)
(16.87616 6.819886 8.300697e-18)
(16.37543 7.383725 -8.009599e-18)
(15.82906 7.897596 0)
(15.23203 8.362104 0)
(14.5926 8.769813 1.043894e-19)
(13.9157 9.124241 -6.61775e-18)
(13.2111 9.418581 0)
(12.4822 9.64995 -5.440634e-18)
(11.73722 9.831163 -4.942031e-18)
(10.98507 9.955825 -4.364107e-18)
(10.2218 10.00857 3.872255e-18)
(9.447988 9.994958 -4.798245e-20)
(8.677615 9.926417 2.811422e-18)
(7.91949 9.803525 0)
(7.175919 9.616626 -1.701821e-18)
(6.446652 9.366121 -1.317116e-20)
(5.735405 9.060125 8.77643e-21)
(5.053759 8.690065 -1.475889e-21)
(4.39618 8.265433 0)
(3.775818 7.789863 -1.076038e-18)
(3.193057 7.269357 -1.401905e-20)
(2.654992 6.706063 2.051795e-18)
(2.162189 6.102985 1.258701e-18)
(1.719407 5.461163 -1.471084e-18)
(1.326859 4.785496 -1.670369e-18)
(0.9886571 4.087676 1.846222e-18)
(0.7033399 3.377809 -2.012964e-18)
(0.4845924 2.649742 -1.048289e-18)
(0.3144016 1.919899 2.240695e-18)
(0.206302 1.201098 1.18247e-18)
(0.1735385 0.4583147 2.424324e-21)
(0.205802 -0.3637338 6.142862e-19)
(0.2736364 -1.198922 -9.235397e-21)
(0.4123046 -1.985426 0)
(0.6128495 -2.738617 -1.642633e-20)
(0.8683698 -3.467981 -1.450275e-20)
(1.18045 -4.171563 -1.82543e-18)
(1.543436 -4.843274 3.420997e-18)
(1.963571 -5.481705 -1.532478e-18)
(2.427158 -6.089579 2.589178e-18)
(2.935022 -6.650738 1.883267e-20)
(3.488811 -7.166423 0)
(4.078354 -7.643454 1.303818e-18)
(4.703237 -8.06753 8.583996e-21)
(5.363855 -8.439752 -3.255573e-19)
(6.048516 -8.766875 0)
(6.751107 -9.031087 7.220344e-19)
(7.470128 -9.22695 0)
(8.202072 -9.367301 -4.675734e-20)
(8.940923 -9.450416 2.257337e-18)
(9.686539 -9.469997 0)
(10.42892 -9.434805 -3.316241e-18)
(11.1605 -9.33793 -3.808738e-18)
(11.87331 -9.176231 -4.271657e-18)
(12.56246 -8.95187 0)
(13.23206 -8.669574 -1.026701e-17)
(13.87503 -8.337306 8.257163e-20)
(14.48474 -7.947502 0)
(15.05333 -7.507522 0)
(15.57693 -7.0185 0)
(16.05561 -6.485794 6.686954e-18)
(16.4813 -5.920776 -6.919854e-18)
(16.8465 -5.318731 0)
(17.14347 -4.682724 0)
(17.37796 -4.018615 3.597882e-18)
(17.55192 -3.332834 2.861107e-20)
(17.65278 -2.639545 0)
(17.69151 -1.947021 0)
(17.6783 -1.295848 -1.673507e-18)
(17.94763 -0.8147248 1.905505e-19)
(17.88424 -0.4865143 0)
(16.0521 0.1069864 7.505895e-19)
(13.5021 0.8515842 1.173208e-20)
(11.25051 1.461021 1.063009e-20)
(6.825188 1.243943 -1.998163e-20)
(-0.7643157 -1.238216 2.02428e-18)
(-6.884785 -3.336075 4.121667e-18)
(-6.271711 -2.31415 8.398666e-20)
(-5.290964 -1.300682 4.812764e-20)
(-2.701285 -0.2841993 4.185608e-18)
(-0.4170265 0.2778222 1.990749e-18)
(0.3390882 0.4155456 0)
(0.7394693 0.8107289 2.267502e-19)
(1.382187 1.648517 0)
(3.460753 2.841835 1.517025e-20)
(3.131109 1.482957 7.016171e-19)
(-1.629653 -2.234855 1.231568e-20)
(-2.131549 -2.119225 -1.308637e-20)
(-2.278069 -2.009018 2.217234e-18)
(-1.88952 -1.601579 -2.431342e-18)
(-1.19276 -0.8739566 -2.343659e-18)
(-0.1470752 0.1624817 -2.203404e-18)
(0.7192333 1.088362 -1.894373e-18)
(0.9304102 1.483413 0)
(0.9111022 1.539555 1.4259e-21)
(0.9750787 1.679974 0)
(1.135911 1.766647 -1.444379e-18)
(1.01314 1.377193 1.234824e-18)
(0.03445396 -0.08686599 0)
(0.09767551 0.9598861 0)
(0.2765242 1.004204 3.059784e-18)
(0.4668461 0.5827393 -7.149319e-19)
(-0.1196707 -1.998951 1.141772e-18)
(-0.6223319 -3.577683 -4.373468e-21)
(-0.578026 -2.510193 4.425084e-21)
(-0.4760894 -1.496331 0)
(-0.3478214 -0.2006303 -2.685511e-19)
(-0.2641648 1.343672 3.21555e-19)
(-0.2620148 2.815695 1.045595e-19)
(-0.5278275 4.14065 -2.196408e-19)
(-0.6928418 5.319277 -9.434111e-21)
(-0.8682463 6.245006 9.444677e-21)
(-1.072606 6.793903 -2.369634e-20)
(-1.22821 6.931569 2.38217e-20)
(-1.254161 6.643572 1.495495e-18)
(-1.173835 6.188064 -2.033082e-20)
(-1.138909 5.665364 -1.249974e-18)
(-1.249405 4.719423 3.884954e-20)
(-1.431474 3.697791 -2.33615e-18)
(-1.366754 2.753553 -4.646576e-20)
(-1.410744 2.477875 0)
(-1.302035 2.482895 0)
(-0.267556 0.7937629 -3.070093e-18)
(-1.115668 1.41096 -3.536756e-18)
(-2.235005 2.3694 -7.82127e-18)
(-2.965941 3.283266 -4.453645e-18)
(-3.265193 3.820481 0)
(-2.951558 3.730717 0)
(-2.022238 2.992764 -7.182903e-18)
(-0.7668073 2.239589 -4.713852e-18)
(2.037964 -0.4778412 2.388354e-20)
(2.734743 -2.592933 -5.129224e-20)
(1.260093 -2.109729 -3.089034e-18)
(1.510318 -1.650465 -2.604095e-18)
(1.88929 -1.366365 3.692452e-18)
(2.538227 -1.45142 4.157522e-18)
(2.582154 -1.653561 4.339947e-18)
(1.165224 -1.50912 5.708846e-18)
(-0.8755825 -0.801552 0)
(-2.526962 0.6968643 -2.064495e-19)
(-2.278682 2.20743 -1.15408e-17)
(-0.8797568 2.300046 8.907053e-20)
(9.535786 -1.036584 7.215656e-20)
(16.40498 -2.473461 -2.927413e-18)
(18.15437 -2.09319 -1.634509e-18)
(19.18869 -1.248571 -5.986425e-20)
(19.34417 -0.3705915 -8.07332e-19)
(18.85445 0.08389523 -4.060654e-19)
(18.63836 0.3734668 -3.38919e-21)
(18.82093 0.885806 0)
(18.90574 1.534237 -2.949301e-20)
(18.88792 2.230685 1.94458e-18)
(18.76978 2.941215 -7.57771e-18)
(18.57736 3.662914 5.807268e-20)
(18.31499 4.364338 -3.713028e-18)
(17.98171 5.042428 -1.11171e-19)
(17.58244 5.68061 -6.973426e-18)
(17.1258 6.293311 3.537541e-21)
(16.62742 6.880764 6.606684e-18)
(16.0845 7.415219 -6.220045e-18)
(15.48978 7.903214 0)
(14.85186 8.333687 8.450901e-20)
(14.17445 8.713218 -8.504861e-20)
(13.46712 9.03428 0)
(12.73335 9.293378 4.482297e-18)
(11.98226 9.50208 7.617382e-20)
(11.22258 9.654183 3.648806e-18)
(10.45174 9.73308 -3.127125e-18)
(9.671821 9.741947 -2.675988e-18)
(8.891336 9.697553 -2.273972e-18)
(8.123871 9.597168 -1.776243e-18)
(7.371436 9.430872 1.725695e-20)
(6.63204 9.200083 -1.742683e-20)
(5.910197 8.913179 0)
(5.217628 8.56098 4.983426e-21)
(4.548603 8.153108 -1.056907e-20)
(3.917603 7.692481 8.946835e-19)
(3.324469 7.185607 1.292426e-18)
(2.778631 6.633902 -1.679565e-18)
(2.27792 6.041436 -1.033177e-18)
(1.82777 5.408987 -5.086477e-21)
(1.427969 4.741457 1.370393e-18)
(1.085297 4.049483 2.454299e-20)
(0.7943574 3.344418 1.613391e-18)
(0.5741912 2.618158 1.390993e-20)
(0.4009344 1.888484 -9.365999e-19)
(0.2915179 1.170921 -4.820622e-19)
(0.2661617 0.4329335 -6.06391e-23)
(0.3066283 -0.3696002 4.871011e-19)
(0.370378 -1.192479 7.561546e-21)
(0.5054333 -1.969854 -9.257162e-19)
(0.7062341 -2.714626 1.767001e-18)
(0.9629138 -3.43489 0)
(1.277377 -4.128586 -2.537768e-21)
(1.643027 -4.790029 -1.406489e-18)
(2.068643 -5.417677 1.292569e-18)
(2.536118 -6.015353 -2.22047e-18)
(3.052246 -6.563475 2.594789e-20)
(3.616251 -7.065365 -2.57078e-20)
(4.211652 -7.530308 -1.07151e-18)
(4.845745 -7.939019 0)
(5.519806 -8.293143 2.617105e-19)
(6.212487 -8.604724 4.623707e-21)
(6.92407 -8.85074 -4.757205e-20)
(7.653447 -9.026589 -9.479636e-19)
(8.394045 -9.147222 -1.449277e-18)
(9.140871 -9.209421 -2.357454e-20)
(9.894036 -9.206821 2.21209e-18)
(10.64478 -9.147395 -3.802288e-20)
(11.38237 -9.026827 -3.017674e-18)
(12.10067 -8.839737 0)
(12.79625 -8.587613 3.752221e-18)
(13.46963 -8.279941 4.166333e-18)
(14.11333 -7.92478 4.33405e-18)
(14.72275 -7.512016 -4.629659e-18)
(15.28935 -7.051261 4.97086e-18)
(15.81045 -6.541803 0)
(16.28636 -5.989648 -1.093742e-17)
(16.70847 -5.410713 1.141367e-17)
(17.06896 -4.795035 -1.349552e-19)
(17.363 -4.149474 -2.917146e-18)
(17.59043 -3.479714 -2.951164e-18)
(17.74356 -2.807213 0)
(17.80856 -2.136037 1.488949e-18)
(17.77182 -1.493357 -1.452385e-18)
(17.62449 -0.9166488 6.975133e-19)
(17.4763 -0.5209433 -1.652178e-19)
(17.83917 -0.2974224 -3.037837e-19)
(18.09706 0.2968077 9.304079e-21)
(17.43923 1.187605 -1.239416e-18)
(16.09336 1.793592 1.773575e-20)
(11.9117 1.391165 0)
(1.273774 -1.488669 0)
(-3.358251 -2.786845 -1.255735e-19)
(-3.224612 -1.281006 1.506893e-19)
(-2.335937 0.09042625 0)
(-0.2448203 1.10953 0)
(1.762924 1.497581 0)
(2.522144 1.551237 8.322719e-19)
(2.485526 1.774335 -3.475344e-19)
(2.146371 2.244583 -6.696096e-19)
(2.754139 2.354631 1.042641e-18)
(1.712698 -0.1083123 1.436284e-20)
(-1.5139 -2.552066 2.112547e-19)
(-2.115338 -2.162888 1.255577e-18)
(-2.384851 -2.08073 3.029307e-20)
(-2.172552 -1.767725 7.510445e-22)
(-1.654834 -1.16742 -3.053403e-20)
(-0.7832232 -0.3118332 -2.595474e-20)
(0.1915087 0.5802041 1.625222e-18)
(0.408885 0.8317339 0)
(0.5504373 1.038137 1.280538e-18)
(0.8121844 1.455493 -1.272849e-18)
(1.029947 1.511106 1.205175e-18)
(1.070732 1.253038 0)
(0.2947126 0.4050998 0)
(0.0657426 0.9418988 -1.770944e-20)
(0.05782484 0.1952295 -1.289534e-18)
(0.3581838 -0.4415874 5.980143e-19)
(-0.101885 -2.776337 -4.597324e-19)
(-0.6267868 -3.651514 0)
(-0.6991359 -2.440223 0)
(-0.6175532 -1.491298 0)
(-0.5207883 -0.1281124 -2.175112e-19)
(-0.4400154 1.401512 -1.346666e-19)
(-0.4266221 2.827345 -1.707876e-19)
(-0.7061161 4.123532 8.978148e-20)
(-0.8462433 5.27492 0)
(-0.970268 6.185374 -5.409446e-19)
(-1.098886 6.737178 0)
(-1.176499 6.908011 -1.280776e-18)
(-1.168465 6.665033 0)
(-1.056398 6.069915 0)
(-1.000045 5.454 -1.018865e-18)
(-1.156761 4.727002 -1.947088e-18)
(-1.32644 3.791896 1.932233e-18)
(-1.269148 2.728944 -1.918184e-18)
(-1.325218 2.403044 1.999789e-18)
(-0.9325552 2.154783 0)
(0.03498413 0.3864191 5.086213e-18)
(-1.311683 1.346304 2.86466e-18)
(-2.436858 2.31487 3.293504e-18)
(-3.104439 3.241556 -1.069487e-19)
(-3.315456 3.839011 -1.245974e-19)
(-2.874938 3.835161 -3.674847e-18)
(-1.871188 3.128327 5.940708e-18)
(-0.5314205 2.443804 1.937927e-18)
(1.229944 0.7656635 3.848895e-20)
(1.984124 -1.814266 1.144847e-18)
(1.927772 -2.576655 1.294964e-18)
(3.431795 -2.796463 2.119549e-18)
(4.53494 -2.812766 0)
(5.45609 -2.950236 -8.444663e-21)
(5.42967 -3.186489 0)
(4.337423 -3.28884 4.260355e-18)
(2.884034 -2.747216 6.785384e-18)
(1.570817 -0.9877162 1.133377e-17)
(1.507124 1.08803 -2.995819e-19)
(3.79413 1.860949 1.028367e-19)
(14.02631 -0.9614328 -3.467532e-18)
(18.14762 -2.338 0)
(18.41718 -2.107654 -1.262393e-18)
(18.89808 -1.264555 -1.429262e-18)
(18.64712 -0.3517321 1.360565e-18)
(18.34084 0.2233124 3.245363e-19)
(18.40025 0.693421 0)
(18.53256 1.300068 7.470048e-19)
(18.59029 1.982963 0)
(18.56214 2.683385 0)
(18.44117 3.374139 3.167434e-18)
(18.24736 4.083836 -4.815733e-20)
(17.98908 4.75753 4.945533e-20)
(17.65913 5.406711 -2.923707e-18)
(17.2663 6.010621 5.856143e-18)
(16.81634 6.590264 -5.574293e-18)
(16.32779 7.146243 -5.370976e-18)
(15.80089 7.639247 2.429235e-19)
(15.21988 8.09348 -1.556314e-19)
(14.59949 8.487861 -1.373987e-19)
(13.93892 8.836869 -3.954855e-18)
(13.25101 9.12905 -4.033556e-18)
(12.53742 9.359568 -1.067861e-19)
(11.8042 9.546144 3.399507e-18)
(11.06742 9.675601 0)
(10.32128 9.731913 2.575162e-18)
(9.55995 9.725389 2.20303e-18)
(8.799057 9.667696 1.772954e-18)
(8.053658 9.555481 1.461603e-18)
(7.322374 9.379966 0)
(6.604104 9.140541 0)
(5.899984 8.850082 3.057561e-19)
(5.228043 8.493537 0)
(4.573897 8.085746 0)
(3.959379 7.625952 7.974967e-19)
(3.383648 7.120521 -1.068627e-20)
(2.848573 6.573488 -1.531668e-20)
(2.356226 5.98603 -2.878496e-20)
(1.914866 5.358772 2.02278e-18)
(1.524255 4.696302 0)
(1.191121 4.008924 0)
(0.896769 3.311376 1.366598e-18)
(0.680733 2.587389 6.940904e-19)
(0.5061026 1.857481 7.55801e-19)
(0.3950361 1.140803 -3.947452e-19)
(0.377587 0.4057235 0)
(0.4279328 -0.3721221 -4.225886e-22)
(0.4869575 -1.1818 2.433535e-20)
(0.6109062 -1.949682 7.345261e-19)
(0.805578 -2.683469 -1.44846e-18)
(1.057473 -3.392903 -4.152329e-20)
(1.367423 -4.077326 1.272739e-18)
(1.728054 -4.730515 3.772242e-20)
(2.148457 -5.351179 2.07898e-18)
(2.602587 -5.945239 -1.158841e-20)
(3.10523 -6.489761 -1.572017e-18)
(3.660318 -6.988951 4.27352e-20)
(4.241477 -7.454644 0)
(4.855457 -7.866067 6.001973e-19)
(5.51529 -8.222697 0)
(6.193553 -8.539298 0)
(6.882973 -8.795029 -4.541867e-19)
(7.592724 -8.98025 1.548134e-18)
(8.316184 -9.111341 4.03341e-20)
(9.042555 -9.187613 -8.972574e-20)
(9.775798 -9.200514 -1.815822e-18)
(10.50614 -9.160724 -2.100029e-18)
(11.22371 -9.06145 2.568368e-18)
(11.9208 -8.899743 -2.813159e-18)
(12.59485 -8.676091 -6.860745e-20)
(13.25113 -8.394876 0)
(13.87698 -8.071564 -3.751764e-18)
(14.47069 -7.690359 7.922622e-18)
(15.02266 -7.264544 -4.228019e-18)
(15.53011 -6.791079 0)
(15.99602 -6.274622 8.496675e-20)
(16.40979 -5.729885 -4.569046e-18)
(16.76395 -5.145059 -7.284557e-20)
(17.05426 -4.526211 1.202923e-19)
(17.27934 -3.878258 -7.545318e-20)
(17.43318 -3.221668 0)
(17.50429 -2.557039 -2.371176e-18)
(17.48356 -1.896528 1.130004e-18)
(17.37692 -1.275629 5.489039e-19)
(17.20241 -0.7560046 -8.444747e-21)
(17.23205 -0.3589246 2.497589e-19)
(17.56381 0.2977233 4.919935e-19)
(17.41154 1.193737 0)
(16.94294 1.669964 8.405485e-19)
(15.28717 1.119759 -3.651681e-20)
(5.806038 -1.466252 1.319076e-18)
(0.7859305 -1.983735 0)
(0.4482236 -0.09790731 0)
(1.191714 1.692149 0)
(2.621303 2.682545 3.094113e-20)
(4.085287 2.766382 1.230846e-18)
(4.659526 2.625121 -6.82399e-19)
(4.293505 2.672451 1.56422e-19)
(3.120696 2.754813 1.134072e-18)
(2.166882 1.698423 -8.987501e-19)
(0.684005 -1.42834 0)
(-1.156177 -2.57407 -1.842195e-19)
(-2.085724 -2.243732 -1.024184e-18)
(-2.468269 -2.152305 1.605227e-18)
(-2.414146 -1.914961 -4.943636e-20)
(-2.083844 -1.44205 -4.634568e-20)
(-1.409654 -0.8078959 4.738301e-20)
(-0.4809839 -0.1615803 0)
(-0.239618 0.0301789 -1.130766e-18)
(0.237318 0.7189347 3.284929e-20)
(0.6725654 1.342906 2.065449e-18)
(0.9980154 1.403161 -1.026672e-18)
(1.016089 0.9604745 5.294803e-20)
(0.3876398 0.5220168 -7.940424e-19)
(-0.1119864 0.368153 0)
(-0.1982632 -0.9321762 -1.051171e-18)
(0.1772243 -1.810646 4.813587e-19)
(-0.1165391 -3.515869 -2.479356e-20)
(-0.6486806 -3.572173 4.223615e-19)
(-0.8335673 -2.386517 -1.759143e-20)
(-0.7724975 -1.422299 5.65559e-21)
(-0.7350659 -0.05004562 1.801295e-19)
(-0.6600742 1.475682 -1.958291e-21)
(-0.6201987 2.856021 1.303946e-21)
(-0.9098412 4.118656 5.207455e-21)
(-1.019664 5.257801 1.793714e-19)
(-1.094498 6.152667 4.434876e-19)
(-1.162805 6.69195 -5.009562e-19)
(-1.174924 6.873908 1.055467e-18)
(-1.101276 6.682725 0)
(-0.950369 6.097728 8.732893e-19)
(-0.839244 5.312955 8.976349e-19)
(-0.9382027 4.486025 1.604918e-18)
(-1.077789 3.562649 0)
(-1.083747 2.518868 0)
(-1.159063 2.226109 -1.667051e-18)
(-0.4471199 1.713376 -5.986884e-20)
(0.08515863 0.3072278 -2.045343e-18)
(-1.553706 1.230057 -2.326079e-18)
(-2.64626 2.174262 -2.627845e-18)
(-3.231691 3.150194 3.033657e-18)
(-3.354637 3.848701 -3.315363e-18)
(-2.775367 3.957585 2.917079e-18)
(-1.680989 3.282029 -2.358647e-18)
(-0.2383308 2.535746 0)
(0.9669272 1.4851 0)
(1.636514 -1.130266 -9.670346e-19)
(3.091138 -3.090641 0)
(5.590653 -3.879752 -6.22658e-20)
(7.164994 -4.11592 -1.374513e-20)
(8.15447 -4.305713 -2.328863e-18)
(8.211073 -4.687333 -8.108259e-20)
(7.634726 -5.105544 1.788598e-20)
(6.976107 -4.838996 -5.227285e-18)
(6.174967 -2.866863 -7.200502e-20)
(6.231624 -0.05687624 3.679707e-18)
(10.08499 1.172705 -5.34098e-20)
(17.03164 -0.710101 1.465708e-18)
(17.69567 -1.998564 -5.287949e-20)
(17.70132 -1.956977 4.370442e-18)
(18.352 -1.20744 3.481366e-20)
(18.32875 -0.437321 -9.44474e-21)
(18.32256 0.05522755 -5.606416e-19)
(18.43598 0.4643796 -4.574525e-21)
(18.56318 0.9950084 -6.162419e-19)
(18.62715 1.626268 -3.907532e-20)
(18.59842 2.300422 -1.208065e-18)
(18.47287 2.985731 2.479706e-18)
(18.27879 3.695298 -2.455736e-18)
(18.02752 4.365933 4.700671e-18)
(17.70061 5.038376 2.559447e-18)
(17.30981 5.657853 0)
(16.8587 6.256443 0)
(16.37099 6.834441 4.355379e-18)
(15.84526 7.346941 4.158073e-18)
(15.26469 7.819651 0)
(14.64749 8.225985 -1.106281e-19)
(13.98709 8.589872 3.586156e-18)
(13.29627 8.902336 3.214603e-18)
(12.58359 9.145352 2.855268e-18)
(11.85652 9.337857 -7.723747e-20)
(11.12163 9.480521 -2.232236e-18)
(10.37241 9.55387 5.872062e-20)
(9.615676 9.553749 -5.927935e-20)
(8.863225 9.500104 -1.497417e-18)
(8.120627 9.397954 1.15583e-18)
(7.385165 9.238437 0)
(6.674835 9.003759 0)
(5.973124 8.723894 -4.669021e-19)
(5.30993 8.373756 -9.2125e-21)
(4.660421 7.974955 -8.859727e-21)
(4.061707 7.519824 -6.152332e-19)
(3.49406 7.022129 -1.789082e-18)
(2.951009 6.492104 1.086429e-18)
(2.460859 5.91637 -1.379507e-18)
(2.024488 5.299098 -7.918158e-19)
(1.644168 4.644038 -2.748308e-20)
(1.319553 3.960848 0)
(1.017045 3.27585 -1.066479e-18)
(0.8125325 2.557387 -3.593293e-20)
(0.6328364 1.82728 -6.286153e-19)
(0.5199499 1.112465 3.382998e-19)
(0.5110361 0.3774766 4.674091e-23)
(0.5711445 -0.3718825 -3.46641e-19)
(0.6172026 -1.169469 3.001579e-20)
(0.7374686 -1.923463 -6.396941e-19)
(0.9253418 -2.641171 1.186107e-18)
(1.171815 -3.33897 -1.157756e-18)
(1.477696 -4.01463 2.267501e-21)
(1.833581 -4.658459 9.855214e-19)
(2.257991 -5.268363 -1.654361e-18)
(2.703148 -5.857151 1.473887e-18)
(3.194809 -6.396441 1.175863e-18)
(3.750608 -6.886756 7.421219e-21)
(4.338344 -7.340416 7.859357e-21)
(4.944247 -7.745435 -4.730319e-19)
(5.58753 -8.103361 2.532562e-19)
(6.265345 -8.411674 5.777983e-21)
(6.953044 -8.657765 3.001401e-19)
(7.654689 -8.836898 -1.218947e-18)
(8.370111 -8.964351 8.729299e-19)
(9.100825 -9.02361 -5.048006e-20)
(9.830958 -9.027126 -1.444042e-18)
(10.55363 -8.983577 3.446485e-18)
(11.27103 -8.871617 6.543415e-20)
(11.96497 -8.700118 2.182895e-18)
(12.63899 -8.461193 -2.570849e-18)
(13.29689 -8.163923 7.993266e-20)
(13.92148 -7.828048 -2.950186e-18)
(14.51568 -7.428663 -3.037689e-18)
(15.06684 -6.987151 1.047931e-19)
(15.57547 -6.491203 -3.496508e-18)
(16.04176 -5.953184 3.62011e-18)
(16.45528 -5.389346 0)
(16.80742 -4.78752 0)
(17.094 -4.153848 1.95092e-18)
(17.31632 -3.507831 1.932975e-18)
(17.47182 -2.855777 0)
(17.54281 -2.212581 1.01368e-18)
(17.51961 -1.591921 9.100806e-19)
(17.40444 -1.034833 -4.605456e-19)
(17.24046 -0.5826484 1.037506e-19)
(17.12271 -0.233097 2.069483e-19)