/*--------------------------------*- C++ -*----------------------------------*\
| =========                 |                                                 |
| \\      /  F ield         | OpenFOAM: The Open Source CFD Toolbox           |
|  \\    /   O peration     | Version:  2406                                  |
|   \\  /    A nd           | Website:  www.openfoam.com                      |
|    \\/     M anipulation  |                                                 |
\*---------------------------------------------------------------------------*/
FoamFile
{
    version     2.0;
    format      ascii;
    arch        "LSB;label=32;scalar=64";
    class       volVectorField;
    location    "0.16";
    object      U;
}
// * * * * * * * * * * * * * * * * * * * * * * * * * * * * * * * * * * * * * //

dimensions      [0 1 -1 0 0 0 0];

internalField   nonuniform List<vector> 
4529
(
(0.009973712 -3.822229e-05 -1.134987e-26)
(0.009995185 -4.303234e-05 -3.086121e-26)
(0.01002512 -3.367566e-05 6.585952e-26)
(0.01001644 -8.987726e-06 0)
(0.009938302 4.609706e-06 1.56362e-25)
(0.009984244 -5.192322e-06 0)
(0.009891793 4.063882e-05 1.4366e-25)
(0.01001918 -1.334128e-05 0)
(0.009928171 -6.12079e-05 -5.240622e-26)
(0.009988037 -7.122028e-06 -5.193751e-27)
(0.009958375 1.387123e-05 2.980739e-25)
(0.009983397 3.550223e-06 0)
(0.009981577 -1.091554e-06 -7.750898e-27)
(0.009981706 2.000508e-06 0)
(0.009980815 -1.069548e-05 -5.604633e-26)
(0.009979979 -6.750031e-05 0)
(0.01002406 -1.285757e-05 -1.225661e-25)
(0.009911522 -2.205196e-05 0)
(0.009975425 -2.611736e-05 -1.929587e-25)
(0.0100485 -8.426516e-05 -2.258835e-25)
(0.009929169 6.827913e-06 -3.78525e-25)
(0.0099745 -2.139848e-05 -9.628604e-26)
(0.009957614 -3.179561e-05 -1.903343e-25)
(0.009968241 6.833039e-06 1.457895e-26)
(0.009979983 5.677585e-08 1.928122e-26)
(0.01002516 -9.114993e-05 0)
(0.009989915 -6.669597e-06 1.717618e-27)
(0.009954794 -4.066475e-05 3.118747e-25)
(0.01001501 -1.323225e-05 -1.235504e-26)
(0.01000211 -7.849173e-05 0)
(0.009953177 -3.033519e-05 -2.728586e-25)
(0.009967276 -8.67675e-06 1.641663e-25)
(0.01000264 -2.037909e-05 0)
(0.01000631 -1.480208e-05 1.6992e-27)
(0.009980234 -6.518493e-05 -1.743605e-25)
(0.009924814 3.2828e-05 2.826718e-25)
(0.009981248 4.567232e-07 1.024527e-26)
(0.009979821 1.229086e-05 -6.934755e-26)
(0.01000518 -6.655282e-05 -3.218541e-26)
(0.01000573 -1.757593e-05 6.9528e-29)
(0.009986901 5.681037e-06 1.776781e-27)
(0.009986493 -1.007243e-05 -1.993317e-26)
(0.009977105 -9.932191e-06 0)
(0.009966185 -2.441126e-05 0)
(0.009992762 -2.068874e-05 0)
(0.009999401 -3.628814e-05 2.59555e-27)
(0.009989996 -8.43917e-05 2.889932e-25)
(0.009982483 -2.816849e-05 0)
(0.009968891 -2.714571e-05 0)
(0.009921189 -5.671477e-05 -2.341816e-25)
(0.009976734 2.736826e-06 8.035701e-27)
(0.009991345 -8.799695e-06 1.191242e-26)
(0.009978486 -2.537274e-05 1.262245e-25)
(0.01002123 -3.866988e-05 2.436722e-26)
(0.01001831 -1.77986e-05 2.601762e-26)
(0.01004443 -8.155602e-05 1.23955e-25)
(0.009982476 -1.026791e-06 2.203714e-28)
(0.009957885 4.790739e-07 -6.475772e-28)
(0.009942906 -7.317316e-06 0)
(0.009949442 -4.498569e-05 -1.662571e-25)
(0.01001631 -6.084971e-05 -4.109752e-26)
(0.009976231 3.58205e-06 -8.04105e-27)
(0.009899326 2.663881e-05 2.158247e-25)
(0.00995978 -5.712597e-07 0)
(0.009994151 -7.788508e-06 3.148278e-27)
(0.009976085 4.063275e-06 -6.662641e-26)
(0.01000453 -1.2228e-05 0)
(0.009984819 -1.216655e-05 -5.593389e-26)
(0.009981327 1.276901e-05 6.239159e-26)
(0.009922405 -1.288107e-05 -9.756757e-26)
(0.009951549 1.504925e-05 0)
(0.01000164 -9.107107e-06 0)
(0.009989833 -6.665404e-05 0)
(0.01000782 2.006531e-07 0)
(0.009981711 -6.881607e-05 -1.485643e-26)
(0.01001088 -1.138725e-05 3.856795e-27)
(0.01001372 -1.009247e-05 3.078322e-27)
(0.009978092 -1.30948e-05 0)
(0.009979025 -1.088032e-05 0)
(0.01002613 -1.79803e-05 8.496491e-26)
(0.009950112 2.041951e-05 -1.906956e-25)
(0.01000445 -1.906651e-05 -1.209815e-27)
(0.009946666 1.958711e-05 0)
(0.009986632 -5.907347e-06 -1.733453e-27)
(0.009935785 -5.616579e-05 -1.250604e-26)
(0.009900612 -6.214133e-05 -1.017291e-24)
(0.009954755 8.141719e-06 1.780197e-25)
(0.009959292 4.435878e-06 -1.258003e-25)
(0.01000804 -1.011849e-05 5.473093e-27)
(0.01001169 -1.782343e-05 1.755541e-26)
(0.009980235 -2.647954e-05 5.641395e-26)
(0.009959011 -2.416646e-05 -2.02391e-25)
(0.009978394 1.310278e-05 0)
(0.009989181 -8.883607e-05 0)
(0.009929909 7.02844e-07 0)
(0.00987231 2.596443e-05 -7.006792e-25)
(0.009919614 3.23332e-05 -2.417762e-25)
(0.009940017 -2.379238e-05 3.185677e-25)
(0.009969937 7.217105e-06 -1.213785e-25)
(0.009961787 -3.327393e-05 5.938227e-26)
(0.009975122 -2.03026e-06 -1.483821e-26)
(0.009984468 9.924709e-06 -6.860058e-26)
(0.01000075 -1.563306e-05 -9.991542e-27)
(0.009946657 -1.936261e-05 -5.066682e-25)
(0.009958786 -2.131889e-05 1.264602e-25)
(0.009994986 -4.167091e-05 1.331786e-25)
(0.009974598 -3.359711e-07 -1.511222e-25)
(0.01001194 -2.211344e-05 8.402329e-27)
(0.009976348 -3.338836e-06 -3.415918e-26)
(0.009964583 -4.681061e-05 9.509706e-26)
(0.009996805 -9.833246e-06 -3.704038e-27)
(0.009973189 -4.92565e-06 0)
(0.009908085 2.570505e-05 -6.832482e-25)
(0.009956507 5.92134e-06 0)
(0.01002299 -4.876523e-05 0)
(0.009987382 -8.399967e-06 1.432774e-26)
(0.009977704 -2.896565e-05 1.913639e-25)
(0.00996366 -1.909859e-05 -1.733227e-25)
(0.009909006 -3.686868e-05 3.726642e-27)
(0.009980689 -8.689338e-06 0)
(0.009997037 -7.662938e-05 3.678869e-26)
(0.009998547 -1.041979e-05 -7.202061e-28)
(0.009992706 -1.643179e-05 -2.017204e-26)
(0.009976547 1.191813e-05 0)
(0.0100139 -1.395286e-05 2.046543e-26)
(0.009899031 -6.560234e-05 4.967911e-25)
(0.009985313 -5.239702e-06 -5.567512e-27)
(0.009989695 -1.116184e-05 1.586953e-26)
(0.009985449 6.46415e-06 -2.587665e-26)
(0.009979456 -2.051884e-06 5.738366e-26)
(0.009981982 3.090857e-06 2.032935e-26)
(0.009977591 -2.091927e-05 5.727678e-26)
(0.009975961 5.901369e-06 -1.139193e-25)
(0.009957693 5.498046e-06 4.526961e-25)
(0.00994979 -2.054274e-05 0)
(0.01000527 -2.361906e-05 0)
(0.009995071 -2.09041e-05 -2.417247e-26)
(0.009899933 1.778998e-05 0)
(0.00999042 -2.682877e-05 -8.692639e-26)
(0.01000665 -1.986699e-05 0)
(0.009989843 5.949301e-06 -8.416956e-27)
(0.009999348 -8.862889e-06 0)
(0.0099529 -1.290774e-06 -1.784434e-25)
(0.01001191 -5.030866e-05 -5.180837e-27)
(0.01000343 -2.841514e-05 -1.539081e-26)
(0.01003443 -8.631492e-05 -7.80914e-26)
(0.009935307 -4.577502e-05 0)
(0.009915627 -5.367969e-05 0)
(0.009977873 -6.934581e-06 -3.541001e-26)
(0.009907893 4.384606e-06 -5.410428e-25)
(0.009993695 -9.463143e-06 0)
(0.00998356 9.801821e-06 -4.849408e-27)
(0.01000938 -1.062003e-05 4.444763e-27)
(0.009994694 -6.925306e-05 -7.991858e-26)
(0.009898951 -1.954673e-05 0)
(0.009932199 -3.075707e-05 3.677591e-25)
(0.01000333 -2.64127e-05 0)
(0.009980695 -1.135827e-07 -1.026686e-26)
(0.01003026 -7.699635e-05 0)
(0.009993702 -8.76932e-06 -9.208936e-28)
(0.009998074 -1.402293e-05 -8.841024e-27)
(0.01000278 -8.384574e-05 3.776658e-26)
(0.009964969 -1.546699e-05 2.790421e-25)
(0.009976322 -1.649295e-05 0)
(0.009979907 9.41085e-07 1.321573e-26)
(0.009969464 -4.526342e-05 2.958513e-25)
(0.009914424 -6.018186e-05 6.138085e-26)
(0.01002652 -6.993352e-05 -5.166945e-26)
(0.009947085 -2.311693e-05 0)
(0.01001955 -3.77274e-05 0)
(0.009995024 -2.433178e-05 -1.716267e-26)
(0.00995458 -7.926868e-06 0)
(0.00988097 1.863381e-05 4.650552e-25)
(0.009989925 -1.852865e-05 -6.230451e-26)
(0.009963632 1.217806e-05 3.725266e-26)
(0.009946784 1.055833e-05 2.145926e-25)
(0.01001247 -1.726089e-05 0)
(0.009980901 -4.540475e-05 5.314805e-26)
(0.00998076 -2.938212e-06 1.889369e-26)
(0.009908997 -1.973973e-05 0)
(0.009997718 -2.416394e-05 2.514171e-26)
(0.009968637 -2.765565e-06 0)
(0.00997488 -1.448586e-05 -8.72239e-26)
(0.01001718 -2.134836e-05 0)
(0.009978421 1.246182e-05 -2.206892e-26)
(0.01002602 -7.743933e-06 -2.194823e-25)
(0.01004419 -6.573112e-05 -1.797728e-26)
(0.009976103 7.254379e-06 7.714355e-26)
(0.009979847 -1.359615e-05 -9.769209e-26)
(0.009917164 3.022935e-05 -3.372166e-25)
(0.009992676 -6.576753e-05 0)
(0.009976932 -4.859538e-06 5.605906e-26)
(0.0100133 -1.48862e-05 1.725672e-26)
(0.00997954 -5.836873e-05 0)
(0.009969948 -4.187699e-06 0)
(0.009973742 -6.911396e-06 0)
(0.009953235 1.453586e-05 0)
(0.009988236 5.611711e-06 0)
(0.009978127 -1.245228e-05 0)
(0.009971325 -1.040023e-05 -1.496677e-25)
(0.009976907 5.758407e-06 0)
(0.009977825 1.022571e-05 0)
(0.009977567 8.431788e-06 -4.501479e-26)
(0.009964883 5.851572e-06 3.580033e-26)
(0.01002068 -4.882047e-05 3.384682e-26)
(0.009969921 -2.521995e-07 -1.110211e-25)
(0.009974753 8.759979e-06 0)
(0.00998201 1.295894e-05 6.478437e-26)
(0.01000822 -1.598589e-05 -6.089544e-27)
(0.009891151 -1.08329e-05 8.8533e-25)
(0.009901691 -3.264593e-06 1.035887e-26)
(0.009984289 7.56057e-06 5.16035e-27)
(0.009968352 -2.074837e-05 0)
(0.009934503 1.554545e-05 3.0882e-25)
(0.00998675 -1.360357e-05 0)
(0.009985888 -1.141238e-05 6.954937e-26)
(0.009913007 -1.403701e-06 3.476243e-25)
(0.009955016 1.24336e-05 -1.299738e-26)
(0.009893196 -4.859562e-05 1.024407e-24)
(0.009931492 -9.27319e-07 1.838013e-25)
(0.009984854 -3.826704e-06 -1.013775e-26)
(0.009942041 -2.686514e-05 -5.690282e-25)
(0.009982759 6.460416e-06 5.07064e-26)
(0.010022 -2.107118e-05 -7.057462e-26)
(0.009945957 -6.280007e-05 7.183695e-26)
(0.009964959 -5.166415e-05 -4.481316e-25)
(0.009965784 -4.946986e-06 -7.568756e-26)
(0.009955263 1.094169e-05 0)
(0.009981667 -3.383113e-05 2.306312e-27)
(0.009971973 4.704956e-07 0)
(0.009884213 -8.639315e-06 -5.380441e-25)
(0.009977452 -7.779016e-06 1.329759e-25)
(0.01000943 -1.648676e-05 -7.161937e-27)
(0.009968323 -6.696898e-05 -5.14946e-25)
(0.009977351 -8.515996e-07 -5.516137e-26)
(0.009978396 2.746885e-06 0)
(0.009997609 -9.780922e-06 9.46208e-28)
(0.009980364 3.037613e-06 0)
(0.009966736 -2.637749e-05 0)
(0.00998479 -6.083638e-06 -1.253949e-26)
(0.00999179 -7.090512e-06 8.100252e-29)
(0.009959119 5.725216e-07 0)
(0.00998536 -4.160642e-06 -9.667994e-27)
(0.009960418 -5.138005e-06 0)
(0.009959757 1.740789e-06 0)
(0.009963384 -8.250113e-05 -2.081261e-25)
(0.009974243 -7.472514e-05 1.386515e-25)
(0.009890011 4.208682e-06 5.91829e-25)
(0.009981851 6.924581e-06 4.033912e-26)
(0.009980113 -3.941465e-06 -8.218786e-28)
(0.009973029 1.000096e-06 2.209838e-27)
(0.009985491 -6.607187e-05 0)
(0.009915991 -7.004188e-05 1.35193e-25)
(0.0100132 -9.919612e-06 1.639484e-28)
(0.009951971 -5.002097e-05 0)
(0.01000112 -1.340924e-05 0)
(0.009984652 -4.147341e-06 0)
(0.009979686 6.565021e-06 0)
(0.009990525 -1.240549e-05 0)
(0.009936591 -9.919482e-06 0)
(0.009976468 -4.901676e-05 0)
(0.009988588 -4.180707e-05 -7.853898e-26)
(0.009955423 1.819518e-05 2.145533e-25)
(0.01000025 -2.117323e-05 0)
(0.01000804 -2.1962e-05 9.824191e-28)
(0.009994843 -9.267468e-06 7.959866e-28)
(0.009997749 -1.842506e-05 -2.02066e-26)
(0.009975388 3.123453e-06 0)
(0.009976561 6.80614e-06 1.02709e-25)
(0.009999801 -7.51644e-05 -8.03524e-26)
(0.009947552 1.308605e-05 -2.498315e-25)
(0.009955312 -2.401596e-06 0)
(0.009990839 -5.020012e-05 1.897321e-26)
(0.009968994 -6.29447e-05 -1.116134e-26)
(0.01001053 -1.303903e-05 0)
(0.009934493 -2.020408e-05 -3.255789e-25)
(0.009967243 -6.370187e-06 1.174424e-25)
(0.009985009 4.551956e-06 2.218742e-27)
(0.009973136 -7.768461e-05 -1.727712e-25)
(0.01001469 -1.794127e-05 2.324204e-26)
(0.0100129 -1.542179e-05 6.860699e-28)
(0.01001332 -9.607241e-06 -1.329888e-27)
(0.0100092 -1.22502e-05 1.323346e-26)
(0.009982657 1.071771e-06 9.977673e-27)
(0.01002718 -5.837876e-05 0)
(0.009932178 -2.58577e-05 -3.058425e-25)
(0.009981561 2.804082e-07 -9.968333e-27)
(0.00996976 1.893092e-06 2.780404e-25)
(0.009965434 9.506279e-07 2.265371e-26)
(0.01005312 -3.992514e-05 -6.698546e-26)
(0.009915664 -1.311653e-06 -3.236615e-25)
(0.0100581 -4.381279e-05 -2.134928e-25)
(0.009982914 4.146565e-06 2.404193e-26)
(0.0100163 -4.524729e-05 5.589786e-27)
(0.009996303 -2.865716e-05 1.620493e-27)
(0.009966396 1.310703e-05 -3.002376e-25)
(0.009972623 -2.405008e-05 -1.525741e-25)
(0.009985402 -4.700729e-06 0)
(0.009898421 1.491781e-05 7.681737e-25)
(0.009914841 -2.085836e-05 0)
(0.00999863 -2.849859e-05 -2.969718e-26)
(0.009954134 5.530741e-06 0)
(0.009953069 -4.070548e-06 0)
(0.009954128 1.722289e-05 1.977466e-25)
(0.009967238 -9.758716e-06 -2.65084e-27)
(0.01003988 -2.152652e-05 -1.330925e-25)
(0.009993878 -3.576498e-05 0)
(0.009887571 2.194999e-05 7.642209e-26)
(0.009950869 -4.65894e-05 3.18258e-25)
(0.009982798 -1.291019e-05 -7.079146e-26)
(0.01002467 -5.853193e-05 -4.483702e-26)
(0.009990705 -2.289957e-05 3.935876e-26)
(0.009927638 -5.613133e-05 -6.070698e-26)
(0.009971235 -2.201509e-05 2.17699e-25)
(0.00997301 -2.948358e-05 1.580434e-25)
(0.009999552 -7.298206e-05 -7.591335e-26)
(0.009990018 -7.214955e-06 -1.460304e-27)
(0.009945544 -1.012677e-05 0)
(0.009928238 -6.270899e-06 -1.85195e-25)
(0.01002556 -1.61252e-05 0)
(0.009986151 6.223095e-06 1.131697e-26)
(0.01001929 -9.530364e-06 0)
(0.009976472 8.178683e-07 1.397712e-27)
(0.009976758 -5.843194e-06 -4.879072e-26)
(0.009982168 -3.501841e-06 3.1365e-26)
(0.009996884 -1.704862e-05 -2.995237e-26)
(0.009952451 1.789464e-05 -1.946605e-25)
(0.009975685 -3.820449e-07 6.577296e-26)
(0.009976111 1.249375e-06 -3.757237e-26)
(0.009971653 3.022619e-06 0)
(0.009971076 -8.313954e-07 2.409953e-26)
(0.01000824 -8.477337e-05 1.793663e-26)
(0.009986299 5.89853e-06 0)
(0.009962681 -1.621433e-05 -1.5483e-26)
(0.009983077 -2.194713e-06 0)
(0.009997922 -3.700771e-05 -3.080732e-26)
(0.01001373 -6.089149e-05 -2.233282e-27)
(0.009989868 -3.39669e-05 -1.868986e-25)
(0.009967141 1.02109e-05 0)
(0.00998564 -5.49765e-06 3.756905e-27)
(0.009980924 3.709271e-06 0)
(0.009888786 -4.996467e-05 -2.57921e-25)
(0.00991265 -4.921444e-05 0)
(0.009972653 1.004036e-05 -1.084197e-25)
(0.00996465 1.431891e-05 5.499936e-27)
(0.009984093 -3.629981e-05 0)
(0.009985366 5.161051e-06 0)
(0.009983558 4.191002e-06 -1.431603e-26)
(0.00992156 -4.536019e-05 4.587339e-25)
(0.01001576 -7.433953e-05 -7.816889e-28)
(0.0100166 -1.33036e-05 -2.167887e-26)
(0.01001024 -4.563319e-05 -2.860132e-27)
(0.009881909 3.44849e-05 0)
(0.0099916 -2.366545e-05 4.980758e-27)
(0.009998398 -1.171233e-05 0)
(0.01005171 -3.621571e-05 -7.974106e-26)
(0.009993757 -1.551632e-05 0)
(0.009993682 -5.972742e-05 -2.605743e-26)
(0.01001235 -9.368608e-06 1.412232e-26)
(0.009986937 -3.291659e-05 -4.229922e-27)
(0.0100195 -2.864303e-05 1.249224e-26)
(0.009961654 -4.228079e-05 0)
(0.009976087 -4.271085e-05 -1.338463e-25)
(0.009930524 1.727977e-05 0)
(0.009949785 9.417085e-06 0)
(0.009978892 -7.190654e-07 2.290482e-26)
(0.009995842 -4.60409e-05 0)
(0.009968195 4.403177e-06 -1.305945e-25)
(0.01001717 -6.089632e-06 0)
(0.009928545 2.618744e-05 2.950903e-25)
(0.009976457 -5.114973e-05 5.161551e-26)
(0.009929963 -2.951886e-05 -3.697598e-25)
(0.009977722 -4.346161e-05 3.157468e-25)
(0.01001842 -2.782086e-05 2.494876e-27)
(0.01002586 -2.822242e-05 0)
(0.009944968 -6.955115e-06 -2.798972e-27)
(0.009961917 -1.095641e-05 3.83582e-26)
(0.01001497 -2.405566e-05 -1.031192e-26)
(0.01001015 -3.122936e-05 -2.137703e-27)
(0.009986246 -4.618015e-05 -3.838746e-26)
(0.009983447 -5.394628e-05 0)
(0.01006052 -5.046722e-05 7.187216e-26)
(0.01001508 -2.042755e-05 4.593606e-26)
(0.009997457 -1.939203e-05 1.348413e-26)
(0.009978114 -1.051955e-06 2.581787e-26)
(0.01000057 -4.386232e-05 0)
(0.01000222 -4.692103e-05 4.794451e-26)
(0.009990602 -3.922948e-05 1.568668e-26)
(0.009959903 -8.200648e-05 0)
(0.01002369 -4.516344e-05 -7.538608e-26)
(0.009930539 -3.711306e-05 -3.891191e-25)
(0.009975977 5.238504e-06 3.943412e-26)
(0.009971904 4.967068e-06 0)
(0.01000272 -1.499397e-05 3.941677e-27)
(0.01002813 -4.007779e-05 -7.291389e-26)
(0.00998328 -1.017399e-05 8.361004e-26)
(0.01003677 -2.986817e-05 1.384943e-25)
(0.009980881 -5.110138e-06 -2.704086e-26)
(0.009983037 4.473946e-06 -1.803648e-26)
(0.009985905 4.639337e-06 -6.259261e-28)
(0.009991328 -3.445816e-05 3.566596e-26)
(0.009997823 -1.590725e-05 -5.076696e-28)
(0.009985626 -4.307129e-05 -5.583959e-26)
(0.009992487 -5.138014e-05 -1.317394e-25)
(0.009889428 3.498341e-05 3.576215e-25)
(0.01002829 -2.47239e-05 -9.39638e-26)
(0.01000601 -6.912328e-05 0)
(0.009972494 1.334954e-05 0)
(0.01000907 -2.076546e-05 1.25163e-26)
(0.009951451 -8.951506e-06 -3.546014e-25)
(0.009979351 2.122806e-06 1.765534e-26)
(0.009975213 -7.988012e-05 -1.924496e-26)
(0.009938207 -2.274041e-05 -2.761099e-25)
(0.01000597 5.148534e-07 0)
(0.009979737 -2.217575e-05 0)
(0.009986987 -1.575207e-05 0)
(0.01000928 -1.390614e-05 1.85026e-26)
(0.00998895 -1.551396e-05 5.687308e-26)
(0.01006496 -4.940759e-05 5.772401e-25)
(0.00998825 -2.914598e-05 -9.735186e-26)
(0.009988548 -2.232706e-05 7.624074e-26)
(0.009993688 -2.436228e-05 1.931614e-26)
(0.009994647 -1.761379e-05 -3.412035e-26)
(0.01000514 -1.104427e-05 -2.901997e-27)
(0.009980524 -8.959421e-07 0)
(0.01002778 -7.491599e-05 8.551227e-29)
(0.009896212 -1.672562e-05 0)
(0.01003729 -5.624677e-05 0)
(0.009909228 1.544014e-06 0)
(0.009910129 -1.629594e-05 0)
(0.009995731 -5.666031e-05 -1.312077e-26)
(0.009947313 -4.528243e-05 0)
(0.01000438 -3.90865e-05 0)
(0.009957753 -4.829141e-05 5.64382e-26)
(0.01001445 -2.78152e-05 -1.219599e-26)
(0.009982273 -3.842409e-06 3.025275e-26)
(0.00995586 -7.797417e-05 -4.61653e-25)
(0.009976846 -7.470985e-06 -8.384257e-26)
(0.009975008 3.544916e-06 0)
(0.01001324 -6.713194e-05 -1.024227e-26)
(0.01000348 -1.871673e-05 3.283983e-27)
(0.009986704 -7.039629e-06 0)
(0.00998328 -5.023199e-06 0)
(0.01000006 -4.694293e-05 0)
(0.009970735 -1.457054e-05 2.330751e-27)
(0.009985472 -5.097117e-06 9.772889e-29)
(0.009924109 2.082844e-05 -4.40983e-26)
(0.009928132 1.062911e-05 0)
(0.009993698 -1.62166e-05 4.292322e-26)
(0.009992405 -4.602245e-05 -8.628068e-26)
(0.009980173 -1.500106e-05 0)
(0.009979176 -2.038649e-05 -1.411517e-25)
(0.009988919 -2.133106e-05 -1.099063e-25)
(0.009986034 -1.987909e-05 -8.503689e-26)
(0.009988722 -1.632962e-05 -5.72363e-26)
(0.009973678 -1.142619e-05 -9.661819e-26)
(0.009975992 -1.175653e-05 9.783935e-26)
(0.009986459 -1.897287e-05 0)
(0.00998568 -1.431644e-05 0)
(0.00997453 -1.180124e-05 -5.359373e-27)
(0.00998426 -6.010249e-06 -1.293362e-26)
(0.009978938 -1.479751e-05 3.487828e-26)
(0.009981197 -2.014279e-05 6.281916e-26)
(0.009987251 -1.725554e-05 -7.0747e-26)
(0.009945353 1.032324e-05 -2.437968e-25)
(0.009977639 -3.266748e-05 3.981158e-26)
(0.009919164 -6.853997e-05 -2.527347e-25)
(0.01001892 -5.038189e-05 -2.33639e-26)
(0.009982066 -6.137912e-07 0)
(0.01000977 -1.833232e-05 5.982487e-27)
(0.009985904 -5.638085e-05 -1.010033e-25)
(0.009988096 6.846782e-06 -2.233525e-26)
(0.009988947 -7.967478e-06 0)
(0.01002518 -4.348191e-05 4.469981e-26)
(0.009972288 -1.446801e-05 1.071922e-25)
(0.009938773 -5.985901e-05 -5.229746e-25)
(0.00992155 -5.859055e-06 0)
(0.009912735 -3.124518e-05 -3.513127e-25)
(0.01001224 -1.043437e-05 -7.094844e-27)
(0.01002228 -2.353352e-05 0)
(0.00997649 -3.466405e-05 0)
(0.01000862 -1.125449e-05 -1.668095e-27)
(0.01000835 -1.065283e-05 -1.09458e-27)
(0.009952443 -2.497953e-05 -2.552169e-25)
(0.01000175 -1.015558e-05 4.42872e-27)
(0.009902634 -3.311387e-05 -7.903038e-25)
(0.009978915 -2.254628e-05 1.733737e-26)
(0.009978548 -5.678741e-06 5.27488e-26)
(0.00989577 3.903511e-05 -6.241262e-25)
(0.009986571 6.553705e-06 -1.051704e-26)
(0.009980912 -4.23497e-06 3.560752e-27)
(0.01001893 -1.245315e-05 2.624305e-27)
(0.01001471 -1.231113e-05 1.86456e-26)
(0.00996909 -3.33304e-05 -4.205337e-26)
(0.009959996 -3.118914e-05 -2.402101e-25)
(0.009944271 5.592992e-06 0)
(0.009943654 -5.267844e-05 -5.051937e-25)
(0.009930937 -5.953336e-05 4.425355e-25)
(0.0100009 -9.094283e-06 0)
(0.009999917 -9.349147e-06 2.601546e-29)
(0.009982598 -3.807886e-05 -1.534882e-25)
(0.009907854 -1.385447e-05 0)
(0.009981842 5.227973e-06 -2.089544e-26)
(0.009999074 -2.145881e-05 -8.302383e-27)
(0.009988994 -6.873294e-06 1.401519e-28)
(0.01001134 -1.498894e-05 -4.205146e-27)
(0.009976147 2.670329e-06 0)
(0.009977374 4.921777e-06 -5.028273e-26)
(0.009982028 1.165673e-06 4.788799e-28)
(0.00990956 -5.379957e-05 5.837225e-25)
(0.009975124 -1.875511e-05 0)
(0.009979973 -3.042109e-06 -9.939479e-26)
(0.009977248 -1.888472e-06 0)
(0.009963726 1.608381e-05 -1.885252e-25)
(0.009966701 6.266973e-06 0)
(0.009934707 -1.547356e-05 0)
(0.009984094 -4.380824e-05 4.512275e-26)
(0.009979734 -5.429558e-06 -4.202094e-26)
(0.009981947 -2.605981e-05 9.588695e-26)
(0.009951198 -5.214969e-05 0)
(0.0100629 -6.775592e-05 0)
(0.009943587 -7.034384e-05 -1.250882e-25)
(0.009970667 7.746085e-06 -1.110822e-25)
(0.01007793 -7.488098e-05 0)
(0.01002735 -1.83194e-05 -2.152955e-27)
(0.01001712 -1.133828e-05 0)
(0.01001309 -1.07686e-06 0)
(0.009973302 -6.25748e-05 1.77869e-25)
(0.009972322 -5.149138e-05 0)
(0.009969183 -9.815331e-06 -2.966944e-28)
(0.009939021 -1.45917e-05 3.360049e-25)
(0.009932598 -1.869838e-05 0)
(0.00993844 -4.815347e-05 3.955619e-25)
(0.009989998 -2.496242e-05 0)
(0.009996433 -3.226723e-05 -2.435992e-27)
(0.01000754 -2.856594e-05 5.725024e-28)
(0.009999554 -2.559757e-05 2.788954e-26)
(0.009982734 -5.744653e-06 0)
(0.009982178 -8.327628e-06 9.621957e-28)
(0.009986004 7.837789e-06 -1.243359e-26)
(0.01001134 -9.665188e-06 0)
(0.0099791 3.797263e-06 5.754359e-26)
(0.00997713 -2.240342e-05 7.077916e-26)
(0.009985116 -6.53404e-06 1.254528e-26)
(0.01000546 -1.635727e-05 0)
(0.01002618 -1.443458e-05 -2.626897e-26)
(0.009989198 -1.398833e-05 2.674348e-26)
(0.009973427 -6.963345e-07 7.830242e-26)
(0.009940581 -3.046549e-05 0)
(0.009967633 -4.515553e-05 -1.115682e-25)
(0.009972944 -3.927067e-05 0)
(0.009965243 8.58643e-06 1.99894e-25)
(0.009969375 -1.37241e-05 6.695188e-26)
(0.009970731 -1.357374e-05 -1.400811e-25)
(0.0100154 -4.061261e-05 1.221774e-26)
(0.01001594 -5.689693e-05 -9.109173e-27)
(0.009961206 -7.410826e-06 0)
(0.009906257 2.902021e-05 3.352285e-25)
(0.009954601 -2.059185e-05 1.725442e-25)
(0.00995981 -2.189084e-05 0)
(0.009994752 -1.532403e-05 0)
(0.009984414 -7.919064e-06 -4.048962e-26)
(0.009969971 9.868608e-06 0)
(0.009954034 -2.383266e-05 4.41182e-26)
(0.009981789 2.335765e-06 -1.203933e-26)
(0.009969565 -8.22884e-06 0)
(0.009971328 -4.419902e-06 0)
(0.009972093 -3.338726e-06 -2.585772e-26)
(0.009975064 -5.241673e-06 -6.152778e-26)
(0.01000797 -2.00049e-05 0)
(0.009975393 -2.855388e-05 1.383979e-25)
(0.009974554 -2.462625e-05 4.908966e-26)
(0.009981456 -2.892281e-06 0)
(0.00993647 -1.932729e-05 2.960043e-25)
(0.01002335 -2.149644e-05 5.385746e-26)
(0.009968512 -5.190233e-05 0)
(0.009977683 -2.760549e-06 0)
(0.009904635 1.531436e-05 -4.941487e-25)
(0.01005394 -6.407012e-05 3.035513e-25)
(0.009971859 -9.270042e-06 -4.036915e-27)
(0.009981177 -2.059786e-06 0)
(0.00998642 -6.195418e-06 6.827345e-27)
(0.009939577 3.160335e-06 0)
(0.009991224 -7.993788e-05 -7.92136e-26)
(0.009947737 -4.882974e-05 3.139603e-25)
(0.009988756 6.191626e-06 0)
(0.01001474 -9.058024e-06 4.506581e-28)
(0.01000073 -9.325656e-06 0)
(0.00991759 -1.162959e-05 4.772038e-25)
(0.009987352 -2.554471e-05 -9.224913e-26)
(0.009997952 -2.679364e-05 0)
(0.01000005 -1.138475e-05 3.929584e-27)
(0.009989769 -9.888638e-06 4.707793e-26)
(0.009983131 -8.934384e-06 -7.753936e-26)
(0.009979149 -2.70334e-06 0)
(0.00997883 -1.142886e-06 2.089092e-26)
(0.01002455 -2.064455e-05 -3.844721e-26)
(0.01001767 -3.173272e-05 -1.38832e-26)
(0.01003338 -4.755906e-05 0)
(0.009921178 -1.849503e-05 0)
(0.009927883 -2.330648e-05 0)
(0.00998984 -9.323978e-06 9.290613e-27)
(0.0100396 -2.512887e-05 0)
(0.009967929 -4.246217e-05 0)
(0.01002199 -9.093014e-05 -3.384177e-26)
(0.009996605 -1.263394e-05 3.316613e-27)
(0.01000082 -1.502673e-05 9.139399e-27)
(0.01002835 -2.703956e-05 9.51922e-26)
(0.009978678 -8.297694e-06 -5.590255e-26)
(0.01002609 -2.135067e-05 4.528104e-26)
(0.009979114 1.205099e-05 2.112462e-26)
(0.01003608 -6.522731e-05 -1.972749e-25)
(0.009885164 -2.623141e-05 -3.38154e-25)
(0.009963842 -4.849081e-05 -1.117143e-25)
(0.01001124 -1.003531e-05 1.766934e-27)
(0.009946729 -3.228968e-05 0)
(0.009994878 -1.123115e-05 2.093094e-26)
(0.00999047 -1.010893e-05 -4.906588e-28)
(0.009987714 -2.741471e-05 6.807339e-26)
(0.01005408 -5.577342e-05 -3.500622e-25)
(0.009993854 -3.466002e-05 0)
(0.009924109 1.557825e-06 4.980301e-25)
(0.009952062 1.961348e-05 0)
(0.009966809 -2.221859e-05 0)
(0.009959987 -2.321666e-05 1.475037e-25)
(0.009967475 -2.413579e-05 -1.691951e-25)
(0.009972353 -2.145544e-05 -1.751608e-25)
(0.01003552 -1.660365e-05 0)
(0.00999992 -8.638535e-06 0)
(0.009972417 1.051689e-06 -1.120039e-25)
(0.01005212 -5.156538e-05 4.947018e-25)
(0.009980234 -9.539356e-07 -2.604468e-26)
(0.00996839 -2.495546e-05 -1.764014e-25)
(0.009977347 1.051323e-05 0)
(0.01000681 -3.558658e-05 2.744786e-27)
(0.009979389 -5.409983e-06 4.002138e-26)
(0.009982555 -5.28865e-06 2.128475e-26)
(0.009992536 -7.071462e-05 8.399196e-26)
(0.009970844 1.324681e-05 -1.122833e-25)
(0.009976548 -6.089047e-07 -9.421423e-26)
(0.009985012 -5.081014e-05 4.810934e-26)
(0.01001668 -4.3497e-05 -1.036989e-26)
(0.01002119 -4.504602e-05 8.629151e-26)
(0.0100473 -3.210601e-05 9.015497e-26)
(0.009941341 -5.635012e-05 2.180364e-25)
(0.01001151 -1.665348e-05 -1.426994e-26)
(0.009980139 8.847707e-06 3.114575e-26)
(0.009940747 -7.268434e-05 -3.954773e-25)
(0.01001041 -1.945703e-05 0)
(0.01000716 -2.525714e-05 0)
(0.01002075 -2.173196e-05 0)
(0.009937425 -1.316264e-05 -2.862079e-25)
(0.009963999 -3.37814e-08 3.188802e-25)
(0.009966849 3.440364e-07 1.562288e-26)
(0.009965465 -8.293009e-06 1.43773e-25)
(0.009940007 -4.600881e-05 -1.684069e-25)
(0.009981976 -4.794846e-06 -1.163476e-26)
(0.01000019 -1.319073e-05 -1.198379e-26)
(0.009999217 -1.199635e-05 -5.73018e-27)
(0.009944616 -3.861015e-06 2.869e-26)
(0.009938811 1.561503e-06 1.933102e-25)
(0.009974003 -1.415096e-05 8.446616e-26)
(0.009939882 -1.101028e-05 3.186842e-25)
(0.009939525 -6.181787e-06 3.235089e-25)
(0.009941612 -5.906991e-06 0)
(0.01000769 -1.035932e-05 -3.49945e-27)
(0.009893075 1.791673e-05 1.312211e-25)
(0.01001936 -2.026006e-05 3.370096e-26)
(0.009978614 2.368641e-06 -3.549144e-26)
(0.009980928 1.763975e-06 3.406885e-28)
(0.009981835 -1.092605e-05 0)
(0.009928356 -1.801057e-05 0)
(0.009966422 -3.033118e-05 -1.788088e-25)
(0.01000283 -1.01825e-05 0)
(0.009985074 1.00396e-05 2.630097e-26)
(0.01001985 -7.978098e-05 -6.451938e-27)
(0.01000344 -4.839787e-05 -3.260867e-26)
(0.01000757 -4.818102e-05 0)
(0.01000697 -3.214296e-05 0)
(0.01000364 -1.243711e-05 -3.11909e-28)
(0.009937449 1.171285e-05 2.747976e-25)
(0.009988571 -3.655327e-05 -1.728601e-26)
(0.009964027 -1.470116e-05 1.206383e-25)
(0.009977979 4.234689e-06 0)
(0.009980155 9.575823e-06 -8.229051e-26)
(0.009980092 6.922348e-06 0)
(0.00996986 -4.272038e-05 0)
(0.009983365 -2.370283e-06 -1.23125e-26)
(0.01000766 -1.705642e-05 0)
(0.009921731 3.144276e-05 -3.498775e-25)
(0.01001309 -1.907885e-05 0)
(0.01002914 -3.399986e-05 -5.411763e-26)
(0.01000957 -2.337465e-05 0)
(0.01000898 -2.155513e-05 -1.214732e-27)
(0.010016 -8.834189e-05 1.317949e-26)
(0.00997308 -1.385893e-07 1.523868e-25)
(0.009990483 -6.343364e-06 8.519225e-27)
(0.009988094 -3.928898e-05 -9.573332e-26)
(0.009968068 -3.817802e-05 -2.259938e-25)
(0.009980392 1.108973e-05 0)
(0.009968425 -1.040521e-05 -3.324358e-25)
(0.009977727 -1.070754e-05 -5.743892e-26)
(0.009959251 -1.320645e-05 -3.401095e-27)
(0.009980595 -4.877482e-06 2.803576e-26)
(0.009959319 -1.815446e-06 -4.173718e-26)
(0.01003676 -4.514842e-05 -1.360882e-25)
(0.009973995 3.55843e-06 -2.64267e-26)
(0.009965191 1.083527e-05 -8.665341e-26)
(0.009997638 -1.091597e-05 1.215902e-27)
(0.009949602 -4.058362e-05 2.321463e-25)
(0.00995917 -1.450359e-05 -1.842229e-25)
(0.009962095 -9.547339e-06 0)
(0.009975652 -1.391675e-05 1.484043e-25)
(0.009975249 -1.13861e-05 7.156831e-27)
(0.009955538 -1.07251e-05 0)
(0.009955547 -4.982404e-06 0)
(0.009972902 -1.193409e-05 0)
(0.009987616 -1.885241e-05 7.353477e-26)
(0.009980995 -7.217366e-07 -2.347679e-26)
(0.009960906 -4.075723e-07 5.031917e-25)
(0.00996743 1.188201e-06 0)
(0.00998115 -3.492819e-06 0)
(0.009980929 -5.124566e-05 0)
(0.009915793 -1.757645e-05 -3.445814e-25)
(0.009967312 -2.16525e-06 -1.306942e-25)
(0.009903586 2.148548e-05 5.403334e-25)
(0.009973757 6.134555e-06 -4.528756e-26)
(0.009986701 -5.415049e-06 0)
(0.01000108 -1.855887e-05 -1.171843e-26)
(0.009982877 6.980088e-06 -3.030677e-27)
(0.009980661 8.442862e-06 0)
(0.009982046 8.951862e-06 -2.205451e-26)
(0.009978962 1.569219e-06 -2.966655e-27)
(0.009980907 9.889597e-06 0)
(0.0100496 -4.434244e-05 0)
(0.009947304 -2.486664e-05 -2.286943e-25)
(0.009971487 3.759273e-06 -9.567748e-26)
(0.009924954 7.715268e-06 -3.942779e-25)
(0.01001788 -3.835924e-05 -2.844752e-26)
(0.01001569 -8.236223e-06 0)
(0.01001274 -1.446248e-05 -3.246513e-27)
(0.01001273 -1.375549e-05 0)
(0.009978642 1.627335e-07 0)
(0.009980646 -1.115939e-05 -2.206214e-26)
(0.01002653 -5.441357e-05 6.708126e-26)
(0.01002246 -6.541416e-05 -3.356467e-26)
(0.009982481 7.189197e-06 0)
(0.01000063 -1.682768e-05 -1.678047e-26)
(0.00994974 -1.824257e-05 1.644317e-25)
(0.00994633 -8.552299e-06 1.873614e-25)
(0.009950387 -3.045257e-06 1.90976e-25)
(0.01000003 -1.181264e-05 2.217114e-27)
(0.01002058 -1.67681e-05 5.074543e-27)
(0.009997866 -1.673066e-05 3.092177e-26)
(0.009998825 -1.563185e-05 -1.302401e-26)
(0.01000926 -7.807693e-05 3.474164e-26)
(0.009982046 4.662877e-06 -3.006055e-26)
(0.00998135 6.23033e-06 3.994036e-26)
(0.009982924 5.029416e-06 0)
(0.009981874 5.613195e-06 -1.982355e-26)
(0.009979119 6.730576e-06 -5.364042e-26)
(0.01001163 -3.08766e-05 -1.429541e-26)
(0.009962167 7.214505e-06 2.246071e-26)
(0.009996689 -1.33314e-05 -3.123799e-26)
(0.01001025 -1.499597e-05 -4.819658e-27)
(0.009938881 -6.240558e-05 6.508417e-25)
(0.009960761 8.453809e-06 -2.124393e-25)
(0.009968197 8.952357e-06 6.755975e-26)
(0.01000006 -1.063744e-05 1.784052e-28)
(0.01000309 -1.166527e-05 -1.161414e-28)
(0.009999181 -9.093724e-06 0)
(0.01001706 -6.528223e-05 -3.755786e-28)
(0.009992914 -1.386952e-05 1.028023e-26)
(0.009992111 -1.080816e-05 -9.738872e-27)
(0.009983501 -5.477403e-06 0)
(0.009982555 -7.617693e-06 0)
(0.01002909 -4.18496e-05 0)