/*--------------------------------*- C++ -*----------------------------------*\
| =========                 |                                                 |
| \\      /  F ield         | OpenFOAM: The Open Source CFD Toolbox           |
|  \\    /   O peration     | Version:  2406                                  |
|   \\  /    A nd           | Website:  www.openfoam.com                      |
|    \\/     M anipulation  |                                                 |
\*---------------------------------------------------------------------------*/
FoamFile
{
    version     2.0;
    format      ascii;
    arch        "LSB;label=32;scalar=64";
    class       volScalarField;
    location    "2.24";
    object      p;
}
// * * * * * * * * * * * * * * * * * * * * * * * * * * * * * * * * * * * * * //

dimensions      [0 2 -2 0 0 0 0];

internalField   nonuniform List<scalar> 
217010
(
-137.0555
-85.16378
-91.40143
-91.11123
-88.57299
-84.27039
-84.8588
-85.0564
-84.71366
-83.87733
-82.91074
-82.96237
-83.16165
-83.16514
-82.05736
-80.03731
-83.48272
-87.59841
-92.45122
-97.20534
-101.8982
-106.5514
-108.6445
-108.1823
-102.9279
-95.93921
-98.56119
-106.8619
-110.1066
-111.1409
-115.4676
-122.6111
-129.8594
-135.5899
-139.1858
-140.2867
-139.7209
-137.3214
-132.5062
-125.2763
-116.9794
-108.8913
-100.3517
-91.15276
-81.50615
-72.44386
-66.49211
-63.10092
-61.27657
-57.51224
-62.31301
-60.69682
-62.26455
-61.94747
-61.44427
-60.6472
-58.91857
-55.79614
-52.07773
-48.93727
-47.92322
-47.83236
-47.60443
-48.12239
-48.95696
-49.78161
-50.6887
-51.73036
-52.84624
-54.06821
-55.41094
-56.90282
-58.50829
-60.19715
-61.96417
-63.80882
-65.68025
-67.56437
-69.45012
-71.2954
-73.16956
-75.06015
-76.88049
-78.59334
-80.20293
-81.82395
-83.36764
-84.82252
-86.09906
-87.34249
-88.54858
-89.55117
-90.4359
-91.19137
-91.74264
-92.06545
-92.16642
-92.058
-91.69294
-91.05108
-90.10321
-88.88874
-87.56683
-86.535
-86.45881
-85.90365
-82.08203
-75.42596
-80.38434
-101.3609
-100.5724
-77.50032
-63.32383
-60.26566
-59.725
-56.52532
-49.25793
-37.88233
-41.47003
-71.61157
-86.62851
-74.61987
-56.92318
-45.18281
-39.31703
-35.34439
-30.9531
-29.01862
-30.38104
-31.31292
-32.70403
-39.41152
-47.25681
-52.71727
-56.99177
-59.8656
-59.02051
-57.24425
-56.05417
-53.01538
-47.81486
-40.95214
-35.70471
-34.11914
-37.72659
-48.3421
-65.10509
-82.57911
-107.0258
-112.6843
-335.6509
-260.5105
-218.8833
-179.5751
-161.0705
-143.7512
-120.8665
-95.64819
-79.53641
-70.23567
-60.98587
-63.26232
-77.95109
-80.62177
-70.71021
-59.41924
-48.74348
-39.0203
-37.858
-58.50073
-84.55775
-109.1054
-131.184
-150.5704
-166.4199
-177.127
-183.0744
-184.1238
-179.3887
-170.4333
-162.2577
-160.4869
-156.4462
-146.1392
-137.9436
-134.534
-133.2817
-132.5769
-133.587
-134.3276
-135.2353
-132.7392
-132.6509
-134.0276
-132.781
-133.1395
-134.1267
-136.8125
-129.9089
-206.9168
-105.1724
-92.66294
-77.31982
-68.45631
-60.87762
-54.66765
-49.34428
-44.54192
-40.38994
-36.64326
-33.26035
-30.18268
-27.29295
-24.5798
-22.05377
-19.72428
-17.55413
-15.47942
-13.50695
-11.63285
-9.846582
-8.157391
-6.565992
-5.01204
-3.500507
-2.029292
-0.6280835
0.6946914
1.964652
3.208607
4.432838
5.630891
6.766631
7.862891
8.946407
10.0053
11.05273
12.08513
13.10823
14.06709
15.06944
16.00998
16.94154
17.84988
18.74911
19.62825
20.49312
21.35657
22.23065
23.09551
23.93957
24.76623
25.58661
26.41754
27.25136
28.07866
28.89297
29.70553
30.51014
31.30217
32.07888
32.83763
33.54948
34.12541
34.42693
34.39337
34.14372
33.91554
33.83298
34.21114
29.83785
53.84917
51.57194
51.49761
50.55933
49.58226
48.6435
47.6734
46.71617
45.82866
44.96762
44.05092
43.11251
42.19202
41.30748
40.43747
39.56553
38.6822
37.7966
36.93279
36.0768
35.20655
34.33436
33.47256
32.59741
31.72692
30.84329
29.92471
29.02057
28.13508
27.24222
26.32649
25.37648
24.45317
23.49915
22.51768
21.53286
20.5424
19.51861
18.48002
17.43997
16.37663
15.25785
14.09177
12.92791
11.76824
10.56349
9.30473
8.008707
6.655776
5.251193
3.808539
2.319089
0.8061706
-0.8051928
-2.520872
-4.300518
-6.182591
-8.150642
-10.26494
-12.54855
-14.96881
-17.55793
-20.43449
-23.61561
-27.21033
-31.17891
-35.74643
-41.31931
-47.74328
-58.48416
-67.23247
53.08786
51.6582
51.55748
50.67683
49.7014
48.75613
47.78187
46.81656
45.91994
45.05525
44.13765
43.19607
42.27003
41.38016
40.50628
39.6315
38.74548
37.85639
36.98907
36.13018
35.25752
34.38268
33.51837
32.64078
31.76832
30.88274
29.96246
29.05571
28.16768
27.27293
26.35576
25.40367
24.47911
23.52263
22.53936
21.55294
20.56093
19.53542
18.49532
17.45366
16.38891
15.26825
14.1003
12.93489
11.7738
10.56705
9.306631
8.009092
6.654003
5.246903
3.801688
2.309612
0.7948699
-0.8209209
-2.540642
-4.323961
-6.211235
-8.183581
-10.30518
-12.59668
-15.02384
-17.62203
-20.51042
-23.70374
-27.32595
-31.31581
-35.91778
-41.5314
-48.08096
-58.80368
-68.89246
-107.5692
-93.11247
-77.80146
-68.74741
-61.11337
-54.85245
-49.49843
-44.65685
-40.48841
-36.72778
-33.33051
-30.24304
-27.34457
-24.62283
-22.08872
-19.75236
-17.57777
-15.49853
-13.52161
-11.64371
-9.854143
-8.161301
-6.567818
-5.011955
-3.498414
-2.025024
-0.621556
0.7028724
1.974458
3.22015
4.446135
5.645987
6.783395
7.880929
8.966213
10.02667
11.076
12.11008
13.13497
14.09691
15.10002
16.04184
16.97507
17.88523
18.78603
19.66697
20.53389
21.39999
22.27632
23.14288
23.98856
24.81722
25.64047
26.47424
27.3105
28.13967
28.95616
29.77073
30.5769
31.36997
32.14718
32.90422
33.60777
34.16418
34.43714
34.37883
34.11589
33.89455
33.85389
33.92757
32.71012
-309.5083
-268.4246
-223.1683
-182.6663
-162.7418
-145.7948
-123.328
-97.81347
-80.80692
-71.05362
-61.2078
-62.88918
-77.3684
-80.77658
-71.24788
-60.06013
-49.32801
-39.26239
-37.67856
-57.89616
-83.86102
-108.4736
-130.6554
-150.1652
-166.1179
-176.9434
-183.0563
-184.2298
-179.5736
-170.6062
-162.3281
-160.5359
-156.519
-146.1665
-137.9328
-134.5265
-133.2825
-132.5761
-133.603
-134.3408
-135.2358
-132.728
-132.6653
-134.0338
-132.7771
-133.1788
-134.196
-136.8279
-131.9029
-192.2846
-61.96082
-60.70688
-62.19069
-62.00777
-61.5318
-60.804
-59.21985
-56.17255
-52.41016
-49.12034
-47.97211
-47.84631
-47.59157
-48.07408
-48.89275
-49.71574
-50.61873
-51.65564
-52.76821
-53.98667
-55.32488
-56.81302
-58.41668
-60.10538
-61.87302
-63.71964
-65.59454
-67.48305
-69.37386
-71.22386
-73.10223
-74.9979
-76.8241
-78.53736
-80.16227
-81.78436
-83.33292
-84.79305
-86.07319
-87.32134
-88.53407
-89.53985
-90.4287
-91.18748
-91.74153
-92.0668
-92.16973
-92.0636
-91.70104
-91.06228
-90.11725
-88.90459
-87.58049
-86.54847
-86.4631
-85.89618
-82.03743
-75.43489
-80.54266
-101.6222
-100.537
-77.27543
-63.16799
-60.21019
-59.65938
-56.43577
-49.11646
-37.83203
-42.13914
-72.33444
-86.83716
-74.1802
-56.41529
-44.84865
-39.11129
-35.1782
-30.84822
-29.02737
-30.45007
-31.40954
-32.99337
-39.92342
-47.68967
-53.06
-57.25359
-59.95837
-58.92141
-57.10246
-55.87852
-52.60572
-47.24841
-40.43551
-35.45243
-34.25076
-38.46043
-49.85712
-67.13683
-85.20285
-108.5331
-122.5884
-127.0172
-86.48851
-91.54084
-91.20624
-88.73466
-84.32349
-84.84617
-85.06155
-84.7287
-83.89198
-82.91626
-82.95971
-83.16347
-83.17851
-82.07523
-80.06666
-83.51029
-87.61992
-92.48166
-97.25653
-101.9576
-106.6406
-108.7536
-108.2114
-102.8442
-95.97213
-98.74961
-107.0493
-110.1966
-111.2623
-115.7265
-122.9617
-130.1944
-135.8168
-139.2904
-140.2871
-139.5953
-137.0238
-132.0266
-124.6671
-116.299
-108.1563
-99.53373
-90.24596
-80.58711
-71.69517
-65.99344
-62.80389
-60.98186
-57.51741
-116.7112
-87.12102
-91.70478
-91.31113
-89.01506
-84.3986
-84.83022
-85.07158
-84.74654
-83.90073
-82.90173
-82.95731
-83.17146
-83.2059
-82.11725
-80.14986
-83.59006
-87.67495
-92.53748
-97.28726
-102.0062
-106.8024
-109.0613
-108.3727
-102.5999
-95.93057
-99.02603
-107.2579
-110.2214
-111.4484
-116.2295
-123.6186
-130.7091
-136.1321
-139.4946
-140.4009
-139.7091
-137.1196
-132.0493
-124.5624
-116.0947
-107.9453
-99.27169
-89.90308
-80.20441
-71.29764
-65.74474
-62.68979
-60.82998
-57.54072
-61.84577
-60.68701
-62.14478
-62.02574
-61.54216
-60.84267
-59.27413
-56.33102
-52.62717
-49.27582
-48.02742
-47.87138
-47.58649
-48.06001
-48.87329
-49.69356
-50.59637
-51.6331
-52.74258
-53.96056
-55.29671
-56.78571
-58.3899
-60.07914
-61.84751
-63.69672
-65.57262
-67.46344
-69.35684
-71.20494
-73.08606
-74.98551
-76.81708
-78.54908
-80.15217
-81.77562
-83.32978
-84.79594
-86.07276
-87.32684
-88.5436
-89.5454
-90.43862
-91.19908
-91.75166
-92.07932
-92.18419
-92.08186
-91.72553
-91.09794
-90.17006
-88.98478
-87.69347
-86.66546
-86.47835
-85.77973
-81.90349
-75.26057
-80.704
-102.0214
-100.7205
-77.13475
-63.11642
-60.24785
-59.69114
-56.36915
-48.94805
-37.72206
-42.91383
-73.69529
-87.54339
-74.05924
-56.07326
-44.60338
-38.99298
-35.09995
-30.82598
-29.09974
-30.55836
-31.45802
-33.18037
-40.33536
-48.06732
-53.32187
-57.47689
-59.99981
-58.89947
-57.14164
-55.89597
-52.55944
-47.05635
-40.17952
-35.3345
-34.48169
-39.15273
-50.98983
-68.39766
-86.44431
-109.861
-126.3306
-286.0647
-269.1339
-227.0628
-185.1764
-164.0331
-147.0893
-125.2094
-99.25496
-81.3987
-71.59889
-61.64154
-62.72058
-77.23233
-81.11551
-71.85664
-60.6271
-49.71364
-39.70132
-37.72785
-57.56015
-83.5465
-108.2413
-130.5296
-150.1203
-166.1696
-177.0654
-183.2778
-184.4935
-180.0399
-171.1881
-162.7235
-160.6516
-156.6116
-146.1957
-137.9092
-134.5162
-133.2921
-132.5743
-133.648
-134.372
-135.2638
-132.7359
-132.6903
-134.0548
-132.7751
-133.2192
-134.1567
-136.8305
-132.6169
-176.885
-107.4293
-93.41038
-78.02572
-68.89739
-61.22702
-54.93849
-49.56334
-44.72521
-40.52855
-36.76457
-33.36006
-30.26939
-27.36852
-24.64252
-22.10495
-19.76463
-17.59024
-15.50894
-13.53009
-11.65046
-9.860035
-8.16428
-6.571093
-5.014131
-3.499379
-2.024483
-0.6191049
0.7054099
1.977005
3.223068
4.449572
5.651194
6.789414
7.885731
8.972033
10.03272
11.08402
12.11901
13.14423
14.0997
15.10713
16.0504
16.98466
17.8946
18.79605
19.67713
20.54416
21.41012
22.2881
23.15594
24.00164
24.8303
25.65325
26.48829
27.32584
28.15649
28.97327
29.78896
30.59633
31.39074
32.16912
32.92683
33.62862
34.17924
34.43869
34.36412
34.10098
33.89057
33.83438
33.90511
33.86618
52.61969
51.65939
51.55926
50.71196
49.73902
48.79107
47.81163
46.84198
45.94516
45.08258
44.16247
43.21916
42.28985
41.39886
40.5241
39.64938
38.76185
37.87049
37.00328
36.14445
35.27029
34.39483
33.53095
32.65138
31.7805
30.8947
29.97083
29.06416
28.17649
27.28172
26.36208
25.41003
24.48651
23.53201
22.54631
21.55945
20.56727
19.53983
18.49948
17.4585
16.39422
15.27166
14.10168
12.93631
11.77603
10.56786
9.306814
8.008857
6.651678
5.24315
3.796653
2.303642
0.7900651
-0.828817
-2.550459
-4.33401
-6.224651
-8.196734
-10.32296
-12.61767
-15.04645
-17.64778
-20.54132
-23.75596
-27.37185
-31.37746
-35.99675
-41.63894
-48.23241
-59.00766
-68.70675
51.95315
51.64444
51.59033
50.81685
49.8547
48.9036
47.92044
46.94681
46.04411
45.17743
44.25457
43.30975
42.37633
41.48098
40.60226
39.72433
38.83402
37.93912
37.06926
36.20662
35.32908
34.4512
33.58485
32.70176
31.82981
30.94129
30.01332
29.10633
28.21591
27.31899
26.39678
25.45126
24.51346
23.56055
22.57122
21.58362
20.59034
19.55925
18.5179
17.47603
16.41086
15.28435
14.11133
12.94544
11.78521
10.57359
9.311067
8.011995
6.651073
5.24039
3.791513
2.295836
0.7833561
-0.8426128
-2.568648
-4.353742
-6.251935
-8.225034
-10.36116
-12.66401
-15.09785
-17.70698
-20.61789
-23.84037
-27.47181
-31.50426
-36.15639
-41.83043
-48.53086
-59.18899
-68.89844
-107.6792
-93.67564
-78.44607
-69.15555
-61.44955
-55.10785
-49.69756
-44.83553
-40.62531
-36.84459
-33.42429
-30.32603
-27.41746
-24.68185
-22.13656
-19.78727
-17.61122
-15.52474
-13.54146
-11.65794
-9.865478
-8.164112
-6.571556
-5.012355
-3.495182
-2.017543
-0.6080704
0.7176514
1.990095
3.23701
4.465001
5.670246
6.811397
7.906522
8.995379
10.057
11.11196
12.14799
13.17109
14.14668
15.14301
16.08756
17.02429
17.93599
18.83899
19.72261
20.5918
21.45944
22.33947
23.20978
24.05726
24.88787
25.71234
26.54905
27.38846
28.22046
29.03749
29.85305
30.66014
31.45272
32.22741
32.97663
33.66242
34.19315
34.43008
34.3364
34.0672
33.86648
33.85285
33.9354
35.38681
-270.7014
-274.9564
-231.6155
-188.8802
-166.1994
-149.4902
-127.9845
-101.6238
-82.6525
-72.37249
-62.11625
-62.4073
-76.75723
-81.46229
-72.77703
-61.6362
-50.53489
-40.42368
-37.98904
-57.27623
-83.21271
-107.9081
-130.2777
-149.9629
-166.0719
-176.9701
-183.2579
-184.8231
-180.6326
-172.1013
-163.596
-160.8448
-156.4889
-146.1096
-137.8268
-134.4864
-133.3035
-132.5621
-133.7303
-134.4258
-135.2996
-132.7801
-132.7532
-134.0978
-132.7594
-133.2684
-134.0998
-136.7238
-134.5659
-166.2663
-61.71655
-60.68704
-62.0977
-62.10785
-61.66483
-61.01651
-59.65788
-56.73675
-52.99845
-49.50601
-48.11507
-47.91631
-47.57826
-48.03553
-48.82191
-49.63004
-50.52994
-51.56237
-52.66493
-53.87986
-55.20983
-56.69596
-58.2966
-59.98371
-61.75151
-63.603
-65.48017
-67.37529
-69.27355
-71.12307
-73.01204
-74.91904
-76.756
-78.46147
-80.11174
-81.73431
-83.29348
-84.76756
-86.04054
-87.30539
-88.5293
-89.52754
-90.42921
-91.19364
-91.74914
-92.08095
-92.19345
-92.09774
-91.75115
-91.13872
-90.23371
-89.08825
-87.85422
-86.84812
-86.50683
-85.62426
-81.90057
-75.58712
-81.31913
-102.2878
-100.7367
-77.09813
-63.25029
-60.38592
-59.61989
-56.11199
-48.61486
-37.49808
-43.97422
-75.51565
-88.37886
-73.8809
-55.61001
-44.26615
-38.80113
-34.9482
-30.782
-29.22106
-30.70663
-31.59846
-33.58593
-41.00473
-48.62733
-53.7287
-57.77255
-60.08451
-58.8887
-57.20242
-55.81121
-52.18297
-46.61999
-39.83785
-35.23911
-34.86405
-40.181
-52.77356
-70.61059
-89.08796
-111.9031
-132.9184
-109.46
-88.55911
-91.48099
-91.10347
-89.41132
-84.52392
-84.79824
-85.09403
-84.77898
-83.91801
-82.89197
-82.95596
-83.19331
-83.26132
-82.20109
-80.30909
-83.74601
-87.7823
-92.63216
-97.33741
-102.1054
-107.0668
-109.6113
-108.6741
-101.9732
-95.70209
-99.37352
-107.6278
-110.3614
-111.97
-117.2124
-124.5447
-131.3069
-136.4474
-139.6734
-140.3973
-139.4648
-136.6845
-131.512
-123.954
-115.3917
-107.2035
-98.47945
-89.05768
-79.40915
-70.61164
-65.28779
-62.45109
-60.61921
-57.58939
-104.1962
-89.92901
-90.94256
-90.63324
-89.91076
-84.68609
-84.73885
-85.13267
-84.83231
-83.94238
-82.85929
-82.95604
-83.23819
-83.35621
-82.34755
-80.57167
-84.00722
-87.9735
-92.78713
-97.40394
-102.2427
-107.4434
-110.3824
-109.1028
-101.0196
-95.20679
-99.57253
-107.7332
-110.659
-113.0922
-118.6432
-125.6787
-132.0585
-136.9117
-140.0481
-140.6446
-139.7662
-136.8229
-131.3844
-123.5925
-114.8418
-106.6549
-97.86161
-88.31966
-78.66829
-69.92386
-64.869
-62.23237
-60.42626
-57.69128
-61.55774
-60.68497
-62.03068
-62.16817
-61.70205
-61.11418
-59.85966
-57.14311
-53.44607
-49.80331
-48.24011
-47.99099
-47.57157
-48.02688
-48.78721
-49.58226
-50.48161
-51.51138
-52.60495
-53.81989
-55.14407
-56.63097
-58.2305
-59.91786
-61.68646
-63.54364
-65.42288
-67.32463
-69.22989
-71.07528
-72.97207
-74.88682
-76.73117
-78.46893
-80.09966
-81.72036
-83.28478
-84.7703
-86.03255
-87.31319
-88.54788
-89.53819
-90.45279
-91.22158
-91.78008
-92.11608
-92.23282
-92.13167
-91.79556
-91.19829
-90.31567
-89.20973
-88.02827
-87.03304
-86.53218
-85.50127
-82.18248
-76.75201
-82.60012
-101.9009
-99.93461
-77.13371
-63.74555
-60.78377
-59.6735
-55.90904
-48.26261
-37.44834
-45.61247
-77.84514
-89.60376
-73.87624
-55.13004
-43.91361
-38.59488
-34.76045
-30.72185
-29.38815
-30.84805
-31.86566
-34.33318
-42.04548
-49.39276
-54.27904
-58.09613
-60.10832
-58.87934
-57.29981
-55.81753
-51.96908
-46.2664
-39.5816
-35.25723
-35.46492
-41.56026
-55.01924
-73.21305
-91.72305
-113.8778
-136.3764
-254.3741
-274.7482
-236.8587
-193.6255
-169.2161
-152.4074
-131.8547
-105.6743
-84.80079
-73.20848
-62.43913
-61.82347
-75.92973
-81.68549
-74.03265
-63.18668
-51.51085
-41.57997
-38.71559
-57.23705
-83.11047
-107.7304
-130.1759
-150.0027
-166.2268
-177.1497
-183.715
-185.4292
-181.473
-173.3047
-164.8341
-161.0706
-156.0013
-145.7936
-137.6474
-134.4044
-133.3031
-132.5282
-133.8428
-134.5096
-135.3473
-132.8618
-132.8921
-134.1833
-132.7074
-133.3452
-134.0202
-136.5213
-136.5163
-158.9157
-107.8449
-93.79159
-78.80583
-69.38579
-61.65629
-55.2645
-49.82616
-44.9477
-40.70345
-36.91757
-33.48262
-30.37956
-27.4666
-24.7223
-22.16875
-19.80804
-17.63466
-15.54449
-13.55737
-11.66974
-9.875683
-8.166468
-6.577324
-5.016204
-3.497552
-2.017477
-0.6023289
0.7231229
1.994265
3.24202
4.471869
5.681495
6.824884
7.916102
9.008413
10.07008
11.12943
12.16485
13.18381
14.15426
15.16105
16.10697
17.04544
17.9569
18.86133
19.74638
20.6159
21.48302
22.36659
23.24051
24.08852
24.91961
25.7441
26.58375
27.42631
28.26096
29.07881
29.89592
30.70404
31.49656
32.26982
33.01276
33.68374
34.19574
34.41244
34.30895
34.05916
33.90324
33.95662
34.22625
37.28576
51.24885
51.5717
51.59278
50.89184
49.9394
48.98832
47.99666
47.01478
46.10948
45.24599
44.31798
43.36963
42.42775
41.52901
40.64764
39.76889
38.87484
37.97454
37.1048
36.24163
35.36063
34.48093
33.61509
32.72682
31.85815
30.96849
30.03317
29.1264
28.23509
27.33848
26.4135
25.45753
24.52963
23.57891
22.58427
21.5964
20.60291
19.56794
18.52721
17.48662
16.42172
15.28991
14.11303
12.94883
11.79049
10.57434
9.311206
8.012227
6.646312
5.233379
3.782297
2.284587
0.7770083
-0.8590641
-2.58982
-4.374645
-6.280834
-8.250306
-10.39873
-12.70903
-15.14377
-17.75712
-20.68303
-23.92717
-27.56578
-31.62064
-36.30242
-42.00681
-48.78483
-59.27044
-68.9412
50.45334
51.41239
51.5531
50.96126
50.04632
49.10078
48.10001
47.1165
46.21333
45.35286
44.41819
43.47283
42.52509
41.62247
40.7364
39.85829
38.96103
38.05301
37.18139
36.31504
35.42909
34.547
33.68113
32.78496
31.9199
31.02897
30.08333
29.17873
28.28424
27.38539
26.45506
25.51385
24.56875
23.61867
22.61811
21.63027
20.6335
19.58902
18.54725
17.50916
16.44816
15.30791
14.12097
12.95807
11.80577
10.5821
9.317107
8.020119
6.646975
5.229491
3.772167
2.270513
0.7758392
-0.8735733
-2.610173
-4.397501
-6.316805
-8.276465
-10.44429
-12.76642
-15.20443
-17.81792
-20.76376
-24.03396
-27.6806
-31.75964
-36.4761
-42.20214
-49.04332
-59.26769
-68.96312
-108.0417
-93.77998
-79.1558
-69.62024
-61.90422
-55.45481
-49.98106
-45.07938
-40.79963
-37.01344
-33.55373
-30.44309
-27.52847
-24.76879
-22.20044
-19.82581
-17.66422
-15.56823
-13.57356
-11.67727
-9.880968
-8.161518
-6.578999
-5.014291
-3.494157
-2.006793
-0.5820388
0.7394454
2.010566
3.263317
4.494448
5.706551
6.854426
7.940407
9.038632
10.09907
11.16496
12.20055
13.22206
14.21656
15.20571
16.15215
17.09482
18.0081
18.9154
19.80165
20.67149
21.54061
22.43036
23.30782
24.15407
24.98591
25.80933
26.65099
27.49454
28.33101
29.14694
29.95916
30.7648
31.55363
32.31921
33.04765
33.69497
34.18699
34.39267
34.30237
34.12324
34.0995
34.28292
34.91802
39.17012
-232.7216
-270.3545
-241.9015
-199.6334
-173.6584
-156.5864
-136.9562
-111.4192
-88.34644
-74.2651
-62.36105
-60.62479
-74.23613
-81.41766
-75.46231
-65.26928
-52.88059
-43.5393
-40.24717
-57.51676
-83.26245
-107.7685
-130.2607
-150.2101
-166.5815
-177.4788
-184.2233
-186.2124
-182.5831
-174.8247
-166.3588
-161.4015
-155.2828
-145.254
-137.3385
-134.2291
-133.2701
-132.4587
-133.9533
-134.624
-135.3376
-132.9546
-133.1564
-134.3354
-132.5719
-133.4442
-133.9817
-136.11
-137.5256
-151.6477
-61.4169
-60.68763
-61.98541
-62.30443
-61.87734
-61.3078
-60.28816
-57.66526
-54.0293
-50.23649
-48.44362
-48.11751
-47.56771
-48.03023
-48.74983
-49.52036
-50.41901
-51.44552
-52.52048
-53.73337
-55.04829
-56.5372
-58.13143
-59.81671
-61.58358
-63.445
-65.32085
-67.22832
-69.14218
-70.98156
-72.89226
-74.81883
-76.67199
-78.38326
-80.04896
-81.67735
-83.25393
-84.7568
-85.99756
-87.30529
-88.54724
-89.52086
-90.46112
-91.23179
-91.79059
-92.12811
-92.24381
-92.15374
-91.84324
-91.26655
-90.41041
-89.34857
-88.21809
-87.22435
-86.57883
-85.44292
-82.62133
-78.46256
-83.82214
-99.70135
-97.32578
-77.01225
-64.62005
-61.40589
-59.79631
-55.77891
-48.14551
-37.96039
-48.1367
-80.66229
-90.97027
-73.90682
-54.60602
-43.54993
-38.37093
-34.51054
-30.61682
-29.52593
-30.89142
-32.31484
-35.50513
-43.41159
-50.40539
-55.00238
-58.39342
-60.02725
-58.87408
-57.42526
-55.77072
-51.70693
-45.9406
-39.45429
-35.50993
-36.42742
-43.47458
-58.0005
-76.44989
-94.8189
-115.9463
-139.814
-99.02595
-90.56808
-90.13857
-90.27064
-90.63195
-84.89882
-84.625
-85.19253
-84.92312
-83.98181
-82.80583
-82.95625
-83.31614
-83.50619
-82.60053
-80.99421
-84.40179
-88.27892
-93.02074
-97.49607
-102.4367
-107.9813
-111.4005
-109.7348
-99.79618
-94.42798
-99.1984
-107.6066
-111.3184
-114.6773
-120.3099
-126.9624
-132.9367
-137.4019
-140.4203
-140.6534
-139.3986
-136.4889
-130.9788
-123.0464
-114.0983
-105.9565
-97.08749
-87.41595
-77.80662
-69.13856
-64.36835
-61.97241
-60.25169
-57.87559
-93.55198
-90.16553
-89.28211
-90.03206
-91.32024
-85.30939
-84.39801
-85.28504
-85.09381
-84.07504
-82.71428
-82.94728
-83.44392
-83.74869
-83.02569
-81.66928
-84.93826
-88.69689
-93.31029
-97.61352
-102.6669
-108.6934
-112.7693
-110.6613
-98.46921
-93.59492
-98.92198
-107.6267
-112.4151
-116.5032
-122.1604
-128.4892
-134.0766
-138.06
-141.101
-141.1247
-139.9401
-136.5192
-130.6856
-122.5518
-113.2519
-105.0838
-96.1101
-86.30691
-76.82505
-68.27872
-63.72424
-61.68365
-60.10567
-58.15788
-61.32832
-60.7041
-61.95405
-62.45733
-61.98149
-61.45669
-60.68152
-58.31943
-54.82063
-50.92617
-48.83076
-48.33287
-47.58968
-48.07321
-48.72347
-49.45506
-50.3493
-51.3834
-52.43537
-53.64453
-54.94325
-56.4448
-58.03234
-59.71722
-61.48909
-63.36627
-65.23936
-67.15669
-69.07686
-70.90438
-72.84272
-74.78426
-76.66095
-78.3708
-80.02631
-81.65923
-83.24739
-84.78511
-85.97738
-87.34688
-88.60029
-89.52033
-90.50969
-91.28543
-91.84312
-92.18681
-92.3118
-92.23872
-91.93125
-91.37509
-90.54443
-89.52895
-88.44866
-87.45144
-86.67939
-85.46795
-83.07572
-80.10781
-84.33789
-95.99532
-93.60195
-76.76189
-65.74736
-62.1095
-59.94468
-55.83806
-48.59585
-39.61052
-51.79269
-83.5414
-92.08809
-73.46779
-54.04652
-43.26829
-38.1158
-34.1062
-30.41979
-29.55771
-30.76334
-32.97407
-37.13303
-45.07082
-51.72741
-55.9462
-58.63817
-59.87395
-58.92291
-57.58266
-55.75654
-51.43192
-45.66415
-39.48657
-36.19146
-38.13759
-46.46812
-62.31146
-80.68805
-98.32491
-117.6257
-139.4049
-208.3431
-260.2842
-244.6418
-206.2593
-180.1489
-162.6563
-143.6874
-119.0707
-93.96088
-76.18435
-62.5802
-58.64746
-71.35363
-80.40434
-76.83237
-67.9772
-54.85701
-46.61842
-42.61547
-58.24169
-83.60809
-108.2417
-130.8191
-150.6868
-167.0795
-177.9873
-185.1232
-187.3723
-184.05
-176.7036
-168.2003
-161.9565
-154.5824
-144.6715
-136.9835
-133.9735
-133.1685
-132.349
-134.0018
-134.6921
-135.3352
-133.1345
-133.649
-134.5913
-132.3751
-133.4061
-134.0018
-135.6345
-137.2555
-143.8809
-108.0249
-93.53821
-79.44105
-69.82284
-62.19493
-55.64835
-50.11922
-45.20992
-40.91806
-37.12425
-33.61083
-30.51173
-27.604
-24.81055
-22.23192
-19.85909
-17.71353
-15.59131
-13.58581
-11.67701
-9.889126
-8.164495
-6.584527
-5.018804
-3.497069
-1.991277
-0.572041
0.7428014
2.024158
3.276125
4.493894
5.70989
6.879947
7.953383
9.058444
10.11485
11.19172
12.22853
13.24795
14.2363
15.2264
16.17966
17.13061
18.04407
18.94919
19.83438
20.71274
21.58398
22.47204
23.34823
24.19894
25.03645
25.85962
26.70379
27.55011
28.39763
29.20609
30.01505
30.82882
31.61527
32.36995
33.07826
33.69419
34.1699
34.37739
34.31548
34.23293
34.32893
34.75699
36.00744
40.90118
49.54582
51.08622
51.41712
50.97972
50.14849
49.23137
48.21054
47.21647
46.31487
45.45929
44.50187
43.55703
42.60311
41.70349
40.80508
39.92389
39.02577
38.11503
37.24669
36.37367
35.48003
34.59614
33.73046
32.82315
31.96403
31.06465
30.10883
29.20962
28.31615
27.42123
26.48131
25.52048
24.58214
23.63351
22.62889
21.65421
20.66216
19.60707
18.5615
17.51726
16.46386
15.32494
14.12814
12.95496
11.81249
10.58619
9.314143
8.019917
6.64563
5.228196
3.761172
2.239959
0.7632074
-0.9012232
-2.628522
-4.42005
-6.366076
-8.301167
-10.4954
-12.81876
-15.27379
-17.88731
-20.84737
-24.13873
-27.79373
-31.89942
-36.65322
-42.38744
-49.25373
-59.09717
-68.69484
48.65153
50.61637
51.186
50.92102
50.2336
49.41271
48.37455
47.35461
46.47986
45.66632
44.70711
43.72129
42.72722
41.84121
40.96331
40.05858
39.12672
38.19779
37.35563
36.48183
35.57016
34.69228
33.83384
32.89387
32.09836
31.15693
30.17114
29.28723
28.36383
27.49656
26.54516
25.61028
24.69187
23.70326
22.64319
21.67393
20.69125
19.64135
18.61943
17.56097
16.46575
15.32903
14.17294
12.98645
11.81484
10.60796
9.333087
8.000249
6.628892
5.229199
3.794136
2.251052
0.7540056
-0.9712846
-2.663083
-4.424924
-6.444104
-8.335046
-10.60204
-12.8638
-15.33341
-18.03435
-21.00777
-24.31159
-27.97215
-32.11356
-36.93401
-42.68608
-49.57695
-58.86505
-68.6295
-107.6682
-93.26558
-79.93664
-70.18114
-62.67661
-55.8187
-50.31725
-45.4566
-41.14559
-37.21855
-33.64965
-30.64163
-27.70029
-24.8446
-22.31344
-19.9395
-17.72423
-15.56562
-13.59385
-11.68373
-9.938102
-8.191107
-6.559056
-5.045336
-3.480542
-1.966385
-0.6025953
0.7786102
2.069455
3.28196
4.488328
5.772896
6.982141
7.981493
9.108213
10.15676
11.25769
12.28642
13.29272
14.27763
15.30086
16.26762
17.21122
18.11637
19.00782
19.92199
20.81417
21.65649
22.52702
23.44746
24.32189
25.14314
25.9577
26.78843
27.65677
28.51357
29.28342
30.11694
30.94358
31.70159
32.43283
33.11354
33.69619
34.18126
34.41454
34.39613
34.45341
34.73917
35.67718
37.68746
42.35738
-184.5538
-240.8124
-239.5735
-210.4274
-188.1719
-172.0102
-153.1042
-129.3984
-102.8465
-80.67037
-63.65492
-54.43888
-68.02551
-79.00796
-78.25786
-71.7062
-57.9262
-50.05422
-45.2673
-60.33463
-85.19185
-109.3747
-132.1958
-151.796
-167.6349
-178.4387
-186.5613
-189.1174
-186.0064
-179.0606
-170.4815
-163.0687
-154.1622
-144.0656
-136.5963
-133.5794
-132.9194
-132.1717
-134.0615
-134.8161
-135.3729
-133.5948
-134.6448
-135.0063
-132.1729
-134.4464
-133.959
-134.7893
-135.5643
-136.4375
-61.26878
-60.71625
-61.94556
-62.68066
-62.30271
-61.68605
-61.19383
-59.12275
-55.82647
-51.80067
-49.44217
-48.64719
-47.62552
-48.21466
-48.73292
-49.3957
-50.24358
-51.28721
-52.32083
-53.53382
-54.77933
-56.30801
-57.87968
-59.54486
-61.30402
-63.21421
-65.08186
-67.03565
-68.95259
-70.71591
-72.71
-74.64164
-76.57661
-78.33531
-79.98721
-81.61548
-83.18417
-84.78986
-85.88592
-87.33326
-88.70233
-89.50251
-90.53955
-91.34487
-91.89754
-92.23998
-92.36899
-92.30086
-92.00575
-91.49666
-90.69431
-89.7289
-88.70198
-87.70516
-86.84698
-85.5806
-83.54317
-81.49477
-84.53416
-92.51558
-90.07108
-76.41555
-66.78138
-63.01746
-60.22814
-55.96639
-49.48653
-42.54124
-56.06398
-85.81885
-92.96155
-72.25193
-53.15301
-43.03045
-37.78763
-33.22678
-29.85856
-29.36774
-30.41134
-33.97644
-39.25619
-47.16322
-53.65109
-57.04847
-58.80579
-59.772
-59.05672
-57.58302
-55.52714
-51.21631
-45.53542
-39.73294
-37.43575
-40.90271
-51.08863
-68.20176
-86.34187
-102.4101
-119.1082
-138.0659
-88.38536
-88.36502
-88.73101
-90.53061
-93.30009
-85.78663
-84.0045
-85.42186
-85.45293
-84.32047
-82.58667
-82.90704
-83.62728
-84.05382
-83.62376
-82.63113
-85.60006
-89.19083
-93.50602
-97.56487
-102.9178
-109.1168
-114.2623
-112.2326
-97.2249
-93.45816
-99.14923
-108.3912
-114.1023
-118.618
-124.3196
-130.299
-135.4348
-138.7442
-141.9961
-141.222
-139.5455
-136.2163
-130.2889
-121.8409
-111.8081
-103.4274
-94.75321
-85.00252
-75.74661
-67.28126
-63.02018
-61.4583
-59.99479
-58.50498
-0.3665776
-0.08563502
5.25977
4.545437
-1.678329
-2.475395
2.713934
4.851303
0.5140152
-10.11684
-18.7549
-7.084819
-0.1332612
-0.2231174
3.678475
5.288565
6.110513
-1.214454
2.652791
-7.409631
1.016465
2.522655
-0.4416516
2.590533
-1.0495
4.731264
2.424302
3.966189
4.38676
-2.219218
-1.577258
-1.303757
2.704759
-1.835861
3.353747
-25.3552
-5.032313
4.848077
-3.631091
4.422844
4.456745
-0.105317
-0.9785703
-1.493702
1.797292
-113.5633
-1.070914
-0.119439
-0.269943
4.558129
0.09116806
-2.581731
-0.4215093
-8.325951
3.918894
-12.87362
-0.6238546
-1.739651
-3.55563
-0.08668636
-5.160307
1.860993
-2.436895
-5.185342
4.882204
-8.967633
-1.950502
-23.40206
12.49321
1.147941
-11.4876
-4.838746
3.624962
4.246728
1.909781
1.756221
1.494542
1.039744
-0.4707757
1.695576
-14.9136
0.456704
-35.33211
-2.32816
-49.66525
-6.487614
7.27271
-0.5109067
-2.303438
-0.6286945
6.041746
6.311237
5.123066
3.93592
-14.90082
0.2743063
5.332359
3.094327
-44.51995
-10.63134
-4.437902
-23.35097
3.770765
-75.60287
3.546983
4.587802
-5.662652
4.222831
0.378692
4.906089
-11.03642
-58.54469
0.7073627
1.735825
6.077848
1.585599
-2.30417
-30.76819
10.00864
3.778116
-1.260407
2.305208
-2.320564
-0.320756
4.366609
-2.942202
-0.2074675
10.05904
-14.25711
-8.716156
9.87307
6.225116
4.529124
0.9362537
2.983433
-5.515072
-0.3654009
-45.25093
1.006261
4.635874
4.529178
4.833627
4.893382
-2.440746
-2.087323
-3.416346
3.085113
-1.306603
-2.023382
-16.51663
-24.25596
-25.47121
-2.156756
4.623116
4.528032
4.602053
-4.35668
8.213111
0.1413271
0.2676605
-28.59241
4.744841
-0.2596613
-0.3726707
6.293767
-6.799222
-0.8624127
5.616632
-2.466365
4.303525
0.1000245
-42.21224
0.7220291
0.9199769
-1.922485
0.09126113
-1.659834
0.4896261
-2.593647
-30.50112
-6.081428
5.102711
4.180547
3.332385
-0.8203418
3.870651
4.936652
4.661345
6.715517
-4.51171
-0.7996061
-5.411564
0.6585236
6.171386
-20.41082
-1.177065
-0.2579578
-6.124318
8.072066
-1.072451
-44.37646
0.6230464
-0.7248118
5.947096
0.1297343
3.142007
0.9335204
7.921299
-3.009995
1.283726
2.425747
1.603971
3.290305
4.359083
-0.963176
-6.511213
0.8263659
-2.585136
4.097946
-28.85206
5.508983
-0.570053
4.398786
4.439144
15.62172
-45.7089
1.797825
-18.93356
3.152663
-0.1453287
-14.27964
0.4335698
3.436773
4.193154
-248.8478
-37.38011
4.295255
2.562311
-64.54709
-1.621278
3.593906
-51.48412
-1.943685
-2.105172
-16.97897
1.307303
2.815823
0.275371
-0.5479693
2.610845
2.624482
-140.0741
6.264499
-0.2088762
0.04375741
-4.416864
-2.153665
4.113556
0.07521825
-0.277939
4.556442
-17.80301
3.610821
-3.217637
4.171957
1.001644
5.454647
-9.082642
4.421985
1.483057
5.126785
5.644086
-2.458523
-0.5563139
6.234712
-272.3782
4.294806
3.71811
0.5581827
5.41723
0.2439172
-11.98759
-19.8101
-1.969421
6.700185