/*--------------------------------*- C++ -*----------------------------------*\
| =========                 |                                                 |
| \\      /  F ield         | OpenFOAM: The Open Source CFD Toolbox           |
|  \\    /   O peration     | Version:  2406                                  |
|   \\  /    A nd           | Website:  www.openfoam.com                      |
|    \\/     M anipulation  |                                                 |
\*---------------------------------------------------------------------------*/
FoamFile
{
    version     2.0;
    format      ascii;
    arch        "LSB;label=32;scalar=64";
    class       volScalarField;
    location    "0.84";
    object      p;
}
// * * * * * * * * * * * * * * * * * * * * * * * * * * * * * * * * * * * * * //

dimensions      [0 2 -2 0 0 0 0];

internalField   nonuniform List<scalar> 
217010
(
-88.19728
-46.83453
-54.83304
-55.92319
-51.58638
-48.26934
-48.42388
-48.02058
-48.1389
-48.16403
-48.1925
-48.19772
-48.14452
-47.98003
-47.77003
-47.7677
-47.64769
-47.54845
-47.46093
-47.55571
-47.80545
-47.96423
-47.96254
-47.91586
-47.7383
-47.30866
-46.68644
-45.79676
-45.23731
-45.15806
-44.71134
-44.25753
-43.73562
-43.00627
-42.00864
-40.7436
-39.6983
-39.21049
-38.99437
-40.02974
-43.75529
-49.8173
-56.01374
-60.38266
-61.66299
-60.20553
-57.71531
-57.76835
-52.84628
-60.80437
-59.35967
-68.10115
-68.58625
-67.8249
-67.89511
-68.68303
-69.43222
-70.18695
-70.84402
-71.31239
-71.56592
-71.60698
-71.4414
-71.08553
-70.54739
-69.85727
-69.00368
-67.98331
-66.81106
-65.49636
-64.02373
-62.39737
-60.65504
-58.81196
-56.85265
-54.75902
-52.53077
-50.20701
-47.83519
-45.39793
-42.90984
-40.38933
-37.79747
-35.12836
-32.42781
-29.74093
-27.08826
-24.44099
-21.89781
-19.40089
-16.8602
-14.48418
-12.2494
-10.10015
-8.078052
-6.118406
-4.286333
-2.656993
-1.186087
0.09385455
1.215657
2.117645
2.838386
3.36033
3.70969
3.862297
3.829884
3.600517
3.187547
2.598276
1.848418
0.9101798
-0.1637947
-1.383421
-2.73383
-4.173714
-5.733856
-7.444171
-9.152743
-10.89214
-12.69339
-14.50537
-16.33371
-18.18787
-20.02991
-21.78257
-23.47585
-25.15771
-26.80259
-28.3249
-29.74578
-31.08539
-32.31122
-33.39479
-34.3525
-35.19639
-35.90358
-36.49093
-37.03344
-37.58651
-38.09
-38.29745
-37.93145
-37.19238
-37.81619
-40.42519
-41.4806
-38.58406
-34.54805
-28.59432
-31.97278
-27.89799
-35.12332
-35.11538
-38.01969
-38.01658
-34.05523
-26.84124
-18.9876
-12.67008
-8.712588
-7.673782
-10.70402
-13.85951
-17.06192
-18.73229
-18.45253
-17.42466
-18.57593
-20.67546
-19.23751
-17.73091
-18.30033
-20.83417
-21.76918
-20.5448
-21.46795
-23.10622
-22.44497
-19.80963
-16.38701
-13.59454
-16.68385
-20.13663
-22.28426
-22.74198
-22.41843
-21.8853
-21.35346
-21.69216
-22.39997
-22.46989
-22.51039
-22.67
-22.75244
-22.78656
-22.01323
-24.49314
-21.85167
-52.73901
-14.39568
-12.4002
-7.415211
-4.629485
-2.037878
0.1452835
2.089294
3.911724
5.498537
6.997
8.383455
9.674994
10.91321
12.09826
13.22324
14.28137
15.2892
16.27097
17.21954
18.13575
19.0236
19.87578
20.69265
21.50358
22.30352
23.09223
23.85257
24.58185
25.29234
25.99778
26.70108
27.39765
28.0654
28.71812
29.37147
30.01647
30.65926
31.29859
31.9441
32.56317
33.20664
33.81942
34.4315
35.03715
35.64324
36.24177
36.83389
37.43076
38.04138
38.65277
39.25413
39.84771
40.4428
41.05911
41.68825
42.31219
42.93875
43.57623
44.21972
44.87587
45.53615
46.19465
46.88233
47.63657
48.42097
49.20542
49.99048
50.75741
51.61001
52.77772
54.48948
50.55895
49.3437
48.41953
47.26536
46.1259
45.10442
44.12711
43.18833
42.332
41.52164
40.67466
39.80816
38.9644
38.16392
37.3852
36.60741
35.82149
35.03766
34.27706
33.52619
32.76476
32.00401
31.2539
30.49475
29.7421
28.98074
28.19461
27.41931
26.66284
25.90354
25.12761
24.3129
23.53815
22.73398
21.91215
21.0915
20.26942
19.42133
18.56257
17.70619
16.83622
15.92751
14.98104
14.03737
13.10402
12.14218
11.14005
10.11521
9.052834
7.954995
6.833436
5.680876
4.520345
3.295062
2.000403
0.6665271
-0.7321759
-2.182904
-3.72568
-5.376826
-7.111434
-8.942734
-10.95262
-13.12656
-15.58267
-18.23179
-21.21755
-24.81349
-28.75055
-35.57458
-39.22066
50.827
49.50565
48.54955
47.40835
46.25902
45.22288
44.23525
43.28688
42.42068
41.60462
40.7555
39.88574
39.03638
38.23009
37.4472
36.66636
35.87772
35.09051
34.32655
33.57283
32.80908
32.04593
31.29345
30.53206
29.77762
29.01455
28.22639
27.44912
26.69051
25.92948
25.15194
24.33465
23.56063
22.7534
21.93001
21.10796
20.28457
19.43503
18.57502
17.71726
16.8461
15.93582
14.9878
14.04284
13.10839
12.14494
11.14144
10.11546
9.051357
7.951533
6.827993
5.673405
4.511661
3.283053
1.98544
0.6489348
-0.7534651
-2.207115
-3.754954
-5.411587
-7.150705
-8.987662
-11.00434
-13.18602
-15.66166
-18.3222
-21.32886
-24.94648
-28.96443
-35.72702
-40.3619
-15.28685
-12.50551
-7.573271
-4.726008
-2.12061
0.07842477
2.029992
3.868211
5.460589
6.962511
8.354092
9.649064
10.89053
12.07894
13.20727
14.26821
15.2778
16.26155
17.21217
18.13011
19.01955
19.87352
20.6914
21.50336
22.30434
23.09427
23.85589
24.58612
25.2976
26.00406
26.70845
27.40614
28.075
28.72861
29.38312
30.02916
30.6732
31.31388
31.96166
32.58042
33.22583
33.83985
34.45342
35.06046
35.66789
36.26785
36.8616
37.46042
38.07296
38.68603
39.28884
39.88434
40.48205
41.10113
41.73281
42.3591
42.98844
43.62902
44.27592
44.93525
45.59861
46.26193
46.95705
47.7188
48.5085
49.29617
50.08457
50.85945
51.74449
52.96495
54.40667
-32.08958
-27.85512
-34.72012
-34.96067
-38.07241
-38.40276
-34.69299
-27.52232
-19.55266
-13.04624
-8.884911
-7.658406
-10.54705
-13.68576
-16.93519
-18.72344
-18.48613
-17.41247
-18.50582
-20.68828
-19.29932
-17.75678
-18.27808
-20.80522
-21.77795
-20.54192
-21.45861
-23.14365
-22.50005
-19.85026
-16.42429
-13.62191
-16.69933
-20.15116
-22.30344
-22.75335
-22.41824
-21.87635
-21.34952
-21.69781
-22.40642
-22.47368
-22.5148
-22.67576
-22.75757
-22.7736
-22.05065
-24.48948
-22.59042
-47.9876
-58.81483
-67.48283
-68.52517
-67.85362
-67.84592
-68.5952
-69.35685
-70.12664
-70.80445
-71.29547
-71.5656
-71.62112
-71.46995
-71.1279
-70.60168
-69.92338
-69.08068
-68.06819
-66.90174
-65.59269
-64.1254
-62.50152
-60.75933
-58.91683
-56.95833
-54.86504
-52.63534
-50.30759
-47.93231
-45.49148
-42.9987
-40.4758
-37.88146
-35.20092
-32.49759
-29.80429
-27.14704
-24.4925
-21.94226
-19.44321
-16.89519
-14.51224
-12.27358
-10.11922
-8.093467
-6.130272
-4.293853
-2.661994
-1.189003
0.09235767
1.215683
2.118291
2.839437
3.361456
3.710363
3.86199
3.828317
3.596793
3.181309
2.588996
1.835539
0.8925131
-0.1854561
-1.410601
-2.766185
-4.21019
-5.776372
-7.496941
-9.208596
-10.95361
-12.76121
-14.57746
-16.41153
-18.27183
-20.11678
-21.87013
-23.56609
-25.25246
-26.89977
-28.42016
-29.83974
-31.1775
-32.39824
-33.47348
-34.42537
-35.26352
-35.96413
-36.54704
-37.08894
-37.64021
-38.12607
-38.28631
-37.86544
-37.19059
-38.00784
-40.59913
-41.34157
-38.10919
-33.93848
-28.41714
-81.8029
-47.68271
-54.63454
-56.06127
-51.74645
-48.31306
-48.42512
-48.02438
-48.13801
-48.16391
-48.19245
-48.19855
-48.14635
-47.981
-47.77082
-47.76824
-47.64791
-47.54856
-47.46088
-47.55759
-47.80906
-47.96689
-47.96396
-47.91817
-47.7371
-47.29957
-46.66805
-45.77512
-45.22476
-45.15015
-44.6954
-44.23501
-43.71004
-42.96508
-41.95188
-40.69096
-39.66558
-39.20025
-39.0205
-40.18156
-44.10884
-50.32523
-56.5386
-60.78936
-61.80562
-60.07504
-57.56775
-57.48772
-53.10826
-61.32121
-74.21162
-48.01732
-54.34439
-56.1942
-51.92123
-48.36445
-48.42588
-48.02904
-48.13798
-48.16392
-48.19265
-48.19965
-48.14847
-47.98137
-47.77176
-47.76958
-47.64854
-47.54932
-47.46068
-47.56061
-47.81492
-47.97037
-47.9661
-47.9256
-47.74533
-47.30222
-46.66158
-45.7674
-45.21763
-45.15104
-44.69264
-44.23462
-43.70013
-42.95367
-41.93308
-40.66463
-39.64932
-39.19914
-39.05164
-40.31992
-44.39275
-50.65835
-56.7707
-60.88745
-61.99792
-60.15555
-57.54806
-57.41884
-53.42975
-61.59669
-58.78574
-67.20542
-68.56419
-67.94791
-67.88037
-68.60325
-69.36639
-70.12871
-70.79783
-71.28936
-71.56482
-71.62547
-71.47761
-71.13927
-70.61193
-69.93062
-69.09014
-68.08054
-66.91701
-65.61083
-64.14704
-62.52397
-60.78371
-58.94273
-56.98661
-54.8965
-52.66968
-50.34165
-47.96581
-45.52514
-43.03106
-40.50806
-37.91196
-35.23977
-32.52924
-29.83276
-27.17583
-24.5191
-21.96453
-19.4683
-16.91665
-14.52928
-12.29037
-10.13278
-8.105403
-6.140538
-4.299901
-2.66696
-1.193245
0.08872661
1.21442
2.117332
2.838985
3.3611
3.709793
3.860196
3.825554
3.592136
3.175004
2.580857
1.825645
0.8793075
-0.1996811
-1.427997
-2.785507
-4.230173
-5.802961
-7.523556
-9.23491
-10.98226
-12.7914
-14.60711
-16.4428
-18.30461
-20.14869
-21.89892
-23.59536
-25.28282
-26.92667
-28.44244
-29.86339
-31.20101
-32.41993
-33.50028
-34.45902
-35.30468
-36.01036
-36.59951
-37.14587
-37.68612
-38.13898
-38.26092
-37.84023
-37.23698
-38.1572
-40.74714
-41.31298
-37.95577
-33.65606
-28.35504
-32.05567
-27.84407
-34.55525
-35.01149
-38.20924
-38.56993
-34.91627
-27.92779
-19.96549
-13.37657
-9.095678
-7.703373
-10.49096
-13.61806
-16.96225
-18.80209
-18.60177
-17.44195
-18.47569
-20.72431
-19.3895
-17.8103
-18.26899
-20.83498
-21.83468
-20.60519
-21.53972
-23.24439
-22.57234
-19.91283
-16.50064
-13.69552
-16.75023
-20.18978
-22.3421
-22.77998
-22.42684
-21.86719
-21.3421
-21.70616
-22.41566
-22.48213
-22.52343
-22.68488
-22.76325
-22.75389
-22.06219
-24.52742
-22.87222
-42.15247
-15.38481
-12.58723
-7.63968
-4.77226
-2.158046
0.04913068
2.007651
3.840895
5.446911
6.948673
8.342546
9.638528
10.88055
12.07069
13.20041
14.26309
15.27214
16.25687
17.20833
18.12708
19.0169
19.87227
20.68978
21.50226
22.30392
23.09482
23.85756
24.58779
25.29923
26.00583
26.71058
27.40951
28.07898
28.73166
29.3868
30.03301
30.67844
31.31955
31.96585
32.58866
33.23006
33.84547
34.45996
35.06703
35.67501
36.27532
36.86902
37.46762
38.08142
38.69579
39.29866
39.89421
40.49124
41.1112
41.74494
42.37173
43.00078
43.64291
44.29017
44.95023
45.61468
46.27878
46.97406
47.74079
48.53477
49.32173
50.11078
50.8857
51.79205
53.06212
54.29412
50.95274
49.57208
48.58615
47.44419
46.29466
45.25559
44.26065
43.30533
42.43934
41.62732
40.77601
39.90397
39.05124
38.24461
37.46159
36.68138
35.89122
35.10196
34.33854
33.58519
32.81997
32.05645
31.30444
30.54118
29.78834
29.02479
28.23375
27.45619
26.6981
25.93692
25.1568
24.34461
23.56609
22.7613
21.93594
21.11336
20.28991
19.43859
18.57833
17.72114
16.85051
15.93869
14.98882
14.04375
13.11023
12.14561
11.14149
10.11533
9.049547
7.948572
6.824014
5.668684
4.508098
3.277112
1.978006
0.641506
-0.7634175
-2.216616
-3.767842
-5.426684
-7.16675
-9.005249
-11.02465
-13.22296
-15.69224
-18.36255
-21.37956
-25.01316
-29.05666
-35.83556
-40.39378
51.11689
49.72947
48.7049
47.57802
46.43628
45.38669
44.37988
43.41792
42.54515
41.72576
40.86972
39.99483
39.13791
38.32549
37.53757
36.75269
35.95931
35.16612
34.3998
33.64211
32.8734
32.10743
31.35277
30.58623
29.83212
29.06595
28.27101
27.49308
26.7326
25.96958
25.18641
24.37496
23.58968
22.78685
21.95778
21.13405
20.30969
19.45501
18.59397
17.73599
16.86475
15.9495
14.99678
14.05115
13.11814
12.15058
11.14504
10.11821
9.049363
7.946585
6.820113
5.662633
4.503314
3.266872
1.964389
0.6270151
-0.7835347
-2.237028
-3.795457
-5.459984
-7.203371
-9.046218
-11.07652
-13.28241
-15.75776
-18.44612
-21.4833
-25.13318
-29.24648
-35.92692
-40.52712
-15.55021
-12.66042
-7.781423
-4.85774
-2.236717
-0.0126441
1.958735
3.796446
5.409725
6.915901
8.31545
9.614047
10.85877
12.05293
13.18587
14.25249
15.26176
16.24907
17.20262
18.12324
19.01412
19.87241
20.68934
21.50295
22.30593
23.09856
23.86367
24.59458
25.30666
26.01367
26.71937
27.42063
28.09218
28.74419
29.40101
30.04799
30.69618
31.33894
31.98329
32.61392
33.2532
33.87012
34.48652
35.09535
35.70461
36.30722
36.9028
37.50328
38.11892
38.73565
39.34046
39.93865
40.53833
41.16038
41.7977
42.42725
43.05917
43.70444
44.3554
45.01835
45.68656
46.35601
47.05642
47.82896
48.62859
49.41547
50.20296
50.98246
51.91303
53.17232
54.12348
-31.6998
-27.67069
-34.16869
-35.37811
-38.59262
-39.11163
-35.64182
-28.68556
-20.62122
-13.86555
-9.409475
-7.810437
-10.43576
-13.5025
-16.90752
-18.88994
-18.80266
-17.57361
-18.49869
-20.81137
-19.53606
-17.88844
-18.23572
-20.82274
-21.92363
-20.78217
-21.76754
-23.42351
-22.69748
-20.02222
-16.63512
-13.83412
-16.85016
-20.2625
-22.40811
-22.8206
-22.44713
-21.86549
-21.34537
-21.72669
-22.42974
-22.49624
-22.53867
-22.70221
-22.77104
-22.72048
-22.07758
-24.56999
-23.62046
-37.38479
-58.24542
-66.25797
-68.30141
-68.05913
-67.99829
-68.66009
-69.40251
-70.14739
-70.80658
-71.29886
-71.58266
-71.65696
-71.52428
-71.20613
-70.7
-70.03217
-69.20157
-68.20397
-67.04183
-65.73895
-64.27946
-62.65516
-60.91168
-59.06998
-57.11321
-55.02157
-52.79119
-50.45471
-48.07462
-45.63081
-43.1303
-40.60389
-37.99913
-35.32016
-32.60572
-29.89921
-27.24006
-24.57519
-22.00952
-19.51702
-16.95589
-14.5589
-12.31911
-10.1553
-8.125098
-6.157122
-4.308305
-2.67408
-1.199991
0.08214882
1.211361
2.114137
2.836533
3.358794
3.707428
3.856095
3.820424
3.584352
3.164835
2.567578
1.80955
0.85719
-0.2241015
-1.459101
-2.821367
-4.269248
-5.851391
-7.579922
-9.29375
-11.04868
-12.86515
-14.68418
-16.52697
-18.39705
-20.24746
-21.99716
-23.69755
-25.39289
-27.0437
-28.55769
-29.98208
-31.32369
-32.54084
-33.60777
-34.55496
-35.393
-36.09499
-36.68602
-37.2339
-37.75779
-38.17316
-38.26471
-37.87985
-37.42317
-38.43071
-40.83113
-40.98693
-37.3866
-32.96162
-28.0648
-68.27013
-48.8482
-53.91988
-56.41421
-52.22911
-48.43915
-48.42453
-48.03567
-48.13772
-48.16352
-48.19355
-48.20227
-48.15275
-47.98215
-47.77362
-47.77183
-47.65022
-47.55165
-47.46064
-47.56556
-47.82475
-47.9768
-47.96996
-47.93781
-47.76034
-47.31477
-46.66415
-45.76556
-45.21478
-45.14648
-44.68179
-44.20765
-43.67988
-42.91143
-41.88175
-40.62742
-39.63225
-39.20472
-39.09878
-40.51791
-44.82137
-51.22888
-57.34717
-61.46333
-62.38062
-60.52914
-57.66092
-57.02684
-53.75626
-61.54328
-64.15617
-49.68431
-53.51286
-56.78337
-52.65834
-48.55072
-48.42227
-48.04315
-48.1351
-48.16149
-48.19546
-48.20737
-48.16012
-47.98435
-47.77682
-47.7751
-47.65357
-47.55647
-47.46161
-47.57381
-47.8407
-47.98721
-47.97505
-47.95357
-47.77935
-47.3332
-46.67958
-45.78489
-45.22351
-45.14298
-44.67579
-44.21294
-43.66843
-42.88492
-41.84459
-40.59192
-39.62831
-39.22599
-39.16981
-40.78241
-45.38229
-51.93963
-57.99206
-61.86609
-62.83169
-61.02755
-57.83969
-56.51575
-53.90953
-60.5706
-57.76426
-65.35677
-67.78933
-68.08236
-68.1285
-68.72095
-69.43197
-70.15661
-70.80577
-71.29806
-71.5862
-71.66782
-71.53642
-71.20918
-70.70234
-70.03762
-69.22076
-68.23554
-67.08419
-65.78998
-64.34205
-62.72492
-60.98447
-59.14715
-57.1959
-55.10968
-52.88368
-50.54307
-48.16238
-45.71947
-43.21292
-40.68799
-38.08311
-35.40315
-32.68222
-29.96537
-27.30834
-24.63514
-22.05478
-19.57721
-17.00273
-14.5917
-12.35561
-10.18299
-8.149988
-6.178491
-4.317986
-2.685079
-1.210553
0.07042592
1.204406
2.107101
2.830526
3.353156
3.701851
3.848025
3.811246
3.571882
3.150183
2.549523
1.788176
0.8283816
-0.2532512
-1.497532
-2.862794
-4.309655
-5.906409
-7.644326
-9.354174
-11.11686
-12.93803
-14.75528
-16.60471
-18.48131
-20.33166
-22.07275
-23.77589
-25.47656
-27.1245
-28.62579
-30.0486
-31.3835
-32.58685
-33.64468
-34.60146
-35.46741
-36.17294
-36.77156
-37.32409
-37.83235
-38.21329
-38.2852
-37.97093
-37.71902
-38.74553
-40.67793
-40.35583
-36.82817
-32.64449
-27.72582
-30.58785
-27.14863
-33.53549
-35.87979
-39.05868
-39.51697
-36.37276
-29.59922
-21.44751
-14.51086
-9.862039
-8.024264
-10.43581
-13.4158
-16.93553
-19.05428
-19.11718
-17.88482
-18.62309
-20.94524
-19.73005
-17.96854
-18.15551
-20.76933
-22.00747
-21.1057
-22.1454
-23.6848
-22.88804
-20.19996
-16.85949
-14.06496
-17.02276
-20.38464
-22.51874
-22.88069
-22.48185
-21.87895
-21.3733
-21.76198
-22.45877
-22.51893
-22.56252
-22.72814
-22.78321
-22.6644
-22.10616
-24.63658
-24.38445
-34.12472
-15.744
-12.68068
-7.905167
-4.932958
-2.308934
-0.06899338
1.912121
3.751873
5.380256
6.886565
8.291353
9.59131
10.83712
12.03477
13.17107
14.24272
15.25011
16.23935
17.1946
18.11702
19.00869
19.871
20.68587
21.5005
22.30417
23.09835
23.86645
24.59721
25.30864
26.01603
26.72278
27.42686
28.09992
28.74954
29.40842
30.05546
30.70625
31.34893
31.99077
32.6251
33.26446
33.88217
34.49998
35.10886
35.71923
36.32315
36.919
37.51907
38.137
38.75658
39.3617
39.96061
40.56011
41.18429
41.82611
42.45658
43.08855
43.73816
44.39103
45.05583
45.72684
46.40009
47.1037
47.88767
48.69521
49.47634
50.2643
51.05664
52.01604
53.23628
53.88301
51.25366
49.86918
48.79372
47.66572
46.52913
45.47616
44.45222
43.4731
42.59554
41.78116
40.92046
40.04123
39.17596
38.36106
37.5718
36.7872
35.99083
35.19306
34.4276
33.67002
32.8984
32.13125
31.37716
30.60611
29.8551
29.08784
28.28687
27.5086
26.74774
25.98497
25.1994
24.38881
23.60092
22.80072
21.96757
21.14356
20.31933
19.46112
18.60073
17.74385
16.87328
15.95371
14.99733
14.05286
13.12221
12.15084
11.14442
10.11816
9.045291
7.940664
6.812494
5.653284
4.498439
3.254163
1.94807
0.6112201
-0.8053641
-2.255521
-3.822915
-5.492611
-7.236479
-9.080681
-11.12034
-13.34341
-15.8193
-18.52288
-21.57805
-25.24293
-29.41065
-35.946
-40.6359
51.35516
50.0206
48.90948
47.78575
46.6654
45.61975
44.58258
43.59404
42.71618
41.90213
41.03293
40.15269
39.28033
38.45923
37.66424
36.87761
36.07659
35.27019
34.50236
33.74059
32.96355
32.19397
31.43893
30.66056
29.91223
29.14295
28.33334
27.55594
26.79266
26.02796
25.23597
24.43071
23.63748
22.83672
21.99815
21.1737
20.34689
19.47986
18.61848
17.76305
16.89616
15.97004
15.00462
14.06034
13.13565
12.15816
11.14943
10.12539
9.046636
7.938205
6.805123
5.642246
4.498297
3.243605
1.933181
0.5946337
-0.8321441
-2.274208
-3.855971
-5.533792
-7.280404
-9.122786
-11.17532
-13.41868
-15.89641
-18.61609
-21.69306
-25.36811
-29.58188
-35.92794
-40.79061
-16.01141
-12.67931
-8.035858
-5.015348
-2.399575
-0.1397955
1.852556
3.69839
5.342075
6.846366
8.260767
9.563359
10.80926
12.01342
13.15605
14.23408
15.23534
16.22747
17.1862
18.11263
19.00562
19.87331
20.68451
21.50118
22.3055
23.10414
23.87742
24.60621
25.31782
26.02823
26.73598
27.44193
28.11776
28.76443
29.42706
30.07372
30.72829
31.37154
32.01607
32.66122
33.2949
33.91273
34.53362
35.1445
35.75752
36.36352
36.95978
37.56193
38.18504
38.80913
39.41397
40.01528
40.6159
41.24267
41.89079
42.52346
43.1581
43.81235
44.46615
45.13308
45.80863
46.48754
47.19061
47.98053
48.79423
49.56587
50.35644
51.15852
52.11317
53.22856
53.5588
-28.66747
-26.25146
-32.72354
-36.39047
-39.69596
-40.24732
-37.37957
-30.79578
-22.5584
-15.40001
-10.53578
-8.458709
-10.55265
-13.38298
-17.03432
-19.27585
-19.55639
-18.42386
-18.90234
-21.0864
-19.90797
-18.01405
-17.98962
-20.55295
-21.9843
-21.57007
-22.66082
-24.04326
-23.17459
-20.48097
-17.2403
-14.45886
-17.32874
-20.57958
-22.69426
-22.97428
-22.54199
-21.91321
-21.43795
-21.82142
-22.50959
-22.55501
-22.60294
-22.7709
-22.79871
-22.61106
-22.19311
-24.73587
-24.90168
-31.59028
-57.16097
-64.44658
-67.19783
-67.99259
-68.23399
-68.79362
-69.47843
-70.18477
-70.82678
-71.32479
-71.62307
-71.72519
-71.62566
-71.34606
-70.85781
-70.1905
-69.37273
-68.39332
-67.24247
-65.95003
-64.50836
-62.88979
-61.14371
-59.30371
-57.352
-55.26607
-53.04164
-50.68779
-48.29799
-45.85038
-43.33211
-40.81137
-38.20327
-35.51344
-32.78405
-30.04942
-27.39647
-24.71087
-22.11395
-19.66211
-17.05783
-14.63013
-12.40432
-10.21576
-8.178412
-6.202188
-4.328072
-2.701785
-1.227314
0.04834959
1.190773
2.094054
2.818881
3.342692
3.691507
3.83412
3.797409
3.552715
3.129619
2.525257
1.759424
0.7875244
-0.2903833
-1.550854
-2.921695
-4.359261
-5.974385
-7.730408
-9.431341
-11.20893
-13.03986
-14.85181
-16.7125
-18.60579
-20.46241
-22.19002
-23.9006
-25.61842
-27.27153
-28.76033
-30.19573
-31.53625
-32.73836
-33.80065
-34.77316
-35.62075
-36.30018
-36.89775
-37.44757
-37.93126
-38.27465
-38.33262
-38.09936
-38.03103
-38.96908
-40.32473
-39.61762
-36.25932
-32.29271
-27.27412
-60.66734
-50.25458
-53.28191
-57.33254
-53.19431
-48.68743
-48.42572
-48.0566
-48.12757
-48.15494
-48.19882
-48.2168
-48.17198
-47.99051
-47.783
-47.77994
-47.65962
-47.56455
-47.46551
-47.58703
-47.86525
-48.00386
-47.98353
-47.97829
-47.80466
-47.35808
-46.70952
-45.83526
-45.25098
-45.14219
-44.66844
-44.20374
-43.65747
-42.85783
-41.81798
-40.57059
-39.65723
-39.28882
-39.2939
-41.15006
-46.12073
-52.86341
-58.81858
-62.62011
-63.51756
-61.65846
-58.06748
-55.85991
-53.8334
-58.38925
-57.26679
-50.49874
-53.42895
-57.93777
-54.03754
-48.74311
-48.38237
-48.09141
-48.11434
-48.14198
-48.20283
-48.22994
-48.18656
-47.99812
-47.78944
-47.78881
-47.67092
-47.5781
-47.47406
-47.60821
-47.89984
-48.02505
-47.99621
-48.01367
-47.8383
-47.39318
-46.75393
-45.9103
-45.30116
-45.15025
-44.66008
-44.1781
-43.65728
-42.84381
-41.79288
-40.61269
-39.73484
-39.42094
-39.51452
-41.71317
-47.14843
-54.18411
-59.96898
-63.56955
-64.41121
-62.44095
-58.42726
-55.18165
-53.54807
-55.84862
-56.66279
-63.55735
-66.57176
-67.82983
-68.30682
-68.87367
-69.53498
-70.21666
-70.84284
-71.34202
-71.64015
-71.7539
-71.62013
-71.33603
-70.87264
-70.23457
-69.44951
-68.4943
-67.35016
-66.06342
-64.63977
-63.02554
-61.27509
-59.44009
-57.50024
-55.41979
-53.20164
-50.82516
-48.42646
-45.99055
-43.47495
-40.96413
-38.33784
-35.63385
-32.90781
-30.15008
-27.50304
-24.80613
-22.20431
-19.75486
-17.12133
-14.69184
-12.46236
-10.26165
-8.220794
-6.244323
-4.356683
-2.715944
-1.255118
0.008996924
1.171325
2.071082
2.798772
3.323263
3.674501
3.811777
3.779151
3.521468
3.095584
2.486255
1.724836
0.726127
-0.3392745
-1.611781
-3.00377
-4.441184
-6.052513
-7.838394
-9.526162
-11.31428
-13.16592
-14.96868
-16.83116
-18.73905
-20.61458
-22.32319
-24.02889
-25.75853
-27.42448
-28.8846
-30.32872
-31.66866
-32.85781
-33.89054
-34.8527
-35.70076
-36.41961
-37.02776
-37.57908
-38.03585
-38.34595
-38.40312
-38.25761
-38.32887
-39.11021
-39.92656
-38.91448
-35.7383
-31.99203
-27.02546
-26.60397
-25.2675
-31.86382
-36.91958
-40.48337
-41.15223
-38.68251
-32.41017
-24.12126
-16.6816
-11.56221
-9.280331
-10.89192
-13.49612
-17.27815
-19.64938
-20.17631
-19.21287
-19.36306
-21.15543
-19.97558
-18.02694
-17.69359
-20.06458
-21.7753
-22.11437
-23.30369
-24.52389
-23.60246
-20.93483
-17.84951
-15.16903
-17.87442
-20.9111
-22.94122
-23.09731
-22.6387
-21.9743
-21.55035
-21.91584
-22.58981
-22.62134
-22.68305
-22.84719
-22.84368
-22.41751
-22.18016
-24.82307
-25.08458
-29.27873
-16.28117
-12.61682
-8.145621
-5.085025
-2.50413
-0.2105538
1.79792
3.645778
5.294708
6.798793
8.234517
9.532558
10.77479
11.99329
13.13995
14.21714
15.2095
16.2143
17.17876
18.11119
19.00029
19.87072
20.67988
21.4973
22.30227
23.11165
23.88157
24.60658
25.32405
26.03447
26.73429
27.44246
28.13123
28.77114
29.43792
30.08259
30.74345
31.38885
32.0345
32.67235
33.30725
33.92854
34.55545
35.16728
35.77932
36.38461
36.98615
37.59128
38.21353
38.83628
39.44232
40.04955
40.65105
41.27926
41.9338
42.57265
43.20489
43.86087
44.51959
45.19397
45.87503
46.56137
47.26017
48.06333
48.89851
49.66105
50.45623
51.25291
52.16015
53.11619
53.14963
51.38576
50.16057
49.04397
47.92252
46.80626
45.76116
44.69162
43.68139
42.80186
41.99402
41.10198
40.21883
39.34092
38.52389
37.71936
36.92925
36.12818
35.31957
34.55606
33.78836
33.0041
32.23377
31.4787
30.6903
29.94869
29.1706
28.3529
27.57905
26.81738
26.05697
25.25583
24.43668
23.64945
22.84877
22.00558
21.19192
20.37008
19.49359
18.62972
17.76837
16.90762
15.98363
15.00992
14.05614
13.14025
12.16085
11.14556
10.12445
9.044882
7.936605
6.79632
5.617217
4.487843
3.221155
1.918658
0.5779134
-0.8699423
-2.292377
-3.893919
-5.571683
-7.331107
-9.171841
-11.23259
-13.49153
-15.97145
-18.70776
-21.80821
-25.484
-29.71938
-35.80964
-40.88224
51.29985
50.23229
49.18215
48.10159
47.02321
46.02092
44.89771
43.83835
42.97447
42.20575
41.30836
40.38984
39.46602
38.65781
37.87214
37.06288
36.22658
35.39992
34.66043
33.89137
33.08973
32.32439
31.57514
30.75642
30.06879
29.25676
28.41094
27.64999
26.86167
26.12523
25.31398
24.52324
23.73815
22.90877
22.01918
21.20967
20.39505
19.52254
18.67779
17.80786
16.91063
15.98743
15.04619
14.08363
13.14343
12.17883
11.16317
10.10959
9.032057
7.937516
6.821381
5.62763
4.482939
3.167269
1.891933
0.576306
-0.9277981
-2.316231
-3.972252
-5.604601
-7.370202
-9.273756
-11.34332
-13.61076
-16.09102
-18.84854
-21.99112
-25.67496
-29.93556
-35.65676
-40.92023
-16.50611
-12.59551
-8.333639
-5.211861
-2.67901
-0.2765535
1.717667
3.547559
5.204169
6.757143
8.215528
9.476155
10.73116
11.97627
13.10087
14.17851
15.20146
16.22489
17.17419
18.10683
18.97447
19.85602
20.69104
21.48192
22.30982
23.1249
23.86358
24.62505
25.34853
26.03707
26.72974
27.47848
28.19129
28.78825
29.46728
30.10816
30.78271
31.4251
32.06472
32.69862
33.35659
33.98743
34.61002
35.21814
35.82098
36.44688
37.06086
37.64741
38.25668
38.91081
39.53837
40.13679
40.73623
41.35256
42.03152
42.6853
43.28318
43.97063
44.6512
45.31244
45.99057
46.68223
47.37281
48.21138
49.08518
49.79161
50.55953
51.30774
52.13701
52.93443
52.69941
-25.09857
-24.37297
-31.01449
-37.3587
-41.32653
-42.25122
-40.4128
-34.71957
-26.24878
-18.43505
-12.99198
-10.35492
-11.46209
-13.84243
-17.7297
-20.16892
-21.00607
-20.34045
-20.09932
-21.15038
-19.85462
-18.06315
-17.21562
-19.22948
-21.43972
-22.77161
-24.06736
-25.16205
-24.22777
-21.67735
-18.60156
-16.30654
-18.62215
-21.47771
-23.44591
-23.27881
-22.77794
-22.06559
-21.73015
-22.07628
-22.77113
-22.74435
-22.80864
-22.96874
-22.84229
-22.4596
-21.71768
-24.42809
-24.71439
-27.16301
-56.44463
-62.69939
-65.90664
-67.56602
-68.31653
-68.93946
-69.60495
-70.2701
-70.882
-71.39855
-71.70752
-71.87489
-71.79618
-71.52598
-71.06006
-70.43604
-69.64155
-68.68376
-67.55669
-66.2803
-64.88414
-63.27431
-61.52486
-59.70292
-57.76903
-55.6784
-53.46655
-51.06929
-48.68799
-46.27576
-43.74774
-41.1634
-38.50512
-35.84083
-33.12504
-30.36045
-27.66947
-25.01624
-22.34903
-19.81042
-17.28527
-14.82593
-12.53281
-10.34735
-8.303602
-6.348414
-4.447085
-2.734325
-1.304238
-0.04525539
1.15303
2.031509
2.766965
3.286154
3.649355
3.77373
3.740004
3.470886
3.033785
2.425413
1.681121
0.6477932
-0.4164782
-1.66935
-3.086756
-4.603491
-6.214105
-7.982194
-9.694527
-11.46858
-13.33438
-15.18174
-17.04189
-18.92262
-20.80581
-22.54778
-24.27178
-25.97307
-27.64559
-29.10797
-30.54714
-31.8669
-33.05992
-34.11285
-35.07384
-35.96413
-36.62521
-37.22105
-37.77163
-38.20081
-38.47313
-38.52591
-38.4569
-38.62599
-39.22216
-39.51726
-38.15409
-35.1419
-31.71357
-27.33381
-54.21006
-50.22113
-54.07303
-58.86229
-55.49123
-48.48607
-48.21235
-48.09999
-48.08801
-48.10617
-48.21569
-48.27013
-48.21031
-48.02008
-47.79536
-47.79999
-47.69073
-47.60745
-47.48491
-47.65043
-47.9543
-48.0522
-48.01124
-48.0682
-47.86888
-47.43477
-46.81218
-46.02083
-45.37533
-45.17634
-44.65836
-44.18949
-43.67085
-42.8642
-41.91146
-40.73537
-39.85791
-39.56883
-39.82183
-42.69334
-48.91439
-56.18886
-61.82523
-65.04785
-65.604
-63.39656
-58.78431
-54.59526
-52.30494
-53.68627
-0.02279867
-0.005129843
-5.695681
2.341652
0.9233768
-0.2176108
0.04051034
1.687104
-0.03384623
0.09120883
1.817127
1.077115
-0.01207847
17.50804
0.08660912
2.728013
7.654073
-18.887
2.970912
15.32473
-0.9092232
3.042279
0.0515975
2.647092
-0.06084457
2.978466
2.596872
-0.3064611
1.622331
-0.4330686
3.52924
-0.7852618
-88.308
-0.1051902
4.002416
0.1219616
0.0626348
5.312637
0.008866755
3.508937
5.824802
-0.005263413
1.223283
0.8842909
0.5020966
9.436639
-0.01290636
-0.001840554
-0.001536976
6.498689
-4.253824
-0.006601638
-1.454849
-0.009867895
3.581592
0.07554764
-3.448957
1.239647
-10.75156
-0.001797559
0.2189601
2.855886
-0.1472975
0.8567389
6.909269
0.05647011
-0.1234297
2.904684
13.68883
-1.370992
1.565635
0.04066373
4.472124
-0.3311029
2.025129
2.520983
1.363708
0.9342803
-0.005064318
3.499083
0.5183091
0.9551755
0.4597309
-0.144325
0.3403537
0.08424543
7.495529
0.05320113
-0.4648204
-1.253422
4.867544
5.621296
3.137653
-0.005989284
0.6356087
-2.277185
3.256003
3.143186
-152.2533
0.6306141
-0.191407
21.46746
11.08938
0.3766624
-4.336957
2.161593
0.07505863
3.69639
-0.1116975
1.863616
0.06520544
-112.3397
0.04348234
-1.437876
-4.015866
0.02207942
-0.1771458
-6.864907
-7.696224
-1.129451
-0.681618
-1.631873
-0.4096324
0.115796
1.500552
-0.2862548
-0.002254731
0.130912
1.703197
0.04517277
11.74777
6.375191
2.272998
-0.4860183
0.09011082
-0.03375527
-4.252786
-183.7492
-19.10963
5.352271
2.354372
6.766453
2.456227
-5.635609
-0.09408463
0.4412549
4.029487
-0.7450569
0.02901624
3.278706
1.857021
0.2064491
-0.4487292
1.891317
13.78507
1.439884
0.06565194
-0.8343401
0.005925232
-0.476695
1.39739
1.970699
-3.120994
0.02365034
5.973805
-0.08015789
-0.2087869
4.582126
-0.3738526
-0.2990264
0.2044522
0.4526777
0.04351466
-6.253104
-0.5259403
0.003263763
-0.5934572
-0.1773476
-0.1765064
3.304507
-0.1149927
2.981864
-10.83455
-1.446647
-0.836604
-5.321953
3.907353
3.515975
5.635531
-0.1869165
-4.573525
0.07105715
1.473987
0.08761027
13.80777
-0.690297
-0.9782531
0.7609595
-13.61511
-0.7034811
5.531012
-0.7074301
-0.7380139
10.42778
-0.6859432
-1.702757
0.02748782
-6.932112
-10.09469
-0.05204401
0.03555463
1.846713
0.04432958
3.449477
0.03268503
0.03893793
-1.520602
-0.2966578
0.4447601
1.736823
-8.259707
-5.962781
1.597338
0.195413
23.32905
2.918757
1.868326
0.07894139
-4.553211
-13.79559
0.06869583
0.02442116
-12.65365
3.556759
2.278435
4.3572
1.023078
2.723818
-3.037309
0.1226727
-4.172268
0.4135486
0.05179904
-0.171117
0.2739443
1.642963
-1.828244
-2.458356
0.4496405
2.691993
2.684744
-126.2246
6.965574
-1.096508
0.04279625
21.4233
-0.5117767
0.2985495
-1.062064
-1.608587
0.7752276
0.5902747
-0.7004714
0.9471706
4.162965
0.7327288
0.1560057
1.1443
1.825205
0.3774401
-1.188633
0.07363794
-0.3155495
0.05024631
6.022462
6.813254
3.479136
0.1400642
3.777815
0.1178456
-1.274494
-48.00571
2.34759
-0.5403906
6.097122
0.05398821
-3.735985
4.357897
5.092538
0.6397536
1.864514
0.05273137
-79.8378
3.249507
4.814979
4.848475
-0.01804755
17.76925
2.781283
-1.592787
-0.8265647
3.400124
-1.191301
10.79507