/*--------------------------------*- C++ -*----------------------------------*\
| =========                 |                                                 |
| \\      /  F ield         | OpenFOAM: The Open Source CFD Toolbox           |
|  \\    /   O peration     | Version:  2406                                  |
|   \\  /    A nd           | Website:  www.openfoam.com                      |
|    \\/     M anipulation  |                                                 |
\*---------------------------------------------------------------------------*/
FoamFile
{
    version     2.0;
    format      ascii;
    arch        "LSB;label=32;scalar=64";
    class       surfaceScalarField;
    location    "0.08";
    object      phi;
}
// * * * * * * * * * * * * * * * * * * * * * * * * * * * * * * * * * * * * * //

dimensions      [0 3 -1 0 0 0 0];

oriented        oriented;

internalField   nonuniform List<scalar> 
6741
(
5.486433e-10
1.070688e-09
-1.619331e-09
-1.192083e-09
-1.039661e-10
1.296049e-09
1.668668e-09
-1.631264e-09
-3.740442e-11
6.412724e-10
8.768634e-10
-1.518136e-09
1.58139e-09
-8.494496e-10
-7.319408e-10
2.077931e-09
-8.548536e-10
-1.223078e-09
-1.187566e-09
-2.605488e-10
1.448114e-09
-8.766292e-10
1.821163e-09
-9.445343e-10
1.773055e-10
2.011351e-09
-2.188656e-09
-1.52586e-09
2.976436e-10
1.228216e-09
-1.385323e-10
1.88856e-09
-1.750028e-09
1.264909e-09
-1.855548e-09
5.90639e-10
1.394069e-09
-1.931278e-09
5.372089e-10
1.86102e-09
-1.659511e-09
-2.015091e-10
-2.434745e-10
1.480667e-09
-1.237192e-09
3.376058e-09
-1.943018e-09
-1.433041e-09
-9.321534e-10
-5.405164e-10
1.47267e-09
1.199244e-09
-1.467069e-09
2.678256e-10
1.922839e-09
-1.770689e-09
8.716248e-10
-1.754259e-09
8.826345e-10
-2.347111e-09
1.279275e-09
1.067835e-09
4.445812e-10
-1.356588e-09
9.120065e-10
-1.617276e-09
1.333085e-09
2.841913e-10
5.01499e-10
1.447511e-09
-1.94901e-09
3.811743e-10
1.310389e-09
-1.691563e-09
1.77203e-09
-1.532425e-09
-2.396053e-10
1.767215e-09
-1.126206e-09
-6.410089e-10
-2.059087e-09
1.135089e-09
9.239983e-10
-1.400466e-09
1.68495e-09
-2.844835e-10
-4.583471e-09
6.74904e-10
3.908567e-09
-2.043269e-09
7.196122e-10
1.323657e-09
-1.449365e-09
1.064406e-09
3.849587e-10
1.734823e-09
-9.93067e-10
-7.417555e-10
2.652436e-09
-1.606098e-10
-2.491827e-09
3.983535e-09
2.094473e-09
-6.078008e-09
-1.350327e-09
1.588084e-09
-2.377576e-10
-1.479609e-09
-2.873646e-10
1.766974e-09
4.792346e-09
2.357531e-09
-7.149877e-09
1.749696e-09
-5.814324e-10
-1.168264e-09
-1.792424e-09
2.115554e-09
-3.231296e-10
1.515191e-09
5.939453e-10
-2.109137e-09
-7.038786e-10
-1.259788e-09
1.963667e-09
1.446434e-09
-1.852869e-10
-1.261147e-09
9.704882e-10
-1.600401e-09
6.299124e-10
-2.105851e-09
1.399174e-09
7.066769e-10
-1.513697e-09
5.986679e-10
9.150288e-10
-5.971105e-10
-1.144602e-09
1.741713e-09
-1.328243e-10
-1.547093e-09
1.679918e-09
-6.182316e-10
-1.308603e-09
1.926834e-09
5.66241e-10
1.294013e-09
-1.860254e-09
-1.756145e-09
1.753727e-09
2.418285e-12
-1.310134e-09
3.757782e-10
9.343553e-10
1.409568e-09
-2.703734e-10
-1.139195e-09
1.834405e-09
-4.30674e-10
-1.403731e-09
-1.490019e-10
1.322577e-09
-1.173575e-09
4.691894e-10
1.334626e-09
-1.803815e-09
-1.67832e-09
1.436655e-09
2.416648e-10
-1.682401e-10
-1.620892e-09
1.789132e-09
-1.455963e-09
2.165166e-09
-7.092032e-10
6.040016e-10
-1.671275e-09
1.067273e-09
-9.381411e-10
-4.083932e-10
1.346534e-09
-1.51055e-09
9.915515e-10
5.189987e-10
-1.39719e-09
1.527233e-09
-1.300427e-10
4.672446e-10
1.393669e-09
-1.860913e-09
-2.290982e-09
1.197354e-09
1.093628e-09
1.444706e-09
-1.119901e-09
-3.24805e-10
-1.769427e-09
1.371522e-09
3.979052e-10
4.528399e-10
9.928191e-10
-1.445659e-09
6.769977e-09
-7.232143e-09
4.621652e-10
-1.820149e-09
3.229122e-10
1.497237e-09
3.965643e-10
-1.996275e-09
1.59971e-09
1.408834e-09
-1.596285e-09
1.874508e-10
1.405783e-09
-2.862462e-10
-1.119536e-09
1.498319e-09
-1.960632e-09
4.623128e-10
5.120401e-09
1.095155e-09
-6.215556e-09
-1.217561e-09
2.750868e-12
1.214811e-09
2.099203e-09
-6.599614e-10
-1.439242e-09
1.648361e-09
-2.481632e-10
-1.400198e-09
-1.668926e-09
-4.040838e-10
2.07301e-09
1.921574e-09
-2.306014e-09
3.844407e-10
3.282659e-10
1.276713e-09
-1.604979e-09
1.148458e-09
-1.259632e-09
1.111746e-10
-9.146759e-10
-2.016836e-10
-1.642443e-09
-3.497993e-10
1.992242e-09
-1.624143e-09
1.247145e-09
3.769977e-10
-4.541823e-10
2.142761e-09
-1.688579e-09
9.768354e-10
-1.644151e-09
6.673158e-10
6.025666e-10
2.424665e-09
-3.027232e-09
-5.316536e-10
-1.177698e-09
1.709352e-09
7.984935e-10
-1.695759e-09
8.972656e-10
2.642589e-10
-1.469184e-09
1.204925e-09
1.305548e-09
3.115342e-10
-1.617082e-09
-2.558934e-10
2.027096e-09
-1.771203e-09
-1.242722e-10
-1.646126e-09
1.770398e-09
-9.698159e-10
1.558541e-09
-5.887247e-10
1.346063e-11
-2.952915e-09
2.939454e-09
8.543392e-10
-1.816376e-09
9.620372e-10
-1.76521e-10
1.232647e-09
-1.056126e-09
-1.43512e-09
-7.857671e-11
-5.937037e-09
3.845677e-09
2.09136e-09
1.458067e-09
-8.167947e-10
1.339945e-09
-1.705532e-09
3.655874e-10
-3.048222e-09
7.948825e-11
2.968734e-09
-2.390064e-09
-3.054126e-09
5.44419e-09
4.12563e-10
-2.055006e-09
2.275484e-10
1.344804e-09
-1.572352e-09
-1.874079e-09
1.416054e-09
4.58025e-10
-2.134914e-09
5.733718e-10
-2.367866e-10
1.968412e-09
-1.731625e-09
1.122166e-09
-1.763613e-09
6.414471e-10
1.164163e-09
-8.425784e-10
-3.215845e-10
-1.954543e-09
1.022389e-09
-7.190607e-10
-7.768367e-10
1.495897e-09
-1.158458e-09
1.665727e-09
-5.072692e-10
1.124134e-09
-5.452504e-11
-1.069609e-09
1.667452e-09
-2.616696e-10
-1.65279e-09
2.826308e-10
1.370159e-09
-1.922784e-09
1.015467e-09
9.073174e-10
-1.572074e-09
-1.277566e-10
1.699831e-09
-2.393257e-09
2.388853e-09
4.404106e-12
-9.558245e-10
-1.698784e-10
1.125703e-09
3.302108e-09
8.02878e-10
-4.104986e-09
1.648366e-09
-1.314799e-09
-3.335676e-10
-1.157202e-09
-9.486489e-10
1.316904e-09
-1.578781e-09
2.618772e-10
-1.073466e-09
-8.634762e-10
1.936943e-09
3.014775e-09
-3.2056e-09
1.908251e-10
-2.971528e-09
3.81468e-10
2.59006e-09
-1.801872e-09
1.542171e-09
2.59701e-10
2.14912e-09
-3.330407e-10
-1.816079e-09
4.1614e-11
-1.329625e-09
1.288011e-09
-1.348463e-09
-5.750127e-10
1.923476e-09
5.216184e-10
1.091622e-09
-1.61324e-09
2.406249e-09
-2.214425e-09
-1.918239e-10
-1.66562e-09
8.879668e-10
7.776536e-10
1.508677e-09
-2.381361e-09
8.726834e-10
-1.899212e-09
1.490973e-09
4.08239e-10
-1.433503e-09
1.218856e-09
2.146461e-10
-8.4006e-10
-1.219027e-09
1.965276e-10
-2.684434e-09
2.487906e-09
3.479179e-09
-5.869243e-09
-7.522521e-11
-1.836412e-09
1.911637e-09
1.007105e-09
-1.569395e-09
5.622906e-10
-1.176045e-09
-3.498154e-10
-1.258356e-09
2.312779e-09
-1.054423e-09
-1.600494e-09
2.204496e-09
-5.103427e-10
-1.255516e-09
1.765858e-09
1.107143e-09
-1.216036e-09
1.088934e-10
-1.385757e-09
1.209236e-09
-7.918156e-10
-5.158363e-10
1.307652e-09
1.188527e-09
-1.071142e-09
-1.173848e-10
-2.693232e-09
1.213623e-09
-1.953515e-09
-2.270848e-10
2.1806e-09
4.164917e-09
-1.374916e-09
-2.790002e-09
1.075096e-09
8.198029e-10
-1.894899e-09
3.422213e-11
-1.068447e-09
1.034225e-09
1.99225e-09
-1.239663e-09
-7.525868e-10
1.359576e-09
4.943508e-11
-1.409011e-09
6.228933e-10
-1.979106e-09
1.356213e-09
1.619254e-09
-2.3211e-09
7.018463e-10
2.027637e-09
-1.838715e-09
-1.889223e-10
-1.947012e-09
6.739359e-09
1.848815e-09
-1.813627e-10
-7.984693e-10
1.547682e-09
-7.492124e-10
1.139194e-09
-1.407215e-09
-3.204475e-09
2.004633e-10
3.004012e-09
2.146356e-10
1.291443e-09
-1.506079e-09
1.464547e-09
6.465118e-10
-2.111059e-09
1.069529e-09
3.661107e-10
-1.43564e-09
8.484466e-10
7.965625e-10
-1.645009e-09
-1.973721e-09
5.891531e-10
1.384568e-09
3.009541e-09
-2.091507e-09
-9.180346e-10
7.473265e-09
-3.489731e-09
-1.040894e-09
5.22476e-10
1.588937e-09
-2.111413e-09
-4.376496e-10
-8.974014e-10
1.335051e-09
-1.738915e-09
1.663591e-09
7.532361e-11
-7.895977e-10
1.851355e-09
-1.061757e-09
-1.22355e-09
1.377579e-09
-1.540293e-10
-7.763393e-10
-1.131887e-09
1.908226e-09
-2.285175e-10
-1.322026e-09
1.550543e-09
2.059267e-09
-6.05142e-10
-1.454125e-09
-6.007986e-10
-8.955627e-10
1.496361e-09
-3.477747e-09
3.272389e-09
2.053581e-10
-1.027535e-09
1.950806e-09
-9.232718e-10
-3.002158e-10
-7.596402e-10
1.059856e-09
1.094595e-09
5.537712e-10
1.712282e-09
-1.189806e-09
-1.861891e-10
-1.072967e-09
1.259156e-09
1.613805e-09
-6.369693e-10
3.346904e-10
-1.683154e-09
9.990764e-11
-1.500374e-09
7.600248e-10
-2.281074e-09
1.52105e-09
-1.407507e-09
-5.82868e-10
-1.131043e-09
-5.700324e-10
1.701075e-09
-1.73915e-09
6.482001e-10
1.09095e-09
-4.358946e-10
1.318125e-09
-8.822304e-10
-1.669394e-09
9.44132e-10
7.252619e-10
-1.074333e-09
-5.837609e-10
1.658093e-09
4.610457e-10
-1.989104e-09
1.528058e-09
9.897506e-10
4.051946e-10
-1.394945e-09
4.077659e-11
-1.551327e-09
1.699101e-09
-4.78045e-10
-1.221056e-09
-9.327275e-10
1.889832e-09
-9.571048e-10
5.136297e-09
-2.20266e-09
-2.933637e-09
-1.819329e-09
1.700674e-09
1.186556e-10
-6.066225e-10
1.498608e-09
-8.919854e-10
1.642493e-09
-1.982421e-09
3.399288e-10
1.702178e-09
-4.088608e-10
-1.293317e-09
-5.276096e-10
1.374275e-09
-8.466659e-10
-1.316608e-09
1.596127e-09
-2.795186e-10
-5.064603e-09
7.600638e-09
-2.536036e-09
2.133898e-10
1.627207e-09
-1.840597e-09
5.675365e-10
-1.57444e-09
1.006903e-09
9.187682e-10
8.187877e-10
-1.737556e-09
-8.989399e-10
-1.311312e-09
2.210252e-09
1.582411e-10
-1.555431e-09
2.379653e-09
-2.110237e-10
-2.16863e-09
-8.458323e-11
-1.487491e-09
1.235752e-09
4.298136e-10
-1.665566e-09
-1.635008e-09
1.684985e-09
-4.997657e-11
-1.82751e-09
-4.10706e-10
2.238216e-09
2.997016e-11
1.8887e-09
-1.91867e-09
2.156939e-09
-5.371844e-10
-1.619754e-09
-1.421131e-09
1.40649e-09
1.464149e-11
-1.663459e-09
7.393479e-10
9.241111e-10
2.056005e-09
-4.384326e-10
-1.617572e-09
-1.221762e-09
-3.681695e-10
1.589932e-09
-1.32976e-09
-2.701354e-10
1.599895e-09
3.069221e-10
-1.39333e-09
1.086408e-09
1.455068e-09
-1.501407e-09
4.633897e-11
1.537717e-10
1.373461e-09
1.882408e-09
-2.459355e-09
5.769464e-10
1.112511e-09
-1.769317e-09
6.568058e-10
1.711144e-09
-2.04842e-09
3.372757e-10
-7.354619e-10
1.832215e-09
-1.096753e-09
1.607611e-09
-7.909702e-10
-8.166412e-10
-1.286767e-09
1.610456e-09
-3.236881e-10
1.104891e-09
9.722075e-12
-1.114613e-09
4.451266e-10
1.761863e-09
-2.206989e-09
1.191361e-09
-1.557363e-09
3.660025e-10
1.348413e-11
-1.399405e-09
1.385921e-09
3.152341e-09
-2.675433e-09
-4.769076e-10
1.403301e-09
-7.173917e-11
-1.331562e-09
8.971871e-10
6.842033e-10
1.835773e-09
-9.163815e-09
7.328042e-09
-8.147304e-10
-2.228389e-09
3.04312e-09
4.268826e-10
-8.233039e-09
7.806156e-09
1.743344e-09
-1.763131e-09
1.97869e-11
3.201973e-10
5.610337e-09
-5.930534e-09
2.04672e-09
-2.230915e-09
1.841946e-10
-1.525834e-09
-1.128423e-10
1.638676e-09
8.132453e-10
-1.37237e-09
5.591251e-10
1.204483e-09
-4.58275e-10
-7.462079e-10
-1.430993e-09
1.444477e-09
1.43664e-09
-4.331243e-10
-1.003515e-09
1.095706e-09
4.977063e-10
-1.593412e-09
-8.223089e-10
1.81206e-09
1.461276e-09
-8.196505e-10
-6.416254e-10
1.498694e-09
-6.379684e-10
-8.607258e-10
1.951343e-09
-1.061786e-09
-8.895567e-10
1.472123e-09
-9.557393e-10
-5.163834e-10
1.453214e-09
-1.450394e-09
-2.81979e-12
8.607728e-11
-1.361772e-09
1.275695e-09
8.59042e-10
3.051209e-10
-1.739199e-10
-1.443356e-09
-3.318462e-10
-7.700302e-09
8.032148e-09
-1.614345e-09
2.125243e-09
-5.108974e-10
1.699349e-09
-1.315683e-09
-3.836658e-10
1.205722e-09
4.170749e-10
-1.622797e-09
1.864628e-09
-1.959603e-10
-4.41046e-10
-1.809531e-09
2.250577e-09
9.150528e-10
6.71646e-10
-1.586699e-09
6.217961e-10
1.286459e-09
-1.908255e-09
-1.530487e-09
-7.047805e-11
1.600965e-09
-8.453111e-10
8.804914e-09
-7.959603e-09
8.652481e-11
1.59818e-09
-1.684704e-09
-2.735252e-09
1.949271e-09
7.859816e-10
-8.953529e-10
2.033289e-09
-1.137936e-09
1.561737e-09
-9.60343e-10
-6.013942e-10
1.147421e-09
-1.522533e-09
3.751124e-10
1.373575e-09
-1.318733e-09
-5.484205e-11
-1.540253e-09
7.507809e-10
7.894721e-10
-1.960419e-09
-1.394393e-09
3.354812e-09
1.403413e-09
2.698882e-10
-1.673301e-09
-1.572966e-09
-6.2042e-11
4.875361e-10
-1.885512e-09
1.397976e-09
9.241392e-10
1.247843e-10
-1.048923e-09
3.920221e-09
-2.74418e-09
-1.176041e-09
-3.157643e-10
1.525097e-09
-1.209333e-09
-8.915045e-10
1.960615e-09
-1.06911e-09
2.224025e-09
-5.292667e-10
1.769269e-09
-1.240002e-09
9.533587e-11
-1.204184e-09
1.108848e-09
1.905581e-09
-3.939861e-10
-1.511595e-09
1.344115e-09
4.585853e-10
-1.802701e-09
9.178969e-10
5.268092e-10
-7.137557e-10
1.720861e-09
2.089451e-10
1.709959e-09
-1.918904e-09
1.883043e-09
-7.479543e-10
-3.098035e-10
-1.626248e-09
1.936051e-09
4.836538e-10
-1.672083e-09
1.188429e-09
-2.187272e-09
4.158653e-10
1.771407e-09
-4.111225e-10
1.618132e-09
-1.20701e-09
-1.206038e-09
1.250763e-09
-4.472543e-11
5.028941e-11
1.321172e-09
-1.371461e-09
-1.570663e-09
9.043125e-10
6.663503e-10
2.051363e-09
-4.094593e-09
2.04323e-09
-1.593433e-09
1.599141e-09
-5.70741e-12
5.159467e-10
-1.641724e-09
1.125777e-09
-1.05709e-09
1.835615e-09
-7.785247e-10
-5.446694e-10
-1.188285e-09
1.732955e-09
6.172234e-10
-1.78464e-09
1.167416e-09
-1.845464e-09
1.194489e-09
6.50975e-10
2.383526e-09
-1.438981e-09
-9.445451e-10
-5.239787e-10
-8.171286e-10
1.341107e-09
4.637995e-11
-1.486445e-09
1.440065e-09
-1.713756e-09
-1.273328e-09
2.987085e-09
4.774278e-10
-1.447244e-09
1.200936e-09
7.094127e-10
-1.910348e-09
-2.510131e-09
-5.77357e-10
3.087488e-09
9.728714e-10
4.992513e-10
-5.729682e-10
-8.122875e-10
1.385256e-09
-9.523962e-10
-7.933002e-10
1.745696e-09
1.161717e-09
7.100047e-10
-1.871721e-09
-1.098084e-09
-3.215075e-10
-1.360561e-09
1.682069e-09
-1.190957e-09
1.772779e-09
-5.818222e-10
-1.582363e-09
7.423027e-10
-2.164572e-10
2.156409e-09
-1.939952e-09
1.557815e-09
-8.69762e-10
-6.880534e-10
2.230445e-09
-4.015101e-10
-1.828935e-09
9.927461e-11
-1.432353e-09
1.333079e-09
1.005927e-09
-1.897748e-09
8.918212e-10
1.018223e-09
6.95809e-10
-1.714032e-09
4.305673e-10
-1.943366e-09
1.512799e-09
-1.608365e-09
1.750861e-09
-1.424953e-10
1.574245e-09
-2.688388e-10
-1.305406e-09
1.338668e-09
-1.246282e-09
-9.238542e-11
1.175957e-09
2.074263e-10
-1.383383e-09
-1.150657e-09
-3.824412e-10
1.533098e-09
-1.008808e-09
-6.387371e-10
1.647545e-09
-1.596017e-09
-5.912547e-10
6.528586e-10
-2.214136e-09
1.561278e-09
1.155193e-10
-1.678986e-09
1.563467e-09
-1.623082e-09
6.261365e-10
9.969454e-10
8.661084e-10
-1.655706e-09
2.090173e-09
-2.060467e-09
-2.970573e-11
-3.023458e-10
-1.300616e-09
1.602962e-09
1.941013e-09
-1.528928e-09
-4.120853e-10
-3.124911e-10
-1.538256e-09
1.850747e-09
-3.443059e-10
-3.028781e-09
3.373087e-09
1.93328e-09
-1.173255e-09
-1.388909e-09
3.917608e-09
-2.528698e-09
-4.317182e-09
1.024269e-09
3.292913e-09
-1.77504e-09
1.293185e-09
4.818549e-10
-1.503058e-09
1.243682e-09
2.593752e-10
1.141675e-09
-1.57757e-09
1.530542e-09
-1.209739e-10
8.078861e-10
1.074022e-09
-1.881908e-09
-1.566601e-09
1.250836e-09
9.996288e-10
-2.257984e-09
1.383274e-09
-8.049639e-10
-5.783101e-10
8.30972e-10
-1.137214e-09
3.062423e-10
-2.173042e-09
1.34069e-09
8.32352e-10
-4.05868e-10
1.312293e-09
-9.064254e-10
-2.013162e-09
3.988174e-10
-1.244732e-10
1.685405e-09
-1.560932e-09
6.258191e-09
-4.422418e-09
-5.012503e-09
-7.55196e-10
5.767699e-09
1.107541e-09
-8.674833e-10
-2.400579e-10
-5.91954e-12
1.130054e-09
-1.821632e-09
2.065229e-09
-2.435977e-10
1.069125e-09
5.729228e-10
-1.642048e-09
-2.980562e-09
1.807648e-09
1.172913e-09
2.953188e-10
-1.819124e-09
1.523805e-09
6.700511e-10
1.114245e-09
-1.784296e-09
-1.644137e-09
3.057666e-11
1.61356e-09
-1.813387e-10
-1.298392e-09
1.47973e-09
-6.128294e-11
-1.716652e-09
1.777935e-09
1.826115e-09
-1.310168e-09
1.03082e-10
-1.581745e-09
1.478663e-09
8.621579e-10
-2.214107e-09
1.351949e-09
5.311718e-10
-1.559962e-09
1.02879e-09
-7.822395e-10
1.855503e-09
-1.073264e-09
-2.024751e-09
2.110871e-10
1.813664e-09
1.915816e-09
1.118204e-10
1.283635e-09
1.06562e-10
-1.390197e-09
1.489455e-09
-6.148871e-10
-8.745684e-10
-9.432181e-10
-5.030456e-10
1.446264e-09
1.273569e-09
-1.989765e-09
7.161964e-10
-4.140684e-11
2.681548e-09
-2.640141e-09
1.887471e-09
-4.838662e-10
-1.403605e-09
1.149488e-09
-2.056753e-09
9.072652e-10
1.554563e-09
3.498219e-10
-1.904385e-09
1.917936e-09
-1.192661e-09
-7.252755e-10
1.339379e-09
2.838841e-10
-1.623263e-09
-5.274565e-10
1.884035e-09
-1.356579e-09
-1.527505e-09
9.22855e-10
6.046503e-10
-8.183576e-10
2.217532e-09
2.132228e-09
-1.057132e-09
-1.859457e-09
1.251374e-09
6.080828e-10
-6.302692e-11
-1.273588e-09
1.336615e-09
-1.469043e-09
1.341192e-09
1.278504e-10
7.606461e-10
-2.084888e-09
1.324242e-09
-5.46024e-12
1.714942e-09
-1.709482e-09
1.306606e-09
-1.189881e-09
-1.167248e-10
2.214139e-10
1.935525e-09
1.78849e-09
-1.367053e-09
-4.214375e-10
-2.928596e-09
4.647852e-09
-1.719256e-09
-4.690535e-10
-1.499287e-09
1.96834e-09
2.324372e-09
-1.141872e-09
-1.1825e-09
1.00077e-09
-1.740492e-09
7.397222e-10
1.871536e-09
-9.711416e-10
-9.003941e-10
-1.887103e-09
2.155801e-09
-2.686974e-10
-9.150267e-10
1.44602e-09
6.373368e-10
-2.083356e-09
1.048801e-09
8.213097e-10
-1.870111e-09
-1.463025e-09
1.487898e-09
-2.487264e-11
6.750714e-10
-1.095831e-09
4.207598e-10
-1.808609e-09
2.786956e-10
1.529914e-09
1.024389e-09
-2.170392e-09
1.146003e-09
4.239751e-09
-1.877509e-09
-2.362242e-09
-1.607852e-09
1.819924e-09
-2.120717e-10
1.998346e-09
-1.710882e-09
-2.874645e-10
6.963769e-11
1.274478e-09
2.007217e-09
-1.678951e-09
1.828389e-09
-4.757774e-10
-1.352611e-09
1.916761e-09
-1.401527e-09
-5.152341e-10
1.756068e-10
1.583657e-09
-1.759264e-09
3.603622e-10
1.501393e-09
-1.861756e-09
1.456103e-09
-1.139425e-09
-3.166784e-10
-2.322095e-09
-2.261376e-09
-2.693011e-10
1.322075e-09
-1.052774e-09
-1.547802e-10
-1.773073e-09
1.927853e-09
-2.200503e-09
2.469882e-10
3.688967e-10
-1.896083e-09
1.527186e-09
-1.066814e-09
-5.837452e-10
1.65056e-09
-1.130318e-09
1.360187e-09
-2.298689e-10
1.816442e-09
-1.57428e-09
-2.421616e-10
1.458533e-09
-1.821445e-09
3.629125e-10
1.540408e-09
-1.073924e-09
-4.664845e-10
-1.823998e-09
1.670003e-09
1.539947e-10
8.784846e-10
-2.360879e-09
1.482395e-09
1.74061e-09
-1.628374e-09
-1.122362e-10
-1.028391e-09
1.585984e-09
-5.575935e-10
-1.720509e-09
2.853887e-10
1.701703e-09
-4.371015e-10
-1.264601e-09
4.433511e-11
1.250456e-09
-1.294791e-09
-2.689073e-09
1.1413e-09
1.547773e-09
-1.151175e-10
1.548986e-09
-1.433868e-09
-7.676555e-10
-1.257513e-09
2.770592e-09
-1.513079e-09
-1.429013e-10
-1.299978e-09
1.442879e-09
1.996822e-09
-5.671843e-10
-1.429638e-09
1.242566e-09
-1.038075e-09
-2.044904e-10
-1.887091e-09
1.342345e-09
5.447452e-10
3.29085e-10
-2.455565e-09
2.12648e-09
-4.026097e-09
2.327892e-09
1.698205e-09
-4.843094e-09
1.545706e-09
3.297388e-09
2.73616e-09
-3.550891e-09
1.256289e-09
-1.984219e-09
7.279301e-10
-4.396785e-10
1.695968e-09
1.907965e-09
-9.742201e-10
-9.337447e-10
-2.180489e-09
1.281549e-09
1.541026e-09
-8.372401e-10
-7.037857e-10
8.190897e-10
-2.44877e-09
1.62968e-09
1.691892e-09
-1.224648e-09
-1.544578e-09
1.695803e-09
1.590742e-09
-1.375284e-10
-1.519444e-09
1.787598e-09
-2.681535e-10
-1.188218e-09
-4.901019e-10
4.060922e-10
-1.753823e-09
1.34773e-09
-1.646977e-09
1.30487e-09
3.421072e-10
1.965983e-09
-1.757955e-10
-1.790188e-09
-1.906065e-09
6.026231e-10
1.303442e-09
1.455825e-09
-6.479389e-10
1.386283e-09
3.572806e-10
-1.743564e-09
1.750129e-09
1.636979e-10
-1.913827e-09
-3.689655e-09
9.31794e-10
2.757861e-09
-1.377201e-09
-2.580778e-10
1.635279e-09
-6.455167e-09
1.763088e-09
4.692079e-09
-1.961686e-09
-3.007035e-10
2.26239e-09
2.885916e-10
-1.802501e-09
1.513909e-09
3.137343e-09
2.387151e-10
-2.322779e-09
1.569377e-09
7.534015e-10
1.27383e-09
-6.281794e-10
-6.456502e-10
-6.094151e-11
-1.732905e-09
1.793847e-09
1.426383e-09
5.349975e-10
-1.96138e-09
-1.676681e-09
1.098012e-09
5.786689e-10
6.329762e-11
-1.367324e-09
1.304026e-09
-1.907449e-09
5.487507e-10
1.358698e-09
4.488668e-10
-4.766049e-09
1.463032e-09
-1.017372e-09
-4.456592e-10
1.153537e-09
4.019712e-10
-1.555508e-09
8.148187e-10
-1.710023e-09
5.397792e-10
1.170244e-09
-4.492528e-09
7.488399e-10
3.743688e-09
1.582723e-09
2.284979e-10
-1.811221e-09
-5.581668e-13
1.653077e-09
-1.652518e-09
-7.406268e-10
1.185208e-09
8.980323e-10
1.215664e-09
-2.113697e-09
8.906481e-10
-1.613871e-09
7.232226e-10
-1.627863e-09
7.512339e-10
-2.176024e-09
1.053495e-09
1.122529e-09
-1.193993e-09
1.061168e-09
-1.00247e-09
9.935093e-10
8.961007e-12
-1.331862e-09
2.296059e-09
-9.641971e-10
1.121596e-09
1.191183e-09
2.008064e-09
1.028292e-09
-3.036356e-09
-5.083071e-10
-1.380809e-09
1.889116e-09
-1.856276e-09
1.874933e-09
-1.865719e-11
-6.676218e-10
-9.017737e-10
-8.449829e-10
3.136789e-09
-2.291806e-09
1.335107e-09
-5.839333e-11
1.294084e-09
-1.782845e-09
4.887614e-10
-8.990634e-10
1.749479e-09
-8.504151e-10
7.443716e-10
-1.967537e-09
1.223165e-09
-3.010921e-09
1.770753e-09
1.240168e-09
-2.193086e-10
-1.058522e-09
1.27783e-09
-1.172125e-10
1.297417e-09
-1.180205e-09
-4.63772e-09
9.206819e-10
-1.902224e-09
9.81542e-10
-8.543392e-10
1.8001e-09
-9.457607e-10
2.010395e-11
1.298062e-09
-1.318166e-09
8.627435e-10
5.985324e-10
-1.765159e-09
8.020573e-10
9.631021e-10
1.691177e-09
-3.414916e-10
-1.349685e-09
6.236376e-10
5.891481e-10
-1.212786e-09
1.613268e-09
-5.306356e-10
-1.082632e-09
2.050077e-09
8.40683e-10
-2.89076e-09
1.802807e-09
-3.563733e-10
9.413074e-10
-1.103353e-10
-1.226559e-09
2.884175e-10
3.827629e-10
1.693629e-09
-2.076392e-09
-8.875692e-10
-1.007298e-09
1.894867e-09
1.023228e-09
-1.611919e-09
5.886915e-10
-7.666113e-10
1.697404e-09
-9.307929e-10
5.862141e-10
-1.479287e-09
8.93073e-10
4.59736e-10
1.16863e-09
-1.628366e-09
-1.434046e-09
7.72505e-10
6.615413e-10
8.054331e-10
-1.703299e-09
8.978657e-10
1.648138e-09
-4.685786e-10
-1.179559e-09
-8.630908e-10
1.689912e-09
-8.268213e-10
-1.218396e-09
2.191267e-09
-1.23356e-09
1.387722e-09
-1.541618e-10
-3.35885e-09
8.487191e-10
-1.384574e-09
1.264101e-09
1.204729e-10
-6.050021e-10
-1.49162e-09
2.096622e-09
1.088351e-09
-1.09427e-09
8.448318e-10
-1.675345e-09
8.305134e-10
1.30317e-09
5.317554e-10
-1.834925e-09
-7.068761e-10
-1.093402e-09
1.800278e-09
1.853357e-09
-5.884474e-10
-2.15983e-09
7.004845e-10
1.459345e-09
1.832333e-09
3.040341e-10
-2.136367e-09
1.863962e-09
-3.092624e-09
1.228662e-09
-2.572099e-10
-1.32636e-09
1.58357e-09
-1.158292e-09
-8.202344e-10
1.978526e-09
-7.960518e-10
-1.138443e-09
1.934495e-09
-2.088856e-09
6.198138e-10
-1.243372e-09
1.764991e-09
1.489226e-09
-8.655887e-10
5.394128e-10
-2.366922e-09
3.740803e-10
-1.227755e-09
9.463228e-10
2.814323e-10
-2.728798e-09
3.894847e-09
-1.166049e-09
4.642933e-10
1.370111e-09
1.652869e-09
-1.611946e-09
-4.092326e-11
1.369851e-09
-3.775316e-10
-9.92319e-10
9.656148e-10
9.332027e-10
-1.898818e-09
1.409552e-09
3.33792e-10
1.984269e-09
-1.139437e-09
1.3426e-09
-1.286988e-09
-5.56121e-11
1.349588e-09
-1.190574e-09
-1.590136e-10
1.718081e-09
-1.011524e-09
-7.065577e-10
1.552146e-09
-7.119767e-11
-1.480949e-09
1.220385e-10
1.589994e-09
-1.712032e-09
9.668617e-10
-2.021285e-09
1.373765e-09
-8.257132e-10
1.43761e-09
-6.118972e-10
1.949162e-09
-1.232726e-09
-7.164358e-10
-1.52023e-09
1.535188e-09
-1.495798e-11
3.137395e-09
-5.906017e-09
2.768622e-09
-4.206119e-09
4.182072e-09
2.404686e-11
1.314313e-09
-1.211231e-09
-1.126588e-09
-8.118925e-10
1.938481e-09
1.924113e-09
-1.217181e-09
-7.06932e-10
1.981758e-09
-4.533952e-10
-1.528363e-09
-7.524995e-10
-9.596252e-10
1.712125e-09
-1.464921e-09
-3.369513e-10
-4.832107e-11
-1.258915e-09
1.307236e-09
1.214141e-09
1.78965e-09
-3.003791e-09
4.764759e-10
-1.562531e-09
1.086055e-09
-7.509768e-10
-7.77301e-10
1.528278e-09
-1.066463e-09
-4.829635e-10
1.549427e-09
1.811892e-09
2.441128e-10
1.105555e-09
1.247668e-10
-1.230322e-09
1.730544e-09
-1.682061e-09
-4.848304e-11
-1.070405e-09
1.198136e-09
-1.277313e-10
-1.382285e-09
5.599757e-10
-1.125462e-09
9.984895e-10
1.269725e-10
2.027198e-09
-7.310382e-10
-1.296159e-09
-1.932304e-09
1.137998e-09
7.943056e-10
-1.256495e-09
1.406669e-09
-1.501735e-10
-6.021166e-10
1.763833e-09
-9.645735e-10
1.662941e-09
-6.983675e-10
3.626201e-10
1.365489e-09
-1.72811e-09
-7.490808e-10
-8.782305e-10
1.627311e-09
-1.578338e-09
-1.916821e-10
1.77002e-09
-1.282024e-09
9.445812e-11
-1.813028e-09
4.03856e-10
1.409172e-09
-1.27515e-11
-2.267232e-09
2.279983e-09
1.558507e-09
3.747723e-10
-1.347901e-09
2.121446e-10
1.135756e-09
-3.454302e-09
2.642135e-09
8.12167e-10
-1.523534e-09
2.00001e-09
1.868016e-10
-3.876457e-09
-1.61571e-09
-2.917393e-10
8.052565e-09
-8.052565e-09
1.575047e-09
-1.347499e-09
-1.740346e-09
4.14245e-10
1.326101e-09
1.111427e-09
6.336467e-10
-1.745074e-09
-1.261105e-09
4.563213e-09
1.252853e-09
6.485296e-09
-7.738149e-09
-1.238069e-09
1.805325e-09
-5.672562e-10
7.099335e-10
-1.826759e-09
1.116825e-09
1.146908e-09
-3.336629e-10
1.037101e-09
-1.580408e-09
5.433076e-10
8.724034e-10
-1.929493e-09
2.028187e-09
-4.837053e-10
-1.544482e-09
1.264785e-09
9.507416e-10
-2.215527e-09
1.887597e-09
-2.683434e-10
9.757628e-10
9.755797e-10
3.470328e-10
1.402663e-09
-1.974438e-09
1.834911e-09
-1.896194e-09
1.928413e-09
2.105777e-10
-2.138991e-09
1.375955e-09
2.485666e-10
-1.624522e-09
-1.122918e-09
1.587212e-09
-4.812249e-10
-4.317937e-09
4.799162e-09
-1.228036e-10
-1.379627e-09
1.502431e-09
9.428459e-10
-1.060058e-09
1.626649e-09
-1.695341e-09
6.28527e-10
2.77752e-09
2.182011e-11
-2.79934e-09
1.186894e-09
-8.040659e-10
-3.828284e-10
4.860763e-10
1.060828e-09
-1.546905e-09
-2.269201e-11
1.449075e-09
1.22054e-09
-1.832118e-09
6.11578e-10
-1.69612e-10
-2.559186e-09
3.729718e-10
-1.448086e-09
1.075114e-09
-1.348939e-09
1.408846e-09
-1.358557e-09
-1.26197e-09
1.120776e-09
1.411935e-10
1.771986e-09
4.924887e-10
-2.264475e-09
1.807482e-10
1.647641e-09
1.372917e-09
-1.250878e-09
5.594158e-10
-1.675704e-09
1.116288e-09
-1.149342e-10
-1.26735e-09
6.77413e-11
1.335672e-09
-1.861849e-09
2.090592e-10
-1.750775e-09
1.457388e-09
2.933873e-10
-1.919347e-09
1.089282e-10
1.810419e-09
-5.186234e-11
-1.486429e-09
1.538291e-09
1.349345e-09
6.717076e-10
-2.021052e-09
1.954276e-10
-1.153329e-09
9.579015e-10
2.2867e-09
1.770138e-09
1.527017e-10
-1.176555e-09
2.048436e-10
9.717114e-10
-1.16176e-09
-1.779632e-09
2.941392e-09
3.572308e-10
1.55197e-09
-1.909201e-09
-2.025659e-09
1.869445e-10
3.40997e-10
-2.177728e-09
1.836731e-09
-6.937994e-10
-1.832905e-11
-1.29647e-09
1.662425e-09
-2.237522e-10
-1.438672e-09
1.098735e-09
-1.824564e-09
7.258282e-10
-4.267364e-09
4.31305e-09
-4.568681e-11
-1.964724e-09
1.52167e-09
3.741955e-09
-4.277314e-09
5.353589e-10
6.402661e-09
1.900219e-09
5.825738e-10
1.293541e-09
-1.876115e-09
1.551815e-09
-2.466841e-09
1.509879e-09
-1.717791e-09
2.079111e-10
9.715229e-10
5.695029e-10
5.808071e-10
8.037664e-10
-1.384574e-09
-1.696636e-09
2.277443e-09
-1.221966e-09
9.781977e-10
2.437683e-10
4.735617e-11
1.518458e-09
-1.565814e-09
1.862606e-09
-1.776081e-09
8.997246e-10
5.36915e-10
2.229882e-10
1.668552e-09
-1.89154e-09
2.775714e-10
1.366442e-09
-1.605622e-09
2.391803e-10
1.647804e-09
-2.101986e-09
1.756933e-10
9.126574e-10
-1.830957e-09
1.945497e-09
-1.145395e-10
5.019634e-10
1.525376e-09
-2.02734e-09
-1.046059e-09
-5.110885e-10
1.557147e-09
5.292254e-10
-2.744649e-10
-8.783491e-10
1.152814e-09
-8.399827e-11
1.666721e-09
3.201489e-10
-1.813194e-09
1.493045e-09
1.032699e-09
4.303328e-10
-1.032425e-09
-4.720617e-10
1.504487e-09
-1.044399e-10
1.754144e-09
-1.649704e-09
4.656907e-10
1.409892e-09
-1.875583e-09
-9.082983e-10
-1.056426e-09
-1.257316e-10
-2.432805e-09
-2.408174e-10
1.838977e-09
5.232434e-10
-1.219165e-09
6.959219e-10
-9.441383e-11
1.762807e-09
-1.668393e-09
6.057125e-10
-1.310628e-09
7.049151e-10
-2.051943e-09
6.189815e-10
1.432962e-09
-2.369051e-10
1.78833e-09
-1.551425e-09
1.469596e-09
8.754824e-11
-1.557144e-09
1.152476e-09
8.313268e-10
-1.983803e-09
-4.123321e-10
-1.293313e-09
1.705645e-09
1.104509e-09
-1.857008e-09
-1.230895e-09
-3.348668e-10
1.565762e-09
1.053453e-09
-1.948806e-09
-1.649422e-09
1.654898e-09
-5.475504e-12
-1.675968e-09
-4.068412e-11
-1.601041e-09
1.752007e-09
-1.509664e-10
7.15919e-10
-1.636376e-09
9.204571e-10
-1.843436e-09
3.651576e-10
1.478278e-09
-2.523277e-11
1.097057e-09
-1.071825e-09
-6.802834e-10
8.112694e-09
-7.43241e-09
-1.10886e-09
1.491623e-09
-1.960728e-09
7.471487e-10
1.213579e-09
1.28154e-09
4.295524e-09
-4.124564e-10
-3.883068e-09
1.334837e-09
-1.953069e-09
2.955028e-09
-4.216133e-09
8.125282e-10
6.432968e-10
1.526567e-09
-2.03598e-09
7.388545e-10
1.297125e-09
8.29808e-09
-8.29808e-09
1.24825e-09
-1.350037e-09
1.017874e-10
-1.083478e-10
-2.122567e-09
-2.471076e-10
-1.592463e-09
1.83957e-09
-1.704223e-09
1.752936e-09
-4.871329e-11
1.373718e-10
1.300514e-09
-1.437886e-09
1.141369e-09
2.701359e-10
-1.411505e-09
-4.826628e-10
2.180455e-09
-1.697792e-09
-2.273427e-10
-1.241344e-09
1.468687e-09
-3.358608e-10
-1.374162e-09
1.826232e-09
-4.931468e-10
-1.346654e-09
1.165587e-09
1.810667e-10
-8.937926e-10
2.198533e-09
-1.30474e-09
-5.36336e-10
2.000883e-09
-6.320477e-11
-1.696093e-09
1.759298e-09
-5.297601e-10
-1.374993e-09
1.904754e-09
4.232753e-10
1.335399e-09
-1.758674e-09
4.716567e-10
1.142148e-09
-1.922578e-09
6.660831e-10
-1.565168e-09
-6.030526e-10
2.168221e-09
-1.810508e-09
3.982771e-10
1.412231e-09
-1.959931e-09
-1.316008e-11
1.973092e-09
2.879492e-10
-1.940579e-09
1.65263e-09
-1.691543e-09
1.074085e-09
-1.769175e-09
6.950898e-10
-1.731021e-09
1.494116e-09
1.319746e-09
-2.756317e-09
1.436571e-09
-4.180947e-09
2.099433e-09
2.081514e-09
-1.999061e-09
-6.900128e-10
7.985963e-10
-1.444388e-09
6.457921e-10
1.783938e-09
-9.062441e-10
-8.77694e-10
-1.31574e-09
5.239244e-10
1.621844e-09
-1.984908e-09
3.630639e-10
-1.270222e-09
-3.991113e-11
6.778994e-09
-4.192574e-09
-2.58642e-09
-1.312498e-09
4.758135e-10
8.366849e-10
8.763286e-10
-1.61179e-09
-1.178052e-09
-3.28407e-10
1.506459e-09
1.307128e-09
-1.417383e-09
-9.258604e-10
-4.169972e-10
1.342858e-09
2.692e-09
4.921951e-09
-8.941452e-10
1.822991e-09
-9.288461e-10
1.721088e-09
1.38476e-10
-1.859564e-09
8.185697e-10
-2.088782e-09
-2.754312e-09
-9.493455e-10
1.940897e-09
-1.426735e-09
1.757354e-09
-8.267573e-10
-9.305965e-10
1.978435e-10
1.27102e-09
-1.468863e-09
4.148922e-10
-1.122254e-09
-4.025795e-10
-1.047814e-09
-4.097637e-09
4.769694e-10
1.097276e-09
1.588952e-09
-1.327261e-09
-2.616907e-10
6.16366e-10
-1.625174e-09
1.604455e-09
-6.339664e-10
9.613172e-10