/*--------------------------------*- C++ -*----------------------------------*\
| =========                 |                                                 |
| \\      /  F ield         | OpenFOAM: The Open Source CFD Toolbox           |
|  \\    /   O peration     | Version:  2406                                  |
|   \\  /    A nd           | Website:  www.openfoam.com                      |
|    \\/     M anipulation  |                                                 |
\*---------------------------------------------------------------------------*/
FoamFile
{
    version     2.0;
    format      ascii;
    arch        "LSB;label=32;scalar=64";
    class       volScalarField;
    location    "1.44";
    object      p;
}
// * * * * * * * * * * * * * * * * * * * * * * * * * * * * * * * * * * * * * //

dimensions      [0 2 -2 0 0 0 0];

internalField   nonuniform List<scalar> 
217010
(
-229.8199
-154.0806
-158.8967
-156.3387
-158.4375
-148.5637
-142.1072
-143.5129
-143.375
-143.6738
-143.4579
-142.3818
-141.2098
-141.5695
-141.2164
-141.1564
-141.1264
-140.9744
-140.988
-141.2935
-142.2059
-143.7427
-144.9043
-143.8722
-141.2537
-139.8296
-138.4063
-136.8016
-135.0645
-132.7403
-130.3453
-128.0959
-125.9789
-124.2703
-123.1422
-120.3788
-119.6255
-118.9422
-117.7138
-116.8329
-115.8064
-115.4155
-115.5604
-116.1676
-117.712
-120.0188
-124.3633
-130.0687
-141.8307
-146.7654
-245.6058
-203.4814
-213.7916
-219.1065
-230.1299
-245.0799
-251.7581
-248.9582
-248.7912
-253.7146
-258.4428
-262.8816
-267.9075
-272.2394
-274.6434
-275.2591
-274.5221
-272.7326
-269.7793
-265.8093
-260.7636
-254.7348
-248.2367
-241.6652
-234.9929
-228.1484
-221.1483
-214.3127
-208.0191
-201.9237
-195.6359
-189.2789
-183.3257
-177.7085
-172.338
-167.2672
-162.5966
-158.2428
-154.1299
-150.3563
-146.5798
-143.248
-140.3375
-137.4423
-134.536
-131.4491
-128.2879
-125.0831
-121.5878
-118.3119
-116.5355
-116.7743
-116.4305
-114.1847
-111.0415
-105.9521
-98.94479
-92.38364
-85.50184
-78.48353
-72.23121
-66.40495
-59.85637
-54.38714
-50.0525
-45.65675
-42.38178
-42.88492
-45.91684
-44.24172
-38.47182
-36.24904
-35.67883
-33.96013
-31.4794
-28.08635
-23.69486
-19.0028
-15.06966
-12.06123
-8.75407
-5.861279
-3.409269
-1.380415
-0.09238835
0.82624
0.8680777
0.2823469
-1.46109
-3.835648
-6.703135
-10.46679
-14.86145
-19.40945
-23.67882
-26.92339
-28.87446
-30.23631
-35.16358
-34.39875
-162.8919
-133.4197
-125.7142
-126.5908
-128.2019
-123.4329
-110.0303
-88.77904
-62.02393
-36.85456
-26.11143
-31.59783
-29.38543
-15.57699
-15.25113
-32.3636
-27.2745
-11.42849
-6.021511
-3.240391
-2.228867
-6.91109
-18.83216
-34.50745
-50.0689
-67.7854
-85.8003
-102.0478
-115.3257
-125.0035
-130.0936
-130.1474
-124.8207
-114.7057
-104.2543
-104.3415
-110.3879
-102.9299
-90.95231
-85.78594
-86.28828
-86.1719
-87.10784
-88.07495
-86.59553
-87.00041
-87.34708
-89.08543
-84.01708
-142.876
-65.35674
-55.53685
-43.75067
-36.87622
-31.00536
-26.17799
-22.03069
-18.28659
-15.04291
-12.1027
-9.441206
-7.013339
-4.729994
-2.580942
-0.5754316
1.279295
3.012534
4.673557
6.256254
7.764326
9.204454
10.56857
11.85687
13.12038
14.35565
15.55807
16.70478
17.78981
18.83465
19.86169
20.876
21.87059
22.81485
23.72902
24.6355
25.52334
26.40148
27.2678
28.13322
28.95645
29.80137
30.60263
31.39749
32.17817
32.95447
33.71546
34.46219
35.21004
35.97041
36.72721
37.4661
38.19158
38.91465
39.65862
40.41337
41.15721
41.89991
42.64963
43.40069
44.16349
44.93112
45.69757
46.49271
47.35194
48.23036
49.10427
50.01083
50.9366
51.86306
52.81777
54.89284
47.86233
47.15181
46.39836
45.05103
43.63062
42.38268
41.21743
40.09351
39.04952
38.05048
37.00794
35.94351
34.90403
33.91274
32.94378
31.97185
30.98411
29.99258
29.02438
28.06295
27.08334
26.09993
25.12481
24.13301
23.14425
22.13885
21.09306
20.05734
19.03951
18.01032
16.951
15.84206
14.76396
13.64224
12.48966
11.32917
10.1562
8.937273
7.694898
6.445268
5.162529
3.806823
2.384423
0.9556386
-0.4733967
-1.964913
-3.533866
-5.158207
-6.864495
-8.648231
-10.49254
-12.41144
-14.37216
-16.47534
-18.73211
-21.09473
-23.61726
-26.27636
-29.16207
-32.30911
-35.68328
-39.33649
-43.44692
-48.0715
-53.35797
-59.30218
-66.28199
-74.96809
-85.3518
-102.9025
-120.1507
48.44924
47.26001
46.52178
45.2227
43.79618
42.52678
41.34808
40.21401
39.15984
38.15461
37.10925
36.04043
34.99394
33.99563
33.02182
32.04657
31.05596
30.06064
29.08858
28.12391
27.14162
26.15531
25.17738
24.18284
23.19194
22.18454
21.1363
20.09811
19.07758
18.04613
16.98503
15.87328
14.79513
13.67024
12.51546
11.35316
10.17846
8.95754
7.713443
6.461965
5.177619
3.819682
2.395043
0.964386
-0.4663041
-1.960277
-3.531295
-5.15749
-6.866459
-8.65338
-10.50104
-12.42346
-14.3866
-16.4956
-18.75782
-21.12561
-23.6554
-26.3206
-29.21669
-32.37503
-35.75969
-39.4266
-43.55562
-48.19921
-53.52642
-59.50671
-66.54268
-75.29934
-85.89263
-103.4314
-122.6121
-67.22034
-55.8964
-44.12145
-37.10279
-31.18875
-26.32208
-22.15144
-18.37674
-15.12007
-12.16925
-9.496615
-7.061103
-4.770981
-2.615223
-0.6033547
1.256774
2.993489
4.658101
6.244321
7.755426
9.198205
10.56524
11.85524
13.12024
14.35719
15.56142
16.70998
17.79638
18.84257
19.87105
20.88683
21.88295
22.82863
23.74392
24.65189
25.54107
26.42081
27.28871
28.15596
28.98067
29.82721
30.62963
31.426
32.20846
32.98617
33.74882
34.49748
35.24763
36.01017
36.76876
37.50917
38.23674
38.96278
39.70985
40.4673
41.21357
41.95918
42.71211
43.46699
44.23373
45.00529
45.77704
46.57989
47.44611
48.32945
49.20948
50.1231
51.05194
51.98316
52.99879
54.74219
-145.0587
-134.9499
-126.3385
-126.5024
-128.2635
-124.1539
-111.54
-90.93664
-64.36736
-38.44337
-26.345
-31.55276
-30.04459
-15.95788
-15.07067
-32.116
-27.60487
-11.88547
-6.211231
-3.344461
-2.207322
-6.744895
-18.56453
-34.2158
-49.78964
-67.51759
-85.56236
-101.8694
-115.2106
-124.9431
-130.1089
-130.2681
-125.0057
-114.8232
-104.2502
-104.323
-110.4474
-102.9075
-90.89064
-85.7544
-86.29223
-86.18468
-87.13264
-88.07665
-86.5917
-87.02779
-87.38692
-89.0743
-85.51309
-131.9673
-233.3481
-205.6864
-213.1705
-218.2458
-228.766
-243.8131
-251.4892
-249.0111
-248.5581
-253.1981
-257.9841
-262.5474
-267.6988
-272.1628
-274.6414
-275.3383
-274.6763
-272.9548
-270.0611
-266.1438
-261.1385
-255.1202
-248.6079
-242.0196
-235.3352
-228.4809
-221.4648
-214.592
-208.2612
-202.151
-195.863
-189.4832
-183.5025
-177.8605
-172.4741
-167.3861
-162.7007
-158.336
-154.2024
-150.4236
-146.635
-143.2833
-140.3712
-137.4709
-134.5627
-131.4723
-128.3052
-125.0995
-121.6004
-118.3208
-116.5438
-116.7909
-116.4415
-114.1648
-110.9852
-105.9257
-98.96402
-92.40505
-85.45373
-78.39189
-72.12321
-66.28843
-59.74256
-54.28736
-49.96455
-45.59488
-42.38259
-42.96073
-45.97915
-44.16066
-38.31443
-36.18159
-35.63052
-33.88371
-31.35496
-27.89395
-23.47474
-18.79706
-14.89735
-11.87339
-8.552661
-5.689091
-3.2587
-1.270653
-0.02499613
0.850969
0.8459315
0.1925155
-1.633522
-4.066327
-7.008906
-10.87292
-15.33963
-19.91602
-24.17306
-27.29251
-29.09373
-30.6129
-35.22853
-38.51734
-212.7818
-156.1416
-159.2447
-156.3847
-158.7921
-148.8699
-142.1847
-143.4924
-143.376
-143.6759
-143.4743
-142.397
-141.2149
-141.5691
-141.2173
-141.1556
-141.1268
-140.9747
-140.9872
-141.2925
-142.2119
-143.7596
-144.9251
-143.8584
-141.2227
-139.8023
-138.3695
-136.7508
-135.0049
-132.6595
-130.2618
-128.0076
-125.8903
-124.1953
-123.0464
-120.2917
-119.5756
-118.8805
-117.6443
-116.7642
-115.7576
-115.4093
-115.5901
-116.2616
-117.8969
-120.3493
-124.9049
-131.0792
-142.6641
-151.567
-196.1764
-157.1941
-160.1126
-156.6889
-159.5367
-149.2535
-142.2811
-143.4706
-143.3777
-143.6808
-143.4912
-142.4164
-141.2233
-141.5698
-141.2204
-141.1573
-141.1299
-140.9744
-140.9822
-141.2775
-142.2081
-143.7969
-144.9829
-143.9001
-141.2104
-139.7938
-138.3593
-136.7459
-134.9889
-132.6351
-130.2216
-127.9684
-125.8628
-124.171
-123.0193
-120.2281
-119.5623
-118.8682
-117.6137
-116.7382
-115.7369
-115.418
-115.6284
-116.3418
-118.0319
-120.5725
-125.2784
-131.6517
-143.4765
-153.0661
-224.3131
-206.2176
-212.7812
-217.7948
-228.0138
-243.3781
-251.5006
-249.142
-248.4725
-253.0852
-257.9359
-262.6546
-267.722
-272.1241
-274.6081
-275.2635
-274.6091
-272.9237
-270.0639
-266.1758
-261.2133
-255.2335
-248.7289
-242.1367
-235.4486
-228.5887
-221.5576
-214.6628
-208.3294
-202.2336
-195.9147
-189.5522
-183.5513
-177.9266
-172.5127
-167.4203
-162.7325
-158.3622
-154.2244
-150.4508
-146.6588
-143.2965
-140.3843
-137.4832
-134.5775
-131.4888
-128.3179
-125.1192
-121.6221
-118.3462
-116.5781
-116.8412
-116.4737
-114.1731
-111.016
-106.0846
-99.17032
-92.54912
-85.45849
-78.36086
-72.06376
-66.27563
-59.71871
-54.25821
-49.95128
-45.60795
-42.42744
-43.07083
-46.04257
-44.10667
-38.26633
-36.1654
-35.61552
-33.87058
-31.35441
-27.86411
-23.39876
-18.70294
-14.81053
-11.81575
-8.469263
-5.635693
-3.197956
-1.225264
0.009721219
0.8580404
0.8095136
0.109952
-1.756234
-4.200281
-7.172579
-11.07027
-15.54194
-20.0964
-24.27006
-27.39389
-29.19938
-30.69751
-35.29841
-40.60744
-132.9992
-136.1114
-127.0009
-126.5851
-128.6495
-125.1051
-112.9608
-92.9354
-66.63184
-39.86788
-26.47138
-31.41768
-30.47404
-16.46802
-15.0975
-32.20532
-28.10784
-12.30051
-6.388935
-3.467483
-2.293654
-6.708211
-18.4269
-34.07906
-49.66104
-67.44515
-85.53218
-101.8874
-115.274
-125.0495
-130.2583
-130.491
-125.4619
-115.4307
-104.6455
-104.4879
-110.6497
-103.0223
-90.86463
-85.71539
-86.29973
-86.20402
-87.15862
-88.08509
-86.5885
-87.06239
-87.36728
-89.04536
-86.05766
-120.4253
-67.07723
-56.13052
-44.29098
-37.21753
-31.27575
-26.38816
-22.20097
-18.42996
-15.15073
-12.19754
-9.519438
-7.081407
-4.789559
-2.630466
-0.6158411
1.247417
2.983869
4.650113
6.237844
7.750375
9.193833
10.56313
11.85283
13.11853
14.35668
15.56226
16.71241
17.79884
18.84495
19.87371
20.88997
21.88774
22.83409
23.74825
24.65705
25.54641
26.42775
27.29624
28.16279
28.98732
29.8333
30.63709
31.43441
32.21673
32.99512
33.75813
34.50646
35.2561
36.01999
36.7802
37.52051
38.24805
38.97304
39.72091
40.48078
41.2274
41.97258
42.72755
43.48284
44.25016
45.02243
45.79442
46.59648
47.46815
48.35652
49.23646
50.15306
51.07732
52.01515
53.09223
54.58357
48.66735
47.30753
46.55275
45.26794
43.83976
42.56437
41.37596
40.2335
39.17944
38.17939
37.1321
36.06126
35.01112
34.0124
33.03823
32.06363
31.07125
30.07358
29.10221
28.13813
27.15439
26.16781
25.19049
24.19383
23.20479
22.19709
21.14527
20.10692
19.08689
18.05544
16.99134
15.88373
14.8021
13.68066
12.5232
11.36033
10.18562
8.962456
7.718111
6.467447
5.183845
3.82378
2.396666
0.9658979
-0.463682
-1.959389
-3.53121
-5.157798
-6.869359
-8.658094
-10.50755
-12.43146
-14.39307
-16.50614
-18.77092
-21.1393
-23.67383
-26.33889
-29.2416
-32.4047
-35.79237
-39.4645
-43.60185
-48.27506
-53.59796
-59.60325
-66.66875
-75.47655
-86.14576
-103.7725
-122.0364
49.08079
47.49273
46.65594
45.41894
44.01317
42.72402
41.52048
40.37218
39.31263
38.30473
37.25203
36.1774
35.12149
34.11506
33.13478
32.15484
31.1589
30.15654
29.1816
28.21238
27.22449
26.2349
25.25442
24.25369
23.26325
22.25264
21.19594
20.1573
19.13427
18.10054
17.03294
15.92923
14.83556
13.71712
12.55489
11.39064
10.21463
8.987003
7.74147
6.489683
5.205217
3.840459
2.409533
0.977923
-0.4513652
-1.95134
-3.525094
-5.152909
-6.869213
-8.66074
-10.51327
-12.44094
-14.40098
-16.52324
-18.79375
-21.16455
-23.70938
-26.37596
-29.29258
-32.46692
-35.86256
-39.54649
-43.7104
-48.39531
-53.74371
-59.79032
-66.90915
-75.77363
-86.60935
-104.0729
-122.1569
-67.28807
-56.33778
-44.61383
-37.41739
-31.44847
-26.52029
-22.30553
-18.51626
-15.22639
-12.2605
-9.570246
-7.126288
-4.828562
-2.661883
-0.6411271
1.22915
2.966838
4.637276
6.228552
7.744262
9.189427
10.56325
11.85233
13.11944
14.35991
15.56792
16.72139
17.80883
18.85563
19.88508
20.90255
21.90351
22.85244
23.76567
24.67662
25.56689
26.45146
27.32146
28.18599
29.02396
29.86402
30.66929
31.46891
32.25332
33.0332
33.79903
34.54963
35.3017
36.06774
36.83069
37.57308
38.30365
39.03186
39.78197
40.54571
41.2952
42.04347
42.80169
43.56126
44.33239
45.10947
45.88741
46.6942
47.56996
48.46383
49.34647
50.26221
51.17416
52.11036
53.19561
54.35063
-121.7581
-135.5686
-127.8797
-126.8386
-128.8852
-125.7383
-114.5695
-95.33495
-69.65681
-42.2522
-27.20551
-31.47847
-31.50234
-17.35711
-15.28537
-32.28152
-28.75172
-12.9646
-6.824696
-3.704321
-2.515433
-6.747111
-18.29871
-33.95639
-49.5502
-67.37238
-85.48462
-101.9025
-115.3369
-125.1431
-130.3747
-130.7538
-126.0512
-116.5206
-105.8341
-104.9765
-110.99
-103.1924
-90.81584
-85.65708
-86.30624
-86.23597
-87.2083
-88.10958
-86.58354
-87.11608
-87.30972
-88.94149
-87.56177
-112.193
-219.8527
-207.0677
-212.1573
-217.0502
-226.7885
-242.2055
-251.2159
-249.3666
-248.5174
-253.0373
-258.1506
-263.0285
-267.8681
-272.1538
-274.6887
-275.5
-274.9066
-273.2989
-270.494
-266.6276
-261.6792
-255.6814
-249.1405
-242.5276
-235.8267
-228.9536
-221.964
-214.9884
-208.6078
-202.495
-196.1564
-189.7596
-183.7321
-178.0737
-172.6898
-167.54
-162.8482
-158.4486
-154.279
-150.5191
-146.7121
-143.3266
-140.4233
-137.5113
-134.6036
-131.5138
-128.3305
-125.1417
-121.6497
-118.387
-116.6338
-116.889
-116.5435
-114.2289
-111.2563
-106.4349
-99.40969
-92.61412
-85.4233
-78.27643
-71.91354
-66.1952
-59.65149
-54.19405
-49.93291
-45.65771
-42.51915
-43.23625
-46.13176
-44.05846
-38.22648
-36.14955
-35.61041
-33.84458
-31.20282
-27.70124
-23.23698
-18.55744
-14.68698
-11.67361
-8.318535
-5.457089
-2.995532
-1.140383
0.06763527
0.8844369
0.7669337
0.01480001
-1.928809
-4.427538
-7.484178
-11.49935
-16.05303
-20.65357
-24.869
-27.85263
-29.39572
-30.89683
-35.25575
-42.93027
-185.7618
-159.4301
-160.2627
-156.5573
-160.8662
-150.0075
-142.4161
-143.4241
-143.3826
-143.6901
-143.5314
-142.4574
-141.2464
-141.5682
-141.2296
-141.1661
-141.1383
-140.9757
-140.972
-141.2559
-142.203
-143.8485
-145.0654
-143.9467
-141.1919
-139.7778
-138.3317
-136.6818
-134.9351
-132.5463
-130.1321
-127.8684
-125.7449
-124.0663
-122.9489
-120.1284
-119.4877
-118.8136
-117.5481
-116.6815
-115.7022
-115.434
-115.6855
-116.4622
-118.2526
-120.9333
-125.8961
-132.6938
-144.6388
-157.0042
-178.3388
-161.4506
-159.211
-155.2076
-162.4787
-151.1326
-142.6032
-143.3513
-143.3899
-143.7058
-143.6108
-142.5401
-141.2922
-141.5641
-141.2499
-141.1872
-141.1528
-140.9659
-140.957
-141.2303
-142.205
-143.9222
-145.2025
-144.0623
-141.1869
-139.7687
-138.3133
-136.6622
-134.9112
-132.4899
-130.0434
-127.7807
-125.6899
-123.9957
-122.9131
-119.9996
-119.4504
-118.7951
-117.4835
-116.6241
-115.6814
-115.4731
-115.7719
-116.6196
-118.5232
-121.3461
-126.6346
-133.8119
-146.101
-159.8545
-215.7663
-207.5536
-211.4583
-216.2949
-225.4234
-240.4619
-250.297
-249.6238
-248.8492
-253.0669
-258.3158
-263.3573
-267.9668
-272.1398
-274.6686
-275.38
-274.803
-273.25
-270.5669
-266.8076
-261.9686
-256.0246
-249.4681
-242.8353
-236.119
-229.2295
-222.134
-215.1659
-208.7754
-202.6309
-196.3196
-189.9195
-183.8987
-178.2166
-172.7984
-167.6187
-162.9075
-158.5165
-154.3082
-150.5769
-146.7599
-143.3384
-140.4482
-137.5309
-134.6359
-131.5535
-128.3459
-125.173
-121.6868
-118.4391
-116.6729
-116.83
-116.4154
-114.3884
-111.766
-106.9181
-99.67243
-92.71876
-85.42404
-78.22807
-71.77279
-66.1677
-59.60982
-54.15235
-49.95405
-45.76689
-42.66338
-43.44399
-46.20533
-43.97073
-38.1945
-36.16941
-35.63911
-33.86117
-31.2387
-27.63693
-23.12347
-18.44522
-14.5797
-11.50212
-8.124072
-5.12015
-2.711022
-1.063436
0.1221709
0.9303465
0.7198891
-0.0842541
-2.118193
-4.678122
-7.826469
-11.96593
-16.58171
-21.18764
-25.28049
-28.05478
-29.49
-30.9399
-35.08742
-44.59461
-108.4573
-132.742
-128.9128
-127.5449
-129.5251
-127.2809
-116.7891
-98.46917
-73.82644
-46.52731
-29.01749
-31.78105
-32.82897
-18.77843
-15.6342
-32.38137
-29.55877
-14.05492
-7.625544
-4.137786
-2.933354
-6.903466
-18.25361
-33.93888
-49.57404
-67.43228
-85.53231
-102.053
-115.5714
-125.4151
-130.6863
-131.2228
-126.8282
-117.9914
-107.8774
-105.8129
-111.1472
-103.1725
-90.61703
-85.5507
-86.30405
-86.28116
-87.2859
-88.15179
-86.56619
-87.1976
-87.23539
-88.79067
-89.06634
-106.3277
-67.39659
-56.43174
-44.8887
-37.59535
-31.60821
-26.6419
-22.40543
-18.60362
-15.28721
-12.31723
-9.615839
-7.168035
-4.867083
-2.693676
-0.6664328
1.212808
2.948385
4.621795
6.216051
7.735065
9.181588
10.56174
11.84811
13.1162
14.35845
15.5686
16.72651
17.81382
18.85943
19.88945
20.90839
21.91344
22.86417
23.7741
24.6878
25.57821
26.46623
27.33592
28.19706
29.03487
29.87958
30.68588
31.48699
32.27119
33.05214
33.81954
34.57008
35.32114
36.08939
36.85575
37.59815
38.3293
39.05677
39.80903
40.57815
41.32833
42.07613
42.83932
43.60095
44.37405
45.15366
45.93487
46.74417
47.63277
48.53672
49.41572
50.33232
51.24125
52.18573
53.24877
54.03631
49.42697
47.66492
46.72411
45.51541
44.12941
42.83182
41.60345
40.43361
39.36873
38.36779
37.30947
36.2299
35.16482
34.15664
33.17503
32.19567
31.19641
30.18915
29.21583
28.24706
27.25588
26.26512
25.28552
24.27929
23.29275
22.28109
21.21642
20.17786
19.15426
18.121
17.05088
15.94258
14.85005
13.73609
12.56854
11.40425
10.22857
8.996491
7.751914
6.501726
5.218036
3.847177
2.411443
0.9816955
-0.4447954
-1.950363
-3.524997
-5.152306
-6.874893
-8.669276
-10.52459
-12.45535
-14.4087
-16.5441
-18.82079
-21.19185
-23.74774
-26.40951
-29.34347
-32.52827
-35.92667
-39.61706
-43.80376
-48.5197
-53.8822
-59.96448
-67.13206
-76.04941
-87.00505
-104.2131
-121.9091
49.75615
47.90968
46.83479
45.64028
44.29514
43.0103
41.76488
40.5848
39.52231
38.52347
37.45711
36.37597
35.30036
34.28281
33.29423
32.31236
31.30666
30.28826
29.31196
28.33834
27.34074
26.34707
25.36653
24.3512
23.3684
22.35535
21.27909
20.24261
19.21545
18.17971
17.1022
16.00939
14.90188
13.7872
12.61239
11.44769
10.26823
9.024461
7.778675
6.531209
5.252672
3.871896
2.423531
0.9947643
-0.4236267
-1.938554
-3.515894
-5.140136
-6.871877
-8.672091
-10.53547
-12.47241
-14.40849
-16.56101
-18.84499
-21.22032
-23.79409
-26.44246
-29.4033
-32.60403
-36.00935
-39.69976
-43.91556
-48.66927
-54.04651
-60.16663
-67.38879
-76.34257
-87.38758
-104.1874
-121.6813
-67.50947
-56.42562
-45.15799
-37.77785
-31.80063
-26.79056
-22.52705
-18.70676
-15.36293
-12.39278
-9.672549
-7.218329
-4.91625
-2.731077
-0.6920169
1.198348
2.924689
4.602591
6.202686
7.728547
9.177153
10.56555
11.84667
13.11675
14.361
15.57717
16.74286
17.82722
18.87241
19.90672
20.9271
21.93496
22.88875
23.7946
24.71323
25.60302
26.49586
27.36575
28.22963
29.0856
29.91992
30.72575
31.53043
32.31694
33.10126
33.87184
34.62228
35.37541
36.14991
36.92276
37.66452
38.39806
39.12663
39.88135
40.65805
41.40981
42.1604
42.92977
43.69255
44.46785
45.25243
46.03926
46.84633
47.73911
48.6497
49.5199
50.43435
51.32931
52.24725
53.21582
53.62174
-94.43957
-127.0346
-129.3708
-128.645
-130.4743
-128.5548
-119.2928
-102.1771
-78.80554
-52.44474
-32.84551
-32.55407
-34.39379
-20.60329
-15.77101
-32.02032
-30.35475
-15.63396
-8.832232
-4.822141
-3.613906
-7.24873
-18.3493
-34.03694
-49.66891
-67.74154
-85.77365
-102.3607
-115.991
-125.8809
-131.1579
-131.8766
-127.816
-119.7535
-110.4765
-106.7449
-110.4609
-102.4312
-90.15553
-85.3528
-86.28839
-86.33551
-87.41296
-88.17255
-86.53909
-87.33288
-87.17419
-88.44791
-89.86275
-100.6688
-210.9565
-207.8466
-210.6185
-215.4773
-223.8181
-237.4538
-247.6889
-249.2016
-249.3468
-253.1785
-258.4047
-263.7262
-268.1636
-272.2808
-274.883
-275.8127
-275.2968
-273.8061
-271.1085
-267.3458
-262.5363
-256.5922
-249.9789
-243.3167
-236.5915
-229.6954
-222.6102
-215.5597
-209.0914
-203.0456
-196.5544
-190.1306
-184.1361
-178.4197
-172.9925
-167.7557
-163.0026
-158.6268
-154.3404
-150.6682
-146.8297
-143.3422
-140.4966
-137.576
-134.6965
-131.6046
-128.3492
-125.2132
-121.7293
-118.4883
-116.6306
-116.5189
-116.0622
-114.6576
-112.432
-107.4472
-99.89798
-92.81321
-85.38211
-78.14255
-71.54904
-66.11913
-59.55688
-54.12256
-49.99856
-45.93131
-42.8463
-43.61932
-46.12194
-43.75902
-38.18411
-36.24581
-35.71176
-33.90902
-31.14738
-27.59615
-23.05334
-18.38273
-14.4799
-11.29174
-7.894118
-4.688438
-2.370732
-0.9775527
0.2106334
1.002793
0.6705117
-0.1796214
-2.33569
-4.987508
-8.282477
-12.60526
-17.28909
-21.92006
-26.00048
-28.59195
-29.63353
-30.88983
-34.65841
-45.3443
-169.9846
-161.8861
-157.2916
-153.3363
-163.9784
-152.548
-142.8575
-143.2157
-143.4037
-143.7277
-143.717
-142.6842
-141.3311
-141.5461
-141.2854
-141.222
-141.1695
-140.9736
-140.9356
-141.2028
-142.221
-144.033
-145.4224
-144.2695
-141.1891
-139.7756
-138.2906
-136.6026
-134.8691
-132.3841
-129.9188
-127.6398
-125.513
-123.8417
-122.8987
-119.8112
-119.3217
-118.7518
-117.4208
-116.5605
-115.6854
-115.5564
-115.8867
-116.821
-118.8673
-121.8606
-127.5868
-135.1601
-147.8368
-162.9536
-160.495
-160.3018
-155.2265
-152.0089
-164.998
-154.3974
-143.1019
-143.0821
-143.4154
-143.7638
-143.939
-142.8929
-141.3337
-141.4993
-141.3376
-141.2808
-141.2275
-140.933
-140.9036
-141.1746
-142.2585
-144.1935
-145.7575
-144.584
-141.1454
-139.8234
-138.2924
-136.5632
-134.8791
-132.3128
-129.7735
-127.4857
-125.3914
-123.6976
-122.9641
-119.6067
-119.2639
-118.7349
-117.4032
-116.5426
-115.7485
-115.7348
-116.0182
-117.0933
-119.3736
-122.6301
-129.0757
-136.9072
-150.0166
-166.0078
-206.6726
-207.9029
-210.3861
-215.0416
-222.3728
-233.9102
-243.8449
-247.7606
-249.621
-253.2799
-258.4275
-264.1744
-268.3684
-272.3738
-275.0186
-275.8319
-275.3072
-274.0109
-271.4529
-267.7778
-263.0939
-257.1928
-250.4993
-243.7935
-237.059
-230.1316
-223.0429
-215.8703
-209.2809
-203.1998
-196.7714
-190.3623
-184.3747
-178.5931
-173.1582
-167.8443
-163.0521
-158.7295
-154.3522
-150.7551
-146.8822
-143.3163
-140.5724
-137.5962
-134.7067
-131.6408
-128.3631
-125.2772
-121.7728
-118.5316
-116.47
-115.8726
-115.4704
-115.0154
-113.1964
-108.094
-100.1584
-92.86422
-85.29092
-78.10368
-71.27702
-66.04466
-59.57133
-54.06773
-49.95994
-46.13499
-43.01775
-43.57865
-45.61542
-43.27146
-38.17625
-36.39962
-35.89262
-34.09389
-31.3331
-27.64745
-23.09267
-18.42181
-14.3515
-11.04485
-7.582983
-4.268291
-2.031329
-0.854653
0.3585981
1.121021
0.6206548
-0.2675055
-2.664804
-5.465898
-8.971105
-13.54057
-18.26207
-22.87488
-26.8314
-29.02397
-29.55525
-30.40503
-33.85584
-45.09036
-81.67416
-118.1707
-128.1523
-129.8344
-131.9067
-130.8043
-122.5859
-106.8201
-84.61531
-59.51626
-38.74706
-34.16209
-35.84485
-22.07393
-14.99349
-30.48489
-30.7063
-17.70716
-10.52492
-5.795503
-4.86814
-8.200126
-18.76817
-34.21716
-49.68636
-68.54074
-86.60955
-102.9633
-116.6003
-126.579
-131.8532
-132.8079
-129.1138
-121.8392
-113.4049
-107.4173
-108.7934
-100.5125
-89.39369
-85.05353
-86.27474
-86.42158
-87.67024
-88.38154
-86.55715
-87.4587
-87.18445
-87.99258
-89.641
-94.7336
-67.45125
-56.24022
-45.37683
-37.93538
-32.02539
-26.94267
-22.63629
-18.80856
-15.45506
-12.48036
-9.718832
-7.272129
-4.975996
-2.764917
-0.7169312
1.172147
2.885034
4.583598
6.192541
7.728493
9.171427
10.56353
11.84235
13.11228
14.35851
15.59042
16.75202
17.83035
18.88339
19.91796
20.92739
21.93811
22.90885
23.80621
24.73013
25.61714
26.51781
27.38982
28.25403
29.1027
29.93858
30.74769
31.5599
32.3474
33.1305
33.89961
34.65501
35.41254
36.18604
36.95671
37.69731
38.43824
39.16774
39.92441
40.70835
41.46545
42.21487
42.98512
43.75125
44.53596
45.32691
46.12189
46.92344
47.82964
48.7658
49.62835
50.53842
51.39983
52.24558
53.05134
53.10561
50.00539
48.18876
46.98529
45.77888
44.45873
43.18014
41.89377
40.68569
39.61938
38.62768
37.53337
36.45264
35.37239
34.35959
33.35772
32.37446
31.37112
30.35076
29.37932
28.39875
27.39311
26.39854
25.41814
24.39077
23.41469
22.39288
21.30517
20.2746
19.24959
18.21871
17.12837
16.00491
14.92163
13.80527
12.62468
11.47534
10.30228
9.045606
7.795632
6.540331
5.271667
3.893406
2.433043
0.9906479
-0.4147058
-1.93257
-3.519297
-5.139326
-6.872312
-8.671956
-10.54705
-12.51088
-14.42366
-16.59582
-18.86616
-21.24802
-23.85821
-26.47305
-29.47075
-32.67072
-36.10355
-39.79524
-44.03181
-48.81645
-54.20856
-60.37078
-67.65243
-76.62085
-87.69055
-103.8458
-120.8948
50.08879
48.42554
47.18286
45.9804
44.71617
43.49809
42.14731
40.88112
39.83887
38.89595
37.79799
36.66844
35.53463
34.53405
33.55599
32.54322
31.49655
30.45558
29.51453
28.53138
27.50464
26.51769
25.54411
24.47958
23.57466
22.50661
21.38539
20.3705
19.31233
18.31298
17.21055
16.13204
15.05207
13.88968
12.64601
11.5031
10.34093
9.090622
7.869411
6.598979
5.278764
3.902338
2.492394
1.034183
-0.4078569
-1.901315
-3.49005
-5.160158
-6.889832
-8.66685
-10.50043
-12.49136
-14.43021
-16.68379
-18.90703
-21.24892
-23.95875
-26.51369
-29.61354
-32.72554
-36.17691
-39.99648
-44.25464
-49.05691
-54.45854
-60.67548
-68.06046
-77.05526
-88.13955
-103.2705
-119.8738
-67.12753
-56.02832
-45.75956
-38.21492
-32.40186
-27.08147
-22.79286
-19.00142
-15.63292
-12.5594
-9.751347
-7.374052
-5.053524
-2.793754
-0.7817403
1.107005
2.872471
4.603652
6.1856
7.722491
9.132608
10.54019
11.86049
13.09004
14.36861
15.61329
16.72729
17.85628
18.91999
19.92265
20.92154
21.98819
22.99383
23.83159
24.77081
25.65269
26.57101
27.43951
28.29451
29.1365
30.0029
30.82543
31.63057
32.41367
33.18459
33.97845
34.75138
35.48482
36.24119
37.04859
37.81815
38.54757
39.27396
40.0158
40.82536
41.60367
42.3101
43.11487
43.90981
44.67894
45.46472
46.2626
47.05136
47.99409
48.97625
49.77351
50.63452
51.41774
52.16461
52.81881
52.5346
-71.0152
-104.5946
-123.4525
-130.1658
-133.4835
-133.3288
-126.5184
-112.4527
-91.67713
-67.81787
-46.75095
-37.57582
-36.40499
-22.27082
-12.52511
-27.05991
-30.30683
-20.12236
-12.80027
-7.569465
-7.043871
-10.32214
-19.94897
-34.73731
-50.40797
-69.6982
-88.17912
-104.1174
-117.3756
-127.5169
-132.7778
-134.0481
-130.597
-123.9694
-116.6875
-107.881
-106.5351
-97.76226
-88.40241
-84.68963
-86.25699
-86.69088
-88.23228
-88.53515
-86.48589
-88.29609
-87.17686
-87.31816
-88.29508
-89.0081
-203.5265
-206.5651
-210.0868
-214.2161
-220.5492
-230.0595
-239.5789
-245.516
-249.3527
-253.0802
-258.3422
-264.766
-268.5993
-272.6499
-275.4277
-276.4067
-275.7157
-274.5488
-272.1861
-268.5742
-264.0451
-258.2105
-251.4447
-244.7146
-237.9639
-230.9382
-223.8428
-216.4684
-209.7171
-203.7628
-197.3071
-190.6449
-184.5853
-178.8775
-173.4757
-168.1274
-163.1436
-158.9608
-154.4296
-150.7284
-147.0249
-143.3481
-140.5758
-137.6411
-134.7972
-131.8624
-128.4092
-125.243
-121.7726
-118.5171
-116.1091
-114.9416
-114.7953
-115.4954
-114.0174
-108.8377
-100.1655
-92.64149
-85.16132
-78.21243
-70.87211
-65.96843
-59.69409
-53.81244
-49.68056
-46.39068
-43.07513
-43.21241
-44.46694
-42.37757
-38.13919
-36.63288
-36.19841
-34.4211
-31.43742
-27.79557
-23.35872
-18.52097
-14.18701
-10.70366
-7.161724
-3.854379
-1.680449
-0.6275033
0.592554
1.298892
0.5957122
-0.4702127
-3.264146
-6.278495
-10.06448
-14.92585
-19.72989
-24.30462
-27.95187
-29.42246
-29.23615
-29.58711
-32.63023
-44.12108
-151.5812
-156.0376
-153.5301
-152.2948
-165.9209
-156.6406
-142.7732
-142.6558
-143.436
-143.8537
-144.1037
-143.23
-141.5756
-141.4148
-141.4098
-141.3707
-141.196
-140.9584
-140.8594
-141.1363
-142.3047
-144.4694
-146.3879
-145.0988
-141.2122
-139.8538
-138.4176
-136.45
-134.8779
-132.1237
-129.535
-127.2381
-125.1925
-123.4407
-122.9295
-119.4167
-119.0579
-118.611
-117.3387
-116.5935
-115.8096
-116.0689
-116.1974
-117.4778
-120.1336
-123.8443
-131.4832
-139.3256
-153.0133
-169.4427
-0.01562018
-0.00342691
-1.688387
5.737741
0.6500668
-0.04868383
0.03181811
4.796532
6.05053
0.1933186
1.289897
1.36454
-0.004645691
14.03759
-0.1046117
5.483373
10.45472
18.03093
8.169604
-175.137
-0.1412154
8.436073
0.1146699
7.751923
-0.04176915
6.315071
7.893732
3.131207
5.021268
0.255245
10.24468
0.4169008
-27.50367
0.1343794
8.736273
0.2836299
0.1652025
8.883845
0.1277323
7.189921
9.771773
-0.003387228
-2.588182
0.6316388
-8.406693
-125.4561
0.04932212
-0.008359423
-0.01932049
10.37687
0.9517881
-0.1447268
2.402757
-0.4156967
7.713552
0.2042248
6.98994
9.868406
11.59883
-0.006232323
-2.131031
9.045839
-0.09876896
-0.1741962
10.55681
-0.2842901
-0.06798694
0.3643054
0.526952
0.588652
0.8648377
0.5528406
9.020842
3.270251
7.711281
8.794925
6.966008
7.604748
-0.0297846
9.773111
-0.3410034
8.913247
-0.8998001
-0.09143751
-0.3642798
-0.2303993
9.255969
0.1172665
0.05133447
1.153669
7.24701
7.897704
6.15561
3.348346
-1.012468
-4.929311
6.079926
7.920078
-112.4012
-1.472105
-0.433463
-238.4957
13.50796
-0.3497356
0.7247432
5.50402
0.5114142
7.580181
-0.6778583
4.93183
0.2025363
-145.2729
0.08577795
0.8509738
-2.128633
0.009190678
-0.06438271
-6.95624
-15.28103
2.381949
1.32317
-0.176476
0.1798594
-0.2702898
4.895
0.4775538
-0.0162407
0.05445267
-2.920048
0.3725965
12.30956
8.903932
5.67217
-0.3956324
-0.1247343
0.190401
4.926476
-66.39258
21.35833
9.110715
5.764322
10.44903
5.598112
9.789092
0.136796
0.6596192
9.034593
-0.8299489
-0.1343232
-71.2205
1.427085
-0.1558553
0.3160354
5.186111
14.80832
4.732163
-0.2056126
-3.832942
-0.008442909
5.717975
-0.551207
5.188368
3.081518
0.06826274
8.356294
0.2856344
-3.215107
7.354593
0.3197059
3.233231
-0.1157581
-0.7414944
0.08382606
-0.1414184
0.5090966
-0.005844228
0.7902247
-5.541443
-0.09212521
-4.892138
-0.6611361
5.997904
-2.016343
1.759006
1.922447
-0.1346411
7.198463
6.987882
7.332647
0.4293101
7.455942
0.1708617
9.107207
0.1030786
-189.1073
1.479626
0.5315201
-1.553479
-7.965138
1.664016
-84.62673
-7.907729
2.359952
13.06086
-4.928877
1.384662
-0.03387478
-5.383
11.47673
-10.86522
0.02361445
-32.30008
0.001701185
7.177315
-0.1044099
0.1704582
-22.98368
0.0009008546
3.823097
2.606392
-2.548242
7.298218
4.988031
0.1534071
22.3358
2.281887
7.61326
0.2352794
0.6791178
16.25192
-0.3828592
5.312546
19.07868
7.44583
3.164919
-69.96639
4.40895
7.910071
-19.86691
-0.2918994
0.7940815
-0.5680321
-0.1553681
0.1905246
-1.78435
-7.965857
-0.2935316
-4.731386
9.469735
7.798545
7.770212
-173.8336
9.559005
3.900973
-0.09203027
13.40279
0.432114
3.701167
0.5633486
3.689454
4.10671
-1.275274
2.563904
1.061417
8.164105
6.339294
-0.4265337
1.495947
5.231342
-6.335342
-1.444228
0.04875493
0.06156449
-0.1220784
8.473113
-76.41785
7.267356
-0.334348
-25.72794
0.1761618
-5.423039
14.15594
2.064974
0.3833864