/*--------------------------------*- C++ -*----------------------------------*\
| =========                 |                                                 |
| \\      /  F ield         | OpenFOAM: The Open Source CFD Toolbox           |
|  \\    /   O peration     | Version:  2406                                  |
|   \\  /    A nd           | Website:  www.openfoam.com                      |
|    \\/     M anipulation  |                                                 |
\*---------------------------------------------------------------------------*/
FoamFile
{
    version     2.0;
    format      ascii;
    arch        "LSB;label=32;scalar=64";
    class       surfaceScalarField;
    location    "1.18";
    object      phi;
}
// * * * * * * * * * * * * * * * * * * * * * * * * * * * * * * * * * * * * * //

dimensions      [0 3 -1 0 0 0 0];

oriented        oriented;

internalField   nonuniform List<scalar> 
23794
(
-0.005795812
0.006260542
-0.0004647297
-0.00506664
-0.0007291715
-0.004022549
-0.001044092
-0.002553086
-0.001469462
-0.0008280912
-0.001724995
1.927102e-06
-0.0008300182
-0.0001405495
0.0001424766
-0.0007008319
0.0005602824
-0.002149628
0.001448796
-0.005407994
0.003258367
-0.007860503
0.002452509
-0.008370663
0.0005101593
-0.007658744
-0.0007119189
-0.006528577
-0.001130167
-0.005123029
-0.001405548
-0.003582576
-0.001540452
-0.001970322
-0.001612255
-0.0004016882
-0.001568633
0.0005621335
-0.0009638218
0.0001589618
0.0004031717
0.0001452128
1.374908e-05
0.001961407
-0.001816194
0.003998783
-0.002037376
0.004853875
-0.0008550922
0.003310312
0.001543563
-0.0001023107
0.003412623
-0.003116161
0.00301385
-0.002401977
-0.0007141843
-8.262051e-05
-0.002319356
0.001861056
-0.001943677
0.003201577
-0.001340521
0.005394199
-0.002192622
0.008678858
-0.003284659
0.0104865
-0.001807641
0.006625231
0.003861268
-1.142736e-05
0.006636659
-0.001627509
0.001616082
0.001186938
-0.002814447
0.001240435
-5.349723e-05
-0.002890807
0.004131242
-0.007411612
0.004520805
-0.01030522
0.002893613
-0.01186685
0.001561628
-0.01276196
0.0008951064
-0.01333398
0.0005720166
-0.01364148
0.0003075037
-0.013808
0.000166518
-0.01388243
7.443241e-05
-0.01386971
-1.271678e-05
-0.01382164
-4.807179e-05
-0.01371283
-0.0001088118
-0.01355745
-0.0001553813
-0.01334168
-0.0002157703
-0.01309808
-0.0002435976
-0.0128336
-0.0002644819
-0.01251383
-0.000319767
-0.01217108
-0.00034275
-0.01181728
-0.0003537984
-0.01140018
-0.0004171035
-0.0109585
-0.0004416783
-0.01049002
-0.0004684779
-0.01001304
-0.0004769803
-0.009514063
-0.0004989802
-0.008966457
-0.0005476057
-0.008423983
-0.0005424734
-0.007840568
-0.0005834158
-0.007239825
-0.0006007429
-0.006631225
-0.0006086
-0.006012644
-0.0006185807
-0.005364191
-0.0006484527
-0.00471195
-0.0006522418
-0.004050001
-0.0006619481
-0.003372621
-0.00067738
-0.002690215
-0.0006824067
-0.00202843
-0.0006617849
-0.001326017
-0.0007024132
-0.0006482702
-0.0006777466
-7.479607e-06
-0.0006407906
0.0006330734
-0.000640553
0.001401199
-0.0007681257
0.002148753
-0.0007475544
0.002877295
-0.0007285419
0.003587531
-0.0007102358
0.004275149
-0.000687618
0.004958773
-0.0006836242
0.005619559
-0.0006607853
0.006290823
-0.0006712648
0.006942009
-0.0006511855
0.007559311
-0.0006173025
0.008180825
-0.0006215142
0.008789982
-0.0006091566
0.009377441
-0.0005874592
0.009963108
-0.0005856669
0.01053565
-0.0005725399
0.01105385
-0.0005182019
0.01156949
-0.0005156436
0.01207139
-0.0005019012
0.01253235
-0.0004609517
0.01299606
-0.00046371
0.01340831
-0.0004122534
0.01379424
-0.0003859279
0.01414242
-0.0003481818
0.01444924
-0.0003068233
0.01475394
-0.0003046923
0.01502315
-0.0002692188
0.01525524
-0.0002320813
0.01544723
-0.0001919999
0.01559971
-0.000152479
0.01572604
-0.0001263307
0.01579219
-6.614213e-05
0.0158439
-5.17151e-05
0.01582742
1.648429e-05
0.01564751
0.0001799066
0.01533282
0.0003146924
0.01488053
0.0004522926
0.0142012
0.0006793253
0.01301368
0.001187523
0.01068965
0.002324026
0.006498902
0.00419075
0.001733203
0.004765699
-0.0007633337
0.002496537
-0.0036548
0.002891467
-0.007617392
0.003962592
-0.007498668
-0.0001187241
-0.004395642
-0.003103026
-0.002081391
-0.002314251
0.0002894913
-0.002370882
0.003928282
-0.003638791
0.00595947
-0.002031187
-0.00129902
0.00725849
-0.009767989
0.008468969
-0.01115812
0.001390131
-0.008435342
-0.002722778
-0.006077144
-0.002358198
-0.004285977
-0.001791167
-0.002794439
-0.001491538
-0.001096879
-0.001697559
0.00102908
-0.002125959
0.002651821
-0.001622741
0.002683495
-3.167411e-05
0.00188568
0.0007978145
0.00106241
0.0008232704
-6.945111e-05
0.001131861
-0.0007268418
0.0006573907
-0.000495571
-0.0002312708
0.0002560183
-0.0007515893
0.0006908881
-0.0004348698
0.0003850528
0.0003058354
0.0001494066
0.0002356462
-0.0005737133
0.0007231199
-0.002657032
0.002083319
-0.004879014
0.002221982
-0.006163719
0.001284705
-0.006612153
0.0004484338
-0.006650634
3.848125e-05
-0.006528337
-0.0001222971
-0.0002677952
-0.007760994
0.008348155
-0.001051891
-0.00686939
-0.001620775
-0.005615304
-0.002298178
-0.003888475
-0.003196291
-0.001870629
-0.003742841
-0.0007619195
-0.001938728
-0.001076808
0.0004573647
-0.003591713
0.003075187
-0.007761241
0.005618324
-0.0110531
0.006550227
-0.0115747
0.002974105
-0.01070752
-0.0003570152
-0.009610487
-0.001808954
-0.008159051
-0.002581603
-0.006336535
-0.003228064
-0.004402756
-0.003474232
-0.002545442
-0.003469568
-0.001182428
-0.002931647
-0.0009065303
-0.00123972
-0.001156901
0.0006535425
0.0001947444
-0.001337896
0.002995898
-0.004617348
0.005284209
-0.004325688
0.006483102
-0.002053985
0.005689159
0.002337507
0.001716599
0.007385183
-0.003207616
0.007938065
-0.003808745
-0.0001130556
-0.001312239
-0.004815862
0.0002302245
-0.003486141
0.001220549
-0.002330846
0.00333437
-0.004306442
0.006958879
-0.006909169
0.0101559
-0.005004665
0.008823093
0.005194078
0.002440855
0.0130189
-0.002313845
0.006370782
-0.005516473
0.0003881809
-0.01009457
0.004524604
-0.01482669
0.008863359
-0.018453
0.008147113
-0.01970897
0.004149588
-0.02005852
0.001911172
-0.02015919
0.0009957801
-0.02015889
0.0005717099
-0.02002989
0.0001785087
-0.01987021
6.837009e-06
-0.01970128
-9.450152e-05
-0.01949655
-0.0002174443
-0.01927455
-0.0002700705
-0.01898787
-0.0003954946
-0.01865655
-0.0004867001
-0.01826075
-0.0006115641
-0.01783619
-0.00066816
-0.0173964
-0.0007042741
-0.01689725
-0.0008189157
-0.01637093
-0.000869075
-0.01583724
-0.0008874851
-0.01523115
-0.001023193
-0.01460158
-0.001071245
-0.01394123
-0.001128834
-0.01327071
-0.001147501
-0.01258037
-0.001189321
-0.01183209
-0.001295884
-0.01109193
-0.001282636
-0.01030884
-0.001366504
-0.009503484
-0.001406096
-0.008692262
-0.001419822
-0.007873466
-0.001437377
-0.0070182
-0.001503719
-0.006157765
-0.001512677
-0.005288373
-0.00153134
-0.004402121
-0.001563632
-0.003512874
-0.001571654
-0.002645055
-0.001529604
-0.001735912
-0.001611556
-0.0008549178
-0.00155874
-1.418845e-05
-0.00148152
0.0008251045
-0.001479846
0.001809037
-0.001752058
0.002775168
-0.001713686
0.00372055
-0.001673924
0.004643116
-0.001632801
0.005542489
-0.001586991
0.006439086
-0.001580222
0.007309342
-0.001531041
0.008192041
-0.001553964
0.009052289
-0.001511433
0.009871095
-0.001436109
0.01069744
-0.001447857
0.01151377
-0.001425489
0.01230266
-0.001376354
0.01309038
-0.001373377
0.01386717
-0.001349331
0.0145801
-0.001231137
0.01529432
-0.001229859
0.01599323
-0.001200814
0.0166465
-0.001114225
0.01730497
-0.001122181
0.01790295
-0.001010234
0.01847885
-0.0009618213
0.01901233
-0.0008816672
0.01950035
-0.0007948419
0.01999282
-0.0007971664
0.02044748
-0.0007238753
0.02086121
-0.0006458121
0.02123395
-0.0005647371
0.02156578
-0.0004843066
0.02187215
-0.0004327027
0.02211847
-0.0003124618
0.02236198
-0.0002952253
0.0225803
-0.000201841
0.0227132
4.700436e-05
0.02280676
0.0002211367
0.02287547
0.00038358
0.0228989
0.000655896
0.02278466
0.001301766
0.02219335
0.002915338
0.01974508
0.006639018
0.01395945
0.01055133
0.004612366
0.01184362
-0.003228252
0.01073208
-0.003790138
0.004524478
-0.0002295152
-0.003679347
0.001749305
-0.005081845
0.003208452
-0.003773399
0.004016799
-0.003179229
0.006438742
-0.006060734
0.005522984
-0.001115429
-0.005208516
0.01798999
-0.01297939
0.01623984
-0.0126706
0.001081338
-0.009800747
-0.005592628
-0.007241241
-0.004917704
-0.005279801
-0.003752608
-0.003659237
-0.003112102
-0.001784638
-0.003572158
0.0009618536
-0.004872451
0.003947448
-0.004608335
0.004864327
-0.0009485531
0.003235122
0.002427019
0.001124033
0.002934359
-0.0004079403
0.002663835
-0.000955644
0.001205094
-0.000630769
-0.0005561458
0.0001123977
-0.001494756
0.0005716202
-0.0008940922
0.0003794474
0.0004980082
-0.001418937
0.00203403
-0.004747675
0.004051858
-0.007676793
0.005012437
-0.008996612
0.003541802
-0.009115045
0.001403138
-0.008970202
0.0003035913
-0.008869085
-6.263601e-05
-0.008704763
-0.0002866192
-0.0006244037
-0.009726461
0.01027886
-0.00160429
-0.00883981
-0.002507426
-0.007547956
-0.003590031
-0.005712232
-0.005032015
-0.003467957
-0.005987116
-0.002094035
-0.00331265
-0.003474577
0.001837907
-0.00798458
0.00758519
-0.01254887
0.01018262
-0.01409121
0.008092567
-0.01353993
0.00242282
-0.01281031
-0.001086638
-0.01160975
-0.003009509
-0.009841132
-0.004350222
-0.007660057
-0.005409139
-0.005313586
-0.005820703
-0.003165628
-0.005617525
-0.001990873
-0.004106402
-0.002010514
-0.001220079
-0.001620695
0.0002637243
0.0007131196
-0.003671711
0.003978672
-0.007882901
0.00647278
-0.006819795
0.007651576
-0.003232781
0.006869683
0.0031194
0.003439881
0.01081498
-0.002167202
0.01354515
-0.004733578
0.00245332
-0.003681268
-0.005868171
-0.003294499
-0.00387291
-0.002751908
-0.002873437
-0.0002008435
-0.006857507
0.003746904
-0.01085692
0.006765337
-0.008023097
0.006409518
0.005549897
0.001546856
0.01788156
-0.008217757
0.01613539
-0.0167834
0.008953821
-0.0212296
0.008970805
-0.02322339
0.01085716
-0.02361677
0.008540492
-0.02347296
0.004005776
-0.02355849
0.001996698
-0.02366804
0.001105334
-0.02374644
0.0006501101
-0.02367664
0.0001087132
-0.02355498
-0.0001148247
-0.02339526
-0.0002542279
-0.02316749
-0.0004452077
-0.0229136
-0.000523959
-0.02258186
-0.0007272441
-0.02219741
-0.0008711466
-0.02173455
-0.001074418
-0.02123728
-0.001165431
-0.0207227
-0.001218858
-0.02013427
-0.001407344
-0.01951332
-0.001490029
-0.01888502
-0.001515786
-0.01816723
-0.001740982
-0.01742149
-0.001816982
-0.01663849
-0.001911839
-0.01584298
-0.001943005
-0.01502372
-0.002008577
-0.01413275
-0.002186857
-0.01325257
-0.002162816
-0.01231849
-0.002300587
-0.01135787
-0.002366712
-0.0103894
-0.002388298
-0.009411306
-0.002415466
-0.008388956
-0.002526069
-0.007359997
-0.002541635
-0.006319194
-0.002572144
-0.005258426
-0.0026244
-0.004192718
-0.002637361
-0.003150768
-0.002571554
-0.002061325
-0.002701
-0.00100442
-0.002615645
3.658581e-06
-0.002489598
0.001014456
-0.002490643
0.00218221
-0.002919811
0.003332756
-0.002864232
0.004460291
-0.002801459
0.005560422
-0.002732932
0.006633823
-0.002660393
0.007704024
-0.002650423
0.008742101
-0.002569118
0.009795169
-0.002607033
0.01082027
-0.002536531
0.01179563
-0.002411471
0.01277998
-0.00243221
0.01375114
-0.002396651
0.014689
-0.002314211
0.01562555
-0.002309921
0.01654811
-0.002271892
0.01739316
-0.002076194
0.01824032
-0.002077019
0.01906823
-0.00202872
0.01983985
-0.001885848
0.02061967
-0.001902
0.02132436
-0.001714916
0.02200348
-0.001640942
0.02263053
-0.001508725
0.02320114
-0.001365447
0.02377871
-0.001374734
0.02430849
-0.001253655
0.02479031
-0.001127641
0.02522169
-0.0009961077
0.02560396
-0.0008665765
0.02595628
-0.0007850278
0.02623503
-0.0005912155
0.02651259
-0.0005727788
0.02673604
-0.0004252936
0.02681939
-3.634343e-05
0.02683997
0.000200554
0.02682862
0.0003949357
0.02678825
0.0006962587
0.02672078
0.001369242
0.02685512
0.002780999
0.02706049
0.006433646
0.02517884
0.01243297
0.01722465
0.01979781
0.007599106
0.02035763
0.005274796
0.006848787
0.008877992
-0.007282542
0.01196167
-0.008165526
0.01282571
-0.004637432
0.01159776
-0.001951283
0.009929017
-0.004391991
0.004144964
0.004668624
-0.007051362
0.02918632
-0.01335847
0.02254695
-0.01294408
0.0006669479
-0.009748076
-0.008788628
-0.007224356
-0.007441424
-0.005410345
-0.005566619
-0.003998008
-0.004524438
-0.002333709
-0.005236458
0.0004420026
-0.007648163
0.004075157
-0.008241489
0.005678375
-0.002551771
0.003777288
0.004328106
0.001119714
0.005591933
-0.0004965138
0.004280063
-0.001129712
0.001838293
-0.001041703
-0.0006441555
-0.0004965694
-0.002039889
-0.0001710515
-0.00121961
-0.00126586
0.001592816
-0.004955363
0.005723534
-0.008952803
0.008049298
-0.01055176
0.00661139
-0.01055539
0.003545435
-0.0104618
0.001309548
-0.01057409
0.0004158822
-0.0106404
3.674798e-06
-0.01057104
-0.0003559841
-0.0009165789
-0.01206583
0.0125054
-0.00204386
-0.01128996
-0.003283303
-0.01009319
-0.0047868
-0.00832919
-0.006796013
-0.006127322
-0.008188983
-0.005084685
-0.004355287
-0.007766016
0.004519237
-0.01298651
0.01280569
-0.01633381
0.01352991
-0.01664722
0.008405979
-0.01606349
0.001839093
-0.01537744
-0.00177269
-0.01391186
-0.00447509
-0.01186957
-0.006392512
-0.009314594
-0.007964115
-0.006486626
-0.008648671
-0.003752429
-0.008351722
-0.002229043
-0.005629788
-0.002227574
-0.001221548
-0.001440076
-0.0005237739
0.001453766
-0.006565553
0.00497961
-0.01140875
0.00768434
-0.009524526
0.00892604
-0.004474481
0.007804339
0.004241101
0.004516274
0.01410305
-0.001343698
0.01940512
-0.006026139
0.007135761
-0.007154549
-0.004739761
-0.008059018
-0.00296844
-0.007991158
-0.002941297
-0.005676594
-0.009172071
-0.001627175
-0.01490634
0.0008041788
-0.01045445
0.001874699
0.004479377
-0.004430498
0.02418676
-0.0172934
0.02899829
-0.02610532
0.01776574
-0.02825311
0.0111186
-0.02825165
0.01085569
-0.02788537
0.008174219
-0.02807994
0.00420034
-0.0284383
0.002355056
-0.02865971
0.001326745
-0.02877765
0.0007680541
-0.0286765
7.556944e-06
-0.02850279
-0.0002885308
-0.02828409
-0.0004729234
-0.02798601
-0.0007432926
-0.0276603
-0.0008496704
-0.02724325
-0.001144288
-0.0267656
-0.001348798
-0.02619523
-0.001644787
-0.02558414
-0.00177652
-0.02495392
-0.00184908
-0.02423744
-0.002123822
-0.02348216
-0.002245316
-0.02271866
-0.002279283
-0.02185142
-0.002608224
-0.02094895
-0.002719453
-0.02000286
-0.002857929
-0.01904309
-0.002902777
-0.01805623
-0.002995434
-0.01698216
-0.003260925
-0.01592377
-0.003221209
-0.01479945
-0.003424909
-0.01364495
-0.00352121
-0.0124801
-0.003553144
-0.01130422
-0.003591352
-0.01007541
-0.003754878
-0.008838609
-0.003778434
-0.0075871
-0.003823652
-0.006313507
-0.003897994
-0.005031383
-0.003919485
-0.003777468
-0.00382547
-0.002465076
-0.004013392
-0.001189781
-0.00389094
3.300997e-05
-0.00371239
0.001251518
-0.003709151
0.002641511
-0.004309804
0.004013181
-0.004235902
0.005363126
-0.004151404
0.006679903
-0.004049709
0.007964599
-0.003945089
0.009245449
-0.003931272
0.01048779
-0.003811455
0.01175091
-0.003870155
0.01297835
-0.003763977
0.01414964
-0.003582758
0.0153331
-0.003615673
0.01649901
-0.003562557
0.01762849
-0.00344369
0.01875834
-0.003439775
0.01986843
-0.003381983
0.02088934
-0.003097096
0.02191363
-0.003101312
0.02291373
-0.003028818
0.02384867
-0.002820788
0.02479423
-0.002847558
0.02565056
-0.002571255
0.02647633
-0.002466704
0.02724087
-0.002273272
0.02794117
-0.002065747
0.02864958
-0.00208314
0.02930087
-0.001904943
0.02989777
-0.001724544
0.0304332
-0.001531535
0.03091312
-0.001346499
0.03135873
-0.001230639
0.03171814
-0.000950626
0.03207669
-0.0009313268
0.03237493
-0.0007235294
0.0325048
-0.0001662186
0.03254571
0.0001596445
0.0325311
0.0004095497
0.03244444
0.0007829179
0.032213
0.001600683
0.03191327
0.003080723
0.03206343
0.006283486
0.03269951
0.0117969
0.0304943
0.02200302
0.02559985
0.02525208
0.02304385
0.009404788
0.02355407
-0.007792768
0.0245353
-0.00914675
0.02414344
-0.004245571
0.02128766
0.0009044931
0.01530863
0.001587045
0.004401278
0.01557597
-0.006922042
0.04050963
-0.01256755
0.02819246
-0.01246535
0.0005647436
-0.008427391
-0.01282659
-0.00570982
-0.01015899
-0.004198147
-0.007078291
-0.003305037
-0.005417548
-0.002239667
-0.006301828
4.763568e-05
-0.009935465
0.003756802
-0.01195066
0.005727637
-0.004522606
0.003854603
0.00620114
0.00112385
0.008322687
-0.0006047723
0.006008685
-0.001571247
0.002804767
-0.002011559
-0.0002038426
-0.002010291
-0.002041158
-0.00232847
-0.000901431
-0.004892434
0.00415678
-0.009220076
0.01005118
-0.01200362
0.01083284
-0.0122252
0.006832973
-0.01204399
0.003364223
-0.01226485
0.001530403
-0.01251206
0.0006630932
-0.01265388
0.0001454939
-0.01269033
-0.0003195287
-0.001101507
-0.01475153
0.01500561
-0.002297938
-0.01420037
-0.003834468
-0.01327721
-0.005709956
-0.01192254
-0.008150685
-0.01036082
-0.009750701
-0.01033153
-0.004384577
-0.01366089
0.007848597
-0.01798894
0.01713374
-0.01966553
0.0152065
-0.01950596
0.008246412
-0.01896721
0.001300346
-0.01808505
-0.002654858
-0.01634479
-0.006215344
-0.01403489
-0.008702414
-0.01117285
-0.01082615
-0.00793654
-0.01188498
-0.004453001
-0.01183526
-0.00182729
-0.0082555
-0.001462601
-0.001586237
-0.00050539
-0.001480985
0.002661511
-0.009732454
0.006157352
-0.01490459
0.009077762
-0.01244494
0.01038854
-0.005785257
0.008739216
0.005890424
0.004981905
0.01786036
-0.001322274
0.0257093
-0.008111598
0.01392509
-0.01185091
-0.001000446
-0.01434516
-0.000474191
-0.01510192
-0.002184541
-0.01351495
-0.01075904
-0.009854132
-0.01856715
-0.005935161
-0.01437342
-0.006878206
0.005422421
-0.01575301
0.03306156
-0.02744885
0.04069413
-0.03254185
0.02285874
-0.03302609
0.01160284
-0.03304491
0.01087451
-0.03302739
0.008156702
-0.03344441
0.004617364
-0.03384916
0.002759801
-0.03410875
0.001586337
-0.03427431
0.0009336104
-0.03418711
-7.96364e-05
-0.03400822
-0.0004674221
-0.03377441
-0.0007067341
-0.03342856
-0.001089143
-0.03306573
-0.001212502
-0.03257734
-0.001632681
-0.03202166
-0.001904477
-0.03134754
-0.002318909
-0.03062537
-0.002498688
-0.02988345
-0.002591001
-0.02903031
-0.002976964
-0.02813101
-0.003144617
-0.02722532
-0.003184971
-0.02619167
-0.003641871
-0.02511279
-0.003798334
-0.02398227
-0.003988452
-0.02283748
-0.004047566
-0.02166001
-0.004172902
-0.02037153
-0.004549406
-0.01910887
-0.00448387
-0.01776096
-0.004772817
-0.01638017
-0.004901998
-0.01498485
-0.004948462
-0.01357798
-0.00499822
-0.01210411
-0.00522875
-0.01062013
-0.005262412
-0.009115336
-0.00532845
-0.007587224
-0.005426106
-0.006045961
-0.005460748
-0.004540084
-0.005331347
-0.002957784
-0.005595692
-0.001416111
-0.005432613
7.061886e-05
-0.005199119
0.001541869
-0.005180401
0.003198066
-0.005966002
0.004833591
-0.005871427
0.006450678
-0.005768491
0.008022418
-0.005621449
0.009554128
-0.005476799
0.0110838
-0.005460945
0.01256793
-0.005295583
0.01408304
-0.005385269
0.01554925
-0.005230188
0.0169553
-0.004988808
0.01837818
-0.005038546
0.01977124
-0.004955618
0.02112602
-0.004798475
0.02248629
-0.004800037
0.02381275
-0.004708447
0.0250349
-0.004319246
0.02626357
-0.004329978
0.02745927
-0.004224518
0.02857326
-0.003934779
0.02970646
-0.003980763
0.0307263
-0.003591095
0.03170913
-0.003449533
0.03261731
-0.00318145
0.03344492
-0.002893355
0.0342857
-0.002923928
0.03505017
-0.002669407
0.03575466
-0.00242904
0.03637809
-0.002154966
0.03693492
-0.001903326
0.03745481
-0.001750526
0.03785619
-0.001352008
0.03826612
-0.001341257
0.03859695
-0.001054364
0.03872078
-0.0002900468
0.03874132
0.0001391113
0.03869018
0.0004606856
0.03856599
0.0009071096
0.03830523
0.00186144
0.03795825
0.003427702
0.03768827
0.006553469
0.03839727
0.0110879
0.04003668
0.02036361
0.04062341
0.02466535
0.03944139
0.01058681
0.03752886
-0.005880246
0.03604975
-0.00766764
0.03427008
-0.002465896
0.03051675
0.004657822
0.02177786
0.01032593
0.007161573
0.03019226
-0.005044243
0.05271545
-0.01085246
0.03400068
-0.01088885
0.0006011376
-0.005994957
-0.01772048
-0.002768343
-0.01338561
-0.001258382
-0.008588252
-0.0009651742
-0.005710756
-0.0009357673
-0.006331235
0.0001559641
-0.0110272
0.003276181
-0.01507087
0.005289468
-0.006535892
0.00358082
0.007909788
0.001004217
0.01089929
-0.0008919571
0.007904859
-0.002437896
0.004350706
-0.003809345
0.001167606
-0.004952537
-0.0008979652
-0.006578548
0.0007245799
-0.009810577
0.007388809
-0.01309472
0.01333532
-0.01412348
0.0118616
-0.01380205
0.006511543
-0.01390626
0.003468429
-0.0142783
0.00190244
-0.0146074
0.000992194
-0.01488639
0.0004244862
-0.0150559
-0.0001500162
-0.001151801
-0.017643
0.01769786
-0.002352793
-0.01739686
-0.004080607
-0.01691988
-0.006186938
-0.0163099
-0.008760667
-0.01578443
-0.01027617
-0.01686211
-0.003306898
-0.02002753
0.01101401
-0.02268215
0.01978836
-0.02291669
0.01544104
-0.02264467
0.00797439
-0.02188262
0.0005382986
-0.02070758
-0.003829899
-0.01867131
-0.008251613
-0.01606564
-0.01130808
-0.01296214
-0.01392965
-0.009523482
-0.01532364
-0.005504721
-0.01585402
-0.001169446
-0.01259078
0.0003954687
-0.003151151
0.00169415
-0.002779666
0.004587141
-0.01262544
0.007771381
-0.01808883
0.01096152
-0.01563508
0.01235099
-0.007174724
0.009884001
0.008357414
0.004909809
0.02283455
-0.002445443
0.03306455
-0.01137735
0.022857
-0.01788725
0.005509453
-0.02200639
0.003644945
-0.02398253
-0.0002083945
-0.02398103
-0.01076054
-0.0223528
-0.02019539
-0.02016481
-0.01656141
-0.02335516
0.008612771
-0.03122581
0.04093221
-0.03722044
0.04668876
-0.03828333
0.02392162
-0.03894379
0.0122633
-0.03961374
0.01154446
-0.03989401
0.008436974
-0.04040878
0.005132127
-0.04087499
0.00322601
-0.04114246
0.001853811
-0.04132153
0.001112681
-0.04115653
-0.0002446405
-0.04091779
-0.0007061597
-0.04061818
-0.001006345
-0.04017921
-0.001528109
-0.03973951
-0.001652206
-0.0391393
-0.00223289
-0.0384665
-0.00257727
-0.03764727
-0.003138147
-0.03677048
-0.00337547
-0.03587795
-0.003483537
-0.03484564
-0.004009269
-0.03376113
-0.004229131
-0.03267623
-0.004269875
-0.03143343
-0.004884666
-0.03013196
-0.005099802
-0.02877459
-0.005345826
-0.02740047
-0.005421682
-0.02599136
-0.005582022
-0.02443857
-0.006102191
-0.02293223
-0.005990214
-0.02131202
-0.00639302
-0.01965759
-0.006556434
-0.01798604
-0.006620008
-0.01630429
-0.006679967
-0.01454124
-0.006991803
-0.01276865
-0.007034999
-0.0109615
-0.007135606
-0.009129919
-0.007257684
-0.00727094
-0.007319727
-0.005468097
-0.00713419
-0.003563785
-0.007500004
-0.001694486
-0.007301912
0.0001152427
-0.007008848
0.00189448
-0.006959638
0.003873141
-0.007944664
0.005829264
-0.00782755
0.007756255
-0.007695482
0.009622767
-0.007487961
0.01144621
-0.007300241
0.01327453
-0.007289263
0.01505152
-0.007072582
0.01687708
-0.007210829
0.01862986
-0.006982967
0.02032364
-0.00668258
0.0220432
-0.00675811
0.02370942
-0.006621837
0.02533532
-0.006424378
0.02698492
-0.006449634
0.028574
-0.006297531
0.03003898
-0.00578422
0.03151963
-0.005810629
0.03295786
-0.005662754
0.03429199
-0.005268905
0.03565919
-0.005347966
0.03688687
-0.004818768
0.0380704
-0.004633065
0.03916237
-0.004273421
0.04016254
-0.003893521
0.04118439
-0.003945779
0.04210377
-0.003588796
0.04296596
-0.003291224
0.04372089
-0.002909898
0.04440472
-0.002587157
0.04504552
-0.002391324
0.0455465
-0.001852986
0.046057
-0.001851757
0.0464632
-0.001460561
0.04665403
-0.0004808789
0.04670805
8.509155e-05
0.04669779
0.000470943
0.04659144
0.001013457
0.04630299
0.002149889
0.04593291
0.00379779
0.04555166
0.006934715
0.04552849
0.01111107
0.04748995
0.01840215
0.05008297
0.02207233
0.04966311
0.01100667
0.04662826
-0.002845396
0.04382653
-0.004865907
0.04130403
5.659634e-05
0.03780814
0.008153713
0.02897548
0.01915859
0.01299209
0.04617565
-0.0009412604
0.0666488
-0.006549691
0.03960911
-0.006302434
0.0003538812
-0.001501302
-0.02252162
0.001803539
-0.01669045
0.00374771
-0.01053242
0.003436819
-0.005399865
0.002031919
-0.004926334
0.001358922
-0.0103542
0.003097601
-0.01680955
0.004744335
-0.008182626
0.003128986
0.009525137
0.0007648809
0.01326339
-0.001398457
0.0100682
-0.003828638
0.006780886
-0.00645277
0.003791738
-0.008941314
0.001590579
-0.01158427
0.003367532
-0.01450729
0.01031183
-0.01614126
0.01496929
-0.01603625
0.0117566
-0.01588327
0.006358559
-0.01624626
0.003831425
-0.01665065
0.002306825
-0.01702661
0.001368152
-0.01734735
0.0007452303
-0.01762679
0.0001294258
-0.001080737
-0.02044985
0.02043248
-0.002335423
-0.02047445
-0.004056013
-0.02050538
-0.006156002
-0.02085206
-0.008413988
-0.02145675
-0.009671476
-0.0233257
-0.001437944
-0.02582486
0.01351317
-0.02690877
0.02087227
-0.02607459
0.01460686
-0.02582219
0.007721987
-0.02460427
-0.0006796255
-0.02316682
-0.005267349
-0.02078324
-0.01063519
-0.01777915
-0.01431217
-0.01436114
-0.01734766
-0.01088332
-0.01880146
-0.006762011
-0.01997533
-0.00146955
-0.01788324
0.002950474
-0.007571175
0.005249385
-0.005078577
0.006968119
-0.01434418
0.01000128
-0.02112199
0.01361142
-0.01924522
0.0150969
-0.008660199
0.01140454
0.01204977
0.004349461
0.02988963
-0.004806693
0.04222071
-0.01584887
0.03389917
-0.02477408
0.01443467
-0.03037058
0.009241438
-0.03388697
0.003307996
-0.03630722
-0.008340288
-0.03824053
-0.01826208
-0.04026222
-0.01453972
-0.04436953
0.01272009
-0.04740741
0.0439701
-0.04627469
0.04555603
-0.04533898
0.02298592
-0.04678253
0.01370685
-0.04753939
0.01230132
-0.04787545
0.00877304
-0.04838881
0.005645488
-0.04892898
0.003766181
-0.04921289
0.00213772
-0.04945087
0.001350657
-0.04929821
-0.0003973049
-0.04902788
-0.0009764848
-0.04867891
-0.001355317
-0.04812731
-0.002079708
-0.04763661
-0.002142903
-0.0469031
-0.002966399
-0.04611291
-0.003367465
-0.04513158
-0.004119471
-0.04407473
-0.004432324
-0.04301657
-0.004541698
-0.04178348
-0.005242356
-0.04048226
-0.005530351
-0.03918063
-0.005571504
-0.03770023
-0.006365065
-0.03614182
-0.006658215
-0.03451655
-0.006971096
-0.03285152
-0.00708671
-0.03118842
-0.007245127
-0.02930738
-0.007983225
-0.02751604
-0.007781558
-0.02556154
-0.00834752
-0.02358325
-0.00853472
-0.02158684
-0.008616417
-0.01954484
-0.008721971
-0.01745218
-0.009084463
-0.0153438
-0.009143375
-0.01318213
-0.009297286
-0.01101136
-0.00942845
-0.008740004
-0.009591083
-0.006602041
-0.009272153
-0.004310574
-0.00979147
-0.002037987
-0.0095745
0.0001673725
-0.009214207
0.002322199
-0.009114464
0.004692476
-0.01031494
0.007038193
-0.01017327
0.009297881
-0.00995517
0.01151603
-0.009706114
0.01370463
-0.009488833
0.01589115
-0.009475784
0.0180226
-0.009204038
0.02024112
-0.009429343
0.02234308
-0.009084935
0.02437398
-0.008713473
0.02643994
-0.008824068
0.02845346
-0.008635358
0.0304083
-0.00837922
0.03237991
-0.008421247
0.0342901
-0.008207719
0.0360412
-0.007535318
0.037815
-0.007584435
0.03951906
-0.007366814
0.04113207
-0.006881914
0.04277353
-0.006989427
0.04423411
-0.006279349
0.04566458
-0.006063532
0.04695439
-0.005563236
0.04815153
-0.005090653
0.04938123
-0.005175479
0.05046092
-0.004668491
0.05150402
-0.00433432
0.05238311
-0.003788996
0.05320105
-0.003405088
0.05397212
-0.003162393
0.054542
-0.002422875
0.05515043
-0.002460184
0.05565508
-0.001965205
0.05584873
-0.0006745295
0.05589991
3.390411e-05
0.05583513
0.000535727
0.05570609
0.001142492
0.05537757
0.002478416
0.05502238
0.004152977
0.05477401
0.007183089
0.054672
0.01121308
0.05604296
0.01703118
0.05823866
0.01987664
0.05772428
0.01152104
0.05434755
0.0005313323
0.05108267
-0.001601025
0.04805523
0.003084033
0.04473959
0.01146936
0.03732314
0.02657504
0.02255265
0.06094614
0.009142787
0.08005867
0.002310802
0.04644109
0.002821271
-0.0001565882
0.006997787
-0.02669813
0.009073369
-0.01876603
0.01053565
-0.0119947
0.009925385
-0.004789603
0.007430137
-0.002431085
0.004617984
-0.007542046
0.004055631
-0.0162472
0.004660126
-0.008787121
0.002826321
0.01135894
0.0006002919
0.01548942
-0.001986528
0.01265502
-0.005560839
0.0103552
-0.009388995
0.007619895
-0.0128857
0.005087283
-0.01588944
0.006371272
-0.01812014
0.01254253
-0.01855257
0.01540172
-0.01819916
0.01140319
-0.01843893
0.006598321
-0.01894463
0.00433713
-0.01942125
0.002783448
-0.01984721
0.001794109
-0.02014649
0.001044509
-0.02040641
0.0003893458
-0.001054663
-0.02304896
0.0231901
-0.002476561
-0.02314935
-0.003955629
-0.02333323
-0.005972121
-0.02462398
-0.00712324
-0.02652988
-0.00776557
-0.02904566
0.001077836
-0.03073931
0.01520681
-0.03071336
0.02084632
-0.02887849
0.01277199
-0.02873066
0.007574155
-0.02678526
-0.002625023
-0.02524485
-0.00680776
-0.02271383
-0.01316621
-0.01916219
-0.01786382
-0.01520538
-0.02130447
-0.0117199
-0.02228694
-0.007806375
-0.02388886
-0.002324165
-0.02336545
0.003694094
-0.01358944
0.007218756
-0.008603239
0.008937881
-0.0160633
0.01261855
-0.02480266
0.01671342
-0.02334009
0.01808353
-0.01003031
0.01382241
0.01631088
0.004022991
0.03968906
-0.008657944
0.05490164
-0.0216911
0.04693233
-0.03192263
0.0246662
-0.03834811
0.01566691
-0.04333659
0.00829648
-0.04815966
-0.003517218
-0.05319632
-0.01322542
-0.05884004
-0.008895999
-0.06285054
0.01673058
-0.06105823
0.04217779
-0.0555997
0.0400975
-0.05474172
0.02212794
-0.05648837
0.01545349
-0.05718712
0.01300008
-0.05769066
0.009276583
-0.05820646
0.006161284
-0.05889768
0.0044574
-0.05909359
0.002333628
-0.05940785
0.001664917
-0.05912923
-0.000675918
-0.05880412
-0.001301599
-0.0584451
-0.001714333
-0.05771864
-0.002806175
-0.05716527
-0.002696272
-0.05627145
-0.003860213
-0.05534805
-0.004290872
-0.05415164
-0.005315881
-0.0528528
-0.005731159
-0.05160514
-0.005789362
-0.05015451
-0.006692987
-0.0485345
-0.007150354
-0.0469792
-0.007126807
-0.04522789
-0.008116377
-0.04337647
-0.008509635
-0.0413943
-0.008953261
-0.03937578
-0.009105234
-0.03747242
-0.00914849
-0.03513181
-0.01032383
-0.03303246
-0.009880913
-0.03061503
-0.01076495
-0.02829892
-0.01085083
-0.0259128
-0.01100253
-0.02342855
-0.01120622
-0.02095858
-0.01155444
-0.01841226
-0.0116897
-0.01581222
-0.01189732
-0.0132784
-0.01196227
-0.01051621
-0.01235328
-0.008014292
-0.01177407
-0.005218278
-0.01258748
-0.002472002
-0.01232077
0.0002241106
-0.01191032
0.002856165
-0.01174652
0.005725727
-0.0131845
0.008431127
-0.01287867
0.01107173
-0.01259578
0.01375246
-0.01238684
0.01642225
-0.01215862
0.01905708
-0.01211061
0.02158511
-0.01173207
0.02432079
-0.01216503
0.02682448
-0.01158863