/*--------------------------------*- C++ -*----------------------------------*\
| =========                 |                                                 |
| \\      /  F ield         | OpenFOAM: The Open Source CFD Toolbox           |
|  \\    /   O peration     | Version:  2406                                  |
|   \\  /    A nd           | Website:  www.openfoam.com                      |
|    \\/     M anipulation  |                                                 |
\*---------------------------------------------------------------------------*/
FoamFile
{
    version     2.0;
    format      ascii;
    arch        "LSB;label=32;scalar=64";
    class       surfaceScalarField;
    location    "0.06";
    object      phi;
}
// * * * * * * * * * * * * * * * * * * * * * * * * * * * * * * * * * * * * * //

dimensions      [0 3 -1 0 0 0 0];

oriented        oriented;

internalField   nonuniform List<scalar> 
6741
(
5.22339e-10
1.095549e-09
-1.617888e-09
-1.185184e-09
-1.113938e-10
1.296578e-09
1.669331e-09
-1.616615e-09
-5.271586e-11
6.100167e-10
9.107681e-10
-1.520785e-09
1.589364e-09
-8.540699e-10
-7.352943e-10
2.09312e-09
-8.572242e-10
-1.235896e-09
-1.182387e-09
-2.69066e-10
1.451453e-09
-8.690861e-10
1.818106e-09
-9.490196e-10
1.754925e-10
1.979428e-09
-2.154921e-09
-1.525135e-09
2.885344e-10
1.2366e-09
-1.183457e-10
1.859473e-09
-1.741127e-09
1.260468e-09
-1.836797e-09
5.76329e-10
1.397143e-09
-1.904249e-09
5.071059e-10
1.86139e-09
-1.665266e-09
-1.961242e-10
-2.52856e-10
1.481996e-09
-1.22914e-09
3.361518e-09
-1.927465e-09
-1.434052e-09
-9.446648e-10
-5.280219e-10
1.472687e-09
1.184029e-09
-1.463726e-09
2.796971e-10
1.931298e-09
-1.77529e-09
9.094389e-10
-1.779106e-09
8.696672e-10
-2.343535e-09
1.28326e-09
1.060275e-09
4.493003e-10
-1.357051e-09
9.077507e-10
-1.601184e-09
1.324217e-09
2.769676e-10
5.153092e-10
1.433214e-09
-1.948523e-09
3.705339e-10
1.299163e-09
-1.669697e-09
1.791126e-09
-1.543292e-09
-2.478331e-10
1.760807e-09
-1.129196e-09
-6.316106e-10
-2.057029e-09
1.128213e-09
9.288154e-10
-1.392901e-09
1.713953e-09
-3.210525e-10
-4.557772e-09
6.67043e-10
3.890729e-09
-2.021803e-09
6.982633e-10
1.32354e-09
-1.442046e-09
1.052662e-09
3.893834e-10
1.737239e-09
-1.00211e-09
-7.351285e-10
2.635454e-09
-1.550373e-10
-2.480417e-09
3.95965e-09
2.097635e-09
-6.057285e-09
-1.356468e-09
1.586676e-09
-2.30208e-10
-1.473799e-09
-2.964697e-10
1.770268e-09
4.785401e-09
2.363648e-09
-7.149049e-09
1.746169e-09
-5.731092e-10
-1.17306e-09
-1.787964e-09
2.100546e-09
-3.12582e-10
1.518202e-09
5.753551e-10
-2.093557e-09
-6.929252e-10
-1.253207e-09
1.946132e-09
1.442814e-09
-1.764932e-10
-1.266321e-09
9.619993e-10
-1.614932e-09
6.529325e-10
-2.11615e-09
1.418943e-09
6.972074e-10
-1.508616e-09
5.754943e-10
9.33122e-10
-5.784723e-10
-1.151297e-09
1.72977e-09
-1.240919e-10
-1.541225e-09
1.665317e-09
-6.319356e-10
-1.287906e-09
1.919841e-09
5.561513e-10
1.307211e-09
-1.863362e-09
-1.784533e-09
1.759006e-09
2.552637e-11
-1.314546e-09
3.656971e-10
9.488491e-10
1.409205e-09
-2.76291e-10
-1.132914e-09
1.812353e-09
-4.152299e-10
-1.397123e-09
-1.52366e-10
1.338553e-09
-1.186187e-09
4.738621e-10
1.333765e-09
-1.807627e-09
-1.687983e-09
1.437572e-09
2.504106e-10
-1.567626e-10
-1.617241e-09
1.774004e-09
-1.474398e-09
2.191584e-09
-7.171861e-10
6.132709e-10
-1.664666e-09
1.051395e-09
-9.672137e-10
-3.859079e-10
1.353122e-09
-1.505966e-09
9.707277e-10
5.352388e-10
-1.377669e-09
1.524719e-09
-1.470495e-10
4.804531e-10
1.381247e-09
-1.8617e-09
-2.278826e-09
1.19845e-09
1.080376e-09
1.432989e-09
-1.110829e-09
-3.221597e-10
-1.770574e-09
1.363102e-09
4.074718e-10
4.46445e-10
9.865658e-10
-1.433011e-09
6.757287e-09
-7.21692e-09
4.596332e-10
-1.804148e-09
3.207919e-10
1.483357e-09
3.829608e-10
-1.98241e-09
1.599449e-09
1.421256e-09
-1.597562e-09
1.763064e-10
1.391234e-09
-2.790854e-10
-1.112149e-09
1.501048e-09
-1.931335e-09
4.302866e-10
5.12407e-09
1.103203e-09
-6.227274e-09
-1.203071e-09
-3.799066e-12
1.206871e-09
2.069866e-09
-6.416722e-10
-1.428193e-09
1.652404e-09
-2.610833e-10
-1.391321e-09
-1.686978e-09
-3.707697e-10
2.057748e-09
1.899216e-09
-2.266833e-09
3.676175e-10
3.12957e-10
1.274342e-09
-1.587299e-09
1.172567e-09
-1.284042e-09
1.11475e-10
-9.432117e-10
-2.229674e-10
-1.642111e-09
-3.209477e-10
1.963058e-09
-1.624542e-09
1.25683e-09
3.67712e-10
-4.355299e-10
2.125573e-09
-1.690043e-09
9.788487e-10
-1.636747e-09
6.578986e-10
6.094069e-10
2.410864e-09
-3.020271e-09
-5.204664e-10
-1.180448e-09
1.700915e-09
7.848701e-10
-1.716147e-09
9.312764e-10
2.744422e-10
-1.471332e-09
1.19689e-09
1.313063e-09
3.085346e-10
-1.621597e-09
-2.48435e-10
2.030808e-09
-1.782373e-09
-1.36304e-10
-1.619914e-09
1.756218e-09
-9.724069e-10
1.553151e-09
-5.807442e-10
2.246488e-11
-2.957896e-09
2.935431e-09
8.40817e-10
-1.794909e-09
9.540923e-10
-1.843448e-10
1.232278e-09
-1.047933e-09
-1.449535e-09
-5.908105e-11
-5.906321e-09
3.823012e-09
2.083309e-09
1.465611e-09
-8.55594e-10
1.327478e-09
-1.695474e-09
3.679962e-10
-3.035186e-09
8.567693e-11
2.949509e-09
-2.398918e-09
-3.045327e-09
5.444245e-09
3.817582e-10
-2.023869e-09
2.417899e-10
1.327194e-09
-1.568983e-09
-1.860622e-09
1.413444e-09
4.471785e-10
-2.12215e-09
5.57474e-10
-2.127711e-10
1.945905e-09
-1.733134e-09
1.096131e-09
-1.759962e-09
6.638309e-10
1.201953e-09
-8.563211e-10
-3.456323e-10
-1.952217e-09
1.007552e-09
-7.134554e-10
-7.825238e-10
1.495979e-09
-1.170309e-09
1.67243e-09
-5.021216e-10
1.126013e-09
-6.308986e-11
-1.062923e-09
1.655415e-09
-2.641811e-10
-1.667918e-09
3.177342e-10
1.350184e-09
-1.917614e-09
1.01955e-09
8.980639e-10
-1.567176e-09
-1.380325e-10
1.705208e-09
-2.378245e-09
2.370819e-09
7.426091e-12
-9.490654e-10
-1.659501e-10
1.115016e-09
3.286105e-09
7.940569e-10
-4.080162e-09
1.640243e-09
-1.302547e-09
-3.376959e-10
-1.148174e-09
-9.679767e-10
1.337739e-09
-1.574437e-09
2.366984e-10
-1.076095e-09
-9.041049e-10
1.9802e-09
3.012288e-09
-3.209324e-09
1.970366e-10
-2.954609e-09
3.722595e-10
2.58235e-09
-1.781797e-09
1.514489e-09
2.673075e-10
2.152093e-09
-3.269579e-10
-1.825135e-09
6.844305e-11
-1.341902e-09
1.273459e-09
-1.341214e-09
-5.619286e-10
1.903143e-09
5.349689e-10
1.093198e-09
-1.628167e-09
2.39781e-09
-2.21304e-09
-1.847698e-10
-1.685309e-09
8.884387e-10
7.968704e-10
1.49998e-09
-2.377995e-09
8.780151e-10
-1.871433e-09
1.495139e-09
3.76294e-10
-1.415924e-09
1.204533e-09
2.113913e-10
-8.352433e-10
-1.221785e-09
2.027471e-10
-2.672534e-09
2.469787e-09
3.470143e-09
-5.869061e-09
-6.748431e-11
-1.81255e-09
1.880035e-09
1.003151e-09
-1.558291e-09
5.551401e-10
-1.182956e-09
-3.421784e-10
-1.261387e-09
2.307802e-09
-1.046415e-09
-1.578796e-09
2.192067e-09
-4.847405e-10
-1.260856e-09
1.745596e-09
1.079318e-09
-1.215043e-09
1.35725e-10
-1.385357e-09
1.201012e-09
-7.999373e-10
-5.22371e-10
1.322308e-09
1.18379e-09
-1.072857e-09
-1.109333e-10
-2.694932e-09
1.221133e-09
-1.927971e-09
-2.152621e-10
2.143233e-09
4.152633e-09
-1.383224e-09
-2.769409e-09
1.082023e-09
8.219617e-10
-1.903985e-09
4.464736e-11
-1.078267e-09
1.03362e-09
1.999567e-09
-1.245333e-09
-7.542334e-10
1.33188e-09
6.23824e-11
-1.394263e-09
6.342255e-10
-1.980029e-09
1.345803e-09
1.610221e-09
-2.297793e-09
6.875725e-10
1.997736e-09
-1.815674e-09
-1.820615e-10
-1.951771e-09
6.737172e-09
1.829774e-09
-1.743591e-10
-8.037442e-10
1.54835e-09
-7.44606e-10
1.176077e-09
-1.468872e-09
-3.199575e-09
1.894891e-10
3.010086e-09
2.116098e-10
1.281877e-09
-1.493487e-09
1.453383e-09
6.528641e-10
-2.106247e-09
1.057119e-09
3.688248e-10
-1.425944e-09
8.320574e-10
8.35821e-10
-1.667878e-09
-1.980009e-09
5.904774e-10
1.389532e-09
3.006108e-09
-2.098835e-09
-9.072733e-10
7.443433e-09
-3.483782e-09
-1.082989e-09
5.10863e-10
1.590821e-09
-2.101684e-09
-4.403271e-10
-9.010557e-10
1.341383e-09
-1.713795e-09
1.642878e-09
7.091667e-11
-7.827563e-10
1.847949e-09
-1.065193e-09
-1.237776e-09
1.370888e-09
-1.331129e-10
-7.791478e-10
-1.119661e-09
1.898808e-09
-2.22103e-10
-1.316367e-09
1.53847e-09
2.058368e-09
-6.113879e-10
-1.44698e-09
-6.208324e-10
-9.110861e-10
1.531919e-09
-3.486879e-09
3.277239e-09
2.096406e-10
-1.03133e-09
1.964185e-09
-9.328551e-10
-3.103077e-10
-7.693998e-10
1.079707e-09
1.084416e-09
5.558267e-10
1.702564e-09
-1.191701e-09
-1.802884e-10
-1.062084e-09
1.242373e-09
1.606016e-09
-6.271668e-10
3.240137e-10
-1.665228e-09
1.321811e-10
-1.525082e-09
7.437974e-10
-2.252597e-09
1.508799e-09
-1.390922e-09
-6.009872e-10
-1.118599e-09
-5.730578e-10
1.691657e-09
-1.759475e-09
6.718802e-10
1.087595e-09
-4.143388e-10
1.325381e-09
-9.110418e-10
-1.680383e-09
9.284775e-10
7.519051e-10
-1.061362e-09
-6.082644e-10
1.669627e-09
4.509739e-10
-1.985889e-09
1.534915e-09
9.99824e-10
3.785176e-10
-1.378342e-09
2.443818e-11
-1.530405e-09
1.694759e-09
-4.698501e-10
-1.224909e-09
-9.23773e-10
1.885649e-09
-9.618764e-10
5.138127e-09
-2.205944e-09
-2.932183e-09
-1.803124e-09
1.705356e-09
9.776762e-11
-5.886438e-10
1.485701e-09
-8.970574e-10
1.642508e-09
-1.954084e-09
3.115753e-10
1.703346e-09
-4.207077e-10
-1.282638e-09
-5.56939e-10
1.414869e-09
-8.579302e-10
-1.320809e-09
1.574836e-09
-2.540268e-10
-5.060775e-09
7.582962e-09
-2.522187e-09
2.295772e-10
1.600027e-09
-1.829605e-09
5.835445e-10
-1.590642e-09
1.007097e-09
9.082861e-10
8.210291e-10
-1.729315e-09
-9.044223e-10
-1.303784e-09
2.208207e-09
1.747358e-10
-1.552405e-09
2.342898e-09
-2.071012e-10
-2.135796e-09
-7.56305e-11
-1.491545e-09
1.246089e-09
4.210157e-10
-1.667105e-09
-1.606161e-09
1.669764e-09
-6.360303e-11
-1.824651e-09
-4.006428e-10
2.225294e-09
3.874071e-11
1.856538e-09
-1.895279e-09
2.120976e-09
-5.198185e-10
-1.601158e-09
-1.404717e-09
1.396017e-09
8.700757e-12
-1.658873e-09
7.445392e-10
9.143335e-10
2.042736e-09
-4.242875e-10
-1.618449e-09
-1.233809e-09
-3.424258e-10
1.576235e-09
-1.31421e-09
-2.799418e-10
1.594151e-09
2.850711e-10
-1.381601e-09
1.09653e-09
1.440671e-09
-1.495147e-09
5.447586e-11
1.679915e-10
1.356727e-09
1.870011e-09
-2.442742e-09
5.727302e-10
1.132613e-09
-1.77692e-09
6.443072e-10
1.67947e-09
-2.029495e-09
3.500249e-10
-7.270239e-10
1.844366e-09
-1.117342e-09
1.653736e-09
-8.133443e-10
-8.403921e-10
-1.284007e-09
1.618763e-09
-3.347558e-10
1.100746e-09
1.657643e-11
-1.117322e-09
4.328815e-10
1.750057e-09
-2.182938e-09
1.186619e-09
-1.5403e-09
3.53681e-10
5.712664e-12
-1.401785e-09
1.396072e-09
3.132765e-09
-2.663673e-09
-4.690919e-10
1.400991e-09
-7.800373e-11
-1.322987e-09
9.020988e-10
6.872654e-10
1.821687e-09
-9.121103e-09
7.299415e-09
-8.059785e-10
-2.216954e-09
3.022933e-09
4.460762e-10
-8.223307e-09
7.77723e-09
1.73934e-09
-1.76856e-09
2.922063e-11
3.164313e-10
5.581714e-09
-5.898146e-09
2.013672e-09
-2.198529e-09
1.848572e-10
-1.527388e-09
-1.203215e-10
1.64771e-09
8.195896e-10
-1.397005e-09
5.774154e-10
1.235485e-09
-4.814367e-10
-7.540481e-10
-1.440268e-09
1.445981e-09
1.425394e-09
-4.056008e-10
-1.019793e-09
1.086545e-09
4.909008e-10
-1.577446e-09
-8.032417e-10
1.803066e-09
1.451977e-09
-8.192535e-10
-6.327238e-10
1.488999e-09
-6.387155e-10
-8.502839e-10
1.950527e-09
-1.053831e-09
-8.966957e-10
1.468285e-09
-9.467369e-10
-5.215481e-10
1.455582e-09
-1.457263e-09
1.68108e-12
5.492467e-11
-1.35231e-09
1.297385e-09
8.753893e-10
3.265642e-10
-1.697981e-10
-1.431386e-09
-3.274139e-10
-7.66847e-09
7.995884e-09
-1.60585e-09
2.101818e-09
-4.959681e-10
1.713768e-09
-1.317762e-09
-3.960055e-10
1.216909e-09
4.058107e-10
-1.62272e-09
1.853243e-09
-1.839128e-10
-4.444142e-10
-1.794493e-09
2.238907e-09
9.546766e-10
6.368878e-10
-1.591564e-09
6.130181e-10
1.299889e-09
-1.912907e-09
-1.532679e-09
-6.472102e-11
1.5974e-09
-8.440482e-10
8.76825e-09
-7.924202e-09
1.012858e-10
1.567777e-09
-1.669063e-09
-2.718493e-09
1.936288e-09
7.822044e-10
-9.0085e-10
2.037779e-09
-1.136929e-09
1.574231e-09
-9.676833e-10
-6.065472e-10
1.129226e-09
-1.512233e-09
3.830071e-10
1.366126e-09
-1.330901e-09
-3.522502e-11
-1.56008e-09
7.704459e-10
7.896339e-10
-1.968013e-09
-1.383085e-09
3.351098e-09
1.392842e-09
2.957602e-10
-1.688603e-09
-1.561458e-09
-4.470374e-11
4.727155e-10
-1.866117e-09
1.393401e-09
9.224862e-10
1.410257e-10
-1.063512e-09
3.923408e-09
-2.736441e-09
-1.186967e-09
-3.093999e-10
1.514738e-09
-1.205338e-09
-8.71078e-10
1.937096e-09
-1.066018e-09
2.189164e-09
-5.415848e-10
1.766274e-09
-1.224689e-09
8.45125e-11
-1.196396e-09
1.111883e-09
1.908069e-09
-4.099575e-10
-1.498111e-09
1.344658e-09
4.467488e-10
-1.791406e-09
9.107996e-10
5.221891e-10
-7.050085e-10
1.708159e-09
2.235125e-10
1.700355e-09
-1.923867e-09
1.882796e-09
-7.545832e-10
-3.058099e-10
-1.616096e-09
1.921906e-09
4.800926e-10
-1.659447e-09
1.179354e-09
-2.16169e-09
4.031295e-10
1.758561e-09
-3.914782e-10
1.596166e-09
-1.204687e-09
-1.227215e-09
1.244153e-09
-1.693845e-11
1.98066e-11
1.344518e-09
-1.364325e-09
-1.576616e-09
9.426429e-10
6.339734e-10
2.034178e-09
-4.07379e-09
2.039612e-09
-1.580169e-09
1.57864e-09
1.529486e-12
5.277738e-10
-1.645803e-09
1.118029e-09
-1.058977e-09
1.826527e-09
-7.675501e-10
-5.564717e-10
-1.196554e-09
1.753026e-09
6.199977e-10
-1.798608e-09
1.178611e-09
-1.836516e-09
1.182013e-09
6.545032e-10
2.413317e-09
-1.471173e-09
-9.421437e-10
-5.281875e-10
-8.075992e-10
1.335787e-09
5.87957e-11
-1.492901e-09
1.434106e-09
-1.721556e-09
-1.271341e-09
2.992897e-09
4.667912e-10
-1.439198e-09
1.2042e-09
6.978967e-10
-1.902097e-09
-2.516085e-09
-5.690168e-10
3.085102e-09
9.772825e-10
4.910025e-10
-5.648778e-10
-8.153503e-10
1.380228e-09
-9.552859e-10
-7.836437e-10
1.73893e-09
1.176421e-09
7.037357e-10
-1.880157e-09
-1.101765e-09
-3.099718e-10
-1.356186e-09
1.666158e-09
-1.194637e-09
1.768195e-09
-5.73558e-10
-1.583165e-09
7.479213e-10
-2.071114e-10
2.135361e-09
-1.92825e-09
1.544177e-09
-8.639328e-10
-6.802442e-10
2.210491e-09
-3.918207e-10
-1.818671e-09
9.303923e-11
-1.41984e-09
1.3268e-09
9.931087e-10
-1.878178e-09
8.850691e-10
9.993036e-10
7.224547e-10
-1.721758e-09
4.307386e-10
-1.93108e-09
1.500341e-09
-1.616859e-09
1.739984e-09
-1.231245e-10
1.572843e-09
-2.579857e-10
-1.314857e-09
1.330853e-09
-1.25954e-09
-7.131306e-11
1.165228e-09
2.224312e-10
-1.387659e-09
-1.14042e-09
-3.774027e-10
1.517823e-09
-9.963073e-10
-6.646323e-10
1.66094e-09
-1.586468e-09
-5.75222e-10
6.531676e-10
-2.206225e-09
1.553057e-09
1.022314e-10
-1.659247e-09
1.557015e-09
-1.64441e-09
6.472503e-10
9.971602e-10
8.723124e-10
-1.655069e-09
2.072368e-09
-2.051353e-09
-2.101465e-11
-3.113061e-10
-1.288301e-09
1.599607e-09
1.938431e-09
-1.509415e-09
-4.290162e-10
-3.093956e-10
-1.548473e-09
1.857868e-09
-3.524237e-10
-3.013612e-09
3.366036e-09
1.907606e-09
-1.163809e-09
-1.39428e-09
3.910853e-09
-2.516572e-09
-4.320206e-09
1.020367e-09
3.29984e-09
-1.784033e-09
1.295382e-09
4.886512e-10
-1.505073e-09
1.252032e-09
2.530405e-10
1.173568e-09
-1.587907e-09
1.522735e-09
-1.135302e-10
8.231653e-10
1.088202e-09
-1.911368e-09
-1.556572e-09
1.247172e-09
9.887216e-10
-2.250109e-09
1.410851e-09
-8.16597e-10
-5.942538e-10
8.47123e-10
-1.134304e-09
2.871814e-10
-2.16885e-09
1.332602e-09
8.362478e-10
-4.331933e-10
1.36698e-09
-9.337871e-10
-1.992251e-09
3.864009e-10
-9.965598e-11
1.668676e-09
-1.56902e-09
6.225801e-09
-4.404113e-09
-4.984921e-09
-7.591954e-10
5.744116e-09
1.116216e-09
-8.730504e-10
-2.431651e-10
9.469457e-13
1.125066e-09
-1.803237e-09
2.034113e-09
-2.308758e-10
1.099307e-09
5.479856e-10
-1.647293e-09
-2.975518e-09
1.812517e-09
1.163001e-09
2.687254e-10
-1.791181e-09
1.522456e-09
6.574383e-10
1.155516e-09
-1.812954e-09
-1.647397e-09
1.84068e-11
1.62899e-09
-1.796542e-10
-1.288392e-09
1.468047e-09
-6.642323e-11
-1.690472e-09
1.756895e-09
1.836502e-09
-1.308729e-09
1.113378e-10
-1.586035e-09
1.474697e-09
8.47729e-10
-2.206523e-09
1.358794e-09
5.374938e-10
-1.557424e-09
1.01993e-09
-7.718117e-10
1.840241e-09
-1.068429e-09
-2.002193e-09
2.208318e-10
1.781361e-09
1.889964e-09
1.077723e-10
1.289217e-09
1.049762e-10
-1.394194e-09
1.518012e-09
-6.070827e-10
-9.109288e-10
-9.775142e-10
-5.100428e-10
1.487557e-09
1.280224e-09
-1.993346e-09
7.131222e-10
-3.982919e-11
2.663838e-09
-2.624008e-09
1.8586e-09
-4.709464e-10
-1.387653e-09
1.142407e-09
-2.054774e-09
9.123668e-10
1.538953e-09
3.434359e-10
-1.882388e-09
1.899054e-09
-1.185804e-09
-7.132497e-10
1.351088e-09
2.799039e-10
-1.630992e-09
-5.015596e-10
1.879292e-09
-1.377732e-09
-1.531349e-09
9.025081e-10
6.288409e-10
-8.132024e-10
2.232145e-09
2.144001e-09
-1.061978e-09
-1.859481e-09
1.284424e-09
5.750572e-10
-5.979907e-11
-1.282021e-09
1.34182e-09
-1.480073e-09
1.349785e-09
1.302882e-10
7.639617e-10
-2.075845e-09
1.311883e-09
-2.11067e-12
1.718892e-09
-1.716781e-09
1.310818e-09
-1.195568e-09
-1.152497e-10
2.074941e-10
1.913482e-09
1.7776e-09
-1.354423e-09
-4.231771e-10
-2.936525e-09
4.650443e-09
-1.713917e-09
-4.533661e-10
-1.495483e-09
1.948849e-09
2.320567e-09
-1.148704e-09
-1.171863e-09
1.003299e-09
-1.751927e-09
7.48628e-10
1.883529e-09
-9.766543e-10
-9.068746e-10
-1.867997e-09
2.118899e-09
-2.509015e-10
-9.178749e-10
1.422053e-09
6.458581e-10
-2.067911e-09
1.021367e-09
8.32149e-10
-1.853516e-09
-1.458082e-09
1.476171e-09
-1.808899e-11
6.612891e-10
-1.100036e-09
4.387472e-10
-1.782083e-09
2.542424e-10
1.527841e-09
1.056082e-09
-2.188486e-09
1.132404e-09
4.24102e-09
-1.886832e-09
-2.354187e-09
-1.593708e-09
1.80178e-09
-2.080717e-10
1.986372e-09
-1.716201e-09
-2.701701e-10
8.496088e-11
1.259697e-09
1.987913e-09
-1.674956e-09
1.818394e-09
-4.859376e-10
-1.332457e-09
1.903178e-09
-1.401532e-09
-5.016461e-10
1.892187e-10
1.571966e-09
-1.761185e-09
3.561486e-10
1.508385e-09
-1.864534e-09
1.439385e-09
-1.150823e-09
-2.885614e-10
-2.311874e-09
-2.245897e-09
-2.490018e-10
1.309107e-09
-1.060105e-09
-1.574858e-10
-1.746323e-09
1.903809e-09
-2.163305e-09
2.353336e-10
3.604978e-10
-1.892802e-09
1.532305e-09
-1.075496e-09
-5.945717e-10
1.670068e-09
-1.115184e-09
1.360351e-09
-2.451665e-10
1.814622e-09
-1.579723e-09
-2.34899e-10
1.465537e-09
-1.819142e-09
3.536041e-10
1.559948e-09
-1.080069e-09
-4.798791e-10
-1.810639e-09
1.668738e-09
1.419011e-10
8.842518e-10
-2.355834e-09
1.471582e-09
1.744602e-09
-1.612919e-09
-1.316829e-10
-1.050727e-09
1.596787e-09
-5.460601e-10
-1.715037e-09
2.655016e-10
1.687288e-09
-4.307582e-10
-1.25653e-09
3.272098e-11
1.246014e-09
-1.278735e-09
-2.694529e-09
1.140719e-09
1.55381e-09
-9.30772e-11
1.538503e-09
-1.445426e-09
-8.167483e-10
-1.263783e-09
2.768563e-09
-1.50478e-09
-1.14608e-10
-1.323249e-09
1.437857e-09
1.996122e-09
-5.579937e-10
-1.438128e-09
1.244594e-09
-1.06427e-09
-1.803244e-10
-1.903288e-09
1.357016e-09
5.462722e-10
3.403776e-10
-2.462888e-09
2.12251e-09
-4.03182e-09
2.329833e-09
1.701987e-09
-4.84639e-09
1.5519e-09
3.294489e-09
2.723197e-09
-3.529176e-09
1.253924e-09
-1.967819e-09
7.138955e-10
-4.270451e-10
1.680969e-09
1.909504e-09
-9.842201e-10
-9.252837e-10
-2.178117e-09
1.273695e-09
1.569234e-09
-8.311719e-10
-7.380621e-10
8.130287e-10
-2.448972e-09
1.635943e-09
1.693932e-09
-1.213479e-09
-1.549841e-09
1.705219e-09
1.599866e-09
-1.442833e-10
-1.510522e-09
1.792525e-09
-2.820035e-10
-1.187612e-09
-5.003703e-10
3.975712e-10
-1.796261e-09
1.39869e-09
-1.630805e-09
1.29976e-09
3.310446e-10
1.949365e-09
-1.617504e-10
-1.787615e-09
-1.906828e-09
5.966591e-10
1.310169e-09
1.481203e-09
-6.580377e-10
1.393294e-09
3.491038e-10
-1.742398e-09
1.723733e-09
1.606454e-10
-1.884378e-09
-3.666006e-09
9.251905e-10
2.740815e-09
-1.390677e-09
-2.550289e-10
1.645706e-09
-6.455086e-09
1.77241e-09
4.682676e-09
-1.945318e-09
-2.795495e-10
2.224868e-09
2.620585e-10
-1.776698e-09
1.51464e-09
3.115859e-09
2.456586e-10
-2.311459e-09
1.55487e-09
7.565882e-10
1.287846e-09
-6.337071e-10
-6.541394e-10
-6.794811e-11
-1.717245e-09
1.785193e-09
1.403028e-09
5.397607e-10
-1.942788e-09
-1.676973e-09
1.093207e-09
5.837659e-10
4.285284e-11
-1.34768e-09
1.304827e-09
-1.895866e-09
5.386218e-10
1.357244e-09
4.51609e-10
-4.771816e-09
1.472001e-09
-1.019057e-09
-4.529434e-10
1.176459e-09
3.765921e-10
-1.553051e-09
8.055209e-10
-1.699805e-09
5.410912e-10
1.158714e-09
-4.484301e-09
7.557321e-10
3.728569e-09
1.58854e-09
2.309206e-10
-1.819461e-09
1.458859e-11
1.630695e-09
-1.645283e-09
-7.329704e-10
1.182271e-09
8.860967e-10
1.207795e-09
-2.093891e-09
8.991441e-10
-1.614227e-09
7.150831e-10
-1.624662e-09
7.555758e-10
-2.201389e-09
1.039964e-09
1.161425e-09
-1.18168e-09
1.057588e-09
-1.022979e-09
1.003235e-09
1.974389e-11
-1.328313e-09
2.268557e-09
-9.402439e-10
1.125953e-09
1.181849e-09
1.998582e-09
1.018898e-09
-3.01748e-09
-5.105745e-10
-1.36804e-09
1.878614e-09
-1.837969e-09
1.877647e-09
-3.967816e-11
-6.666008e-10
-8.916901e-10
-8.510427e-10
3.134791e-09
-2.283748e-09
1.317615e-09
-4.32733e-11
1.299116e-09
-1.789507e-09
4.903915e-10
-9.008575e-10
1.756789e-09
-8.559319e-10
7.425144e-10
-1.972083e-09
1.229569e-09
-3.009626e-09
1.776265e-09
1.233361e-09
-2.233542e-10
-1.067551e-09
1.290905e-09
-1.220436e-10
1.320538e-09
-1.198494e-09
-4.614698e-09
9.158838e-10
-1.879333e-09
9.634492e-10
-8.296498e-10
1.784294e-09
-9.546444e-10
1.588227e-11
1.291206e-09
-1.307088e-09
8.614468e-10
5.905306e-10
-1.742984e-09
7.834853e-10
9.594991e-10
1.696162e-09
-3.51449e-10
-1.344713e-09
6.257222e-10
5.96701e-10
-1.222423e-09
1.596305e-09
-5.216699e-10
-1.074635e-09
2.033468e-09
8.384768e-10
-2.871945e-09
1.80824e-09
-3.654258e-10
9.351712e-10
-8.804815e-11
-1.230883e-09
2.636693e-10
4.133615e-10
1.665605e-09
-2.078967e-09
-8.651004e-10
-1.034352e-09
1.899453e-09
1.010683e-09
-1.626564e-09
6.158803e-10
-7.575257e-10
1.695745e-09
-9.382198e-10
5.630889e-10
-1.48574e-09
9.226515e-10
4.887163e-10
1.161269e-09
-1.649985e-09
-1.421274e-09
7.677201e-10
6.535544e-10
7.948015e-10
-1.694014e-09
8.99212e-10
1.64052e-09
-4.59717e-10
-1.180803e-09
-8.605737e-10
1.674176e-09
-8.136022e-10
-1.207039e-09
2.184321e-09
-1.245906e-09
1.380023e-09
-1.341164e-10
-3.357088e-09
8.410027e-10
-1.370108e-09
1.249165e-09
1.209425e-10
-5.939062e-10
-1.481037e-09
2.074943e-09
1.092364e-09
-1.091417e-09
8.652032e-10
-1.674977e-09
8.097736e-10
1.300821e-09
5.138767e-10
-1.814697e-09
-6.983695e-10
-1.096394e-09
1.794764e-09
1.835249e-09
-5.747816e-10
-2.137059e-09
6.850894e-10
1.45197e-09
1.819885e-09
2.805375e-10
-2.100422e-09
1.855159e-09
-3.088939e-09
1.23378e-09
-2.479647e-10
-1.32422e-09
1.572184e-09
-1.171919e-09
-8.367631e-10
2.008682e-09
-7.978025e-10
-1.148578e-09
1.946381e-09
-2.101417e-09
6.213431e-10
-1.246954e-09
1.781923e-09
1.499949e-09
-8.742265e-10
5.285305e-10
-2.353182e-09
3.680592e-10
-1.219578e-09
9.477667e-10
2.718113e-10
-2.73092e-09
3.903185e-09
-1.172265e-09
4.478375e-10
1.364515e-09
1.654808e-09
-1.603971e-09
-5.083649e-11
1.375492e-09
-3.967532e-10
-9.787388e-10
9.707646e-10
9.275932e-10
-1.898358e-09
1.413818e-09
3.25522e-10
1.982733e-09
-1.11753e-09
1.353222e-09
-1.285163e-09
-6.805936e-11
1.341992e-09
-1.19999e-09
-1.420021e-10
1.721019e-09
-1.024186e-09
-6.968334e-10
1.57503e-09
-6.212179e-11
-1.512908e-09
1.304332e-10
1.577082e-09
-1.707515e-09
9.720189e-10
-2.018434e-09
1.405102e-09
-8.234877e-10
1.450897e-09
-6.274094e-10
1.937678e-09
-1.220773e-09
-7.169055e-10
-1.520182e-09
1.516149e-09
4.032613e-12
3.141611e-09
-5.904468e-09
2.762857e-09
-4.216809e-09
4.184684e-09
3.212421e-11
1.316224e-09
-1.204886e-09
-1.142318e-09
-8.020531e-10
1.944371e-09
1.924206e-09
-1.210891e-09
-7.133152e-10
1.972143e-09
-4.58396e-10
-1.513747e-09
-7.587873e-10
-9.504441e-10
1.709231e-09
-1.438951e-09
-3.428457e-10
-4.917608e-11
-1.247783e-09
1.296959e-09
1.218706e-09
1.77769e-09
-2.996396e-09
4.769898e-10
-1.587904e-09
1.110914e-09
-7.554342e-10
-8.129479e-10
1.568382e-09
-1.082445e-09
-5.160305e-10
1.598475e-09
1.812909e-09
2.298271e-10
1.100726e-09
1.45416e-10
-1.246142e-09
1.735741e-09
-1.666664e-09
-6.907685e-11
-1.08429e-09
1.193092e-09
-1.08802e-10
-1.37906e-09
5.758179e-10
-1.125852e-09
1.024565e-09
1.012871e-10
2.011744e-09
-7.213815e-10
-1.290362e-09
-1.923698e-09
1.141296e-09
7.824022e-10
-1.243529e-09
1.402923e-09
-1.593938e-10
-5.918704e-10
1.768292e-09
-9.565637e-10
1.670092e-09
-7.135287e-10
3.697438e-10
1.341864e-09
-1.711608e-09
-7.417506e-10
-8.970929e-10
1.638843e-09
-1.593234e-09
-1.802995e-10
1.773534e-09
-1.285317e-09
1.029303e-10
-1.809506e-09
3.961361e-10
1.41337e-09
3.218042e-12
-2.245279e-09
2.242061e-09
1.544171e-09
3.634347e-10
-1.367391e-09
1.995263e-10
1.167865e-09
-3.437865e-09
2.636802e-09
8.010633e-10
-1.543854e-09
2.020844e-09
1.860654e-10
-3.852071e-09
-1.612381e-09
-2.834855e-10
8.023922e-09
-8.023922e-09
1.57034e-09
-1.32855e-09
-1.718557e-09
3.856263e-10
1.332931e-09
1.096895e-09
6.290127e-10
-1.725907e-09
-1.250635e-09
4.53674e-09
1.255189e-09
6.452265e-09
-7.707454e-09
-1.24241e-09
1.797357e-09
-5.549466e-10
7.147559e-10
-1.831708e-09
1.116952e-09
1.169321e-09
-3.497318e-10
1.035409e-09
-1.598329e-09
5.629197e-10
8.623827e-10
-1.92136e-09
2.02807e-09
-4.907641e-10
-1.537306e-09
1.257682e-09
9.556225e-10
-2.213304e-09
1.867757e-09
-2.575362e-10
9.821434e-10
9.683834e-10
3.392403e-10
1.406929e-09
-1.9421e-09
1.805788e-09
-1.872211e-09
1.937397e-09
2.057418e-10
-2.143138e-09
1.36212e-09
2.625997e-10
-1.62472e-09
-1.121155e-09
1.568993e-09
-4.792383e-10
-4.294376e-09
4.773615e-09
-9.925515e-11
-1.382886e-09
1.482142e-09
9.574387e-10
-1.079482e-09
1.614616e-09
-1.713199e-09
6.377033e-10
2.771453e-09
1.242991e-11
-2.783883e-09
1.181373e-09
-7.95699e-10
-3.856745e-10
4.674159e-10
1.06754e-09
-1.534956e-09
-3.334453e-11
1.436372e-09
1.210516e-09
-1.813036e-09
6.025194e-10
-1.651197e-10
-2.5658e-09
3.83017e-10
-1.448523e-09
1.065506e-09
-1.341823e-09
1.401329e-09
-1.381522e-09
-1.2807e-09
1.112536e-09
1.68164e-10
1.759106e-09
4.966272e-10
-2.255733e-09
1.928963e-10
1.625498e-09
1.372672e-09
-1.242238e-09
5.772784e-10
-1.669545e-09
1.092267e-09
-1.357968e-10
-1.243263e-09
4.178614e-11
1.351056e-09
-1.840203e-09
1.722843e-10
-1.748601e-09
1.464374e-09
2.842264e-10
-1.896307e-09
1.009072e-10
1.7954e-09
-3.8625e-11
-1.480917e-09
1.519542e-09
1.320333e-09
6.937552e-10
-2.014088e-09
1.989653e-10
-1.146034e-09
9.470684e-10
2.275115e-09
1.775738e-09
1.555601e-10
-1.172779e-09
2.130962e-10
9.596829e-10
-1.16929e-09
-1.77241e-09
2.941699e-09
3.474094e-10
1.534091e-09
-1.8815e-09
-1.995379e-09
1.797043e-10
3.307317e-10
-2.153186e-09
1.822454e-09
-6.658481e-10
-1.094209e-11
-1.291605e-09
1.643086e-09
-2.102057e-10
-1.432881e-09
1.143392e-09
-1.860419e-09
7.17027e-10
-4.242792e-09
4.294785e-09
-5.199339e-11
-2.035635e-09
1.555289e-09
3.736785e-09
-4.280075e-09
5.432901e-10
6.401189e-09
1.90169e-09
5.728995e-10
1.300773e-09
-1.873672e-09
1.539556e-09
-2.457431e-09
1.514138e-09
-1.701676e-09
1.875376e-10
9.639682e-10
6.052658e-10
5.773654e-10
7.967133e-10
-1.374079e-09
-1.683435e-09
2.260801e-09
-1.209352e-09
9.682334e-10
2.411187e-10
3.3868e-11
1.503023e-09
-1.536891e-09
1.844141e-09
-1.742855e-09
8.713663e-10
5.540273e-10
2.284954e-10
1.641268e-09
-1.869763e-09
2.666287e-10
1.360962e-09
-1.592875e-09
2.319123e-10
1.651559e-09
-2.087089e-09
1.843861e-10
9.079782e-10
-1.831299e-09
1.933113e-09
-1.018139e-10
4.895428e-10
1.527213e-09
-2.016755e-09
-1.029647e-09
-5.221384e-10
1.551785e-09
5.153502e-10
-2.484704e-10
-9.031719e-10
1.151642e-09
-8.736614e-11
1.675906e-09
3.144219e-10
-1.815854e-09
1.501432e-09
1.045994e-09
4.260066e-10
-1.014426e-09
-4.767541e-10
1.49118e-09
-7.50549e-11
1.732261e-09
-1.657207e-09
4.462444e-10
1.444743e-09
-1.890988e-09
-9.231132e-10
-1.112522e-09
-1.022276e-10
-2.423978e-09
-2.339296e-10
1.83115e-09
5.22579e-10
-1.225156e-09
7.025772e-10
-9.552131e-11
1.773005e-09
-1.677484e-09
5.994367e-10
-1.299542e-09
7.001049e-10
-2.031058e-09
6.053615e-10
1.425697e-09
-2.265689e-10
1.772259e-09
-1.54569e-09
1.475675e-09
1.038182e-10
-1.579494e-09
1.161003e-09
8.321277e-10
-1.993131e-09
-4.016391e-10
-1.301429e-09
1.703068e-09
1.094624e-09
-1.853411e-09
-1.225814e-09
-3.43424e-10
1.569238e-09
1.05236e-09
-1.95321e-09
-1.655065e-09
1.642452e-09
1.261278e-11
-1.658995e-09
-3.14762e-11
-1.603081e-09
1.747811e-09
-1.447298e-10
7.080348e-10
-1.623454e-09
9.154195e-10
-1.829968e-09
3.581512e-10
1.471816e-09
2.621662e-12
1.080574e-09
-1.083196e-09
-6.721918e-10
8.08548e-09
-7.413288e-09
-1.094753e-09
1.508114e-09
-1.947617e-09
7.293183e-10
1.218299e-09
1.271077e-09
4.277087e-09
-4.175138e-10
-3.859574e-09
1.313382e-09
-1.945317e-09
2.938892e-09
-4.189528e-09
8.280314e-10
6.531716e-10
1.517566e-09
-2.053302e-09
7.529044e-10
1.300397e-09
8.256494e-09
-8.256494e-09
1.257239e-09
-1.376098e-09
1.188591e-10
-1.109259e-10
-2.087603e-09
-2.395133e-10
-1.570093e-09
1.809606e-09
-1.740481e-09
1.787282e-09
-4.680102e-11
1.252247e-10
1.301876e-09
-1.427101e-09
1.129755e-09
2.7664e-10
-1.406395e-09
-4.74916e-10
2.185105e-09
-1.710189e-09
-2.327184e-10
-1.222348e-09
1.455066e-09
-3.385475e-10
-1.361258e-09
1.808725e-09
-4.845086e-10
-1.352001e-09
1.165846e-09
1.861556e-10
-9.27166e-10
2.241514e-09
-1.314348e-09
-5.427656e-10
1.996148e-09
-5.86252e-11
-1.673563e-09
1.732188e-09
-5.215e-10
-1.379895e-09
1.901395e-09
4.27913e-10
1.323442e-09
-1.751355e-09
4.62271e-10
1.143745e-09
-1.914108e-09
6.705787e-10
-1.600115e-09
-6.0191e-10
2.202025e-09
-1.816869e-09
3.999757e-10
1.416893e-09
-1.934738e-09
-3.260105e-11
1.967339e-09
2.775812e-10
-1.937878e-09
1.660297e-09
-1.680185e-09
1.05461e-09
-1.760999e-09
7.063888e-10
-1.714904e-09
1.488335e-09
1.32593e-09
-2.756154e-09
1.430224e-09
-4.18441e-09
2.106124e-09
2.078286e-09
-2.005898e-09
-6.886312e-10
7.87186e-10
-1.436815e-09
6.496294e-10
1.781694e-09
-8.924068e-10
-8.892873e-10
-1.328926e-09
5.289885e-10
1.60867e-09
-1.971551e-09
3.628812e-10
-1.283629e-09
-3.091686e-11
6.75418e-09
-4.17192e-09
-2.58226e-09
-1.317457e-09
4.858674e-10
8.315895e-10
8.918619e-10
-1.618886e-09
-1.185526e-09
-3.184562e-10
1.503982e-09
1.332044e-09
-1.413094e-09
-9.547534e-10
-3.990198e-10
1.353773e-09
2.69258e-09
4.921371e-09
-8.844056e-10
1.82356e-09
-9.391545e-10
1.698152e-09
1.499464e-10
-1.848098e-09
8.235965e-10
-2.083063e-09
-2.763327e-09
-9.539964e-10
1.924724e-09
-1.411779e-09
1.791588e-09
-8.217451e-10
-9.698425e-10
1.907292e-10
1.270628e-09
-1.461358e-09
4.229261e-10
-1.161489e-09
-4.100082e-10
-1.047255e-09
-4.091438e-09
4.626376e-10
1.110205e-09
1.599759e-09
-1.318991e-09
-2.807681e-10
6.414752e-10
-1.637782e-09
1.619136e-09
-6.571369e-10
9.712987e-10
2.687911e-10
-1.24009e-09