/*--------------------------------*- C++ -*----------------------------------*\
| =========                 |                                                 |
| \\      /  F ield         | OpenFOAM: The Open Source CFD Toolbox           |
|  \\    /   O peration     | Version:  2406                                  |
|   \\  /    A nd           | Website:  www.openfoam.com                      |
|    \\/     M anipulation  |                                                 |
\*---------------------------------------------------------------------------*/
FoamFile
{
    version     2.0;
    format      ascii;
    arch        "LSB;label=32;scalar=64";
    class       volScalarField;
    location    "1.7";
    object      p;
}
// * * * * * * * * * * * * * * * * * * * * * * * * * * * * * * * * * * * * * //

dimensions      [0 2 -2 0 0 0 0];

internalField   nonuniform List<scalar> 
15536
(
-22.52381
-23.99578
-25.17519
-27.03027
-30.39303
-34.48572
-39.62544
-44.28942
-47.95778
-49.89305
-50.25077
-49.63705
-49.24415
-49.6319
-50.4895
-51.93517
-54.15881
-57.53786
-62.72557
-70.2755
-77.97076
-79.30928
-71.06293
-56.1865
-41.00439
-34.78768
-38.60259
-49.37985
-59.12216
-63.91433
-68.23333
-82.70612
-115.6361
-149.4241
-142.7287
-98.83166
-84.9888
-99.83043
-107.6972
-105.6307
-104.9565
-107.4965
-109.2883
-109.6692
-109.1353
-107.6068
-105.2391
-101.9649
-98.26618
-94.26872
-89.64853
-84.50941
-78.80459
-72.77189
-66.35527
-59.63077
-52.91501
-46.11938
-39.01916
-31.79776
-24.72035
-17.78861
-10.91029
-4.149721
2.370598
8.737427
14.79675
20.52261
25.81265
30.66936
35.05028
38.95532
42.35313
45.17641
47.38742
49.08298
50.12994
50.6086
50.54583
49.9773
48.68259
46.72352
44.17531
41.04755
37.36145
33.13673
28.44649
23.1997
17.5668
11.59903
5.136525
-1.625499
-8.613466
-16.01773
-23.552
-31.00912
-38.62019
-46.36032
-54.04057
-61.73717
-69.27722
-76.48003
-83.30074
-89.82403
-96.17275
-102.0266
-107.3601
-112.1201
-116.3241
-120.0389
-122.9677
-125.0243
-126.2489
-126.6451
-126.0146
-123.9894
-120.2644
-114.7273
-108.2418
-106.974
-110.3882
-98.857
-70.67366
-70.21612
-135.9422
-162.3587
-120.1041
-63.62076
-34.25083
-22.79395
-11.84129
5.380674
13.1697
2.099126
-19.132
-43.55494
-52.89743
-46.91132
-31.62412
-19.65183
-17.63057
-15.98636
-14.79538
-13.99334
-16.70151
-20.83668
-23.53267
-22.72092
-18.00615
-13.05857
-6.97132
-3.039803
-5.347906
-12.70614
-19.63424
-22.67381
-21.91809
-22.49328
-23.91763
-25.11612
-27.00226
-30.3892
-34.49415
-39.63158
-44.29457
-47.95197
-49.89522
-50.25257
-49.63541
-49.24073
-49.62542
-50.47986
-51.9239
-54.14726
-57.52541
-62.74219
-70.29811
-77.98013
-79.29285
-71.09063
-56.20588
-40.95905
-34.73322
-38.61894
-49.42621
-59.16682
-63.9049
-68.17047
-82.62954
-115.61
-149.484
-142.7761
-98.74302
-84.96184
-99.75492
-107.7038
-105.5326
-104.5365
-106.7415
-108.2442
-108.4266
-107.8156
-106.2593
-103.8833
-100.6132
-96.92721
-92.9591
-88.37174
-83.27303
-77.61203
-71.63115
-65.27207
-58.60668
-51.95097
-45.22008
-38.18929
-31.03367
-24.02263
-17.15793
-10.34346
-3.646111
2.812015
9.116846
15.11629
20.78753
26.02767
30.8379
35.17767
39.04682
42.4137
45.21351
47.40509
49.08759
50.12837
50.6051
50.54432
49.98176
48.69864
46.75946
44.23721
41.14088
37.49191
33.31052
28.66831
23.47526
17.90313
11.99564
5.598902
-1.089901
-8.009107
-15.34353
-22.798
-30.17717
-37.71232
-45.37283
-52.97445
-60.59367
-68.05852
-75.18717
-81.93847
-88.40151
-94.69515
-100.4937
-105.7805
-110.4979
-114.6681
-118.3606
-121.2743
-123.3317
-124.5723
-125.0064
-124.4418
-122.5487
-119.0819
-113.9055
-107.8619
-106.9493
-110.4559
-98.94967
-70.83343
-70.10327
-135.8717
-162.4365
-120.0484
-63.45816
-34.12285
-22.7726
-11.95318
5.2693
13.19788
2.090283
-19.11806
-43.52051
-52.74075
-46.85858
-31.68179
-19.7245
-17.65318
-15.93129
-14.73355
-13.93221
-16.644
-20.75503
-23.45218
-22.68697
-18.01304
-13.05866
-6.934987
-2.996816
-5.369572
-12.74273
-19.69426
-22.68834
-21.93006
-22.53748
-23.90561
-25.09764
-26.99664
-30.40705
-34.5211
-39.65417
-44.31851
-47.97731
-49.91683
-50.271
-49.64482
-49.23942
-49.6191
-50.46514
-51.89315
-54.11007
-57.50679
-62.7956
-70.39027
-78.09373
-79.44155
-71.24808
-56.3995
-40.98332
-34.59509
-38.61119
-49.49977
-59.2066
-63.90794
-68.14724
-82.6369
-115.8117
-150.0836
-143.309
-98.93279
-84.87439
-99.09061
-106.6077
-104.8273
-103.9671
-105.936
-107.3184
-107.5567
-106.9949
-105.4638
-103.1236
-99.8716
-96.19807
-92.25719
-87.68356
-82.61159
-76.97677
-71.02396
-64.70106
-58.05199
-51.4245
-44.73404
-37.72935
-30.6035
-23.62438
-16.79794
-10.01999
-3.35072
3.069131
9.346006
15.3129
20.95456
26.16634
30.95006
35.26368
39.1094
42.45523
45.23996
47.41432
49.08677
50.12167
50.59614
50.53784
49.98118
48.70649
46.78278
44.2787
41.20347
37.57911
33.42451
28.81312
23.64665
18.10846
12.23682
5.87052
-0.7801827
-7.658276
-14.95858
-22.37482
-29.70897
-37.209
-44.83497
-52.3914
-59.98714
-67.41614
-74.5151
-81.23594
-87.65445
-93.91746
-99.68231
-104.947
-109.6409
-113.7875
-117.4635
-120.3545
-122.382
-123.5886
-123.995
-123.3903
-121.404
-117.9344
-112.9755
-107.3874
-106.4374
-109.2579
-98.16522
-70.45424
-69.99937
-136.7048
-163.3328
-120.4565
-63.51861
-34.06744
-22.7565
-12.03462
5.138208
13.40984
1.864329
-19.56807
-43.78064
-52.86089
-46.98729
-31.86046
-19.8968
-17.73753
-15.91344
-14.64452
-13.79491
-16.56774
-20.69846
-23.46273
-22.76806
-18.07541
-13.12145
-6.929979
-2.959639
-5.348596
-12.71387
-19.60263
-22.58761
-21.96897
-22.5718
-23.85664
-25.0821
-26.9982
-30.44474
-34.57957
-39.69325
-44.36994
-48.01552
-49.96475
-50.31307
-49.67116
-49.24378
-49.61361
-50.43901
-51.84251
-54.06494
-57.50822
-62.91608
-70.5843
-78.33891
-79.65273
-71.53098
-56.77467
-41.06378
-34.28608
-38.47747
-49.46495
-59.13938
-63.84213
-68.14948
-82.72888
-116.0743
-150.5462
-143.9624
-99.9559
-85.18947
-98.12178
-104.7661
-103.588
-103.1001
-104.789
-105.9253
-105.9164
-105.2604
-103.7008
-101.3943
-98.16777
-94.51704
-90.63222
-86.12819
-81.12954
-75.56507
-69.68682
-63.44587
-56.87792
-50.32611
-43.72199
-36.81289
-29.76166
-22.85869
-16.11476
-9.417586
-2.818605
3.523572
9.734692
15.63621
21.22281
26.37939
31.11256
35.38235
39.19118
42.50482
45.2679
47.41813
49.07868
50.10698
50.57896
50.52406
49.97427
48.70819
46.80639
44.32847
41.28471
37.69928
33.5908
29.03463
23.91923
18.45043
12.64742
6.347052
-0.216006
-7.013072
-14.24263
-21.55728
-28.79634
-36.21181
-43.73682
-51.19509
-58.69602
-66.02875
-73.02263
-79.6407
-85.98283
-92.1673
-97.83889
-103.027
-107.639
-111.733
-115.3687
-118.2119
-120.2043
-121.4082
-121.8432
-121.3163
-119.5271
-116.2843
-111.6646
-106.6222
-105.27
-106.7291
-96.45305
-70.45239
-71.06714
-138.0206
-164.3446
-121.076
-63.75189
-34.0614
-22.68969
-11.98226
5.201821
14.00224
1.417873
-20.43897
-44.22246
-53.13195
-47.33077
-32.22367
-20.21562
-17.89871
-15.90673
-14.5266
-13.59932
-16.48356
-20.64555
-23.47263
-22.93651
-18.26148
-13.28464
-6.993375
-2.958144
-5.263205
-12.54364
-19.1438
-22.18241
-21.95419
-22.61335
-23.8328
-25.09095
-27.01669
-30.51587
-34.6822
-39.76972
-44.46834
-48.1125
-50.05988
-50.40236
-49.733
-49.26017
-49.61181
-50.4038
-51.7685
-54.00186
-57.53489
-63.12807
-70.91729
-78.77663
-80.07483
-71.97332
-57.28287
-41.16369
-33.84731
-38.15269
-49.18193
-58.82756
-63.69716
-68.24567
-82.86152
-116.2162
-150.6594
-144.1404
-101.6912
-86.64951
-97.48876
-102.9047
-102.2418
-102.092
-103.6103
-104.6427
-104.6143
-104.0334
-102.4607
-100.175
-96.94513
-93.26039
-89.42888
-84.92045
-79.95899
-74.40803
-68.57573
-62.39686
-55.85295
-49.35026
-42.8274
-35.97979
-28.97443
-22.1332
-15.46835
-8.839537
-2.292349
3.973125
10.13014
15.96958
21.50018
26.59654
31.28245
35.50716
39.27632
42.54966
45.28768
47.41071
49.05712
50.07887
50.54879
50.49855
49.95462
48.69426
46.8224
44.37869
41.37048
37.82642
33.76396
29.26491
24.19769
18.80407
13.0641
6.813102
0.3429484
-6.374284
-13.56362
-20.79033
-27.93706
-35.29327
-42.74948
-50.11604
-57.56779
-64.8404
-71.77224
-78.33492
-84.61657
-90.77217
-96.38862
-101.5601
-106.1434
-110.2152
-113.8811
-116.6799
-118.6783
-119.8815
-120.3348
-119.7556
-117.8916
-114.7106
-110.3231
-105.6892
-103.862
-104.0381
-94.95441
-71.96253
-74.26939
-139.2044
-165.0692
-121.724
-64.13152
-34.26977
-22.59487
-11.65904
5.586635
14.72788
0.9064512
-21.53521
-44.90052
-53.72499
-48.01081
-32.89009
-20.75824
-18.18246
-15.92994
-14.39034
-13.33865
-16.40421
-20.62726
-23.55809
-23.20886
-18.63278
-13.61437
-7.185726
-3.057315
-5.163389
-12.30777
-18.59841
-21.67092
-21.89934
-22.64842
-23.817
-25.12834
-27.05466
-30.63719
-34.84216
-39.90508
-44.63588
-48.28658
-50.22729
-50.56979
-49.85867
-49.30464
-49.61789
-50.35672
-51.65948
-53.90232
-57.57925
-63.43957
-71.43132
-79.49101
-80.85803
-72.65524
-57.92667
-41.36703
-33.41623
-37.57673
-48.58015
-58.22701
-63.46931
-68.42069
-82.8094
-115.121
-148.2979
-142.2458
-103.1922
-88.8887
-96.98783
-101.001
-100.7284
-100.7273
-101.9777
-102.7872
-102.448
-101.7369
-100.1628
-97.99095
-94.80876
-91.15637
-87.46511
-83.03379
-78.18902
-72.72099
-66.97186
-60.89345
-54.42391
-48.02822
-41.62778
-34.86663
-27.94226
-21.20933
-14.64389
-8.108581
-1.634247
4.522786
10.61131
16.364
21.80904
26.83924
31.47881
35.64743
39.36655
42.58465
45.30089
47.38903
49.01355
50.03012
50.49808
50.45318
49.91436
48.6612
46.82282
44.42591
41.46453
37.97119
33.9653
29.52951
24.51176
19.22766
13.57692
7.367016
1.00916
-5.565012
-12.6938
-19.81542
-26.82004
-34.06826
-41.42942
-48.67225
-56.01493
-63.17448
-69.99175
-76.42245
-82.59685
-88.67793
-94.15822
-99.24378
-103.7067
-107.6839
-111.2599
-113.9793
-115.8734
-116.9866
-117.4873
-117.0953
-115.4074
-112.4918
-108.46
-104.3204
-102.2419
-101.4556
-93.76788
-75.03889
-78.76016
-139.2294
-164.1596
-121.315
-64.40064
-34.86826
-22.55066
-11.06644
6.2363
15.27808
0.2015817
-22.84978
-45.9896
-54.82515
-49.24311
-33.99763
-21.61761
-18.69486
-15.98619
-14.21231
-12.99876
-16.3573
-20.66996
-23.72854
-23.6249
-19.25925
-14.20413
-7.580036
-3.288091
-5.062651
-12.07814
-18.10821
-21.21829
-21.86334
-22.70219
-23.8161
-25.22678
-27.17663
-30.84615
-35.07793
-40.10614
-44.89369
-48.56116
-50.49376
-50.84752
-50.10024
-49.40891
-49.63526
-50.27865
-51.47583
-53.72136
-57.57463
-63.7993
-72.15706
-80.60634
-82.15826
-73.71494
-58.66127
-41.96777
-33.25195
-37.26261
-47.88916
-57.42227
-63.10459
-68.59769
-82.42107
-111.6034
-140.6053
-135.9018
-103.2569
-90.79752
-96.21356
-99.00777
-99.09732
-99.22878
-100.277
-101.0184
-100.5422
-100.0546
-98.25709
-96.08457
-92.87834
-89.15797
-85.57163
-81.1263
-76.39637
-70.95065
-65.22178
-59.27317
-52.92454
-46.59521
-40.2554
-33.63047
-26.83687
-20.18575
-13.66631
-7.301999
-0.896934
5.127677
11.14848
16.7802
22.13954
27.16438
31.70079
35.7822
39.43127
42.59595
45.33819
47.34939
48.9474
49.95668
50.41827
50.37895
49.86136
48.6289
46.78362
44.42242
41.52275
38.0978
34.18786
29.83646
24.84356
19.67791
14.17117
8.048202
1.738052
-4.723148
-11.67987
-18.70919
-25.61298
-32.72834
-39.90553
-47.10621
-54.36616
-61.34707
-68.09438
-74.3783
-80.45681
-86.5097
-91.86082
-96.92797
-101.2886
-105.2616
-108.9132
-111.5698
-113.5298
-114.8296
-115.3101
-114.7814
-113.0931
-110.3241
-106.5442
-102.8199
-100.522
-98.9319
-92.43038
-78.26936
-82.68624
-135.3801
-156.6783
-117.1283
-63.74235
-35.91288
-22.83232
-10.60051
6.647402
14.96634
-0.9587161
-24.52546
-47.74907
-56.71761
-51.29568
-35.54684
-22.67909
-19.51243
-15.87411
-13.89825
-12.55943
-16.30308
-20.81102
-24.02875
-24.22842
-20.21539
-15.19196
-8.272014
-3.643577
-4.991351
-11.87463
-17.66402
-20.81516
-21.87364
-22.80354
-23.88888
-25.48256
-27.48315
-31.17841
-35.4508
-40.41003
-45.27718
-48.79937
-50.86473
-51.28607
-50.48282
-49.61725
-49.67402
-50.15012
-51.16551
-53.40518
-57.4459
-64.19577
-73.04896
-82.43528
-84.24204
-75.39206
-59.90534
-43.16417
-33.5566
-37.65036
-47.37151
-56.47421
-62.57824
-69.0474
-81.98354
-106.0412
-128.2617
-126.2975
-101.8259
-91.78814
-94.94492
-96.70319
-97.05269
-97.20438
-97.94049
-98.70786
-97.65318
-96.94127
-95.39342
-93.33799
-90.37981
-86.4104
-83.02306
-78.7168
-74.16856
-68.68781
-63.04268
-57.45722
-51.27379
-44.70187
-38.53632
-32.30678
-25.67709
-18.8549
-12.4588
-6.487601
-0.05382119
5.758515
11.75514
17.15161
22.59659
27.62847
31.91269
35.88075
39.43359
42.58072
45.36804
47.24667
48.86498
49.85362
50.30315
50.27789
49.80592
48.56194
46.70693
44.33635
41.5109
38.16627
34.37581
30.22643
25.21921
20.14151
14.806
9.012623
2.770813
-3.948412
-10.59365
-17.23759
-24.28757
-31.32354
-38.02817
-45.06059
-52.62864
-59.12252
-65.87657
-71.96985
-77.85734
-83.90488
-88.98338
-94.09119
-98.17318
-102.0061
-105.6971
-108.1737
-109.994
-110.93
-111.6465
-111.3676
-109.8208
-107.3403
-103.8643
-100.6857
-98.37066
-96.27565
-90.72824
-80.54315
-84.86919
-126.0007
-141.52
-107.712
-61.17966
-36.95867
-23.38051
-10.60609
6.042414
13.1321
-3.226834
-26.71803
-50.49592
-59.79216
-54.37135
-37.39415
-23.76439
-19.69737
-15.37088
-13.2895
-12.09209
-16.2492
-21.09603
-24.70734
-25.18842
-21.65425
-16.66825
-9.304823
-4.200977
-5.008737
-11.66692
-17.22535
-20.44654
-21.94996
1.72725
1.110658
-39.26008
-21.09545
9.900355
-17.35778
1.743313
-0.002427335
8.125512
-1.19938
-1.181382
0.04650361
-0.2964218
0.6203528
0.8446204
1.892918
-9.770923
-2.23145
0.006273588
-0.3599729
-51.29082
-0.7254433
1.229702
-1.283874
1.629349
-2.549519
-1.176903
-0.7502777
-5.866557
0.07727061
0.9848362
-25.25062
-3.739561
-2.590105
0.2646184
-3.669125
-1.453338
0.05455332
-0.4006111
-4.563247
-19.32089
1.907976
1.016742
3.506014
31.68616
1.665564
-0.04444147
1.634349
-0.5701969
-0.8688423
-1.064657
2.258047
-3.795382
0.0600337
0.02092672
20.44232
-5.025289
-0.7872625
-10.71829
-15.56367
-0.6443797
-0.001315646
-24.15469
0.2849933
-8.529758
-3.616798
-35.93545
-0.1054024
-8.599409
-0.9602452
0.0199826
-0.1013813
23.43442
-27.63254
21.43841
-0.06217243
3.710098
-1.700779
-4.398466
0.0538054
-16.12359
0.025826
2.507227
0.07744402
-9.881487
1.308047
-2.622747
-0.473199
-54.46991
-1.82491
-16.7674
22.27692
-3.97868
0.01593671
1.587136
0.289977
-18.90698
5.667373
-59.17294
1.723684
0.1672876
-0.4127858
0.380713
-82.32676
-0.04336036
-21.27095
-0.01915641
1.302089
-6.183924
-29.66058
-0.3542917
1.523343
2.38105
7.012102
-25.33423
0.01421458
0.02272044
-0.5473711
20.45408
1.074933
0.6500881
0.05458061
0.01879919
-0.2108305
-0.2219462
-10.60448
0.2964785
-50.07819
2.181402
-1.886495
0.03412717
2.053345
0.1561612
0.7354424
0.9721167
-6.256335
0.005308276
4.191043
0.4217468
0.02567314
-47.26078
0.7701718
-60.04213
1.195991
-0.0034077
-13.15241
-0.7113462
-43.45333
-0.1478989
0.1129354
-3.821509
-23.0959
-25.19254
-10.44028
-17.1703
-61.08063
-0.01164275
0.1243509
0.1148971
-16.86018
-0.2555268
-5.99317
-6.41636
-1.445969
-1.938289
-18.52465
-18.71903
1.684884
-36.60271
-0.1191802
1.747205
12.76331
1.346353
-52.29998
-6.132576
-0.9836454
1.39318
1.580798
-75.09225
-0.6525468
14.41818
-0.1902052
-0.8515726
0.9512304
4.012382
-42.4667
1.08751
-0.01584172
-19.60465
0.2669382
0.4893856
0.2039214
-8.455173
-1.927822
-0.009058074
1.184627
-1.813228
0.7430436
-3.965782
-29.23538
-0.5895215
-9.936796
1.42239
-38.65753
2.263419
-4.089312
-5.854834
-32.64249
-7.411804
0.02636132
-0.3032769
1.362948
2.975821
-21.8674
0.334807
-9.754117
-9.74084
-0.29275
4.289191
0.01799186
2.997421
1.542349
2.173133
-8.019587
-2.784487
-1.221277
3.458979
7.477731
-0.06115701
16.86821
-0.4230831
-48.95675
1.485625
-0.07109022
-73.3092
0.5118949
24.51226
-13.41986
2.145315
0.6423086
0.6635873
0.4934615
-0.09153661
-10.62735
0.01710106
-17.27581
1.974086
-49.0953
0.03165292
0.9402129
-26.3253
1.141416
-0.7469415
-0.2717086
2.414524
-20.61582
1.376368
0.05543315
-61.39707
-4.785399
-7.271521
0.02677323
-0.2370011
2.668758
0.1868628
1.468111
1.140794
-0.1452366
12.93008
-22.30541
0.09817457
0.1096507
11.74995
-0.4870271
0.4584274
2.559865
0.7775511
-33.88679
-59.175
0.7625719
2.588252
1.100242
-19.45948
1.528996
0.3100953
-0.4445785
35.18683
0.3898482
1.142357
-0.419648
-0.00501642
-0.07094547
1.449009
2.597791
-42.12474
-0.004672907
-19.24637
-0.01062138
1.834569
0.4994259
-37.6158
-5.255301
-1.176344
-39.66063
0.2731145
-0.08072939
-0.4188064
1.33079
-4.234022
-6.222198
5.508726
-1.286193
-1.053091
1.74445
0.2344726
-10.48448
33.41445
-39.17304
-66.47997
-73.48386
0.001789357
-0.06036455
-1.139376
-0.08034959
0.02844275
-0.3293686
-0.189469
-0.009277767
1.366366
-6.451852
17.87389
-0.02368604
-6.260332
-39.46566
-0.09365411
0.9678314
-9.022127
0.01524106
-2.693962
1.039707
-51.90411
0.7629116
1.214395
-0.6627682
-11.18617
4.352495
-31.27448
0.3510578
-9.196585
0.001842509
-0.5715018
-0.3594638
11.98804
0.1377558
0.4888172
-64.11692
-50.07498
-0.08035918
-0.08823737
-7.701437
1.943133
-0.08427513
-0.6632021
1.617027
-0.2014244
1.191627
0.685808
-1.447501
0.628017
0.4805986
-2.08103
11.19491
-33.49749
0.9936491
1.242735
1.250359
-0.345689
2.317549
1.643127
0.03680436
-1.483789
0.758806
-0.04892882
-15.59073
-0.01967368
1.805126
1.786756
37.05045
1.60622
-0.3328609
-3.114058
0.941383
2.420742
-56.74049
-0.04198715
-0.4076364
1.252987
-26.06485
0.7422079
1.14776
1.34153
-0.4422373
-24.37172
-0.4220514
-0.2896548
-6.489091
-42.17758
-49.89486
0.8588439
2.032019
0.02824054
0.01882042
-0.2120586
-0.06360558
1.188423
-0.182976
2.440199
-12.91055
0.1097522
-18.81158
-0.5586061
-0.09342892
2.951676
-0.8623964
0.3260473
-21.8934
0.1511882
0.08065317
-31.33482
-12.37221
-54.20746
0.05663643
1.207844
-0.1695176
1.902233
-4.502968
-0.3097987
-4.625552
-0.0437156
-0.3496048
-1.269282
-0.2332853
-8.378769
0.7147631
-3.342892
-0.3886496
0.0006641192
0.02482862
1.795254
0.2399986
-0.04243172
-55.86363
1.779564
-12.02467
-0.1957599
-0.1634235
-0.009851594
3.923157
-0.5806593
-19.11098
1.068884
-41.39674
-1.016898
-0.9293144
-17.87788
-0.7784582
26.06086
0.7027548
2.451538
-0.9938509
-8.931613
-1.217153
0.006974741
6.879361
-0.4940087
-9.570099
0.295935
-41.80653
-0.05076194
0.9311925
-5.181553
1.91279
0.4889832
1.114593
1.831419
-0.002712826
-0.04110918
15.38379
-0.01848136
0.5857881
-10.86512
-21.13028
-2.249971
-0.01695141
-16.33606
0.4956221
-0.3519826
3.532972
0.5456543
3.136063
0.5151583
1.253331
-0.03462098
-3.832386
2.056521
-0.4663943
-0.1087257
2.557646
0.2715071
-2.617053
-18.32671
1.092333
12.86775
-1.109919
1.170019
1.838213
-29.64413
-1.144224
-0.05725093
-0.07892607
0.6690012
0.3151793
-8.350778
-0.2553723
1.841249
-0.7437234
0.09808141
1.480868
0.07480228
0.09034795
-24.04099
-4.15658
-17.12858
0.04007119
3.508107
4.103726
3.007052
0.03792309
-1.277327
0.0572822
4.312463
-0.3594904
0.8480003
1.674203
-61.75443
1.885424
3.542638
-0.2996197
0.0023952
7.813884
1.420478
6.79991
-3.109946
-2.997536
1.708609
-0.1971975
-0.4341109
5.896546
14.93817
-7.343448
0.02359379
-5.691773
-1.059746
-2.613143
0.04667609
-0.7456989
0.1691188
5.076557
29.61877
0.4172356
-0.1242016
2.564468
-2.643496
-59.74265
0.2492229
2.148512
1.712654
1.800774
-0.2743226
-10.18382
-38.23583
-6.765887
5.078088
-0.04553685
0.6470078
-20.47393
2.081014
0.4245683
-74.50345
-2.89168
-0.8927225
-24.1826
-6.823973
-0.006838396
-0.5862462
0.05759348
0.6006869
-64.33802
-1.035467
-0.7306438
-0.3423869
-4.669441
-0.1379287
-0.1563117
1.687761
-20.125
-10.38651
1.258909
-24.88246
1.477828
4.54908
-0.7554803
-47.24916
-0.6785853
7.785519
-13.3386
0.08330859
-2.372905
-1.339456
2.924021
3.023427
-0.6862864
0.1395128
-1.033224
1.746227
17.00668
2.254185
0.4586373
-1.198466
-1.896994
-5.98748
-7.992754
-12.51787
-3.200639
-26.97258
-6.771248
-13.24205
-0.0690273
-0.01187294
-1.428591
-0.2933866
-0.1010755
0.2706056
1.71316
-2.993417
1.198302
2.202064
-44.68713
0.5291602
24.53419
3.299485
-32.42321
-1.670614
15.03297
6.539134
-2.020192
-29.56033
0.2926565
0.2929578
-18.27847
-0.8325099
-0.7154193
0.7680992
1.930887
-4.57612
0.0312238
1.814639
0.8837771
1.498374
-4.215301
-0.4031304
0.2659869
-75.75409
-9.878022
-0.03594203
1.777521
-47.53403
-0.09125462
0.5040972
6.923159
13.69955
10.26042
1.659895
1.110548
-1.047807
-0.6312027
-0.2061989
-1.766965
2.18736
1.471247
-23.89456
-0.1130498
-18.96155
-1.831462
-8.700214
1.943282
-24.7632
1.793796
-0.1284284
-0.9786861
1.07045
-9.845697
-2.272514
-4.699143
3.900988
-14.34522
0.8496754
-0.02954054
-25.09472
1.783071
1.224824
0.8298303
2.81388
0.07465009
-5.384609
0.4810164
0.3515219
-29.76088
-1.611476
0.04226167
2.331618
0.06945687
0.4567843
-0.2589556
-2.197935
-0.2449314
1.24913
-24.7314
-0.769848
-0.3576034
-0.1698761
-0.06922474
0.5664357
1.275777
-2.274197
1.841873
1.173341
2.776566
-46.90112
-0.2892774
-0.05708563
0.6704996
0.06784473
0.7021809
3.58418
-0.8759076
-49.76045
1.802396
-3.820781
6.501679
-0.3644968
-9.821481
-8.919396
0.8551777
-0.01295802
-85.84692
1.84842
-11.49139
-19.81
-4.233409
-3.258752
-1.440361
1.147798
12.92409
1.806409
1.692411
-42.93545
1.842004
0.4352425
-0.002894217
-8.852375
21.76309
9.558386
-1.258503
1.467501
-0.2633519
-0.2412894
0.04198228
2.158388
-2.091157
-39.33966
-0.4767099
-0.6764669
-2.961918
5.473498
0.2132352
-0.3716891
-0.4071562
2.832936
0.3752211
-0.284362
2.388115
29.93172
-0.3885972
0.1066234
0.9677594
1.369817
-0.05068225
-0.1929174
-35.37774
0.8834762
-35.41755
-5.687235
-0.1042298
-0.5941467
0.1916762
-7.271051
0.8908403
-0.1654509
0.1421577
-0.8349241
-8.526211
-55.86924
1.483779
-0.494555
-1.411239
-0.1648379
-0.4388956
1.321643
-10.45042
-2.870455
13.82372
0.2605939
1.140476
0.2528461
0.2005473
1.932903
-1.033706
-0.1315725
-0.5192794
0.1193858
1.461757
8.067209
-14.03867
-0.2501769
-0.02722164
-3.991239
-0.6630857
1.011353
1.090778
-1.456449
-1.168024
-13.28126
1.992023
0.9092755
1.216578
2.999873
-0.2024329
0.2697538
29.91424
0.7863779
-2.075509
-1.096047
-73.36216
0.1686083
-0.4761602
1.349501
0.2545758
32.04008
0.03623147
1.542683
2.761406
1.297681
-0.6018714
0.5703362
-0.1426631
-0.2261083
-23.83654
-13.39211
-0.03827413
-2.434162
-56.7279
0.007578348
-0.07270144
-0.1298167
-10.74178
4.422354
29.05865
-0.04046685
0.2666465
-0.04469399
-0.02814198
0.0281009
8.607764
-0.9809868
-0.09969295
-0.2707115
-0.04747563
-0.01108459
0.2882736
-1.188003
-8.080953
3.590222
-30.22621
2.318388
-10.80367
0.005669066
-18.78073
-1.464186
2.365721
-9.862889
-0.0329141
-16.70572
9.671549
-16.42827
4.351127
1.612296
1.197574
-9.725795
26.51947
2.58103
-0.1333902
-2.15573
-25.75789
-0.1557794
0.03425195
1.80206
1.048877
0.5132935
-36.42545
-4.307422
1.816909
-7.691774
-10.72664
0.02490186
-37.04893
-22.14241
-49.18337
2.145104
-38.99352
1.54772
-0.247887
-19.65762
1.211778
-0.7037179
-24.46772
-0.01091737
0.1746372
-4.59418
-2.844095
-0.09188049
-40.12106
-14.96812
-2.794982
15.20808
0.9116944
-0.0192336
-22.23604
16.15524
-47.7137
0.009722972
0.7462029
-0.5048643
-1.159905
-1.404354
1.90002
1.725954
1.431772
-0.8702404
-53.38798
-68.26512
1.733588
-4.765614
2.04201
0.004419768
0.03925721
2.331845
-0.1622627
0.08945606
0.5979012
0.4318273
0.06584567
2.616129
-0.305081
-14.68301
1.104613
0.9469817
-14.52763
1.435227
0.9025155
-2.293481
-23.62283
1.92808
-2.092696
-0.6823502
-14.02401
-41.90212
33.57245
46.84152
1.960715
-0.4664919
-33.5752
5.078355
1.409109
0.01325928
11.00475
-29.56438
1.648252
1.177208
-0.2780818
1.857026
1.359453
-5.840569
-0.5033089
-24.72541
-59.07548
-13.20501
1.068146
1.761284
1.871864
1.289257
16.85695
0.1642974
-0.3391452
1.083702
-0.892392
-14.76156
2.519298
-43.20024
-24.81036
1.448801
-0.02128401
-1.82228
1.810937
-0.4763725
1.564468
0.03442734
-79.91178
0.8320077
-0.1726808
-36.8051
0.3749448
-0.08548615
-34.6037
-54.70385
-0.4369711
-27.6865
-3.877434
-0.09984109
-1.218583
-1.285279
0.1506602
1.37071
0.331683
-4.682966
-0.3473874
-1.088735
0.5416548
-3.19708
-0.2027874
0.08700729
0.06891425
-0.6983391
-1.080933
0.04954858
0.2548698
-43.5172
-0.2816943
0.4268305
3.045973
0.03701432
0.645885
-9.950274
0.01829966
2.658545
-36.34014
-23.01093
-0.3729957
1.239
0.01527026
-0.59583
-25.9606
-10.31735
-2.320229
-29.95861
22.83697
-9.255216
3.006231
-3.835879
-18.54715
0.04095083
3.08197
-76.32061
-0.9512922
1.030325
-2.34337
1.743653
4.449036
-0.3207692
2.287248
-8.631161
-5.019519
-61.25787
0.8381214
-11.17258
34.36333
-10.80857
-5.89403
-0.3210997
1.400411
-5.058698
7.560174
1.311768
7.296449
-1.105156
-15.4673
-9.24852
-16.30638
-1.946455
-0.1724094
-20.31085
0.586106
-51.90099
7.478296
0.5070788
15.75595
0.6749333
28.92674
-0.1504877
-26.93296
-0.5939386
-0.7684397
14.47048
0.07344464
-108.6228
-0.8709444
0.2085091
0.8401645
1.029042
0.2969
-10.65236
-5.699919
0.07513017
-36.31534
-3.951685
16.38241
-75.54272
2.091157
-63.53334
-17.06008
-4.50637
-44.33587
37.17925
0.9240209
1.388802
-36.51227
-3.355976
-0.1322821
-1.579101
0.1291231
-20.07717
-72.31451
3.570712
1.009145
-5.834854
1.554333
-0.09438718
-2.856141
0.6857799
5.725281
2.464441
-0.1681903
0.3612131
-0.1053314
1.836709
2.799935
-1.133894
0.03206832
0.3831819
-44.70244
0.009035987
-0.3820677
0.1587837
-0.05487644
-43.16473
1.629439
-0.2021686
0.9740657
0.4683209
-0.8454964
-4.302826
-0.09275053
0.2397863
-31.69555
23.06325
-1.551467
0.06479364
2.622973
-1.095233
0.9985138
0.689495
-0.05733739
0.2892181
-1.31488
-19.47817
0.03294837
-14.07313
2.340115
2.359503
1.460753
1.369057
-0.6437418
0.3447489
-0.4205012
-1.651467
-56.5822
-14.17923
0.1310611
-0.5008019
-0.7293591
-0.04163156
0.629378
-38.13485
0.5644352
0.872842
-0.1779981
-9.477982
0.0954566
1.161262
2.531325
-59.24488
-0.2451382
-0.3892401
-0.836299
-67.77762
-6.581247
-32.85155
0.0002682158
-1.150399
0.3220321
0.334012
1.957089
-33.55349
-10.89474
0.09973954
0.04602957
-17.37615
-1.073252
2.155868
1.999329
2.253148
-0.9395666
-0.3715062
-0.007881666
-65.62812
-8.644619
-2.100683
0.530003
1.290876
-0.8327347
0.7099212
-0.1654108
1.020643
-10.70528
0.09214526
5.724601
8.94296
1.467636
-11.76585
1.095097
-26.09678
-1.092016
-26.2439
-0.1114436
-0.9383277
0.03731843
-16.07591
18.16397
-17.78186
-0.6984999
-47.25085
0.5729391
-10.12636
-2.532795
-0.2511697
15.84494
2.531445
10.09658
-75.66498
0.876757
0.9958701
-1.134414
0.6991412
1.226554
1.054507
0.9210355
-1.214608
0.5699568
-14.12616
-0.5939566
0.8147647
2.156075
1.045804
-0.5776784
0.9344182
-1.265024
1.62951
0.9207306
-18.65703
-0.5697904
1.582457
-0.2777248
-0.3162337
-5.570636
-1.246606
-1.880172
-21.80613
-28.72984
-0.402704
-21.43211
-5.65564
-2.408221
2.907509
-0.1281162
10.63354
-53.07048
-18.66157
-0.3190592
0.117454
18.01398
-1.579033
-0.2815708
1.159028
-2.01445
-0.241305
-49.14412
-28.06983
-17.43447
10.89131
8.369939
-0.3916592
-38.35516
-44.93907
-68.21926
1.950486
-3.330308
-0.9850792
-0.651257
0.09640713
-0.1466565
0.1197634
-0.2396594
0.2101995
-0.4683129
-0.1080024
0.05268937
-26.11993
-0.1053743
0.09866336
0.07959122
-13.2941
19.21545
0.02313732
-32.14602
-35.37131
-6.78582
6.022599
-6.187874
-7.162052
-11.54668
-59.50302
0.01862778
-64.16593
1.167799
-48.37935
-20.66259
-1.351511
1.779355
-21.63932
-0.9653504
13.92597
-0.03402411
-0.0001974933
1.965674
-0.1963054
-0.6861669
0.3900359
0.6067962
0.02906151
1.735598
-30.1077
-0.0432853
1.028746
-2.204001
-1.00514
-0.6630336
-17.93245
-1.264491
-41.02576
-0.6515545
0.9608809
20.49031
-0.1962683
1.086025
-37.19112
-1.257867
-45.11431
1.283885
-0.02949628
1.065813
1.2674
-4.830927
-0.07512447
2.938879
-2.274589
0.08660167
-0.3607392
-0.559126
21.76526
2.342091
-16.11597
3.208099
-1.320986
-0.136281
-79.80809
0.05471361
0.4493133
2.521935
1.748549
-0.9716572
-53.25345
-29.66584
-30.22845
0.007016357
3.189007
-14.45643
0.8238111
-8.093507
0.4908358
1.234335
-3.50213
-34.27384
-3.904627
-70.85013
0.5816668
-3.211264
0.04855717
-3.371633
9.395406
0.4051773
-0.4705246
1.761326
-0.607504
-0.4621807
15.23357
-0.6037127
-9.356768
0.5691822
1.331296
0.02884466
2.181011
3.283594
-0.2561565
-21.52878
-10.48269
0.631567
-0.1239303
-49.82693
2.014205
-0.06909459
-6.019102
-3.713847
0.1219131
-0.1019644
-28.05288
-0.006011364
2.341343
-71.37117
26.22394
-7.524848
0.5942143
0.6598449
-27.55338
-0.2688757
0.5589916
0.8006666
-18.19961
-0.1195932
0.7854558
-0.2057847
-49.04045
-0.306473
20.51357
34.63011
1.61905
-28.91587
-31.9086
3.189007
1.120006
-0.04183824
32.55319
-34.70566
-0.7412208
1.170629
-1.843276
1.682591
-15.65675
-0.9601821
-1.731909
0.874947
1.004637
-34.23864
1.127381
1.068576
-16.72569
-24.32019
-11.81379
-2.20553
0.03045757
-76.80845
26.0199
-60.15899
0.3358788
-9.819543
-4.345973
0.1185548
1.374125
31.46782
-6.279862
-0.2184114
0.2850854
-0.3340688
0.01643015
-38.15442
1.64432
-0.06450145
-0.2523065
-0.2847582
19.06612
1.755694
-10.95544
0.2833199
-0.05214719
-9.332115
19.22354
2.810313
6.669032
-59.58171
-49.04598
0.1744434
0.0584719
-48.52559
-14.47299
-31.04184
-0.7073577
0.919842
1.179136
-0.1176728
1.361374
-15.27502
0.4742036
-0.4261563
-5.456853
-0.03042007
-0.2098885
-1.596966
-53.03648
-15.88813
-0.08777058
2.852122
0.01334273
-0.3737278
3.141757
-1.228368
0.8746428
0.2608605
-36.05408
3.620724
-1.748804
-1.44957
-86.92826
1.085273
1.331639
-9.235642
3.3475
1.142309
0.6411156
35.02726
-0.3176762
0.9085796
0.4035052
0.7129985
-5.654861
-25.35442
-38.65614
13.09999
1.313658
-0.4830077
1.051593
1.201163
0.05212556
0.8696714
0.2883981
1.55643
0.5274604
0.5707143
-0.08605384
0.002156889
11.68851
8.013066
1.44614
-3.488
-1.117468
-0.8510775
-2.898589
-24.98651
9.190846
-47.93157
-9.376186
0.2157937
1.767642
-72.48213
41.92174
-87.73152
1.094211
1.411169
3.984647
-5.383284
8.40088
-20.43415
-0.0322242
3.443304
0.1999106
2.782882
1.202551
-0.4054266
0.01511208
-82.86634
0.5612251
-1.609004
-0.7947462
1.512609
-55.37086
-57.92225
-32.86297
1.13058
14.4277
-3.694825
-0.3309769
-1.542799
0.6538465
-35.51128
-0.1027838
3.015703
31.0366
1.764646
1.522668
1.988957
25.77418
3.680027
-14.69324
2.678162
2.649325
-0.218896
-0.1408606
-73.65254
0.1851398
-55.86319
1.01035
0.3635485
44.39534
-1.607314
-0.1447791
2.427735
3.041849
0.1258865
3.248945
-62.24084
40.98673
2.409087
-1.252061
44.92399
-0.4419328
-0.2529849
-0.2218109
-19.03207
0.2635283
-0.1372046
-3.127315
1.445879
-12.31221
-29.12876
0.8808716
1.016479
0.01439468
1.46962
16.57531
0.33289
0.9363033
1.55135
0.5584165
0.1511457
0.1978538
0.2195823
0.02977127
-0.1789049
-24.15569
-28.29964
-72.9048