/*--------------------------------*- C++ -*----------------------------------*\
| =========                 |                                                 |
| \\      /  F ield         | OpenFOAM: The Open Source CFD Toolbox           |
|  \\    /   O peration     | Version:  2406                                  |
|   \\  /    A nd           | Website:  www.openfoam.com                      |
|    \\/     M anipulation  |                                                 |
\*---------------------------------------------------------------------------*/
FoamFile
{
    version     2.0;
    format      ascii;
    arch        "LSB;label=32;scalar=64";
    class       volVectorField;
    location    "0.24";
    object      U;
}
// * * * * * * * * * * * * * * * * * * * * * * * * * * * * * * * * * * * * * //

dimensions      [0 1 -1 0 0 0 0];

internalField   nonuniform List<vector> 
4562
(
(0.01001938 0.000146363 -2.69895e-26)
(0.009999119 1.497128e-05 0)
(0.01001103 6.78975e-05 0)
(0.009997298 1.826402e-05 2.371877e-26)
(0.01027587 8.429938e-05 0)
(0.01000559 2.967596e-05 -4.59494e-27)
(0.009855713 0.0001219529 1.996669e-26)
(0.009941854 6.531446e-05 -1.174299e-26)
(0.009950822 2.730616e-05 -1.342766e-25)
(0.009997635 2.005244e-05 1.568236e-26)
(0.009908884 0.0002612029 -3.494101e-25)
(0.01003357 0.00010262 4.757793e-26)
(0.009960455 0.0001180811 0)
(0.009997109 6.647426e-05 0)
(0.01053723 0.0004053383 2.24141e-24)
(0.01002156 1.413542e-05 -7.138246e-27)
(0.009899767 4.426575e-05 1.70067e-25)
(0.01005771 7.559983e-05 -1.016868e-25)
(0.009806939 0.0001006028 4.366648e-25)
(0.01001695 8.270156e-05 0)
(0.009992888 0.000799563 1.415737e-24)
(0.00997707 7.00265e-05 0)
(0.009887918 0.0002171852 0)
(0.01001028 1.877669e-05 2.695044e-27)
(0.01001087 2.888711e-05 0)
(0.00997647 0.0001707113 1.496481e-25)
(0.009938773 5.137489e-05 0)
(0.009966963 7.614262e-05 -2.082131e-25)
(0.009781468 0.0004565541 0)
(0.01018557 0.0004130007 0)
(0.01000466 0.000136833 4.19248e-26)
(0.01001339 2.147316e-05 -2.406933e-27)
(0.009999811 5.577884e-05 3.792043e-26)
(0.009881872 0.000122448 3.30796e-25)
(0.01008854 0.000162273 2.788998e-25)
(0.01005196 3.427297e-05 -2.309155e-26)
(0.009832753 0.0005408987 -6.90582e-25)
(0.00996739 2.818471e-05 0)
(0.01001774 1.876717e-05 1.578756e-26)
(0.01003592 5.43864e-05 2.388843e-26)
(0.009910365 3.755957e-05 0)
(0.009987089 1.065126e-05 -5.068275e-28)
(0.009901569 7.449627e-05 -3.095811e-25)
(0.009995082 3.041242e-05 -2.023887e-26)
(0.01000882 1.791319e-05 1.003565e-26)
(0.009915049 6.926801e-05 -6.367356e-25)
(0.0100091 2.885326e-05 0)
(0.00999028 1.145826e-05 0)
(0.009987017 2.170115e-05 0)
(0.01004704 0.0002035499 -1.679421e-27)
(0.009987922 2.673194e-05 0)
(0.009996181 0.0001327357 3.487615e-26)
(0.01007803 4.009635e-05 2.677786e-25)
(0.009860519 0.0001333798 0)
(0.0100224 3.079112e-05 -3.515815e-26)
(0.01046311 0.0005002196 0)
(0.009865879 0.0001232654 2.207956e-25)
(0.00981616 0.0001742739 8.181562e-25)
(0.009881241 0.0001059402 -7.455224e-25)
(0.01040494 0.0003697394 0)
(0.01000345 4.178891e-05 9.942236e-28)
(0.009854827 0.0003943684 -5.168169e-25)
(0.009922863 0.0001135017 -2.869044e-25)
(0.01003795 0.0001468159 -8.799032e-26)
(0.009922 3.448439e-05 4.035831e-26)
(0.01023881 0.0005306789 -2.598501e-26)
(0.009977573 0.0001121793 -1.300721e-25)
(0.009977746 0.0001615136 2.093197e-26)
(0.01004563 0.0001919677 0)
(0.009989228 6.755567e-05 0)
(0.009831101 0.0002027709 0)
(0.009972889 3.941669e-05 -7.627171e-26)
(0.01015088 0.0002603712 0)
(0.009952243 3.25461e-05 -6.214959e-26)
(0.009909355 8.602805e-05 2.422751e-25)
(0.01022399 0.0002814436 2.163559e-25)
(0.01001571 0.0001237646 1.326094e-26)
(0.009958224 5.138064e-05 -1.888339e-25)
(0.01001678 0.0001979157 0)
(0.01044664 0.0002548944 1.001135e-24)
(0.01041632 9.278094e-05 2.562789e-24)
(0.01013062 0.0001196759 -2.56803e-25)
(0.01017253 0.0006978591 2.630833e-25)
(0.009989304 3.947814e-05 0)
(0.009886385 0.0001269862 0)
(0.009981798 1.859409e-05 -3.235586e-26)
(0.01001482 1.706631e-05 7.51405e-27)
(0.009978683 6.363895e-05 -7.43243e-26)
(0.009949462 5.51226e-05 0)
(0.009983827 0.0001093918 -7.342239e-26)
(0.009972165 3.628514e-05 0)
(0.01001159 1.310528e-05 0)
(0.009957818 6.817972e-05 -7.221011e-26)
(0.01000245 5.849024e-05 -1.87843e-26)
(0.01003031 0.0003051899 0)
(0.009933264 0.0003276564 0)
(0.01001313 1.541583e-05 0)
(0.009962545 2.410492e-05 1.630975e-26)
(0.009781233 0.0002998166 0)
(0.009870896 0.0001498665 2.293602e-26)
(0.009993689 7.943174e-05 3.821088e-26)
(0.009815019 0.0002874091 3.130164e-25)
(0.00999413 4.097896e-05 6.597968e-26)
(0.01003609 0.0008462111 0)
(0.01000202 0.0001224698 2.364759e-26)
(0.009996832 0.0003901576 0)
(0.00994717 5.810314e-05 -9.240687e-26)
(0.009999235 7.660509e-05 0)
(0.009997631 3.770595e-05 1.225987e-26)
(0.01002678 2.173446e-05 0)
(0.009956692 0.0001602361 1.096657e-25)
(0.01008001 0.0002821101 2.901797e-26)
(0.0100058 0.0001167042 -2.227639e-26)
(0.009826269 0.0001064699 0)
(0.01025354 0.0005587084 0)
(0.009987533 1.039414e-05 1.213166e-26)
(0.01036604 0.0002272893 -1.102783e-24)
(0.00995187 7.60756e-05 1.939863e-25)
(0.009811112 0.0003873396 -4.178769e-25)
(0.009973324 9.22784e-05 -2.142101e-25)
(0.01010193 0.0001646182 -6.054795e-25)
(0.009933984 3.422237e-05 1.901691e-25)
(0.009983141 2.242532e-05 -2.622448e-26)
(0.009995825 3.404668e-05 -8.124567e-27)
(0.009917826 0.000148957 2.242991e-25)
(0.009997347 5.345205e-05 -4.295364e-26)
(0.00997975 5.22517e-05 -4.116643e-26)
(0.009999097 4.237509e-05 8.658552e-27)
(0.01003704 0.0002982677 -2.416376e-26)
(0.01003579 0.0002213186 3.868207e-26)
(0.01004295 0.0001177845 -4.218226e-27)
(0.009985221 2.575601e-05 -2.858384e-26)
(0.00999964 0.0003813596 -8.429932e-26)
(0.009999643 1.308337e-05 -9.255079e-28)
(0.01000879 0.0001225945 -1.215014e-26)
(0.01039116 0.0005194014 -7.72831e-25)
(0.009841392 0.0001818143 0)
(0.009983601 5.240157e-05 -7.957685e-26)
(0.01011864 6.426899e-05 0)
(0.01000348 1.747198e-05 -8.284512e-29)
(0.01016604 0.0006107113 0)
(0.01015353 0.0001448425 -2.41674e-25)
(0.01001657 3.123707e-05 -1.579758e-26)
(0.01043215 0.0005984285 -1.837177e-25)
(0.009978888 0.0002080747 0)
(0.01000087 7.164119e-05 0)
(0.009891106 0.0001622982 0)
(0.009982262 3.844921e-05 -2.601112e-26)
(0.01004671 0.000149898 5.067237e-26)
(0.01008759 5.222796e-05 -5.326734e-25)
(0.009998063 2.944246e-05 0)
(0.009884915 0.0003738028 0)
(0.009993241 6.709562e-05 0)
(0.01004137 8.891702e-05 8.742967e-26)
(0.01000323 2.835363e-05 0)
(0.01009412 0.0001507056 1.859244e-25)
(0.009976483 2.647967e-05 0)
(0.01033429 0.0006200037 1.642539e-25)
(0.01000814 9.28728e-05 -1.321978e-26)
(0.009989094 2.452173e-05 -4.840649e-26)
(0.009968274 0.0001602434 -3.910222e-25)
(0.01022531 0.0002677387 -2.968605e-25)
(0.01020339 0.0004475526 0)
(0.009985778 1.199263e-05 3.332277e-27)
(0.009978875 3.531234e-05 -5.672984e-26)
(0.0104774 0.0004940205 2.605196e-25)
(0.01001489 5.107664e-05 -1.651812e-26)
(0.01001013 2.258503e-05 -1.116176e-26)
(0.009874753 0.0002118684 -2.62954e-25)
(0.01010697 0.0001874761 1.489866e-25)
(0.01003156 0.0007971691 -2.601588e-24)
(0.01002694 6.803336e-05 -2.819766e-27)
(0.01007838 0.000326269 3.872071e-26)
(0.01001065 5.944117e-05 0)
(0.009988461 0.0003437809 -2.816969e-25)
(0.0100103 9.013939e-05 1.371804e-26)
(0.009986485 1.529217e-05 6.637076e-27)
(0.009981978 2.302312e-05 6.080526e-26)
(0.009947 0.0001391589 9.599873e-27)
(0.00996425 3.496449e-05 0)
(0.01000395 2.000668e-05 0)
(0.009905751 0.0001156475 4.223763e-25)
(0.00988762 0.000157138 4.080424e-25)
(0.01053563 0.0003811873 -1.633261e-25)
(0.01004352 0.0003152427 0)
(0.01000151 0.0001008175 -1.698198e-26)
(0.01000437 0.0004566558 -4.215525e-25)
(0.0100228 0.0001338039 -1.932e-27)
(0.009969506 2.565498e-05 -1.203793e-26)
(0.01013528 0.0004590732 0)
(0.009989926 0.0005198263 0)
(0.01011057 0.0005074569 4.815337e-25)
(0.01009264 0.0001724123 0)
(0.01000559 5.198326e-05 1.69663e-27)
(0.01003234 0.0003385531 0)
(0.009963036 3.58646e-05 -1.770304e-25)
(0.009858195 7.109096e-05 1.937655e-25)
(0.009877271 0.0001508069 4.337068e-25)
(0.01010259 0.0001940032 -4.143561e-26)
(0.009994777 2.274711e-05 9.108158e-27)
(0.009983527 3.478914e-05 6.720455e-26)
(0.009935885 0.0001633601 0)
(0.0100186 0.0001142938 0)
(0.01009509 0.0003883394 1.191071e-25)
(0.009866601 0.0003234626 -2.396284e-25)
(0.01000954 4.60709e-05 0)
(0.01029403 0.0004034124 -3.587917e-25)
(0.01035587 0.0005268763 -2.756938e-25)
(0.01007329 0.0001712999 2.356485e-25)
(0.009947152 4.222163e-05 1.430809e-25)
(0.01001085 2.008538e-05 -2.897023e-27)
(0.009929586 0.0003811642 0)
(0.009983319 1.803881e-05 -2.901074e-26)
(0.01001324 3.211497e-05 -7.294942e-27)
(0.01017465 0.0003985286 0)
(0.01033997 0.0005225927 -1.375451e-25)
(0.009997079 4.025207e-05 0)
(0.009996899 1.425937e-05 3.310282e-28)
(0.01001518 0.0001375003 0)
(0.01036937 0.0006356283 -4.241626e-26)
(0.01000129 4.025442e-05 -1.544399e-26)
(0.01029385 0.0007346644 1.130696e-24)
(0.01010281 0.000230111 0)
(0.01002086 3.044429e-05 2.020643e-26)
(0.009901881 0.000225511 0)
(0.009908203 0.0001427065 -8.913756e-26)
(0.009952852 0.0003375602 -1.529927e-25)
(0.009928899 0.0002409606 7.297723e-26)
(0.01019358 0.000585027 0)
(0.009927428 5.364953e-05 0)
(0.009999384 1.558722e-05 3.64183e-28)
(0.009908815 0.0001532368 1.862806e-25)
(0.01005509 0.000110523 1.201993e-25)
(0.009934042 0.0001886733 3.371732e-25)
(0.009965748 2.36717e-05 6.49824e-26)
(0.009838822 0.0001738437 0)
(0.009857022 0.0001081775 -1.825637e-25)
(0.01028324 0.000597861 -6.585544e-26)
(0.01006811 0.0001652874 0)
(0.00994132 3.090858e-05 0)
(0.009931719 3.298802e-05 -3.636046e-25)
(0.009964721 7.431944e-05 -1.265941e-25)
(0.01005606 0.0003602038 0)
(0.009990644 9.759748e-05 9.650367e-26)
(0.01002081 9.112504e-05 -1.159355e-26)
(0.0104101 0.00042821 -2.999083e-25)
(0.009964199 5.229642e-05 6.077432e-26)
(0.009874193 0.0002837679 -3.075953e-25)
(0.01001534 0.000133221 -2.550049e-28)
(0.009984031 1.733404e-05 -4.924451e-27)
(0.0100005 1.678116e-05 1.126406e-26)
(0.009986907 6.449008e-05 -1.218737e-25)
(0.00999432 5.194187e-05 2.941962e-26)
(0.009987925 3.737723e-05 3.015455e-26)
(0.01001624 4.090478e-05 4.140652e-26)
(0.01002174 6.316999e-05 -2.804866e-26)
(0.01000177 3.013888e-05 0)
(0.009917554 0.000100787 -6.850773e-25)
(0.009929493 3.429814e-05 2.116272e-25)
(0.009876202 0.0004350812 -6.178735e-25)
(0.01005395 0.0005112121 -2.858046e-25)
(0.009960128 3.136999e-05 6.079164e-27)
(0.0100493 0.0001143946 8.150571e-26)
(0.01000752 5.730862e-05 3.42206e-27)
(0.0102034 0.0003152118 -8.26634e-26)
(0.01000888 0.0001182988 1.993945e-26)
(0.01000549 1.455787e-05 0)
(0.01003915 0.000154853 5.317339e-26)
(0.0100178 2.941986e-05 1.887855e-26)
(0.01001377 1.44808e-05 -2.541246e-28)
(0.009990616 1.488445e-05 0)
(0.009978093 6.056855e-05 8.750794e-26)
(0.009947675 0.0001034999 1.205852e-25)
(0.01012888 0.0001342619 -2.531932e-25)
(0.0102307 0.000168931 -2.145256e-26)
(0.009995613 1.709322e-05 0)
(0.01000961 2.580011e-05 -1.192297e-27)
(0.009999278 2.710697e-05 -2.350366e-26)
(0.01002039 7.785633e-05 4.822147e-26)
(0.01034421 0.000326636 -4.259401e-25)
(0.009975561 0.0001291004 1.045992e-25)
(0.0100154 1.432404e-05 -1.507072e-27)
(0.00994421 6.921838e-05 0)
(0.009967739 7.072527e-05 -5.592231e-26)
(0.01009766 0.0006337207 3.029823e-25)
(0.01002423 4.484841e-05 -1.733793e-26)
(0.0100148 4.268656e-05 5.200526e-26)
(0.009994542 2.844819e-05 3.041518e-26)
(0.009998991 3.360562e-05 4.087251e-26)
(0.009822403 0.0002002375 0)
(0.009990024 0.0001805365 0)
(0.009993275 6.303934e-05 0)
(0.009916192 0.000245745 -1.367737e-25)
(0.01005534 0.0003389348 0)
(0.009988971 3.395708e-05 -3.44902e-26)
(0.009907962 0.0002745494 3.361837e-25)
(0.009943273 0.0002841405 3.150381e-25)
(0.009999247 5.368556e-05 4.20873e-26)
(0.009836779 0.0004416523 1.813584e-25)
(0.01016036 9.032275e-05 -2.188394e-25)
(0.01003342 7.096057e-05 7.514463e-26)
(0.009968466 8.952108e-05 7.869334e-26)
(0.0100245 0.0001794391 -2.376886e-26)
(0.01022038 0.0004746596 0)
(0.0100975 5.266827e-05 1.342857e-26)
(0.009899673 0.0004843215 -4.042007e-25)
(0.0098516 0.0005275638 9.146971e-25)
(0.0100147 3.716673e-05 0)
(0.009945064 0.0001262073 0)
(0.009929402 0.0001334381 1.972526e-25)
(0.009952771 2.956437e-05 -1.83195e-25)
(0.01008525 0.0001265901 -1.453891e-25)
(0.01030455 0.0005653235 0)
(0.009800727 0.0002673123 8.461362e-25)
(0.009963057 0.0001381997 -1.983879e-25)
(0.01003015 9.049172e-05 -2.734421e-26)
(0.009987095 1.877893e-05 5.435542e-26)
(0.01001688 1.916415e-05 0)
(0.01009729 0.0002540373 1.494819e-26)
(0.009982345 1.470013e-05 2.434961e-26)
(0.009980686 1.990273e-05 5.061414e-26)
(0.01051845 0.0003760267 -2.661262e-24)
(0.01000168 2.490345e-05 1.525335e-27)
(0.009990568 3.177011e-05 0)
(0.009907607 0.0005428659 0)
(0.009954753 7.754348e-05 -2.674673e-27)
(0.009897083 0.0002384419 0)
(0.009947757 0.0002253877 -2.728456e-25)
(0.009975799 2.779179e-05 2.277631e-26)
(0.0099029 0.0003288016 4.692394e-25)
(0.0100171 5.931548e-05 2.466334e-26)
(0.01004861 5.929413e-05 0)
(0.01001191 7.485957e-05 -9.043272e-28)
(0.01002138 6.990564e-05 -5.167119e-26)
(0.009792712 0.0001788891 6.184182e-25)
(0.009801072 0.0001738223 -1.003153e-24)
(0.01000838 2.301593e-05 -1.747276e-29)
(0.01003744 0.0004167094 3.565331e-25)
(0.01025526 0.0005397223 0)
(0.01020527 0.0006203444 0)
(0.01010763 0.0003806837 -3.004296e-26)
(0.01012773 0.0002816423 0)
(0.01011421 0.0004940589 -3.257621e-25)
(0.009976918 0.000102737 -8.593006e-26)
(0.009985879 1.744807e-05 0)
(0.0100013 2.033209e-05 -6.1441e-27)
(0.009997082 1.31938e-05 -1.048595e-27)
(0.009947514 0.0001190201 -3.533148e-26)
(0.009839487 0.0002707829 1.216847e-25)
(0.009960275 3.994534e-05 0)
(0.0101514 0.0004115064 -4.181795e-26)
(0.009982241 0.0001183044 -9.947115e-26)
(0.01001213 3.050749e-05 2.468329e-27)
(0.009971774 2.473774e-05 1.240592e-25)
(0.01001088 1.305323e-05 0)
(0.00995819 5.36349e-05 9.828856e-26)
(0.009979363 3.906645e-05 0)
(0.009983198 7.271652e-05 0)
(0.009917865 5.574763e-05 -1.764767e-25)
(0.009975767 2.526061e-05 -5.261205e-27)
(0.009977756 2.671522e-05 0)
(0.009997802 2.152062e-05 0)
(0.01000886 1.862398e-05 -1.699491e-29)
(0.01004244 6.005538e-05 3.917941e-26)
(0.009977839 5.096119e-05 8.731487e-26)
(0.009929322 6.634923e-05 4.600534e-25)
(0.009946133 3.258431e-05 0)
(0.009933075 8.677232e-05 1.542699e-25)
(0.009946837 7.604453e-05 1.441229e-26)
(0.009969394 5.653634e-05 -6.132498e-26)
(0.009903521 5.119164e-05 0)
(0.009885703 6.455122e-05 7.77736e-25)
(0.009897096 5.74155e-05 7.129647e-25)
(0.009909776 0.0004008487 0)
(0.01006272 0.0002853686 5.522913e-26)
(0.01000954 1.50947e-05 0)
(0.009876891 8.423886e-05 0)
(0.009986939 0.0007469822 0)
(0.009980184 9.31836e-05 0)
(0.009990018 7.445801e-05 0)
(0.01000355 3.909794e-05 2.559387e-26)
(0.01002993 0.0001686122 0)
(0.00994572 0.0003132912 0)
(0.01001114 1.785651e-05 2.091993e-27)
(0.01006806 0.0002045324 7.707533e-26)
(0.009931134 0.0003185461 1.938775e-25)
(0.01006181 0.0005598131 -1.240595e-24)
(0.01000821 1.358146e-05 4.998559e-28)
(0.009988508 4.427866e-05 1.095218e-26)
(0.009970623 5.064281e-05 5.344924e-26)
(0.009975574 5.38701e-05 4.573062e-27)
(0.009976804 4.121653e-05 -1.242687e-26)
(0.009989819 1.280672e-05 0)
(0.01006299 0.0002367472 2.549181e-26)
(0.01028102 0.0001527085 1.875425e-24)
(0.01020878 0.0002024248 8.281728e-25)
(0.009850452 0.0001109644 -6.788488e-25)
(0.009796288 0.000254791 7.838998e-25)
(0.009994037 2.678316e-05 2.879187e-26)
(0.009825182 7.442071e-05 1.393671e-25)
(0.01006181 0.0005267713 -1.942938e-26)
(0.009997398 0.0008980037 1.68303e-24)
(0.009884111 6.934057e-05 -5.837067e-25)
(0.01002719 0.0001123323 4.545289e-26)
(0.0104592 0.0003648458 0)
(0.01003407 0.0001849308 0)
(0.01017319 0.0008471492 0)
(0.009793884 0.0001900747 6.137561e-25)
(0.009937467 0.000769751 0)
(0.009997784 4.346188e-05 0)
(0.01000402 0.000174327 0)
(0.01000518 6.091052e-05 0)
(0.01001496 8.208391e-06 0)
(0.009985027 0.0001489513 4.06984e-27)
(0.009999443 0.0001837815 -7.744465e-27)
(0.01000263 2.329009e-05 0)
(0.009868309 7.359482e-05 -5.766362e-27)
(0.009991821 5.725964e-05 3.513228e-26)
(0.0100084 5.925566e-05 2.702466e-27)
(0.00998928 6.970636e-05 -5.857946e-26)
(0.009971279 4.178212e-05 0)
(0.009958918 2.560462e-05 -1.584183e-26)
(0.009877156 6.233616e-05 0)
(0.009917092 9.130409e-05 -1.275782e-26)
(0.009994036 1.1908e-05 3.907432e-26)
(0.009994896 9.269178e-05 -2.427346e-26)
(0.01000348 2.749798e-05 -1.089779e-29)
(0.009910824 7.100267e-05 8.976859e-26)
(0.009923876 4.703959e-05 -7.480323e-26)
(0.009959836 4.136332e-05 0)
(0.009966423 2.964181e-05 0)
(0.009940747 8.624651e-05 0)
(0.009872499 8.191875e-05 -1.103512e-25)
(0.009922618 4.072823e-05 0)
(0.009931278 4.503486e-05 0)
(0.01004008 3.819426e-05 9.771554e-26)
(0.0100145 2.552139e-05 1.462603e-26)
(0.009990798 3.731825e-05 1.64177e-26)
(0.009810809 0.0001615991 0)
(0.009932061 0.0001534461 9.136942e-26)
(0.01000739 6.985108e-05 0)
(0.01000998 3.743507e-05 -9.336951e-27)
(0.00982282 0.0002953347 0)
(0.009984136 0.0002658778 1.300987e-25)
(0.01049993 0.0004339848 0)
(0.009982974 2.139255e-05 4.255762e-27)
(0.01021208 0.0006564729 0)
(0.01000027 1.837115e-05 0)
(0.009946424 4.040891e-05 -1.659728e-25)
(0.009993911 3.945473e-05 1.765872e-26)
(0.009933716 0.0001001832 0)
(0.01001855 1.107777e-05 0)
(0.01002024 0.0003027652 -1.982228e-26)
(0.01008844 0.0002683078 -1.238649e-25)
(0.01001056 3.61172e-05 3.341359e-27)
(0.009973594 2.391369e-05 -5.817678e-26)
(0.01040926 0.0006340431 6.568293e-26)
(0.009896133 9.220308e-05 -6.681928e-26)
(0.009882224 0.0007972764 8.448676e-25)
(0.01004919 8.491609e-05 8.072411e-26)
(0.01033849 0.0004361548 -8.622328e-25)
(0.0100043 3.828926e-05 -3.491702e-26)
(0.009959605 5.807187e-05 1.289665e-25)
(0.009819894 0.0002183344 -5.912419e-25)
(0.009810946 0.0001884797 0)
(0.009987737 1.747196e-05 0)
(0.009995887 1.551527e-05 -4.736295e-28)
(0.009998736 4.059227e-05 2.805654e-26)
(0.01033349 0.0005062916 -3.259779e-26)
(0.009940455 4.030782e-05 0)
(0.009982867 4.381394e-05 -1.126154e-25)
(0.009975796 0.0008237095 0)
(0.009960165 2.499822e-05 1.417638e-25)
(0.009967515 2.129042e-05 0)
(0.01029031 0.0002429711 -9.418441e-25)
(0.009949391 7.751126e-05 -1.399035e-26)
(0.009971657 9.680961e-05 0)
(0.009962812 0.0001160878 0)
(0.009934098 0.0001398445 2.449645e-25)
(0.009955554 0.0001512505 1.031456e-25)
(0.01001119 0.0001075112 -2.629878e-26)
(0.01000704 0.0003419348 1.831124e-25)
(0.00994678 0.0001559157 -2.666669e-25)
(0.0103909 0.0002745323 0)
(0.01003993 0.0002265044 -3.553504e-26)
(0.01015522 0.0002132609 -4.540421e-25)
(0.01017398 0.0002808445 2.072177e-26)
(0.009957362 5.740424e-05 -6.26602e-26)
(0.009941693 6.76979e-05 0)
(0.0100172 6.354263e-05 -2.112333e-26)
(0.01000685 1.503432e-05 -6.512998e-28)
(0.01000047 1.370061e-05 1.336093e-27)
(0.0100121 7.946363e-05 6.933799e-27)
(0.00991577 0.0001048438 -5.151661e-25)
(0.009933797 0.0005114905 0)
(0.0100282 8.222458e-05 -5.306913e-26)
(0.009998374 0.0001474032 -6.338364e-26)
(0.009986191 1.455759e-05 1.378251e-27)
(0.01023913 0.0005154453 2.862055e-26)
(0.0101883 0.0004315023 0)
(0.01019668 0.0004018175 -7.006101e-26)
(0.01013246 0.0003078206 0)
(0.01013022 0.0003799453 1.178194e-26)
(0.01005378 0.0003691064 1.483529e-26)
(0.01001009 0.0004444923 7.326069e-25)
(0.01009127 0.0005095797 -1.274529e-25)
(0.01027018 0.0004101086 0)
(0.01012364 0.0005198298 -1.349044e-25)
(0.01025226 0.0004969872 -6.537162e-27)
(0.01035622 0.0005851537 -1.022575e-25)
(0.01017457 0.0003738277 0)
(0.01010855 0.0003726808 2.724158e-26)
(0.01009139 0.0003308402 0)
(0.01008786 0.000353854 1.200167e-25)
(0.009958484 3.557159e-05 9.168498e-27)
(0.01006938 0.0002588123 -3.985371e-26)
(0.01023157 0.0001500142 -4.553373e-25)
(0.009963372 3.067996e-05 0)
(0.01024063 0.000261636 0)
(0.01002687 5.296267e-05 0)
(0.01001841 1.70862e-05 9.802357e-27)
(0.009955944 0.0003812321 0)
(0.01007982 0.00027417 -1.968111e-26)
(0.009949791 0.0002371319 2.008528e-25)
(0.01002535 8.229596e-05 0)
(0.009913029 0.0001110244 0)
(0.01027317 0.000664226 -8.898774e-26)
(0.01006669 4.742103e-05 0)
(0.01001576 3.830117e-05 0)
(0.009884365 5.644418e-05 0)
(0.009816288 6.625211e-05 2.395092e-25)
(0.009886888 0.0005200094 3.995168e-26)
(0.009917549 4.477155e-05 -1.464415e-25)
(0.009948312 0.0003564031 -3.207213e-25)
(0.009998835 2.631042e-05 2.256386e-28)
(0.00996212 0.0001763562 0)
(0.009954635 9.396154e-05 2.197322e-25)
(0.01006768 0.0002913807 -5.50528e-26)
(0.009964875 0.0002651973 -2.627397e-25)
(0.00999718 0.0002074066 1.021598e-25)
(0.01026796 0.0001874213 9.60202e-25)
(0.009951217 4.095568e-05 0)
(0.009944145 3.993044e-05 0)
(0.01000216 3.19892e-05 9.712891e-27)
(0.01002667 2.819964e-05 -4.001805e-26)
(0.009966669 4.962859e-05 4.402604e-26)
(0.009898543 4.018584e-05 -1.453177e-25)
(0.009928419 0.0001831584 -3.618275e-25)
(0.009923277 0.0001490103 -8.555988e-25)
(0.009821348 9.522766e-05 0)
(0.009831991 7.347992e-05 9.137176e-25)
(0.009810556 0.0001354631 -1.63439e-25)
(0.009955741 0.0001387127 -8.608214e-26)
(0.009862289 0.0001120988 2.222188e-25)
(0.009968963 0.0001211627 -6.147116e-26)
(0.009878428 0.0002569433 4.627009e-25)
(0.009956415 3.333027e-05 0)
(0.0100166 1.730015e-05 1.665173e-26)
(0.01012094 0.0002665555 0)
(0.01003509 0.00013599 6.957671e-26)
(0.009947323 0.0001660538 1.972415e-25)
(0.0100161 8.818273e-05 3.964452e-27)
(0.009960089 0.0001226411 0)
(0.01000809 1.3116e-05 7.792166e-28)
(0.01000501 1.781502e-05 4.251311e-27)
(0.01003077 0.0001365866 0)
(0.009983453 2.666993e-05 1.13303e-26)
(0.009973477 3.790087e-05 7.481552e-26)
(0.009974188 5.087102e-05 -9.205336e-26)
(0.01006506 0.0002289139 3.488852e-26)
(0.01034731 0.0004474008 9.671257e-26)
(0.010278 0.0006840088 0)
(0.009993527 3.551172e-05 0)
(0.009866215 0.0001675727 1.055691e-24)
(0.01002396 2.407611e-06 -7.198411e-26)
(0.01003274 0.0002446242 2.371376e-27)
(0.01003677 0.0001991682 -7.617081e-26)
(0.01002785 0.0001494668 -4.524013e-27)
(0.009979378 5.428458e-05 -1.068991e-25)
(0.009983434 5.943409e-05 5.777572e-26)
(0.009990971 0.000144166 5.765932e-26)
(0.009958954 0.0001556641 -1.011837e-25)
(0.009998124 2.306914e-05 0)
(0.00995389 2.192393e-05 0)
(0.009971488 0.0002177551 0)
(0.009990282 1.985918e-05 1.5752e-26)
(0.01000362 1.866379e-05 0)
(0.009896646 5.354309e-05 -2.63264e-25)
(0.0100046 9.260753e-05 -2.036972e-26)
(0.009942268 0.0001379279 -3.13383e-25)
(0.009891148 0.0002884606 -3.715316e-26)
(0.01040072 0.0001603954 0)
(0.009849034 0.0002423333 -1.41777e-24)
(0.009891897 0.0003927195 8.303676e-25)
(0.01013705 0.0007806515 -8.588488e-25)
(0.01006532 0.0005990319 -1.800877e-24)
(0.01017413 0.0005216863 -2.750038e-25)
(0.0100122 4.688403e-05 7.752257e-27)
(0.01001436 0.0002283657 -3.554508e-25)
(0.009998566 2.224496e-05 0)
(0.009865132 0.000359675 9.875987e-26)
(0.009843703 0.0003642544 1.206162e-24)
(0.009972497 4.191996e-05 0)
(0.01000987 0.0002591589 -1.343254e-25)
(0.01005875 2.511311e-05 0)
(0.009931715 0.000196331 -1.878684e-25)
(0.009933012 7.327741e-05 0)
(0.01001171 1.339389e-05 -2.541265e-27)
(0.01000643 3.9244e-05 0)
(0.01015213 0.0002344749 -7.381806e-26)
(0.009964116 6.273195e-05 1.867568e-26)
(0.0100431 0.0001456019 2.321177e-26)
(0.01038179 0.0004305342 1.928279e-26)
(0.01039472 0.0004214263 0)
(0.009992603 0.0001283023 0)
(0.009885202 0.0007193226 1.119136e-24)
(0.00995019 0.0001512152 -1.219429e-25)
(0.01019361 0.0001732332 1.24961e-24)
(0.009993976 0.000148286 0)
(0.0100248 4.914296e-05 0)
(0.01003823 9.944208e-05 0)
(0.01000692 2.207362e-05 2.199519e-27)
(0.01000464 3.09853e-05 3.15767e-27)
(0.01001117 3.352581e-05 -1.827919e-26)
(0.01001484 5.631122e-05 -3.753005e-27)
(0.01003281 2.22795e-05 0)
(0.01001803 1.176767e-05 0)
(0.01001586 1.791945e-05 0)
(0.01006607 0.0001782181 1.070216e-25)
(0.00990475 0.0002403003 7.554448e-25)
(0.009875036 9.751588e-05 -3.401975e-25)
(0.009868498 0.0004937627 0)
(0.009997551 2.761122e-05 -1.895508e-26)
(0.009915576 3.482908e-05 -2.212331e-25)
(0.00997318 5.672319e-05 -5.768759e-26)
(0.009859393 0.0003163272 0)
(0.01006003 0.0002249826 1.211681e-26)
(0.009891958 0.0001005617 -6.665937e-25)
(0.01000755 0.0004868514 -6.205142e-25)
(0.01001546 0.0005588204 5.305296e-25)
(0.01001243 3.51578e-05 3.163305e-27)
(0.01001993 3.721586e-05 0)
(0.00998169 0.000501219 6.294109e-25)
(0.009969837 0.0004741445 2.708981e-26)
(0.01002349 4.829766e-05 -9.157823e-27)
(0.01001923 5.668258e-05 0)
(0.009982092 0.000112236 1.685017e-25)
(0.009988137 1.933922e-05 -5.319122e-26)
(0.009983766 2.078819e-05 -1.528064e-26)
(0.009984157 1.319199e-05 0)
(0.00989245 0.0001057063 3.946569e-25)
(0.009877673 7.583681e-05 1.91505e-25)
(0.009887771 0.000114468 -3.158409e-25)
(0.009885797 9.730423e-05 -1.299999e-26)
(0.009986704 8.49873e-05 0)
(0.01018873 0.0005332063 0)
(0.009947735 5.375222e-05 0)
(0.009997189 3.215333e-05 -6.539322e-27)
(0.009985138 2.0909e-05 -2.654839e-26)
(0.009998271 8.544362e-05 -4.297542e-26)
(0.009883097 0.000197609 1.36506e-25)
(0.01001631 0.0001834185 1.813155e-26)
(0.01000947 1.420197e-05 -4.29996e-27)
(0.01001386 1.503324e-05 -1.01032e-28)
(0.01001781 7.236448e-05 0)
(0.01001905 5.165532e-05 2.140174e-28)
(0.01002367 3.707452e-05 0)
(0.0100053 2.162242e-05 0)
(0.01045003 0.000280408 1.506756e-24)
(0.009981201 3.316496e-05 0)
(0.009857553 0.0001454177 -2.291154e-25)
(0.01000803 4.649937e-05 -1.526224e-26)
(0.01001004 4.458956e-05 1.561231e-27)
(0.01002778 2.690732e-05 0)
(0.00998227 0.0001864026 -2.371948e-27)
(0.009833131 6.839108e-05 -8.692828e-25)
(0.009992084 1.183801e-05 5.972169e-27)
(0.009990815 1.222384e-05 0)
(0.01028598 0.0003152399 -5.621096e-26)
(0.0102694 0.0003613782 3.774511e-25)
(0.009987766 4.729103e-05 7.404079e-26)
(0.009975363 2.092938e-05 -3.71735e-26)
(0.01001446 7.024138e-05 -2.463117e-27)
(0.01001576 0.000210721 -5.00858e-26)
(0.01000849 7.228325e-05 -1.375679e-26)
(0.009992295 2.411939e-05 -7.905088e-27)
(0.01035497 0.0006056891 8.847817e-26)
(0.009959679 6.441131e-05 -1.456897e-25)
(0.01000558 5.706599e-05 -2.033076e-27)
(0.009998973 5.971493e-05 0)
(0.009993478 6.079478e-05 -5.342316e-27)
(0.009987884 4.979295e-05 -2.52437e-26)
(0.01001171 2.053402e-05 -1.494429e-27)
(0.01020291 0.0003619755 2.741581e-25)
(0.009913166 0.0003162829 -5.07706e-25)
(0.01005586 0.0002140352 -6.685011e-26)
(0.01006522 0.0001878974 -1.179188e-25)
(0.00995122 0.0001053649 -2.02644e-25)
(0.01000113 1.29274e-05 -1.727077e-27)
(0.01022091 0.0003720695 2.506354e-25)
(0.009843949 0.000232544 -1.333642e-26)
(0.01003075 0.000102216 -8.304507e-26)
(0.01003813 0.0001061949 1.267839e-25)
(0.009996008 1.371678e-05 8.362364e-28)
(0.01000001 2.123339e-05 0)
(0.009949621 4.258699e-05 -1.425917e-25)
(0.01000954 1.767067e-05 -7.191945e-27)
(0.01002468 6.507593e-05 -3.090768e-26)
(0.01000736 1.466381e-05 1.848884e-28)
(0.01002397 7.962508e-05 -3.16204e-26)
(0.009834777 0.0005616139 7.750365e-25)
(0.009885472 0.0004595234 -3.351061e-25)
(0.01010553 0.0006022817 -6.303128e-25)
(0.009949922 3.201918e-05 0)
(0.009929692 0.0001285903 -2.285272e-25)
(0.009975842 4.660488e-05 3.439521e-26)
(0.009794659 0.0007412556 0)
(0.009993702 1.520978e-05 0)
(0.0100388 8.935907e-05 -6.951031e-27)
(0.01007237 0.0002244112 2.252289e-25)
(0.009949585 9.699002e-05 -2.117591e-25)
(0.009955367 0.0001118378 -1.232628e-26)
(0.00993723 9.716213e-05 -5.284099e-26)
(0.009806456 0.0004028361 0)
(0.01006524 0.0001698431 -4.137192e-26)
(0.01001136 3.223226e-05 3.828142e-27)
(0.01007706 0.0002278358 -1.314589e-25)
(0.01002527 0.0002487525 -5.673782e-26)
(0.0103026 0.0004632187 0)
(0.01038654 0.0003309116 0)
(0.01016218 0.000250041 4.056614e-25)
(0.01001078 1.479106e-05 0)
(0.009980632 0.0001931827 -1.352604e-25)
(0.01001334 0.0001885671 -1.853072e-26)
(0.009829562 0.00015237 4.588357e-25)
(0.01041841 0.0002124489 9.077172e-25)
(0.009830685 0.0004319724 0)
(0.009982911 1.216886e-05 5.601747e-27)
(0.01010623 6.621042e-05 4.732667e-25)
(0.01037259 0.0005131949 0)
(0.01036515 0.0002865235 0)
(0.009983568 1.365461e-05 -1.692553e-27)
(0.009905038 5.923287e-05 0)
(0.01000553 1.830422e-05 -2.193283e-27)
(0.009980944 2.254536e-05 4.746239e-27)
(0.01022443 0.0003221022 0)
(0.009884043 0.0003869342 -8.483218e-25)
(0.01013104 0.0002059939 -1.301423e-25)
(0.009961611 2.525884e-05 0)
(0.01019696 0.0002408778 2.354376e-25)
(0.01001319 4.122838e-05 0)
(0.0102539 0.0003417997 7.518651e-25)
(0.009964663 5.001402e-05 -7.464867e-26)
(0.009941129 3.345833e-05 -8.725753e-26)
(0.0100203 4.790311e-05 1.430854e-26)
(0.01002644 0.0001313068 0)
(0.009954756 3.468517e-05 9.909018e-28)
(0.009933317 0.0001131099 -2.671776e-26)
(0.009983785 1.240679e-05 -7.73126e-27)
(0.009966224 3.246965e-05 1.509573e-27)
(0.01001198 2.280579e-05 0)
(0.009959586 2.863721e-05 0)
(0.009925908 7.286188e-05 -2.47064e-25)
(0.009933385 4.379665e-05 0)
(0.009935685 5.704853e-05 1.138312e-25)
(0.01001784 3.297796e-05 5.568329e-26)
(0.009861648 0.000140462 6.529587e-25)
(0.01001515 4.366405e-05 -3.029751e-26)
(0.009891841 0.0001800337 -3.77515e-25)
(0.01001478 2.837119e-05 1.43022e-26)
(0.0101564 6.731583e-05 0)
(0.009943954 0.0002679824 0)
(0.009976644 3.817473e-05 0)
(0.01000051 3.341505e-05 0)
(0.009978537 0.0003254435 -3.526086e-25)
(0.01018423 0.0005506118 0)
(0.01027984 0.0006191953 8.814078e-26)
(0.01019821 0.0005649127 -1.342563e-25)
(0.01012943 0.0005505146 0)
(0.009988265 0.0006081088 -9.412323e-25)
(0.01015866 0.0001285452 -1.693682e-25)
(0.01014385 0.0001150799 6.020211e-25)
(0.009886603 0.0002041886 -2.463668e-25)
(0.0100066 1.311674e-05 -9.303039e-28)
(0.01004988 0.0001746588 -2.445574e-26)
(0.0100187 0.0001081496 8.298869e-27)
(0.009988846 4.257398e-05 6.73721e-26)
(0.009988762 0.0001618108 1.115123e-25)
(0.01000523 7.844266e-05 -6.602671e-27)
(0.0100415 0.0001734315 1.037349e-26)
(0.01000237 2.863698e-05 0)
(0.01020562 0.0008052753 6.34267e-25)
(0.01001092 7.24938e-05 -2.751898e-27)
(0.0100122 7.026244e-05 2.610419e-27)
(0.01000079 6.461721e-05 0)
(0.01001071 6.343917e-05 0)
(0.009983146 9.38257e-05 -2.335428e-27)
(0.01014159 0.0001733524 -6.305293e-25)
(0.0101647 0.0002205656 0)
(0.01002258 7.154304e-05 6.257821e-26)