/*--------------------------------*- C++ -*----------------------------------*\
| =========                 |                                                 |
| \\      /  F ield         | OpenFOAM: The Open Source CFD Toolbox           |
|  \\    /   O peration     | Version:  2406                                  |
|   \\  /    A nd           | Website:  www.openfoam.com                      |
|    \\/     M anipulation  |                                                 |
\*---------------------------------------------------------------------------*/
FoamFile
{
    version     2.0;
    format      ascii;
    arch        "LSB;label=32;scalar=64";
    class       volScalarField;
    location    "0.42";
    object      p;
}
// * * * * * * * * * * * * * * * * * * * * * * * * * * * * * * * * * * * * * //

dimensions      [0 2 -2 0 0 0 0];

internalField   nonuniform List<scalar> 
4529
(
-2.592371e-07
-1.249729e-07
2.364808e-08
-1.735943e-09
-4.453538e-07
3.729424e-08
-8.850307e-07
1.087823e-08
-5.382523e-07
1.972628e-08
-2.946801e-07
6.034485e-08
5.802855e-08
5.025224e-08
-7.379937e-08
-7.240348e-08
1.147211e-07
-6.558762e-07
-1.233523e-07
2.396635e-07
-5.291684e-07
-1.659365e-07
-3.094628e-07
-1.892254e-07
-1.957798e-08
3.341105e-08
3.130858e-08
-2.72714e-07
-1.670422e-08
-1.433696e-07
-3.992677e-07
-1.584448e-07
2.497619e-09
3.041874e-09
-3.527033e-07
-3.866765e-07
4.587594e-08
-8.656554e-08
1.715454e-08
2.437292e-08
3.734787e-08
-1.933498e-08
-7.189448e-08
-2.175531e-07
-7.857268e-08
-7.362209e-08
-1.354259e-07
-1.845576e-07
-2.242611e-07
-5.583702e-07
-4.930306e-08
-9.289747e-09
-1.468518e-07
-6.408567e-08
2.388083e-08
1.624006e-07
1.118814e-07
-2.814969e-07
-4.073824e-07
-4.044961e-07
2.129985e-10
-3.453757e-08
-6.979103e-07
-2.407205e-07
2.66887e-08
-6.051028e-08
-9.362847e-09
-3.415955e-08
-6.563438e-08
-5.930725e-07
-3.326604e-07
-1.453361e-09
-2.014484e-07
-9.457268e-09
-1.588333e-07
-1.460935e-08
-3.055932e-08
-8.721334e-08
-8.398313e-08
1.270136e-07
-2.753803e-07
3.878231e-08
-3.793101e-07
3.836874e-08
-4.893157e-07
-6.641895e-07
-3.276912e-07
-2.789247e-07
-7.218636e-09
3.80908e-08
-1.772626e-07
-2.625321e-07
-8.261673e-08
-5.137304e-07
-5.514818e-07
-9.820898e-07
-7.696456e-07
-4.463514e-07
-1.582917e-07
-3.183724e-07
-6.978813e-08
-7.643603e-08
-1.49043e-08
-4.219986e-07
-2.772238e-07
-1.02373e-07
-4.412347e-08
1.466068e-09
-5.808298e-08
-2.30445e-07
1.08099e-08
-1.05651e-07
-6.42652e-07
-2.624341e-07
8.280292e-08
-4.736505e-09
-6.500189e-08
-2.289372e-07
-6.976481e-07
-4.444159e-08
-4.657326e-08
9.28955e-10
-4.433791e-08
-1.022292e-07
2.602402e-08
-1.015202e-06
4.597989e-08
-1.815788e-08
9.073242e-09
-9.080956e-10
3.715453e-08
-9.829208e-08
-7.51143e-08
-2.404823e-07
-3.580373e-07
-1.983455e-08
1.029761e-08
-6.618387e-07
-8.009799e-08
-7.398579e-08
7.160998e-08
1.519671e-08
-3.227917e-07
-5.424722e-08
-5.493486e-08
9.132373e-08
-5.964757e-07
-9.603239e-07
-5.120977e-08
-7.620589e-07
-6.170528e-09
-2.589625e-08
-6.126916e-09
-1.280407e-07
-7.428301e-07
-5.21714e-07
-4.445408e-08
4.804972e-08
5.113924e-08
2.273657e-08
-2.368108e-08
-1.108234e-07
-2.470705e-07
-9.542678e-08
-1.405128e-08
-2.972853e-07
-8.571943e-07
7.213961e-08
-3.578714e-07
8.661293e-09
-6.438185e-08
-2.91677e-07
-9.894738e-07
-5.5937e-08
-2.362938e-07
-5.739181e-07
2.393135e-09
-1.646492e-07
1.500231e-08
-7.133963e-07
-4.56187e-08
-1.719995e-07
-1.459856e-07
8.164156e-09
-8.438254e-08
1.175051e-07
-2.543393e-08
-1.037529e-07
-4.847882e-08
-5.920531e-07
-1.19981e-07
-6.3483e-08
-1.54699e-09
-1.986444e-07
-1.551499e-07
-1.059506e-07
-3.403998e-07
8.215364e-08
-1.358908e-07
-1.440182e-07
-9.939089e-08
-1.141772e-07
-5.634865e-08
-2.285565e-07
2.687825e-08
-1.378443e-07
-1.099247e-07
-5.794106e-08
2.332419e-08
-7.859309e-07
-7.390087e-07
-6.686068e-09
-1.87575e-07
-5.065354e-07
-5.158651e-08
-5.781116e-08
-7.016609e-07
-3.071332e-07
-8.524817e-07
-5.274029e-07
9.343759e-08
-4.066421e-07
-8.49731e-09
6.01434e-08
-4.100139e-07
-3.928821e-07
-2.0059e-07
-2.876532e-07
-1.183085e-07
-1.277986e-07
-8.594708e-07
-5.405875e-08
-8.025133e-09
-3.408141e-07
-4.183015e-08
-2.625963e-08
-1.644784e-09
-6.943127e-10
-2.515799e-07
1.671026e-08
4.697648e-08
-2.808138e-07
8.81627e-08
-2.368526e-07
-2.605761e-07
-3.473006e-07
-2.587093e-07
-1.017548e-06
-1.637088e-08
-3.480342e-09
-1.390464e-07
-2.125573e-07
-7.010967e-07
-1.777649e-08
-4.225357e-07
-1.415983e-08
7.061108e-08
-2.970081e-08
-4.207379e-08
-4.340638e-07
-1.374566e-07
-9.435783e-08
-3.14644e-07
-2.000375e-08
-9.13347e-09
8.597682e-09
-1.910096e-08
-1.255788e-07
-5.612397e-08
-4.178432e-08
-2.799256e-07
-3.04564e-07
-4.527115e-08
-2.244039e-07
-5.00902e-09
-4.947735e-07
-2.353354e-07
5.287692e-08
-2.337175e-07
2.964329e-09
1.969849e-08
-3.074748e-08
1.622066e-08
1.088562e-07
7.418106e-08
-5.38565e-07
6.693591e-08
-1.625039e-07
-1.697221e-07
3.458968e-07
-6.863968e-07
4.351265e-07
3.001282e-08
-1.902256e-08
-4.985895e-09
-2.316076e-07
-2.581774e-07
5.312836e-08
-7.6266e-07
-6.605783e-07
-9.689032e-08
-2.663794e-07
-3.37463e-07
-3.279965e-07
-1.921332e-07
2.987741e-07
-1.058475e-07
-9.559973e-07
-3.983628e-07
-5.774121e-08
3.692132e-08
-6.556697e-08
-6.726441e-07
-1.859565e-07
-1.666675e-07
-1.542685e-07
3.394052e-08
-3.226677e-07
-5.468539e-07
3.360152e-08
2.293333e-08
8.844196e-09
-4.89181e-08
-7.491818e-08
3.245602e-08
-4.489633e-08
-3.249306e-07
-5.592303e-08
-7.044144e-08
-1.337037e-07
-1.234815e-07
-1.100821e-07
3.075583e-08
-2.076691e-07
1.065535e-07
-7.434875e-08
2.672021e-08
-1.258799e-07
-1.924539e-07
2.883249e-08
-2.209611e-08
-8.576358e-07
-6.042639e-07
-1.451386e-07
-2.335185e-07
-1.617212e-07
4.204655e-08
4.235943e-08
-6.14115e-07
-5.773985e-08
-1.767715e-08
1.276689e-08
-8.977154e-07
-5.611168e-08
-1.262602e-08
3.716827e-07
-3.358838e-08
-1.10186e-07
-3.702996e-08
-6.364289e-08
-2.585471e-08
-2.336584e-07
-1.135975e-07
-5.228533e-07
-3.192798e-07
3.2872e-09
-9.685005e-08
-1.744628e-07
5.126418e-08
-4.987562e-07
-2.512089e-07
-5.675337e-07
-3.018891e-07
1.855101e-08
6.27703e-08
-3.916963e-07
-2.568037e-07
-1.624306e-09
1.128262e-08
-1.361248e-07
-1.729276e-07
4.057426e-07
3.64025e-08
-2.386892e-08
-3.11917e-08
-7.240429e-08
-8.529928e-09
-2.161636e-07
-4.23021e-07
5.0428e-08
-5.347109e-07
-7.330683e-08
-1.349029e-07
-1.504228e-08
1.029428e-07
-4.71352e-08
1.851396e-07
-2.531691e-08
2.383395e-08
6.14114e-08
-1.13584e-07
-1.85676e-08
-1.756103e-07
-6.12316e-08
-7.159149e-07
4.051438e-08
-1.30285e-07
-1.397324e-07
-6.343925e-09
-3.438889e-07
6.442593e-09
-2.669924e-07
-4.629661e-07
1.031403e-07
-1.741292e-07
-4.345441e-08
4.065093e-08
-5.920279e-08
4.438119e-07
-1.321938e-07
-7.280362e-08
-6.424785e-08
-2.516935e-08
-5.365961e-09
1.072103e-08
7.659191e-08
-8.196603e-07
1.322162e-07
-7.097628e-07
-6.518783e-07
-1.603846e-07
-4.347805e-07
-1.105059e-07
-5.455513e-07
7.320482e-08
2.237351e-08
-5.821398e-07
-8.616155e-08
-4.900404e-08
-4.180097e-08
8.082867e-09
1.748508e-08
1.61846e-08
-1.229313e-07
-1.766796e-07
5.560353e-08
-5.177028e-07
-4.868114e-07
-4.499547e-08
-1.461679e-07
-1.165728e-07
-6.698449e-08
-6.9594e-08
-7.541418e-08
-3.734229e-08
-1.278461e-07
-1.216963e-07
-7.481152e-08
-6.386552e-08
-1.278666e-07
1.548109e-08
-8.184509e-08
-9.303478e-08
-6.013359e-08
-4.271544e-07
-2.29957e-07
-7.142799e-07
-1.521968e-08
8.539935e-08
-3.787326e-09
-1.731348e-07
1.98775e-08
1.688644e-08
4.316707e-08
-1.609527e-07
-5.212007e-07
-5.589445e-07
-6.803189e-07
-2.528752e-09
9.781785e-09
-1.943396e-07
-2.461857e-08
-1.14506e-08
-3.20994e-07
-2.803527e-08
-7.208802e-07
-1.630015e-07
-4.237388e-08
-8.235189e-07
3.191266e-08
-7.130799e-09
-1.876382e-08
1.597867e-08
-2.416916e-07
-3.405401e-07
-4.00871e-07
-4.415079e-07
-5.942002e-07
-1.298735e-09
3.350145e-09
-1.734911e-07
-7.018558e-07
-6.311893e-09
-4.71819e-08
3.034188e-08
5.91442e-10
-4.677779e-08
-3.539111e-08
6.17364e-08
-7.011489e-07
-1.199623e-07
8.434628e-09
-4.437121e-08
-2.634594e-07
-1.798789e-07
-4.980851e-07
-1.666013e-07
-5.705372e-08
-1.537394e-07
-3.838072e-07
5.185509e-07
-4.46667e-07
-1.216702e-07
5.155119e-07
1.56035e-07
-6.875795e-09
8.131699e-08
-2.676379e-07
-2.112375e-07
-2.327558e-07
-4.271342e-07
-4.938552e-07
-4.878291e-07
-8.050052e-08
-7.070619e-08
2.361222e-08
-5.165212e-08
2.230904e-09
-2.130964e-09
-2.38255e-08
-4.309016e-08
-1.976926e-08
-1.486809e-07
1.214521e-08
-1.084712e-08
3.580141e-08
-2.573039e-08
-9.97764e-08
-3.725448e-07
-2.27547e-07
-2.443939e-07
-2.274828e-07
-1.630828e-07
-1.78637e-07
7.092546e-09
-9.768908e-08
-2.266002e-07
-7.263005e-07
-3.849657e-07
-2.915638e-07
-2.631373e-08
-1.105073e-08
-8.831302e-08
-3.592063e-07
1.816006e-08
-1.584032e-07
-1.451746e-07
-1.311824e-07
-7.061307e-08
-3.442574e-09
-2.323433e-07
-1.117975e-07
2.552493e-08
-4.820627e-07
6.53295e-08
-2.776437e-07
-3.869709e-08
-7.94253e-07
2.965704e-07
-1.534926e-07
3.49169e-08
1.870047e-08
-4.135739e-07
-1.620364e-07
-4.59902e-07
3.661401e-08
-2.437463e-08
-1.15031e-09
-6.407086e-07
-9.651915e-08
-2.556621e-08
-9.624275e-11
-2.86394e-08
-3.00321e-08
-1.640225e-08
-6.914298e-09
2.244103e-08
1.958652e-08
1.59976e-07
-5.618606e-07
-5.019367e-07
1.993453e-08
5.509341e-08
-2.745255e-07
-3.535079e-08
-7.54275e-09
-1.857792e-08
1.100449e-07
-8.680865e-08
-3.756902e-09
-8.49726e-08
6.112651e-08
-6.957829e-07
-3.15518e-07
-2.64622e-08
-4.070995e-07
-1.226598e-08
4.575516e-08
-1.030892e-07
3.913884e-07
-1.088213e-07
-5.057698e-07
-3.21485e-07
-2.170615e-07
-3.379977e-07
-2.048083e-07
-1.711152e-07
8.785335e-08
2.243283e-08
-1.229079e-07
1.167091e-07
1.505283e-08
-2.175111e-07
-1.292931e-07
4.774147e-08
-6.301516e-08
1.475063e-08
-1.545158e-07
-1.658345e-07
-5.939919e-08
-1.87476e-07
-8.1509e-08
2.109367e-08
3.754408e-07
-2.729677e-07
3.118725e-08
-2.744976e-08
-5.268428e-07
2.065238e-08
2.153877e-08
3.295532e-08
-4.708285e-07
-1.980909e-07
-2.002092e-07
-1.974446e-07
-5.351088e-07
1.449775e-08
-2.260014e-08
-1.758331e-09
-3.873392e-07
-3.822694e-07
-1.403089e-07
-4.660814e-07
-4.363494e-07
-4.455368e-07
-1.033399e-08
-8.723655e-07
3.925415e-08
-5.165523e-09
3.651903e-08
-4.06499e-08
-5.518341e-07
-1.820272e-07
1.458999e-08
1.597863e-08
-1.792324e-07
-6.091116e-08
2.92908e-08
-2.01295e-08
3.620238e-10
-4.413523e-07
-7.864433e-08
-1.915878e-07
-5.379914e-08
-4.357505e-08
-1.732549e-08
-2.710039e-07
9.553912e-08
9.312788e-09
-7.419302e-07
2.439188e-08
-1.093859e-08
5.039273e-08
-2.69328e-08
-1.051129e-07
-9.088807e-08
5.677263e-08
-1.634576e-07
-1.051892e-07
-8.203692e-08
-1.396526e-07
-6.321212e-08
-2.705598e-07
1.768071e-08
-2.629166e-07
4.528077e-08
-1.042302e-07
-1.944941e-07
1.493801e-10
-4.550347e-07
-2.682142e-07
-2.508871e-07
-1.136811e-07
-1.314685e-07
-3.106784e-07
-3.093212e-07
-1.514527e-07
-6.521346e-08
4.343258e-08
-2.492888e-07
-1.495537e-07
1.401468e-08
-2.455278e-07
-6.089762e-07
-1.629575e-07
-1.004094e-06
-1.032839e-07
4.541588e-08
-1.617343e-08
-3.664953e-08
-6.661295e-08
-2.641539e-08
-6.153467e-08
-6.180759e-08
2.344147e-07
-3.816887e-07
-1.343964e-07
-4.545615e-07
-4.810882e-09
-3.854812e-08
-5.237464e-09
1.652406e-08
-1.349545e-08
-6.489239e-08
5.540388e-08
9.227241e-09
-2.671305e-08
-3.75352e-08
-2.682514e-07
-4.031305e-07
-3.555026e-07
1.536719e-09
2.077954e-08
-3.379901e-08
-3.008628e-08
-6.14261e-08
2.793418e-09
-2.630363e-08
1.880597e-09
4.374367e-09
-2.748965e-08
2.113614e-08
-2.375168e-07
-5.355565e-08
-1.278901e-08
-4.619298e-07
-2.284084e-07
-2.499639e-07
-2.259917e-08
-6.439417e-09
1.108797e-09
-1.154847e-08
1.672941e-08
2.958774e-08
1.306409e-08
-5.167368e-08
8.867689e-08
-2.924557e-07
-3.926589e-07
-8.778276e-07
-6.676448e-07
-4.408804e-08
-2.912388e-07
-3.561615e-07
-2.668678e-07
-1.560492e-07
-5.93937e-07
-5.182005e-07
-7.52293e-07
-6.586526e-07
-7.85584e-07
-8.38412e-07
-3.640603e-07
-3.505411e-07
-4.194726e-07
-3.913517e-07
-1.489065e-08
-4.988076e-08
5.427556e-08
-2.845891e-08
4.993389e-08
-5.704962e-07
-4.861921e-07
3.066849e-08
-2.521215e-08
-4.804502e-09
-2.824398e-08
-3.126353e-07
1.963663e-08
-2.391854e-08
2.124158e-08
-5.870465e-08
-1.250026e-08
-3.961321e-07
-2.302579e-07
1.218875e-09
-9.050289e-08
-2.98474e-07
-4.356561e-07
-2.531415e-07
-3.585144e-07
-1.766565e-07
1.851351e-08
-1.410915e-08
-3.043666e-07
-2.333254e-07
8.992892e-08
-2.155052e-07
2.327865e-08
-3.199971e-09
-2.158814e-07
1.780282e-07
4.205764e-08
3.59675e-08
-8.25742e-07
-3.737423e-08
1.105063e-08
4.743447e-08
9.199345e-08
-8.902041e-09
-3.447091e-07
2.547893e-08
-9.345822e-07
-8.339068e-08
4.340174e-08
3.586234e-07
-5.775794e-08
-7.485126e-08
-1.75051e-07
-2.364988e-07
-3.357567e-07
-3.075038e-07
3.527326e-08
-3.243185e-07
-1.610922e-07
-7.584381e-07
1.018112e-08
-1.764815e-08
-1.734621e-07
-5.051714e-07
-3.690662e-07
-3.833986e-07
-4.408818e-07
2.641664e-08
-7.943608e-09
1.381393e-08
-4.666751e-07
1.190584e-07
-6.488133e-10
2.960635e-08
-1.590524e-07
-2.222897e-07
-4.111092e-07
-4.686356e-08
-6.716189e-07
-6.394366e-07
-8.268535e-08
-1.002694e-06
-3.044597e-07
-3.847106e-07
-2.928871e-08
-4.567702e-07
-7.246206e-07
-2.643189e-07
-3.893988e-09
-1.322731e-07
-2.297057e-08
-1.21902e-07
-2.978665e-07
-2.874632e-07
-3.368345e-07
-3.065589e-07
3.69549e-08
-3.802962e-07
-2.42107e-07
-2.213344e-07
-3.382208e-07
-1.719453e-07
-2.566164e-07
-3.34202e-08
-1.451643e-07
-6.517873e-08
-3.61049e-08
-5.488473e-08
-3.024287e-08
2.172736e-08
1.073035e-08
-1.403746e-07
-3.184776e-07
1.883854e-08
-1.837523e-07
2.380244e-08
-2.493983e-07
-2.636972e-07
-4.752907e-07
5.865898e-08
-3.079418e-08
-8.983122e-09
-4.411812e-08
-2.048395e-08
-6.153594e-07
-5.926085e-08
6.96505e-08
-1.302713e-08
6.960679e-08
-2.570998e-07
-2.847485e-07
-1.200256e-07
-2.821213e-07
-1.730772e-08
2.84738e-08
-4.048532e-07
-4.750061e-07
-7.292544e-08
-1.904013e-08
-2.737194e-08
-5.957624e-09
-4.008418e-08
-3.461009e-07
-8.048465e-07
-1.092306e-07
-4.435673e-08
-2.444376e-08
-6.407192e-09
-4.424058e-07
-5.437909e-07
-4.256048e-07
-5.042768e-07
-5.687066e-07
-5.774574e-07
-3.246308e-07
-5.535651e-07
-4.745454e-07
-6.735675e-07
-4.044555e-07
-1.242217e-07
-5.410066e-08
-1.178687e-07
2.146257e-07
1.025944e-07
-3.300156e-07
-2.689e-07
-2.056128e-07
-6.89415e-07
2.288334e-08
-2.520786e-07
-2.405212e-07
-2.252574e-07
-7.362011e-07
-3.512895e-07
2.310936e-08
3.193438e-08
-2.168601e-09
-3.852678e-08
-4.663663e-09
3.263957e-08
-4.196557e-08
-2.791111e-07
-3.733201e-08
-5.610076e-08
-5.067204e-08
-4.281299e-08
-2.478064e-08
-1.487614e-07
-1.891909e-07
-9.508928e-08
-9.518759e-08
-1.090409e-07
-6.309011e-08
-7.753685e-08
-4.643927e-07
-4.440081e-07
-1.984947e-07
-3.27137e-07
-9.844382e-08
7.188382e-08
1.044832e-07
-7.896607e-07
3.511176e-08
-1.16837e-07
-3.8251e-07
-3.01871e-07
-2.179037e-07
-2.736769e-07
-1.703069e-07
-9.730015e-09
-3.292101e-08
-4.266215e-07
-1.145946e-07
-1.256934e-07
-9.740814e-08
4.433301e-07
-1.04784e-08
-3.599885e-08
-5.480796e-08
-3.936438e-09
-1.569599e-08
-1.658742e-07
-1.509519e-07
-1.897042e-07
-9.290904e-07
-4.975527e-09
-1.084083e-07
-1.287908e-07
-1.055033e-07
-6.286376e-07
1.120038e-07
-3.996335e-07
-5.152002e-08
-4.946945e-07
-2.898539e-07
-1.862715e-07
-3.979617e-09
-1.405292e-07
-5.66872e-08
-2.424126e-07
-2.217284e-07
-2.700112e-07
-2.957206e-07
2.986233e-08
-4.279372e-07
-3.930076e-07
-5.280755e-07
-8.439786e-08
-1.4202e-07
-1.947754e-07
-1.389513e-07
-2.477897e-07
-2.912679e-08
-8.71876e-08
-1.888528e-07
2.412055e-07
-2.248531e-07
4.337879e-08
3.576894e-08
5.925106e-08
-3.605183e-10
6.959968e-09
-1.806415e-07
-1.31429e-07
1.258161e-08
-1.098723e-07
-1.112602e-07
-7.296203e-08
1.82261e-08
7.689875e-08
4.391197e-08
1.767384e-07
-5.637671e-07
-2.344597e-08
6.190203e-08
2.900024e-08
-5.066629e-09
-4.921331e-07
-3.293488e-07
-1.622205e-07
8.258075e-08
-5.454527e-08
-2.796661e-08
1.70975e-09
7.068975e-09
3.536112e-08
4.020228e-08
-8.922095e-07
-9.102008e-07
-6.168464e-07
-7.249962e-07
-6.602568e-07
-7.234497e-07
-8.344334e-07
1.164073e-07
-1.9321e-08
-3.491734e-07
1.836216e-07
-3.247276e-08
-3.425859e-07
-3.872011e-07
-3.803102e-08
-2.449044e-07
-1.642271e-07
-2.175723e-07
-2.612159e-07
-2.60482e-07
-2.342152e-07
3.553429e-08
-1.167922e-08
-1.533378e-08
-7.233972e-07
-1.311478e-07
-2.44068e-07
-1.790007e-07
-1.498965e-07
-2.367464e-07
-5.477752e-07
-5.811986e-07
7.606385e-09
2.976252e-08
9.843312e-10
-1.859238e-07
-1.677712e-07
-1.936906e-07
-1.861967e-07
-1.162539e-07
-1.673784e-07
-9.198301e-07
-1.306945e-08
-9.418957e-08
2.642734e-09
-3.823157e-07
-2.654179e-07
-2.955331e-07
2.568114e-08
-9.291825e-08
1.212428e-08
-7.954359e-08
1.633224e-07
6.929208e-08
9.381028e-09
2.795456e-08
-1.009612e-07
-4.183039e-07
-4.112275e-07
-3.28861e-07
-3.831539e-07
-4.158766e-07
-1.720955e-07
-1.528962e-07
4.865372e-08
-8.347262e-09
-1.102369e-07
-8.732504e-08
-5.264316e-07
-7.095337e-07
-3.628198e-07
3.255963e-08
-7.790962e-08
-8.635905e-07
-1.240873e-08
4.722571e-09
-1.115339e-08
6.430058e-09
-2.65956e-07
-2.762009e-07
-8.402332e-08
-3.377749e-07
-1.233356e-07
-2.095499e-07
-2.803625e-07
-2.386509e-07
-1.893132e-07
-8.126651e-08
-7.311949e-08
1.29793e-07
-6.388233e-07
-6.072645e-07
-1.022251e-07
9.747643e-08
-6.271722e-07
-1.537241e-08
3.263525e-08
5.081114e-08
-7.650539e-08
-1.163408e-07
-2.450403e-07
2.656448e-08
-1.432724e-07
-9.278946e-08
-5.01272e-08
-7.951691e-08
-9.807314e-07
-9.922893e-07
-2.151525e-07
-1.458079e-07
-3.157036e-08
6.819011e-08
5.813466e-08
2.542971e-07
-6.159956e-07
-2.991001e-07
-8.583003e-09
-2.736488e-07
-1.903739e-08
-4.089486e-07
5.974354e-09
-2.928298e-08
-3.409323e-08
1.349073e-08
-8.507939e-07
8.15198e-09
-7.871337e-07
6.828593e-09
-7.40396e-08
-4.432199e-08
-1.492928e-07
1.611517e-07
-6.15924e-07
-7.554796e-07
-4.972152e-07
-1.713803e-07
-2.380273e-07
-4.875265e-08
-6.487764e-08
4.127428e-08
-9.530226e-08
-6.240865e-08
4.219312e-08
3.437246e-08
5.832744e-08
-1.654731e-07
-1.267748e-07
1.057709e-07
-2.81425e-07
3.851151e-08
9.200665e-08
-5.736987e-08
-1.455832e-07
-5.708083e-08
-1.93302e-08
-5.69102e-09
-1.673033e-07
-1.06298e-07
-6.106469e-07
1.4411e-07
2.315474e-07
-5.391093e-07
-8.135681e-07
1.088735e-07
-2.997822e-07
-9.952018e-08
1.679495e-08
3.548713e-08
-2.586829e-07
-2.462457e-07
-1.02068e-07
-1.167484e-07
8.133413e-08
-3.551407e-08
-5.184644e-07
1.610483e-08
-2.790265e-08
-5.468489e-07
1.705999e-07
-1.172272e-07
1.704634e-08
1.246008e-07
-7.334839e-07
-5.091719e-07
-7.250452e-07
-1.532869e-07
-6.652209e-09
-1.905697e-08
-1.1122e-07
-1.342804e-07
6.208455e-08
-7.231791e-08
-5.920352e-07
-2.294481e-07
-1.021405e-06
-1.437167e-07
8.565487e-08
-4.763268e-07
8.219461e-08
-2.432616e-07
-2.05806e-07
1.594736e-08
-9.198242e-10
2.528816e-08
3.475268e-08
-1.017221e-06
3.377197e-07
-5.004969e-07
-1.098018e-06
-1.736482e-07
1.34699e-08
-2.313561e-07
2.080528e-08
-4.764554e-07
5.173165e-08
5.3716e-08
-1.47505e-07
-4.588592e-07
-3.572408e-08
-1.425102e-07
-6.682933e-08
-1.807492e-07
-1.110454e-07
-1.825599e-07
-4.563463e-07
-3.238467e-07
-2.339457e-08
-1.570108e-08
1.802267e-08
3.611221e-08
-7.108904e-08
-3.366622e-07
-4.389449e-07
-2.692533e-07
-2.860392e-07
-3.170856e-07
-4.877747e-07
-3.931149e-08
-2.099316e-08
-1.055925e-06
-1.548956e-08
-2.928576e-08
-5.013669e-07
2.871976e-09
-2.531161e-07
-1.870237e-07
-2.591585e-07
-3.268388e-07
-1.416194e-07
-3.706014e-07
-2.993846e-08
-5.214814e-07
-1.06069e-06
3.992228e-08
-3.41484e-07
-3.113747e-07
3.361164e-08
-8.038666e-07
1.401536e-08
1.263206e-07
1.376236e-08
-1.049025e-07
4.618826e-08
-1.607376e-07
-9.684889e-08
7.628536e-08
3.277808e-09
3.943174e-08
-2.627731e-08
-1.244456e-06
-4.282573e-07
-8.386167e-08
4.836423e-08
-1.064386e-07
-1.88147e-07
1.402427e-08
-2.591922e-08
-3.59065e-07
-1.530182e-07
-8.146741e-08
-1.963311e-07
5.964848e-09
-5.02299e-08
-9.515212e-09
-3.906688e-09
3.624978e-08
-1.960869e-07
-6.563861e-07
7.509462e-08
-1.351211e-07
-2.977528e-07
-1.216931e-07
-2.114818e-09
-2.851188e-07
-2.616003e-07
-2.488263e-07
-1.904465e-07
-8.211814e-08
-4.525355e-08
-3.729302e-08
-1.64678e-08
2.917282e-07
1.47077e-09
2.862896e-07
3.033008e-07
-6.266577e-08
-1.608826e-07
-3.570907e-08
-5.27178e-09
-7.315617e-09
-1.567765e-08
-1.808679e-07
-1.465253e-07
-7.371974e-08
2.946527e-08
-2.69919e-07
-8.617836e-10
-6.352433e-08
-4.637083e-08
-2.659909e-07
-8.315792e-08
4.007832e-08
-6.875129e-07
-5.389558e-07
4.072027e-08
7.401587e-08
-3.651741e-07
-4.500622e-07
-4.952199e-07
-8.338316e-07
-1.358611e-07
1.011298e-08
-9.519056e-09
-3.96803e-08
-9.61316e-08
1.820153e-08
1.163111e-08
-1.934934e-08
2.15082e-09
-4.296952e-08
-1.694447e-09
-5.268915e-08
-9.56919e-08
3.316066e-08
-3.275558e-08
-1.382421e-07
-3.347956e-07
-1.21787e-07
-1.159376e-07
-7.55786e-08
2.249018e-08
-1.510377e-07
-8.309126e-07
2.446641e-09
1.859183e-08
-3.616046e-09
-1.354639e-07
1.819735e-07
-5.1516e-07
-4.569292e-07
1.350481e-08
1.8709e-08
6.166575e-09
-5.171268e-08
2.42924e-08
-4.424964e-09
-4.814181e-07
4.406163e-08
-5.329973e-09
-4.369156e-08
-1.462483e-07
-1.314066e-07
-8.841948e-08
-6.643128e-08
-6.356342e-08
-6.151578e-08
-3.071043e-09
5.495723e-09
-1.680184e-08
4.528075e-08
2.044811e-08
8.531288e-08
1.909025e-08
4.779403e-09
-1.617968e-10
-1.969933e-08
-1.624699e-08
-2.660673e-08
-2.018963e-07
-6.764767e-08
-6.163522e-07
-2.058066e-08
6.841952e-08
-5.304195e-07
-2.560664e-07
-1.57623e-07
8.094036e-08
7.026007e-08
-2.856809e-07
-3.417068e-07
6.6135e-07
-1.119397e-07
4.96613e-09
-2.396078e-09
-2.07727e-07
-2.451407e-09
4.714564e-09
-1.540456e-08
-7.639149e-08
-3.74898e-07
-3.543788e-07
-1.708713e-07
-5.881109e-07
-3.01979e-07
-4.314774e-07
1.487788e-07
4.894796e-07
-9.871274e-08
-8.435489e-08
-1.107203e-06
-4.521338e-09
-3.854784e-08
-1.716892e-07
-1.109304e-07
-3.076841e-08
3.297082e-08
5.63519e-08
-8.383679e-09
-1.393728e-08
3.543417e-08
-4.005689e-07
-4.153844e-07
-5.660628e-07
5.974064e-08
6.406758e-08
6.382367e-08
3.29439e-08
3.103047e-08
2.063724e-08
-2.150262e-07
-3.247172e-07
-3.579053e-07
-4.102846e-07
7.771136e-08
1.48966e-07
-2.053314e-07
-9.750183e-08
-3.271234e-08
-6.512706e-08
1.2794e-08
-4.301095e-08
-3.895222e-08
2.930699e-08
-2.530886e-08
-9.434359e-08
-4.128641e-08
-6.791623e-08
-8.066715e-08
9.900992e-08
4.017512e-08
-1.845938e-07
4.547174e-08
-9.573833e-09
-1.41012e-08
-9.96593e-09
1.049641e-08
-1.089131e-06
-8.675445e-07
8.570579e-09
-2.915956e-07
-2.421488e-07
6.501145e-08
6.653687e-08
-1.095794e-07
-1.756807e-07
-7.379956e-08
-1.763508e-07
4.92176e-08
-1.325074e-07
-4.26838e-07
-3.157525e-07
-3.247925e-07
4.662147e-09
8.012577e-09
-1.586603e-07
-9.820911e-08
5.792915e-08
6.209621e-08
-2.429674e-07
3.647609e-08
2.801728e-08
-6.462893e-08
6.604414e-09
-5.544471e-08
-5.851476e-07
-2.602513e-08
-4.424795e-08
-2.302843e-08
3.309382e-09
-2.242639e-07
-2.214145e-07
-2.250521e-07
-1.416936e-07
-1.555158e-07
-4.820369e-07
7.523579e-08
-1.017462e-08
4.143114e-08
-5.571825e-08
-5.027674e-08
-4.185554e-08
-6.069689e-08
-9.174161e-08
-1.203059e-07
-1.023234e-07
-9.461679e-08
-6.579791e-08
-8.835493e-08
-8.854349e-08
-7.161288e-08
-8.592413e-08
-5.065078e-08
-9.743587e-08
-5.520431e-08
-8.835644e-08
-4.884157e-08
-8.269852e-08
-7.334373e-08
-3.568704e-08
-6.667515e-08
-8.27527e-08
-1.064029e-07
-8.604764e-08
-1.356707e-07
-8.727636e-07
-4.768198e-07
-7.427187e-07
5.013423e-11
-3.139642e-07
1.271321e-08
-1.059617e-07
-1.241095e-08
1.121543e-07
2.624894e-07
2.775137e-07
-1.865226e-07
2.669471e-07
9.004008e-08
1.97995e-08
2.401052e-08
-2.266539e-08
-6.040372e-08
-9.883574e-08
-4.695139e-08
-5.083919e-08
-1.059039e-07
-1.034914e-07
-8.220228e-08
3.434636e-08
2.733012e-08
6.665238e-08
2.633591e-08
8.301916e-08
1.320225e-07
-3.56833e-07
-3.289942e-07
-7.697477e-07
-7.34962e-07
-7.322276e-07
2.942464e-08
-5.835455e-07
6.517606e-08
-6.231945e-07
-3.360314e-07
-5.064471e-07
-3.865365e-07
-3.901741e-07
-3.563564e-07
9.124056e-09
-3.355898e-09
-3.91518e-07
-7.108912e-07
-6.53906e-07
-3.661607e-07
-7.054458e-07
-6.74661e-07
-7.860852e-07
-7.554001e-07
-5.850668e-07
-5.21882e-09
-1.018863e-07
-7.320005e-07
-2.824764e-07
-1.067092e-07
-6.716071e-07
-3.625727e-07
-6.484683e-07
-8.699318e-07
2.287169e-07
8.362742e-08
-2.175095e-07
-1.893548e-07
-1.747793e-07
-2.345677e-07
-4.590711e-08
-7.138771e-07
-5.761767e-07
-3.937712e-07
-5.824072e-08
-3.906764e-08
-4.169362e-08
-3.987285e-08
8.104038e-08
-7.887884e-09
-4.799367e-07
-3.759392e-07
-5.490656e-07
-1.528255e-07
-6.498193e-08
2.482077e-08
1.017452e-07
8.637092e-08
-3.297884e-08
-5.760064e-08
-1.121392e-07
-1.854302e-07
-2.091946e-07
-2.154047e-07
1.768077e-07
-2.127412e-08
-6.798986e-09
-3.444293e-08
-8.360589e-08
-7.495737e-08
5.275656e-08
-2.624596e-08
-6.937559e-10
3.829635e-08
-1.230444e-07
-3.801741e-08
-9.70516e-08
-9.175608e-08
-4.184628e-08
5.358605e-08
-3.116532e-07
9.45803e-08
-2.336805e-07
-2.629002e-08
4.105507e-08
-5.731747e-07
3.46143e-07
-6.152618e-08
-1.048398e-08
-3.203771e-08
1.094807e-07
-8.785572e-08
-7.925587e-09
9.727029e-09
1.57358e-11
4.330915e-09
5.108084e-09
9.539909e-09
6.41717e-08
-2.032158e-07
-2.036475e-08
-2.680009e-08
-1.998625e-08
4.006702e-07
-6.188053e-07
-1.849385e-09
-1.539287e-08
7.192979e-09
2.216663e-08
2.076824e-08
2.279653e-08
4.486742e-08
-6.607104e-07
-6.155471e-07
4.091266e-08
4.620626e-08
-9.104094e-08
-1.083057e-07
-2.377656e-08
-5.63352e-08
5.326788e-08
-6.722086e-07
-7.374774e-07
-5.990352e-07
-7.116798e-08
-5.537331e-07
-1.847439e-07
-1.030944e-07
-1.558002e-07
-9.370433e-08
-6.816574e-08
-5.906638e-08
-8.256476e-08
-7.063617e-08
-8.555164e-08
-9.676372e-08
-4.598055e-08
-6.33097e-08
-5.587181e-08
-7.459903e-08
-3.123327e-08
-5.157962e-08
-1.31159e-07
-5.308164e-08
-1.158774e-07
-1.241285e-07
-1.335025e-07
-5.944965e-08
-5.696977e-08
-5.399129e-08
-3.386198e-08
-9.656299e-08
-9.552209e-08
-1.122579e-07
-1.027363e-07
-5.45491e-08
-5.482929e-08
-7.876865e-08
-8.413698e-08
-2.398926e-07
-1.408428e-07
-6.833834e-08
-7.862474e-08
-6.814777e-08
-5.298953e-08
-3.258558e-08
1.630644e-08
-9.255084e-08
-6.948942e-08
6.651842e-08
-1.100343e-08
-1.720893e-08
-1.096354e-07
-7.210005e-08
-1.519193e-08
-4.213365e-07
-4.209029e-07
-7.527595e-07
-2.256577e-07
-3.867748e-07
-1.002448e-07
-4.888333e-08
-4.699233e-07
-2.075207e-07
-2.267398e-07
3.064538e-08
-8.912877e-09
-2.399376e-08
4.212586e-08
-4.225396e-08
-4.526695e-08
-3.13687e-08
-5.937015e-08
-5.077341e-08
7.320564e-09
-1.023132e-07
-7.657448e-08
-4.165428e-07
-3.374129e-08
2.644048e-08
3.947715e-08
-1.277999e-07
-1.281599e-07
3.762597e-08
-2.667282e-07
-3.811835e-07
-2.025427e-07
4.875061e-09
-1.977085e-08
-4.300353e-08
-5.852604e-07
-5.239067e-07
2.026643e-08
9.949443e-08
-3.328808e-09
6.717079e-09
-9.813257e-07
-1.98593e-07
-1.991743e-07
-3.343322e-07
-5.90126e-08
-1.702196e-07
-3.781536e-07
-2.487194e-07
-1.953808e-08
-1.660289e-07
-5.431074e-07
-6.908155e-08
-1.362153e-08
-3.18549e-07
-1.738146e-07
9.942482e-08
-2.408455e-07
-3.131253e-07
5.721171e-08
-3.333174e-07
-6.409657e-07
-6.517216e-07
-6.072272e-07
-4.070282e-09
-1.117532e-07
-9.424338e-08
-1.317261e-07
-1.723164e-07
1.584292e-08
-7.686372e-07
-1.731313e-07
-2.680988e-07
-8.732738e-09
3.117873e-07
-8.546272e-08
-2.73105e-07
-4.624266e-07
-5.390739e-08
-2.430006e-07
-4.302121e-07
-3.393108e-08
-4.403081e-08
-3.096034e-08
2.042552e-08
1.721406e-08
3.704499e-08
7.529105e-09
2.814549e-07
3.310409e-08
-4.903004e-08
1.859446e-09
-2.120895e-07
-1.819767e-07
-2.583303e-07
-7.212701e-08
-2.7659e-08
3.431128e-08
1.073558e-07
-2.44281e-08
-2.347474e-08
-7.656453e-08
-5.455022e-08
-2.85307e-08
-6.61219e-08
-2.343395e-08
-3.471618e-08
-1.089486e-08
6.319796e-08
4.409704e-08
4.325045e-08
-3.898851e-08
-1.259833e-07
-2.729354e-07
-1.887285e-07
4.337473e-08
2.81129e-07
-1.632361e-09
-2.490116e-08
-3.665185e-08
-4.103308e-08
-2.656672e-08
-1.254314e-08
-7.478661e-07
7.220578e-08
4.875973e-08
-2.840429e-07
-2.741283e-08
-1.623197e-08
5.677785e-09
-5.300085e-07
-1.749963e-07
-9.186681e-07
-8.409719e-07
-7.554704e-07
-7.078918e-07
-2.189495e-08
1.384182e-08
-9.657121e-08
1.181925e-08
-4.090808e-07
-3.489753e-07
-3.416785e-07
-4.579774e-07
-9.794157e-09
-1.622141e-08
-8.530313e-09
-3.355708e-08
1.673067e-09
5.581927e-08
-1.600747e-08
2.202297e-08
-9.625578e-08
-1.310303e-08
-2.07234e-07
-2.789939e-07
-7.147102e-08
-1.096078e-08
-8.683636e-08
-1.312372e-08
-8.530858e-09
-2.710236e-08
7.523926e-08
6.213e-08
-2.790503e-07
-2.366516e-07
-2.826649e-07
-5.902376e-08
-4.514792e-08
-4.469137e-08
-1.406349e-08
-4.863971e-07
-1.704533e-07
-1.557901e-07
-1.278537e-07
-4.494504e-09
-1.943175e-08
5.969003e-09
4.422293e-08
-1.907615e-07
-2.337793e-07
-2.901787e-08
-1.927789e-08
-2.46183e-07
-4.818592e-07
-1.531062e-07
-8.546722e-08
-5.788557e-07
2.687536e-08
-4.053764e-08
-1.59072e-08
-3.965543e-08
-7.980687e-08
-4.821285e-10
-4.938718e-08
-2.525439e-08
-1.631064e-08
1.154276e-09
-2.630884e-07
-4.655783e-09
1.767754e-09
-3.341037e-07
-3.502866e-07
-1.180747e-08
-1.503425e-08
-6.913488e-07
-1.393263e-07
-1.172884e-07
-9.870254e-07
-8.459748e-07
-6.785048e-07
-6.374875e-07
-4.087956e-07
-3.912093e-07
-3.696776e-07
-3.302268e-07
-2.862214e-07
-2.854387e-07
-3.817061e-07
-4.046538e-07
-8.425278e-07
-8.133402e-07
-6.497732e-07
-6.441744e-07
-7.051513e-07
-7.358393e-07
-7.237876e-07
-6.326995e-07
-1.718548e-07
-2.92048e-07
-3.03379e-07
-2.997971e-07
-1.262867e-07
-6.748938e-07
-6.892363e-07
-3.711468e-07
-3.141531e-07
-3.492603e-07
-1.679362e-07
-1.959533e-07
-1.506352e-07
-1.285954e-07
-1.47282e-07
2.209053e-08
-7.098884e-09
4.235016e-09
2.213811e-07
-3.526144e-07
-3.758312e-07
-3.593695e-08
2.868575e-08
1.650896e-08
-6.320238e-08
-5.305504e-08
-1.80583e-07
-1.081865e-07
-5.71858e-07
-5.17803e-07
-6.837145e-09
3.612095e-09
-2.86144e-09
1.085316e-08
1.23716e-08
-6.475278e-07
-2.082415e-07
-1.99735e-07
-2.811366e-07
-2.427515e-07
-2.328228e-09
-2.528237e-08
-2.252701e-08
1.648276e-09
2.142756e-09
-1.700741e-07
7.423274e-09
8.847263e-09
4.059389e-08
4.982171e-08
-2.674044e-08
-7.747192e-09
7.738896e-09
1.571921e-09
-3.715719e-08
2.064215e-08
-4.842702e-08
-4.302804e-08
5.632224e-10
-5.831299e-08
-6.945743e-08
4.107783e-09
1.141132e-08
-4.494052e-07
-2.057185e-07
1.463727e-07
-7.643638e-08
2.325257e-08
-1.860925e-08
-1.41899e-07
-1.825758e-07
-1.521124e-07
1.840293e-08
-4.149697e-07
-5.336423e-07
5.399572e-08
3.805291e-08
-9.000947e-07
-9.107458e-07
-2.438655e-07
-8.605503e-08