/*--------------------------------*- C++ -*----------------------------------*\
| =========                 |                                                 |
| \\      /  F ield         | OpenFOAM: The Open Source CFD Toolbox           |
|  \\    /   O peration     | Version:  2406                                  |
|   \\  /    A nd           | Website:  www.openfoam.com                      |
|    \\/     M anipulation  |                                                 |
\*---------------------------------------------------------------------------*/
FoamFile
{
    version     2.0;
    format      ascii;
    arch        "LSB;label=32;scalar=64";
    class       volScalarField;
    location    "0.4";
    object      p;
}
// * * * * * * * * * * * * * * * * * * * * * * * * * * * * * * * * * * * * * //

dimensions      [0 2 -2 0 0 0 0];

internalField   nonuniform List<scalar> 
4531
(
-0.0004857302
-4.340003e-05
-0.0001281402
-9.689233e-05
-7.020941e-05
-8.9376e-05
-5.33288e-05
-6.686244e-05
-6.379189e-05
-4.908745e-05
-6.219351e-05
-4.941264e-05
-5.717748e-05
-3.019298e-05
-3.914781e-05
-3.157834e-05
-3.238804e-05
-3.014639e-05
-1.729354e-05
-3.052576e-05
-5.359383e-06
-1.432945e-05
4.557379e-05
-0.0001224548
0.0005868129
-0.0009899353
-0.0002048941
-0.0003229629
-0.0002615719
-0.0002442301
-0.0002287141
-0.0002182166
-0.0002074791
-0.0001950308
-0.000192441
-0.0001851275
-0.0001806755
-0.0001758553
-0.0001731966
-0.0001693795
-0.0001668132
-0.0001646808
-0.0001626875
-0.0001612771
-0.0001599507
-0.0001584932
-0.0001580455
-0.0001568913
-0.0001566537
-0.0001564009
-0.0001565922
-0.0001569011
-0.0001576111
-0.0001583848
-0.0001597229
-0.0001607743
-0.0001630344
-0.0001646344
-0.0001665811
-0.0001701329
-0.0001721745
-0.0001763255
-0.0001806456
-0.0001868295
-0.000191665
-0.0001999146
-0.000205883
-0.000220774
-0.0002263847
-0.0002501114
-0.0002530431
-0.0003384178
-0.0001850422
-0.001002836
0.0005869793
-0.0001233169
5.424574e-05
-1.491735e-05
-7.62386e-08
-2.664999e-05
-1.590367e-05
-3.293352e-05
-2.469255e-05
-4.211494e-05
-4.302595e-05
-3.957456e-05
-5.524969e-05
-4.022753e-05
-5.667014e-05
-5.199186e-05
-7.107965e-05
-5.817003e-05
-7.221356e-05
-6.124369e-05
-8.78832e-05
-9.454657e-05
-0.0001490989
-1.271146e-05
-0.0004793517
0.0005556616
0.0001319828
0.0002089321
0.0001668782
0.0001681117
0.0001582058
0.0001490686
0.0001555676
0.0001464501
0.0001345044
0.0001548643
0.0001492454
0.0001453743
0.0001321084
0.0001487015
0.0001516533
0.0001462126
0.0001457602
0.0001469679
0.0001516814
0.0001434994
0.0001562857
0.0001479788
0.0001611959
0.0001593387
0.0001640051
0.0001678766
0.0001726974
0.0001738184
0.0001874077
0.0001917469
0.0002052608
0.0002232955
0.0002293495
0.0003326813
0.0003410711
0.0002297501
0.0002257344
0.000207174
0.000193762
0.0001894046
0.0001762988
0.0001747954
0.0001702077
0.0001662779
0.0001616087
0.0001633877
0.0001498637
0.0001582988
0.0001451573
0.0001526239
0.0001484618
0.0001453847
0.00014603
0.000151011
0.0001481409
0.0001316414
0.0001449812
0.000148753
0.0001540835
0.0001335636
0.0001452351
0.0001542161
0.0001473416
0.0001591676
0.0001673909
0.0001717677
0.0002323681
9.795633e-05
0.0005819038
0.0003443461
0.0002341821
0.0002266956
0.0002084031
0.0001943267
0.0001898336
0.0001769439
0.0001749559
0.0001703882
0.0001664435
0.0001614346
0.0001634733
0.0001500564
0.0001582201
0.0001453905
0.0001522557
0.000148517
0.0001454631
0.0001458526
0.0001507854
0.0001479903
0.0001317067
0.000144968
0.0001482421
0.0001534609
0.0001336575
0.0001448862
0.0001536446
0.000147242
0.0001587412
0.0001667651
0.0001711778
0.0002299131
9.916717e-05
0.0005562336
0.0005300903
0.000132257
0.000207308
0.0001660496
0.0001676088
0.0001576638
0.0001489007
0.0001549593
0.0001460875
0.0001345893
0.0001542383
0.0001487369
0.0001453641
0.0001321706
0.000148536
0.0001514023
0.0001460069
0.0001457996
0.0001470318
0.0001513298
0.0001437412
0.0001562277
0.0001481795
0.0001612912
0.0001591801
0.0001641821
0.0001680702
0.0001728618
0.0001744838
0.0001878529
0.000192316
0.0002064849
0.0002243131
0.0002335285
0.0003364274
0.0005402723
-0.0001023691
5.018822e-05
-1.388411e-05
-4.394083e-07
-2.641938e-05
-1.595005e-05
-3.281105e-05
-2.488577e-05
-4.183186e-05
-4.29786e-05
-3.929873e-05
-5.50331e-05
-4.018197e-05
-5.645406e-05
-5.182882e-05
-7.058619e-05
-5.777348e-05
-7.179692e-05
-6.125102e-05
-8.740932e-05
-9.315718e-05
-0.0001472046
-1.336415e-05
-0.0004549913
-0.0009456753
-0.0002311684
-0.0003211497
-0.0002637031
-0.0002449941
-0.0002292319
-0.000218553
-0.0002078829
-0.0001953552
-0.0001925488
-0.0001852746
-0.0001807948
-0.0001759362
-0.0001732394
-0.0001694364
-0.0001668514
-0.000164708
-0.0001627033
-0.0001612781
-0.0001599548
-0.0001584998
-0.0001580415
-0.000156896
-0.0001566592
-0.0001564072
-0.0001565993
-0.0001569079
-0.0001576176
-0.0001583947
-0.0001597322
-0.0001607957
-0.0001630443
-0.000164653
-0.0001666234
-0.0001701648
-0.0001722525
-0.0001764436
-0.000180795
-0.0001869693
-0.0001918587
-0.0002001329
-0.000206268
-0.0002210852
-0.0002270406
-0.0002506124
-0.0002556371
-0.0003358576
-0.0002117867
-0.0009596335
-0.0004604162
-4.348786e-05
-0.0001265952
-9.608603e-05
-6.983788e-05
-8.858589e-05
-5.32155e-05
-6.643847e-05
-6.327585e-05
-4.908896e-05
-6.200599e-05
-4.914439e-05
-5.69091e-05
-3.015971e-05
-3.925063e-05
-3.139201e-05
-3.228304e-05
-3.009593e-05
-1.770119e-05
-3.028894e-05
-5.419671e-06
-1.348179e-05
4.176135e-05
-0.0001010989
0.0005405701
-0.0004295479
-4.275878e-05
-0.0001240204
-9.507356e-05
-6.913345e-05
-8.759408e-05
-5.294539e-05
-6.585784e-05
-6.262236e-05
-4.904217e-05
-6.177436e-05
-4.876894e-05
-5.662261e-05
-3.006923e-05
-3.939775e-05
-3.114961e-05
-3.216439e-05
-3.008259e-05
-1.819506e-05
-3.009415e-05
-5.537523e-06
-1.26778e-05
3.791157e-05
-7.938557e-05
0.0004870133
-0.0008919461
-0.0002585981
-0.0003197681
-0.0002661124
-0.0002458884
-0.0002298191
-0.000218928
-0.0002083497
-0.0001957242
-0.000192677
-0.0001854404
-0.0001809316
-0.000176026
-0.0001732857
-0.0001694994
-0.0001668932
-0.0001647388
-0.0001627188
-0.0001612762
-0.0001599572
-0.0001585048
-0.0001580356
-0.0001568995
-0.0001566647
-0.0001564139
-0.000156607
-0.0001569151
-0.0001576243
-0.0001584053
-0.0001597418
-0.0001608182
-0.0001630537
-0.0001646717
-0.0001666685
-0.0001702013
-0.0001723415
-0.0001765817
-0.0001809683
-0.0001871306
-0.0001920783
-0.0002003836
-0.0002067024
-0.0002214473
-0.000227777
-0.0002512251
-0.0002585401
-0.00033368
-0.0002397602
-0.0009070866
0.0004862463
-8.117512e-05
4.60384e-05
-1.288029e-05
-9.247535e-07
-2.624336e-05
-1.600987e-05
-3.271872e-05
-2.509945e-05
-4.15314e-05
-4.292848e-05
-3.894476e-05
-5.475889e-05
-4.006778e-05
-5.619602e-05
-5.156038e-05
-6.997028e-05
-5.721976e-05
-7.120985e-05
-6.114662e-05
-8.657636e-05
-9.158308e-05
-0.0001442754
-1.329198e-05
-0.0004250807
0.0004987429
0.0001317
0.0002048997
0.0001647491
0.0001669794
0.0001568575
0.0001485961
0.0001541794
0.0001455778
0.0001346052
0.0001534384
0.0001480833
0.0001453318
0.0001321787
0.0001483191
0.0001510974
0.0001457355
0.0001458309
0.0001471002
0.0001509026
0.0001440044
0.0001561685
0.0001484013
0.0001614036
0.0001589766
0.0001643988
0.0001683027
0.0001730955
0.0001752891
0.0001884125
0.0001930399
0.000207985
0.0002255718
0.000238724
0.0003382961
0.0003456588
0.0002396376
0.0002278971
0.000209906
0.0001950445
0.0001903726
0.0001777234
0.0001751825
0.0001706039
0.0001666447
0.0001612102
0.0001635716
0.0001502662
0.0001581342
0.00014564
0.0001518038
0.0001485761
0.0001455422
0.0001456196
0.000150514
0.0001477934
0.0001317196
0.0001449327
0.000147586
0.0001526657
0.0001336859
0.0001443956
0.0001529127
0.0001470256
0.0001580579
0.0001660481
0.0001700294
0.0002266049
9.963962e-05
0.00052481
0.0003435945
0.000245681
0.0002291938
0.0002115519
0.0001958871
0.0001909759
0.0001786007
0.0001754837
0.0001708533
0.0001668649
0.0001609702
0.0001636407
0.0001505097
0.0001580444
0.0001458781
0.0001513026
0.0001486529
0.000145601
0.000145339
0.0001502501
0.0001475692
0.0001316409
0.0001448461
0.0001469028
0.0001518063
0.0001336037
0.0001437792
0.0001520821
0.0001467216
0.000157155
0.0001652556
0.0001686306
0.0002220027
0.0001009411
0.0004890746
0.0004633172
0.0001320368
0.0002012101
0.0001632239
0.0001661831
0.0001558834
0.0001481918
0.0001533001
0.000144938
0.0001345084
0.000152573
0.0001474015
0.000145247
0.0001320936
0.0001480729
0.0001507956
0.0001454133
0.0001458392
0.0001471844
0.0001504292
0.0001442594
0.0001561072
0.00014866
0.0001614895
0.0001587603
0.0001646364
0.0001685717
0.0001734063
0.0001761952
0.0001890385
0.0001938913
0.0002096279
0.0002269305
0.0002445169
0.000336859
0.000427235
-6.079457e-05
4.133625e-05
-1.167851e-05
-1.59714e-06
-2.61225e-05
-1.610114e-05
-3.2615e-05
-2.533892e-05
-4.124866e-05
-4.287254e-05
-3.85116e-05
-5.449727e-05
-3.99069e-05
-5.584021e-05
-5.128051e-05
-6.927996e-05
-5.654196e-05
-7.051281e-05
-6.09191e-05
-8.533126e-05
-9.027834e-05
-0.0001396804
-1.406466e-05
-0.000390986
-0.0008298745
-0.0002856391
-0.0003181874
-0.0002688235
-0.0002468419
-0.000230448
-0.0002193423
-0.000208854
-0.0001961072
-0.0001928161
-0.0001856243
-0.0001810747
-0.0001761207
-0.0001733343
-0.0001695648
-0.0001669339
-0.0001647705
-0.0001627319
-0.0001612718
-0.0001599566
-0.0001585067
-0.0001580272
-0.0001568999
-0.000156667
-0.0001564186
-0.0001566126
-0.0001569205
-0.0001576289
-0.0001584146
-0.0001597491
-0.0001608391
-0.0001630625
-0.0001646885
-0.0001667123
-0.0001702405
-0.0001724357
-0.0001767275
-0.0001811567
-0.0001873046
-0.0001923175
-0.0002006473
-0.000207172
-0.0002218345
-0.0002285724
-0.0002518625
-0.0002617692
-0.0003312483
-0.0002673961
-0.0008461897
-0.0003945507
-4.289914e-05
-0.0001200659
-9.411363e-05
-6.818517e-05
-8.644597e-05
-5.253075e-05
-6.520282e-05
-6.186865e-05
-4.890893e-05
-6.151677e-05
-4.842899e-05
-5.631437e-05
-2.993639e-05
-3.950282e-05
-3.087048e-05
-3.206873e-05
-3.010856e-05
-1.87909e-05
-2.993566e-05
-5.796336e-06
-1.166611e-05
3.358452e-05
-5.833276e-05
0.0004282633
-0.0003545484
-4.411655e-05
-0.0001144559
-9.333122e-05
-6.733793e-05
-8.485677e-05
-5.199633e-05
-6.46813e-05
-6.072775e-05
-4.85225e-05
-6.130273e-05
-4.843257e-05
-5.579447e-05
-2.994551e-05
-3.931216e-05
-3.044868e-05
-3.203451e-05
-3.030382e-05
-1.977588e-05
-2.965025e-05
-6.385513e-06
-1.011977e-05
2.877562e-05
-3.830534e-05
0.0003629866
-0.0007575801
-0.0003115471
-0.0003165797
-0.0002719479
-0.0002479144
-0.0002311506
-0.0002198666
-0.000209391
-0.0001965294
-0.0001929518
-0.0001858342
-0.0001812312
-0.000176227
-0.0001733902
-0.0001696377
-0.0001669738
-0.0001648042
-0.0001627436
-0.0001612654
-0.0001599529
-0.000158508
-0.0001580143
-0.000156896
-0.0001566643
-0.0001564197
-0.0001566153
-0.0001569221
-0.0001576294
-0.0001584196
-0.0001597561
-0.0001608606
-0.0001630723
-0.0001647043
-0.0001667532
-0.0001702794
-0.0001725487
-0.0001768915
-0.0001813736
-0.0001875008
-0.0001925926
-0.0002009353
-0.0002076923
-0.00022223
-0.0002294777
-0.0002525207
-0.000265422
-0.0003285317
-0.0002939502
-0.0007752432
0.0003625234
-4.20728e-05
3.585164e-05
-9.925126e-06
-2.740763e-06
-2.604757e-05
-1.618458e-05
-3.219321e-05
-2.591429e-05
-4.092386e-05
-4.267524e-05
-3.772999e-05
-5.447807e-05
-3.973614e-05
-5.502622e-05
-5.135561e-05
-6.843015e-05
-5.547428e-05
-7.001325e-05
-6.068326e-05
-8.369759e-05
-8.931439e-05
-0.0001331164
-1.616585e-05
-0.0003519822
0.0004233244
0.0001339208
0.0001958688
0.0001614488
0.0001651374
0.000154813
0.0001479042
0.0001521551
0.0001440872
0.0001342736
0.00015175
0.0001467328
0.0001451108
0.0001318907
0.0001477967
0.0001504991
0.0001449861
0.0001458268
0.0001472789
0.0001498603
0.0001445474
0.0001561187
0.0001491361
0.0001613972
0.0001584641
0.0001648909
0.0001689248
0.0001739095
0.0001773445
0.0001896118
0.0001948611
0.0002113416
0.0002286228
0.0002506622
0.0003314289
0.0003374488
0.0002520618
0.0002308174
0.000213269
0.0001968449
0.0001915244
0.000179717
0.0001759748
0.0001711831
0.0001671002
0.0001606474
0.0001635287
0.000150968
0.0001580272
0.0001461485
0.0001507119
0.0001487443
0.0001456361
0.000144951
0.0001499942
0.0001473152
0.0001314459
0.0001447095
0.0001462341
0.0001509915
0.0001333867
0.0001429579
0.0001509787
0.0001465497
0.0001561337
0.0001641588
0.0001671248
0.0002156234
0.000103656
0.0004481491
0.0003269405
0.0002579432
0.0002331354
0.0002149723
0.0001979053
0.0001917954
0.0001811053
0.0001767983
0.0001716834
0.0001673621
0.0001601597
0.0001630826
0.000151824
0.0001582736
0.0001465997
0.0001499806
0.0001487311
0.0001456185
0.0001443841
0.0001498775
0.000147066
0.0001309771
0.0001445495
0.0001457523
0.000150376
0.0001329026
0.0001418325
0.000149472
0.0001467526
0.000155067
0.0001626007
0.0001657035
0.0002074812
0.0001077391
0.0004020351
0.0003777446
0.0001374099
0.0001887225
0.0001592913
0.0001638305
0.0001537364
0.0001479634
0.0001506295
0.0001429251
0.0001337668
0.0001511233
0.0001462481
0.0001449492
0.0001314136
0.0001475289
0.0001503396
0.0001443934
0.0001457695
0.0001472632
0.0001491353
0.0001450145
0.0001563896
0.0001500094
0.0001609716
0.0001580038
0.0001651735
0.0001694531
0.0001747486
0.0001787676
0.0001899106
0.0001959369
0.0002130422
0.0002310175
0.0002563414
0.0003217234
0.0002917059
-2.692045e-05
2.961738e-05
-7.269749e-06
-4.579361e-06
-2.600669e-05
-1.623604e-05
-3.082055e-05
-2.727825e-05
-4.039432e-05
-4.21908e-05
-3.625789e-05
-5.483528e-05
-3.956717e-05
-5.322409e-05
-5.23028e-05
-6.735284e-05
-5.375944e-05
-7.006689e-05
-6.059307e-05
-8.173158e-05
-8.892391e-05
-0.0001244443
-1.955118e-05
-0.0003080033
-0.0006721246
-0.0003339564
-0.0003154202
-0.0002755155
-0.0002491902
-0.0002319749
-0.000220592
-0.0002099441
-0.0001970561
-0.0001930623
-0.0001860719
-0.0001814116
-0.0001763529
-0.0001734608
-0.0001697233
-0.0001670121
-0.0001648419
-0.0001627536
-0.0001612559
-0.0001599468
-0.0001585106
-0.0001579927
-0.0001568827
-0.000156653
-0.0001564142
-0.0001566153
-0.0001569155
-0.0001576204
-0.0001584133
-0.0001597656
-0.0001608866
-0.0001630871
-0.0001647193
-0.0001667889
-0.0001703144
-0.0001727065
-0.000177095
-0.0001816431
-0.0001877367
-0.0001929237
-0.0002012682
-0.000208279
-0.0002226247
-0.0002305885
-0.0002532016
-0.0002695814
-0.0003258283
-0.0003166993
-0.0006914193
-0.0003089001
-4.594321e-05
-0.0001069004
-9.282417e-05
-6.691794e-05
-8.252523e-05
-5.137208e-05
-6.435883e-05
-5.888357e-05
-4.771095e-05
-6.123897e-05
-4.905268e-05
-5.482231e-05
-3.0279e-05
-3.85262e-05
-2.971358e-05
-3.211429e-05
-3.084225e-05
-2.138541e-05
-2.899053e-05
-7.417611e-06
-7.89015e-06
2.358965e-05
-2.08298e-05
0.0002905687
-0.0002550418
-5.039446e-05
-9.636921e-05
-9.136153e-05
-6.391278e-05
-8.121587e-05
-5.008413e-05
-6.203797e-05
-5.825821e-05
-4.736632e-05
-6.09177e-05
-4.825402e-05
-5.460998e-05
-2.932724e-05
-3.866236e-05
-2.917987e-05
-3.21926e-05
-3.096753e-05
-2.160482e-05
-2.926782e-05
-7.197367e-06
-7.895249e-06
1.617743e-05
-8.881733e-06
0.0002075518
-0.000563647
-0.0003490717
-0.0003131656
-0.0002781871
-0.0002506388
-0.0002327539
-0.0002211931
-0.0002106903
-0.000197626
-0.000193243
-0.0001863426
-0.0001815952
-0.0001764671
-0.0001735265
-0.0001697938
-0.0001670297
-0.0001648784
-0.0001627423
-0.0001612265
-0.0001599313
-0.0001584831
-0.0001579567
-0.000156845
-0.0001566205
-0.0001563951
-0.0001566016
-0.0001568938
-0.0001575904
-0.0001583959
-0.0001597541
-0.0001608945
-0.0001631016
-0.0001647135
-0.0001668244
-0.0001703796
-0.0001728493
-0.0001773063
-0.0001819509
-0.000188014
-0.0001932676
-0.0002016207
-0.0002089541
-0.0002232652
-0.0002317369
-0.0002541645
-0.0002733793
-0.000323058
-0.0003305086
-0.0005836809
0.0002062004
-1.503453e-05
2.281984e-05
-6.318883e-06
-4.918418e-06
-2.634445e-05
-1.667674e-05
-2.976092e-05
-2.749461e-05
-3.990389e-05
-4.236793e-05
-3.57647e-05
-5.361146e-05
-3.894016e-05
-5.22584e-05
-5.191985e-05
-6.666379e-05
-5.320403e-05
-6.818568e-05
-5.943958e-05
-7.906768e-05
-8.895597e-05
-0.0001151896
-2.287788e-05
-0.0002576298
0.0003204197
0.0001411245
0.0001795816
0.0001567053
0.0001620162
0.0001521647
0.000146432
0.0001500636
0.0001416722
0.0001323273
0.0001500573
0.0001463123
0.0001445543
0.0001300297
0.0001473834
0.0001508837
0.0001439126
0.0001454453
0.0001468705
0.0001485218
0.0001455406
0.0001567777
0.0001500064
0.000161276
0.0001578654
0.0001655678
0.0001701032
0.0001753769
0.0001792051
0.000190815
0.000197389
0.0002151161
0.0002336655
0.0002592179
0.0003104377
0.0003147696
0.0002609497
0.0002356856
0.0002170375
0.0001993328
0.0001926536
0.0001815241
0.0001774052
0.0001723019
0.0001677348
0.000159998
0.0001633676
0.0001518065
0.0001586467
0.000147092
0.0001493112
0.0001483369
0.0001453716
0.0001439345
0.000150484
0.000146942
0.0001296058
0.0001441637
0.0001458244
0.0001493186
0.0001314852
0.0001406074
0.0001489098
0.0001454161
0.0001533539
0.0001604216
0.0001646143
0.0001985574
0.0001115885
0.0003511629
0.000310355
0.0002564856
0.0002347191
0.0002211656
0.000201727
0.0001997153
0.0001768832
0.0001750963
0.0001721954
0.0001682972
0.0001623624
0.000169092
0.0001451427
0.0001571699
0.0001452741
0.0001500359
0.0001477628
0.0001445153
0.0001451104
0.0001524203
0.0001469344
0.0001264858
0.000142366
0.0001461681
0.0001444701
0.0001277086
0.0001404134
0.000154547
0.000133715
0.0001485065
0.0001571163
0.0001626642
0.0001894104
0.000109376
0.0002942517
0.0002403985
0.0001401407
0.00016742
0.0001537263
0.0001581484
0.0001477217
0.0001345586
0.0001555578
0.0001415128
0.0001285544
0.0001452197
0.0001466417
0.0001427224
0.0001268698
0.0001472931
0.0001526791
0.0001448678
0.0001442991
0.0001463256
0.0001496524
0.0001438491
0.0001553465
0.0001434048
0.0001670394
0.0001602631
0.0001661569
0.0001700299
0.0001731027
0.0001745453
0.0001979672
0.0001998317
0.0002192991
0.0002328419
0.0002547904
0.0003069785
8.427032e-05
1.062027e-06
1.604266e-05
-2.050821e-05
5.477543e-06
-2.918677e-05
-1.874151e-05
-4.028071e-05
-1.571587e-05
-4.23238e-05
-4.729089e-05
-4.465035e-05
-4.365523e-05
-3.601437e-05
-6.29411e-05
-3.791795e-05
-6.897951e-05
-6.138527e-05
-5.287684e-05
-5.131957e-05
-7.370087e-05
-8.597493e-05
-0.0001097043
-2.121692e-05
-0.000194395
-0.0004288469
-0.0003518555
-0.0003016912
-0.0002735101
-0.0002514777
-0.0002322226
-0.000219684
-0.0002124826
-0.0001972145
-0.0001939566
-0.0001866593
-0.0001816116
-0.0001763729
-0.00017345
-0.0001697009
-0.000166953
-0.0001648643
-0.0001626317
-0.0001611193
-0.0001598612
-0.0001582866
-0.0001579212
-0.0001567615
-0.000156539
-0.0001563523
-0.0001565225
-0.0001568611
-0.0001575366
-0.0001584219
-0.0001596009
-0.0001607568
-0.000163057
-0.0001645975
-0.0001668617
-0.0001706142
-0.0001725015
-0.0001772182
-0.0001820315
-0.0001881771
-0.0001932718
-0.0002016828
-0.0002095835
-0.0002249846
-0.0002309555
-0.0002564288
-0.000270842
-0.0003186419
-0.0003297248
-0.0004438254
-0.0001877556
-6.850175e-05
-8.040733e-05
-8.380791e-05
-4.53315e-05
-8.912815e-05
-4.530431e-05
-5.01626e-05
-6.755315e-05
-5.125362e-05
-5.828745e-05
-3.750647e-05
-6.152147e-05
-1.991858e-05
-4.756067e-05
-3.187508e-05
-3.156721e-05
-2.710287e-05
-1.234769e-05
-3.804124e-05
1.212679e-06
-2.218336e-05
5.33151e-07
-7.969782e-06
0.0001092891
-2.006038e-05
6.417841e-06
-1.110759e-05
-4.61767e-05
-0.0001116645
-3.504657e-05
-0.0001738813
-0.0001668236
-1.621659e-05
-0.0001545269
-2.285985e-05
-2.635843e-05
-9.51523e-06
-2.929675e-05
-2.766916e-05
-0.0001522038
-0.0001853078
7.534214e-05
5.640822e-05
2.616766e-05
-0.0001534559
-0.0001542638
-0.0001446261
9.998865e-05
0.0001351683
-1.189343e-05
7.175151e-06
0.0001262145
8.507191e-05
-2.336108e-05
0.0001127183
-1.539893e-05
0.0001427386
0.0001431034
-5.240055e-05
-1.160672e-05
0.0001566263
-1.434938e-05
0.0001608992
7.683597e-05
-2.284444e-05
0.0001384321
-3.025516e-06
-6.471741e-05
-2.181256e-05
-6.405256e-05
-0.0001687321
0.0001229839
-0.0001011143
-2.428372e-05
4.699945e-05
-7.973192e-05
-4.749636e-05
-3.282911e-05
6.225056e-05
-2.660593e-05
-1.933502e-05
8.687619e-05
0.0001225357
-5.00711e-05
-3.248679e-05
-4.180498e-05
-1.223026e-05
7.607436e-05
-3.093892e-05
-4.848043e-05
-0.0001447795
-2.236639e-05
-2.34846e-05
-0.0001442357
-0.0001270325
0.0001011849
-6.892903e-05
-8.19394e-06
-0.0001861641
-3.18069e-05
-0.0001556157
-4.68786e-05
-0.0001962984
-9.374096e-05
7.421969e-05
-2.795967e-05
-1.626134e-05
-9.720582e-06
-4.722114e-05
-0.0001566057
-1.604755e-05
-1.357016e-05
-4.022812e-06
-1.375568e-05
-1.260068e-05
-4.2041e-05
-1.468306e-05
-1.065828e-05
-1.571822e-05
-0.0001291411
-8.81248e-05
-4.138218e-05
-1.403133e-05
-4.400039e-05
-2.297957e-05
0.000121115
-8.324386e-06
-2.714034e-05
-6.998787e-05
-4.99685e-05
-1.836823e-05
9.91045e-05
-1.293548e-05
-5.41435e-05
-2.664796e-05
-9.849886e-05
-6.068039e-05
-4.366219e-05
-4.518616e-05
9.734749e-05
-0.0001724844
-1.789606e-05
-4.54823e-05
0.0001560491
0.0001804516
-1.319731e-05
-7.387745e-05
-1.847003e-05
-1.734785e-05
-3.306116e-05
0.0001120071
-2.820586e-05
-1.332483e-05
-3.490405e-05
-1.18113e-05
0.0001467887
-1.136259e-05
-3.252842e-05
-5.623015e-05
8.612403e-05
-3.300655e-05
-1.595577e-05
-3.630533e-05
0.0001176388
-6.896761e-05
0.0001947809
-2.197634e-05
-2.778444e-05
-1.260333e-05
-4.947845e-05
-0.0001227586
9.273776e-05
-3.14326e-05
-1.961519e-05
-2.617589e-05
-6.284887e-06
-9.608529e-06
1.377118e-05
0.0001393608
-5.139343e-05
0.0002027775
-3.314832e-05
-4.914124e-05
-2.244651e-05
0.0001549112
7.667771e-06
-6.055088e-05
4.11694e-06
-1.596264e-05
-3.859123e-05
6.27629e-05
-0.0001385978
-3.079663e-05
-4.349071e-05
-1.714271e-05
-9.322634e-05
0.0001102466
-2.853228e-05
5.308363e-05
5.781589e-05
-3.386328e-05
-0.0001014873
-4.320611e-05
-8.604369e-05
-3.4395e-05
-8.616803e-05
0.000130998
-1.415332e-05
-0.0001631564
-0.0001733693
-2.175608e-05
-6.274836e-05
0.000119076
-1.654107e-05
0.0001176388
-1.479766e-05
1.601758e-05
0.0001035075
-0.0001050041
-2.374773e-05
-1.420188e-05
0.0001370848
0.0001644961
-2.536006e-05
-2.211933e-05
-8.214667e-06
0.00011491
-1.463609e-05
-1.749934e-05
-0.0001583231
-2.584503e-05
-6.813117e-05
-4.943955e-05
-2.75382e-05
8.385527e-05
-1.291544e-05
-0.0001069981
2.25938e-05
2.394923e-05
-0.0001218786
-0.000128696
3.782713e-05
0.0001396599
-9.203429e-06
-4.955769e-05
-0.0001553913
-1.769338e-05
-3.543041e-05
-5.608273e-05
-0.0001592355
0.000123008
2.953396e-05
-0.0001187305
0.0001381717
-0.0001601291
-8.172499e-05
-0.0001843637
-0.0002049991
-4.140283e-05
-0.0001609905
-2.156233e-05
-0.0001737768
7.281312e-05
0.0001278293
8.429097e-05
-6.388639e-05
-2.636453e-05
-2.80224e-05
5.081005e-06
-4.862761e-05
-2.810591e-05
-4.152438e-05
1.634868e-06
-9.296557e-06
-0.0001388117
2.446703e-06
-2.482616e-05
8.714432e-05
-3.948873e-05
0.0002155509
-3.896398e-05
-1.684906e-05
-3.87304e-05
8.988817e-05
-3.189723e-05
-1.340151e-05
0.0001321592
-0.0001912189
-3.916457e-05
-2.375775e-05
-3.965166e-05
9.951789e-05
0.0001215028
6.529256e-05
0.0001137144
-7.68094e-05
6.673764e-06
-0.0001522177
-4.100776e-05
-3.865062e-05
0.00017778
-0.0001622623
-1.694726e-05
-0.0001511079
-9.726326e-05
-3.4781e-05
-0.0001825295
-3.135717e-05
-1.744426e-05
-1.994491e-05
0.0001270411
-1.846654e-05
-7.59339e-05
-5.590006e-07
0.0001849772
8.228546e-05
-0.0001340818
-2.950769e-05
-0.0001260344
-1.254162e-05
-3.389484e-05
-4.283461e-05
-7.847988e-05
-0.0001518513
0.0001694962
-2.431715e-05
-3.544398e-05
4.586174e-05
-2.041874e-05
-0.0001094751
-6.960788e-05
-0.0001005741
-3.955734e-05
-3.007041e-05
-2.321519e-05
0.0001273767
0.000153709
0.0001443914
-0.0001390061
-1.02399e-05
-2.291856e-05
3.280002e-06
-7.39188e-05
-4.894132e-05
-0.000150592
5.072179e-06
0.0001051694
-4.445387e-05
-1.67439e-06
-3.509074e-05
-0.0001103587
2.645755e-05
-0.0001968442
0.0001205914
-1.649272e-05
-0.0001490755
-1.411132e-05
-1.139631e-05
-1.067288e-05
-1.213759e-05
-1.555627e-05
-6.032151e-05
-4.060764e-05
-3.26168e-05
0.0001357119
-4.586241e-05
9.741554e-05
7.231217e-05
-1.387044e-05
-2.196005e-05
0.0001344818
0.0001107599
0.0001140834
0.0001009934
0.0001429526
-2.431748e-05
-3.611426e-05
-3.84462e-05
-8.293759e-05
-9.385852e-05
0.0001609168
0.0001477787
0.0001482961
0.0001636232
-6.124682e-05
-0.0001721293
-0.0001422985
-2.508463e-05
-5.506668e-05
6.460336e-05
-2.707235e-05
-2.902351e-05
-3.805755e-05
-1.937112e-05
-1.775065e-05
2.637161e-05
-4.430714e-05
-4.749905e-05
-3.907427e-05
-2.854104e-05
-3.750769e-05
0.0001864843
-5.374412e-05
-1.593214e-05
-3.33427e-05
-3.37762e-05
-1.031624e-05
-8.969495e-06
0.0001268338
-2.962716e-05
-3.329491e-05
0.0001486181
0.0001323624
-0.0001572785
0.0001252106
1.644414e-05
-1.892034e-05
-2.870768e-05
0.0001303908
-2.377035e-05
-1.140976e-05
-0.0001102182
-1.309574e-05
-1.584279e-05
-1.28664e-05
2.121526e-05
1.006101e-06
0.000135969
0.0001789844
-2.894609e-05
5.962611e-05
-1.132023e-05
-0.0001612227
-0.0001533154
-0.0001398721
0.0001327543
-1.38844e-05
-0.0001584326
-1.191578e-05
9.668932e-05
-2.788981e-05
-4.706058e-05
-2.879107e-05
-2.400549e-05
-2.346228e-05
-1.567629e-05
0.0001383635
7.827995e-05
-5.976001e-05
-3.400107e-05
-3.236758e-05
-2.044063e-05
-2.682358e-05
3.582174e-05
-2.55675e-05
-6.251582e-05
-7.832161e-05
-5.753014e-05
5.333841e-05
-0.0001536546
-3.482885e-05
-4.05445e-05
-1.951002e-05
-2.389567e-05
-3.138392e-05
-4.393283e-05
-6.964263e-05
0.0001364411
-1.344733e-05
-5.079348e-06
-3.507498e-05
-4.048977e-05
-3.257306e-05
-1.512881e-05
-6.475437e-05
0.0001529584
1.216059e-05
-3.16146e-05
-3.773553e-05
-3.27105e-05
-2.185711e-05
-1.663162e-05
-2.283558e-05
-2.683071e-05
-1.34867e-05
-6.46188e-05
-1.491012e-05
7.476861e-05
-4.121968e-05
-6.920259e-05
-2.533788e-05
-4.753903e-05
-4.453039e-05
-1.134456e-05
0.0001472068
-2.489617e-05
-1.827642e-05
-0.0001427917
0.0001555737
-0.0001528696
-0.0001532139
-1.23145e-05
-2.177883e-05
8.385821e-05
-1.333161e-05
-1.501976e-05
0.0001022049
-3.779719e-05
0.0001489635
0.0001560606
-0.0001509712
0.000111077
0.0001442444
0.0001248096
-0.0001431367
0.0001257041
-1.89192e-05
0.0001037181
-2.650458e-05
-7.198061e-05
-1.937877e-05
-3.530393e-05
0.0001208328
1.953271e-06
-2.131589e-05
-9.184414e-05
6.376615e-05
-0.0001170762
-3.092865e-05
0.0001221972
0.0001380606
-5.746391e-05
6.921826e-05
9.200694e-05
-7.648635e-05
-1.612612e-06
-2.342099e-05
-1.474062e-05
-1.387605e-05
-6.538203e-05
-3.685607e-05
3.165463e-05
0.0001828641
-2.505538e-05
-4.22091e-05
0.0001807935
0.0001220741
-2.668593e-05
8.11389e-05
-0.0001074281
-3.38392e-05
-4.883534e-05
-0.0001119125
-5.627103e-06
0.0001465
0.0001542888
0.0001475251
-7.680871e-05
-3.354552e-05
-4.099584e-05
-2.434785e-05
-2.482957e-05
-2.000189e-05
-1.623678e-05
-1.659078e-05
-1.714864e-05
-1.482603e-05
-1.258042e-05
-5.588245e-05
-0.0001593768
-0.0002317035
-8.635573e-05
5.428801e-05
-2.568344e-05
-2.738068e-05
-2.769435e-05
0.0001932992
-1.077062e-05
-2.437514e-05
-1.201944e-05
-1.011047e-05
-1.095866e-05
1.044151e-05
-0.0002001186
-7.350219e-05
-7.779803e-06
-4.955036e-05
-5.197909e-05
2.425462e-05
7.419389e-05
-5.096491e-05
-5.651756e-05
-8.883078e-05
0.0001280876
-4.067436e-05
-2.099108e-05
-1.372647e-05
-3.388907e-05
-0.0001679834
-2.922015e-05
0.0001184703
0.0001278327
-1.025306e-05
-5.766256e-05
-5.412891e-05
1.677256e-05
-7.268677e-07
-2.973925e-05
0.0001289514
-1.779519e-05
7.435561e-05
-1.210256e-05
9.08401e-05
0.0001168575
1.376059e-05
-9.792419e-07
-2.434229e-06
-0.000113486
7.227415e-05
0.0001097867
-3.150144e-05
9.896272e-05
-1.244687e-05
-2.042327e-05
-0.0001535655
3.132135e-05
-0.0001092934
-3.62867e-05
-2.04484e-05
-0.0001738749
6.294926e-05
0.000175591
-0.0001926536
-1.350518e-05
-2.282487e-05
-5.825754e-05
2.497972e-05
-3.201213e-05
-1.941121e-05
-1.826336e-05
-3.100809e-05
-0.0001520392
-8.630223e-05
-0.0001213913
-0.0001554119
-0.0001527681
-2.36438e-05
4.464796e-05
3.91861e-05
-2.297253e-06
8.876785e-05
0.0001936905
0.000109855
-1.724834e-05
-2.044938e-05
-1.230498e-05
-1.281756e-05
-1.546729e-05
-1.101877e-05
-1.664041e-05
0.0001126226
-2.422759e-05
0.0001873596
-1.03421e-05
-3.088007e-05
-3.90239e-05
8.179148e-05
-3.157495e-05
-3.201947e-05
-0.0001771701
-0.000121215
-0.0001807328
-0.00013001
8.236448e-05
-0.0002430345
-3.013341e-05
-2.844599e-05
-5.811528e-05
-3.876026e-05
-0.0001205813
-0.0001470869
-0.0001036348
9.725586e-05
-0.0001585847
-3.969713e-05
-3.655254e-05
-1.69427e-06
-3.104707e-05
0.0001108566
-4.582546e-05
-3.944965e-05
-0.0001670684
-2.311721e-05
-3.027388e-05
-0.0001027773
-3.913816e-05
-1.701555e-05
-0.0001088465
-2.225197e-05
7.32034e-05
-2.603117e-05
-2.894229e-05
-2.279768e-05
0.0001519227
-0.0001256894
-1.053008e-05
-9.861931e-06
3.431684e-05
-0.0001072955
-0.0001160397
-8.443339e-06
-3.965724e-05
7.438289e-05
-1.948935e-05
-0.0001438604
-2.578167e-05
-2.582314e-05
-5.992368e-05
-0.0001789262
-0.0001813011
0.0001248729
-4.369816e-05
-3.434538e-05
0.0001314068
-9.724519e-05
9.813403e-05
-3.917969e-05
-5.959895e-05
0.0001192341
-0.0001561886
-2.202877e-05
5.896966e-07
-2.135056e-05
-0.0001614286
-1.056905e-05
-8.833956e-06
0.0001311813
0.0001015654
0.0001149769
0.0001175511
0.0001342168
0.0001561985
-1.334832e-05
8.532324e-06
-7.311267e-06
-3.193533e-05
-3.01974e-05
-3.400352e-05
-3.108539e-05
-0.0001530836
-1.282112e-05
-1.189246e-05
-2.531905e-05
-3.207724e-05
0.0001758442
0.000164485
0.0001197129
0.0001299166
-3.29675e-05
-5.349424e-05
-2.424312e-05
-2.354247e-05
7.427939e-05
-2.357689e-05
-7.829698e-06
-3.631357e-06
-4.351813e-05
0.000118806
0.0001491539
-1.538255e-05
-1.153776e-05
3.830449e-05
-5.05857e-05
-0.0001314728
-2.370438e-05
7.582998e-05
-8.545609e-06
-3.515961e-05
-1.839317e-05
-6.868482e-05
-1.645183e-05
6.256402e-05
-0.0001337856
0.0001782815
-2.692215e-05
7.30487e-05
3.149091e-05
3.635519e-05
-0.0001552449
-4.3134e-05
-0.0001770605
6.796843e-07
-3.095052e-05
-9.282836e-05
-4.944785e-05
-1.729932e-05
-9.956086e-06
-2.574119e-05
-1.735521e-05
-2.205786e-05
4.226501e-05
8.378638e-05
-5.349636e-05
-7.775511e-05
-2.560445e-05
3.585102e-05
-6.963201e-05
-0.0001604531
-3.900461e-05
-1.446296e-05
-0.0001398803
3.65491e-05
-1.137863e-05
-3.10997e-06
-2.662767e-05
-4.117259e-05
0.0001821539
0.0001593964
0.0001781198
0.0001475949
-0.0001599676
-1.42504e-05
1.540546e-05
-4.011086e-05
-0.000119901
-1.539425e-05