/*--------------------------------*- C++ -*----------------------------------*\
| =========                 |                                                 |
| \\      /  F ield         | OpenFOAM: The Open Source CFD Toolbox           |
|  \\    /   O peration     | Version:  2406                                  |
|   \\  /    A nd           | Website:  www.openfoam.com                      |
|    \\/     M anipulation  |                                                 |
\*---------------------------------------------------------------------------*/
FoamFile
{
    version     2.0;
    format      ascii;
    arch        "LSB;label=32;scalar=64";
    class       surfaceScalarField;
    location    "1.7";
    object      phi;
}
// * * * * * * * * * * * * * * * * * * * * * * * * * * * * * * * * * * * * * //

dimensions      [0 3 -1 0 0 0 0];

oriented        oriented;

internalField   nonuniform List<scalar> 
326221
(
-0.00171215
-0.00346967
0.00518182
-0.0009301439
-0.0007820061
-0.0001993854
-0.0007307585
-0.0008909583
0.0006915728
-0.0004839508
-0.0004070074
-0.0001160776
-0.0003678732
0.0002216946
-0.0003377722
0.0007857022
-0.0005640076
0.001408693
-0.0006229911
0.001369736
3.895687e-05
0.0006116635
0.0007580729
0.0002572991
0.0003543644
0.0004625834
-0.0002052843
0.0004699444
-7.361007e-06
0.0002601605
0.0002097839
0.0003814516
-0.0001212911
0.0007919712
-0.0004105196
0.001063141
-0.00027117
0.001172451
-0.0001093101
0.0009446931
0.0002277582
0.0001232966
0.0008213965
-0.0005391773
0.0006624738
-0.0006523959
0.0001132187
-0.0007906685
0.0001382726
-0.0004079321
-0.0003827365
0.0005443916
-0.0009523236
0.001353989
-0.0008095974
0.002020027
-0.0006660376
0.002523569
-0.0005035423
0.002905154
-0.0003815852
0.003176814
-0.0002716598
0.003189066
-1.225223e-05
0.00255649
0.0006325763
0.001149147
0.001407343
0.000211678
0.0009374692
0.000193258
1.841998e-05
-0.0003814769
0.0005747349
-0.001304779
0.0009233016
-0.0008762892
-0.0004284893
0.0001353484
-0.001011638
0.0006904612
-0.0005551129
0.0005495876
0.0001408737
0.0004623176
8.727e-05
0.0004858564
-2.353882e-05
0.0007183207
-0.0002324643
0.001155617
-0.000437296
0.001570567
-0.0004149505
0.001346363
0.0002242039
0.0007663168
0.0005800465
-0.002107008
0.002873325
-0.001190051
-0.000916957
-0.0003731691
-0.0008168817
-4.735096e-05
-0.0003258181
0.0006470807
-0.0006944317
0.001061378
-0.0004142968
0.001319539
-0.0002581618
0.001484635
-0.0001650958
0.001457475
2.71606e-05
0.0009797627
0.0004777119
0.0001722113
0.0008075514
-0.000301871
0.0004740823
-0.0002860194
-1.58516e-05
2.344052e-05
-0.0003094599
0.0005048531
-0.0004814126
0.0006246084
-0.0001197553
0.0002449104
0.000379698
-0.0002121448
0.0004570553
-0.0003449622
0.0001328174
-4.791519e-05
-0.0002970471
0.0003298783
-0.0003777935
0.0006709206
-0.0003410423
0.0009270171
-0.0002560965
0.001146561
-0.0002195435
0.001338459
-0.0001918979
0.001518923
-0.0001804644
0.001688661
-0.0001697383
0.001850156
-0.0001614947
0.001991668
-0.0001415123
0.002119414
-0.0001277461
0.002266768
-0.000147353
0.002429184
-0.0001624169
0.002597777
-0.0001685924
0.002792873
-0.0001950957
0.002928381
-0.000135508
0.003109363
-0.0001809824
0.003292255
-0.0001828919
0.003474662
-0.0001824071
0.003667544
-0.0001928816
0.003867123
-0.0001995791
0.004073745
-0.0002066223
0.004282724
-0.0002089791
0.004492193
-0.0002094689
0.004694339
-0.0002021463
0.004888314
-0.0001939747
0.005068481
-0.0001801667
0.005234021
-0.00016554
0.005384142
-0.0001501212
0.005514094
-0.000129952
0.00562126
-0.0001071664
0.005702234
-8.097435e-05
0.005756717
-5.448254e-05
0.005774946
-1.822872e-05
0.005753087
2.18588e-05
0.005677622
7.546455e-05
0.005547415
0.0001302075
0.005355865
0.0001915495
0.005082307
0.0002735585
0.004683748
0.0003985593
0.004064496
0.0006192512
0.003039315
0.001025182
0.001517578
0.001521737
0.0001401925
0.001377385
-0.0001929248
0.0003331172
-0.001235381
0.001042456
-0.003728104
0.002492723
-0.004321433
0.0005933289
-0.002903976
-0.001417457
-0.001644257
-0.00125972
-0.0008623451
-0.0007819115
0.0001069791
-0.0009693242
0.00128828
-0.001181301
0.001399683
-0.0001114028
0.0001437819
0.001255901
-0.0003354088
0.0004791907
-0.0001711293
-0.0001642794
-0.000220088
4.89587e-05
-0.0003689408
0.0001488528
-0.0005943072
0.0002253664
-0.0002592243
-0.000335083
0.00043109
-0.0006903143
0.0008970199
-0.00046593
0.0005414087
0.0003556112
9.242769e-05
0.000448981
0.0002866294
-0.0001942017
0.0001805196
0.0001061098
-0.001298965
0.001479485
-0.003015743
0.001716778
-0.003477314
0.0004615704
-0.003002435
-0.0004748788
-0.002042278
-0.0009601574
-0.001091069
-0.0009512082
0.0001532535
-0.001244323
0.001225698
-0.001072445
0.002075943
-0.0008502446
0.002274321
-0.0001983778
0.001133809
0.001140512
-0.0004980377
0.001631846
-0.0002494276
-0.0002486101
0.0006219343
-0.0008713619
-0.001450528
0.002072462
-0.0007064794
-0.0007440481
0.0004015889
-0.001108068
0.0009088921
-0.0005073032
0.001370851
-0.0004619586
0.001705234
-0.0003343833
0.002028924
-0.0003236899
0.002545961
-0.0005170369
0.003046298
-0.0005003368
0.00379558
-0.0007492824
0.004398693
-0.000603113
0.004781796
-0.0003831029
0.005013461
-0.000231665
0.005105597
-9.21359e-05
0.004599453
0.0005061442
0.002855528
0.001743925
0.0002520131
0.002603515
-0.0012839
0.001535913
-0.001467183
0.000183283
-0.0009868513
-0.0004803315
0.0004432728
-0.001430124
0.0006416817
-0.000198409
-0.001030856
0.001672538
-0.001410265
0.0003794092
0.0003952908
-0.001805556
0.001963978
-0.001568687
0.002332756
-0.0003687783
0.001691787
0.0006409689
0.0009117545
0.0007800329
0.0003849598
0.0005267947
-0.0001239415
0.0005089013
-0.000591288
0.0004673465
-0.0008229197
0.0002316316
-0.001091337
0.0002684177
-0.001169487
7.814941e-05
-0.0009766713
-0.0001928154
-0.0009313192
-4.535213e-05
-0.0009542587
2.293949e-05
-0.0008261632
-0.0001280955
-0.0008451934
1.903021e-05
-0.0007357749
-0.0001094185
8.114682e-05
-0.0008169217
0.001069844
-0.0009886971
0.0009729205
9.692346e-05
0.0003248706
0.0006480499
-2.346524e-05
0.0003483359
-0.0008633735
0.0008399082
-0.0008539455
-9.427991e-06
0.002014701
-0.002868647
0.002834716
-0.0008200146
-0.006992104
0.00982682
-0.007292467
0.0003003629
-0.006248282
-0.001044184
-0.005857052
-0.0003912303
-0.005456303
-0.0004007488
-0.005157796
-0.0002985076
-0.004885407
-0.0002723882
-0.004649004
-0.0002364036
-0.00433805
-0.0003109541
-0.0041752
-0.0001628497
-0.004035196
-0.0001400042
-0.003906496
-0.0001286996
-0.003791669
-0.0001148267
-0.00368133
-0.0001103397
-0.003576536
-0.0001047933
-0.003476897
-9.963915e-05
-0.003387654
-8.924318e-05
-0.003305645
-8.200865e-05
-0.003227172
-7.847351e-05
-0.003150085
-7.708651e-05
-0.003078294
-7.17919e-05
-0.003009495
-6.879863e-05
-0.002945415
-6.407948e-05
-0.002887698
-5.771727e-05
-0.00282916
-5.853782e-05
-0.002771053
-5.810727e-05
-0.002712721
-5.833214e-05
-0.002657966
-5.475541e-05
-0.002608964
-4.900105e-05
-0.002564317
-4.46473e-05
-0.002517857
-4.646023e-05
-0.002472282
-4.557449e-05
-0.002424607
-4.767498e-05
-0.002382465
-4.214292e-05
-0.002343
-3.946464e-05
-0.002302014
-4.098557e-05
-0.002260793
-4.122093e-05
-0.002218804
-4.198945e-05
-0.002181245
-3.755858e-05
-0.002147123
-3.412271e-05
-0.00218119
3.406707e-05
-0.002162027
-1.916289e-05
-0.002136324
-2.570305e-05
-0.002110328
-2.599565e-05
-0.002087264
-2.306391e-05
-0.002063344
-2.392064e-05
-0.002041856
-2.148746e-05
-0.002022137
-1.971955e-05
-0.002003593
-1.854334e-05
-0.001982136
-2.145703e-05
-0.00196062
-2.151648e-05
-0.001942633
-1.798678e-05
-0.001926399
-1.62337e-05
-0.001911533
-1.486637e-05
-0.001890779
-2.075375e-05
-0.001864706
-2.607305e-05
-0.001838129
-2.657667e-05
-0.001809966
-2.816343e-05
-0.001775463
-3.450298e-05
-0.001739402
-3.606076e-05
-0.001697558
-4.18438e-05
-0.001650167
-4.739107e-05
-0.001596436
-5.373095e-05
-0.001532132
-6.430423e-05
-0.001440776
-9.135628e-05
-0.001324309
-0.0001164671
-0.00117615
-0.000148159
-0.0009411578
-0.000234992
-0.0005795049
-0.0003616529
-0.0003232649
-0.0002562399
-0.0005567549
0.0002334899
-0.001553872
0.0009971168
-0.0004600301
-0.001093842
0.0006665003
-0.00112653
0.001019178
-0.0003526775
0.001086339
-6.716152e-05
0.00111275
-2.641019e-05
0.001144059
-3.130913e-05
0.001165339
-2.128015e-05
0.001171578
-6.239521e-06
0.001178477
-6.898579e-06
0.001198707
-2.022963e-05
0.001218893
-2.018638e-05
0.001236911
-1.801804e-05
0.001250769
-1.385795e-05
0.001264815
-1.404567e-05
0.001278571
-1.375601e-05
0.001294358
-1.578779e-05
0.001308059
-1.370036e-05
0.001317369
-9.31044e-06
0.001327117
-9.748049e-06
0.001340143
-1.302568e-05
0.001351666
-1.152327e-05
0.001362449
-1.078315e-05
0.001376505
-1.405549e-05
0.00138805
-1.1545e-05
0.001405233
-1.718328e-05
0.001424795
-1.956193e-05
0.001438777
-1.39823e-05
0.001449229
-1.045171e-05
0.001461261
-1.203156e-05
0.001476011
-1.475069e-05
0.001484472
-8.460628e-06
0.001453123
3.134897e-05
0.001474588
-2.146526e-05
0.001501007
-2.641879e-05
0.001527186
-2.617856e-05
0.001553078
-2.589218e-05
0.001580991
-2.791313e-05
0.001606699
-2.570851e-05
0.001629357
-2.265774e-05
0.001654115
-2.475817e-05
0.00168186
-2.77452e-05
0.001712167
-3.030683e-05
0.001737845
-2.567726e-05
0.00176165
-2.380505e-05
0.001787155
-2.550559e-05
0.0018153
-2.814504e-05
0.001844055
-2.875498e-05
0.00187611
-3.205489e-05
0.001909061
-3.295124e-05
0.001941773
-3.271135e-05
0.001975311
-3.353831e-05
0.002005861
-3.054961e-05
0.002043111
-3.725027e-05
0.002081516
-3.840563e-05
0.002120724
-3.920798e-05
0.00216306
-4.233596e-05
0.002206495
-4.343472e-05
0.00225445
-4.795484e-05
0.002306664
-5.221428e-05
0.002358688
-5.202399e-05
0.002415108
-5.641981e-05
0.002479347
-6.423894e-05
0.002558898
-7.95508e-05
0.002728016
-0.000169118
0.002838168
-0.0001101518
0.002961509
-0.0001233417
0.003097236
-0.0001357267
0.00326604
-0.0001688036
0.003438645
-0.0001726053
0.003802488
-0.0003638427
0.0003328173
-0.0004939816
0.001591476
-0.002191336
0.0005878712
-0.002208383
0.001090802
-0.0008556088
0.001345299
-0.0003216577
0.001530386
-0.000211498
0.001701344
-0.0002022664
0.00184724
-0.0001671768
0.001966175
-0.0001251742
0.00207118
-0.0001119038
0.002176424
-0.0001254732
0.00227293
-0.0001166921
0.002361916
-0.0001070041
0.002441394
-9.333611e-05
0.002516278
-8.89303e-05
0.002585618
-8.30954e-05
0.00265385
-8.401968e-05
0.002718256
-7.810661e-05
0.002778226
-6.928087e-05
0.002835896
-6.74179e-05
0.00289432
-7.144963e-05
0.002950287
-6.748999e-05
0.003003971
-6.446675e-05
0.003059001
-6.908563e-05
0.003110204
-6.274842e-05
0.003164224
-7.120331e-05
0.003218608
-7.394581e-05
0.003270042
-6.541595e-05
0.003317338
-5.774855e-05
0.003365391
-6.008442e-05
0.003413539
-6.289864e-05
0.003458379
-5.330054e-05
0.003426918
6.280975e-05
0.003481772
-7.6319e-05
0.003539237
-8.388353e-05
0.003596538
-8.34798e-05
0.003653482
-8.283579e-05
0.003711061
-8.549251e-05
0.003767714
-8.236107e-05
0.003821164
-7.610831e-05
0.003876415
-8.000853e-05
0.003931763
-8.309349e-05
0.003990225
-8.876933e-05
0.004044402
-7.985385e-05
0.004098347
-7.774953e-05
0.004152019
-7.91781e-05
0.004207845
-8.39707e-05
0.004263293
-8.420353e-05
0.004321314
-9.007541e-05
0.004380229
-9.186687e-05
0.004438893
-9.137491e-05
0.004499169
-9.381476e-05
0.004556387
-8.776703e-05
0.004619328
-0.0001001919
0.004681619
-0.0001006961
0.004746277
-0.0001038663
0.004811773
-0.0001078313
0.004879571
-0.0001112331
0.004949536
-0.0001179203
0.005023825
-0.0001265025
0.005097533
-0.0001257318
0.005175544
-0.0001344314
0.005259089
-0.0001477836
0.005354858
-0.0001753195
0.005596865
-0.0004111258
0.005726203
-0.0002394896
0.005872443
-0.0002695814
0.006026472
-0.0002897559
0.006227227
-0.0003695582
0.006378691
-0.0003240691
0.006857329
-0.0008424815
0.005866809
0.001323338
-0.01105005
0.01027791
0.001072508
-0.009886601
-0.002207635
-0.009501827
-0.0007760052
-0.009069845
-0.0008327302
-0.008750625
-0.000617728
-0.00845393
-0.0005690827
-0.0082003
-0.0004900342
-0.007799066
-0.0007121879
-0.007614405
-0.0003475103
-0.007450421
-0.000303988
-0.007296125
-0.0002829961
-0.007154871
-0.0002560806
-0.007017218
-0.0002479931
-0.006886529
-0.0002354823
-0.00675935
-0.0002268181
-0.006642593
-0.0002059997
-0.006529984
-0.0001946181
-0.006422821
-0.0001856364
-0.006315899
-0.0001840085
-0.006215155
-0.0001725355
-0.006116094
-0.0001678598
-0.006021817
-0.0001583569
-0.005932187
-0.0001473467
-0.005842666
-0.0001480588
-0.005754786
-0.0001459876
-0.005666785
-0.0001463335
-0.005582663
-0.0001388768
-0.005501279
-0.0001303855
-0.005424121
-0.0001218045
-0.005343893
-0.0001266885
-0.005266305
-0.0001231627
-0.005185557
-0.0001284232
-0.005109589
-0.0001181103
-0.005033591
-0.0001154634
-0.004956741
-0.0001178349
-0.004878766
-0.0001191965
-0.004799875
-0.0001208806
-0.004723195
-0.0001142381
-0.004646965
-0.0001103529
-0.004682367
6.946867e-05
-0.004619139
-8.239067e-05
-0.004554017
-9.082503e-05
-0.004486471
-9.354098e-05
-0.004420995
-8.854031e-05
-0.00435197
-9.294555e-05
-0.004283893
-8.956493e-05
-0.004213717
-8.9895e-05
-0.004142694
-8.956631e-05
-0.004066807
-9.734476e-05
-0.003989127
-9.919582e-05
-0.00391115
-9.596404e-05
-0.003831213
-9.617059e-05
-0.003749735
-9.634443e-05
-0.003661207
-0.0001092819
-0.003567778
-0.000119502
-0.003471426
-0.0001229285
-0.003372159
-0.0001274303
-0.00326464
-0.0001420226
-0.003153664
-0.0001470368
-0.003033377
-0.0001621303
-0.002904669
-0.0001760988
-0.002765104
-0.0001932966
-0.002611128
-0.0002182799
-0.00242901
-0.0002734741
-0.002223875
-0.0003216025
-0.001998773
-0.0003732611
-0.001741645
-0.0004921192
-0.001483864
-0.0006194344
-0.001247595
-0.0004925092
-0.001102239
8.813386e-05
0.001486355
-0.001211263
0.001572653
-0.001105438
-0.0001311695
-0.002188162
0.00072007
-0.001358543
0.001502295
-0.001244183
0.001958915
-0.0007910039
0.002365447
-0.0007302213
0.003010065
-0.001161655
0.003651466
-0.001141738
0.004582517
-0.001680334
0.00540518
-0.001425776
0.006012324
-0.0009902471
0.006440814
-0.0006601553
0.006810305
-0.0004616266
0.007015355
0.0003010942
0.006312535
0.002446744
0.003142524
0.005773527
-0.0009103434
0.00558878
-0.002418983
0.001691922
-0.001720283
-0.001179031
-0.0001182738
-0.003032134
-5.510108e-05
-0.0002615817
-0.00197181
0.003589247
-0.001833484
0.0002410828
0.0006105586
-0.004249599
0.002167105
-0.003125234
0.002765493
-0.0009671664
0.002500837
0.0009056258
0.001749419
0.00153145
0.00111581
0.001160404
0.000453798
0.001170913
-0.000511927
0.001433072
-0.001301651
0.001021356
-0.001699156
0.0006659223
-0.001822333
0.000201327
-0.001664014
-0.0003511352
-0.001553881
-0.0001554847
-0.001436685
-9.425644e-05
-0.001199889
-0.0003648919
-0.001145785
-3.507317e-05
-0.0008362411
-0.0004189627
0.0002519915
-0.001905154
0.001549568
-0.002286274
0.001726732
-8.024032e-05
0.001181873
0.001192909
0.0009777495
0.0005524599
0.0006531543
0.001164503
0.001034238
-0.0003905117
0.003022964
-0.004857373
0.0008420321
0.001360918
0.02094676
-0.00166599
0.002231312
-0.001482279
-0.0007758944
-0.001706977
-0.0001178716
-0.0009838409
0.0006287647
-0.001441068
0.001195425
-0.0009809575
0.00163698
-0.0006997169
0.001958386
-0.0004865016
0.002202797
-0.0002172502
0.002119431
0.0005610775
0.001182342
0.001744641
-5.744857e-05
0.001713873
-0.0004949879
0.0004216878
-0.0001757812
-0.0006286667
0.0003813531
-0.001038547
0.0007584675
-0.0004968697
0.0002681369
0.0008700286
-0.0005410116
0.001266204
-0.0006171108
0.0002089166
-0.0001458963
-0.0007682616
0.0003537681
-0.0008774579
0.000828125
-0.0008153992
0.00120774
-0.0006357117
0.001542437
-0.0005542401
0.001844555
-0.0004940166
0.002132591
-0.0004684997
0.002408987
-0.0004461342
0.002678405
-0.0004309127
0.002927018
-0.0003901252
0.003152338
-0.0003530663
0.003382108
-0.0003771231
0.003616909
-0.0003972183
0.003856192
-0.0004078753
0.004126607
-0.0004655108
0.004329718
-0.0003386193
0.004615463
-0.0004667269
0.004902139
-0.0004695685
0.005182716
-0.0004629837
0.005466336
-0.0004765011
0.005749561
-0.0004828042
0.006035466
-0.0004925277
0.006322486
-0.0004959993
0.006611745
-0.0004987279
0.006897538
-0.0004879386
0.007180102
-0.0004765392
0.007454061
-0.0004541258
0.007718159
-0.0004296372
0.007970975
-0.0004029376
0.008207014
-0.0003659912
0.00842295
-0.0003231023
0.008614386
-0.00027241
0.00878037
-0.000220467
0.008912963
-0.0001508214
0.009019852
-8.503066e-05
0.009096332
-1.014745e-06
0.009138742
8.779728e-05
0.009140313
0.0001899785
0.009086826
0.000327045
0.008951348
0.0005340379
0.008667131
0.0009034677
0.008044124
0.001648189
0.006666679
0.002899182
0.004290056
0.003754008
0.001144748
0.003478425
-0.001956714
0.004143918
-0.003525653
0.004061662
-0.002767952
-0.0001643721
-0.001079593
-0.003105816
-9.17106e-05
-0.002247602
0.0005079006
-0.001381523
0.001100841
-0.001562265
0.002241842
-0.002322302
0.001731173
0.0003992662
-0.0001631387
0.003150212
-0.0004997026
0.0008157546
-5.488624e-05
-0.0006090958
0.0002070795
-0.000213007
-0.0001787959
0.0005347281
-0.0008977436
0.0009443141
-0.0004462814
-0.0007865451
0.0004739055
-0.001610501
0.00119666
-0.001188685
0.0009722342
0.0005800372
0.0004594956
0.0009617197
0.0002871134
-2.18196e-05
-0.00133521
0.001728433
-0.003893931
0.004038206
-0.004885516
0.002708363
-0.004455058
3.111207e-05
-0.003614539
-0.001315397
-0.002380774
-0.002193923
-0.001176273
-0.002155709
0.0002974294
-0.002718025
0.001562225
-0.002337241
0.002515343
-0.001803363
0.003104695
-0.0007877293
0.002501412
0.001743795
0.001055738
0.00307752
0.0006036574
0.0002034709
0.0008174079
-0.001085112
0.004462523
-0.0009387735
0.0119874
-0.001875776
0.0001549963
-0.001371065
-0.001235469
-0.001511617
0.0008321245
-0.0008421717
-0.001076452
-0.0003397202
-0.0008703247
0.0001066034
-0.0007840959
0.0007305869
-0.001187991
0.00163014
-0.001522544
0.002157415
-0.000488318
0.001730613
0.001184874
0.001079056
0.001005922
0.0007404942
0.0001332771
0.0002438941
0.0004892392
-3.667765e-05
0.0004903556
0.0003536266
-0.0005115954
0.0009615649
-0.001018458
0.00135866
-0.0006682652
0.001565571
-0.0003162206
0.001553182
0.0002401469
0.0007712395
0.001603339
-0.0003306175
0.001764331
-0.0009842419
0.0007668431
-0.001060188
0.0002142186
-0.0002689947
-0.00117393
0.0009248823
-0.002146201
0.001926034
-0.001810749
0.002784399
-0.001524402
0.003448201
-0.001167344
0.003979669
-0.0009130538
0.004355913
-0.0006479035
0.004625551
-0.0002818906
0.004605304
0.0006528235
0.003558209
0.002454438
0.001591956
0.002903723
1.807895e-05
0.001592297
-0.001215552
0.001808366
-0.002077413
0.001785163
-0.0012901
-0.001215803
-0.0001068279
-0.00219491
0.0005715575
-0.001233498
0.000561873
0.0001505581
0.0005341638
0.0001149792
0.0004431735
6.745153e-05
0.0007071958
-0.0004964866
0.001382384
-0.001112485
0.001978139
-0.001010706
0.001888667
0.0003136763
0.001047069
0.001421645
0.006151706
0.000460408
-0.007795199
0.01932219
-0.002108339
0.002723743
-0.001992812
-0.001350996
-0.002095303
0.0009346158
-0.001366372
-0.001805384
-0.0007534398
-0.001483257
-0.0002436723
-0.001293863
0.0004961705
-0.001927834
0.001509514
-0.002535887
0.002326085
-0.001304889
0.002325615
0.001185344
0.001675689
0.001655848
0.0007566549
0.001052311
-0.0001567129
0.001402607
-0.000252301
0.0005859437
0.0003883091
-0.001152205
0.001071071
-0.001701219
0.001539723
-0.001136918
0.001764554
-0.0005410509
0.001825677
0.0001790237
0.001264915
0.002164101
6.920851e-05
0.002960038
-0.001021006
0.001857058
-0.001010606
0.0002038184
0.0001339384
-0.002318474
0.001445144
-0.003457407
0.002577072
-0.002942677
0.003572003
-0.002519334
0.004337798
-0.001933139
0.004941449
-0.001516705
0.005382291
-0.001088746
0.005634414
-0.000534014
0.005738081
0.0005491567
0.005259858
0.002932661
0.003233217
0.004930364
0.0003917687
0.004433745
-0.001766606
0.003966741
-0.002555252
0.002573808
-0.001437588
-0.002333467
-0.0003106586
-0.003321839
0.0001428254
-0.001686982
0.0004391583
-0.0001457749
0.00066901
-0.0001148724
0.0006749187
6.154284e-05
0.001160553
-0.000982121
0.002021651
-0.001973582
0.002641808
-0.001630863
0.002364996
0.0005904885
0.0007773869
0.003009253
-0.002763074
0.009692167
-0.00232702
-0.001918333
-0.001183253
-0.002850745
-0.0002811604
-0.001885933
0.000568087
-0.002290315
0.001290446
-0.001703316
0.001897235
-0.001306506
0.002352674
-0.0009419403
0.002650639
-0.0005152152
0.002842244
0.0003694729
0.002323402
0.002263483
0.0008432839
0.003193991
-0.0003034226
0.001568394
-0.0003666822
-0.0005654071
8.888226e-05
-0.001494111
0.0005474404
-0.0009554278
5.048859e-07
0.001416964
-0.0008489686
0.002115677
-0.0007644072
0.0001243552
-0.0002054786
-0.00132719
0.0004082193
-0.001491156
0.0009757275
-0.001382907
0.001422205
-0.001082189
0.001815168
-0.0009472034
0.002174664
-0.0008535125
0.002523529
-0.0008173645
0.002862121
-0.0007847266
0.003195994
-0.0007647854
0.003506084
-0.0007002154
0.003784612
-0.0006315947
0.004063751
-0.0006562619
0.004344465
-0.0006779325
0.004627352
-0.0006907623
0.004951264
-0.0007894228
0.005194743
-0.0005820977
0.005538868
-0.0008108524
0.005884008
-0.0008147085
0.006219435
-0.000798411
0.006556604
-0.0008136696
0.006890831
-0.0008170315
0.007227254
-0.0008289505
0.007564965
-0.0008337109
0.007906907
-0.000840669
0.008246682
-0.0008277138
0.00858534
-0.0008151976
0.008916026
-0.0007848118
0.009237198
-0.0007508087
0.009546778
-0.0007125179
0.009837887
-0.0006571001
0.01010656
-0.0005917754
0.0103474
-0.0005132466
0.01055977
-0.0004328392
0.01073306
-0.00032411
0.01087167
-0.0002236465
0.01096921
-9.855538e-05
0.01103059
2.642049e-05
0.01105478
0.0001657868
0.01103796
0.000343867
0.01097678
0.0005952205
0.01087017
0.001010073
0.0107208
0.001797563
0.01031885
0.003301131
0.008862018
0.005210839
0.00468053
0.007659913
-0.0006009295
0.009425378
-0.001559082
0.005019815
0.0005198464
-0.0022433
0.002050719
-0.004636689
0.003015816
-0.003212699
0.003144635
-0.001510342
0.002935182
-0.001352812
0.003093387
-0.002480506
0.001578145
0.001914508
-0.0006012386
0.005329596
-0.0007194993
0.0009340153
-0.0001339037
-0.001194691
0.0002125781
-0.0005594888
-0.0004615795
0.001208886
-0.001220622
0.001703357
-0.000487415
-0.001519752
0.0005554049
-0.002653321
0.001404556
-0.002037835
0.001417761
0.0005668317
0.00094963
0.001429851
-0.0005214354
0.001449246
-0.00364064
0.004847638
-0.005916794
0.00631436
-0.006066349
0.002857918
-0.005506542
-0.0005286945
-0.004499932
-0.002322008
-0.002915654
-0.0037782
-0.0014014
-0.003669963
0.0004219597
-0.004541385
0.001952215
-0.003867496
0.003119914
-0.002971062
0.003839993
-0.001507809
0.003676267
0.001907521
0.002652431
0.004101357
0.001604788
0.001251113
0.0009584184
-0.0004387427
-0.002027202
0.007448143
-0.001898245
-0.001234395
-0.0006330569
-0.00345335
0.0006349263
-0.002626526
0.001669224
-0.002278481
0.002234482
-0.001356262
0.002702651
-0.001198391
0.003462526
-0.00192153
0.004199395
-0.001878606
0.005308558
-0.002789497
0.006323464
-0.002440681
0.007077371
-0.001744155
0.007596935
-0.001179719
0.008005212
-0.0008699042
0.008147838
0.0001584689
0.00815985
0.002434732
0.006250378
0.007682999
0.001161756
0.0106774
-0.00261487
0.005468548
-0.002764758
-0.001029143
-0.001490378
-0.004306514
-0.001456239
-0.0002957209
-0.002740585
0.004873593
-0.00193428
-0.0005652224
0.0009988105
-0.007182689
0.00281621
-0.004942633
0.003420142
-0.001571099
0.003242888
0.00108288
0.002620225
0.002154113
0.001909755
0.001870874
0.001165081
0.001915588
-3.766454e-05
0.002635817
-0.001271549
0.00225524
-0.001905695
0.001300069
-0.002154316
0.0004499473
-0.0019967
-0.0005087512
-0.001818842
-0.0003333427
-0.001657381
-0.0002557166
-0.001411096
-0.0006111775
-0.001332253
-0.0001139159
-0.0008310652
-0.0009201506
0.0005374332
-0.003273653
0.002014683
-0.003763524
0.002284406
-0.0003499639
0.001875983
0.001601332
0.001879149
0.0005492932
0.001728931
0.001314721
0.002375523
-0.001037104
0.003217625
-0.005699476
-0.001516097
0.00609464
-0.01281688
0.03224754
-0.01346532
0.001720954
-0.01230221
-0.003370753
-0.01179403
-0.001284177
-0.01130943
-0.001317338
-0.01094839
-0.0009787628
-0.01061838
-0.0008990968
-0.01034273
-0.0007656787
-0.009882763
-0.001172157
-0.009679883
-0.0005503906
-0.009496827
-0.0004870436
-0.009324237
-0.0004555862
-0.009165519
-0.0004147984
-0.009010159
-0.0004033527
-0.008862605
-0.0003830363
-0.00871808
-0.000371344
-0.008584455
-0.0003396241
-0.008454133
-0.0003249402
-0.008329767
-0.0003100027
-0.008204961
-0.0003088146
-0.008086799
-0.0002906971
-0.007969642
-0.0002850171
-0.007857051
-0.0002709474
-0.007748887
-0.0002555114
-0.007640489
-0.0002564566
-0.007534153
-0.0002523232
-0.007427355
-0.0002531318
-0.007324417
-0.0002418143
-0.007223146
-0.0002316568
-0.00712606
-0.0002188906
-0.007024781
-0.000227967
-0.00692702
-0.0002209239
-0.006825004
-0.0002304393
-0.006727963
-0.0002151511
-0.006629808
-0.0002136182
-0.006530526
-0.0002171176
-0.006429877
-0.0002198448
-0.006327631
-0.0002231274
-0.006225973
-0.0002158961
-0.006121766
-0.000214559
-0.00615212
9.982176e-05
-0.006058673
-0.0001758373
-0.005971092
-0.0001784063
-0.005879404
-0.0001852283
-0.005790441
-0.0001775037
-0.005696802
-0.0001865842
-0.005604311
-0.0001820565
-0.005508921
-0.0001852848
-0.005412727
-0.0001857605
-0.005311118
-0.0001989536
-0.005207861
-0.0002024526
-0.005104423
-0.0001994021
-0.00499866
-0.0002019334
-0.004891662
-0.0002033426
-0.004777424
-0.0002235199
-0.00465874
-0.0002381863
-0.004537793
-0.0002438753
-0.00441426
-0.0002509632
-0.004281717
-0.0002745654
-0.004146403
-0.0002823515
-0.00400106
-0.0003074734
-0.003847192
-0.0003299662
-0.003681154
-0.0003593354
-0.003499256
-0.0004001775
-0.003286426
-0.0004863036
-0.003050497
-0.0005575319
-0.002793729
-0.0006300291
-0.002508048
-0.0007778008
-0.002242236
-0.0008852464
-0.00200415
-0.0007305947
-0.001852006
-6.400993e-05
-0.001978927
0.001613275
-0.0006358179
-0.003534446
0.0005021624
-0.003346363
0.001103273
-0.001456719
0.001475061
-0.0006934466
0.001744936
-0.0004813722
0.001988341
-0.0004456714
0.002197966
-0.0003768027
0.002372334
-0.0002995416
0.002526628
-0.0002661985
0.002680228
-0.0002790731
0.002822146
-0.0002586096
0.002954924
-0.0002397821
0.003075282
-0.0002136945
0.0031896
-0.0002032484
0.003296406
-0.0001899012
0.003401157
-0.0001887701
0.00350094
-0.0001778901
0.003594658
-0.0001629991
0.003684596
-0.0001573553
0.003774321
-0.0001611751
0.003860642
-0.0001538106
0.003943479
-0.0001473043
0.004027694
-0.0001533
0.004106377
-0.0001414319
0.00418759
-0.0001524156
0.004268794
-0.0001551503
0.004347314
-0.000143936
0.004421316
-0.00013175
0.00449608
-0.000134849
0.00456944
-0.0001362589
0.004646654
-0.0001305137
0.004627623
8.18403e-05
0.004711093
-0.0001597886
0.004794644
-0.0001674345
0.004876378
-0.0001652139
0.004957081
-0.0001635391
0.005037858
-0.0001662698
0.005117863
-0.0001623661
0.005194092
-0.0001523374
0.00527195
-0.0001578663
0.005348391
-0.000159534
0.00542832
-0.0001686984
0.005503443
-0.0001549772
0.005578749
-0.000153055
0.00565287
-0.0001532999
0.005728865
-0.000159965
0.005803582
-0.0001589204
0.005880486
-0.0001669797
0.005957909
-0.0001692903
0.006034585
-0.0001680507
0.006113321
-0.0001725505
0.006187875
-0.0001623211
0.006268218
-0.0001805349
0.006346516
-0.0001789948
0.006427345
-0.0001846951
0.006508014
-0.0001885
0.006590693
-0.0001939125
0.006674459
-0.0002016858
0.006762287
-0.0002143302
0.006848758
-0.0002122036
0.006938897
-0.0002245695
0.00703428
-0.0002431674
0.007136755
-0.0002777946
0.007417384
-0.0006917542
0.007553471
-0.0003755765
0.007711358
-0.0004274687
0.007878603
-0.0004570005
0.008100322
-0.0005912781
0.008277411
-0.0005011575
0.008782095
-0.001347166
0.002310234
-0.0008079686
0.002260974
-0.004987451
0.0003308483
-0.00448518
0.001063019
-0.002188889
0.001563334
-0.001193762
0.001924997
-0.0008430351
0.002242686
-0.0007633598
0.002513944
-0.0006480607
0.002739102
-0.0005246998
0.002936579
-0.0004636758
0.003131607
-0.0004741003
0.003311447
-0.0004384496
0.003480424
-0.0004087601
0.003634529
-0.0003677994
0.003781074
-0.0003497934
0.003918612
-0.0003274384
0.004053136
-0.0003232947
0.004182013
-0.000306767
0.004302875
-0.0002838606
0.004419059
-0.0002735397
0.004534019
-0.0002761351
0.004644333
-0.000264125
0.004749838
-0.0002528087
0.004856703
-0.000260165
0.004956059
-0.0002407885
0.005058306
-0.0002546626
0.005160256
-0.0002571002
0.005258535
-0.000242215
0.005352007
-0.0002252222
0.005445865
-0.0002287065
0.005537871
-0.0002282647
0.005636115
-0.000228758
0.005619666
9.828924e-05
0.00572216
-0.0002622824
0.005826262
-0.0002715368
0.005926999
-0.0002659506
0.006026495
-0.0002630352
0.006126177
-0.0002659515
0.006224672
-0.0002608617
0.006318849
-0.0002465144
0.006414785
-0.0002538014
0.006508932
-0.0002536815
0.006607113
-0.0002668795
0.006699623
-0.0002474867
0.006792353
-0.0002457853
0.006883799
-0.000244746
0.006977128
-0.0002532941
0.007068846
-0.0002506377
0.00716315
-0.0002612847
0.007257824
-0.0002639634
0.007351617
-0.0002618439
0.00744796
-0.0002688937
0.007538837
-0.0002531981
0.00763702
-0.0002787183
0.007731997
-0.0002739716
0.007829776
-0.0002824738
0.007927572
-0.0002862961
0.008026789
-0.0002931295
0.008127688
-0.0003025849
0.008232626
-0.0003192679
0.008335697
-0.0003152751
0.008442793
-0.0003316655
0.008555843
-0.0003562166
0.008856742
-0.0005786936
0.009007652
-0.0008426645
0.009164179
-0.0005321036
0.009348911
-0.0006122011
0.009551011
-0.0006591004
0.009811911
-0.0008521782
0.01006751
-0.0007567539
0.01052426
-0.001803921
0.009735004
0.003099494
-0.01601838
0.01573532
0.002004011
-0.01491264
-0.004476492
-0.01420635
-0.001990468
-0.01362803
-0.00189566
-0.01318542
-0.00142137
-0.01278994
-0.001294574
-0.01246317
-0.001092451
-0.0121622
-0.001473125
-0.01167017
-0.00104242
-0.01145313
-0.0007040855
-0.01124785
-0.0006608692
-0.01105936
-0.0006032838
-0.01087474
-0.0005879749
-0.01069906
-0.0005587167
-0.01052699
-0.0005434103
-0.01036719
-0.000499426
-0.01021171
-0.0004804231
-0.01006284
-0.0004588708
-0.009913398
-0.0004582552
-0.009771643
-0.0004324522
-0.009631293
-0.0004253671
-0.009495703
-0.0004065374
-0.009365929
-0.0003852858
-0.009235623
-0.0003867627
-0.009107853
-0.0003800935
-0.008979819
-0.0003811654
-0.008856087