/*--------------------------------*- C++ -*----------------------------------*\
| =========                 |                                                 |
| \\      /  F ield         | OpenFOAM: The Open Source CFD Toolbox           |
|  \\    /   O peration     | Version:  2406                                  |
|   \\  /    A nd           | Website:  www.openfoam.com                      |
|    \\/     M anipulation  |                                                 |
\*---------------------------------------------------------------------------*/
FoamFile
{
    version     2.0;
    format      ascii;
    arch        "LSB;label=32;scalar=64";
    class       volScalarField;
    location    "0.92";
    object      p;
}
// * * * * * * * * * * * * * * * * * * * * * * * * * * * * * * * * * * * * * //

dimensions      [0 2 -2 0 0 0 0];

internalField   nonuniform List<scalar> 
217010
(
-94.22658
-49.45431
-58.04143
-59.10017
-54.7679
-51.72739
-51.77899
-51.19138
-51.22026
-51.1805
-51.23772
-51.16814
-51.07562
-50.98427
-51.1373
-51.48888
-51.63911
-51.50811
-51.17526
-51.05423
-51.45083
-52.23744
-53.08546
-54.10327
-55.80037
-60.48063
-68.84709
-74.35583
-68.98863
-61.25562
-61.65946
-65.39727
-67.02718
-67.07956
-67.56622
-67.89228
-67.40819
-66.23718
-64.62791
-62.76807
-61.01954
-59.78995
-60.40591
-62.39238
-65.50021
-68.04786
-69.1829
-69.90465
-66.01195
-75.4149
-65.41571
-69.23931
-73.49429
-85.28373
-99.08001
-100.7295
-85.71316
-74.82351
-78.05813
-84.84893
-90.56291
-92.71255
-91.16493
-90.10752
-90.1435
-90.04193
-89.83762
-89.74524
-89.72004
-89.62117
-89.35375
-88.85998
-88.14601
-87.24149
-86.15489
-84.86899
-83.38322
-81.71232
-79.89684
-77.96884
-75.9514
-73.82425
-71.53677
-69.077
-66.55571
-63.94364
-61.25607
-58.47478
-55.70474
-52.83076
-49.82114
-46.90437
-44.01911
-41.08761
-38.1224
-35.15592
-32.31476
-29.55944
-26.85535
-24.20922
-21.65317
-19.22222
-16.90808
-14.70573
-12.54305
-10.48208
-8.538063
-6.695407
-4.963354
-3.419392
-2.085709
-0.8941985
0.1732237
1.058827
1.80052
2.455253
2.999233
3.401675
3.702612
3.91631
3.960964
3.847607
3.61176
3.24184
2.722598
2.111766
1.418954
0.6494981
-0.201316
-1.095239
-2.032712
-2.997588
-3.956019
-4.909511
-5.883719
-6.863778
-7.801032
-8.708991
-9.578031
-10.37553
-11.10048
-11.74703
-12.32896
-12.93646
-13.66398
-14.22005
-14.39062
-14.71325
-17.02635
-13.13197
-19.5291
-15.20436
-21.61392
-22.15255
-22.26321
-19.46079
-14.70088
-9.419801
-5.23599
-2.910523
-2.80546
-3.416185
-7.234586
-11.94719
-16.18887
-18.73956
-19.38927
-18.82613
-17.83772
-16.12501
-15.67527
-20.3683
-24.47589
-22.74774
-18.42281
-15.67516
-15.17472
-15.16974
-15.5261
-15.11126
-14.21272
-13.02342
-12.34385
-11.68471
-10.60088
-9.779314
-10.0017
-9.134246
-7.454145
-8.799382
-9.728828
-8.709217
-6.886426
-6.309089
-6.649344
-7.377957
-6.443028
-8.497076
-6.244198
-31.80191
-0.4056891
0.3209579
4.069366
6.115
8.09653
9.781238
11.30139
12.74681
14.00905
15.21838
16.34514
17.40294
18.4241
19.4066
20.34453
21.23252
22.08347
22.91613
23.72408
24.50806
25.27175
26.00787
26.71603
27.42201
28.12172
28.81352
29.48282
30.12718
30.75655
31.38375
32.01158
32.63524
33.23407
33.82121
34.41114
34.99533
35.57908
36.16063
36.7493
37.31675
37.90628
38.46997
39.03389
39.59306
40.15421
40.70951
41.25931
41.81472
42.38443
42.9562
43.51887
44.07483
44.63284
45.21173
45.80329
46.39004
46.98068
47.58145
48.18621
48.80167
49.42201
50.04472
50.69706
51.40083
52.10156
52.79058
53.55567
54.39478
55.14824
55.5222
57.25973
44.11057
45.58459
46.16635
45.59123
44.52724
43.50963
42.60742
41.75819
40.94224
40.1396
39.30507
38.45853
37.62996
36.83858
36.0671
35.29621
34.51532
33.73634
32.98008
32.23223
31.47294
30.71417
29.96552
29.2074
28.45558
27.69472
26.90819
26.13168
25.37361
24.61191
23.83359
23.01249
22.23724
21.42729
20.59895
19.77254
18.94473
18.08977
17.22321
16.35869
15.47936
14.55995
13.60199
12.6465
11.70052
10.72509
9.708156
8.666861
7.586237
6.469047
5.327302
4.152461
2.968643
1.717454
0.3949206
-0.9677605
-2.39916
-3.885361
-5.46738
-7.161099
-8.941044
-10.82253
-12.88999
-15.1269
-17.65858
-20.38703
-23.46233
-27.17369
-31.20594
-38.29548
-41.72337
45.60693
45.48114
46.15153
45.67654
44.64479
43.61944
42.70489
41.84742
41.02577
40.22021
39.38375
38.53393
37.70022
36.90364
36.12833
35.35466
34.57118
33.7889
33.02939
32.27883
31.51727
30.75612
30.00515
29.24478
28.49121
27.72867
26.94012
26.16164
25.40145
24.63802
23.85807
23.03433
22.25998
21.44694
20.617
19.78918
18.96007
18.10363
17.23582
16.36993
15.4894
14.5684
13.60886
12.65208
11.70499
10.72792
9.709599
8.667135
7.584755
6.465547
5.321774
4.144843
2.959768
1.705156
0.3796107
-0.9857544
-2.421006
-3.910234
-5.497497
-7.196843
-8.981456
-10.86886
-12.94332
-15.18822
-17.74015
-20.48053
-23.57753
-27.31089
-31.42859
-38.44995
-42.95606
-1.15447
0.2528452
3.948747
6.041539
8.032111
9.728751
11.25382
12.71205
13.97849
15.19021
16.32097
17.3814
18.40517
19.39038
20.33103
21.22131
22.07372
22.90803
23.71771
24.50313
25.26818
26.00586
26.71489
27.42176
28.1224
28.81528
29.48569
30.13093
30.76119
31.38932
32.01814
32.64282
33.24268
33.83065
34.42167
35.00683
35.59174
36.17454
36.76528
37.33259
37.92391
38.48877
39.0541
39.6146
40.17704
40.73371
41.28506
41.84234
42.41391
42.98729
43.55134
44.1091
44.66961
45.25116
45.84511
46.43409
47.02736
47.63099
48.23888
48.85742
49.48093
50.10845
50.76725
51.47591
52.18008
52.87681
53.6539
54.49249
55.21262
55.60938
56.89835
-19.42217
-15.15062
-21.19898
-22.19418
-22.50096
-19.91258
-15.18545
-9.821354
-5.485149
-3.002716
-2.798936
-3.2987
-7.004974
-11.69232
-15.99865
-18.67815
-19.42109
-18.88485
-17.8885
-16.13735
-15.58837
-20.25576
-24.4988
-22.86334
-18.49181
-15.69723
-15.17282
-15.16795
-15.53471
-15.12401
-14.22385
-13.03071
-12.34865
-11.68798
-10.59662
-9.778172
-10.00673
-9.142966
-7.473095
-8.823564
-9.753379
-8.70085
-6.879699
-6.312562
-6.666782
-7.371579
-6.469245
-8.494985
-6.855898
-28.20455
-65.68898
-68.77977
-72.62409
-83.92578
-98.18647
-101.213
-87.1161
-75.27919
-77.70871
-84.35249
-90.19646
-92.65382
-91.23408
-90.1379
-90.14482
-90.05297
-89.85349
-89.76223
-89.74031
-89.6472
-89.38842
-88.90374
-88.19727
-87.29917
-86.21926
-84.93995
-83.45983
-81.79291
-79.97829
-78.04924
-76.03023
-73.9039
-71.61689
-69.1431
-66.62378
-64.00953
-61.32031
-58.53256
-55.75821
-52.88331
-49.86498
-46.94184
-44.05313
-41.11672
-38.14697
-35.174
-32.32779
-29.56849
-26.86029
-24.21085
-21.65131
-19.21753
-16.90007
-14.69546
-12.52997
-10.46654
-8.520592
-6.67679
-4.944337
-3.400506
-2.067266
-0.8761983
0.1903585
1.074204
1.814735
2.468405
3.009873
3.410042
3.708928
3.919372
3.959266
3.840821
3.599876
3.223298
2.696981
2.08072
1.381944
0.6061609
-0.2511097
-1.150043
-2.093321
-3.062558
-4.023475
-4.980499
-5.960039
-6.943178
-7.880305
-8.789581
-9.659174
-10.45564
-11.17762
-11.81868
-12.40331
-13.01997
-13.74366
-14.26351
-14.42054
-14.88286
-16.88531
-13.21505
-87.38282
-50.38409
-57.84132
-59.23578
-54.9273
-51.76821
-51.78376
-51.19791
-51.22048
-51.18049
-51.23781
-51.16893
-51.07631
-50.98411
-51.13723
-51.48982
-51.64133
-51.50866
-51.17332
-51.05369
-51.45542
-52.2452
-53.09652
-54.11788
-55.84254
-60.60452
-69.08191
-74.50792
-68.8814
-61.10001
-61.74114
-65.53588
-67.08821
-67.11447
-67.60268
-67.90293
-67.35806
-66.1441
-64.51046
-62.64503
-60.92422
-59.78406
-60.51379
-62.62304
-65.80211
-68.28462
-69.30448
-69.68489
-66.3852
-75.20565
-79.21714
-50.74823
-57.53968
-59.36694
-55.09327
-51.8126
-51.78781
-51.20492
-51.22117
-51.18078
-51.23865
-51.17036
-51.07691
-50.98404
-51.13851
-51.49392
-51.6484
-51.51637
-51.17481
-51.05106
-51.4572
-52.25106
-53.10309
-54.128
-55.87685
-60.73832
-69.31089
-74.74155
-68.86777
-60.98742
-61.76531
-65.52555
-67.08632
-67.20452
-67.69627
-67.94842
-67.38143
-66.13264
-64.47803
-62.59723
-60.88881
-59.80816
-60.63083
-62.80858
-65.96157
-68.34469
-69.38157
-69.61111
-66.56199
-74.8087
-65.86437
-68.54934
-72.08869
-83.08933
-97.95089
-102.0416
-88.37569
-75.33942
-77.42167
-84.01172
-90.01298
-92.642
-91.34688
-90.20116
-90.16477
-90.09609
-89.92001
-89.82541
-89.78981
-89.68498
-89.42067
-88.93351
-88.22445
-87.32421
-86.24451
-84.96516
-83.4804
-81.81313
-79.998
-78.06762
-76.04957
-73.92684
-71.63582
-69.18173
-66.64857
-64.03222
-61.3457
-58.55543
-55.77947
-52.90985
-49.88688
-46.96058
-44.073
-41.13541
-38.16595
-35.18888
-32.34033
-29.57999
-26.8696
-24.21742
-21.65435
-19.21881
-16.89807
-14.69336
-12.52575
-10.46069
-8.513843
-6.669877
-4.936674
-3.39177
-2.058747
-0.8679507
0.1988831
1.08183
1.821724
2.475373
3.01516
3.413852
3.711582
3.920485
3.955522
3.833614
3.590233
3.209807
2.679678
2.062086
1.361054
0.5830827
-0.2763818
-1.175921
-2.120936
-3.090188
-4.050204
-5.008022
-5.98913
-6.971062
-7.906187
-8.815719
-9.682602
-10.47592
-11.20527
-11.87366
-12.47254
-13.09737
-13.79351
-14.27809
-14.47611
-14.99448
-16.81441
-13.26758
-19.24029
-15.06967
-20.93512
-22.2538
-22.62559
-20.06457
-15.46684
-10.11699
-5.711186
-3.118241
-2.817865
-3.229249
-6.90245
-11.5969
-15.98467
-18.75477
-19.55575
-19.05503
-17.96184
-16.12624
-15.55138
-20.15063
-24.57408
-22.97043
-18.56969
-15.71729
-15.16866
-15.18276
-15.55991
-15.14175
-14.24099
-13.04616
-12.36127
-11.69835
-10.6082
-9.796549
-10.02787
-9.17151
-7.48161
-8.832668
-9.841403
-8.740252
-6.89124
-6.325946
-6.681122
-7.369551
-6.475068
-8.538035
-7.099691
-23.55349
-1.292615
0.1914097
3.900679
6.007627
8.003934
9.706553
11.23694
12.68994
13.968
15.17935
16.31177
17.37291
18.39702
19.38366
20.32536
21.21705
22.06898
22.9041
23.71446
24.50054
25.26588
26.00477
26.71348
27.42073
28.122
28.81576
29.48715
30.13242
30.76263
31.39085
32.02
32.64587
33.24627
33.83338
34.42498
35.0103
35.59648
36.17967
36.7691
37.33978
37.92791
38.49397
39.06014
39.62067
40.18363
40.74069
41.29199
41.84908
42.42181
42.99648
43.5606
44.11846
44.67838
45.26073
45.85669
46.44612
47.0393
47.6445
48.2527
48.87185
49.49642
50.12491
50.78379
51.49623
52.20346
52.9005
53.68353
54.51483
55.20909
55.62783
56.62354
46.15044
45.4206
46.14099
45.72813
44.69086
43.65314
42.73094
41.86899
41.04742
40.2439
39.40526
38.55331
37.7163
36.91883
36.14306
35.36971
34.58468
33.8005
33.04136
32.29095
31.52801
30.76651
30.0159
29.25377
28.50168
27.73871
26.94737
26.16862
25.40886
24.64526
23.86264
23.04405
22.26549
21.45481
20.62286
19.79447
18.96529
18.10706
17.23903
16.37373
15.49373
14.57116
13.60979
12.65289
11.70674
10.72851
9.709609
8.666939
7.582853
6.4625
5.317681
4.13996
2.956089
1.699038
0.3720024
-0.9932783
-2.431214
-3.91993
-5.510701
-7.212254
-8.997829
-10.88683
-12.964
-15.22632
-17.7712
-20.52192
-23.62955
-27.37916
-31.52398
-38.56268
-43.02271
47.15612
45.5895
46.12162
45.78665
44.79654
43.76199
42.82995
41.96221
41.13911
40.33401
39.49196
38.63735
37.79655
36.99503
36.21564
35.43853
34.65051
33.86273
33.10131
32.34704
31.58071
30.81692
30.06387
29.29845
28.54537
27.77991
26.98449
26.20546
25.44347
24.67809
23.89233
23.07519
22.28912
21.48069
20.64507
19.81548
18.98543
18.12375
17.25497
16.38891
15.50831
14.58222
13.61802
12.66052
11.71489
10.73369
9.713382
8.669984
7.582755
6.46059
5.313827
4.133851
2.951288
1.688609
0.358155
-1.007916
-2.451809
-3.940795
-5.539095
-7.24642
-9.035433
-10.92904
-13.01749
-15.28785
-17.83862
-20.60842
-23.73716
-27.50331
-31.72359
-38.6569
-43.18159
-1.479429
0.1337547
3.788528
5.941528
7.941653
9.657337
11.19787
12.6535
13.93775
15.15226
16.28914
17.35224
18.37856
19.36856
20.31284
21.20779
22.05991
22.89725
23.70941
24.49704
25.26329
26.00477
26.71297
27.42109
28.1236
28.81892
29.49236
30.13831
30.76911
31.39769
32.02766
32.65571
33.25802
33.84451
34.43767
35.0237
35.61241
36.19713
36.78489
37.36311
37.94905
38.51648
39.08446
39.64661
40.2108
40.77001
41.3231
41.88199
42.45647
43.03337
43.59929
44.15963
44.72205
45.30642
45.90572
46.49769
47.0935
47.70162
48.31319
48.93517
49.56344
50.19712
50.86012
51.57583
52.2882
52.99225
53.78122
54.591
55.2301
55.63253
56.2467
-18.71598
-14.83919
-20.625
-22.41962
-22.96897
-20.5821
-16.0046
-10.58606
-6.039935
-3.292093
-2.859371
-3.151069
-6.762107
-11.41148
-15.85438
-18.68905
-19.70521
-19.3001
-18.13326
-16.14192
-15.44684
-20.03896
-24.75406
-23.19188
-18.68277
-15.72824
-15.1407
-15.22216
-15.60452
-15.17035
-14.26824
-13.07319
-12.38559
-11.71938
-10.63613
-9.846219
-10.02929
-9.164341
-7.443765
-8.820921
-9.984373
-8.807161
-6.920109
-6.355347
-6.71342
-7.366138
-6.49119
-8.592229
-7.747098
-19.49954
-66.00577
-68.19759
-71.35462
-81.83836
-96.97558
-102.705
-89.79513
-75.93864
-77.0828
-83.41036
-89.35273
-92.26324
-91.40435
-90.34526
-90.24834
-90.18753
-90.03111
-89.92563
-89.87084
-89.75198
-89.48455
-89.00006
-88.29505
-87.40039
-86.33131
-85.06612
-83.5921
-81.92066
-80.10153
-78.16729
-76.14551
-74.0237
-71.719
-69.26088
-66.72881
-64.10537
-61.41985
-58.61824
-55.83491
-52.97041
-49.93312
-46.9984
-44.11061
-41.16802
-38.19699
-35.21042
-32.35671
-29.59492
-26.88151
-24.22525
-21.65644
-19.2184
-16.8918
-14.68717
-12.51578
-10.44736
-8.498664
-6.655927
-4.923811
-3.377897
-2.045209
-0.8556675
0.2113894
1.09313
1.831952
2.485362
3.021255
3.4177
3.713811
3.920624
3.948924
3.8222
3.574492
3.187109
2.649136
2.027146
1.319421
0.5354448
-0.3313218
-1.235377
-2.187684
-3.161647
-4.124079
-5.086091
-6.07392
-7.059875
-7.995086
-8.90958
-9.779711
-10.57815
-11.31832
-11.981
-12.57343
-13.2015
-13.87211
-14.35005
-14.6192
-15.13856
-16.55371
-13.08623
-72.79879
-51.6487
-57.08008
-59.57759
-55.39429
-51.87682
-51.79187
-51.21416
-51.22139
-51.18045
-51.24046
-51.17293
-51.07809
-50.98437
-51.1418
-51.50103
-51.66137
-51.53383
-51.18153
-51.04465
-51.45579
-52.25756
-53.11272
-54.14484
-55.92516
-60.93491
-69.66339
-75.11788
-68.95353
-60.8805
-61.76171
-65.52917
-67.07486
-67.33378
-67.81157
-67.97821
-67.34072
-66.05942
-64.39578
-62.51732
-60.85717
-59.8672
-60.80309
-63.09035
-66.28901
-68.63887
-69.52505
-69.50617
-66.80217
-74.25852
-68.3743
-52.53554
-56.62406
-59.9417
-55.82176
-51.97407
-51.79452
-51.22458
-51.21976
-51.17874
-51.24339
-51.17722
-51.08039
-50.98587
-51.14742
-51.51181
-51.68134
-51.56235
-51.19561
-51.03614
-51.4487
-52.26284
-53.12373
-54.16613
-55.99176
-61.20241
-70.12205
-75.60024
-69.06445
-60.90076
-61.83444
-65.56137
-67.10003
-67.50473
-67.96581
-68.09062
-67.37628
-66.03284
-64.3499
-62.46185
-60.86722
-59.98305
-61.04431
-63.44995
-66.65577
-68.82207
-69.66135
-69.35956
-66.95963
-73.44686
-66.14434
-68.04533
-70.70348
-80.48749
-95.8539
-103.1598
-91.58614
-77.33547
-77.31266
-83.14269
-88.63798
-91.63511
-91.32426
-90.50366
-90.35741
-90.28669
-90.1437
-90.02587
-89.95177
-89.81582
-89.54185
-89.05557
-88.34658
-87.44287
-86.36304
-85.0994
-83.63638
-81.97475
-80.16094
-78.22917
-76.20716
-74.09606
-71.78849
-69.3345
-66.79454
-64.16619
-61.48981
-58.67594
-55.88617
-53.0407
-49.98381
-47.03979
-44.15922
-41.21184
-38.241
-35.23998
-32.3809
-29.61991
-26.90236
-24.2417
-21.66522
-19.22492
-16.88954
-14.68663
-12.50969
-10.4368
-8.48722
-6.648188
-4.916059
-3.366403
-2.033745
-0.8465628
0.2239921
1.102955
1.838552
2.492665
3.025629
3.418674
3.713037
3.917975
3.937465
3.805586
3.553344
3.157146
2.610452
1.986418
1.272083
0.4824418
-0.3904469
-1.295892
-2.255327
-3.230955
-4.191172
-5.155448
-6.149646
-7.134917
-8.065004
-8.98275
-9.849527
-10.64308
-11.37815
-12.03982
-12.67564
-13.31234
-13.96718
-14.45057
-14.78871
-15.27249
-16.22958
-12.70489
-17.56715
-14.47772
-20.19133
-22.60549
-23.27197
-21.08885
-16.66105
-11.18568
-6.486071
-3.551351
-2.944195
-3.103314
-6.665939
-11.26435
-15.81956
-18.78655
-19.93468
-19.63456
-18.46374
-16.33335
-15.45007
-19.95474
-25.0828
-23.54533
-18.83857
-15.70196
-15.07439
-15.28484
-15.6659
-15.20799
-14.30691
-13.11481
-12.42839
-11.75866
-10.68253
-9.924272
-9.99623
-9.087033
-7.344002
-8.805719
-10.17573
-8.919349
-6.977651
-6.413253
-6.781715
-7.361933
-6.513064
-8.654669
-8.401725
-16.65579
-1.699816
0.1161352
3.690352
5.883696
7.885118
9.613116
11.161
12.6171
13.91406
15.12846
16.26935
17.33328
18.3604
19.35329
20.30016
21.19928
22.04983
22.8888
23.70238
24.49146
25.25835
26.0034
26.70986
27.41868
28.12193
28.81864
29.49463
30.14059
30.7708
31.39964
32.03054
32.6613
33.26499
33.84927
34.44435
35.03048
35.62161
36.20628
36.79182
37.37233
37.95953
38.5277
39.09703
39.65923
40.22448
40.78506
41.33842
41.897
42.47361
43.05335
43.61963
44.18074
44.74306
45.32944
45.93316
46.526
47.12211
47.73443
48.3477
48.97145
49.60258
50.24023
50.90551
51.62912
52.34832
53.05288
53.84874
54.64325
55.23182
55.59346
55.80479
48.04342
45.77921
46.08278
45.83009
44.8967
43.85542
42.90063
42.0188
41.19376
40.39242
39.54565
38.68684
37.83765
37.03274
36.25157
35.4743
34.68279
33.8903
33.12958
32.37503
31.60574
30.84085
30.0882
29.31825
28.56824
27.80169
27.00009
26.22087
25.4584
24.69323
23.90473
23.08921
22.29994
21.4944
20.65462
19.8247
18.99484
18.12955
17.26152
16.39665
15.51672
14.58619
13.61837
12.66204
11.7188
10.73377
9.712668
8.669774
7.578438
6.454456
5.306016
4.124194
2.946234
1.675441
0.3413826
-1.023964
-2.474318
-3.959767
-5.56744
-7.279905
-9.069404
-10.96453
-13.06263
-15.35078
-17.9018
-20.68768
-23.83524
-27.61667
-31.89646
-38.67392
-43.32616
48.93074
46.22883
46.11522
45.86519
45.00078
43.97497
43.00402
42.11299
41.29287
40.49836
39.64537
38.78675
37.93197
37.1235
36.33804
35.55982
34.76453
33.96455
33.20235
32.44387
31.66943
30.90252
30.14919
29.37206
28.6251
27.85681
27.04648
26.26838
25.50357
24.73664
23.9414
23.13127
22.33731
21.53145
20.686
19.85549
19.02305
18.14872
17.2798
16.41649
15.54026
14.60296
13.6261
12.66994
11.73271
10.74148
9.718159
8.677389
7.580022
6.452207
5.298795
4.113086
2.946344
1.6647
0.3263471
-1.040507
-2.501761
-3.9787
-5.601458
-7.321992
-9.114414
-11.00788
-13.11922
-15.42843
-17.98129
-20.78416
-23.95471
-27.74665
-32.07779
-38.65485
-43.52755
-1.994778
0.1067642
3.58174
5.817671
7.812262
9.556434
11.11263
12.57275
13.88241
15.0951
16.24359
17.30945
18.33663
19.33502
20.28696
21.19143
22.03686
22.87827
23.69475
24.48716
25.25518
26.00505
26.70839
27.41871
28.1227
28.82336
29.50383
30.14828
30.77856
31.41004
32.04189
32.6746
33.28069
33.86218
34.46075
35.04652
35.64109
36.22621
36.8142
37.40599
37.98713
38.55521
39.12742
39.69137
40.2591
40.82176
41.37542
41.93588
42.51726
43.10138
43.66728
44.23061
44.79393
45.38264
45.99233
46.58684
47.18543
47.80214
48.41592
49.04164
49.67694
50.31979
50.9831
51.70945
52.4371
53.14193
53.93781
54.69598
55.20539
55.46842
55.25703
-15.91242
-14.02753
-19.67668
-22.83329
-23.74869
-21.79199
-17.50944
-11.96892
-7.111371
-3.953162
-3.107116
-3.119191
-6.654504
-11.1547
-15.83639
-18.89279
-20.20445
-20.06097
-18.96385
-16.83097
-15.7076
-20.07543
-25.61883
-24.0966
-19.05991
-15.62893
-14.95215
-15.36269
-15.7413
-15.25644
-14.36086
-13.18279
-12.49923
-11.82425
-10.74409
-10.03899
-9.954127
-8.949747
-7.203105
-8.832619
-10.41778
-9.082866
-7.07588
-6.519274
-6.86708
-7.3418
-6.541586
-8.722351
-8.871926
-14.58148
-66.18455
-67.98612
-70.1819
-78.93428
-94.12554
-103.0717
-93.54636
-79.49511
-78.14702
-82.98505
-87.94025
-90.96068
-91.15215
-90.61926
-90.47382
-90.40603
-90.28371
-90.15783
-90.06968
-89.9189
-89.64295
-89.16293
-88.46029
-87.58728
-86.51778
-85.2491
-83.78252
-82.11266
-80.28951
-78.34877
-76.31722
-74.22053
-71.9054
-69.44636
-66.89998
-64.25608
-61.59113
-58.75631
-55.95941
-53.14273
-50.04625
-47.09221
-44.22501
-41.26501
-38.29446
-35.27386
-32.41492
-29.65626
-26.93107
-24.26746
-21.67774
-19.23387
-16.88427
-14.685
-12.50135
-10.42521
-8.479929
-6.646255
-4.910389
-3.354384
-2.023361
-0.8386855
0.2375567
1.109324
1.839894
2.495636
3.02764
3.415892
3.708254
3.913206
3.919811
3.782125
3.525755
3.117536
2.558245
1.933735
1.211559
0.4133827
-0.4703268
-1.375533
-2.347162
-3.327705
-4.287121
-5.254213
-6.260745
-7.249456
-8.174623
-9.104309
-9.970449
-10.76526
-11.52079
-12.21283
-12.85148
-13.46513
-14.1009
-14.58114
-14.95791
-15.37074
-15.91604
-12.36004
-64.66064
-53.13602
-56.3558
-60.51054
-56.36073
-52.09292
-51.8056
-51.24331
-51.21657
-51.17498
-51.24807
-51.18438
-51.08472
-50.98925
-51.15568
-51.52371
-51.70764
-51.60147
-51.2197
-51.02961
-51.43595
-52.27014
-53.13698
-54.20015
-56.09397
-61.54203
-70.68489
-76.09676
-69.16968
-61.21482
-62.12089
-65.68843
-67.19266
-67.73289
-68.15252
-68.17947
-67.41483
-66.00841
-64.31385
-62.42585
-60.95601
-60.2153
-61.40826
-63.93434
-67.11502
-69.12132
-69.8229
-69.18887
-67.11115
-72.26115
-61.06525
-53.41446
-56.5041
-61.1551
-57.20584
-52.1245
-51.78885
-51.28948
-51.21608
-51.16664
-51.25319
-51.1957
-51.09469
-50.99627
-51.17054
-51.53473
-51.73573
-51.64805
-51.25584
-51.03363
-51.42343
-52.27365
-53.14054
-54.26653
-56.32843
-61.92885
-71.27382
-76.44888
-69.30036
-61.86973
-62.69735
-65.94251
-67.37814
-68.05014
-68.41134
-68.38475
-67.50973
-65.99784
-64.30512
-62.43701
-61.19998
-60.67213
-61.99401
-64.62218
-67.68156
-69.44215
-69.99751
-69.02028
-67.29537
-70.84838
-66.24007
-68.14141
-69.93804
-77.21331
-91.2912
-101.4038
-94.86122
-82.0637
-79.55539
-83.0425
-87.30107
-90.30269
-90.9408
-90.69487
-90.59352
-90.54188
-90.44557
-90.3053
-90.19954
-90.02746
-89.74516
-89.26606
-88.5293
-87.63028
-86.58811
-85.34621
-83.89496
-82.22128
-80.39558
-78.46256
-76.43567
-74.36458
-72.02529
-69.55281
-67.01242
-64.34986
-61.70504
-58.85688
-56.05559
-53.25146
-50.11395
-47.16233
-44.30017
-41.32579
-38.36502
-35.33328
-32.47678
-29.70038
-26.97643
-24.31359
-21.69447
-19.25089
-16.88096
-14.69218
-12.50331
-10.4248
-8.480841
-6.636865
-4.906405
-3.349726
-2.027825
-0.8317994
0.2337263
1.10363
1.846565
2.503147
3.018333
3.408159
3.698438
3.90499
3.889715
3.743604
3.4857
3.067367
2.485585
1.858015
1.127218
0.3286733
-0.5787023
-1.4789
-2.462765
-3.441496
-4.404756
-5.373334
-6.383472
-7.37696
-8.29248
-9.233917
-10.09803
-10.88969
-11.65283
-12.33766
-12.96744
-13.61681
-14.25167
-14.7292
-15.12403
-15.44397
-15.67156
-12.34198
-14.3071
-13.70077
-19.17346
-23.10091
-24.35425
-22.69097
-18.60928
-13.03687
-7.991251
-4.569523
-3.41601
-3.245044
-6.822779
-11.1766
-15.97155
-19.10914
-20.64926
-20.65595
-19.66584
-17.67499
-16.43065
-20.58359
-26.33881
-24.83062
-19.40436
-15.52893
-14.75619
-15.44466
-15.82001
-15.31173
-14.43653
-13.30077
-12.61254
-11.92052
-10.83232
-10.22232
-9.951607
-8.866952
-7.164262
-8.919744
-10.65483
-9.294089
-7.203295
-6.686555
-7.041273
-7.282513
-6.467055
-8.77689
-9.0883
-12.8395
-2.314732
0.1373337
3.486623
5.760832
7.728082
9.499713
11.06768
12.52908
13.84305
15.0554
16.22109
17.2831
18.30708
19.31761
20.27262
21.17635
22.01416
22.8663
23.68782
24.48531
25.25008
26.00243
26.70404
27.41463
28.1193
28.82965
29.50715
30.14834
30.78376
31.4153
32.04007
32.67483
33.29245
33.86791
34.47041
35.05438
35.65474
36.24194
36.83118
37.41506
37.99847
38.56973
39.14767
39.71251
40.27946
40.84168
41.40005
41.96355
42.54415
43.1273
43.69418
44.26321
44.82746
45.41755
46.03353
46.63344
47.23041
47.8489
48.46664
49.0995
49.74025
50.38996
51.04778
51.78342
52.53524
53.23763
54.02037
54.7157
55.11062
55.19743
54.60919
49.73848
46.86605
46.24606
45.89423
45.09811
44.10876
43.10944
42.19396
41.37678
40.59278
39.71985
38.85538
37.99253
37.18903
36.39618
35.61347
34.81583
34.01385
33.25691
32.4923
31.71028
30.94276
30.18916
29.40172
28.66182
27.88454
27.06553
26.29133
25.52796
24.76548
23.96105
23.13782
22.34754
21.5432
20.69322
19.87357
19.04624
18.16213
17.29081
16.4216
15.55155
14.61634
13.63128
12.66534
11.73706
10.74399
9.714107
8.676142
7.577995
6.450506
5.289778
4.087173
2.935526
1.641268
0.3114363
-1.057309
-2.54096
-3.997249
-5.640963
-7.360744
-9.166647
-11.05872
-13.17834
-15.50362
-18.05876
-20.8791
-24.07453
-27.86731
-32.2248
-38.53368
-43.67192
50.32813
47.63241
46.58697
46.02654
45.25309
44.33299
43.29535
42.32715
41.52177
40.78162
39.90957
39.0189
38.10776
37.31279
36.53974
35.74401
34.91026
34.09037
33.35797
32.59273
31.79391
31.03189
30.28458
29.46683
28.78133
27.97159
27.12317
26.36309
25.57248
24.83443
24.02008
23.22798
22.43579
21.60349
20.70722
19.89194
19.07201
18.19163
17.34011
16.46258
15.55512
14.62031
13.66892
12.69383
11.74049
10.76296
9.733065
8.661188
7.565142
6.451947
5.316186
4.098182
2.931136
1.585849
0.2846405
-1.057668
-2.600599
-4.020823
-5.722061
-7.393505
-9.206224
-11.16388
-13.29251
-15.62657
-18.18231
-21.02495
-24.26497
-28.06678
-32.45527
-38.37963
-43.76493
-2.625481
0.1208019
3.326506
5.657412
7.586231
9.444855
11.00082
12.44808
13.76807
15.01931
16.2045
17.23512
18.26914
19.3025
20.23847
21.14233
22.00574
22.87456
23.68319
24.48072
25.2267
25.98846
26.71264
27.40016
28.12426
28.84137
29.49039
30.16333
30.80488
31.41674
32.03484
32.70595
33.34622
33.8825
34.49607
35.07657
35.68954
36.27425
36.85803
37.43794
38.04247
38.62296
39.19696
39.75826
40.31665
40.8979
41.46819
42.01436
42.58264
43.19507
43.78272
44.34338
44.90554
45.48436
46.12284
46.73729
47.30195
47.94906
48.58765
49.20836
49.84601
50.49866
51.14609
51.91107
52.70257
53.35133
54.07167
54.66502
54.93849
54.8684
53.98249
-13.21237
-13.47535
-18.67521
-23.36222
-25.11605
-23.88187
-20.14683
-14.68155
-9.152666
-5.414266
-3.893831
-3.504137
-7.153658
-11.41422
-16.30361
-19.40722
-21.25441
-21.44886
-20.64457
-18.90285
-17.76622
-21.46595
-26.82827
-25.26439
-19.6789
-15.28014
-14.49591
-15.50741
-15.88868
-15.34585
-14.52211
-13.46594
-12.79234
-12.07929
-10.99732
-10.51354
-10.0034
-8.880697
-7.282159
-9.14154
-10.99759
-9.45703
-7.311872
-6.842103
-7.227413
-7.30977
-6.199706
-8.501023
-8.85281
-11.30681
-66.37056
-68.33837
-69.81703
-75.27294
-87.118
-97.42805
-94.73147
-84.46533
-81.20956
-83.15203
-86.68858
-89.64287
-90.69504
-90.75105
-90.71668
-90.70323
-90.66144
-90.49812
-90.38104
-90.19407
-89.90902
-89.44257
-88.74795
-87.84103
-86.79286
-85.54483
-84.09842
-82.42908
-80.62125
-78.69812
-76.65944
-74.54792
-72.18047
-69.74182
-67.2166
-64.5485
-61.87171
-59.0879
-56.16982
-53.33485
-50.32143
-47.28087
-44.39898
-41.4579
-38.52262
-35.50961
-32.571
-29.74289
-27.06164
-24.38686
-21.70618
-19.30543
-16.88749
-14.74078
-12.52743
-10.44975
-8.465323
-6.59838
-4.913126
-3.367214
-2.051851
-0.8331768
0.1964293
1.086162
1.866568
2.522302
2.987081
3.386771
3.677339
3.871938
3.834834
3.6808
3.413086
2.986152
2.378348
1.740653
0.9848739
0.2090062
-0.731587
-1.640418
-2.634472
-3.596817
-4.568013
-5.583026
-6.579826
-7.562013
-8.491021
-9.434123
-10.28843
-11.11587
-11.88086
-12.56947
-13.22788
-13.88155
-14.46776
-14.93567
-15.3287
-15.53121
-15.53682
-12.8075
-57.84838
-53.17296
-57.22813
-62.21334
-58.77871
-51.85074
-51.64936
-51.33041
-51.20866
-51.14588
-51.26356
-51.21728
-51.10002
-51.0189
-51.19238
-51.54816
-51.76915
-51.70289
-51.30864
-51.05773
-51.41015
-52.292
-53.17286
-54.43047
-56.76906
-62.27798
-71.50627
-76.32369
-69.30153
-62.83017
-63.56925
-66.33358
-67.6954
-68.52919
-68.77092
-68.65359
-67.65542
-66.00788
-64.38839
-62.57365
-61.64534
-61.31171
-62.78145
-65.48148
-68.26861
-69.67116
-70.07317
-68.79046
-67.22535
-69.24656
-0.01513227
-0.003286756
-6.232455
2.475598
0.9955798
-0.155135
0.03849512
1.53852
0.5789978
0.07529387
1.921552
1.147323
-0.006539393
21.7729
0.08981284
2.622637
8.515221
-20.18797
3.778303
12.71314
-1.058945
3.920974
0.04224279
3.375209
-0.04187373
3.184238
3.371302
-0.5184128
1.659142
-0.3198534
5.78479
-0.6381772
-107.365
-0.1324994
4.856221
0.0979823
0.04796618
6.009499
-0.005914268
3.922978
6.777304
-0.003248037
-3.408889
0.9433859
0.5958505
10.90108
-0.02146048
-0.001593099
0.001357134
7.586375
-4.58561
0.01403855
-1.217762
0.02860311
4.155633
0.05632488
-2.985561
3.173636
-10.01093
-0.0003181741
0.2223964
3.944293
-0.09658945
0.7166611
7.992501
0.08316453
-0.08672386
3.321189
12.29967
-1.590767
1.490089
-0.008351185
5.358116
-0.6504388
2.814122
3.555094
2.060431
1.758485
-0.0005684137
4.815232
0.5151589
2.10977
0.4778533
-0.09738901
0.3506021
0.1022536
7.870447
0.04319999
-0.3534936
-1.079901
5.01347
5.863958
3.233577
-0.1683213
0.6157592
-2.486027
3.286802
3.850053
-159.2408
0.6385271
-0.1245511
19.4945
13.40941
0.388716
-4.985784
2.242879
0.006702881
4.209056
-0.1645566
1.731944
0.0485858
-139.9034
0.03682369
-1.677324
-4.401646
0.02124332
-0.1207284
-1.640531
-8.412714
-1.421999
-0.4769085
-1.85004
-0.3008501
0.1240734
1.518795
-0.385377
0.003501313
0.1287204
-3.514587
0.004990543
12.35581
6.861459
2.398021
-0.5859544
0.09326721
-0.06081016
-4.213736
-148.234
-21.60936
6.127752
2.495993
7.830146
2.485426
-4.61775
-0.1209344
0.4319418
4.983379
-0.6513313
0.04131516
0.880239
1.770099
0.2212925
-0.3340428
1.901665
16.44898
1.359334
0.08282426
-0.9001105
0.005111602
0.08766169
1.541005
1.949679
-3.042726
0.01779214
6.324507
-0.1242426
-0.1587564
4.836928
-0.4499586
-0.7039693
0.2057046
0.461389
0.03615928
-7.566826
-0.382881
0.00331059
-0.4262111
-0.15281
-0.1198873
4.898541
-0.0581211
3.048327
-11.73276
-1.734259
-0.5930033
-5.951927
4.247873
3.858301
5.655447
-0.2557025
-4.221659
0.05731685
2.679138
0.08124431
15.86603
-0.4754022
-1.148017
0.743281
-14.40614
-0.4765284
5.549051
-0.7920113
-0.4533862
12.02818
-0.6998794
-2.003067
0.02984141
-7.449881
-9.486434
-0.1054992
0.03401088
1.473354
0.0434198
3.86957
0.04199455
0.02150863
-2.013768
-0.2220654
0.3297426
1.686852
-8.937424
-6.008285
1.625045
0.1934139
25.42416
2.067432
2.648719
0.0570781
-5.340216
-15.04996
0.1008042
0.569004
-16.27224
4.04751
1.965607
4.421642
0.9668387
3.487252
5.892057
0.1317453
-4.794622
0.4226186
0.06359723
-0.2141444
0.2761439
2.409068
-2.066908
-2.694291
1.88143
3.427277
3.412817
-148.8668
7.593058
-0.724318
0.0467353
27.21666
-0.6251209
0.1548522
-1.243336
-1.293265
0.5507771
0.5724427
-0.9279557
1.021638
4.796913
1.366832
0.1575552
1.210452
1.892472
0.4706579
-1.332621
0.06985386
-0.2283478
0.05745975
6.410239
9.064287
3.924114
0.1435081
2.599734
0.1087112
-1.362645
-48.67065
2.438199
-0.6439689
6.299114
0.08329366
-4.209037
5.093679
6.016531
1.292085
1.785367
0.05210335
-104.4195
3.943152
5.037965
7.179253
-0.02414609
20.01248
3.510162
-2.303772
-0.6504204
5.237552
-1.368821
10.69823
-2.315373
-0.07552191
-4.199131
3.862291
0.0994181
0.1014667
0.01230134
1.438113
0.04202017
12.28459
-2.667496