/*--------------------------------*- C++ -*----------------------------------*\
| =========                 |                                                 |
| \\      /  F ield         | OpenFOAM: The Open Source CFD Toolbox           |
|  \\    /   O peration     | Version:  2406                                  |
|   \\  /    A nd           | Website:  www.openfoam.com                      |
|    \\/     M anipulation  |                                                 |
\*---------------------------------------------------------------------------*/
FoamFile
{
    version     2.0;
    format      ascii;
    arch        "LSB;label=32;scalar=64";
    class       surfaceScalarField;
    location    "0.92";
    object      phi;
}
// * * * * * * * * * * * * * * * * * * * * * * * * * * * * * * * * * * * * * //

dimensions      [0 3 -1 0 0 0 0];

oriented        oriented;

internalField   nonuniform List<scalar> 
326221
(
-0.002077371
-0.004415932
0.006493303
-0.0009117924
-0.001165579
0.000210556
-0.001122348
-0.001164885
0.001375441
-0.001042445
-0.0001224402
-0.0003552453
-0.0006871993
-0.0002903848
-6.486051e-05
-0.0001148287
-0.0001755561
-2.641342e-06
-0.0001121874
9.953608e-06
-1.259495e-05
-1.678999e-05
2.67436e-05
-5.302962e-05
3.623964e-05
-5.551042e-05
2.480798e-06
5.142004e-05
-0.0001069305
0.000190222
-0.0001388019
0.0001958157
-5.593759e-06
7.972629e-05
0.0001160894
-0.0001089817
0.000188708
-0.0002405058
0.0001315241
-0.0001928264
-4.767941e-05
-3.795802e-05
-0.0001548684
0.0001045004
-0.0001424585
0.0002163194
-0.0001118189
0.0003677346
-0.0001514152
0.0007974149
-0.0004296803
0.001557017
-0.0007596019
0.001945677
-0.0003886607
0.00102564
0.0009200376
-0.0004581693
0.001483809
-0.0006137924
0.0001556231
0.0001669633
-0.0007807557
0.0005708495
-0.0004038862
0.0001764578
0.0003943917
-0.0006662503
0.0008427081
-0.001297975
0.0006317251
-0.001582586
0.0002846101
-0.001617468
3.488297e-05
-0.001505762
-0.0001117069
-0.001303241
-0.0002025211
-0.0009889614
-0.0003142792
-0.0005667115
-0.0004222499
3.764739e-05
-0.0006043589
0.0006094338
-0.0005717864
0.001132611
-0.0005231771
0.001388198
-0.000255587
0.001252221
0.0001359773
0.0006485972
0.0006036234
0.0002283229
0.0004202743
0.0008381444
-0.0006098215
-0.0006578481
0.001495992
-0.0004495979
-0.0002082502
0.0001838044
-0.0006334023
0.0009491741
-0.0007653697
0.001947269
-0.0009980949
0.002120814
-0.0001735453
0.0005669243
0.00155389
-0.001198986
0.001765911
-0.001087269
-0.0001117176
-0.0001267013
-0.0009605675
0.0007093585
-0.0008360598
0.0009187797
-0.0002094212
0.0006394804
0.0002792993
0.0003623679
0.0002771125
0.0001983228
0.0001640451
-0.0001046982
0.000303021
-0.0006018483
0.00049715
-0.001168609
0.0005667603
-0.001690703
0.0005220944
-0.002122903
0.0004321997
-0.002463342
0.0003404393
-0.002730007
0.000266665
-0.002939094
0.0002090874
-0.003105635
0.0001665409
-0.003242383
0.0001367473
-0.003356252
0.0001138689
-0.003447659
9.14072e-05
-0.003517491
6.983179e-05
-0.003567234
4.974385e-05
-0.003600858
3.362326e-05
-0.00362031
1.945248e-05
-0.003626889
6.579156e-06
-0.003619927
-6.96184e-06
-0.003594751
-2.517636e-05
-0.003491869
-0.0001028821
-0.003469503
-2.236645e-05
-0.003442897
-2.66059e-05
-0.003410504
-3.239279e-05
-0.003366027
-4.447711e-05
-0.003321196
-4.483039e-05
-0.003271278
-4.991867e-05
-0.003204316
-6.696196e-05
-0.003139859
-6.4457e-05
-0.003072992
-6.686638e-05
-0.00299355
-7.944223e-05
-0.002902357
-9.11929e-05
-0.002795141
-0.0001072164
-0.00268265
-0.0001124912
-0.002562244
-0.0001204057
-0.002430181
-0.0001320628
-0.002289563
-0.0001406182
-0.002145811
-0.0001437521
-0.002007236
-0.000138575
-0.001873776
-0.0001334603
-0.001752865
-0.0001209102
-0.001632079
-0.0001207866
-0.001515409
-0.0001166695
-0.001397539
-0.0001178704
-0.001266653
-0.000130886
-0.001110909
-0.0001557433
-0.0009436566
-0.0001672528
-0.000788795
-0.0001548616
-0.0006420314
-0.0001467636
-0.0004934962
-0.0001485352
-0.0003526157
-0.0001408805
-0.0002295787
-0.0001230371
-0.0001104438
-0.0001191348
2.780428e-05
-0.0001382481
0.0001596872
-0.0001318829
0.0002837113
-0.0001240241
0.0004252078
-0.0001414966
0.0005668892
-0.0001416814
0.0007026718
-0.0001357826
0.0008394683
-0.0001367965
0.0009777577
-0.0001382894
0.00110485
-0.0001270923
0.001226716
-0.0001218659
0.001342955
-0.0001162389
0.001455662
-0.0001127067
0.001558818
-0.0001031569
0.001657757
-9.893908e-05
0.001749047
-9.128961e-05
0.001829579
-8.053144e-05
0.001903522
-7.394349e-05
0.001975261
-7.173878e-05
0.002041037
-6.577575e-05
0.002095704
-5.46679e-05
0.002144633
-4.892807e-05
0.002182908
-3.827515e-05
0.002200223
-1.731496e-05
0.002180862
1.936021e-05
0.002091796
8.906621e-05
0.001884494
0.0002073018
0.001520992
0.0003635025
0.001037282
0.0004837102
0.0005793964
0.0004578854
0.0003228142
0.0002565822
0.0001766857
0.0001461285
-0.000152706
0.0003293917
-0.0001239683
-2.87377e-05
0.0002885828
-0.0004125512
-0.0003153765
0.0006039593
0.0004033196
-0.0007186961
-0.0003620758
0.0007653954
-0.001532352
0.001170276
-0.002158579
0.0006262265
-0.00206222
-9.635863e-05
-0.001635996
-0.0004262239
-0.001050238
-0.0005857586
-0.0004006069
-0.0006496307
0.0002697658
-0.0006703727
0.0007574103
-0.0004876444
0.001467682
-0.0007102713
0.001993517
-0.0005258351
0.002384884
-0.0003913674
0.00254109
-0.0001562063
0.002299495
0.0002415949
0.00144889
0.000850606
0.0003220919
0.001126798
-0.0001027264
0.0004248183
0.0001757778
-0.0002785041
0.0003043069
-0.0001285291
-0.0001796656
0.0004839725
-0.0007692074
0.0005895419
-0.000720634
-4.857342e-05
-0.0002018677
-0.0005187663
0.0001785309
-0.0003803986
7.716537e-05
0.0001013656
-0.0002330022
0.0003101676
-0.0006076806
0.0003746783
-0.0006778668
7.018623e-05
-0.0005119709
-0.0001658959
-0.0001990223
-0.0003129485
2.113482e-05
-0.0002201572
0.0001410594
-0.0001199246
4.601593e-05
9.504345e-05
-0.0003392539
0.0003852698
-0.0006227033
0.0002834494
-0.0003364807
-0.0002862226
0.0003122578
-0.0006487385
-7.15782e-05
0.000383836
-0.0008811946
0.0008096164
-0.0007653607
-0.0001158339
-0.0002057029
-0.0005596578
0.0001864081
-0.000392111
0.0001097596
7.66485e-05
0.0001152473
-5.487672e-06
5.273104e-05
6.251621e-05
0.0009319845
-0.0008792534
0.00161191
-0.0006799256
-0.003049667
0.004661578
-0.003275229
0.0002255618
-0.002969055
-0.0003061741
-0.002819843
-0.0001492125
-0.002678998
-0.0001408449
-0.002569068
-0.0001099298
-0.002467063
-0.0001020049
-0.002377637
-8.942625e-05
-0.002232136
-0.0001455009
-0.002168773
-6.336298e-05
-0.002119944
-4.8829e-05
-0.002074721
-4.522333e-05
-0.002035286
-3.943487e-05
-0.001996001
-3.928456e-05
-0.001958035
-3.796579e-05
-0.0019213
-3.673504e-05
-0.001889048
-3.225206e-05
-0.001859222
-2.982607e-05
-0.001829982
-2.92404e-05
-0.00180039
-2.959236e-05
-0.001773034
-2.735545e-05
-0.001746166
-2.686798e-05
-0.001721149
-2.501741e-05
-0.001699509
-2.163919e-05
-0.001676338
-2.317103e-05
-0.001652087
-2.42516e-05
-0.001626455
-2.563181e-05
-0.001602986
-2.346919e-05
-0.001582157
-2.082875e-05
-0.001563811
-1.834649e-05
-0.001543747
-2.006332e-05
-0.001523144
-2.060322e-05
-0.001499852
-2.329178e-05
-0.001480095
-1.975713e-05
-0.001462425
-1.766997e-05
-0.001442729
-1.969613e-05
-0.001421955
-2.077408e-05
-0.001399575
-2.238019e-05
-0.001379539
-2.003591e-05
-0.001360807
-1.873183e-05
-0.001389858
2.90512e-05
-0.001382886
-6.971993e-06
-0.001370558
-1.232817e-05
-0.001357599
-1.295902e-05
-0.001346681
-1.091778e-05
-0.001334939
-1.174227e-05
-0.001324598
-1.034075e-05
-0.001315404
-9.194722e-06
-0.001306571
-8.83215e-06
-0.001294501
-1.20703e-05
-0.001281697
-1.280446e-05
-0.001271624
-1.007258e-05
-0.001263734
-7.889761e-06
-0.001257968
-5.766404e-06
-0.001248506
-9.462162e-06
-0.001235438
-1.306791e-05
-0.001223771
-1.166667e-05
-0.001214088
-9.683353e-06
-0.001202372
-1.171626e-05
-0.00119323
-9.141169e-06
-0.00118411
-9.120009e-06
-0.001174928
-9.182706e-06
-0.001167059
-7.868617e-06
-0.001158446
-8.613266e-06
-0.00113477
-2.367594e-05
-0.001104706
-3.006362e-05
-0.001081891
-2.281544e-05
-0.00104356
-3.833075e-05
-0.0009594601
-8.409997e-05
-0.000640712
-0.0003187481
0.0002741718
-0.0009148838
0.001246478
-0.0009723067
0.0006309845
0.000615494
0.0005246981
0.0001062864
0.0006996471
-0.000174949
0.0009423113
-0.0002426642
0.001112478
-0.0001701667
0.001228072
-0.0001155942
0.001307609
-7.953687e-05
0.001357944
-5.033512e-05
0.001395101
-3.715721e-05
0.001434658
-3.955667e-05
0.001469105
-3.444722e-05
0.001497274
-2.816848e-05
0.001515966
-1.869266e-05
0.001531277
-1.531016e-05
0.001544744
-1.346751e-05
0.001560183
-1.543884e-05
0.001573441
-1.325761e-05
0.001582838
-9.39758e-06
0.001592325
-9.48706e-06
0.001604692
-1.2367e-05
0.001615722
-1.102987e-05
0.001626104
-1.038198e-05
0.001639393
-1.328883e-05
0.001650222
-1.082869e-05
0.001665203
-1.498175e-05
0.001683584
-1.838057e-05
0.001698264
-1.467995e-05
0.001709512
-1.124834e-05
0.001722591
-1.307842e-05
0.001737869
-1.527887e-05
0.001745948
-8.078382e-06
0.00170655
3.939788e-05
0.001728503
-2.195355e-05
0.001756619
-2.81154e-05
0.00178514
-2.852137e-05
0.001813637
-2.849661e-05
0.001843998
-3.036082e-05
0.001872258
-2.825987e-05
0.001897354
-2.509635e-05
0.001924488
-2.713436e-05
0.001955235
-3.074688e-05
0.001989156
-3.392067e-05
0.002017722
-2.856598e-05
0.002044306
-2.658415e-05
0.002072963
-2.865658e-05
0.002104334
-3.137164e-05
0.002136079
-3.17449e-05
0.002172002
-3.592323e-05
0.002209323
-3.732053e-05
0.002246458
-3.713522e-05
0.002284432
-3.797434e-05
0.002319035
-3.460263e-05
0.002361249
-4.221406e-05
0.002405377
-4.412745e-05
0.002451269
-4.589212e-05
0.00250036
-4.90913e-05
0.002550976
-5.061571e-05
0.00260723
-5.625474e-05
0.002669248
-6.201787e-05
0.002731907
-6.265879e-05
0.002799821
-6.791376e-05
0.002877879
-7.805771e-05
0.002973492
-9.561348e-05
0.00317194
-0.000198448
0.003307202
-0.0001352619
0.003460322
-0.0001531199
0.003630792
-0.0001704699
0.003849024
-0.0002182326
0.004067128
-0.0002181034
0.004590941
-0.000523813
0.000175009
0.001021212
-0.001260202
0.0008544838
0.001257538
-0.0001300398
0.001501588
-0.000418999
0.001709471
-0.0004505465
0.001911475
-0.0003721713
0.002099978
-0.0003040967
0.002265712
-0.0002452709
0.002403451
-0.000188074
0.002522413
-0.0001561198
0.002637597
-0.0001547401
0.002743982
-0.000140832
0.002843073
-0.0001272602
0.002931117
-0.0001067361
0.003013652
-9.784589e-05
0.003089995
-8.981038e-05
0.003165126
-9.056934e-05
0.003235388
-8.351936e-05
0.003300738
-7.474773e-05
0.003362626
-7.137549e-05
0.003424139
-7.387999e-05
0.003482379
-6.926923e-05
0.003537727
-6.573015e-05
0.00359359
-6.915177e-05
0.003645251
-6.249035e-05
0.003698453
-6.818361e-05
0.003751977
-7.190453e-05
0.003803352
-6.605528e-05
0.003850342
-5.823809e-05
0.003898473
-6.120915e-05
0.003946358
-6.316416e-05
0.003990303
-5.202341e-05
0.003946099
8.360197e-05
0.004001836
-7.769076e-05
0.004060673
-8.695175e-05
0.004119693
-8.754135e-05
0.004178494
-8.72982e-05
0.00423777
-8.963621e-05
0.004296239
-8.672879e-05
0.004351337
-8.019479e-05
0.004408349
-8.4146e-05
0.004465754
-8.815226e-05
0.004526917
-9.508323e-05
0.004583189
-8.483827e-05
0.004639359
-8.275429e-05
0.004695483
-8.478033e-05
0.004754008
-8.989688e-05
0.004811978
-8.971493e-05
0.004873219
-9.716376e-05
0.004935752
-9.985437e-05
0.004998121
-9.95039e-05
0.005062304
-0.0001021576
0.005123112
-9.541059e-05
0.005190506
-0.0001096076
0.00525766
-0.0001112819
0.005328094
-0.0001163258
0.005399403
-0.0001203999
0.005473573
-0.0001247858
0.005550722
-0.0001334046
0.005633521
-0.0001448163
0.005716403
-0.0001455413
0.00580452
-0.0001560306
0.005900175
-0.0001737125
0.006010231
-0.000205669
0.006284371
-0.0004725887
0.006435489
-0.0002863797
0.006608512
-0.0003261433
0.006794378
-0.0003563354
0.007039266
-0.0004631214
0.007240163
-0.0004190001
0.007845823
-0.001129473
0.006955192
0.00106564
-0.006117505
0.005145325
0.001197742
-0.005729962
-0.0006937174
-0.005598589
-0.0002805855
-0.005430025
-0.0003094085
-0.005302189
-0.0002377657
-0.005178639
-0.000225555
-0.005070625
-0.0001974399
-0.004857368
-0.0003587588
-0.004779225
-0.0001415052
-0.004712742
-0.0001153124
-0.004648459
-0.0001095063
-0.00458918
-9.871412e-05
-0.004529388
-9.90765e-05
-0.004471854
-9.549981e-05
-0.004414204
-9.438532e-05
-0.004360994
-8.546133e-05
-0.004307909
-8.29111e-05
-0.004256804
-8.034543e-05
-0.004204278
-8.211857e-05
-0.004154445
-7.71885e-05
-0.004104058
-7.725477e-05
-0.00405544
-7.363514e-05
-0.004008601
-6.847898e-05
-0.003960775
-7.099716e-05
-0.003912803
-7.222328e-05
-0.003863592
-7.484219e-05
-0.003816514
-7.05479e-05
-0.003769858
-6.748448e-05
-0.003725407
-6.279717e-05
-0.003678157
-6.731393e-05
-0.003631838
-6.692169e-05
-0.003582381
-7.274874e-05
-0.003535828
-6.631094e-05
-0.00348908
-6.441774e-05
-0.003441024
-6.775194e-05
-0.003391588
-7.020981e-05
-0.003341045
-7.292302e-05
-0.003292044
-6.903731e-05
-0.003243533
-6.724279e-05
-0.003276335
6.185343e-05
-0.00323795
-4.535754e-05
-0.003196458
-5.382002e-05
-0.003153471
-5.594587e-05
-0.003112113
-5.227528e-05
-0.003068283
-5.557236e-05
-0.003025184
-5.344003e-05
-0.002980754
-5.362471e-05
-0.002935812
-5.377427e-05
-0.002887285
-6.059765e-05
-0.002837744
-6.234555e-05
-0.002788512
-5.930435e-05
-0.002738482
-5.79199e-05
-0.002687831
-5.641742e-05
-0.002632219
-6.507431e-05
-0.002573006
-7.228053e-05
-0.002512
-7.267285e-05
-0.002449556
-7.212717e-05
-0.002380902
-8.037064e-05
-0.002309807
-8.023577e-05
-0.002231657
-8.726991e-05
-0.002146563
-9.427626e-05
-0.002053856
-0.0001005759
-0.001952159
-0.0001103107
-0.001828839
-0.0001469954
-0.001690303
-0.0001685997
-0.001543938
-0.0001691811
-0.001365421
-0.0002168477
-0.001118498
-0.0003310223
-0.0006547402
-0.0007825062
0.0002652904
-0.001834914
-0.001967218
-0.000837466
-0.0005584118
0.001999837
-0.0003632834
-0.001192879
-0.001588391
0.001990503
-0.002798705
0.002380591
-0.002938818
0.0007663391
-0.002619656
-0.0004155205
-0.002087713
-0.0009581668
-0.001344875
-0.001328596
-0.0005334548
-0.001461051
0.00031617
-0.001519998
0.0009548627
-0.001126337
0.00184543
-0.001600839
0.002571021
-0.001251426
0.00315459
-0.0009749358
0.003545004
-0.0005466211
0.003782629
3.970616e-06
0.003497187
0.001136048
0.002338776
0.002285208
0.0008081283
0.001955466
0.0001327515
0.0003968726
-5.612629e-06
9.835014e-06
-0.0005714984
0.001049858
-0.001206262
0.001224305
-0.0009840122
-0.0002708232
-0.0002856796
-0.001217099
0.0002881206
-0.0009541988
-6.159372e-07
0.0003901021
-0.0006731791
0.0009827308
-0.001035789
0.0007372885
-0.0009269867
-3.86163e-05
-0.0006255888
-0.0004672939
-0.0001863059
-0.0007522314
0.0001415545
-0.0005480175
0.0003975751
-0.0003759452
0.0003750318
0.0001175867
-0.0003514966
0.001111798
-0.0008005274
0.0007324802
-0.0004365971
-0.0006501529
0.0001937921
-0.001279128
-0.0004331547
0.001010783
-0.00131394
0.001690402
-0.0008920139
-0.0005377604
-0.0002017047
-0.001249967
0.0003743901
-0.0009682058
0.0003729236
7.811499e-05
0.0002609898
0.0001064461
0.0005475293
-0.0002240233
0.001557431
-0.001889155
0.001005449
-0.0001279437
0.01081235
-0.001413211
0.001063287
0.0001416744
-0.001198256
-0.0008483576
-0.0002280935
-0.001735532
0.0008906538
-0.002116842
0.001760124
-0.001043015
0.001155702
0.002158312
-0.0007537568
0.00367537
-0.001731473
0.0008659985
-0.00142341
-0.001268631
-0.001000768
-0.001258701
-0.0003843366
-0.0008258531
-0.0003987567
0.0002937194
-0.001396195
0.001274551
-0.002570635
0.001338485
-0.003625967
0.001358353
-0.004542686
0.001413869
-0.005284686
0.00130876
-0.005820162
0.001057571
-0.006180285
0.000792322
-0.006414071
0.0005742258
-0.006563615
0.0004162086
-0.006655305
0.0003007775
-0.006706354
0.0002175906
-0.006728699
0.0001590917
-0.006729128
0.0001142978
-0.006709846
7.212576e-05
-0.00667341
3.339561e-05
-0.006622884
-7.821948e-07
-0.006563274
-2.59871e-05
-0.00649713
-4.669149e-05
-0.006425507
-6.504335e-05
-0.006347278
-8.519078e-05
-0.00626005
-0.0001124047
-0.006047931
-0.0003150006
-0.005963981
-0.000106317
-0.005873707
-0.0001168796
-0.00577651
-0.0001295898
-0.005665336
-0.0001556516
-0.005549447
-0.000160719
-0.005424599
-0.0001747671
-0.005279171
-0.0002123897
-0.00513026
-0.0002133682
-0.004973348
-0.0002237785
-0.004800447
-0.0002523431
-0.004614116
-0.0002775236
-0.004411428
-0.0003099045
-0.004203687
-0.0003202316
-0.003989664
-0.0003344293
-0.003767948
-0.0003537788
-0.003542996
-0.0003655696
-0.003320298
-0.0003664502
-0.003107651
-0.0003512224
-0.002903898
-0.0003372137
-0.002714425
-0.0003103828
-0.002523595
-0.000311617
-0.002330204
-0.0003100598
-0.002124844
-0.0003232305
-0.001898131
-0.0003575992
-0.001646086
-0.0004077882
-0.0013883
-0.0004250392
-0.001148005
-0.0003951568
-0.0009167433
-0.000378025
-0.0006821825
-0.0003830959
-0.0004564763
-0.0003665867
-0.000253824
-0.0003256893
-5.536597e-05
-0.0003175928
0.0001643773
-0.0003579914
0.0003768267
-0.0003443323
0.0005821629
-0.0003293603
0.0008047687
-0.0003641024
0.001027843
-0.0003647556
0.001245914
-0.0003538538
0.00146497
-0.0003558522
0.001685313
-0.0003586321
0.00189524
-0.00033702
0.002100202
-0.0003268273
0.002298782
-0.0003148195
0.002493094
-0.0003070184
0.002677628
-0.0002876905
0.002857327
-0.0002786386
0.003028787
-0.0002627496
0.003189581
-0.0002413253
0.003343127
-0.00022749
0.003492709
-0.0002213205
0.003635318
-0.0002083849
0.00376737
-0.0001867192
0.003894288
-0.0001758461
0.004011356
-0.0001553436
0.004115211
-0.0001211695
0.004206878
-7.230702e-05
0.004269878
2.606653e-05
0.004265595
0.0002115844
0.004128593
0.0005005046
0.003796048
0.0008162555
0.003305901
0.0009480317
0.00266577
0.0008967131
0.001731286
0.001080613
0.0008446708
0.001216007
0.0005292947
0.0002866385
-0.0004416683
-0.0009521002
0.01440059
-0.002006532
-0.0001111472
-0.00133032
-0.00179856
-0.001947007
0.001992127
-0.001450131
-0.0006193161
-0.0006337356
-0.001503594
-0.0004873561
-0.00021124
-0.0002140642
-0.000448848
-4.090753e-05
-0.0002853441
-2.710318e-05
-2.63993e-05
-9.088343e-05
9.052386e-05
-0.0001387625
8.411865e-05
-0.0001279955
-8.286152e-06
4.318803e-05
-0.000278114
0.0002775761
-0.00037319
0.0003655641
-9.358178e-05
0.000268492
0.0002131616
-4.660611e-05
0.0005038061
-0.0003803863
0.0004653043
-0.0004376798
9.614114e-06
-0.0003091095
-0.0002834387
-0.0001789082
-0.0002726599
-3.340397e-05
-0.0002573231
0.0002415788
-0.000426398
0.0008465421
-0.001034644
0.001782418
-0.001695478
0.002496629
-0.001102872
0.001936822
0.001479845
0.0001583281
0.003262303
-0.0006063784
0.0009203295
-0.0002467054
-0.001140429
-0.0003888573
-0.0002617343
-0.001255627
0.001261162
-0.00223173
0.001818811
-0.002632162
0.001032157
-0.002637861
0.000290309
-0.002488957
-0.0001140209
-0.002227314
-0.0003733505
-0.001865383
-0.0005644521
-0.001380713
-0.0007989488
-0.0007825507
-0.001020412
4.76151e-06
-0.001391671
0.000748677
-0.001315702
0.001410766
-0.001185266
0.001795641
-0.0006404623
0.001927012
4.606185e-06
0.001528125
0.00100251
0.0006446609
0.001303739
0.0008672387
-0.0008323993
0.003426518
0.0007020462
-0.008992555
0.0226911
-0.002333436
0.002924335
-0.002290577
-0.001841419
-0.00261871
0.002320261
-0.001855913
-0.001382113
-0.000863043
-0.002496465
-0.000633584
-0.000440699
-0.0003311366
-0.0007512954
-0.000112041
-0.0005044396
-7.229134e-05
-6.614901e-05
-0.0001666806
0.0001849131
-0.0002223464
0.0001397844
-0.0001966896
-3.394295e-05
5.80169e-06
-0.0004806053
0.0002900539
-0.0006574422
0.0004346697
-0.0002381976
0.000390587
0.0002572443
7.043662e-05
0.0008239564
-0.0003895386
0.0009252795
-0.0006187379
0.0002388134
-0.0005752665
-0.0003269101
-0.000445567
-0.0004023594
-0.0002694157
-0.0004334743
7.012965e-05
-0.0007659434
0.0007518667
-0.001716381
0.001838635
-0.002782246
0.002575071
-0.001839308
0.002206791
0.001848125
0.0006953372
0.004773757
-0.0006743525
0.002290019
-0.001378943
-0.000435838
-0.002188897
0.0005482196
-0.002956256
0.00202852
-0.003432084
0.00229464
-0.003494577
0.00109465
-0.003426552
0.0002222841
-0.003231389
-0.0003091834
-0.002885904
-0.0007188359
-0.002422244
-0.001028112
-0.001808493
-0.0014127
-0.001050483
-0.001778422
-5.202735e-05
-0.002390126
0.0008733471
-0.002241076
0.001688807
-0.002000726
0.0021405
-0.001092155
0.002344949
-0.0001998424
0.002060812
0.001286647
0.001173481
0.00219107
0.001050603
-0.0007095215
-0.001677646
0.006154768
-0.002630314
0.001094342
-0.002638046
-0.0008406253
-0.001547999
-0.002825579
-0.0002788255
-0.003386016
0.0006196116
-0.001941452
0.0007032908
0.002074632
-0.0008289066
0.005207567
-0.002867464
0.002904556
-0.003934229
-0.0002018654
-0.004364966
-0.0008279637
-0.004370978
-0.0008198418
-0.004745371
0.0006681127
-0.005684759
0.002213939
-0.00679931
0.002453035
-0.00760682
0.002165863
-0.008119475
0.001926524
-0.008412521
0.001601806
-0.008560511
0.001205562
-0.008627805
0.0008596161
-0.008651163
0.0005975836
-0.00864931
0.0004143557
-0.00862902
0.0002804878
-0.008594225
0.0001827954
-0.008548122
0.0001129882
-0.008492686
5.8862e-05
-0.008427566
7.005439e-06
-0.008352713
-4.145665e-05
-0.008269141
-8.435439e-05
-0.008177822
-0.0001173058
-0.008079424
-0.0001450896
-0.007975434
-0.0001690333
-0.007866239
-0.0001943858
-0.007750279
-0.0002283648
-0.007485055
-0.0005802246
-0.007370895
-0.0002204777
-0.007249156
-0.0002386186
-0.007120479
-0.0002582659
-0.006974949
-0.0003011819
-0.006822888
-0.0003127802
-0.006660317
-0.0003373377
-0.006472606
-0.0004001012
-0.006279869
-0.0004061049
-0.006077159
-0.0004264882
-0.005855325
-0.000474177
-0.005618594
-0.0005142553
-0.005363274
-0.0005652244
-0.005103274
-0.0005802314
-0.004837595
-0.000600108
-0.004565089
-0.0006262847
-0.004291522
-0.0006391366
-0.004022998
-0.0006349741
-0.003768653
-0.0006055682
-0.003525368
-0.0005804987
-0.003298749
-0.0005370015
-0.003068219
-0.0005421465
-0.002831495
-0.0005467837
-0.002577169
-0.0005775566
-0.002296189
-0.0006385792
-0.001987133
-0.0007168448
-0.00167498
-0.000737192
-0.00138577
-0.000684367
-0.001106758
-0.0006570363
-0.0008219566
-0.0006678976
-0.0005474591
-0.0006410843
-0.0003000339
-0.0005731145
-5.671119e-05
-0.0005609156
0.0002104505
-0.0006251531
0.0004700133
-0.0006038951
0.0007223603
-0.0005817072
0.0009947148
-0.0006364569
0.001267125
-0.0006371653
0.001534412
-0.0006211416
0.001803248
-0.0006246882
0.002073763
-0.0006291469
0.002332692
-0.0005959489
0.002586708
-0.0005808436
0.00283343
-0.0005615413
0.003075742
-0.0005493302
0.003307112
-0.0005190607
0.003533574
-0.0005051009
0.003750713
-0.0004798885
0.003956338
-0.0004469495
0.004154222
-0.0004253746
0.004347731
-0.0004148294
0.00453358
-0.0003942341
0.004708384
-0.0003615228
0.004878125
-0.0003455874
0.005037649
-0.0003148677
0.005184656
-0.0002681758
0.005320128
-0.000207779
0.005443125
-9.693116e-05
0.005557249
9.746086e-05
0.00566791
0.0003898429
0.005730581
0.000753585
0.005670008
0.001008604
0.005365094
0.001201627
0.004663391
0.001782316
0.003879064
0.002000334
0.002658366
0.001507337
0.001351507
0.0008651904
-0.001280205
0.004631549
-0.001309864
-0.00116322
-0.002719912
0.003400551
-0.003621483
0.003282162
-0.003632339
0.0007771946
-0.003296341
-0.0007515183
-0.002631631
-0.001622876
-0.001726833
-0.002233395
-0.0007304463
-0.002457438
0.0003011288
-0.002551573
0.001088746
-0.001913954
0.002172347
-0.00268444
0.003085633
-0.002164712
0.003835798
-0.001725101
0.004302193
-0.001013016
0.004570741
-0.0002645781
0.00471306
0.0009937298
0.004217248
0.002781019
0.00261811
0.003554604
0.0008102098
0.002204773
-0.0001740239
0.0009940688
-0.0009343959
0.00181023
-0.001543457
0.001833366
-0.001237612
-0.0005766676
-0.0005025492
-0.001952162
0.0001697034
-0.001626451
-0.0002187444
0.0007785498
-0.0009909602
0.001754947
-0.001203757
0.0009500851
-0.0009977893
-0.0002445838
-0.0006441415
-0.0008209417
-0.000130329
-0.001266044
0.000269742
-0.0009480886
0.0005397249
-0.000645928
0.0007458523
-8.854073e-05
9.511914e-05
0.001762531
-0.0005331289
0.001360728
-0.0003910186
-0.0007922632
-0.0001585955
-0.001511551
-0.0009270133
0.001779201
-0.001544991
0.00230838
-0.0009003229
-0.001182428
-0.0001250242
-0.002025266
0.0005681227
-0.001661353
0.0005884448
5.779287e-05
0.000358018
0.0003368729
0.0009366047
-0.00080261
0.001928425
-0.002880975
-0.0002265638
0.002027045
-0.006899242
0.01748503
-0.007955916
0.002254416
-0.00753782
-0.001111813
-0.007393568
-0.0004248375
-0.007208529
-0.000494447
-0.007070285
-0.0003760104
-0.006936114
-0.0003597255
-0.006822235
-0.0003113187
-0.006572415
-0.0006085795
-0.006488625
-0.0002252947
-0.006410986
-0.0001929519
-0.006335133
-0.0001853591
-0.006263684
-0.0001701632
-0.006190819
-0.0001719418
-0.006120356
-0.0001659625
-0.00604872
-0.0001660215
-0.005981328
-0.0001528527
-0.005912728
-0.0001515115
-0.005846372
-0.0001467009
-0.005777716
-0.000150775
-0.00571185
-0.0001430548
-0.005644557
-0.0001445475
-0.005578723
-0.0001394695
-0.005514063
-0.000133139
-0.005448155
-0.0001369048
-0.005382424
-0.0001379545
-0.005315086
-0.0001421805
-0.005249734
-0.0001358993
-0.005183571
-0.0001336478
-0.005119456
-0.000126912
-0.005051573
-0.000135197
-0.004985327
-0.0001331672
-0.004915072
-0.0001430037
-0.004847643
-0.0001337405
-0.004778872
-0.0001331883
-0.004708564
-0.0001380607
-0.004636681
-0.0001420928
-0.004563179
-0.0001464244
-0.004489782
-0.0001424344
-0.004414409
-0.0001426154
-0.00443638
8.382411e-05
-0.004367623
-0.0001141151
-0.004302614
-0.0001188285
-0.004234413
-0.0001241468
-0.004168097
-0.0001185917
-0.00409817
-0.0001254987
-0.004028846
-0.0001227643
-0.003957233
-0.0001252373
-0.003884888
-0.0001261195
-0.003808272
-0.0001372141
-0.00373039
-0.0001402274
-0.003652104
-0.0001375902
-0.003571752
-0.0001382723
-0.003489856
-0.0001383133
-0.003401781
-0.0001531495
-0.003309213
-0.0001648486
-0.00321393
-0.0001679557
-0.003115992
-0.0001700653
-0.003009698
-0.0001866642
-0.002900141
-0.0001897924
-0.002781649
-0.0002057623
-0.002654889
-0.0002210363
-0.002518417
-0.0002370482
-0.002370899
-0.0002578287
-0.002196554
-0.0003213404
-0.002004098
-0.000361055
-0.001801305
-0.0003719743
-0.001549752
-0.0004684009
-0.001208129
-0.0006726451
-0.0006607868
-0.001329848
0.0003233104
-0.002819011
0.001557881
-0.003201789
0.001642178
0.0007701868
0.001889525
-0.0003773869
0.00215347
-0.000682944
0.002393845
-0.0006909212
0.002630962
-0.0006092887
0.002854279
-0.0005274134
0.003052037
-0.0004430293
0.003218512
-0.0003545487
0.003363442
-0.0003010499
0.00350521
-0.0002965081
0.003637726
-0.0002733483
0.003763715
-0.0002532495
0.003877568
-0.0002205883
0.003986018
-0.0002062961
0.004087551
-0.0001913433
0.004188476
-0.0001914943
0.004284555
-0.0001795984
0.004375514
-0.0001657069
0.004462641
-0.0001585029
0.00454947
-0.0001607089
0.004632815
-0.0001526143
0.004712712
-0.0001456273
0.004793508
-0.0001499471
0.0048689
-0.0001378823
0.004945681
-0.0001449653
0.005022334
-0.0001485567
0.005097119
-0.0001408411
0.005166985
-0.000128104
0.005238294
-0.0001325181
0.005307721
-0.0001325909
0.005381207
-0.0001255089
0.005343581
0.0001212279
0.005425344
-0.0001594544
0.00550757
-0.0001691771
0.005588099
-0.0001680703
0.00566772
-0.0001669197
0.005747253
-0.0001691686
0.00582618
-0.0001656559
0.005901151
-0.0001551665
0.00597794
-0.0001609351
0.006053574
-0.0001637861
0.006133495
-0.0001750044
0.006208004
-0.0001593465
0.006282965
-0.0001577159
0.006357022
-0.0001588373
0.006433376
-0.0001662506
0.006508329
-0.0001646673
0.006586289
-0.0001751242
0.006665217
-0.0001787825
0.0067436
-0.0001778873
0.006824437
-0.0001829943
0.006900824
-0.0001717974
0.006984061
-0.0001928449
0.007065618
-0.0001928384
0.00715076
-0.0002014684
0.007235865
-0.0002055046
0.00732368
-0.0002126005
0.007413454
-0.0002231788
0.007508704
-0.0002400664
0.007603323
-0.0002401601
0.007702648
-0.000255356
0.007809439
-0.0002805037
0.007925721
-0.0003219505
0.008240706
-0.0007875737
0.008398284
-0.0004439574
0.00858372
-0.0005115794
0.00878465
-0.0005572656
0.009053226
-0.0007316978
0.00929306
-0.0006588334
0.009913358
-0.001749771
0.001986443
0.002047965
-0.001757646
0.0004798677
0.002450669
-0.0007800904
0.0028394
-0.001071675
0.003136521
-0.000988042
0.003388261
-0.000861029
0.003627365
-0.0007665175
0.003846646
-0.0006623106
0.004035613
-0.000543515
0.004201425
-0.0004668622
0.004364204
-0.0004592871
0.004516449
-0.0004255932
0.004662219
-0.0003990196
0.004794744
-0.0003531137
0.004921322
-0.0003328739
0.005040183
-0.0003102046
0.00515807
-0.0003093813
0.005270953
-0.0002924807
0.005377659
-0.0002724132
0.005480405
-0.0002612486
0.005582593
-0.0002628968
0.005680931
-0.0002509526
0.005775354
-0.0002400503
0.005871213
-0.0002458065
0.005960547
-0.0002272162
0.006051754
-0.0002361721
0.006143108
-0.0002399105
0.006232064
-0.0002297969
0.006316062
-0.0002121028
0.006401569
-0.0002180252
0.006484846
-0.0002158681
0.006575824
-0.0002164868
0.00653293
0.0001641221
0.006630167
-0.0002566914
0.006729541
-0.0002685512
0.00682573
-0.0002642595
0.006920933
-0.0002621219
0.007016201
-0.0002644373
0.007110599
-0.0002600537
0.007200564
-0.0002451316
0.00729255
-0.0002529209
0.007383167
-0.0002544035
0.00747882
-0.0002706566
0.007568154
-0.0002486805
0.00765815
-0.0002477121
0.007747297
-0.0002479843
0.007838876
-0.0002578297
0.00792877
-0.0002545613
0.008022356
-0.0002687109
0.008116859
-0.0002732854
0.008210833
-0.0002718611
0.008307926
-0.0002800871
0.008399279
-0.0002631506
0.008499356
-0.0002929215
0.008596656
-0.0002901386
0.008698095
-0.0003029075
0.008799758
-0.0003071681
0.008903728
-0.0003165699
0.009010551
-0.0003300019
0.009123102
-0.000352618
0.009234681
-0.0003517387
0.009351587
-0.0003722621
0.009477255
-0.0004061713
0.009813491
-0.0006581862
0.00998527
-0.0009593535
0.01016678
-0.0006254656
0.01038402
-0.0007288208
0.0106273
-0.0008005421
0.01094402
-0.00104842
0.01128436
-0.00099917
0.01185131
-0.002316729
0.0111357
0.002702058
-0.009568342
0.008663443
0.003159315
-0.009183186
-0.001496969
-0.008979657
-0.0006283671
-0.008763768
-0.0007103358
-0.00859847
-0.0005413089
-0.008441483
-0.0005167123
-0.008311147
-0.0004416548
-0.008183368
-0.0007363582
-0.007917685
-0.0004909773
-0.007825737
-0.0002849
-0.007735271
-0.000275825
-0.007649782
-0.0002556524
-0.007562327