/*--------------------------------*- C++ -*----------------------------------*\
| =========                 |                                                 |
| \\      /  F ield         | OpenFOAM: The Open Source CFD Toolbox           |
|  \\    /   O peration     | Version:  2406                                  |
|   \\  /    A nd           | Website:  www.openfoam.com                      |
|    \\/     M anipulation  |                                                 |
\*---------------------------------------------------------------------------*/
FoamFile
{
    version     2.0;
    format      ascii;
    arch        "LSB;label=32;scalar=64";
    class       volScalarField;
    location    "0.04";
    object      p;
}
// * * * * * * * * * * * * * * * * * * * * * * * * * * * * * * * * * * * * * //

dimensions      [0 2 -2 0 0 0 0];

internalField   nonuniform List<scalar> 
4531
(
-0.0007061133
-3.552916e-05
-0.0001655785
-0.0001188154
-7.824447e-05
-0.0001077599
-5.219688e-05
-7.284765e-05
-6.900897e-05
-4.460216e-05
-6.70241e-05
-4.543645e-05
-5.798878e-05
-1.370135e-05
-2.777136e-05
-1.575541e-05
-1.532038e-05
-1.192186e-05
1.130955e-05
-1.003319e-05
3.450575e-05
2.102298e-05
0.0001312745
-0.0001770374
0.001151473
-0.001783353
-0.0003386759
-0.0005629783
-0.0004498881
-0.0004207804
-0.0003926116
-0.0003749096
-0.0003560278
-0.0003320372
-0.0003294664
-0.0003155233
-0.0003081403
-0.0002991434
-0.0002950093
-0.0002878245
-0.0002832546
-0.0002797542
-0.0002760326
-0.0002737619
-0.0002715494
-0.0002684453
-0.0002681884
-0.0002656338
-0.0002653966
-0.00026483
-0.0002652759
-0.0002658206
-0.0002670759
-0.0002684046
-0.0002709806
-0.0002725221
-0.0002770346
-0.0002796339
-0.0002827748
-0.0002893987
-0.0002926612
-0.0003002989
-0.0003078958
-0.0003192075
-0.0003273719
-0.0003423934
-0.0003522044
-0.0003799952
-0.0003875533
-0.0004314783
-0.0004347405
-0.0005900835
-0.0003023291
-0.001807539
0.001152686
-0.0001789502
0.00014916
1.795765e-05
4.399794e-05
-3.568189e-06
1.341231e-05
-1.574325e-05
-2.839617e-06
-3.253988e-05
-3.45229e-05
-2.909365e-05
-5.496611e-05
-3.096497e-05
-5.724223e-05
-4.977506e-05
-8.044344e-05
-5.936705e-05
-8.202963e-05
-6.446409e-05
-0.0001042197
-0.0001163625
-0.0001958281
9.798073e-06
-0.000694587
0.0008717134
0.0002267974
0.0003416335
0.000276528
0.0002773273
0.0002613794
0.0002467225
0.0002556714
0.0002414489
0.0002234518
0.0002523255
0.0002433249
0.0002372568
0.0002176358
0.0002412029
0.0002446769
0.0002364884
0.0002352644
0.0002367935
0.0002428716
0.0002310282
0.0002487966
0.0002366682
0.0002550399
0.0002520989
0.0002583534
0.0002635245
0.0002699212
0.000271311
0.0002899834
0.0002958178
0.0003145387
0.0003394667
0.0003474611
0.0004921158
0.0005015293
0.0003479508
0.0003422897
0.0003168406
0.0002982905
0.000292481
0.0002744927
0.0002725886
0.0002665304
0.0002612939
0.0002550478
0.0002578986
0.0002391117
0.0002514651
0.0002332148
0.0002440854
0.0002388267
0.0002346305
0.0002361634
0.000243651
0.0002403121
0.0002168832
0.0002366422
0.0002425848
0.0002511865
0.0002221109
0.0002397114
0.0002537503
0.0002443193
0.000262865
0.0002768137
0.000283115
0.000378701
0.0001744047
0.0009138381
0.0005061389
0.0003540657
0.0003436111
0.0003185268
0.0002990571
0.0002930544
0.000275369
0.0002727895
0.0002667565
0.0002615011
0.0002547766
0.000257994
0.0002393584
0.0002513257
0.0002335192
0.0002435383
0.0002388749
0.0002347174
0.0002358836
0.0002432986
0.000240063
0.0002169487
0.0002365944
0.000241818
0.0002502513
0.0002222115
0.0002391644
0.0002528763
0.0002441429
0.0002621982
0.0002758383
0.0002822199
0.0003749441
0.0001762143
0.0008746705
0.0008327653
0.0002271671
0.0003391505
0.0002752505
0.0002765372
0.0002605421
0.0002464445
0.0002547426
0.0002408816
0.0002235397
0.0002513854
0.0002425616
0.0002372131
0.0002176962
0.0002409318
0.0002442874
0.000236169
0.0002352967
0.0002368553
0.0002423493
0.0002313451
0.0002486868
0.000236926
0.0002551486
0.0002518493
0.0002585763
0.0002637687
0.0002701274
0.0002722156
0.0002905805
0.000296592
0.000316223
0.0003408542
0.0003532914
0.0004972555
0.001065953
-0.0001396831
0.0001416967
1.997539e-05
4.330796e-05
-3.203729e-06
1.327637e-05
-1.560851e-05
-3.228222e-06
-3.213767e-05
-3.451504e-05
-2.872289e-05
-5.468646e-05
-3.096579e-05
-5.698207e-05
-4.960265e-05
-7.974492e-05
-5.883299e-05
-8.143976e-05
-6.454932e-05
-0.0001035941
-0.000114275
-0.0001930612
8.703369e-06
-0.0006579811
-0.00170044
-0.0003867701
-0.000559256
-0.0004536361
-0.0004219973
-0.0003934424
-0.0003753871
-0.0003566968
-0.0003325795
-0.0003295637
-0.000315735
-0.0003083035
-0.0002992383
-0.0002950282
-0.0002878898
-0.0002832796
-0.0002797664
-0.0002760192
-0.0002737155
-0.0002715148
-0.0002684252
-0.0002681365
-0.0002656044
-0.0002653703
-0.0002648072
-0.0002652533
-0.000265794
-0.0002670489
-0.0002683848
-0.0002709565
-0.0002725281
-0.000277003
-0.0002796216
-0.0002828032
-0.000289404
-0.0002927615
-0.0003004713
-0.0003081208
-0.0003193981
-0.0003276562
-0.0003427058
-0.000352825
-0.000380415
-0.0003886398
-0.0004322507
-0.0004392907
-0.0005849976
-0.0003513367
-0.001726506
-0.0006680143
-3.578296e-05
-0.0001632989
-0.0001176572
-7.774444e-05
-0.0001066199
-5.210513e-05
-7.226363e-05
-6.826965e-05
-4.469679e-05
-6.678553e-05
-4.507571e-05
-5.763752e-05
-1.372953e-05
-2.80224e-05
-1.550173e-05
-1.522e-05
-1.189575e-05
1.057891e-05
-9.670044e-06
3.437301e-05
2.258162e-05
0.0001242607
-0.0001369961
0.001065581
-0.0006216074
-3.485193e-05
-0.0001594811
-0.0001162215
-7.676089e-05
-0.0001051996
-5.180126e-05
-7.146323e-05
-6.734436e-05
-4.474573e-05
-6.650439e-05
-4.456956e-05
-5.728966e-05
-1.369589e-05
-2.837727e-05
-1.518313e-05
-1.512598e-05
-1.196089e-05
9.677581e-06
-9.406247e-06
3.411298e-05
2.405171e-05
0.0001171648
-9.621478e-05
0.0009657589
-0.001600233
-0.0004367995
-0.000556274
-0.0004578344
-0.0004234011
-0.0003943602
-0.000375894
-0.0003574564
-0.0003331796
-0.0003296718
-0.0003159586
-0.0003084797
-0.0002993299
-0.0002950343
-0.0002879503
-0.0002832947
-0.0002797717
-0.0002759892
-0.0002736469
-0.0002714621
-0.0002683879
-0.0002680663
-0.0002655578
-0.0002653304
-0.0002647723
-0.0002652189
-0.0002657542
-0.0002670079
-0.0002683523
-0.0002709182
-0.0002725219
-0.000276954
-0.0002795931
-0.0002828181
-0.0002894001
-0.0002928657
-0.0003006644
-0.0003083715
-0.0003196061
-0.0003279632
-0.0003430493
-0.0003535036
-0.0003808885
-0.0003898325
-0.0004331834
-0.000444339
-0.0005805661
-0.0004024208
-0.001628401
0.0009652901
-9.989083e-05
0.0001340507
2.195001e-05
4.238073e-05
-2.958184e-06
1.308767e-05
-1.555538e-05
-3.679679e-06
-3.173606e-05
-3.453172e-05
-2.825439e-05
-5.434141e-05
-3.088531e-05
-5.668673e-05
-4.929482e-05
-7.888562e-05
-5.808336e-05
-8.061032e-05
-6.449144e-05
-0.0001024494
-0.0001119388
-0.0001887569
8.65184e-06
-0.0006130786
0.0007849721
0.0002262438
0.0003354585
0.0002732531
0.0002755339
0.000259297
0.0002459504
0.0002535474
0.000240084
0.0002235136
0.000250181
0.0002415768
0.0002371261
0.0002176677
0.0002405758
0.0002438099
0.0002357465
0.0002353086
0.0002369146
0.0002417112
0.0002316836
0.0002485664
0.0002372052
0.0002552733
0.0002515281
0.0002588469
0.0002640596
0.0002704231
0.0002733081
0.00029133
0.0002975758
0.000318285
0.0003425711
0.0003605324
0.0004997704
0.000508028
0.000361599
0.0003452609
0.0003205875
0.0003000311
0.0002937743
0.0002764259
0.0002730754
0.0002670243
0.0002617506
0.0002544265
0.0002580996
0.0002396207
0.0002511673
0.0002338378
0.0002428636
0.0002389193
0.0002347959
0.0002355149
0.0002428699
0.0002397366
0.0002169279
0.0002365035
0.0002408297
0.0002490536
0.0002222029
0.000238395
0.0002517526
0.0002437797
0.0002611348
0.0002747056
0.0002804736
0.0003698719
0.0001768708
0.0008266772
0.0005052272
0.0003699478
0.00034704
0.0003228428
0.0003011747
0.000294579
0.0002776137
0.0002734603
0.0002673337
0.0002620213
0.0002540486
0.0002581582
0.0002399239
0.000250997
0.0002341343
0.000242113
0.0002389826
0.0002348392
0.0002350703
0.0002424453
0.0002393637
0.0002167677
0.0002363301
0.0002397933
0.0002477541
0.0002220246
0.0002374319
0.0002504742
0.0002432764
0.0002597369
0.0002734348
0.0002783528
0.0003628126
0.0001787588
0.0007720778
0.0007309387
0.0002266464
0.0003298055
0.0002709083
0.0002742659
0.0002577912
0.0002452985
0.0002521963
0.0002390866
0.0002233147
0.000248873
0.0002405426
0.000236955
0.0002174975
0.0002401704
0.0002433304
0.0002352442
0.0002352816
0.0002369904
0.0002410015
0.0002320047
0.0002484369
0.0002375293
0.0002553551
0.0002511828
0.0002591414
0.0002643959
0.0002708209
0.0002745356
0.0002921675
0.0002987331
0.000320542
0.0003444225
0.0003686006
0.0004976748
0.0008548813
-6.156928e-05
0.0001253501
2.42815e-05
4.110379e-05
-2.82428e-06
1.282172e-05
-1.550079e-05
-4.194681e-06
-3.138496e-05
-3.456214e-05
-2.767245e-05
-5.403499e-05
-3.075081e-05
-5.625769e-05
-4.898919e-05
-7.793125e-05
-5.715828e-05
-7.963088e-05
-6.42572e-05
-0.000100694
-0.0001100459
-0.0001819449
7.279091e-06
-0.0005619039
-0.001485021
-0.000485997
-0.0005528818
-0.0004625563
-0.0004248725
-0.000395327
-0.0003764506
-0.0003582659
-0.0003337866
-0.0003297807
-0.0003162022
-0.000308653
-0.0002994188
-0.0002950328
-0.0002880051
-0.0002832961
-0.0002797699
-0.000275945
-0.0002735641
-0.000271395
-0.0002683365
-0.0002679821
-0.0002654965
-0.0002652754
-0.0002647256
-0.0002651721
-0.0002657021
-0.0002669533
-0.0002683083
-0.0002708674
-0.0002725032
-0.0002768948
-0.0002795511
-0.0002828175
-0.000289389
-0.0002929701
-0.0003008609
-0.0003086383
-0.0003198228
-0.0003282909
-0.0003433958
-0.0003542249
-0.000381378
-0.0003911052
-0.0004341258
-0.0004499522
-0.0005756219
-0.0004527606
-0.001515279
-0.0005690047
-3.528325e-05
-0.0001535929
-0.0001148922
-7.542369e-05
-0.0001035596
-5.129258e-05
-7.056801e-05
-6.627877e-05
-4.468115e-05
-6.620209e-05
-4.413847e-05
-5.692987e-05
-1.361362e-05
-2.868165e-05
-1.482503e-05
-1.509152e-05
-1.21118e-05
8.583546e-06
-9.224009e-06
3.358493e-05
2.588935e-05
0.0001091485
-5.662208e-05
0.0008558194
-0.0005088839
-3.740347e-05
-0.0001452215
-0.0001138686
-7.427463e-05
-0.000101258
-5.062376e-05
-6.991261e-05
-6.461357e-05
-4.424439e-05
-6.599214e-05
-4.428168e-05
-5.625526e-05
-1.37901e-05
-2.850805e-05
-1.425389e-05
-1.518413e-05
-1.256931e-05
6.807847e-06
-8.849667e-06
3.246057e-05
2.865787e-05
0.0001002201
-1.894358e-05
0.0007331727
-0.001351379
-0.0005330372
-0.0005493665
-0.0004680168
-0.0004264995
-0.0003963939
-0.0003771983
-0.0003590991
-0.0003344493
-0.000329845
-0.0003164742
-0.0003088326
-0.0002995155
-0.0002950329
-0.0002880634
-0.0002832826
-0.0002797609
-0.0002758875
-0.0002734679
-0.000271313
-0.0002682789
-0.0002678783
-0.0002654162
-0.0002652006
-0.0002646639
-0.0002651115
-0.0002656316
-0.0002668791
-0.0002682433
-0.0002708103
-0.0002724782
-0.0002768293
-0.0002794972
-0.0002827933
-0.0002893567
-0.0002931078
-0.0003010822
-0.0003089451
-0.0003200623
-0.000328667
-0.0003437593
-0.0003550061
-0.0003818263
-0.0003925547
-0.0004350433
-0.0004563195
-0.0005700594
-0.0005009968
-0.001384081
0.0007332616
-2.631392e-05
0.0001151683
2.757617e-05
3.898372e-05
-2.79001e-06
1.254116e-05
-1.49179e-05
-5.299896e-06
-3.09872e-05
-3.439179e-05
-2.6534e-05
-5.414399e-05
-3.062687e-05
-5.512232e-05
-4.927202e-05
-7.675147e-05
-5.563753e-05
-7.899111e-05
-6.401878e-05
-9.836985e-05
-0.0001086967
-0.0001721748
3.850387e-06
-0.0005033668
0.0006699166
0.000229356
0.0003216279
0.0002681753
0.0002726093
0.0002561285
0.000244806
0.0002504457
0.0002377695
0.0002229071
0.0002476151
0.0002395175
0.0002367002
0.0002171513
0.0002397128
0.0002428514
0.0002345831
0.000235218
0.0002370732
0.0002401497
0.0002323656
0.0002484022
0.0002381513
0.0002551788
0.0002507175
0.0002594528
0.0002648429
0.0002714809
0.0002760957
0.0002929269
0.0003000498
0.0003228923
0.0003467324
0.0003771548
0.0004900095
0.0004967577
0.0003787646
0.0003492701
0.0003251917
0.0003024732
0.000295301
0.0002791282
0.0002741039
0.0002677486
0.0002623065
0.0002535469
0.000257955
0.0002405209
0.0002509192
0.0002344689
0.0002412283
0.0002390593
0.0002348416
0.0002344622
0.0002420249
0.0002389389
0.0002164336
0.0002360752
0.0002387685
0.0002465079
0.0002216424
0.0002361581
0.0002487861
0.0002429545
0.0002581521
0.0002716865
0.0002760678
0.0003530293
0.0001827632
0.0007095276
0.0004822287
0.0003868863
0.0003524608
0.0003275131
0.0003039058
0.0002956257
0.0002810178
0.000275204
0.0002683933
0.0002626199
0.0002528038
0.0002572724
0.0002416736
0.0002512052
0.0002350496
0.0002401346
0.0002389787
0.0002347603
0.0002335912
0.0002417948
0.0002385134
0.0002157034
0.0002357753
0.0002380013
0.0002455406
0.0002208672
0.0002344252
0.0002464934
0.0002431565
0.0002564826
0.0002692222
0.0002738984
0.0003405503
0.0001888058
0.0006390187
0.0006003479
0.0002344484
0.0003106838
0.000264846
0.0002705411
0.0002544346
0.0002447992
0.0002481234
0.0002359833
0.0002220993
0.0002466319
0.0002387461
0.0002363974
0.0002164091
0.0002392601
0.0002425592
0.0002336758
0.0002350813
0.0002369897
0.0002390666
0.0002329707
0.0002487256
0.0002393282
0.0002545247
0.0002500125
0.0002597946
0.0002655259
0.0002726019
0.0002780327
0.0002932968
0.0003015052
0.0003252164
0.0003500127
0.0003850528
0.0004763806
0.0005995227
2.231339e-06
0.0001036072
3.24157e-05
3.562634e-05
-2.836408e-06
1.227897e-05
-1.274384e-05
-7.761868e-06
-3.027148e-05
-3.378305e-05
-2.429967e-05
-5.490655e-05
-3.054192e-05
-5.24193e-05
-5.098541e-05
-7.524531e-05
-5.311342e-05
-7.926706e-05
-6.404634e-05
-9.557005e-05
-0.0001082435
-0.000159226
-1.575887e-06
-0.0004373722
-0.001193946
-0.0005736433
-0.000546584
-0.0004742679
-0.0004284176
-0.0003976263
-0.0003783018
-0.0003599073
-0.000335287
-0.0003298042
-0.0003167678
-0.0003090361
-0.0002996285
-0.0002950466
-0.0002881339
-0.0002832483
-0.0002797477
-0.0002758154
-0.0002733529
-0.0002712184
-0.0002682206
-0.0002677448
-0.0002653037
-0.0002650967
-0.0002645791
-0.0002650362
-0.0002655317
-0.0002667713
-0.0002681392
-0.0002707517
-0.0002724536
-0.0002767655
-0.0002794264
-0.0002827316
-0.0002892877
-0.0002933337
-0.0003013701
-0.0003093373
-0.0003203517
-0.0003291177
-0.0003441631
-0.0003558578
-0.0003821954
-0.0003943575
-0.0004359153
-0.0004635851
-0.0005643682
-0.0005421844
-0.001229703
-0.000440288
-4.050138e-05
-0.0001339253
-0.0001133123
-7.385524e-05
-9.782752e-05
-4.985182e-05
-6.961411e-05
-6.184298e-05
-4.314345e-05
-6.605313e-05
-4.547129e-05
-5.486892e-05
-1.452921e-05
-2.73691e-05
-1.317632e-05
-1.54896e-05
-1.363213e-05
3.946659e-06
-7.880208e-06
3.053412e-05
3.257676e-05
9.057466e-05
1.387754e-05
0.0005964793
-0.0003593242
-4.758886e-05
-0.0001181503
-0.0001113353
-6.959217e-05
-9.605397e-05
-4.808395e-05
-6.62271e-05
-6.107318e-05
-4.274029e-05
-6.578068e-05
-4.453695e-05
-5.470617e-05
-1.31895e-05
-2.79111e-05
-1.243488e-05
-1.581686e-05
-1.406845e-05
3.377238e-06
-8.611337e-06
3.067416e-05
3.239728e-05
7.677037e-05
3.611899e-05
0.0004393977
-0.0009944419
-0.0006009546
-0.0005417017
-0.0004787195
-0.0004306558
-0.0003986604
-0.000378989
-0.0003611237
-0.0003361015
-0.0003299154
-0.0003171071
-0.0003092234
-0.0002996749
-0.0002950134
-0.0002881453
-0.0002831413
-0.0002797227
-0.0002756756
-0.0002731633
-0.0002710895
-0.0002680545
-0.0002675748
-0.00026512
-0.0002649247
-0.0002644435
-0.0002649146
-0.0002653934
-0.0002666019
-0.0002680084
-0.0002706005
-0.0002723532
-0.0002766805
-0.0002792689
-0.0002826385
-0.0002892786
-0.0002934614
-0.0003016352
-0.0003097813
-0.0003206838
-0.0003295232
-0.0003445368
-0.0003568477
-0.0003830816
-0.000396089
-0.0004373816
-0.0004699852
-0.0005584797
-0.0005672918
-0.001031638
0.0004381503
2.42406e-05
9.117071e-05
3.417826e-05
3.475713e-05
-3.560798e-06
1.128255e-05
-1.124826e-05
-8.325908e-06
-2.965874e-05
-3.427607e-05
-2.381377e-05
-5.320268e-05
-2.977821e-05
-5.102933e-05
-5.067883e-05
-7.440903e-05
-5.247637e-05
-7.658928e-05
-6.258304e-05
-9.17638e-05
-0.0001085268
-0.0001454144
-7.02849e-06
-0.0003617319
0.0005129078
0.0002398329
0.0002966483
0.0002608076
0.0002676664
0.0002519622
0.0002423815
0.0002471587
0.0002340356
0.0002199146
0.0002450175
0.0002387357
0.000235732
0.000214354
0.0002389866
0.0002432515
0.0002329118
0.0002345448
0.0002363559
0.000238115
0.0002336375
0.0002492101
0.0002392797
0.0002548853
0.0002497517
0.0002602766
0.0002663653
0.0002734151
0.0002785938
0.0002944878
0.0003034678
0.0003280476
0.0003536311
0.000389036
0.000460539
0.0004653956
0.0003910109
0.000355965
0.0003303259
0.0003058376
0.0002967552
0.0002815553
0.0002759885
0.0002691903
0.0002630726
0.0002525075
0.0002576046
0.0002416057
0.0002516799
0.0002356696
0.0002391024
0.000238343
0.000234333
0.0002328923
0.0002425789
0.0002382708
0.000213665
0.0002351239
0.0002380024
0.0002439386
0.0002187142
0.0002325177
0.0002455366
0.0002410066
0.0002538172
0.0002657711
0.0002721543
0.0003268954
0.000194395
0.0005612563
0.0004593567
0.0003847524
0.0003545633
0.0003360216
0.0003091131
0.0003065173
0.0002750021
0.0002726677
0.0002689449
0.0002637639
0.0002557446
0.0002655665
0.0002321376
0.0002495262
0.0002329872
0.0002399768
0.0002374283
0.0002329844
0.0002344837
0.0002452088
0.0002381979
0.0002090125
0.0002323611
0.0002383029
0.0002368547
0.0002130028
0.000232049
0.0002535182
0.0002234747
0.0002464247
0.0002604842
0.000268853
0.0003128949
0.0001904931
0.0004744711
0.0003910442
0.0002380553
0.000277882
0.0002560088
0.0002616121
0.0002451456
0.000224631
0.000254929
0.0002336188
0.0002142103
0.0002379502
0.0002390155
0.0002329181
0.0002096378
0.000238797
0.0002456757
0.0002341462
0.0002327884
0.0002354916
0.0002395682
0.000231125
0.0002471002
0.000229902
0.000262901
0.0002530394
0.0002610033
0.0002661639
0.0002701428
0.0002720125
0.0003043519
0.0003067971
0.0003338164
0.0003523913
0.0003828244
0.0004555747
0.0002112918
5.262772e-05
7.904564e-05
9.154057e-06
5.210828e-05
-8.725563e-06
7.320924e-06
-2.933356e-05
1.120219e-05
-3.400237e-05
-4.278809e-05
-3.895491e-05
-3.741692e-05
-2.541253e-05
-6.845517e-05
-2.850272e-05
-7.846026e-05
-6.589144e-05
-5.289708e-05
-5.048089e-05
-8.396719e-05
-0.0001046227
-0.0001375328
-5.252489e-06
-0.0002665361
-0.000746141
-0.0006058242
-0.00051985
-0.0004691038
-0.0004321847
-0.0003971387
-0.0003750412
-0.0003648272
-0.0003346606
-0.0003314266
-0.0003176154
-0.0003090596
-0.000299242
-0.0002946002
-0.0002877437
-0.0002827895
-0.00027958
-0.0002752624
-0.000272733
-0.000270795
-0.0002673361
-0.0002674082
-0.000264807
-0.0002645894
-0.0002641976
-0.0002646014
-0.0002652412
-0.0002663574
-0.0002680129
-0.0002699774
-0.0002718175
-0.0002764074
-0.0002787832
-0.0002825629
-0.0002897514
-0.0002922884
-0.0003011748
-0.0003097237
-0.000320755
-0.0003291744
-0.0003443228
-0.0003579157
-0.0003865871
-0.0003936427
-0.0004420572
-0.0004640188
-0.0005500979
-0.0005668999
-0.0007735812
-0.0002579852
-7.541392e-05
-9.429403e-05
-0.0001000438
-4.131836e-05
-0.00010889
-4.087219e-05
-4.780701e-05
-7.639144e-05
-4.924015e-05
-6.203306e-05
-2.775227e-05
-6.619945e-05
1.975905e-06
-4.305183e-05
-1.725177e-05
-1.510329e-05
-8.006438e-06
1.864577e-05
-2.399544e-05
4.470383e-05
6.711481e-06
4.757171e-05
3.724519e-05
0.0002553399
-2.834874e-05
2.332424e-05
-1.36027e-05
-6.079699e-05
-0.0001762392
-3.90467e-05
-0.0002939399
-0.0002815494
-2.163067e-05
-0.0002582231
-2.379907e-05
-2.319063e-05
-1.380961e-05
-3.59631e-05
-1.693159e-05
-0.0002541142
-0.0003117709
0.0001241381
0.0001012018
5.400101e-05
-0.0002561688
-0.0002588671
-0.0002376242
0.0001591892
0.000212685
-1.659011e-05
2.785645e-05
0.0002017893
0.0001375798
-2.184924e-05
0.0001878142
-2.046649e-05
0.0002256057
0.0002311201
-6.989425e-05
-1.573788e-05
0.0002457553
-1.968694e-05
0.0002523078
0.000122104
-2.928806e-05
0.0002237153
1.220149e-05
-8.409561e-05
-2.364559e-05
-9.521431e-05
-0.0002847582
0.00020015
-0.0001561006
-3.183697e-05
8.504214e-05
-0.0001202201
-5.890928e-05
-3.714165e-05
0.0001152716
-3.150386e-05
-2.475968e-05
0.0001348725
0.0001943868
-6.72534e-05
-3.605864e-05
-5.233837e-05
5.847957e-07
0.0001220516
-3.188059e-05
-6.445065e-05
-0.0002375664
-2.863427e-05
-2.353881e-05
-0.0002370014
-0.0002039393
0.0001739596
-9.933051e-05
3.252839e-06
-0.0003146445
-3.903301e-05
-0.0002612442
-4.724089e-05
-0.0003321742
-0.0001382098
0.0001268906
-2.841479e-05
-2.12239e-05
-8.905574e-08
-6.113775e-05
-0.0002585697
-2.435578e-05
-1.959101e-05
7.423461e-06
-1.738653e-05
-1.650801e-05
-5.560828e-05
-1.683148e-05
-1.439521e-05
-2.107561e-05
-0.0002081374
-0.0001336947
-5.106282e-05
-1.926861e-05
-5.503378e-05
-2.457593e-05
0.0001999843
9.595675e-07
-1.626724e-05
-0.000103877
-7.140081e-05
-2.291652e-05
0.0001646264
-1.631409e-05
-7.640725e-05
-2.969914e-05
-0.0001524372
-8.954595e-05
-4.981453e-05
-4.359596e-05
0.0001579878
-0.0002846145
-2.290623e-05
-5.176159e-05
0.0002448739
0.0002794034
2.198073e-06
-0.0001053386
-2.255067e-05
-1.807301e-05
-4.252471e-05
0.0001810784
-3.384915e-05
-1.55406e-05
-3.802587e-05
-1.715607e-05
0.0002336018
-1.51505e-05
-3.889221e-05
-7.575689e-05
0.0001379579
-3.154038e-05
-3.187243e-06
-4.00673e-05
0.0001867147
-9.808816e-05
0.0002983167
-2.967892e-05
-3.080025e-05
-1.717827e-05
-6.693566e-05
-0.0001961656
0.0001483297
-3.369083e-05
-2.41512e-05
-3.496036e-05
7.422813e-06
-1.435101e-05
3.60339e-05
0.0002230401
-6.913224e-05
0.0003098128
-4.141013e-05
-6.583035e-05
-1.91827e-05
0.0002450865
2.56232e-05
-8.588962e-05
2.783432e-05
-1.890153e-05
-4.992054e-05
0.0001072006
-0.0002267233
-3.785626e-05
-4.071015e-05
-2.082729e-05
-0.0001410538
0.0001852209
-3.62805e-05
9.575537e-05
0.000100147
-3.871393e-05
-0.0001568339
-5.642163e-05
-0.0001248392
-4.405586e-05
-0.0001303901
0.0002075282
-1.635936e-05
-0.0002692599
-0.0002916934
-2.823591e-05
-8.508821e-05
0.0001964226
-9.960335e-06
0.0001910379
-2.338414e-05
4.508031e-05
0.0001733435
-0.0001623022
-2.115866e-05
-1.842319e-05
0.0002155224
0.0002559978
-3.194834e-05
-2.632248e-05
-1.391149e-05
0.0001854
-1.984198e-05
-2.136391e-05
-0.0002643218
-3.454993e-05
-9.56758e-05
-6.577911e-05
-3.504264e-05
0.0001359171
-1.928033e-05
-0.0001673011
5.616585e-05
4.938549e-05
-0.0001938068
-0.0002058147
7.180602e-05
0.0002233909
-1.401577e-05
-6.574968e-05
-0.0002610137
-2.621848e-05
-2.465148e-05
-6.570582e-05
-0.0002659804
0.0002016505
6.354628e-05
-0.0001879417
0.000217941
-0.0002686477
-0.0001193194
-0.0003080935
-0.0003435264
-4.528997e-05
-0.0002691627
-2.72287e-05
-0.0002881195
0.0001246002
0.0002045356
0.0001392648
-8.796602e-05
-2.739549e-05
-2.892958e-05
2.518653e-05
-6.878959e-05
-3.312477e-05
-5.26073e-05
1.886729e-05
-1.445951e-06
-0.000227602
2.179526e-05
-3.241834e-05
0.0001447532
-3.586859e-05
0.000327387
-4.980455e-05
-8.367289e-06
-4.917827e-05
0.0001441124
-3.93739e-05
-1.959882e-05
0.0002158306
-0.0003234324
-5.145829e-05
-1.992229e-05
-5.005058e-05
0.0001671029
0.0001979654
0.0001132823
0.0001856515
-0.0001130319
2.337238e-05
-0.0002521365
-5.036671e-05
-4.798463e-05
0.0002764042
-0.0002710645
-2.156166e-05
-0.0002435512
-0.0001508569
-4.562297e-05
-0.0003063347
-2.548994e-05
-2.381723e-05
-2.48027e-05
0.0002053237
-1.504561e-05
-0.0001089234
1.650915e-05
0.000284482
0.0001425006
-0.0002174335
-3.040028e-05
-0.0001951944
-1.724185e-05
-4.316669e-05
-3.950381e-05
-0.0001147448
-0.000247709
0.0002622926
-2.189585e-05
-2.614284e-05
7.729299e-05
-2.16977e-05
-0.0001718935
-9.904717e-05
-0.0001542694
-5.117522e-05
-2.095722e-05
-2.597014e-05
0.0002045801
0.000239766
0.0002242374
-0.0002273604
-1.621029e-05
-2.066842e-05
2.018551e-05
-0.0001068859
-6.42286e-05
-0.0002490193
2.447773e-05
0.0001805744
-5.29151e-05
1.036691e-05
-3.784233e-05
-0.0001744191
6.262974e-05
-0.0003308861
0.0001933028
-2.169242e-05
-0.0002464236
-2.082065e-05
-1.751102e-05
-1.593136e-05
-1.777268e-05
-2.157934e-05
-8.504325e-05
-5.177e-05
-2.492661e-05
0.0002181288
-4.432056e-05
0.0001591853
0.0001212638
6.68307e-06
-1.674419e-05
0.0002117411
0.0001755663
0.0001818378
0.0001678696
0.0002246674
-2.243517e-05
-4.151544e-05
-4.678704e-05
-0.0001246649
-0.0001450669
0.000251917
0.0002346135
0.0002339694
0.0002557526
-8.543789e-05
-0.000288131
-0.0002314264
-3.033191e-05
-7.503187e-05
0.0001087327
-3.384921e-05
-3.80163e-05
-3.280397e-05
-2.185053e-05
-9.275887e-06
5.450056e-05
-4.197809e-05
-6.202421e-05
-4.535908e-05
-2.821935e-05
-4.288793e-05
0.0002865281
-6.738861e-05
-1.941648e-05
-3.768897e-05
-4.30624e-05
-1.842779e-05
5.01646e-06
0.0001998924
-3.633151e-05
-3.924143e-05
0.0002378537
0.0002169222
-0.000263474
0.0002070936
3.947085e-05
-2.499416e-05
-2.492371e-05
0.0002149544
-2.800254e-05
-1.577574e-05
-0.0001724643
-1.846554e-05
-2.034346e-05
-1.681052e-05
4.963851e-05
2.400972e-05
0.0002180602
0.000276887
-3.652935e-05
0.0001037054
-1.524408e-05
-0.0002654802
-0.0002558612
-0.0002265348
0.0002094204
-1.811683e-05
-0.0002645717
-1.556276e-05
0.0001644417
-3.171681e-05
-5.845092e-05
-3.650291e-05
-3.050382e-05
-2.966533e-05
-2.227219e-05
0.0002196468
0.0001258142
-8.369326e-05
-4.42163e-05
-4.31856e-05
-2.449043e-05
-2.756866e-05
7.382528e-05
-3.067908e-05
-8.589043e-05
-0.000114005
-7.757953e-05
0.0001009155
-0.0002572332
-3.101138e-05
-5.373232e-05
-2.628316e-05
-3.03718e-05
-2.375007e-05
-5.69235e-05
-9.31503e-05
0.0002175673
-1.661113e-05
6.876151e-06
-4.292948e-05
-4.846825e-05
-3.711963e-05
-1.948228e-05
-8.973633e-05
0.0002376721
3.300908e-05
-3.89602e-05
-4.449914e-05
-4.149828e-05
-2.883003e-05
-2.3013e-05
-3.013557e-05
-2.704462e-05
-1.903904e-05
-9.04401e-05
-2.09272e-05
0.000124581
-5.436982e-05
-0.0001022225
-2.291396e-05
-6.263364e-05
-5.727413e-05
-1.583752e-05
0.0002316645
-2.314235e-05
-2.365042e-05
-0.0002336939
0.0002451061
-0.0002559137
-0.0002536693
-1.763281e-05
-2.809352e-05
0.0001517236
-1.758093e-05
-1.833475e-05
0.0001642043
-4.463005e-05
0.0002367635
0.000247569
-0.0002505266
0.0001741743
0.0002260943
0.0001989593
-0.0002354231
0.0002062676
-2.286925e-05
0.0001680419
-2.917389e-05
-0.0001050797
-2.019695e-05
-4.362884e-05
0.000192967
1.624431e-05
-1.983575e-05
-0.0001396561
0.0001102937
-0.0001854031
-3.348748e-05
0.0001926734
0.0002232849
-7.900673e-05
0.0001229837
0.0001527399
-0.0001084981
1.564292e-05
-2.166241e-05
-2.139702e-05
-1.860757e-05
-9.225876e-05
-4.311886e-05
6.300262e-05
0.0002820013
-3.024367e-05
-5.40531e-05
0.0002788828
0.0001951139
-2.509845e-05
0.0001393729
-0.0001681496
-3.998929e-05
-6.505663e-05
-0.0001770065
6.035838e-06
0.0002298052
0.0002418843
0.0002325827
-0.0001127936
-4.391543e-05
-5.450822e-05
-3.301875e-05
-3.284455e-05
-2.404119e-05
-2.11099e-05
-2.419684e-05
-2.389587e-05
-1.915654e-05
-2.028445e-05
-6.395196e-05
-0.0002677552
-0.0003883019
-0.0001288014
9.839195e-05
-2.689296e-05
-3.061096e-05
-3.018006e-05
0.0002963341
-1.460849e-05
-2.488548e-05
-1.693893e-05
-1.516972e-05
-1.331895e-05
2.923344e-05
-0.0003364616
-0.0001074043
1.04862e-05
-6.441631e-05
-6.964496e-05
5.080406e-05
0.0001259541
-6.786994e-05
-7.3913e-05
-0.0001328934
0.00021223
-3.529014e-05
-2.564568e-05
-1.933757e-05
-4.410811e-05
-0.000282549
-3.018507e-05
0.0001953956
0.0002010291
-1.53506e-05
-6.527353e-05
-7.258957e-05
3.805463e-05
1.324747e-05
-3.632801e-05
0.0002133805
-2.008973e-05
0.0001238164
-3.462973e-06
0.0001519531
0.0001923923
3.966921e-05
1.983906e-05
1.648232e-05
-0.0001780667
0.0001243984
0.0001806157
-3.240152e-05
0.0001549541
-4.105273e-06
-1.252809e-05
-0.0002561966
6.809257e-05
-0.0001703344
-3.60395e-05
-2.657201e-05
-0.00028866
0.0001117139
0.00027194
-0.0003222609
-1.841165e-05
-2.166306e-05
-7.825156e-05
5.646046e-05
-3.220804e-05
-2.482387e-05
-2.555143e-05
-3.227228e-05
-0.0002512057
-0.0001301038
-0.0001941775
-0.0002602637
-0.0002448127
-2.735784e-05
8.134296e-05
7.269538e-05
1.008203e-05
0.0001382491
0.0002972685
0.0001801376
-2.204418e-05
-2.447207e-05
-1.471719e-05
-1.708086e-05
-1.956569e-05
-1.397645e-05
-1.902775e-05
0.0001846912
-3.016184e-05
0.0002888097
-1.416849e-05
-2.382784e-05
-3.900025e-05
0.0001420062
-3.430327e-05
-3.651516e-05
-0.0002952272
-0.0001916621
-0.0003055254
-0.0002106098
0.0001318018
-0.0004098404
-3.82442e-05
-3.620058e-05
-7.954907e-05
-5.047581e-05
-0.0001928973
-0.000241894
-0.0001601606
0.0001662111
-0.000267828
-3.764527e-05
-4.647192e-05
1.375746e-05
-3.548284e-05
0.0001797196
-5.047804e-05
-3.791024e-05
-0.0002807348
-2.878983e-05
-3.567568e-05
-0.0001609533
-4.747314e-05
-2.363622e-05
-0.0001700574
-2.588204e-05
0.0001260521
-3.280589e-05
-3.354326e-05
-2.787751e-05
0.0002390999
-0.0001966554
-1.538115e-05
-1.442745e-05
6.582223e-05
-0.0001648592
-0.0001842448
-1.373925e-05
-4.679329e-05
0.0001293851
-2.537135e-05
-0.0002346567
-2.868202e-05
-2.321683e-05
-8.319307e-05
-0.0003024199
-0.0003058133
0.0001970322
-4.564937e-05
-3.006802e-05
0.0002131025
-0.0001522449
0.0001625535
-4.687656e-05
-8.461032e-05
0.000194897
-0.0002617575
-1.874838e-05
1.655521e-05
-2.609798e-05
-0.0002715085
-1.666203e-05
-1.562388e-05
0.0002171919
0.0001703598
0.0001915823
0.0001922158
0.0002125101
0.000242774
-4.888569e-06
3.267541e-05
4.317777e-06
-3.90063e-05
-3.124271e-05
-3.948341e-05
-3.715627e-05
-0.0002560811
-1.697798e-05
-1.571333e-05
-3.041231e-05
-4.182985e-05
0.0002718792
0.0002554443
0.0001925924
0.0002080213
-3.120923e-05
-6.188687e-05
-3.251643e-05
-3.022437e-05
0.0001264957
-2.788942e-05
1.199636e-06
3.797199e-06
-5.595087e-05
0.0001922779
0.0002389567
-2.118562e-05
-1.848129e-05
7.405888e-05
-6.629341e-05
-0.0002111925
-3.118434e-05
0.0001204002
-1.39832e-05
-4.232101e-05
-2.387474e-05
-9.760369e-05
-1.734348e-05
0.0001079033
-0.0002175902
0.0002761022
-3.216323e-05
0.0001245073
6.278094e-05
6.947763e-05
-0.0002587483
-4.0562e-05
-0.0002996748
1.546509e-05
-3.646389e-05
-0.0001382112
-6.27395e-05
-1.867311e-05
-1.427491e-05
-3.120921e-05
-2.517255e-05
-2.930181e-05
8.05919e-05
0.0001473446
-7.192853e-05
-0.0001174817
-3.38817e-05
7.024913e-05
-0.0001017536
-0.0002678598
-5.093907e-05
-2.07085e-05
-0.0002288889
6.804695e-05
-1.590396e-05
1.375561e-05
-2.212826e-05
-5.168037e-05
0.0002819794
0.0002500505
0.000276688
0.0002338145
-0.0002652484
-1.821568e-05
4.005204e-05
-4.953547e-05
-0.0001902666
-1.928045e-05
-4.182085e-05
0.0001709058
-2.359893e-05
-2.145292e-05
-1.515183e-05
-1.999179e-05