/*--------------------------------*- C++ -*----------------------------------*\
| =========                 |                                                 |
| \\      /  F ield         | OpenFOAM: The Open Source CFD Toolbox           |
|  \\    /   O peration     | Version:  2406                                  |
|   \\  /    A nd           | Website:  www.openfoam.com                      |
|    \\/     M anipulation  |                                                 |
\*---------------------------------------------------------------------------*/
FoamFile
{
    version     2.0;
    format      ascii;
    arch        "LSB;label=32;scalar=64";
    class       volScalarField;
    location    "0.24";
    object      p;
}
// * * * * * * * * * * * * * * * * * * * * * * * * * * * * * * * * * * * * * //

dimensions      [0 2 -2 0 0 0 0];

internalField   nonuniform List<scalar> 
4536
(
-1.83815e-05
2.995993e-05
-1.230651e-06
-1.64983e-05
4.377973e-05
4.634914e-05
3.041815e-05
2.838008e-05
1.038112e-06
3.710656e-05
-5.44199e-06
1.345228e-06
-8.231955e-06
3.735801e-05
3.084424e-05
1.713338e-05
3.502639e-05
-1.882065e-06
4.147206e-05
4.695028e-05
2.687525e-05
2.743777e-05
4.424871e-06
2.853786e-05
2.416313e-06
4.961277e-05
2.56851e-05
2.840937e-05
-1.467408e-05
7.894687e-06
1.860604e-05
1.251485e-06
3.708699e-05
1.45202e-05
1.929278e-05
3.740923e-05
3.149857e-05
3.27132e-05
2.94132e-05
-4.765417e-06
2.377419e-05
1.3588e-05
3.073837e-05
4.766325e-05
-8.574838e-06
-2.007025e-05
2.905216e-05
1.700424e-05
-2.825112e-06
3.792262e-05
2.610353e-05
4.30596e-05
2.529739e-05
-1.031605e-06
5.107103e-05
3.804947e-05
4.256762e-05
2.021816e-05
-2.145505e-05
-1.879335e-06
4.438236e-05
2.494223e-05
-4.290214e-06
3.323288e-05
2.176059e-05
9.259817e-06
3.045713e-05
1.148539e-05
2.411636e-05
8.599795e-06
2.234266e-05
3.873861e-05
4.43786e-06
-1.097681e-05
2.708818e-05
2.132028e-06
1.138006e-05
3.214229e-05
-1.749192e-05
-6.881518e-06
2.134225e-05
5.954877e-05
8.411297e-05
-9.338e-06
4.012447e-05
2.346686e-05
2.371464e-05
2.303859e-05
2.09518e-05
4.247212e-05
3.098957e-05
4.162611e-05
3.970135e-05
1.631025e-05
2.778119e-05
3.385534e-05
3.883061e-06
3.050964e-05
-1.998223e-05
8.459707e-06
-1.906521e-05
4.024285e-06
1.559122e-05
3.573613e-05
-9.636538e-06
-2.584936e-06
1.931541e-05
-2.623353e-06
2.456565e-05
1.628894e-05
7.056448e-05
3.445505e-05
2.684292e-05
4.052029e-05
3.204363e-05
4.670025e-06
-1.121205e-05
2.496487e-05
3.49626e-05
1.274877e-05
5.650307e-06
1.381919e-05
3.133941e-06
-7.309482e-06
1.264161e-05
4.944982e-05
3.609494e-05
2.009222e-05
9.681845e-06
3.904883e-05
-9.7834e-06
1.00042e-06
4.713196e-05
2.528742e-05
5.239704e-05
2.693528e-05
-1.06418e-05
7.993759e-06
2.849347e-05
1.620239e-05
3.504101e-05
-8.12945e-06
1.381269e-05
3.699803e-05
2.614205e-05
-1.440282e-06
1.10724e-05
3.104065e-05
3.04479e-05
5.078326e-05
2.741937e-05
3.197044e-05
-3.205382e-06
1.897416e-05
4.336477e-05
4.149908e-05
4.218253e-05
1.558225e-05
3.331085e-05
2.046289e-06
6.168549e-06
3.203467e-05
4.399892e-06
3.627429e-05
5.220624e-05
3.106896e-05
1.094154e-05
2.395986e-05
1.787385e-06
4.883801e-05
4.154648e-05
3.31335e-05
1.849476e-05
7.92362e-05
2.277925e-05
4.296738e-05
6.7437e-06
2.717137e-05
3.192908e-05
2.106048e-05
1.773363e-05
2.821735e-05
6.691769e-05
3.906959e-05
4.546848e-05
5.77786e-05
3.366385e-06
2.255473e-05
8.593846e-06
2.368757e-05
1.032492e-06
-1.439702e-05
2.931023e-06
-5.346527e-06
2.134191e-06
5.129702e-05
5.086048e-05
4.322157e-05
4.389088e-05
3.47117e-05
2.676032e-05
2.430024e-05
2.846928e-05
2.845277e-05
2.898794e-05
2.870215e-05
2.381142e-05
-7.693201e-06
3.000862e-05
3.900852e-05
-8.073034e-06
2.255594e-05
1.409166e-05
4.938163e-05
1.928728e-05
2.785766e-05
-3.697268e-06
-2.372737e-06
3.478157e-05
3.692452e-05
1.204427e-05
2.218903e-05
2.86984e-06
-1.430164e-06
2.800567e-06
2.239308e-05
2.510064e-05
-9.694497e-06
2.771356e-05
-5.53415e-06
1.950431e-05
-3.096646e-06
9.97012e-06
4.323582e-05
7.021117e-06
4.506246e-05
7.190331e-05
3.768765e-05
2.685011e-05
1.407275e-05
4.248437e-07
4.224166e-05
1.527326e-05
1.981266e-05
4.415159e-05
8.457516e-06
7.248591e-06
2.292701e-05
3.020959e-05
1.270638e-05
-3.307032e-07
4.021878e-05
5.907612e-05
6.609912e-05
4.130056e-05
2.196334e-05
6.531873e-06
2.284255e-05
3.110215e-06
3.166926e-06
2.974974e-05
2.749526e-05
4.07798e-05
-1.112688e-05
7.199068e-05
5.093499e-06
1.383329e-05
1.558597e-05
4.536104e-05
3.693676e-05
-4.553495e-07
1.518477e-05
-1.490333e-05
3.987326e-05
2.748837e-05
1.044252e-05
1.150812e-05
1.151334e-05
3.95787e-05
4.703302e-05
2.053265e-05
3.375403e-05
5.592649e-05
3.11813e-05
-7.764744e-06
1.277793e-05
1.779817e-05
5.393449e-05
3.517949e-05
3.879755e-06
-1.179403e-06
-1.963685e-07
7.607354e-06
3.032643e-05
2.983504e-05
2.7228e-05
8.534359e-06
1.363125e-05
3.204272e-05
2.856714e-05
1.123426e-05
1.022574e-05
1.333305e-05
-2.923072e-06
-9.541645e-06
-1.161566e-05
-1.569464e-05
5.224618e-06
1.068211e-05
3.789515e-05
2.442494e-05
5.148389e-05
4.720254e-05
1.948098e-05
-8.535474e-06
2.632598e-05
3.376457e-05
3.89928e-05
2.80279e-05
2.665258e-05
2.668741e-05
2.761433e-05
2.704361e-05
2.522969e-05
4.10697e-05
5.154505e-05
1.693374e-05
2.93684e-05
2.928629e-05
1.418488e-05
6.698568e-06
1.399005e-05
2.831276e-06
5.359318e-06
-1.204212e-05
7.476526e-06
2.990073e-05
3.798972e-05
3.304493e-05
3.422091e-05
9.202747e-06
4.45834e-05
1.434679e-05
-1.323621e-05
2.064941e-05
5.232446e-05
2.808487e-05
1.692481e-05
3.017762e-05
2.600447e-05
4.283609e-05
2.000492e-05
1.679776e-06
2.273493e-05
3.770167e-05
3.985858e-05
4.067083e-05
5.424797e-05
2.503043e-05
5.713465e-05
4.311011e-06
2.635764e-05
6.197208e-05
3.652285e-05
2.584555e-05
6.114309e-05
1.578652e-05
-1.627147e-05
8.298984e-06
6.594424e-06
4.620875e-05
3.160207e-05
9.492464e-06
3.694585e-05
2.593212e-05
-7.056079e-06
9.744672e-06
4.348173e-05
9.014006e-06
-9.004667e-07
4.032485e-05
3.376783e-05
3.028846e-05
2.742175e-05
1.37414e-05
4.967411e-06
5.615028e-06
4.137806e-05
5.724617e-05
7.357555e-05
3.955784e-05
9.273523e-06
2.551204e-07
3.349404e-05
8.716025e-06
2.391161e-06
4.370402e-05
3.042857e-05
2.579545e-05
-1.141301e-05
4.394494e-05
-1.785988e-05
4.297668e-05
4.549952e-05
2.397484e-05
4.049325e-05
4.195867e-05
-1.78222e-06
4.823936e-06
2.568577e-05
1.535688e-08
3.216987e-05
4.570351e-05
4.536855e-05
-5.919558e-06
4.406545e-06
1.532689e-05
2.068614e-05
1.766381e-05
-7.300317e-06
-5.691463e-06
5.685808e-06
3.533058e-05
9.654126e-06
3.027827e-05
2.848003e-05
2.113553e-05
2.10457e-05
2.599893e-05
2.625146e-05
3.954402e-05
1.414334e-05
8.263112e-06
-4.699098e-06
8.485506e-07
-3.612558e-06
3.307912e-05
5.134124e-05
-4.657942e-06
3.539506e-05
3.506206e-05
5.2618e-05
-1.498763e-05
2.432921e-05
2.922954e-05
4.739609e-05
-2.20573e-05
-7.882352e-06
-1.526464e-06
3.996743e-05
3.119291e-05
4.209659e-05
2.662756e-05
-1.023719e-05
3.551456e-05
4.220221e-05
4.935711e-05
3.152413e-05
3.927498e-05
3.703437e-05
7.446931e-06
1.810903e-05
1.782077e-05
3.457069e-05
2.772935e-05
4.20226e-05
3.65057e-05
3.438788e-05
4.345509e-05
4.090656e-05
3.190367e-05
4.238082e-05
4.39893e-05
2.114336e-06
2.147491e-05
3.736666e-05
5.793969e-05
3.668112e-05
1.306821e-06
1.065663e-05
4.773745e-05
3.379148e-05
-7.657094e-06
-6.591281e-06
1.662136e-05
2.026118e-05
5.075149e-05
2.479438e-06
1.878999e-06
3.187521e-05
-6.091069e-06
2.197439e-05
3.784108e-05
4.397788e-05
2.603429e-05
2.535172e-05
4.247376e-06
2.150804e-05
4.258332e-05
1.345797e-05
2.762363e-05
-1.155665e-05
3.510972e-05
2.866057e-05
5.398385e-06
1.752084e-05
5.641247e-05
-1.013174e-05
2.603579e-05
7.787372e-06
4.140251e-06
2.615837e-05
1.497009e-05
2.475817e-05
2.167462e-05
4.20543e-05
4.197703e-05
4.080022e-05
2.892488e-05
4.873958e-05
5.555308e-05
2.373956e-05
1.926544e-06
9.841918e-06
5.829155e-06
3.467032e-06
7.578016e-06
3.204691e-05
4.652189e-05
1.122753e-05
1.32832e-05
3.076224e-05
3.712602e-05
4.429111e-05
2.300968e-05
2.960748e-05
4.716068e-05
3.03743e-05
4.066292e-05
3.94405e-05
1.10635e-05
2.197303e-05
2.919494e-05
1.63078e-05
2.740648e-05
3.376196e-05
2.651015e-05
4.66129e-06
1.243079e-05
3.230668e-05
3.143101e-05
2.022376e-05
2.570625e-05
1.2772e-06
1.920626e-06
-7.098256e-06
2.553567e-05
9.219694e-07
5.749608e-05
4.449521e-05
4.601758e-05
4.761791e-05
4.752359e-05
2.214773e-05
3.942119e-05
2.368723e-05
3.926607e-05
-1.290484e-06
2.968153e-05
-6.145567e-06
2.917718e-05
2.98287e-05
3.051652e-05
3.614916e-05
3.542265e-05
3.975406e-05
1.482201e-05
-2.675763e-05
2.568301e-05
2.683353e-05
-2.830191e-05
4.822555e-05
1.470335e-05
-5.411204e-06
3.064323e-05
2.646592e-05
3.341377e-05
3.792235e-05
2.794463e-05
1.85413e-05
2.902652e-05
1.06569e-05
6.939124e-06
2.470236e-05
-2.039278e-05
6.310933e-05
6.526355e-05
2.468995e-05
-1.002968e-05
2.789945e-05
3.330615e-05
2.660434e-05
4.067781e-05
5.267539e-06
2.456355e-05
1.978667e-05
4.081013e-05
3.820785e-05
1.801555e-05
4.450675e-05
4.173205e-05
3.073202e-05
3.082577e-05
-9.634352e-06
1.954807e-06
6.377367e-05
2.092633e-05
-1.938813e-05
9.951145e-06
2.231185e-05
2.055662e-05
-2.477112e-06
2.339791e-05
4.890633e-06
1.296615e-05
1.627582e-05
2.865748e-05
3.909831e-05
5.791135e-05
5.104576e-05
2.439807e-05
2.80293e-05
2.755206e-05
1.965503e-06
2.963147e-05
2.924795e-05
-8.627631e-06
-6.90277e-07
4.032307e-05
3.37989e-05
-1.838073e-06
1.045613e-05
-6.464452e-06
5.397503e-05
1.373105e-05
5.110364e-05
2.161472e-05
2.035027e-05
-3.377743e-06
1.900857e-06
4.992138e-06
3.822897e-05
3.065468e-05
-9.401041e-06
-1.175386e-05
-1.011903e-05
1.946883e-05
2.009394e-05
2.630953e-05
2.56467e-05
2.667082e-05
-6.972826e-06
-9.342008e-06
3.543639e-05
1.212516e-05
1.668479e-05
-7.943041e-06
3.371191e-06
1.615891e-05
4.199901e-05
1.607715e-07
2.898923e-05
8.62675e-06
6.992811e-06
1.267085e-05
-1.768998e-05
2.869458e-06
-5.882459e-07
4.236567e-06
6.592999e-06
2.757282e-05
2.982893e-05
2.696619e-05
3.356487e-05
4.521914e-06
2.604937e-05
4.008641e-05
8.70854e-06
8.908781e-06
7.684963e-06
-3.357569e-06
1.106569e-05
2.090988e-05
8.425817e-06
9.719737e-06
1.614026e-05
2.39364e-05
3.243153e-05
2.545011e-05
2.507948e-05
-1.347108e-06
1.470584e-05
4.717418e-05
4.231982e-05
3.869942e-05
4.431843e-05
1.327233e-05
-1.144497e-05
5.569319e-05
3.60633e-05
2.759286e-05
5.011629e-06
2.001441e-05
4.357476e-05
4.539044e-05
9.690996e-06
1.368772e-06
9.047073e-07
-2.415261e-05
4.334579e-05
3.46612e-05
2.873824e-05
3.222614e-05
3.942167e-05
-1.866197e-05
-9.972955e-07
2.841642e-05
1.274916e-05
1.458414e-05
-1.271679e-05
2.017973e-05
2.3101e-05
-3.548178e-06
1.400621e-05
6.178851e-06
-2.92279e-06
1.330303e-05
6.040869e-05
1.354117e-05
4.672129e-05
8.836269e-06
5.735153e-05
8.020967e-07
4.963037e-07
-2.602584e-05
2.722995e-05
1.785847e-05
4.098859e-05
-7.827794e-06
4.284424e-06
4.584175e-06
3.849264e-05
-7.386753e-06
2.355943e-05
4.172622e-06
2.729596e-05
2.056837e-05
2.322557e-05
1.973908e-05
-1.58811e-05
4.171593e-05
2.228457e-05
3.579187e-05
1.75728e-05
-3.180942e-06
9.013536e-07
3.398893e-05
3.749283e-05
3.997082e-05
2.068785e-05
-4.97e-06
4.951536e-05
1.263263e-05
4.483752e-05
2.497145e-05
3.810817e-05
4.428947e-05
3.524605e-05
-1.123931e-05
4.769524e-05
3.168308e-05
3.498317e-05
1.816525e-05
-4.947025e-07
3.695431e-05
2.249007e-05
3.905576e-06
4.668998e-05
2.296865e-05
7.798256e-05
3.998573e-05
3.376615e-05
3.729739e-05
4.146663e-05
4.621122e-05
4.70559e-05
3.968349e-05
4.260014e-05
2.689248e-05
4.075321e-05
2.796054e-05
2.841418e-05
4.277574e-05
3.557086e-05
1.78524e-05
-1.122715e-05
2.41544e-05
3.911631e-05
-1.194007e-05
4.067917e-06
1.885705e-05
2.658009e-05
3.078621e-05
4.502276e-05
2.143073e-05
-3.35318e-06
5.306455e-05
3.666147e-05
1.707722e-05
5.352556e-06
-7.89055e-06
3.811481e-05
4.739209e-06
3.011083e-05
2.725657e-05
2.888358e-05
3.421688e-05
5.436674e-05
1.197341e-06
3.779257e-06
-1.854278e-05
-1.350118e-05
2.347423e-05
2.73155e-05
1.063834e-05
1.052584e-05
7.4788e-06
9.232346e-07
2.51146e-05
3.580304e-05
2.911039e-05
2.822122e-05
-1.321219e-05
3.424293e-05
1.824815e-05
-2.344017e-06
1.039489e-05
5.619502e-05
7.970551e-06
9.20691e-06
3.789276e-05
4.252964e-06
1.563963e-05
3.444763e-05
4.94585e-05
5.276481e-05
4.480505e-05
4.558841e-05
4.851894e-05
2.175195e-05
5.990667e-06
2.34862e-05
-1.267876e-05
4.223669e-05
2.948519e-05
2.807697e-06
5.98511e-05
-1.559053e-05
6.933156e-06
1.947243e-05
2.468969e-05
2.568934e-05
2.328012e-05
2.315383e-05
2.928153e-05
3.003827e-05
3.95319e-05
-3.37051e-06
-3.050125e-06
-7.120892e-07
8.335952e-06
-2.910723e-06
2.178434e-06
2.882805e-05
9.593142e-06
1.715523e-05
2.401273e-07
2.486165e-06
4.154145e-06
2.810617e-05
3.297643e-05
3.411011e-05
3.312591e-05
3.245784e-05
1.66349e-05
1.915191e-05
-4.721493e-06
-5.087814e-06
2.742911e-05
2.546426e-05
2.586584e-05
2.424087e-05
2.022801e-05
-1.258907e-06
-6.613966e-06
-5.30618e-07
1.437394e-06
3.534359e-05
3.623393e-05
2.264169e-05
-4.393783e-06
3.564333e-05
3.251789e-05
2.497966e-05
2.024292e-05
3.062938e-05
3.108505e-05
6.905503e-07
-7.292858e-06
-8.040138e-06
-9.929353e-06
-4.398094e-06
3.930258e-05
-2.321323e-06
-9.4953e-06
-1.316125e-05
5.194289e-05
-7.614465e-06
-9.791731e-06
6.200375e-06
2.991623e-05
2.537706e-05
-3.403908e-06
-1.162715e-05
-4.61791e-06
8.498645e-07
3.256021e-05
3.312367e-05
2.667232e-05
3.447311e-05
7.126568e-06
5.64519e-06
1.182373e-05
2.939321e-05
5.088621e-05
2.715008e-05
2.873127e-05
3.186575e-05
5.093082e-05
4.578787e-05
4.253053e-05
4.603359e-06
4.087775e-05
4.787476e-05
3.72285e-05
7.072281e-06
2.462081e-05
4.12838e-05
2.470811e-05
3.421905e-05
2.8034e-06
5.740959e-07
2.529094e-05
2.657028e-05
4.077232e-05
2.450916e-05
2.069173e-05
1.834765e-05
2.402811e-05
3.110655e-06
3.697757e-05
2.734228e-05
4.338296e-05
2.906621e-05
4.181007e-05
4.270913e-06
3.326597e-05
1.472555e-05
4.379764e-05
4.691774e-05
5.244548e-05
5.028829e-05
4.917931e-05
3.268416e-05
3.127099e-05
7.944988e-06
2.851336e-05
-7.017396e-06
2.022183e-05
2.137293e-05
3.209711e-05
2.80119e-05
1.678606e-05
3.589849e-05
-5.012495e-06
-8.218571e-06
2.888984e-05
2.872656e-05
3.962353e-05
2.076277e-05
4.646184e-06
-1.786394e-05
4.265761e-05
4.082703e-05
4.117046e-05
6.096508e-06
5.249546e-05
3.473304e-07
4.622018e-06
1.434638e-05
1.250743e-05
1.350273e-05
3.633227e-05
-1.76302e-07
-3.308803e-06
-1.762729e-06
1.712646e-05
-8.08607e-06
4.219234e-05
-3.345755e-07
-9.778341e-06
8.13123e-06
4.627851e-05
3.904271e-05
3.318932e-05
1.977945e-05
3.30182e-05
3.435496e-05
1.7099e-05
3.951837e-05
2.0663e-05
5.085813e-05
2.378129e-05
2.588597e-05
2.492606e-05
5.135422e-06
3.916904e-05
3.860114e-05
3.847905e-05
2.776779e-06
2.440232e-06
-1.354889e-05
4.311752e-05
3.302525e-05
4.281395e-05
4.313247e-05
2.672073e-05
2.432534e-05
1.522878e-05
5.10614e-05
4.169565e-05
2.872415e-05
2.149866e-05
-1.697219e-05
2.698244e-05
4.395976e-05
-2.528698e-05
3.285642e-05
4.574223e-06
6.577186e-06
3.215497e-05
5.150121e-06
2.982779e-05
2.565622e-05
3.052587e-05
1.78162e-05
3.798459e-05
1.295503e-05
5.728498e-05
6.206e-05
3.202882e-05
3.327449e-05
4.382405e-05
3.452527e-05
4.46633e-05
2.92011e-05
2.761494e-05
3.904649e-05
5.298042e-05
5.291217e-05
6.284447e-06
-1.267718e-06
-1.222488e-05
-1.334059e-05
3.171038e-05
3.978338e-05
4.094542e-05
2.946731e-05
3.92502e-05
6.117956e-05
2.424357e-05
-1.242739e-06
6.020699e-06
-2.25486e-05
2.133221e-05
2.213616e-05
3.131086e-05
1.014454e-05
3.075397e-05
6.189437e-05
4.292599e-05
2.470396e-05
9.586436e-06
3.239388e-06
-6.658526e-06
3.849839e-05
-2.173091e-05
9.391924e-06
3.090678e-05
3.154967e-05
-1.538341e-05
-6.833447e-06
1.622623e-05
-1.694566e-05
4.005212e-05
-1.066878e-05
3.259449e-05
2.638561e-05
2.433061e-05
3.597073e-05
3.748377e-05
2.925153e-05
2.951266e-05
2.17309e-05
1.830554e-05
7.424163e-05
9.676725e-05
1.900846e-05
1.979494e-05
1.502591e-05
2.524647e-05
2.091824e-05
-1.412789e-07
3.703352e-05
1.025092e-07
8.698606e-06
1.004301e-05
3.854356e-05
2.779157e-05
-1.033174e-05
4.420391e-05
3.389514e-05
7.478618e-06
9.564202e-06
1.302251e-05
-1.168291e-05
3.73601e-05
1.192216e-05
9.170735e-06
-5.568606e-06
-6.75954e-06
3.827955e-05
3.487672e-05
-5.167142e-06
-7.287809e-06
1.138849e-05
1.195602e-05
3.882252e-05
2.809809e-05
2.72994e-05
2.934488e-05
2.792563e-05
6.029132e-06
-2.349138e-06
4.499526e-05
4.420659e-05
4.627335e-05
3.630827e-05
2.97366e-05
2.892894e-05
3.943592e-06
-4.554502e-06
7.095739e-06
5.961174e-06
3.500488e-06
2.086513e-06
4.879308e-05
5.482605e-05
3.403301e-05
3.347292e-05
5.847294e-06
6.16909e-06
6.988106e-06
1.709756e-05
8.173826e-06
4.034772e-05
-2.324638e-06
1.767565e-05
1.860945e-05
-7.108157e-07
2.251338e-06
3.636453e-05
-8.767226e-06
2.661552e-05
1.790481e-05
2.608569e-05
-8.961397e-06
1.65721e-05
2.106102e-05
2.265787e-05
-7.581661e-06
-1.182492e-05
-8.360172e-06
1.85151e-05
-5.690719e-06
1.93802e-05
2.293655e-05
-1.365271e-05
2.938357e-05
-3.42557e-06
-4.418179e-06
4.538219e-05
-1.30054e-05
2.485004e-05
2.631547e-05
2.606177e-05
4.014583e-05
4.147391e-05
4.543648e-05
4.677745e-05
3.232452e-05
-3.446973e-06
3.179104e-05
2.507795e-06
3.208275e-06
1.342384e-06
7.057784e-05
-1.449718e-05
3.928694e-05
3.517923e-05
-2.376549e-06
4.857883e-05
6.303746e-05
1.825365e-05
2.310086e-05
1.591261e-05
6.523858e-05
2.691906e-05
2.826717e-05
2.571536e-05
3.471367e-05
3.509421e-05
-1.3244e-06
4.125487e-05
5.589841e-06
9.283392e-06
4.182616e-05
1.156947e-05
7.501899e-06
6.875326e-06
3.894495e-05
2.410416e-05
-1.429914e-05
5.563186e-06
1.937064e-05
1.00515e-05
-1.364566e-05
2.656544e-05
3.651656e-05
-8.389826e-06
2.754885e-05
3.768096e-05
4.174495e-05
3.967952e-05
3.426787e-05
4.628023e-05
4.151137e-05
4.222345e-05
5.523885e-05
2.20585e-05
1.571369e-05
3.139759e-05
2.614287e-05
2.933922e-05
4.109388e-05
5.393981e-05
5.667164e-05
-4.594847e-06
3.651622e-05
4.589158e-06
2.676551e-05
4.657386e-05
2.128987e-05
2.76303e-05
3.099463e-05
3.516546e-05
3.628751e-05
2.397906e-05
-8.763448e-06
4.201023e-05
2.896876e-05
3.392437e-05
3.188435e-06
-1.236109e-06
2.049115e-06
5.175303e-06
3.164527e-05
1.641784e-06
-1.148711e-05
2.514331e-05
2.540029e-05
2.231195e-05
2.363798e-05
2.709053e-05
-6.061601e-06
2.891918e-05
2.976354e-05
8.22971e-06
1.256646e-06
4.30229e-05
4.551718e-05
4.221438e-05
4.229519e-05
4.217186e-05
1.898e-05
4.325872e-06
2.684387e-05
2.317585e-05
-1.068802e-05
7.484149e-06
7.674648e-06
1.508415e-05
2.600623e-05
1.441742e-05
1.510636e-05
4.239939e-05
3.531682e-05
3.541092e-05
4.16013e-05
4.007586e-05
3.57006e-05
4.137976e-05
3.295501e-05
4.022162e-05
4.206185e-05
2.202117e-05
4.129702e-05
3.10535e-05
3.570577e-05
3.960724e-05
3.636326e-05
-7.542894e-06
1.190561e-05
1.712988e-05
9.051208e-07
7.523804e-05
6.985706e-05
2.076607e-05
-1.782554e-05
3.043758e-05
5.377223e-05
5.56335e-06
3.242454e-05
3.239777e-05
9.288009e-06
1.176914e-05
2.838153e-05
1.974391e-05
3.197349e-05
3.098034e-05
2.507782e-05
7.59564e-06
1.122926e-05
2.675716e-05
2.915536e-05
4.729795e-06
3.114882e-05
1.23721e-05
3.576986e-05
4.91065e-05
1.108732e-05
2.477739e-05
4.35592e-05
4.850791e-06
2.248266e-05
4.326889e-06
1.437374e-05
2.749684e-05
3.090433e-05
3.86078e-05
1.700372e-05
-1.534731e-05
5.446601e-06
-1.155604e-05
2.595024e-05
1.923887e-05
1.578333e-05
1.636049e-05
4.554765e-05
2.176674e-05
4.183436e-05
2.305635e-05
1.42985e-05
-7.695509e-07
2.48954e-06
4.614883e-05
6.337949e-05
7.251772e-05
2.452036e-05
-5.892741e-06
2.843499e-05
2.937976e-05
2.212358e-05
3.184588e-05
3.150994e-05
-2.616745e-05
3.283194e-05
-9.267659e-06
2.818993e-05
-6.671113e-06
2.620346e-05
4.071703e-06
-5.880219e-06
4.099751e-05
5.156161e-06
9.32591e-06
3.865608e-05
2.482716e-05
6.237932e-06
2.966628e-05
2.8723e-05
4.005799e-05
1.419059e-05
1.290276e-05
1.238302e-05
1.354114e-05
4.764841e-05
4.583776e-05
3.769058e-05
3.951e-05
3.739282e-05
3.814991e-05
3.703261e-05
2.991839e-05
7.927281e-05
3.103383e-05
1.277583e-05
3.020461e-05
3.004807e-05
-3.647821e-06
-1.927595e-05
6.41508e-06
3.510093e-06
2.495636e-05
5.602414e-05
1.520968e-05
2.746442e-05
4.649094e-05
9.674321e-06
7.492025e-06
-8.420744e-06
2.958888e-05
2.733174e-05
2.620574e-05
3.014207e-05
3.826153e-05
3.94217e-05
6.554976e-05
4.123092e-05
2.38498e-05
4.523287e-05
4.42639e-05
3.494703e-05
3.829239e-05
2.252211e-05
-2.656264e-06
-8.056213e-06
7.951834e-06
7.212457e-05
1.887324e-05
-1.937137e-06
-1.059407e-05
3.508123e-07
2.098914e-05
1.553571e-05
2.675813e-05
2.983262e-05
-9.483987e-06
6.481217e-05
6.155613e-05
2.896017e-05
7.687574e-06
6.728487e-05
3.923111e-05
3.95865e-05
1.167951e-05
3.935621e-06
3.10981e-05
3.174195e-05
3.387107e-05
-1.563032e-05
-1.046646e-05
4.016338e-05
4.039654e-05
2.418933e-06
3.923292e-05
2.31e-05
-1.7837e-05
-2.281389e-05
-1.317597e-05
3.451668e-05
1.020984e-06
-1.242816e-05
-1.363736e-05
3.326827e-05
2.794308e-05
6.364772e-05
1.403763e-05
4.603883e-05
2.749785e-05
1.965339e-05
-4.078899e-06
1.621542e-06
1.467027e-05
3.879327e-06
3.223728e-05
3.15857e-05
9.663163e-06
1.323597e-05
2.434812e-05
1.028467e-05
4.893534e-05
5.427538e-06
3.105813e-05
3.441299e-05
3.006592e-05
1.724138e-05
-9.016956e-06
-4.236924e-06
3.4662e-05
2.586492e-05
2.532291e-05
2.927963e-05
6.492451e-06
3.675413e-05
-8.520208e-06
1.535158e-05
6.510163e-05
1.931729e-05
5.680813e-05
-4.097711e-06
2.099547e-06
3.555702e-05
-1.592603e-05
-3.008598e-06
7.254285e-06
2.067567e-05
2.17447e-05
4.549663e-05
4.81796e-05
4.624776e-05
4.473618e-05
4.671046e-05
4.503625e-05
4.754354e-05
4.301131e-05
4.592716e-05
-1.167869e-05
-1.239438e-05
-3.934505e-06
-2.038479e-06
4.331232e-05
4.318478e-05
4.265688e-05
4.420237e-05
4.454528e-05
4.377018e-05
-1.715376e-06
-1.573267e-06
-8.191362e-07
-8.762234e-06
-1.066876e-05
2.880525e-05
8.370815e-06
3.737642e-05
1.24722e-07
-2.512719e-05
5.424058e-05
-5.570298e-06
-5.05362e-06
-1.766959e-05
3.391254e-05
9.052742e-06
9.952149e-06
-2.160143e-06
-5.797616e-07
2.538279e-05
2.231019e-05
1.255402e-05
5.939664e-05
4.966506e-05
2.590542e-05
2.338125e-05
-3.783106e-07
1.659308e-05
2.452237e-05
2.521852e-05
-2.36847e-06
2.976396e-06
3.925242e-05
7.39564e-06
8.993126e-06
-1.936096e-05
1.507524e-06
-6.970557e-06
1.158716e-05
1.164447e-05
3.410752e-05
3.277151e-05
2.486299e-05
2.486423e-05
2.077375e-05
-3.443296e-06
-5.326668e-06
-1.809354e-06
3.124458e-05
3.149415e-05
3.122736e-05
-1.409069e-05
5.581868e-07
1.087734e-06
1.921652e-05
1.411308e-05
5.382958e-05
1.773255e-05
1.731288e-05
1.976191e-05
3.644293e-05
4.403635e-05
4.8508e-05
4.320349e-06
5.005655e-05
2.72871e-05
3.99881e-05
2.700306e-05
1.787929e-05
7.483229e-06
2.793207e-05
4.399898e-05
1.008254e-05
6.925051e-05
6.884519e-05
2.976205e-05
3.022424e-05
3.593111e-05
4.020848e-05
3.428972e-06
4.419824e-06
5.626736e-06
2.608487e-05
4.207709e-05
3.89031e-05
3.749828e-05
-6.653436e-06
2.865806e-06
3.071168e-06
8.35386e-06
2.115155e-06
3.446917e-05
3.544175e-05
2.866437e-05
2.886913e-05
5.774881e-06
6.423024e-06
-4.989406e-07
1.448201e-05
1.520847e-05
8.322039e-06
3.777997e-05
4.691036e-07
7.328561e-07
2.509053e-05
2.469972e-05
3.002864e-05
2.419675e-05
2.454122e-05
2.804436e-05
2.844343e-05
3.078777e-05
2.482895e-05
2.208937e-05
3.183366e-05
4.261114e-05
3.713615e-05
2.829928e-05
6.426093e-06
3.108109e-05
4.628208e-06
6.122278e-06
1.492595e-05
2.793532e-05
2.592312e-05
2.703892e-05
2.744432e-05
2.552119e-05
3.678969e-05
1.105052e-05
3.383326e-05
4.233075e-05
-1.86766e-05
2.608708e-05
2.520924e-05
2.470166e-05
1.883062e-05
1.878353e-05
-1.47359e-05
2.435347e-05
-6.508758e-06
2.662648e-05
1.341599e-06
3.011344e-05
2.114421e-05
4.216353e-05
4.18915e-05
3.226459e-05
1.560786e-06
5.514074e-07
1.647514e-05
9.393807e-06
2.058818e-05
2.741782e-05
3.582191e-05
3.591994e-05
3.518881e-05
6.106792e-06
1.250936e-05
-7.912231e-06
4.126929e-05
4.144628e-05
2.986379e-05
2.807648e-05
1.00674e-05
8.924207e-07
1.197588e-05
1.380476e-05
3.193847e-05
-3.487084e-05
3.283755e-05
3.285346e-05
5.100294e-05
5.101522e-05
3.555543e-05
4.263025e-07
2.704926e-06
-8.868594e-06
2.123883e-05
2.104224e-05
3.425142e-05
5.756651e-05
-2.386187e-06
2.553323e-05
6.272321e-06
3.490583e-05
1.957612e-06
2.024401e-06
1.817893e-05
2.276544e-05
4.565966e-05
2.959364e-05
-2.051985e-05
-1.959732e-05
4.299485e-05
6.58342e-05
2.931209e-05
-1.958021e-05
-1.527513e-05
3.502554e-05
3.899412e-05
3.641864e-05
3.489257e-05
3.978419e-05
3.912315e-05
4.041959e-05
4.00604e-05
3.706019e-05
3.686826e-05
2.432001e-05
2.774062e-05
2.665058e-05
2.524231e-05
3.937188e-05
3.628087e-05
3.743386e-05
1.551921e-06
3.861468e-05
2.914977e-05
2.337691e-05
2.351222e-05
2.707949e-05
2.507427e-05
2.415043e-06
-6.667989e-06
1.758103e-05
4.362544e-05
4.065349e-05
-1.171124e-05
3.984623e-05
3.960652e-05
4.220729e-05
3.927303e-05
-8.346705e-07
4.548008e-05
9.53042e-07
3.514411e-06
3.650506e-05
4.294819e-05
4.075425e-05
4.114242e-05
3.983801e-05
2.400742e-05
5.280628e-05
6.622291e-05
1.170798e-05
1.245841e-05
8.011321e-06
1.895851e-05
2.127259e-05
2.177985e-05
5.29279e-05
2.393051e-05
2.448197e-06
2.851406e-05
3.100345e-05
1.344115e-05
3.556663e-05
3.620775e-05
3.942144e-05
5.711064e-06
3.048793e-05
2.961057e-05
-2.285304e-06
7.549375e-06
2.531426e-05
2.608628e-05
2.028784e-06
6.903407e-05
1.301338e-05
1.286541e-05
1.218375e-05
1.301383e-05
5.237209e-05
5.75839e-05
4.839064e-05
2.617091e-05
-1.94363e-06
2.741404e-05
-1.059135e-05
-1.192723e-05
2.025807e-06
4.171969e-05
2.751524e-05
-3.025132e-06
2.59473e-05
2.783844e-05
1.443993e-06
1.07908e-05
-9.563819e-06
-8.213476e-06
3.457322e-05
4.691127e-06
5.240374e-06
2.511137e-05
2.818191e-05
1.185827e-05
5.020542e-05
3.482383e-05
3.538943e-05
6.838314e-05
5.787218e-05
2.396462e-05
1.850309e-05
-1.116516e-05
3.013267e-05
3.84776e-05
3.843053e-05
-2.234069e-05
3.884632e-06
3.401612e-05
3.372743e-05
-2.084459e-06
-6.383871e-07
7.256256e-05
2.265665e-05
2.178056e-05
1.507894e-05
1.078389e-06
1.619655e-05
-1.307267e-05
2.929646e-06
2.902298e-05
2.606525e-05
7.501065e-06
2.28992e-05
4.70358e-06
4.740585e-06
4.679273e-05
4.631398e-05
2.606284e-05
3.834709e-05
3.858239e-05
2.6909e-05
2.154091e-05
2.752286e-05
2.690709e-05
1.120588e-06
2.98706e-05
3.351051e-05
4.674138e-05
3.520041e-05
1.356236e-05
1.337803e-05
4.037399e-05
3.837446e-05
-1.427025e-06
-1.835199e-06
4.203512e-06
1.519887e-05
1.249277e-05
1.742199e-05
1.871152e-05
5.993608e-05
3.033673e-05
-1.960776e-05
2.028754e-05
1.835943e-05
1.889779e-05
1.509779e-06
2.449205e-05
1.852455e-05
4.709154e-05
4.547216e-05
7.967939e-06
1.499683e-05
1.607726e-05
4.699717e-05
3.896889e-05
3.654447e-05
3.620966e-05
-1.235609e-05
4.107546e-05
4.318473e-05
2.034711e-05
3.139114e-05
3.053086e-05
3.93385e-05
3.867058e-05
2.405375e-05
4.509077e-05
4.522202e-05
4.906413e-05
4.519215e-05
4.681023e-05
4.646405e-05
4.01552e-05
5.139417e-05
3.031973e-05
-2.527197e-06
4.137858e-05
-1.445839e-06
-2.915365e-06
2.879003e-05
2.577846e-05
1.218071e-05
1.194057e-05
3.408653e-06
5.745013e-06
4.323672e-05
-4.731733e-06
2.365698e-05
-6.846616e-06
1.996977e-06
3.975596e-05
-3.482503e-06
2.825921e-05
2.868063e-05
3.713665e-05
1.035816e-05
3.118141e-05
3.838071e-05
1.014288e-05
3.500667e-05
2.672566e-05
1.567093e-05
-1.509771e-05
-1.397621e-05
2.778037e-05
2.783905e-05
4.832198e-05
5.155039e-06
5.163128e-05
6.626065e-05
1.476404e-05
3.599064e-05
3.626473e-05
5.056854e-05
1.845276e-05
2.171386e-05
4.968333e-05
4.904881e-05
3.095848e-05
9.586537e-06
8.205758e-06
2.586373e-06
2.411449e-06
9.240402e-06
5.021337e-06
1.140277e-05
-1.363378e-05
4.183195e-06
3.498607e-06
4.191292e-05
9.178236e-06
6.439328e-06
-1.937258e-06
-2.243156e-05
1.919449e-05
7.754393e-06
4.147971e-05
2.739275e-05
2.598423e-05
2.540805e-05
4.958439e-05
8.477357e-06
6.643746e-05
1.762585e-05
2.759125e-05
4.091985e-05
3.468391e-05
2.377313e-07
2.370656e-05
-5.024443e-06
2.774896e-05
4.284355e-05
1.390126e-05
1.417767e-05
-2.800205e-06
2.82324e-05
3.381164e-05
-5.432731e-06
2.597065e-05
2.519422e-05
7.842042e-06
8.152803e-06
9.27095e-06
2.609993e-05
2.605305e-05
3.311669e-05
5.012914e-05
5.067014e-05
3.148937e-05
-5.560036e-06
3.983545e-05
2.30744e-05
2.23871e-05
3.600947e-05
3.585193e-05
1.230215e-05
6.30334e-06
-4.67809e-06
-3.940942e-06
-2.123082e-06
2.638455e-05
2.749127e-05
5.011391e-06
3.755303e-05
3.794104e-05
3.300969e-05
3.835519e-05
3.72226e-05
4.022941e-05
3.839128e-05
2.49928e-05
3.426568e-05
3.380894e-05
4.703297e-05
5.521446e-05
6.002285e-05
3.067499e-05
1.035663e-06
8.854902e-07
6.131992e-05
9.640393e-06
9.247467e-06
-6.417077e-06
3.27247e-05
6.856719e-05
3.980153e-05
3.97596e-05
2.168457e-06
3.618577e-05
3.728149e-05
9.863415e-08
-5.581589e-06
3.400748e-05
2.116135e-05
3.866298e-05
2.650946e-05
2.615162e-05
5.989526e-06
3.124783e-05
3.864763e-05
3.762257e-05
-1.416637e-05
-1.064947e-05
1.084555e-05
1.114617e-05
4.145526e-05
4.139329e-05
1.131476e-05
4.539188e-05
1.267868e-05
1.189854e-05
1.324336e-05
1.278994e-05
-1.222654e-05
1.90622e-05
2.784696e-05
5.972311e-05
5.742479e-05
2.985444e-05
2.948808e-05
5.470461e-06
6.909343e-06
5.320624e-05
5.290086e-05
-8.036072e-06
3.831015e-05
2.889891e-05
2.832157e-05
2.907931e-05
2.93314e-05
-4.296628e-06
9.317595e-08
6.753132e-06
9.367239e-06
-8.572248e-06
-5.988226e-06
-1.217844e-05
1.886095e-05
1.669999e-05
1.219851e-05
2.042228e-05
3.991676e-05
4.047115e-05
2.532091e-05
1.071333e-05
4.851166e-05
4.144016e-05
5.049118e-05
2.116317e-05
5.961618e-06
5.654389e-06
5.332266e-05
5.204278e-05
2.64297e-05
2.674827e-05
3.513835e-05
-1.822169e-05
-1.706712e-05
3.806922e-05
3.927067e-05
5.488325e-05
3.282337e-05
3.313862e-05
6.341446e-05
6.327744e-05
6.08636e-05
6.188097e-05
7.736387e-05
-2.055438e-05
2.291973e-05
2.075683e-05
5.636046e-06
-3.580192e-06
1.204563e-06
4.193238e-06
-5.665623e-06
3.201103e-05
3.008199e-05
-1.348533e-05
7.152176e-06
3.756332e-05
3.310802e-05
1.600417e-05
1.1209e-05
3.52936e-05
-5.114497e-07
3.27725e-05
-1.182551e-05
-1.071159e-05
1.085142e-05
-1.725282e-06
2.75972e-05
-7.79969e-06
-1.181969e-05
1.080947e-05
-3.961002e-06
-3.447209e-06
3.903153e-06
2.887026e-06
2.372454e-06
-6.845229e-07
1.374624e-05
1.466164e-05
2.491374e-05
2.788733e-06
2.493853e-06
7.839422e-06
4.044404e-05
4.250379e-05
4.277739e-05
4.211857e-05
1.545842e-05
1.571435e-05
1.019788e-05
8.469477e-06
-1.649932e-06
-3.029379e-06
-5.865144e-06
-4.219857e-06
-4.243629e-06
-5.315467e-06
2.271099e-05
2.604999e-05
2.663189e-05
2.514752e-05
2.487549e-05
2.751027e-05
2.552267e-05