/*--------------------------------*- C++ -*----------------------------------*\
| =========                 |                                                 |
| \\      /  F ield         | OpenFOAM: The Open Source CFD Toolbox           |
|  \\    /   O peration     | Version:  2406                                  |
|   \\  /    A nd           | Website:  www.openfoam.com                      |
|    \\/     M anipulation  |                                                 |
\*---------------------------------------------------------------------------*/
FoamFile
{
    version     2.0;
    format      ascii;
    arch        "LSB;label=32;scalar=64";
    class       volVectorField;
    location    "0.24";
    object      U;
}
// * * * * * * * * * * * * * * * * * * * * * * * * * * * * * * * * * * * * * //

dimensions      [0 1 -1 0 0 0 0];

internalField   nonuniform List<vector> 
4536
(
(0.009293235 -0.001776695 -9.868473e-24)
(0.01011148 0.0006284779 0)
(0.01079453 -0.0008502438 -5.084206e-25)
(0.008589906 -0.001837427 -4.92052e-24)
(0.009398694 -3.730286e-05 -2.712507e-23)
(0.009142528 -0.0003013852 1.878524e-23)
(0.01009637 0.000579335 -8.305813e-24)
(0.01017222 0.0005616777 -1.526922e-23)
(0.01159144 3.917844e-05 6.71468e-25)
(0.009779612 0.0006598551 4.630281e-24)
(0.01097158 -0.001094265 0)
(0.01101706 -0.0006041429 0)
(0.01024193 -0.001509577 -1.961269e-24)
(0.009817842 0.000412345 0)
(0.01010191 0.0007253167 -1.710363e-23)
(0.01069888 0.0003437339 1.549994e-23)
(0.009945765 0.001077503 1.051967e-23)
(0.01074729 -0.0009993163 0)
(0.009559727 -0.0001907398 -3.423229e-24)
(0.008757954 0.002545321 1.087623e-23)
(0.01014476 0.0003756518 8.36584e-24)
(0.01021803 0.0005576773 1.292791e-23)
(0.0111468 -0.0002438014 -1.527829e-25)
(0.01031923 0.001122279 -6.458351e-24)
(0.01137357 -0.0002686124 0)
(0.008815848 0.0003269207 0)
(0.01033164 0.0005636654 5.970287e-24)
(0.01011298 0.0004539531 -4.566809e-26)
(0.008475908 -0.001569552 0)
(0.01080811 -0.0001180252 -7.758347e-24)
(0.01101051 0.0009710669 0)
(0.01073346 -0.0006023042 -9.739007e-25)
(0.00976452 0.0008052442 3.962506e-23)
(0.0108178 0.0002535006 5.922435e-24)
(0.01051072 0.0002652505 3.631414e-24)
(0.009783795 0.000558016 0)
(0.01003188 0.0004817054 -5.906062e-24)
(0.009997352 0.0001615545 0)
(0.01010661 0.0005068981 6.846321e-24)
(0.01121744 0.0002509812 2.604349e-24)
(0.0106309 0.001032237 4.523693e-24)
(0.01107915 0.0003853053 3.140054e-26)
(0.01005877 0.0004906372 0)
(0.008931243 0.00120166 2.156099e-23)
(0.01088675 0.0002366078 4.908724e-24)
(0.009276097 -0.00174292 -5.976535e-24)
(0.01032287 0.001041468 0)
(0.01093976 0.0006115469 0)
(0.01067901 -0.001146209 0)
(0.009724863 0.0009404096 -1.844402e-23)
(0.009923788 0.002441005 0)
(0.009314381 0.0007539632 2.318343e-23)
(0.01037268 0.000638886 9.708314e-24)
(0.01119591 -0.0007358798 -4.965665e-25)
(0.008694143 -8.453539e-05 0)
(0.009810928 0.0003787727 0)
(0.009364278 0.0005580852 3.8951e-23)
(0.01082975 0.0008301318 0)
(0.009917943 -0.0009502568 0)
(0.01056708 -0.001007532 8.032683e-25)
(0.00915399 0.002119544 -3.567892e-24)
(0.01069721 0.001118065 5.527493e-24)
(0.01085551 -0.001109467 0)
(0.0100118 0.001153516 2.550962e-23)
(0.01053576 0.0005130351 2.045897e-23)
(0.01109419 4.745376e-05 -5.083456e-24)
(0.0101183 0.0006746179 -6.688192e-24)
(0.01111397 0.0002576697 5.07343e-24)
(0.01008953 6.733781e-05 -4.387698e-24)
(0.01117749 1.696697e-05 -1.918433e-25)
(0.01066904 0.0008273151 0)
(0.009713335 0.0007167531 3.256536e-23)
(0.01121003 -0.0002636129 0)
(0.01012133 -0.001585083 0)
(0.01001452 0.0001250549 7.43145e-24)
(0.01131077 -0.0004454006 0)
(0.01143245 0.0006604506 0)
(0.01007499 0.0008811528 0)
(0.009778117 -0.001673797 0)
(0.01128403 -0.0006494501 -6.820767e-25)
(0.01079764 0.0009420023 0)
(0.007741674 -6.16928e-05 0)
(0.005976347 0.002139761 3.896906e-23)
(0.01039887 -0.001468938 4.115134e-24)
(0.009527483 0.001129564 0)
(0.01064581 0.0009076968 -1.418651e-23)
(0.01049495 0.0006431515 0)
(0.01038234 0.0004071855 -1.60622e-23)
(0.0107154 0.0007044253 0)
(0.0090723 0.002593299 1.25101e-23)
(0.01009016 0.0006825693 7.866164e-24)
(0.009530792 0.0002860733 -2.069584e-23)
(0.009650987 0.0005490481 0)
(0.01117827 0.001018012 2.022912e-24)
(0.01030142 0.0008049997 1.225791e-23)
(0.009971482 0.0003867417 -9.383913e-24)
(0.01142015 -0.0001645608 -2.058147e-24)
(0.01012453 0.0007499911 2.107207e-23)
(0.009432544 -0.001681521 -8.375146e-24)
(0.01074352 -8.160152e-05 1.849031e-24)
(0.008378563 -0.001833793 0)
(0.01088776 -0.000366102 1.091332e-24)
(0.01077693 0.0002922514 0)
(0.009959307 0.0002251588 1.814386e-24)
(0.01036845 -0.001487129 -8.308176e-24)
(0.01084175 -0.001013211 0)
(0.01075822 0.0006040249 -8.056365e-24)
(0.0104248 -0.001102697 0)
(0.01070392 0.001369177 0)
(0.01086932 0.001825569 0)
(0.006738392 0.001443284 -3.50569e-23)
(0.00996725 0.001044817 -7.265455e-24)
(0.01023432 0.0004994594 1.650463e-23)
(0.009611072 0.0006499428 0)
(0.0100349 0.0005943229 2.689447e-24)
(0.01120233 -0.0003076484 5.614749e-25)
(0.009467626 -0.001617317 4.288366e-24)
(0.01032901 0.0005135864 1.018757e-23)
(0.009917892 0.0005494689 0)
(0.01094895 0.0002021764 8.884085e-26)
(0.01113194 -0.000151605 6.062032e-25)
(0.01075989 0.0001532425 -7.440179e-24)
(0.0109258 -0.000477122 2.491566e-24)
(0.01091738 0.0004589292 0)
(0.01099458 0.001598274 9.111489e-25)
(0.00807571 0.002674753 -1.962048e-23)
(0.009898553 0.0003559205 -1.301572e-23)
(0.01056573 0.0004210746 -8.570069e-24)
(0.01149925 0.0007421355 5.069636e-24)
(0.009716257 0.0004183253 0)
(0.009402777 -0.00156791 0)
(0.01122259 -0.0005898749 5.359792e-25)
(0.009038192 0.000676453 0)
(0.01026374 0.0004692601 1.660198e-23)
(0.008584562 0.0007096633 7.087654e-25)
(0.01017372 0.000433877 1.050459e-24)
(0.01006862 -0.001593586 0)
(0.01141509 0.0001235915 1.340266e-24)
(0.0101076 0.0004451462 0)
(0.01078818 0.0003523101 -4.563469e-24)
(0.009974954 0.0002147371 0)
(0.01130687 -0.000503625 0)
(0.01097182 0.0003391331 0)
(0.009781412 0.0006319672 -1.552981e-23)
(0.01020503 0.000430378 9.126741e-26)
(0.01057224 -0.0009646252 -6.403278e-25)
(0.01128909 0.001317908 -1.325369e-24)
(0.01015916 0.002074579 2.901276e-24)
(0.01013299 0.0007336417 -1.309655e-23)
(0.008743454 5.182872e-05 -3.200282e-23)
(0.01024992 0.0006033642 0)
(0.01002018 0.0004702717 1.986259e-23)
(0.01141416 -0.0005172622 -1.398159e-25)
(0.01060555 0.0003349023 0)
(0.009375512 0.0001088116 3.159576e-23)
(0.00939069 0.0006207576 6.093392e-24)
(0.009533921 7.658329e-05 1.639944e-23)
(0.01127316 0.00110735 1.225315e-23)
(0.009996867 0.0008754503 -1.783191e-24)
(0.01113946 -0.0005295108 8.065499e-25)
(0.01155521 0.00028474 0)
(0.01000079 0.0001986301 5.210513e-25)
(0.01117864 -0.0003254687 0)
(0.009849259 0.0004593561 -3.215003e-23)
(0.007102661 0.002934494 2.964886e-23)
(0.01002118 0.0003120694 -2.474981e-23)
(0.01106941 0.0001745791 -3.558327e-24)
(0.01037258 0.0004794031 0)
(0.01083577 -0.0005619331 -4.275084e-25)
(0.008844864 0.002385721 -3.341313e-23)
(0.009573964 4.153845e-07 -3.205711e-23)
(0.009977435 0.0004695201 0)
(0.01052149 0.0002170867 -1.1136e-23)
(0.005857744 0.001843238 4.920996e-23)
(0.01061075 0.0008149727 -3.01829e-25)
(0.009442345 -6.166639e-05 -8.567874e-24)
(0.01151058 0.0002647237 -2.6174e-24)
(0.0101991 0.0005204103 -1.874973e-24)
(0.0101689 0.001621448 0)
(0.01058319 0.0005090491 0)
(0.01079834 0.0004917374 -3.178967e-24)
(0.01011622 0.000425834 -5.206408e-24)
(0.007413789 0.0005201388 0)
(0.009812767 9.816881e-05 1.339023e-23)
(0.009208888 -0.0002182436 -1.587666e-23)
(0.008047452 0.0004985062 -2.793734e-23)
(0.01090653 -0.0004832302 -7.978747e-27)
(0.01062727 0.0007815864 -1.534919e-23)
(0.01143633 0.0002998057 -2.947183e-24)
(0.01050649 0.0006604358 0)
(0.01124202 -0.0005925341 -5.409598e-25)
(0.008571936 -0.001621715 -3.952373e-24)
(0.0114195 -0.000280177 0)
(0.009939076 -0.001291694 5.558355e-25)
(0.01078576 -0.0005689726 -1.179385e-24)
(0.008576742 0.001347686 -2.473673e-23)
(0.008782588 0.001885856 0)
(0.009336151 0.001591172 1.979521e-23)
(0.00928297 0.001364219 0)
(0.009910925 0.0005921225 -6.035374e-24)
(0.01066868 0.001611626 -3.967726e-24)
(0.01064438 0.001100956 -4.352431e-24)
(0.0101461 0.0005119611 6.823603e-24)
(0.010182 0.0005884936 0)
(0.0100085 0.0001503843 0)
(0.0103767 0.001267702 0)
(0.01072217 0.001016649 1.311066e-23)
(0.01044097 -0.001425624 -5.677586e-24)
(0.01019916 0.0008364722 0)
(0.008445789 0.002859724 -8.369514e-24)
(0.0102143 -0.001478707 4.162493e-24)
(0.01026291 0.0001994837 0)
(0.01129975 0.001003295 -8.112837e-24)
(0.008760509 0.0007024865 0)
(0.01066623 0.0004615522 0)
(0.01013514 0.0004378027 -2.023836e-23)
(0.01092937 -0.001052017 9.389915e-25)
(0.01149082 -0.0001334279 -2.283716e-24)
(0.009913261 0.0005283085 0)
(0.009802737 0.0008784443 5.449184e-24)
(0.01140074 0.0009205585 -5.775786e-24)
(0.01053286 0.00056326 -7.622145e-24)
(0.01157612 0.0005039523 4.194819e-26)
(0.01142753 -0.000504763 -1.02282e-24)
(0.01129249 -0.0003488796 9.443777e-26)
(0.01060857 0.0006430997 1.197819e-23)
(0.01051374 0.0008712599 1.972613e-23)
(0.009750477 -0.001637549 -8.041462e-24)
(0.01036381 0.001179511 4.901711e-24)
(0.01066964 -0.00121913 0)
(0.01082539 0.0007303363 -6.003344e-24)
(0.01083152 -0.001105795 0)
(0.01095617 3.983368e-05 0)
(0.009414217 0.001141594 1.97287e-23)
(0.01149279 0.0009034617 3.190794e-24)
(0.009211359 0.0009775367 0)
(0.006955602 2.797368e-05 -4.550125e-23)
(0.009793774 0.0007413581 -9.289936e-24)
(0.01025685 0.000561151 -5.095876e-24)
(0.01117246 0.0005974083 4.946828e-24)
(0.01108574 -0.0006822423 -7.463988e-26)
(0.009463147 0.0004745406 -2.092785e-23)
(0.01076817 0.0002348015 6.713025e-24)
(0.01071359 0.0006096096 -1.327348e-23)
(0.009369547 -4.141467e-05 5.520064e-25)
(0.0106239 -4.311985e-05 1.269021e-24)
(0.01089146 -0.0001608001 -2.749106e-24)
(0.01021554 0.0001374392 1.557067e-24)
(0.01009607 0.0005274972 -1.237424e-23)
(0.01072734 8.954605e-05 8.609566e-25)
(0.01156919 0.0001071391 -7.065722e-26)
(0.009614692 0.0004013783 -3.014373e-23)
(0.007853067 0.0007096472 -3.442492e-23)
(0.007383826 0.001962498 0)
(0.009488379 0.0005003742 -1.720582e-23)
(0.01074379 0.001886857 -1.107209e-23)
(0.01128729 -5.198501e-05 -3.378486e-24)
(0.01068088 0.001654143 0)
(0.01087481 -0.0004407235 -2.013255e-24)
(0.01103129 -0.0004789822 -1.284598e-24)
(0.01008226 0.0004669324 -2.383774e-23)
(0.01027561 0.0007021419 2.045996e-23)
(0.009582526 0.000348857 6.735295e-25)
(0.008961871 -0.001543468 5.927907e-24)
(0.00650886 0.001561741 -3.911024e-23)
(0.01114986 -0.0002173545 3.982284e-24)
(0.01061595 5.607832e-05 -6.726062e-24)
(0.01114491 0.0007261009 9.348364e-24)
(0.009205485 0.0006625018 -1.40776e-25)
(0.009791317 0.0009312617 -1.211358e-25)
(0.01076917 -0.0008322346 6.72285e-25)
(0.01085204 0.0003263725 -7.190009e-24)
(0.009017328 -0.00178987 3.497083e-24)
(0.009600901 0.0008752271 -9.364818e-24)
(0.01018538 0.0005019358 -4.163466e-24)
(0.01064402 -8.939755e-06 -8.546734e-25)
(0.01141813 0.0009867698 -1.397982e-24)
(0.01085804 8.342406e-05 6.802636e-24)
(0.009708658 0.0002417739 2.724673e-23)
(0.009076385 2.296466e-05 -2.245667e-23)
(0.01094833 0.001265048 9.426212e-24)
(0.01002959 0.001487692 2.637235e-24)
(0.008446636 0.001036299 1.873907e-23)
(0.01002493 0.0003967602 1.801381e-23)
(0.009707603 -0.001417609 0)
(0.01136448 0.0009997323 6.121112e-24)
(0.01101421 0.0008264257 -8.385309e-24)
(0.008397398 0.001595428 3.230916e-24)
(0.009934907 0.0003694661 6.900279e-24)
(0.01091249 -0.000432717 -2.423613e-24)
(0.01125568 -0.0006846673 0)
(0.01156963 1.511373e-05 1.23235e-25)
(0.01114622 0.001419354 -8.31148e-24)
(0.01019216 0.0008832934 3.313863e-23)
(0.01029796 0.00123443 0)
(0.01036482 0.0009829325 1.720117e-23)
(0.0110986 2.515715e-05 -7.86121e-24)
(0.01099297 0.0003397609 7.343016e-24)
(0.01014272 0.001012444 1.267337e-23)
(0.01012249 0.0004527036 -5.842406e-24)
(0.01099783 0.0002007538 3.678984e-25)
(0.01104438 7.27332e-05 0)
(0.01123872 0.000628986 5.063851e-24)
(0.01101667 -0.0009965502 4.789562e-25)
(0.009046168 -0.001434062 5.465797e-24)
(0.008960165 -0.00161244 -8.218792e-25)
(0.008686153 -0.001802921 2.095169e-24)
(0.01074571 -0.0002758985 2.216866e-24)
(0.01137771 0.0005509189 0)
(0.009683378 0.0007658878 1.641634e-23)
(0.01040947 0.0005938323 0)
(0.00870187 0.0004108543 2.240061e-23)
(0.00901805 -9.852507e-05 -5.571806e-23)
(0.01067747 0.0004965108 2.400604e-23)
(0.01056179 0.0003442447 6.380696e-25)
(0.01031197 0.0005972157 -1.899964e-23)
(0.01008135 0.001130411 8.168788e-24)
(0.00977855 0.0001573095 -1.074054e-23)
(0.01029739 0.0007830349 9.584375e-24)
(0.01032022 0.0006992557 1.174511e-23)
(0.01011403 0.0003154665 0)
(0.01029083 0.0007115691 9.599255e-24)
(0.01027001 0.0006003662 9.942775e-24)
(0.01035632 0.0005839526 -1.322134e-23)
(0.009566864 0.0008049365 0)
(0.008673278 0.0006633901 -6.810816e-25)
(0.01103437 0.000711545 2.253253e-24)
(0.01015325 0.0006396767 1.643901e-23)
(0.01009892 0.0004474332 -1.865129e-23)
(0.01108855 0.0005293688 3.740127e-24)
(0.01115589 -0.0001075179 0)
(0.0110813 0.0004531111 -9.524513e-24)
(0.01096061 -0.0004916122 0)
(0.01134577 -0.000154234 -1.730895e-24)
(0.008886688 -0.001710275 4.25604e-24)
(0.01098223 -0.0001459188 -2.72531e-24)
(0.01030939 0.001590421 -8.151205e-24)
(0.009691614 0.001317788 1.554457e-23)
(0.0100946 0.001557539 3.213358e-23)
(0.009952996 0.001295061 2.370496e-23)
(0.01125341 0.0001503102 0)
(0.009172499 0.00147706 1.689253e-23)
(0.01121491 0.0006800827 -5.27461e-24)
(0.01072043 -0.0007554624 0)
(0.01089755 0.001120942 0)
(0.008502015 0.000873391 -1.939853e-23)
(0.01018674 0.0005263459 0)
(0.01080077 0.0004011545 1.908789e-23)
(0.01015773 0.0009023015 4.543867e-24)
(0.01046314 0.001877993 8.349224e-24)
(0.009483717 0.0003417372 4.402114e-23)
(0.01053831 0.0003696292 0)
(0.01142275 -0.0003299181 -7.815851e-25)
(0.01036431 0.0003518283 1.021026e-23)
(0.009928757 0.0001200876 3.57525e-23)
(0.009684837 0.0004530429 5.658058e-24)
(0.009577156 0.0005059135 -2.157179e-23)
(0.008633085 0.001839815 -2.500686e-23)
(0.0103828 0.0006518241 0)
(0.008196385 -0.0002042906 -2.123998e-23)
(0.01091008 -0.0004051354 -2.865572e-24)
(0.01019522 0.0004100678 2.083357e-23)
(0.007873054 0.0004382926 -2.403578e-23)
(0.009806268 0.001761156 4.192439e-24)
(0.01023761 0.000464362 -3.210827e-23)
(0.006505723 0.002821421 1.901541e-23)
(0.01110446 0.0007216157 -1.051269e-23)
(0.009848378 -0.00154761 -1.004341e-24)
(0.01064944 -6.165102e-05 -5.781043e-24)
(0.0106569 -0.000144769 -2.384014e-24)
(0.009078679 0.0001066226 -2.386505e-24)
(0.01003576 0.00061224 -2.670034e-23)
(0.01148787 0.0005525998 0)
(0.009684676 0.00226626 0)
(0.01019127 0.0003764323 -1.326513e-23)
(0.01071765 -0.001287136 0)
(0.01022911 0.001884448 -2.825e-24)
(0.009338341 0.0008405565 -1.870793e-23)
(0.01106052 3.005422e-05 -1.041135e-23)
(0.01148562 0.0001871005 1.493973e-24)
(0.009645006 0.0007629664 3.840994e-23)
(0.009967435 0.0007435731 0)
(0.01017904 0.001150754 -1.495668e-23)
(0.01026704 0.0006546881 1.858176e-23)
(0.01103012 0.0003638676 3.165914e-24)
(0.01154816 0.0007001435 2.03095e-24)
(0.01155053 0.0002115 0)
(0.009585175 0.0001400466 4.156338e-23)
(0.007962403 0.002293229 -4.542744e-23)
(0.006840593 0.001083966 -3.826167e-23)
(0.00966335 0.0004160787 0)
(0.0109281 -3.536395e-05 4.601625e-25)
(0.01146924 -0.0003763384 -6.854278e-26)
(0.009959694 0.0006033594 -8.861725e-24)
(0.01134517 0.0002528347 4.046444e-24)
(0.01105491 -0.0005131394 -1.413093e-24)
(0.009359117 0.0003340488 4.561153e-24)
(0.01008849 0.002183603 0)
(0.0102831 0.002238224 2.51842e-24)
(0.01072633 9.321663e-05 -3.636411e-24)
(0.009344548 7.062841e-05 -1.959299e-24)
(0.008544462 -0.001868656 4.471851e-24)
(0.009449175 0.0002949932 -7.371507e-24)
(0.00918144 0.000121619 -1.509725e-23)
(0.0103939 0.0005396198 0)
(0.009624433 0.0001977853 1.457893e-23)
(0.009545142 0.0001759623 -1.550206e-23)
(0.01138694 -0.0005861049 1.272099e-24)
(0.01097232 -0.0003017256 -1.100583e-24)
(0.01012111 0.0002505932 2.568915e-23)
(0.01097461 -0.0008311871 3.699462e-25)
(0.01000058 0.0004559082 1.670899e-23)
(0.009198623 0.0003116568 -1.816257e-23)
(0.009249124 -5.645266e-05 -4.423105e-23)
(0.0111937 -0.0008375322 -2.534827e-24)
(0.01074358 -0.0003087419 -3.013763e-24)
(0.01120313 0.001114723 7.931601e-24)
(0.010874 0.001632383 6.115372e-24)
(0.01082949 0.0005208881 9.602427e-24)
(0.009973662 -0.001423808 3.3183e-24)
(0.01079217 -0.001216171 0)
(0.01079243 0.001543822 0)
(0.009946456 0.0003017453 -1.179322e-23)
(0.01122681 0.0002146868 4.979366e-24)
(0.01019206 0.001059143 -7.701771e-24)
(0.01038265 0.001014626 -7.234798e-24)
(0.01080073 0.000901885 -8.190855e-24)
(0.01093877 0.001172594 0)
(0.01047049 0.000910229 -6.569818e-24)
(0.01051941 0.001077891 -6.448163e-24)
(0.009701586 0.0003376286 3.097523e-23)
(0.01115458 0.001510511 8.21458e-24)
(0.01081362 -8.626212e-05 3.185253e-25)
(0.01064991 -0.001118309 0)
(0.01147148 -0.0002498217 1.85668e-25)
(0.01142443 -0.0004679438 9.614661e-25)
(0.009988735 0.0005896098 -1.462725e-23)
(0.008654925 0.0002616216 3.58346e-23)
(0.01047107 -0.001253157 -1.793194e-24)
(0.00988665 0.0005424084 -2.709718e-23)
(0.009901083 0.000634783 1.469366e-23)
(0.008591474 0.0005209058 -1.549308e-25)
(0.01043076 -0.001117151 -1.363046e-23)
(0.01034537 0.0004539026 0)
(0.01036492 0.001358522 -1.601147e-23)
(0.009100416 0.001176568 -1.700263e-23)
(0.009381653 -0.001665112 4.454516e-24)
(0.01114233 -0.0002337664 2.38883e-24)
(0.0110283 -0.0009199671 2.144347e-24)
(0.009716879 0.0001200346 3.529035e-23)
(0.0102281 0.001541845 1.64538e-23)
(0.007634841 0.00287549 0)
(0.01017061 0.0003956177 1.202495e-23)
(0.008863325 -0.001453068 -5.167605e-24)
(0.009868328 0.0007923242 1.371468e-25)
(0.009396194 0.00174983 3.155719e-23)
(0.008927194 -0.0001980931 4.877623e-23)
(0.01003037 0.0004422417 0)
(0.009827299 3.844287e-05 -2.735524e-23)
(0.009924324 0.0002174026 -1.876201e-23)
(0.0108647 -0.0001374334 -4.44726e-24)
(0.01094451 0.0007218389 0)
(0.01097628 0.0007347382 -4.55e-24)
(0.009936784 0.0008602925 0)
(0.01013414 0.0004218013 0)
(0.008890235 0.002754926 0)
(0.009863964 0.000417513 0)
(0.009976376 0.00118886 1.515109e-23)
(0.009438106 -0.0002354328 -1.979061e-23)
(0.009566702 0.0003791058 0)
(0.01011307 0.000922803 1.27018e-23)
(0.009405821 0.0005342072 0)
(0.008137348 0.00287901 1.363561e-23)
(0.01099289 -0.0005175811 0)
(0.01076499 0.0008409826 -7.691132e-24)
(0.009813408 0.0004712899 0)
(0.008119358 -9.108597e-05 2.486406e-23)
(0.009821611 0.0005787338 -1.617935e-23)
(0.01158785 -1.273247e-05 0)
(0.01090054 3.031202e-05 -2.704183e-24)
(0.00907342 0.0004439054 -2.537749e-23)
(0.009985294 0.0002433027 0)
(0.01099666 -0.001020901 3.438716e-25)
(0.01063018 -0.001324727 0)
(0.01072958 0.0003348625 -9.552157e-24)
(0.01059315 0.0004692765 -3.171934e-24)
(0.008772903 -0.0001562815 0)
(0.01091979 -0.0005939155 1.359772e-25)
(0.01146445 0.0007188283 1.257859e-24)
(0.01001679 0.0004937914 -2.70386e-23)
(0.01022414 -0.001424034 0)
(0.01057119 0.0005950676 0)
(0.009950018 8.801498e-05 2.580371e-23)
(0.009304126 0.0004643734 0)
(0.01045439 0.002113733 -4.766787e-25)
(0.01034929 0.0005668501 -6.585999e-24)
(0.01096688 -0.0003578791 -4.412056e-24)
(0.01040412 0.0003059872 0)
(0.009484781 -0.0001367196 -1.901124e-23)
(0.01134127 0.0008689106 -1.103711e-23)
(0.01021663 0.0005687263 -8.743112e-24)
(0.01095606 -0.0006788806 0)
(0.009892183 0.0008975729 -6.098102e-24)
(0.01016192 0.0005671844 0)
(0.01052853 0.001592923 0)
(0.01094649 0.00063909 0)
(0.008148414 0.0009631161 2.268574e-23)
(0.01061822 -0.001157243 -1.805073e-23)
(0.01021855 0.0004375833 0)
(0.01090129 -0.0001029833 -2.773198e-24)
(0.01099841 -0.0003968667 2.02417e-24)
(0.01055566 0.001416588 7.843925e-24)
(0.0109556 0.0003611348 -8.608701e-24)
(0.01020013 0.0002931335 0)
(0.01083804 0.0009550646 -1.033185e-23)
(0.00951802 -1.601848e-05 1.86094e-23)
(0.009489104 0.0001190501 -1.204121e-23)
(0.009634591 0.0002596351 -1.644642e-23)
(0.01008206 0.0004175207 -7.924174e-24)
(0.008865156 -0.0001063256 3.516193e-23)
(0.008102966 0.0001293335 1.31516e-23)
(0.01021663 0.0001682324 7.681718e-24)
(0.01136455 -0.0003723855 0)
(0.01123251 0.001354608 0)
(0.01097163 -0.0002163416 -6.243072e-24)
(0.01085731 -0.0004547737 1.339873e-24)
(0.01154074 0.000592081 3.738921e-24)
(0.01004377 0.0006949271 -2.29993e-23)
(0.009034126 0.0002484958 -1.503304e-23)
(0.01122777 0.0003163151 0)
(0.01092966 0.0002578905 -1.45545e-24)
(0.01006949 0.000504035 0)
(0.009793058 0.001810386 -8.770693e-24)
(0.009210427 0.002053951 -8.88829e-25)
(0.01050559 0.002116083 -1.951978e-23)
(0.009927393 0.002374039 -9.836622e-25)
(0.008967485 0.001539217 4.084921e-29)
(0.01015546 0.0007681827 8.492332e-24)
(0.009432357 0.002248349 6.193954e-24)
(0.009702201 0.001490125 8.324049e-24)
(0.01115136 0.0002709701 3.847217e-24)
(0.01060455 0.0006809179 0)
(0.01017577 0.0007425248 2.008929e-23)
(0.01104321 0.0005672664 0)
(0.0102913 0.000733073 0)
(0.01008725 0.001414654 0)
(0.01010468 0.0002918885 0)
(0.01134814 -7.793756e-05 -1.804702e-24)
(0.01119118 0.0004299415 2.471252e-24)
(0.01002607 0.0006168133 0)
(0.01019325 0.001789432 9.062867e-24)
(0.01092436 0.0009800825 4.81759e-24)
(0.01028841 0.0005180203 6.114777e-24)
(0.01098093 -0.0005995957 -9.52194e-25)
(0.01120014 -0.0004869764 -1.601548e-24)
(0.01101015 -0.001057021 -2.665054e-24)
(0.01019134 0.0003437738 0)
(0.0108569 -0.0007038979 -1.058941e-25)
(0.00831893 0.000277075 5.356432e-23)
(0.009295478 0.0002265164 -4.777662e-23)
(0.009225232 0.0001525492 6.238803e-23)
(0.008973266 0.0006375118 2.05022e-23)
(0.00903332 0.0002955955 0)
(0.01051326 0.0005460171 0)
(0.0097051 0.0004502982 0)
(0.01057778 0.0007498366 0)
(0.009830076 0.0001727056 0)
(0.01115367 -0.0007884092 0)
(0.01013743 0.0005945145 2.309392e-23)
(0.009938446 -0.001377248 1.862879e-24)
(0.01010241 0.0004681991 0)
(0.01010922 0.0005381977 6.86224e-24)
(0.01014933 0.001855631 0)
(0.009889878 0.0009487984 1.078717e-23)
(0.009891743 0.001119145 -3.712374e-23)
(0.009569673 0.001016919 0)
(0.01131143 0.001044351 -3.601643e-24)
(0.009036006 -0.001556732 6.182604e-24)
(0.01042397 0.0008320074 9.306446e-24)
(0.01019603 0.0004397503 -9.617132e-24)
(0.008752078 -0.001680668 3.546549e-24)
(0.008923204 0.0007535961 0)
(0.01091646 0.0003634354 0)
(0.01068761 -0.001245324 0)
(0.01001105 0.0002415773 1.90684e-23)
(0.01008296 0.0002431141 4.779039e-25)
(0.009946306 0.0007524218 0)
(0.009743473 0.00101959 0)
(0.01016278 0.0004719003 1.175246e-23)
(0.01074021 0.0005215778 7.934001e-26)
(0.01018802 0.0006762708 0)
(0.01146703 0.0007962618 -5.667729e-24)
(0.01111226 -6.857125e-05 -7.055764e-24)
(0.01031028 0.0004582468 -1.042169e-23)
(0.01006297 -0.0006086186 0)
(0.007519048 0.002216782 0)
(0.00713703 0.002346076 -2.710936e-23)
(0.0105506 0.0008622155 -2.467248e-23)
(0.00932683 -0.001454343 3.528589e-24)
(0.01045657 0.001390353 -1.176188e-23)
(0.01010376 0.001692063 -7.402371e-24)
(0.0106053 0.001709774 -1.119803e-23)
(0.00950155 0.001941847 -7.235296e-24)
(0.01090971 -0.0002529643 -1.858021e-24)
(0.0104292 0.0006766065 5.213167e-24)
(0.01080994 0.0006769848 2.453932e-24)
(0.009526342 0.0008099022 -8.094286e-24)
(0.009698735 0.001081121 -2.091031e-23)
(0.01109071 0.0009627495 0)
(0.009314729 0.001042788 1.661381e-23)
(0.009438952 0.0007945119 -3.404681e-23)
(0.010084 0.0005706765 1.372249e-23)
(0.01005846 0.0005205592 -7.343199e-24)
(0.01085101 -0.001082581 0)
(0.01139954 -0.000401118 0)
(0.007483453 0.001323598 6.202356e-23)
(0.01049345 0.0003751661 0)
(0.01024011 -0.0006147186 0)
(0.01090362 6.462646e-05 -2.771704e-24)
(0.01055303 0.0006046461 0)
(0.01034609 2.320704e-05 -1.063613e-23)
(0.01086196 -0.0009718711 1.073417e-24)
(0.0107849 0.001533157 2.073908e-23)
(0.01138219 -0.0001188542 -4.12418e-24)
(0.01079341 0.000146223 9.81633e-24)
(0.01060173 0.000154814 0)
(0.01028309 0.0008890368 1.135678e-25)
(0.009745414 0.0002932179 -2.113075e-23)
(0.007840676 0.0008261285 0)
(0.008635883 0.001006718 2.459023e-23)
(0.01039861 0.0005746533 -5.776293e-24)
(0.01009557 0.0003705128 1.341432e-23)
(0.01012313 0.000394015 -2.003413e-23)
(0.01110605 -0.0005303219 -1.510854e-24)
(0.01009026 0.0004811284 -1.112516e-23)
(0.01011768 0.0005167705 0)
(0.0109906 -0.001000137 3.426839e-24)
(0.01152918 0.0002056556 0)
(0.009660215 0.0003587326 -3.386745e-24)
(0.01003332 0.001270009 -1.865384e-23)
(0.01112775 -0.0008417663 0)
(0.01075003 -7.324231e-06 0)
(0.0105382 -0.001332109 0)
(0.00813103 0.0002201014 -2.616296e-23)
(0.01134466 0.0009200921 1.155779e-23)
(0.008681824 0.0001884774 -3.23843e-23)
(0.01047937 0.0004237484 -2.30427e-25)
(0.01068451 0.0005923706 -5.476896e-24)
(0.01045612 -0.001141868 8.456544e-25)
(0.01149908 0.0006190616 -1.273043e-24)
(0.01130633 -0.0001306858 -3.808495e-24)
(0.009849646 0.000139932 0)
(0.01013763 0.0008049054 -8.981648e-24)
(0.008982223 -0.00146769 8.031874e-26)
(0.008813136 -0.001604734 7.935641e-25)
(0.009198414 -0.001481823 -2.973051e-24)
(0.01062853 0.0004470373 -1.016606e-23)
(0.01098108 0.00117899 -8.093945e-24)
(0.01041915 0.0008594412 1.219167e-23)
(0.0106361 0.001771982 -1.372159e-23)
(0.01055209 0.001694502 -4.428074e-24)
(0.009633402 -0.001398956 0)
(0.009426496 -0.001653862 0)
(0.009878273 0.0006043987 -1.845361e-23)
(0.01129344 0.0005593808 0)
(0.01109785 0.0008916822 0)
(0.009701447 -0.001585992 2.169842e-24)
(0.01105598 -0.0004097045 -7.275799e-25)
(0.01081278 0.0003735693 -1.594558e-23)
(0.009526329 -0.000184142 0)
(0.01083523 -0.0006706338 -1.952084e-25)
(0.01006568 0.0003631029 1.188404e-23)
(0.01148037 0.0003904024 0)
(0.01153315 0.0003447175 2.835311e-24)
(0.01123247 0.0005376881 2.628984e-24)
(0.008742162 -0.001819518 -2.466749e-24)
(0.01094193 -0.0004473042 -1.537536e-24)
(0.01104573 -0.0007966909 3.999207e-25)
(0.01021383 0.001566816 -1.723182e-24)
(0.01072017 -0.0001522064 -3.946353e-24)
(0.008602289 0.002668108 6.351994e-24)
(0.01002504 0.0002514254 4.621443e-24)
(0.01000036 2.995418e-05 2.20073e-23)
(0.009968646 0.0005673632 -2.523421e-23)
(0.01076569 -0.0003269126 2.179347e-24)
(0.01056158 0.001603527 9.116141e-25)
(0.00900595 0.002754371 -2.215947e-23)
(0.01106104 -1.328011e-05 -7.730027e-24)
(0.01103686 -1.71633e-05 9.175483e-24)
(0.01128912 8.163722e-05 0)
(0.01130698 -0.0007107163 -6.043099e-25)
(0.01142492 0.001017644 -4.10598e-24)
(0.01083008 0.001833362 -1.937911e-23)
(0.01149378 0.0006535709 1.135507e-24)
(0.01145292 0.0005913896 0)
(0.01090298 0.0004567015 0)
(0.01062863 0.0009487133 0)
(0.01002611 0.0006305379 -1.860953e-23)
(0.01045788 0.0007942566 -9.028912e-24)
(0.01043242 0.0007210854 0)
(0.0106974 -0.0008811598 0)
(0.01117119 0.0006836265 -6.103514e-24)
(0.00871311 0.002237789 0)
(0.009457463 -0.000166552 4.915392e-23)
(0.009713261 0.0005042404 -4.480925e-24)
(0.009266562 0.0004915298 0)
(0.01134896 0.0006773204 0)
(0.009404884 -0.00175278 -9.873266e-24)
(0.00831187 0.001861694 0)
(0.008474979 0.002800437 -1.500445e-23)
(0.01048486 0.00143437 1.168489e-23)
(0.01067447 -0.0002387783 -1.755109e-24)
(0.01083218 0.0008736629 1.806744e-23)
(0.009323685 -0.0002733258 7.966045e-24)
(0.009315628 -2.615077e-05 -2.51361e-23)
(0.01114477 0.0001567026 -3.122381e-24)
(0.01117271 -0.0005764073 -3.307797e-25)
(0.01091066 -0.0006917054 -3.448133e-25)
(0.009331611 -0.00156599 6.031502e-24)
(0.009393821 0.000189351 0)
(0.009914776 0.0006815481 0)
(0.01019095 0.0006562909 0)
(0.01002874 0.0006637291 -9.244085e-24)
(0.00973261 0.0002558691 0)
(0.01003895 -0.001384857 6.831134e-24)
(0.01147129 0.0002959034 -5.819209e-25)
(0.01013323 0.000489626 -1.54493e-23)
(0.01104164 0.0002880947 0)
(0.01088568 0.0002806728 -1.052328e-23)
(0.009597185 -0.001683695 0)
(0.01038592 0.0001321288 -1.302061e-23)
(0.01042999 0.00216707 0)
(0.01036005 -0.001184371 3.565107e-24)
(0.01093468 0.0003496769 0)
(0.01074208 -0.0002073706 -5.173193e-25)
(0.01064322 -0.001196006 -7.812174e-25)
(0.01082297 0.000175603 6.280833e-24)
(0.007984546 -0.0001076873 0)
(0.01109639 0.000413207 1.419639e-23)
(0.009100106 0.0005806265 -1.759623e-23)
(0.01058124 -6.968012e-06 -4.180476e-24)
(0.008135324 0.001295263 8.055404e-24)
(0.0115896 0.0002130863 0)
(0.01153712 -0.0002308205 5.538048e-26)
(0.009290368 -0.001314045 5.254923e-24)
(0.01035398 0.0007725058 1.31952e-23)
(0.01089228 0.0006438309 0)
(0.009496094 0.0007334341 -3.126037e-23)
(0.01102634 -0.0008617623 7.718111e-24)
(0.01098888 -0.0003432824 2.12844e-24)
(0.01111671 -0.0002642692 -2.006465e-24)
(0.00974743 0.0003298831 -2.068104e-23)
(0.01040663 0.0006929853 5.37556e-25)
(0.01038617 0.000468231 0)
(0.01158808 0.0002316456 1.53687e-24)
(0.01019027 0.0004776177 -6.384795e-24)
(0.0106451 0.0006200263 -2.91694e-24)
(0.01052725 0.000658351 -1.331778e-23)
(0.01078762 0.0007059419 0)
(0.01031057 -7.949921e-05 -1.830095e-24)
(0.00955623 -5.792802e-05 0)
(0.010811 0.001141567 1.760254e-24)
(0.009863894 0.0006497117 -1.268763e-23)
(0.01080814 0.0005153717 -1.324931e-23)
(0.01051082 -0.001069585 1.426676e-24)
(0.01090981 -0.0006569433 6.967606e-25)
(0.009949322 0.0004969731 2.724567e-24)
(0.009906196 0.00017939 3.154592e-23)
(0.009746092 0.0001084922 -1.590311e-23)
(0.01074726 0.000741806 0)
(0.01037185 -0.001276473 1.695524e-24)
(0.008792242 -1.151797e-07 8.984363e-24)
(0.01097948 0.0002418349 8.40135e-24)
(0.00933397 0.0006967797 1.353833e-23)
(0.01004982 9.904844e-05 9.045581e-24)
(0.00972579 0.0006117845 1.148545e-23)
(0.009164842 0.0009278864 -1.177201e-23)
(0.009873053 0.0007447313 -4.786252e-24)
(0.008604755 -0.001405993 -5.176461e-24)
(0.008938888 0.002167441 -8.195443e-24)
(0.01000106 4.227962e-05 -1.408888e-23)
(0.009902987 0.0008248567 -4.036607e-24)
(0.01100958 0.00107928 2.492537e-24)
(0.01073154 -0.0008479701 0)
(0.009943315 0.0001879213 -1.551938e-23)
(0.01073454 0.001081528 5.899751e-24)
(0.01143481 -0.000207848 1.66256e-24)
(0.008501637 0.002750264 5.635699e-23)
(0.01052027 0.0006235362 -1.590876e-23)
(0.005936016 0.0007631703 -4.506517e-24)
(0.009614915 0.0003408451 -1.761054e-23)
(0.009991518 0.0001873367 1.957361e-23)
(0.009720317 0.001349616 0)
(0.009381797 0.001261267 -9.368716e-24)
(0.009102268 0.001415082 -2.120611e-23)