/*--------------------------------*- C++ -*----------------------------------*\
| =========                 |                                                 |
| \\      /  F ield         | OpenFOAM: The Open Source CFD Toolbox           |
|  \\    /   O peration     | Version:  2406                                  |
|   \\  /    A nd           | Website:  www.openfoam.com                      |
|    \\/     M anipulation  |                                                 |
\*---------------------------------------------------------------------------*/
FoamFile
{
    version     2.0;
    format      ascii;
    arch        "LSB;label=32;scalar=64";
    class       volVectorField;
    location    "1.14";
    object      U;
}
// * * * * * * * * * * * * * * * * * * * * * * * * * * * * * * * * * * * * * //

dimensions      [0 1 -1 0 0 0 0];

internalField   nonuniform List<vector> 
15536
(
(0.06852618 -2.8685 -1.331318e-22)
(0.1514224 -2.326128 -4.555664e-19)
(0.2274487 -1.974755 -7.884212e-19)
(0.3481328 -2.208233 -6.807361e-19)
(0.4036759 -2.330746 -9.094762e-21)
(0.09472101 -0.9202777 3.357505e-21)
(-0.3247578 0.8059834 8.118589e-21)
(-0.7874587 2.589196 -8.048932e-21)
(-0.5700626 1.815756 2.558684e-18)
(0.5904518 -1.146151 2.71337e-18)
(1.716091 -3.44762 0)
(2.308712 -4.342739 0)
(2.625154 -4.592114 -1.878502e-20)
(2.703699 -4.36689 4.482881e-18)
(2.443455 -3.674349 1.615754e-18)
(1.836345 -2.617098 -1.870569e-18)
(1.024876 -1.42572 5.183127e-19)
(0.1480334 -0.2981991 6.151068e-21)
(-0.6515537 0.6547179 -1.740755e-20)
(-0.9891358 1.027561 1.114909e-20)
(-1.323251 1.273405 0)
(-1.591859 1.420986 1.896632e-18)
(-1.259966 1.154129 0)
(0.6994889 -0.3157456 -1.189535e-18)
(3.726366 -2.364219 1.391841e-20)
(3.404405 -2.165809 2.204278e-20)
(0.4179794 -0.3917381 -2.269139e-20)
(-1.770675 0.8013045 1.008514e-18)
(-3.190347 1.432256 -2.089208e-19)
(-4.826937 1.950089 0)
(-7.481657 2.701048 -3.159698e-20)
(-10.33987 3.42322 -5.264266e-18)
(-11.42853 3.63751 7.362451e-18)
(-5.170864 1.79794 0)
(4.257298 -0.7893305 -2.801722e-18)
(1.637696 -0.5856785 -1.464921e-20)
(-2.179609 -0.09837679 2.344219e-18)
(-4.394269 0.1839135 -1.387302e-18)
(-1.241596 0.07193839 1.279137e-21)
(5.580569 0.3482771 -3.108483e-19)
(9.736358 0.9041383 1.256245e-18)
(11.94202 1.519364 -2.076133e-20)
(13.08305 2.163916 2.041863e-20)
(13.72608 2.8422 0)
(14.08202 3.51494 -5.344769e-18)
(14.23918 4.162606 -5.351151e-18)
(14.2144 4.77269 0)
(14.06876 5.348488 -1.030949e-17)
(13.82361 5.888472 1.009105e-17)
(13.5262 6.403824 9.766004e-18)
(13.17068 6.880311 3.564503e-20)
(12.75204 7.312939 -8.875932e-18)
(12.27887 7.696805 0)
(11.76083 8.033672 0)
(11.20728 8.320017 7.135412e-18)
(10.61653 8.547492 6.518793e-18)
(10.00693 8.726614 4.288598e-20)
(9.385311 8.855961 5.059543e-18)
(8.739327 8.917222 8.77102e-18)
(8.081704 8.91831 3.652334e-18)
(7.420599 8.862261 2.858941e-18)
(6.769599 8.758424 -1.9695e-20)
(6.12591 8.597284 0)
(5.48721 8.372057 5.791578e-19)
(4.866781 8.099149 0)
(4.261558 7.765175 9.762275e-19)
(3.680216 7.376415 -2.929276e-20)
(3.132759 6.943272 -2.669208e-21)
(2.618678 6.463227 1.086882e-20)
(2.142426 5.940666 -3.778969e-18)
(1.709798 5.383948 -1.818469e-20)
(1.321526 4.79055 2.501409e-18)
(0.9792838 4.162195 2.747982e-18)
(0.6884335 3.514037 0)
(0.4486998 2.851623 0)
(0.263316 2.171435 3.318052e-18)
(0.1294243 1.480891 -2.3976e-22)
(0.05042336 0.798361 8.985698e-19)
(0.02725517 0.09653152 1.657384e-21)
(0.05675035 -0.683859 -6.87736e-21)
(0.1335202 -1.468735 -1.700465e-18)
(0.2687372 -2.202617 0)
(0.4587291 -2.899457 3.048236e-18)
(0.7005075 -3.570139 0)
(0.9930349 -4.215202 -2.555964e-18)
(1.334315 -4.83303 2.247035e-18)
(1.723799 -5.422252 1.653028e-20)
(2.158215 -5.980765 3.272706e-18)
(2.634557 -6.49893 8.592245e-21)
(3.148705 -6.974467 -1.854256e-18)
(3.697897 -7.408541 -1.073148e-18)
(4.279516 -7.794978 4.999202e-21)
(4.891905 -8.136363 5.778413e-19)
(5.526541 -8.427624 -1.426079e-18)
(6.176803 -8.664777 2.106925e-20)
(6.832498 -8.834535 6.734666e-21)
(7.499092 -8.951525 -3.961455e-18)
(8.172201 -9.015786 0)
(8.843315 -9.019411 1.116593e-17)
(9.515189 -8.973434 6.335868e-18)
(10.16808 -8.863715 1.085516e-19)
(10.79827 -8.692568 -8.02611e-18)
(11.40192 -8.463253 0)
(11.97809 -8.180077 0)
(12.52622 -7.850807 0)
(13.03742 -7.473578 0)
(13.50179 -7.049703 1.133991e-17)
(13.91627 -6.583034 1.197889e-17)
(14.2815 -6.078352 2.494137e-20)
(14.59165 -5.542622 -1.289992e-17)
(14.83104 -4.973762 -6.597309e-18)
(14.98672 -4.376084 -6.830445e-18)
(15.00513 -3.745106 5.351934e-20)
(14.8566 -3.08576 7.010002e-18)
(14.50657 -2.408262 3.621668e-18)
(13.85845 -1.730385 -2.806176e-20)
(12.62501 -1.103765 -6.883007e-21)
(10.1724 -0.5326796 4.570006e-19)
(5.469075 -0.08015826 -9.284085e-19)
(-0.3396398 0.141204 -2.352831e-20)
(1.371083 0.4370095 1.600327e-20)
(2.025732 0.2520297 3.648755e-18)
(-4.198172 -1.234203 3.094354e-20)
(-8.825499 -2.418081 0)
(-7.743747 -2.199084 -8.326051e-18)
(-5.379649 -1.683559 -6.379309e-18)
(-3.442553 -1.244533 3.126585e-21)
(-2.711675 -1.108367 1.019234e-17)
(-2.008064 -0.8413375 -9.369557e-18)
(-0.02026285 0.1526637 0)
(3.783545 2.266223 0)
(3.713644 2.127527 -4.675819e-18)
(-0.7442088 -0.8170212 0)
(-3.423433 -2.782102 9.689344e-20)
(-4.531865 -3.751097 -1.323242e-17)
(-4.633795 -4.096426 -1.337359e-17)
(-4.15426 -3.91777 8.28095e-20)
(-2.950917 -2.924058 -1.903406e-17)
(-1.384474 -1.415778 -1.224726e-19)
(0.05165749 0.1399664 1.287948e-17)
(0.7299001 0.9700105 5.888626e-18)
(0.7697981 1.103486 5.672696e-18)
(0.752741 1.167617 5.532605e-18)
(0.8711385 1.426509 0)
(0.6641061 1.129231 -2.266253e-20)
(0.3276517 0.6570128 -5.708682e-18)
(0.3382319 0.8211033 0)
(0.3888485 0.9964903 6.07764e-18)
(0.3182608 0.8970004 -4.965749e-20)
(-0.1435177 -0.7057287 2.488076e-20)
(-0.6042705 -2.777067 3.257176e-18)
(-0.7582396 -3.899798 1.668104e-21)
(-0.6952464 -4.174325 0)
(-0.5178204 -4.015365 1.483882e-18)
(-0.3377793 -3.771524 1.133133e-20)
(-0.1782199 -3.538638 2.414571e-21)
(-0.0394818 -3.290053 -2.623535e-21)
(-0.0175068 -2.908891 -2.17356e-19)
(0.07006308 -2.30104 3.78446e-19)
(0.1277014 -1.68877 0)
(0.2084838 -1.485468 5.747595e-19)
(0.2411116 -1.624166 0)
(-0.08682724 -0.5156394 1.551798e-18)
(-0.3154424 0.1272464 6.594631e-21)
(-0.747366 2.204135 -6.798068e-21)
(0.1344893 0.4053971 -2.029517e-18)
(1.89145 -3.697224 -2.085943e-18)
(2.503417 -5.215345 0)
(2.497648 -5.067917 1.67144e-20)
(2.584436 -4.879658 -1.562694e-21)
(2.592409 -4.526572 -1.838973e-18)
(2.313317 -3.783121 -2.668504e-18)
(1.716927 -2.699925 7.569324e-19)
(1.012521 -1.575421 -4.076513e-19)
(0.3319518 -0.6395729 -3.311423e-21)
(-0.2735736 0.130838 0)
(-0.9423768 0.8436065 0)
(-1.670698 1.458186 0)
(-2.118683 1.794156 1.555722e-18)
(-1.958603 1.786508 -1.474614e-21)
(-0.3751487 0.7529811 1.423841e-21)
(4.22622 -2.559087 -1.729234e-20)
(3.543462 -2.554319 1.724049e-20)
(0.735463 -0.8949633 0)
(-0.8143621 0.1259749 0)
(-1.858396 0.6470256 3.523003e-19)
(-3.000256 0.900822 2.269603e-20)
(-5.344111 1.444321 -2.105075e-20)
(-8.099868 2.187839 4.440569e-18)
(-10.26575 3.095942 6.119155e-18)
(-8.201644 2.90699 -2.479461e-20)
(1.293538 0.2030277 -2.133665e-18)
(1.843404 -0.5926407 1.169437e-18)
(3.244125 -0.6627682 4.323304e-21)
(4.533906 -0.1210009 1.034255e-18)
(9.54572 0.3345718 0)
(15.39432 0.7365347 2.08839e-19)
(17.38374 1.077992 1.789427e-18)
(17.86972 1.53811 1.940645e-18)
(17.96356 2.12424 2.02431e-18)
(17.89173 2.775582 -6.426193e-20)
(17.7265 3.43598 4.260533e-18)
(17.49168 4.093439 -3.26221e-20)
(17.20272 4.745475 0)
(16.85934 5.374029 8.212492e-18)
(16.46555 5.98182 0)
(16.02473 6.559752 -5.876503e-20)
(15.5307 7.093977 5.889401e-20)
(14.98054 7.581116 7.086107e-18)
(14.38161 8.015116 -4.977769e-20)
(13.74126 8.395852 6.196855e-18)
(13.06772 8.718587 -5.740005e-18)
(12.36434 8.980593 0)
(11.64128 9.19052 3.383239e-20)
(10.90572 9.343945 -4.151289e-18)
(10.15365 9.427905 -6.974919e-18)
(9.389678 9.443948 0)
(8.626202 9.40215 -2.295962e-18)
(7.87243 9.304132 -1.048805e-20)
(7.129261 9.142463 1.029399e-18)
(6.397769 8.916055 8.386938e-22)
(5.684539 8.630897 -8.484915e-22)
(4.994089 8.283857 -7.923042e-19)
(4.329997 7.878862 1.399575e-18)
(3.702842 7.42085 0)
(3.113704 6.915065 0)
(2.567525 6.365349 -1.866606e-20)
(2.068707 5.773562 0)
(1.620212 5.14149 0)
(1.223917 4.472965 0)
(0.8846845 3.779204 -2.456348e-18)
(0.6011918 3.070709 1.970489e-20)
(0.3830162 2.341117 1.119366e-20)
(0.2210519 1.60087 -5.487303e-21)
(0.1225484 0.8650866 -7.377188e-19)
(0.09501631 0.1078096 2.982126e-21)
(0.1347791 -0.7225784 -7.313782e-19)
(0.2229069 -1.560294 1.386275e-18)
(0.3833518 -2.346777 1.054728e-20)
(0.607129 -3.094056 -2.472686e-18)
(0.88934 -3.81406 -3.607773e-20)
(1.229934 -4.507209 2.118532e-18)
(1.625196 -5.167814 -1.870551e-18)
(2.075867 -5.795735 0)
(2.57468 -6.390195 -5.347865e-18)
(3.12027 -6.936599 -1.422228e-20)
(3.709829 -7.437738 1.505253e-18)
(4.337627 -7.896653 8.77035e-19)
(5.001222 -8.300233 0)
(5.699153 -8.651223 0)
(6.423076 -8.953489 0)
(7.164615 -9.190688 1.656306e-20)
(7.919056 -9.358698 -1.645279e-20)
(8.686085 -9.468421 3.116446e-18)
(9.460205 -9.518286 5.460805e-21)
(10.23761 -9.50443 -4.520391e-18)
(11.01271 -9.431993 -7.274483e-20)
(11.77514 -9.296129 1.153674e-17)
(12.51675 -9.093862 6.389802e-18)
(13.2332 -8.828236 -5.190544e-20)
(13.92719 -8.50575 7.418422e-18)
(14.59362 -8.131844 6.052042e-20)
(15.22507 -7.701109 -6.862638e-20)
(15.81397 -7.219406 6.833268e-20)
(16.35672 -6.689491 7.518602e-20)
(16.85308 -6.117734 9.874281e-18)
(17.29909 -5.509063 -7.78789e-20)
(17.68036 -4.864842 0)
(18.00392 -4.192688 0)
(18.29492 -3.50734 0)
(18.53792 -2.818819 0)
(18.71305 -2.136324 2.136263e-20)
(18.80276 -1.461828 -2.125594e-20)
(18.74316 -0.8698103 1.311849e-18)
(18.31003 -0.4258257 5.019315e-21)
(15.93101 -0.08209239 0)
(11.58279 0.325399 -1.3794e-18)
(8.001816 0.7411713 2.8402e-18)
(2.097128 -0.01941999 -2.779834e-18)
(-4.947055 -1.597408 6.018009e-20)
(-5.708327 -1.523235 -8.72325e-18)
(-3.460684 -0.5875715 5.563236e-20)
(-1.32628 -0.01879485 0)
(0.1380192 0.2595459 9.275644e-18)
(0.2754869 0.2193085 -1.757541e-17)
(0.4170856 0.3921108 -7.676661e-18)
(1.341882 1.134118 -1.360161e-20)
(4.416113 2.911577 -6.587966e-20)
(4.05959 2.071445 2.874285e-20)
(-2.375491 -2.268994 0)
(-4.32011 -3.471888 9.171448e-18)
(-4.979302 -3.976413 1.065827e-17)
(-5.039883 -4.289415 4.095262e-21)
(-4.531758 -4.042727 -9.560718e-18)
(-3.297079 -2.958759 1.524297e-17)
(-1.611691 -1.322735 6.101686e-18)
(0.1844797 0.5757086 3.186084e-21)
(1.357641 1.849991 -4.722127e-18)
(1.336114 1.851064 -3.679421e-20)
(0.9113168 1.414626 -4.553778e-18)
(0.8555906 1.438431 3.644406e-20)
(0.8936278 1.507509 -1.712415e-22)
(0.5786269 1.076311 -3.541435e-20)
(0.2479183 0.6142991 0)
(0.1525166 0.3597514 0)
(-0.08899856 -0.6845207 -5.13225e-18)
(-0.6438521 -2.90685 0)
(-1.009289 -4.40746 -5.161584e-18)
(-0.996491 -4.551282 2.638846e-18)
(-0.8522828 -4.415869 -1.978563e-20)
(-0.6671133 -4.235067 1.971276e-20)
(-0.462956 -3.926478 1.159864e-18)
(-0.2815792 -3.656 -5.47711e-19)
(-0.12481 -3.368544 -2.389056e-19)
(-0.06086892 -2.818717 1.760767e-19)
(0.01536921 -2.215763 -3.086602e-19)
(0.07833126 -1.563008 7.871248e-21)
(0.1552522 -1.050368 -4.872484e-19)
(0.09764256 -0.9359714 0)
(-0.1859481 -0.3385705 -1.283846e-18)
(-0.236869 -0.5591985 -1.096555e-20)
(-0.05021861 0.3272173 8.217752e-19)
(1.35877 -2.063726 1.590659e-18)
(2.531872 -4.679204 1.653947e-18)
(2.408075 -4.847251 1.833723e-18)
(2.423902 -4.73572 -1.445261e-20)
(2.619517 -4.735765 0)
(2.588264 -4.433889 0)
(2.198723 -3.71508 1.073234e-18)
(1.482046 -2.59631 6.273283e-19)
(0.6529368 -1.328753 3.436995e-19)
(-0.1513988 -0.2541122 5.423705e-21)
(-0.7317409 0.4532348 0)
(-1.488461 1.239245 1.205191e-18)
(-2.153915 1.811732 1.454664e-18)
(-2.468389 2.102803 -1.272575e-18)
(-2.129847 2.075268 0)
(-1.200663 1.744383 -7.084563e-19)
(2.98624 -1.396515 0)
(2.88145 -2.319671 2.066482e-18)
(1.248769 -1.408225 0)
(0.7217595 -0.7286548 6.673738e-19)
(0.3751943 -0.4059718 -2.923378e-19)
(-0.4455943 -0.2982235 0)
(-2.82138 0.1976814 0)
(-5.4421 1.115078 1.976397e-20)
(-6.475081 2.194256 -5.353282e-18)
(-6.959176 3.072321 3.705008e-18)
(-0.1752251 0.9745054 3.290265e-18)
(7.436098 -1.019657 -8.750828e-19)
(11.76135 -0.9993904 1.336825e-18)
(13.83319 -0.2190635 -7.331501e-19)
(16.404 0.6209703 0)
(17.81301 1.070716 0)
(17.48555 1.393428 -1.466802e-18)
(17.42094 1.951124 -1.623682e-18)
(17.40432 2.615828 -3.305028e-18)
(17.33463 3.300136 3.353131e-18)
(17.20227 3.986991 8.047339e-20)
(17.0042 4.656018 -5.389482e-20)
(16.74077 5.297358 0)
(16.40377 5.902409 0)
(16.00729 6.478185 6.460799e-18)
(15.56452 7.02484 -6.260729e-18)
(15.07177 7.525466 0)
(14.52501 7.979059 0)
(13.93292 8.378073 8.163307e-20)
(13.30119 8.725427 -5.167319e-18)
(12.63929 9.01436 0)
(11.95073 9.241568 -4.16579e-18)
(11.24354 9.419008 -3.731352e-18)
(10.52676 9.540933 -3.233586e-18)
(9.797287 9.592682 2.802139e-18)
(9.055937 9.579048 -3.242246e-20)
(8.316194 9.510742 1.82884e-18)
(7.586888 9.388686 0)
(6.870735 9.20373 -8.395125e-19)
(6.167857 8.955782 -9.960982e-22)
(5.481881 8.652759 7.849193e-21)
(4.824212 8.286756 -7.166135e-19)
(4.189652 7.867321 0)
(3.591431 7.397306 -1.679658e-18)
(3.029721 6.882422 -1.812962e-20)
(2.511494 6.325525 2.560049e-18)
(2.037959 5.729512 1.486169e-18)
(1.613363 5.095218 -1.67335e-18)
(1.238209 4.426683 -1.847919e-18)
(0.9169197 3.734597 1.999334e-18)
(0.6469899 3.030103 -2.140648e-18)
(0.4439008 2.304829 -1.097832e-18)
(0.2888088 1.571214 2.315212e-18)
(0.194214 0.8439004 1.206983e-18)
(0.172544 0.09685834 2.446477e-21)
(0.2190162 -0.7144917 6.052756e-19)
(0.2982651 -1.5385 -9.045418e-21)
(0.4491537 -2.314852 0)
(0.6605609 -3.055947 -1.548041e-20)
(0.9260168 -3.772723 -1.319386e-20)
(1.247837 -4.464167 -1.677308e-18)
(1.620457 -5.125053 3.073125e-18)
(2.049743 -5.754005 -1.339192e-18)
(2.522179 -6.352973 2.169794e-18)
(3.039239 -6.906023 1.537353e-20)
(3.601971 -7.415059 0)
(4.200218 -7.885652 7.638773e-19)
(4.833802 -8.302874 -7.609501e-22)
(5.503485 -8.668792 2.963701e-19)
(6.197502 -8.99041 0)
(6.909269 -9.248983 1.408874e-18)
(7.637379 -9.438789 0)
(8.378743 -9.573302 -4.869451e-20)
(9.127118 -9.650934 3.058315e-18)
(9.882755 -9.664665 0)
(10.63562 -9.623872 -4.197585e-18)
(11.37794 -9.521497 -4.732741e-18)
(12.10181 -9.353787 -5.237841e-18)
(12.80259 -9.123178 0)
(13.48486 -8.834685 -1.239514e-17)
(14.14157 -8.496187 9.938261e-20)
(14.76604 -8.099938 0)
(15.35061 -7.653291 0)
(15.89177 -7.157327 0)
(16.39017 -6.617431 8.00664e-18)
(16.8383 -6.043533 -8.305336e-18)
(17.22775 -5.432401 0)
(17.55362 -4.785678 0)
(17.81608 -4.112669 4.401424e-18)
(18.02043 -3.415398 3.513524e-20)
(18.15589 -2.702805 0)
(18.22866 -1.990264 0)
(18.24665 -1.298478 -2.187758e-18)
(18.4827 -0.7277714 2.579144e-19)
(18.68314 -0.2677782 0)
(17.72463 0.3442242 9.900215e-19)
(15.28781 0.8336455 3.70638e-20)
(6.754174 0.002023488 -8.339169e-21)
(-2.452897 -1.351353 -3.985389e-20)
(-0.2660779 -0.326302 7.884056e-18)
(1.233443 0.8648852 6.025935e-18)
(3.16382 1.639768 7.897449e-20)
(4.541433 1.923418 5.2583e-20)
(4.712248 1.963318 6.666472e-18)
(4.159214 2.018376 6.002034e-18)
(3.717917 2.415407 0)
(4.565742 3.07705 3.064481e-18)
(3.11816 1.009164 0)
(-2.363586 -2.801326 -9.673396e-20)
(-3.912174 -3.444 -7.396595e-18)
(-4.832715 -4.020481 1.400129e-19)
(-5.06725 -4.396245 -1.40789e-19)
(-4.703264 -4.087894 7.858537e-18)
(-3.600412 -2.967469 -6.128341e-18)
(-2.02487 -1.385571 -4.863703e-18)
(-0.2557867 0.4509935 -4.169631e-18)
(1.245677 1.88226 -3.830021e-18)
(1.438535 1.939735 0)
(0.9623298 1.402526 3.4785e-21)
(0.8028288 1.333952 0)
(0.9300033 1.508983 -3.843758e-18)
(0.718139 1.208126 3.848115e-18)
(0.1613609 0.2497257 0)
(-0.1515035 -0.7478216 0)
(-0.468079 -2.331943 8.097572e-18)
(-0.7902793 -3.869727 -2.031362e-18)
(-0.9207835 -4.34144 4.252694e-18)
(-0.8828321 -4.310399 -1.692749e-20)
(-0.7749567 -4.324702 1.702772e-20)
(-0.6183697 -4.116931 0)
(-0.4390214 -3.818038 -9.508205e-19)
(-0.2677007 -3.552365 8.834089e-19)
(-0.1268577 -3.276604 2.001994e-19)
(-0.1340136 -2.683789 -2.898763e-19)
(-0.0706085 -2.08087 -7.370404e-21)
(-0.0193744 -1.458904 7.486472e-21)
(0.07454346 -0.9812297 -1.141104e-20)
(0.02024565 -0.737618 1.143508e-20)
(-0.1739361 -0.3578494 5.332245e-19)
(0.03766189 -1.330314 -8.917466e-21)
(0.8347483 -1.83143 -6.460342e-19)
(2.183925 -3.599025 1.879147e-20)
(2.619859 -4.626795 -1.378579e-18)
(2.260608 -4.618687 -1.564237e-20)
(2.379453 -4.798049 0)
(2.543834 -4.784751 0)
(2.51977 -4.496657 -1.230475e-18)
(2.099944 -3.807264 -8.899836e-19)
(1.312795 -2.686219 -1.015295e-18)
(0.3804941 -1.288269 -2.78475e-19)
(-0.6330848 0.08547631 0)
(-1.371171 0.9845316 0)
(-2.098998 1.725447 -1.954741e-18)
(-2.61425 2.153275 -2.380734e-18)
(-2.729803 2.329162 1.173802e-20)
(-2.222016 2.272027 -1.004024e-20)
(-1.358547 2.242953 1.104767e-18)
(1.45925 0.08160675 1.268275e-18)
(2.108688 -1.838786 -1.779683e-18)
(2.051239 -1.923691 -1.350142e-18)
(2.517475 -1.607788 -5.181871e-19)
(2.599004 -1.452932 1.10202e-19)
(1.827205 -1.462431 0)
(-0.1597477 -1.161165 -7.272298e-20)
(-2.264429 -0.2238866 -6.541745e-18)
(-3.245898 1.285835 6.169697e-20)
(-3.728597 2.748604 9.869714e-20)
(2.011396 1.312849 -1.253854e-18)
(12.63015 -0.9969431 -6.207253e-19)
(16.19984 -1.138489 -3.213971e-20)
(17.35696 -0.4024382 -5.475901e-19)
(17.75713 0.5034968 -2.612236e-19)
(17.35976 0.8518316 -2.135725e-21)
(17.21645 1.067668 0)
(17.43156 1.555109 -2.067581e-20)
(17.52848 2.152057 1.388696e-18)
(17.52113 2.795599 -5.538114e-18)
(17.41825 3.471517 4.352908e-20)
(17.23701 4.132146 -2.816206e-18)
(16.97422 4.783043 -8.562724e-20)
(16.64202 5.396192 -5.385849e-18)
(16.24856 5.984569 -1.10525e-20)
(15.80746 6.551137 5.165205e-18)
(15.31767 7.068928 -4.861265e-18)
(14.77293 7.543409 0)
(14.18224 7.963036 6.587391e-20)
(13.54991 8.333498 -6.625746e-20)
(12.88512 8.647454 0)
(12.19159 8.900967 3.432482e-18)
(11.47837 9.104408 7.064711e-20)
(10.75415 9.25234 2.703449e-18)
(10.01715 9.328953 -2.240116e-18)
(9.269769 9.336594 -1.836159e-18)
(8.520232 9.291052 -1.47836e-18)
(7.781833 9.190178 -1.02658e-18)
(7.056983 9.024618 6.63384e-21)
(6.344174 8.795187 -6.697945e-21)
(5.647691 8.510103 0)
(4.979456 8.160632 5.833703e-19)
(4.333869 7.756572 -1.857609e-20)
(3.725517 7.300102 1.398804e-18)
(3.154025 6.797378 1.737706e-18)
(2.628425 6.250695 -2.083621e-18)
(2.147554 5.663964 -1.220056e-18)
(1.716364 5.037981 -4.363043e-21)
(1.335001 4.377064 1.516288e-18)
(1.010453 3.691102 2.632677e-20)
(0.7356572 2.992911 1.715765e-18)
(0.532526 2.272136 1.44666e-20)
(0.3758209 1.542865 -9.676388e-19)
(0.2801975 0.8217677 -4.91896e-19)
(0.2636684 0.08274242 -6.082887e-23)
(0.3188358 -0.7073863 4.80078e-19)
(0.3924244 -1.517997 7.409628e-21)
(0.5399929 -2.286056 -8.911513e-19)
(0.7524333 -3.021087 1.678879e-18)
(1.019825 -3.731298 0)
(1.344798 -4.414942 -3.05647e-21)
(1.720823 -5.067085 -1.26431e-18)
(2.15619 -5.686353 1.128543e-18)
(2.633135 -6.275758 -1.868043e-18)
(3.159314 -6.815978 1.973128e-20)
(3.732701 -7.311349 -1.954947e-20)
(4.337029 -7.769796 -6.278145e-19)
(4.980225 -8.171336 0)
(5.663792 -8.51877 -2.501795e-19)
(6.365622 -8.824809 2.129035e-20)
(7.086267 -9.064989 -5.808737e-20)
(7.824819 -9.234406 -1.533161e-18)
(8.574913 -9.348838 -2.084227e-18)
(9.331258 -9.405237 -1.523178e-20)
(10.09449 -9.396388 2.89967e-18)
(10.85574 -9.33099 -4.901772e-20)
(11.604 -9.204629 -3.774525e-18)
(12.33329 -9.011147 0)
(13.04042 -8.752387 4.581112e-18)
(13.72629 -8.438234 5.035189e-18)
(14.38342 -8.076672 5.224181e-18)
(15.00732 -7.657069 -5.561084e-18)
(15.58964 -7.189136 5.960081e-18)
(16.12803 -6.672049 0)
(16.62314 -6.111728 -1.310987e-17)
(17.06713 -5.52251 1.371296e-17)
(17.45154 -4.895725 -1.627626e-19)
(17.77183 -4.240055 -3.542142e-18)
(18.03055 -3.556053 -3.610495e-18)
(18.21898 -2.865834 0)
(18.32713 -2.173526 1.868873e-18)
(18.34261 -1.501863 -1.855191e-18)
(18.25251 -0.8801076 9.11226e-19)
(18.11282 -0.396402 -2.231414e-19)
(18.30351 -0.02650827 -4.204609e-19)
(18.45193 0.5094967 1.259974e-20)
(18.56301 0.7901958 -1.491819e-18)
(13.00432 -0.008474355 -2.102146e-20)
(3.846969 -0.6587791 0)
(3.762617 1.014212 0)
(6.047363 2.62049 -1.232132e-19)
(7.640523 3.383132 1.190901e-19)
(8.556744 3.510941 0)
(8.617801 3.515974 0)
(7.766379 3.529884 0)
(6.44954 3.66447 3.629196e-18)
(5.161992 3.237172 -5.130279e-18)
(2.37058 -0.09630969 2.354276e-18)
(-1.51096 -2.809337 -4.207694e-18)
(-3.336806 -3.266415 -1.878686e-19)
(-4.446467 -3.782564 7.372563e-18)
(-4.845327 -4.211261 7.720019e-18)
(-4.604176 -3.832552 9.036199e-20)
(-3.637292 -2.661656 -1.94457e-20)
(-2.251778 -1.207343 -7.051445e-20)
(-0.7132486 0.3524239 -4.966206e-20)
(0.9092125 1.668077 3.250748e-18)
(1.316427 1.721563 0)
(0.9349794 1.289244 3.093078e-18)
(0.7793443 1.32101 -3.166123e-18)
(0.9460599 1.505726 3.174966e-18)
(0.8384743 1.233906 0)
(0.1488576 -0.1517589 0)
(-0.297124 -1.601059 -5.217329e-20)
(-0.5704774 -3.095077 -3.269718e-18)
(-0.71981 -3.887839 1.725378e-18)
(-0.8288281 -4.009795 -1.769891e-18)
(-0.8803657 -4.150534 0)
(-0.8055127 -4.174412 0)
(-0.6572462 -3.984875 0)
(-0.4787834 -3.702854 -7.712828e-19)
(-0.3061341 -3.441001 -3.762294e-19)
(-0.1712901 -3.159803 -3.303199e-19)
(-0.2134103 -2.465684 1.193298e-19)
(-0.1581719 -1.849958 0)
(-0.1123727 -1.206225 -3.642851e-19)
(0.008673913 -0.7638716 0)
(-0.008737644 -0.6807447 -5.536441e-19)
(-0.09353568 -0.3857094 0)
(0.3387398 -1.917029 0)
(1.396232 -2.905876 -4.78841e-19)
(2.494883 -4.006699 -1.042761e-18)
(2.599554 -4.363749 1.164777e-18)
(2.34333 -4.657985 -1.261433e-18)
(2.439075 -4.76554 1.241079e-18)
(2.557774 -4.758882 0)
(2.471227 -4.528199 2.022183e-18)
(1.998739 -3.928643 7.27414e-19)
(1.180326 -2.893235 4.240162e-19)
(0.22506 -1.503083 -1.027226e-20)
(-0.876471 0.001312752 -1.083525e-20)
(-1.839163 1.233426 -4.569068e-19)
(-2.572084 2.067338 1.609526e-18)
(-2.985875 2.434785 9.783554e-19)
(-2.949042 2.555796 2.022983e-20)
(-2.263941 2.471666 3.804395e-19)
(-1.187279 2.422368 -4.375011e-19)
(0.4665676 1.20874 -1.032616e-18)
(1.590415 -1.291592 0)
(3.082855 -2.360676 -2.167539e-20)
(4.36455 -2.418233 0)
(4.812984 -2.445884 7.627933e-20)
(4.312659 -2.687392 7.06202e-19)
(2.944256 -2.659935 2.365544e-18)
(1.480314 -1.732256 -1.770173e-19)
(0.3906149 0.2251956 1.137203e-19)
(0.4918094 2.129505 -5.308036e-18)
(6.689051 1.511135 0)
(15.66632 -0.6117996 -4.971885e-19)
(16.7368 -0.9997472 -7.890725e-19)
(17.21478 -0.4095095 8.977465e-19)
(17.16076 0.4890797 2.095136e-19)
(16.86616 0.9578883 0)
(16.99345 1.35294 4.93718e-19)
(17.15738 1.921139 0)
(17.23001 2.553042 0)
(17.20575 3.203727 2.310788e-18)
(17.09919 3.870225 -3.540706e-20)
(16.91981 4.510673 4.491194e-20)
(16.6618 5.137557 -2.233956e-18)
(16.33551 5.721642 4.523472e-18)
(15.94806 6.27994 -4.329004e-18)
(15.51581 6.816994 -4.176351e-18)
(15.04125 7.295064 2.016345e-19)
(14.51033 7.735102 -1.214609e-19)
(13.93683 8.118902 -1.068274e-19)
(13.32113 8.458996 -3.06049e-18)
(12.67572 8.743992 -3.099344e-18)
(12.00243 8.968732 -8.075724e-20)
(11.307 9.14996 2.556328e-18)
(10.60516 9.275546 0)
(9.892392 9.329889 1.844735e-18)
(9.163422 9.322204 1.511635e-18)
(8.433141 9.263459 1.125432e-18)
(7.716166 9.150967 8.447181e-19)
(7.011895 8.976322 0)
(6.319757 8.738243 0)
(5.640478 8.449458 -2.004706e-19)
(4.992186 8.095491 0)
(4.360862 7.691206 0)
(3.76836 7.235138 1.212769e-18)
(3.2134 6.733327 -2.475431e-20)
(2.697715 6.190602 -1.353504e-20)
(2.224712 5.60771 -3.326042e-20)
(1.801765 4.985491 2.298218e-18)
(1.429022 4.328193 0)
(1.113872 3.645665 0)
(0.8357726 2.955224 1.452648e-18)
(0.6375569 2.238396 7.264492e-19)
(0.4802093 1.512107 7.805434e-19)
(0.3833343 0.7971727 -4.026991e-19)
(0.3723238 0.06552791 0)
(0.4404778 -0.698507 -4.02204e-22)
(0.5088976 -1.496016 2.357588e-20)
(0.6438709 -2.257024 7.071273e-19)
(0.8493858 -2.984289 -1.376481e-18)
(1.112047 -3.685898 -3.854758e-20)
(1.432702 -4.361521 1.171149e-18)
(1.80391 -5.006177 3.434241e-20)
(2.233963 -5.61901 1.820734e-18)
(2.697291 -6.205047 -1.28475e-20)
(3.210061 -6.741631 -1.251966e-18)
(3.774363 -7.234356 3.266047e-20)
(4.363969 -7.693669 0)
(4.986561 -8.098047 2.143629e-19)
(5.655943 -8.447944 0)
(6.343358 -8.759071 0)
(7.041621 -9.009142 -9.175529e-19)
(7.760488 -9.188042 2.524987e-18)
(8.493634 -9.312984 5.681522e-20)
(9.229391 -9.383775 -1.081449e-19)
(9.972699 -9.39058 -2.381529e-18)
(10.71367 -9.344971 -2.692428e-18)
(11.4419 -9.240121 3.212053e-18)
(12.15001 -9.072134 -3.483128e-18)
(12.83575 -8.841818 -7.116452e-20)
(13.50474 -8.55397 0)
(14.14424 -8.224022 -4.522025e-18)
(14.75272 -7.835601 9.529673e-18)
(15.32068 -7.40212 -5.069579e-18)
(15.84574 -6.920377 0)
(16.33126 -6.394863 8.83839e-20)
(16.76656 -5.841338 -5.494763e-18)
(17.14486 -5.246149 -8.783896e-20)
(17.46218 -4.61889 1.386091e-19)
(17.71781 -3.958497 -9.218679e-20)
(17.90782 -3.28098 0)
(18.01905 -2.603686 -2.980372e-18)
(18.04472 -1.922221 1.444077e-18)
(17.98854 -1.264217 7.197699e-19)
(17.85299 -0.6773357 -1.123327e-20)
(17.84257 -0.1744903 3.436845e-19)
(17.67703 0.4361918 6.686944e-19)
(18.56222 0.6008966 0)
(17.3754 -0.0904467 1.110367e-18)
(12.07889 0.09096554 -1.076464e-19)
(10.89765 2.365409 4.528416e-18)
(11.5539 4.266416 0)
(11.85415 4.893046 0)
(11.98964 4.819021 0)
(11.80538 4.721601 5.873121e-20)
(10.85259 4.676652 3.507742e-18)
(9.092178 4.612629 -3.052521e-18)
(6.346517 3.399294 2.124791e-18)
(2.274285 -0.9004272 -3.758465e-18)
(-0.408136 -2.59436 3.528658e-18)
(-2.558772 -3.012854 0)
(-3.727045 -3.35641 -6.136353e-18)
(-4.283746 -3.785357 -6.352421e-18)
(-4.175238 -3.266137 5.561815e-18)
(-3.35036 -2.003924 -1.465506e-19)
(-2.20514 -0.7276498 -9.20137e-20)
(-1.057173 0.3987654 9.455727e-20)
(0.5047308 1.397501 0)
(1.096046 1.394035 -2.589151e-18)
(0.8831929 1.157656 8.009166e-20)
(0.731731 1.268706 5.137664e-18)
(0.9461555 1.459242 -2.703273e-18)
(0.9767384 1.203769 1.606178e-19)
(0.2547276 -0.4489873 -2.650685e-18)
(-0.2169819 -1.954068 0)
(-0.4542159 -3.154311 -2.689796e-18)
(-0.5781985 -3.593063 1.442637e-18)
(-0.7288854 -3.771046 -9.152551e-20)
(-0.8009655 -3.976339 1.599865e-18)
(-0.7627429 -3.984495 -6.897927e-20)
(-0.6633039 -3.809923 2.216846e-20)
(-0.502446 -3.549289 6.461173e-19)
(-0.3402129 -3.292855 -4.459678e-21)
(-0.2167396 -2.988543 4.531916e-21)
(-0.3240167 -2.144863 5.733213e-21)
(-0.2745633 -1.52518 1.667764e-19)
(-0.2301317 -0.8367445 3.002099e-19)
(-0.07609997 -0.4370728 -2.686735e-19)
(-0.04432685 -0.5360528 4.578834e-19)
(0.01063761 -0.2141708 0)
(0.5704756 -1.930851 3.017026e-19)
(1.660118 -3.027858 4.096048e-19)
(2.531142 -3.835355 8.650579e-19)
(2.616916 -4.289653 0)
(2.355131 -4.719423 0)
(2.371315 -4.697041 -1.023667e-18)
(2.477925 -4.693207 -2.814121e-20)
(2.385699 -4.511937 -8.032829e-19)
(1.878476 -4.032776 -6.100884e-19)
(1.041276 -3.138014 -3.541171e-19)
(0.07187425 -1.822877 2.006085e-19)
(-1.112446 -0.2648594 -1.860136e-19)
(-2.136019 1.155142 3.534752e-19)
(-2.872168 2.1451 -6.452559e-19)
(-3.252257 2.610227 0)
(-3.161026 2.798632 0)
(-2.326453 2.759482 -3.257263e-19)
(-0.9659185 2.519832 0)
(0.2011647 1.794108 3.189304e-20)
(1.573954 -0.8277155 1.052102e-21)
(4.328935 -2.659572 9.163992e-19)
(6.185307 -3.048183 2.092126e-20)
(6.926207 -3.316349 8.422283e-21)
(6.819073 -3.869224 -5.729277e-19)
(6.250602 -4.167602 2.805717e-21)
(5.615306 -3.374935 2.056572e-18)
(4.642763 -0.9859927 -9.046435e-20)
(5.986182 1.482142 2.139915e-18)
(11.86253 1.632355 -4.122039e-20)
(16.59152 -0.1412288 1.613019e-18)
(15.98123 -0.8114345 1.679857e-20)
(16.70909 -0.3422348 -1.145417e-20)
(16.83256 0.4146234 -3.577835e-19)
(16.84749 0.8244431 -2.921425e-21)
(17.02862 1.172238 -4.081071e-19)
(17.18852 1.666195 -2.726429e-20)
(17.27161 2.243552 -8.557052e-19)
(17.25076 2.852809 1.79597e-18)
(17.14351 3.507839 -1.813008e-18)
(16.96521 4.141579 3.548081e-18)
(16.70857 4.777604 1.954815e-18)
(16.38477 5.374191 0)
(15.99551 5.952351 0)
(15.56313 6.511995 3.386838e-18)
(15.0888 7.010293 3.240528e-18)
(14.55752 7.469648 0)
(13.98617 7.86614 -8.564032e-20)
(13.37027 8.220991 2.775492e-18)
(12.7218 8.525705 2.469655e-18)
(12.04896 8.763012 2.156964e-18)
(11.35897 8.950435 -5.704555e-20)
(10.6588 9.088862 -1.623522e-18)
(9.943325 9.159447 4.07181e-20)
(9.218846 9.158038 -4.109184e-20)
(8.496589 9.103368 -9.490353e-19)
(7.782408 9.000596 6.389682e-19)
(7.074485 8.841333 0)
(6.390227 8.607904 0)
(5.713474 8.329409 3.494873e-19)
(5.073848 7.981612 -8.211631e-21)
(4.446905 7.586116 -7.874542e-21)
(3.869408 7.134601 -9.352685e-19)
(3.322325 6.639965 -2.383849e-18)
(2.799727 6.113361 1.344292e-18)
(2.329151 5.541495 -1.618692e-18)
(1.910685 4.928278 -8.992829e-19)
(1.546453 4.27714 -3.074309e-20)
(1.238674 3.596443 0)
(0.9534563 2.916689 -1.134137e-18)
(0.767316 2.205941 -3.803988e-20)
(0.6056039 1.481101 -6.49176e-19)
(0.5072943 0.772491 3.451444e-19)
(0.5028703 0.04640836 -1.209002e-23)
(0.5833985 -0.6882118 -3.416034e-19)
(0.6386347 -1.476389 2.920502e-20)
(0.7682687 -2.226725 -6.163953e-19)
(0.9658111 -2.939648 1.127951e-18)
(1.223109 -3.629842 -1.084588e-18)
(1.540278 -4.296556 2.666274e-21)
(1.907851 -4.931823 8.886916e-19)
(2.342386 -5.533909 -1.449742e-18)
(2.796583 -6.114447 1.240551e-18)
(3.298176 -6.645656 9.375438e-19)
(3.863241 -7.129651 8.17556e-21)
(4.460386 -7.576586 8.599986e-21)
(5.074849 -7.974433 -1.657741e-19)
(5.727166 -8.32596 -8.232646e-20)
(6.41463 -8.628806 1.732523e-20)
(7.111466 -8.869224 6.66188e-19)
(7.822107 -9.042218 -2.031082e-18)
(8.547245 -9.163751 1.303661e-18)
(9.287817 -9.217244 -5.259437e-20)
(10.0281 -9.214544 -1.92008e-18)
(10.76125 -9.165371 4.433717e-18)
(11.48944 -9.047627 8.179234e-20)
(12.19433 -8.869713 2.701689e-18)
(12.87998 -8.62396 -3.149415e-18)
(13.55054 -8.319945 9.774904e-20)
(14.18857 -7.977518 -3.579274e-18)
(14.79724 -7.571016 -3.658581e-18)
(15.36399 -7.122272 1.262176e-19)
(15.88983 -6.6184 -4.216305e-18)
(16.37533 -6.072163 4.355036e-18)
(16.80985 -5.500235 0)
(17.18577 -4.888483 0)
(17.49895 -4.242292 2.374816e-18)
(17.74942 -3.580454 2.380921e-18)
(17.93844 -2.912027 0)
(18.05268 -2.242611 1.276812e-18)
(18.0784 -1.589146 1.17007e-18)