/*--------------------------------*- C++ -*----------------------------------*\
| =========                 |                                                 |
| \\      /  F ield         | OpenFOAM: The Open Source CFD Toolbox           |
|  \\    /   O peration     | Version:  2406                                  |
|   \\  /    A nd           | Website:  www.openfoam.com                      |
|    \\/     M anipulation  |                                                 |
\*---------------------------------------------------------------------------*/
FoamFile
{
    version     2.0;
    format      ascii;
    arch        "LSB;label=32;scalar=64";
    class       volScalarField;
    location    "1.94";
    object      p;
}
// * * * * * * * * * * * * * * * * * * * * * * * * * * * * * * * * * * * * * //

dimensions      [0 2 -2 0 0 0 0];

internalField   nonuniform List<scalar> 
15536
(
-35.87559
-26.24726
-17.79626
-11.2423
-7.526815
-5.249382
-4.886992
-5.554503
-6.334257
-6.839479
-6.065766
-7.927039
-9.998004
-9.394194
-8.871532
-7.550286
-5.533687
-3.178083
0.001908251
3.40175
3.069772
1.587655
-2.234401
-12.40564
-28.72851
-51.64677
-87.41629
-98.32888
-56.09288
1.808377
-11.52181
-28.78699
-44.05008
-71.69365
-112.1862
-123.8045
-92.67331
-76.99059
-82.49366
-87.35499
-93.3004
-97.91527
-100.5656
-101.6113
-101.7658
-100.9252
-99.18837
-96.48496
-93.29767
-89.76789
-85.56072
-80.77808
-75.38234
-69.62646
-63.45371
-56.934
-50.39816
-43.76909
-36.80992
-29.69978
-22.72028
-15.88717
-9.097064
-2.404922
4.056485
10.37367
16.38525
22.06912
27.32013
32.13838
36.48499
40.36167
43.7349
46.53182
48.71024
50.37385
51.39409
51.81627
51.68317
51.06726
49.68729
47.64511
45.01948
41.81057
38.04102
33.73043
28.94786
23.60566
17.8695
11.78318
5.196699
-1.697131
-8.836457
-16.40688
-24.11961
-31.77095
-39.59033
-47.55802
-55.47849
-63.44228
-71.27928
-78.80007
-85.96208
-92.85707
-99.61047
-105.9026
-111.7105
-116.9873
-121.7511
-126.0696
-129.6518
-132.4155
-134.4162
-135.6286
-135.9025
-134.8776
-132.2585
-128.0389
-123.3487
-122.0897
-118.7923
-102.7104
-120.1953
-168.2
-163.7567
-114.6627
-79.61897
-66.7476
-59.77999
-46.11554
-24.11405
-17.8627
-49.96393
-83.07972
-101.7063
-105.839
-90.6559
-64.93488
-44.08939
-31.40369
-26.54737
-25.70037
-25.56481
-26.67079
-29.33822
-33.85674
-35.92287
-32.71291
-32.35964
-38.06698
-43.17045
-48.70099
-56.3357
-60.08158
-58.88122
-53.57054
-45.53224
-35.66384
-26.12163
-17.74804
-11.23285
-7.530696
-5.256621
-4.88966
-5.550769
-6.336472
-6.844791
-6.083982
-7.950813
-10.0128
-9.401971
-8.876025
-7.559932
-5.53855
-3.179234
0.007028709
3.430941
3.109097
1.59818
-2.275743
-12.43872
-28.69357
-51.53094
-87.39178
-98.61133
-56.40117
1.948887
-11.72051
-28.93764
-44.10602
-71.71676
-112.1635
-123.761
-92.44367
-76.93786
-82.33822
-86.952
-92.56642
-96.88831
-99.32393
-100.2558
-100.3625
-99.49987
-97.75735
-95.05916
-91.88503
-88.38561
-84.21283
-79.47234
-74.1221
-68.41968
-62.30668
-55.84876
-49.37538
-42.81353
-35.92691
-28.88552
-21.97522
-15.21203
-8.489016
-1.863011
4.533471
10.78565
16.73431
22.36067
27.55902
32.32786
36.63047
40.46852
43.80808
46.57891
48.7355
50.38352
51.39468
51.81336
51.68051
51.06775
49.69732
47.67358
45.07218
41.89297
38.15888
33.88983
29.15362
23.86345
18.18631
12.15888
5.636754
-1.184977
-8.254399
-15.75639
-23.39154
-30.96593
-38.71007
-46.5988
-54.44102
-62.32789
-70.08985
-77.53632
-84.62812
-91.46178
-98.15883
-104.3948
-110.155
-115.3878
-120.1156
-124.409
-127.9723
-130.7321
-132.7466
-133.9917
-134.3265
-133.432
-131.0755
-127.1991
-122.9064
-121.9645
-118.7233
-102.6391
-120.035
-168.2585
-163.8039
-114.613
-79.54413
-66.71428
-59.84564
-46.22789
-24.24819
-17.71699
-50.00057
-83.13974
-101.5475
-105.5332
-90.48809
-64.90216
-44.12614
-31.44849
-26.53143
-25.6627
-25.53022
-26.65118
-29.32342
-33.83541
-35.89207
-32.64556
-32.32825
-38.095
-43.20742
-48.67839
-56.15153
-59.75905
-58.44996
-53.16505
-45.22094
-35.54856
-26.04924
-17.73659
-11.24243
-7.547573
-5.275819
-4.899044
-5.563921
-6.339762
-6.80568
-6.068728
-7.975988
-10.08486
-9.475065
-8.929623
-7.585279
-5.555289
-3.197576
-0.01517779
3.455207
3.134946
1.579725
-2.396982
-12.53071
-28.68833
-51.53553
-87.82719
-100.1017
-58.16066
2.176058
-11.72697
-28.97149
-44.14997
-71.8952
-112.6758
-124.1619
-92.80553
-77.01229
-82.0149
-86.45404
-91.75474
-95.91204
-98.3728
-99.37552
-99.51976
-98.68292
-96.97566
-94.29528
-91.13385
-87.66206
-83.5022
-78.78813
-73.4636
-67.79033
-61.71496
-55.27291
-48.8277
-42.3076
-35.4472
-28.43612
-21.55795
-14.83396
-8.148714
-1.551189
4.805666
11.02941
16.94458
22.54023
27.70931
32.45084
36.72622
40.53976
43.8572
46.61185
48.75002
50.38638
51.39013
51.80514
51.67282
51.06329
49.70014
47.69137
45.10719
41.94813
38.23787
33.99476
29.28826
24.02388
18.37988
12.3871
5.894647
-0.8897253
-7.920133
-15.38949
-22.9866
-30.51644
-38.2259
-46.08086
-53.87797
-61.7415
-69.46814
-76.885
-83.9488
-90.73911
-97.40587
-103.6062
-109.343
-114.5511
-119.2559
-123.533
-127.0716
-129.8027
-131.7835
-132.9993
-133.2963
-132.3106
-129.9312
-126.2411
-122.2376
-121.0896
-117.688
-102.5718
-120.3928
-168.7504
-164.3167
-114.7969
-79.59511
-66.71903
-59.8295
-46.24978
-24.27946
-17.58551
-50.67722
-83.72197
-101.6126
-105.6342
-90.53449
-64.96174
-44.26022
-31.59045
-26.53739
-25.61883
-25.46888
-26.6204
-29.32687
-33.87777
-35.91694
-32.5114
-32.20966
-38.09852
-43.34514
-48.95507
-56.18886
-59.61286
-58.32448
-52.99476
-45.06487
-35.43282
-25.99127
-17.76113
-11.28489
-7.585327
-5.311568
-4.917721
-5.582986
-6.339844
-6.733456
-6.001585
-7.957177
-10.18252
-9.614588
-9.024753
-7.633251
-5.5873
-3.229078
-0.07553732
3.475476
3.182362
1.596717
-2.565403
-12.65179
-28.70286
-51.69854
-88.7604
-102.7593
-61.57914
2.20649
-11.28784
-28.71824
-44.13008
-71.89623
-112.2074
-123.6681
-93.83705
-77.70964
-81.71144
-85.74985
-90.61909
-94.49127
-96.77176
-97.56836
-97.66901
-96.8148
-95.14315
-92.49212
-89.35407
-85.93832
-81.85279
-77.21606
-71.96597
-66.36996
-60.37956
-54.02383
-47.65793
-41.22719
-34.4678
-27.53561
-20.73716
-14.09924
-7.499104
-0.9758002
5.299621
11.45392
17.29984
22.83689
27.94755
32.63503
36.86327
40.63686
43.91931
46.64985
48.7614
50.38297
51.37791
51.78882
51.65761
51.05108
49.69458
47.70698
45.14724
42.01777
38.34472
34.14567
29.49212
24.27707
18.70022
12.77375
6.345918
-0.3527436
-7.30387
-14.70302
-22.19971
-29.63595
-37.26186
-45.017
-52.71628
-60.4863
-68.11704
-75.42902
-82.3893
-89.1016
-95.68866
-101.7957
-107.4561
-112.5813
-117.2247
-121.459
-124.951
-127.6402
-129.6111
-130.8464
-131.2081
-130.42
-128.277
-124.897
-121.2304
-119.69
-116.4268
-103.1602
-121.7581
-169.132
-164.6898
-115.1929
-79.7282
-66.68824
-59.56115
-45.93263
-24.01139
-17.74048
-52.0257
-84.74746
-101.804
-105.7783
-90.78602
-65.13633
-44.51272
-31.85297
-26.56668
-25.56436
-25.36778
-26.54438
-29.32544
-33.97351
-35.99111
-32.34922
-32.11874
-38.07604
-43.64225
-49.4369
-56.22068
-59.31115
-57.94992
-52.69622
-44.86546
-35.35217
-25.95658
-17.8336
-11.37485
-7.655568
-5.372774
-4.951688
-5.616227
-6.348482
-6.654888
-5.888915
-7.854216
-10.28553
-9.822828
-9.17516
-7.718657
-5.641547
-3.298598
-0.1517845
3.493642
3.34657
1.764319
-2.697739
-12.75023
-28.74617
-52.15066
-90.36127
-106.6298
-66.46709
1.546774
-10.54405
-28.25776
-43.98162
-71.06971
-108.7872
-119.6107
-93.63521
-78.81828
-81.47159
-84.98149
-89.477
-93.15136
-95.41014
-96.26045
-96.40601
-95.53761
-93.88976
-91.23641
-88.05993
-84.69782
-80.60405
-76.00286
-70.76332
-65.21285
-59.28647
-52.95412
-46.63654
-40.28857
-33.59204
-26.70696
-19.9704
-13.41363
-6.885059
-0.4145874
5.781628
11.88039
17.66174
23.14035
28.18862
32.82611
37.00644
40.73769
43.97727
46.68084
48.76276
50.36695
51.35278
51.75936
51.62983
51.02401
49.67139
47.71408
45.18686
42.09088
38.45761
34.30243
29.70356
24.53533
19.03171
13.1659
6.786681
0.1796525
-6.693645
-14.05398
-21.46382
-28.80911
-36.37663
-44.06413
-51.67081
-59.39308
-66.96414
-74.21324
-81.11789
-87.76978
-94.32798
-100.3785
-106.0198
-111.113
-115.7333
-119.9948
-123.441
-126.1449
-128.1162
-129.3683
-129.7049
-128.803
-126.7004
-123.5034
-120.0919
-118.2576
-115.5578
-105.0326
-123.4071
-168.1623
-163.807
-115.1919
-79.95819
-66.67568
-58.99079
-45.10983
-23.41979
-18.36003
-53.95695
-86.25093
-102.3187
-106.3614
-91.29844
-65.44777
-44.88973
-32.24162
-26.60762
-25.47942
-25.21087
-26.39585
-29.31129
-34.15448
-36.1426
-32.24763
-32.14144
-38.17994
-44.13362
-50.01983
-56.32207
-59.18735
-57.73002
-52.44959
-44.7048
-35.32768
-25.968
-17.9893
-11.4986
-7.76711
-5.478017
-5.008759
-5.670576
-6.378006
-6.595933
-5.780342
-7.740652
-10.45931
-10.12016
-9.374574
-7.852166
-5.724864
-3.419642
-0.2534603
3.558221
3.755791
2.231155
-2.734506
-12.74425
-28.81357
-53.00359
-92.64248
-111.5956
-72.66571
-0.7641434
-10.37865
-28.14195
-43.86254
-69.38257
-102.2171
-111.5492
-91.35006
-79.48147
-80.96733
-83.92068
-87.91375
-91.25253
-93.33072
-93.88435
-93.95621
-93.09787
-91.57079
-88.97166
-85.83245
-82.61478
-78.60711
-74.1282
-68.97633
-63.51346
-57.69356
-51.44018
-45.23227
-39.0126
-32.40857
-25.60834
-18.98271
-12.52978
-6.100978
0.2937116
6.376612
12.40391
18.09406
23.483
28.46224
33.04937
37.16949
40.84668
44.02733
46.70689
48.75117
50.32959
51.30763
51.70881
51.58073
50.97409
49.62755
47.70406
45.22131
42.16885
38.58408
34.48287
29.94396
24.82399
19.42732
13.64715
7.3077
0.8115819
-5.92067
-13.22297
-20.52909
-27.73316
-35.19355
-42.78894
-50.2698
-57.88464
-65.34428
-72.47784
-79.25067
-85.79495
-92.27768
-98.1905
-103.7447
-108.7179
-113.2421
-117.4136
-120.777
-123.3715
-125.2125
-126.4987
-126.9855
-126.3003
-124.4628
-121.5799
-118.5673
-116.6679
-114.6848
-107.2574
-123.7421
-162.6552
-158.6224
-113.599
-80.10806
-66.7081
-58.21727
-44.01754
-22.865
-19.97105
-56.32945
-88.33103
-103.2313
-107.4108
-92.19998
-65.9979
-45.36093
-32.71928
-26.61855
-25.30781
-24.97128
-26.15228
-29.29435
-34.43222
-36.40961
-32.35432
-32.47122
-38.6939
-44.84633
-50.6711
-56.46248
-59.07085
-57.5601
-52.24947
-44.59089
-35.47021
-26.18074
-18.36764
-11.65746
-7.932218
-5.653865
-5.107809
-5.75673
-6.43731
-6.578318
-5.742788
-7.722631
-10.72831
-10.53162
-9.650712
-8.057669
-5.856898
-3.581351
-0.3874743
3.715056
4.510538
2.967302
-2.51521
-12.44824
-28.82968
-53.95644
-95.53645
-116.9053
-79.45847
-5.848483
-11.61422
-28.6573
-44.15422
-67.46318
-95.17296
-103.0827
-88.28389
-79.50213
-80.25484
-82.81637
-86.34101
-89.39589
-91.44897
-91.93842
-92.22158
-91.14345
-89.60768
-86.97976
-83.75805
-80.64721
-76.62076
-72.25525
-67.1244
-61.68136
-55.99375
-49.86286
-43.72142
-37.56559
-31.1023
-24.4362
-17.89311
-11.48837
-5.238235
1.085735
7.031017
12.98859
18.55247
23.85155
28.82172
33.30222
37.33086
40.93383
44.05709
46.75878
48.72262
50.26923
51.23703
51.62754
51.50171
50.91191
49.58352
47.6499
45.20119
42.20739
38.68902
34.68138
30.22284
25.12709
19.84533
14.20561
7.952115
1.500574
-5.11956
-12.25101
-19.46914
-26.57258
-33.90054
-41.31516
-48.75372
-56.28541
-63.56787
-70.63079
-77.25651
-83.7041
-90.15761
-95.93957
-101.473
-106.341
-110.8562
-115.0967
-118.3883
-121.0381
-123.1064
-124.3861
-124.7488
-124.0086
-122.285
-119.61
-116.943
-115.0275
-113.5051
-108.6527
-121.7678
-151.546
-148.3932
-110.3248
-80.13927
-66.74796
-57.51925
-43.30736
-23.16828
-23.05022
-59.50995
-91.03057
-104.6554
-109.2439
-93.80925
-66.98028
-45.77117
-33.11399
-26.53932
-25.02077
-24.59755
-25.85663
-29.20886
-34.71988
-36.803
-32.86633
-33.44186
-39.70239
-45.79849
-51.45613
-56.75676
-59.10324
-57.53419
-52.12368
-44.57845
-35.93055
-26.76358
-19.00122
-12.14273
-8.220581
-5.908699
-5.302949
-5.883723
-6.577081
-6.629929
-5.896551
-7.931663
-11.12119
-11.09599
-10.085
-8.429179
-6.13944
-3.967644
-0.6128845
4.002795
5.609619
4.041896
-1.877636
-11.65402
-28.93111
-54.20486
-98.76506
-121.564
-86.37661
-13.04088
-14.79777
-30.17516
-44.40352
-65.13099
-88.27604
-95.59338
-85.34453
-78.9127
-79.09369
-81.24713
-84.20034
-86.8061
-88.88495
-88.83844
-88.90795
-88.10888
-86.7098
-84.32763
-80.87999
-77.97462
-74.08968
-69.91234
-64.75039
-59.39015
-54.07274
-48.11045
-41.72689
-35.75301
-29.69302
-23.19422
-16.4789
-10.20183
-4.358996
1.99358
7.719738
13.65128
18.97425
24.35647
29.32629
33.54829
37.45843
40.96093
44.06543
46.80673
48.63129
50.19437
51.13409
51.509
51.3979
50.84741
49.50168
47.55275
45.09406
42.17309
38.73349
34.84201
30.58044
25.46929
20.2691
14.80057
8.880434
2.481442
-4.399748
-11.20997
-18.05607
-25.3068
-32.55596
-39.49079
-46.77292
-54.61287
-61.40515
-68.47544
-74.91216
-81.16574
-87.61442
-93.11985
-98.69382
-103.2792
-107.6447
-111.9277
-115.0367
-117.5497
-119.2176
-120.6192
-121.296
-120.6964
-119.2357
-116.8469
-114.7218
-113.0051
-111.8476
-108.8675
-118.7119
-138.9881
-136.1824
-106.1236
-80.43718
-66.51823
-56.93635
-43.38447
-25.16172
-27.79139
-63.64246
-94.83638
-106.7773
-112.1781
-95.99914
-67.97053
-45.82449
-33.15536
-26.2267
-24.59163
-24.0792
-25.28002
-28.8148
-35.42259
-37.39071
-33.88594
-35.36055
-41.22706
-47.04539
-52.46813
-57.26204
-59.35422
-57.7131
-52.05861
-44.80848
1.001936
0.4797182
-32.18907
-21.4026
11.63426
-18.4325
1.461148
1.159883
11.08896
-2.560235
-0.7291554
1.438151
-1.200156
0.3386494
0.4220527
2.923168
-9.034197
-4.338106
0.4936377
0.9522271
-55.09831
-16.14093
2.235603
-2.760766
1.190453
3.103084
1.435192
-2.064069
-8.897507
0.7199315
1.585231
-16.79382
-35.0667
2.395136
-0.04299541
-6.320972
1.588961
0.123608
0.862414
-7.583429
-24.72861
1.690966
0.2867397
2.516488
33.58911
1.152431
-0.626252
1.551815
2.627313
-2.10896
-3.665028
-4.220233
-7.793599
0.2064859
0.10845
22.93774
-6.948606
-6.130328
-15.53468
-24.31424
-2.023846
0.0208252
0.7235963
1.394973
-3.379916
1.824857
-27.61554
-0.4025712
1.258336
-5.408992
-0.7998908
-0.4098289
-6.501216
-78.43419
21.68738
0.1883124
3.7198
-3.818585
-10.28139
0.2013356
-24.90127
0.1239272
3.105008
0.4939926
-13.2305
1.305131
-27.53966
0.8612682
-14.82069
1.096036
-19.63385
21.57534
-1.031473
0.4152322
1.228252
1.71608
-12.62497
5.216986
-38.51219
1.363297
1.637366
0.8876559
-0.2447377
-94.15415
-0.1619571
-14.80676
-1.294193
0.932405
-2.892294
-6.925589
1.099011
-0.1737231
-0.008785506
6.912224
-18.9704
0.02145104
0.1737145
0.3014486
19.60275
0.7204804
2.526324
0.1543093
-0.9487839
-2.598474
-2.404592
-1.488659
-0.3157205
-28.81495
1.682822
1.855919
0.1292494
-1.93204
-0.09517904
0.3915633
1.752562
-30.74959
0.05576984
7.176807
1.543896
0.1820551
-30.09124
-0.03371615
-70.79077
0.6033859
-0.141706
0.1128303
0.8170038
-47.15104
-0.06108887
-0.6600279
-41.36594
-16.25165
-55.60007
-5.092018
-13.86197
-40.86046
0.7292496
0.3562367
0.1218995
-35.76253
-1.224218
-30.41942
-26.2144
0.2501666
-1.562429
-0.6078921
-25.53041
1.510896
-28.51063
-0.8814758
1.364634
-19.89616
0.9600188
-33.59696
-8.852047
-11.59495
2.423437
1.185782
-25.67602
2.8798
15.74267
1.410655
0.7983881
0.7298805
2.67879
-51.13667
1.473483
0.2638717
-24.87679
1.256944
-0.08737497
1.231735
-11.35269
-3.41874
0.007446939
0.8668164
-17.19062
-0.2937889
-6.879341
-37.82661
0.7808828
0.2358338
0.8034221
-29.8204
1.336582
-4.689372
-9.373022
0.08071867
-11.32813
-0.1549027
1.660692
-3.158287
0.9919294
-7.47762
0.04612939
-4.98479
-14.2172
0.9586946
3.134023
0.4542145
0.7339144
0.8730154
2.837147
-2.702863
-4.609523
-0.5147202
1.335137
7.484205
0.303487
19.08679
-4.034593
-18.16096
3.726699
-0.4040598
-86.09136
0.4822448
26.85327
1.260609
2.007294
-0.5163163
0.2362777
1.298091
-0.5220251
-9.359344
0.9960249
-2.363029
1.321
-39.38008
0.2793528
-0.1874172
-37.49873
0.5398261
0.8327935
0.9821823
2.802632
-31.32782
0.6212156
0.2616177
13.51084
-6.534112
-2.723654
0.09275556
3.072945
-5.760646
-0.6135275
2.326373
0.884475
-0.1333263
-5.012383
-29.95003
0.2507291
0.01830251
12.37512
-1.486864
-3.820051
3.219064
1.713049
-22.41189
-29.96272
0.3352172
1.309611
0.4606168
-0.2064685
1.455076
0.9362635
0.1439718
35.28902
-0.2226363
1.973204
-5.208741
1.801731
-0.4522605
1.066663
1.3225
-35.04876
0.1389272
-15.80116
-0.1123196
2.467266
-0.6108679
-47.57179
0.8953316
1.322152
-11.5481
-0.9055338
-0.285807
-5.396093
1.244166
-30.19514
-9.390461
-0.8130155
0.8809011
0.3096017
1.502431
-0.7147295
-15.11319
34.42554
-59.71129
-12.91772
-64.12151
-1.335077
-0.5884749
0.7322256
-0.7227762
0.05161658
1.123024
0.7217695
-0.8024995
1.094482
0.08195693
17.67287
-0.8981551
-9.831239
-55.37685
1.416423
1.981801
1.627106
-0.3390674
-5.852191
-2.437458
-42.58839
-1.831174
0.1814399
1.062458
-16.09936
3.726356
-3.211916
-0.2847849
-13.57832
0.07762403
0.6288268
0.3695344
13.35857
0.1106308
-1.59245
-22.36018
-57.74302
-0.8238412
1.096079
-8.648708
1.485211
2.219457
2.402611
2.08493
1.028046
2.067517
1.822901
0.440066
1.372222
1.512232
-4.461052
12.66942
-42.67425
1.099085
2.021458
0.6993521
-2.934641
1.493252
2.605405
1.329275
1.829084
1.693286
-0.2388773
-10.44245
-0.07471191
1.314172
1.538419
37.26844
1.930348
-4.759629
-2.609264
0.5444891
1.765667
-48.50297
-0.2184453
-1.481412
0.3825227
-9.955035
1.274964
0.9861632
1.961348
0.9179194
-33.31337
-0.2235541
-3.674984
-12.64627
-33.52347
-55.37446
2.097914
2.579566
-0.05932077
0.254283
-1.928522
1.069198
1.921263
-1.138217
1.32383
-11.84762
0.2333521
0.808027
1.424906
0.09340986
4.153841
0.5206645
-0.3327313
-30.5533
0.2671252
1.398176
-44.21726
1.048956
-7.019264
-4.172898
-2.776278
-0.009249979
1.929915
-3.365671
-1.070907
-7.611908
0.2083733
0.9281509
-25.88468
-1.825409
-5.887872
0.796591
-6.170479
1.735957
-0.3325485
0.2810395
-6.11313
-0.5596903
1.308486
-24.32627
2.768388
-6.990518
1.433724
-1.947088
-0.1284152
4.598068
1.274779
-23.12457
0.9212611
-34.6489
0.5639365
1.794949
-5.950554
-1.407788
25.66825
0.6995204
3.753262
-2.534667
-13.21466
-2.284485
1.275491
7.583813
0.6162194
-6.118132
2.625028
-31.3379
-0.7862318
0.5327012
-50.83945
1.371329
1.388372
0.8287933
1.379564
1.585625
0.3204351
16.37215
0.05066021
1.819575
-2.815379
-27.89557
-0.5317568
-0.05973235
-22.95614
1.306335
-0.4803571
3.565219
1.437227
3.488218
2.141971
0.9057497
0.446856
-6.587585
1.861077
1.435052
1.07332
1.082951
2.80578
-0.1109535
-28.84178
4.209939
15.7812
-3.120384
-0.8181217
1.213785
-5.855104
-2.118097
-0.5822015
0.4946177
1.347234
0.581247
-8.830482
-3.130513
1.318715
-1.54659
0.3104447
1.964098
0.2807
0.4276764
-30.12076
-0.4783587
-29.95927
0.1461141
3.897995
4.059025
3.061152
0.3009452
2.478504
0.2578811
4.038972
1.804823
-0.204576
2.258381
-42.23505
2.531345
3.378665
-3.995373
-0.173224
7.312093
1.170172
4.790909
-4.887664
-5.079038
-2.261587
-1.781137
1.092451
-0.8826347
15.76237
-3.354082
0.3795945
-21.05476
-5.37457
-15.64857
0.1883818
-0.3775902
1.253019
8.588195
31.73468
-4.301522
1.4653
5.541739
4.327958
-66.87953
-0.1001199
2.699965
1.298977
2.833325
1.619709
-9.468044
-23.90276
-4.018744
5.693492
-0.1249324
0.08295118
-25.93015
2.553904
-0.2040729
-86.48604
-5.505029
-1.964071
-13.1813
-17.08754
-0.3348545
1.043438
0.2941677
1.347988
-48.84297
-6.54688
2.053351
1.600607
-1.441596
0.09820757
-0.1743113
2.003406
-14.49109
-6.763881
0.8970994
-17.65602
1.684964
4.236205
-1.137421
-10.41355
-2.644494
8.631126
-13.56057
-0.7640901
0.7864023
2.860484
4.016526
0.5958085
1.556077
1.157991
0.9670915
1.333155
17.76047
2.27431
0.226349
1.057523
-3.628465
1.640258
-2.659999
-17.33831
-4.95941
-48.02963
-10.62525
-14.79128
1.1191
-1.272516
1.444451
1.445837
0.6524799
-1.576739
2.039844
-3.22973
0.1875788
1.296807
-58.78173
1.3235
25.49875
4.138913
-27.97629
1.487865
-3.57171
6.702273
-4.129266
-15.72712
-0.5249008
1.554244
-11.00235
0.6545349
1.089056
-0.04392425
1.809901
-14.66248
0.04771064
-0.2710785
2.503663
0.4243858
-2.023275
0.02544765
-0.9364708
-92.75976
1.337498
0.108665
5.208411
-20.11988
1.173292
-0.4642097
4.910423
13.56186
8.648428
1.865033
1.984111
0.4500266
1.936272
1.282679
-4.042936
2.597144
1.053562
-18.37132
0.1961867
-73.92233
-8.418064
1.399343
1.446106
-45.48198
1.425756
1.045199
0.6172578
1.864776
-12.96188
1.506189
-2.722489
3.615394
-0.1021595
1.996228
1.268681
-17.72535
0.9657107
0.4713745
0.06308782
0.7437018
0.1818958
-1.694653
-0.09304776
1.527646
-52.09642
1.928648
-1.110948
1.57767
0.2393522
-0.06002099
1.207716
-1.276103
1.308553
0.8873309
-29.89705
1.072012
0.9132441
1.164686
1.086915
1.325841
0.9790496
2.448301
0.6101337
1.603613
4.053856
-16.44914
1.113438
-0.2452297
-1.08414
-1.53301
0.4851147
1.71366
-1.839372
-56.59222
2.587162
2.496716
9.159821
1.336144
-11.54332
-10.94263
1.678343
0.06340292
-2.466392
3.128593
-7.537106
-13.57851
-7.529359
-5.932838
0.1545042
2.094238
12.27802
0.8745315
2.158321
-35.80335
1.406647
1.311558
1.167013
-12.38179
23.04552
-8.430983
-8.241281
2.347275
1.169023
0.8808028
0.3591812
-3.528527
3.187908
-6.562624
-2.307324
-1.878349
0.8228972
3.581994
1.302992
-4.371686
-1.955225
-0.10882
-0.09157762
-1.330782
-4.77279
30.86608
-1.350208
0.3066321
0.6076596
1.051539
0.5490955
0.2867474
-67.20077
0.4731838
-92.93799
-6.022227
-0.9376852
2.174509
0.1539033
-2.822732
0.15478
-4.177462
-0.8837564
-2.073968
-4.256874
-46.95132
1.720206
-1.924533
0.5211203
0.4830041
-1.550482
2.368679
-12.81086
-4.957768
15.93145
2.095107
0.804279
-0.434755
-0.5347162
1.542097
0.4795352
-0.9579645
0.8291517
-4.34431
1.05864
8.043399
-34.70455
1.217168
-0.09706921
-10.5928
-1.189059
0.7863132
1.218646
-0.1541266
0.4969957
0.8549801
3.226487
1.965317
2.670059
3.523087
-1.076165
-3.507031
29.73475
0.7891981
-3.749621
1.764262
-56.98124
1.777179
0.9684676
0.3947005
1.43277
32.11837
-0.7363836
1.307238
1.669167
0.9453989
0.7483828
1.68006
0.4907695
0.5087279
-16.32754
-18.57096
0.01814021
-0.6327843
-14.4412
0.3472836
-0.2923387
-1.670166
-15.46485
5.037805
28.77471
0.4744202
1.235667
-1.251895
-0.4158247
-0.1589152
11.34954
-2.481207
1.143619
0.7105678
-0.890941
1.084457
0.08785362
-5.264554
-4.730833
-1.098966
-21.89894
3.061336
1.006388
0.5014363
-21.60532
-29.43216
6.093375
-5.856827
-0.7218839
0.6538092
7.992746
-26.96458
6.105823
1.276781
0.8407917
-8.514028
28.77604
0.7165304
-0.4472558
-2.087263
-42.79948
-0.633726
0.2972706
3.891642
0.1853555
-0.3176434
-19.30712
-1.794064
1.613503
0.9195251
0.5108199
0.1116941
-12.1974
-15.56603
-42.84048
2.944059
-48.68313
1.306969
-1.119823
-13.64322
0.8447927
-2.395154
-37.11917
-0.04078736
0.03463781
-23.46089
-1.643632
0.5896652
-7.348201
-67.86597
0.4134977
17.56508
0.0383076
-1.11369
-11.15195
15.33385
-15.96629
0.09925573
0.3121397
3.956109
2.049081
0.9610018
1.008977
1.568002
1.022192
0.6094363
-68.30904
-83.02333
1.336543
-14.04839
2.623438
0.4401623
1.119928
2.692616
0.2883613
0.2187017
1.445835
1.28308
0.2205038
5.622367
0.6201764
-20.36254
0.1533085
0.7296439
-43.93364
0.991843
0.7215133
-0.4347187
-34.47639
0.1250398
-4.052061
3.426198
-8.715503
-29.52752
35.41562
48.14474
1.041483
1.614446
-6.847577
6.255031
0.9901516
0.1870986
10.1097
-39.0528
1.078739
1.226301
-1.489507
2.096354
0.9770203
-1.804865
-3.186046
-17.99797
-63.72164
-30.529
1.875027
1.28496
1.59804
2.085089
-15.24882
-0.9831135
1.075428
0.8047517
0.8357164
0.7661227
1.342917
-27.64135
-16.35977
1.032107
0.8138086
-23.17395
1.105354
1.071689
1.177414
0.2091982
0.09081191
-0.08848163
-16.51056
-77.93479
-0.9105511
-1.392919
-95.02129
-79.46375
1.25398
-5.863972
0.9207049
0.5724887
0.8636678
-5.495833
0.3710606
1.031545
1.198106
-31.01622
-1.313699
-2.677319
-0.3289763
1.199543
1.014181
0.2147519
0.2021105
0.9093011
0.4524599
0.1738168
1.247047
-32.2454
1.148795
-0.08590382
3.774598
0.007269324
1.876885
1.455437
0.07748485
-5.171649
-16.36856
-16.09153
-2.060593
1.043138
0.1796988
-0.1727988
-34.4578
-14.81411
-20.88042
-37.01796
23.05629
1.508299
2.412618
2.419289
-26.28151
0.1274769
3.2328
-38.25582
-4.619685
-0.1410532
-1.431368
2.421643
6.591736
0.9878494
1.427215
-44.21874
-13.82907
-11.27378
1.725546
-0.02882522
34.37872
-15.53442
-9.462388
1.210385
2.264199
-2.70315
7.84416
0.2119724
6.977136
0.4246652
1.009996
-4.782537
0.6528698
-3.988044
0.9557495
-14.77654
1.492649
-85.43702
8.178126
2.998354
18.23941
1.422191
28.71247
-4.03546
-14.43398
-2.686425
0.7727177
13.63636
0.001393927
5.026478
1.353282
-0.3101207
0.5072004
0.6660028
3.022451
-6.658955
-12.76307
0.3361647
-24.75358
-25.4135
15.46118
-10.24825
1.405746
-15.48155
-11.53459
-1.472277
-10.61893
37.45974
-1.437723
1.327321
-44.45849
1.198857
0.6417441
0.03420048
-1.578442
-14.44596
-89.43029
0.4962639
0.07543648
-6.832059
1.832098
0.3103499
-6.632871
2.016017
9.158146
3.624845
-0.09994943
-0.8677029
-0.3845367
-1.366914
-1.762221
-5.389853
1.881488
1.378928
-38.27635
0.02963216
-0.3004438
0.1200325
-2.561666
-21.99142
1.382621
0.7348366
1.850146
-0.6024902
-6.43363
1.97653
0.5173508
1.347875
-56.39372
22.90631
-3.731604
-2.242554
3.527319
-2.535004
0.7607413
0.2241157
0.6307854
-0.3361679
-21.722
-3.622813
0.820535
-19.99181
1.967441
-2.458474
-0.5040089
1.745172
-1.741924
-0.2143989
0.8744858
-3.171049
-19.06446
-20.88173
0.3614927
-1.153721
-1.79245
0.02690208
0.1710652
-7.151366
1.774297
0.62309
-0.233508
-4.876134
0.1253858
-3.842175
2.140372
-45.89176
-0.6988879
0.6794693
1.199379
-57.7583
1.63094
-39.81518
1.313175
1.472701
-0.2388441
-0.3145102
2.891431
-37.26862
-52.57847
0.2351456
0.07357883
-1.323075
-14.06848
3.050937
2.418269
1.116495
0.8597739
-0.4422507
1.048478
-29.52683
-5.435582
-1.27572
0.04591496
1.313992
-2.011072
-0.135789
1.573947
0.7030595
-7.255845
-0.617029
-1.57311
7.131042
1.766478
-16.31926
0.8695233
-2.858481
-2.508397
-19.04752
1.136126
0.5450262
0.04610575
-22.8915
-19.30383
-22.64731
1.163933
19.96096
1.625964
-11.50708
-4.689176
1.04956
16.19504
1.400438
-26.14158
-81.11292
-1.474044
-2.702185
-3.22704
-2.201307
-2.942806
-2.33559
2.096452
1.894614
-0.7777864
-20.34035
-1.519571
1.462682
1.229414
0.2976246
-2.103658
0.6224412
0.8902443
1.3465
-0.3066415
-25.67533
0.8124984
2.701602
1.254341
-2.6603
-35.43448
-6.845381
-1.47384
-0.553539
0.3030796
1.763065
-32.63205
-1.617086
2.549821
-0.5510115
-0.4616281
12.3874
-63.00458
-12.6322
-1.212666
-1.045797
20.53749
-4.254744
0.4849993
1.342465
-0.2042335
-3.111288
-36.33247
-35.97225
-23.51813
9.210893
6.705019
-2.363828
-57.63479
-52.77295
-78.69374
2.164133
-2.724699
0.5276015
1.682249
0.2869842
-0.7959451
-0.1429241
-2.481336
1.454502
1.138093
1.619297
0.03590889
-31.70135
-0.490742
1.508481
-1.219804
-9.32448
19.60818
0.170786
4.707767
-40.96416
-8.695459
4.322043
-7.363219
-4.238781
-16.52933
-72.3089
0.2526187
-11.5017
0.5828817
-43.7097
-15.92946
0.980924
1.361432
-18.03094
-0.3962639
14.11324
0.4396007
0.5177706
2.530289
-0.08194446
-16.54249
0.07630585
0.1920186
1.114043
1.530209
-46.96168
0.2391777
0.6882998
1.931534
1.972526
2.061088
-25.71793
-0.4613203
-35.16586
0.7942206
2.005257
20.19589
-1.173391
0.4413555
-8.411028
0.3185505
-78.10305
1.895101
0.5692881
1.145103
1.001628
-10.67961
-0.157871
0.9551242
-3.740056
0.2443862
1.593629
-1.929557
24.02814
1.333913
-11.72132
1.316714
-2.392523
1.155696
-86.52869
1.343678
1.365503
3.330969
2.018254
-5.117451
-61.63148
-56.60922
-89.52228
-0.01836994
-2.303699
-65.55187
1.771558
-12.87053
-0.03038289
0.2761151
-4.473352
-41.55134
-18.91268
-53.59748
-0.457817
0.9486681
0.2035103
-4.100381
9.00992
0.05996907
0.8847908
1.359197
-14.01656
-1.57427
14.06261
0.7814311
-4.680568
0.5636611
1.650156
0.2945698
2.290067
1.121106
-1.70074
-4.572783
-12.15742
1.796822
-0.3708781
-15.12536
1.374956
-0.04363658
-8.773655
-6.334586
1.290407
1.002014
-7.133874
0.007132608
1.501136
-78.39286
26.23624
-3.705836
-0.5228558
-1.582604
-36.67299
-0.2248502
1.862781
2.320336
-9.762493
-0.9836168
0.01152068
1.971092
-26.25876
-1.663832
21.02978
36.5283
0.7844241
-13.47694
-19.88175
0.6327127
0.3245117
-0.8387338
33.79199
-57.36676
-7.440443
4.81891
3.042086
-0.2167759
1.023842
-0.8714656
4.043175
-0.4704777
-0.1698111
-19.11906
0.7533716
1.853558
1.137299
-6.746538
-16.45289
-4.304571
0.1509556
-84.98303
25.91097
7.024989
-0.5215922
-5.668362
-1.602339
0.1133079
2.515961
32.07489
-28.40445
1.042455
-1.272138
0.9422247
0.2104125
-21.7571
1.270328
-0.4093608
-0.2865106
1.103285
19.2541
-2.985931
-31.23582
1.938209
-0.5121917
-4.579423
18.78144
2.622899
4.704697
-33.05644
-12.59094
-0.3014332
0.2199591
-0.6268305
0.461617
-45.39501
2.915039
-2.710442
-1.000904
1.130503
-0.8808552
-18.56964
-1.493292
2.681868
-1.662956
0.166991
0.7489255
0.02203159
-65.75867
-22.20199
-1.759502
3.410056
0.05948368
-0.8126487
-2.107141
-8.582722
0.5994222
-1.538347
-82.332
-0.2896392
-3.736508
-3.056337
-89.95464
2.092296
2.122126
-13.50727
3.085974
4.427831
2.239507
35.37274
-3.289229
0.9036323
1.404654
1.405538
-3.011778
-18.81687
-30.71267
14.67513
0.4113837
1.666222
0.6990928
0.8354824
0.2279355
-0.1045442
-0.06884734
1.420429
-0.6148399
-0.6052635
0.4253479
1.462108
11.84726
7.382248
-4.961712
-0.7065854
-3.028493
-2.505357
1.920249
-22.12902
12.00962
-52.32785
-17.47972
1.34602
1.467323
-82.69947
43.15722
-97.28379
2.071212
0.5722261
4.397764
0.1820892
9.537855
-27.93965
0.4477171
3.890497
-0.6334852
1.93798
0.9151513
0.9145728
-1.530363
-17.39228
2.837828
-11.41413
-2.018808
1.13337
-29.79102
-7.977554
-19.21232
1.794846
15.57483
1.408133
1.775476
2.964863
-0.6490136
-82.13541
0.3730446
3.011563
33.08662
1.385585
1.109142
1.283777
28.05291
7.233436
-11.89447
2.597214
-1.462496
0.9634675
0.2498729
-64.7997
0.1397656
-72.42879
0.9443252
0.9719655
45.21285
1.260047
0.2030998
1.332123
2.291467
-3.341983
-0.5502073
-31.60376
41.4613
1.49554
-1.886968
45.91991
-7.890102
-2.158158
-0.9558512
-26.66784
1.735933
0.6989728
-6.246876
-0.7662231
-8.220467
-78.16679
1.215341
1.203345
0.4605131
1.118778
19.3212
1.66379
0.542938
1.123535
0.3092605
-0.5823711
-0.6759119
-0.5114915
-0.4494001
-0.6387377
-6.79732
-17.20364
-39.39656
-16.13546
-20.66135
-30.67618
-2.309416
4.091676
-0.5141907
0.4302087
3.591121
-30.95474
-27.73573
27.11857
-23.73022
0.430808
-3.964798
-4.380863
-11.13646
-11.92635
-18.9178
1.566145
-65.90927
1.216043
-1.230216
0.6729793
0.2832026
1.417539
0.3194259
0.3785844
0.5985724
-0.08010431
1.198691
2.502401
-8.362898
-0.4497023
0.5611747
1.079861
-35.46823
-15.38752
1.146366
-0.451041
-0.03065056
-13.18929
-25.6102
2.368993