/*--------------------------------*- C++ -*----------------------------------*\
| =========                 |                                                 |
| \\      /  F ield         | OpenFOAM: The Open Source CFD Toolbox           |
|  \\    /   O peration     | Version:  2406                                  |
|   \\  /    A nd           | Website:  www.openfoam.com                      |
|    \\/     M anipulation  |                                                 |
\*---------------------------------------------------------------------------*/
FoamFile
{
    version     2.0;
    format      ascii;
    arch        "LSB;label=32;scalar=64";
    class       volScalarField;
    location    "0.2";
    object      p;
}
// * * * * * * * * * * * * * * * * * * * * * * * * * * * * * * * * * * * * * //

dimensions      [0 2 -2 0 0 0 0];

internalField   nonuniform List<scalar> 
4529
(
-2.925056e-07
-1.182828e-07
8.682221e-08
2.286858e-08
-5.922883e-07
-1.519657e-08
-1.088157e-06
5.224254e-08
-7.210617e-07
-1.3295e-08
-3.868193e-07
-2.731596e-10
-3.800279e-09
-1.213862e-08
-1.162483e-07
-1.983082e-07
1.197727e-07
-8.624304e-07
-2.08631e-07
3.435446e-07
-6.910387e-07
-2.249154e-07
-4.131637e-07
-2.604738e-07
-5.931339e-08
1.034401e-07
3.520201e-09
-4.229708e-07
1.709948e-08
-1.125832e-07
-4.783593e-07
-2.584695e-07
-7.670643e-09
2.950133e-09
-3.2348e-07
-6.682245e-07
-1.304781e-08
-1.366179e-07
-1.834625e-08
1.35046e-08
-3.700427e-09
-5.444697e-08
-1.42257e-07
-3.090126e-07
-8.339919e-08
-6.989998e-08
-1.817693e-07
-1.954603e-07
-2.959849e-07
-7.742981e-07
-1.183301e-07
-2.565652e-08
-1.970466e-07
2.575271e-08
5.595646e-08
2.717609e-07
3.298869e-08
-3.806889e-07
-5.447677e-07
-5.165408e-07
3.570349e-08
-1.194224e-07
-9.586181e-07
-3.490148e-07
6.787614e-09
-1.323403e-07
-4.867965e-09
-7.907052e-08
-1.188983e-07
-7.624018e-07
-4.534805e-07
-1.435982e-09
-2.039311e-07
6.969937e-08
-2.292037e-07
1.739963e-09
-4.365743e-09
-1.505302e-07
-1.350145e-07
1.422746e-07
-4.432279e-07
1.766401e-08
-5.102578e-07
-2.974523e-09
-6.504347e-07
-9.528751e-07
-4.25068e-07
-3.691089e-07
2.067128e-09
3.961619e-08
-2.014281e-07
-3.777295e-07
-1.466627e-07
-3.587889e-07
-6.937472e-07
-1.244646e-06
-8.617743e-07
-5.857225e-07
-2.338946e-07
-3.893116e-07
-1.430655e-07
-9.445067e-08
-1.796577e-08
-5.280218e-07
-3.832456e-07
-1.084716e-07
-1.376685e-07
2.259874e-08
-1.271642e-07
-3.47664e-07
-4.682071e-09
-1.807326e-07
-8.839459e-07
-3.844376e-07
1.087431e-07
-3.616813e-08
-1.72853e-07
-3.263145e-07
-8.992116e-07
-9.75011e-08
-9.500173e-08
-7.984782e-09
-6.088956e-08
-1.649075e-07
3.589138e-08
-1.10357e-06
-3.217191e-09
-4.400883e-08
-3.12225e-08
-6.42079e-08
-2.19907e-08
-1.755328e-07
-1.441626e-07
-3.662535e-07
-4.790066e-07
-1.156079e-08
-3.2613e-08
-9.411447e-07
-1.044796e-07
-3.441356e-08
2.542219e-08
7.113567e-09
-4.358031e-07
-1.024034e-08
-3.919141e-08
1.830986e-07
-6.910888e-07
-9.713658e-07
-1.183557e-07
-9.270153e-07
-1.93119e-08
-7.583467e-08
2.190189e-09
-1.415563e-07
-9.787591e-07
-6.729927e-07
-2.999961e-08
-2.20605e-08
1.339827e-07
-1.917241e-09
-2.759967e-08
-9.938404e-08
-3.1971e-07
-1.736179e-07
-6.005007e-08
-3.425087e-07
-9.370006e-07
1.221876e-07
-5.008214e-07
5.509201e-08
-7.259771e-08
-4.120962e-07
-1.192039e-06
-8.138445e-08
-3.21084e-07
-5.848102e-07
2.378519e-08
-2.170235e-07
-4.430568e-08
-9.012723e-07
-5.253584e-08
-2.474023e-07
-2.012188e-07
4.518028e-08
-1.45294e-07
2.078428e-07
1.972011e-07
-1.583762e-07
-1.215887e-07
-8.042358e-07
-1.458274e-07
-1.261428e-07
2.137123e-08
-2.524349e-07
-2.295044e-07
-1.789781e-07
-4.440635e-07
2.552706e-08
-1.686076e-07
-2.218594e-07
-1.444935e-07
-1.56049e-07
-1.297547e-07
-3.038095e-07
7.159923e-08
-2.212135e-07
-1.752029e-07
-1.12048e-07
2.014163e-08
-1.046284e-06
-9.590514e-07
-5.196247e-08
-2.764154e-07
-6.460636e-07
-8.13453e-08
-8.13568e-08
-8.687089e-07
-4.161261e-07
-1.065459e-06
-6.729824e-07
3.082976e-08
-5.56794e-07
-5.81367e-08
9.091144e-08
-5.542978e-07
-4.16786e-07
-2.847862e-07
-4.052146e-07
-1.781452e-07
-1.978559e-07
-1.119787e-06
-1.258578e-07
8.429667e-09
-3.894761e-07
-1.05678e-07
-9.03211e-08
-9.721797e-09
-5.660219e-08
-3.211547e-07
-2.600636e-08
1.542438e-08
-3.70698e-07
2.940565e-08
-3.436123e-07
-3.575902e-07
-4.317364e-07
-3.215022e-07
-1.146003e-06
-7.000444e-08
-6.427858e-08
-1.922006e-07
-2.320716e-07
-8.706143e-07
-1.126062e-09
-5.125842e-07
-1.468666e-08
1.506935e-08
-9.325337e-08
-5.740642e-08
-6.009722e-07
-2.346482e-07
-1.384586e-07
-4.199568e-07
-2.808327e-08
5.222843e-09
-8.428446e-09
-3.375834e-08
-1.64429e-07
-1.331978e-07
-7.477123e-08
-4.603484e-07
-4.100805e-07
-1.100791e-07
-3.297014e-07
1.063019e-08
-6.420727e-07
-2.878443e-07
1.337236e-09
-3.177562e-07
3.135666e-08
3.248778e-08
-8.958272e-09
1.742404e-08
3.424111e-08
1.271898e-07
-6.778221e-07
1.358548e-09
-2.331213e-07
-2.736314e-07
4.792843e-07
-8.4466e-07
6.344662e-07
-2.336056e-08
2.410056e-08
-4.428615e-08
-2.993865e-07
-2.808286e-07
7.996666e-09
-9.898335e-07
-8.417839e-07
-7.80838e-08
-4.042345e-07
-4.409886e-07
-4.340509e-07
-2.735127e-07
3.453017e-07
-1.096811e-07
-1.137853e-06
-5.062579e-07
-1.048862e-07
9.514753e-08
-8.978554e-08
-7.760155e-07
-2.570619e-07
-2.464765e-07
-1.325958e-07
1.007447e-09
-4.915548e-07
-7.04218e-07
9.47302e-08
-2.006666e-08
5.068435e-08
-1.189963e-07
-1.360181e-07
-2.340754e-08
-4.707376e-08
-4.454811e-07
-1.30755e-07
-1.320333e-07
-2.042476e-07
-2.04621e-07
-6.365586e-08
-1.257955e-08
-3.215952e-07
3.207195e-08
-7.723062e-08
3.644504e-08
-1.363058e-07
-2.743634e-07
-9.497926e-09
-6.184191e-08
-1.097967e-06
-8.451216e-07
-2.102318e-07
-3.144447e-07
-1.862456e-07
-7.036087e-09
-1.223107e-08
-7.861347e-07
5.551644e-09
2.535746e-08
1.588315e-08
-1.15225e-06
-8.40102e-08
-1.756756e-08
5.711785e-07
-4.920876e-08
-1.309391e-07
-1.701918e-08
-1.215872e-07
3.78005e-08
-3.631953e-07
-2.1958e-07
-6.806163e-07
-4.593301e-07
-6.754448e-08
-1.072182e-07
-2.530111e-07
7.512651e-08
-6.876733e-07
-2.858335e-07
-7.067551e-07
-2.937523e-07
5.535524e-08
1.087154e-07
-5.239602e-07
-3.43245e-07
3.350826e-08
1.981283e-08
-1.7534e-07
-2.130731e-07
5.597997e-07
4.964258e-08
-3.758093e-08
-9.203141e-08
-6.916231e-08
-3.210735e-08
-1.823398e-07
-4.876291e-07
9.462742e-08
-6.916638e-07
-1.416745e-07
-2.045518e-07
-1.309497e-08
1.397504e-07
-8.587454e-08
2.239911e-07
-7.153067e-08
-2.80395e-08
1.162319e-08
-1.240368e-07
-2.919838e-08
-1.916272e-07
-1.115611e-07
-1.03402e-06
1.086747e-07
-8.004474e-08
-2.147733e-07
9.22556e-09
-4.57361e-07
-6.280931e-08
-3.265313e-07
-6.045697e-07
1.578454e-07
-1.957381e-07
-8.25991e-08
3.207836e-08
-8.085778e-08
6.695445e-07
-1.420853e-07
-1.024932e-07
-7.793703e-08
-4.5037e-08
-4.131405e-10
-3.966357e-08
1.31643e-07
-1.026139e-06
2.114981e-07
-8.985254e-07
-8.689157e-07
-1.429893e-07
-5.454687e-07
-6.909043e-08
-5.244839e-07
6.827865e-08
-2.873198e-08
-5.731575e-07
-1.436769e-07
-1.379603e-07
-1.684108e-09
-4.171885e-10
-2.110554e-08
-3.00835e-08
-9.631128e-08
-2.458896e-07
3.691959e-09
-7.236371e-07
-6.817489e-07
-5.639373e-08
-1.459258e-07
-1.527971e-07
-1.494681e-07
-9.780132e-08
-1.118447e-07
-7.285611e-08
-1.969523e-07
-1.765399e-07
-1.077221e-07
-9.539167e-08
-1.909457e-07
-3.023147e-08
-1.459933e-07
-1.481127e-07
-9.285313e-08
-5.365074e-07
-2.491094e-07
-8.541822e-07
3.711942e-08
1.781376e-08
1.357023e-08
-2.018046e-07
-1.667451e-08
-1.706683e-08
9.933309e-08
-2.272066e-07
-6.451885e-07
-7.545375e-07
-8.658684e-07
7.633344e-09
6.602001e-08
-2.426398e-07
-7.30134e-09
-9.757956e-11
-4.486272e-07
-1.548231e-08
-9.47589e-07
-1.971321e-07
-1.042479e-07
-1.037562e-06
-1.571474e-08
-5.852493e-08
3.921376e-08
2.796325e-08
-3.093413e-07
-4.080621e-07
-5.314527e-07
-5.755349e-07
-7.236822e-07
-1.531484e-09
-1.216237e-09
-2.018131e-07
-9.033139e-07
-5.684777e-08
-4.607695e-08
-2.937246e-09
1.68615e-08
-1.2379e-07
-1.114579e-07
5.396855e-09
-8.988011e-07
-1.972023e-07
-5.762145e-08
-1.089228e-07
-3.356767e-07
-2.696387e-07
-6.405833e-07
-1.976628e-07
-9.7239e-08
-1.812837e-07
-5.00497e-07
5.835128e-07
-5.90226e-07
-2.133312e-07
7.350651e-07
1.592857e-07
3.000609e-08
1.644975e-07
-3.211046e-07
-2.935271e-07
-2.748651e-07
-5.818694e-07
-6.544601e-07
-6.252138e-07
-1.045648e-07
-7.764603e-08
1.60585e-08
-4.974368e-08
-4.629698e-08
-6.652444e-08
-5.374659e-08
-1.857306e-08
-8.24676e-08
-2.016753e-07
-2.959681e-08
-3.903648e-09
9.822844e-08
-5.983909e-08
-1.721497e-07
-5.536491e-07
-3.248288e-07
-2.917446e-07
-3.0179e-07
-2.493677e-07
-2.447822e-07
3.620118e-08
-1.457809e-08
-3.344216e-07
-9.289764e-07
-4.569615e-07
-3.821242e-07
-4.203561e-08
-5.265141e-08
-2.078373e-07
-4.527845e-07
-2.494768e-08
-2.38629e-07
-2.134864e-07
-1.997051e-07
-1.494848e-07
6.564836e-09
-2.583803e-07
-2.067269e-07
-3.03476e-08
-6.229329e-07
9.847382e-08
-3.459112e-07
-1.031048e-07
-9.641301e-07
4.046614e-07
-2.188797e-07
-2.484149e-08
-1.622919e-08
-5.70465e-07
-1.87744e-07
-5.544785e-07
1.421589e-09
-5.083116e-09
-2.21635e-09
-8.137721e-07
-1.24482e-07
-4.338574e-08
-7.775538e-09
-4.455918e-08
-7.44304e-08
-7.609423e-08
-7.321629e-08
8.42926e-08
5.497443e-08
1.954544e-07
-7.592455e-07
-6.909876e-07
-1.857865e-08
2.048189e-07
-3.405825e-07
4.405906e-08
-2.019264e-08
-1.908168e-08
1.438037e-07
-1.304902e-07
7.422254e-08
-1.4033e-07
1.742619e-07
-1.049698e-06
-3.896615e-07
-7.54316e-09
-5.267578e-07
-2.450854e-08
-7.68942e-09
-1.289408e-07
4.478477e-07
-1.102603e-07
-7.149506e-07
-4.481162e-07
-3.011683e-07
-4.017559e-07
-2.939144e-07
-2.422375e-07
2.569389e-07
1.485319e-08
-1.917585e-07
3.161908e-07
-4.305908e-08
-2.938585e-07
-1.67258e-07
2.121546e-08
-1.029397e-07
-3.945608e-08
-1.653068e-07
-2.380041e-07
-1.222031e-07
-2.095333e-07
-3.390509e-09
6.909425e-08
5.235212e-07
-5.231339e-07
3.496102e-08
-9.768935e-08
-6.421621e-07
2.639032e-08
1.489722e-08
7.187892e-08
-6.10399e-07
-2.972425e-07
-2.739612e-07
-2.890226e-07
-6.336134e-07
-4.121795e-08
-2.101109e-08
-1.07429e-08
-5.24038e-07
-5.626595e-07
-2.05165e-07
-5.90795e-07
-5.803628e-07
-5.693897e-07
-1.455766e-09
-1.070904e-06
6.79499e-08
-7.809936e-08
-2.786289e-08
-9.636248e-08
-7.066795e-07
-2.978931e-07
7.100958e-09
-4.981116e-08
-3.689199e-08
-5.243362e-08
9.609924e-09
-8.938373e-09
-1.256941e-09
-5.979141e-07
-1.243231e-07
-3.031476e-07
-1.107469e-07
-1.06794e-07
-8.632545e-08
-3.261473e-07
3.096685e-08
1.426955e-08
-8.316818e-07
3.791374e-08
8.825804e-08
4.242058e-08
-4.138145e-09
-2.12326e-08
-1.721078e-07
2.165723e-08
-1.681904e-07
-2.635111e-07
-1.269659e-07
-2.436088e-07
-1.361159e-07
-3.705071e-07
-5.505751e-08
-3.618238e-07
1.617366e-07
-1.702958e-07
-2.911333e-07
-1.107353e-08
-5.33773e-07
-3.7109e-07
-3.384749e-07
-1.809259e-07
-1.858725e-07
-4.135573e-07
-4.109513e-07
-2.136044e-07
-9.697291e-08
-1.904356e-08
-3.435456e-07
-2.482192e-07
-4.290724e-08
-2.573855e-07
-8.142466e-07
-2.553269e-07
-1.055127e-06
-1.766947e-07
5.49332e-09
-2.114092e-08
-7.212814e-08
-1.090989e-07
-8.454786e-08
-9.342295e-08
-1.105165e-07
3.494127e-07
-5.091179e-07
-2.068773e-07
-6.897377e-07
4.079552e-08
1.286974e-09
1.866325e-08
2.633479e-08
-7.738699e-08
-1.159535e-07
1.149241e-07
7.305414e-08
-7.134817e-08
-3.138176e-08
-4.424075e-07
-5.195361e-07
-4.682688e-07
-7.00746e-09
6.494337e-08
-3.782151e-08
-3.123939e-08
-3.901602e-08
-4.710089e-08
-7.576598e-08
-4.251646e-08
-5.546713e-08
-9.837581e-08
2.992535e-08
-3.303516e-07
-4.477571e-08
7.470601e-09
-6.217896e-07
-3.384131e-07
-2.87874e-07
-1.788696e-08
-4.889925e-09
-2.704164e-09
3.214551e-08
-2.516176e-08
-1.24309e-08
-3.330064e-08
-8.13407e-08
1.381946e-07
-4.430465e-07
-5.412383e-07
-1.044309e-06
-8.472118e-07
-1.038626e-07
-3.918048e-07
-4.48831e-07
-3.791502e-07
-2.740985e-07
-8.797557e-07
-6.852746e-07
-9.273293e-07
-8.260283e-07
-9.844792e-07
-1.131134e-06
-4.914768e-07
-5.011054e-07
-5.385357e-07
-4.682563e-07
-4.615167e-08
-6.166409e-08
-8.031756e-09
-7.378601e-08
9.164033e-09
-7.334224e-07
-6.878412e-07
-1.921928e-08
-6.779131e-08
-4.314298e-08
-7.292154e-08
-4.578477e-07
-2.043485e-08
-5.205439e-08
-1.175086e-08
-1.327916e-07
-1.392822e-08
-5.205722e-07
-3.705342e-07
-5.380515e-08
-9.633829e-08
-4.525662e-07
-5.116414e-07
-3.565232e-07
-4.271141e-07
-3.15221e-07
5.912388e-08
-3.798325e-09
-3.698639e-07
-2.572318e-07
1.69218e-07
-2.926307e-07
-2.864452e-08
3.42153e-08
-2.84885e-07
2.860841e-07
1.589932e-09
-1.150639e-08
-1.048818e-06
-2.019594e-08
3.121271e-08
-1.094121e-08
2.143688e-07
-3.81397e-09
-4.04069e-07
1.542991e-08
-1.023911e-06
-9.49406e-08
-3.037293e-08
3.874545e-07
-9.798417e-08
-1.347641e-07
-2.391992e-07
-2.946234e-07
-4.528335e-07
-4.23154e-07
3.882858e-09
-4.522778e-07
-2.394936e-07
-9.754146e-07
1.465369e-08
-6.86975e-08
-1.828959e-07
-6.519812e-07
-4.713396e-07
-4.700904e-07
-5.70539e-07
-3.360472e-08
-2.203821e-08
-1.243462e-08
-6.796752e-07
1.714109e-07
3.490083e-09
5.660993e-08
-2.576267e-07
-3.098611e-07
-5.519092e-07
-7.019764e-08
-8.136488e-07
-6.809798e-07
-1.586778e-07
-1.187494e-06
-4.374731e-07
-4.922147e-07
-4.113526e-10
-5.516964e-07
-9.250115e-07
-3.790111e-07
-1.578006e-08
-1.80204e-07
8.405768e-10
-1.942315e-07
-4.559969e-07
-3.841662e-07
-4.236503e-07
-4.119599e-07
-2.219716e-08
-4.778232e-07
-3.305686e-07
-1.115169e-07
-3.954755e-07
-8.16909e-08
-3.673076e-07
-6.153523e-08
-2.275182e-07
-4.631591e-08
-9.804852e-08
-1.123917e-07
-1.334474e-07
2.655163e-08
-2.459653e-08
-1.657582e-07
-7.188055e-07
4.146424e-08
-2.503175e-07
-3.255319e-08
-2.976914e-07
-3.183727e-07
-5.797894e-07
1.681277e-07
-8.430599e-08
-6.998537e-08
-1.063116e-07
-8.183409e-08
-8.084904e-07
-5.317468e-08
1.112149e-08
-2.056228e-08
2.695047e-08
-3.225415e-07
-2.328392e-07
-1.867573e-07
-4.22088e-07
-1.120901e-08
5.932142e-08
-5.340522e-07
-5.960093e-07
-1.245444e-07
-7.973559e-08
-8.772735e-08
-6.723395e-08
-1.021018e-07
-5.034554e-07
-9.814572e-07
-1.658473e-07
-4.829374e-08
-4.389054e-08
-1.103616e-08
-5.929931e-07
-6.878106e-07
-5.791962e-07
-6.402389e-07
-7.518725e-07
-7.463604e-07
-4.338945e-07
-7.238037e-07
-6.383112e-07
-8.142059e-07
-5.479672e-07
-1.651768e-07
-1.02454e-07
-1.582098e-07
2.948318e-07
1.566221e-07
-4.262017e-07
-3.906468e-07
-2.600525e-07
-7.403634e-07
5.590464e-08
-3.627979e-07
-3.379232e-07
-3.094265e-07
-8.977342e-07
-4.811262e-07
-3.200324e-09
5.470782e-09
-2.397589e-08
-4.824652e-08
1.305565e-08
-4.628939e-08
3.476914e-08
-3.873691e-07
-5.933106e-08
-6.06768e-08
-5.111246e-08
-4.745724e-08
-6.339908e-08
-1.503177e-07
-1.98225e-07
-1.142183e-07
-1.208606e-07
-8.547007e-08
-6.397262e-08
-9.244627e-08
-6.03881e-07
-5.254707e-07
-3.149751e-07
-3.839838e-07
-1.480641e-07
1.735184e-07
1.508562e-07
-1.067573e-06
1.461002e-08
-1.673091e-07
-4.132717e-07
-3.906383e-07
-2.473162e-07
-3.092554e-07
-2.337527e-07
2.885255e-10
-6.872222e-08
-5.509102e-07
-1.874639e-07
-1.942701e-07
-2.18312e-07
4.038728e-07
5.67244e-10
-9.205911e-08
-1.132405e-07
3.060793e-08
-4.635077e-08
-2.398442e-07
-2.310302e-07
1.676523e-07
-1.208346e-06
5.853329e-09
-1.740297e-07
-1.74394e-07
-4.433705e-08
-7.272549e-07
1.548053e-07
-5.287912e-07
-1.084771e-07
-6.460042e-07
-3.985309e-07
-2.735832e-07
-5.023214e-08
-1.123628e-07
-2.924314e-08
-3.462586e-07
-2.837636e-07
-3.205287e-07
-3.910069e-07
-2.500389e-08
-7.212579e-07
-5.389963e-07
-6.333664e-07
-5.767472e-08
-9.378496e-08
-2.670915e-07
-2.184301e-07
-3.672545e-07
-2.576075e-08
-5.532805e-08
-2.357888e-07
3.495141e-07
-3.146922e-07
1.26236e-07
-1.164644e-08
5.727613e-09
-4.194108e-08
-5.272054e-08
-2.637607e-07
-2.07396e-07
7.039202e-08
-1.885549e-07
-1.879216e-07
-1.355681e-07
-3.95402e-08
2.102423e-09
-6.190945e-11
2.449528e-07
-9.459837e-07
-1.51085e-09
8.021696e-09
-2.690058e-08
-2.722751e-08
-6.301647e-07
-3.528574e-07
-2.194109e-07
1.30032e-07
-1.04433e-07
-9.718105e-08
-7.549492e-08
-1.99457e-08
-3.362811e-08
-2.093882e-08
-1.090417e-06
-1.039694e-06
-8.915942e-07
-9.151665e-07
-8.23769e-07
-8.54022e-07
-1.037382e-06
9.722356e-08
1.281431e-08
-4.743519e-07
2.635707e-07
2.05479e-07
-3.529429e-07
-5.242378e-07
-6.360211e-09
-2.930575e-07
-2.353222e-07
-2.975162e-07
-3.171136e-07
-3.318252e-07
-3.177381e-07
1.260255e-07
4.812404e-08
1.255311e-07
-8.37496e-07
-2.421774e-07
-3.288215e-07
-2.655389e-07
-2.195413e-07
-3.137044e-07
-6.266388e-07
-6.742808e-07
6.705721e-09
3.268038e-08
1.731681e-08
-2.557206e-07
-2.538316e-07
-2.737104e-07
-2.716439e-07
-1.707832e-07
-1.141858e-07
-1.119686e-06
-1.518537e-07
-1.891149e-07
1.722606e-08
-4.087115e-07
-4.104274e-07
-3.844559e-07
-1.416608e-08
-9.271878e-08
-2.47931e-08
-1.204586e-07
2.625193e-07
-1.498986e-09
7.790172e-08
7.54257e-08
-1.451282e-07
-5.557183e-07
-5.825721e-07
-4.383652e-07
-4.841956e-07
-5.595627e-07
-2.323134e-07
-1.72908e-07
-3.958414e-08
5.272184e-09
-1.818916e-07
-1.547327e-07
-5.68156e-07
-7.359635e-07
-4.076173e-07
-1.889436e-08
-2.693423e-08
-1.113061e-06
-1.617419e-09
2.682175e-08
2.064219e-08
2.82288e-08
-4.1107e-07
-2.408068e-07
-6.940712e-08
-3.005291e-07
-1.184718e-07
-2.056054e-07
-3.510833e-07
-1.848838e-07
-1.493436e-07
-7.791947e-08
-7.802227e-08
2.122869e-07
-8.025012e-07
-7.682027e-07
-4.332138e-08
2.110256e-07
-8.395358e-07
-5.27918e-09
-2.346429e-08
5.192255e-09
-1.164696e-07
-2.328466e-07
-3.21773e-07
1.3075e-07
-1.930069e-07
-1.600672e-07
-6.527923e-08
-1.30827e-07
-1.207037e-06
-1.253688e-06
-3.12078e-07
-2.368487e-07
-1.817072e-08
1.215562e-07
1.196586e-07
5.885713e-07
-7.936951e-07
-3.646245e-07
-1.756096e-08
-3.803766e-07
-1.93797e-08
-5.490845e-07
1.777946e-08
-8.35016e-08
-8.467033e-08
-3.176772e-08
-1.117903e-06
3.871879e-08
-9.242216e-07
-1.38636e-11
-3.394469e-08
-2.989563e-08
-1.884108e-07
1.77402e-07
-8.398889e-07
-8.826457e-07
-6.529093e-07
-2.74845e-07
-2.803463e-07
-5.476447e-08
-7.058301e-08
-8.596212e-09
-1.580342e-07
-1.192239e-07
-1.864487e-08
7.279375e-08
1.133382e-07
-2.41964e-07
-1.611126e-07
3.382444e-08
-2.808323e-07
-1.168778e-08
2.031314e-07
-1.301199e-07
-1.928062e-07
-1.453645e-07
-3.599726e-08
-4.228744e-08
-2.297876e-07
-1.929193e-07
-7.323514e-07
2.923944e-07
3.277029e-07
-6.994581e-07
-1.01659e-06
1.692319e-07
-4.2695e-07
-1.532207e-07
-5.33936e-08
-7.943595e-09
-3.606076e-07
-3.27297e-07
-1.720426e-07
-1.390833e-07
1.376655e-07
-1.363647e-08
-7.614547e-07
-3.622757e-08
-7.62425e-08
-7.105734e-07
2.038786e-07
-1.559041e-07
-5.124907e-08
1.932608e-07
-8.856508e-07
-8.680085e-07
-9.215184e-07
-2.19446e-07
-6.285334e-08
-7.631729e-08
-1.720983e-07
-1.68804e-07
1.201278e-07
-1.062552e-07
-7.785273e-07
-3.739716e-07
-1.153553e-06
-2.078662e-07
2.206649e-07
-5.817591e-07
9.647983e-08
-3.275092e-07
-3.109528e-07
4.777801e-08
3.318986e-08
-2.519354e-08
-2.046474e-08
-1.233406e-06
4.505971e-07
-6.913995e-07
-1.216017e-06
-9.991991e-08
-4.651498e-08
-2.865499e-07
1.398864e-08
-6.626425e-07
-2.909477e-09
-2.663655e-09
-2.149132e-07
-4.772796e-07
1.949457e-08
-1.256049e-07
-4.891868e-08
-1.510393e-07
-1.196567e-07
-2.130509e-07
-5.306188e-07
-4.330632e-07
-6.534154e-08
-7.20106e-08
-5.139452e-08
1.468488e-08
-5.363595e-08
-5.311138e-07
-5.670112e-07
-3.503438e-07
-3.677422e-07
-3.832867e-07
-5.722633e-07
-9.250998e-08
-8.153478e-08
-1.252623e-06
-7.283498e-08
6.293238e-09
-6.049323e-07
-4.144168e-08
-3.137562e-07
-2.456277e-07
-2.578293e-07
-2.450797e-07
-1.629403e-07
-4.045939e-07
-9.146646e-09
-5.901353e-07
-1.133099e-06
8.612835e-09
-4.234205e-07
-4.462779e-07
-2.247761e-08
-9.985262e-07
5.892819e-08
2.28886e-07
-2.643348e-08
-1.726371e-07
9.92664e-09
-2.655429e-07
-1.581094e-07
1.573898e-08
-5.481373e-08
-1.166113e-08
-4.60707e-08
-1.311485e-06
-5.650303e-07
-2.043117e-07
-9.013795e-09
-1.089975e-07
-1.747081e-07
-3.462699e-08
-4.84898e-08
-4.525839e-07
-2.414563e-07
1.200004e-07
-1.081426e-07
-2.492465e-08
-9.128782e-08
-6.841508e-11
-3.483958e-08
1.348755e-08
-3.49799e-07
-7.913311e-07
1.372285e-08
-1.907873e-07
-4.030451e-07
-1.655345e-07
4.846575e-09
-3.973769e-07
-3.473719e-07
-3.08868e-07
-3.000396e-07
-1.542924e-07
-9.020099e-08
-6.896316e-08
-2.588141e-08
4.610731e-07
-2.473146e-08
3.629621e-07
4.109542e-07
-3.145808e-08
-1.403581e-07
-8.782288e-08
-6.202984e-08
-2.672484e-08
-2.64365e-08
-2.14927e-07
-2.441164e-07
-1.197242e-07
-3.692024e-09
-3.849232e-07
-3.272962e-09
-1.018105e-07
-6.391946e-08
-4.155733e-07
-1.384046e-07
9.214032e-08
-8.721017e-07
-7.136726e-07
-2.063247e-08
1.075232e-08
-4.814317e-07
-5.60806e-07
-6.701339e-07
-1.073526e-06
-1.597461e-07
-6.018378e-09
-3.047398e-08
-4.699321e-08
-1.046089e-07
1.269965e-08
4.221989e-08
2.831679e-08
1.335484e-08
-1.501176e-09
-7.26499e-08
-7.362253e-08
-1.0123e-08
7.802445e-08
-5.888864e-08
-1.326315e-07
-2.720928e-07
-1.269038e-07
-1.064774e-07
-9.567347e-08
-5.645004e-08
-2.264624e-07
-9.678884e-07
-2.411645e-08
-1.941564e-08
-2.368927e-08
-2.06769e-07
2.84778e-07
-6.603003e-07
-6.43197e-07
-1.884208e-08
-6.81718e-10
-1.072731e-08
-2.814756e-08
-3.184255e-08
-4.669118e-08
-5.595469e-07
1.488411e-08
-5.769156e-08
-9.170902e-08
-1.748752e-07
-1.702104e-07
-1.377933e-07
-1.471631e-07
-1.297827e-07
-1.199145e-07
-4.83138e-08
-4.262757e-08
-3.181455e-08
3.028677e-08
3.716266e-08
1.317997e-07
-3.45097e-08
-5.524746e-08
-6.100064e-08
-8.044125e-08
-1.87508e-08
-1.107134e-07
-2.282098e-07
-1.169782e-07
-8.693017e-07
-6.189453e-08
1.159277e-08
-6.254752e-07
-2.906691e-07
-2.289132e-07
1.232193e-08
9.210452e-09
-3.853883e-07
-4.105957e-07
7.824522e-07
-1.872249e-07
4.265261e-08
7.385705e-09
-2.832084e-07
-1.523112e-08
-9.021266e-09
-2.303495e-08
-6.419018e-08
-5.130962e-07
-4.892284e-07
-2.050631e-07
-7.327544e-07
-3.146792e-07
-5.518902e-07
4.123153e-07
5.144299e-07
-1.577405e-07
-1.111935e-07
-1.189188e-06
1.280373e-08
-1.221235e-09
-2.468057e-07
-2.062836e-07
7.233634e-09
1.895317e-08
-4.504738e-10
2.188518e-08
2.274431e-08
-3.259241e-08
-3.227842e-07
-4.537638e-07
-7.067062e-07
9.936488e-08
1.001301e-07
1.125462e-07
7.080812e-08
2.907974e-08
4.771531e-08
-3.278135e-07
-4.13464e-07
-4.6274e-07
-5.366832e-07
2.716292e-08
3.029191e-07
-2.194966e-07
-1.785939e-07
9.906089e-09
-6.63573e-08
-2.015222e-08
-9.708566e-08
-9.303109e-08
-3.788949e-08
-6.160949e-08
-1.474514e-07
-1.053868e-07
-1.148951e-07
-1.281141e-07
3.196211e-08
1.200806e-07
-2.731261e-07
9.201153e-08
-1.917489e-09
-3.028709e-09
-3.648308e-09
7.955499e-09
-1.249183e-06
-1.127062e-06
1.710267e-08
-3.147038e-07
-2.967658e-07
1.103889e-07
8.22624e-08
-1.469843e-07
-2.533653e-07
-1.579475e-08
-2.846507e-07
-1.13554e-08
-2.1073e-07
-4.06712e-07
-4.284397e-07
-4.448907e-07
2.392804e-07
6.521078e-08
-2.103203e-07
-1.69459e-07
-8.321866e-09
7.522425e-08
-3.349318e-07
-2.84221e-08
-2.352002e-08
-1.256684e-07
4.178647e-08
-1.18329e-07
-8.771578e-07
-1.509247e-08
-6.464183e-09
-1.631997e-08
-1.312816e-08
-2.900635e-07
-3.281646e-07
-3.037863e-07
-2.151406e-07
-2.306185e-07
-6.682868e-07
6.243167e-08
-5.851605e-08
-1.689667e-08
-8.224115e-08
-7.288665e-08
-6.600893e-08
-8.438701e-08
-1.302949e-07
-1.546326e-07
-1.512285e-07
-1.334519e-07
-1.0504e-07
-1.297892e-07
-1.334567e-07
-1.12228e-07
-1.271902e-07
-1.058903e-07
-1.4544e-07
-7.251768e-08
-1.20436e-07
-5.596159e-08
-1.193159e-07
-1.053189e-07
-5.81649e-08
-9.039475e-08
-1.166844e-07
-1.402567e-07
-1.235122e-07
-1.622856e-07
-1.095998e-06
-6.317825e-07
-1.064317e-06
-6.97914e-10
-4.094599e-07
3.756013e-08
-1.996006e-07
6.224859e-09
1.944775e-07
3.227983e-07
3.727646e-07
-2.338017e-07
3.945232e-07
1.742979e-07
4.568238e-08
-3.513039e-08
-9.053627e-08
-9.62319e-08
-1.2371e-07
-6.887429e-08
-7.21128e-08
-1.07027e-07
-1.393275e-07
-1.077611e-07
1.249925e-07
8.079648e-08
1.211611e-07
6.322843e-08
1.754797e-07
1.785983e-07
-4.697034e-07
-4.514366e-07
-1.011607e-06
-9.825965e-07
-8.750017e-07
-2.719716e-08
-7.769236e-07
2.582613e-09
-7.982443e-07
-4.815356e-07
-6.067778e-07
-5.022344e-07
-5.4723e-07
-4.822025e-07
2.135917e-08
-7.002582e-09
-5.001703e-07
-9.243495e-07
-8.464675e-07
-4.728829e-07
-8.968121e-07
-8.855278e-07
-1.027439e-06
-1.002802e-06
-7.874089e-07
1.520349e-08
-1.652749e-07
-9.550721e-07
-3.934317e-07
-1.494106e-07
-8.509505e-07
-4.412103e-07
-1.043926e-06
-1.157389e-06
3.303968e-07
4.26087e-08
-2.471789e-07
-2.223318e-07
-2.27854e-07
-2.662791e-07
-3.897308e-08
-9.056364e-07
-7.358335e-07
-7.373612e-07
-9.126957e-08
-7.343517e-08
-8.81413e-08
-1.583475e-08
9.936467e-08
-5.087563e-08
-5.644205e-07
-5.269353e-07
-7.271293e-07
-1.902737e-07
-1.467668e-07
-1.643541e-08
2.709043e-08
2.069787e-08
-2.558218e-08
-4.722509e-08
-1.820596e-07
-2.495266e-07
-2.738136e-07
-2.353572e-07
2.253035e-07
-8.139488e-09
-5.721696e-09
-2.509604e-08
-1.306848e-07
-1.217183e-07
4.606957e-08
-1.056812e-08
-4.75191e-08
-1.944357e-08
-1.971803e-07
-7.993663e-08
1.126716e-08
-8.661057e-08
-1.869607e-08
9.902799e-08
-3.617702e-07
1.648278e-07
-2.637469e-07
3.57559e-08
9.361171e-08
-7.726114e-07
5.245358e-07
-3.428277e-08
1.723545e-09
-2.588527e-08
1.295825e-07
-1.509368e-07
-6.811314e-08
-4.531366e-08
-3.450941e-08
-2.903042e-08
1.570913e-08
5.480621e-08
8.144645e-09
-2.8343e-07
-9.871299e-08
-1.066155e-07
-7.868657e-08
5.185468e-07
-7.908637e-07
5.926577e-09
9.51038e-10
-2.377661e-08
-2.191804e-08
-1.899268e-08
-2.592515e-08
-1.321049e-08
-7.850996e-07
-7.924739e-07
-7.786278e-09
-9.44288e-09
-1.68933e-07
-1.656728e-07
-7.958898e-08
-2.503583e-08
-3.544959e-09
-9.347804e-07
-9.208491e-07
-8.323176e-07
-1.350709e-07
-7.060645e-07
-2.416781e-07
-1.426638e-07
-1.782451e-07
-1.328863e-07
-9.955181e-08
-8.587782e-08
-1.235204e-07
-1.075115e-07
-1.154858e-07
-1.320502e-07
-7.534408e-08
-9.263774e-08
-9.410402e-08
-1.127777e-07
-5.356627e-08
-7.115036e-08
-1.619178e-07
-1.065768e-07
-1.444633e-07
-1.873174e-07
-2.094214e-07
-7.753274e-08
-8.546152e-08
-8.24902e-08
-6.404584e-08
-1.425425e-07
-1.297084e-07
-1.398417e-07
-1.484505e-07
-1.125993e-07
-1.009069e-07
-1.190504e-07
-1.333191e-07
-3.29517e-07
-2.172305e-07
-9.635862e-08
-1.111347e-07
-1.024991e-07
-8.574049e-08
-5.41772e-08
-4.039285e-08
-1.194131e-07
-9.827523e-08
8.518388e-09
-1.340227e-08
2.762471e-09
-1.532172e-07
-1.511074e-07
1.788492e-08
-5.622415e-07
-5.668294e-07
-9.59304e-07
-3.222183e-07
-4.440586e-07
-1.64157e-07
-1.10852e-07
-5.686106e-07
-3.08631e-07
-3.00833e-07
-4.979102e-08
-2.682244e-08
-2.995592e-08
-1.978179e-08
-9.462117e-08
-1.118744e-07
-9.732531e-08
-1.305085e-07
-1.204991e-07
-4.37207e-08
-1.715287e-07
-1.402852e-07
-4.942168e-07
-8.190938e-08
-1.613721e-08
-8.58092e-09
-1.707997e-07
-1.831365e-07
-7.375829e-09
-3.684828e-07
-4.484735e-07
-3.071944e-07
-6.842237e-08
3.434029e-08
9.323264e-09
-7.672883e-07
-7.861376e-07
5.532981e-08
3.050997e-08
-2.675631e-08
-2.088195e-08
-1.259198e-06
-2.529605e-07
-2.783937e-07
-4.750652e-07
-8.339975e-10
-2.277366e-07
-4.989135e-07
-3.559307e-07
-7.008301e-08
-2.31645e-07
-5.96066e-07
-1.510338e-07
7.683735e-09
-3.982459e-07
-2.594155e-07
8.571892e-08
-3.108608e-07
-3.406626e-07
3.492362e-09
-4.322115e-07
-7.413126e-07
-7.632255e-07
-7.474924e-07
-5.964683e-08
-1.416597e-07
-1.635909e-07
-1.99971e-07
-1.588155e-07
-5.33155e-08
-9.222216e-07
-2.237291e-07
-3.162884e-07
-5.355099e-09
3.680548e-07
-1.529337e-07
-3.978646e-07
-5.044107e-07
-5.288608e-08
-1.585312e-07
-5.264908e-07
-9.778296e-08
-5.431321e-08
-4.516808e-08
-5.316511e-08
-4.351949e-08
-2.573242e-08
-4.741282e-08
3.955649e-07
-2.594294e-08
-3.884785e-08
-1.853019e-08
-2.838348e-07
-2.435284e-07
-4.28547e-07
-1.352974e-07
-8.233351e-08
-5.24863e-08
1.668709e-07
-7.717181e-08
-7.115888e-08
-9.676419e-08
-1.053642e-07
-9.139642e-08
-1.204044e-07
-8.740974e-08
-8.184647e-08
-6.574714e-08
8.649142e-09
-1.451464e-08
-2.217345e-08
-9.827996e-09
-2.068564e-07
-3.06697e-07
-1.841085e-07
-2.517845e-09
4.045704e-07
2.205433e-08
-4.080007e-08
-9.329623e-08
-6.281031e-08
-6.261243e-08
2.002717e-08
-1.015364e-06
6.685453e-09
1.011818e-07
-4.152845e-07
-6.187082e-08
-9.234265e-08
-1.199608e-08
-6.770188e-07
-2.55592e-07
-1.101116e-06
-1.061574e-06
-9.581865e-07
-9.304078e-07
-1.895518e-08
-6.026986e-09
-1.760395e-07
-9.638657e-10
-5.073929e-07
-4.773276e-07
-5.429627e-07
-5.798901e-07
-2.811494e-09
-6.922204e-09
-5.315315e-09
-8.029119e-09
6.271356e-09
8.94847e-08
4.456227e-08
4.863553e-08
-1.728582e-07
-7.789216e-08
-2.879015e-07
-3.359973e-07
-2.838355e-08
-7.769322e-08
-1.176278e-07
-2.048513e-08
-3.013992e-08
-3.879411e-08
1.680003e-08
1.285415e-07
-3.637827e-07
-3.40353e-07
-3.779032e-07
-1.196032e-07
-1.103405e-07
-4.5089e-08
1.000661e-08
-5.677832e-07
-3.503492e-07
-2.837577e-07
-2.167451e-07
-3.631562e-09
-4.840676e-09
-4.014274e-10
-2.258614e-09
-2.177024e-07
-3.596542e-07
-5.453468e-08
-4.812853e-08
-2.0221e-07
-6.376328e-07
-1.913732e-07
-1.485669e-07
-7.569618e-07
6.049441e-08
-5.744057e-08
-5.240929e-08
-1.059929e-07
-1.326196e-07
-4.465138e-08
-1.048036e-07
-8.426479e-08
-6.345021e-08
-5.545538e-08
-2.920845e-07
1.964678e-08
3.035651e-08
-4.438538e-07
-4.523229e-07
-5.71857e-08
-5.893303e-08
-8.828139e-07
-2.03769e-07
-1.813528e-07
-1.13125e-06
-1.01715e-06
-8.87545e-07
-8.312788e-07
-5.475545e-07
-5.185725e-07
-4.878884e-07
-4.521331e-07
-3.735692e-07
-3.903326e-07
-5.000872e-07
-5.312778e-07
-1.078947e-06
-1.095683e-06
-8.273415e-07
-8.4698e-07
-8.753265e-07
-9.099138e-07
-8.863691e-07
-8.743813e-07
-2.359822e-07
-3.964076e-07
-4.217328e-07
-4.029664e-07
-2.728726e-07
-8.711547e-07
-9.195132e-07
-4.678641e-07
-4.257593e-07
-4.637931e-07
-2.113446e-07
-4.081695e-07
-2.146481e-07
-1.923653e-07
-2.268032e-07
1.52456e-08
-5.412752e-08
-4.797662e-08
2.876357e-07
-5.170287e-07
-5.216088e-07
-6.262766e-08
-2.643985e-08
-3.389502e-08
-8.986441e-08
-7.936424e-08
-2.793754e-07
-1.543863e-07
-7.619667e-07
-7.219371e-07
-2.445667e-08
1.901157e-09
-4.205696e-08
-3.664331e-08
-3.830201e-08
-8.370805e-07
-2.944901e-07
-2.386242e-07
-3.694282e-07
-2.879339e-07
-4.51592e-08
-4.016012e-09
3.94901e-10
-3.930494e-08
-3.642897e-08
-1.961684e-07
-3.32253e-08
-3.518836e-08
7.162061e-09
1.029917e-08
-7.214089e-08
-5.712033e-08
-2.717407e-08
-3.300016e-08
-1.066361e-07
1.03003e-08
-8.156229e-08
-8.445023e-08
6.51341e-08
-9.393357e-08
-1.035551e-07
-2.082805e-08
-1.673691e-08
-5.343095e-07
-9.405559e-08
2.11532e-07
-1.443306e-07
4.783283e-08
8.885401e-08
-2.13665e-07
-2.806066e-07
-1.639266e-07
1.861292e-08
-4.556146e-07