/*--------------------------------*- C++ -*----------------------------------*\
| =========                 |                                                 |
| \\      /  F ield         | OpenFOAM: The Open Source CFD Toolbox           |
|  \\    /   O peration     | Version:  2406                                  |
|   \\  /    A nd           | Website:  www.openfoam.com                      |
|    \\/     M anipulation  |                                                 |
\*---------------------------------------------------------------------------*/
FoamFile
{
    version     2.0;
    format      ascii;
    arch        "LSB;label=32;scalar=64";
    class       volScalarField;
    location    "2.36";
    object      p;
}
// * * * * * * * * * * * * * * * * * * * * * * * * * * * * * * * * * * * * * //

dimensions      [0 2 -2 0 0 0 0];

internalField   nonuniform List<scalar> 
217010
(
-221.6479
-144.1801
-148.3743
-150.283
-152.0536
-148.5687
-145.4281
-140.1989
-140.4687
-142.8107
-144.3724
-144.3676
-145.2126
-146.323
-145.9907
-145.1611
-144.8279
-145.1832
-146.012
-147.9875
-152.55
-159.8474
-165.2175
-167.0759
-162.7313
-162.1386
-166.5549
-172.4323
-173.5304
-167.861
-157.3584
-145.2821
-134.0135
-127.5925
-128.8181
-129.0285
-124.7951
-119.321
-117.9072
-122.2439
-128.8253
-133.3302
-133.8908
-131.6386
-126.3667
-117.7794
-114.5821
-114.4415
-113.2395
-105.9876
-111.1705
-112.1592
-112.8274
-104.9488
-94.18417
-87.86582
-100.4093
-114.7573
-122.8948
-123.1346
-120.1194
-121.1846
-120.3275
-112.0496
-104.1826
-99.67513
-96.20866
-97.84048
-107.8977
-110.5848
-103.0016
-99.70773
-102.5662
-107.0545
-111.9415
-116.5733
-120.6111
-123.9752
-126.7489
-129.0145
-130.775
-132.1119
-133.0706
-133.5454
-133.6088
-133.2472
-132.7288
-132.0273
-130.9834
-129.6683
-127.6827
-125.3345
-122.7394
-119.8506
-116.7621
-113.4676
-110.1632
-106.8455
-103.3512
-99.7368
-96.07087
-92.43559
-88.86595
-85.36724
-81.84364
-78.3619
-74.99339
-71.73588
-68.49905
-65.32005
-62.30859
-59.4573
-56.67339
-54.08024
-51.61032
-49.21407
-46.9448
-44.8104
-42.75408
-40.86622
-39.11006
-37.5659
-36.34246
-35.3287
-34.23585
-32.99736
-31.99695
-31.39199
-30.97016
-30.56774
-30.23629
-29.37212
-27.68751
-25.22098
-22.54679
-20.0237
-17.49658
-15.11854
-13.19113
-11.61814
-10.24446
-8.956599
-7.738311
-6.505761
-5.43192
-4.586121
-7.08989
-11.58827
-12.15116
-14.05228
-2.957059
-7.600054
-10.56956
-17.1935
-24.81885
-34.65478
-46.67737
-60.70434
-76.58825
-93.58663
-109.7816
-124.0079
-135.0405
-141.7815
-142.4996
-135.4129
-120.0991
-97.31765
-71.46355
-54.16159
-49.62306
-52.02392
-50.30756
-48.23385
-58.55514
-62.68824
-49.77046
-39.66741
-27.42618
-22.12005
-31.64978
-57.15542
-82.09601
-102.9909
-119.1098
-128.2908
-129.4495
-122.6466
-111.1179
-99.59831
-99.24127
-100.3973
-92.00092
-83.55342
-78.87796
-77.94639
-79.4836
-81.89107
-75.75851
-133.3069
-60.87156
-52.95705
-42.28765
-36.10958
-30.73275
-26.28737
-22.43986
-18.93672
-15.89707
-13.1216
-10.59979
-8.290331
-6.109683
-4.051275
-2.124967
-0.3381496
1.337281
2.94736
4.484936
5.952998
7.358605
8.693421
9.957143
11.19853
12.4138
13.59962
14.73282
15.80755
16.84432
17.86525
18.87536
19.86813
20.81244
21.72816
22.63781
23.53022
24.41443
25.28828
26.16352
26.99768
27.85619
28.67002
29.47889
30.27452
31.06657
31.84413
32.60824
33.37434
34.15442
34.93223
35.69362
36.4431
37.1914
37.9618
38.74372
39.51554
40.28842
41.07212
41.86079
42.66304
43.46788
44.26813
45.10224
46.01724
46.96726
47.90539
48.82977
49.74591
50.83453
52.34269
54.28339
51.7106
49.8523
48.34475
46.89959
45.60139
44.39872
43.18764
42.01237
40.94921
39.94703
38.89549
37.81491
36.75761
35.7499
34.76525
33.77704
32.77217
31.7649
30.78373
29.8099
28.81695
27.82041
26.83292
25.82803
24.82671
23.80665
22.74524
21.6963
20.66719
19.62672
18.55447
17.43268
16.34153
15.20583
14.03881
12.86452
11.67816
10.44433
9.187065
7.923168
6.625832
5.254591
3.816148
2.371582
0.9280291
-0.5779726
-2.162318
-3.802201
-5.523849
-7.322322
-9.180539
-11.11337
-13.08613
-15.20103
-17.4678
-19.83611
-22.36317
-25.02349
-27.90599
-31.04294
-34.39836
-38.02198
-42.08751
-46.64611
-51.83935
-57.64818
-64.42719
-72.81789
-82.6964
-99.44111
-114.5626
51.85832
50.11368
48.54245
47.0769
45.7588
44.54345
43.32422
42.13726
41.06053
40.05088
38.99702
37.91267
36.84858
35.83396
34.8445
33.85298
32.84511
31.83382
30.84864
29.87151
28.87584
27.87638
26.88606
25.87843
24.87498
23.85286
22.78912
21.73752
20.7056
19.66285
18.58898
17.46452
16.37285
15.23416
14.06489
12.88876
11.70067
10.46482
9.205819
7.940064
6.641108
5.267607
3.826892
2.380424
0.9352164
-0.5732676
-2.159708
-3.801468
-5.525814
-7.327478
-9.18908
-11.12546
-13.10063
-15.22141
-17.49361
-19.86703
-22.40139
-25.06774
-27.96056
-31.10865
-34.47436
-38.11137
-42.19491
-46.77179
-52.00482
-57.84804
-64.68054
-73.13637
-83.21505
-99.93376
-117.0679
-62.59355
-53.26684
-42.62485
-36.31594
-30.90187
-26.42102
-22.55299
-19.02105
-15.96973
-13.18472
-10.65252
-8.335999
-6.148988
-4.084232
-2.151897
-0.3599619
1.318774
2.932306
4.473291
5.944271
7.352442
8.690102
9.955501
11.19838
12.41529
13.6029
14.73793
15.81404
16.85218
17.87456
18.88615
19.88048
20.82626
21.74314
22.65433
23.54813
24.43399
25.30952
26.18703
27.02152
27.88253
28.69759
29.50801
30.30551
31.09912
31.8784
32.64448
33.41297
34.1954
34.9752
35.73832
36.49007
37.24149
38.01508
38.79988
39.57442
40.35067
41.1381
41.93095
42.73707
43.54556
44.35157
45.19482
46.11886
47.07458
48.01547
48.94441
49.87626
51.01295
52.58878
54.22637
-3.248481
-7.125358
-10.03769
-16.44408
-23.93883
-33.62084
-45.50078
-59.41449
-75.23374
-92.27418
-108.6113
-123.0559
-134.3566
-141.4353
-142.594
-135.905
-121.0502
-98.53865
-72.4662
-54.63979
-49.64524
-52.00943
-50.39226
-48.23702
-58.54162
-62.77109
-50.01098
-39.90989
-27.55967
-22.21119
-31.68393
-57.18654
-82.12772
-103.0471
-119.1868
-128.411
-129.584
-122.7649
-111.1061
-99.50701
-99.22423
-100.3771
-91.85389
-83.43233
-78.83808
-77.97866
-79.58145
-81.80607
-77.12241
-123.2092
-110.7064
-112.1678
-113.4567
-106.1982
-95.10187
-87.77014
-99.24411
-113.5977
-122.4752
-123.267
-120.2232
-121.2566
-120.8215
-112.7375
-104.6042
-99.95507
-96.33314
-97.61538
-107.4763
-110.7188
-103.3089
-99.69368
-102.3438
-106.7749
-111.7037
-116.386
-120.4655
-123.8636
-126.6638
-128.9541
-130.735
-132.0886
-133.0633
-133.5491
-133.62
-133.2643
-132.7489
-132.0531
-131.0092
-129.6983
-127.7154
-125.3624
-122.7702
-119.8833
-116.7961
-113.4953
-110.1792
-106.8572
-103.3564
-99.73879
-96.06651
-92.42785
-88.85237
-85.34893
-81.81996
-78.33312
-74.95981
-71.69829
-68.45745
-65.27464
-62.25966
-59.40637
-56.61987
-54.02462
-51.55259
-49.15664
-46.88192
-44.74774
-42.692
-40.80511
-39.0524
-37.51577
-36.29921
-35.28507
-34.17686
-32.93069
-31.96041
-31.37047
-30.94707
-30.53577
-30.19692
-29.30292
-27.57485
-25.06616
-22.35486
-19.8205
-17.28705
-14.92207
-13.02182
-11.47105
-10.10923
-8.827067
-7.612065
-6.384034
-5.361236
-4.69585
-7.507652
-11.97562
-12.4223
-13.03816
-205.6514
-146.3358
-148.5249
-150.2944
-152.1855
-148.7351
-145.579
-140.2636
-140.4683
-142.7889
-144.3645
-144.3607
-145.2108
-146.3325
-145.9942
-145.1582
-144.8248
-145.1847
-146.0105
-147.992
-152.5818
-159.9354
-165.2995
-167.1096
-162.6804
-162.1482
-166.6542
-172.5329
-173.4693
-167.6098
-157.0059
-144.8884
-133.676
-127.4838
-128.8552
-128.95
-124.5072
-119.1097
-118.0326
-122.7344
-129.2958
-133.5361
-133.7597
-131.1921
-125.6577
-117.2232
-114.3842
-114.3108
-112.7706
-105.8327
-189.3216
-147.1415
-148.777
-150.2175
-152.3313
-149.0078
-145.7626
-140.3566
-140.4928
-142.7947
-144.3802
-144.3534
-145.219
-146.3608
-146.001
-145.1402
-144.812
-145.1823
-145.9934
-147.9562
-152.5947
-160.003
-165.3879
-167.2091
-162.7047
-162.2244
-166.8501
-172.7453
-173.6794
-167.645
-156.9068
-144.6952
-133.4415
-127.4036
-128.9429
-128.9284
-124.3334
-119.0105
-118.2833
-123.4487
-129.9073
-133.902
-133.9127
-131.1358
-125.5199
-116.9205
-114.3339
-114.3966
-112.5556
-105.7597
-110.4941
-111.9817
-113.5796
-106.7899
-96.03118
-87.94731
-98.68551
-113.2661
-122.7224
-123.8638
-120.5236
-121.2366
-121.0155
-112.9974
-104.8315
-100.1623
-96.52548
-97.5632
-107.5861
-110.961
-103.3863
-99.64105
-102.299
-106.7957
-111.7466
-116.3886
-120.44
-123.8316
-126.6309
-128.9277
-130.7158
-132.0746
-133.057
-133.5512
-133.6248
-133.2727
-132.7557
-132.0698
-131.0159
-129.7176
-127.7378
-125.3816
-122.7968
-119.9016
-116.8146
-113.5113
-110.1898
-106.87
-103.3669
-99.7479
-96.07433
-92.43378
-88.85285
-85.34771
-81.8158
-78.32607
-74.94987
-71.68794
-68.44517
-65.25841
-62.23975
-59.38906
-56.59853
-54.00275
-51.53122
-49.13441
-46.86031
-44.72556
-42.66739
-40.78019
-39.02941
-37.49392
-36.28057
-35.26883
-34.1688
-32.92128
-31.93987
-31.36113
-30.93626
-30.52904
-30.24126
-29.4006
-27.65451
-25.10682
-22.3194
-19.75866
-17.21622
-14.84673
-12.96982
-11.43678
-10.08195
-8.79505
-7.58437
-6.352346
-5.369297
-4.869083
-7.844489
-12.11033
-12.31982
-12.23752
-3.373072
-6.905562
-9.774287
-16.04146
-23.48125
-33.09451
-44.93474
-58.81882
-74.65726
-91.80572
-108.2772
-122.912
-134.4106
-141.7502
-143.111
-136.5982
-122.2375
-100.3131
-74.031
-55.25518
-49.59651
-51.97587
-50.55621
-48.35775
-58.6817
-63.01941
-50.51257
-40.38215
-27.8228
-22.48748
-31.87148
-57.37975
-82.3002
-103.2308
-119.3818
-128.5895
-129.7869
-123.0929
-111.5263
-99.7619
-99.40034
-100.5226
-91.84593
-83.37318
-78.85222
-78.04727
-79.64678
-81.73872
-77.6056
-112.2601
-62.51677
-53.47141
-42.77649
-36.41899
-30.98121
-26.48161
-22.59862
-19.07117
-15.99823
-13.21136
-10.67408
-8.355341
-6.16678
-4.098835
-2.163928
-0.3690229
1.309378
2.924516
4.466967
5.939311
7.348114
8.688016
9.953118
11.19672
12.41476
13.60372
14.74032
15.81645
16.85453
17.87718
18.88925
19.88525
20.83174
21.74741
22.6594
23.55331
24.4408
25.31682
26.19289
27.03054
27.88823
28.70476
29.51625
30.31355
31.10784
31.88753
32.65341
33.42142
34.2053
34.98677
35.74968
36.50126
37.25148
38.02599
38.81338
39.58844
40.36417
41.1535
41.94632
42.75286
43.56224
44.36877
45.21184
46.14202
47.10268
48.04178
48.9712
49.90587
51.06964
52.70212
54.12267
51.90695
50.20614
48.59844
47.11436
45.79414
44.57892
43.35276
42.15788
41.08194
40.07754
39.02146
37.93486
36.8669
35.85157
34.86178
33.87092
32.86131
31.84759
30.86296
29.88622
28.88899
27.88915
26.89942
25.88962
24.8882
23.86571
22.79825
21.74653
20.71515
19.67251
18.59552
17.47404
16.38032
15.24481
14.0728
12.8961
11.70799
10.46979
9.210521
7.945537
6.647299
5.27167
3.828477
2.38184
0.9377623
-0.5724643
-2.159732
-3.801895
-5.528848
-7.33232
-9.195731
-11.13367
-13.10727
-15.2322
-17.50693
-19.88083
-22.42003
-25.08616
-27.9856
-31.13833
-34.50694
-38.14899
-42.2406
-46.84678
-52.07469
-57.942
-64.80241
-73.30541
-83.45819
-100.2532
-116.6799
51.94928
50.3913
48.79364
47.29852
45.96715
44.74108
43.50623
42.30414
41.21698
40.20162
39.13946
38.04924
36.97559
35.95315
34.95752
33.96166
32.94842
31.93011
30.94217
29.96051
28.95918
27.95648
26.96371
25.94983
24.94719
23.92158
22.84919
21.79713
20.76273
19.71775
18.63732
17.52128
16.41359
15.28102
14.10429
12.9263
11.73699
10.49427
9.233891
7.967828
6.668699
5.288357
3.841328
2.393817
0.9500922
-0.564433
-2.153682
-3.797088
-5.528829
-7.335086
-9.201574
-11.14337
-13.1153
-15.24961
-17.53002
-19.90615
-22.45585
-25.12339
-28.03677
-31.20058
-34.57705
-38.23069
-42.34842
-46.96595
-52.2182
-58.12571
-65.03737
-73.59288
-83.90948
-100.5367
-116.8562
-62.708
-53.65042
-43.07249
-36.60155
-31.14108
-26.60443
-22.69596
-19.15285
-16.06951
-13.2712
-10.72248
-8.398338
-6.204271
-4.129032
-2.188332
-0.3866889
1.292776
2.912042
4.457947
5.933372
7.343802
8.688177
9.952687
11.19779
12.41806
13.60947
14.74942
15.82657
16.86544
17.8888
18.90213
19.90137
20.85063
21.7654
22.67966
23.57458
24.46558
25.34363
26.21733
27.066
27.91999
28.73822
29.55201
30.3516
31.14737
31.92993
32.69812
33.4687
34.25494
35.03942
35.80468
36.5595
37.31314
38.08997
38.88152
39.6599
40.43956
41.2328
42.03042
42.84061
43.65472
44.46802
45.31772
46.25408
47.22035
48.15926
49.08982
50.0392
51.23853
52.84642
53.95923
-3.669161
-6.526229
-9.339294
-15.35842
-22.67402
-32.15719
-43.87188
-57.64336
-73.4163
-90.59804
-107.1791
-122.0145
-133.7525
-141.3858
-143.1046
-137.2697
-123.5417
-102.5342
-76.57498
-56.49256
-49.70172
-51.93092
-50.92991
-48.62945
-58.83004
-63.28598
-51.41282
-41.18855
-28.31199
-23.01027
-32.31148
-57.84097
-82.65981
-103.5744
-119.7383
-128.9167
-130.1223
-123.5916
-112.4026
-100.6453
-99.81147
-100.6266
-91.76935
-83.26234
-78.88189
-78.14412
-79.77878
-81.62081
-78.94504
-104.2484
-110.4627
-112.0053
-114.2439
-108.0732
-97.35878
-88.43291
-98.07706
-112.4363
-122.5635
-124.7465
-121.2238
-121.4097
-121.5684
-113.7747
-105.1515
-100.3442
-96.74214
-97.55712
-107.5004
-111.2481
-103.6217
-99.74161
-102.426
-107.0304
-111.8857
-116.3988
-120.3995
-123.7873
-126.5909
-128.9021
-130.7032
-132.0682
-133.0594
-133.5751
-133.6505
-133.298
-132.7811
-132.1174
-131.0487
-129.7711
-127.7905
-125.4194
-122.8427
-119.942
-116.8567
-113.5438
-110.2049
-106.8851
-103.3759
-99.7512
-96.07162
-92.42772
-88.83834
-85.33118
-81.79382
-78.29744
-74.91368
-71.64979
-68.4049
-65.21242
-62.18628
-59.33946
-56.54385
-53.94473
-51.47312
-49.07602
-46.79275
-44.66394
-42.60657
-40.72019
-38.97592
-37.44961
-36.24334
-35.23317
-34.10745
-32.84579
-31.90142
-31.32221
-30.90597
-30.58346
-30.42579
-29.58331
-27.71816
-24.94015
-22.10398
-19.54433
-17.00607
-14.6417
-12.7936
-11.28715
-9.955071
-8.68499
-7.498635
-6.287538
-5.402207
-5.151538
-8.376734
-12.54441
-12.60468
-11.69953
-178.5434
-149.1875
-148.78
-149.8327
-152.4708
-149.4535
-146.0795
-140.5114
-140.5435
-142.8084
-144.3995
-144.342
-145.2308
-146.4042
-146.0103
-145.1164
-144.7909
-145.1707
-145.9548
-147.9021
-152.6219
-160.1396
-165.5683
-167.4286
-162.8588
-162.4301
-167.1161
-173.0109
-173.7604
-167.6695
-156.8258
-144.4808
-133.1434
-127.3081
-129.0848
-128.9304
-124.0348
-118.942
-118.9032
-124.4135
-130.5522
-134.0327
-133.7589
-130.6869
-125.018
-116.433
-114.148
-114.323
-112.2055
-105.6969
-170.9715
-151.1602
-148.4536
-148.9717
-152.5601
-150.0873
-146.5495
-140.7748
-140.6506
-142.8408
-144.4558
-144.3306
-145.2504
-146.457
-146.0181
-145.0873
-144.7625
-145.1434
-145.8913
-147.8275
-152.6609
-160.3371
-165.7945
-167.7915
-163.1887
-162.8006
-167.5361
-173.5189
-174.2793
-167.9802
-156.9311
-144.3869
-132.9145
-127.3073
-129.3567
-128.9691
-123.8415
-119.2247
-120.1354
-125.6217
-131.2531
-134.6425
-133.9008
-130.4132
-124.6281
-115.957
-114.0703
-114.3541
-111.8805
-105.7598
-110.467
-111.9691
-114.8132
-109.4549
-99.12561
-89.38649
-97.73842
-111.8489
-122.8422
-125.9939
-122.4624
-121.7757
-121.9295
-114.339
-105.4461
-100.3988
-96.84627
-97.51473
-107.5727
-111.7712
-104.1511
-100.1752
-102.9296
-107.4229
-112.0546
-116.4071
-120.3533
-123.7378
-126.5427
-128.8703
-130.6868
-132.0564
-133.0589
-133.59
-133.6782
-133.3195
-132.7924
-132.1657
-131.0726
-129.8386
-127.8586
-125.4613
-122.9009
-119.994
-116.9145
-113.5917
-110.2309
-106.9177
-103.4019
-99.77199
-96.08526
-92.43847
-88.83704
-85.32989
-81.78514
-78.27963
-74.88754
-71.62652
-68.37992
-65.17852
-62.14141
-59.30395
-56.49563
-53.89227
-51.42533
-49.02914
-46.73731
-44.612
-42.55123
-40.66342
-38.92858
-37.41
-36.20916
-35.2073
-34.07103
-32.78602
-31.85274
-31.25778
-30.94238
-30.80718
-30.78343
-29.82034
-27.78946
-24.90187
-21.95321
-19.3804
-16.8416
-14.47055
-12.6655
-11.18859
-9.876339
-8.614575
-7.453876
-6.265132
-5.510066
-5.60614
-9.08161
-13.00683
-12.61655
-11.14759
-3.969248
-6.212381
-8.899035
-14.66475
-21.86019
-31.25428
-42.82389
-56.49612
-72.26262
-89.57457
-106.3435
-121.5043
-133.5614
-141.7008
-144.1476
-138.4473
-125.3191
-105.3155
-80.2239
-59.079
-50.18696
-51.87645
-51.56232
-49.0213
-58.56657
-63.31158
-52.74714
-42.41496
-29.12206
-23.90468
-33.16149
-58.75669
-83.30356
-104.1313
-120.3381
-129.4765
-130.6589
-124.258
-113.593
-102.1158
-100.3333
-100.2869
-91.41111
-83.07229
-78.89276
-78.25375
-79.94038
-81.52805
-80.33924
-98.632
-62.85529
-53.72313
-43.32509
-36.76362
-31.28867
-26.7171
-22.78872
-19.23547
-16.12665
-13.32512
-10.76586
-8.43842
-6.241444
-4.159676
-2.212876
-0.4026284
1.274593
2.896865
4.44567
5.92427
7.33593
8.68655
9.948363
11.19455
12.41641
13.60994
14.75429
15.83128
16.86899
17.89284
18.90759
19.91092
20.86212
21.77341
22.69039
23.58533
24.47974
25.35741
26.22711
27.07931
27.93488
28.75403
29.56943
30.3688
31.16572
31.94992
32.71824
33.48788
34.27648
35.06437
35.82957
36.5849
37.33777
38.11693
38.91407
39.69326
40.47227
41.27044
42.06983
42.88194
43.6988
44.5159
45.369
46.32012
47.29636
48.22777
49.16027
50.13148
51.37278
52.93272
53.72184
51.95008
50.52946
48.93376
47.41363
46.06884
44.84109
43.5902
42.3685
41.27636
40.2683
39.2011
38.10655
37.02351
35.99849
35.00133
34.00584
32.98881
31.96498
30.97823
29.99661
28.99169
27.98764
26.99566
25.97608
24.97774
23.95081
22.87034
21.81839
20.78337
19.73892
18.65578
17.5331
16.42896
15.30086
14.11866
12.94046
11.75135
10.50385
9.244474
7.980037
6.681672
5.29511
3.843148
2.397427
0.9566594
-0.563535
-2.153765
-3.796665
-5.534766
-7.343887
-9.213173
-11.15821
-13.12323
-15.271
-17.55754
-19.93366
-22.49479
-25.15732
-28.08817
-31.26223
-34.64142
-38.30127
-42.44138
-47.0894
-52.35488
-58.297
-65.25556
-73.86028
-84.29708
-100.6661
-116.7613
51.89648
50.64362
49.10573
47.5921
46.24185
45.0178
43.75714
42.52691
41.43162
40.42085
39.3427
38.24652
37.15345
36.12019
35.11616
34.11907
33.09648
32.0623
31.07311
30.08689
29.07571
28.06905
27.07642
26.04766
25.05358
24.0247
22.93262
21.88272
20.84431
19.79741
18.70673
17.60118
16.47964
15.35092
14.16186
12.98362
11.79094
10.53138
9.270825
8.009016
6.715983
5.319691
3.854924
2.409863
0.9775326
-0.5519916
-2.145112
-3.784875
-5.532138
-7.347062
-9.224471
-11.17607
-13.12342
-15.28874
-17.58238
-19.96242
-22.5421
-25.19077
-28.14883
-31.33843
-34.72467
-38.38438
-42.5532
-47.23854
-52.51817
-58.49731
-65.50917
-74.14854
-84.67827
-100.6455
-116.6237
-63.04336
-53.71622
-43.5771
-36.93244
-31.46839
-26.85574
-22.90277
-19.33344
-16.19839
-13.39728
-10.81991
-8.486847
-6.288939
-4.195625
-2.237644
-0.4166954
1.251347
2.878172
4.432686
5.917969
7.33158
8.690416
9.947122
11.19555
12.41916
13.61879
14.77096
15.84506
16.88249
17.91069
18.92705
19.9333
20.88784
21.79494
22.71703
23.61136
24.51059
25.38866
26.26137
27.13146
27.97717
28.79592
29.61487
30.4167
31.21705
32.00451
32.77284
33.54468
34.33996
35.1348
35.89958
36.65742
37.41153
38.19343
38.99874
39.78021
40.56297
41.36815
42.16884
42.98281
43.8051
44.6294
45.48266
46.44025
47.42172
48.34048
49.27975
50.27185
51.51008
52.94199
53.39838
-4.306605
-5.922115
-8.410191
-13.86028
-20.88382
-30.18741
-41.61953
-55.12893
-70.8662
-88.32922
-105.2665
-120.8426
-133.2833
-141.8831
-144.5895
-139.7243
-127.4476
-108.5853
-84.75251
-63.33974
-51.70106
-52.11375
-52.44125
-49.38936
-57.23419
-62.70472
-54.42034
-44.20353
-30.42276
-25.40826
-34.52155
-60.24119
-84.4108
-105.0397
-121.2942
-130.4065
-131.5062
-125.1636
-115.0634
-103.8976
-100.6447
-98.92405
-90.4589
-82.76571
-78.84189
-78.38503
-80.14634
-81.39783
-81.21862
-93.48211
-110.5275
-111.9237
-115.5296
-111.1327
-101.4813
-91.06972
-97.7479
-111.3699
-123.1133
-127.5691
-124.2574
-122.3556
-122.1826
-115.1672
-105.8283
-100.3403
-96.65854
-97.0671
-107.4266
-112.4212
-105.14
-101.2622
-103.8195
-107.9084
-112.2523
-116.4415
-120.3276
-123.7089
-126.5099
-128.8578
-130.6953
-132.0659
-133.0871
-133.6391
-133.7404
-133.3757
-132.8227
-132.2625
-131.1183
-129.9415
-127.9576
-125.5168
-122.985
-120.0619
-116.9855
-113.6508
-110.2612
-106.9601
-103.4311
-99.79612
-96.09584
-92.44476
-88.82364
-85.31749
-81.76291
-78.24972
-74.85417
-71.59749
-68.34037
-65.12515
-62.0713
-59.24688
-56.41807
-53.82256
-51.36466
-48.96075
-46.65227
-44.54308
-42.47617
-40.59408
-38.87491
-37.36035
-36.16834
-35.18346
-34.02009
-32.68648
-31.75532
-31.176
-31.16478
-31.26345
-31.24143
-30.03803
-27.74993
-24.73021
-21.69622
-19.13711
-16.60408
-14.22358
-12.47813
-11.04197
-9.770089
-8.529232
-7.420982
-6.298759
-5.74557
-6.344198
-10.02257
-13.60892
-12.72543
-10.59379
-162.9735
-151.7789
-147.6944
-147.9323
-152.6702
-150.9657
-147.2916
-141.1888
-140.9056
-142.9063
-144.5355
-144.3211
-145.2778
-146.5824
-146.0402
-145.0565
-144.7161
-145.0819
-145.8067
-147.7674
-152.7078
-160.5863
-166.1236
-168.2923
-163.702
-163.3921
-168.2427
-174.3609
-175.1941
-168.6702
-157.3152
-144.5571
-132.9491
-127.5686
-129.886
-129.1822
-123.6976
-120.2749
-121.8145
-126.8805
-131.8861
-135.0398
-133.9752
-130.0586
-124.1777
-115.5045
-113.9891
-114.3816
-111.5462
-106.0056
-154.1147
-150.65
-146.6623
-146.8358
-152.6826
-151.82
-148.4776
-141.7304
-141.3531
-143.0209
-144.6771
-144.3349
-145.3464
-146.5918
-146.062
-145.0422
-144.6679
-144.9866
-145.7358
-147.7487
-152.7713
-160.7949
-166.357
-168.9208
-164.3905
-164.3658
-169.5733
-175.8639
-176.7578
-169.8359
-158.0675
-145.0871
-133.3256
-127.9009
-129.8587
-128.7455
-123.4702
-122.152
-123.6375
-128.1025
-132.7623
-135.7962
-134.0184
-129.6888
-123.6979
-115.2462
-114.0271
-114.3337
-111.2377
-106.5012
-110.7562
-112.0467
-116.3763
-113.0335
-104.5837
-93.76657
-98.14078
-111.0672
-123.5667
-129.5767
-126.595
-123.3299
-122.2913
-115.32
-106.1414
-100.1436
-96.0452
-95.98225
-106.5253
-112.5311
-106.4813
-102.9592
-104.9598
-108.481
-112.5341
-116.5363
-120.3448
-123.7247
-126.5044
-128.8659
-130.7202
-132.077
-133.1283
-133.6937
-133.8187
-133.457
-132.8452
-132.4253
-131.1763
-130.0595
-128.0812
-125.5709
-123.079
-120.138
-117.0728
-113.7521
-110.3197
-107.0213
-103.4819
-99.84444
-96.11073
-92.45971
-88.81186
-85.31706
-81.75963
-78.24737
-74.84007
-71.56089
-68.29111
-65.07634
-61.99533
-59.182
-56.36083
-53.77101
-51.3001
-48.88262
-46.56752
-44.46286
-42.39528
-40.51817
-38.79695
-37.29712
-36.13573
-35.18552
-33.96992
-32.5989
-31.6434
-31.15927
-31.68124
-31.92753
-31.78702
-30.28347
-27.82207
-24.58143
-21.41677
-18.87544
-16.36983
-13.96312
-12.27679
-10.87896
-9.657197
-8.443199
-7.428184
-6.452557
-6.21994
-7.430044
-11.23987
-14.35473
-12.95303
-10.19293
-4.720046
-5.71267
-7.848773
-12.91674
-19.60735
-28.65108
-40.2658
-53.58599
-69.20684
-86.8854
-104.0215
-120.0349
-133.1302
-142.5385
-146.0808
-141.656
-130.3386
-112.5982
-89.89664
-68.87247
-55.09046
-53.18939
-53.86301
-49.77452
-54.43823
-61.21254
-56.34171
-46.81228
-32.34478
-27.79121
-36.60634
-62.34496
-86.39079
-106.7897
-122.7083
-131.8001
-132.7735
-126.3805
-116.8028
-105.7973
-100.6341
-96.60731
-88.87318
-82.37414
-78.64475
-78.63288
-80.59369
-81.28284
-81.35129
-88.25454
-63.12205
-53.55371
-43.78388
-37.07789
-31.67829
-26.99699
-23.00581
-19.43018
-16.28619
-13.48141
-10.86434
-8.539065
-6.347006
-4.228359
-2.262284
-0.4426975
1.212065
2.859219
4.422471
5.917621
7.325332
8.687917
9.942386
11.19089
12.41609
13.63141
14.77934
15.84744
16.8928
17.92133
18.92661
19.93544
20.90724
21.80575
22.73328
23.62477
24.532
25.41314
26.28776
27.14397
27.9939
28.81638
29.64324
30.44628
31.24554
32.03131
32.80494
33.58147
34.37608
35.16855
35.93195
36.69742
37.45257
38.23671
39.04945
39.83663
40.61834
41.42418
42.22807
43.05192
43.88119
44.71486
45.56323
46.53548
47.54074
48.45152
49.40666
50.40328
51.59193
52.83978
52.98765
51.76038
50.70364
49.27534
47.78517
46.41135
45.17639
43.88327
42.6328
41.5344
40.53038
39.42476
38.32876
37.2304
36.20235
35.18601
34.18602
33.16366
32.12715
31.14334
30.14961
29.12964
28.12211
27.12954
26.08817
25.10236
24.06285
22.95957
21.91552
20.87928
19.83783
18.73399
17.59842
16.50093
15.36888
14.17384
13.01136
11.82552
10.55262
9.288392
8.018318
6.734708
5.341293
3.86479
2.405461
0.9862331
-0.5460046
-2.148871
-3.784644
-5.533056
-7.347292
-9.236227
-11.21541
-13.13917
-15.32508
-17.60442
-19.9904
-22.60791
-25.2222
-28.21792
-31.406
-34.82
-38.48104
-42.67016
-47.38603
-52.6801
-58.70053
-65.77083
-74.42463
-84.98666
-100.341
-116.0348
51.52143
50.66054
49.41787
48.02713
46.69249
45.49358
44.13367
42.83181
41.7576
40.79869
39.68495
38.54073
37.38696
36.37084
35.3788
34.35315
33.28684
32.22876
31.27653
30.28115
29.23979
28.24017
27.25521
26.17543
25.26392
24.17646
23.03816
22.01113
20.94015
19.93162
18.81427
17.72067
16.63248
15.45449
14.19426
13.0381
11.86362
10.59636
9.361542
8.07688
6.740254
5.348728
3.923291
2.448371
0.9920485
-0.5155534
-2.120073
-3.807086
-5.552008
-7.343394
-9.190487
-11.19678
-13.1462
-15.41588
-17.64696
-19.99104
-22.71102
-25.26372
-28.36348
-31.46267
-34.89487
-38.68379
-42.89414
-47.62733
-52.93094
-59.00535
-66.17774
-74.8599
-85.45061
-99.86554
-115.3407
-63.00308
-53.3951
-44.14564
-37.33772
-32.03003
-27.12642
-23.15461
-19.61294
-16.45507
-13.55677
-10.89542
-8.63739
-6.422095
-4.255954
-2.325474
-0.5060643
1.199986
2.878497
4.415792
5.911988
7.286864
8.665137
9.960833
11.16922
12.42705
13.65426
14.75522
15.87451
16.9302
17.92676
18.92165
19.9867
20.99421
21.83247
22.77548
23.66182
24.58675
25.46452
26.33143
27.18256
28.06061
28.89736
29.71701
30.51577
31.30241
32.11335
32.90562
33.65748
34.43479
35.26474
36.05833
36.81219
37.56448
38.3335
39.17329
39.983
40.72038
41.56303
42.39698
43.20419
44.02897
44.86807
45.70498
46.7177
47.77194
48.62033
49.55032
50.49487
51.59451
52.65536
52.52553
-5.214295
-5.563294
-7.2611
-11.93626
-18.10164
-26.61978
-38.67644
-51.91833
-67.2037
-85.17404
-102.5988
-118.4606
-132.3691
-143.4031
-148.0673
-144.0528
-133.9084
-117.9112
-96.25945
-75.84902
-61.23728
-55.69403
-55.56752
-50.18946
-50.61717
-59.47203
-58.74849
-50.48799
-34.90675
-30.93639
-40.50358
-65.88771
-89.10449
-109.7389
-124.6282
-133.2884
-134.4162
-127.8223
-118.8309
-107.6539
-100.261
-93.75184
-86.83436
-81.8164
-78.17182
-78.81473
-80.64792
-80.82853
-80.59481
-83.30708
-111.1255
-112.2677
-117.3269
-115.1343
-108.123
-97.15924
-99.11763
-111.1707
-124.2731
-132.0398
-129.5314
-125.0471
-122.4723
-115.12
-106.3241
-100.2411
-95.8304
-94.96251
-104.021
-111.2368
-107.5843
-104.7824
-106.1667
-109.0993
-112.8924
-116.6747
-120.3862
-123.7608
-126.4762
-128.864
-130.7512
-132.1139
-133.2248
-133.7896
-133.9559
-133.6199
-132.8405
-132.7097
-131.2122
-130.1903
-128.3385
-125.6266
-123.2166
-120.3031
-117.2614
-114.0188
-110.3976
-107.0687
-103.5735
-99.92037
-96.11646
-92.51959
-88.81916
-85.37391
-81.79329
-78.27741
-74.74889
-71.42039
-68.22846
-65.07606
-61.89893
-59.11676
-56.35404
-53.61927
-51.06576
-48.77997
-46.43328
-44.30494
-42.30283
-40.39173
-38.63791
-37.2302
-36.11267
-35.20765
-33.79796
-32.45679
-31.57623
-31.38658
-32.60915
-32.67741
-32.29242
-30.31979
-27.5459
-24.24305
-20.91627
-18.38271
-16.0213
-13.52316
-11.89734
-10.63676
-9.506209
-8.341687
-7.485789
-6.734447
-6.960778
-8.662669
-12.95748
-15.25337
-13.1673
-9.965471
-145.825
-147.3095
-145.819
-147.0608
-153.488
-154.0459
-149.7081
-142.3749
-141.4585
-143.1244
-144.8188
-144.3888
-145.4809
-146.9242
-146.0969
-145.0409
-144.6106
-144.9009
-145.7177
-147.7801
-152.7128
-160.9871
-166.5994
-169.6305
-165.1593
-165.8703
-171.8355
-178.2723
-179.1689
-171.746
-159.38
-145.7884
-133.4441
-126.8745
-127.7537
-126.4088
-122.8566
-124.5039
-125.3042
-128.93
-133.0688
-136.0636
-133.8607
-129.2582
-123.093
-114.981
-114.325
-114.184
-110.9919
-107.288
-0.2942029
-0.06982148
2.110664
4.180445
-14.09038
-1.703541
0.2114944
3.427408
2.88571
-11.78447
-3.237523
-37.16589
-0.1057486
11.1047
7.707198
3.898014
7.690659
-0.1706382
4.857139
-5.405995
3.010651
4.951074
-19.26945
4.601483
-0.845148
4.53748
4.609476
2.736959
3.778048
-0.975108
4.844778
0.1477445
-2.514182
-0.7190567
5.487384
-1.622143
-15.30148
6.160995
-5.84544
4.960092
6.614841
-0.09339579
-0.4193182
-13.72791
1.19956
-101.7355
-1.100996
-0.1125146
-0.3411545
7.082085
1.41668
-3.279121
1.317166
-7.636872
5.082208
-7.059093
2.038599
4.007601
0.5688365
-0.08240097
-29.14328
4.989922
-1.89972
-6.981602
7.333759
-13.94502
-1.51263
-6.441557
1.911621
1.619898
-31.89714
-3.487735
5.780387
2.409579
4.28901
4.781984
3.765021
3.775259
-0.5169567
5.407161
-4.542674
4.09231
-8.793736
-1.808645
-35.12787
-16.24756
7.129653
-19.92814
-0.939009
0.9110995
5.34594
5.887683
4.464764
2.915467
-6.840693
1.141199
4.400041
4.890893
-108.1969
-1.741654
-2.913565
-16.92459
9.679259
-25.74643
0.6407097
4.043009
0.2583179
5.116775
4.394763
3.526186
-7.530726
-162.7535
-13.56052
1.785265
3.381825
1.728282
-1.679498
-13.12214
3.653236
2.367969
0.2760327
2.761267
-1.104027
-4.717708
3.707624
0.3361595
-0.2722596
-5.351918
-60.07741
-2.272526
10.19104
6.610592
4.142774
3.766239
5.789968
-3.152336
1.562627
-115.5049
0.2649932
6.233612
4.195219
7.237551
4.075893
1.765346
-0.9231735
-8.075207
5.56225
0.02160769
-3.445242
-15.77
-71.87042
-152.2212
-0.9025303
3.833389
11.28033
3.508753
-9.609145
6.686696
0.3822879
2.616686
4.176541
3.804981
1.493538
-7.311188
6.228451
-1.995708
0.2227313
5.367403
-0.4428938
2.104488
-39.69011
-14.14635
-13.01234
1.971592
-0.583031
0.2425387
-0.2391381
0.776126
-1.913569
-25.27223
-3.800294
4.350882
-0.3202114
2.255991
0.8349688
0.9333868
5.117728
4.918655
5.476673
-1.509272
1.805808
-16.55536
4.353624
-48.68435
-16.39515
0.3864229
0.9071238
-0.2333958
1.929856
0.5260675
-25.62312
0.8465661
0.9953479
9.693859
0.6869537
2.158342
2.420147
3.137351
0.785058
0.9115128
1.088136
-0.8295099
5.94241
4.931343
-1.769101
-8.333257
1.061889
-1.560672
3.141996
-27.38481
1.388885
1.499055
3.755932
-95.07441
20.19191
-36.87783
4.189704
-3.583231
-0.1769328
0.8161203
-16.26868
2.611988
2.631184
5.027209
-50.4366
-13.99324
3.427283
4.675671
-141.8245
-9.36555
0.7681601
-19.04844
-4.155492
-0.6406715
-31.77023
0.5637352
2.88807
1.177611
3.913215
4.634765
4.624721
-225.8468
7.092584
1.795834
0.1948799
11.42032
0.03271151
3.044581
1.077603
1.68786
2.955687
-7.694272
2.574262
-21.97225
5.451284
3.276378
-10.75997
-46.16413
3.894586
1.244687
4.869753
2.963456
-1.431593
-1.249069
6.299658
-60.24676
4.960665
-1.418811
-6.841324
-181.0716
0.883972
-5.064198
-8.03186
-0.0707268
6.075439
-14.03612
1.392538
5.624249
6.164267
3.283693
-169.1276
8.060982
-122.6463
4.946915
5.441335
-7.471873