/*--------------------------------*- C++ -*----------------------------------*\
| =========                 |                                                 |
| \\      /  F ield         | OpenFOAM: The Open Source CFD Toolbox           |
|  \\    /   O peration     | Version:  2406                                  |
|   \\  /    A nd           | Website:  www.openfoam.com                      |
|    \\/     M anipulation  |                                                 |
\*---------------------------------------------------------------------------*/
FoamFile
{
    version     2.0;
    format      ascii;
    arch        "LSB;label=32;scalar=64";
    class       volScalarField;
    location    "0.44";
    object      p;
}
// * * * * * * * * * * * * * * * * * * * * * * * * * * * * * * * * * * * * * //

dimensions      [0 2 -2 0 0 0 0];

internalField   nonuniform List<scalar> 
4536
(
-1.963293e-05
2.747983e-05
-2.888317e-06
-1.780786e-05
4.098148e-05
4.334815e-05
2.806819e-05
2.60321e-05
-1.352723e-06
3.440609e-05
-7.694379e-06
-5.133318e-07
-1.004592e-05
3.474091e-05
2.836315e-05
1.506589e-05
3.235978e-05
-3.868601e-06
3.870425e-05
4.295514e-05
2.463508e-05
2.518634e-05
2.328765e-06
2.588474e-05
2.674882e-07
4.633915e-05
2.34894e-05
2.602184e-05
-1.614889e-05
6.312464e-06
1.615263e-05
-4.17766e-07
3.440385e-05
1.261201e-05
1.734915e-05
3.478739e-05
2.907015e-05
3.027244e-05
2.704966e-05
-6.469543e-06
2.131355e-05
1.138562e-05
2.835769e-05
4.425482e-05
-9.756219e-06
-2.100078e-05
2.63613e-05
1.467389e-05
-4.774803e-06
3.512219e-05
2.336764e-05
3.991928e-05
2.3142e-05
-3.3727e-06
4.771958e-05
3.546221e-05
3.954957e-05
1.78078e-05
-2.205354e-05
-3.544214e-06
4.080668e-05
2.239286e-05
-6.456204e-06
3.038631e-05
1.954924e-05
7.146654e-06
2.80458e-05
9.449302e-06
2.201673e-05
6.521971e-06
1.998691e-05
3.607005e-05
2.49062e-06
-1.295672e-05
2.484236e-05
-5.16959e-07
8.529372e-06
2.962919e-05
-1.917284e-05
-8.963701e-06
1.869273e-05
5.538116e-05
7.803084e-05
-1.139054e-05
3.717736e-05
2.097174e-05
2.148044e-05
2.091092e-05
1.866479e-05
3.875245e-05
2.851291e-05
3.883395e-05
3.701696e-05
1.351968e-05
2.536618e-05
3.143198e-05
1.595748e-06
2.802468e-05
-2.112471e-05
6.834462e-06
-2.019974e-05
2.248055e-06
1.362887e-05
3.320436e-05
-1.15655e-05
-4.508986e-06
1.709219e-05
-4.210616e-06
2.167751e-05
1.385723e-05
6.532381e-05
3.170422e-05
2.469028e-05
3.78391e-05
2.960578e-05
2.465748e-06
-1.304698e-05
2.272819e-05
3.247181e-05
1.076101e-05
3.738015e-06
1.206154e-05
1.297612e-06
-9.125141e-06
1.009393e-05
4.535332e-05
3.350536e-05
1.787143e-05
6.83697e-06
3.639979e-05
-1.136259e-05
-1.326233e-06
4.400506e-05
2.295638e-05
4.892146e-05
2.464426e-05
-1.269494e-05
5.625784e-06
2.616455e-05
1.412503e-05
3.251906e-05
-1.02908e-05
1.18004e-05
3.429886e-05
2.388448e-05
-2.63358e-06
8.463965e-06
2.732357e-05
2.798012e-05
4.748308e-05
2.517054e-05
2.957441e-05
-5.522409e-06
1.71466e-05
4.046878e-05
3.843045e-05
3.944401e-05
1.275049e-05
3.071473e-05
-4.251088e-08
3.516374e-06
2.961588e-05
2.15846e-06
3.363988e-05
4.752201e-05
2.873409e-05
8.793885e-06
2.178998e-05
2.08455e-08
4.504068e-05
3.879614e-05
3.061697e-05
1.652273e-05
7.341982e-05
2.050533e-05
4.015079e-05
4.396834e-06
2.482233e-05
2.895966e-05
1.898861e-05
1.553117e-05
2.592264e-05
6.249976e-05
3.642626e-05
4.249448e-05
5.390228e-05
1.660155e-06
2.017556e-05
6.171829e-06
2.1406e-05
-1.001013e-06
-1.58154e-05
5.776581e-07
-6.924807e-06
5.790264e-07
4.76062e-05
4.714592e-05
3.983136e-05
4.068939e-05
3.213431e-05
2.373176e-05
2.152725e-05
2.613603e-05
2.612184e-05
2.670626e-05
2.597234e-05
2.11304e-05
-9.689589e-06
2.761679e-05
3.536731e-05
-9.866154e-06
2.040432e-05
1.132874e-05
4.597e-05
1.727903e-05
2.555893e-05
-5.906351e-06
-4.51049e-06
3.222088e-05
3.424478e-05
9.380095e-06
1.998914e-05
3.711514e-07
-3.661829e-06
7.107996e-07
2.041464e-05
2.270936e-05
-1.140949e-05
2.480568e-05
-7.423518e-06
1.70112e-05
-5.015751e-06
8.188646e-06
4.029058e-05
4.535178e-06
4.187683e-05
6.705057e-05
3.517646e-05
2.461064e-05
1.174272e-05
-1.834118e-06
3.938718e-05
1.346044e-05
1.769724e-05
4.134442e-05
6.972771e-06
5.522921e-06
2.082897e-05
2.790939e-05
1.090644e-05
-2.733027e-06
3.745911e-05
5.508279e-05
6.156633e-05
3.842886e-05
1.92268e-05
4.298503e-06
2.041034e-05
1.392458e-06
1.244465e-06
2.739272e-05
2.507371e-05
3.802382e-05
-1.264431e-05
6.664978e-05
2.618192e-06
1.21658e-05
1.315478e-05
4.231567e-05
3.417074e-05
-2.202278e-06
1.317829e-05
-1.630011e-05
3.709238e-05
2.521901e-05
8.934042e-06
8.875781e-06
9.858241e-06
3.688039e-05
4.398109e-05
1.765072e-05
3.076893e-05
5.242174e-05
2.877497e-05
-9.527083e-06
9.89535e-06
1.536679e-05
5.010384e-05
3.268188e-05
2.172591e-06
-3.20276e-06
-2.508502e-06
5.780253e-06
2.782811e-05
2.72241e-05
2.466062e-05
6.349922e-06
1.154775e-05
2.95063e-05
2.630355e-05
9.064322e-06
8.205913e-06
1.094551e-05
-4.963237e-06
-1.099989e-05
-1.298801e-05
-1.709718e-05
3.790256e-06
8.126525e-06
3.501854e-05
2.21229e-05
4.814223e-05
4.40708e-05
1.737237e-05
-9.600915e-06
2.399029e-05
3.132125e-05
3.631086e-05
2.559801e-05
2.425578e-05
2.446249e-05
2.53341e-05
2.474778e-05
2.298337e-05
3.831917e-05
4.81554e-05
1.45595e-05
2.70087e-05
2.70559e-05
1.186183e-05
4.765293e-06
1.186843e-05
1.006067e-06
2.960461e-06
-1.339969e-05
5.802279e-06
2.705962e-05
3.511049e-05
3.006589e-05
3.12926e-05
6.858857e-06
4.131969e-05
1.183036e-05
-1.477965e-05
1.779276e-05
4.868558e-05
2.587094e-05
1.486554e-05
2.748839e-05
2.340088e-05
4.013698e-05
1.805931e-05
-7.599237e-07
2.071018e-05
3.51045e-05
3.724074e-05
3.790775e-05
5.067652e-05
2.275414e-05
5.344581e-05
2.684451e-06
2.413189e-05
5.796704e-05
3.343013e-05
2.35723e-05
5.615704e-05
1.337101e-05
-1.740062e-05
6.945223e-06
5.269549e-06
4.30733e-05
2.905963e-05
6.987982e-06
3.347967e-05
2.374498e-05
-9.11236e-06
7.863686e-06
4.053981e-05
7.07043e-06
-2.916611e-06
3.777257e-05
3.130918e-05
2.756992e-05
2.508044e-05
1.158794e-05
2.445313e-06
3.005244e-06
3.86342e-05
5.293788e-05
6.862323e-05
3.683334e-05
7.470057e-06
-2.03738e-06
3.093737e-05
6.362711e-06
3.27144e-07
4.080729e-05
2.758753e-05
2.264268e-05
-1.245328e-05
4.105762e-05
-1.926719e-05
4.018839e-05
4.247912e-05
2.16539e-05
3.771887e-05
3.922512e-05
-4.203741e-06
3.056172e-06
2.354546e-05
-2.10713e-06
2.963948e-05
4.274629e-05
4.246136e-05
-8.11779e-06
2.992521e-06
1.304043e-05
1.777745e-05
1.554426e-05
-8.646674e-06
-7.714406e-06
3.921276e-06
3.280926e-05
7.362942e-06
2.752966e-05
2.584196e-05
1.86154e-05
1.852109e-05
2.354462e-05
2.389907e-05
3.68712e-05
1.14055e-05
6.583323e-06
-6.660493e-06
-1.136709e-06
-5.894658e-06
3.062291e-05
4.791796e-05
-6.502945e-06
3.284372e-05
3.250973e-05
4.919831e-05
-1.616866e-05
2.224119e-05
2.648981e-05
4.426735e-05
-2.303109e-05
-9.666593e-06
-3.467674e-06
3.727587e-05
2.821573e-05
3.841269e-05
2.446005e-05
-1.157039e-05
3.292333e-05
3.867097e-05
4.627382e-05
2.916778e-05
3.664078e-05
3.446488e-05
5.745846e-06
1.564786e-05
1.53736e-05
3.197113e-05
2.543912e-05
3.806902e-05
3.392118e-05
3.164919e-05
4.071456e-05
3.811879e-05
2.937527e-05
3.94177e-05
4.02216e-05
2.31648e-07
1.910775e-05
3.477971e-05
5.411274e-05
3.407037e-05
-1.095915e-06
8.965056e-06
4.48172e-05
3.131526e-05
-9.753896e-06
-8.592799e-06
1.448514e-05
1.806559e-05
4.75049e-05
5.942554e-07
-3.204568e-08
2.9412e-05
-7.888421e-06
1.978802e-05
3.525777e-05
4.102581e-05
2.297053e-05
2.314599e-05
2.447759e-06
1.942332e-05
3.980572e-05
1.114442e-05
2.526046e-05
-1.269991e-05
3.245705e-05
2.62849e-05
3.327879e-06
1.524639e-05
5.250112e-05
-1.111469e-05
2.378228e-05
5.984975e-06
2.344396e-06
2.348708e-05
1.296613e-05
2.262268e-05
1.904548e-05
3.926308e-05
3.91271e-05
3.811305e-05
2.658643e-05
4.546537e-05
5.162438e-05
2.187253e-05
1.475952e-07
7.089563e-06
4.168036e-06
1.744258e-06
5.35547e-06
2.959201e-05
4.33237e-05
8.992136e-06
1.111848e-05
2.849382e-05
3.384432e-05
4.070382e-05
1.962433e-05
2.620747e-05
4.347844e-05
2.797215e-05
3.708776e-05
3.637572e-05
8.897968e-06
1.960226e-05
2.663963e-05
1.38364e-05
2.502054e-05
3.091855e-05
2.425285e-05
2.461976e-06
1.011274e-05
2.992136e-05
2.850684e-05
1.770042e-05
2.344793e-05
-4.686889e-07
-1.877117e-07
-9.23881e-06
2.33815e-05
-8.156089e-07
5.396126e-05
4.15778e-05
4.315614e-05
4.444971e-05
4.446312e-05
1.990175e-05
3.67996e-05
2.13568e-05
3.671103e-05
-3.456625e-06
2.735964e-05
-7.993666e-06
2.685788e-05
2.752511e-05
2.757549e-05
3.351705e-05
3.239928e-05
3.684608e-05
1.209395e-05
-2.698143e-05
2.311399e-05
2.46773e-05
-2.842849e-05
4.495457e-05
1.262618e-05
-7.673915e-06
2.826459e-05
2.426151e-05
3.07004e-05
3.51902e-05
2.575037e-05
1.622571e-05
2.667269e-05
8.1015e-06
4.809267e-06
2.247885e-05
-2.091972e-05
5.850246e-05
6.035534e-05
2.237995e-05
-1.204693e-05
2.507355e-05
3.041845e-05
2.369221e-05
3.728367e-05
3.498902e-06
2.223226e-05
1.754492e-05
3.790967e-05
3.530264e-05
1.508958e-05
4.162443e-05
3.879651e-05
2.83891e-05
2.841241e-05
-1.167255e-05
-6.841957e-07
5.919157e-05
1.883932e-05
-2.005589e-05
7.835342e-06
2.005429e-05
1.870435e-05
-4.469314e-06
2.058794e-05
2.543806e-06
1.097936e-05
1.44427e-05
2.618758e-05
3.643498e-05
5.371633e-05
4.753453e-05
2.21447e-05
2.571351e-05
2.528115e-05
-1.771748e-07
2.727388e-05
2.690763e-05
-1.080311e-05
-2.916661e-06
3.767101e-05
3.095318e-05
-4.036228e-06
8.827544e-06
-8.522034e-06
4.995921e-05
1.114883e-05
4.777042e-05
1.948576e-05
1.819456e-05
-5.172527e-06
-5.64371e-07
2.75429e-06
3.557274e-05
2.81505e-05
-1.067452e-05
-1.320819e-05
-1.185873e-05
1.73208e-05
1.726431e-05
2.396047e-05
2.253179e-05
2.349409e-05
-8.327129e-06
-1.092886e-05
3.283888e-05
9.703075e-06
1.443404e-05
-9.580739e-06
1.485898e-06
1.402313e-05
3.923709e-05
-1.607036e-06
2.667511e-05
6.099644e-06
4.463438e-06
1.032694e-05
-1.927747e-05
1.289927e-06
-2.738322e-06
2.530788e-06
5.046315e-06
2.446299e-05
2.750126e-05
2.470772e-05
3.108107e-05
3.205701e-06
2.362969e-05
3.576348e-05
6.916354e-06
6.869209e-06
5.623186e-06
-6.068095e-06
8.41247e-06
1.766537e-05
5.956877e-06
7.194268e-06
1.411568e-05
2.154419e-05
3.000065e-05
2.309992e-05
2.27407e-05
-2.966053e-06
1.230221e-05
4.289646e-05
3.945104e-05
3.601192e-05
4.127508e-05
1.0838e-05
-1.316364e-05
5.19939e-05
3.292058e-05
2.46706e-05
3.584637e-06
1.760394e-05
4.061186e-05
4.263232e-05
7.810473e-06
-9.438009e-07
-9.721955e-07
-2.483799e-05
4.049042e-05
3.213504e-05
2.635063e-05
2.973235e-05
3.674857e-05
-2.005723e-05
-3.051687e-06
2.608037e-05
1.06127e-05
1.283618e-05
-1.437942e-05
1.824953e-05
2.014935e-05
-5.560269e-06
1.183309e-05
4.787992e-06
-4.86718e-06
1.13002e-05
5.657373e-05
1.136876e-05
4.364866e-05
7.427738e-06
5.350597e-05
-1.670397e-06
-1.90568e-06
-2.622628e-05
2.485994e-05
1.558404e-05
3.814156e-05
-9.769293e-06
2.463149e-06
2.5368e-06
3.578364e-05
-8.48668e-06
2.13993e-05
1.579106e-06
2.506841e-05
1.813631e-05
2.102471e-05
1.73924e-05
-1.638807e-05
3.89551e-05
1.96366e-05
3.322543e-05
1.546176e-05
-4.588793e-06
-8.287041e-07
3.147921e-05
3.488514e-05
3.732824e-05
1.828782e-05
-6.999169e-06
4.621309e-05
1.059941e-05
4.200877e-05
2.281003e-05
3.537377e-05
4.102259e-05
3.256688e-05
-1.267199e-05
4.401603e-05
2.927724e-05
3.232795e-05
1.540485e-05
-2.045995e-06
3.442116e-05
1.973785e-05
1.370036e-06
4.261975e-05
2.082108e-05
7.230038e-05
3.716257e-05
3.132299e-05
3.416872e-05
3.835907e-05
4.285426e-05
4.368534e-05
3.675289e-05
3.932245e-05
2.462411e-05
3.802367e-05
2.561558e-05
2.613847e-05
3.969308e-05
3.305038e-05
1.482651e-05
-1.340461e-05
2.192857e-05
3.634382e-05
-1.461396e-05
1.867626e-06
1.66817e-05
2.424326e-05
2.837158e-05
4.16569e-05
1.939346e-05
-5.535376e-06
5.001394e-05
3.410101e-05
1.526523e-05
3.423693e-06
-9.237606e-06
3.540046e-05
2.473717e-06
2.77611e-05
2.450629e-05
2.607227e-05
3.164443e-05
5.081526e-05
-1.181311e-06
1.511608e-06
-1.960434e-05
-1.448298e-05
2.117136e-05
2.464717e-05
8.467375e-06
8.123244e-06
5.351993e-06
-1.470324e-06
2.219234e-05
3.324912e-05
2.567469e-05
2.587689e-05
-1.504847e-05
3.174846e-05
1.606567e-05
-4.153545e-06
8.01844e-06
5.169437e-05
5.621821e-06
7.005742e-06
3.528586e-05
2.936271e-06
1.308334e-05
3.192489e-05
4.534059e-05
4.920189e-05
4.184606e-05
4.262858e-05
4.538167e-05
1.941518e-05
3.522651e-06
2.132493e-05
-1.430721e-05
3.929101e-05
2.677868e-05
1.312496e-06
5.554904e-05
-1.704761e-05
4.784625e-06
1.656099e-05
2.148922e-05
2.355948e-05
2.040078e-05
2.043628e-05
2.65776e-05
2.728181e-05
3.577825e-05
-5.463249e-06
-5.448418e-06
-3.056614e-06
6.135717e-06
-5.068493e-06
2.523763e-07
2.651937e-05
7.026324e-06
1.415919e-05
-2.242171e-06
-2.956355e-07
1.578742e-06
2.556834e-05
3.050714e-05
3.159285e-05
3.054445e-05
2.996315e-05
1.438569e-05
1.637336e-05
-6.963786e-06
-7.397865e-06
2.509035e-05
2.320288e-05
2.348798e-05
2.181846e-05
1.79411e-05
-3.639173e-06
-8.680671e-06
-2.925462e-06
-1.111387e-06
3.278455e-05
3.365729e-05
2.059396e-05
-6.536476e-06
3.251899e-05
3.007796e-05
2.193354e-05
1.742037e-05
2.773733e-05
2.868512e-05
-1.324711e-06
-9.362628e-06
-1.022879e-05
-1.197877e-05
-6.661337e-06
3.630563e-05
-4.629297e-06
-1.122222e-05
-1.461642e-05
4.803615e-05
-9.520435e-06
-1.120807e-05
4.213033e-06
2.707334e-05
2.314034e-05
-5.579282e-06
-1.31234e-05
-6.712942e-06
-1.087203e-06
3.007258e-05
3.063201e-05
2.431993e-05
3.196648e-05
5.301125e-06
3.746965e-06
9.707527e-06
2.699526e-05
4.733473e-05
2.489301e-05
2.639822e-05
2.942653e-05
4.719015e-05
4.297273e-05
3.969264e-05
2.087845e-06
3.815965e-05
4.475264e-05
3.445977e-05
5.191406e-06
2.216548e-05
3.855664e-05
2.252248e-05
3.178749e-05
4.72972e-07
-1.093935e-06
2.302388e-05
2.433419e-05
3.811193e-05
2.171618e-05
1.849729e-05
1.624747e-05
2.185211e-05
1.637194e-06
3.438521e-05
2.479141e-05
4.063823e-05
2.670382e-05
3.871404e-05
2.408894e-06
3.081918e-05
1.264077e-05
4.055082e-05
4.347134e-05
4.893653e-05
4.695421e-05
4.61736e-05
3.021692e-05
2.888306e-05
5.383043e-06
2.623733e-05
-9.023326e-06
1.80868e-05
1.918394e-05
2.953791e-05
2.570185e-05
1.41885e-05
3.280788e-05
-7.368612e-06
-1.029784e-05
2.64482e-05
2.631903e-05
3.695864e-05
1.839138e-05
2.805395e-06
-1.963239e-05
3.988893e-05
3.802857e-05
3.835238e-05
4.033018e-06
4.907878e-05
-1.177922e-06
2.667764e-06
1.258459e-05
1.007882e-05
1.12085e-05
3.358578e-05
-1.986247e-06
-5.495975e-06
-3.660829e-06
1.457793e-05
-9.985687e-06
3.876348e-05
-1.894123e-06
-1.211645e-05
6.335123e-06
4.317603e-05
3.633305e-05
2.994353e-05
1.737856e-05
3.047666e-05
3.03723e-05
1.421216e-05
3.67177e-05
1.778862e-05
4.753744e-05
2.145143e-05
2.373342e-05
2.274669e-05
2.346602e-06
3.619188e-05
3.590423e-05
3.581783e-05
8.565057e-07
2.18763e-07
-1.51974e-05
3.896534e-05
3.051727e-05
4.014331e-05
4.046015e-05
2.412488e-05
2.21999e-05
1.252751e-05
4.801615e-05
3.89558e-05
2.634939e-05
1.851879e-05
-1.859197e-05
2.472422e-05
4.111075e-05
-2.621354e-05
3.041277e-05
2.246206e-06
4.463319e-06
2.961615e-05
3.031267e-06
2.750303e-05
2.33624e-05
2.80377e-05
1.593535e-05
3.534078e-05
1.130329e-05
5.250368e-05
5.754047e-05
2.940103e-05
3.064417e-05
4.010676e-05
3.105027e-05
4.107281e-05
2.600144e-05
2.461705e-05
3.581222e-05
4.864608e-05
4.912416e-05
4.633155e-06
-3.477794e-06
-1.430144e-05
-1.498428e-05
2.926474e-05
3.712581e-05
3.818368e-05
2.715857e-05
3.661371e-05
5.706514e-05
2.188058e-05
-2.993635e-06
3.806836e-06
-2.254067e-05
1.943837e-05
2.005375e-05
2.877659e-05
8.561514e-06
2.795462e-05
5.805887e-05
4.012244e-05
2.246189e-05
7.267486e-06
1.645309e-06
-8.872046e-06
3.590461e-05
-2.243237e-05
7.379376e-06
2.837644e-05
2.898249e-05
-1.623049e-05
-8.983503e-06
1.397139e-05
-1.841386e-05
3.721197e-05
-1.213174e-05
2.986436e-05
2.384511e-05
2.195388e-05
3.340363e-05
3.472968e-05
2.647209e-05
2.698944e-05
1.929187e-05
1.591258e-05
6.895341e-05
9.048399e-05
1.67265e-05
1.739705e-05
1.268369e-05
2.304933e-05
1.848909e-05
-2.297541e-06
3.442782e-05
-1.95448e-06
6.147349e-06
7.678496e-06
3.566345e-05
2.54589e-05
-1.148385e-05
4.124215e-05
3.125977e-05
6.121505e-06
7.716913e-06
1.092777e-05
-1.338359e-05
3.466426e-05
1.00934e-05
7.618237e-06
-7.953208e-06
-8.607225e-06
3.544819e-05
3.208077e-05
-6.480904e-06
-9.082336e-06
8.958813e-06
9.282575e-06
3.618061e-05
2.579714e-05
2.506838e-05
2.648214e-05
2.535472e-05
3.942336e-06
-4.232789e-06
4.185559e-05
4.115532e-05
4.281848e-05
3.331222e-05
2.740622e-05
2.653873e-05
1.934404e-06
-5.796069e-06
4.833177e-06
3.592291e-06
7.703798e-07
9.724348e-08
4.540299e-05
5.124662e-05
3.146446e-05
3.094058e-05
4.250897e-06
4.249631e-06
5.27791e-06
1.450813e-05
6.133402e-06
3.721914e-05
-4.283402e-06
1.561443e-05
1.651056e-05
-3.017847e-06
-8.891526e-08
3.374262e-05
-9.907497e-06
2.446483e-05
1.578161e-05
2.386598e-05
-1.109212e-05
1.445553e-05
1.82538e-05
2.063388e-05
-9.746102e-06
-1.393277e-05
-9.520946e-06
1.58029e-05
-7.38109e-06
1.667678e-05
2.078873e-05
-1.570348e-05
2.705998e-05
-5.198571e-06
-6.272321e-06
4.1533e-05
-1.444955e-05
2.262002e-05
2.401755e-05
2.38342e-05
3.727308e-05
3.842344e-05
4.23359e-05
4.37079e-05
2.936433e-05
-4.743123e-06
2.918814e-05
1.787212e-07
8.296674e-07
-1.121359e-06
6.543161e-05
-1.576916e-05
3.668349e-05
3.258889e-05
-3.723348e-06
4.528228e-05
5.848713e-05
1.649329e-05
2.036464e-05
1.35425e-05
6.107051e-05
2.466515e-05
2.605386e-05
2.359209e-05
3.207766e-05
3.252352e-05
-3.636979e-06
3.822168e-05
3.772434e-06
6.998625e-06
3.904555e-05
9.294179e-06
5.206411e-06
4.665397e-06
3.540879e-05
2.202992e-05
-1.557816e-05
3.763452e-06
1.735845e-05
8.341625e-06
-1.504113e-05
2.433562e-05
3.39326e-05
-1.052446e-05
2.529525e-05
3.432853e-05
3.83785e-05
3.625219e-05
3.117746e-05
4.303164e-05
3.813873e-05
3.870952e-05
5.170361e-05
2.004804e-05
1.337137e-05
2.89842e-05
2.393087e-05
2.679719e-05
3.837624e-05
5.00967e-05
5.246118e-05
-6.072514e-06
3.373685e-05
2.259377e-06
2.450577e-05
4.260681e-05
1.877602e-05
2.537986e-05
2.828204e-05
3.258508e-05
3.372035e-05
2.165557e-05
-1.007008e-05
3.912601e-05
2.663905e-05
3.136981e-05
1.071852e-06
-3.126323e-06
1.372166e-07
2.722217e-06
2.920062e-05
-2.936177e-08
-1.339897e-05
2.265978e-05
2.297524e-05
1.99019e-05
2.108116e-05
2.456552e-05
-8.153483e-06
2.662681e-05
2.737017e-05
6.506079e-06
-9.048482e-07
4.008696e-05
4.255208e-05
3.926606e-05
3.950415e-05
3.932273e-05
1.687436e-05
2.929576e-06
2.466518e-05
2.106117e-05
-1.273677e-05
5.588654e-06
5.805925e-06
1.252347e-05
2.372817e-05
1.22933e-05
1.284565e-05
3.960568e-05
3.284614e-05
3.271511e-05
3.863929e-05
3.743103e-05
3.306618e-05
3.859361e-05
3.046915e-05
3.748104e-05
3.923014e-05
1.910131e-05
3.855671e-05
2.806907e-05
3.256154e-05
3.644813e-05
3.33062e-05
-8.991423e-06
9.350188e-06
1.420349e-05
-1.322117e-06
6.963883e-05
6.475972e-05
1.856539e-05
-1.918804e-05
2.808188e-05
5.028561e-05
3.768318e-06
2.978603e-05
2.95356e-05
7.415343e-06
8.89858e-06
2.612507e-05
1.744696e-05
2.955859e-05
2.862619e-05
2.219486e-05
5.151155e-06
8.912559e-06
2.449778e-05
2.676586e-05
2.456914e-06
2.821273e-05
1.066921e-05
3.325507e-05
4.612399e-05
8.959677e-06
2.271375e-05
4.033511e-05
3.050494e-06
2.008424e-05
1.82893e-06
1.202322e-05
2.525723e-05
2.848569e-05
3.574349e-05
1.477519e-05
-1.688168e-05
3.038036e-06
-1.383952e-05
2.371543e-05
1.63559e-05
1.295635e-05
1.421522e-05
4.147368e-05
1.904847e-05
3.906809e-05
2.020071e-05
1.213121e-05
-3.00504e-06
-1.057695e-07
4.321476e-05
5.833445e-05
6.755738e-05
2.231029e-05
-7.690129e-06
2.608359e-05
2.700478e-05
1.970529e-05
2.935778e-05
2.908315e-05
-2.691607e-05
3.03506e-05
-1.11934e-05
2.568221e-05
-8.87014e-06
2.338533e-05
2.142013e-06
-8.052158e-06
3.819834e-05
3.54203e-06
7.195586e-06
3.604605e-05
2.249227e-05
3.841475e-06
2.716565e-05
2.61969e-05
3.735928e-05
1.178728e-05
1.05486e-05
1.001702e-05
1.112464e-05
4.454467e-05
4.28377e-05
3.497573e-05
3.69787e-05
3.481598e-05
3.550823e-05
3.440553e-05
2.679125e-05
7.408292e-05
2.863925e-05
1.088055e-05
2.754351e-05
2.743199e-05
-5.032018e-06
-2.029028e-05
4.296774e-06
1.446884e-06
2.290701e-05
5.168924e-05
1.318155e-05
2.486213e-05
4.323352e-05
7.75666e-06
5.98232e-06
-1.06878e-05
2.714329e-05
2.49987e-05
2.391206e-05
2.773115e-05
3.559107e-05
3.67903e-05
6.129532e-05
3.835208e-05
2.17648e-05
4.230774e-05
4.149965e-05
3.245101e-05
3.567418e-05
2.027238e-05
-4.972641e-06
-9.626283e-06
5.552064e-06
6.673954e-05
1.640641e-05
-3.879064e-06
-1.272644e-05
-1.42803e-06
1.830179e-05
1.299953e-05
2.452828e-05
2.749901e-05
-1.141455e-05
6.01916e-05
5.714459e-05
2.65986e-05
5.630369e-06
6.268666e-05
3.644194e-05
3.682985e-05
9.479061e-06
1.980895e-06
2.859316e-05
2.922415e-05
3.144832e-05
-1.647661e-05
-1.125267e-05
3.739403e-05
3.769109e-05
2.641093e-08
3.653695e-05
2.06625e-05
-1.900152e-05
-2.366054e-05
-1.485292e-05
3.204962e-05
-1.343492e-06
-1.435929e-05
-1.526346e-05
3.081456e-05
2.561749e-05
5.895482e-05
1.179839e-05
4.292578e-05
2.522541e-05
1.726402e-05
-6.128072e-06
-5.009255e-07
1.203779e-05
1.387145e-06
2.979067e-05
2.914752e-05
7.507687e-06
1.10354e-05
2.195947e-05
7.940144e-06
4.569178e-05
3.021426e-06
2.852515e-05
3.187156e-05
2.774574e-05
1.491431e-05
-1.109192e-05
-6.48342e-06
3.161765e-05
2.344738e-05
2.296043e-05
2.629593e-05
4.939301e-06
3.335177e-05
-1.039218e-05
1.240835e-05
5.994899e-05
1.639495e-05
5.279686e-05
-5.877806e-06
6.020592e-08
3.288469e-05
-1.67979e-05
-5.079607e-06
4.910783e-06
1.866851e-05
1.967999e-05
4.256916e-05
4.508694e-05
4.331811e-05
4.190906e-05
4.376125e-05
4.214483e-05
4.407257e-05
3.990351e-05
4.289874e-05
-1.30817e-05
-1.390249e-05
-6.288875e-06
-4.398658e-06
4.053769e-05
4.03526e-05
3.981294e-05
4.124461e-05
4.167575e-05
4.083066e-05
-3.474043e-06
-3.943897e-06
-2.694787e-06
-1.083325e-05
-1.27094e-05
2.644637e-05
6.682844e-06
3.455155e-05
-1.602101e-06
-2.547929e-05
5.068122e-05
-7.59504e-06
-7.322538e-06
-1.787638e-05
3.144833e-05
7.15454e-06
8.008001e-06
-4.397075e-06
-3.040381e-06
2.24889e-05
1.942702e-05
1.068455e-05
5.496928e-05
4.545411e-05
2.321502e-05
2.065725e-05
-2.604671e-06
1.407183e-05
2.225551e-05
2.291395e-05
-4.314917e-06
1.160136e-06
3.664277e-05
5.016341e-06
6.027764e-06
-2.052153e-05
-1.608167e-07
-9.097445e-06
8.921093e-06
9.244773e-06
3.165476e-05
2.994322e-05
2.245329e-05
2.254475e-05
1.844634e-05
-5.677251e-06
-7.5453e-06
-4.653693e-06
2.791789e-05
2.859777e-05
2.848196e-05
-1.569166e-05
-1.831101e-06
-1.323543e-06
1.64952e-05
1.085825e-05
5.028096e-05
1.562939e-05
1.426924e-05
1.697956e-05
3.30206e-05
4.042234e-05
4.527237e-05
2.589159e-06
4.546521e-05
2.49885e-05
3.730884e-05
2.449109e-05
1.543673e-05
5.002711e-06
2.559798e-05
4.108705e-05
7.820594e-06
6.435901e-05
6.419098e-05
2.743467e-05
2.788452e-05
3.337171e-05
3.761079e-05
1.421096e-06
2.570105e-06
3.872124e-06
2.380127e-05
3.928816e-05
3.629119e-05
3.491662e-05
-8.281862e-06
7.370187e-07
1.180151e-06
6.398693e-06
6.316535e-07
3.182889e-05
3.267024e-05
2.632167e-05
2.651321e-05
3.85196e-06
4.299272e-06
-2.480022e-06
1.260366e-05
1.33067e-05
6.004919e-06
3.514969e-05
-1.659941e-06
-1.28754e-06
2.253011e-05
2.224344e-05
2.754732e-05
2.174733e-05
2.20248e-05
2.550903e-05
2.587997e-05
2.823518e-05
2.216235e-05
1.964172e-05
2.921293e-05
3.964848e-05
3.450993e-05
2.603587e-05
4.188141e-06
2.840416e-05
2.848727e-06
4.19615e-06
1.254714e-05
2.565179e-05
2.365552e-05
2.47983e-05
2.510428e-05
2.305133e-05
3.417512e-05
8.891416e-06
3.136641e-05
3.949918e-05
-1.946551e-05
2.346326e-05
2.303618e-05
2.259176e-05
1.643733e-05
1.62823e-05
-1.593622e-05
2.225715e-05
-8.244626e-06
2.444022e-05
-1.073541e-06
2.728081e-05
1.909371e-05
3.93026e-05
3.906983e-05
2.977759e-05
-4.159125e-07
-1.501225e-06
1.377483e-05
6.869997e-06
1.836017e-05
2.519462e-05
3.320099e-05
3.30761e-05
3.249377e-05
4.732994e-06
1.091869e-05
-9.715228e-06
3.854766e-05
3.870764e-05
2.731773e-05
2.566732e-05
8.141992e-06
-8.244499e-07
1.026632e-05
1.197872e-05
2.94797e-05
-3.452746e-05
3.038772e-05
3.036781e-05
4.757483e-05
4.744881e-05
3.297186e-05
-1.738198e-06
1.148602e-07
-1.054639e-05
1.875485e-05
1.875666e-05
3.170405e-05
5.363051e-05
-4.269656e-06
2.339689e-05
4.254083e-06
3.246693e-05
-5.135792e-08
-1.200585e-07
1.611969e-05
2.061813e-05
4.258317e-05
2.707681e-05
-2.138084e-05
-2.087301e-05
4.014083e-05
6.120044e-05
2.69421e-05
-2.09354e-05
-1.598252e-05
3.23963e-05
3.606761e-05
3.390594e-05
3.228084e-05
3.702613e-05
3.631107e-05
3.752807e-05
3.732873e-05
3.44345e-05
3.422691e-05
2.216174e-05
2.532748e-05
2.423511e-05
2.300024e-05
3.657364e-05
3.371934e-05
3.475029e-05
2.575364e-09
3.581118e-05
2.667423e-05
2.102545e-05
2.107389e-05
2.407611e-05
2.296533e-05
7.042029e-07
-8.998091e-06
1.548211e-05
4.046072e-05
3.756187e-05
-1.343448e-05
3.706034e-05
3.675504e-05
3.893222e-05
3.627296e-05
-2.707725e-06
4.218231e-05
-6.635496e-07
1.648533e-06
3.391421e-05
3.997407e-05
3.807271e-05
3.828938e-05
3.693047e-05
2.189494e-05
4.953145e-05
6.170997e-05
9.413459e-06
1.032236e-05
5.595274e-06
1.665441e-05
1.903822e-05
1.948031e-05
4.848256e-05
2.177534e-05
6.103728e-07
2.614051e-05
2.859863e-05
1.12578e-05
3.294337e-05
3.360296e-05
3.675002e-05
3.093473e-06
2.805693e-05
2.721369e-05
-4.279603e-06
5.450436e-06
2.311072e-05
2.390638e-05
-2.223908e-07
6.375347e-05
1.072356e-05
1.0591e-05
9.685801e-06
1.05466e-05
4.888917e-05
5.403353e-05
4.462459e-05
2.321048e-05
-4.129414e-06
2.511552e-05
-1.231045e-05
-1.331815e-05
-2.684205e-08
3.894516e-05
2.523046e-05
-5.4417e-06
2.382229e-05
2.554495e-05
-1.734565e-07
8.922895e-06
-1.125834e-05
-9.42747e-06
3.20563e-05
2.994211e-06
3.607593e-06
2.285473e-05
2.561173e-05
9.990934e-06
4.683436e-05
3.226469e-05
3.285281e-05
6.404136e-05
5.377087e-05
2.176725e-05
1.628201e-05
-1.317196e-05
2.779331e-05
3.581196e-05
3.578538e-05
-2.194664e-05
2.513461e-06
3.150313e-05
3.122327e-05
-4.473452e-06
-3.031385e-06
6.692348e-05
2.032638e-05
1.940282e-05
1.270255e-05
-8.594471e-07
1.431772e-05
-1.502747e-05
7.246804e-07
2.663178e-05
2.33623e-05
5.145831e-06
2.064877e-05
2.55571e-06
2.641401e-06
4.374006e-05
4.326574e-05
2.330104e-05
3.573402e-05
3.590899e-05
2.357562e-05
1.872802e-05
2.436315e-05
2.411045e-05
-7.40549e-07
2.753682e-05
3.100051e-05
4.302566e-05
3.265135e-05
1.126927e-05
1.108098e-05
3.765645e-05
3.578097e-05
-3.417373e-06
-4.036492e-06
2.26651e-06
1.274758e-05
1.034141e-05
1.480437e-05
1.597962e-05
5.624402e-05
2.788211e-05
-2.046095e-05
1.843119e-05
1.664558e-05
1.669404e-05
-1.117927e-06
2.231397e-05
1.592413e-05
4.398105e-05
4.231812e-05
6.10726e-06
1.306315e-05
1.406387e-05
4.302933e-05
3.548995e-05
3.382223e-05
3.362852e-05
-1.391983e-05
3.813982e-05
4.026794e-05
1.810295e-05
2.897099e-05
2.821081e-05
3.665181e-05
3.591012e-05
2.183749e-05
4.215784e-05
4.217558e-05
4.591814e-05
4.225659e-05
4.379424e-05
4.346348e-05
3.745727e-05
4.773404e-05
2.784596e-05
-4.601487e-06
3.858273e-05
-3.730274e-06
-5.504882e-06
2.645559e-05
2.335084e-05
9.833823e-06
9.60452e-06
9.229118e-07
3.279621e-06
4.047197e-05
-6.492761e-06
2.144771e-05
-8.967556e-06
3.928851e-07
3.702961e-05
-5.717282e-06
2.597092e-05
2.635912e-05
3.456665e-05
8.354728e-06
2.880861e-05
3.560744e-05
7.583062e-06
3.242565e-05
2.445841e-05
1.361172e-05
-1.661242e-05
-1.576322e-05
2.547791e-05
2.549696e-05
4.50564e-05
2.504039e-06
4.767097e-05
6.147582e-05
1.259349e-05
3.339483e-05
3.367297e-05
4.677642e-05
1.630323e-05
1.966616e-05
4.661464e-05
4.600291e-05
2.849409e-05
6.999141e-06
5.270889e-06
6.997633e-07
6.497534e-07
6.660017e-06
3.164383e-06
9.326295e-06
-1.456529e-05
1.867611e-06
1.551351e-06
3.913467e-05
6.173969e-06
4.411131e-06
-4.005922e-06
-2.317617e-05
1.68327e-05
5.725202e-06
3.870623e-05
2.517437e-05
2.362626e-05
2.305153e-05
4.624465e-05
6.357702e-06
6.192461e-05
1.52623e-05
2.53714e-05
3.820872e-05
3.190305e-05
-2.007479e-06
2.051192e-05
-6.937179e-06
2.547689e-05
3.96322e-05
1.131913e-05
1.165066e-05
-5.301451e-06
2.529103e-05
3.087717e-05
-7.720843e-06
2.376399e-05
2.295611e-05
5.485455e-06
5.743019e-06
6.778814e-06
2.381823e-05
2.378989e-05
3.0177e-05
4.677077e-05
4.719262e-05
2.906086e-05
-7.416993e-06
3.648445e-05
2.097508e-05
2.026995e-05
3.339403e-05
3.328204e-05
1.006858e-05
4.055778e-06
-6.683239e-06
-6.336575e-06
-3.962432e-06
2.408866e-05
2.519238e-05
3.486352e-06
3.489465e-05
3.54053e-05
3.053402e-05
3.573044e-05
3.449348e-05
3.752185e-05
3.577474e-05
2.276702e-05
3.17564e-05
3.093579e-05
4.393257e-05
5.153124e-05
5.609149e-05
2.825167e-05
-8.072196e-07
-1.075111e-06
5.662948e-05
7.286897e-06
6.996834e-06
-8.489954e-06
3.035555e-05
6.298267e-05
3.7136e-05
3.706574e-05
3.626693e-07
3.307813e-05
3.446085e-05
-1.615188e-06
-7.051309e-06
3.148645e-05
1.911018e-05
3.58272e-05
2.391053e-05
2.351259e-05
4.481365e-06
2.867224e-05
3.571189e-05
3.47501e-05
-1.602108e-05
-1.183745e-05
8.758356e-06
8.477415e-06
3.869775e-05
3.865554e-05
9.089208e-06
4.272213e-05
1.076878e-05
9.979121e-06
1.129345e-05
1.068808e-05
-1.416632e-05
1.67237e-05
2.557324e-05
5.489094e-05
5.29829e-05
2.75061e-05
2.710227e-05
3.906615e-06
5.436775e-06
4.905709e-05
4.935084e-05
-8.992558e-06
3.558263e-05
2.668689e-05
2.597867e-05
2.670351e-05
2.697834e-05
-5.62999e-06
-1.560681e-06
4.597052e-06
7.24135e-06
-1.01245e-05
-7.2721e-06
-1.298749e-05
1.697426e-05
1.438263e-05
1.003006e-05
1.793482e-05
3.72193e-05
3.781626e-05
2.306529e-05
8.802641e-06
4.525854e-05
3.877022e-05
4.745215e-05
1.898815e-05
3.40133e-06
3.195798e-06
4.98411e-05
4.864133e-05
2.41001e-05
2.434508e-05
3.254366e-05
-1.942836e-05
-1.865828e-05
3.548593e-05
3.637779e-05
5.125047e-05
3.029544e-05
3.052569e-05
5.919498e-05
5.891096e-05
5.684559e-05
5.778788e-05
7.177059e-05
-2.157629e-05
1.99806e-05
1.784363e-05
2.824304e-06
-5.18916e-06
-1.297528e-06
1.770915e-06
-7.807591e-06
2.913248e-05
2.723983e-05
-1.483729e-05
5.527521e-06
3.497447e-05
3.062058e-05
1.319772e-05
8.670732e-06
3.259286e-05
-2.815425e-06
3.027223e-05
-1.33087e-05
-1.211082e-05
8.262676e-06
-3.735904e-06
2.533445e-05
-9.451121e-06
-1.385731e-05
7.929465e-06
-6.149592e-06
-5.812824e-06
1.613736e-06
4.098384e-07
-4.894867e-07
-3.075895e-06
1.199405e-05
1.28919e-05
2.257996e-05
2.611478e-07
7.46331e-08
6.520094e-06
3.775613e-05
3.966645e-05
4.000405e-05
3.93283e-05
1.327797e-05
1.349553e-05
7.595183e-06
6.151156e-06
-4.074653e-06
-5.366412e-06
-8.175249e-06
-6.399264e-06
-6.570921e-06
-7.464732e-06
2.046986e-05
2.377105e-05
2.427465e-05