/*--------------------------------*- C++ -*----------------------------------*\
| =========                 |                                                 |
| \\      /  F ield         | OpenFOAM: The Open Source CFD Toolbox           |
|  \\    /   O peration     | Version:  2406                                  |
|   \\  /    A nd           | Website:  www.openfoam.com                      |
|    \\/     M anipulation  |                                                 |
\*---------------------------------------------------------------------------*/
FoamFile
{
    version     2.0;
    format      ascii;
    arch        "LSB;label=32;scalar=64";
    class       volScalarField;
    location    "1.74";
    object      p;
}
// * * * * * * * * * * * * * * * * * * * * * * * * * * * * * * * * * * * * * //

dimensions      [0 2 -2 0 0 0 0];

internalField   nonuniform List<scalar> 
217010
(
-40.31222
-9.414301
-15.96405
-15.43383
-13.16219
-12.3056
-12.73714
-13.56829
-13.75872
-13.28148
-12.20553
-10.64222
-8.433107
-9.136666
-10.58889
-12.1749
-12.82296
-13.0518
-15.49977
-15.26957
-12.3116
-11.74298
-12.51672
-13.54542
-14.51185
-15.71608
-16.69566
-17.43032
-17.86921
-18.60435
-20.00254
-21.11483
-21.77566
-22.45178
-22.94035
-24.03875
-26.33241
-29.07354
-31.40508
-33.41165
-33.60044
-30.59366
-28.01761
-34.73223
-43.30075
-44.00977
-39.21474
-33.61015
-30.15526
-27.70392
-30.20273
-30.23844
-31.4913
-32.76013
-33.91134
-35.06281
-36.28524
-37.59353
-39.01889
-40.53249
-42.12538
-43.97063
-46.26864
-48.6752
-51.33063
-54.35602
-57.54217
-60.75343
-63.93141
-66.86014
-69.87318
-72.97679
-76.03808
-79.23979
-82.75926
-86.49473
-90.35444
-94.23121
-98.06745
-102.0222
-106.4873
-111.4727
-116.7515
-122.2304
-127.8805
-133.712
-139.5478
-145.2952
-150.8453
-156.3609
-161.7754
-166.794
-171.4364
-175.6462
-179.3397
-182.4684
-185.0238
-187.0148
-188.3593
-188.9932
-188.8554
-187.9029
-186.0725
-183.392
-180.2975
-177.6681
-175.0314
-176.202
-188.4471
-192.6387
-175.4334
-154.1619
-141.2413
-130.6194
-118.068
-133.4859
-170.6932
-182.2997
-159.5138
-133.2601
-118.1141
-110.0416
-104.2206
-101.2634
-101.769
-105.9586
-111.7214
-116.444
-117.9463
-115.6674
-112.0619
-109.2374
-107.3158
-105.5067
-103.5402
-101.3886
-100.4257
-101.4897
-102.2686
-100.2588
-95.4326
-87.36909
-80.84082
-76.74482
-74.22826
-71.18473
-73.42504
-73.62485
-65.25245
-75.57818
-61.99818
-67.91157
-72.60078
-81.22636
-90.38943
-99.86029
-110.8447
-123.187
-136.3779
-150.9521
-166.4869
-180.2381
-190.4199
-198.7376
-204.1571
-203.1595
-194.4575
-182.9675
-177.3506
-165.2542
-158.905
-184.9852
-199.711
-197.3516
-186.5086
-178.7398
-170.8774
-160.9406
-162.9481
-164.6842
-166.4737
-167.7514
-168.832
-168.7465
-166.5588
-162.9765
-159.324
-157.2921
-157.1324
-157.1868
-156.789
-155.8386
-156.2379
-157.699
-154.3313
-157.2422
-160.3026
-161.527
-152.5503
-237.5034
-123.6562
-108.3717
-90.82058
-80.60114
-71.92824
-64.81756
-58.7293
-53.25971
-48.51258
-44.24075
-40.37916
-36.86757
-33.57299
-30.47507
-27.58845
-24.92765
-22.44942
-20.07683
-17.81818
-15.66878
-13.62208
-11.68759
-9.862075
-8.076653
-6.338678
-4.644766
-3.028479
-1.505233
-0.03899074
1.399878
2.816377
4.201947
5.518497
6.791994
8.050199
9.279922
10.49419
11.69203
12.88762
14.02091
15.17999
16.27709
17.36405
18.43032
19.48849
20.52226
21.53302
22.54173
23.56482
24.58096
25.57002
26.53797
27.49825
28.47726
29.46038
30.4286
31.39453
32.36218
33.32291
34.28427
35.24416
36.20179
37.16128
38.13768
39.15004
40.165
40.83226
40.39247
38.18371
37.1431
32.67077
60.90076
59.04269
59.49839
58.88784
58.27075
57.66296
57.0054
56.35435
55.7517
55.15821
54.51502
53.85684
53.21716
52.60413
51.99951
51.39328
50.78124
50.17045
49.57842
48.99356
48.39888
47.80548
47.22267
46.63132
46.047
45.45147
44.83435
44.23225
43.64838
43.06363
42.46383
41.83524
41.23733
40.61737
39.98424
39.35368
38.72366
38.07264
37.41404
36.75966
36.09515
35.40213
34.68223
33.96527
33.25707
32.52916
31.77175
30.99682
30.19564
29.37049
28.52906
27.66471
26.79591
25.87958
24.91363
23.92441
22.88781
21.8139
20.67531
19.46161
18.19372
16.85929
15.4013
13.8435
12.08285
10.20533
8.116436
5.623058
3.018728
-1.596017
-2.706924
59.96039
59.07787
59.50754
58.96025
58.3476
57.73679
57.07872
56.42235
55.81402
55.2188
54.57589
53.91522
53.27131
52.65452
52.04726
51.43898
50.82488
50.21143
49.61681
49.02989
48.43345
47.83811
47.25348
46.66035
46.07459
45.47784
44.85945
44.25538
43.66971
43.08357
42.48288
41.85226
41.25445
40.63239
39.99802
39.36636
38.73532
38.08315
37.42357
36.76813
36.10267
35.40844
34.68734
33.96938
33.26033
32.53121
31.77274
30.9969
30.1944
29.36777
28.52487
27.65899
26.78928
25.87038
24.90225
23.91119
22.87178
21.79568
20.65333
19.43566
18.16461
16.82601
15.36344
13.80013
12.0249
10.14027
8.036857
5.530188
2.869473
-1.692811
-3.659111
-126.3552
-108.9042
-91.37036
-80.93459
-72.19731
-65.0287
-58.90437
-53.39074
-48.62473
-44.33699
-40.45908
-36.9362
-33.63178
-30.52415
-27.62826
-24.95959
-22.47639
-20.09863
-17.83493
-15.68113
-13.63062
-11.692
-9.864135
-8.076497
-6.336181
-4.63982
-3.020835
-1.495709
-0.02757987
1.413303
2.831879
4.219528
5.53804
6.813074
8.073336
9.304884
10.52137
11.7215
12.91953
14.05492
15.21573
16.31453
17.40353
18.47215
19.53212
20.56789
21.58106
22.59289
23.61873
24.63696
25.62798
26.59841
27.56203
28.54458
29.53087
30.50195
31.4713
32.44215
33.40651
34.37142
35.33498
36.29634
37.26016
38.24209
39.25667
40.24698
40.83585
40.24326
37.96834
36.75723
36.0821
-62.28792
-67.37999
-71.87995
-80.24095
-89.37377
-98.82346
-109.7488
-122.0451
-135.2077
-149.7679
-165.3728
-179.3242
-189.7186
-198.2632
-204.0636
-203.5337
-195.1859
-183.5286
-177.9118
-165.7019
-158.7626
-184.4123
-199.7731
-197.7053
-186.7599
-178.9091
-171.0759
-160.9917
-162.914
-164.6741
-166.4626
-167.746
-168.8377
-168.7615
-166.5615
-162.967
-159.3088
-157.2798
-157.1279
-157.1864
-156.7818
-155.835
-156.2551
-157.6808
-154.327
-157.3645
-160.3967
-161.538
-154.7451
-220.9992
-30.02213
-30.15555
-31.32626
-32.60099
-33.76919
-34.92828
-36.14848
-37.45205
-38.87196
-40.38235
-41.96751
-43.79066
-46.05994
-48.45653
-51.08666
-54.09327
-57.28949
-60.52216
-63.72709
-66.66406
-69.68022
-72.79325
-75.86036
-79.05869
-82.56925
-86.3053
-90.18135
-94.07455
-97.92002
-101.8731
-106.3312
-111.3115
-116.589
-122.0679
-127.7374
-133.5687
-139.4154
-145.1751
-150.7363
-156.2641
-161.6915
-166.723
-171.3788
-175.6005
-179.3095
-182.454
-185.0179
-187.0168
-188.3674
-189.0067
-188.8746
-187.9306
-186.1135
-183.4473
-180.3446
-177.6563
-174.9918
-176.2204
-188.5443
-192.6428
-175.2644
-153.9209
-141.1112
-130.5156
-118.1283
-134.2853
-171.4096
-182.3582
-158.9151
-132.6851
-117.7518
-109.8249
-104.0888
-101.229
-101.9095
-106.2341
-111.9846
-116.5917
-117.8948
-115.4943
-111.8754
-109.0794
-107.1789
-105.3777
-103.4064
-101.2782
-100.4327
-101.5599
-102.2222
-99.90693
-94.80082
-86.69758
-80.3481
-76.41944
-73.87923
-71.13681
-73.54403
-73.14171
-65.41423
-74.78152
-36.01371
-10.11673
-15.97335
-15.50137
-13.22697
-12.3149
-12.72949
-13.56009
-13.76474
-13.29726
-12.23013
-10.66135
-8.44329
-9.141691
-10.5979
-12.19716
-12.83992
-13.05825
-15.51057
-15.27407
-12.31078
-11.7426
-12.52757
-13.56305
-14.53288
-15.74119
-16.71653
-17.44483
-17.8824
-18.63861
-20.0541
-21.15622
-21.81009
-22.48875
-22.98097
-24.13103
-26.52865
-29.27902
-31.5854
-33.46983
-33.47392
-30.42671
-28.20445
-35.54194
-43.69354
-43.73745
-38.64873
-33.11138
-29.82715
-27.68369
-30.66427
-10.45829
-15.92197
-15.51653
-13.31808
-12.33729
-12.72787
-13.56172
-13.77723
-13.31352
-12.24475
-10.6797
-8.457475
-9.160856
-10.62104
-12.26199
-12.94052
-13.1279
-15.57711
-15.33289
-12.33218
-11.74276
-12.53518
-13.56545
-14.53461
-15.75573
-16.73032
-17.45543
-17.891
-18.67238
-20.10175
-21.18599
-21.83381
-22.51544
-23.00079
-24.19294
-26.64543
-29.49921
-31.80258
-33.56543
-33.42789
-30.25747
-28.13467
-36.18536
-44.31465
-43.91396
-38.41126
-32.84397
-29.64481
-27.66656
-29.90685
-30.11965
-31.28542
-32.56038
-33.72286
-34.87834
-36.0979
-37.39855
-38.81958
-40.32946
-41.90651
-43.72054
-46.01411
-48.40631
-51.03713
-54.0298
-57.22383
-60.46518
-63.67502
-66.62208
-69.63123
-72.7422
-75.8072
-79.00221
-82.53458
-86.26832
-90.12233
-94.01244
-97.86158
-101.8115
-106.2728
-111.2573
-116.5391
-122.0337
-127.6969
-133.5301
-139.3878
-145.1567
-150.718
-156.2549
-161.6925
-166.7267
-171.3924
-175.6211
-179.3357
-182.4822
-185.0481
-187.0436
-188.3991
-189.0444
-188.9237
-188.0031
-186.2335
-183.6532
-180.6352
-177.9081
-175.2224
-176.5306
-188.7547
-192.7852
-175.1704
-153.7931
-140.9972
-130.3183
-117.9567
-135.3259
-172.9069
-183.1524
-158.7008
-132.262
-117.472
-109.6761
-103.9941
-101.1649
-101.9077
-106.4628
-112.258
-116.7761
-118.0326
-115.4723
-111.7923
-109.0181
-107.1328
-105.3097
-103.3329
-101.2336
-100.4684
-101.712
-102.2964
-99.91133
-94.64511
-86.3538
-80.07687
-76.26118
-73.80611
-71.16855
-73.72301
-72.95988
-65.52634
-74.29048
-62.53612
-67.07548
-71.50958
-79.82015
-88.959
-98.37961
-109.3005
-121.5998
-134.7204
-149.3215
-165.0706
-179.1982
-189.6552
-198.3601
-204.3827
-204.2861
-196.8109
-184.858
-178.3568
-165.9925
-158.3523
-183.9801
-200.4318
-198.3973
-186.9813
-178.9974
-171.3379
-161.0668
-162.8821
-164.6793
-166.4667
-167.7501
-168.8592
-168.797
-166.5845
-162.9707
-159.291
-157.2545
-157.1186
-157.1914
-156.784
-155.8331
-156.2782
-157.6804
-154.3219
-157.3683
-160.3512
-161.5602
-155.5461
-203.596
-126.1603
-109.2563
-91.62916
-81.10754
-72.32769
-65.12775
-58.97835
-53.46872
-48.67068
-44.37896
-40.49284
-36.96602
-33.65899
-30.54662
-27.64669
-24.97343
-22.49056
-20.11046
-17.84465
-15.68878
-13.63716
-11.69535
-9.867906
-8.078953
-6.337204
-4.639289
-3.017896
-1.492854
-0.0247911
1.416598
2.835884
4.225477
5.544789
6.818568
8.079943
9.311723
10.53033
11.73145
12.92817
14.0621
15.22339
16.3239
17.41409
18.48256
19.54346
20.57963
21.59249
22.60396
23.63161
24.65174
25.64253
26.61304
27.57606
28.55996
29.54857
30.5201
31.48981
32.46259
33.42748
34.39362
35.35833
36.32059
37.28523
38.27115
39.28814
40.27182
40.81187
40.09966
37.83159
36.77269
37.47805
59.40506
59.03331
59.48402
58.98408
58.37353
57.7607
57.09893
56.43997
55.83168
55.2381
54.59303
53.93099
53.28501
52.66753
52.0597
51.4514
50.83615
50.22107
49.62673
49.03983
48.44215
47.84645
47.26213
46.66754
46.08335
45.48581
44.86474
44.26081
43.67552
43.08952
42.48669
41.85865
41.25894
40.63846
40.00243
39.37045
38.73945
38.08579
37.4261
36.77121
36.10602
35.41057
34.68807
33.97006
33.26179
32.53183
31.77286
30.99676
30.19301
29.36557
28.52198
27.65561
26.78683
25.86607
24.89685
23.90609
22.86466
21.78906
20.64421
19.42513
18.15366
16.81412
15.34995
13.77341
12.00532
10.11349
8.003537
5.487492
2.810996
-1.77558
-3.828936
58.61215
58.96474
59.46373
59.04282
58.44296
57.83196
57.17045
56.51009
55.89866
55.30341
54.65701
53.99404
53.34504
52.72444
52.11388
51.50328
50.88592
50.26809
49.67192
49.08223
48.48195
47.88455
47.29851
46.70125
46.11661
45.51674
44.89277
44.2887
43.70153
43.11413
42.50907
41.88396
41.27639
40.65727
40.01854
39.3859
38.75429
38.09787
37.43762
36.78222
36.11642
35.4184
34.69382
33.9753
33.26744
32.53535
31.77526
30.99847
30.1925
29.36379
28.51876
27.65077
26.78298
25.85788
24.88609
23.89511
22.84909
21.77336
20.62301
19.39972
18.12606
16.78324
15.31182
13.72927
11.95741
10.05205
7.927962
5.402257
2.669085
-1.850744
-4.0884
-126.4024
-109.5713
-92.11022
-81.4037
-72.58168
-65.3215
-59.13146
-53.59341
-48.78127
-44.46998
-40.56597
-37.03005
-33.71443
-30.59136
-27.68243
-24.99897
-22.51426
-20.12823
-17.85749
-15.69703
-13.64285
-11.69493
-9.868213
-8.076533
-6.331858
-4.631077
-3.00463
-1.47833
-0.009254487
1.433307
2.854447
4.248064
5.570637
6.84355
8.107874
9.340956
10.56389
11.76718
12.96067
14.11443
15.26635
16.36852
17.4616
18.53252
19.59522
20.63479
21.65021
22.66421
23.69425
24.71771
25.71076
26.68439
27.65015
28.63654
29.62965
30.60368
31.57607
32.55172
33.51987
34.4885
35.45566
36.41889
37.38288
38.36811
39.37044
40.3047
40.74438
39.89657
37.71144
36.86611
39.22313
-62.89607
-66.68794
-70.90837
-78.95399
-87.98676
-97.34818
-108.2549
-120.5051
-133.5831
-148.2132
-164.0531
-178.3079
-188.901
-197.8481
-204.124
-204.9598
-198.8389
-187.1202
-178.9411
-165.7921
-157.2387
-183.2019
-201.9391
-199.6366
-187.3708
-179.1526
-171.7504
-161.2162
-162.8408
-164.704
-166.4727
-167.773
-168.9046
-168.8564
-166.6186
-162.976
-159.262
-157.2067
-157.1047
-157.1969
-156.7848
-155.8401
-156.3387
-157.6612
-154.3198
-157.4898
-160.3368
-161.4299
-157.6299
-191.7478
-29.60784
-30.02331
-31.1155
-32.3806
-33.57469
-34.74466
-35.96602
-37.26321
-38.68092
-40.18755
-41.75317
-43.5494
-45.83072
-48.18628
-50.78335
-53.76557
-56.97868
-60.23808
-63.45015
-66.38126
-69.36815
-72.55817
-75.62586
-78.79906
-82.27716
-86.01343
-89.91991
-93.85199
-97.72019
-101.671
-106.1367
-111.1188
-116.3964
-121.8855
-127.563
-133.396
-139.2631
-145.0425
-150.6053
-156.1604
-161.6152
-166.6541
-171.336
-175.5756
-179.3009
-182.4556
-185.0269
-187.0346
-188.4205
-189.0763
-188.9721
-188.0808
-186.3668
-183.8935
-181.0248
-178.4011
-175.9577
-177.3649
-188.653
-191.989
-174.6895
-153.758
-140.9175
-129.9666
-117.8718
-136.7009
-174.8801
-183.6248
-158.4375
-131.7165
-117.0953
-109.4219
-103.8174
-101.0133
-101.9208
-106.753
-112.5868
-116.9887
-117.9787
-115.3755
-111.651
-108.8784
-106.984
-105.1647
-103.2009
-101.1192
-100.5671
-101.9488
-102.3598
-99.4626
-94.07844
-85.78369
-79.67868
-76.0067
-73.5626
-71.26431
-73.92721
-72.62896
-65.61778
-73.64512
-25.99078
-11.23506
-15.65933
-15.44508
-13.41956
-12.37501
-12.73227
-13.56661
-13.80008
-13.34537
-12.28624
-10.70772
-8.490575
-9.203903
-10.66175
-12.35783
-13.13429
-13.32967
-15.69634
-15.43287
-12.37146
-11.74219
-12.54749
-13.58538
-14.56068
-15.78823
-16.75668
-17.47587
-17.90402
-18.72274
-20.17995
-21.24693
-21.88889
-22.57964
-23.04606
-24.30135
-26.86563
-29.81617
-32.11943
-33.74392
-33.27573
-29.95562
-28.32698
-36.98587
-45.07103
-43.66327
-37.90798
-32.38853
-29.36389
-27.63223
-22.53011
-11.98619
-15.30138
-15.31124
-13.52546
-12.43036
-12.74755
-13.57684
-13.83464
-13.39768
-12.34937
-10.76162
-8.544851
-9.278725
-10.72669
-12.48632
-13.41438
-13.67622
-15.78564
-15.46185
-12.38017
-11.73069
-12.55507
-13.59452
-14.55041
-15.82588
-16.79005
-17.5063
-17.92595
-18.79876
-20.29018
-21.33103
-21.96743
-22.67388
-23.09579
-24.43494
-27.12361
-30.15014
-32.52338
-34.01356
-33.19211
-29.66139
-28.6125
-38.17049
-46.09644
-43.69533
-37.44346
-31.94029
-29.06299
-27.58041
-29.32653
-29.90808
-31.00663
-32.27128
-33.45986
-34.6323
-35.85473
-37.14839
-38.56716
-40.07486
-41.6272
-43.39804
-45.69885
-48.03799
-50.62754
-53.5898
-56.85442
-60.05315
-63.3393
-66.26904
-69.22763
-72.42526
-75.49451
-78.65932
-82.15537
-85.93901
-89.78055
-93.71267
-97.59935
-101.5502
-106.0295
-111.0163
-116.2897
-121.7842
-127.481
-133.3156
-139.1965
-144.9881
-150.5468
-156.1255
-161.6044
-166.6512
-171.357
-175.6062
-179.3477
-182.5146
-185.0983
-187.1332
-188.5173
-189.1612
-189.0678
-188.2062
-186.5493
-184.1796
-181.4554
-178.9636
-176.9384
-178.3558
-187.5501
-189.3748
-173.6783
-153.9737
-141.2524
-129.9845
-118.3798
-138.7721
-177.2723
-184.8681
-158.2431
-131.1437
-116.6682
-109.1089
-103.5655
-100.7112
-101.945
-107.1432
-113.0108
-117.3333
-118.2015
-115.3487
-111.5338
-108.7677
-106.8706
-105.0279
-103.0614
-101.0536
-100.797
-102.3085
-102.4982
-99.34777
-93.66658
-85.22728
-79.29789
-75.77968
-73.44594
-71.4825
-74.20097
-72.27212
-65.56904
-72.68864
-63.31518
-66.36257
-70.332
-78.14215
-87.12237
-96.42506
-107.3015
-119.5276
-132.5395
-147.2425
-163.302
-177.8191
-188.4922
-197.8116
-204.7182
-205.9148
-201.2682
-190.2511
-180.2494
-165.0517
-155.5214
-182.1172
-204.3214
-201.4972
-187.8325
-179.3697
-172.3957
-161.5196
-162.8101
-164.78
-166.5517
-167.8359
-168.99
-168.9477
-166.6709
-162.9857
-159.2272
-157.1368
-157.0906
-157.2046
-156.7844
-155.8759
-156.4735
-157.6432
-154.2912
-157.644
-160.3038
-161.2002
-159.7974
-183.6497
-126.5242
-109.7163
-92.52397
-81.66958
-72.81865
-65.50181
-59.27949
-53.71989
-48.87142
-44.55345
-40.63282
-37.09063
-33.77019
-30.63772
-27.71908
-25.02265
-22.5409
-20.15061
-17.87567
-15.71041
-13.65404
-11.6977
-9.874862
-8.080767
-6.334182
-4.631297
-2.99794
-1.472117
-0.004722533
1.43895
2.862305
4.260942
5.585623
6.854727
8.12269
9.35596
10.58329
11.78622
12.97453
14.12651
15.28698
16.39022
17.48527
18.55609
19.6205
20.66223
21.67756
22.69075
23.72409
24.75235
25.74562
26.72029
27.68565
28.67501
29.6743
30.64903
31.62295
32.60388
33.57434
34.54549
35.51547
36.48081
37.44599
38.4382
39.4358
40.32215
40.64913
39.7247
37.8131
37.36236
41.48523
57.79306
58.82996
59.41342
59.08039
58.49406
57.88526
57.21922
56.55508
55.94297
55.35049
54.70045
54.03483
53.38014
52.75718
52.14489
51.53367
50.91352
50.29166
49.69587
49.10583
48.50282
47.9043
47.31864
46.71747
46.13608
45.53439
44.90519
44.30118
43.71347
43.12667
42.51941
41.8911
41.28578
40.66838
40.02623
39.39338
38.76201
38.10257
37.4429
36.78844
36.12273
35.42148
34.69427
33.97652
33.2704
32.53558
31.77484
30.99812
30.18924
29.35925
28.51297
27.64366
26.77927
25.84792
24.87349
23.88369
22.83266
21.75965
20.60247
19.37571
18.10234
16.7582
15.28049
13.68457
11.91369
9.997532
7.861147
5.325597
2.547541
-1.877612
-4.350047
56.89497
58.59582
59.3102
59.09803
58.5532
57.95394
57.28288
56.6202
56.01145
55.42235
54.76748
54.10435
53.44645
52.821
52.2054
51.5946
50.9723
50.34474
49.74803
49.15561
48.54865
47.94865
47.36303
46.7558
46.17825
45.57405
44.93796
44.33539
43.74571
43.15792
42.54599
41.92633
41.3115
40.69399
40.04795
39.41496
38.78189
38.11533
37.45528
36.80247
36.13903
35.43268
34.69878
33.98134
33.27974
32.54033
31.77794
31.00245
30.18926
29.35654
28.50666
27.63485
26.77885
25.83884
24.8611
23.87126
22.81175
21.74516
20.57672
19.34421
18.06983
16.72626
15.23935
13.62817
11.85683
9.928967
7.776407
5.233249
2.410767
-1.895606
-4.656962
-126.6566
-109.7118
-92.92543
-81.94064
-73.10215
-65.72088
-59.45805
-53.86827
-48.98154
-44.66305
-40.71433
-37.16217
-33.83998
-30.69097
-27.7549
-25.04243
-22.57392
-20.17721
-17.8939
-15.71871
-13.65894
-11.69166
-9.876409
-8.077774
-6.329015
-4.619091
-2.973567
-1.45238
0.01446423
1.464564
2.890178
4.291823
5.620204
6.884753
8.159227
9.391668
10.62522
11.82892
13.02144
14.19973
15.34251
16.44532
17.54489
18.61854
19.68687
20.7318
21.74656
22.76244
23.80304
24.83822
25.82958
26.80668
27.77222
28.76446
29.77182
30.74682
31.72364
32.70746
33.67704
34.64917
35.61945
36.58138
37.53744
38.52719
39.5048
40.31764
40.51957
39.59563
38.13259
38.35295
43.78705
-63.77759
-66.09396
-69.73502
-77.19804
-86.06426
-95.253
-106.1542
-118.2894
-131.2241
-146.0248
-162.3391
-177.1861
-187.8716
-197.545
-204.7687
-206.7044
-203.9058
-194.0727
-182.8212
-165.0861
-153.8558
-181.3491
-207.6078
-203.9827
-188.4671
-179.6992
-173.2808
-162.1134
-162.8581
-164.9366
-166.7697
-168.0047
-169.1475
-169.0695
-166.7284
-162.9908
-159.1792
-157.0636
-157.0696
-157.167
-156.7767
-155.9431
-156.7491
-157.6003
-154.2177
-157.8838
-160.3372
-160.6931
-160.9639
-175.5632
-28.87085
-29.70347
-30.80271
-32.08165
-33.30075
-34.49067
-35.71927
-37.00863
-38.42781
-39.9351
-41.4752
-43.20934
-45.532
-47.82326
-50.38386
-53.29633
-56.5645
-59.80373
-63.21216
-66.10417
-68.9422
-72.11076
-75.27336
-78.41554
-81.85687
-85.57926
-89.5322
-93.51199
-97.43811
-101.404
-105.9159
-110.9137
-116.1811
-121.6505
-127.3565
-133.1932
-139.0999
-144.9045
-150.4437
-156.058
-161.5434
-166.5886
-171.3447
-175.5968
-179.3509
-182.5288
-185.1179
-187.1478
-188.5194
-189.2414
-189.1743
-188.3554
-186.7685
-184.5149
-181.9476
-179.5726
-177.8999
-179.0868
-185.7624
-186.2986
-172.4026
-154.4149
-142.0129
-130.8024
-120.2791
-141.9325
-179.8414
-185.9029
-157.8648
-130.5049
-116.2553
-108.7544
-103.2185
-100.4806
-102.0279
-107.633
-113.5365
-117.7949
-118.4541
-115.3641
-111.4314
-108.6529
-106.7183
-104.8299
-102.8777
-101.0224
-101.2349
-102.8026
-102.6655
-99.04222
-93.15469
-84.58131
-78.91725
-75.59778
-73.48964
-71.86772
-74.33268
-71.67063
-65.34835
-71.51977
-19.83664
-12.50032
-15.024
-15.36836
-13.75077
-12.52257
-12.76388
-13.58972
-13.88399
-13.48257
-12.4612
-10.87056
-8.621898
-9.36512
-10.82489
-12.63553
-13.76971
-14.10533
-15.74764
-15.16153
-12.29316
-11.70499
-12.55281
-13.60781
-14.60004
-15.8764
-16.83614
-17.55389
-17.9626
-18.9324
-20.4616
-21.46389
-22.08976
-22.81585
-23.15696
-24.60402
-27.46556
-30.61612
-33.01962
-34.40435
-33.31117
-29.58012
-29.26492
-39.8611
-47.36373
-43.62285
-36.85738
-31.42703
-28.72571
-27.48577
-17.48586
-12.70443
-14.91464
-15.34871
-13.87616
-12.64246
-12.74442
-13.60085
-13.93531
-13.62397
-12.66882
-11.11406
-8.777343
-9.477495
-11.01385
-12.84805
-14.18444
-14.54751
-15.5954
-14.56888
-12.05329
-11.65669
-12.51993
-13.62141
-14.54927
-15.94986
-16.90162
-17.633
-18.05489
-19.19364
-20.74074
-21.6755
-22.25664
-22.96055
-23.23608
-24.78472
-27.9208
-31.1904
-33.55786
-34.92579
-33.72111
-29.99358
-30.59376
-42.02201
-48.61468
-43.31608
-35.93652
-30.72716
-28.32923
-27.33743
-28.45182
-29.53284
-30.61732
-31.8923
-33.12411
-34.32652
-35.56135
-36.8448
-38.26582
-39.77207
-41.28429
-43.01492
-45.33943
-47.58682
-50.15377
-52.99517
-56.2451
-59.66968
-63.08681
-65.93857
-68.64472
-71.84636
-75.07435
-78.21111
-81.64062
-85.40005
-89.30694
-93.30737
-97.24702
-101.2107
-105.7875
-110.7856
-116.0989
-121.5612
-127.2364
-133.076
-139.0077
-144.8729
-150.3574
-156.0848
-161.5998
-166.5482
-171.4044
-175.6819
-179.4366
-182.6276
-185.2386
-187.3281
-188.7447
-189.417
-189.3681
-188.5989
-187.0867
-184.9565
-182.5581
-180.2788
-178.8352
-179.6453
-184.0801
-183.5114
-171.092
-154.8748
-143.1103
-132.5817
-124.0764
-146.1324
-181.931
-186.4916
-157.0505
-129.8609
-115.8596
-108.4932
-102.9427
-100.3435
-102.2298
-108.1931
-114.222
-118.4934
-118.8498
-115.4323
-111.3658
-108.5685
-106.5615
-104.6517
-102.7187
-101.1027
-101.9567
-103.4739
-102.9412
-98.67117
-92.49217
-83.74493
-78.54119
-75.50862
-73.78845
-72.43366
-74.02474
-70.55081
-64.96974
-70.2836
-64.25119
-65.89043
-69.07823
-76.12799
-84.75858
-93.62185
-104.8734
-116.861
-129.688
-144.6083
-161.2036
-176.4015
-187.2467
-197.5857
-205.415
-208.0338
-207.006
-198.5583
-186.842
-167.4239
-153.4165
-181.5278
-211.7407
-207.0632
-189.6972
-179.9837
-174.1527
-163.2388
-163.1669
-165.27
-167.2382
-168.379
-169.4387
-169.1794
-166.7348
-162.9331
-159.0866
-157.0081
-157.0207
-157.0555
-156.7738
-156.0187
-157.2361
-157.5158
-154.1123
-158.6277
-160.8012
-160.097
-160.6189
-166.7729
-126.5113
-109.4446
-93.2551
-82.17811
-73.43514
-65.94572
-59.61881
-54.01626
-49.11623
-44.79057
-40.78123
-37.23958
-33.92533
-30.7398
-27.79054
-25.07969
-22.6302
-20.20403
-17.90827
-15.71886
-13.66685
-11.69497
-9.883318
-8.082289
-6.331333
-4.602461
-2.96076
-1.448466
0.02924307
1.480219
2.891008
4.295851
5.6466
6.901023
8.182335
9.411221
10.65522
11.86269
13.05671
14.21675
15.36664
16.47545
17.58489
18.6598
19.72626
20.77046
21.79259
22.81347
23.85133
24.88562
25.87829
26.86426
27.83033
28.82417
29.84198
30.82297
31.79724
32.78292
33.76112
34.74165
35.71431
36.67642
37.62477
38.62229
39.57249
40.2759
40.34953
39.50967
38.59305
39.75973
45.89365
55.90403
58.17351
59.08787
59.04734
58.59279
58.02971
57.3484
56.68232
56.07881
55.49512
54.82396
54.16001
53.49846
52.87537
52.25179
51.63823
51.01488
50.38504
49.79172
49.19443
48.58126
47.98072
47.39532
46.77931
46.209
45.59526
44.953
44.35383
43.7652
43.18128
42.56118
41.92917
41.32084
40.70217
40.05339
39.42899
38.79995
38.12485
37.46303
36.80628
36.14739
35.44262
34.7019
33.97723
33.2831
32.54209
31.77453
31.00092
30.18731
29.35467
28.49886
27.61498
26.77125
25.821
24.84893
23.85878
22.78221
21.73126
20.54702
19.31451
18.03194
16.68978
15.19694
13.57394
11.80147
9.861557
7.691622
5.146528
2.293376
-1.856057
-4.948246
54.9575
57.61048
58.74551
58.90974
58.59167
58.12228
57.44185
56.76296
56.18215
55.63316
54.96008
54.26848
53.58046
52.96728
52.3586
51.7294
51.08198
50.43816
49.86538
49.26754
48.6401
48.04445
47.46454
46.8235
46.30296
45.65484
44.99231
44.40322
43.79396
43.23193
42.60185
41.98902
41.39165
40.74549
40.06064
39.43993
38.81891
38.14424
37.49876
36.83323
36.14674
35.44472
34.72824
33.99414
33.2838
32.55522
31.78486
30.98753
30.17613
29.35443
28.51719
27.61905
26.76636
25.77806
24.82805
23.85739
22.73603
21.71376
20.48696
19.28992
17.9985
16.61281
15.11502
13.48464
11.71119
9.755239
7.55382
5.000049
2.111773
-1.80748
-5.234038
-125.9567
-109.1308
-93.82393
-82.59457
-73.986
-66.14659
-59.8474
-54.29627
-49.37381
-44.90189
-40.82801
-37.38493
-34.03363
-30.78036
-27.88165
-25.17004
-22.64439
-20.17387
-17.91664
-15.72591
-13.71862
-11.72456
-9.855214
-8.109278
-6.311703
-4.573686
-2.992098
-1.408037
0.08222211
1.489507
2.887129
4.369049
5.763788
6.940032
8.241505
9.463952
10.73106
11.93329
13.11591
14.26936
15.45723
16.58275
17.68181
18.75004
19.80018
20.87948
21.91945
22.90849
23.92207
25.00957
26.03316
27.00324
27.96362
28.93705
29.99342
30.9832
31.91371
32.94221
33.94203
34.89797
35.85717
36.8109
37.74215
38.75956
39.65662
40.2144
40.26129
39.72639
39.7288
41.89429
47.67622
-64.64969
-65.78806
-68.45835
-74.95684
-83.25669
-91.57937
-103.2261
-115.3055
-127.7005
-142.9231
-159.934
-174.6476
-185.6136
-197.4151
-205.7123
-208.7673
-210.247
-203.5113
-192.7978
-173.1988
-155.7535
-183.7944
-217.4062
-212.1949
-191.283
-179.9052
-174.924
-164.8256
-164.0712
-166.2209
-168.2588
-169.1512
-169.9871
-169.1665
-166.6688
-162.7194
-158.9343
-156.9928
-157.0238
-156.8835
-156.6943
-156.3723
-158.049
-157.3515
-153.5047
-160.2131
-161.2717
-159.2724
-158.6355
-158.2243
-27.91139
-28.98031
-30.27578
-31.59957
-32.82339
-34.04206
-35.30076
-36.61119
-38.04163
-39.55145
-40.9458
-42.79289
-45.07573
-47.21218
-49.85418
-52.57952
-55.64529
-59.09614
-62.91571
-65.82323
-68.27163
-71.40236
-74.4653
-77.71621
-81.15441
-84.95441
-88.92714
-93.02535
-96.96395
-100.8278
-105.5454
-110.465
-115.8694
-121.4851
-127.13
-132.9257
-138.7545
-144.7325
-150.0914
-155.891
-161.8225
-166.4883
-171.3448
-175.7985
-179.5318
-182.7149
-185.2958
-187.4409
-188.9151
-189.6038
-189.5903
-188.8908
-187.4662
-185.4745
-183.299
-181.0822
-179.8104
-180.2368
-182.7052
-180.9542
-169.966
-155.1948
-144.3544
-135.3229
-129.3847
-150.3044
-182.4776
-185.984
-154.8639
-128.9964
-115.5515
-107.9397
-102.705
-100.4483
-102.6966
-109.0798
-115.2372
-119.4236
-119.3093
-115.5253
-111.3479
-108.4811
-106.2377
-104.3395
-102.6968
-101.4563
-102.9882
-104.1936
-103.0994
-98.129
-91.61162
-82.90428
-78.35136
-75.64229
-74.34007
-72.93281
-73.23446
-68.682
-63.89045
-69.1475
-15.42533
-12.36518
-15.12526
-16.10378
-14.87386
-12.62369
-12.69354
-13.60208
-13.99814
-13.83897
-13.00191
-11.5895
-9.234933
-9.845816
-11.32146
-13.20804
-14.66528
-15.01708
-15.48436
-13.85672
-11.61504
-11.51738
-12.50037
-13.59837
-14.66031
-16.0252
-16.98437
-17.75518
-18.32913
-19.60295
-21.11503
-21.96657
-22.50378
-23.17343
-23.42856
-25.12157
-28.50023
-32.07715
-34.23063
-35.54761
-34.44415
-31.02914
-32.86499
-44.68757
-49.63608
-42.3006
-34.48219
-29.65586
-27.80725
-27.10926
-0.1506085
-0.03440267
1.401175
7.675287
1.039582
-1.231547
0.1160358
8.868425
1.582325
0.4610378
-40.43515
-1.559193
-0.05590203
-1.762547
-2.039656
9.904512
9.629002
-1.224035
4.609398
-54.78364
1.226029
4.375249
0.2452686
4.56685
-0.429062
8.057418
4.295826
6.261391
7.308368
-1.559472
-2.030602
-1.664474
2.586077
0.3949437
5.596656
0.7890264
0.3783678
7.952083
0.3175948
7.465533
7.099196
-0.0396755
-27.73672
1.061957
-66.74026
24.81804
0.1295939
-0.03952418
-0.05907685
7.090664
2.735957
-0.5121015
-0.04393979
-1.638157
6.627766
0.5121669
0.4263037
-2.027157
-3.885347
-0.02954916
-0.5439124
3.298389
-1.031219
0.9677524
7.554065
-0.9207352
-0.8419038
-187.042
33.64046
2.539326
-7.328731
0.8177685
5.960739
7.472633
3.538421
3.187459
2.965885
2.292707
-0.1278119
2.907752
1.333988
1.345313
-2.33994
-0.9927695
-0.5307508
-0.4539064
12.40849
0.2505337
-1.921273
-0.7452851
10.80563
11.06932
8.993328
6.223915
0.5255684
1.03771
9.599765
5.324469
-57.00694
-4.251935
-2.201919
-58.16554
4.621659
-0.9298715
5.158125
7.782538
-1.117451
7.12061
0.1331749
8.974665
0.4857616
-72.8677
0.182817
3.058412
1.377685
0.1080813
-1.071041
-38.71217
-10.52815
5.64596
-1.004359
1.918645
-1.586566
0.122118
7.260658
0.4774253
-0.04317704
-0.5566028
-81.86287
0.8733313
15.72223
10.41595
7.637762
0.6868553
-1.295685
0.4962393
1.277186
-45.20859
1.633668
7.552191
7.639292
7.509104
8.564306
-2.375436
0.3913281
0.8415617
5.12579
-2.890618
-0.2412692
12.09468
-13.4154
-0.5851511
-1.522452
7.91453
5.198525
7.971703
-0.3535127
2.976446
-0.0738526
1.248442
-14.08491
8.267944
0.9915751
0.159276
10.79193
0.7435692
-9.978312
9.746204
1.023288
8.312087
-0.6167648
-0.9000068
0.1792316
6.670285
-1.465468
-0.04294642
-1.326431
-15.60611
-1.177693
-228.8091
-2.697937
8.996261
0.370979
4.695484
-0.5921997
3.4576
8.38527
7.890742
12.57628
0.9922196
0.3638837
0.3897989
1.58413
0.1227439
-71.49781
-0.9041958
2.025227
-4.475854
-7.281787
-0.7855664
23.04149
-6.998109
-0.3494811
8.303719
-6.89728
4.229031
-1.374059
-1.87362
-3.03535
-19.19709
0.1146562
-17.59908
0.1921486
7.358288
-0.05883199
0.4167336
3.258123
-1.487821
6.610241
-27.6224
0.1010659
1.250761
7.339725
-0.2581334
19.36898
-232.6734
3.38047
0.6123462
6.299532
1.492512
-1.418365
1.429258
7.263622
7.078657
-46.19788
24.05469
7.098926
4.506246
-55.76046
0.02013515
5.140121
-0.7530699
-0.1093573
0.57231
-0.1724039
-101.6396
1.980028
1.442204
-0.1604906
4.592668
4.617017
-211.2136
10.23736
0.4744901
0.08901555
-7.349417
1.211143
6.650567
2.168786
0.4285643
8.225277
0.592819
5.484256
0.1912696
6.978904
2.257955
-3.778029
-2.534297
7.392332
-50.75098
1.882254
0.05514929
-1.444248
0.08446241
10.6166
30.00613
7.250116
-4.689888
-12.00766
0.2910168
-2.613727
-17.02051
-103.7127
1.306586
11.89723
-1.110169
3.604473
6.637326
6.449444
2.178343
-18.96912
0.1708598
-61.43224
5.532887
10.23398
-131.744
0.1205826
-3.497999
4.740777
6.12492
-1.253347