/*--------------------------------*- C++ -*----------------------------------*\
| =========                 |                                                 |
| \\      /  F ield         | OpenFOAM: The Open Source CFD Toolbox           |
|  \\    /   O peration     | Version:  2406                                  |
|   \\  /    A nd           | Website:  www.openfoam.com                      |
|    \\/     M anipulation  |                                                 |
\*---------------------------------------------------------------------------*/
FoamFile
{
    version     2.0;
    format      ascii;
    arch        "LSB;label=32;scalar=64";
    class       surfaceScalarField;
    location    "0.48";
    object      phi;
}
// * * * * * * * * * * * * * * * * * * * * * * * * * * * * * * * * * * * * * //

dimensions      [0 3 -1 0 0 0 0];

oriented        oriented;

internalField   nonuniform List<scalar> 
6709
(
-1.776619e-09
1.011343e-09
7.652759e-10
1.598164e-09
-5.676616e-10
-1.030503e-09
-1.615892e-09
-8.496075e-11
1.700853e-09
3.693285e-09
2.70234e-10
-3.963519e-09
1.178344e-09
4.315646e-10
-1.609909e-09
1.129003e-09
-2.02194e-09
8.929371e-10
1.618213e-09
-7.869519e-10
3.250895e-09
-2.97537e-09
-2.755243e-10
1.554079e-09
-1.213596e-09
-3.40483e-10
-2.040691e-09
7.473044e-10
1.293386e-09
-9.032478e-10
-8.091119e-10
1.71236e-09
5.61774e-10
1.132231e-09
-1.694006e-09
-1.914969e-09
7.45727e-10
1.169242e-09
-3.674869e-10
-1.070092e-09
1.437579e-09
-1.322992e-09
1.59288e-10
1.163704e-09
1.643658e-09
-1.071346e-09
-5.723122e-10
-3.75009e-09
7.955806e-10
2.954509e-09
-1.042258e-09
1.859671e-09
-8.174131e-10
-1.192825e-09
9.600329e-10
2.327921e-10
8.83645e-10
1.156537e-09
-2.040182e-09
-1.184845e-09
-3.356723e-10
1.520518e-09
1.697142e-09
-9.058336e-11
-1.606558e-09
-7.924059e-10
1.309721e-09
-5.173147e-10
8.384563e-10
1.05174e-09
-1.890197e-09
-2.271351e-09
1.539561e-09
7.317904e-10
6.840171e-10
6.810742e-10
-1.365091e-09
1.028155e-09
-1.790351e-09
7.621959e-10
-2.962828e-10
-1.353458e-09
1.64974e-09
-8.575228e-11
-1.754242e-09
1.839994e-09
1.620098e-09
-7.483221e-10
-8.717756e-10
1.555601e-09
-6.489627e-10
-9.06638e-10
-9.765878e-10
-1.072999e-09
2.049587e-09
1.528074e-09
-1.571375e-09
4.330139e-11
-1.716116e-09
8.134807e-10
9.026357e-10
1.313069e-09
3.305893e-10
-1.052281e-09
1.761148e-09
1.296721e-09
-4.256128e-10
-8.711084e-10
-4.666691e-10
-1.196511e-09
1.66318e-09
-1.965207e-09
7.467418e-10
1.218465e-09
7.000768e-10
1.159975e-09
-1.860052e-09
-1.645445e-09
6.01521e-10
1.043924e-09
-6.031794e-10
1.68156e-09
-1.078381e-09
-1.083646e-09
-1.26056e-10
1.209702e-09
1.389142e-09
1.345134e-10
-1.523656e-09
1.218531e-09
-2.326175e-09
1.107645e-09
-8.531576e-10
1.561182e-09
-7.080242e-10
1.161435e-09
-7.721147e-10
-3.893208e-10
1.215069e-09
-1.446238e-09
2.311691e-10
-1.392823e-09
9.372232e-11
1.299101e-09
1.197483e-09
3.228859e-10
-1.520369e-09
-1.392417e-09
1.484661e-09
-9.224423e-11
-7.995441e-10
-7.884956e-10
1.58804e-09
-1.238764e-09
4.445016e-11
1.194314e-09
1.376134e-09
-1.62817e-09
2.520357e-10
-2.001088e-09
9.512736e-10
1.049814e-09
-1.57388e-09
1.503986e-09
6.989437e-11
8.618936e-10
-1.632429e-09
7.705352e-10
1.916723e-09
-8.031008e-10
-1.113622e-09
1.72732e-09
-8.732697e-10
-8.540502e-10
-2.889923e-10
-1.141468e-09
1.43046e-09
1.18501e-10
-1.48731e-09
1.368809e-09
-1.003886e-09
-6.46342e-10
1.650228e-09
6.50217e-10
9.614607e-10
-1.611678e-09
-1.12633e-09
-8.417561e-10
1.968086e-09
1.592409e-09
-1.549929e-09
-4.248018e-11
-1.703076e-09
6.991899e-10
-7.73162e-10
1.545667e-09
-7.725052e-10
-1.06583e-09
-1.313625e-09
2.379455e-09
3.62799e-10
1.174343e-09
-1.537142e-09
-1.766164e-09
1.121883e-09
6.442813e-10
1.797322e-09
-1.03794e-09
-7.593824e-10
-7.817237e-10
-6.094018e-10
1.391126e-09
7.328413e-10
1.095817e-09
-1.828658e-09
-6.759776e-09
8.489173e-09
-1.729397e-09
6.950245e-10
-1.766371e-09
-1.664312e-10
1.209858e-09
-1.043427e-09
1.865515e-09
-2.222932e-09
3.574174e-10
1.148617e-09
-1.143201e-09
-5.415507e-12
6.359451e-10
-1.409504e-09
7.73559e-10
3.430792e-09
-3.389639e-09
-4.115347e-11
1.773602e-09
-8.480338e-10
1.320003e-09
5.008982e-10
-1.820901e-09
-1.561183e-09
1.968258e-09
-4.070749e-10
-1.99195e-09
1.005295e-09
9.866549e-10
1.628491e-09
-5.962726e-10
-1.032219e-09
-1.60018e-09
1.018722e-09
5.814583e-10
2.057549e-09
-1.066391e-09
-9.911577e-10
-1.430027e-09
9.445015e-10
4.855256e-10
-2.032085e-09
3.803461e-10
1.651739e-09
6.757426e-10
9.697458e-10
-1.645488e-09
1.648476e-10
1.181767e-09
-1.346615e-09
1.595824e-09
-6.778982e-10
-9.17926e-10
1.246789e-09
1.906295e-10
-1.437419e-09
1.060566e-09
2.191011e-10
1.216604e-09
4.731731e-10
-1.689777e-09
-1.194059e-09
1.75065e-09
-5.56591e-10
-5.225858e-10
1.823795e-09
-1.301209e-09
-9.803892e-10
1.653809e-09
-6.734196e-10
9.865103e-10
-1.862635e-09
8.761244e-10
-8.877294e-10
1.578734e-09
-6.910045e-10
-1.031203e-09
-3.473942e-10
1.378597e-09
3.949673e-10
-1.329927e-09
9.349594e-10
1.91535e-09
-9.825568e-10
-9.327931e-10
-1.494703e-09
4.821091e-10
1.012593e-09
8.132341e-10
6.797953e-10
-1.493029e-09
6.111815e-10
9.869828e-10
-2.705328e-10
1.702201e-09
-1.431669e-09
3.935163e-10
-1.663065e-09
1.269549e-09
-1.093909e-09
1.907962e-09
-8.14053e-10
-1.568339e-09
7.664225e-10
8.019166e-10
1.142552e-09
-1.934242e-09
7.916898e-10
-1.402404e-09
-5.64113e-10
1.966517e-09
-1.494355e-09
1.873708e-09
-3.793523e-10
1.225957e-09
-1.124441e-09
-1.015164e-10
7.90753e-10
-2.027241e-09
1.236488e-09
1.166124e-09
8.459693e-10
-2.012093e-09
7.874377e-10
-1.519129e-09
7.316909e-10
1.75392e-10
1.276303e-09
-1.451695e-09
7.700981e-10
1.031692e-09
-1.80179e-09
-1.780661e-09
1.007791e-09
7.728696e-10
7.210869e-10
-1.875125e-09
1.154038e-09
1.926499e-09
-1.186329e-09
-7.401694e-10
1.29051e-09
-2.082326e-09
7.918161e-10
-1.455017e-09
2.266173e-10
1.2284e-09
1.323539e-09
1.603506e-10
-1.483889e-09
1.443368e-10
-5.114838e-10
1.229275e-09
-7.177914e-10
-2.136821e-09
1.206429e-09
9.303914e-10
-5.844646e-10
1.683073e-09
-1.098608e-09
-4.600153e-10
1.729638e-09
-1.269623e-09
2.088164e-09
-1.00085e-09
-1.087314e-09
-7.72032e-10
1.062106e-09
-2.900743e-10
4.895763e-10
1.207372e-09
-1.696948e-09
6.417881e-10
5.841691e-10
1.069493e-09
-3.014204e-10
-7.680731e-10
-1.519931e-09
1.264685e-10
1.393463e-09
8.644616e-10
9.419526e-10
-1.806414e-09
-5.367083e-10
1.40145e-09
-8.647421e-10
1.110525e-09
-1.889113e-09
7.785874e-10
-6.029385e-10
-1.000207e-09
1.603146e-09
-5.49491e-10
-1.960338e-09
1.223645e-09
7.366927e-10
1.072263e-09
-1.88716e-09
8.148967e-10
-9.017434e-10
-1.103863e-09
2.005606e-09
1.355512e-09
-1.153916e-09
-2.015958e-10
1.88868e-09
-1.722729e-09
-1.659511e-10
1.436166e-09
-3.710489e-10
-1.065117e-09
1.488164e-09
-2.876173e-10
-1.200547e-09
-9.148377e-10
-8.3969e-10
1.754528e-09
8.493563e-10
7.389927e-10
-1.588349e-09
-8.018938e-10
1.929412e-09
-1.127518e-09
-1.269968e-09
-5.976753e-11
1.329736e-09
-2.639684e-10
2.052044e-09
-1.788076e-09
-1.103935e-09
1.982151e-09
-8.782155e-10
-1.038804e-09
1.850751e-09
-8.119465e-10
-9.219403e-10
1.735947e-09
-8.140065e-10
-1.532543e-09
-1.344853e-10
1.667028e-09
-3.741378e-10
1.692242e-09
-1.318105e-09
1.703667e-09
-1.813628e-09
1.099604e-10
-2.430603e-11
1.585023e-09
-1.560717e-09
5.476038e-10
-1.896971e-09
1.349368e-09
7.2593e-10
-1.714302e-09
9.883721e-10
-5.352271e-10
1.784393e-09
-1.249166e-09
4.910469e-10
1.03909e-09
-1.530136e-09
2.178457e-09
-1.475372e-09
-7.030844e-10
-4.645816e-10
-1.129697e-09
1.594279e-09
1.031271e-09
-1.087899e-09
5.662834e-11
2.404671e-11
-1.667898e-09
1.643851e-09
-4.674902e-10
-1.14673e-09
1.614221e-09
-2.161881e-10
1.592322e-09
-4.991288e-10
-1.401324e-09
1.900453e-09
1.877431e-09
-8.205197e-10
-1.056912e-09
9.323791e-10
1.164485e-09
-2.096865e-09
9.749284e-10
-2.080523e-09
1.105595e-09
8.406328e-10
1.172369e-09
-2.013002e-09
-1.703633e-09
1.28996e-09
4.136737e-10
-7.109699e-10
1.386712e-09
-3.90727e-10
-1.333726e-09
1.724453e-09
-1.789139e-09
6.861773e-10
1.102962e-09
8.130746e-10
-1.855332e-09
3.994628e-10
-1.707301e-09
1.307838e-09
-1.087068e-09
-1.031274e-09
2.118342e-09
-9.72555e-10
1.944206e-09
-9.716513e-10
-2.765527e-10
-1.231831e-09
1.508384e-09
1.438762e-09
-1.919729e-10
1.498681e-09
3.916464e-09
-5.415145e-09
2.133255e-09
-1.184069e-09
-9.491851e-10
1.611529e-09
-2.01488e-10
-1.410041e-09
1.406032e-09
-1.447428e-09
4.139551e-11
-1.285978e-09
7.633926e-10
-1.245819e-09
1.97866e-09
7.8391e-10
1.329879e-09
-2.113789e-09
-1.301439e-09
1.344642e-09
-4.320274e-11
-1.76267e-09
1.40054e-09
3.621308e-10
7.028749e-10
1.279544e-09
-1.982419e-09
-1.691922e-09
9.344773e-10
7.574442e-10
9.472163e-10
8.501057e-10
-1.036949e-09
-2.505812e-10
1.28753e-09
-4.235668e-10
1.572184e-09
6.537816e-10
-1.407489e-09
7.53707e-10
-1.814736e-09
2.679086e-10
1.546827e-09
-1.321994e-09
3.593166e-10
9.626779e-10
2.10695e-09
-1.383262e-09
-7.236882e-10
9.148782e-10
-1.702715e-09
7.878365e-10
-9.054965e-10
1.69625e-09
-9.938844e-10
-7.971826e-10
1.791067e-09
-1.349992e-09
-6.161884e-10
1.96618e-09
1.454116e-09
-1.618202e-09
1.009713e-09
6.084892e-10
-1.041436e-09
1.845069e-09
-8.036331e-10
-8.01541e-10
-7.615398e-10
1.563081e-09
-8.137917e-10
1.725043e-09
-9.112516e-10
1.966167e-10
1.334492e-09
-1.531108e-09
-1.338586e-09
-3.588979e-10
1.697484e-09
1.086627e-09
-2.101211e-09
1.014584e-09
-3.91104e-10
-1.524843e-09
1.915947e-09
1.835347e-09
-9.180622e-10
-9.172846e-10
9.061037e-10
-1.848317e-09
9.422131e-10
-1.936721e-09
1.267469e-09
6.692513e-10
1.642892e-09
-4.262883e-10
-7.605471e-10
-8.488072e-10
-6.678508e-10
1.664673e-09
-9.968223e-10
-1.31485e-09
1.731878e-09
-4.170281e-10
-1.544875e-09
-1.919032e-10
1.736779e-09
-2.858059e-10
1.541327e-09
-1.255521e-09
-2.205304e-10
1.526805e-09
-1.306275e-09
-1.376551e-09
-5.116504e-10
1.888202e-09
1.845825e-09
-9.397217e-10
-2.110357e-09
1.121453e-09
9.889042e-10
8.042989e-10
9.339352e-10
-1.738234e-09
1.629778e-09
-6.367808e-10
-9.929969e-10
-7.075137e-10
-9.972505e-10
1.704764e-09
9.90675e-10
6.300136e-10
-1.620689e-09
-5.052517e-10
2.181694e-09
-1.676442e-09
1.156387e-09
-1.816952e-09
6.60565e-10
1.482389e-09
-1.906321e-09
4.239328e-10
-5.880715e-10
1.730623e-09
-9.490403e-10
1.933103e-09
-9.840629e-10
-1.503043e-09
1.324972e-09
1.780711e-10
-1.27169e-09
-7.507647e-10
2.022455e-09
-1.048297e-09
1.859337e-09
-8.110402e-10
7.903927e-10
-8.514588e-10
-7.581336e-10
-8.055322e-10
-1.125088e-09
1.93062e-09
1.759808e-09
-9.694153e-10
-5.339314e-10
1.807722e-09
-1.734683e-09
8.093667e-10
9.253159e-10
-7.179553e-10
1.858732e-09
-1.140776e-09
4.56448e-10
-1.650439e-09
1.193991e-09
1.789918e-09
-1.29344e-09
-4.964784e-10
-1.554127e-09
8.297028e-10
7.244243e-10
3.056693e-10
-1.770571e-09
1.464902e-09
1.510004e-09
-2.405445e-10
-1.269459e-09
1.957366e-09
-9.185187e-11
-1.567125e-09
3.049813e-10
1.262144e-09
8.030973e-10
1.026593e-09
-1.829691e-09
1.612006e-09
-8.466218e-10
-7.653842e-10
2.401397e-10
-1.676835e-09
1.436695e-09
-2.286827e-09
5.640018e-10
1.722825e-09
6.402172e-10
8.385238e-10
-1.478741e-09
-2.133415e-09
1.53279e-09
6.006247e-10
4.537164e-10
-1.747791e-09
1.294075e-09
-8.261741e-10
1.82234e-09
-9.961664e-10
-6.718007e-10
1.756589e-09
-1.084788e-09
4.422183e-10
-1.220513e-09
7.782945e-10
-3.686956e-10
1.420177e-09
-1.051482e-09
-1.959557e-09
1.233198e-09
7.263592e-10
-1.261255e-09
-3.815905e-10
1.642845e-09
6.073645e-10
1.004165e-09
1.536345e-09
-8.152586e-10
-1.558165e-09
6.137678e-10
9.443975e-10
-1.905258e-09
8.408554e-10
1.064403e-09
-1.031154e-09
-4.009557e-10
1.43211e-09
1.290243e-10
1.634685e-09
-1.763709e-09
2.518302e-10
1.357397e-09
-1.609227e-09
-1.080629e-09
1.854633e-09
-7.740042e-10
9.312424e-10
-2.208448e-09
1.277206e-09
7.643462e-10
8.092155e-10
-1.573562e-09
-1.195883e-09
-5.387991e-10
9.529104e-10
-1.733264e-09
7.803536e-10
3.800534e-10
-1.681493e-09
1.615614e-09
3.417526e-10
-2.661943e-11
-1.382773e-09
1.409393e-09
-6.930725e-10
-9.151637e-10
1.744558e-10
-1.47269e-09
1.298234e-09
9.245275e-10
8.098371e-10
-1.734365e-09
-6.271204e-10
1.538068e-09
-9.109478e-10
7.462472e-10
1.041999e-09
-1.788247e-09
-1.363246e-09
1.286596e-09
7.664997e-11
3.697392e-09
6.830025e-10
-4.380394e-09
9.068285e-10
9.285183e-10
3.889631e-09
-5.266853e-09
1.377221e-09
-1.033977e-09
-7.241776e-10
1.758155e-09
1.936549e-09
-2.650717e-10
-1.671477e-09
-1.036479e-09
-6.249057e-10
1.661385e-09
-9.519282e-10
1.27058e-09
-3.186518e-10
1.623591e-09
-1.064401e-09
-5.591899e-10
8.476139e-10
7.610972e-10
-1.608711e-09
-1.798969e-09
1.262261e-09
8.156409e-10
1.04403e-09
-7.674885e-10
-9.736264e-10
1.741115e-09
-9.123405e-10
1.76535e-09
-8.530098e-10
-1.887328e-09
8.329949e-10
1.054333e-09
-1.797806e-09
9.716316e-10
1.020431e-09
-1.997019e-09
3.506987e-09
-6.595985e-09
3.088998e-09
1.582287e-09
-7.135614e-10
-8.687252e-10
-1.773641e-09
1.021822e-09
7.518186e-10
-1.546185e-09
1.257192e-09
-2.008192e-09
1.316895e-09
6.912968e-10
1.639975e-09
-1.465519e-09
-1.112811e-09
1.922076e-09
-8.092648e-10
4.603922e-10
9.436999e-10
-1.404092e-09
1.822619e-09
-1.599054e-09
-2.23565e-10
-1.362794e-09
1.560748e-09
-1.979534e-10
4.903201e-10
1.046025e-09
7.822252e-10
1.073149e-09
-1.855374e-09
1.270039e-09
-1.486444e-09
2.164053e-10
1.206456e-09
4.974761e-10
-1.703932e-09
8.805346e-10
2.550258e-09
1.669712e-09
-5.860939e-10
-1.083618e-09
2.092588e-09
-3.252919e-09
1.160332e-09
-1.19252e-09
-5.036822e-10
1.696202e-09
-1.485022e-09
1.030679e-09
4.543433e-10
-4.95655e-10
1.628051e-09
-1.132396e-09
1.269116e-09
-2.084569e-09
8.154531e-10
-1.062711e-09
-7.350943e-10
4.373929e-10
-1.795992e-09
1.3586e-09
-1.657451e-09
4.649319e-10
-7.855153e-10
-1.023999e-09
1.809514e-09
-7.699762e-10
1.761585e-09
-9.916084e-10
-1.01195e-09
1.463041e-09
-4.510904e-10
1.068264e-09
6.014481e-10
-1.389678e-09
4.352336e-10
9.544449e-10
8.923235e-10
7.649537e-10
-1.657277e-09
-1.815851e-09
9.626929e-10
1.52833e-09
-1.409829e-09
-4.961247e-10
1.771297e-09
-1.275172e-09
-6.402637e-10
-9.453094e-10
1.585573e-09
-1.953984e-09
1.4425e-09
-1.570187e-09
1.835791e-09
-2.656038e-10
-5.76198e-10
-7.729403e-10
1.789783e-09
-1.016842e-09
1.395825e-09
-2.023096e-09
6.272712e-10
8.479451e-10
9.627875e-10
-1.810733e-09
-6.472305e-10
-1.147946e-09
1.795176e-09
-9.336981e-10
-6.712838e-10
1.604982e-09
1.806278e-09
-7.682165e-10
-1.038062e-09
6.518374e-10
8.297215e-10
-1.481559e-09
1.512881e-09
-1.450942e-09
-6.193903e-11
1.734276e-09
-2.292746e-09
5.584693e-10
2.612167e-10
-1.839748e-09
1.578531e-09
1.448189e-09
-7.673676e-10
-6.808209e-10
-1.830685e-09
7.178731e-10
-7.817016e-10
-1.051638e-09
1.83334e-09
5.806904e-09
-1.917272e-09
-2.105373e-09
1.095938e-09
1.009435e-09
-9.330419e-10
-1.247743e-09
2.180785e-09
-1.191781e-09
-6.823949e-10
1.22431e-09
8.1659e-10
-2.0409e-09
1.168688e-09
-1.433444e-09
2.647563e-10
-1.561273e-09
8.345144e-10
7.267587e-10
4.48675e-11
1.357773e-09
-1.402641e-09
1.569888e-09
-1.42228e-09
-1.476078e-10
9.879142e-10
-5.611821e-11
-9.317959e-10
-3.74085e-10
-1.305565e-09
1.67965e-09
-1.820865e-09
5.641864e-10
1.256679e-09
1.824026e-09
-9.476806e-10
-8.76345e-10
-1.705829e-09
5.5381e-09
-3.832271e-09
1.420071e-10
-1.64671e-09
-1.72117e-09
-4.122451e-10
-1.613972e-09
6.92032e-10
-1.34599e-09
1.390857e-09
7.492618e-11
1.093762e-09
-2.314705e-10
-1.863356e-09
2.094827e-09
8.62348e-10
8.649719e-10
9.235549e-10
9.657951e-10
-1.88935e-09
1.2569e-09
-1.042713e-09
-2.141868e-10
8.730763e-11
-1.488621e-09
1.401313e-09
1.364517e-09
3.736341e-10
-1.738151e-09
1.786426e-09
-1.238355e-09
-5.480716e-10
-4.775108e-09
3.003173e-09
1.771935e-09
-1.506072e-09
1.417486e-09
8.858618e-11
-7.718912e-10
-1.187666e-09
-1.728303e-09
1.156643e-09
5.7166e-10
-1.135487e-10
1.431642e-09
-1.318093e-09
2.724577e-10
-1.549535e-09
1.277077e-09
-1.447245e-09
1.034377e-09
4.128673e-10
1.280958e-09
1.13455e-09
8.492273e-10
-1.983778e-09
8.156422e-10
-1.676716e-09
8.610742e-10
1.666284e-09
-1.176708e-09
8.941347e-10
-1.677128e-09
7.829935e-10
8.377285e-10
-1.646245e-09
8.085167e-10
-2.463932e-09
9.929036e-10
1.471029e-09
2.150142e-09
-6.017939e-10
-1.548348e-09
3.293566e-09
-3.845735e-09
5.521694e-10
-3.397393e-10
-1.053377e-09
1.393117e-09
6.657217e-10
-1.699699e-09
-7.963132e-10
-5.395207e-10
1.335834e-09
1.058685e-09
-1.554809e-09
-1.906489e-09
1.080287e-09
8.262017e-10
-1.336133e-09
-3.742887e-10
1.710421e-09
-2.241785e-09
1.210631e-09
-6.127622e-10
-7.269403e-10
1.339702e-09
-3.02395e-09
5.026896e-10
2.52126e-09
-4.481893e-10
-1.517017e-09
1.877373e-09
-7.898707e-10
-1.455869e-09
3.731116e-10
1.082757e-09
-2.101684e-09
8.192679e-10
1.282416e-09
1.515176e-09
-1.664917e-09
1.497405e-10
7.491253e-10
-1.668845e-09
6.884561e-10
8.260174e-09
1.769058e-10
-8.43708e-09
-1.226205e-09
1.286455e-09
-6.024987e-11
2.079084e-09
-9.754676e-10
-1.103616e-09
1.831268e-09
-2.079128e-10
-1.623355e-09
-2.080134e-09
1.312096e-09
7.680374e-10
-1.08169e-09
-4.185162e-09
1.671151e-09
-8.81682e-10
-7.894686e-10
2.079741e-09
-9.716627e-10
-1.108078e-09
-1.692169e-09
1.19304e-09
2.083448e-09
-9.762977e-10
-1.107151e-09
-5.327495e-10
-1.191537e-09
1.724287e-09
-1.768414e-09
7.862084e-10
9.822056e-10
1.653549e-09
5.011849e-11
8.070307e-10
-1.845835e-09
1.924296e-09
-1.270364e-09
-6.539316e-10
1.857318e-09
-1.007962e-09
-1.045507e-09
1.858582e-09
-1.453556e-09
2.014198e-09
-5.606417e-10
3.738694e-10
-1.515337e-09
1.885529e-09
-1.385812e-09
-4.997177e-10
3.02894e-10
1.290389e-09
-1.593283e-09
3.130698e-10
1.386358e-09
-1.699428e-09
-1.67772e-09
1.182065e-09
3.34856e-10
1.077816e-09
-1.659539e-09
9.520256e-10
-2.069226e-10
-1.054332e-09
-1.50609e-09
1.464913e-09
4.117752e-11
-7.506508e-10
2.070654e-09
-8.693142e-10
-1.27729e-09
2.146604e-09
-7.551978e-10
2.021485e-09
-1.266287e-09
1.747685e-09
-1.475227e-09
7.62694e-10
-1.579357e-09
8.166629e-10
5.67753e-10
6.615223e-10
-1.31221e-09
-1.13343e-10
1.425553e-09
-3.330801e-10
-1.30651e-09
1.63959e-09
-8.148625e-10
5.213824e-10
1.069031e-09
-1.590414e-09
-1.174494e-09
1.287941e-09
-1.134471e-10
-1.284691e-11
1.388988e-09
-1.376141e-09
1.106848e-09
9.728925e-10
2.078275e-09
-9.725235e-10
-1.105751e-09
-1.104559e-09
-9.755743e-10
7.57965e-10
-1.691128e-09
9.331627e-10
-7.113936e-10
1.756037e-09
-1.044643e-09
9.736398e-10
1.104635e-09
-2.078061e-09
1.33391e-09
7.441505e-10
1.89744e-09
-1.139475e-09
7.557688e-10
-2.027459e-09
-2.103149e-10
-1.015569e-09
1.225884e-09
-1.744492e-09
1.060661e-09
6.83831e-10
-1.104617e-09
-9.745738e-10
2.07919e-09
-4.100709e-10
-1.293562e-09
-1.205282e-09
1.097084e-09
1.081977e-10
2.778573e-10
1.232147e-09
1.103034e-09
-2.00853e-09
-4.739739e-10
-1.197742e-09
1.671716e-09
-1.69908e-09
5.805842e-10
1.118496e-09
-7.261197e-10
1.964615e-09
-1.238495e-09
1.702534e-09
-1.410017e-09
1.910495e-09
-1.143564e-09
-7.669313e-10
-7.454515e-10
1.880002e-09
9.717172e-10
8.36475e-10
-1.808192e-09
-1.131163e-09
1.552973e-09
-4.218091e-10
-9.369775e-10
-7.856785e-10
1.722656e-09
-1.858439e-09
1.036681e-09
8.217573e-10
-1.888674e-09
3.808117e-11
1.850593e-09
-1.892298e-09
1.56518e-09
3.271186e-10
1.305531e-09
-4.006437e-10
-9.048875e-10
3.24168e-10
1.534343e-09
-1.858511e-09
1.531875e-09
-1.795843e-09
1.868361e-09
-7.532027e-10
-1.115158e-09
5.450416e-10
1.319031e-09
-1.864072e-09
1.809247e-09
-1.157608e-09
-6.516382e-10
1.745684e-10
-1.400774e-09
-1.782584e-09
1.207199e-09
5.753851e-10
8.045176e-10
8.136955e-10
1.355654e-09
-1.941748e-09
-1.873742e-09
6.265836e-10
1.247158e-09
2.517048e-09
7.338461e-10
9.006254e-10
-2.190081e-09
1.289456e-09
-1.411068e-09
-2.315623e-10
1.64263e-09
-8.136752e-10
1.685757e-09
-8.720818e-10
-1.603716e-09
1.171727e-09
4.319899e-10
-7.929571e-10
-4.965641e-10
1.289521e-09
1.097682e-09
4.563973e-10
-1.682549e-09
9.008251e-10
7.162631e-10
8.604124e-10
-1.576676e-09
1.751047e-09
-5.4813e-10
-1.202917e-09
-1.854321e-09
8.08814e-10
-1.046737e-09
1.598334e-09
-5.515965e-10
1.116553e-09
-1.788353e-09
8.826556e-10
7.172026e-10
-1.599858e-09
4.400643e-10
-1.656753e-09
1.216689e-09
-9.965034e-10
-3.959132e-10
7.728943e-10
-1.24074e-09
4.678459e-10
9.312035e-10
9.812834e-10
-1.912487e-09
-7.834421e-10
1.30446e-09
-5.210176e-10
3.761686e-10
9.632574e-10
-1.339426e-09
-1.833606e-09
1.219601e-09
6.140055e-10
1.94409e-09
-1.371808e-09
-5.722818e-10
8.441787e-10
-1.706472e-09
-1.560211e-09
9.293497e-10
6.308617e-10
1.117361e-09
8.814095e-10
-1.998771e-09
4.251064e-10
-1.761239e-09
-1.606724e-09
1.127594e-09
4.791302e-10
8.11993e-10
7.456964e-10
-1.557689e-09
-1.107928e-09
-4.591969e-10
-5.212347e-09
2.068873e-09
3.143474e-09
-1.834259e-09
2.82374e-10
1.551885e-09
1.738888e-09
-7.523782e-10
3.12961e-09
1.459902e-09
-2.019114e-09
-1.370525e-09
5.305879e-11
-2.571106e-09
2.518047e-09
-5.905723e-10
-7.648079e-09
8.238651e-09
-1.357993e-09
7.723759e-13
1.35722e-09
-1.082624e-10
-1.412942e-09
1.521204e-09
-2.114623e-09
5.077583e-10
1.606865e-09
-7.253027e-10
1.600406e-09
-8.751038e-10
-1.924235e-09
8.436058e-10
1.542826e-09
-7.36762e-10
-8.06064e-10
9.467067e-10
-1.676442e-09
7.297353e-10
1.67949e-09
-7.148735e-10
-9.646162e-10
-6.755276e-10
1.557865e-09
-8.823375e-10
-8.519522e-10
-5.677394e-10
1.419692e-09
7.606491e-10
1.265681e-09
-2.02633e-09
-5.522434e-10
-1.093329e-09
1.645572e-09
1.608141e-09
-3.166028e-10
-1.291538e-09
1.697721e-10
-1.608728e-09
1.438955e-09
-1.523974e-09
4.871787e-10
1.036796e-09
1.22913e-09
2.567489e-10
-1.485878e-09
1.271667e-09
-2.022432e-09
-8.66156e-10
1.688913e-09
-8.227566e-10
3.864963e-09
-2.984429e-09
-7.845168e-10
-1.140542e-09
1.925059e-09
-7.979358e-10
-1.004522e-09
1.802458e-09
-1.192607e-09
1.725829e-09
-5.332222e-10
1.07762e-09
-1.542202e-09
-6.362164e-10
-1.140403e-09
-9.4847e-10
-2.45515e-10
1.193985e-09
-6.354318e-10
1.404645e-09
-7.692131e-10
1.761331e-09
-9.986371e-10
1.562708e-09
-1.757138e-09
1.944293e-10
1.541981e-09
-1.613755e-09
7.177328e-11
1.896773e-09
-1.162293e-09
-7.344806e-10
-1.961716e-09
4.673603e-10
-2.21961e-09
6.415426e-10
1.578068e-09
-5.718421e-10
1.385076e-09
2.06086e-09
-9.649222e-10
7.73644e-10
-2.044137e-09
1.270493e-09
9.16584e-10
-1.517088e-09
6.005045e-10
6.985292e-10
1.169831e-09
-2.053849e-09
1.686362e-09
6.400828e-10
-1.917698e-09
1.277615e-09
6.074413e-10
-1.857831e-09
1.25039e-09
7.180715e-10
1.108719e-09
-1.826791e-09
8.619658e-10
5.457371e-10
-1.407703e-09
-1.8243e-09
1.221361e-09
-1.426179e-09
-4.219318e-11
1.468373e-09
3.574618e-10
-1.333788e-09
9.763263e-10
9.227937e-10
8.164068e-10
-1.7392e-09
9.64091e-10
8.905421e-10
2.755115e-10
-1.820387e-09
-1.232582e-09
1.384297e-09
-1.517158e-10
-5.729402e-10
1.94455e-09
-1.37161e-09
-1.333219e-09
-5.394495e-10
1.872669e-09
2.862517e-09
-2.006782e-09
-8.557354e-10
-1.593065e-09
6.569934e-10
9.360715e-10
-1.004698e-09
1.759868e-09
-7.551704e-10
-7.513304e-10
-1.240619e-09
-3.976298e-10
1.575974e-09
-7.145081e-10
2.008394e-09
-1.293886e-09
-1.660222e-09
1.241203e-09
4.190184e-10
-1.697835e-09
1.318528e-09
3.793062e-10
-4.87168e-10
-2.406301e-09
2.893469e-09
-9.662857e-10
9.520231e-10
-1.805271e-09
8.532482e-10
-1.109595e-09
-9.692606e-10
2.078856e-09
-4.305469e-10
1.787306e-09
-1.356759e-09
-1.573712e-09
9.336795e-10
6.400323e-10
1.543426e-09
1.524415e-11
-1.55867e-09
-8.684541e-10
-1.400466e-09
2.26892e-09
-1.3724e-09
1.729494e-09
-3.570944e-10
-1.728827e-09
1.354742e-09
-1.938266e-09
2.213777e-09
1.624889e-09
-1.126133e-09
-4.98756e-10
5.872034e-10
-1.839327e-09
1.252124e-09
-1.048448e-09
1.728303e-09
-6.798551e-10
-1.05208e-09
-6.410379e-10
1.693118e-09
7.424275e-10
8.009988e-10
3.342068e-09
9.715463e-10
-4.313614e-09
6.336379e-10
-1.764082e-09
1.130445e-09
-1.2838e-09
1.967817e-09
-1.802321e-09
1.000753e-09
8.015684e-10
9.169628e-10
9.983871e-10
-3.25542e-09
8.711653e-10
-1.925655e-09
1.05449e-09
-4.438954e-10
-1.494371e-09
9.720931e-10
6.696621e-10
1.518293e-09
-2.187955e-09
-1.279238e-09
1.141855e-09
1.373833e-10
-1.122812e-09
-4.455275e-10
-2.115788e-09
2.31402e-09
-1.982322e-10
-4.619907e-10
-1.289285e-09
1.751276e-09
-7.064648e-10
2.224932e-09
-1.518467e-09
1.302799e-09
-1.287555e-09
1.675512e-09
-9.431809e-10
-7.323309e-10
3.829049e-09
-2.643722e-10
-3.564676e-09
9.632568e-10
6.190297e-10
-7.698778e-10
1.515841e-09
-7.45963e-10
7.108906e-10
-2.07658e-11
-1.421407e-09
1.442173e-09
1.023982e-09
-9.245606e-11
1.481598e-09
1.326298e-09
4.963209e-10
-9.897206e-11
3.605959e-09
-7.592151e-10
-8.557261e-10
-7.498282e-10
7.900989e-10
3.03895e-09
-1.067169e-09
-7.012449e-10
1.326238e-09
-1.418694e-09
-7.60459e-10
-5.615354e-10
-1.120561e-09
-1.82505e-10
1.303066e-09
1.873842e-10
-1.794108e-09
-1.064908e-09
1.825557e-09
-1.453382e-09
3.494469e-10
1.913257e-09
-9.276455e-10
-1.816322e-09
5.7098e-10
1.245342e-09
-3.290632e-10
-1.392205e-09
1.721269e-09
1.551975e-09
3.845741e-10
-1.19874e-09
2.047967e-09
6.387361e-10
5.168168e-09
-1.282194e-09
8.567824e-10
4.254116e-10
-7.706727e-10
1.798951e-09
-1.028278e-09
-1.388937e-09
2.129555e-09
-7.406174e-10
-3.728671e-10
-1.562192e-09
1.527687e-09
3.450488e-11
-2.059012e-10
1.592244e-09
-1.386342e-09
-1.639162e-09
1.447259e-09
9.592748e-10
-1.684578e-09
6.807668e-10
1.056587e-09
-1.737354e-09
8.895901e-10
1.113916e-09
-2.003506e-09
1.941733e-09
-8.672789e-10
-1.074454e-09
1.140194e-09
4.026316e-10
1.706056e-09
-1.01262e-09
-6.93436e-10
1.860561e-09
-1.057464e-09
9.176998e-10
-1.699401e-09
-1.763059e-09
9.490381e-10
8.14021e-10
9.627016e-10
-1.360331e-09
-1.902424e-09
9.298686e-10
-1.599492e-09
8.71727e-10
7.277651e-10
1.569673e-09
-7.844009e-10
-7.852721e-10
6.964032e-10
-5.0021e-10
-1.772179e-09
1.193957e-09
5.782223e-10
1.206821e-09
-1.736472e-09
5.296511e-10
-2.649061e-10
1.747295e-09
-1.812359e-09
8.549186e-10
9.574404e-10
3.712855e-10
1.094209e-09
-1.465495e-09
-1.810644e-09
6.883585e-10
1.122286e-09
1.08536e-10
-1.510822e-09
1.402286e-09
1.885271e-09
-1.34023e-09
1.396618e-09
1.45192e-09
-6.30828e-11
-1.388837e-09
-2.017468e-09
4.679327e-10
-1.831227e-09
1.288037e-09
5.431893e-10
-1.186955e-09
1.711092e-09
-5.241375e-10
1.027515e-09
-1.800677e-09
4.396292e-10
-1.683269e-09
1.24364e-09
-1.203199e-09
3.021527e-10
9.01046e-10
1.125309e-09
-1.660536e-09
9.692084e-10
-1.706097e-09
7.368888e-10
6.459376e-10
-2.034875e-09
-1.307944e-09
1.548084e-09
1.875277e-09
-1.241639e-09
-7.162936e-10
9.881887e-10
5.832357e-10
-1.571424e-09
7.715142e-10
-2.9491e-10
-1.041902e-09
1.336812e-09
3.019543e-10
2.029761e-09
-2.331715e-09
-1.215344e-09
-6.845652e-10
1.89991e-09
-1.01365e-09
1.235241e-09
-1.511371e-09
2.761301e-10
-1.722435e-09
9.24499e-10
-8.782291e-10
-7.335391e-10
-1.199664e-09
-3.18647e-10
1.518311e-09
1.041042e-10
-1.43206e-09
1.327956e-09
-6.623069e-10
1.810341e-09
-1.148035e-09
-1.094193e-09
1.346867e-09
-5.394626e-10
-8.074048e-10
-7.185051e-10
-9.635285e-10
1.682034e-09
-1.207107e-09
8.673675e-10
-1.966913e-09
1.125157e-09
1.915e-09
4.420957e-10
-2.357095e-09
-1.110344e-09
-4.013412e-10
1.511685e-09
-1.558918e-09
6.642746e-10
8.946436e-10
-8.51952e-10
1.930404e-09
-1.078452e-09
-1.2026e-09
1.175476e-09
2.71236e-11
-1.638504e-09
9.199991e-10
-1.234018e-09
2.157573e-09
1.176149e-09
7.68057e-10
1.186046e-09
-1.277998e-09
-8.643766e-10
2.142375e-09
-1.885076e-09
8.343221e-10
1.050754e-09
-9.144201e-10
-7.767076e-10
2.079332e-09
-1.105692e-09
-1.787848e-10
1.671723e-09
-1.492938e-09
7.664598e-10
1.201626e-09
-9.190166e-10
1.808607e-09
1.210725e-09
6.362389e-10
-1.846964e-09
-3.94221e-10
-1.547792e-09
1.942013e-09
1.862588e-09
-1.046948e-09
-1.183001e-09
1.856499e-09
-6.734985e-10
-6.823105e-11
1.716124e-09
-1.647893e-09
1.146687e-09
-1.679514e-09
5.32827e-10
-1.487853e-09
7.31547e-10
7.56306e-10
-1.266876e-09
-6.201787e-10
1.887055e-09
-2.091214e-09
7.763644e-10
1.172695e-09
9.5686e-10
2.695006e-10
9.721371e-10
-1.241638e-09
9.290787e-10
-1.819224e-09
8.901449e-10
-1.315347e-09
1.961285e-09
-4.221722e-09
1.713746e-09
2.507976e-09
-1.644521e-09
1.177031e-09
-1.676811e-09
8.912962e-10
1.517926e-09
-1.451737e-09
-6.618872e-11
1.410824e-09
-1.627012e-09
8.746524e-10
2.818633e-09
1.109269e-09
2.353727e-10
-1.26962e-09
7.48237e-10
5.21383e-10
-1.433192e-09
5.416444e-10
8.915481e-10
-3.065735e-10
-1.016418e-09
1.141368e-09
-1.464056e-09
3.226882e-10
-1.42772e-09
1.43733e-09
-9.610014e-12
-1.634766e-09
-1.466537e-09
6.964985e-10
7.700385e-10
1.283689e-09
-3.335125e-10
-9.501769e-10
2.132387e-09
1.07011e-09
8.152348e-10
-1.885345e-09
-6.56012e-10
1.305169e-09
1.145596e-09
-2.450765e-09
-6.373731e-10
-7.692799e-10
1.849567e-09
7.222911e-10
-1.566001e-09
8.437101e-10
-9.742098e-10
-9.020785e-10
1.876288e-09
-1.689473e-09
3.599475e-10
1.329525e-09
-1.882764e-09
9.332799e-10
9.494839e-10
-1.441781e-09
3.95044e-10
-1.285886e-09
-3.909488e-10
-1.282092e-09
1.3694e-09
1.625412e-09
-7.787704e-10
-8.466419e-10
-1.582352e-09
-2.199696e-10
-1.33857e-09
1.778634e-09
-1.318219e-09
1.870553e-10
-9.942384e-10
1.623745e-09
-6.295069e-10
2.160057e-09
-1.187631e-09
-9.724265e-10
1.585087e-09
-8.812506e-10
-7.038365e-10
-1.596856e-09
6.88574e-10
9.082824e-10
-1.099925e-09
-1.523418e-09
1.501812e-09
2.160615e-11
4.664997e-10
1.031733e-09
-1.498233e-09
5.496214e-10
-1.54942e-09
9.99799e-10
1.266171e-09
-2.021369e-09
1.031864e-09
1.098093e-09
-2.129957e-09
-1.240649e-09
-1.223283e-09
-1.665677e-09
1.176745e-09
4.889316e-10
-1.066656e-09
1.023292e-09
-1.847925e-09
8.246324e-10
1.049134e-09
8.113469e-10
-1.860481e-09
-8.250895e-10
1.794298e-09
9.873961e-10
-1.890644e-09
-1.988191e-09
1.075851e-09
1.80191e-09
-8.145139e-10
1.683612e-09
1.660397e-09
-1.194408e-09
-4.659894e-10
-9.192681e-10
1.73491e-09
8.881381e-10
-1.661078e-09
1.771819e-09
-7.22685e-10
8.728693e-10
-1.67441e-09
-5.455462e-10
-7.336921e-10
-1.81401e-09
8.15693e-10
9.98317e-10
-1.603839e-09
4.571088e-10
-1.521081e-09
-1.158855e-09
-1.127972e-09
-1.572819e-09
-9.012874e-10
1.704268e-09
-8.029802e-10
1.281688e-09
-7.649235e-10
1.612537e-09
1.126774e-09
1.045934e-10
-1.231368e-09
1.588011e-09
-1.446004e-09
1.120198e-09
-6.532664e-10
1.934954e-09
8.158627e-10
9.518143e-10
-1.767677e-09
2.160648e-09
-8.54612e-10
-1.306036e-09
-8.565851e-10
-1.245099e-09
8.508407e-10
1.171614e-09
-9.759875e-10
-1.106339e-09
1.057941e-09
8.525538e-10
-1.225267e-09
1.88548e-09
-6.602124e-10
1.883191e-09
-6.640275e-10
-1.219163e-09
-8.71455e-10
-6.898181e-10
1.100396e-09
-1.4915e-09
1.118609e-09
-1.686271e-09
1.68463e-09
-1.516813e-09
-1.678174e-10
-2.110231e-10
1.895654e-09
5.537902e-10