/*--------------------------------*- C++ -*----------------------------------*\
| =========                 |                                                 |
| \\      /  F ield         | OpenFOAM: The Open Source CFD Toolbox           |
|  \\    /   O peration     | Version:  2406                                  |
|   \\  /    A nd           | Website:  www.openfoam.com                      |
|    \\/     M anipulation  |                                                 |
\*---------------------------------------------------------------------------*/
FoamFile
{
    version     2.0;
    format      ascii;
    arch        "LSB;label=32;scalar=64";
    class       surfaceScalarField;
    location    "2.22";
    object      phi;
}
// * * * * * * * * * * * * * * * * * * * * * * * * * * * * * * * * * * * * * //

dimensions      [0 3 -1 0 0 0 0];

oriented        oriented;

internalField   nonuniform List<scalar> 
326221
(
-0.00206484
-0.004942611
0.007007451
-0.001378031
-0.0006868088
0.001025006
-0.002403036
0.0005617579
0.0004632477
-0.0007938724
0.00135563
-0.0007462868
-4.758562e-05
-0.0003840352
-0.0003622515
-0.0001175053
-0.0002665299
8.8481e-05
-0.0002059863
3.822799e-05
5.025301e-05
-4.771131e-05
8.59393e-05
5.835951e-05
-0.0001060708
0.0001050031
-4.664359e-05
0.0001339393
-2.893618e-05
0.0002573391
-0.0001233998
0.0007691899
-0.0005118508
0.001706471
-0.0009372808
0.002088579
-0.000382108
0.0009512252
0.001137353
-0.00111412
0.002065346
-0.0005581724
-0.0005559481
0.001599522
-0.002157694
0.001897738
-0.0002982168
0.001188064
0.0007096746
0.0006635696
0.0005244942
-0.000224794
0.0008883635
-0.001433036
0.001208242
-0.002377387
0.0009443513
-0.002857568
0.0004801806
-0.003061657
0.0002040889
-0.003146596
8.493931e-05
-0.003171171
2.457524e-05
-0.003149491
-2.168018e-05
-0.003109338
-4.0153e-05
-0.003052428
-5.690989e-05
-0.002932482
-0.0001199465
-0.002817144
-0.0001153383
-0.002710547
-0.0001065964
-0.002590513
-0.0001200345
-0.002466825
-0.0001236874
-0.002463236
-3.589089e-06
-0.002574372
0.0001111356
-0.002363446
-0.0002109261
-0.001675374
-0.0006880716
-0.001065386
-0.0006099883
-0.0005061638
-0.0005592218
9.192185e-05
-0.0005980856
0.0004542606
-0.0003623388
0.001039682
-0.0005854215
0.001417876
-0.0003781937
-0.0008007986
0.002218674
-0.0007816427
-1.915591e-05
-0.0004714842
-0.0003101585
-0.000167814
-0.0003036702
0.0002039461
-0.0003717601
0.0004141463
-0.0002102002
0.0005373954
-0.0001232491
0.0006862833
-0.0001488879
0.0008634038
-0.0001771205
0.001051199
-0.0001877956
0.001227623
-0.0001764235
0.001381997
-0.0001543737
0.00152975
-0.0001477531
0.001658433
-0.000128683
0.001781934
-0.0001235009
0.001918061
-0.0001361273
0.002065245
-0.0001471836
0.002218004
-0.0001527599
0.002376506
-0.0001585011
0.002534463
-0.0001579571
0.002695151
-0.0001606881
0.002848799
-0.0001536479
0.002992009
-0.0001432102
0.003124188
-0.000132179
0.003245452
-0.0001212644
0.003350135
-0.0001046825
0.003442437
-9.230224e-05
0.003521338
-7.89014e-05
0.003585238
-6.389992e-05
0.00364957
-6.433125e-05
0.003706761
-5.71919e-05
0.003754277
-4.751594e-05
0.00379357
-3.929264e-05
0.00374632
4.725043e-05
0.003783853
-3.753379e-05
0.003824767
-4.09132e-05
0.003864249
-3.948206e-05
0.003904843
-4.059398e-05
0.003941642
-3.679945e-05
0.003971599
-2.995702e-05
0.003996506
-2.490734e-05
0.004012235
-1.572898e-05
0.004019006
-6.770154e-06
0.004012799
6.206692e-06
0.003987548
2.52506e-05
0.003942233
4.531552e-05
0.003871924
7.030844e-05
0.003778919
9.300551e-05
0.003655324
0.0001235953
0.003488301
0.0001670225
0.003267853
0.0002204483
0.002972898
0.0002949544
0.002571665
0.0004012338
0.002025492
0.0005461724
0.001311511
0.0007139812
0.000472087
0.000839424
-0.0003583162
0.0008304032
-0.001003139
0.000644823
-0.001407564
0.0004044245
-0.001543979
0.0001364152
-0.001313585
-0.0002303937
9.529574e-05
-0.001408881
0.0007660353
-0.0006707396
-0.001214765
0.001980801
-0.003577869
0.002363103
-0.003616064
3.81954e-05
-0.002427774
-0.00118829
-0.001812421
-0.0006153532
-0.001740091
-7.233002e-05
-0.001686125
-5.396588e-05
-0.001026081
-0.0006600442
0.0008717036
-0.001897784
0.002624813
-0.00175311
0.000995878
0.001628935
-0.002553968
0.003549845
-0.004374141
0.001820174
-0.003884267
-0.0004898742
-0.002510708
-0.001373559
-0.001564778
-0.00094593
-0.001094009
-0.0004707683
-0.0009955619
-9.84475e-05
-0.0007837702
-0.0002117917
-0.0003454884
-0.0004382818
7.714852e-05
-0.0004226369
0.0004178865
-0.000340738
0.0006724197
-0.0002545332
0.0007962931
-0.0001238734
0.0006875364
0.0001087567
6.963516e-05
0.0006179012
-0.0009268612
0.0009964963
-0.00134849
0.000421629
-0.0006353261
-0.000713164
0.0006543399
-0.001289666
0.001721177
-0.001066837
0.002422644
-0.0007014675
0.00260534
-0.0001826958
0.002075949
0.0005293915
0.0009030443
0.001172904
0.0001796818
0.0007233625
-0.001213044
0.001392726
-0.0002060301
-0.001007014
0.00158386
-0.00178989
0.003061816
-0.001477956
0.004072603
-0.001010787
0.004875678
-0.0008030757
0.005551371
-0.0006756923
0.006183917
-0.000632546
0.006736814
-0.0005528969
0.007194361
-0.0004575476
0.007520665
-0.0003263033
0.007700151
-0.0001794869
0.007626343
7.380807e-05
0.007180367
0.0004459764
0.005871629
0.001308738
0.002958438
0.002913191
-0.0006731019
0.00363154
-0.002557887
0.001884785
-0.002164765
-0.0003931215
-0.001400148
-0.0007646167
-0.001119445
-0.0002807033
-0.0006371918
-0.0004822534
0.0003262825
-0.0009634743
0.0005172455
-0.000190963
-0.0006916156
0.001208861
-0.002560545
0.001868929
-0.004041586
0.001481041
-0.003486686
-0.0005549004
-0.002167707
-0.001318979
-0.001262259
-0.0009054479
-0.0003879543
-0.0008743046
0.0005457629
-0.0009337172
0.001239741
-0.0006939778
0.001342761
-0.0001030203
0.0009238648
0.0004188963
0.0005346715
0.0003891933
0.0005400382
-5.366673e-06
1.412982e-05
0.0005259084
-0.000686647
0.0007007769
-0.0009089994
0.0002223524
-0.0006148793
-0.0002941201
-0.0006350121
2.013275e-05
0.0001225649
-0.000757577
0.0007460042
-0.0006234393
0.0006415367
0.0001044676
0.0008558736
-0.000214337
0.0008915786
-3.570499e-05
7.935479e-05
0.0008122238
0.001716779
-0.001637424
0.002658688
-0.0009419095
-0.00675199
0.009410678
-0.007002117
0.0002501265
-0.006002411
-0.0009997061
-0.005628327
-0.0003740839
-0.005245964
-0.0003823623
-0.004960244
-0.0002857201
-0.004699303
-0.0002609411
-0.004472829
-0.0002264739
-0.004172154
-0.0003006755
-0.004015512
-0.0001566416
-0.003880266
-0.0001352457
-0.003755683
-0.000124583
-0.003644181
-0.0001115022
-0.003536537
-0.0001076443
-0.003434139
-0.0001023982
-0.00333654
-9.759882e-05
-0.003248673
-8.786645e-05
-0.00316742
-8.125352e-05
-0.003089525
-7.789531e-05
-0.003012749
-7.677603e-05
-0.00294107
-7.167838e-05
-0.002871949
-6.912105e-05
-0.002806978
-6.49708e-05
-0.002747951
-5.902697e-05
-0.002688156
-5.979529e-05
-0.002628892
-5.92639e-05
-0.002569222
-5.967018e-05
-0.00251289
-5.633187e-05
-0.00246148
-5.14098e-05
-0.002414168
-4.731264e-05
-0.002365177
-4.899074e-05
-0.002317014
-4.816331e-05
-0.002266566
-5.044781e-05
-0.002221399
-4.516719e-05
-0.002178817
-4.258134e-05
-0.0021346
-4.421708e-05
-0.002090092
-4.45084e-05
-0.00204461
-4.548202e-05
-0.002002756
-4.185399e-05
-0.001962753
-4.000268e-05
-0.001988029
2.527603e-05
-0.001958884
-2.914485e-05
-0.001926301
-3.258331e-05
-0.001893456
-3.28447e-05
-0.001863867
-2.958896e-05
-0.001833272
-3.05957e-05
-0.001804669
-2.860218e-05
-0.001776253
-2.841596e-05
-0.001747787
-2.846679e-05
-0.001715074
-3.271292e-05
-0.001681518
-3.355589e-05
-0.001649705
-3.181245e-05
-0.001618635
-3.10705e-05
-0.001587445
-3.119037e-05
-0.001550511
-3.693403e-05
-0.001508427
-4.208339e-05
-0.001459971
-4.845622e-05
-0.001405887
-5.408369e-05
-0.001337857
-6.803002e-05
-0.00125165
-8.620673e-05
-0.001138105
-0.0001135451
-0.000987007
-0.0001510983
-0.0007778983
-0.0002091087
-0.0004955342
-0.0002823642
-0.0001500928
-0.0003454413
0.0001719317
-0.0003220246
0.0003746135
-0.0002026818
0.0003232971
5.131639e-05
0.0001114343
0.0002118628
0.000254212
-0.0001427777
-0.0001831548
0.0004373668
-0.001879154
0.001695999
-0.000644291
-0.001234863
0.0005736947
-0.001217986
0.0008431391
-0.0002694443
0.0008531126
-9.97351e-06
0.0008810874
-2.797483e-05
0.0009369311
-5.584368e-05
0.0009898503
-5.29192e-05
0.001030596
-4.074572e-05
0.001072549
-4.195339e-05
0.001126703
-5.415319e-05
0.001174581
-4.78788e-05
0.001215466
-4.088466e-05
0.001246909
-3.144287e-05
0.001275118
-2.820861e-05
0.001300537
-2.541936e-05
0.001326977
-2.643984e-05
0.001351308
-2.433146e-05
0.001370374
-1.906558e-05
0.001388694
-1.83198e-05
0.001409497
-2.080344e-05
0.001428261
-1.876405e-05
0.001445255
-1.699394e-05
0.001465301
-2.00465e-05
0.001481957
-1.665536e-05
0.001503128
-2.117145e-05
0.001528188
-2.505973e-05
0.001547626
-1.943799e-05
0.001563687
-1.606104e-05
0.001581415
-1.772795e-05
0.001601625
-2.020957e-05
0.001615742
-1.411782e-05
0.001587649
2.809314e-05
0.001612537
-2.488735e-05
0.001644069
-3.153227e-05
0.001675476
-3.140668e-05
0.001707146
-3.16709e-05
0.001741289
-3.414296e-05
0.001773344
-3.205494e-05
0.001802451
-2.910618e-05
0.001834165
-3.171482e-05
0.001870455
-3.628921e-05
0.001909781
-3.932605e-05
0.001943457
-3.367621e-05
0.001975374
-3.191673e-05
0.002010157
-3.478363e-05
0.00204782
-3.766292e-05
0.002086445
-3.862465e-05
0.002129791
-4.33461e-05
0.002174749
-4.49583e-05
0.002219758
-4.500924e-05
0.002265849
-4.609019e-05
0.002308837
-4.298886e-05
0.00236083
-5.199239e-05
0.002415668
-5.483804e-05
0.002472505
-5.683682e-05
0.002533731
-6.122599e-05
0.002596838
-6.310709e-05
0.002667293
-7.045532e-05
0.002744821
-7.752766e-05
0.00282381
-7.898964e-05
0.002909815
-8.600438e-05
0.003008624
-9.880893e-05
0.00312565
-0.0001170268
0.003349768
-0.0002241179
0.00351608
-0.0001663114
0.003705738
-0.0001896579
0.003918811
-0.0002130734
0.00419483
-0.0002760194
0.004469709
-0.0002748787
0.005161097
-0.0006913878
0.0002184859
-0.0008101667
0.002005391
-0.002430088
0.0001667548
-0.002194907
0.0004590439
-0.0005617335
0.0007493413
-0.0003002709
0.00101367
-0.0002923033
0.001257337
-0.0002995109
0.001457232
-0.0002528146
0.001617513
-0.0002010261
0.001757655
-0.0001820955
0.001895919
-0.0001924176
0.002021371
-0.0001733311
0.002136791
-0.0001563047
0.002239795
-0.0001344465
0.002336336
-0.0001247493
0.002425574
-0.0001146574
0.0025124
-0.0001132657
0.002594662
-0.0001065933
0.002670796
-9.519974e-05
0.002743117
-9.064117e-05
0.002814984
-9.267002e-05
0.002883379
-8.715979e-05
0.002948187
-8.180106e-05
0.003013992
-8.585153e-05
0.003075078
-7.774169e-05
0.003138057
-8.415067e-05
0.003202327
-8.932938e-05
0.003263208
-8.031952e-05
0.003319933
-7.278547e-05
0.003377546
-7.534116e-05
0.003434939
-7.760236e-05
0.00349052
-6.96987e-05
0.003470267
4.834584e-05
0.003534167
-8.878764e-05
0.003601181
-9.854599e-05
0.003667764
-9.798943e-05
0.003734316
-9.822365e-05
0.003801944
-0.00010177
0.003868749
-9.886015e-05
0.003932447
-9.280413e-05
0.003998381
-9.764942e-05
0.004065744
-0.0001036522
0.00413686
-0.0001104418
0.004203147
-9.996278e-05
0.004269378
-9.814826e-05
0.004336392
-0.0001017979
0.004405958
-0.0001072283
0.004475576
-0.000108243
0.004549036
-0.0001168063
0.004624175
-0.0001200974
0.004699512
-0.0001203461
0.004777013
-0.0001235914
0.004851431
-0.0001174068
0.004933667
-0.0001342278
0.005016713
-0.0001378849
0.005103325
-0.0001434481
0.005192237
-0.0001501388
0.005284395
-0.0001552643
0.005381368
-0.0001674283
0.005485335
-0.0001814954
0.005590484
-0.0001841386
0.005702607
-0.0001981269
0.005825132
-0.0002213344
0.005963134
-0.0002550289
0.006265374
-0.0005263573
0.006452043
-0.000352981
0.006667016
-0.0004046303
0.006901066
-0.000447124
0.007210025
-0.000584978
0.007476697
-0.0005415507
0.008266088
-0.001480779
0.007535633
0.0009489407
-0.01071345
0.00995617
0.001007411
-0.009609834
-0.002103327
-0.009233438
-0.0007504797
-0.008816407
-0.0007993936
-0.008504846
-0.0005972811
-0.008214834
-0.0005509522
-0.007965711
-0.0004755972
-0.007570513
-0.0006958736
-0.007386949
-0.0003402056
-0.007223422
-0.000298773
-0.007068757
-0.0002792479
-0.006926319
-0.0002539401
-0.006786816
-0.0002471476
-0.006653761
-0.0002354534
-0.006523767
-0.0002275922
-0.006403456
-0.0002081776
-0.006286701
-0.0001980085
-0.006174964
-0.0001896326
-0.006063028
-0.000188712
-0.005956808
-0.0001778984
-0.005851727
-0.0001742022
-0.005750745
-0.0001659528
-0.005653875
-0.0001558964
-0.005556827
-0.0001568439
-0.00546106
-0.0001550306
-0.005364723
-0.0001560069
-0.005271763
-0.000149292
-0.005180843
-0.0001423294
-0.0050937
-0.0001344561
-0.005003378
-0.0001393126
-0.004915228
-0.0001363134
-0.004823624
-0.0001420515
-0.004736421
-0.0001323704
-0.004649119
-0.0001298836
-0.004560642
-0.000132694
-0.004470893
-0.0001342573
-0.00438005
-0.0001363247
-0.004290996
-0.0001309086
-0.004201809
-0.0001291889
-0.004216395
3.986156e-05
-0.004138213
-0.0001073272
-0.004059587
-0.0001112089
-0.003978761
-0.0001136704
-0.003900363
-0.0001079876
-0.003818673
-0.0001122853
-0.003737776
-0.0001094989
-0.003654242
-0.0001119502
-0.003569316
-0.0001133934
-0.003478866
-0.0001231628
-0.003386166
-0.0001262553
-0.003291815
-0.0001261634
-0.003194358
-0.000128528
-0.003092787
-0.0001327612
-0.00298199
-0.000147731
-0.00286293
-0.0001611429
-0.002733005
-0.0001783816
-0.002592849
-0.0001942397
-0.002433269
-0.0002276099
-0.002250733
-0.0002687434
-0.002035304
-0.0003289735
-0.001778602
-0.0004078005
-0.001463364
-0.0005243467
-0.001077233
-0.0006684954
-0.0006265708
-0.0007961033
-0.0001896865
-0.0007589088
0.0001547765
-0.0005471447
0.000331028
-0.0001249352
0.0003842002
0.0001586907
0.0003162822
-7.485978e-05
-0.0004629708
0.00121662
0.00323842
-0.0005624258
0.001188782
-0.001633371
0.001095341
-0.003447657
0.002714419
-0.003097034
0.004100452
-0.002396819
0.005266955
-0.001969579
0.006277287
-0.001686024
0.00722504
-0.001580299
0.00807173
-0.001399587
0.008803619
-0.001189437
0.009385993
-0.0009086775
0.009802154
-0.0005956471
0.0100236
-0.0001476374
0.01012992
0.0003396542
0.009933868
0.001504791
0.008183051
0.004664009
0.003175351
0.00863924
-0.002206857
0.007266993
-0.003729253
0.001129274
-0.002688925
-0.001804945
-0.002118857
-0.0008507705
-0.001704904
-0.0008962069
-0.0006569884
-0.00201139
-0.000159646
-0.0006883054
-0.002412746
0.003461961
-0.005346245
0.004802429
-0.005755517
0.001890313
-0.00428699
-0.002023427
-0.002769351
-0.002836617
-0.001581898
-0.002092901
-0.0004317988
-0.002024404
0.0007685885
-0.002134104
0.001689194
-0.001614583
0.001983293
-0.0003971198
0.001620063
0.0007821264
0.0009361292
0.001073127
0.0004569141
0.0004738484
-0.0005756056
0.001558428
-0.001353169
0.00147834
-0.001263848
0.0001330316
-0.0007942511
-0.000763717
-0.0007199652
-5.415314e-05
0.0002628867
-0.001740429
0.001061371
-0.001421924
0.001152952
1.2887e-05
0.001540083
-0.0006014683
0.001717744
-0.000213366
0.001656535
0.0008734325
0.002927748
-0.002908636
0.0007956601
0.001190178
0.02016251
-0.0008052747
-0.001676826
0.004700775
-0.00101504
0.0001906094
-0.0007187513
-0.0006064472
-0.0002211051
-0.0008013164
0.0003226259
-0.0009154911
0.0006599963
-0.0005475706
0.0008473587
-0.0003106115
0.001037962
-0.000339491
0.001271213
-0.0004103717
0.0015427
-0.0004592824
0.001823663
-0.0004573867
0.002086979
-0.0004176896
0.00233821
-0.0003989842
0.002561052
-0.0003515248
0.002767489
-0.0003299387
0.00297864
-0.0003472777
0.003199346
-0.0003678896
0.003428552
-0.0003819662
0.003669076
-0.0003990246
0.003915474
-0.0004043551
0.004170594
-0.0004158085
0.00442518
-0.0004082341
0.00467493
-0.0003929603
0.004917464
-0.0003747123
0.005151506
-0.0003553072
0.005370093
-0.0003232686
0.005575092
-0.0002973016
0.005764584
-0.0002683933
0.005935073
-0.000234389
0.006099006
-0.0002282639
0.006251183
-0.0002093695
0.006387587
-0.00018392
0.00652109
-0.0001727955
0.006523214
4.512606e-05
0.006650549
-0.0001648679
0.006772096
-0.0001624606
0.006887777
-0.0001551627
0.007001515
-0.0001543321
0.007110445
-0.0001457297
0.007212639
-0.000132151
0.007309863
-0.0001221315
0.007399064
-0.0001049298
0.007480828
-8.853423e-05
0.007554634
-6.759897e-05
0.007618518
-3.863361e-05
0.007672289
-8.45525e-06
0.007710067
3.252978e-05
0.007731974
7.109833e-05
0.007731524
0.000124046
0.007698429
0.0002001168
0.007622773
0.0002961047
0.007483528
0.0004341994
0.007243328
0.0006414339
0.006838222
0.0009512787
0.006175648
0.001376555
0.005164092
0.00185098
0.003797918
0.002196577
0.002289015
0.002153726
0.001101692
0.001591747
0.000495244
0.0007428636
0.0005206784
-0.000255828
0.0005991881
-0.001487391
-0.0002841847
0.0002126332
-0.002349876
0.004046492
-0.003456685
0.003469913
-0.002557161
-0.0008613286
-0.001584448
-0.002161003
-0.001303228
-0.0008965734
-0.001375014
-5.440474e-07
-0.001218932
-0.000210048
-0.0005882333
-0.001290743
0.001337678
-0.003823696
0.003243618
-0.00365905
-0.0001631451
0.005035699
-0.004896836
0.008283537
-0.005809363
0.002732701
-0.004752566
-0.001546672
-0.003210428
-0.002915697
-0.002202206
-0.001954152
-0.001765874
-0.0009071002
-0.001650851
-0.0002134706
-0.001192287
-0.0006703558
-0.0005025093
-0.001128059
-1.947051e-05
-0.0009056757
0.000249004
-0.0006092125
0.0004360524
-0.0004415816
0.0004169928
-0.0001048138
-0.0001285427
0.0006542922
-0.001205917
0.001695276
-0.002051822
0.001842401
-0.001806158
0.0001759642
-0.0006752272
-0.001844094
0.000792244
-0.002757137
0.002047039
-0.002321632
0.00287901
-0.001533438
0.003238453
-0.0005421386
0.003021368
0.0007464759
0.002075001
0.002119271
0.001100699
0.001697665
0.003682208
-0.0009132205
0.0154563
-0.002228346
0.0006283164
0.000575176
-0.005206558
0.0003624585
0.0006759651
-0.001329968
0.003048056
-0.001080744
-0.0002968094
-0.0006188673
-0.000824128
-0.000248371
-0.0006370262
0.0001261716
-0.0005805289
0.0001412508
3.51738e-05
-4.72627e-05
0.0002744528
6.12149e-05
-0.0002145484
0.0001378809
-0.0001233096
0.0001766509
-6.77062e-05
0.0003129266
-0.0002596755
0.0009328014
-0.001131726
0.001964269
-0.001968749
0.002886946
-0.001304785
0.001955117
0.002069183
-0.0009106653
0.004931128
-0.000530757
-0.0009358564
0.00194085
-0.004629301
0.002580562
-0.0009379291
0.001898027
0.00139221
-0.0001065508
0.002529072
-0.002557735
0.003339547
-0.004044155
0.002694663
-0.004689487
0.001589683
-0.004830545
0.0006212379
-0.004830488
0.0002040324
-0.004773741
2.819203e-05
-0.004661236
-8.79297e-05
-0.004493168
-0.0001897483
-0.004297579
-0.0002357417
-0.004090018
-0.0002644713
-0.003841173
-0.0003687915
-0.003651453
-0.0003050582
-0.003566351
-0.0001916984
-0.00360882
-7.756522e-05
-0.003715235
-1.727209e-05
-0.003705657
-1.316778e-05
-0.003332751
-0.0002617696
-0.002513201
-0.001030477
-0.00154382
-0.001657453
-0.0008716047
-0.001282203
-0.0002161794
-0.001214647
0.0004698055
-0.001284071
0.001081721
-0.0009742543
0.001674719
-0.001178419
-0.0003803011
0.0009327499
-0.009591045
0.0241146
-0.00246301
0.004024076
-0.001152227
-0.006517341
-0.001258036
0.0007817739
-0.001998149
0.00378817
-0.001367122
-0.0009278367
-0.0008437513
-0.001347499
-0.0004088556
-0.001071922
7.455415e-05
-0.001063939
0.00023848
-0.000128752
3.613882e-05
0.0004767939
6.277946e-05
-0.0002411891
7.902778e-05
-0.0001395579
8.047371e-05
-6.915213e-05
0.0002002867
-0.0003794884
0.0008678615
-0.0017993
0.002143011
-0.003243898
0.003319693
-0.002481467
0.002913867
0.002475008
0.0005494225
0.007295573
0.0003661086
-0.0007525425
0.001933216
-0.006196408
0.002470079
-0.001474792
0.00117539
0.002686899
-0.00222208
0.005926542
-0.004845583
0.00596305
-0.00561975
0.00346883
-0.005861623
0.001831556
-0.005917081
0.000676696
-0.00592235
0.0002093011
-0.005870698
-2.345954e-05
-0.005743873
-0.000214755
-0.005537844
-0.0003957776
-0.005287532
-0.0004860538
-0.005015956
-0.0005360472
-0.004697612
-0.0006871355
-0.004489566
-0.0005131039
-0.004458409
-0.000222856
-0.004575966
3.99919e-05
-0.004631923
3.868494e-05
-0.004369333
-0.0002757573
-0.003686665
-0.0009444375
-0.002629728
-0.002087414
-0.001522453
-0.002764727
-0.0007486656
-0.002055991
4.289716e-05
-0.00200621
0.0008417651
-0.002082938
0.001584605
-0.001717094
0.002265296
-0.00185911
0.002149865
-0.0002648698
-0.0006124858
0.007463126
-0.00130562
0.0008837437
-0.001064979
-0.0008470882
-0.0004384189
-0.001427877
0.0002533624
-0.001607272
0.0007252496
-0.001019458
0.001004369
-0.0005897313
0.001249005
-0.000584127
0.001528007
-0.0006893731
0.001856142
-0.0007874174
0.002203027
-0.000804272
0.002529934
-0.0007445963
0.00284217
-0.0007112206
0.003116842
-0.0006261963
0.003366471
-0.0005795684
0.003617773
-0.000598579
0.003879671
-0.0006297884
0.004152711
-0.0006550059
0.004441462
-0.0006877759
0.004738897
-0.0007017895
0.005049329
-0.0007262408
0.005361165
-0.00072007
0.005669259
-0.0007010547
0.00597011
-0.0006755627
0.006262541
-0.0006477387
0.006537517
-0.0005982443
0.006797384
-0.0005571691
0.00703954
-0.0005105491
0.007258352
-0.0004532004
0.00746945
-0.0004393618
0.007665946
-0.0004058655
0.007843234
-0.0003612081
0.008019781
-0.0003493427
0.008032041
3.286575e-05
0.00820039
-0.0003332169
0.008359147
-0.0003212178
0.00850948
-0.0003054949
0.008657342
-0.0003021946
0.008799645
-0.0002880322
0.008934605
-0.0002671113
0.009064824
-0.0002523508
0.00918675
-0.0002268559
0.009301639
-0.0002034224
0.009408458
-0.0001744186
0.00950432
-0.0001344952
0.009591057
-9.519298e-05
0.009666399
-4.281158e-05
0.009733799
3.698227e-06
0.009791063
6.678211e-05
0.009834209
0.0001569708
0.009863794
0.0002665193
0.009876552
0.0004214416
0.009865953
0.000652033
0.009813406
0.001003825
0.009668391
0.00152157
0.009321317
0.002198054
0.008634403
0.002883491
0.007621005
0.003167124
0.006588786
0.002623966
0.00586103
0.001470619
0.005297234
0.0003079675
0.003530298
0.0002795456
0.0005248108
0.00321812
-0.001742273
0.006313575
-0.001770729
0.003498369
-0.0001846704
-0.002447387
0.001064426
-0.0034101
0.001624069
-0.001456217
0.001130085
0.00049344
0.000658046
0.0002619912
0.0008243846
-0.001457082
0.001920891
-0.004920202
0.002424372
-0.004162531
-0.001984377
0.009444448
-0.006279554
0.01257871
-0.006581655
0.003034801
-0.005513394
-0.002614932
-0.003830629
-0.004598462
-0.002832717
-0.002952064
-0.002322517
-0.0014173
-0.002009769
-0.0005262192
-0.001304688
-0.001375437
-0.0006113995
-0.001821348
-0.0003700859
-0.001146989
-0.0005451954
-0.0004341031
-0.0008705822
-0.0001161948
-0.001201092
0.0002256963
-0.00181843
0.00127163
-0.002612472
0.002489318
-0.002777848
0.002007777
-0.002129128
-0.000472756
-0.0007520723
-0.00322115
0.001086915
-0.004596124
0.002629386
-0.003864103
0.003663482
-0.002567535
0.004066373
-0.0009450298
0.003739399
0.00107345
0.002730077
0.003128593
0.001338062
0.00308968
-0.001451458
0.006471727
-0.001070783
-0.002014046
0.0007041876
-0.005222627
0.002713471
-0.005106317
0.004608928
-0.004292277
0.006174692
-0.003535343
0.007463395
-0.002974727
0.008631645
-0.002748549
0.009657595
-0.002425536
0.01053163
-0.002063475
0.01121443
-0.001591472
0.01169819
-0.001079413
0.01189809
-0.0003475359
0.01187809
0.0003596556
0.01170601
0.001676872
0.01121207
0.005157948
0.007925831
0.01192548
0.0008870474
0.01430578
-0.004041169
0.006057491
-0.004092731
-0.001753383
-0.003502263
-0.001441239
-0.003260332
-0.001138138
-0.002136679
-0.003135043
-0.001764763
-0.001060221
-0.004630274
0.006327472
-0.007254388
0.007426543
-0.006760064
0.001395988
-0.004987897
-0.003795594
-0.003190147
-0.004634367
-0.001728739
-0.003554309
-0.0003528088
-0.003400334
0.001072594
-0.003559508
0.002175564
-0.002717553
0.002556538
-0.000778094
0.002117409
0.001221255
0.001089904
0.002100633
7.105674e-07
0.001563041
-0.001181231
0.00274037
-0.001575773
0.001872882
-0.001182612
-0.0002601296
-0.0007472847
-0.001199044
-0.0006118454
-0.0001895925
0.0005856369
-0.002937911
0.001392619
-0.002228906
0.001461056
-5.555045e-05
0.002021569
-0.001161981
0.002273928
-0.0004657256
0.002502153
0.0006452077
0.00304845
-0.003454933
-0.001445496
0.005684124
-0.01247619
0.0311932
-0.01317377
0.001704993
-0.01206996
-0.003207132
-0.01157967
-0.001240777
-0.01111163
-0.001267427
-0.01075941
-0.0009495023
-0.01043628
-0.0008740797
-0.01016442
-0.0007474611
-0.009707176
-0.001153118
-0.009504133
-0.0005432481
-0.009321278
-0.0004816281
-0.009147752
-0.0004527742
-0.008987244
-0.0004144482
-0.008829327
-0.0004050642
-0.008678646
-0.0003861348
-0.00853045
-0.000375788
-0.008392441
-0.0003461866
-0.008257081
-0.0003333686
-0.008127298
-0.0003194154
-0.007996519
-0.0003194912
-0.007871918
-0.000302499
-0.007747746
-0.0002983744
-0.007627484
-0.0002862146
-0.007511102
-0.0002722787
-0.00739417
-0.000273776
-0.007278841
-0.0002703596
-0.007162495
-0.000272353
-0.007049551
-0.0002622356
-0.006937573
-0.0002543079
-0.006829427
-0.0002426017
-0.006716896
-0.000251844
-0.00660736
-0.0002458495
-0.006493236
-0.0002561748
-0.006383739
-0.0002418679
-0.006273134
-0.0002404883
-0.006161095
-0.0002447333
-0.006047512
-0.00024784
-0.005932258
-0.0002515793
-0.005818019
-0.0002451468
-0.005701439
-0.0002457693
-0.005718826
5.724812e-05
-0.005614162
-0.0002119903
-0.005513538
-0.000211833
-0.005409683
-0.0002175254
-0.005308813
-0.0002088583
-0.005203598
-0.0002174998
-0.005099535
-0.0002135616
-0.0049921
-0.0002193857
-0.004883467
-0.0002220268
-0.004768734
-0.0002378952
-0.004652027
-0.0002429623
-0.004533672
-0.0002445182
-0.004411811
-0.0002503894
-0.004285727
-0.0002588455
-0.004149643
-0.0002838142
-0.004005514
-0.0003052719
-0.003850046
-0.0003338503
-0.003684447
-0.0003598384
-0.00349788
-0.0004141773
-0.003287253
-0.0004793703
-0.003040414
-0.0005758122
-0.002746288
-0.0007019265
-0.002382371
-0.0008882632
-0.001932642
-0.001118225
-0.001401498
-0.001327247
-0.0008504244
-0.001309983
-0.0003836382
-0.001013931
-2.404549e-05
-0.0004845279
0.0001674908
-3.284563e-05
-0.00022233
0.0003149611
-0.001323217
0.002317506
-0.002509524
0.004424727
-0.001146711
-0.003792901
-5.015854e-05
-0.00329146
0.0004464433
-0.001058335
0.0009060655
-0.000759893
0.001262901
-0.0006491391
0.001572682
-0.0006092918
0.001824135
-0.0005042677
0.002025476
-0.0004023669
0.002200067
-0.0003566867
0.002374003
-0.0003663531
0.002533994
-0.0003333226
0.002683985
-0.0003062954
0.002819512
-0.0002699737
0.002948153
-0.0002533899
0.003068389
-0.0002348937
0.00318621
-0.0002310865
0.003299356
-0.0002197392
0.003405545
-0.0002013895
0.003507363
-0.0001924591
0.003608619
-0.0001939255
0.003706052
-0.0001845931
0.003798998
-0.0001747464
0.003893398
-0.0001802519
0.003981547
-0.0001658907
0.004071328
-0.0001739316
0.004162342
-0.0001803431
0.004249848
-0.0001678264
0.004332813
-0.0001557505
0.004416623
-0.0001591505
0.004499066
-0.0001600461
0.004585781
-0.0001564128
0.004577182
5.694435e-05
0.004669554
-0.0001811597
0.004762682
-0.0001916737
0.004853763
-0.0001890703
0.004944187
-0.0001886476
0.005035218
-0.0001928018
0.005125505
-0.0001891472
0.005212114
-0.0001794123
0.00530073
-0.000186266
0.00538947
-0.0001923916
0.00548246
-0.0002034318
0.005570167
-0.0001876697
0.005658207
-0.0001861886
0.005746328
-0.0001899191
0.005836832
-0.0001977325
0.005926623
-0.0001980336
0.006020066
-0.0002102494
0.006114919
-0.0002149504
0.006209659
-0.0002150856
0.006307196
-0.0002211289
0.006400552
-0.0002107625
0.006502092
-0.0002357681
0.00660317
-0.0002389622
0.006708065
-0.0002483438
0.006814696
-0.0002567697
0.006924336
-0.0002649038
0.007038183
-0.000281276
0.007159001
-0.0003023127
0.007280514
-0.000305652
0.00740878
-0.000326393
0.007547817
-0.0003603707
0.007699389
-0.0004066011
0.008047102
-0.0008740704
0.008248553
-0.0005544318
0.008485054
-0.0006411315
0.008745987
-0.0007080575
0.009090682
-0.0009296728
0.009429296
-0.0008801644
0.01022408
-0.002275563
0.001581977
-0.001481662
0.003033254
-0.005344492
-0.0003344376
-0.004438684
0.0004534656
-0.001846239
0.001028101
-0.001334528
0.00145185
-0.001072889
0.001821117
-0.0009785583
0.002124148
-0.0008072989
0.002369032
-0.0006472513
0.002580975
-0.0005686293
0.002791917
-0.0005772948
0.002985956
-0.0005273621
0.003169442
-0.0004897815
0.003336261
-0.0004367926
0.003495113
-0.0004122418
0.003644011
-0.0003837917
0.003789728
-0.0003768034
0.003930422
-0.0003604336
0.004062404
-0.0003333708
0.004189486
-0.000319542
0.004315518
-0.0003199568
0.004437001
-0.0003060765
0.004552987
-0.0002907317
0.004670916
-0.0002981818
0.004780819
-0.0002757929
0.004892756
-0.0002858691
0.005006205
-0.0002937922
0.005114879
-0.0002765006
0.005218863
-0.0002597339
0.005323318
-0.0002636053
0.005426074
-0.0002628029
0.005534315
-0.0002646538
0.005530884
6.037543e-05
0.005643144
-0.0002934193
0.005758746
-0.0003072761
0.005870441
-0.0003007647
0.005981409
-0.0002996155
0.006093149
-0.0003045419
0.006203632
-0.0002996301
0.006309839
-0.0002856199
0.006418137
-0.0002945632
0.006526557
-0.0003008118
0.00663982
-0.0003166949
0.006746727
-0.0002945772
0.006853991
-0.0002934519
0.006961488
-0.0002974159
0.007071364
-0.0003076088
0.007180314
-0.0003069838
0.007293657
-0.0003235923
0.007408329
-0.0003296228
0.007522929
-0.0003296856
0.007640931
-0.000339131
0.007753381
-0.0003232118
0.007876226
-0.0003586135
0.007997605
-0.0003603416
0.008123338
-0.000374076
0.008251478
-0.0003849101
0.008382095
-0.0003955209
0.008518445
-0.0004176256
0.008662202
-0.0004460699
0.00880652
-0.0004499701
0.008958783
-0.0004786561
0.009123783
-0.000525371
0.009497531
-0.0007803483
0.009717164
-0.001093704
0.009953453
-0.0007907202
0.01023395
-0.0009216276
0.01055267
-0.00102678
0.01096231
-0.001339311
0.01143655
-0.001354406
0.01217883
-0.003017846
0.01184364
0.001917169
-0.01577161
0.01536759
0.002109016
-0.01473127
-0.004247477
-0.01406368
-0.001908369
-0.0135112
-0.001819904
-0.01308625
-0.00137445
-0.01270466
-0.001255671
-0.01238779
-0.001064333
-0.01209131
-0.001449601
-0.01160497
-0.001029586
-0.01139207
-0.0006945281
-0.01118996
-0.0006548823
-0.01100339
-0.0006010135
-0.01081972
-0.0005887383
-0.01064437
-0.0005614894
-0.0104719
-0.0005482551
-0.01031093
-0.0005071534
-0.01015335
-0.0004909466
-0.01000216
-0.0004706092
-0.009849696
-0.0004719545
-0.009704491
-0.0004477046
-0.009560005
-0.0004428598
-0.00941961
-0.0004266101
-0.009284345
-0.0004075435
-0.00914827
-0.000409851
-0.0090143
-0.0004043298