/*--------------------------------*- C++ -*----------------------------------*\
| =========                 |                                                 |
| \\      /  F ield         | OpenFOAM: The Open Source CFD Toolbox           |
|  \\    /   O peration     | Version:  2406                                  |
|   \\  /    A nd           | Website:  www.openfoam.com                      |
|    \\/     M anipulation  |                                                 |
\*---------------------------------------------------------------------------*/
FoamFile
{
    version     2.0;
    format      ascii;
    arch        "LSB;label=32;scalar=64";
    class       surfaceScalarField;
    location    "2.22";
    object      phi;
}
// * * * * * * * * * * * * * * * * * * * * * * * * * * * * * * * * * * * * * //

dimensions      [0 3 -1 0 0 0 0];

oriented        oriented;

internalField   nonuniform List<scalar> 
23794
(
-0.000725904
-0.001809809
0.002535713
-0.00233624
0.001610336
-0.002005383
-0.0003308566
0.0004126164
-0.002417999
0.001459417
-0.0010468
-0.0001544588
0.001613876
-0.0005057044
0.0003512456
-0.0001270276
-0.0003786768
-0.001119458
0.0009924308
-0.002951087
0.001831629
-0.004125059
0.001173971
-0.003919002
-0.0002060564
-0.003214732
-0.0007042697
-0.002480816
-0.0007339168
-0.0016742
-0.0008066157
-0.0002943193
-0.001379881
0.0021281
-0.002422419
0.004722642
-0.002594542
0.006654648
-0.001932007
0.007201655
-0.0005470065
0.005778363
0.001423292
0.002169363
0.003609
-0.002293049
0.004462412
-0.004369566
0.002076517
-0.001478119
-0.002891447
0.001907652
-0.003385771
0.003427394
-0.001519743
0.004353024
-0.0009256293
0.006253349
-0.001900325
0.009604465
-0.003351116
0.01180178
-0.002197317
0.007867828
0.003933955
0.0001382378
0.00772959
-0.002109991
0.002248229
8.707653e-05
-0.002197067
0.002153179
-0.002066102
-4.41493e-05
0.002197328
-0.005788709
0.00574456
-0.01002955
0.004240838
-0.01237995
0.002350401
-0.01363375
0.001253798
-0.01440258
0.0007688391
-0.01492364
0.0005210534
-0.0152843
0.0003606631
-0.01553096
0.0002466635
-0.01559505
6.408077e-05
-0.01557763
-1.741366e-05
-0.01552069
-5.693715e-05
-0.01541968
-0.000101018
-0.01530468
-0.0001149952
-0.01513235
-0.0001723351
-0.01492094
-0.0002114068
-0.0146522
-0.0002687355
-0.01436121
-0.0002909931
-0.01405477
-0.000306445
-0.01369499
-0.0003597756
-0.01331676
-0.0003782253
-0.01293221
-0.0003845598
-0.01248392
-0.000448286
-0.01201397
-0.0004699499
-0.01151969
-0.0004942757
-0.01102034
-0.000499354
-0.01050124
-0.0005191011
-0.009932808
-0.0005684302
-0.009373587
-0.0005592216
-0.008774189
-0.0005993975
-0.008157717
-0.000616472
-0.007537557
-0.00062016
-0.006909995
-0.0006275617
-0.006251433
-0.0006585622
-0.005592185
-0.0006592482
-0.004926377
-0.0006658076
-0.004248383
-0.0006779942
-0.003573614
-0.000674769
-0.002914595
-0.0006590195
-0.002215681
-0.0006989141
-0.001524494
-0.0006911867
-0.0008244456
-0.0007000483
-4.776849e-05
-0.0007766772
0.0007208686
-0.0007686371
0.001417247
-0.0006963781
0.002102687
-0.0006854406
0.002784459
-0.0006817719
0.003452125
-0.0006676654
0.004121316
-0.0006691918
0.004772687
-0.0006513707
0.005435976
-0.0006632891
0.006079306
-0.0006433294
0.006689265
-0.0006099593
0.007302563
-0.000613298
0.007902318
-0.0005997548
0.008479318
-0.000577
0.009052355
-0.0005730374
0.009609749
-0.0005573935
0.0101137
-0.000503949
0.01061153
-0.0004978369
0.01109313
-0.0004815916
0.01153308
-0.00043995
0.01197219
-0.0004391099
0.01235952
-0.0003873294
0.01271799
-0.0003584745
0.01303677
-0.0003187848
0.01331212
-0.0002753408
0.01358007
-0.0002679564
0.01380935
-0.0002292741
0.01399748
-0.0001881368
0.01414119
-0.0001437028
0.01423981
-9.862302e-05
0.01430169
-6.188544e-05
0.01428489
1.680013e-05
0.01420475
8.013955e-05
0.01399398
0.0002107798
0.0135429
0.0004510704
0.01275059
0.0007923125
0.01127295
0.001477646
0.008366186
0.00290676
0.00388462
0.004481566
0.0008097907
0.003074829
-0.0008118414
0.001621632
-0.004417546
0.003605705
-0.007594204
0.003176658
-0.006594626
-0.0009995779
-0.00371031
-0.002884316
-0.00168977
-0.00202054
0.0003074093
-0.001997179
0.003450853
-0.003143444
0.005411061
-0.001960208
-0.0002665838
0.005677645
-0.007359493
0.00709291
-0.008962181
0.001602687
-0.006835095
-0.002127085
-0.00437813
-0.002456965
-0.002352505
-0.002025625
-0.0007544195
-0.001598085
0.001080927
-0.001835346
0.002070871
-0.0009899445
0.001870598
0.0002002734
0.001608809
0.0002617884
0.001561528
4.728139e-05
0.00149846
6.306851e-05
0.001375688
0.0001227715
0.001241294
0.000134394
0.001145024
9.626994e-05
0.0009952269
0.0001497973
0.0008464942
0.0001487327
0.0006617839
0.0001847103
0.0004621134
0.0001996705
0.0003581047
0.0001040087
0.0003932477
-3.514295e-05
0.0005826546
-0.0001894069
0.0009098134
-0.0003271588
0.001348271
-0.0004384573
0.001873267
-0.0005249962
0.002409093
-0.0005358256
0.002938813
-0.0005297201
0.003079756
-0.000140943
0.001269947
0.001298293
-0.004465031
0.00570245
-0.002256197
0.005164826
-0.002854399
0.0002673449
-0.0007670453
-0.004505353
-8.369846e-05
-0.001730147
-0.001356434
0.002886611
-0.00116341
0.000158222
-0.001249824
-0.0002922635
-0.003523041
0.003265648
-0.005593325
0.003901913
-0.005756137
0.001336783
-0.005276426
-0.0006857675
-0.004772137
-0.001208558
-0.003897433
-0.001608622
-0.002573229
-0.002130819
-0.0004641549
-0.003488955
0.002646665
-0.005533239
0.005739358
-0.005687235
0.008076573
-0.004269221
0.009024017
-0.00149445
0.008415507
0.002031802
0.005571224
0.006453282
-0.0008936085
0.01092724
-0.00544683
0.006629739
-0.002460566
-0.005877711
0.0007162714
-0.006562608
0.001803092
-0.002606563
0.002351305
-0.001473842
0.003945568
-0.003494588
0.007526006
-0.006931555
0.01106299
-0.005734299
0.009919045
0.005077897
0.002747594
0.01490104
-0.002198181
0.007194004
-0.004728093
0.0003328444
-0.008899848
0.002105652
-0.01390796
0.007205443
-0.01893722
0.01077382
-0.02160322
0.006906838
-0.02231874
0.003065917
-0.0225195
0.001454559
-0.02255555
0.0008048848
-0.02252101
0.0004865189
-0.0224447
0.0002843485
-0.02234316
0.0001451267
-0.02213754
-0.0001415436
-0.02191784
-0.0002371056
-0.02168185
-0.0002929346
-0.0213997
-0.0003831691
-0.02110473
-0.00040996
-0.02075024
-0.0005268304
-0.02035732
-0.0006043221
-0.01990235
-0.0007237075
-0.01942394
-0.0007694063
-0.01893625
-0.0007941343
-0.01839099
-0.0009050309
-0.01782302
-0.0009461948
-0.0172531
-0.0009544803
-0.01660991
-0.001091473
-0.01594649
-0.001133371
-0.015255
-0.00118577
-0.01455705
-0.001197299
-0.01384225
-0.001233904
-0.01306877
-0.001341906
-0.0123078
-0.001320197
-0.01150508
-0.001402119
-0.01068049
-0.001441058
-0.009855071
-0.001445581
-0.009025658
-0.001456975
-0.008158472
-0.001525749
-0.007289653
-0.001528067
-0.006416086
-0.001539374
-0.005529182
-0.001564898
-0.004648299
-0.001555652
-0.003784656
-0.001522663
-0.002878179
-0.001605391
-0.0019768
-0.001592566
-0.001063167
-0.001613681
-6.593795e-05
-0.001773906
0.0009230756
-0.001757651
0.001832424
-0.001605727
0.002726976
-0.001579992
0.003615
-0.001569797
0.00448936
-0.001542025
0.005366896
-0.001546729
0.0062241
-0.001508575
0.007095205
-0.001534393
0.007944584
-0.001492708
0.008753721
-0.001419096
0.00956892
-0.001428497
0.01037257
-0.001403406
0.01114797
-0.001352395
0.01191922
-0.001344293
0.01267756
-0.00131573
0.01337285
-0.001199243
0.01406518
-0.001190163
0.01473951
-0.001155926
0.0153674
-0.001067838
0.01599641
-0.001068121
0.0165649
-0.0009558152
0.01710821
-0.0009017833
0.01760734
-0.0008179162
0.01805894
-0.000726945
0.01850907
-0.00071808
0.01891853
-0.0006387398
0.01928335
-0.0005529583
0.01960346
-0.0004638057
0.01987719
-0.0003723536
0.02011846
-0.0003031589
0.02030292
-0.0001676639
0.02049508
-0.0001120185
0.02066223
4.363629e-05
0.02073444
0.0003788542
0.02071959
0.0008071689
0.02054316
0.001654071
0.01947174
0.003978177
0.01614148
0.007811832
0.009654148
0.009562158
0.001213798
0.01006198
-0.004190549
0.009010051
-0.004179312
0.003165421
-0.001283984
-0.003894906
0.001117082
-0.005285382
0.002424436
-0.003327895
0.003249302
-0.002822044
0.005674147
-0.005568289
0.005834153
-0.002120214
-0.002681253
0.01419305
-0.01009865
0.0145103
-0.01027749
0.001781532
-0.007840177
-0.004564399
-0.005042657
-0.005254486
-0.002776999
-0.004291283
-0.001105325
-0.003269759
0.00117568
-0.004116352
0.003457825
-0.003272089
0.004062999
-0.0004049013
0.003072163
0.001252624
0.002125272
0.0009941729
0.001844516
0.0003438248
0.00174319
0.0002240969
0.001645983
0.0002316017
0.001600556
0.000141697
0.001506062
0.0002442908
0.001434821
0.0002199733
0.00133731
0.0002822222
0.001200827
0.000336153
0.001118189
0.0001866465
0.001136368
-5.332159e-05
0.001305952
-0.0003589906
0.001642183
-0.0006633904
0.002131035
-0.0009273084
0.002744775
-0.001138736
0.003421461
-0.001212511
0.004046918
-0.001155178
0.004668944
-0.0007629689
0.001473861
0.004509605
-0.005901248
0.007094094
0.0008896498
0.008784781
-0.001624481
0.002781476
-0.001942638
-0.004187196
-0.00190994
-0.001762845
-0.002623186
0.003599857
-0.002047058
-0.0004179055
-0.002732875
0.0003935532
-0.005553642
0.006086415
-0.007086525
0.005434796
-0.00672726
0.0009775179
-0.006220238
-0.001192789
-0.005521512
-0.001907284
-0.004411927
-0.002718207
-0.002781688
-0.003761058
-0.0002475131
-0.00602313
0.003287002
-0.009067754
0.006774187
-0.00917442
0.009454524
-0.006949558
0.010436
-0.002475923
0.009488746
0.002979053
0.007239357
0.008702672
0.001160065
0.01700654
-0.004658872
0.01244868
-0.003695788
-0.006840795
-0.002065845
-0.008192551
-0.002361522
-0.002310886
-0.002581568
-0.001253796
-0.0006314879
-0.005444668
0.003508221
-0.01107126
0.00704803
-0.009274107
0.007067674
0.005058253
0.00195487
0.02001385
-0.008506167
0.01765504
-0.01744407
0.009270751
-0.02262084
0.007282419
-0.02541926
0.01000386
-0.02647155
0.01182612
-0.02636376
0.00679905
-0.02626719
0.002969346
-0.02636145
0.001548816
-0.02643604
0.0008794714
-0.02647966
0.0005301464
-0.02647639
0.0002810772
-0.02643856
0.0001072938
-0.02624246
-0.00033764
-0.02599989
-0.0004796836
-0.02573162
-0.0005612008
-0.0254086
-0.0007061876
-0.02507213
-0.0007464329
-0.02466137
-0.0009375891
-0.02420585
-0.001059847
-0.02367414
-0.001255414
-0.02311416
-0.001329385
-0.02254401
-0.001364282
-0.02190174
-0.001547301
-0.02123211
-0.001615822
-0.02056168
-0.00162491
-0.01980027
-0.001852883
-0.01901468
-0.001918967
-0.01819492
-0.002005532
-0.01736701
-0.00202521
-0.01651875
-0.002082157
-0.01559765
-0.002263008
-0.01469305
-0.002224799
-0.01373563
-0.002359537
-0.01275205
-0.002424642
-0.01176666
-0.00243097
-0.01077604
-0.002447594
-0.009739496
-0.00256229
-0.008700816
-0.002566747
-0.007655641
-0.002584549
-0.006595113
-0.002625426
-0.005541024
-0.002609741
-0.004508009
-0.002555678
-0.003426272
-0.002687128
-0.002350417
-0.00266842
-0.001261183
-0.002702916
-8.191833e-05
-0.00295317
0.001090851
-0.00293042
0.002179942
-0.002694818
0.003252834
-0.002652884
0.004317347
-0.00263431
0.00536549
-0.002590168
0.006416228
-0.002597466
0.007441462
-0.002533809
0.008482817
-0.002575749
0.009496971
-0.002506863
0.01046257
-0.00238469
0.01143501
-0.002400941
0.01239238
-0.002360776
0.01331539
-0.002275408
0.01423367
-0.002262566
0.01513522
-0.002217282
0.01596024
-0.00202427
0.01678222
-0.002012138
0.01758185
-0.001955552
0.01832445
-0.00181044
0.01907021
-0.001813878
0.01974113
-0.001626738
0.02038279
-0.001543442
0.0209705
-0.001405627
0.02149954
-0.001255989
0.0220286
-0.001247137
0.02250637
-0.001116509
0.02293223
-0.0009788203
0.02330344
-0.0008350161
0.02361957
-0.0006884816
0.02389636
-0.0005799528
0.02409493
-0.0003662304
0.02427631
-0.0002934033
0.02439467
-7.472384e-05
0.0243827
0.0003908337
0.02430219
0.0008876786
0.02427976
0.001676496
0.02451442
0.003743518
0.02429741
0.008028843
0.02048895
0.01337062
0.01074598
0.01980495
0.002613593
0.01714244
0.002916271
0.002862742
0.006869862
-0.007848497
0.009697489
-0.008113009
0.01029473
-0.003925138
0.009329854
-0.001857167
0.008614835
-0.004853269
0.005037331
0.001457289
-0.004421365
0.02365175
-0.01098142
0.02107036
-0.01101967
0.001819774
-0.008178235
-0.007405829
-0.005033683
-0.008399038
-0.00265163
-0.006673336
-0.00103534
-0.004886049
0.001156037
-0.006307729
0.003886253
-0.006002305
0.005249913
-0.001768561
0.004162149
0.002340388
0.002669799
0.002486523
0.002187696
0.0008259277
0.002049847
0.0003619462
0.001919051
0.0003623977
0.001850764
0.0002099838
0.001726739
0.000368316
0.001644038
0.0003026741
0.001541675
0.0003845853
0.00139027
0.0004875582
0.001286925
0.0002899913
0.001289551
-5.594729e-05
0.001458007
-0.0005274464
0.001809626
-0.00101501
0.002336924
-0.001454606
0.003027952
-0.001829764
0.003796929
-0.001981488
0.004583207
-0.001941456
0.0052038
-0.001383562
0.0007764121
0.007283439
-0.006759797
0.006570453
0.005355089
0.01071313
0.001466444
0.006670121
-0.001825233
-0.0008955194
-0.003281346
-0.0003067315
-0.004188232
0.004506743
-0.003674296
-0.0009318415
-0.004595136
0.001314394
-0.007375491
0.00886677
-0.008493826
0.006553131
-0.007907767
0.0003914584
-0.007176754
-0.001923802
-0.006029345
-0.003054693
-0.004549359
-0.004198193
-0.00267481
-0.005635607
0.0001702164
-0.008868157
0.004005533
-0.01290307
0.007941733
-0.01311062
0.01100712
-0.01001494
0.01206069
-0.003529494
0.01059968
0.004440062
0.008025635
0.01127672
0.002854968
0.0221772
-0.003531902
0.01883555
-0.005746766
-0.004625931
-0.006765359
-0.007173958
-0.008450438
-0.000625807
-0.009129539
-0.0005746959
-0.007248089
-0.007326118
-0.002802196
-0.01551716
0.0001728904
-0.01224919
0.001843563
0.00338758
-0.004442541
0.02629995
-0.01856247
0.03177497
-0.02863439
0.01934267
-0.03161901
0.01026704
-0.03216749
0.01055235
-0.03151699
0.01117561
-0.03127923
0.006561296
-0.03162113
0.003311239
-0.03189686
0.001824549
-0.03205347
0.001036085
-0.03211714
0.0005938113
-0.03210071
0.0002646537
-0.03203451
4.108567e-05
-0.03176678
-0.0006053649
-0.03144996
-0.000796505
-0.03110299
-0.0009081731
-0.03069002
-0.001119156
-0.03026517
-0.001171278
-0.02975364
-0.001449125
-0.02918993
-0.001623552
-0.02853588
-0.001909463
-0.02784846
-0.002016806
-0.02715046
-0.002062285
-0.02636817
-0.002329586
-0.02555321
-0.002430786
-0.02473781
-0.002440307
-0.02381711
-0.00277358
-0.02286536
-0.002870717
-0.02187373
-0.002997164
-0.02087365
-0.00302529
-0.0198504
-0.003105409
-0.01873835
-0.003375063
-0.01764851
-0.003314634
-0.01649411
-0.003513934
-0.01530985
-0.003608902
-0.0141223
-0.003618527
-0.01292918
-0.003640713
-0.01168123
-0.00381024
-0.01043079
-0.003817187
-0.009172249
-0.003843088
-0.007897239
-0.003900436
-0.006628067
-0.003878913
-0.00538715
-0.003796595
-0.004088956
-0.003985322
-0.002799416
-0.003957961
-0.001499102
-0.004003229
-0.0001044557
-0.004347817
0.001288185
-0.004323061
0.00259822
-0.004004853
0.003892669
-0.003947333
0.005173889
-0.00391553
0.006433583
-0.003849861
0.007695151
-0.003859033
0.008925256
-0.003763914
0.01017636
-0.003826855
0.01139203
-0.003722525
0.01255182
-0.003544483
0.01372082
-0.003569941
0.0148699
-0.003509854
0.01598087
-0.003386377
0.01708778
-0.003369484
0.018172
-0.003301502
0.01916795
-0.003020219
0.0201612
-0.00300539
0.02112658
-0.002920926
0.02202566
-0.002709517
0.02292935
-0.002717574
0.02374395
-0.002441341
0.02452361
-0.002323098
0.02523967
-0.00212169
0.02588865
-0.00190497
0.02653739
-0.001895874
0.02712513
-0.001704245
0.02765356
-0.001507251
0.02811566
-0.001297119
0.02851591
-0.00108873
0.02887087
-0.0009349086
0.02913306
-0.0006284226
0.02937911
-0.0005394556
0.02954425
-0.000239865
0.0295325
0.0004025866
0.02937705
0.001043124
0.02911282
0.001940732
0.02893989
0.003916441
0.02937725
0.007591485
0.0290851
0.01366277
0.02420037
0.02468968
0.01808397
0.02325885
0.01646649
0.004480224
0.0185281
-0.009910114
0.0201343
-0.009719202
0.01984075
-0.003631589
0.01731127
0.0006723112
0.01297081
-0.0005128122
0.005085668
0.009342434
-0.004999288
0.0337367
-0.0112534
0.02732447
-0.01169129
0.002257663
-0.008192255
-0.01090486
-0.004466737
-0.01212456
-0.001888376
-0.009251697
-0.0003365859
-0.006437839
0.001571722
-0.008216037
0.004231918
-0.0086625
0.005981744
-0.003518388
0.00500024
0.003321893
0.003263072
0.004223691
0.002653976
0.001435023
0.002439568
0.0005763542
0.00222465
0.0005773158
0.00210471
0.0003299232
0.001926334
0.0005466926
0.001813987
0.0004150214
0.00168287
0.0005157019
0.001497635
0.0006727929
0.001371534
0.0004160927
0.001337892
-2.230566e-05
0.001462897
-0.0006524504
0.001801481
-0.001353595
0.002384725
-0.00203785
0.003210837
-0.002655877
0.00415352
-0.002924171
0.005141761
-0.002929696
0.005809572
-0.002051373
-0.0001738132
0.009031033
-0.007635215
0.005174634
0.009107656
0.01063651
0.005424975
0.0103528
-0.0004123189
0.004941774
-0.004416251
0.003697201
-0.006207671
0.006298162
-0.006166286
-0.0009732268
-0.007029769
0.002177877
-0.009379819
0.01121682
-0.01025808
0.007431389
-0.009563316
-0.0003033025
-0.008408688
-0.00307843
-0.006568537
-0.004894843
-0.004462201
-0.00630453
-0.002311735
-0.007786073
0.0006158686
-0.01179576
0.004793122
-0.01708033
0.009324067
-0.01764156
0.01286984
-0.01356072
0.01398668
-0.004646332
0.0119279
0.006498838
0.008344832
0.01485979
0.003595736
0.0269263
-0.00325805
0.02568933
-0.009206925
0.001322944
-0.01349322
-0.00288766
-0.01665709
0.002538056
-0.01788121
0.0006494258
-0.01655417
-0.008653154
-0.01249755
-0.01957377
-0.007596093
-0.01715065
-0.007979083
0.00377057
-0.01705984
0.0353807
-0.03024367
0.04495881
-0.0363489
0.0254479
-0.03718479
0.01110293
-0.0374835
0.01085105
-0.03703834
0.01073045
-0.03715571
0.006678666
-0.0375969
0.003752424
-0.03790252
0.002130172
-0.03809989
0.001233458
-0.0382165
0.0007104184
-0.03821881
0.000266965
-0.03817621
-1.515016e-06
-0.03788161
-0.0008999671
-0.03752888
-0.001149235
-0.03713914
-0.001297906
-0.03665697
-0.001601332
-0.03617655
-0.001651692
-0.03557531
-0.002050371
-0.03491802
-0.002280842
-0.0341445
-0.002682982
-0.0333317
-0.00282961
-0.03250972
-0.002884257
-0.03157842
-0.003260895
-0.0306084
-0.003400802
-0.02964162
-0.00340709
-0.02854459
-0.003870607
-0.02740695
-0.004008356
-0.02622215
-0.004181963
-0.02502951
-0.004217936
-0.02380861
-0.004326308
-0.02247423
-0.004709443
-0.02117347
-0.004615395
-0.0197885
-0.004898902
-0.01837043
-0.005026967
-0.01694548
-0.005043482
-0.01551511
-0.005071081
-0.01401476
-0.005310597
-0.01251101
-0.005320936
-0.01099446
-0.00535963
-0.009461271
-0.005433628
-0.007931703
-0.005408481
-0.00643996
-0.005288338
-0.004878057
-0.005547225
-0.003329585
-0.005506433
-0.001778312
-0.005554502
-0.000132827
-0.005993303
0.001520152
-0.00597604
0.00309926
-0.00558396
0.004662272
-0.005510345
0.00620119
-0.005454448
0.007711862
-0.005360533
0.009225453
-0.005372624
0.01069926
-0.005237718
0.01220161
-0.005329209
0.01365457
-0.005175486
0.01504663
-0.004936541
0.01645211
-0.004975424
0.01782538
-0.004883123
0.01915798
-0.004718973
0.02049074
-0.004702249
0.02178704
-0.004597802
0.0229797
-0.004212875
0.02417134
-0.004197033
0.0253257
-0.004075285
0.02639717
-0.003780985
0.0274802
-0.003800604
0.02845041
-0.003411553
0.02937846
-0.003251148
0.03022915
-0.002972381
0.03099598
-0.002671805
0.03176586
-0.002665748
0.03245525
-0.002393637
0.03307822
-0.002130226
0.03361505
-0.001833943
0.03407718
-0.001550866
0.0344894
-0.001347121
0.0347749
-0.0009139238
0.03504733
-0.0008118852
0.03521773
-0.0004102661
0.03516873
0.0004515867
0.03498076
0.001231089
0.03469227
0.002229229
0.0343642
0.004244509
0.03429038
0.007665306
0.035258
0.01269514
0.03588048
0.0240672
0.03460316
0.02453617
0.03283331
0.006250072
0.03184992
-0.008926726
0.03113236
-0.009001639
0.02954244
-0.002041666
0.02590824
0.004306504
0.01860079
0.006794638
0.006811485
0.02113174
-0.004403432
0.04495162
-0.0109081
0.03382914
-0.01167223
0.003021795
-0.007650662
-0.01492643
-0.003343445
-0.01643177
-0.0004885917
-0.01210655
0.0009753302
-0.007901761
0.002505079
-0.009745786
0.004742198
-0.01089962
0.006559959
-0.005336149
0.005712504
0.004169348
0.00392457
0.006011625
0.003255561
0.002104033
0.002905664
0.0009262507
0.002546832
0.000936148
0.002350355
0.0005264003
0.002088137
0.0008089106
0.001922434
0.0005807241
0.001737693
0.000700443
0.001481836
0.0009286501
0.001260844
0.0006370845
0.001094964
0.0001435749
0.001132741
-0.0006902274
0.001525062
-0.001745916
0.002309556
-0.002822343
0.003422543
-0.003768864
0.004664728
-0.004166356
0.005912525
-0.004177494
0.006833535
-0.002972383
-0.0009754935
0.01039064
-0.009104665
0.003888657
0.01152187
0.009505278
0.009080147
0.01279453
0.001700385
0.01232154
-0.005091492
0.01048908
-0.008454366
0.009661036
-0.009252427
-0.0001751654
-0.01010205
0.003027502
-0.01182324
0.01293801
-0.01256301
0.008171156
-0.0118986
-0.0009677114
-0.01028784
-0.004689194
-0.007616712
-0.007565969
-0.004569816
-0.009351425
-0.001966331
-0.01038956
0.001012049
-0.01477414
0.005677532
-0.02174581
0.01100694
-0.02297098
0.01513788
-0.01769165
0.01632218
-0.005830642
0.01347707
0.009343948
0.008410963
0.0199259
0.003156586
0.03218067
-0.004817532
0.03366345
-0.01471816
0.01122357
-0.02214983
0.004544014
-0.02656731
0.006955537
-0.0286238
0.002705915
-0.02869737
-0.008579589
-0.02665214
-0.021619
-0.02363926
-0.02016353
-0.02630124
0.006432551
-0.03461689
0.04369635
-0.04169911
0.05204103
-0.0428539
0.02660269
-0.04359997
0.011849
-0.04461654
0.01186761
-0.04461393
0.01072784
-0.04495781
0.007022545
-0.04545283
0.004247444
-0.04579203
0.002469377
-0.04599302
0.001434448
-0.04610242
0.0008198129
-0.04604631
0.0002108553
-0.04596872
-7.91012e-05
-0.04559014
-0.001278549
-0.04515342
-0.00158595
-0.04466516
-0.001786167
-0.04405717
-0.002209327
-0.04347969
-0.002229168
-0.04274137
-0.002788689
-0.04194683
-0.003075386
-0.04100776
-0.003622054
-0.04002163
-0.003815739
-0.03903322
-0.003872669
-0.03790664
-0.004387474
-0.03673718
-0.004570257
-0.03557941
-0.004564865
-0.03426066
-0.005189355
-0.03288837
-0.005380647
-0.03146602
-0.005604314
-0.03003466
-0.005649291
-0.02857346
-0.00578751
-0.02696507
-0.006317836
-0.02541292
-0.006167545
-0.02374767
-0.006564143
-0.02204755
-0.006727095
-0.02033907
-0.006751961
-0.01862637
-0.006783773
-0.01682609
-0.007110879
-0.01502348
-0.007123546
-0.01319514
-0.007187975
-0.01135083
-0.007277938
-0.009499348
-0.00725996
-0.007706312
-0.007081374
-0.005825021
-0.007428516
-0.003957817
-0.007373637
-0.002106822
-0.007405498
-0.0001660942
-0.00793403
0.001796945
-0.007939079
0.003707794
-0.007494809
0.005586064
-0.007388615
0.007430703
-0.007299087
0.009241988
-0.007171818
0.01105659
-0.00718723
0.01282152
-0.007002641
0.01462942
-0.007137116
0.01636608
-0.006912144
0.01804148
-0.006611942
0.01973881
-0.006672754
0.02138121
-0.006525516
0.02298043
-0.006318194
0.0245956
-0.006317424
0.02614836
-0.006150558
0.02757685
-0.005641369
0.0290117
-0.005631881
0.03039903
-0.005462611
0.03168117
-0.005063125
0.03298688
-0.005106316
0.03415405
-0.004578721
0.03527107
-0.004368172
0.03629357
-0.003994879
0.03722002
-0.003598256
0.03815575
-0.003601471
0.03898488
-0.003222771
0.03974808
-0.00289343
0.040399
-0.002484857
0.04096827
-0.00212014
0.04147726
-0.001856105
0.04184039
-0.001277058
0.04218201
-0.001153508
0.04242103
-0.0006492825
0.04242414
0.0004484717
0.04222622
0.001429015
0.04191086
0.002544587
0.04157532
0.004580049
0.04116608
0.008074549
0.04158134
0.01227987
0.04419974
0.02144881
0.04601823
0.02271768
0.04449975
0.007768549
0.04161407
-0.006041045
0.03926413
-0.0066517
0.03675396
0.0004685065
0.03302014
0.008040317
0.02470533
0.01510945
0.01065893
0.03517814
-0.002133006
0.05774356
-0.008992827
0.04068896
-0.009812232
0.0038412
-0.005651773
-0.01908689
-0.001187287
-0.02089626
0.002170479
-0.01546432
0.003237198
-0.00896848
0.004166552
-0.01067514
0.005629873
-0.01236294
0.007242114
-0.00694839
0.006467438
0.004944023
0.004678784
0.00780028
0.003926886
0.002855931
0.003356065
0.001497072
0.002805398
0.001486815
0.002518612
0.0008131868
0.002095825
0.001231697
0.001773918
0.0009026304
0.001448002
0.001026359
0.001033014
0.001343638
0.0006313126
0.001038786
0.0003478875
0.0004270001
0.0004605325
-0.0008028723
0.001174871
-0.002460254
0.002388013
-0.004035485
0.003939531
-0.005320383
0.005584792
-0.005811617
0.007191114
-0.005783816
0.008380482
-0.004161751
-0.001699677
0.01246666
-0.01160068
0.00302268
0.01339206
0.008579873
0.01206646
0.01412013
0.004518089
0.01986991
-0.004751536
0.0197587
-0.01007426
0.01498376
-0.01211906
0.001869643
-0.01338048
0.00428892
-0.01459027
0.01414779
-0.01533282
0.008913709
-0.01484755
-0.001452977
-0.0128869
-0.006649851
-0.009420106
-0.01103276
-0.005206453
-0.01356508
-0.00200524
-0.01359077
0.001320915
-0.0181003
0.006761697
-0.02718659
0.01299322
-0.0292025
0.01770754
-0.02240597
0.01897616
-0.007099259
0.01513769
0.01318242
0.008113412
0.02695018
0.001111224
0.03918286
-0.008891789
0.04366646
-0.02218403
0.02451582
-0.03183971
0.01419969
-0.03714244
0.01225827
-0.04032174
0.005885216
-0.04262821
-0.006273114
-0.04411644
-0.02013078
-0.04581048
-0.01846949
-0.04989205
0.01051413
-0.05334324
0.04714753
-0.05222507
0.05092286
-0.05061917
0.02499678
-0.05228779
0.01351762
-0.05342733
0.01300715
-0.0535108
0.01081131
-0.05385265
0.007364395
-0.05435908
0.004753877
-0.0547345
0.002844794
-0.0549739
0.001673849
-0.05516098
0.00100689
-0.05508609
0.0001359632
-0.05507287
-9.231998e-05
-0.05457406
-0.001777356
-0.05407592
-0.002084091
-0.05351056
-0.002351529
-0.05276274
-0.00295715
-0.05210933
-0.002882577
-0.051211
-0.003687012
-0.05027787
-0.004008523
-0.04915327
-0.004746649
-0.04796488
-0.005004131
-0.04679358
-0.005043965
-0.04544876
-0.005732301
-0.0440462
-0.005972818
-0.04265787
-0.005953189
-0.04108819
-0.006759037
-0.0394461
-0.007022734
-0.03774421
-0.007306204
-0.0360112
-0.007382299
-0.03428866
-0.007510057
-0.03234144
-0.008265057
-0.03049695
-0.008012037
-0.02848844
-0.008572653
-0.0264558
-0.008759726
-0.02441518
-0.008792583
-0.0223369
-0.008862057
-0.02019813
-0.009249647
-0.01804875
-0.009272924
-0.01585348
-0.00938325
-0.01365493
-0.009476492
-0.0113794
-0.009535483
-0.009242591
-0.009218185
-0.006970862
-0.009700244
-0.004705725
-0.009638774
-0.002494988
-0.009616235
-0.0002013897
-0.01022763
0.002133923
-0.01027439
0.004450126
-0.009811012
0.006678758
-0.009617247
0.0088975
-0.009517829
0.01107755
-0.009351867
0.01324406
-0.009353743
0.01535691
-0.009115484
0.01755113
-0.009331344
0.01963553
-0.008996537
0.02164248
-0.008618897
0.02368164
-0.008711913
0.02566754
-0.008511418
0.02758985
-0.008240505
0.02951818
-0.00824575
0.03138448
-0.008016857
0.03309006
-0.007346952
0.03480849
-0.007350307
0.03645157
-0.00710569
0.03800157
-0.006613126
0.0395693
-0.006674045
0.04095862
-0.005968042
0.04230908
-0.005718637
0.04351756
-0.005203359
0.0446268
-0.004707498
0.04575351
-0.004728176
0.04672713
-0.004196391
0.04765103
-0.003817327
0.04840904
-0.003242867
0.04909078
-0.002801883
0.0497063
-0.002471624
0.0501166
-0.00168736
0.05053817
-0.001575077
0.05080933
-0.0009204484
0.05076063
0.0004971721
0.0505408
0.001648853
0.05019308
0.002892305
0.04989161
0.004881519
0.04960681
0.008359348
0.04964425
0.01224244
0.05189015
0.0192029
0.05405761
0.02055022
0.05256704
0.009259119
0.04902364
-0.002497644
0.04609849
-0.003726547
0.04297208
0.003594916
0.03942958
0.01158282
0.03163567
0.02290336
0.01729204
0.04952177
0.003506056
0.07152955
-0.003691769
0.04788678
-0.004428811
0.004578242
-0.0007114149
-0.02280429
0.003361919
-0.02496959
0.006349614
-0.01845201
0.006873505
-0.009492371
0.007088632
-0.01089027
0.007320984
-0.01259529
0.008337523
-0.007964929
0.007425409
0.005856137
0.00549593
0.009729758
0.004520517
0.003831344
0.003632298
0.002385291
0.002896832
0.002222281
0.002491405
0.001218614
0.001719114
0.002003988
0.001081426
0.001540319
0.0004648833
0.001642902
-0.0001214004
0.001929922
-0.0006341915
0.001551577
-0.0007828081
0.0005756167
-0.0001943552
-0.001391325
0.001101447
-0.003756057
0.002875145
-0.005809182
0.004973129
-0.007418366
0.00714384
-0.007982328
0.009225961
-0.007865937
0.01068456
-0.005620353
-0.002615794
0.01585832
-0.01512256
0.002286921
0.01605172
0.008386474
0.01511326
0.01505858
0.008513421
0.02646976
-0.002975812
0.03124794
-0.01026162
0.02226956
-0.01377816
0.005386186
-0.01619562
0.006706385
-0.0172449
0.01519707
-0.01808188
0.009750693
-0.01771618
-0.001818681
-0.01568442
-0.008681608
-0.01155447
-0.01516271
-0.006078749
-0.0190408
-0.002613241
-0.01705628
0.001456509
-0.02217005
0.007987384
-0.03371746
0.01491017
-0.03612529
0.01988908
-0.02738488
0.02129098
-0.00850116
0.01687881
0.01759459
0.008568
0.03526098
-0.001587065
0.04933793
-0.01565195
0.05773135
-0.03158162
0.04044549
-0.04133623
0.0239543
-0.04705446
0.0179765
-0.05135863
0.01018938
-0.05579441
-0.00183733
-0.06036167
-0.01556352
-0.06600143
-0.01282973
-0.07050769
0.01502039
-0.06909078
0.04573062
-0.06281696
0.04464904
-0.06100995
0.02318977
-0.06317613
0.0156838
-0.06416781
0.01399884
-0.06443843
0.01108193
-0.06483641
0.007762378
-0.0654158
0.00533326
-0.06583005
0.003259049
-0.06601033
0.00185413
-0.06629898
0.001295543
-0.06608049
-8.253122e-05
-0.06603198
-0.000140827
-0.06550367
-0.002305664
-0.06486735
-0.002720413
-0.06425028
-0.0029686
-0.06326071
-0.003946718
-0.0625243
-0.003618992
-0.06143
-0.004781311
-0.06033876
-0.005099759
-0.05896754
-0.006117878
-0.0575087
-0.006462963
-0.05612787
-0.006424801
-0.05454647
-0.007313699
-0.05279735
-0.007721937
-0.05114033
-0.00761021
-0.04928558
-0.00861379
-0.04733601
-0.0089723
-0.04525622
-0.009385996
-0.04315824
-0.009480279
-0.04119248
-0.009475816
-0.03876999
-0.01068754
-0.03661209
-0.01016994
-0.03412893
-0.01105581
-0.03175618
-0.01113248
-0.02930938
-0.01123938
-0.02678188
-0.01138955
-0.02426496
-0.01176657
-0.02166581
-0.01187207
-0.01902766
-0.01202141
-0.01644674
-0.01205741
-0.01365312
-0.01232911
-0.01114993
-0.01172137
-0.008354925
-0.01249525
-0.005615203
-0.0123785
-0.002964055
-0.01226738
-0.0002290215
-0.01296266
0.002592243
-0.01309566
0.005300078
-0.01251885
0.007940127
-0.0122573
0.01063762
-0.01221533
0.0132795
-0.01199374
0.01588363
-0.01195787
0.01839198
-0.01162384
0.02109765
-0.01203701
0.02358256