/*--------------------------------*- C++ -*----------------------------------*\
| =========                 |                                                 |
| \\      /  F ield         | OpenFOAM: The Open Source CFD Toolbox           |
|  \\    /   O peration     | Version:  2406                                  |
|   \\  /    A nd           | Website:  www.openfoam.com                      |
|    \\/     M anipulation  |                                                 |
\*---------------------------------------------------------------------------*/
FoamFile
{
    version     2.0;
    format      ascii;
    arch        "LSB;label=32;scalar=64";
    class       volVectorField;
    location    "2.22";
    object      U;
}
// * * * * * * * * * * * * * * * * * * * * * * * * * * * * * * * * * * * * * //

dimensions      [0 1 -1 0 0 0 0];

internalField   nonuniform List<vector> 
15536
(
(0.1190324 0.8908633 1.685573e-23)
(0.2001996 -2.503061 -1.791306e-19)
(0.2448633 -2.567013 -3.100197e-19)
(0.004019701 -1.062026 -1.130758e-19)
(-0.4233777 1.86798 -1.893335e-21)
(-0.07411522 0.7109298 1.269282e-21)
(0.2748246 -0.8967029 5.982387e-21)
(0.06077724 -0.2098633 -5.95011e-21)
(0.0003955081 0.04168988 1.789083e-18)
(0.9329684 -2.04939 1.803444e-18)
(1.786748 -3.656729 0)
(1.961285 -3.850627 0)
(1.712404 -3.126551 -1.060031e-20)
(1.496746 -2.504086 2.649454e-18)
(1.229888 -1.871526 1.533923e-18)
(0.6871958 -0.9943143 -4.103298e-18)
(-0.5784833 0.6035281 2.832312e-18)
(-2.306341 2.5937 4.303239e-20)
(-3.933636 4.282262 -9.800736e-20)
(-5.072845 5.246524 5.595098e-20)
(-5.139387 5.085501 0)
(-3.489907 3.414101 5.842667e-18)
(-0.04780751 0.3649324 0)
(3.806326 -2.645083 1.78202e-19)
(3.223453 -2.313637 1.465511e-22)
(-0.4464082 0.07673967 -1.937077e-20)
(-2.666169 1.404576 1.948641e-20)
(-3.792189 1.934101 -4.613727e-18)
(-4.97956 2.293369 -5.705361e-18)
(-7.307307 2.996365 0)
(-10.04574 3.794484 -6.439541e-20)
(-11.01009 4.032611 -9.178689e-18)
(-4.783712 1.904317 7.916983e-18)
(3.89725 -0.8877096 0)
(1.303828 -0.517452 -5.377611e-18)
(-1.260432 -0.1752508 -2.868034e-20)
(-3.257801 0.1584529 3.85194e-18)
(3.185191 -0.0440133 -1.725684e-18)
(8.92496 0.1325405 1.638199e-21)
(11.96068 0.5795488 -4.134889e-19)
(13.55423 1.152589 1.683163e-18)
(14.43622 1.808557 -2.673217e-20)
(14.96513 2.495522 2.649931e-20)
(15.26206 3.181426 0)
(15.39367 3.855653 -6.631113e-18)
(15.37995 4.504178 -6.570159e-18)
(15.21603 5.116449 0)
(14.9678 5.698552 -1.248101e-17)
(14.65299 6.251656 1.215401e-17)
(14.29606 6.778486 1.17245e-17)
(13.88626 7.264275 4.270218e-20)
(13.4176 7.704902 -1.064294e-17)
(12.89807 8.095303 0)
(12.33676 8.437547 0)
(11.74302 8.728192 8.642267e-18)
(11.11454 8.958874 7.95063e-18)
(10.47007 9.141051 5.321823e-20)
(9.8161 9.273117 6.337156e-18)
(9.139173 9.335975 1.121363e-17)
(8.45229 9.33825 4.813204e-18)
(7.763582 9.28311 3.960711e-18)
(7.086821 9.180295 -2.810333e-20)
(6.41869 9.019816 0)
(5.756618 8.794634 1.506044e-18)
(5.11453 8.521774 0)
(4.48825 8.187551 1.613365e-19)
(3.88595 7.798869 -2.874953e-20)
(3.318587 7.366149 -2.90391e-21)
(2.785375 6.886873 8.179108e-21)
(2.29049 6.365062 -3.17449e-18)
(1.839901 5.809549 -1.612331e-20)
(1.434197 5.217874 2.247329e-18)
(1.074954 4.592196 2.521793e-18)
(0.7675561 3.948192 0)
(0.5114679 3.289448 0)
(0.3093644 2.611265 3.173783e-18)
(0.1589121 1.916339 -4.131198e-22)
(0.06433788 1.206738 8.775497e-19)
(0.02908486 0.4499249 1.635899e-21)
(0.0433739 -0.3471885 -6.951634e-21)
(0.1059349 -1.093128 -1.728948e-18)
(0.2244524 -1.793257 0)
(0.3972268 -2.47568 3.166008e-18)
(0.6221954 -3.143613 0)
(0.8982136 -3.790264 -2.727176e-18)
(1.222831 -4.410554 2.442886e-18)
(1.595627 -5.00279 1.817466e-20)
(2.013095 -5.564455 3.766868e-18)
(2.471843 -6.085065 1.082514e-20)
(2.967907 -6.562515 -2.448233e-18)
(3.498531 -6.998523 -1.718189e-18)
(4.060917 -7.386942 1.016618e-20)
(4.653138 -7.729951 -1.648936e-19)
(5.267502 -8.022143 -6.347573e-19)
(5.8965 -8.260037 1.433472e-20)
(6.529753 -8.431396 6.287994e-21)
(7.172504 -8.550094 -3.022744e-18)
(7.820349 -8.616112 0)
(8.464988 -8.622139 9.09702e-18)
(9.108665 -8.578688 5.256383e-18)
(9.732094 -8.472306 9.567641e-20)
(10.33134 -8.305318 -6.819953e-18)
(10.90233 -8.080944 0)
(11.44373 -7.803595 0)
(11.95457 -7.480841 0)
(12.4257 -7.111145 0)
(12.84701 -6.696021 9.822706e-18)
(13.21451 -6.239148 1.037714e-17)
(13.52834 -5.745908 2.519083e-20)
(13.77726 -5.222321 -1.114214e-17)
(13.92559 -4.660064 -5.679123e-18)
(13.9483 -4.062853 -5.85419e-18)
(13.78871 -3.427185 4.579934e-20)
(13.36213 -2.759346 5.931346e-18)
(12.46899 -2.090075 3.032857e-18)
(10.60444 -1.404743 -2.357801e-20)
(6.632912 -0.6591416 -5.846624e-21)
(1.493243 0.008963572 4.104804e-19)
(0.7154184 0.03767575 -8.189748e-19)
(-2.994179 -0.5105421 -2.276242e-20)
(-7.201744 -1.103057 1.517241e-20)
(-7.299292 -1.192532 3.698856e-18)
(-5.024737 -0.8593447 2.567513e-20)
(-2.831598 -0.5425027 0)
(-1.092191 -0.1576925 -4.074944e-18)
(1.801398 0.7593034 -3.11741e-18)
(6.127494 2.352948 3.513538e-21)
(3.623596 1.205404 5.887124e-18)
(-4.649629 -2.657588 -1.267843e-17)
(-8.109528 -4.388221 0)
(-6.958434 -3.911753 0)
(-4.890058 -2.941987 -9.383209e-18)
(-2.927712 -1.883329 0)
(-1.373817 -0.937458 4.372741e-20)
(0.09541899 0.1288641 -5.112181e-18)
(1.493051 1.253682 -4.26748e-18)
(1.64724 1.477278 3.069744e-20)
(1.186679 1.211562 -7.859633e-18)
(1.042735 1.156914 -6.415335e-20)
(0.9921239 1.160823 8.76374e-18)
(0.9153711 1.154151 4.757347e-18)
(0.7996588 1.093463 5.11831e-18)
(0.6860704 1.021763 5.372769e-18)
(0.5838071 0.9391545 0)
(0.4785541 0.8352676 -2.238185e-20)
(0.3714613 0.7002771 -5.66821e-18)
(0.2565818 0.520781 0)
(0.1646576 0.3703041 5.45267e-18)
(0.1291565 0.3371793 -4.008451e-20)
(0.146166 0.4571107 1.927056e-20)
(0.1955066 0.7253828 2.183289e-18)
(0.2548122 1.119843 2.671884e-22)
(0.3036906 1.616114 0)
(0.3264777 2.171657 7.744178e-19)
(0.3025199 2.70965 5.717171e-21)
(0.255467 3.229579 1.104415e-21)
(0.2085388 3.064243 -1.161197e-21)
(0.2548019 3.505197 -7.952198e-20)
(0.3147615 -1.404818 1.447242e-19)
(0.2093079 -2.669764 0)
(-0.07470766 -1.721429 9.265124e-20)
(-0.1952503 0.404542 0)
(0.3377092 -0.6365111 7.028084e-19)
(0.4021792 -1.411178 4.898566e-21)
(0.1466941 -0.6281658 -4.863131e-21)
(0.6006816 -1.210937 -1.410193e-18)
(1.916805 -4.174297 -1.405899e-18)
(2.180683 -4.691668 0)
(1.970259 -4.133715 9.730139e-21)
(1.972578 -3.800673 -1.175063e-21)
(1.850599 -3.276636 -1.065981e-18)
(1.514099 -2.525448 -2.506255e-18)
(0.6847327 -1.29657 1.633208e-18)
(-0.8071032 0.5034428 -2.200723e-18)
(-2.548689 2.493444 -2.203892e-20)
(-4.164273 4.180784 0)
(-5.289418 5.167343 0)
(-5.626401 5.348831 0)
(-4.945484 4.727634 4.53168e-18)
(-2.201071 2.501793 8.299777e-21)
(3.925557 -2.498561 -8.6506e-21)
(3.393971 -2.785969 3.813171e-21)
(0.04390368 -0.5784899 -3.87802e-21)
(-1.269647 0.4523893 0)
(-1.881577 0.7862074 0)
(-2.497619 0.8543916 9.700088e-18)
(-4.385533 1.296405 7.749922e-20)
(-6.905724 2.083157 -7.448192e-20)
(-9.367975 3.271586 7.744566e-18)
(-7.3123 2.955184 5.947069e-18)
(1.429447 0.07103325 -3.094831e-20)
(3.184294 -0.8398777 -4.281472e-18)
(6.106882 -1.003009 2.660641e-18)
(8.963842 -0.547101 4.558284e-22)
(14.38806 -0.3192203 1.103694e-18)
(18.13767 -0.1537378 0)
(18.99766 0.2180821 3.014164e-19)
(19.25288 0.7820742 2.515545e-18)
(19.28426 1.460086 2.607494e-18)
(19.19744 2.167173 2.629943e-18)
(19.02081 2.875892 -8.170298e-20)
(18.78269 3.591488 5.321325e-18)
(18.49102 4.29615 -4.045373e-20)
(18.16122 4.988094 0)
(17.76961 5.648323 9.945124e-18)
(17.31842 6.277869 0)
(16.82534 6.87462 -7.056483e-20)
(16.28246 7.425632 7.076196e-20)
(15.68625 7.927732 8.495215e-18)
(15.04391 8.374523 -5.989868e-20)
(14.36237 8.766324 7.474179e-18)
(13.64987 9.09867 -6.950064e-18)
(12.90952 9.369089 0)
(12.15172 9.58674 4.208547e-20)
(11.38344 9.747111 -5.197081e-18)
(10.59999 9.836731 -8.934853e-18)
(9.80588 9.857472 0)
(9.013728 9.82006 -3.178904e-18)
(8.232762 9.726138 -1.681886e-20)
(7.463533 9.567992 1.823477e-18)
(6.706936 9.344645 6.467212e-21)
(5.969892 9.06205 -6.543617e-21)
(5.25651 8.7171 -1.308907e-19)
(4.569843 8.314128 7.79895e-19)
(3.92094 7.858265 0)
(3.310802 7.354948 0)
(2.744135 6.80776 -2.123904e-20)
(2.225289 6.218598 0)
(1.757234 5.5895 0)
(1.341666 4.924828 0)
(0.9833139 4.235825 -2.292456e-18)
(0.6810029 3.531374 1.85096e-20)
(0.4431274 2.804162 1.104549e-20)
(0.2615345 2.059098 -5.402494e-21)
(0.1449807 1.295741 -7.1987e-19)
(0.1030212 0.4839072 2.963901e-21)
(0.1163114 -0.3643727 -7.367136e-19)
(0.1855443 -1.165593 1.410635e-18)
(0.326366 -1.919376 1.078552e-20)
(0.5302076 -2.652299 -2.569149e-18)
(0.7929734 -3.369293 -3.794638e-20)
(1.114527 -4.06382 2.26117e-18)
(1.490703 -4.727334 -2.031942e-18)
(1.922393 -5.358865 0)
(2.402084 -5.957313 -6.152264e-18)
(2.928041 -6.507595 -1.783571e-20)
(3.497573 -7.012078 1.986747e-18)
(4.104938 -7.474309 1.40121e-18)
(4.747527 -7.881653 0)
(5.423638 -8.236276 0)
(6.125395 -8.541597 0)
(6.843825 -8.782517 1.115166e-20)
(7.57406 -8.955095 -1.107947e-20)
(8.315797 -9.069604 2.364983e-18)
(9.063544 -9.124596 5.083905e-21)
(9.813424 -9.116587 -3.681788e-18)
(10.55976 -9.050606 -6.743536e-20)
(11.29227 -8.922046 9.698918e-18)
(12.00285 -8.72826 5.421776e-18)
(12.68698 -8.472368 -4.422906e-20)
(13.34691 -8.160705 6.373042e-18)
(13.97744 -7.798682 5.211887e-20)
(14.57112 -7.381375 -5.935827e-20)
(15.12011 -6.914659 5.913183e-20)
(15.62051 -6.401731 6.50385e-20)
(16.07066 -5.848485 8.543891e-18)
(16.46785 -5.26105 -6.730091e-20)
(16.80888 -4.647451 0)
(17.10104 -4.014257 0)
(17.34647 -3.378145 0)
(17.53117 -2.747563 0)
(17.59362 -2.161607 1.730551e-20)
(17.44341 -1.701174 -1.704325e-20)
(15.83988 -1.276562 1.03113e-18)
(11.7952 -0.6755306 4.266269e-21)
(5.465153 -0.2029925 0)
(-3.780482 -0.6885189 -1.512301e-18)
(-4.453423 -0.7876575 3.633305e-18)
(-1.78307 -0.0373466 -3.294573e-18)
(0.1592741 0.4128563 3.364092e-20)
(1.303934 0.5714027 -3.880617e-18)
(2.086547 0.8483397 2.58752e-20)
(3.407512 1.548502 0)
(6.867241 2.768625 3.18509e-18)
(2.134298 0.0577852 -8.814676e-18)
(-7.009287 -4.142405 -9.338419e-18)
(-7.783099 -4.0528 -7.126519e-22)
(-6.786564 -3.466914 -1.529025e-19)
(-4.793218 -2.567154 6.960551e-20)
(-2.920177 -1.636138 0)
(-1.48679 -0.8211169 5.006313e-18)
(-0.2736273 0.1124162 4.046496e-18)
(1.451592 1.483165 3.418966e-21)
(2.736299 2.550308 -3.168883e-18)
(2.332588 2.260062 6.297883e-18)
(1.343316 1.431123 3.301881e-18)
(1.001888 1.181158 -1.815553e-21)
(0.939247 1.194049 -3.908093e-18)
(0.8574577 1.180916 -3.19749e-20)
(0.7643854 1.15689 -4.44316e-18)
(0.6924531 1.135836 3.638256e-20)
(0.6139965 1.107016 4.489504e-22)
(0.5419046 1.06866 -3.691311e-20)
(0.4588952 0.9953633 0)
(0.3697555 0.9192033 0)
(0.3033649 0.899554 -4.221333e-18)
(0.2711566 0.9852798 0)
(0.2688632 1.21029 -3.571668e-18)
(0.281124 1.571154 1.611808e-18)
(0.2878297 2.050177 -1.064565e-20)
(0.2725474 2.601517 1.04899e-20)
(0.2212316 3.201489 5.678902e-19)
(0.1362946 3.638847 -2.555701e-19)
(0.1652676 4.310322 -1.017753e-19)
(0.4279205 4.661066 6.369625e-20)
(0.4649181 1.661832 -1.134239e-19)
(0.1479347 -0.5609029 2.323052e-21)
(-0.1944171 -1.407318 -7.923561e-20)
(0.09690398 -1.347788 0)
(0.6435433 -1.653782 -5.644059e-19)
(0.4579024 -1.762085 -8.038004e-21)
(0.3549675 -1.154064 5.892737e-19)
(1.185498 -2.249683 1.11757e-18)
(2.311136 -4.788038 1.133531e-18)
(2.108336 -4.459148 1.226194e-18)
(1.965069 -4.080944 -9.143104e-21)
(1.890612 -3.688682 0)
(1.697991 -3.154053 0)
(1.300508 -2.403068 1.002507e-18)
(0.4004989 -1.217076 1.336038e-18)
(-1.109263 0.4711329 1.805527e-18)
(-2.732231 2.322187 3.557155e-20)
(-4.206867 3.951333 0)
(-5.156689 4.999258 5.390776e-18)
(-5.232206 5.176077 5.318649e-18)
(-4.407539 4.571698 -3.70022e-18)
(-2.841675 3.602729 0)
(2.422231 -0.9139297 1.166771e-19)
(2.894888 -2.610941 0)
(1.305856 -1.558413 -9.430149e-19)
(1.191828 -0.9247179 0)
(1.42518 -0.8407717 -3.3034e-18)
(1.036505 -0.8495576 -8.044687e-18)
(-0.9420922 -0.404043 0)
(-3.357225 0.5776913 0)
(-4.581684 1.904073 3.786206e-20)
(-5.476977 2.879002 -4.910565e-18)
(2.085121 0.4320082 2.867907e-18)
(10.86617 -1.657434 6.144897e-18)
(14.91125 -1.665015 -1.863979e-18)
(17.10099 -0.9768106 1.831619e-18)
(18.7785 -0.2671505 -8.64032e-19)
(18.96044 0.1092898 0)
(18.65855 0.620323 0)
(18.6928 1.303575 -2.093131e-18)
(18.68701 2.038354 -2.187405e-18)
(18.62262 2.776726 -4.298535e-18)
(18.48035 3.508122 4.266141e-18)
(18.27827 4.22906 1.005189e-19)
(18.01549 4.919244 -6.673401e-20)
(17.68308 5.585139 0)
(17.2842 6.209487 0)
(16.83073 6.803885 7.804921e-18)
(16.33592 7.368339 -7.538716e-18)
(15.79511 7.883309 0)
(15.20337 8.349079 0)
(14.56885 8.758437 9.831609e-20)
(13.89662 9.114923 -6.231934e-18)
(13.19647 9.411589 0)
(12.4717 9.645364 -5.102894e-18)
(11.73038 9.828989 -4.622925e-18)
(10.98152 9.956372 -4.068236e-18)
(10.2214 10.01224 3.595622e-18)
(9.450494 10.0019 -4.400428e-20)
(8.68267 9.93666 2.560671e-18)
(7.926797 9.817399 0)
(7.185315 9.634604 -1.48864e-18)
(6.457984 9.388439 -1.023126e-20)
(5.748314 9.087151 8.496831e-21)
(5.068016 8.722387 -1.69389e-19)
(4.411762 8.303778 0)
(3.792558 7.834858 -1.209646e-18)
(3.210758 7.321425 -1.487241e-20)
(2.673185 6.766039 2.154283e-18)
(2.180672 6.171809 1.302107e-18)
(1.737748 5.53976 -1.506662e-18)
(1.344648 4.874565 -1.698244e-18)
(1.005613 4.187115 1.866287e-18)
(0.7190081 3.486879 -2.025263e-18)
(0.4987089 2.76488 -1.050261e-18)
(0.3273436 2.028236 2.237192e-18)
(0.2193865 1.276035 1.177362e-18)
(0.1863983 0.4776032 2.411597e-21)
(0.1979069 -0.351779 6.099262e-19)
(0.2588032 -1.143168 -9.168489e-21)
(0.3938962 -1.890026 0)
(0.5890347 -2.618415 -1.617374e-20)
(0.8379628 -3.332458 -1.418e-20)
(1.14287 -4.02477 -1.78827e-18)
(1.498051 -4.687708 3.337079e-18)
(1.909617 -5.319304 -1.486882e-18)
(2.364104 -5.921203 2.493713e-18)
(2.862608 -6.477044 1.805132e-20)
(3.406255 -6.988305 0)
(3.984986 -7.461055 1.186642e-18)
(4.598426 -7.880914 6.625964e-21)
(5.247022 -8.24941 -1.953086e-19)
(5.919017 -8.573396 0)
(6.608019 -8.834882 8.610503e-19)
(7.312608 -9.02813 0)
(8.029451 -9.16618 -4.500989e-20)
(8.752326 -9.247603 2.411889e-18)
(9.481194 -9.26589 0)
(10.20614 -9.23011 -3.478105e-18)
(10.91943 -9.133491 -3.976022e-18)
(11.61316 -8.97262 -4.44417e-18)
(12.28261 -8.749964 0)
(12.93172 -8.470498 -1.064354e-17)
(13.5535 -8.141827 8.553401e-20)
(14.14121 -7.756768 0)
(14.6871 -7.322554 0)
(15.18723 -6.840376 0)
(15.64072 -6.31672 6.91875e-18)
(16.03993 -5.761298 -7.162721e-18)
(16.37692 -5.168956 0)
(16.64281 -4.545446 0)
(16.84638 -3.891911 3.722483e-18)
(16.99081 -3.232776 2.951332e-20)
(17.06537 -2.576622 0)
(17.22539 -2.015989 0)
(17.52269 -1.62118 -1.650409e-18)
(17.00206 -1.211291 1.991747e-19)
(12.59864 -0.8367817 0)
(2.186775 -0.6928847 1.090265e-18)
(0.6480256 0.07701767 6.56348e-20)
(4.191808 1.243655 -6.554707e-21)
(6.154441 1.767431 -3.301736e-20)
(6.842946 1.89753 2.85263e-18)
(6.736097 2.05749 2.468752e-18)
(6.163743 2.437922 3.395753e-20)
(6.545461 2.475333 2.621473e-20)
(0.2944623 -1.417752 3.407796e-18)
(-6.195886 -4.340753 7.476393e-18)
(-6.859871 -3.669668 0)
(-6.058326 -2.848362 8.188869e-18)
(-4.193915 -1.935267 0)
(-2.481385 -1.128022 -6.899595e-20)
(-1.274183 -0.5140769 -4.036146e-18)
(-0.3389457 0.2828726 4.792204e-20)
(1.022121 1.370763 -4.731904e-20)
(2.689872 2.6147 2.624838e-18)
(2.725927 2.546638 -2.556205e-18)
(1.545245 1.49387 -2.683012e-18)
(1.023141 1.142235 -3.01843e-18)
(0.9317813 1.160255 -3.210188e-18)
(0.8455549 1.14095 0)
(0.7459169 1.108766 -4.887015e-22)
(0.6771285 1.075721 0)
(0.6002651 1.04261 -3.896281e-18)
(0.5366017 1.007591 3.874547e-18)
(0.467404 0.9465405 0)
(0.3803497 0.8741806 0)
(0.3074612 0.8482669 6.993907e-18)
(0.2586342 0.920776 -1.613321e-18)
(0.2373468 1.117387 2.951759e-18)
(0.2347371 1.436469 -9.884293e-21)
(0.2346455 1.872091 9.748864e-21)
(0.2274146 2.3973 0)
(0.1967462 2.954381 -4.652585e-19)
(0.1544219 3.47749 4.121803e-19)
(0.1973311 3.87146 8.667596e-20)
(0.4464785 4.567993 -1.065606e-19)
(0.5740322 3.95948 -2.629947e-21)
(0.1985409 2.214685 2.849783e-21)
(-0.214784 -0.1211898 -1.547879e-21)
(0.2455487 -1.943799 1.566013e-21)
(0.8279958 -2.231587 2.296349e-19)
(0.5581276 -2.37326 -6.570496e-21)
(0.650065 -1.893828 -4.814808e-19)
(1.633752 -2.870921 1.377906e-20)
(2.435608 -4.841148 -9.232644e-19)
(1.989863 -4.329504 -1.580754e-20)
(1.872609 -4.047653 0)
(1.680456 -3.461685 0)
(1.38109 -2.828022 -7.060352e-19)
(0.9285189 -2.093401 -8.362471e-19)
(0.03555117 -1.069075 -2.195723e-18)
(-1.403543 0.3881464 -1.471582e-18)
(-2.91067 2.096681 0)
(-4.245428 3.673208 0)
(-5.027946 4.759838 -8.922093e-18)
(-4.929741 4.992498 -8.827937e-18)
(-3.808201 4.297887 3.52932e-20)
(-2.351453 3.807487 -4.458282e-20)
(1.117072 0.6741959 -1.812203e-19)
(2.568804 -2.294113 1.6587e-19)
(3.066865 -2.616341 7.886962e-19)
(3.945131 -2.341952 1.943174e-18)
(4.561643 -2.406628 2.481415e-18)
(4.170447 -2.480152 3.138554e-18)
(2.586076 -2.227741 0)
(0.6093012 -1.155184 -1.590536e-19)
(-0.4724143 0.5082623 -1.273349e-17)
(-1.867135 2.291756 9.421297e-20)
(6.510938 0.3201355 1.001035e-19)
(16.1768 -1.918658 -2.190966e-18)
(18.22587 -1.986287 -1.363166e-18)
(18.90372 -1.268959 -5.404735e-20)
(18.81119 -0.4808286 -7.110244e-19)
(18.43596 -0.1742215 -3.751124e-19)
(18.57561 0.231888 -3.117286e-21)
(18.7597 0.8329046 0)
(18.83921 1.509847 -2.736291e-20)
(18.81674 2.218788 1.806105e-18)
(18.69989 2.928709 -7.051869e-18)
(18.51111 3.649657 5.423726e-20)
(18.25381 4.350304 -3.471728e-18)
(17.92651 5.027618 -1.042692e-19)
(17.5336 5.665513 -6.543482e-18)
(17.08338 6.277648 -2.573639e-21)
(16.59076 6.865373 6.21826e-18)
(16.05336 7.400669 -5.852527e-18)
(15.4639 7.889683 0)
(14.8309 8.321517 7.95041e-20)
(14.15822 8.702694 -8.000607e-20)
(13.45528 9.025859 0)
(12.72551 9.287239 4.20411e-18)
(11.97801 9.498127 7.618663e-20)
(11.2215 9.652723 3.40142e-18)
(10.45358 9.734574 -2.895504e-18)
(9.676406 9.746423 -2.458408e-18)
(8.898297 9.704949 -2.070995e-18)
(8.132848 9.607766 -1.586134e-18)
(7.382191 9.445119 1.462962e-20)
(6.644475 9.218055 -1.477272e-20)
(5.924035 8.935024 0)
(5.232575 8.587209 1.407758e-19)
(4.564505 8.184398 -1.238116e-20)
(3.934334 7.729342 1.006457e-18)
(3.34179 7.228394 1.38836e-18)
(2.795953 6.683483 -1.762647e-18)
(2.295242 6.098769 -1.069105e-18)
(1.844726 5.475264 -5.277944e-21)
(1.444309 4.817947 1.393743e-18)
(1.101014 4.137032 2.47641e-20)
(0.8091505 3.443822 1.623719e-18)
(0.5883323 2.727939 1.391837e-20)
(0.4159119 1.998512 -9.350743e-19)
(0.3094592 1.256651 -4.797348e-19)
(0.2844471 0.4714653 -6.020113e-23)
(0.2944793 -0.3355478 4.837989e-19)
(0.3492052 -1.119245 7.512065e-21)
(0.4819747 -1.862507 -9.15755e-19)
(0.678433 -2.587175 1.742905e-18)
(0.9288673 -3.295616 0)
(1.236353 -3.980623 -2.352362e-21)
(1.594217 -4.635183 -1.372037e-18)
(2.011046 -5.257384 1.253892e-18)
(2.469134 -5.849978 -2.138365e-18)
(2.97556 -6.393379 2.454817e-20)
(3.528898 -6.891363 -2.432409e-20)
(4.11297 -7.352443 -9.752324e-19)
(4.735146 -7.757343 0)
(5.396754 -8.108177 1.545123e-19)
(6.076309 -8.417141 8.085237e-21)
(6.773942 -8.660915 -4.769043e-20)
(7.488626 -8.83463 -1.066928e-18)
(8.213832 -8.953581 -1.573887e-18)
(8.944273 -9.01488 -1.94258e-20)
(9.680417 -9.011726 2.345365e-18)
(10.41336 -8.952629 -4.012313e-20)
(11.13233 -8.833273 -3.160302e-18)
(11.83127 -8.647986 0)
(12.50684 -8.398708 3.905049e-18)
(13.15949 -8.095018 4.321917e-18)
(13.78178 -7.744739 4.495895e-18)
(14.36898 -7.338154 -4.798256e-18)
(14.9127 -6.884689 5.149352e-18)
(15.41026 -6.38402 0)
(15.86106 -5.843033 -1.132602e-17)
(16.25629 -5.277024 1.182424e-17)
(16.58836 -4.676817 -1.399551e-19)
(16.85256 -4.046046 -3.030991e-18)
(17.04305 -3.401947 -3.053378e-18)
(17.14879 -2.765094 0)
(17.14606 -2.163621 1.535188e-18)
(17.0474 -1.669078 -1.480078e-18)
(17.0284 -1.347685 6.971344e-19)
(17.62783 -1.197475 -1.672046e-19)
(17.05205 -1.292345 -3.197233e-19)
(11.25087 -0.886751 1.13126e-20)
(9.318547 0.7066472 -2.218785e-18)
(10.6246 2.326506 2.37329e-20)
(11.37227 2.925999 0)
(11.39842 2.982014 0)
(10.74671 3.017478 -5.42779e-20)
(9.108064 3.149076 5.556475e-20)
(6.646402 2.02808 0)
(-0.3694982 -2.531379 0)
(-4.61806 -4.188536 0)
(-6.066304 -3.259888 8.756626e-18)
(-5.32252 -2.156999 -1.350371e-17)
(-3.49883 -1.206288 5.186014e-18)
(-1.821948 -0.4528625 -3.981454e-18)
(-0.8195667 -0.02831248 -1.080335e-19)
(-0.1344257 0.6492822 2.747363e-18)
(0.7535269 1.43434 2.301973e-18)
(2.330664 2.470867 3.328129e-20)
(2.733879 2.455058 2.861435e-22)
(1.667104 1.438755 -3.358545e-20)
(1.069219 1.131435 -3.988542e-20)
(0.9414459 1.153402 2.730029e-18)
(0.8334176 1.104747 0)
(0.7124574 1.051173 3.043208e-18)
(0.6381153 1.001132 -3.167298e-18)
(0.5523381 0.9594413 3.22705e-18)
(0.4894013 0.9173302 0)
(0.4230261 0.8513583 0)
(0.3327481 0.7821974 -4.643207e-20)
(0.2541294 0.7514655 -2.893864e-18)
(0.1892609 0.7904989 1.379179e-18)
(0.1470552 0.9335484 -1.221701e-18)
(0.1273646 1.207637 0)
(0.1166271 1.626897 0)
(0.1081637 2.157482 0)
(0.0758318 2.724159 -3.774759e-19)
(0.04993777 3.281447 -1.758984e-19)
(0.06881773 3.531682 -1.455709e-19)
(0.376432 4.068053 4.5352e-20)
(0.5776387 4.705484 0)
(0.303983 4.106662 -1.260394e-19)
(-0.08110483 1.690428 0)
(0.4589397 -1.9541 -4.140742e-20)
(1.006708 -2.620023 0)
(0.7208665 -3.078624 0)
(0.9964772 -2.749096 -3.81057e-19)
(2.005873 -3.310593 -7.288228e-19)
(2.487098 -4.776809 7.734599e-19)
(1.956549 -4.381517 -8.410676e-19)
(1.810825 -4.070583 7.487959e-19)
(1.474336 -3.311523 0)
(1.034514 -2.495998 1.155363e-18)
(0.5155498 -1.720584 6.896269e-19)
(-0.3406506 -0.9002999 9.336564e-19)
(-1.663893 0.2339693 -3.246521e-20)
(-3.11431 1.832129 -7.408555e-20)
(-4.326041 3.378885 -2.780603e-18)
(-4.927623 4.539969 7.433322e-18)
(-4.59738 4.871021 3.648872e-18)
(-3.290569 4.144946 6.00132e-20)
(-1.423839 3.558398 1.152553e-18)
(0.5854108 1.721846 8.072556e-20)
(2.806761 -2.063192 -1.389648e-19)
(5.074911 -3.579326 0)
(6.673541 -3.635048 -2.918175e-20)
(7.535199 -3.830198 0)
(7.326007 -4.068156 2.384923e-18)
(6.310456 -4.1253 3.690648e-18)
(4.924409 -3.14434 6.931826e-18)
(3.275581 -0.9445731 -2.592864e-19)
(3.825041 1.280899 1.104755e-19)
(12.14756 0.1759688 -3.225339e-18)
(18.20189 -1.693737 0)
(17.90611 -1.869967 -1.069524e-18)
(18.30386 -1.198187 -1.237746e-18)
(18.17687 -0.3873004 1.198696e-18)
(18.12183 0.07204134 2.975375e-19)
(18.3181 0.6118312 0)
(18.45618 1.264151 6.889764e-19)
(18.51841 1.965488 0)
(18.4884 2.671199 0)
(18.36902 3.363459 2.94621e-18)
(18.17872 4.072216 -4.483442e-20)
(17.92563 4.74556 4.926182e-20)
(17.60176 5.394516 -2.736463e-18)
(17.21523 5.998711 5.4953e-18)
(16.77161 6.578411 -5.236709e-18)
(16.28888 7.134527 -5.045665e-18)
(15.76745 7.628403 2.334596e-19)
(15.19172 8.08355 -1.463819e-19)
(14.57615 8.479376 -1.291515e-19)
(13.92021 8.830131 -3.713198e-18)
(13.23669 9.124354 -3.782262e-18)
(12.5272 9.356934 -9.985025e-20)
(11.79759 9.545536 3.175995e-18)
(11.06386 9.67744 0)
(10.32062 9.736559 2.384468e-18)
(9.562024 9.732797 2.023941e-18)
(8.803436 9.677775 1.60567e-18)
(8.059826 9.568544 1.305192e-18)
(7.330135 9.396369 0)
(6.613367 9.160232 0)
(5.910315 8.873116 1.82628e-19)
(5.239219 8.520211 0)
(4.58572 8.116529 0)
(3.971711 7.661135 8.910415e-19)
(3.396268 7.160168 -1.306249e-20)
(2.860975 6.618187 -1.560828e-20)
(2.368479 6.03648 -2.963523e-20)
(1.926593 5.416019 2.073148e-18)
(1.535187 4.761775 0)
(1.201584 4.084051 0)
(0.9072777 3.398329 1.376126e-18)
(0.6921175 2.68729 6.958501e-19)
(0.5212014 1.96405 7.546452e-19)
(0.4166852 1.23343 -3.92694e-19)
(0.4003988 0.4627096 0)
(0.4119412 -0.3157311 -4.107657e-22)
(0.4602089 -1.093498 2.411895e-20)
(0.5831198 -1.834617 7.267577e-19)
(0.7752703 -2.553649 -1.428818e-18)
(1.02222 -3.254614 -4.075286e-20)
(1.326282 -3.932096 1.246946e-18)
(1.680044 -4.578983 3.687362e-20)
(2.092062 -5.194107 2.016333e-18)
(2.537072 -5.782548 -1.095339e-20)
(3.030425 -6.321743 -1.497813e-18)
(3.575167 -6.81656 4.043874e-20)
(4.1453 -7.277969 0)
(4.7477 -7.685219 5.152866e-19)
(5.395582 -8.03819 0)
(6.061198 -8.351863 0)
(6.737025 -8.605134 -5.496583e-19)
(7.43241 -8.78801 1.748617e-18)
(8.140913 -8.917138 4.36308e-20)
(8.851222 -8.992289 -9.114876e-20)
(9.567835 -9.004273 -1.925504e-18)
(10.28089 -8.964345 -2.215643e-18)
(10.98018 -8.865905 2.689684e-18)
(11.65832 -8.705492 -2.940789e-18)
(12.31282 -8.4841 -6.599113e-20)
(12.94868 -8.206396 0)
(13.5535 -7.887337 -3.891838e-18)
(14.12534 -7.511724 8.217397e-18)
(14.65481 -7.092501 -4.380007e-18)
(15.13904 -6.627248 0)
(15.58055 -6.120369 8.125685e-20)
(15.96862 -5.58581 -4.736691e-18)
(16.29486 -5.013338 -7.562896e-20)
(16.55546 -4.405251 1.212916e-19)
(16.74452 -3.775086 -7.8209e-20)
(16.85694 -3.142654 0)
(16.87608 -2.519785 -2.449037e-18)
(16.82421 -1.959085 1.155313e-18)
(16.69132 -1.490262 5.626665e-19)
(16.8422 -1.198163 -8.565201e-21)
(17.9463 -1.41787 2.53876e-19)
(16.99057 -0.8881387 5.9919e-19)
(16.36764 1.157114 0)
(15.95579 3.001678 1.415177e-18)
(15.09782 3.585697 -5.889503e-20)
(14.28345 3.554716 1.810573e-18)
(13.30273 3.476459 0)
(11.3829 3.397891 0)
(7.325635 1.478538 0)
(0.1398934 -3.210516 5.798874e-20)
(-3.093481 -4.007138 5.474523e-18)
(-4.966106 -2.746113 -7.708354e-18)
(-4.445693 -1.336626 5.813535e-18)
(-2.785504 -0.4315351 -8.434029e-18)
(-1.076566 0.2580489 3.359022e-18)
(-0.1928464 0.557196 0)
(0.2310393 1.093475 -2.239393e-18)
(0.6732742 1.594806 -1.850509e-18)
(1.957947 2.306179 1.801058e-18)
(2.592058 2.213605 -5.403875e-20)
(1.737728 1.318541 -5.781452e-20)
(1.130868 1.129747 6.038562e-20)
(0.9651788 1.152221 0)
(0.8237568 1.053149 -2.386901e-18)
(0.6774201 0.9729291 7.997121e-20)
(0.6014047 0.9029175 5.152067e-18)
(0.5070159 0.8435745 -2.749495e-18)
(0.4410482 0.787084 1.651451e-19)
(0.3835989 0.7070739 -2.690306e-18)
(0.2945062 0.616919 0)
(0.1964065 0.5421529 -2.403501e-18)
(0.110201 0.5134179 1.142665e-18)
(0.04588275 0.6217187 -6.327357e-20)
(0.01867118 0.9183538 9.679939e-19)
(0.008530582 1.394439 -3.854727e-20)
(0.009936818 1.977532 1.175998e-20)
(-0.01049355 2.590299 3.152113e-19)
(0.002938583 3.145395 -2.03121e-21)
(0.03635858 3.504479 1.784729e-21)
(0.2553284 3.858699 2.260865e-21)
(0.4961984 4.498329 6.122882e-20)
(0.4285443 4.761026 1.018259e-19)
(0.2389455 3.092635 -3.457474e-20)
(0.7816767 -1.391917 3.267034e-20)
(1.22307 -2.840777 0)
(0.8831339 -3.580024 2.35933e-19)
(1.315962 -3.524555 3.25893e-19)
(2.323584 -3.721168 5.95816e-19)
(2.524968 -4.702386 0)
(1.97822 -4.555772 0)
(1.766393 -4.229468 -6.116229e-19)
(1.320743 -3.385334 -1.509263e-20)
(0.7327591 -2.386067 -4.5409e-19)
(0.1419317 -1.47161 -5.637688e-19)
(-0.6809496 -0.8235613 -7.414327e-19)
(-1.907864 0.01271933 1.033533e-18)
(-3.361585 1.544693 -1.530484e-18)
(-4.451898 3.082331 2.18963e-18)
(-4.860183 4.337669 -2.995518e-18)
(-4.267074 4.822917 0)
(-2.736904 4.106575 0)
(-0.445673 3.222161 -1.006311e-18)
(0.8717549 2.160464 0)
(3.748114 -1.961235 -4.816156e-21)
(7.135661 -4.281348 -2.111498e-20)
(9.036777 -4.58592 -1.088637e-18)
(10.00457 -4.954998 -4.193245e-20)
(10.09804 -5.437244 3.480032e-20)
(9.909182 -5.872285 -2.903805e-18)
(9.764827 -5.159512 -1.044038e-19)
(9.402618 -2.596749 3.662353e-18)
(11.07033 0.1681055 -5.980507e-20)
(16.53929 0.05313112 1.379338e-18)
(18.02255 -1.378786 -4.521404e-20)
(17.21257 -1.733841 3.698822e-18)
(17.96894 -1.152431 2.992038e-20)
(18.03271 -0.5018806 -7.449238e-21)
(18.15397 -0.1123532 -5.084222e-19)
(18.3437 0.3610153 -4.160666e-21)
(18.48907 0.9440928 -5.68008e-19)
(18.5547 1.601412 -3.613574e-20)
(18.52565 2.285942 -1.117648e-18)
(18.40291 2.973603 2.300179e-18)
(18.21311 3.681938 -2.284932e-18)
(17.96681 4.352022 4.387633e-18)
(17.64597 5.023529 2.39526e-18)
(17.26155 5.643123 0)
(16.81675 6.241873 0)
(16.33465 6.82048 4.091584e-18)
(15.81431 7.33414 3.908522e-18)
(15.239 7.807959 0)
(14.62653 8.216008 -1.038379e-19)
(13.9708 8.581756 3.367129e-18)
(13.28443 8.896357 3.014216e-18)
(12.57583 9.141721 2.666725e-18)
(11.85222 9.336599 -7.184741e-20)
(11.12032 9.481965 -2.069782e-18)
(10.37414 9.55823 5.398848e-20)
(9.620157 9.561131 -5.449863e-20)
(8.869832 9.510484 -1.355746e-18)
(8.128933 9.411526 1.022711e-18)
(7.395155 9.255418 0)
(6.686201 9.024191 0)
(5.985413 8.747704 -2.673837e-19)
(5.322742 8.401204 -8.907473e-21)
(4.673482 8.006357 -8.557846e-21)
(4.074484 7.555393 -6.873341e-19)
(3.506405 7.061547 -1.919356e-18)
(2.962898 6.535345 1.140171e-18)
(2.472089 5.963774 -1.427342e-18)
(2.034538 5.351176 -8.11691e-19)
(1.652372 4.701738 -2.806513e-20)
(1.32628 4.025306 0)
(1.023583 3.349888 -1.074403e-18)
(0.8202274 2.644655 -3.606741e-20)
(0.6466781 1.92592 -6.278537e-19)
(0.5439349 1.207652 3.365842e-19)
(0.5372774 0.4515262 2.786632e-23)
(0.5510514 -0.2939363 -3.443871e-19)
(0.5855106 -1.070161 2.978561e-20)
(0.7063728 -1.805436 -6.33073e-19)
(0.8933197 -2.513413 1.1699e-18)
(1.135787 -3.204904 -1.13799e-18)
(1.436065 -3.87364 2.347719e-21)
(1.784976 -4.510362 9.610023e-19)
(2.200617 -5.113871 -1.604657e-18)
(2.636233 -5.696465 1.418709e-18)
(3.118336 -6.230365 1.12059e-18)
(3.663699 -6.716486 7.564216e-21)
(4.240625 -7.165935 7.991689e-21)
(4.834563 -7.567198 -4.054486e-19)
(5.465501 -7.921997 1.789746e-19)
(6.130848 -8.227686 8.247705e-21)
(6.804771 -8.471837 3.787997e-19)
(7.491857 -8.649077 -1.389228e-18)
(8.192324 -8.774964 9.629534e-19)
(8.906992 -8.833471 -4.85841e-20)
(9.620405 -8.836452 -1.540765e-18)
(10.32575 -8.793217 3.641791e-18)
(11.02486 -8.682511 6.860962e-20)
(11.69991 -8.512625 2.281684e-18)
(12.35444 -8.27639 -2.680211e-18)
(12.992 -7.983094 8.335821e-20)
(13.59576 -7.651757 -3.07104e-18)
(14.16825 -7.258382 -3.153054e-18)
(14.69723 -6.823572 1.088135e-19)
(15.18302 -6.335955 -3.634488e-18)
(15.62494 -5.808037 3.757158e-18)
(16.01282 -5.254903 0)
(16.33727 -4.665781 0)
(16.59414 -4.051714 2.030094e-18)
(16.78464 -3.430981 2.01122e-18)
(16.89888 -2.823136 0)
(16.9166 -2.24562 1.049302e-18)
(16.84961 -1.750143 9.431374e-19)
(16.75542 -1.367681 -4.753404e-19)
(16.58701 -1.07397 1.101156e-19)
(17.33394 -1.218283 2.201658e-19)
(18.34284 -0.593191 -5.009424e-19)
(18.54688 1.445172 0)
(17.52962 3.183269 6.110896e-20)
(16.00504 3.666722 -6.183686e-20)