/*--------------------------------*- C++ -*----------------------------------*\
| =========                 |                                                 |
| \\      /  F ield         | OpenFOAM: The Open Source CFD Toolbox           |
|  \\    /   O peration     | Version:  2406                                  |
|   \\  /    A nd           | Website:  www.openfoam.com                      |
|    \\/     M anipulation  |                                                 |
\*---------------------------------------------------------------------------*/
FoamFile
{
    version     2.0;
    format      ascii;
    arch        "LSB;label=32;scalar=64";
    class       surfaceScalarField;
    location    "1.14";
    object      phi;
}
// * * * * * * * * * * * * * * * * * * * * * * * * * * * * * * * * * * * * * //

dimensions      [0 3 -1 0 0 0 0];

oriented        oriented;

internalField   nonuniform List<scalar> 
326221
(
-0.001946033
-0.004079649
0.006025682
-0.0008458166
-0.001100216
9.542845e-05
-0.0009412451
-0.001109419
0.001204848
-0.0007602951
-0.0003491241
-0.0001858485
-0.0005744466
-0.0001246069
-6.124164e-05
-7.790374e-06
-0.0001168165
0.0001599517
-0.0001677421
0.0003265115
-0.0001665598
0.0004796786
-0.000153167
0.0005115581
-3.187957e-05
0.0003993846
0.0001121735
0.0001760872
0.0002232974
-0.0001873611
0.0003634483
-0.000484007
0.0002966459
-0.0005072655
2.325852e-05
-0.0003462365
-0.000161029
-0.0001888217
-0.0001574148
-0.0002342977
4.5476e-05
-0.0005025569
0.0002682592
-0.0007266737
0.0002241168
-0.000684464
-4.220971e-05
-0.0003634517
-0.0003210123
-0.0001112045
-0.0002522472
1.676511e-05
-0.0001279696
4.339107e-05
-2.662596e-05
9.016538e-05
-4.677431e-05
0.0001637564
-7.359106e-05
0.0001419476
2.18088e-05
-8.871267e-05
0.0002306603
-0.0006721221
0.0005834095
-0.001372085
0.0006999629
-0.001803449
0.0004313644
-0.001897932
9.448237e-05
-0.001804544
-9.338741e-05
-0.001670927
-0.0001336178
-0.00150402
-0.0001669061
-0.001189409
-0.0003146113
-0.0005937403
-0.0005956689
0.0005523528
-0.001146093
0.001483201
-0.0009308487
0.002202592
-0.0007193908
0.00272648
-0.0005238875
0.003047868
-0.0003213885
0.00297731
7.055833e-05
0.002141655
0.0008356548
0.0005373828
0.001604272
-0.0002800012
0.000817384
-0.00103943
0.0007594293
-0.001523871
0.0004844402
-0.001232581
-0.0002912899
-0.0005247642
-0.0007078166
4.17437e-05
-0.0005665079
0.0005553001
-0.0005135564
0.0009573282
-0.0004020281
0.001213068
-0.0002557396
0.001379242
-0.0001661739
0.001683943
-0.0003047016
0.002329979
-0.0006460354
0.003155995
-0.0008260167
0.0031329
2.309552e-05
0.001119728
0.002013172
-0.0011437
0.002263428
-0.001118408
-2.529203e-05
-0.0002088503
-0.0009095577
0.0003627317
-0.000571582
0.0007918244
-0.0004290927
0.001449303
-0.0006574785
0.002133131
-0.0006838281
0.001949324
0.0001838071
0.0008231737
0.00112615
0.0001882545
0.0006349192
0.0003708788
-0.0001826243
0.0005957985
-0.0002249198
0.0006108704
-1.507183e-05
0.0004689776
0.0001418928
0.0002440676
0.00022491
-1.611661e-05
0.0002601842
-0.0002943857
0.0002782691
-0.0005731312
0.0002787454
-0.0008170482
0.0002439171
-0.001015652
0.0001986043
-0.001125776
0.0001101233
-0.001276391
0.000150615
-0.001424495
0.0001481039
-0.001549829
0.0001253345
-0.001657418
0.000107589
-0.001761181
0.0001037629
-0.001846522
8.534126e-05
-0.001927977
8.145443e-05
-0.002005517
7.754034e-05
-0.002065245
5.972787e-05
-0.00211658
5.133496e-05
-0.002158828
4.224845e-05
-0.002200239
4.141085e-05
-0.002241203
4.096371e-05
-0.002264567
2.336384e-05
-0.002281135
1.656791e-05
-0.002290137
9.002708e-06
-0.002292534
2.396894e-06
-0.002291093
-1.440893e-06
-0.00228693
-4.162992e-06
-0.002279142
-7.788074e-06
-0.002263139
-1.600304e-05
-0.002246927
-1.621198e-05
-0.002228917
-1.801078e-05
-0.002199906
-2.901107e-05
-0.002165174
-3.473154e-05
-0.002128655
-3.651873e-05
-0.00209535
-3.33057e-05
-0.002054353
-4.099691e-05
-0.002018471
-3.588208e-05
-0.001980839
-3.763174e-05
-0.001933001
-4.783777e-05
-0.001886347
-4.665383e-05
-0.001894435
8.088158e-06
-0.001848264
-4.617165e-05
-0.001799757
-4.850695e-05
-0.001750887
-4.886978e-05
-0.001690957
-5.992967e-05
-0.001629788
-6.116917e-05
-0.001570664
-5.912419e-05
-0.001512186
-5.847783e-05
-0.001444829
-6.735673e-05
-0.001372041
-7.278842e-05
-0.001296656
-7.538466e-05
-0.001224514
-7.2142e-05
-0.001145797
-7.871708e-05
-0.001069132
-7.66651e-05
-0.0009923556
-7.677658e-05
-0.0009137988
-7.855682e-05
-0.0008252517
-8.854703e-05
-0.0007407355
-8.451625e-05
-0.0006585122
-8.222331e-05
-0.0005608607
-9.765143e-05
-0.000466851
-9.400979e-05
-0.0003799108
-8.694011e-05
-0.0002784774
-0.0001014334
-0.0001844395
-9.403792e-05
-0.0001051866
-7.925284e-05
-2.532917e-05
-7.985747e-05
3.814897e-05
-6.347814e-05
9.625175e-05
-5.810278e-05
0.000148768
-5.251621e-05
0.000188715
-3.9947e-05
0.0002856514
-9.693642e-05
0.0003463861
-6.073468e-05
0.0003738867
-2.750065e-05
0.0002398633
0.0001340234
-0.0006272299
0.0008670932
-0.0005459582
-8.127171e-05
0.0001350082
-0.0006809663
0.0002476055
-0.0001125973
6.926356e-05
0.0001783419
1.569543e-05
5.356813e-05
-0.0006230262
0.0006387216
-0.001631376
0.00100835
-0.002058907
0.0004275302
-0.001907635
-0.0001512718
-0.001486905
-0.0004207299
-0.0009858885
-0.0005010164
-0.0005087565
-0.000477132
-0.0002075705
-0.000301186
0.0001331567
-0.0003407272
7.363572e-05
5.952101e-05
-0.0004321123
0.0005057481
-0.0007522657
0.0003201534
-0.0004549653
-0.0002973004
-7.75284e-07
-0.00045419
0.0003802557
-0.000381031
0.0003687691
1.148667e-05
6.980515e-05
0.0002989639
-0.0002462785
0.0003160837
-0.0004874207
0.0002411422
-0.0004031423
-8.427843e-05
-0.000121985
-0.0002811573
0.0002111193
-0.0003331043
0.0004277391
-0.0002166198
0.0001962119
0.0002315271
1.318534e-05
0.0001830266
-3.56335e-05
4.881884e-05
-0.0003869966
0.0003513631
-0.0008168527
0.0004298561
-0.0008740229
5.717022e-05
-0.0007466963
-0.0001273265
-0.0006601776
-8.651877e-05
-0.0005686371
-9.154049e-05
-0.0004027034
-0.0001659337
-0.0002988027
-0.0001039007
-9.957761e-05
-0.0001992251
9.985559e-05
-0.0001994332
0.0001969374
-9.708184e-05
0.0001722612
2.467624e-05
0.0001710677
1.193494e-06
0.0005125722
-0.0003415045
0.0002273709
0.0002852013
0.001129215
-0.0009018445
0.001775087
-0.000645872
-0.004169981
0.005945068
-0.004301733
0.0001317522
-0.003719119
-0.0005826141
-0.003484364
-0.0002347551
-0.003261398
-0.0002229654
-0.003094869
-0.0001665296
-0.002944134
-0.0001507346
-0.002813508
-0.0001306258
-0.002628393
-0.0001851154
-0.002538981
-8.941146e-05
-0.002467073
-7.190831e-05
-0.00240113
-6.594307e-05
-0.002343301
-5.782865e-05
-0.002287507
-5.579384e-05
-0.002233766
-5.374128e-05
-0.002181921
-5.184495e-05
-0.002136592
-4.532886e-05
-0.002095988
-4.060473e-05
-0.002056649
-3.933906e-05
-0.002016908
-3.974026e-05
-0.001979726
-3.718204e-05
-0.00194394
-3.578593e-05
-0.001911271
-3.266906e-05
-0.001883034
-2.823691e-05
-0.001852873
-3.016141e-05
-0.001822081
-3.079231e-05
-0.001790118
-3.196304e-05
-0.001759402
-3.071517e-05
-0.001733267
-2.613559e-05
-0.001710205
-2.306137e-05
-0.001684958
-2.524744e-05
-0.001659344
-2.561359e-05
-0.001631715
-2.76296e-05
-0.001608496
-2.32184e-05
-0.001587012
-2.148404e-05
-0.001563532
-2.348056e-05
-0.001539351
-2.418049e-05
-0.001513815
-2.553614e-05
-0.00149092
-2.289519e-05
-0.001469419
-2.150109e-05
-0.001496374
2.695539e-05
-0.001485665
-1.070895e-05
-0.001470085
-1.558025e-05
-0.001454188
-1.589743e-05
-0.001440426
-1.376143e-05
-0.001425599
-1.482733e-05
-0.001412362
-1.323701e-05
-0.001400606
-1.175549e-05
-0.001388854
-1.175283e-05
-0.001373322
-1.553119e-05
-0.00135649
-1.683258e-05
-0.001342701
-1.37893e-05
-0.00133101
-1.169017e-05
-0.001321404
-9.606774e-06
-0.001307205
-1.419885e-05
-0.001288978
-1.822634e-05
-0.001273375
-1.560302e-05
-0.001259167
-1.420791e-05
-0.00124309
-1.607792e-05
-0.001230609
-1.24808e-05
-0.001218612
-1.199691e-05
-0.001207887
-1.072502e-05
-0.001201267
-6.619892e-06
-0.001197526
-3.741055e-06
-0.00118067
-1.685571e-05
-0.001159918
-2.075231e-05
-0.001149814
-1.010412e-05
-0.001120693
-2.912052e-05
-0.001033221
-8.747224e-05
-0.000687851
-0.0003453699
0.0002936131
-0.0009814641
0.001268881
-0.0009752678
0.0002962642
0.0009726167
-8.175889e-05
0.0003780231
3.508704e-05
-0.0001168459
0.000177474
-0.0001423869
0.0003038081
-0.0001263341
0.000432586
-0.000128778
0.0005636311
-0.000131045
0.0006805438
-0.0001169127
0.0007830165
-0.0001024728
0.0008797589
-9.67424e-05
0.0009620674
-8.230848e-05
0.001028454
-6.638655e-05
0.001079681
-5.122679e-05
0.001123027
-4.334608e-05
0.001159988
-3.696127e-05
0.001194128
-3.414009e-05
0.001224489
-3.036096e-05
0.001249029
-2.454004e-05
0.001270804
-2.177483e-05
0.001294091
-2.328705e-05
0.001315111
-2.102015e-05
0.001333576
-1.846476e-05
0.001354188
-2.061163e-05
0.001371674
-1.748667e-05
0.001392552
-2.087758e-05
0.001415543
-2.299138e-05
0.001435567
-2.002372e-05
0.001451872
-1.630517e-05
0.001469131
-1.725906e-05
0.00148827
-1.9139e-05
0.001503623
-1.535264e-05
0.00147271
3.091262e-05
0.001498172
-2.54618e-05
0.001528136
-2.99637e-05
0.001557564
-2.942833e-05
0.001586881
-2.931689e-05
0.00161812
-3.123923e-05
0.001647519
-2.939868e-05
0.001674013
-2.649432e-05
0.001702328
-2.831463e-05
0.001733817
-3.148899e-05
0.001768032
-3.421546e-05
0.001797311
-2.927861e-05
0.00182481
-2.749946e-05
0.001854012
-2.920166e-05
0.001885753
-3.174126e-05
0.001917918
-3.216483e-05
0.001953818
-3.589964e-05
0.001990782
-3.696415e-05
0.002027417
-3.663536e-05
0.002065032
-3.761432e-05
0.00209936
-3.432804e-05
0.00214071
-4.135032e-05
0.002183484
-4.277381e-05
0.002227636
-4.415184e-05
0.00227497
-4.733443e-05
0.002323756
-4.878567e-05
0.002377521
-5.376485e-05
0.002436316
-5.87955e-05
0.002495511
-5.919482e-05
0.002559697
-6.418651e-05
0.002632992
-7.329493e-05
0.002721936
-8.894399e-05
0.002907738
-0.0001858015
0.003032715
-0.0001249769
0.00317426
-0.0001415455
0.003331317
-0.0001570573
0.003531135
-0.0001998176
0.003730138
-0.0001990026
0.004206036
-0.0004758982
0.0001263871
0.0006987585
-0.001348655
0.001622513
0.0002089395
0.0008678421
0.0001414957
-4.94022e-05
0.0004316271
-0.0004325183
0.0006939374
-0.0003886444
0.0009373255
-0.0003721661
0.001166849
-0.0003605688
0.001370064
-0.0003201276
0.001549837
-0.0002822454
0.001719035
-0.0002659405
0.001872235
-0.0002355086
0.002009298
-0.0002034501
0.002129609
-0.0001715378
0.002239821
-0.0001535574
0.002340314
-0.0001374548
0.002435534
-0.0001293594
0.002524384
-0.000119211
0.002606282
-0.0001064384
0.002682746
-9.82385e-05
0.002757895
-9.843643e-05
0.00282909
-9.221519e-05
0.002896089
-8.546378e-05
0.002963116
-8.763817e-05
0.003025498
-7.986953e-05
0.00308913
-8.450918e-05
0.003152309
-8.617008e-05
0.003213477
-8.119178e-05
0.003270012
-7.283994e-05
0.003326887
-7.413432e-05
0.003383236
-7.548805e-05
0.003437181
-6.929767e-05
0.003410994
5.709907e-05
0.003474262
-8.872936e-05
0.003539793
-9.549448e-05
0.003604818
-9.445383e-05
0.003669495
-9.399343e-05
0.003734627
-9.637135e-05
0.003798823
-9.359467e-05
0.003859731
-8.740288e-05
0.003922246
-9.08295e-05
0.003985037
-9.427994e-05
0.004051008
-0.0001001866
0.004112272
-9.054177e-05
0.004173263
-8.849054e-05
0.004233987
-8.992584e-05
0.004296816
-9.457055e-05
0.004359121
-9.446949e-05
0.004424304
-0.0001010833
0.004490462
-0.0001031218
0.004556257
-0.0001024307
0.004623731
-0.0001050882
0.00468786
-9.845683e-05
0.004758036
-0.0001115258
0.004827672
-0.0001124102
0.004900092
-0.000116572
0.004973383
-0.0001206248
0.005049283
-0.0001246864
0.005127742
-0.0001322233
0.005211156
-0.0001422101
0.005294419
-0.0001424574
0.005382605
-0.0001523731
0.005477381
-0.0001680707
0.005585915
-0.0001974779
0.00584931
-0.000449196
0.005995551
-0.000271218
0.006161943
-0.0003079377
0.006339952
-0.0003350663
0.006570783
-0.0004306483
0.006763258
-0.000391478
0.007307822
-0.001020462
0.006455533
0.0009786765
-0.00717222
0.006464181
0.0008397918
-0.006526795
-0.001228039
-0.006301636
-0.0004599134
-0.006051647
-0.0004729553
-0.005865386
-0.0003527905
-0.005691463
-0.0003246574
-0.005541592
-0.0002804964
-0.005284692
-0.0004420162
-0.005176814
-0.0001972894
-0.005083774
-0.0001649477
-0.004995411
-0.000154306
-0.004914441
-0.0001387992
-0.004834814
-0.0001354205
-0.00475852
-0.0001300356
-0.004683084
-0.000127281
-0.004614015
-0.0001143976
-0.004547023
-0.0001075964
-0.004482743
-0.0001036191
-0.004417304
-0.000105179
-0.00435516
-9.932623e-05
-0.004293337
-9.760953e-05
-0.004234351
-9.165436e-05
-0.004178094
-8.449461e-05
-0.004120683
-8.757217e-05
-0.004063595
-8.788063e-05
-0.004005598
-8.995939e-05
-0.003949315
-8.699783e-05
-0.003895013
-8.043847e-05
-0.003843389
-7.468524e-05
-0.003788734
-7.990268e-05
-0.003735227
-7.912035e-05
-0.003679013
-8.384359e-05
-0.00362635
-7.588146e-05
-0.003573291
-7.454234e-05
-0.003518926
-7.784592e-05
-0.003463388
-7.971865e-05
-0.003406759
-8.216459e-05
-0.003351635
-7.801953e-05
-0.003296457
-7.667961e-05
-0.003321727
5.222577e-05
-0.003275924
-5.65123e-05
-0.003228307
-6.319641e-05
-0.003179126
-6.50788e-05
-0.003131674
-6.121305e-05
-0.003081592
-6.490961e-05
-0.003032375
-6.245378e-05
-0.002982079
-6.205195e-05
-0.002930988
-6.28436e-05
-0.002875943
-7.057656e-05
-0.002819552
-7.322327e-05
-0.002763824
-6.951732e-05
-0.002707262
-6.825178e-05
-0.002650119
-6.674984e-05
-0.002587409
-7.690931e-05
-0.002520914
-8.472086e-05
-0.002454012
-8.250507e-05
-0.002385705
-8.251564e-05
-0.002312287
-8.949548e-05
-0.002238277
-8.64912e-05
-0.002158552
-9.172161e-05
-0.002073526
-9.575138e-05
-0.001983128
-9.701712e-05
-0.001885663
-0.000101206
-0.001765992
-0.0001365267
-0.001631882
-0.000154863
-0.001493375
-0.0001486108
-0.001322623
-0.0001998723
-0.001079884
-0.0003302114
-0.0006238628
-0.0008013912
0.0003120069
-0.001917334
-0.002011916
-0.0008398592
-0.0002969869
0.002003939
-0.0007282405
-0.0001928903
0.0001220833
-0.00153129
0.0004686289
-0.0004591429
0.0002654938
0.000381477
-0.0004667395
0.0007858014
-0.001975012
0.002146994
-0.002893372
0.00192671
-0.002878649
0.0004128067
-0.002509431
-0.0005204897
-0.001966871
-0.0009632898
-0.00131504
-0.001152847
-0.000691044
-0.001101128
-0.0003067904
-0.0006854396
-7.309181e-05
-0.0005744258
-0.0003978942
0.0003843234
-0.0009579386
0.001065792
-0.0009868911
0.0003491058
-0.0005019613
-0.0007822302
2.191675e-05
-0.000978068
0.0005635283
-0.0009226426
0.0006654271
-9.041217e-05
5.151432e-05
0.0009128767
-0.000644491
0.001012089
-0.000862933
0.0004595842
-0.000672782
-0.0002744295
-0.0002996221
-0.0006543171
0.0001378515
-0.0007705779
0.0006267587
-0.000705527
0.0005784904
0.0002797954
0.0001042739
0.0006572431
-0.0003595357
0.0005126285
-0.001012261
0.001004088
-0.001464898
0.0008824928
-0.001419498
1.177096e-05
-0.00121146
-0.0003353652
-0.001028433
-0.0002695455
-0.0008336038
-0.0002863697
-0.0005762129
-0.0004233246
-0.0003967288
-0.0002833847
-9.214181e-05
-0.0005038121
0.0002106432
-0.0005022182
0.0003939336
-0.0002803723
0.0004172171
1.392747e-06
0.0004580662
-3.965561e-05
0.000923102
-0.0008065402
0.001039681
0.0001686219
0.001851719
-0.001713882
0.0007267093
0.0004791372
0.01313596
-0.002408289
0.001411097
0.001481632
-0.002023015
-0.0006765634
-0.001317204
-0.001413628
-0.000623428
-0.001260284
-9.262501e-05
-0.001044359
0.0003523613
-0.0008470144
0.0006824236
-0.0005858019
0.0009079481
-0.0003916984
0.001211953
-0.0006087066
0.001854622
-0.001288704
0.002784978
-0.001756373
0.003567476
-0.000759402
0.002558444
0.003022204
-0.0001845713
0.005006443
-0.001542953
0.001333089
-0.001129953
-0.001322558
-0.0009464089
-0.0007551258
-0.000691742
-0.0006837596
-0.0001545391
-0.001194681
0.0008028235
-0.001641191
0.001651719
-0.0006650883
0.001459391
0.001318478
0.00080714
0.00128717
0.0001454134
0.0004791023
-0.0005214827
0.0004419763
-0.00113392
0.0005973655
-0.001763167
0.0007711396
-0.002394763
0.0008565067
-0.002967355
0.0008327755
-0.00345832
0.0007692345
-0.003864983
0.0006854082
-0.004179017
0.000557951
-0.00440582
0.0004254079
-0.004464973
0.0001692761
-0.00460958
0.0002952219
-0.004750083
0.0002886072
-0.00485662
0.0002318707
-0.004936289
0.0001872585
-0.005001335
0.0001688085
-0.005044228
0.0001282344
-0.005074752
0.0001119789
-0.005095019
9.780654e-05
-0.005097022
6.173086e-05
-0.005088454
4.276787e-05
-0.005069424
2.32183e-05
-0.005045553
1.753992e-05
-0.005018377
1.378691e-05
-0.004978325
-1.668819e-05
-0.004934444
-2.731237e-05
-0.004885736
-3.970543e-05
-0.004833055
-5.028464e-05
-0.004777613
-5.688247e-05
-0.004719612
-6.216445e-05
-0.004658471
-6.89289e-05
-0.004590824
-8.365016e-05
-0.004522161
-8.487411e-05
-0.004451021
-8.915159e-05
-0.004371124
-0.0001089081
-0.004286573
-0.0001192822
-0.004199287
-0.0001238044
-0.004112591
-0.0001200016
-0.00401782
-0.0001357683
-0.003924687
-0.0001290152
-0.003827406
-0.000134913
-0.003720028
-0.0001552154
-0.003610817
-0.0001558651
-0.003580955
-2.177388e-05
-0.00346985
-0.0001572762
-0.003358933
-0.0001594242
-0.003245464
-0.000162339
-0.00312253
-0.0001828629
-0.002998527
-0.0001851726
-0.002874946
-0.0001827049
-0.002750718
-0.0001827061
-0.002619025
-0.0001990493
-0.002483877
-0.0002079363
-0.002347163
-0.0002120987
-0.002213159
-0.0002061466
-0.002073324
-0.0002185518
-0.001935341
-0.0002146481
-0.00179591
-0.0002162077
-0.001653792
-0.0002206748
-0.00150189
-0.0002404491
-0.001352271
-0.0002341348
-0.001201796
-0.000232699
-0.001036548
-0.0002628991
-0.0008763661
-0.0002541917
-0.0007224933
-0.0002408129
-0.0005567832
-0.0002671436
-0.0004048599
-0.0002459612
-0.0002708948
-0.0002132179
-0.000137325
-0.0002134273
-2.773222e-05
-0.0001730709
8.051252e-05
-0.0001663475
0.0001900037
-0.0001620074
0.0002898289
-0.0001397723
0.0004498485
-0.0002569559
0.0006033561
-0.0002142423
0.0006707004
-9.484493e-05
0.0005077369
-0.0009839233
0.01346514
-0.001949198
-0.0001349411
-0.00143246
-0.001457983
-0.001807623
0.001580011
-0.001090872
-0.001065875
-0.0003911637
-0.001274155
-0.0002573983
-0.0001950071
-7.782879e-05
-0.000296386
0.0001366024
-0.0003821733
0.000314717
-0.0003446744
0.0004991236
-0.0003375736
0.0006051716
-0.0001379276
0.0003678972
0.0003494479
-0.000241836
0.0008330307
-0.0008005436
0.0009221559
-0.0009830732
0.0004791755
-0.000856099
-0.0001037158
-0.0005876474
-0.0004294806
-0.0003371821
-0.0004078801
-0.0003863595
9.465345e-05
-0.0008268944
0.0007087941
-0.001214095
0.0006113172
-0.00113032
-0.000125985
-0.0006975348
-0.000753797
-0.0003867878
-0.0005629942
-0.0002194264
-0.0002953311
-0.0001102181
-0.0001358342
-1.558065e-06
-0.0001554343
3.585673e-05
-0.0001110059
-0.000424717
0.0004823826
-0.001398386
0.00120433
-0.002367541
0.001552564
-0.002866816
0.001199238
-0.002882409
0.0004469568
-0.002694107
-9.381966e-05
-0.002461646
-0.0003258477
-0.002211567
-0.0003836974
-0.001911237
-0.0004672353
-0.001432299
-0.0007935495
-0.000600757
-0.001427211
0.0007869201
-0.00253377
0.001899511
-0.002043439
0.002791188
-0.001611068
0.00347521
-0.001207909
0.003922135
-0.0007683136
0.004142908
-0.0001502152
0.003908332
0.001070232
0.002474707
0.003037897
0.0005981846
0.002693906
0.002768711
0.0005456814
-0.008436492
0.02135595
-0.00228557
0.002696311
-0.002287226
-0.001456328
-0.002411739
0.001704524
-0.00147272
-0.002004895
-0.0006036698
-0.002143204
-0.0003941453
-0.0004045316
-0.0002087468
-0.0004817845
-1.255087e-05
-0.0005783693
0.0001328402
-0.0004900655
0.0002679308
-0.0004726642
0.0003019561
-0.000171953
-0.0001442391
0.0007956432
-0.000884771
0.001573563
-0.001283447
0.001320832
-0.001299926
0.0004956544
-0.001116154
-0.0002874877
-0.000793735
-0.0007519
-0.0004886419
-0.0007129732
-0.0004999612
0.0001059728
-0.0009707837
0.001179617
-0.001475447
0.00111598
-0.001433193
-0.0001682383
-0.000935485
-0.001251505
-0.0006055251
-0.0008929541
-0.0004478819
-0.0004529743
-0.0002870009
-0.0002967153
-0.0003165147
-0.0001259205
-0.000850974
0.0004234534
-0.001906334
0.001537743
-0.00300891
0.002306905
-0.003606098
0.002149752
-0.003645166
0.001238306
-0.003483683
0.0002854736
-0.00328576
-0.0002917423
-0.003007765
-0.0006038431
-0.002697565
-0.0006938972
-0.002324335
-0.0008404654
-0.001717393
-0.001400492
-0.0006338038
-0.0025108
0.001056073
-0.004223647
0.002392891
-0.003380258
0.003490019
-0.002708195
0.004326686
-0.002044577
0.004874043
-0.001315671
0.00508301
-0.0003591818
0.004967918
0.001185323
0.003976179
0.004029636
0.001459318
0.005210768
-0.001394567
0.005622595
-0.00285767
0.002944735
-0.002664356
-0.0008698771
-0.002162327
-0.001915656
-0.001589012
-0.0018336
-0.001180174
-0.001453197
-0.0008492852
-0.001177903
-0.0006018971
-0.00083319
-0.0004334989
-0.0005600966
-9.499248e-05
-0.000947213
0.0006206283
-0.002004325
0.001874441
-0.003010185
0.002905835
-0.001790796
0.002672492
0.003255547
0.0004052598
0.007273675
-0.001890306
0.003628655
-0.002740467
-0.0004723971
-0.003234135
-0.0002614571
-0.003193612
-0.0007242834
-0.002694079
-0.001694214
-0.001677881
-0.002657389
-0.0001701961
-0.002172773
0.0004438322
0.00070445
-0.001058473
0.002789475
-0.002842817
0.002263446
-0.004008887
0.001608047
-0.004770755
0.001359233
-0.005386321
0.001386706
-0.005891634
0.001361819
-0.006277313
0.001218455
-0.006554395
0.001046316
-0.006746821
0.0008778345
-0.006870953
0.0006820833
-0.006945638
0.0005000931
-0.006849592
7.322938e-05
-0.006890132
0.0003357618
-0.006918394
0.0003168701
-0.006925879
0.0002393554
-0.006917588
0.0001789674
-0.006902957
0.0001541771
-0.006873392
9.867015e-05
-0.006838516
7.710205e-05
-0.006798697
5.798838e-05
-0.006747574
1.06075e-05
-0.006693552
-1.125402e-05
-0.006633619
-3.671504e-05
-0.006571868
-4.421094e-05
-0.006509595
-4.84861e-05
-0.006436616
-8.966724e-05
-0.006362849
-0.0001010794
-0.006285093
-0.0001174616
-0.006204278
-0.0001310993
-0.00612143
-0.0001397309
-0.006036438
-0.0001471563
-0.005949036
-0.000156331
-0.005855039
-0.0001776465
-0.005760312
-0.0001796013
-0.005663119
-0.0001863444
-0.005556448
-0.000215579
-0.005445282
-0.0002304481
-0.005330272
-0.0002388147
-0.005215731
-0.0002345423
-0.005090911
-0.0002605891
-0.00496751
-0.0002524157
-0.004838556
-0.000263867
-0.004697875
-0.0002958963
-0.004552899
-0.0003008412
-0.004507348
-6.732472e-05
-0.004359388
-0.0003052362
-0.004215431
-0.0003033812
-0.004068596
-0.0003091746
-0.003911171
-0.0003402882
-0.003753654
-0.0003426889
-0.003596529
-0.0003398298
-0.003438843
-0.0003403923
-0.003272754
-0.0003651385
-0.003103942
-0.0003767484
-0.002933487
-0.0003825534
-0.002766465
-0.0003731688
-0.002591997
-0.0003930194
-0.002419989
-0.0003866562
-0.002245003
-0.0003911942
-0.00206619
-0.0003994877
-0.001875308
-0.0004313307
-0.001686654
-0.0004227887
-0.001495349
-0.0004240048
-0.001286557
-0.0004716904
-0.001085207
-0.0004555415
-0.000889553
-0.0004364673
-0.0006786714
-0.0004780251
-0.000484386
-0.0004402466
-0.000306686
-0.0003909179
-0.0001261132
-0.0003940002
2.982999e-05
-0.000329014
0.0001821992
-0.0003187168
0.0003239205
-0.0003037287
0.0004560615
-0.0002719133
0.0006383848
-0.0004392792
0.0008087463
-0.0003846039
0.0008714544
-0.0001575531
0.0003801841
0.0009990073
-0.0009439887
0.003328112
-0.0008806518
-0.0002562272
0.000120569
-0.002532511
0.0006521017
-0.0009906756
0.0001651458
0.0008684328
-0.001311659
0.002262606
-0.003041138
0.003876473
-0.003592983
0.002478556
-0.003443862
0.0002636857
-0.003052445
-0.0009119073
-0.002387074
-0.00162866
-0.001596056
-0.001943865
-0.0008183108
-0.001878873
-0.0003586847
-0.001145066
-0.0002776301
-0.0006554804
-0.0007812732
0.0008879665
-0.001097772
0.001382292
-0.0008723202
0.0001236536
-0.0004103057
-0.001244245
8.173776e-05
-0.001470111
0.0006651491
-0.001506054
0.0008053228
-0.000230586
-6.493863e-05
0.001783138
-0.0009801279
0.001927278
-0.001176646
0.0006561027
-0.0009802711
-0.0004708048
-0.0005753545
-0.001059234
-0.0001612811
-0.001184651
0.0004997924
-0.001366601
0.0007856645
-6.076675e-06
0.0001836557
0.001259252
-0.0006616984
0.001357983
-0.001429629
0.001772019
-0.001794086
0.00124695
-0.001664573
-0.0001177414
-0.001406178
-0.0005937606
-0.001176968
-0.0004987554
-0.0009364021
-0.0005269357
-0.0006327152
-0.0007270115
-0.0004196786
-0.0004964213
-5.148471e-05
-0.000872006
0.0003100776
-0.0008637805
0.0005307058
-0.0005010005
0.0005951804
-6.308181e-05
0.0007177757
-0.0001622509
0.001188607
-0.001277372
0.001533549
-0.0001763193
0.002014283
-0.002194616
-0.0007663127
0.003259733
-0.008302894
0.02067254
-0.009026358
0.001563255
-0.008373457
-0.00188094
-0.008106318
-0.0007270531
-0.00783137
-0.0007479025
-0.007627265
-0.0005568959
-0.007437081
-0.0005148415
-0.007276862
-0.0004407152
-0.00697924
-0.0007396385
-0.006861542
-0.0003149871
-0.006754666
-0.0002718235
-0.006652245
-0.0002567273
-0.006556875
-0.0002341694
-0.006462125
-0.0002301705
-0.006370991
-0.0002211698
-0.006279872
-0.0002183994
-0.00619499
-0.0001992799
-0.006110938
-0.0001916481
-0.006029833
-0.0001847245
-0.00594686
-0.0001881517
-0.005867407
-0.0001787795
-0.005787489
-0.0001775274
-0.005710042
-0.0001691013
-0.005634835
-0.0001597016
-0.005558209
-0.0001641982
-0.005482273
-0.0001638166
-0.005405205
-0.0001670274
-0.005329724
-0.0001624795
-0.005255176
-0.0001549862
-0.005183063
-0.0001467978
-0.005107008
-0.0001559585
-0.005032823
-0.0001533051
-0.004954999
-0.0001616675
-0.004880698
-0.0001501827
-0.004804952
-0.0001502876
-0.004727685
-0.0001551135
-0.004649073
-0.0001583304
-0.004568834
-0.0001624039
-0.004488885
-0.000157968
-0.004406538
-0.0001590273
-0.004421343
6.703135e-05
-0.004345944
-0.0001319118
-0.004274778
-0.0001343627
-0.004200547
-0.0001393095
-0.004128386
-0.0001333736
-0.004052582
-0.0001407141
-0.003977626
-0.0001374099
-0.003900813
-0.0001388643
-0.003823045
-0.0001406114
-0.003740748
-0.0001528741
-0.003656955
-0.0001570159
-0.003573541
-0.0001529318
-0.003488292
-0.0001535007
-0.003402002
-0.0001530395
-0.00330919
-0.0001697212
-0.003211909
-0.0001820019
-0.003113931
-0.0001804835
-0.003013332
-0.0001831142
-0.002905427
-0.0001974011
-0.002795971
-0.0001959468
-0.002678239
-0.0002094535
-0.002553079
-0.0002209113
-0.00241939
-0.000230707
-0.00227549
-0.0002451053
-0.002101911
-0.0003101057
-0.001910258
-0.0003465163
-0.001713659
-0.0003452097
-0.001466961
-0.0004465704
-0.001124796
-0.000672376
-0.0005830845
-0.001343103
0.0004082186
-0.002908637
0.001654095
-0.003257792
0.001500013
0.001776595
0.001236029
0.001131826
0.00107646
0.0001101669
0.001214808
-0.0005708663
0.001500263
-0.0006740994
0.001793807
-0.0006657096
0.002060524
-0.0006272859
0.002290093
-0.0005496964
0.002489102
-0.0004812545
0.002675387
-0.000452225
0.002845554
-0.0004056765
0.003000636
-0.000358532
0.003138704
-0.0003096055
0.003267241
-0.0002820943
0.003385883
-0.0002560971
0.003500136
-0.0002436124
0.003608467
-0.0002275414
0.003710216
-0.0002081876
0.00380646
-0.0001944827
0.003901879
-0.0001938554
0.003993568
-0.0001839045
0.004080953
-0.0001728485
0.004169027
-0.0001757117
0.004251698
-0.0001625405
0.004335929
-0.0001687402
0.004419448
-0.0001696889
0.004501567
-0.0001633108
0.004578664
-0.0001499373
0.004656535
-0.0001520052
0.004732971
-0.000151924
0.004811561
-0.0001478883
0.004785002
8.365836e-05
0.004872625
-0.0001763528
0.00496095
-0.0001838186
0.005047707
-0.0001812109
0.005133602
-0.0001798886
0.005219406
-0.0001821758
0.005304422
-0.00017861
0.005385547
-0.0001685284
0.005468261
-0.0001735434
0.005549854
-0.0001758732
0.005635163
-0.0001854956
0.00571515
-0.0001705283
0.005795409
-0.0001687501
0.005874558
-0.0001690741
0.005955744
-0.0001757568
0.006035619
-0.0001743448
0.006118176
-0.00018364
0.006201417
-0.0001863633
0.006283924
-0.0001849378
0.006368646
-0.0001898096
0.006448988
-0.0001787991
0.006535677
-0.0001982148
0.006620421
-0.0001971538
0.0067083
-0.0002044517
0.006796058
-0.0002083826
0.006886325
-0.000214953
0.006978135
-0.000224034
0.007074753
-0.0002388279
0.007170447
-0.0002381516
0.007270636
-0.000252562
0.007377069
-0.0002745035
0.007494012
-0.0003144207
0.007801725
-0.0007569088
0.007956494
-0.0004259866
0.008136611
-0.0004880553
0.008330665
-0.0005291202
0.0085855
-0.0006854835
0.008813431
-0.0006194085
0.00937521
-0.001582242
0.001917395
0.002196975
-0.001927912
0.001507532
0.002387042
0.000941759
0.002404383
9.282575e-05
0.002485002
-0.000651485
0.002687313
-0.0008764109
0.002929505
-0.0009079014
0.003167044
-0.0008648246
0.003381529
-0.0007641818
0.003573732
-0.0006734572
0.003759502
-0.0006379947
0.00393325
-0.000579425
0.004095707
-0.0005209894
0.004242974
-0.0004568723
0.004382218
-0.000421338
0.004511993
-0.000385872
0.004637961
-0.0003695804
0.004758647
-0.0003482274
0.004872643
-0.0003221841
0.004981325
-0.0003031646
0.005089473
-0.0003020026
0.005193849
-0.000288281
0.005293709
-0.0002727085
0.005395022
-0.0002770249
0.005489928
-0.0002574466
0.005587136
-0.0002659478
0.005683578
-0.0002661309
0.005778613
-0.0002583455
0.005868421
-0.0002397455
0.005959206
-0.0002427905
0.006048367
-0.000241085
0.006141869
-0.0002413902
0.006104341
0.0001211867
0.006206401
-0.0002784131
0.006311006
-0.000288424
0.006412863
-0.0002830671
0.006513732
-0.0002807579
0.006614499
-0.000282943
0.006714215
-0.0002783258
0.00680946
-0.0002637736
0.006906467
-0.0002705497
0.007001898
-0.0002713044
0.007101703
-0.0002853007
0.007195201
-0.0002640269
0.007289241
-0.00026279
0.007381971
-0.0002618041
0.007476851
-0.0002706366
0.007570059
-0.0002675528
0.007666497
-0.0002800781
0.00776349
-0.0002833562
0.007859684
-0.0002811311
0.007958692
-0.0002888181
0.008052042
-0.0002721486
0.008153413
-0.000299586
0.008251587
-0.0002953282
0.008353443
-0.0003063079
0.008455198
-0.0003101367
0.00855912
-0.0003188759
0.008665145
-0.0003300589
0.008776105
-0.0003497875
0.008885685
-0.0003477319
0.009000167
-0.0003670435
0.009122281
-0.0003966176
0.009448513
-0.0006406524
0.009618084
-0.0009264801
0.009792334
-0.0006002366
0.009999231
-0.000694952
0.01022908
-0.0007589664
0.01052563
-0.0009820326
0.01083748
-0.0009312671
0.01134783
-0.002092584
0.01054284
0.002722387
-0.01078262
0.01026206
0.002083814
-0.01017341
-0.002490151
-0.009805684
-0.001094779
-0.009482871
-0.001070715
-0.009237292
-0.000802475
-0.009013311
-0.0007388219
-0.008827557
-0.0006264696
-0.00865201