/*--------------------------------*- C++ -*----------------------------------*\
| =========                 |                                                 |
| \\      /  F ield         | OpenFOAM: The Open Source CFD Toolbox           |
|  \\    /   O peration     | Version:  2406                                  |
|   \\  /    A nd           | Website:  www.openfoam.com                      |
|    \\/     M anipulation  |                                                 |
\*---------------------------------------------------------------------------*/
FoamFile
{
    version     2.0;
    format      ascii;
    arch        "LSB;label=32;scalar=64";
    class       surfaceScalarField;
    location    "0.26";
    object      phi;
}
// * * * * * * * * * * * * * * * * * * * * * * * * * * * * * * * * * * * * * //

dimensions      [0 3 -1 0 0 0 0];

oriented        oriented;

internalField   nonuniform List<scalar> 
326221
(
-0.002373855
-0.005750179
0.008124034
-0.001253104
-0.001120751
0.0004616224
-0.001714726
-0.00132634
0.001787963
-0.00166047
0.0003341294
-8.230923e-05
-0.00157816
0.0006548492
-0.0007371585
0.0009302899
-0.0002754407
0.0007779705
0.0001523194
0.0007720457
5.924842e-06
0.0009686303
-0.0001965846
0.0003890636
0.0005795667
-0.001177873
0.001566936
-0.002661225
0.001483352
-0.003003957
0.0003427313
-0.002424938
-0.000579019
-0.00131342
-0.001111517
-1.322191e-06
-0.001312098
0.001360921
-0.001362243
0.002702088
-0.001341167
0.003980953
-0.001278864
0.004291818
-0.0003108649
0.00263127
0.001660548
0.0004494404
0.002181829
-0.0008277356
0.001277176
-0.001735933
0.0009081974
-0.0009490096
-0.0007869234
0.0006715371
-0.001620547
0.001661953
-0.0009904161
0.001907241
-0.0002452878
0.002088104
-0.0001808633
0.002143215
-5.511051e-05
0.001017377
0.001125837
-0.001121613
0.00213899
-0.003133465
0.002011852
-0.004442
0.001308535
-0.005263358
0.0008213584
-0.005711623
0.0004482652
-0.005812143
0.0001005201
-0.005632344
-0.0001797993
-0.005292138
-0.0003402063
-0.004872281
-0.000419857
-0.004349952
-0.0005223288
-0.003773415
-0.0005765366
-0.003212281
-0.0005611346
-0.002619625
-0.0005926556
-0.002121235
-0.00049839
-0.001585654
-0.000535581
-0.001145766
-0.0004398882
-0.0008849822
-0.0002607839
-0.0006267757
-0.0002582065
-7.149019e-05
-0.0005552855
0.0005561033
-0.0006275935
0.0008751604
-0.0003190571
0.0009931441
-0.0001179836
0.0007194679
0.0002736762
0.0004759518
0.0002435162
0.0005139301
-3.797836e-05
0.0006277576
-0.0001138275
0.0007213921
-9.363451e-05
0.0007086053
1.278689e-05
0.0006119393
9.666593e-05
0.0005014955
0.0001104438
0.0003988342
0.0001026613
0.0003007849
9.80493e-05
0.0001934195
0.0001073654
6.829344e-05
0.0001251261
-7.862973e-05
0.0001469232
-0.0002495469
0.0001709172
-0.000439924
0.000190377
-0.0006524181
0.0002124941
-0.0008775339
0.0002251159
-0.001109197
0.0002316628
-0.001342232
0.0002330353
-0.001571467
0.0002292354
-0.001789248
0.000217781
-0.001992823
0.0002035749
-0.002176702
0.0001838788
-0.002339878
0.0001631758
-0.002482856
0.0001429778
-0.002603278
0.0001204222
-0.002694726
9.144858e-05
-0.002749172
5.444594e-05
-0.002713647
-3.552532e-05
-0.002717441
3.794095e-06
-0.002701011
-1.642989e-05
-0.002663
-3.801092e-05
-0.002595661
-6.73395e-05
-0.00251281
-8.285044e-05
-0.002417429
-9.538146e-05
-0.002295319
-0.00012211
-0.002175469
-0.0001198497
-0.002057316
-0.0001181528
-0.001926309
-0.0001310077
-0.001781391
-0.0001449176
-0.001605965
-0.000175426
-0.001408946
-0.0001970195
-0.001199683
-0.0002092631
-0.0009769191
-0.0002227634
-0.0007572975
-0.0002196216
-0.0005352636
-0.0002220339
-0.0003259992
-0.0002092644
-9.93171e-05
-0.0002266821
0.0001035389
-0.000202856
0.0003303603
-0.0002268215
0.0005340001
-0.0002036397
0.0007464823
-0.0002124823
0.0009482667
-0.0002017844
0.001147711
-0.0001994447
0.001340279
-0.0001925676
0.00152878
-0.0001885012
0.001692332
-0.000163552
0.001843301
-0.0001509691
0.001971761
-0.0001284601
0.002067011
-9.524958e-05
0.002144968
-7.795678e-05
0.002258436
-0.0001134686
0.002287943
-2.950614e-05
0.002270927
1.701551e-05
0.002204655
6.627245e-05
0.002089839
0.0001148157
0.001942879
0.0001469596
0.001777373
0.0001655066
0.001588485
0.0001888873
0.00138218
0.0002063058
0.001182118
0.0002000614
0.001012312
0.0001698058
0.0008694588
0.0001428536
0.0007548899
0.0001145689
0.0006776845
7.720539e-05
0.0006350943
4.259016e-05
0.0006155357
1.955868e-05
0.0006141786
1.357074e-06
0.0006377774
-2.35988e-05
0.0006759158
-3.813842e-05
0.0007166083
-4.06925e-05
0.0007536139
-3.700556e-05
0.000790729
-3.711509e-05
0.0008492886
-5.855963e-05
0.0009674851
-0.0001181965
0.001136724
-0.000169239
0.001282503
-0.0001457786
0.00136851
-8.600713e-05
0.001421764
-5.325442e-05
0.001505809
-8.404425e-05
0.001633358
-0.000127549
0.001911487
-0.0002781293
0.002284087
-0.0003726003
0.003043374
-0.0007592872
0.004160241
-0.001116867
-0.002644718
0.006804959
-0.005307718
0.002663
-0.006410994
0.001103275
-0.005357691
-0.001053302
-0.004492243
-0.0008654488
-0.004110611
-0.0003816321
-0.004012416
-9.819469e-05
-0.003808286
-0.0002041302
-0.003130416
-0.00067787
-0.001767911
-0.001362504
-0.0003705008
-0.001397411
-0.0001148823
-0.0002556185
-0.0008230366
0.0007081544
-0.001782651
0.0009596143
-0.002667472
0.0008848208
-0.002969847
0.0003023753
-0.002102525
-0.0008673226
-0.0007119845
-0.00139054
0.0007162033
-0.001428188
0.001656268
-0.0009400643
0.00250622
-0.0008499529
0.003405639
-0.0008994186
0.004149301
-0.0007436616
0.004865436
-0.0007161349
0.005425781
-0.0005603452
0.005863506
-0.000437725
0.006156695
-0.0002931892
0.006179984
-2.328891e-05
0.005829139
0.0003508453
0.004919302
0.0009098361
0.003034471
0.001884831
0.0002682831
0.002766188
-0.001708973
0.001977256
-0.001478795
-0.0002301776
0.000351822
-0.001830617
-0.000167643
0.0005194649
-0.003056577
0.002888934
-0.004327269
0.001270692
-0.003128595
-0.001198674
-0.001634231
-0.001494364
-0.0006683044
-0.0009659265
-0.0001913165
-0.0004769879
-7.252856e-05
-0.000118788
-0.000325801
0.0002532724
7.135039e-05
-0.0003971513
0.001048017
-0.0009766665
0.0003567962
0.0006912207
0.001429477
-0.001072681
0.002290269
-0.0008607917
-0.005636286
0.007926554
-0.005906998
0.0002707121
-0.005135777
-0.0007712211
-0.004827712
-0.0003080648
-0.004520744
-0.0003069681
-0.004288574
-0.00023217
-0.004076044
-0.0002125302
-0.003890895
-0.0001851489
-0.00363686
-0.0002540346
-0.003508503
-0.0001283574
-0.00340006
-0.0001084425
-0.003299933
-0.0001001268
-0.003210846
-8.908699e-05
-0.003124462
-8.638455e-05
-0.003042169
-8.22924e-05
-0.002963772
-7.839704e-05
-0.002893598
-7.017412e-05
-0.002828778
-6.482048e-05
-0.002766347
-6.24311e-05
-0.002704815
-6.153157e-05
-0.002647657
-5.715803e-05
-0.002592556
-5.510089e-05
-0.002540925
-5.163101e-05
-0.00249459
-4.633558e-05
-0.002447177
-4.741308e-05
-0.002399418
-4.775854e-05
-0.002350955
-4.846292e-05
-0.002306221
-4.473442e-05
-0.002265769
-4.045191e-05
-0.002228863
-3.690585e-05
-0.002190319
-3.854399e-05
-0.002152161
-3.815759e-05
-0.002111472
-4.068904e-05
-0.002075473
-3.599907e-05
-0.002042259
-3.321466e-05
-0.00200733
-3.492884e-05
-0.001971873
-3.545661e-05
-0.001935341
-3.653179e-05
-0.00190263
-3.271143e-05
-0.001872789
-2.984097e-05
-0.001904028
3.123903e-05
-0.00188821
-1.581787e-05
-0.00186626
-2.195038e-05
-0.001844037
-2.222285e-05
-0.001824675
-1.936144e-05
-0.001804762
-1.99131e-05
-0.001787014
-1.77478e-05
-0.001770807
-1.620767e-05
-0.0017556
-1.520728e-05
-0.001737448
-1.81518e-05
-0.00171933
-1.811785e-05
-0.001704809
-1.452091e-05
-0.001692864
-1.194491e-05
-0.001683588
-9.276275e-06
-0.001671065
-1.252274e-05
-0.001656031
-1.50339e-05
-0.001643216
-1.281517e-05
-0.0016334
-9.81615e-06
-0.001621813
-1.158691e-05
-0.001612665
-9.148358e-06
-0.001602397
-1.026794e-05
-0.001591293
-1.110377e-05
-0.001580911
-1.038154e-05
-0.001568858
-1.205372e-05
-0.001539892
-2.896581e-05
-0.001500017
-3.987436e-05
-0.001460351
-3.966666e-05
-0.00140761
-5.27411e-05
-0.00132887
-7.873981e-05
-0.001157783
-0.0001710866
-0.0008795344
-0.0002782489
-8.557876e-05
-0.0007939556
0.0007708646
-0.0008564433
0.001036891
-0.0002660261
0.001219133
-0.0001822418
0.001319984
-0.0001008511
0.001390072
-7.008883e-05
0.00145198
-6.190763e-05
0.001493888
-4.19081e-05
0.001511721
-1.783295e-05
0.001524093
-1.237204e-05
0.001547508
-2.341487e-05
0.001569627
-2.211893e-05
0.001587632
-1.80049e-05
0.001598396
-1.076403e-05
0.001608378
-9.982047e-06
0.001618708
-1.033001e-05
0.001633026
-1.43177e-05
0.001646635
-1.360936e-05
0.001656821
-1.018635e-05
0.001667944
-1.112257e-05
0.001682927
-1.498301e-05
0.001696838
-1.391096e-05
0.001710224
-1.33858e-05
0.001727221
-1.699688e-05
0.001741626
-1.440498e-05
0.001761173
-1.954696e-05
0.001784725
-2.355253e-05
0.001803788
-1.906342e-05
0.001819379
-1.559084e-05
0.001837195
-1.781608e-05
0.001857909
-2.071346e-05
0.001871717
-1.380799e-05
0.001837229
3.448814e-05
0.001864714
-2.748519e-05
0.001899333
-3.461899e-05
0.001934638
-3.530554e-05
0.001970408
-3.576934e-05
0.002008881
-3.847319e-05
0.00204546
-3.657869e-05
0.002079044
-3.358469e-05
0.002115311
-3.626683e-05
0.002156068
-4.075726e-05
0.002200766
-4.46974e-05
0.002240071
-3.930543e-05
0.002277471
-3.739959e-05
0.002317716
-4.024516e-05
0.002361311
-4.359521e-05
0.002405781
-4.447019e-05
0.002455388
-4.960663e-05
0.002507046
-5.165844e-05
0.002559089
-5.204262e-05
0.002612802
-5.371262e-05
0.002663101
-5.029977e-05
0.002722928
-5.982622e-05
0.002785635
-6.270731e-05
0.002851006
-6.537137e-05
0.002921271
-7.02651e-05
0.002993727
-7.245586e-05
0.003074131
-8.040387e-05
0.003162289
-8.815758e-05
0.003252549
-9.025985e-05
0.003350512
-9.79638e-05
0.003462501
-0.0001119884
0.003594519
-0.0001320177
0.003848385
-0.0002538669
0.004036561
-0.0001881752
0.004250952
-0.0002143918
0.004491401
-0.000240449
0.004804982
-0.0003135809
0.005111049
-0.0003060664
0.005926723
-0.0008156745
0.0001765441
0.0009376781
0.0001132063
-0.001907328
0.001366607
-0.0006949548
0.001669324
-0.0004849594
0.001912245
-0.0003437716
0.00210455
-0.0002623945
0.002274663
-0.0002320205
0.002420009
-0.0001872538
0.002538296
-0.0001361201
0.002642118
-0.0001161938
0.002747205
-0.0001285015
0.002845046
-0.0001199601
0.002936513
-0.0001094722
0.003018054
-9.230486e-05
0.003095377
-8.730501e-05
0.00316747
-8.24232e-05
0.003239413
-8.626031e-05
0.003307622
-8.181866e-05
0.003371429
-7.399294e-05
0.003432591
-7.228504e-05
0.003494466
-7.685836e-05
0.003553789
-7.323375e-05
0.003610774
-7.037102e-05
0.003669381
-7.56035e-05
0.003724157
-6.918051e-05
0.003781615
-7.700557e-05
0.003840457
-8.239418e-05
0.003897176
-7.578304e-05
0.003949903
-6.831764e-05
0.004004442
-7.235468e-05
0.004059283
-7.555475e-05
0.004111955
-6.647974e-05
0.004076282
7.016094e-05
0.004140988
-9.219101e-05
0.004209448
-0.0001030791
0.004278363
-0.0001042202
0.00434766
-0.0001050671
0.004418354
-0.000109167
0.004488747
-0.0001069718
0.004556174
-0.0001010112
0.004626298
-0.0001063906
0.004697729
-0.000112189
0.004773896
-0.0001208641
0.004845432
-0.0001108415
0.004917242
-0.0001092091
0.004989872
-0.0001128753
0.005065699
-0.0001194219
0.005141584
-0.0001203559
0.005221763
-0.0001297856
0.005304044
-0.0001339396
0.005386815
-0.0001348137
0.005472404
-0.0001393013
0.005554689
-0.0001325845
0.005645415
-0.0001505526
0.005736832
-0.0001541237
0.005832536
-0.0001610759
0.005930702
-0.0001684312
0.006032547
-0.0001743007
0.00613948
-0.0001873371
0.006254021
-0.0002026985
0.006370084
-0.0002063227
0.006493698
-0.0002215771
0.006628585
-0.0002468756
0.006780409
-0.0002838421
0.007117741
-0.000591199
0.007324012
-0.0003944455
0.007561756
-0.0004521364
0.007821235
-0.0004999274
0.008164176
-0.0006565221
0.008465272
-0.0006071622
0.009358823
-0.001709226
0.008662991
0.0008723758
-0.00939775
0.008538426
0.001130037
-0.008514943
-0.001654028
-0.008224673
-0.0005983348
-0.007888249
-0.0006433924
-0.007637407
-0.000483012
-0.007401834
-0.0004481037
-0.007199018
-0.0003879648
-0.006861347
-0.0005917053
-0.006713247
-0.0002764575
-0.006581962
-0.0002397279
-0.006457452
-0.0002246367
-0.006343018
-0.0002035205
-0.006230423
-0.0001989793
-0.006123083
-0.0001896327
-0.006017924
-0.0001835557
-0.005920903
-0.0001671951
-0.005826326
-0.000159398
-0.005735843
-0.0001529142
-0.005644986
-0.0001523887
-0.005559094
-0.0001430495
-0.005473928
-0.0001402675
-0.005392243
-0.0001333155
-0.005314104
-0.0001244743
-0.005235666
-0.0001258519
-0.005158057
-0.0001253672
-0.005079858
-0.0001266614
-0.00500537
-0.0001192227
-0.004932494
-0.0001133283
-0.004863105
-0.0001062945
-0.004790913
-0.0001107363
-0.00472088
-0.0001081909
-0.004647682
-0.0001138865
-0.004578712
-0.000104969
-0.004510083
-0.0001018434
-0.004440683
-0.000104329
-0.004370375
-0.0001057646
-0.004299424
-0.0001074835
-0.004230886
-0.0001012493
-0.004163355
-9.737184e-05
-0.004197269
6.51535e-05
-0.004142728
-7.035963e-05
-0.004086648
-7.803039e-05
-0.004029169
-7.970147e-05
-0.003974435
-7.409495e-05
-0.00391745
-7.689814e-05
-0.003862232
-7.296661e-05
-0.003806078
-7.236139e-05
-0.003750248
-7.103709e-05
-0.003691075
-7.732516e-05
-0.00363155
-7.764214e-05
-0.003572941
-7.313043e-05
-0.003513802
-7.108333e-05
-0.00345452
-6.855896e-05
-0.003390381
-7.66617e-05
-0.003323325
-8.20901e-05
-0.00325473
-8.140984e-05
-0.003185711
-7.883523e-05
-0.003110967
-8.63309e-05
-0.003034886
-8.522935e-05
-0.002952423
-9.273117e-05
-0.002864495
-9.903111e-05
-0.002770398
-0.0001044784
-0.002668755
-0.000113697
-0.002547207
-0.0001505137
-0.002410953
-0.0001761286
-0.002264024
-0.0001865955
-0.002088863
-0.0002279019
-0.001870277
-0.0002973258
-0.001572934
-0.0004684295
-0.001115866
-0.0007353171
-0.001796615
-0.003633052
-0.003984616
0.01442263
-0.006670544
0.005700493
-0.007022839
0.00145557
-0.006198276
-0.001877865
-0.005978963
-0.001084762
-0.006198504
-0.0001620906
-0.006073337
-0.000223362
-0.005471317
-0.0008061503
-0.004515403
-0.001633783
-0.002953969
-0.002923939
-0.001231938
-0.003119441
-0.0007200969
-0.0007674597
-0.001891547
0.001879605
-0.003911353
0.00297942
-0.005127148
0.002100615
-0.004384223
-0.000440549
-0.002571037
-0.002680509
-0.0009164862
-0.003045091
0.0007250873
-0.003069761
0.001938573
-0.00215355
0.003046467
-0.001957848
0.004205479
-0.00205843
0.005197642
-0.001735825
0.0061632
-0.001681693
0.006937699
-0.001334844
0.007568597
-0.001068624
0.0080288
-0.0007533922
0.008285431
-0.0002799197
0.008370878
0.000265399
0.0081909
0.001089813
0.007117556
0.002958175
0.003940733
0.005943012
-0.0002362098
0.006154198
-0.002168463
0.001702076
-0.001914798
-0.002084283
-0.003158899
0.001763565
-0.005451407
0.005181442
-0.005453655
0.00127294
-0.003556947
-0.003095381
-0.001908116
-0.003143196
-0.0007668658
-0.002107176
-0.0002021575
-0.001041696
-0.0001558367
-0.0001651087
-0.0004456668
0.0005431025
9.999833e-05
-0.0009428165
0.001518061
-0.00239473
0.001853873
0.0003554093
0.002640445
-0.001859253
0.0008311805
0.0009484726
0.01729616
-0.0008142222
0.0008134304
-0.0002574148
-0.0001691833
-0.001200324
0.0004896028
-0.00128638
0.0008163106
-0.000645765
0.001118908
-0.0004205815
0.001125547
0.0002670372
0.0008626411
0.0005064224
0.0006482402
0.0001764226
0.0005315494
2.863325e-06
0.0005127849
-7.486999e-05
0.0004629392
6.263251e-05
0.0003111786
0.0002484266
4.929794e-05
0.0003723244
-0.0003257342
0.0004776935
-0.0007618834
0.0005341984
-0.001181777
0.000527259
-0.001570806
0.0005141556
-0.001953559
0.0005296757
-0.002335826
0.0005531841
-0.002712474
0.000567025
-0.00307827
0.0005782907
-0.003420763
0.000567608
-0.003730385
0.0005412855
-0.004002967
0.0005056166
-0.004235924
0.0004621923
-0.004426522
0.0004083793
-0.004576676
0.0003537291
-0.004686694
0.0002938964
-0.004759722
0.0002362042
-0.004799672
0.0001829275
-0.004808351
0.0001291011
-0.004785892
6.898978e-05
-0.00473544
3.994019e-06
-0.00457278
-0.0001981851
-0.004488573
-8.04129e-05
-0.004379508
-0.000125495
-0.004250375
-0.0001671436
-0.004094042
-0.0002236731
-0.003925488
-0.0002514047
-0.003748676
-0.0002721933
-0.003548153
-0.0003226332
-0.003347847
-0.0003201556
-0.003142162
-0.0003238373
-0.002913977
-0.000359193
-0.002663
-0.0003958949
-0.002376226
-0.0004621995
-0.002067235
-0.0005060105
-0.001748543
-0.0005279549
-0.001420706
-0.0005506004
-0.001099356
-0.0005409718
-0.0007747137
-0.0005466763
-0.0004618682
-0.0005221099
-0.0001282731
-0.0005602772
0.0001752974
-0.0005064264
0.0005087552
-0.0005602793
0.0008148745
-0.000509759
0.001130715
-0.0005283232
0.001434268
-0.000505337
0.001734873
-0.0005000499
0.002027843
-0.0004855369
0.002317279
-0.0004779374
0.002582013
-0.0004282862
0.002833896
-0.0004028518
0.003062514
-0.0003570784
0.003257323
-0.0002900585
0.003433303
-0.000253937
0.003666861
-0.0003470268
0.003795046
-0.0001576911
0.003901424
-8.936206e-05
0.003980493
-1.279651e-05
0.004017463
7.784528e-05
0.004008974
0.0001554487
0.003953457
0.0002210239
0.003837721
0.0003046227
0.003657717
0.0003863099
0.003424662
0.0004331171
0.003153378
0.0004410892
0.0028437
0.0004525314
0.002502155
0.0004561139
0.002144149
0.0004352119
0.001792838
0.0003939008
0.001493756
0.0003186412
0.001298787
0.0001963254
0.001226104
4.908481e-05
0.001235303
-4.733811e-05
0.001274253
-7.96423e-05
0.00130447
-6.722271e-05
0.00132056
-5.320515e-05
0.001362199
-0.0001001979
0.001495254
-0.0002512515
0.00172179
-0.000395775
0.001952723
-0.0003767119
0.002096615
-0.0002298993
0.002132727
-8.936586e-05
0.002154303
-0.0001056208
0.002252132
-0.0002253776
0.002535225
-0.0005612228
0.003136847
-0.0009742222
0.003788934
-0.001411374
-0.001312549
-0.000681959
0.01746898
-0.002357385
0.0005546746
-0.001309697
-0.002762414
-0.002503183
0.002981448
-0.002302608
0.0001335544
-0.0002804499
-0.003600319
0.0006343432
-0.001651952
0.001143885
-0.000784982
0.001183834
0.0001123702
0.001241529
-5.177053e-05
0.001194546
-0.000149601
-0.0005567388
0.002330851
-0.003096388
0.004106586
-0.004164363
0.002551327
-0.003909844
8.821246e-05
-0.0030412
-0.001447663
-0.001627218
-0.0025255
2.7457e-06
-0.002942061
0.001710169
-0.003069666
0.003424058
-0.003055056
0.004909264
-0.00276407
0.006072932
-0.001474533
0.005591878
0.002141601
0.002275223
0.005498484
-0.0008241683
0.004376568
-0.001686809
0.001770838
-0.0002561087
-0.002217623
0.00147947
-0.003356125
0.002605751
-0.002116697
0.003151035
-0.0007905715
0.003482483
-0.0005123111
0.002320806
0.001106567
-0.001240295
0.004686938
-0.00487534
0.005774035
-0.006794285
0.003930797
-0.00763315
0.0021474
-0.007941386
0.001129595
-0.007891876
0.0003987551
-0.007612807
-0.0001785493
-0.007164138
-0.0006284677
-0.006577719
-0.0009266259
-0.005916322
-0.001081254
-0.005156453
-0.001282197
-0.004348774
-0.001384216
-0.003554407
-0.001355501
-0.002714095
-0.001432968
-0.001994986
-0.001217499
-0.001306069
-0.001224498
-0.0007415799
-0.001004377
-0.0001889333
0.001282632
-0.01091563
0.02710198
-0.002677432
0.004514738
-0.002647031
-0.002792815
-0.003301346
0.003635764
-0.002766797
-0.0004009953
-0.0006708447
-0.005696271
0.0003665279
-0.002689324
0.00103929
-0.001457744
0.001231523
-7.986261e-05
0.001306861
-0.0001271089
0.0005493627
0.0006078974
-0.002105788
0.004986002
-0.004484317
0.006485114
-0.00500299
0.00307
-0.004663228
-0.0002515496
-0.003687535
-0.002423356
-0.002014295
-0.004198739
-7.177121e-05
-0.004884586
0.001944321
-0.005085758
0.004003917
-0.005114653
0.005792191
-0.004552344
0.007154498
-0.002836839
0.007567903
0.001728196
0.004573607
0.00849278
1.953227e-05
0.008930642
-0.001070245
0.002860615
0.0007518824
-0.004039751
0.002614205
-0.005218448
0.003733651
-0.003236143
0.004318341
-0.001375262
0.003874407
-6.837723e-05
0.0003701361
0.004610838
-0.00468958
0.009746654
-0.007697535
0.00878199
-0.008892352
0.005125614
-0.009527611
0.00278266
-0.009803342
0.001405326
-0.009761411
0.000356824
-0.009442766
-0.000497194
-0.00887683
-0.001194404
-0.008148153
-0.001655303
-0.007341335
-0.001888072
-0.00642413
-0.002199403
-0.005467908
-0.002340437
-0.004550499
-0.002272911
-0.003603759
-0.002379708
-0.002812937
-0.002008321
-0.001949356
-0.002088079
-0.001064523
-0.001889211
-0.0009819632
-0.0002714926
-0.001011763
-0.000227615
-0.0002944552
-0.001917632
0.0004032592
-0.001984094
0.0007105457
-0.0009530515
0.0009253419
-0.0006353777
0.0009501182
0.0002422609
0.0007565385
0.0007000021
0.0004899084
0.0004430527
0.0002564975
0.0002362741
9.970182e-05
8.192573e-05
-0.0001495226
0.0003118569
-0.0006133588
0.0007122629
-0.001232328
0.0009912939
-0.001929181
0.001174546
-0.002602038
0.001207056
-0.003180309
0.00110553
-0.00366807
0.001001916
-0.004099575
0.0009611815
-0.004486616
0.0009402251
-0.004828668
0.0009090763
-0.005126253
0.0008758756
-0.005375842
0.0008171971
-0.005578157
0.0007436005
-0.005737661
0.0006651205
-0.005859365
0.0005838964
-0.005946169
0.000495183
-0.006003777
0.0004113375
-0.006033784
0.0003239039
-0.0060395
0.00024192
-0.006023698
0.0001671254
-0.005986861
9.22643e-05
-0.005928738
1.086608e-05
-0.005846521
-7.822244e-05
-0.005631833
-0.0004128729
-0.00550678
-0.0002054664
-0.005355709
-0.000276566
-0.005183958
-0.0003388944
-0.004983276
-0.0004243547
-0.004770184
-0.000464497
-0.004550502
-0.0004918749
-0.004304136
-0.0005689997
-0.004058103
-0.0005661885
-0.0038052
-0.0005767408
-0.003524237
-0.0006401556
-0.003216042
-0.0007040902
-0.00286588
-0.0008123611
-0.002490036
-0.0008818543
-0.002103799
-0.0009141917
-0.001707931
-0.0009464692
-0.00132099
-0.0009279123
-0.0009305926
-0.0009370739
-0.0005528186
-0.0008998839
-0.0001523413
-0.0009607544
0.0002143415
-0.0008731092
0.0006160222
-0.00096196
0.0009866043
-0.0008803411
0.001368648
-0.0009103671
0.001736365
-0.0008730537
0.002101382
-0.0008650675
0.002457684
-0.0008418385
0.002810605
-0.0008308583
0.003135088
-0.000752769
0.003445949
-0.0007137129
0.003730167
-0.0006412968
0.003977036
-0.0005369275
0.004204181
-0.0004810817
0.004500008
-0.0006428538
0.004674262
-0.0003319453
0.00482342
-0.0002385201
0.004947171
-0.000136547
0.00504305
-1.803446e-05
0.00511662
8.187921e-05
0.005167854
0.0001697892
0.005182282
0.0002901947
0.005149969
0.0004186236
0.005065729
0.0005173568
0.004925818
0.0005810004
0.004714659
0.0006636902
0.0044243
0.0007464727
0.004053839
0.0008056731
0.003611312
0.0008364278
0.003127353
0.0008026003
0.002649377
0.0006743016
0.002245334
0.0004531274
0.001976489
0.0002215074
0.001868397
2.844897e-05
0.001856946
-5.577168e-05
0.001862516
-5.877471e-05
0.001878939
-0.0001166211
0.001984501
-0.0003568133
0.00220104
-0.0006123146
0.002449965
-0.0006256366
0.002651444
-0.000431378
0.002771042
-0.0002089643
0.002859272
-0.0001938504
0.003006876
-0.0003729816
0.003364114
-0.0009184611
0.004057635
-0.001667743
0.004899248
-0.002252986
0.004450929
-0.0008642302
-0.003287132
0.02216069
-0.007565643
0.009979004
-0.008236311
0.002126238
-0.00737097
-0.002743206
-0.007148711
-0.001307021
-0.007721637
0.0004108358
-0.007913652
-3.134728e-05
-0.007334453
-0.001385349
-0.006282751
-0.002685486
-0.004567118
-0.004639572
-0.002543791
-0.005142768
-0.00182504
-0.001486211
-0.00346275
0.003517315
-0.005980079
0.005496749
-0.006777041
0.002897578
-0.005228165
-0.001989425
-0.003095255
-0.004813418
-0.001218916
-0.00492143
0.0008012501
-0.005089927
0.002318038
-0.003670337
0.003652583
-0.003292393
0.005042583
-0.00344843
0.00623885
-0.002932091
0.00739611
-0.002838953
0.008318394
-0.002257128
0.009065377
-0.001815606
0.009621026
-0.001309042
0.009901937
-0.0005608303
0.009927373
0.0002399621
0.009740692
0.001276494
0.009338178
0.003360689
0.007485384
0.007795806
0.003059315
0.01058027
-0.001481307
0.006242698
-0.003712058
0.0001464683
-0.0052704
0.003321907
-0.006459325
0.006370368
-0.005886589
0.0007002039
-0.003787864
-0.005194106
-0.001853365
-0.005077695
-0.0006534091
-0.003307132
-0.0001027047
-0.001592401
-0.0001257984
-0.000142015
-0.0003517275
0.0007690316
0.0002944251
-0.001588969
0.001824253
-0.003924557
0.002507
-0.000327338
0.002784075
-0.002136328
-0.001077663
0.00481021
-0.01076903
0.02698753
-0.01158705
0.001948059
-0.01069912
-0.002541956
-0.01033042
-0.0009670366
-0.009957021
-0.001016792
-0.009677917
-0.0007621153
-0.009418822
-0.0007071987
-0.009201246
-0.0006055411
-0.008813699
-0.0009792522
-0.008652479
-0.0004376779
-0.008505382
-0.0003868244
-0.008365273
-0.0003647456
-0.008235435
-0.0003333593
-0.008106805
-0.0003276092
-0.007983907
-0.0003125306
-0.007862386
-0.000305077
-0.007749124
-0.0002804563
-0.007637197
-0.0002713258
-0.007529704
-0.000260407
-0.007421015
-0.0002610772
-0.007317554
-0.0002465114
-0.007214018
-0.0002438033
-0.007113678
-0.0002336548
-0.007016523
-0.00022163
-0.006918739
-0.0002236355
-0.006822168
-0.000221938
-0.006724608
-0.0002242216
-0.006630713
-0.0002131174
-0.006537253
-0.0002067888
-0.006447237
-0.0001963106
-0.006353369
-0.0002046036
-0.006262468
-0.0001990926
-0.006167427
-0.0002089277
-0.006076747
-0.000195649
-0.005985369
-0.0001932209
-0.005892959
-0.0001967392
-0.00579947
-0.0001992537
-0.005704758
-0.0002021951
-0.00561094
-0.0001950675
-0.005515259
-0.0001930525
-0.005541063
9.095734e-05
-0.005455528
-0.0001558951
-0.005376072
-0.0001574861
-0.005293543
-0.0001622303
-0.00521427
-0.0001533678
-0.005131612
-0.0001595566
-0.005050776
-0.0001538023
-0.004968134
-0.000155003
-0.004885754
-0.0001534172
-0.00479937
-0.0001637095
-0.004712568
-0.0001644443
-0.004626324
-0.0001593738
-0.004538687
-0.0001587207
-0.004450576
-0.0001566701
-0.004356888
-0.0001703491
-0.004260085
-0.0001788939
-0.004161611
-0.000179883
-0.004062567
-0.0001778798
-0.003956495
-0.0001924025
-0.003849405
-0.0001923197
-0.00373519
-0.0002069458
-0.003615582
-0.0002186399
-0.003489212
-0.0002308481
-0.003354895
-0.0002480141
-0.003197323
-0.0003080854
-0.003025043
-0.0003484084
-0.002843839
-0.0003677998
-0.002628433
-0.0004433077
-0.00236087
-0.000564889
-0.001985975
-0.0008433246
-0.001315361
-0.001405931
-0.000147539
-0.002964438
0.001079283
-0.00313415
0.001732982
-0.001348654
0.002106377
-0.0008583549
0.002399068
-0.0006364618
0.002633625
-0.0004969523
0.002845432
-0.0004438274
0.003031008
-0.0003728298
0.003185374
-0.0002904861
0.003321803
-0.0002526221
0.003461037
-0.0002677363
0.00359232
-0.0002512422
0.003717752
-0.0002349051
0.003831516
-0.0002060685
0.003940781
-0.0001965703
0.004043631
-0.0001852724
0.004146441
-0.0001890706
0.004245172
-0.0001805501
0.00433869
-0.0001675101
0.004428877
-0.0001624725
0.00451958
-0.0001675617
0.004607253
-0.0001609069
0.004691713
-0.0001548309
0.004778139
-0.0001620295
0.004859179
-0.00015022
0.004942641
-0.0001604676
0.005027087
-0.0001668409
0.005109483
-0.0001581786
0.005187331
-0.0001461661
0.005267064
-0.0001520867
0.005345521
-0.0001540126
0.005429377
-0.0001503349
0.005402652
9.688544e-05
0.005495048
-0.0001845872
0.005588506
-0.0001965372
0.005680492
-0.0001962056
0.005772157
-0.0001967325
0.005864724
-0.0002017337
0.005957143
-0.0001993906
0.006046026
-0.0001898945
0.00613751
-0.0001978748
0.006228904
-0.0002035827
0.006325649
-0.0002176093
0.006417284
-0.000202476
0.006509729
-0.0002016543
0.006602312
-0.0002054587
0.006698078
-0.0002151881
0.006793167
-0.0002154448
0.006892483
-0.0002291009
0.006993701
-0.0002351577
0.007095144
-0.0002362574
0.007200194
-0.000244351
0.007300847
-0.000233237
0.007410548
-0.0002602545
0.007519658
-0.0002632335
0.007633476
-0.0002748934
0.007749218
-0.0002841736
0.00786852
-0.0002936031
0.007992393
-0.0003112097
0.008123962
-0.0003342671
0.008256626
-0.0003389873
0.00839672
-0.0003616712
0.008548663
-0.0003988184
0.008714608
-0.000449787
0.009101948
-0.0009785395
0.009323799
-0.0006162964
0.009585057
-0.0007133944
0.00987435
-0.0007892196
0.01025733
-0.001039499
0.01064237
-0.0009922063
0.01153594
-0.002602799
0.001492694
0.001127245
0.0001791289
-0.004440523
0.001947866
-0.002169275
0.002411799
-0.001322288
0.002769694
-0.0009943563
0.003062691
-0.0007899499
0.003326751
-0.0007078873
0.003557104
-0.0006031833
0.003750879
-0.0004842609
0.003922627
-0.0004243702
0.004096718
-0.0004418273
0.004260465
-0.0004149893
0.004417363
-0.0003918031
0.004560617
-0.0003493221
0.004698047
-0.0003340001
0.004827801
-0.000315027
0.004956672
-0.0003179411
0.005081051
-0.0003049292
0.005198523
-0.0002849824
0.005312269
-0.0002762181
0.005426025
-0.0002813178
0.005536104
-0.0002709859
0.005642159
-0.0002608853
0.005750642
-0.0002705129
0.005852178
-0.0002517564
0.005956595
-0.0002648845
0.006062248
-0.0002724934
0.006164855
-0.000260786
0.006262724
-0.0002440349
0.006362269
-0.0002516312
0.006460228
-0.0002519717
0.006565891
-0.0002559982
0.006539841
0.0001229354
0.006652184
-0.00029693
0.006767878
-0.0003122315
0.006880293
-0.0003086206
0.00699228
-0.0003087198
0.007105366
-0.0003148197
0.007217831
-0.000311855
0.007326164
-0.0002982276
0.00743725
-0.0003089607
0.007548163
-0.000314496
0.007665221
-0.0003346671
0.007776091
-0.0003133461
0.007887841
-0.0003134041
0.007999931
-0.0003175493
0.00811535
-0.0003306073
0.00822987
-0.0003299647
0.008349524
-0.0003487552
0.008471087
-0.0003567206
0.008593
-0.0003581699
0.008719317
-0.0003706682
0.008839794
-0.0003537144
0.008971825
-0.0003922853
0.009102217
-0.0003936252
0.009238079
-0.0004107558
0.009376633
-0.0004227276
0.009518292
-0.000435262
0.009666266
-0.0004591828
0.009822472
-0.0004904737
0.009979801
-0.0004963157
0.01014589
-0.0005277584
0.01032615
-0.0005790834
0.01074257
-0.000866206
0.01098422
-0.001220192
0.01124479
-0.0008768588
0.01155511
-0.001023718
0.01190913
-0.001143237
0.01236543
-0.001495798
0.01290397
-0.001530745
0.01373811
-0.003436944
0.01340445
0.001826355
-0.01379672
0.01324119
0.002503588
-0.01296867
-0.003370006
-0.01245211
-0.001483598
-0.01200912
-0.001459782
-0.01166864
-0.001102596
-0.01135983
-0.001016005
-0.01110381
-0.0008615586
-0.0108644
-0.001218662
-0.0104498
-0.0008522762
-0.01027586
-0.0005607737
-0.01010951
-0.0005310877
-0.009955522
-0.0004873504
-0.009802772
-0.000480359
-0.009656496
-0.0004588066
-0.009511833
-0.00044974
-0.009376332
-0.0004159571
-0.009242687
-0.0004049707
-0.009113881
-0.0003892138
-0.008983582
-0.0003913755
-0.008859279
-0.0003708146
-0.008735021
-0.0003680612
-0.008613914
-0.0003547619
-0.008496986
-0.0003385584
-0.008379032