/*--------------------------------*- C++ -*----------------------------------*\
| =========                 |                                                 |
| \\      /  F ield         | OpenFOAM: The Open Source CFD Toolbox           |
|  \\    /   O peration     | Version:  2406                                  |
|   \\  /    A nd           | Website:  www.openfoam.com                      |
|    \\/     M anipulation  |                                                 |
\*---------------------------------------------------------------------------*/
FoamFile
{
    version     2.0;
    format      ascii;
    arch        "LSB;label=32;scalar=64";
    class       volScalarField;
    location    "0.24";
    object      p;
}
// * * * * * * * * * * * * * * * * * * * * * * * * * * * * * * * * * * * * * //

dimensions      [0 2 -2 0 0 0 0];

internalField   nonuniform List<scalar> 
217010
(
-148.006
-89.98302
-97.90654
-97.91995
-93.53327
-88.75377
-90.12898
-91.06388
-92.30513
-92.91323
-93.23457
-93.69819
-91.57159
-85.03618
-81.24215
-86.30566
-96.09955
-105.8284
-111.5219
-113.5559
-112.2656
-103.6417
-99.4586
-107.4799
-111.6952
-115.9629
-130.3305
-147.6499
-160.6183
-167.512
-168.3852
-163.1892
-152.3138
-137.1674
-118.8956
-98.9826
-80.17165
-63.45842
-51.87227
-44.36294
-39.74157
-35.79579
-32.32194
-29.08872
-25.54851
-21.72155
-18.59197
-16.20538
-15.92952
-13.93682
-21.16572
-12.83188
-20.02292
-23.63311
-27.63133
-31.427
-34.97845
-38.14161
-40.57306
-42.10831
-43.12771
-44.13522
-45.19425
-46.1827
-47.00441
-47.59285
-47.93916
-48.09707
-48.12746
-48.04382
-47.82451
-47.44677
-46.92195
-46.25706
-45.44806
-44.48114
-43.34556
-42.04435
-40.60864
-39.03749
-37.33536
-35.51605
-33.55723
-31.42791
-29.18356
-26.85263
-24.46404
-22.00379
-19.56672
-17.11533
-14.5628
-12.1268
-9.795102
-7.523141
-5.346292
-3.247813
-1.345124
0.310407
1.815816
3.216114
4.436474
5.277269
5.921325
6.239624
6.3442
6.193695
5.81233
5.201418
4.376439
3.353934
2.161554
0.8260291
-0.5864908
-2.064329
-3.557456
-4.998713
-6.401709
-7.765897
-8.988169
-10.08782
-11.07101
-11.9331
-12.67599
-13.31637
-13.85087
-14.26676
-14.57502
-14.81704
-15.01122
-15.16709
-15.29407
-15.52263
-16.05957
-16.71575
-17.00858
-16.92551
-16.8369
-17.05556
-17.84904
-18.88636
-19.93434
-20.65592
-21.16235
-21.60096
-22.12428
-23.13099
-24.19621
-24.58808
-25.87501
-26.22749
-50.48492
-59.40916
-71.84223
-86.50252
-102.1486
-117.9208
-133.323
-147.9772
-160.0646
-168.6162
-172.949
-171.5526
-162.4307
-144.098
-117.2704
-91.60139
-84.1674
-85.83103
-79.44968
-79.30387
-91.56601
-99.40046
-97.68652
-89.46011
-80.9684
-66.67292
-50.81864
-54.26801
-76.15464
-100.236
-121.1796
-136.6482
-145.9568
-149.7305
-147.8314
-139.6871
-130.0381
-123.2651
-121.0888
-116.9254
-111.1079
-108.5285
-108.5872
-109.5917
-108.0933
-107.8334
-109.0304
-111.267
-105.0648
-167.9806
-84.57972
-74.697
-62.11953
-54.79998
-48.47592
-43.25009
-38.73508
-34.6413
-31.07549
-27.83589
-24.88924
-22.19365
-19.65082
-17.24829
-14.99857
-12.91395
-10.96163
-9.083706
-7.288741
-5.573014
-3.931398
-2.373548
-0.8977733
0.5523904
1.970878
3.358096
4.685512
5.94207
7.155672
8.35093
9.532905
10.69327
11.79833
12.87041
13.9349
14.97902
16.01243
17.03214
18.05506
19.03467
20.03069
20.98155
21.92461
22.85288
23.77592
24.68143
25.57049
26.46133
27.36752
28.27043
29.15259
30.0187
30.88201
31.7703
32.67122
33.56014
34.45049
35.351
36.25596
37.17442
38.09307
39.00614
39.96215
41.01163
42.08968
43.13521
44.18218
45.31697
46.67884
48.24291
50.05507
51.40903
49.44437
47.97509
46.81999
45.78665
44.7662
43.71785
42.71446
41.81757
40.97022
40.07477
39.15522
38.25971
37.4087
36.57754
35.74416
34.89904
34.05438
33.23383
32.4206
31.59179
30.7616
29.94109
29.10636
28.27668
27.43027
26.55037
25.6831
24.83487
23.97917
23.09762
22.171
21.27821
20.34575
19.38874
18.42896
17.46193
16.45572
15.4312
14.40399
13.35135
12.24163
11.0796
9.913883
8.751603
7.54339
6.275526
4.966172
3.595701
2.16935
0.7009522
-0.8224705
-2.371379
-4.024695
-5.786917
-7.616923
-9.560976
-11.59794
-13.78999
-16.15928
-18.67416
-21.36854
-24.36717
-27.67935
-31.43688
-35.57257
-40.3231
-46.12607
-52.71183
-63.9569
-71.96725
51.38873
49.70118
48.15475
46.96025
45.91355
44.8877
43.83346
42.81899
41.9104
41.05754
40.16061
39.23781
38.33631
37.47932
36.644
35.80769
34.95983
34.11161
33.28759
32.47154
31.64039
30.80771
29.9848
29.14774
28.3163
27.46811
26.58639
25.71675
24.86615
24.00859
23.12577
22.19674
21.30376
20.36871
19.40984
18.44852
17.48007
16.47219
15.44628
14.41756
13.36357
12.25201
11.08813
9.920863
8.757263
7.547065
6.277518
4.966653
3.594004
2.165127
0.6940873
-0.8321117
-2.382836
-4.040762
-5.807094
-7.640872
-9.590481
-11.63188
-13.83159
-16.20905
-18.73114
-21.43497
-24.44564
-27.77048
-31.5572
-35.71471
-40.50087
-46.34411
-53.06374
-64.25444
-73.72985
-86.55128
-75.06053
-62.51511
-55.04155
-48.67337
-43.40626
-38.86627
-34.73953
-31.15987
-27.90921
-24.95051
-22.24661
-19.69644
-17.28658
-15.02979
-12.93915
-10.98307
-9.101141
-7.302225
-5.583056
-3.938407
-2.377244
-0.8995828
0.5523607
1.972755
3.362017
4.691656
5.949793
7.16499
8.361936
9.545678
10.70782
11.8146
12.88803
13.95432
15.00002
16.03533
17.05714
18.08264
19.06298
20.06128
21.01378
21.95877
22.88917
23.81406
24.72151
25.61279
26.50635
27.41519
28.32031
29.20433
30.07296
30.9398
31.83178
32.73606
33.62808
34.52217
35.42676
36.33626
37.25884
38.1816
39.10159
40.06832
41.12748
42.21063
43.26061
44.31967
45.47912
46.87624
48.5023
50.13238
-47.71742
-58.10944
-70.33076
-84.82446
-100.4635
-116.3063
-131.8164
-146.6627
-159.0291
-167.9201
-172.6706
-171.7933
-163.2072
-145.5101
-118.8862
-92.62443
-84.33123
-85.99805
-79.59881
-79.21193
-91.27188
-99.34097
-97.80488
-89.68539
-81.3375
-67.12361
-50.98211
-54.25479
-76.06611
-100.131
-121.1122
-136.63
-145.9737
-149.8022
-147.9453
-139.7535
-130.0224
-123.2123
-121.0617
-116.8914
-111.0717
-108.5124
-108.5963
-109.5901
-108.0783
-107.863
-109.1035
-111.2911
-106.6962
-156.197
-20.78075
-12.79798
-19.36268
-23.09764
-27.15094
-30.99575
-34.60326
-37.84032
-40.37205
-41.99205
-43.04423
-44.05628
-45.11927
-46.11688
-46.95693
-47.56345
-47.92841
-48.09568
-48.1337
-48.05752
-47.84651
-47.47635
-46.95789
-46.29873
-45.49528
-44.53366
-43.40296
-42.10543
-40.67215
-39.10266
-37.40216
-35.58445
-33.62719
-31.49045
-29.24543
-26.91111
-24.52072
-22.05483
-19.61146
-17.1589
-14.59931
-12.15655
-9.821028
-7.544003
-5.363239
-3.260358
-1.352929
0.305389
1.812803
3.214588
4.436745
5.277965
5.921915
6.240002
6.343786
6.191624
5.808036
5.194045
4.365459
3.338726
2.141713
0.8014248
-0.6150941
-2.09775
-3.594347
-5.036365
-6.44132
-7.809764
-9.028006
-10.12528
-11.10595
-11.96506
-12.70492
-13.34225
-13.8726
-14.28336
-14.58727
-14.82633
-15.01856
-15.17446
-15.30622
-15.54833
-16.09875
-16.74506
-17.01436
-16.92057
-16.84381
-17.09766
-17.94079
-18.98692
-20.02026
-20.7223
-21.21224
-21.65372
-22.2218
-23.25168
-24.27231
-24.66544
-25.93492
-27.0209
-137.1683
-91.44796
-98.03104
-98.04706
-93.72956
-88.80223
-90.10144
-91.04395
-92.28795
-92.91317
-93.23962
-93.7293
-91.61891
-85.08656
-81.29114
-86.34334
-96.15952
-105.9906
-111.7105
-113.6275
-112.2682
-103.6437
-99.54344
-107.6402
-111.8002
-116.1982
-130.807
-148.1672
-160.9591
-167.6461
-168.2651
-162.7905
-151.6789
-136.3343
-117.9282
-97.97396
-79.2147
-62.68553
-51.35063
-44.02312
-39.47173
-35.53702
-32.06462
-28.80875
-25.24502
-21.37978
-18.29759
-16.03895
-15.79933
-14.09986
-125.6385
-92.12858
-98.0877
-98.12544
-94.05746
-88.87583
-90.07872
-91.03479
-92.29942
-92.92274
-93.25013
-93.78329
-91.7209
-85.18076
-81.41924
-86.46151
-96.2795
-106.3384
-112.3131
-113.9067
-112.2697
-103.6266
-99.72824
-107.8843
-111.9317
-116.7556
-131.9327
-149.1454
-161.5609
-167.9791
-168.5587
-162.9811
-151.6646
-136.1383
-117.6047
-97.51226
-78.73548
-62.24915
-51.06049
-43.8319
-39.31646
-35.37015
-31.91404
-28.68489
-25.15549
-21.24319
-18.08548
-15.85998
-15.68026
-14.12912
-20.94934
-12.93243
-19.08625
-22.94547
-26.98715
-30.86647
-34.48239
-37.74926
-40.28646
-41.9255
-42.98064
-43.99484
-45.06401
-46.07766
-46.92289
-47.53771
-47.90976
-48.08388
-48.12703
-48.05475
-47.84847
-47.48157
-46.96624
-46.3112
-45.51212
-44.55354
-43.42426
-42.12357
-40.68819
-39.11914
-37.4165
-35.59928
-33.63733
-31.51873
-29.26689
-26.93123
-24.54222
-22.0766
-19.63033
-17.18162
-14.61925
-12.17248
-9.836865
-7.557228
-5.375571
-3.270762
-1.359287
0.3005454
1.808601
3.210868
4.435954
5.276979
5.920909
6.238983
6.342364
6.188549
5.803602
5.187449
4.356759
3.32774
2.128503
0.7861182
-0.6308965
-2.114976
-3.610461
-5.051077
-6.460719
-7.820623
-9.043565
-10.14381
-11.12446
-11.98274
-12.72195
-13.35957
-13.88837
-14.29545
-14.59702
-14.83611
-15.02641
-15.17837
-15.3071
-15.55314
-16.11906
-16.77064
-17.02208
-16.91632
-16.84679
-17.11925
-17.96116
-19.02505
-20.05987
-20.73734
-21.2359
-21.68354
-22.24012
-23.31321
-24.3428
-24.7438
-26.02505
-27.46879
-46.11424
-57.39919
-69.6606
-84.09777
-99.7827
-115.7378
-131.3626
-146.4233
-158.998
-168.1195
-173.0921
-172.4032
-164.218
-147.3244
-121.32
-94.12417
-84.52338
-86.24214
-79.94211
-79.20431
-91.11683
-99.4116
-98.08699
-90.10198
-81.89738
-67.63999
-51.32375
-54.37751
-76.13479
-100.1957
-121.2038
-136.7488
-146.0945
-149.9677
-148.1894
-140.0229
-130.2717
-123.281
-121.0734
-116.9065
-111.0531
-108.5045
-108.6057
-109.5963
-108.0798
-107.862
-109.0553
-111.3241
-107.2981
-143.4293
-86.50913
-75.30666
-62.69858
-55.1652
-48.76802
-43.47873
-38.92068
-34.79844
-31.19381
-27.94077
-24.97607
-22.26934
-19.71734
-17.30386
-15.04399
-12.94979
-10.99413
-9.110354
-7.309786
-5.589001
-3.943517
-2.379784
-0.9025479
0.5503933
1.971996
3.362663
4.694287
5.952354
7.167469
8.364783
9.549142
10.71305
11.82055
12.89274
13.96003
15.00592
16.04316
17.0657
18.08908
19.07238
20.06766
21.02195
21.96807
22.8983
23.82393
24.73177
25.6228
26.51596
27.42644
28.33333
29.21716
30.08572
30.95149
31.84463
32.75157
33.64377
34.53738
35.44403
36.35359
37.2769
38.20071
39.12128
40.08784
41.15374
42.24149
43.28895
44.35004
45.51299
46.93371
48.59891
50.1356
51.31681
49.80834
48.21666
46.99495
45.94542
44.92153
43.86161
42.84001
41.93095
41.08151
40.1824
39.25747
38.35273
37.4952
36.65963
35.8238
34.97439
34.12406
33.30059
32.48481
31.65216
30.81913
29.9967
29.15772
28.32819
27.47941
26.59444
25.72471
24.87458
24.01712
23.1314
22.20555
21.31044
20.37781
19.41664
18.45483
17.4864
16.4764
15.45028
14.4222
13.36871
12.25535
11.08945
9.921992
8.759368
7.547774
6.277562
4.966319
3.591539
2.161262
0.6888357
-0.8385572
-2.387931
-4.049194
-5.817433
-7.651296
-9.604753
-11.64573
-13.85043
-16.23117
-18.75502
-21.4621
-24.47792
-27.82577
-31.60568
-35.77972
-40.58392
-46.45611
-53.2226
-64.45433
-73.66269
51.19444
49.9597
48.39478
47.13864
46.07645
45.05115
43.98588
42.95696
42.03927
41.18294
40.27964
39.35219
38.44287
37.5796
36.73924
35.89914
35.04651
34.19214
33.36591
32.54593
31.70968
30.87423
30.04925
29.20671
28.37639
27.52469
26.63551
25.7655
24.91294
24.05363
23.1649
22.24355
21.33696
20.4068
19.44169
18.47882
17.50956
16.49567
15.46882
14.44
13.38573
12.26845
11.09944
9.931252
8.769091
7.554037
6.282249
4.969949
3.591286
2.158863
0.6840309
-0.8463765
-2.394267
-4.063041
-5.835622
-7.670756
-9.632536
-11.67422
-13.88954
-16.27843
-18.8076
-21.52269
-24.55667
-27.91391
-31.70787
-35.91062
-40.74914
-46.65298
-53.53406
-64.62941
-73.8647
-86.73363
-75.52897
-63.04772
-55.38021
-48.95505
-43.62248
-39.03474
-34.89302
-31.2773
-28.01036
-25.03237
-22.31897
-19.76058
-17.33892
-15.07217
-12.97004
-11.01313
-9.124626
-7.320134
-5.595741
-3.948185
-2.379429
-0.9028916
0.5521561
1.976193
3.369414
4.705171
5.964362
7.180399
8.37865
9.564567
10.732
11.84245
12.91386
13.98375
15.0308
16.07199
17.09689
18.11756
19.11485
20.10498
21.06107
22.00989
22.94269
23.87007
24.7811
25.67474
26.57076
27.48381
28.39394
29.28028
30.15245
31.02205
31.91809
32.82999
33.72593
34.62392
35.53484
36.4496
37.37697
38.30648
39.23556
40.21064
41.28322
42.37681
43.42876
44.50131
45.68277
47.12532
48.76595
50.11537
-43.30699
-55.90364
-68.2821
-82.53262
-98.16623
-114.17
-129.8857
-145.1409
-157.9305
-167.3266
-172.6347
-172.617
-165.2207
-149.3545
-124.5969
-96.8539
-85.2299
-86.72017
-80.51655
-79.15814
-90.75286
-99.37238
-98.50505
-90.86752
-82.76612
-68.49981
-51.94651
-54.70446
-76.42068
-100.4354
-121.4264
-136.9805
-146.3048
-150.2228
-148.5583
-140.4441
-130.8233
-123.5156
-120.9708
-116.7598
-110.9696
-108.4895
-108.6228
-109.6076
-108.0758
-107.8677
-109.0311
-111.269
-108.8846
-134.4683
-20.24976
-12.56459
-18.49618
-22.48559
-26.5416
-30.39032
-34.06481
-37.40589
-40.10991
-41.84277
-42.92125
-43.93351
-45.00193
-46.02491
-46.88885
-47.52118
-47.90969
-48.09742
-48.15015
-48.08377
-47.88469
-47.52332
-47.01245
-46.3626
-45.56978
-44.61742
-43.49587
-42.20286
-40.77455
-39.21188
-37.50995
-35.69214
-33.7261
-31.59018
-29.34025
-26.99666
-24.60596
-22.1333
-19.67629
-17.23179
-14.65904
-12.20291
-9.866175
-7.580572
-5.39658
-3.287614
-1.368435
0.2935028
1.802092
3.204348
4.433896
5.273946
5.917859
6.236053
6.339391
6.18346
5.796955
5.177695
4.343458
3.309969
2.106234
0.7585506
-0.6616672
-2.15202
-3.651929
-5.093387
-6.506464
-7.87785
-9.099191
-10.19088
-11.16612
-12.02076
-12.75772
-13.3947
-13.92043
-14.3217
-14.62005
-14.85961
-15.0459
-15.19193
-15.32002
-15.57959
-16.15755
-16.80485
-17.02914
-16.90815
-16.84775
-17.15332
-18.04921
-19.12854
-20.15622
-20.8197
-21.29435
-21.72958
-22.33208
-23.41936
-24.41576
-24.8244
-26.1092
-27.95475
-117.4781
-93.66617
-97.71369
-97.92485
-94.48647
-88.98589
-90.04176
-91.02309
-92.29133
-92.94912
-93.29283
-93.89975
-91.91865
-85.35827
-81.64743
-86.63882
-96.45922
-106.8342
-113.293
-114.3818
-111.8807
-103.3071
-99.84828
-108.2024
-112.2398
-118.0614
-133.729
-150.3439
-162.217
-168.2471
-168.3445
-162.6254
-151.159
-135.469
-116.8691
-96.6823
-77.98347
-61.65312
-50.71327
-43.63017
-39.14661
-35.1727
-31.72596
-28.48542
-24.91039
-21.00836
-17.77954
-15.59727
-15.44719
-13.85615
-111.7971
-95.13536
-97.05781
-97.514
-95.01134
-89.12291
-89.98981
-91.00728
-92.26627
-92.99773
-93.39102
-94.11076
-92.26316
-85.66575
-82.05247
-86.90567
-96.75697
-107.4592
-114.5185
-114.9005
-110.9732
-102.5007
-99.67989
-108.4145
-112.9673
-120.395
-136.1442
-151.897
-163.2339
-168.9153
-168.9739
-162.8273
-150.9971
-135.0339
-116.3113
-95.93501
-77.35206
-61.12555
-50.43001
-43.49552
-39.00783
-34.98116
-31.54199
-28.27614
-24.66038
-20.69059
-17.37548
-15.28841
-15.15544
-13.07553
-18.723
-12.38356
-17.81433
-21.99635
-26.13419
-30.09828
-33.78113
-37.17614
-39.92203
-41.74157
-42.8455
-43.85401
-44.9216
-45.95365
-46.83499
-47.48477
-47.89321
-48.09766
-48.16068
-48.09814
-47.9058
-47.5492
-47.0427
-46.39861
-45.61266
-44.66484
-43.54593
-42.24016
-40.79599
-39.23174
-37.5411
-35.73398
-33.77802
-31.65486
-29.39874
-27.05089
-24.66529
-22.18924
-19.71806
-17.28974
-14.70475
-12.23508
-9.902063
-7.609073
-5.423496
-3.309272
-1.379286
0.2828951
1.792303
3.193288
4.429158
5.267584
5.911314
6.230226
6.333733
6.175159
5.786838
5.164423
4.326715
3.288089
2.078596
0.7257068
-0.6960938
-2.193299
-3.692973
-5.130862
-6.552587
-7.918946
-9.12719
-10.21979
-11.20648
-12.0584
-12.79395
-13.43204
-13.95555
-14.35118
-14.64799
-14.89233
-15.07879
-15.22334
-15.35084
-15.61767
-16.2078
-16.84822
-17.04183
-16.89993
-16.8472
-17.17531
-18.13584
-19.23865
-20.24269
-20.87573
-21.33654
-21.76712
-22.41195
-23.54393
-24.51887
-24.91339
-26.1928
-28.31314
-41.11586
-54.22398
-66.88441
-81.07215
-96.73886
-112.8868
-128.7152
-144.304
-157.4406
-167.2967
-173.2504
-173.7794
-166.7699
-151.909
-128.8253
-101.4714
-87.05871
-87.50584
-81.12265
-78.91827
-90.01897
-99.09298
-98.97831
-92.02976
-84.00279
-69.81808
-53.01607
-55.43963
-77.13543
-101.0083
-121.9079
-137.4444
-146.7056
-150.6898
-149.1494
-141.0077
-131.5782
-123.8345
-120.6667
-116.2938
-110.7742
-108.4393
-108.6311
-109.6217
-108.0653
-107.8788
-109.0131
-111.1337
-110.4849
-128.4357
-86.91837
-75.62914
-63.3499
-55.57309
-49.12942
-43.75608
-39.14507
-34.98877
-31.34517
-28.07405
-25.08368
-22.3658
-19.80399
-17.37518
-15.10103
-12.98879
-11.03445
-9.142557
-7.334759
-5.606674
-3.957366
-2.381693
-0.9083914
0.5484671
1.974067
3.369285
4.710526
5.969433
7.184107
8.383208
9.570906
10.74274
11.85507
12.92309
13.99614
15.0433
16.08827
17.11298
18.12986
19.12731
20.12254
21.07953
22.03014
22.96273
23.89153
24.80432
25.69811
26.59329
27.50906
28.42302
29.30939
30.18235
31.05126
31.94996
32.86785
33.76411
34.66168
35.57806
36.49475
37.42437
38.35688
39.29003
40.26863
41.35718
42.46088
43.50716
44.58754
45.79002
47.26647
48.88136
50.04975
51.00633
50.05602
48.53696
47.24155
46.16025
45.13901
44.06413
43.01929
42.09551
41.24319
40.33501
39.40342
38.48572
37.61966
36.77778
35.93776
35.08176
34.22245
33.39721
32.57718
31.73771
30.90113
30.07683
29.2293
28.40307
27.54974
26.65388
25.78387
24.93066
24.07186
23.18046
22.25523
21.35023
20.42363
19.45396
18.49076
17.52164
16.50334
15.47741
14.45002
13.39629
12.2738
11.10068
9.933788
8.774272
7.554637
6.282027
4.970024
3.586201
2.151578
0.6745688
-0.8584306
-2.400639
-4.080261
-5.857437
-7.691919
-9.662933
-11.70023
-13.92892
-16.32518
-18.8556
-21.5747
-24.62424
-28.00489
-31.80477
-36.03191
-40.90154
-46.83504
-53.80326
-64.69559
-73.9869
50.73578
50.09037
48.69301
47.39055
46.28829
45.27229
44.19266
43.14164
42.21611
41.36429
40.44779
39.5164
38.59176
37.71982
36.87233
36.03108
35.17066
34.30264
33.4755
32.65145
31.80637
30.96759
30.14273
29.28712
28.46506
27.60902
26.70377
25.83522
24.97954
24.11911
23.22085
22.30827
21.39042
20.46312
19.48814
18.52517
17.55355
16.52474
15.49805
14.4727
13.42322
12.29313
11.10962
9.942784
8.790427
7.563484
6.288477
4.978821
3.587693
2.148603
0.6652839
-0.873018
-2.40099
-4.094924
-5.877301
-7.713944
-9.700115
-11.72598
-13.97579
-16.38325
-18.91805
-21.63671
-24.70668
-28.11565
-31.92278
-36.17599
-41.08216
-47.03692
-54.07665
-64.68536
-74.11636
-87.14334
-75.63663
-63.64893
-55.77305
-49.34034
-43.91977
-39.2798
-35.10203
-31.42916
-28.15859
-25.14699
-22.42181
-19.85888
-17.41728
-15.1297
-13.00491
-11.06125
-9.164179
-7.349749
-5.613891
-3.961826
-2.377093
-0.9099988
0.5503664
1.977731
3.379285
4.730249
5.985567
7.19991
8.40438
9.594007
10.76867
11.88432
12.94832
14.02716
15.07366
16.12402
17.14942
18.1705
19.18807
20.17176
21.1282
22.083
23.01843
23.95119
24.86732
25.76111
26.65912
27.58233
28.50366
29.3894
30.26548
31.13609
32.03837
32.96577
33.86423
34.76652
35.69062
36.60878
37.54099
38.48068
39.42342
40.40376
41.50016
42.61071
43.64937
44.74361
45.96121
47.42545
48.95533
49.93042
-38.51586
-52.05488
-65.11912
-79.22771
-94.93222
-111.3097
-127.2422
-143.1383
-156.5477
-166.8155
-173.2145
-174.2234
-168.4188
-154.8472
-133.7309
-107.6773
-90.80271
-88.68323
-81.53005
-78.11261
-88.54316
-98.15047
-99.37876
-93.5233
-85.65429
-71.65748
-54.66669
-56.82489
-78.55535
-102.084
-122.7613
-138.2354
-147.374
-151.4288
-150.0397
-141.7625
-132.5548
-124.1506
-120.1925
-115.6009
-110.4174
-108.3405
-108.6808
-109.6637
-108.0789
-107.8755
-109.0348
-110.8538
-111.3434
-122.6939
-16.30727
-12.0951
-17.04044
-21.38931
-25.59264
-29.53391
-33.27983
-36.80683
-39.69613
-41.63823
-42.78195
-43.80234
-44.87587
-45.90965
-46.80091
-47.46331
-47.89009
-48.11245
-48.1904
-48.13514
-47.955
-47.60664
-47.10638
-46.46977
-45.69415
-44.75456
-43.64851
-42.36718
-40.9475
-39.38691
-37.66594
-35.84377
-33.88596
-31.75508
-29.49617
-27.1323
-24.74957
-22.26452
-19.77359
-17.37385
-14.75994
-12.27264
-9.94988
-7.642747
-5.455033
-3.333326
-1.391266
0.2667427
1.777827
3.174671
4.420546
5.256809
5.899077
6.220425
6.324025
6.16237
5.772917
5.145996
4.305782
3.261159
2.042313
0.6811976
-0.7398844
-2.251445
-3.752531
-5.181386
-6.616465
-7.993023
-9.199606
-10.30129
-11.27022
-12.11445
-12.84726
-13.48605
-14.00476
-14.39109
-14.68502
-14.93599
-15.12457
-15.27546
-15.40901
-15.68354
-16.27601
-16.89264
-17.04573
-16.88633
-16.83435
-17.22675
-18.25505
-19.38248
-20.38799
-20.96717
-21.40106
-21.83092
-22.52243
-23.6883
-24.62577
-24.97991
-26.22342
-28.46608
-106.3568
-95.84279
-96.26389
-97.36428
-95.89765
-89.35006
-89.91572
-90.96975
-92.17485
-93.06838
-93.58556
-94.46207
-92.83586
-86.264
-82.84139
-87.4299
-97.26929
-108.2668
-115.998
-115.4441
-109.7778
-101.3822
-99.20438
-108.5231
-114.5437
-123.6007
-139.0875
-153.7891
-164.4655
-169.6084
-169.1713
-162.953
-150.8247
-134.5786
-115.757
-95.18933
-76.72526
-60.6266
-50.24029
-43.44018
-38.88295
-34.77132
-31.36178
-28.06022
-24.3724
-20.305
-16.94689
-14.96093
-14.77679
-12.00049
-100.6474
-95.5312
-95.54651
-97.3708
-96.34312
-89.79818
-89.74787
-90.87879
-91.9799
-93.18198
-93.94155
-94.98681
-93.78956
-87.48319
-84.44805
-88.44937
-98.06671
-109.1851
-117.7836
-116.1939
-108.6855
-100.1229
-98.72089
-108.9888
-117.2252
-127.6063
-142.6327
-156.2433
-166.2586
-170.8411
-169.9321
-163.3485
-150.8657
-134.1531
-115.2593
-94.63538
-75.75207
-59.9239
-50.14061
-43.40842
-38.71661
-34.44145
-31.08375
-27.73003
-23.96717
-19.80178
-16.43804
-14.57044
-14.3662
-10.99174
-13.32981
-11.69244
-16.13179
-20.68254
-25.03065
-29.0684
-32.88819
-36.4425
-39.41748
-41.51644
-42.7309
-43.77853
-44.8506
-45.86872
-46.76866
-47.44412
-47.89019
-48.12818
-48.22186
-48.17009
-48.00357
-47.66242
-47.16558
-46.53347
-45.76946
-44.83611
-43.7393
-42.41364
-40.9656
-39.42164
-37.7387
-35.94948
-33.99693
-31.85495
-29.5987
-27.21669
-24.84278
-22.35447
-19.85325
-17.47005
-14.81982
-12.32854
-10.00736
-7.688278
-5.501946
-3.376501
-1.422521
0.253173
1.756083
3.145214
4.410487
5.240917
5.879808
6.203861
6.310157
6.143984
5.758706
5.115826
4.272042
3.219652
1.99958
0.6170586
-0.7951845
-2.320118
-3.835978
-5.250048
-6.683634
-8.074294
-9.261902
-10.36136
-11.32992
-12.17377
-12.90518
-13.54926
-14.06457
-14.44021
-14.73093
-14.99176
-15.18093
-15.34416
-15.4946
-15.78651
-16.36029
-16.92412
-17.02828
-16.87361
-16.84176
-17.30363
-18.4053
-19.55284
-20.53315
-21.09121
-21.48372
-21.89898
-22.67056
-23.84356
-24.7272
-24.98432
-26.20525
-28.36295
-36.25203
-49.38865
-62.89077
-76.87264
-92.53223
-109.0994
-125.4775
-141.922
-155.6728
-166.5612
-173.757
-176.0389
-170.7972
-158.6517
-139.3557
-115.0061
-96.6795
-90.67637
-81.77246
-76.58896
-86.27157
-96.45115
-99.71318
-95.30706
-87.61518
-73.868
-56.94698
-59.10907
-80.89933
-103.8554
-124.0556
-139.3325
-148.3453
-152.5425
-151.2659
-142.6336
-133.8095
-124.4712
-119.6719
-114.7569
-109.9504
-108.2541
-108.7306
-109.7863
-108.1441
-108.0312
-109.1561
-110.5659
-111.204
-116.5772
-87.21064
-75.46499
-63.89768
-55.94842
-49.58789
-44.08735
-39.40192
-35.21507
-31.53215
-28.25724
-25.19963
-22.48272
-19.92613
-17.45619
-15.15874
-13.03524
-11.10695
-9.186385
-7.361931
-5.614827
-3.969027
-2.380281
-0.9162293
0.5456454
1.974766
3.39288
4.739992
5.988196
7.211712
8.416817
9.593878
10.77135
11.90619
12.96123
14.04619
15.08955
16.14899
17.17787
18.20076
19.2033
20.19198
21.15301
22.1167
23.05347
23.98496
24.89925
25.79944
26.70295
27.62488
28.54342
29.42826
30.31307
31.18476
32.08943
33.02547
33.92929
34.83097
35.75547
36.67709
37.62068
38.56846
39.52161
40.49564
41.60776
42.74447
43.78229
44.90486
46.12642
47.55318
48.97549
49.741
50.36768
50.02125
48.82272
47.55332
46.42818
45.40765
44.30365
43.23701
42.3096
41.46291
40.52226
39.58865
38.6586
37.79078
36.93329
36.08846
35.22742
34.35706
33.53509
32.70459
31.85151
31.01243
30.18775
29.32079
28.50817
27.64041
26.72651
25.86234
25.00831
24.15347
23.24371
22.31047
21.40878
20.47711
19.49704
18.5471
17.58177
16.54109
15.51239
14.48013
13.43726
12.30998
11.11745
9.93842
8.796566
7.567858
6.284947
4.977828
3.585902
2.147554
0.6553277
-0.9049711
-2.414054
-4.125049
-5.895595
-7.735444
-9.752518
-11.75048
-14.02985
-16.43569
-18.98993
-21.70917
-24.79285
-28.22414
-32.03887
-36.32021
-41.26602
-47.22781
-54.2997
-64.4963
-74.02061
49.93294
49.82041
48.88601
47.7321
46.63768
45.65226
44.5005
43.39401
42.48601
41.6809
40.73385
39.76298
38.78688
37.92951
37.0929
36.22779
35.32946
34.43993
33.64534
32.81364
31.94139
31.10877
30.29107
29.38996
28.64235
27.73313
26.78884
25.93991
25.05531
24.22975
23.30683
22.40539
21.51527
20.54697
19.51218
18.56734
17.61215
16.57418
15.57008
14.5276
13.43953
12.3138
11.16284
9.971821
8.799537
7.59101
6.308082
4.957988
3.56918
2.149221
0.6899684
-0.8909703
-2.41996
-4.198426
-5.929856
-7.734765
-9.833699
-11.78189
-14.14215
-16.47946
-19.04526
-21.86037
-24.95809
-28.40149
-32.22074
-36.53879
-41.55484
-47.5357
-54.64565
-64.23775
-73.80563
-87.00937
-75.28786
-64.32785
-56.25883
-49.99886
-44.23974
-39.57748
-35.42907
-31.72941
-28.34442
-25.23812
-22.59681
-20.01187
-17.48943
-15.2323
-13.10803
-11.12001
-9.16414
-7.369731
-5.621926
-4.012519
-2.405371
-0.8947436
0.5216669
1.989248
3.416458
4.712538
6.020439
7.254811
8.423422
9.58918
10.83177
12.00502
12.99286
14.0956
15.13327
16.21313
17.23815
18.25163
19.24688
20.26973
21.24711
22.20231
23.13389
24.05115
24.9948
25.9151
26.79093
27.69229
28.65465
29.57334
30.44552
31.3143
32.2018
33.17019
34.09672
34.95041
35.91689
36.87214
37.79786
38.74203
39.70256
40.66486
41.82534
43.02258
44.00319
45.10412
46.26802
47.63406
48.93631
49.4682
-33.7908
-46.24101
-60.02869
-74.10239
-89.30885
-105.4296
-122.8532
-140.5761
-154.482
-166.1647
-174.2127
-177.3555
-173.5149
-163.0942
-146.1804
-123.9189
-104.6623
-95.15604
-82.29521
-75.13058
-83.28031
-94.60115
-100.3213
-97.42648
-89.77163
-77.09976
-60.17883
-62.83717
-84.3561
-106.8571
-126.0542
-140.7739
-149.6263
-154.4461
-153.433
-143.8444
-135.3449
-124.7312
-119.1491
-113.7879
-109.3072
-108.1681
-108.8814
-109.5275
-107.8791
-108.6053
-109.2653
-109.9606
-109.9371
-110.6801
-9.802855
-10.77133
-15.07137
-19.78068
-24.26196
-28.32025
-32.10591
-35.73758
-38.95132
-41.29419
-42.66626
-43.76004
-44.83219
-45.83446
-46.72957
-47.41559
-47.89872
-48.15653
-48.27333
-48.22587
-48.08272
-47.75599
-47.26823
-46.64773
-45.90946
-44.98271
-43.91418
-42.62585
-41.17217
-39.65496
-37.95401
-36.11325
-34.13415
-32.02594
-29.78279
-27.39654
-24.99176
-22.55239
-19.99375
-17.53345
-14.97835
-12.46143
-10.07601
-7.775527
-5.594056
-3.4853
-1.515545
0.2456968
1.723134
3.106415
4.400741
5.21471
5.856215
6.176168
6.294452
6.114002
5.730021
5.066561
4.206224
3.150028
1.952191
0.5323692
-0.8809728
-2.374577
-3.928867
-5.401553
-6.813225
-8.185919
-9.373494
-10.4708
-11.44583
-12.27741
-12.99894
-13.6412
-14.14326
-14.51001
-14.79586
-15.07139
-15.2534
-15.43185
-15.60155
-15.921
-16.45405
-16.9308
-16.97758
-16.86296
-16.86865
-17.43466
-18.66323
-19.83863
-20.78761
-21.2665
-21.60978
-22.02823
-22.8759
-24.00688
-24.74948
-24.87245
-25.97795
-27.86305
-95.35444
-93.88607
-95.22991
-98.11583
-98.97484
-89.87798
-89.29201
-90.71784
-91.66984
-93.31437
-94.40276
-95.62139
-95.44219
-89.8121
-87.14216
-89.97577
-99.40919
-110.1672
-119.6601
-117.1191
-108.2435
-100.2239
-98.55388
-111.0433
-121.3763
-132.4256
-146.8774
-159.4983
-168.6993
-172.4019
-171.0136
-164.1617
-151.358
-133.6078
-115.2157
-94.25235
-74.72442
-59.01749
-50.04183
-43.25856
-38.41766
-34.00698
-30.60849
-27.13939
-23.27116
-19.21979
-15.96142
-14.10587
-13.7892
-10.12461
-0.02396622
-0.00953593
-1.551677
1.776296
0.3437945
-0.1885906
0.02291801
1.750109
-0.677484
0.06721483
0.7151291
0.3936156
-0.008588737
1.763209
0.0279274
2.346196
4.275497
-5.558315
0.9517254
4.400997
-0.08369876
0.8519963
0.03744191
0.8940036
-0.04443273
2.074028
0.7600209
0.6163902
1.459992
-0.3579689
-2.899885
-0.5519844
-3.278344
0.01591603
1.576457
0.09551658
0.04777526
2.83362
0.02749746
2.07372
2.682643
0.008975235
0.6059038
0.3344753
0.1171102
3.887311
0.003690508
-0.01878654
-0.007285806
2.878676
-1.518192
-0.03293171
-0.9691453
-0.07063336
1.827143
0.06778445
-2.311405
-3.333119
-6.47935
-0.01927087
0.07591488
0.2491182
-0.1267817
0.3267092
3.22373
-0.01742206
-0.1170714
1.121104
9.492353
-0.1620555
0.5377884
0.1164155
1.838302
0.6962756
0.3524724
0.1383338
0.08852874
-0.4462455
0.00151548
0.1158667
0.2026776
-1.186508
0.1365983
-0.1346085
0.1032094
-0.001227594
5.082678
0.03992157
-0.3610925
-0.8041756
3.481759
3.887374
2.360928
0.7188083
0.2295575
-0.8462348
2.537413
1.271965
-69.10745
0.2018172
-0.1803285
6.015637
3.011003
0.1127928
-1.164662
1.747409
0.189115
2.023254
0.1742187
1.820957
0.05249229
20.80648
0.02707179
-0.1295832
-0.965307
0.01070504
-0.1465883
-29.61083
-1.278196
0.2299059
-0.564961
-0.2689479
-0.3246107
0.02892783
1.410723
0.06946104
0.01008425
0.04562672
1.140379
0.09651308
8.121145
4.037693
1.728354
0.05502804
0.02786805
0.03705089
-2.003218
-11.63704
-3.808863
2.707964
1.760686
3.141865
2.005328
-4.698739
0.01430256
0.2121078
1.3777
-0.4696805
-0.008375504
3.752164
0.5931174
0.049775
-0.350789
1.671363
4.248989
1.518645
-0.008818199
0.02737058
-0.005375866
-0.8532312
0.6228927
1.762548
-1.544816
0.03291247
3.978089
0.04269411
-0.1796441
3.113915
-0.01732187
0.7518347
0.07445227
0.1420644
0.03028044
-1.095345
-0.413736
-0.005456572
-0.481139
-0.1476853
-0.1608666
1.508355
-0.1390136
2.298785
-3.438887
0.02808399
-0.6727787
-1.530995
2.479014
2.207131
4.193394
0.05801445
-2.679427
0.05447631
-0.9733885
0.04074836
3.825011
-0.5825263
-0.09561374
0.2642122
-2.989604
-0.603061
3.163471
-0.3121319
-0.666017
4.71426
-0.3425321
-0.1066122
0.004746265
-1.679286
-5.860958
-0.05973282
0.01490927
0.5251873
0.0251753
2.020718
-0.002140869
0.04822895
-0.3470871
-0.2227656
0.9496283
0.6218222
-2.36708
-2.63482
1.449775
0.0759779
15.64574
1.142372
0.2605574
0.07263244
-1.369041
-3.823636
-0.02914507
-0.516767
-0.5156564
1.96479
0.7557207
2.41902
1.222339
0.8573905
1.992621
0.02940179
-1.079713
0.1272109
-0.00334375
-0.006357364
0.09806748
0.5234057
-0.3256771
-0.8978997
-2.263032
0.896128
0.9191382
-155.2912
4.220639
-0.9613681
0.006274023
0.8654791
0.004986562
0.8926186
-0.1085953
-1.143871
1.254658
0.2116936
0.3744216
0.3597577
2.122142
-0.254657
0.05816744
0.4121906
1.542756
0.07073978
-0.1171498
0.03399799
-0.2497932
0.00552609
3.942242
2.977753
1.995459
0.04461134
0.9249779
0.06120136
-0.5507661
-16.58607