/*--------------------------------*- C++ -*----------------------------------*\
| =========                 |                                                 |
| \\      /  F ield         | OpenFOAM: The Open Source CFD Toolbox           |
|  \\    /   O peration     | Version:  2406                                  |
|   \\  /    A nd           | Website:  www.openfoam.com                      |
|    \\/     M anipulation  |                                                 |
\*---------------------------------------------------------------------------*/
FoamFile
{
    version     2.0;
    format      ascii;
    arch        "LSB;label=32;scalar=64";
    class       surfaceScalarField;
    location    "0.24";
    object      phi;
}
// * * * * * * * * * * * * * * * * * * * * * * * * * * * * * * * * * * * * * //

dimensions      [0 3 -1 0 0 0 0];

oriented        oriented;

internalField   nonuniform List<scalar> 
326221
(
-0.002346427
-0.005561542
0.007907969
-0.001503164
-0.0008432631
0.0009353099
-0.002438474
0.0002796234
0.0006556865
-0.000850619
0.001130242
-0.0003782919
-0.000472327
-5.596039e-05
-0.0003223316
5.462212e-05
-0.0001105825
4.625175e-05
8.370368e-06
-0.0003287155
0.0003749673
-0.0005307964
0.0002020809
-0.0003760749
-0.0001547215
-2.725948e-05
-0.0003488154
0.0006765823
-0.0007038418
0.002009025
-0.001332443
0.003119431
-0.001110406
0.003723269
-0.0006038378
0.002779861
0.0009434081
0.0006750758
0.002104785
-0.0007644725
0.001439548
-0.0008551591
9.068658e-05
0.0002627984
-0.001117957
0.001679513
-0.001416714
0.002126337
-0.0004468246
0.001919055
0.000207282
0.0005277663
0.001391289
-0.001720376
0.002248142
-0.003731055
0.002010679
-0.004912837
0.001181782
-0.005498745
0.0005859079
-0.005716157
0.0002174125
-0.005651655
-6.450253e-05
-0.005340018
-0.0003116366
-0.004846304
-0.0004937145
-0.004200815
-0.0006454886
-0.003366611
-0.0008342035
-0.002471967
-0.0008946448
-0.001413679
-0.001058288
-0.0003536829
-0.001059996
0.0005579486
-0.0009116315
0.001199409
-0.0006414608
0.001721849
-0.0005224393
0.002178705
-0.0004568566
0.00232089
-0.0001421846
0.001720169
0.000600721
0.0005311611
0.001189008
-0.0003116673
0.0008428284
-0.0003289224
1.725516e-05
0.000208253
-0.0005371754
0.000816334
-0.0006080811
0.000485696
0.000330638
0.001027747
-0.0005420507
0.0004901372
0.0005376095
9.39115e-05
0.0003962257
-0.0001983992
0.0002923107
-0.0003187505
0.0001203513
-0.0003302253
1.147481e-05
-0.0003391013
8.875988e-06
-0.0004134353
7.433404e-05
-0.0005379435
0.0001245082
-0.0006491702
0.0001112268
-0.0007356207
8.645045e-05
-0.0007996357
6.4015e-05
-0.0008383552
3.871953e-05
-0.0008571393
1.878409e-05
-0.0008719688
1.482947e-05
-0.0009002533
2.828451e-05
-0.0009423121
4.205876e-05
-0.0009960312
5.371918e-05
-0.001062001
6.596935e-05
-0.001140845
7.88441e-05
-0.001227993
8.714782e-05
-0.0013261
9.810711e-05
-0.001432022
0.0001059227
-0.001536419
0.0001043969
-0.001629885
9.346562e-05
-0.001709036
7.915121e-05
-0.001774371
6.533463e-05
-0.001833828
5.945695e-05
-0.001887666
5.383795e-05
-0.001930058
4.239214e-05
-0.001959532
2.947459e-05
-0.001970182
1.064959e-05
-0.001923055
-4.712728e-05
-0.001909455
-1.359917e-05
-0.001884579
-2.487596e-05
-0.001851886
-3.269335e-05
-0.001800697
-5.11888e-05
-0.001739827
-6.08704e-05
-0.001675612
-6.421517e-05
-0.001579442
-9.616996e-05
-0.001483382
-9.605971e-05
-0.001390195
-9.318743e-05
-0.001281741
-0.0001084539
-0.001166963
-0.0001147776
-0.001032613
-0.0001343498
-0.0008910475
-0.0001415658
-0.0007672971
-0.0001237504
-0.0006420181
-0.000125279
-0.0004965533
-0.0001454648
-0.0003112819
-0.0001852714
-0.0001508153
-0.0001604667
2.622937e-05
-0.0001770446
0.0001829136
-0.0001566843
0.0003373892
-0.0001544755
0.0004837209
-0.0001463317
0.0006271455
-0.0001434245
0.0007640938
-0.0001369483
0.0008944825
-0.0001303888
0.001015773
-0.0001212907
0.001126196
-0.0001104225
0.001217189
-9.099374e-05
0.001293472
-7.628245e-05
0.001347206
-5.37341e-05
0.001373463
-2.625743e-05
0.001386719
-1.325555e-05
0.001415735
-2.901616e-05
0.001381076
3.465956e-05
0.001322875
5.820066e-05
0.00124391
7.896468e-05
0.001147558
9.635212e-05
0.00103859
0.0001089686
0.000920942
0.0001176475
0.0007915127
0.0001294293
0.0006528862
0.0001386265
0.0005219979
0.0001308883
0.0004152644
0.0001067335
0.0003313421
8.39223e-05
0.0002747282
5.661388e-05
0.0002519191
2.28091e-05
0.0002582414
-6.322321e-06
0.0002509644
7.276962e-06
0.000160031
9.093346e-05
3.242469e-05
0.0001276063
3.054625e-05
1.878441e-06
0.0001611464
-0.0001306002
0.0003695284
-0.000208382
0.0005502564
-0.000180728
0.0004729411
7.731535e-05
0.0003049288
0.0001680123
0.0001776198
0.000127309
0.0001812694
-3.649655e-06
0.0003063317
-0.0001250623
0.0004730481
-0.0001667164
0.0003739776
9.907044e-05
0.0001213851
0.0002525926
2.511936e-05
9.626574e-05
0.0001787144
-0.0001535951
0.0007077566
-0.0005290422
0.001634226
-0.0009264693
0.001725241
-9.10153e-05
0.002575704
-0.0008504626
0.003287887
-0.0007121829
0.00391164
-0.0006237536
0.004487017
-0.0005753764
0.005000692
-0.0005136749
0.005462488
-0.0004617964
0.005794602
-0.0003321141
0.006013217
-0.0002186145
0.006119396
-0.0001061794
0.006030617
8.877913e-05
0.005604227
0.0004263896
0.004609222
0.000995005
0.00257425
0.002034972
-0.0003105054
0.002884755
-0.00244082
0.002130315
-0.002657533
0.0002167124
-0.002438036
-0.0002194967
-0.001378721
-0.001059315
5.075408e-05
-0.001429475
0.0006811116
-0.0006303576
0.0003838872
0.0002972245
-0.0003358684
0.0007197555
-0.001679957
0.001344089
-0.003310037
0.001630079
-0.003543053
0.0002330165
-0.00171109
-0.001831963
0.000307058
-0.002018148
0.001649883
-0.001342825
0.002519653
-0.0008697701
0.003111386
-0.0005917329
0.003517878
-0.000406492
0.003780148
-0.0002622704
0.00360551
0.0001746376
0.002588781
0.001016729
0.001041789
0.001546992
-0.0004322315
0.001474021
-0.001209797
0.000777565
-0.001467807
0.00025801
-0.001167341
-0.0003004659
-0.0004330709
-0.0007342697
2.689298e-05
-0.0004599638
-4.901373e-05
7.590671e-05
-0.0001617528
0.0001127391
-0.0001099996
-5.175324e-05
-0.0006412628
0.0005312632
-0.0007026747
6.141197e-05
0.001675281
-0.002377956
0.002506818
-0.0008315366
-0.005796527
0.008303345
-0.006085529
0.0002890019
-0.005285175
-0.0008003542
-0.004963555
-0.0003216196
-0.004640927
-0.0003226277
-0.004397827
-0.0002431007
-0.004175416
-0.0002224104
-0.003981842
-0.0001935743
-0.003719352
-0.0002624902
-0.003585551
-0.0001338005
-0.003472342
-0.0001132091
-0.00336792
-0.0001044222
-0.003275039
-9.288137e-05
-0.00318532
-8.971848e-05
-0.003099862
-8.545788e-05
-0.003018433
-8.142964e-05
-0.00294574
-7.269231e-05
-0.002878912
-6.682881e-05
-0.002814574
-6.433731e-05
-0.002751144
-6.343014e-05
-0.00269214
-5.900429e-05
-0.002635426
-5.671414e-05
-0.002582599
-5.282634e-05
-0.002535291
-4.730868e-05
-0.002486785
-4.850616e-05
-0.002438222
-4.856221e-05
-0.002388992
-4.923049e-05
-0.002343094
-4.589807e-05
-0.002302025
-4.106883e-05
-0.002264684
-3.734078e-05
-0.002225575
-3.910866e-05
-0.002186904
-3.867138e-05
-0.002145888
-4.101571e-05
-0.002109864
-3.60245e-05
-0.002076506
-3.335833e-05
-0.002041426
-3.507985e-05
-0.002005888
-3.553812e-05
-0.001969291
-3.659683e-05
-0.00193656
-3.273103e-05
-0.001906667
-2.989266e-05
-0.00193851
3.184265e-05
-0.001922645
-1.58649e-05
-0.001900756
-2.18889e-05
-0.001878623
-2.213329e-05
-0.001859319
-1.930322e-05
-0.001839333
-1.99865e-05
-0.001821586
-1.774736e-05
-0.001805474
-1.611205e-05
-0.001790186
-1.528785e-05
-0.001771716
-1.846944e-05
-0.001753133
-1.858321e-05
-0.001738302
-1.483106e-05
-0.001726123
-1.217893e-05
-0.001716665
-9.45783e-06
-0.001703588
-1.30775e-05
-0.001687729
-1.585827e-05
-0.001674337
-1.339279e-05
-0.001663613
-1.072383e-05
-0.001651001
-1.261169e-05
-0.001641065
-9.935674e-06
-0.001630017
-1.104816e-05
-0.001618295
-1.17227e-05
-0.001607866
-1.042832e-05
-0.001596535
-1.13309e-05
-0.001568725
-2.78103e-05
-0.001531067
-3.76583e-05
-0.001494816
-3.625083e-05
-0.001445765
-4.905143e-05
-0.001369972
-7.579233e-05
-0.001199005
-0.0001709672
-0.0009182932
-0.0002807118
-0.0001270011
-0.0007912921
0.0007496349
-0.000876636
0.001027306
-0.0002776708
0.001211766
-0.0001844603
0.001310727
-9.896119e-05
0.001376844
-6.611731e-05
0.001434024
-5.717908e-05
0.001471666
-3.764286e-05
0.001486864
-1.519785e-05
0.001497988
-1.112357e-05
0.001520506
-2.251849e-05
0.001542276
-2.176997e-05
0.001560381
-1.810498e-05
0.001572254
-1.187272e-05
0.001584021
-1.176689e-05
0.001596344
-1.232353e-05
0.001612363
-1.601829e-05
0.001627505
-1.514246e-05
0.001639228
-1.172304e-05
0.001651746
-1.251806e-05
0.001667867
-1.612113e-05
0.001682772
-1.490497e-05
0.001697163
-1.439027e-05
0.001715078
-1.791521e-05
0.001730394
-1.531653e-05
0.001751159
-2.076471e-05
0.001775564
-2.440497e-05
0.001795472
-1.990825e-05
0.001811997
-1.652498e-05
0.001830582
-1.858429e-05
0.001852036
-2.145473e-05
0.001866325
-1.428864e-05
0.001832298
3.402702e-05
0.001860468
-2.816998e-05
0.001895371
-3.490311e-05
0.001930785
-3.541344e-05
0.001966564
-3.577902e-05
0.002005026
-3.846215e-05
0.002041469
-3.64436e-05
0.002074863
-3.33936e-05
0.002110982
-3.611893e-05
0.00215131
-4.032808e-05
0.0021951
-4.379004e-05
0.002233522
-3.842161e-05
0.00227021
-3.66887e-05
0.002309513
-3.930253e-05
0.002351949
-4.243589e-05
0.002395376
-4.342723e-05
0.002443753
-4.837709e-05
0.002493884
-5.013076e-05
0.002544242
-5.035838e-05
0.002596246
-5.20036e-05
0.002645
-4.875427e-05
0.002703034
-5.803448e-05
0.00276358
-6.054603e-05
0.002826542
-6.296185e-05
0.002894297
-6.775494e-05
0.002964188
-6.989075e-05
0.003041641
-7.745281e-05
0.003126422
-8.478103e-05
0.00321293
-8.650772e-05
0.003306939
-9.400956e-05
0.003414345
-0.0001074055
0.003541261
-0.0001269165
0.003788069
-0.0002468078
0.003968362
-0.0001802935
0.004173125
-0.0002047626
0.004402026
-0.0002289012
0.004698147
-0.0002961211
0.004988384
-0.000290237
0.005734156
-0.0007457716
0.0001726139
0.0009247695
0.0001499704
-0.001951376
0.001364491
-0.0007173924
0.001672646
-0.000492615
0.001916201
-0.0003425164
0.002106783
-0.0002566992
0.002273336
-0.0002237323
0.002414523
-0.0001788291
0.002529263
-0.0001299382
0.002630226
-0.0001120869
0.002732436
-0.0001247285
0.002827771
-0.0001171052
0.002917018
-0.0001073514
0.002997093
-9.194755e-05
0.003073602
-8.827583e-05
0.003145383
-8.410503e-05
0.003217223
-8.785793e-05
0.003285597
-8.351631e-05
0.003349936
-7.606282e-05
0.003411893
-7.447482e-05
0.00347472
-7.894815e-05
0.0035352
-7.538517e-05
0.003593644
-7.283378e-05
0.00365393
-7.820143e-05
0.003710607
-7.199385e-05
0.003770425
-8.058262e-05
0.003831544
-8.552335e-05
0.003890786
-7.915032e-05
0.003946203
-7.194256e-05
0.004003454
-7.583534e-05
0.004061049
-7.904954e-05
0.004116546
-6.978574e-05
0.004083511
6.706259e-05
0.004150926
-9.558573e-05
0.00422181
-0.0001057871
0.004292939
-0.0001065416
0.004364252
-0.0001070919
0.004436762
-0.0001109728
0.004508726
-0.0001084077
0.004577488
-0.0001021556
0.004648783
-0.0001074132
0.004720979
-0.0001125249
0.004797389
-0.0001201993
0.004868947
-0.0001099796
0.004940668
-0.0001084104
0.005012801
-0.0001114355
0.005087752
-0.0001173864
0.005162613
-0.0001182888
0.005241426
-0.0001271894
0.005321938
-0.0001306432
0.005402635
-0.0001310552
0.005485917
-0.0001352859
0.005565827
-0.0001286639
0.005653822
-0.0001460302
0.005742098
-0.0001488212
0.005834361
-0.0001552252
0.005928831
-0.000162225
0.00602681
-0.0001678695
0.006129437
-0.0001800804
0.006239253
-0.0001945961
0.006350187
-0.0001974418
0.006468404
-0.0002122271
0.006597264
-0.0002362652
0.00674249
-0.0002721425
0.007071693
-0.0005760108
0.007269164
-0.0003777647
0.007496376
-0.000431974
0.007743238
-0.0004757639
0.008069027
-0.0006219098
0.008349606
-0.0005708158
0.009178821
-0.001574987
0.008360354
0.0009910806
-0.009600436
0.008720176
0.001169262
-0.00867999
-0.0017208
-0.008375417
-0.0006261932
-0.008022723
-0.0006753209
-0.007760382
-0.0005054425
-0.00751449
-0.0004683023
-0.007303072
-0.0004049917
-0.006956059
-0.0006095033
-0.006801841
-0.0002880191
-0.006665283
-0.0002497672
-0.006535987
-0.0002337179
-0.006417309
-0.0002115594
-0.00630093
-0.000206097
-0.006190064
-0.0001963242
-0.006081594
-0.0001898999
-0.005981762
-0.0001725244
-0.005884845
-0.0001637457
-0.005792204
-0.0001569782
-0.005699308
-0.0001563258
-0.005611545
-0.0001467675
-0.005524765
-0.000143494
-0.005441845
-0.0001357467
-0.005362719
-0.0001264349
-0.005283281
-0.0001279435
-0.00520495
-0.0001268939
-0.005126131
-0.0001280495
-0.005050844
-0.0001211848
-0.004977639
-0.000114274
-0.004908099
-0.0001068808
-0.004835704
-0.0001115031
-0.004765547
-0.0001088286
-0.004692339
-0.0001142242
-0.004623563
-0.0001048001
-0.004555021
-0.0001019
-0.00448566
-0.0001044411
-0.004415363
-0.0001058353
-0.004344336
-0.0001076241
-0.004275654
-0.0001014121
-0.004207788
-9.775897e-05
-0.004242152
6.620632e-05
-0.004187174
-7.08423e-05
-0.004130641
-7.842184e-05
-0.004072552
-8.02224e-05
-0.004017108
-7.47471e-05
-0.003959211
-7.788357e-05
-0.003903021
-7.393761e-05
-0.003845838
-7.329559e-05
-0.00378879
-7.233569e-05
-0.003728208
-7.905124e-05
-0.003667166
-7.962552e-05
-0.003607131
-7.486533e-05
-0.003546596
-7.271412e-05
-0.003485965
-7.008947e-05
-0.003420261
-7.878144e-05
-0.003351556
-8.456338e-05
-0.003281629
-8.33189e-05
-0.00321118
-8.117355e-05
-0.003135135
-8.865622e-05
-0.003058102
-8.696897e-05
-0.002974829
-9.432139e-05
-0.002886348
-0.0001002038
-0.002792205
-0.0001045708
-0.002691074
-0.0001124621
-0.00257027
-0.0001486144
-0.002435445
-0.0001724827
-0.002290618
-0.0001810784
-0.002117739
-0.0002219301
-0.001901975
-0.0002915564
-0.001605882
-0.0004670602
-0.001146713
-0.0007398804
-0.001788035
0.001618827
-0.001702777
-7.065151e-06
0.002681632
-0.001913268
0.003623263
-0.001653814
0.004431286
-0.001431776
0.005197666
-0.001341757
0.00592353
-0.001239539
0.006624765
-0.001163031
0.007202395
-0.0009097445
0.007660269
-0.000676489
0.007988852
-0.0004347621
0.008179147
-0.000101516
0.008203519
0.0004020178
0.00795897
0.001239554
0.006757334
0.003236609
0.003072459
0.00656963
-0.001887602
0.007090376
-0.00420404
0.002533151
-0.003972163
-0.0004513742
-0.002570945
-0.002460533
-0.0007766579
-0.003223762
-6.880594e-05
-0.00133821
-0.0002862363
0.0005146548
-0.001659728
0.002093248
-0.004188362
0.003872722
-0.005695336
0.003137053
-0.004479163
-0.0009831563
-0.001817659
-0.004493467
0.0004377225
-0.00427353
0.002092094
-0.002997196
0.003244573
-0.00202225
0.004071269
-0.001418428
0.004670625
-0.001005849
0.005093972
-0.0006856175
0.005298423
-2.98134e-05
0.004914741
0.001400411
0.003575889
0.002885844
0.001210512
0.003839398
-0.0009813407
0.002969418
-0.001764801
0.00104147
-0.001318356
-0.0007469113
-0.0004425978
-0.001610028
0.0001778494
-0.001080411
-9.704468e-06
0.0002634605
-0.0001155031
0.0002185377
0.0003080479
-0.0004753042
0.0005354906
0.0003038205
0.0008485545
-0.000251652
0.002563249
-0.004092651
0.0009626459
0.0007690667
0.01798617
0.0001923413
-0.0009221159
0.001060413
1.581803e-05
-0.0003655274
-0.0005476812
0.001101109
-0.0009619976
0.0008105421
-0.00110543
0.0004357432
-0.001069189
8.410975e-05
-0.0009737998
-8.391408e-05
-0.0009273619
-3.756186e-05
-0.001014618
0.00016159
-0.00123815
0.0003480403
-0.001486489
0.0003595662
-0.001659601
0.0002595617
-0.001717469
0.0001218831
-0.00171632
3.757072e-05
-0.001741797
4.426073e-05
-0.001838445
0.0001114784
-0.002018362
0.0002082015
-0.002253808
0.0002775042
-0.002493628
0.000293539
-0.002701997
0.0002743386
-0.002876177
0.0002530241
-0.003023222
0.000234193
-0.00315122
0.0002261049
-0.003261673
0.0002163755
-0.003352091
0.000194815
-0.003420244
0.0001616187
-0.003466998
0.000125905
-0.003493546
9.188281e-05
-0.003505509
7.142047e-05
-0.003503553
5.188114e-05
-0.003485271
2.411034e-05
-0.003452077
-3.719609e-06
-0.003405141
-3.628584e-05
-0.003276116
-0.0001761528
-0.003204993
-8.472129e-05
-0.003118419
-0.0001114506
-0.003021239
-0.0001298735
-0.002903741
-0.0001686861
-0.002774433
-0.0001901787
-0.002641204
-0.0001974438
-0.002475994
-0.0002613807
-0.002309363
-0.00026269
-0.00214184
-0.0002607106
-0.001955442
-0.0002948517
-0.001760838
-0.0003093817
-0.001547016
-0.0003481717
-0.001327874
-0.000360708
-0.0011263
-0.000325325
-0.0009185572
-0.0003330213
-0.0006857574
-0.0003782646
-0.0004065066
-0.0004645222
-0.0001568493
-0.000410124
0.0001147702
-0.0004486641
0.0003605809
-0.000402495
0.0006042087
-0.0003981033
0.0008364438
-0.0003785668
0.001063875
-0.0003708555
0.001283341
-0.0003564144
0.001495159
-0.0003422071
0.001696923
-0.000323055
0.00188745
-0.0003009495
0.00205823
-0.0002617731
0.002213554
-0.0002316067
0.002345506
-0.0001856864
0.002448488
-0.0001292386
0.002532214
-9.698237e-05
0.002653637
-0.0001504385
0.002694125
-5.828376e-06
0.002708175
4.41502e-05
0.00268996
9.717983e-05
0.002638586
0.0001477258
0.002554314
0.0001932409
0.002436855
0.0002351068
0.002279511
0.0002867731
0.002079149
0.0003389887
0.001843784
0.0003662533
0.001580052
0.0003704657
0.001288039
0.0003759351
0.0009988537
0.0003457989
0.0007640649
0.0002575979
0.0006109038
0.0001468388
0.0005027629
0.0001154179
0.0003984739
0.0001952225
0.0003501644
0.0001759158
0.0004072942
-5.525141e-05
0.0004901501
-0.0002134561
0.0006044672
-0.000322699
0.0007039897
-0.0002802505
0.0005120705
0.0002692345
0.0002847114
0.0003953714
0.0002217829
0.0001902375
0.0002459503
-2.78171e-05
0.0003105673
-0.0001896793
0.000503821
-0.0003599701
0.000346941
0.0002559505
8.447737e-05
0.0005150561
0.0001151045
6.563863e-05
0.0004305516
-0.0004690422
0.001014202
-0.001112692
-0.001615044
-0.001051537
0.01731986
-0.002408617
0.0005138168
0.0004092515
-0.005256343
1.972903e-05
0.001045209
-0.0014519
0.002601872
-0.0006560366
-0.001268191
-0.0002551719
-0.0007231962
-4.845721e-05
-0.0003172972
-2.472686e-05
-1.535998e-05
-0.0005646471
0.0009148875
-0.0008857085
0.0005231422
-0.0006864218
-0.0003540082
-0.0002345532
-0.0008006841
0.0007153323
-0.001653727
0.002347856
-0.002964966
0.003679904
-0.002442454
0.004972872
-0.001896806
0.005195002
0.0007212785
0.002814251
0.004485536
8.085805e-05
0.004172941
-0.0002214899
0.0003930345
0.001091542
-0.002430989
0.002702523
-0.003027696
0.003181789
-0.0009260903
0.001574539
0.001814532
-0.002212418
0.005178246
-0.005545245
0.005580969
-0.007191541
0.003656975
-0.007690114
0.001680356
-0.007787713
0.0006835066
-0.007687765
0.0001174648
-0.007393325
-0.0003589428
-0.006862367
-0.0008425939
-0.006127698
-0.001228384
-0.005224981
-0.001548206
-0.004122395
-0.001936789
-0.002956236
-0.002060804
-0.00160944
-0.002405084
-0.0003040585
-0.002365377
0.0008494598
-0.00206515
0.001703326
-0.001495327
0.002439152
-0.001258264
0.003031101
-0.001048806
0.003542447
-0.0006535309
0.00379939
0.0003437776
0.003478661
0.001509737
0.002669151
0.001652338
0.001576812
0.001109594
0.000779937
0.0002596999
-0.0007502599
0.0009698964
-0.0105902
0.02694016
-0.002701441
0.004185154
-0.001332488
-0.006625296
-0.001515553
0.001228275
-0.0019948
0.003081118
-0.0008767608
-0.00238623
-0.0004556043
-0.001144353
-0.000198421
-0.0005744805
-0.0001948925
-1.888846e-05
-0.0008429935
0.001562989
-0.001290093
0.0009702422
-0.001136661
-0.0005074407
-0.0005957381
-0.001341607
0.0005375092
-0.002786975
0.002356049
-0.004783506
0.004015946
-0.004102351
0.005487649
-0.00336851
0.006494822
-0.0002858943
0.005167789
0.005812568
0.002343918
0.006996813
0.001258459
0.001478494
0.002266044
-0.003438574
0.003598174
-0.004359826
0.002901256
-0.0002291716
-0.0009601537
0.005675942
-0.005704722
0.009922813
-0.008093247
0.007969495
-0.008979416
0.004543144
-0.009333146
0.002034085
-0.009492179
0.0008425392
-0.00942079
4.607609e-05
-0.009062428
-0.0007173054
-0.008393401
-0.00151162
-0.007478214
-0.002143571
-0.00635744
-0.002668981
-0.00500163
-0.003292599
-0.003574629
-0.003487805
-0.001940819
-0.004038895
-0.000381334
-0.003924862
0.0009855716
-0.003432055
0.001996739
-0.002506495
0.002869789
-0.002131315
0.003587918
-0.001766934
0.004120797
-0.00118641
0.004603619
-0.0001390442
0.00518979
0.000923566
0.005489304
0.001352824
0.004911379
0.001687518
0.003061951
0.002109128
0.001701716
0.0006099758
0.0001407657
0.002621363
-0.0004200834
0.0001953217
-0.001010549
0.001691574
-0.001271786
0.00107178
-0.001337003
0.0005009594
-0.001307412
5.451958e-05
-0.001223436
-0.0001678907
-0.001207793
-5.320437e-05
-0.001386864
0.0003406606
-0.001741384
0.0007025603
-0.002088351
0.0007065333
-0.00230402
0.0004752305
-0.00243021
0.0002480732
-0.002589808
0.0001971689
-0.002825445
0.0002798979
-0.003106522
0.0003925553
-0.003406464
0.0005081437
-0.00369288
0.0005639202
-0.003930562
0.0005312203
-0.004106701
0.0004504778
-0.004235847
0.0003821706
-0.004331017
0.0003293626
-0.004402216
0.0002973035
-0.004454255
0.0002684144
-0.004489303
0.0002298636
-0.004507902
0.0001802173
-0.004511667
0.0001296701
-0.004499681
7.989653e-05
-0.004476797
4.853661e-05
-0.004443144
1.822773e-05
-0.004394958
-2.407512e-05
-0.004334764
-6.391376e-05
-0.004258867
-0.000112183
-0.004086878
-0.0003481411
-0.00398253
-0.0001890697
-0.003861165
-0.000232816
-0.003729045
-0.0002619931
-0.003574873
-0.0003228579
-0.003407023
-0.0003580286
-0.00323638
-0.0003680869
-0.003029225
-0.0004685354
-0.00282022
-0.0004716956
-0.002610165
-0.0004707661
-0.002377744
-0.0005272725
-0.002136323
-0.0005508028
-0.001873925
-0.000610569
-0.001606734
-0.0006278995
-0.001360661
-0.0005713977
-0.001107182
-0.0005865002
-0.0008244401
-0.0006610067
-0.0004869799
-0.0008019824
-0.0001838564
-0.0007132475
0.0001454839
-0.0007780044
0.0004460065
-0.0007030176
0.0007440706
-0.0006961673
0.001028609
-0.0006631057
0.001307607
-0.0006498533
0.001577265
-0.0006260722
0.001838327
-0.0006032686
0.002088155
-0.000572883
0.002325976
-0.0005387709
0.002542131
-0.000477928
0.002742298
-0.0004317739
0.002917373
-0.0003607616
0.003062114
-0.0002739798
0.00318692
-0.0002217875
0.003356529
-0.0003200483
0.003434756
-8.405464e-05
0.00349281
-1.390386e-05
0.003527716
6.227394e-05
0.003538151
0.0001372907
0.003522733
0.0002086585
0.003479555
0.0002782847
0.003399539
0.0003667888
0.003272904
0.000465624
0.003094678
0.0005444795
0.002856242
0.0006089013
0.002535163
0.000697014
0.002123328
0.0007576338
0.001648917
0.0007320098
0.001205473
0.0005902821
0.0008692285
0.0004516626
0.0006450364
0.0004194146
0.0005893453
0.0002316069
0.0007317746
-0.0001976808
0.0008596447
-0.0003413261
0.0008536864
-0.0003167407
0.0007615602
-0.0001881243
0.0004829561
0.0005478386
0.0003069989
0.0005713285
0.000347118
0.0001501185
0.0004017181
-8.241716e-05
0.0003708877
-0.0001588489
0.0004598788
-0.0004489611
0.0003193573
0.000396472
0.0001426695
0.000691744
0.0002192927
-1.098465e-05
0.0006076504
-0.0008573999
0.001332888
-0.00183793
0.002198866
-0.002481022
0.002325209
-0.0001334077
0.003320024
-0.002908084
0.004334041
-0.002667831
0.005260736
-0.002358471
0.006173431
-0.002254452
0.007052218
-0.002118326
0.007922203
-0.002033016
0.008642109
-0.001629651
0.009207971
-0.001242351
0.009605544
-0.0008323357
0.009792429
-0.0002884005
0.009736035
0.0004584118
0.009491635
0.001483954
0.009037712
0.003690532
0.006801995
0.008805347
0.0009501742
0.0129422
-0.004328202
0.007811527
-0.005489314
0.0007097386
-0.004034424
-0.003915423
-0.002025331
-0.005232854
-0.0011333
-0.002230241
-0.001591576
0.0009729304
-0.003661843
0.004163515
-0.00645964
0.006670519
-0.007058146
0.00373556
-0.005012127
-0.003029175
-0.002021708
-0.007483886
0.0007326308
-0.007027869
0.002801291
-0.005065856
0.00421554
-0.003436498
0.005207957
-0.002410846
0.005904778
-0.001702669
0.006375208
-0.001156048
0.006540833
-0.0001954381
0.006250052
0.001691191
0.005401704
0.003734192
0.003422929
0.005818173
0.0007648251
0.005627522
-0.0008563172
0.002662613
-0.0009254547
-0.0006777737
-0.0003393072
-0.002196175
0.0002868366
-0.001706555
0.0002819677
0.0002683294
0.0001526075
0.0003478979
0.0006770836
-0.0009997803
0.001232823
-0.0002519189
0.001946007
-0.0009648356
0.002855797
-0.005002441
-0.001051909
0.004676773
-0.01099884
0.0279331
-0.01181832
0.001988739
-0.01088923
-0.002649889
-0.01049978
-0.001015641
-0.01010774
-0.001067357
-0.009814988
-0.000798197
-0.009543957
-0.0007393333
-0.009316509
-0.0006324405
-0.00891834
-0.001007671
-0.008750068
-0.0004562918
-0.008597051
-0.0004027841
-0.008451607
-0.0003791612
-0.008317086
-0.0003460805
-0.008184334
-0.0003388492
-0.008057659
-0.0003229996
-0.007932659
-0.0003148994
-0.007816492
-0.0002886911
-0.007702202
-0.0002780364
-0.007592579
-0.0002666007
-0.007481958
-0.0002669469
-0.007376795
-0.0002519301
-0.00727186
-0.0002484296
-0.007170514
-0.0002370927
-0.00707264
-0.0002243085
-0.006974137
-0.0002264467
-0.006877146
-0.000223885
-0.006779301
-0.0002258939
-0.006684936
-0.0002155508
-0.006591502
-0.0002077079
-0.006501636
-0.0001967463
-0.00640783
-0.0002053097
-0.006317039
-0.0001996194
-0.006222136
-0.0002091271
-0.006131743
-0.000195193
-0.006040465
-0.0001931777
-0.005948046
-0.0001968602
-0.00585445
-0.0001994314
-0.005759466
-0.0002026078
-0.005665256
-0.0001956223
-0.005568944
-0.0001940711
-0.005595087
9.234902e-05
-0.005508761
-0.0001571678
-0.005428463
-0.0001587198
-0.005344879
-0.0001638068
-0.00526446
-0.0001551658
-0.005180459
-0.0001618845
-0.005098255
-0.0001561422
-0.005014222
-0.0001573285
-0.004930311
-0.0001562465
-0.004842264
-0.0001670977
-0.004753728
-0.000168162
-0.004665915
-0.0001626785
-0.00457674
-0.0001618892
-0.004487199
-0.0001596302
-0.004391862
-0.0001741188
-0.004293298
-0.0001831264
-0.004193444
-0.0001831738
-0.004092812
-0.000181805
-0.003985161
-0.000196307
-0.003876728
-0.0001954024
-0.003761083
-0.0002099665
-0.003640128
-0.0002211584
-0.003512765
-0.0002319335
-0.003377964
-0.0002472641
-0.003219871
-0.0003067065
-0.00304786
-0.0003444947
-0.002868304
-0.0003606341
-0.002655539
-0.0004346946
-0.002391919
-0.0005551771
-0.00202033
-0.0008386488
-0.001351702
-0.001408508
-0.0001918347
-0.002947903
0.001050655
-0.003193866
0.001715413
-0.00138215
0.002096895
-0.0008740972
0.002392647
-0.0006382685
0.002627164
-0.0004912162
0.002836476
-0.0004330439
0.003018641
-0.0003609948
0.003170207
-0.0002815034
0.003304506
-0.0002463859
0.003441257
-0.0002614803
0.003570311
-0.0002461588
0.00369353
-0.0002305707
0.00380577
-0.0002041876
0.003913987
-0.0001964927
0.004016231
-0.0001863486
0.004118547
-0.0001901737
0.004217065
-0.0001820351
0.00431078
-0.0001697776
0.004401436
-0.000165131
0.004492761
-0.0001702727
0.004581277
-0.0001639009
0.004666904
-0.000158461
0.004754728
-0.0001660254
0.004837431
-0.0001546969
0.004923099
-0.000166251
0.005009786
-0.0001722098
0.005094802
-0.0001641663
0.005175559
-0.0001527005
0.005258334
-0.0001586094
0.005340069
-0.0001607847
0.005427425
-0.000157142
0.005404199
9.028812e-05
0.005500381
-0.0001917675
0.005597428
-0.0002028338
0.005692971
-0.0002020846
0.005788097
-0.000202218
0.005884015
-0.000206891
0.005979607
-0.0002039996
0.006071457
-0.0001940052
0.006165767
-0.0002017232
0.006259603
-0.0002063617
0.006358264
-0.0002188598
0.006451549
-0.0002032643
0.006545466
-0.0002023275
0.006639026
-0.0002049953
0.006735287
-0.0002136475
0.006830616
-0.000213618
0.006929699
-0.0002262723
0.007030174
-0.0002311181
0.007130429
-0.0002313107
0.007233889
-0.0002387461
0.007332719
-0.0002274931
0.00744006
-0.0002533715
0.007546244
-0.0002550055
0.007656689
-0.0002656698
0.007768603
-0.000274139
0.007883752
-0.0002830189
0.008002829
-0.0002991576
0.008129039
-0.0003208057
0.008255773
-0.0003241753
0.008389511
-0.0003459659
0.008534284
-0.0003810382
0.008692121
-0.0004299792
0.009069909
-0.0009537983
0.009281154
-0.00058901
0.009529809
-0.0006806291
0.009803798
-0.0007497531
0.01016698
-0.0009850878
0.01052158
-0.000925418
0.01136085
-0.002414255
0.00176173
0.001093091
0.0002279316
-0.004514889
0.001927057
-0.002216115
0.002398371
-0.001345411
0.00275834
-0.0009982376
0.003050864
-0.0007837401
0.003312336
-0.000694516
0.003539213
-0.0005878723
0.003730149
-0.0004724389
0.003899794
-0.0004160312
0.004071451
-0.0004331375
0.004233104
-0.0004078115
0.00438791
-0.0003853771
0.004529848
-0.0003461251
0.004666484
-0.0003331293
0.004795915
-0.0003157795
0.004924579
-0.0003188378
0.005049044
-0.0003064995
0.005167046
-0.0002877798
0.005281592
-0.0002796772
0.0053963
-0.0002849801
0.005507495
-0.0002750962
0.005614955
-0.0002659212
0.00572504
-0.0002761101
0.005828338
-0.0002579955
0.005935148
-0.0002730609
0.006043093
-0.0002801548
0.006148424
-0.0002694972
0.006249275
-0.0002535511
0.00635195
-0.000261285
0.006453346
-0.0002621799
0.006562517
-0.0002663139
0.006540101
0.000112705
0.006656486
-0.0003081534
0.006776093
-0.0003224404
0.006892498
-0.0003184897
0.007008417
-0.0003181369
0.007125401
-0.0003238751
0.007241619
-0.0003202172
0.007353532
-0.0003059185
0.007468118
-0.0003163092
0.007582144
-0.0003203878
0.007701744
-0.0003384601
0.007814918
-0.000316438
0.007928799
-0.0003162087
0.008042457
-0.0003186532
0.00815891
-0.0003301004
0.008274205
-0.0003289131
0.008394062
-0.0003461292
0.008515248
-0.0003523039
0.008636253
-0.0003523153
0.008761174
-0.0003636674
0.008879978
-0.0003462968
0.00900964
-0.0003830334
0.009136986
-0.0003823516
0.009269239
-0.0003979234
0.009403605
-0.0004085051
0.009540658
-0.0004200717
0.009683186
-0.0004416855
0.009833249
-0.0004708686
0.009983705
-0.0004746312
0.01014237
-0.0005046283
0.01031416
-0.0005528263
0.01072037
-0.0008361934
0.0109509
-0.00118433
0.01119858
-0.0008366897
0.01149359
-0.0009756371
0.01182868
-0.001084843
0.01226089
-0.001417296
0.01275905
-0.001423581
0.01354029
-0.003195499
0.01306216
0.002239863
-0.01407095
0.01354596
0.002513737
-0.01319819
-0.00352265
-0.01265308
-0.001560758
-0.0121878
-0.001532634
-0.01183051
-0.001155484
-0.01150734
-0.001062509
-0.01123947
-0.0009003039
-0.01098988
-0.001257263
-0.01056428
-0.000881892
-0.0103834
-0.0005836625
-0.01021083
-0.0005517339
-0.0100514
-0.0005055064
-0.009893917
-0.0004963358
-0.009743335
-0.0004735812
-0.009594724
-0.0004635106
-0.009455948
-0.0004274674
-0.009319707
-0.000414277
-0.009188573
-0.000397735
-0.009056189
-0.0003993312
-0.008930074
-0.000378045
-0.008804354
-0.00037415
-0.008682225
-0.0003592208