/*--------------------------------*- C++ -*----------------------------------*\
| =========                 |                                                 |
| \\      /  F ield         | OpenFOAM: The Open Source CFD Toolbox           |
|  \\    /   O peration     | Version:  2406                                  |
|   \\  /    A nd           | Website:  www.openfoam.com                      |
|    \\/     M anipulation  |                                                 |
\*---------------------------------------------------------------------------*/
FoamFile
{
    version     2.0;
    format      ascii;
    arch        "LSB;label=32;scalar=64";
    class       volVectorField;
    location    "2.02";
    object      U;
}
// * * * * * * * * * * * * * * * * * * * * * * * * * * * * * * * * * * * * * //

dimensions      [0 1 -1 0 0 0 0];

internalField   nonuniform List<vector> 
15536
(
(0.1297673 -4.449951 -3.559004e-22)
(0.2169456 -3.438465 -2.462442e-19)
(0.2114329 -2.268383 -4.448455e-19)
(0.1028358 -1.016473 -4.426572e-19)
(-0.06482894 0.1479433 -8.266815e-21)
(-0.2865497 1.118385 4.25187e-21)
(-0.5555723 2.020513 1.232805e-20)
(-0.8515713 2.770638 -1.209408e-20)
(-1.115026 3.26651 3.80407e-18)
(-1.152673 3.151278 4.030158e-18)
(-0.7155938 1.87194 0)
(0.1590988 -0.2246743 0)
(0.6390564 -1.096183 -3.414321e-20)
(0.5787658 -0.9715925 8.883131e-18)
(0.09998161 -0.2550876 4.391313e-18)
(-0.4569988 0.5525595 -9.529475e-18)
(-0.7608644 0.9286851 5.173786e-18)
(-0.859196 1.022814 4.412293e-20)
(-0.9440553 1.070563 -8.881562e-20)
(-1.223532 1.282115 4.495081e-20)
(-1.227808 1.228257 0)
(-0.5748133 0.6296459 4.094857e-18)
(1.000655 -0.6494429 0)
(2.91603 -2.032805 1.817449e-18)
(2.551104 -1.753863 -1.332149e-20)
(0.1669428 -0.2329456 -2.229361e-20)
(-1.630949 0.8331634 2.250934e-20)
(-2.829908 1.408719 -4.377286e-18)
(-4.378922 1.968382 -5.659468e-18)
(-6.891509 2.791869 0)
(-9.495155 3.563868 -6.13224e-20)
(-10.37902 3.753706 -8.601148e-18)
(-4.614823 1.838203 7.337166e-18)
(4.406567 -0.9543316 0)
(2.808658 -0.8695673 -3.823261e-18)
(-2.328587 0.07773452 -2.441303e-20)
(-3.597745 0.3918827 3.429186e-18)
(-3.406045 0.220488 -1.763537e-18)
(-0.2098052 0.02517525 1.594693e-21)
(6.02243 0.3555739 -3.81798e-19)
(10.06343 0.9308267 1.498983e-18)
(12.15457 1.545568 -2.393152e-20)
(13.18672 2.181852 2.356346e-20)
(13.73331 2.843456 0)
(14.0113 3.494245 -5.962221e-18)
(14.10372 4.116958 -5.910229e-18)
(14.02434 4.701443 0)
(13.83472 5.251882 -1.12211e-17)
(13.56358 5.770743 1.090706e-17)
(13.24853 6.265482 1.049415e-17)
(12.87827 6.720422 3.800379e-20)
(12.44846 7.13174 -9.447713e-18)
(11.9671 7.494453 0)
(11.44338 7.809986 0)
(10.88689 8.074616 7.498482e-18)
(10.29557 8.280873 6.818555e-18)
(9.687527 8.439302 4.455287e-20)
(9.069127 8.548075 5.246948e-18)
(8.428054 8.589309 9.042371e-18)
(7.777043 8.571142 3.738936e-18)
(7.124219 8.496681 2.902047e-18)
(6.482464 8.374597 -1.98504e-20)
(5.848884 8.195682 0)
(5.221305 7.954156 4.967369e-19)
(4.612911 7.665646 0)
(4.02201 7.316098 1.124104e-18)
(3.455695 6.912356 -2.80514e-20)
(2.923852 6.464454 -2.753593e-21)
(2.426272 5.970463 1.172965e-20)
(1.96753 5.435091 -4.027707e-18)
(1.55293 4.866155 -1.924403e-20)
(1.1833 4.261244 2.642809e-18)
(0.8602287 3.621466 2.893036e-18)
(0.588818 2.960905 0)
(0.3687259 2.28518 0)
(0.2040835 1.588444 3.465241e-18)
(0.09079607 0.8807497 -1.022257e-22)
(0.03236805 0.197528 9.309422e-19)
(0.02171 -0.4524969 1.695708e-21)
(0.06502267 -1.150885 -6.929944e-21)
(0.1601331 -1.894881 -1.710942e-18)
(0.3131217 -2.633736 0)
(0.522441 -3.349556 3.033101e-18)
(0.7848437 -4.037562 0)
(1.098604 -4.696064 -2.500864e-18)
(1.461597 -5.323474 2.171221e-18)
(1.872707 -5.917795 1.584905e-20)
(2.328583 -6.477798 3.042858e-18)
(2.826101 -6.994608 7.464511e-21)
(3.36069 -7.465945 -1.551163e-18)
(3.929682 -7.893628 -7.347839e-19)
(4.530528 -8.271802 2.243863e-21)
(5.160507 -8.603465 9.796548e-19)
(5.810309 -8.884342 -1.854163e-18)
(6.476104 -9.109602 2.466237e-20)
(7.146923 -9.266113 6.912649e-21)
(7.827871 -9.368939 -4.44944e-18)
(8.514613 -9.418274 0)
(9.198137 -9.405933 1.218137e-17)
(9.880856 -9.342857 6.844696e-18)
(10.54279 -9.214704 1.184442e-19)
(11.18057 -9.024449 -8.544412e-18)
(11.79016 -8.77552 0)
(12.37019 -8.472036 0)
(12.91971 -8.122317 0)
(13.42995 -7.724269 0)
(13.89069 -7.278968 1.176273e-17)
(14.29857 -6.790355 1.236588e-17)
(14.65391 -6.26347 2.998237e-20)
(14.95074 -5.70615 -1.318362e-17)
(15.17036 -5.115608 -6.705338e-18)
(15.28743 -4.492386 -6.899382e-18)
(15.25847 -3.835038 5.390324e-20)
(15.05179 -3.150067 6.984266e-18)
(14.63315 -2.449636 3.577079e-18)
(13.90909 -1.753712 -2.758257e-20)
(12.60741 -1.116317 -6.539714e-21)
(10.06487 -0.5501128 4.296017e-19)
(5.147527 -0.1232758 -8.482182e-19)
(0.2073901 0.05464312 -2.160775e-20)
(-2.069675 -0.4579483 1.437561e-20)
(-6.865983 -1.505563 4.384077e-18)
(-9.312231 -1.968151 3.381129e-20)
(-6.938008 -1.509622 0)
(-4.111563 -0.905921 -4.587804e-18)
(-0.8421539 0.04458712 -3.215899e-18)
(5.67429 2.378719 -1.227898e-20)
(6.579373 2.522024 3.705019e-18)
(-4.120747 -2.577921 -1.277825e-17)
(-10.47838 -5.834292 0)
(-9.779867 -5.585986 0)
(-7.236794 -4.405131 -8.526511e-18)
(-4.673401 -3.064147 0)
(-2.77636 -1.956224 1.858943e-20)
(-1.196782 -0.8387264 -1.687121e-18)
(0.7593656 0.7335953 -2.175219e-19)
(2.426011 2.185922 -4.173067e-21)
(2.096313 1.989931 1.224885e-18)
(1.211315 1.293251 9.682502e-21)
(-0.2684013 -0.5133679 7.230792e-20)
(-1.673428 -2.374036 1.221077e-18)
(-1.589756 -2.237651 1.55913e-18)
(-0.7048384 -0.932751 1.643658e-18)
(0.3540379 0.7735388 0)
(1.171297 2.23205 -1.184975e-20)
(1.810891 3.474678 -3.840177e-18)
(1.017367 1.921319 0)
(-0.4475727 -1.352691 3.92172e-18)
(-0.6074761 -1.886972 -2.512704e-20)
(-0.5670787 -1.783996 1.095851e-20)
(-0.2230664 -0.5377144 9.372419e-19)
(0.1701463 1.118006 -9.263425e-22)
(0.3255456 1.825906 0)
(-0.03389141 -1.231837 5.964001e-19)
(-0.2258895 -4.405029 4.87325e-21)
(-0.1922243 -5.507839 1.316064e-21)
(-0.02831327 -5.197215 -1.819777e-21)
(-0.05439124 -4.766253 -1.173734e-19)
(0.06365364 -3.680831 2.008086e-19)
(0.08632936 -2.447411 0)
(-0.009721702 -1.134895 3.622253e-19)
(-0.152176 0.0921498 0)
(-0.3799147 1.112879 1.996465e-18)
(-0.6675543 2.067431 1.005695e-20)
(-0.9918013 2.88151 -9.891096e-21)
(-1.263654 3.397653 -3.118419e-18)
(-1.451125 3.759009 -3.273573e-18)
(-1.309205 3.459445 0)
(-0.1672295 0.8351035 2.587283e-20)
(0.8668374 -1.445727 1.038146e-21)
(0.5801546 -1.089168 -3.6293e-18)
(0.2248335 -0.5799151 -7.250538e-18)
(-0.01456641 -0.1051446 3.92529e-18)
(0.06793519 -0.1027669 -4.275197e-18)
(-0.1336461 0.133061 -3.491759e-20)
(-0.8564946 0.8302478 0)
(-1.423302 1.378979 0)
(-1.540153 1.49209 0)
(-1.147564 1.203519 3.283706e-18)
(0.3933825 0.05192296 1.387355e-20)
(3.346813 -2.298104 -1.381027e-20)
(2.480049 -1.980355 1.203197e-20)
(0.04556103 -0.4476554 -1.209398e-20)
(-1.127942 0.3921569 0)
(-1.982385 0.819032 0)
(-3.138995 1.115945 9.334462e-18)
(-5.294336 1.699404 7.433418e-20)
(-7.772036 2.487199 -7.230853e-20)
(-9.359804 3.249258 7.187639e-18)
(-7.405783 3.016455 5.457227e-18)
(1.919931 0.04018842 -2.331705e-20)
(2.860799 -0.9183999 -3.080111e-18)
(2.233505 -0.7371686 2.308402e-18)
(2.201593 -0.3654841 2.182957e-21)
(4.940244 -0.113501 1.284562e-18)
(10.3468 0.3043287 0)
(15.60736 0.6999166 2.570531e-19)
(17.37457 1.048908 2.142451e-18)
(17.71652 1.5011 2.270652e-18)
(17.73186 2.080642 2.32613e-18)
(17.61141 2.719111 -7.281936e-20)
(17.41531 3.36654 4.765058e-18)
(17.15895 4.012175 -3.632317e-20)
(16.85702 4.650162 0)
(16.50397 5.263155 8.940498e-18)
(16.09621 5.850954 0)
(15.64281 6.406668 -6.305663e-20)
(15.13933 6.918585 6.321993e-20)
(14.5824 7.383371 7.542763e-18)
(13.9795 7.79452 -5.267068e-20)
(13.33776 8.151719 6.545896e-18)
(12.66446 8.451981 -6.032087e-18)
(11.96321 8.692078 0)
(11.24436 8.880325 3.520206e-20)
(10.5147 9.012128 -4.305279e-18)
(9.769998 9.074945 -7.197866e-18)
(9.015179 9.070517 0)
(8.262464 9.008856 -2.330722e-18)
(7.520643 8.891121 -1.036602e-20)
(6.790471 8.710139 9.976005e-19)
(6.072971 8.465575 2.372471e-22)
(5.374629 8.163452 -2.401472e-22)
(4.70078 7.799638 -9.123478e-19)
(4.054136 7.37825 1.544166e-18)
(3.445234 6.904298 0)
(2.875221 6.38325 0)
(2.34925 5.819045 -1.62251e-20)
(1.871425 5.213504 0)
(1.444713 4.56825 0)
(1.070997 3.88632 0)
(0.7550151 3.178409 -2.57698e-18)
(0.49511 2.454779 2.066021e-20)
(0.3031491 1.70666 1.135052e-20)
(0.1665787 0.9483732 -5.538646e-21)
(0.09498231 0.2114911 -7.646337e-19)
(0.08383317 -0.4954275 3.041395e-21)
(0.1475685 -1.247141 -7.376129e-19)
(0.2645803 -2.043523 1.392833e-18)
(0.4485712 -2.83339 1.056718e-20)
(0.6967287 -3.597814 -2.456297e-18)
(1.0047 -4.333565 -3.557161e-20)
(1.371249 -5.039207 2.069299e-18)
(1.792734 -5.708333 -1.807088e-18)
(2.26949 -6.340481 0)
(2.794085 -6.935424 -4.969376e-18)
(3.364943 -7.478969 -1.241164e-20)
(3.978997 -7.974415 1.257938e-18)
(4.630486 -8.42543 6.014427e-19)
(5.31697 -8.818956 0)
(6.036325 -9.158185 0)
(6.779984 -9.447389 0)
(7.541322 -9.669338 1.93759e-20)
(8.314874 -9.821052 -1.924173e-20)
(9.099923 -9.913633 3.493868e-18)
(9.891117 -9.945361 5.557394e-21)
(10.68426 -9.912538 -4.922362e-18)
(11.47337 -9.819879 -8.045738e-20)
(12.24815 -9.662583 1.233661e-17)
(13.00051 -9.438308 6.784557e-18)
(13.72634 -9.149761 -5.494652e-20)
(14.428 -8.803454 7.786688e-18)
(15.10039 -8.404345 6.336778e-20)
(15.73513 -7.948574 -7.114214e-20)
(16.32469 -7.44169 7.084568e-20)
(16.86529 -6.886505 7.717516e-20)
(17.35675 -6.289373 1.011502e-17)
(17.79479 -5.654889 -7.954695e-20)
(18.1653 -4.986408 0)
(18.4824 -4.293666 0)
(18.76054 -3.589435 0)
(18.98303 -2.884451 0)
(19.1253 -2.184035 2.081691e-20)
(19.1609 -1.491533 -2.072649e-20)
(19.01238 -0.8862657 1.250842e-18)
(18.43583 -0.4437772 4.729364e-21)
(15.74441 -0.1506323 0)
(10.01763 0.068013 -1.207101e-18)
(-0.4872921 -0.4434008 2.880417e-18)
(-6.186158 -1.289171 -3.676257e-18)
(-2.941327 -0.552071 5.271786e-20)
(-1.484356 0.07847273 -5.739557e-18)
(0.5024479 0.5765366 3.28771e-20)
(2.021433 1.241986 0)
(6.322886 2.904496 2.536002e-18)
(5.959367 1.770784 -5.600921e-18)
(-7.700983 -4.873274 -9.125121e-18)
(-10.45875 -5.677426 4.099896e-21)
(-9.238376 -4.789526 -1.665057e-19)
(-6.77387 -3.643753 7.11473e-20)
(-4.349968 -2.506311 0)
(-2.602123 -1.607089 2.569418e-18)
(-1.229882 -0.6078085 1.335397e-18)
(0.3249242 0.7349721 6.597581e-21)
(2.515306 2.575566 3.669919e-19)
(3.540369 3.408383 -9.831331e-19)
(1.700542 1.510986 -7.498898e-19)
(-1.212275 -1.900037 3.638531e-21)
(-2.139051 -2.962852 -9.750837e-19)
(-1.7287 -2.20005 -8.840719e-21)
(-0.8887986 -0.91208 -1.327789e-18)
(0.2146667 0.8406456 1.646809e-20)
(0.9746961 2.202557 1.158425e-20)
(1.851609 3.734837 -2.682099e-20)
(1.865123 3.395496 0)
(-0.09189844 -0.920908 0)
(-0.4616944 -1.371321 -2.787577e-18)
(-0.4788245 -1.100501 0)
(-0.1167408 0.4453587 -1.517408e-18)
(0.2354113 1.614422 9.120728e-19)
(0.2841656 0.422489 -7.449128e-21)
(-0.2421145 -4.482403 6.915068e-21)
(-0.4660666 -6.502969 5.269725e-19)
(-0.414373 -6.095123 -2.881443e-19)
(-0.2395955 -5.584786 -1.307437e-19)
(-0.1012819 -4.816232 9.383748e-20)
(-0.02438497 -3.739457 -1.622087e-19)
(-0.02472639 -2.511711 4.542822e-21)
(-0.1354434 -1.202197 -2.986916e-19)
(-0.2511866 0.03352471 0)
(-0.4701678 1.042748 -1.632101e-18)
(-0.7443225 1.996305 -1.645332e-20)
(-1.035483 2.805638 1.142373e-18)
(-1.26983 3.389803 2.569591e-18)
(-1.358284 3.578025 2.719977e-18)
(-1.344679 3.843609 2.625247e-18)
(-0.5283385 2.131106 -2.020549e-20)
(0.6765951 -0.820355 0)
(0.4484992 -0.9341783 0)
(0.232269 -0.6832172 2.917667e-18)
(0.2543977 -0.4878055 3.246519e-18)
(0.2586296 -0.4139828 3.55634e-18)
(-0.3226101 0.1901758 5.674411e-20)
(-1.165217 1.009794 0)
(-1.650279 1.575219 3.904759e-18)
(-1.637875 1.658176 3.551458e-18)
(-1.134874 1.354847 -2.668507e-18)
(-0.1914099 0.8146375 0)
(2.411491 -1.429229 1.192831e-18)
(1.778247 -1.685671 0)
(0.2461443 -0.7765371 -1.475745e-18)
(-0.02812904 -0.2846846 0)
(-0.2571204 -0.1024599 -3.144521e-18)
(-0.9741923 -0.01540486 -7.873087e-18)
(-3.12446 0.5083568 0)
(-5.496617 1.464309 0)
(-6.275042 2.40937 4.425869e-20)
(-6.313605 3.191628 -4.394464e-18)
(0.2347894 0.9390435 2.352808e-18)
(6.386153 -1.299448 4.889865e-18)
(10.14881 -1.529991 -1.698211e-18)
(11.81135 -0.9086006 1.903868e-18)
(14.07699 -0.1369695 -9.089736e-19)
(16.65472 0.5850464 0)
(17.75316 1.005984 0)
(17.35385 1.355104 -1.761059e-18)
(17.24212 1.91499 -1.902183e-18)
(17.19791 2.571517 -3.802707e-18)
(17.0997 3.240392 3.804868e-18)
(16.94167 3.914993 9.001178e-20)
(16.72094 4.563582 -5.997466e-20)
(16.43491 5.185833 0)
(16.07838 5.770358 0)
(15.66637 6.325674 7.000773e-18)
(15.21099 6.852202 -6.743826e-18)
(14.70873 7.331482 0)
(14.1558 7.763099 0)
(13.5603 8.139938 8.639745e-20)
(12.9275 8.464644 -5.45635e-18)
(12.26616 8.731791 0)
(11.58015 8.937975 -4.368171e-18)
(10.8775 9.094984 -3.896366e-18)
(10.16685 9.196552 -3.360432e-18)
(9.444894 9.228516 2.89209e-18)
(8.712787 9.196035 -3.312559e-20)
(7.9837 9.109616 1.861672e-18)
(7.266214 8.969639 0)
(6.562872 8.767204 -8.129877e-19)
(5.87408 8.502706 -2.489546e-23)
(5.203516 8.18403 8.183405e-21)
(4.561749 7.803338 -8.118369e-19)
(3.943881 7.369687 0)
(3.363045 6.885885 -1.811372e-18)
(2.819152 6.358011 -1.932856e-20)
(2.319586 5.788912 2.723803e-18)
(1.865395 5.181384 1.572422e-18)
(1.460596 4.536096 -1.763763e-18)
(1.105726 3.856177 -1.941515e-18)
(0.8052645 3.151555 2.095495e-18)
(0.5558493 2.433112 -2.237651e-18)
(0.3756882 1.689873 -1.144998e-18)
(0.2403028 0.9384146 2.410094e-18)
(0.1665943 0.2092167 1.250189e-18)
(0.1535957 -0.4942756 2.505744e-21)
(0.225524 -1.241551 6.106766e-19)
(0.3365234 -2.032692 -9.096766e-21)
(0.5109633 -2.816392 0)
(0.7456055 -3.575802 -1.532563e-20)
(1.035408 -4.308394 -1.284353e-20)
(1.381266 -5.012217 -1.639447e-18)
(1.777865 -5.681408 2.968418e-18)
(2.231188 -6.31424 -1.275479e-18)
(2.727316 -6.913346 2.017566e-18)
(3.267326 -7.463372 1.408923e-20)
(3.852607 -7.966556 0)
(4.472741 -8.429264 5.472651e-19)
(5.127338 -8.836698 -4.639317e-21)
(5.817383 -9.190773 5.527421e-19)
(6.531296 -9.49868 0)
(7.261835 -9.742483 1.691042e-18)
(8.007847 -9.916842 0)
(8.766084 -10.03519 -5.469628e-20)
(9.530548 -10.09564 3.37008e-18)
(10.30103 -10.09155 0)
(11.06706 -10.03172 -4.525521e-18)
(11.82109 -9.909067 -5.060859e-18)
(12.55517 -9.720505 -5.56294e-18)
(13.26479 -9.468103 0)
(13.95416 -9.157034 -1.301031e-17)
(14.61637 -8.794781 1.04055e-19)
(15.24386 -8.375058 0)
(15.8289 -7.904682 0)
(16.36788 -7.384456 0)
(16.86067 -6.821554 8.196356e-18)
(17.29987 -6.225537 -8.458046e-18)
(17.67772 -5.59135 0)
(17.98649 -4.922839 0)
(18.23169 -4.22601 4.39128e-18)
(18.41567 -3.506637 3.492635e-20)
(18.52544 -2.777827 0)
(18.56204 -2.045536 0)
(18.53809 -1.34349 -2.083156e-18)
(18.66643 -0.7759145 2.394304e-19)
(18.76995 -0.4137444 0)
(17.10862 -0.1879843 8.205711e-19)
(8.541222 -0.3611771 5.789404e-20)
(0.4595345 -0.3436064 1.006303e-20)
(3.27595 1.110841 -4.953496e-20)
(5.683905 2.039029 4.251387e-18)
(6.606545 2.362312 2.844264e-18)
(6.697289 2.748677 3.723761e-20)
(6.826298 3.045358 1.794785e-20)
(3.340035 -0.08695925 2.132486e-18)
(-7.672841 -5.701267 7.082791e-18)
(-8.517558 -4.920029 0)
(-8.090961 -3.943948 9.210575e-18)
(-5.762328 -2.673938 0)
(-3.465228 -1.639474 -4.168659e-20)
(-1.984699 -0.9877809 -2.081974e-18)
(-0.9829869 -0.2110264 9.972139e-21)
(0.06679641 0.8381831 -9.638705e-21)
(1.985516 2.350806 -2.96793e-19)
(3.796424 3.540775 4.03185e-19)
(1.644377 0.9462828 5.868401e-19)
(-1.44695 -2.584149 -3.271088e-20)
(-1.94242 -2.809969 -8.251899e-19)
(-1.842336 -2.189535 0)
(-1.083731 -0.8581531 -1.063921e-20)
(-0.02507383 0.8227464 0)
(0.8673974 2.357471 -1.981848e-18)
(1.667917 3.469444 2.606381e-18)
(2.279947 3.85432 0)
(0.8060245 0.5751661 0)
(-0.05620018 -0.410696 4.649431e-18)
(-0.4004637 -0.5334535 -7.841813e-19)
(-0.1819169 0.770416 1.248216e-18)
(0.09773681 0.6080643 -6.137023e-21)
(0.1531013 -2.354631 5.459428e-21)
(-0.2054622 -6.141332 0)
(-0.357601 -6.406197 -4.301514e-19)
(-0.3407693 -6.067562 4.660421e-19)
(-0.2147308 -5.65442 1.081244e-19)
(-0.2304635 -4.911107 -1.531352e-19)
(-0.1642164 -3.837027 -3.902462e-21)
(-0.1682527 -2.615493 3.969953e-21)
(-0.2879852 -1.304468 -8.058791e-21)
(-0.3691233 -0.0527229 8.31591e-21)
(-0.5772099 0.9516383 6.678693e-19)
(-0.8368253 1.907751 -1.348506e-20)
(-1.106653 2.726302 -9.41235e-19)
(-1.296613 3.316408 3.116605e-20)
(-1.364629 3.510666 -2.228255e-18)
(-1.238724 3.772679 -2.27125e-20)
(-0.7312991 3.105182 0)
(0.2489562 0.4672473 0)
(0.2008475 -0.4866026 -2.542266e-18)
(0.1366899 -0.5994642 -2.45956e-18)
(0.2546517 -0.5113241 -5.379839e-18)
(0.1052663 -0.3166494 -2.917416e-18)
(-0.7199351 0.4550127 0)
(-1.510443 1.202249 0)
(-1.862895 1.737389 -6.411261e-18)
(-1.725069 1.803801 -5.841907e-18)
(-1.065542 1.441922 2.846688e-20)
(-0.2468892 1.140089 -4.614737e-20)
(1.289588 -0.3523983 -1.942019e-18)
(1.110518 -1.290269 -8.715455e-19)
(0.9635451 -1.274065 1.23492e-18)
(1.58597 -1.135525 1.967905e-18)
(1.803707 -1.162057 2.402957e-18)
(1.038808 -1.140565 3.22818e-18)
(-0.8851375 -0.7858779 0)
(-2.843097 0.2229713 -1.477932e-19)
(-3.491853 1.50425 -1.109448e-17)
(-3.326032 2.814754 8.8307e-20)
(1.623764 1.309492 8.590583e-20)
(11.12544 -1.472499 -1.789927e-18)
(15.2562 -1.892286 -1.221821e-18)
(16.69008 -1.286804 -5.433053e-20)
(17.60546 -0.3161086 -6.920938e-19)
(17.74585 0.4566219 -3.255581e-19)
(17.26795 0.7717909 -2.655769e-21)
(17.1094 1.022976 0)
(17.27443 1.515701 -2.405394e-20)
(17.3243 2.109545 1.599681e-18)
(17.27497 2.744975 -6.29198e-18)
(17.13878 3.407668 4.862288e-20)
(16.93016 4.054392 -3.124262e-18)
(16.64564 4.686101 -9.378822e-20)
(16.29495 5.279312 -5.880935e-18)
(15.88574 5.849202 -3.125011e-21)
(15.43228 6.395908 5.563745e-18)
(14.9331 6.893011 -5.215849e-18)
(14.38209 7.345657 0)
(13.7876 7.743333 6.984061e-20)
(13.15355 8.091909 -7.027539e-20)
(12.48953 8.383475 0)
(11.79888 8.614931 3.59891e-18)
(11.09041 8.797096 6.836959e-20)
(10.37283 8.923662 2.809029e-18)
(9.644098 8.979225 -2.319467e-18)
(8.906406 8.967131 -1.889505e-18)
(8.168194 8.902602 -1.504543e-18)
(7.442425 8.782978 -1.031607e-18)
(6.731192 8.599294 6.185926e-21)
(6.033089 8.35304 -6.248767e-21)
(5.352715 8.052248 0)
(4.701904 7.687704 6.603491e-19)
(4.074389 7.26944 -2.010717e-20)
(3.484907 6.799455 1.508009e-18)
(2.933025 6.284147 1.853572e-18)
(2.428095 5.725833 -2.210292e-18)
(1.968345 5.128576 -1.290189e-18)
(1.558909 4.492896 -3.416702e-21)
(1.199851 3.822242 1.592024e-18)
(0.8980344 3.12567 2.751e-20)
(0.6451333 2.415391 1.791973e-18)
(0.4668131 1.677332 1.504338e-20)
(0.3288884 0.9301491 -1.006348e-18)
(0.2521161 0.2066754 -5.091391e-19)
(0.2372898 -0.4972323 -6.218097e-23)
(0.3199155 -1.241888 4.84607e-19)
(0.4321435 -2.027785 7.44935e-21)
(0.6075599 -2.805104 -8.903241e-19)
(0.8456541 -3.557582 1.667305e-18)
(1.139329 -4.28168 0)
(1.489429 -4.975154 -4.1439e-21)
(1.890207 -5.632527 -1.221432e-18)
(2.350296 -6.252354 1.073953e-18)
(2.851521 -6.838764 -1.744962e-18)
(3.40141 -7.373117 1.737857e-20)
(3.998112 -7.860094 -1.721309e-20)
(4.624984 -8.308437 -4.497355e-19)
(5.289945 -8.698155 0)
(5.994361 -9.032083 -4.611114e-19)
(6.715814 -9.323398 2.807312e-20)
(7.455384 -9.547607 -6.756034e-20)
(8.212172 -9.700273 -1.764734e-18)
(8.979502 -9.797202 -2.337211e-18)
(9.752551 -9.834924 -1.809627e-20)
(10.5309 -9.807064 3.153619e-18)
(11.30584 -9.721175 -5.3047e-20)
(12.06627 -9.573161 -4.031591e-18)
(12.8062 -9.357478 0)
(13.52245 -9.075943 4.830318e-18)
(14.21539 -8.738763 5.283593e-18)
(14.87743 -8.353921 5.450078e-18)
(15.50418 -7.910486 -5.772637e-18)
(16.08697 -7.41815 6.157169e-18)
(16.62349 -6.87626 0)
(17.11358 -6.292514 -1.341477e-17)
(17.54896 -5.681198 1.395878e-17)
(17.92193 -5.031697 -1.648549e-19)
(18.22769 -4.350954 -3.561621e-18)
(18.46648 -3.645089 -3.601516e-18)
(18.62952 -2.936898 0)
(18.70441 -2.226929 1.828424e-18)
(18.67405 -1.540996 -1.793167e-18)
(18.52718 -0.9176137 8.66901e-19)
(18.31319 -0.4476571 -2.071724e-19)
(18.35515 -0.2189276 -3.752302e-19)
(19.18813 -0.2701685 1.048958e-20)
(16.29158 -0.3264672 -1.4427e-18)
(11.72742 0.5668747 3.722877e-20)
(11.74872 2.526527 0)
(12.25473 3.619837 0)
(11.92857 3.791315 -5.760508e-20)
(10.86763 3.819357 6.00217e-20)
(8.156945 3.072309 0)
(1.85037 -1.682792 0)
(-5.94303 -5.763968 0)
(-7.152936 -4.285028 1.003938e-17)
(-6.838156 -2.937685 -1.531817e-17)
(-4.725534 -1.609876 4.722331e-18)
(-2.424458 -0.6294703 -2.721349e-18)
(-1.111244 -0.1929721 -5.814886e-20)
(-0.5096488 0.3202583 9.452533e-19)
(-0.03904914 1.03291 1.674815e-19)
(1.316937 2.11478 -4.36568e-21)
(3.563758 3.178734 -1.853937e-21)
(1.468076 0.1176874 5.896864e-21)
(-1.290089 -2.847224 -5.454384e-21)
(-1.847708 -2.735707 6.946013e-19)
(-1.928199 -2.09732 0)
(-1.261947 -0.7085027 8.760767e-19)
(-0.2547836 0.9086081 -1.153687e-18)
(0.7251382 2.492965 1.640606e-18)
(1.500901 3.385674 0)
(2.41865 3.86552 0)
(1.709087 2.096018 -2.867289e-20)
(0.6294703 1.002859 -1.848157e-18)
(-0.1440865 0.3725243 6.716702e-19)
(-0.2122015 0.5916102 -5.213266e-19)
(-0.02722443 -1.487982 0)
(0.1149472 -4.615225 0)
(-0.1193305 -6.567625 0)
(-0.3959479 -6.253772 -3.551963e-19)
(-0.4607709 -6.222717 -1.972036e-19)
(-0.3225118 -5.725161 -1.769484e-19)
(-0.3617138 -4.992701 6.24966e-20)
(-0.3190145 -3.935039 0)
(-0.3310039 -2.732233 -1.972425e-19)
(-0.4635167 -1.424093 0)
(-0.5103587 -0.1498019 -4.684346e-19)
(-0.7080739 0.8519304 0)
(-0.9550776 1.814496 0)
(-1.195628 2.64347 -7.613103e-19)
(-1.326408 3.23367 -1.747382e-18)
(-1.367165 3.482208 1.875588e-18)
(-1.137479 3.610906 -1.7895e-18)
(-0.781653 3.62711 1.693209e-18)
(-0.2027188 1.866855 0)
(-0.1553329 0.3895739 4.153849e-18)
(-0.03446355 -0.3172295 2.061815e-18)
(0.1037787 -0.3425631 2.302974e-18)
(-0.2426026 -0.05140216 -7.126847e-20)
(-1.166777 0.7196093 -7.915381e-20)
(-1.873327 1.396118 -2.473087e-18)
(-2.068621 1.901206 5.291327e-18)
(-1.784301 1.973302 2.394727e-18)
(-1.006616 1.573889 4.696452e-20)
(-0.003286454 1.156855 1.125021e-18)
(0.6548956 0.3512623 7.994848e-19)
(0.873002 -1.00891 7.369227e-19)
(2.145843 -1.868445 0)
(3.428466 -2.031646 -1.045854e-20)
(3.880963 -2.195456 0)
(3.26176 -2.371805 2.444322e-18)
(1.833664 -2.2813 3.959829e-18)
(0.3989946 -1.206663 7.348774e-18)
(-0.1355381 0.4849434 -3.101068e-19)
(0.4500509 2.17424 1.116854e-19)
(5.335591 1.417092 -2.863613e-18)
(14.40921 -1.220937 0)
(16.48073 -1.781954 -9.203974e-19)
(17.14209 -1.333496 -1.165276e-18)
(17.48089 -0.3761285 1.144325e-18)
(17.11755 0.4364115 2.612675e-19)
(16.81692 0.8862096 0)
(16.89733 1.305767 5.951565e-19)
(17.00965 1.8746 0)
(17.0383 2.497506 0)
(16.97772 3.13447 2.628037e-18)
(16.83998 3.785156 -4.007143e-20)
(16.63295 4.411844 4.468373e-20)
(16.3526 5.018402 -2.461557e-18)
(16.00791 5.580855 4.938466e-18)
(15.60498 6.120076 -4.697278e-18)
(15.16111 6.636569 -4.512019e-18)
(14.67741 7.094015 2.091119e-19)
(14.13993 7.514043 -1.300967e-19)
(13.56261 7.876922 -1.133694e-19)
(12.9451 8.196058 -3.245055e-18)
(12.2997 8.46039 -3.272789e-18)
(11.62826 8.66514 -8.467916e-20)
(10.93694 8.826577 2.673544e-18)
(10.2411 8.932047 0)
(9.535366 8.967067 1.909757e-18)
(8.815167 8.940953 1.555289e-18)
(8.0954 8.864366 1.151128e-18)
(7.390421 8.733981 8.487096e-19)
(6.698785 8.542198 0)
(6.020362 8.288305 0)
(5.356409 7.98477 -2.451606e-19)
(4.7245 7.616899 0)
(4.110525 7.199544 0)
(3.536156 6.731345 1.299521e-18)
(2.999932 6.218737 -2.972258e-20)
(2.503727 5.666634 -1.152899e-20)
(2.050988 5.075543 -3.502868e-20)
(1.649145 4.446292 2.41703e-18)
(1.298556 3.782245 0)
(1.006672 3.092485 0)
(0.7500383 2.394504 1.514862e-18)
(0.5775477 1.663661 7.556226e-19)
(0.4360243 0.9203801 8.107653e-19)
(0.3549985 0.2028367 -4.164895e-19)
(0.3387115 -0.5027499 0)
(0.4368876 -1.241975 -2.712817e-22)
(0.5514634 -2.021711 2.362309e-20)
(0.7173402 -2.793031 7.060308e-19)
(0.9478618 -3.536163 -1.366342e-18)
(1.235553 -4.248267 -3.786813e-20)
(1.579306 -4.929627 1.145091e-18)
(1.972769 -5.575862 3.341622e-20)
(2.425439 -6.186504 1.739413e-18)
(2.911191 -6.768032 -1.599569e-20)
(3.445985 -7.298072 -1.137288e-18)
(4.032034 -7.782284 2.89295e-20)
(4.642658 -8.231915 0)
(5.285629 -8.625201 6.404054e-20)
(5.97457 -8.962454 0)
(6.680616 -9.259681 0)
(7.397155 -9.49447 -1.103741e-18)
(8.133643 -9.657482 2.906956e-18)
(8.883229 -9.76603 6.309056e-20)
(9.634969 -9.819339 -1.205311e-19)
(10.39271 -9.808505 -2.59096e-18)
(11.14637 -9.744135 -2.898471e-18)
(11.88603 -9.619221 3.431037e-18)
(12.60402 -9.43085 -3.693276e-18)
(13.29808 -9.179663 -7.812694e-20)
(13.97363 -8.870346 0)
(14.61791 -8.518172 -4.718169e-18)
(15.22908 -8.107217 9.891127e-18)
(15.7972 -7.651201 -5.239155e-18)
(16.31987 -7.146892 0)
(16.80047 -6.598749 9.567554e-20)
(17.2278 -6.022043 -5.593678e-18)
(17.59439 -5.404425 -8.914006e-20)
(17.89646 -4.751685 1.425838e-19)
(18.13245 -4.071012 -9.225891e-20)
(18.29746 -3.378317 0)
(18.37758 -2.681133 -2.915048e-18)
(18.36456 -1.983581 1.39564e-18)
(18.24696 -1.319298 6.833243e-19)
(18.07595 -0.7531489 -1.0543e-20)
(17.81857 -0.3421367 3.083467e-19)
(18.57171 -0.3177998 5.614866e-19)
(19.17034 -0.1958305 0)
(18.41309 1.267182 1.542639e-18)
(17.75048 3.491512 -8.942983e-20)
(16.52357 4.529463 2.46079e-18)
(15.07642 4.521444 0)
(13.52112 4.23878 0)
(9.73545 2.813931 0)
(1.875354 -2.766352 5.219426e-20)
(-3.469883 -5.374859 5.348462e-18)
(-5.377557 -3.495581 -8.960923e-18)
(-5.17929 -1.660951 6.69818e-18)
(-3.49155 -0.4061397 -7.731038e-18)
(-1.329744 0.3972775 2.304027e-18)
(-0.09857101 0.684465 0)
(0.1813561 0.9259861 -7.67988e-19)
(0.0463245 1.268108 -1.312473e-19)
(0.6921524 1.862033 -1.988077e-19)
(3.153901 2.572789 7.306669e-21)
(1.342055 -0.7384129 4.142191e-21)
(-0.986394 -2.924465 -4.301008e-21)
(-1.784944 -2.705286 0)
(-2.006279 -1.93175 -7.326905e-19)
(-1.414641 -0.4685046 2.62283e-20)
(-0.4839297 1.112515 1.869648e-18)
(0.5529005 2.646795 -1.383744e-18)
(1.380617 3.415364 1.066389e-19)
(2.369184 3.684013 -1.864229e-18)
(2.266791 3.006662 0)
(1.26062 2.111626 -1.456076e-18)
(0.2023523 1.097062 5.303129e-19)
(-0.1789447 -0.1672209 -2.938589e-20)
(-0.03112617 -3.411237 4.80751e-19)
(0.1714737 -5.872721 -2.096044e-20)
(-0.0475591 -6.523164 7.529461e-21)
(-0.3838804 -6.365245 2.993175e-19)
(-0.4625073 -6.316435 -2.36816e-21)
(-0.412975 -5.802794 2.441767e-21)
(-0.5181901 -5.059716 2.963113e-21)
(-0.5038724 -4.0194 8.552429e-20)
(-0.5287501 -2.853657 1.606979e-19)
(-0.6679224 -1.564511 -1.631487e-19)
(-0.6828675 -0.2600292 3.820838e-19)
(-0.8657071 0.7449 0)
(-1.099154 1.719267 5.007166e-19)
(-1.304688 2.557417 6.599422e-19)
(-1.370144 3.143915 1.436104e-18)
(-1.354577 3.407686 0)
(-1.077425 3.476157 0)
(-0.7439775 3.754483 -1.398589e-18)
(-0.4895496 2.88423 -4.652892e-20)
(-0.4910421 1.393482 -1.593684e-18)
(-0.2443578 0.1549355 -1.69972e-18)
(-0.1157731 -0.08353687 -1.825506e-18)
(-0.6878598 0.2852572 1.926653e-18)
(-1.552145 0.906575 -1.940281e-18)
(-2.190941 1.552938 1.946095e-18)
(-2.254669 2.067943 -2.110898e-18)
(-1.822096 2.161308 0)
(-0.9251361 1.757506 0)
(0.273064 1.120702 -9.666877e-19)
(0.6627048 0.5295403 0)
(1.323607 -0.9894779 -2.218375e-20)
(3.724667 -2.473532 -1.134865e-20)
(5.396867 -2.835198 -1.169072e-18)
(5.972096 -3.189715 -4.360102e-20)
(5.637075 -3.665966 1.893382e-20)
(4.848799 -3.883588 -3.107734e-18)
(4.098564 -2.873748 4.441315e-21)
(3.552736 -0.7431002 3.821126e-18)
(4.809179 1.488132 -5.948702e-20)
(10.04105 1.394068 1.204178e-18)
(15.90592 -0.7592679 -3.588679e-20)
(15.86908 -1.519918 3.126235e-18)
(16.52786 -1.208874 2.682845e-20)
(16.92788 -0.3690706 -1.211748e-20)
(16.82167 0.3328826 -4.513496e-19)
(16.81076 0.7421204 -3.649558e-21)
(16.92588 1.10856 -4.921161e-19)
(17.03505 1.610252 -3.187292e-20)
(17.07085 2.186666 -9.922059e-19)
(17.00896 2.791978 2.052993e-18)
(16.86845 3.440114 -2.047235e-18)
(16.66617 4.056077 3.948136e-18)
(16.38752 4.680235 2.154784e-18)
(16.04464 5.257709 0)
(15.64015 5.815453 0)
(15.19655 6.353141 3.658816e-18)
(14.71355 6.829156 3.481752e-18)
(14.1762 7.266608 0)
(13.60167 7.640545 -9.109132e-20)
(12.98424 7.9733 2.942825e-18)
(12.33625 8.25602 2.607537e-18)
(11.6661 8.471582 2.274167e-18)
(10.98099 8.637741 -5.970969e-20)
(10.28742 8.754726 -1.697412e-18)
(9.579248 8.804972 4.218835e-20)
(8.863912 8.784097 -4.25937e-20)
(8.152791 8.710454 -9.704913e-19)
(7.451043 8.588729 6.46919e-19)
(6.755907 8.411479 0)
(6.085766 8.161226 0)
(5.424641 7.867073 4.191732e-19)
(4.801869 7.504407 -8.540025e-21)
(4.192433 7.09505 -8.165082e-21)
(3.633811 6.630436 -1.002047e-18)
(3.106542 6.124145 -2.533473e-18)
(2.604115 5.588416 1.423397e-18)
(2.154432 5.009244 -1.70462e-18)
(1.757183 4.390663 -9.452013e-19)
(1.414883 3.735561 -3.225184e-20)
(1.131203 3.050708 0)
(0.8692738 2.368131 -1.182264e-18)
(0.7117102 1.648867 -3.983749e-20)
(0.5646399 0.9093778 -6.738184e-19)
(0.4797755 0.1975649 3.567015e-19)
(0.4641815 -0.5105007 -2.965522e-23)
(0.5781885 -1.24124 -3.447054e-19)
(0.6860941 -2.017014 2.928923e-20)
(0.8460328 -2.778175 -6.156675e-19)
(1.06714 -3.502547 1.120489e-18)
(1.348188 -4.196691 -1.070529e-18)
(1.687279 -4.863995 2.862729e-21)
(2.076745 -5.497868 8.621693e-19)
(2.533816 -6.096562 -1.385432e-18)
(3.010625 -6.672256 1.161136e-18)
(3.534496 -7.196657 8.52195e-19)
(4.121307 -7.672307 8.549327e-21)
(4.739583 -8.109874 8.962283e-21)
(5.375412 -8.496201 -4.596215e-20)
(6.048153 -8.834541 -2.099601e-19)
(6.754177 -9.123586 2.178861e-20)
(7.469967 -9.348204 8.049212e-19)
(8.198795 -9.505 -2.339636e-18)
(8.940744 -9.609786 1.462216e-18)
(9.697586 -9.645667 -5.89134e-20)
(10.45293 -9.624834 -2.086109e-18)
(11.19934 -9.556191 4.771819e-18)
(11.93944 -9.417674 8.696101e-20)
(12.65482 -9.218454 2.864485e-18)
(13.34956 -8.950607 -3.318926e-18)
(14.02721 -8.624164 1.026601e-19)
(14.67046 -8.2586 -3.727689e-18)
(15.28218 -7.828804 -3.795911e-18)
(15.84953 -7.356325 1.298955e-19)
(16.37362 -6.828167 -4.327204e-18)
(16.8545 -6.257996 4.452335e-18)
(17.28143 -5.66191 0)
(17.64587 -5.026977 0)
(17.94399 -4.359929 2.386544e-18)
(18.17698 -3.679295 2.371428e-18)
(18.3424 -2.992121 0)
(18.4224 -2.311463 1.2474e-18)