/*--------------------------------*- C++ -*----------------------------------*\
| =========                 |                                                 |
| \\      /  F ield         | OpenFOAM: The Open Source CFD Toolbox           |
|  \\    /   O peration     | Version:  2406                                  |
|   \\  /    A nd           | Website:  www.openfoam.com                      |
|    \\/     M anipulation  |                                                 |
\*---------------------------------------------------------------------------*/
FoamFile
{
    version     2.0;
    format      ascii;
    arch        "LSB;label=32;scalar=64";
    class       surfaceScalarField;
    location    "0.14";
    object      phi;
}
// * * * * * * * * * * * * * * * * * * * * * * * * * * * * * * * * * * * * * //

dimensions      [0 3 -1 0 0 0 0];

oriented        oriented;

internalField   nonuniform List<scalar> 
6741
(
5.60858e-10
1.017112e-09
-1.57797e-09
-1.20894e-09
-8.531866e-11
1.294259e-09
1.672486e-09
-1.674789e-09
2.302326e-12
6.704756e-10
8.053541e-10
-1.47583e-09
1.564586e-09
-8.399654e-10
-7.246204e-10
2.045502e-09
-8.495887e-10
-1.195914e-09
-1.200033e-09
-2.395054e-10
1.439539e-09
-8.953114e-10
1.827678e-09
-9.323663e-10
1.629484e-10
2.073864e-09
-2.236812e-09
-1.527944e-09
3.188076e-10
1.209136e-09
-1.770347e-10
1.950649e-09
-1.773614e-09
1.281387e-09
-1.908514e-09
6.271268e-10
1.385738e-09
-1.98392e-09
5.981824e-10
1.861007e-09
-1.646641e-09
-2.143665e-10
-2.198355e-10
1.47665e-09
-1.256814e-09
3.411106e-09
-1.984551e-09
-1.426554e-09
-9.016158e-10
-5.692546e-10
1.47087e-09
1.242813e-09
-1.480976e-09
2.381635e-10
1.905548e-09
-1.761668e-09
7.994161e-10
-1.690394e-09
8.909776e-10
-2.352833e-09
1.268403e-09
1.08443e-09
4.318872e-10
-1.354049e-09
9.22162e-10
-1.659492e-09
1.360657e-09
2.98835e-10
4.664158e-10
1.479931e-09
-1.946347e-09
3.991804e-10
1.345324e-09
-1.744504e-09
1.731678e-09
-1.509017e-09
-2.226612e-10
1.781732e-09
-1.11675e-09
-6.64982e-10
-2.063037e-09
1.150874e-09
9.12162e-10
-1.397383e-09
1.601863e-09
-2.044799e-10
-4.655743e-09
6.933203e-10
3.962423e-09
-2.090969e-09
7.755096e-10
1.31546e-09
-1.472138e-09
1.097897e-09
3.742403e-10
1.728994e-09
-9.719752e-10
-7.570184e-10
2.697631e-09
-1.796659e-10
-2.517965e-09
4.042958e-09
2.083204e-09
-6.126161e-09
-1.336684e-09
1.591917e-09
-2.55233e-10
-1.492585e-09
-2.671844e-10
1.75977e-09
4.803213e-09
2.347638e-09
-7.150851e-09
1.757769e-09
-6.013335e-10
-1.156436e-09
-1.750538e-09
2.099173e-09
-3.486351e-10
1.502336e-09
6.411975e-10
-2.143533e-09
-7.365201e-10
-1.272631e-09
2.009151e-09
1.454828e-09
-2.052694e-10
-1.249558e-09
9.835653e-10
-1.567058e-09
5.834923e-10
-2.034213e-09
1.31408e-09
7.201336e-10
-1.471558e-09
5.988728e-10
8.72685e-10
-6.425558e-10
-1.125798e-09
1.768354e-09
-1.584949e-10
-1.557845e-09
1.71634e-09
-5.861227e-10
-1.364613e-09
1.950735e-09
5.891682e-10
1.263113e-09
-1.852281e-09
-1.677467e-09
1.715167e-09
-3.769931e-11
-1.30003e-09
3.973897e-10
9.026402e-10
1.408667e-09
-2.543146e-10
-1.154352e-09
1.892402e-09
-4.646542e-10
-1.427748e-09
-1.422414e-10
1.289273e-09
-1.147031e-09
4.582883e-10
1.337338e-09
-1.795626e-09
-1.657014e-09
1.434488e-09
2.22526e-10
-1.996811e-10
-1.625074e-09
1.824755e-09
-1.364821e-09
2.060628e-09
-6.958074e-10
5.802464e-10
-1.69392e-09
1.113673e-09
-8.777315e-10
-4.435113e-10
1.321243e-09
-1.516933e-09
1.042347e-09
4.745853e-10
-1.446911e-09
1.539158e-09
-9.224645e-11
4.355249e-10
1.42089e-09
-1.856415e-09
-2.320376e-09
1.192357e-09
1.128019e-09
1.475351e-09
-1.14658e-09
-3.287708e-10
-1.765843e-09
1.392149e-09
3.736946e-10
4.737982e-10
1.005036e-09
-1.478835e-09
6.790639e-09
-7.254302e-09
4.636623e-10
-1.865564e-09
3.338525e-10
1.531711e-09
4.327779e-10
-2.028612e-09
1.595834e-09
1.38052e-09
-1.593583e-09
2.130631e-10
1.444573e-09
-3.00455e-10
-1.144118e-09
1.485833e-09
-2.001195e-09
5.153624e-10
5.122516e-09
1.079797e-09
-6.202313e-09
-1.255397e-09
1.362391e-11
1.241773e-09
2.163656e-09
-7.096436e-10
-1.454012e-09
1.63718e-09
-2.161525e-10
-1.421028e-09
-1.61778e-09
-4.409494e-10
2.05873e-09
1.959146e-09
-2.352185e-09
3.930389e-10
3.690148e-10
1.277986e-09
-1.647001e-09
1.101535e-09
-1.211456e-09
1.099204e-10
-8.618674e-10
-1.697114e-10
-1.638778e-09
-4.047937e-10
2.043571e-09
-1.621134e-09
1.224249e-09
3.968843e-10
-5.027678e-10
2.182843e-09
-1.680076e-09
9.697213e-10
-1.661476e-09
6.917547e-10
5.83705e-10
2.458253e-09
-3.041958e-09
-5.615007e-10
-1.166747e-09
1.728248e-09
8.091231e-10
-1.638091e-09
8.28968e-10
2.387962e-10
-1.463395e-09
1.224599e-09
1.289008e-09
3.184221e-10
-1.60743e-09
-2.728205e-10
2.019156e-09
-1.746336e-09
-8.913059e-11
-1.704416e-09
1.793546e-09
-9.619993e-10
1.57052e-09
-6.085206e-10
-5.690734e-12
-2.942139e-09
2.94783e-09
8.814167e-10
-1.871857e-09
9.904401e-10
-1.567182e-10
1.232852e-09
-1.076134e-09
-1.380167e-09
-9.139053e-11
-6.021795e-09
3.906801e-09
2.114995e-09
1.408783e-09
-7.383078e-10
1.374087e-09
-1.735266e-09
3.611785e-10
-3.078425e-09
5.83979e-11
3.020027e-09
-2.374296e-09
-3.068982e-09
5.443278e-09
4.650308e-10
-2.103808e-09
1.936169e-10
1.393548e-09
-1.587165e-09
-1.90752e-09
1.419399e-09
4.881213e-10
-2.175588e-09
6.190546e-10
-2.942319e-10
2.013067e-09
-1.718835e-09
1.157665e-09
-1.741496e-09
5.838319e-10
1.095592e-09
-8.119972e-10
-2.835943e-10
-1.958227e-09
1.056611e-09
-7.328099e-10
-7.609456e-10
1.493755e-09
-1.13183e-09
1.650731e-09
-5.189008e-10
1.119601e-09
-3.396511e-11
-1.085636e-09
1.704732e-09
-2.601583e-10
-1.609516e-09
2.000641e-10
1.409452e-09
-1.933577e-09
1.003163e-09
9.304132e-10
-1.583917e-09
-1.03936e-10
1.687853e-09
-2.430841e-09
2.4392e-09
-8.359455e-12
-9.767468e-10
-1.767777e-10
1.153524e-09
3.339008e-09
8.323674e-10
-4.171376e-09
1.674058e-09
-1.349068e-09
-3.249901e-10
-1.158825e-09
-8.753885e-10
1.24568e-09
-1.556795e-09
3.111147e-10
-1.053323e-09
-7.889797e-10
1.842302e-09
3.020956e-09
-3.197464e-09
1.765075e-10
-3.013291e-09
4.057922e-10
2.607498e-09
-1.831272e-09
1.601398e-09
2.298744e-10
2.143171e-09
-3.473247e-10
-1.795846e-09
-2.411254e-11
-1.294562e-09
1.318674e-09
-1.374119e-09
-6.055206e-10
1.97964e-09
4.93559e-10
1.087198e-09
-1.580757e-09
2.424988e-09
-2.214858e-09
-2.101303e-10
-1.623706e-09
8.843578e-10
7.393484e-10
1.528774e-09
-2.387002e-09
8.582283e-10
-1.943835e-09
1.476849e-09
4.669853e-10
-1.48381e-09
1.254371e-09
2.294387e-10
-8.509614e-10
-1.212075e-09
1.75816e-10
-2.712828e-09
2.537012e-09
3.494877e-09
-5.869174e-09
-6.915071e-11
-1.861597e-09
1.930748e-09
1.013834e-09
-1.597595e-09
5.837608e-10
-1.160437e-09
-3.675073e-10
-1.249e-09
2.322632e-09
-1.073632e-09
-1.664166e-09
2.244412e-09
-5.608326e-10
-1.218071e-09
1.778904e-09
1.149765e-09
-1.205196e-09
5.543099e-11
-1.38602e-09
1.229302e-09
-7.747617e-10
-5.021099e-10
1.276872e-09
1.199689e-09
-1.065583e-09
-1.341059e-10
-2.689771e-09
1.197185e-09
-2.002551e-09
-2.357668e-10
2.238317e-09
4.192448e-09
-1.34997e-09
-2.842478e-09
1.059895e-09
8.156477e-10
-1.875543e-09
1.141213e-11
-1.046762e-09
1.03535e-09
1.976797e-09
-1.227515e-09
-7.492827e-10
1.418995e-09
1.347912e-11
-1.432474e-09
5.952206e-10
-1.975933e-09
1.380712e-09
1.649233e-09
-2.386281e-09
7.370481e-10
2.096861e-09
-1.88015e-09
-2.167107e-10
-1.938967e-09
6.74218e-09
1.90025e-09
-1.955186e-10
-7.864858e-10
1.546765e-09
-7.602797e-10
1.070192e-09
-1.297534e-09
-3.213328e-09
2.204163e-10
2.992912e-09
2.259336e-10
1.314574e-09
-1.540508e-09
1.49182e-09
6.286809e-10
-2.120501e-09
1.104219e-09
3.603146e-10
-1.464534e-09
8.646116e-10
7.227777e-10
-1.587389e-09
-1.960607e-09
5.863686e-10
1.374239e-09
3.017508e-09
-2.07548e-09
-9.420284e-10
7.542622e-09
-3.499664e-09
-9.682627e-10
5.528058e-10
1.579872e-09
-2.132678e-09
-4.32218e-10
-8.896023e-10
1.32182e-09
-1.801059e-09
1.704016e-09
9.704322e-11
-8.064936e-10
1.858267e-09
-1.051773e-09
-1.185984e-09
1.385201e-09
-1.992172e-10
-7.673334e-10
-1.163729e-09
1.931062e-09
-2.470562e-10
-1.334978e-09
1.582034e-09
2.059994e-09
-5.901746e-10
-1.46982e-09
-5.64661e-10
-8.638213e-10
1.428482e-09
-3.462449e-09
3.263834e-09
1.986151e-10
-1.019249e-09
1.922384e-09
-9.031353e-10
-2.813567e-10
-7.389355e-10
1.020292e-09
1.123301e-09
5.507568e-10
1.734582e-09
-1.181776e-09
-2.094506e-10
-1.094157e-09
1.303607e-09
1.632125e-09
-6.624041e-10
3.581482e-10
-1.732267e-09
3.137571e-11
-1.428759e-09
7.901906e-10
-2.35225e-09
1.56206e-09
-1.456686e-09
-5.320867e-10
-1.166017e-09
-5.63852e-10
1.729869e-09
-1.693298e-09
6.027089e-10
1.090589e-09
-4.692465e-10
1.293889e-09
-8.246424e-10
-1.640363e-09
9.708436e-10
6.695191e-10
-1.097358e-09
-5.317547e-10
1.629113e-09
4.847915e-10
-1.997234e-09
1.512442e-09
9.581849e-10
4.63935e-10
-1.42212e-09
8.331827e-11
-1.600251e-09
1.708917e-09
-4.982681e-10
-1.210649e-09
-9.550727e-10
1.899199e-09
-9.441263e-10
5.131633e-09
-2.195262e-09
-2.936371e-09
-1.853445e-09
1.683811e-09
1.696334e-10
-6.522149e-10
1.527552e-09
-8.753371e-10
1.642865e-09
-2.041216e-09
3.983512e-10
1.697558e-09
-3.785247e-10
-1.319034e-09
-4.737029e-10
1.290615e-09
-8.169124e-10
-1.306241e-09
1.645329e-09
-3.390884e-10
-5.072632e-09
7.645533e-09
-2.572901e-09
1.650554e-10
1.685596e-09
-1.850651e-09
5.351958e-10
-1.539511e-09
1.004315e-09
9.469049e-10
8.108072e-10
-1.757712e-09
-8.849633e-10
-1.328387e-09
2.213351e-09
1.224355e-10
-1.569347e-09
2.41089e-09
-1.971326e-10
-2.213758e-09
-1.053346e-10
-1.478582e-09
1.211276e-09
4.502574e-10
-1.661534e-09
-1.694163e-09
1.702907e-09
-8.744121e-12
-1.83224e-09
-4.375655e-10
2.269806e-09
-2.974133e-12
1.939892e-09
-1.936917e-09
2.229633e-09
-5.637972e-10
-1.665836e-09
-1.463951e-09
1.439844e-09
2.410789e-11
-1.67275e-09
7.233746e-10
9.493752e-10
2.086681e-09
-4.747231e-10
-1.611958e-09
-1.189833e-09
-4.212637e-10
1.611096e-09
-1.36481e-09
-2.451514e-10
1.609961e-09
3.598405e-10
-1.42536e-09
1.06552e-09
1.491106e-09
-1.514027e-09
2.292161e-11
1.214007e-10
1.417757e-09
1.919002e-09
-2.502966e-09
5.839642e-10
1.067858e-09
-1.750371e-09
6.825128e-10
1.763034e-09
-2.055874e-09
2.928391e-10
-7.520537e-10
1.803991e-09
-1.051937e-09
1.523322e-09
-7.499251e-10
-7.73397e-10
-1.293316e-09
1.59119e-09
-2.978744e-10
1.114465e-09
-8.238146e-12
-1.106227e-09
4.814242e-10
1.784743e-09
-2.266167e-09
1.208961e-09
-1.604859e-09
3.958983e-10
3.075918e-11
-1.394309e-09
1.36355e-09
3.204308e-09
-2.702246e-09
-5.020621e-10
1.406225e-09
-5.366404e-11
-1.352561e-09
8.870305e-10
6.775552e-10
1.870424e-09
-9.284807e-09
7.414383e-09
-8.356963e-10
-2.26352e-09
3.099216e-09
3.889024e-10
-8.255677e-09
7.866774e-09
1.752713e-09
-1.749832e-09
-2.880465e-12
3.386081e-10
5.67977e-09
-6.018378e-09
2.101674e-09
-2.26326e-09
1.61586e-10
-1.522811e-09
-9.587017e-11
1.618681e-09
7.971358e-10
-1.322727e-09
5.255914e-10
1.143317e-09
-4.183852e-10
-7.249319e-10
-1.410488e-09
1.441247e-09
1.438339e-09
-4.834405e-10
-9.548988e-10
1.125975e-09
5.099589e-10
-1.635934e-09
-8.57907e-10
1.816092e-09
1.488668e-09
-8.233848e-10
-6.65283e-10
1.528307e-09
-6.39644e-10
-8.886628e-10
1.953094e-09
-1.079889e-09
-8.732052e-10
1.480578e-09
-9.781542e-10
-5.02424e-10
1.448287e-09
-1.435258e-09
-1.302872e-11
1.588223e-10
-1.374479e-09
1.215657e-09
8.239481e-10
2.716434e-10
-1.820761e-10
-1.477416e-09
-3.495308e-10
-7.787509e-09
8.13704e-09
-1.628793e-09
2.181283e-09
-5.524897e-10
1.667714e-09
-1.310653e-09
-3.570609e-10
1.179186e-09
4.431108e-10
-1.622297e-09
1.900508e-09
-2.280219e-10
-4.272513e-10
-1.851166e-09
2.278417e-09
8.319794e-10
7.194814e-10
-1.551461e-09
6.413766e-10
1.255773e-09
-1.89715e-09
-1.523333e-09
-8.517861e-11
1.608512e-09
-8.532016e-10
8.915954e-09
-8.062753e-09
4.326732e-11
1.658087e-09
-1.701354e-09
-2.779549e-09
1.988007e-09
7.915429e-10
-8.833094e-10
2.024132e-09
-1.140822e-09
1.53519e-09
-9.450034e-10
-5.901861e-10
1.186263e-09
-1.538253e-09
3.519902e-10
1.385276e-09
-1.286942e-09
-9.833448e-11
-1.497499e-09
7.121612e-10
7.85338e-10
-1.945514e-09
-1.41738e-09
3.362894e-09
1.432437e-09
1.993049e-10
-1.631742e-09
-1.58405e-09
-1.101128e-10
5.28067e-10
-1.931066e-09
1.402999e-09
9.196003e-10
9.667e-11
-1.01627e-09
3.913382e-09
-2.761016e-09
-1.152366e-09
-3.32026e-10
1.555407e-09
-1.223381e-09
-9.367525e-10
2.021357e-09
-1.084604e-09
2.264622e-09
-4.900884e-10
1.738229e-09
-1.248141e-09
1.22392e-10
-1.222482e-09
1.10009e-09
1.894495e-09
-3.540018e-10
-1.540493e-09
1.340226e-09
4.879187e-10
-1.828145e-09
9.388678e-10
5.364827e-10
-7.393881e-10
1.753222e-09
1.731999e-10
1.731176e-09
-1.904376e-09
1.882481e-09
-7.316068e-10
-3.23127e-10
-1.650182e-09
1.973309e-09
4.905291e-10
-1.705722e-09
1.215193e-09
-2.248904e-09
4.536936e-10
1.79521e-09
-4.543066e-10
1.672734e-09
-1.218428e-09
-1.146721e-09
1.263772e-09
-1.170515e-10
1.171845e-10
1.257825e-09
-1.375009e-09
-1.527567e-09
8.228406e-10
7.047261e-10
2.09812e-09
-4.155148e-09
2.057028e-09
-1.617038e-09
1.648121e-09
-3.108288e-11
4.889904e-10
-1.632426e-09
1.143436e-09
-1.050508e-09
1.857217e-09
-8.067083e-10
-5.204911e-10
-1.170155e-09
1.690646e-09
6.109899e-10
-1.754957e-09
1.143967e-09
-1.867235e-09
1.227741e-09
6.394941e-10
2.275465e-09
-1.335828e-09
-9.396369e-10
-5.122431e-10
-8.412342e-10
1.353477e-09
1.675671e-11
-1.468802e-09
1.452045e-09
-1.698576e-09
-1.277622e-09
2.976198e-09
5.043492e-10
-1.466348e-09
1.19101e-09
7.387798e-10
-1.92979e-09
-2.49532e-09
-5.951044e-10
3.090424e-09
9.60369e-10
5.202092e-10
-5.935395e-10
-8.03371e-10
1.396911e-09
-9.434316e-10
-8.178175e-10
1.761249e-09
1.128516e-09
7.239065e-10
-1.852422e-09
-1.08851e-09
-3.541216e-10
-1.366089e-09
1.720211e-09
-1.180927e-09
1.783454e-09
-6.025267e-10
-1.5801e-09
7.291386e-10
-2.452301e-10
2.209809e-09
-1.964579e-09
1.594912e-09
-8.895323e-10
-7.053793e-10
2.281028e-09
-4.31055e-10
-1.849973e-09
1.144643e-10
-1.467912e-09
1.353448e-09
1.036234e-09
-1.952051e-09
9.15817e-10
1.04156e-09
6.341897e-10
-1.67575e-09
4.339728e-10
-1.979643e-09
1.545671e-09
-1.580986e-09
1.766117e-09
-1.851313e-10
1.573733e-09
-2.919335e-10
-1.281799e-09
1.350204e-09
-1.211604e-09
-1.386002e-10
1.198054e-09
1.727139e-10
-1.370768e-09
-1.173744e-09
-4.01555e-10
1.575299e-09
-1.029088e-09
-5.849092e-10
1.613997e-09
-1.61255e-09
-6.363542e-10
6.555089e-10
-2.173982e-09
1.518473e-09
1.505858e-10
-1.722143e-09
1.571558e-09
-1.577797e-09
5.852886e-10
9.925087e-10
8.493684e-10
-1.655862e-09
2.138921e-09
-2.082091e-09
-5.682929e-11
-2.797452e-10
-1.329946e-09
1.609692e-09
1.926137e-09
-1.554287e-09
-3.718497e-10
-3.195558e-10
-1.515697e-09
1.835253e-09
-3.224118e-10
-3.065641e-09
3.388053e-09
1.995866e-09
-1.205675e-09
-1.37295e-09
3.932323e-09
-2.559373e-09
-4.314361e-09
1.03155e-09
3.282811e-09
-1.755078e-09
1.288616e-09
4.664616e-10
-1.498829e-09
1.225172e-09
2.736566e-10
1.077759e-09
-1.547006e-09
1.549209e-09
-1.405416e-10
7.77525e-10
1.044347e-09
-1.821872e-09
-1.596069e-09
1.264043e-09
1.026115e-09
-2.275115e-09
1.32895e-09
-7.807161e-10
-5.48234e-10
7.930311e-10
-1.136784e-09
3.437532e-10
-2.181038e-09
1.360061e-09
8.209772e-10
-3.606921e-10
1.215487e-09
-8.547949e-10
-2.062934e-09
4.341402e-10
-1.401863e-10
1.6576e-09
-1.517414e-09
6.343735e-09
-4.473311e-09
-5.086782e-09
-7.484433e-10
5.835225e-09
1.089093e-09
-8.558271e-10
-2.332662e-10
-2.249385e-11
1.142095e-09
-1.852018e-09
2.1364e-09
-2.843813e-10
1.001962e-09
6.116655e-10
-1.613627e-09
-2.990123e-09
1.793424e-09
1.196698e-09
3.466792e-10
-1.875918e-09
1.529239e-09
6.828061e-10
1.020091e-09
-1.702897e-09
-1.636098e-09
5.694966e-11
1.579149e-09
-1.824627e-10
-1.327305e-09
1.509768e-09
-3.172507e-11
-1.747691e-09
1.779416e-09
1.802376e-09
-1.313385e-09
8.318017e-11
-1.571241e-09
1.48806e-09
8.956365e-10
-2.228539e-09
1.332902e-09
5.141731e-10
-1.565058e-09
1.050885e-09
-8.128237e-10
1.895002e-09
-1.082178e-09
-2.040547e-09
1.741713e-10
1.866375e-09
1.964049e-09
1.32812e-10
1.271668e-09
1.100966e-10
-1.381764e-09
1.426043e-09
-6.182816e-10
-8.077614e-10
-8.828173e-10
-4.868219e-10
1.369639e-09
1.258818e-09
-1.982319e-09
7.235011e-10
-4.221956e-11
2.730292e-09
-2.688073e-09
1.949333e-09
-5.034066e-10
-1.445926e-09
1.166452e-09
-2.061836e-09
8.953835e-10
1.588719e-09
3.730291e-10
-1.961748e-09
1.970981e-09
-1.214732e-09
-7.562496e-10
1.31373e-09
2.927919e-10
-1.606522e-09
-5.692423e-10
1.869193e-09
-1.299951e-09
-1.496855e-09
9.466431e-10
5.502116e-10
-8.216234e-10
2.135703e-09
2.107173e-09
-1.047278e-09
-1.804957e-09
1.172594e-09
6.32363e-10
-7.033925e-11
-1.255027e-09
1.325366e-09
-1.445237e-09
1.322956e-09
1.222804e-10
7.506581e-10
-2.105774e-09
1.355116e-09
-1.287594e-11
1.706674e-09
-1.693798e-09
1.297633e-09
-1.177535e-09
-1.200977e-10
2.402597e-10
1.989374e-09
1.820798e-09
-1.400875e-09
-4.199226e-10
-2.907506e-09
4.642776e-09
-1.73527e-09
-5.087712e-10
-1.515799e-09
2.02457e-09
2.332872e-09
-1.127192e-09
-1.20568e-09
9.954099e-10
-1.715825e-09
7.204154e-10
1.846129e-09
-9.591934e-10
-8.869356e-10
-1.921119e-09
2.210377e-09
-2.892579e-10
-9.102949e-10
1.497052e-09
6.072804e-10
-2.104332e-09
1.1006e-09
7.868714e-10
-1.887472e-09
-1.473024e-09
1.518212e-09
-4.518832e-11
7.118795e-10
-1.085353e-09
3.734736e-10
-1.868439e-09
3.294872e-10
1.538952e-09
9.399062e-10
-2.091694e-09
1.151788e-09
4.236739e-09
-1.858509e-09
-2.37823e-09
-1.641731e-09
1.869229e-09
-2.274984e-10
2.024678e-09
-1.695491e-09
-3.291876e-10
3.069512e-11
1.309531e-09
2.052864e-09
-1.683849e-09
1.842706e-09
-4.457691e-10
-1.396937e-09
1.9483e-09
-1.398793e-09
-5.495065e-10
1.403519e-10
1.609327e-09
-1.749679e-09
3.703954e-10
1.485922e-09
-1.856318e-09
1.466311e-09
-1.09246e-09
-3.738509e-10
-2.354804e-09
-2.300939e-09
-3.223868e-10
1.359822e-09
-1.037436e-09
-1.584552e-10
-1.829847e-09
1.988302e-09
-2.253655e-09
2.511042e-10
3.888198e-10
-1.904088e-09
1.515268e-09
-1.04815e-09
-5.615232e-10
1.609673e-09
-1.172054e-09
1.363129e-09
-1.910749e-10
1.821324e-09
-1.562217e-09
-2.591066e-10
1.442397e-09
-1.82736e-09
3.84963e-10
1.499393e-09
-1.059706e-09
-4.396873e-10
-1.790612e-09
1.644647e-09
1.459654e-10
8.618454e-10
-2.370678e-09
1.508833e-09
1.724557e-09
-1.659672e-09
-6.488499e-11
-9.805662e-10
1.559853e-09
-5.792872e-10
-1.665085e-09
2.849176e-10
1.6925e-09
-4.58132e-10
-1.234368e-09
7.014836e-11
1.267164e-09
-1.337313e-09
-2.678299e-09
1.142502e-09
1.535798e-09
-1.642206e-10
1.565643e-09
-1.401422e-09
-6.81887e-10
-1.240801e-09
2.772382e-09
-1.531581e-09
-2.130203e-10
-1.234605e-09
1.447626e-09
1.998207e-09
-5.887972e-10
-1.40941e-09
1.230925e-09
-9.810142e-10
-2.499111e-10
-1.852645e-09
1.311528e-09
5.411169e-10
3.050105e-10
-2.440391e-09
2.135381e-09
-4.015925e-09
2.323567e-09
1.692358e-09
-4.837015e-09
1.533627e-09
3.303388e-09
2.776052e-09
-3.611748e-09
1.25709e-09
-2.02306e-09
7.659701e-10
-4.745243e-10
1.731614e-09
1.903481e-09
-9.498579e-10
-9.536232e-10
-2.184098e-09
1.299135e-09
1.471797e-09
-8.338067e-10
-6.379906e-10
8.334977e-10
-2.449087e-09
1.615589e-09
1.684268e-09
-1.248743e-09
-1.533748e-09
1.676193e-09
1.570583e-09
-1.222962e-10
-1.54004e-09
1.773748e-09
-2.337081e-10
-1.189583e-09
-4.674311e-10
4.130699e-10
-1.663046e-09
1.249976e-09
-1.69221e-09
1.322633e-09
3.695772e-10
2.005407e-09
-2.139292e-10
-1.791477e-09
-1.905131e-09
6.167776e-10
1.288353e-09
1.404917e-09
-6.273916e-10
1.370569e-09
3.763718e-10
-1.746941e-09
1.807323e-09
1.544036e-10
-1.961727e-09
-3.754404e-09
9.45743e-10
2.80866e-09
-1.348166e-09
-2.644447e-10
1.61261e-09
-6.454586e-09
1.746184e-09
4.708402e-09
-1.983838e-09
-3.254802e-10
2.309318e-09
3.437872e-10
-1.858726e-09
1.514939e-09
3.194726e-09
2.163798e-10
-2.350271e-09
1.606952e-09
7.433182e-10
1.244355e-09
-6.163616e-10
-6.279933e-10
-4.398531e-11
-1.777919e-09
1.821904e-09
1.454743e-09
5.04927e-10
-1.95967e-09
-1.676187e-09
1.108909e-09
5.672786e-10
1.133244e-10
-1.4165e-09
1.303175e-09
-1.935838e-09
5.757314e-10
1.360107e-09
4.444188e-10
-4.75878e-09
1.443448e-09
-1.013723e-09
-4.297256e-10
1.091516e-09
4.458885e-10
-1.537405e-09
8.383007e-10
-1.740826e-09
5.392912e-10
1.201534e-09
-4.511522e-09
7.296308e-10
3.781891e-09
1.570688e-09
2.23562e-10
-1.79425e-09
-4.554068e-11
1.700029e-09
-1.654488e-09
-7.598206e-10
1.191708e-09
8.776894e-10
1.219406e-09
-2.097096e-09
8.701588e-10
-1.612387e-09
7.422281e-10
-1.635024e-09
7.397123e-10
-2.089258e-09
1.061968e-09
1.02729e-09
-1.225259e-09
1.066764e-09
-9.614801e-10
9.708639e-10
-9.383859e-12
-1.32219e-09
2.293505e-09
-9.71315e-10
1.108728e-09
1.213904e-09
2.03847e-09
1.051026e-09
-3.089495e-09
-5.057966e-10
-1.415946e-09
1.921742e-09
-1.891221e-09
1.85852e-09
3.270036e-11
-6.669559e-10
-9.306388e-10
-8.305737e-10
3.142458e-09
-2.311885e-09
1.377583e-09
-9.959727e-11
1.283465e-09
-1.76899e-09
4.85525e-10
-8.955958e-10
1.733889e-09
-8.38293e-10
7.489099e-10
-1.95804e-09
1.20913e-09
-3.013175e-09
1.758248e-09
1.254927e-09
-2.110402e-10
-1.039224e-09
1.250265e-09
-1.082554e-10
1.251189e-09
-1.142934e-09
-4.683729e-09
9.403095e-10
-1.96124e-09
1.020931e-09
-8.934234e-10
1.798901e-09
-9.054779e-10
2.829269e-11
1.319314e-09
-1.347606e-09
8.6857e-10
6.200978e-10
-1.801155e-09
8.498446e-10
9.513108e-10
1.678557e-09
-3.168587e-10
-1.361699e-09
6.191665e-10
5.73011e-10
-1.192177e-09
1.658484e-09
-5.593271e-10
-1.099157e-09
2.097024e-09
8.420038e-10
-2.939027e-09
1.790151e-09
-3.353231e-10
9.476138e-10
-1.545827e-10
-1.208072e-09
3.303406e-10
3.181317e-10
1.720028e-09
-2.038159e-09
-9.141699e-10
-9.438671e-10
1.858037e-09
1.041349e-09
-1.576492e-09
5.351438e-10
-7.889958e-10
1.700372e-09
-9.113765e-10
6.209182e-10
-1.451746e-09
8.308275e-10
3.96599e-10
1.180208e-09
-1.576807e-09
-1.466883e-09
7.809865e-10
6.858966e-10
8.330971e-10
-1.725266e-09
8.92169e-10
1.666311e-09
-4.907332e-10
-1.175578e-09
-8.659089e-10
1.72923e-09
-8.633209e-10
-1.246511e-09
2.20688e-09
-1.20157e-09
1.40089e-09
-1.9932e-10
-3.361579e-09
8.662592e-10
-1.424797e-09
1.299613e-09
1.251837e-10
-6.382402e-10
-1.514069e-09
2.15231e-09
1.078658e-09
-1.101152e-09
7.956684e-10
-1.66487e-09
8.692018e-10
1.302643e-09
5.787169e-10
-1.88136e-09
-7.28315e-10
-1.083954e-09
1.812269e-09
1.905055e-09
-6.236682e-10
-2.222347e-09
7.367665e-10
1.48558e-09
1.857652e-09
3.369267e-10
-2.194578e-09
1.884846e-09
-3.099966e-09
1.21512e-09
-2.815545e-10
-1.33656e-09
1.618115e-09
-1.129595e-09
-7.872724e-10
1.916867e-09
-7.926645e-10
-1.116229e-09
1.908894e-09
-2.062076e-09
6.168393e-10
-1.234787e-09
1.728346e-09
1.466255e-09
-8.470885e-10
5.681393e-10
-2.40038e-09
3.880936e-10
-1.247348e-09
9.403276e-10
3.0702e-10
-2.726526e-09
3.880278e-09
-1.153751e-09
5.012267e-10
1.391175e-09
1.647179e-09
-1.631343e-09
-1.583551e-11
1.355658e-09
-3.254959e-10
-1.030162e-09
9.532672e-10
9.461877e-10
-1.899455e-09
1.398716e-09
3.539972e-10
1.971608e-09
-1.175939e-09
1.316721e-09
-1.290614e-09
-2.610757e-11
1.365489e-09
-1.167282e-09
-1.982074e-10
1.709867e-09
-9.824008e-10
-7.274667e-10
1.451841e-09
-5.783415e-11
-1.394007e-09
9.994357e-11
1.621147e-09
-1.72109e-09
9.524091e-10
-2.026042e-09
1.291184e-09
-8.289392e-10
1.408487e-09
-5.795473e-10
1.976842e-09
-1.266009e-09
-7.10833e-10
-1.524461e-09
1.582759e-09
-5.8298e-11
3.129862e-09
-5.908278e-09
2.778416e-09
-4.18378e-09
4.179324e-09
4.455462e-12
1.309567e-09
-1.226387e-09
-1.089595e-09
-8.337433e-10
1.923338e-09
1.922068e-09
-1.231889e-09
-6.90179e-10
2.004616e-09
-4.377347e-10
-1.566882e-09
-7.358121e-10
-9.824925e-10
1.718305e-09
-1.518761e-09
-3.12511e-10
-4.916366e-11
-1.287063e-09
1.336227e-09
1.200158e-09
1.818695e-09
-3.018853e-09
4.78495e-10
-1.480623e-09
1.002128e-09
-7.34021e-10
-7.142132e-10
1.448234e-09
-1.027916e-09
-4.284792e-10
1.456395e-09
1.804942e-09
2.817392e-10
1.116248e-09
6.971763e-11
-1.185966e-09
1.710424e-09
-1.712109e-09
1.684769e-12
-1.034476e-09
1.202107e-09
-1.676311e-10
-1.377684e-09
5.197765e-10
-1.116385e-09
9.413558e-10
1.75029e-10
2.069718e-09
-7.549864e-10
-1.314731e-09
-1.952456e-09
1.127491e-09
8.249646e-10
-1.289484e-09
1.412534e-09
-1.230501e-10
-6.247225e-10
1.753239e-09
-9.816992e-10
1.644955e-09
-6.632559e-10
3.397166e-10
1.423009e-09
-1.762726e-09
-7.635916e-10
-8.368115e-10
1.600403e-09
-1.544914e-09
-2.165636e-10
1.761478e-09
-1.27389e-09
7.385671e-11
-1.821274e-09
4.218652e-10
1.399409e-09
-2.682714e-11
-2.282021e-09
2.308848e-09
1.600925e-09
3.949415e-10
-1.304494e-09
2.290077e-10
1.075486e-09
-3.493855e-09
2.653331e-09
8.405235e-10
-1.430247e-09
1.908742e-09
1.846511e-10
-3.939055e-09
-1.621954e-09
-3.138846e-10
8.117319e-09
-8.117319e-09
1.593194e-09
-1.399577e-09
-1.777758e-09
4.794527e-10
1.298305e-09
1.144451e-09
6.524377e-10
-1.796889e-09
-1.293061e-09
4.632069e-09
1.244031e-09
6.572201e-09
-7.816232e-09
-1.225483e-09
1.823129e-09
-5.976459e-10
6.991007e-10
-1.81637e-09
1.117269e-09
1.102164e-09
-3.05028e-10
1.036254e-09
-1.541245e-09
5.049905e-10
8.978415e-10
-1.94835e-09
2.026764e-09
-4.680878e-10
-1.558676e-09
1.279938e-09
9.384879e-10
-2.218426e-09
1.942864e-09
-2.936313e-10
9.607454e-10
9.923489e-10
3.660452e-10
1.391724e-09
-2.010665e-09
1.875527e-09
-1.907252e-09
1.908585e-09
2.218017e-10
-2.130387e-09
1.405303e-09
2.155452e-10
-1.620848e-09
-1.134129e-09
1.635356e-09
-4.887698e-10
-4.378531e-09
4.8673e-09
-1.774254e-10
-1.374562e-09
1.551987e-09
9.130286e-10
-1.021284e-09
1.640055e-09
-1.657695e-09
6.095455e-10
2.790046e-09
4.64952e-11
-2.836541e-09
1.199752e-09
-8.258845e-10
-3.73867e-10
5.382437e-10
1.045157e-09
-1.5834e-09
1.253754e-11
1.442205e-09
1.252629e-09
-1.882598e-09
6.299691e-10
-1.781421e-10
-2.548384e-09
3.475912e-10
-1.446032e-09
1.098441e-09
-1.359741e-09
1.411606e-09
-1.294421e-09
-1.209804e-09
1.138422e-09
7.138205e-11
1.805126e-09
4.8005e-10
-2.285176e-09
1.475188e-10
1.695187e-09
1.37119e-09
-1.271246e-09
5.146861e-10
-1.67282e-09
1.158134e-09
-6.691266e-11
-1.310771e-09
1.3942e-10
1.293017e-09
-1.896385e-09
2.868693e-10
-1.756444e-09
1.441526e-09
3.149175e-10
-1.975127e-09
1.354581e-10
1.839669e-09
-8.957148e-11
-1.492357e-09
1.581929e-09
1.412222e-09
6.176657e-10
-2.029888e-09
1.888829e-10
-1.175827e-09
9.869442e-10
2.314737e-09
1.758832e-09
1.467159e-10
-1.190147e-09
1.843969e-10
1.00575e-09
-1.146314e-09
-1.79363e-09
2.939944e-09
3.905639e-10
1.586005e-09
-1.976568e-09
-2.095205e-09
2.150549e-10
3.727775e-10
-2.238436e-09
1.865659e-09
-7.222126e-10
-3.579158e-11
-1.313276e-09
1.716066e-09
-2.560212e-10
-1.460045e-09
9.981546e-10
-1.730341e-09
7.321861e-10
-4.334759e-09
4.367192e-09
-3.243268e-11
-1.825958e-09
1.448223e-09
3.75017e-09
-4.271986e-09
5.218164e-10
6.405543e-09
1.897336e-09
6.053089e-10
1.276859e-09
-1.882168e-09
1.585765e-09
-2.49606e-09
1.489033e-09
-1.743002e-09
2.53969e-10
9.684827e-10
5.033147e-10
5.941341e-10
8.20053e-10
-1.414187e-09
-1.729841e-09
2.323975e-09
-1.257553e-09
1.000845e-09
2.56708e-10
6.721121e-11
1.55751e-09
-1.624722e-09
1.878508e-09
-1.835241e-09
9.459219e-10
4.924174e-10
1.997575e-10
1.728885e-09
-1.928642e-09
3.116376e-10
1.377363e-09
-1.638628e-09
2.612651e-10
1.632885e-09
-2.135653e-09
1.546657e-10
9.239927e-10
-1.827022e-09
1.974886e-09
-1.478645e-10
5.342992e-10
1.518107e-09
-2.052406e-09
-1.092862e-09
-4.831403e-10
1.576002e-09
5.687335e-10
-3.134593e-10
-8.275594e-10
1.141019e-09
-7.700212e-11
1.64769e-09
3.333841e-10
-1.807778e-09
1.474394e-09
1.003789e-09
4.39659e-10
-1.077559e-09
-4.506855e-10
1.528245e-09
-1.557337e-10
1.770799e-09
-1.615065e-09
4.931753e-10
1.339637e-09
-1.832812e-09
-8.734932e-10
-9.524644e-10
-1.807962e-10
-2.459848e-09
-2.581278e-10
1.853183e-09
5.246474e-10
-1.206559e-09
6.819112e-10
-9.233516e-11
1.741334e-09
-1.648999e-09
6.263185e-10
-1.339011e-09
7.126925e-10
-2.110362e-09
6.519378e-10
1.458424e-09
-2.635033e-10
1.835411e-09
-1.571908e-09
1.398346e-09
8.405964e-11
-1.482406e-09
1.13372e-09
8.300293e-10
-1.963749e-09
-4.377229e-10
-1.274233e-09
1.711956e-09
1.129155e-09
-1.864967e-09
-1.243207e-09
-3.139115e-10
1.557119e-09
1.056698e-09
-1.940008e-09
-1.6062e-09
1.617569e-09
-1.136901e-11
-1.671499e-09
-7.619143e-11
-1.595149e-09
1.761361e-09
-1.66212e-10
7.393786e-10
-1.669807e-09
9.304279e-10
-1.87991e-09
3.882478e-10
1.491663e-09
-8.137927e-11
1.122086e-09
-1.040707e-09
-7.109487e-10
8.192421e-09
-7.481472e-09
-1.116551e-09
1.434682e-09
-2.001455e-09
7.981601e-10
1.203295e-09
1.309887e-09
4.350787e-09
-4.024014e-10
-3.948385e-09
1.39204e-09
-1.978162e-09
2.994242e-09
-4.287303e-09
7.818569e-10
6.230597e-10
1.544508e-09
-1.99833e-09
7.08954e-10
1.289376e-09
8.41059e-09
-8.41059e-09
1.2238e-09
-1.29684e-09
7.304002e-11
-8.555357e-11
-2.177706e-09
-2.511605e-10
-1.64333e-09
1.89449e-09
-1.605425e-09
1.630225e-09
-2.479959e-11
1.688933e-10
1.295192e-09
-1.464085e-09
1.171124e-09
2.498053e-10
-1.42093e-09
-4.997034e-10
2.169637e-09
-1.669933e-09
-2.276814e-10
-1.252856e-09
1.480537e-09
-3.317343e-10
-1.409091e-09
1.873299e-09
-5.126413e-10
-1.334831e-09
1.165673e-09
1.691576e-10
-8.066207e-10
2.075536e-09
-1.268916e-09
-5.185323e-10
2.010352e-09
-8.760203e-11
-1.731947e-09
1.819549e-09
-5.503677e-10
-1.360854e-09
1.911222e-09
4.093178e-10
1.36603e-09
-1.775348e-09
4.964198e-10
1.135706e-09
-1.940524e-09
6.510401e-10
-1.453842e-09
-6.033136e-10
2.057155e-09
-1.797365e-09
3.947516e-10
1.402613e-09
-2.016368e-09
3.839665e-11
1.977971e-09
3.123708e-10
-1.947446e-09
1.635075e-09
-1.72008e-09
1.130431e-09
-1.796296e-09
6.658652e-10
-1.777611e-09
1.514108e-09
1.305894e-09
-2.757197e-09
1.451303e-09
-4.176478e-09
2.087506e-09
2.088973e-09
-1.986212e-09
-6.920876e-10
8.282838e-10
-1.461288e-09
6.330042e-10
1.793834e-09
-9.447343e-10
-8.490993e-10
-1.28789e-09
5.131282e-10
1.658541e-09
-2.018658e-09
3.601169e-10
-1.240629e-09
-5.940038e-11
6.802108e-09
-4.192453e-09
-2.609655e-09
-1.301544e-09
4.529748e-10
8.485694e-10
8.429029e-10
-1.594957e-09
-1.160412e-09
-3.518953e-10
1.512307e-09
1.236362e-09
-1.416155e-09
-8.669084e-10
-4.427544e-10
1.309663e-09
2.691172e-09
4.922779e-09
-9.170936e-10
1.821125e-09
-9.040312e-10
1.772529e-09
1.064597e-10
-1.878989e-09
8.076465e-10
-2.098509e-09
-2.738506e-09
-9.334391e-10
1.975786e-09
-1.470834e-09
1.677085e-09
-8.218094e-10
-8.552752e-10
2.169261e-10
1.269849e-09
-1.486775e-09
3.978326e-10
-1.053553e-09
-3.857745e-10
-1.049484e-09
-4.106948e-09
5.074453e-10
1.066287e-09
1.562366e-09
-1.341615e-09
-2.207509e-10
5.653256e-10
-1.594414e-09
1.569985e-09
-5.864194e-10
9.379275e-10
2.974586e-10
-1.235386e-09