/*--------------------------------*- C++ -*----------------------------------*\
| =========                 |                                                 |
| \\      /  F ield         | OpenFOAM: The Open Source CFD Toolbox           |
|  \\    /   O peration     | Version:  2406                                  |
|   \\  /    A nd           | Website:  www.openfoam.com                      |
|    \\/     M anipulation  |                                                 |
\*---------------------------------------------------------------------------*/
FoamFile
{
    version     2.0;
    format      ascii;
    arch        "LSB;label=32;scalar=64";
    class       volVectorField;
    location    "0.14";
    object      U;
}
// * * * * * * * * * * * * * * * * * * * * * * * * * * * * * * * * * * * * * //

dimensions      [0 1 -1 0 0 0 0];

internalField   nonuniform List<vector> 
4536
(
(0.009867031 -0.001940096 -9.375741e-24)
(0.01009722 0.0004815059 0)
(0.01050801 -0.0006534327 -7.747112e-26)
(0.00920674 -0.001876038 -4.78809e-24)
(0.009485873 -3.28106e-05 -2.960548e-23)
(0.009273623 -0.0002560728 2.051731e-23)
(0.01008373 0.0004481469 -9.176757e-24)
(0.01015047 0.000424623 -1.695106e-23)
(0.01155427 -0.00020635 1.583691e-24)
(0.009819278 0.0005310082 5.100252e-24)
(0.01086049 -0.001050737 0)
(0.01067898 -0.0005066506 0)
(0.01032899 -0.001357451 -1.689437e-24)
(0.009841982 0.0003406919 0)
(0.01009228 0.0005550112 -1.893714e-23)
(0.01053691 0.0002136162 1.766037e-23)
(0.009991068 0.0008577072 1.164693e-23)
(0.0104968 -0.0007832642 0)
(0.00961876 -0.0001590942 -3.739886e-24)
(0.009160979 0.00245172 1.223408e-23)
(0.01013859 0.0002943484 9.297078e-24)
(0.01018917 0.0004158475 1.43608e-23)
(0.01080356 -0.0002637039 -2.201679e-25)
(0.01031011 0.0008619711 -7.23148e-24)
(0.01104494 -0.0003439762 0)
(0.00899516 0.0002830681 0)
(0.01027953 0.0004082706 6.64557e-24)
(0.01010372 0.0003577765 -6.645808e-26)
(0.009056875 -0.001398973 0)
(0.01055752 -0.0001162558 -9.187367e-24)
(0.01088925 0.0006756631 0)
(0.0104545 -0.0004454904 -1.67578e-24)
(0.009816027 0.0006467764 4.363558e-23)
(0.01061315 0.0001369763 6.823237e-24)
(0.01039655 0.0001758733 4.107329e-24)
(0.009818026 0.0004523371 0)
(0.01002569 0.0003907167 -6.524449e-24)
(0.009996537 0.0001530407 0)
(0.01009463 0.0003959875 7.577314e-24)
(0.01165334 -4.90343e-05 1.203429e-24)
(0.01056065 0.0007581446 5.127253e-24)
(0.01083186 0.0002027333 4.213886e-26)
(0.01005069 0.0003929167 0)
(0.009134042 0.001059976 2.373168e-23)
(0.01147791 -5.751187e-05 3.961954e-24)
(0.009889619 -0.001952658 -5.703557e-24)
(0.01030268 0.0007918753 0)
(0.01075216 0.0003894772 0)
(0.01048706 -0.0009266691 0)
(0.00979349 0.000761153 -2.030931e-23)
(0.0103988 0.00228526 0)
(0.009436638 0.0006317405 2.544001e-23)
(0.01031229 0.0004614289 1.081897e-23)
(0.0109063 -0.0006957701 3.161844e-25)
(0.008885962 -7.550246e-05 0)
(0.009835843 0.0003142911 0)
(0.00947015 0.0004636264 4.277697e-23)
(0.01069633 0.0005731634 0)
(0.01063803 -0.00127547 0)
(0.01035033 -0.0007428149 4.947153e-25)
(0.009448493 0.001947958 -3.967711e-24)
(0.01063476 0.0008268404 6.259813e-24)
(0.01066291 -0.0009635628 0)
(0.01005534 0.0009172076 2.843247e-23)
(0.01043164 0.0003527763 2.298688e-23)
(0.01079327 -4.385643e-05 -6.138326e-24)
(0.01010423 0.0005146538 -7.40505e-24)
(0.01084068 0.0001040215 6.017019e-24)
(0.01006945 5.414276e-05 -4.902098e-24)
(0.01085875 -7.962e-05 -2.214893e-25)
(0.01056198 0.0005844914 0)
(0.009767729 0.0005791974 3.563102e-23)
(0.01086042 -0.0002928199 0)
(0.01032816 -0.001523764 0)
(0.01001792 0.0001114464 8.244689e-24)
(0.01097966 -0.0004696717 0)
(0.01127048 0.0003756632 0)
(0.01008019 0.0006809641 0)
(0.01020729 -0.001770823 0)
(0.01136928 -0.0008326942 -4.739507e-25)
(0.01068845 0.0006679586 0)
(0.008019108 -5.888241e-05 0)
(0.006336238 0.002199155 4.305929e-23)
(0.0104904 -0.001382424 3.526707e-24)
(0.009643165 0.000941622 0)
(0.01055389 0.0006523398 -1.605597e-23)
(0.01040726 0.0004545265 0)
(0.01031623 0.0002891246 -1.7958e-23)
(0.01058455 0.0004826252 0)
(0.009491309 0.002484355 1.409797e-23)
(0.01008054 0.0005238742 8.701188e-24)
(0.009601151 0.0002352683 -2.263922e-23)
(0.009708473 0.0004478143 0)
(0.01107848 0.0007040148 2.409397e-24)
(0.01026223 0.0005978888 1.365464e-23)
(0.009970561 0.0003290556 -1.032103e-23)
(0.01110486 -0.0002745533 -3.076461e-24)
(0.01011263 0.0005714809 2.335358e-23)
(0.01003657 -0.001906227 -7.852361e-24)
(0.01051485 -8.164952e-05 2.239455e-24)
(0.009029606 -0.00187349 0)
(0.01058481 -0.0003023675 1.433981e-24)
(0.0105882 0.0001688013 0)
(0.009961366 0.0002014179 1.990698e-24)
(0.01050047 -0.001430467 -7.106125e-24)
(0.01059121 -0.0008316521 0)
(0.01060662 0.0004013403 -9.215877e-24)
(0.01026147 -0.0008043446 0)
(0.01070167 0.001055784 0)
(0.01118365 0.001546767 0)
(0.007073946 0.001440243 -3.863258e-23)
(0.01000544 0.0008276152 -8.025833e-24)
(0.0102049 0.0003710441 1.828461e-23)
(0.009680031 0.0005302187 0)
(0.01002999 0.0004663036 2.965474e-24)
(0.01085106 -0.000324257 7.881421e-25)
(0.009753727 -0.001384374 4.076763e-24)
(0.01027805 0.0003713383 1.135995e-23)
(0.009928198 0.0004432093 0)
(0.01070319 8.543891e-05 1.039097e-25)
(0.01079899 -0.000192858 7.921837e-25)
(0.01055938 7.360703e-05 -8.616866e-24)
(0.01060455 -0.0003892457 3.553961e-24)
(0.01150689 0.0001725399 0)
(0.01140219 0.001329489 1.193176e-24)
(0.008510732 0.002650892 -2.197383e-23)
(0.009908444 0.0003007955 -1.428432e-23)
(0.01044806 0.0002828547 -9.677238e-24)
(0.01142259 0.0004366984 6.612218e-24)
(0.00975837 0.0003434755 0)
(0.009688457 -0.001298 0)
(0.01089222 -0.00056146 1.367629e-24)
(0.009197763 0.0005795776 0)
(0.0102293 0.0003455448 1.85609e-23)
(0.008800924 0.0006327216 7.748579e-25)
(0.01015937 0.0003320403 1.16744e-24)
(0.01024932 -0.001481053 0)
(0.01111898 -4.728606e-05 1.777255e-24)
(0.01009917 0.0003528576 0)
(0.01060257 0.0002108343 -5.231103e-24)
(0.009975138 0.0001946458 0)
(0.0114787 -0.0007330289 0)
(0.01073851 0.0001816862 0)
(0.009819304 0.0005093649 -1.707477e-23)
(0.01018514 0.0003246069 8.552477e-26)
(0.01034766 -0.0007042572 -3.948292e-25)
(0.0115104 0.001005634 -1.804753e-24)
(0.01040408 0.001816525 3.320948e-24)
(0.01011893 0.0005579644 -1.454093e-23)
(0.008929088 4.408893e-05 -3.495725e-23)
(0.01021417 0.0004460574 0)
(0.01001491 0.0003842917 2.187164e-23)
(0.01137648 -0.0006804642 -2.531428e-26)
(0.01046996 0.000217256 0)
(0.009468166 8.870447e-05 3.453695e-23)
(0.009494954 0.0005153408 6.668072e-24)
(0.009599525 6.20568e-05 1.792224e-23)
(0.01123429 0.0007810998 1.496458e-23)
(0.01001453 0.0006837761 -1.967002e-24)
(0.01079099 -0.0004800053 1.414375e-24)
(0.01136657 4.359101e-05 0)
(0.009999447 0.0001863454 5.741151e-25)
(0.01082717 -0.0003313668 0)
(0.009868703 0.0003775099 -3.533206e-23)
(0.007628819 0.003036164 3.322758e-23)
(0.01001838 0.000275959 -2.72872e-23)
(0.01079192 4.956131e-05 -4.257162e-24)
(0.01031063 0.0003423687 0)
(0.01053178 -0.0004338279 -6.526023e-25)
(0.009206586 0.002264599 -3.723063e-23)
(0.009631611 -9.149672e-07 -3.502651e-23)
(0.009976305 0.0003861605 0)
(0.01039914 0.0001409454 -1.256607e-23)
(0.006200891 0.001891827 5.431362e-23)
(0.01051338 0.0005794697 -3.428344e-25)
(0.009521958 -5.290654e-05 -9.337738e-24)
(0.01127682 4.086724e-05 -3.562812e-24)
(0.01017506 0.0003908327 -2.088188e-24)
(0.01027371 0.00133922 0)
(0.01046627 0.0003457267 0)
(0.01062541 0.0003123586 -3.608549e-24)
(0.01010882 0.0003372612 -5.77369e-24)
(0.007710484 0.0004992884 0)
(0.00983422 8.478038e-05 1.465709e-23)
(0.009328214 -0.0001850507 -1.732341e-23)
(0.008307705 0.0004608007 -3.063423e-23)
(0.01058909 -0.000389518 2.087825e-26)
(0.01052279 0.000551361 -1.738363e-23)
(0.0111779 8.353434e-05 -3.787706e-24)
(0.01041724 0.0004669515 0)
(0.01091898 -0.0005726562 -1.327762e-24)
(0.009130701 -0.001459288 -3.841621e-24)
(0.01111034 -0.0003694727 0)
(0.009967853 -0.0009366954 5.217891e-25)
(0.01049416 -0.0004306065 -1.759807e-24)
(0.008827533 0.001229003 -2.731754e-23)
(0.009067208 0.001740036 0)
(0.009528934 0.001389619 2.197421e-23)
(0.009456586 0.001178634 0)
(0.009924177 0.0004741816 -6.647343e-24)
(0.0107497 0.001295703 -4.552318e-24)
(0.01058494 0.0008159396 -4.927119e-24)
(0.01013006 0.0003927512 7.562656e-24)
(0.01015804 0.0004428296 0)
(0.01001043 0.000141787 0)
(0.01038376 0.0009858958 0)
(0.01063666 0.0007377338 1.493682e-23)
(0.01046094 -0.001283863 -4.710903e-24)
(0.01018017 0.0006327766 0)
(0.00898861 0.00286291 -9.534341e-24)
(0.01025302 -0.001259408 3.682387e-24)
(0.01020916 0.0001460653 0)
(0.01122138 0.0006845112 -9.951077e-24)
(0.008957129 0.0006170497 0)
(0.01052369 0.0003028457 0)
(0.01012525 0.0003419495 -2.242994e-23)
(0.01071945 -0.000927302 5.690644e-25)
(0.01159743 -0.0003872525 -5.077092e-25)
(0.009923564 0.0004282286 0)
(0.009853042 0.0007033421 6.004492e-24)
(0.01133455 0.0006037125 -7.336379e-24)
(0.010432 0.0003905355 -8.580525e-24)
(0.0116531 0.0002042498 8.633916e-26)
(0.01123529 -0.0006065885 2.152481e-25)
(0.01094706 -0.0003818208 1.621668e-25)
(0.01049456 0.0004444537 1.347639e-23)
(0.01044097 0.0006332914 2.215905e-23)
(0.009982232 -0.001460795 -7.423947e-24)
(0.01035755 0.0009081445 5.537092e-24)
(0.0105192 -0.00102273 0)
(0.01067635 0.0004931117 -6.867272e-24)
(0.0106313 -0.0009456292 0)
(0.01068641 -2.883548e-05 0)
(0.00954788 0.0009624856 2.159196e-23)
(0.01159401 0.0005852333 4.495332e-24)
(0.009362709 0.0008336553 0)
(0.007262942 2.73973e-05 -4.987373e-23)
(0.009835949 0.0005936453 -1.019713e-23)
(0.01022068 0.0004137772 -5.659154e-24)
(0.01095492 0.000353657 5.899868e-24)
(0.01075368 -0.0005935834 -5.774327e-25)
(0.009549862 0.00039132 -2.281928e-23)
(0.01057546 0.0001291356 7.663273e-24)
(0.01057302 0.0004095985 -1.512409e-23)
(0.009461638 -3.630141e-05 5.991447e-25)
(0.01041969 -3.919473e-05 1.485976e-24)
(0.01061161 -0.0001582548 -3.288377e-24)
(0.01016696 0.0001017808 1.730756e-24)
(0.01008417 0.0004121271 -1.366246e-23)
(0.01052726 3.327562e-05 9.916822e-25)
(0.01162643 -0.0001615117 8.023e-25)
(0.009673805 0.0003294773 -3.301442e-23)
(0.008130388 0.0006665316 -3.764544e-23)
(0.007738929 0.001936613 0)
(0.009571917 0.0004120582 -1.886549e-23)
(0.01100026 0.001599565 -1.286866e-23)
(0.01095345 -0.000151555 -4.432291e-24)
(0.01077948 0.001340335 0)
(0.01056849 -0.0003532899 -2.916973e-24)
(0.01069062 -0.0004128202 -1.756175e-24)
(0.01007376 0.0003729915 -2.6363e-23)
(0.01023625 0.0005190789 2.278178e-23)
(0.00964579 0.0002867767 7.365988e-25)
(0.009390015 -0.00129374 5.786405e-24)
(0.006849458 0.001572177 -4.320289e-23)
(0.01080866 -0.0002438662 5.565006e-24)
(0.01043755 2.287751e-05 -7.659834e-24)
(0.01095767 0.0004600012 1.10409e-23)
(0.00934024 0.0005590284 -1.475363e-25)
(0.009847942 0.0007478858 -1.20891e-25)
(0.01048559 -0.0006333882 -7.870844e-26)
(0.01064668 0.0001857351 -8.284009e-24)
(0.009513293 -0.001741224 3.378252e-24)
(0.009684793 0.0007161151 -1.028141e-23)
(0.0101646 0.0003794639 -4.628054e-24)
(0.0104422 -1.943749e-05 -9.929577e-25)
(0.01141092 0.0006638447 -1.801926e-24)
(0.01062102 1.465834e-05 7.888136e-24)
(0.009748763 0.0002008698 2.982386e-23)
(0.009215763 1.781872e-05 -2.452637e-23)
(0.01091381 0.000943382 1.100513e-23)
(0.0101209 0.001221522 2.943613e-24)
(0.008690275 0.0009421688 2.045345e-23)
(0.01002027 0.0003348919 1.989537e-23)
(0.009847321 -0.00108108 0)
(0.01131608 0.0006777644 7.77454e-24)
(0.01085798 0.0005535626 -9.725002e-24)
(0.008680468 0.001484353 3.549625e-24)
(0.009938988 0.0003139492 7.572159e-24)
(0.01059749 -0.0003540694 -3.332333e-24)
(0.01097694 -0.0006766859 0)
(0.01158838 -0.000238313 -8.065337e-25)
(0.01150755 0.001131907 -1.130105e-23)
(0.01017789 0.0006714829 3.681547e-23)
(0.01030941 0.0009624187 0)
(0.0103307 0.000738426 1.931548e-23)
(0.01079408 -6.087468e-05 -9.655068e-24)
(0.01075511 0.000179604 8.612075e-24)
(0.01014884 0.000783247 1.406045e-23)
(0.01011265 0.0003549767 -6.49574e-24)
(0.01073939 7.871694e-05 4.383097e-25)
(0.01075743 -1.801665e-05 0)
(0.01102866 0.0003713204 6.075591e-24)
(0.01080681 -0.0009092103 2.658639e-25)
(0.009431365 -0.001135402 5.48952e-24)
(0.009401859 -0.001399052 -8.084038e-25)
(0.009263215 -0.001781723 1.978757e-24)
(0.01049353 -0.0002177567 2.752246e-24)
(0.01116345 0.0002927387 0)
(0.009746133 0.0006203912 1.812821e-23)
(0.01033976 0.0004241462 0)
(0.008896956 0.0003601686 2.444273e-23)
(0.009166163 -8.565876e-05 -6.08216e-23)
(0.01053501 0.0003276938 2.722913e-23)
(0.01125458 6.972703e-05 2.160382e-25)
(0.01026403 0.0004354212 -2.113084e-23)
(0.01011081 0.000890623 9.032125e-24)
(0.009806193 0.0001331574 -1.176094e-23)
(0.01025764 0.000580818 1.06944e-23)
(0.01027227 0.0005126153 1.311565e-23)
(0.01011443 0.000253658 0)
(0.01024889 0.0005249772 1.070836e-23)
(0.01023047 0.0004417722 1.104743e-23)
(0.01029869 0.0004212414 -1.474315e-23)
(0.009651787 0.0006598131 0)
(0.00887828 0.0005864855 -7.445932e-25)
(0.0108519 0.0004589613 2.621117e-24)
(0.01013338 0.0004842275 1.823155e-23)
(0.01009069 0.0003563372 -2.060496e-23)
(0.01086465 0.0003101097 4.419064e-24)
(0.01082387 -0.0001654038 0)
(0.01084509 0.0002528916 -1.121523e-23)
(0.01063128 -0.0004063811 0)
(0.01100995 -0.0002436952 -2.355703e-24)
(0.009377862 -0.001577508 4.193612e-24)
(0.01068002 -0.0001615952 -3.267898e-24)
(0.01039331 0.001297512 -9.225982e-24)
(0.009803953 0.001095298 1.719437e-23)
(0.01019224 0.001283042 3.603e-23)
(0.01002406 0.001048996 2.646954e-23)
(0.01094789 4.010462e-06 0)
(0.00937214 0.001296507 1.86565e-23)
(0.01101655 0.0004153362 -6.328466e-24)
(0.01121767 -0.001044182 0)
(0.01082006 0.0008146385 0)
(0.008733405 0.000787619 -2.124715e-23)
(0.01016429 0.0003968801 0)
(0.0106172 0.000244971 2.186049e-23)
(0.01015095 0.0006905491 5.050622e-24)
(0.01064343 0.001586879 9.590461e-24)
(0.009563246 0.0002813934 4.801928e-23)
(0.01042529 0.0002478931 0)
(0.0111253 -0.0004162799 -1.555801e-24)
(0.01030016 0.0002503171 1.141502e-23)
(0.009935361 0.0001083555 3.913878e-23)
(0.009733207 0.0003710211 6.200887e-24)
(0.009645822 0.0004146522 -2.360096e-23)
(0.008923017 0.001706599 -2.741392e-23)
(0.01032044 0.0004705614 0)
(0.008440981 -0.0001874127 -2.314356e-23)
(0.01059789 -0.000333753 -3.565085e-24)
(0.01017837 0.0003112656 2.315257e-23)
(0.008144451 0.0004093021 -2.630225e-23)
(0.009976848 0.001512877 4.671923e-24)
(0.01020917 0.0003451436 -3.575913e-23)
(0.006948506 0.002917702 2.123762e-23)
(0.01091806 0.0004602079 -1.237612e-23)
(0.01037863 -0.001759808 -9.022269e-25)
(0.01044093 -5.542261e-05 -6.772085e-24)
(0.01044251 -0.0001156054 -2.822557e-24)
(0.009218314 8.888865e-05 -2.612905e-24)
(0.01003123 0.0004788816 -2.959075e-23)
(0.01131995 0.0002776237 0)
(0.009996431 0.002062618 0)
(0.01017616 0.0002870017 -1.474446e-23)
(0.01068465 -0.001205153 0)
(0.0108619 0.00172409 -3.725373e-24)
(0.009461886 0.0007044869 -2.056724e-23)
(0.01076428 -5.077771e-05 -1.276391e-23)
(0.01169733 -0.0001037338 -8.983861e-25)
(0.009714227 0.0006200546 4.195865e-23)
(0.009980287 0.0005826621 0)
(0.01019614 0.0008987167 -1.666271e-23)
(0.01022821 0.0004832458 2.067542e-23)
(0.01078838 0.000192789 3.725846e-24)
(0.01163364 0.0003893327 3.422389e-24)
(0.0113436 -1.465623e-05 0)
(0.009643416 0.0001149846 4.544299e-23)
(0.008335562 0.002240556 -5.038496e-23)
(0.007164012 0.001073432 -4.199255e-23)
(0.009714516 0.0003413674 0)
(0.01065512 -7.635843e-05 5.535096e-25)
(0.01124602 -0.0004931072 -5.766062e-25)
(0.009965537 0.0004794468 -9.775154e-24)
(0.01105901 6.497758e-05 5.110573e-24)
(0.01071072 -0.0004444766 -2.286694e-24)
(0.00945869 0.0002767323 4.98113e-24)
(0.01037723 0.001945799 0)
(0.01065792 0.002017206 2.932566e-24)
(0.01136357 -0.0002029619 -2.915439e-24)
(0.009441805 5.69938e-05 -2.090537e-24)
(0.00919099 -0.001964615 4.29668e-24)
(0.009533127 0.0002431163 -8.063946e-24)
(0.009305576 0.0001007339 -1.645633e-23)
(0.01032713 0.0003847391 0)
(0.009677409 0.0001630964 1.596649e-23)
(0.009610678 0.0001444637 -1.69441e-23)
(0.01120327 -0.0006733452 -4.477086e-25)
(0.01065484 -0.0002705591 -1.435225e-24)
(0.01011647 0.0001997139 2.854561e-23)
(0.01066993 -0.0006924008 -6.913737e-25)
(0.009996708 0.0003762292 1.846062e-23)
(0.009323197 0.0002608868 -1.980497e-23)
(0.00936116 -4.914262e-05 -4.829849e-23)
(0.01121202 -0.0009570982 -1.71268e-24)
(0.0104877 -0.0002410494 -3.741594e-24)
(0.01114447 0.0007897452 9.384912e-24)
(0.01099241 0.001311749 7.277795e-24)
(0.01065174 0.0003311925 1.101068e-23)
(0.01002782 -0.001111734 3.110652e-24)
(0.01069029 -0.00110878 0)
(0.01132884 0.001307316 0)
(0.009949242 0.0002627112 -1.295655e-23)
(0.01093327 5.560222e-05 6.212448e-24)
(0.01019559 0.0008189676 -8.726944e-24)
(0.0103491 0.0007636758 -8.095546e-24)
(0.01068375 0.0006350084 -9.415891e-24)
(0.01087371 0.0008582966 0)
(0.01040968 0.0006689506 -7.362992e-24)
(0.01047281 0.000806395 -7.236143e-24)
(0.009744612 0.0002786585 3.389366e-23)
(0.01141317 0.001205599 1.029507e-23)
(0.01056553 -9.559013e-05 3.784551e-25)
(0.01044754 -0.0008826636 0)
(0.01119875 -0.0003702893 4.334491e-25)
(0.0114254 -0.0006527389 1.413351e-25)
(0.009989664 0.0004675508 -1.609079e-23)
(0.008853171 0.0002293473 3.916739e-23)
(0.01034527 -0.0009921018 -1.462644e-24)
(0.009901967 0.0004389496 -2.979116e-23)
(0.009918137 0.0005059075 1.617087e-23)
(0.008801613 0.0004621197 -1.72573e-25)
(0.01093004 -0.001377639 -1.222064e-23)
(0.0102904 0.000326273 0)
(0.01039111 0.001070224 -1.80041e-23)
(0.009281089 0.001022079 -1.85844e-23)
(0.01001683 -0.001915711 4.169708e-24)
(0.01154677 -0.0005249463 1.733296e-24)
(0.01076636 -0.0008119151 5.734041e-25)
(0.009753323 0.0001003956 3.857511e-23)
(0.01030887 0.001256478 1.849492e-23)
(0.008202577 0.002953674 0)
(0.01015908 0.0003045644 1.335837e-23)
(0.009314768 -0.001182542 -5.180305e-24)
(0.009901184 0.0006288236 1.263257e-25)
(0.009606015 0.00154146 3.506916e-23)
(0.009088989 -0.000171905 5.322438e-23)
(0.01002445 0.0003647838 0)
(0.009845422 3.426303e-05 -2.995835e-23)
(0.00993126 0.000191105 -2.05609e-23)
(0.01059553 -0.000138037 -5.359343e-24)
(0.01077507 0.0004753153 0)
(0.01080511 0.0004827065 -5.290375e-24)
(0.009963216 0.0006773765 0)
(0.01012577 0.0003304808 0)
(0.009373904 0.00269329 0)
(0.00988022 0.0003462537 0)
(0.01002949 0.0009516178 1.674183e-23)
(0.009518935 -0.0001965232 -2.160216e-23)
(0.009633363 0.0003114906 0)
(0.01011545 0.0007114964 1.411714e-23)
(0.009504197 0.0004422087 0)
(0.008639152 0.002888519 1.535606e-23)
(0.01065754 -0.0004331147 0)
(0.01064282 0.0005876582 -8.746067e-24)
(0.009839499 0.0003860198 0)
(0.008369917 -8.422937e-05 2.714558e-23)
(0.009849851 0.0004673693 -1.776271e-23)
(0.01147228 -0.0002335364 0)
(0.01064463 -2.779465e-05 -3.211472e-24)
(0.009220196 0.0003768481 -2.764551e-23)
(0.009984207 0.000220806 0)
(0.01110035 -0.001133967 2.467846e-25)
(0.01058437 -0.001197678 0)
(0.0105582 0.0002040115 -1.095661e-23)
(0.01047107 0.0003153794 -3.578792e-24)
(0.008955243 -0.0001375244 0)
(0.0105964 -0.0004754873 2.079338e-25)
(0.01169972 0.0004068909 3.22133e-24)
(0.01001201 0.0004001749 -2.985878e-23)
(0.01022403 -0.001168609 0)
(0.01046292 0.0004110879 0)
(0.009954163 8.117742e-05 2.822506e-23)
(0.009416174 0.0003871974 0)
(0.01077672 0.001863067 -4.85385e-25)
(0.01029319 0.0004090933 -7.325776e-24)
(0.01064509 -0.0003100813 -5.889297e-24)
(0.01032476 0.0002137959 0)
(0.009556863 -0.0001148701 -2.07796e-23)
(0.01122068 0.0005623245 -1.340355e-23)
(0.0101876 0.0004242014 -9.713502e-24)
(0.01134581 -0.0009484687 0)
(0.009929097 0.0007114409 -6.735292e-24)
(0.01014144 0.0004300944 0)
(0.01114518 0.001390692 0)
(0.01076235 0.000410001 0)
(0.008413338 0.0008917144 2.488485e-23)
(0.01097745 -0.001358651 -1.589544e-23)
(0.01019544 0.0003279912 0)
(0.01062698 -0.0001195857 -3.38924e-24)
(0.01066727 -0.0003447946 2.660751e-24)
(0.01057693 0.001109787 8.86537e-24)
(0.01072913 0.0001995587 -9.923858e-24)
(0.01017761 0.0002235994 0)
(0.01072635 0.0006752794 -1.192294e-23)
(0.009585006 -1.483371e-05 2.033332e-23)
(0.009562962 9.712989e-05 -1.318977e-23)
(0.00968716 0.0002141333 -1.796492e-23)
(0.01007676 0.0003384929 -8.788053e-24)
(0.00903497 -9.329609e-05 3.839401e-23)
(0.008355115 0.0001179839 1.448632e-23)
(0.01017061 0.0001258667 8.577698e-24)
(0.01104068 -0.000426573 0)
(0.01152401 0.001052714 0)
(0.01066369 -0.0002105674 -7.791303e-24)
(0.0105545 -0.0003604706 1.797868e-24)
(0.01144242 0.0003001924 5.098858e-24)
(0.01004139 0.0005382595 -2.541525e-23)
(0.00918217 0.0002105729 -1.641076e-23)
(0.01095174 0.0001313469 0)
(0.01069603 0.0001273999 -1.693983e-24)
(0.01006053 0.0003999354 0)
(0.009975265 0.00156333 -9.805318e-24)
(0.009488792 0.001872747 -9.905915e-25)
(0.01087723 0.001877267 -2.35903e-23)
(0.01030571 0.002180883 -1.097492e-24)
(0.009194321 0.001376868 4.514997e-29)
(0.01013942 0.0005828041 9.393324e-24)
(0.009743495 0.002062473 6.956778e-24)
(0.009836161 0.001256141 9.219044e-24)
(0.01087493 0.0001084739 4.669688e-24)
(0.01049484 0.0004742564 0)
(0.01015514 0.0005606745 2.238542e-23)
(0.01083223 0.0003449217 0)
(0.01025019 0.0005417733 0)
(0.01015851 0.001147374 0)
(0.0101065 0.0002363426 0)
(0.01101698 -0.0001853604 -2.54162e-24)
(0.0109389 0.0002217308 3.015386e-24)
(0.01002291 0.0004832043 0)
(0.01034003 0.001507685 1.025729e-23)
(0.01080935 0.0006905797 5.564393e-24)
(0.01024678 0.0003786714 6.805461e-24)
(0.01064709 -0.0004941651 -1.833333e-24)
(0.01085156 -0.0004645643 -2.846272e-24)
(0.01102602 -0.001115191 -1.891817e-24)
(0.01017574 0.0002631012 0)
(0.01054721 -0.0005473965 -2.763173e-25)
(0.008553036 0.0002499056 5.83816e-23)
(0.009403061 0.0001876141 -5.220453e-23)
(0.009342733 0.0001263494 6.804412e-23)
(0.009140122 0.0005486137 2.248738e-23)
(0.009182273 0.0002508421 0)
(0.01041652 0.0003793519 0)
(0.009749837 0.0003688162 0)
(0.01047979 0.0005308386 0)
(0.009850227 0.0001481717 0)
(0.01086989 -0.0007301995 0)
(0.01011969 0.0004531609 2.557193e-23)
(0.009988827 -0.001044285 1.740171e-24)
(0.01009268 0.0003701021 0)
(0.01009574 0.00041752 7.574695e-24)
(0.01031782 0.001580535 0)
(0.009931534 0.0007534115 1.187511e-23)
(0.0099503 0.0008994588 -4.120235e-23)
(0.009670122 0.000839808 0)
(0.01125641 0.0007213823 -4.378857e-24)
(0.00979202 -0.0018869 6.040847e-24)
(0.01036382 0.0006091362 1.046058e-23)
(0.01017733 0.0003327707 -1.068371e-23)
(0.009517609 -0.002007149 3.520339e-24)
(0.009101414 0.0006540162 0)
(0.01069988 0.0002056175 0)
(0.01056457 -0.001077689 0)
(0.01000986 0.0002217045 2.104284e-23)
(0.01008645 0.000199519 5.308518e-25)
(0.009963235 0.0005912291 0)
(0.00981591 0.0008267177 0)
(0.01014718 0.0003613946 1.304051e-23)
(0.01058463 0.0003406072 7.516207e-26)
(0.01016319 0.0005079242 0)
(0.0113853 0.0004886888 -7.392295e-24)
(0.01079259 -0.0001300111 -9.087461e-24)
(0.01026455 0.0003326697 -1.162493e-23)
(0.01080131 -0.0009276967 0)
(0.007893261 0.002193413 0)
(0.007526386 0.002356827 -3.009002e-23)
(0.01047007 0.0006227502 -2.773683e-23)
(0.009613101 -0.00113619 3.347003e-24)
(0.01047948 0.001092718 -1.33439e-23)
(0.01023118 0.001415255 -8.312187e-24)
(0.01072207 0.001401595 -1.28583e-23)
(0.009736812 0.001727228 -8.062299e-24)
(0.01061334 -0.0002254086 -2.409095e-24)
(0.01035783 0.000485627 5.82586e-24)
(0.01065643 0.0004527621 2.785761e-24)
(0.009618549 0.0006663363 -8.882634e-24)
(0.009783643 0.0008835054 -2.307976e-23)
(0.01096605 0.00066216 0)
(0.009455474 0.0008830587 1.816265e-23)
(0.009544318 0.0006588428 -3.738704e-23)
(0.01007271 0.000443872 1.51584e-23)
(0.01004993 0.0004131292 -8.114643e-24)
(0.01107209 -0.001236899 0)
(0.01110235 -0.0004693507 0)
(0.007800883 0.001282179 6.830429e-23)
(0.0103938 0.0002562851 0)
(0.01093727 -0.000932186 0)
(0.01065101 -5.255689e-06 -3.454519e-24)
(0.01044966 0.000419975 0)
(0.01025949 1.510529e-05 -1.189741e-23)
(0.0105966 -0.0007941467 4.506325e-25)
(0.01084025 0.001211465 2.398568e-23)
(0.0110555 -0.0002269248 -5.964923e-24)
(0.01058228 6.478743e-05 1.136884e-23)
(0.01044697 9.033272e-05 0)
(0.01025362 0.000667999 1.15958e-25)
(0.009780394 0.00024391 -2.317306e-23)
(0.008121858 0.0007773983 0)
(0.008859748 0.0009018013 2.699355e-23)
(0.01033107 0.0004106641 -6.467324e-24)
(0.01009407 0.0003010299 1.48691e-23)
(0.01011815 0.0003122967 -2.22251e-23)
(0.01075807 -0.0004711386 -2.705107e-24)
(0.01008054 0.0003811931 -1.233084e-23)
(0.01010418 0.0004010223 0)
(0.01113542 -0.001137814 2.522025e-24)
(0.0116829 -8.248049e-05 0)
(0.009710578 0.0002951479 -3.700853e-24)
(0.01008903 0.001019216 -2.078639e-23)
(0.01086228 -0.0007779844 0)
(0.01052955 -3.286617e-05 0)
(0.01046465 -0.001142358 0)
(0.008381412 0.0002012705 -2.87169e-23)
(0.01124668 0.0006078387 1.425535e-23)
(0.008876009 0.0001645424 -3.548127e-23)
(0.01038635 0.0002925562 -2.592972e-25)
(0.01054877 0.0003988935 -6.185697e-24)
(0.01029409 -0.0008534099 6.418353e-25)
(0.01170428 0.0003099663 -3.26035e-24)
(0.01096691 -0.0002154841 -5.332661e-24)
(0.009866665 0.0001215176 0)
(0.01012681 0.0006135991 -9.965318e-24)
(0.009393825 -0.001186698 8.092745e-26)
(0.009299411 -0.001402694 7.805511e-25)
(0.009535588 -0.001184741 -2.83909e-24)
(0.01049521 0.0002958541 -1.151401e-23)
(0.01091762 0.0008619877 -9.529604e-24)
(0.01036236 0.0006319608 1.367687e-23)
(0.01078119 0.001464685 -1.598383e-23)
(0.01066053 0.001386712 -5.054646e-24)
(0.009794322 -0.001052384 0)
(0.00974143 -0.001450828 0)
(0.009897683 0.000484625 -2.031704e-23)
(0.01106978 0.0003093174 0)
(0.01095274 0.0006013054 0)
(0.00990848 -0.001345449 2.210793e-24)
(0.0107138 -0.0003660442 -1.039343e-24)
(0.01062296 0.0002238671 -1.828825e-23)
(0.009591235 -0.0001537836 0)
(0.01052879 -0.0005157844 -5.937673e-25)
(0.01006391 0.0003033626 1.316733e-23)
(0.01125889 0.0001469119 0)
(0.01133618 9.894416e-05 3.882303e-24)
(0.01100084 0.0002997394 3.12503e-24)
(0.00931969 -0.001827139 -2.329668e-24)
(0.01061888 -0.000370246 -2.191276e-24)
(0.01073584 -0.0006860296 -3.09706e-25)
(0.010899 0.001398755 -2.532499e-24)
(0.01048905 -0.0001288487 -4.768408e-24)
(0.009226713 0.002682115 7.297224e-24)
(0.01002496 0.0002280141 5.104518e-24)
(0.01000092 2.82681e-05 2.445525e-23)
(0.009971683 0.0004534827 -2.777487e-23)
(0.01050114 -0.0002559305 2.672157e-24)
(0.01063882 0.001292498 1.041023e-24)
(0.009517578 0.00269633 -2.536e-23)
(0.01075859 -8.155738e-05 -9.348682e-24)
(0.01073881 -8.077943e-05 1.10387e-23)
(0.0109731 -5.375462e-05 0)
(0.01111963 -0.0007597439 1.953564e-26)
(0.01145348 0.0006929519 -5.281396e-24)
(0.01109375 0.001544536 -2.333257e-23)
(0.01136803 0.000361286 1.553823e-24)
(0.01127771 0.0003151004 0)
(0.01070141 0.0002754236 0)
(0.01054595 0.0006876418 0)
(0.01002348 0.0004930153 -2.051255e-23)
(0.01038812 0.0005761018 -1.011457e-23)
(0.0103627 0.0005200436 0)
(0.01043337 -0.0006583143 0)
(0.01097304 0.0004228214 -7.221301e-24)
(0.009053722 0.002118367 0)
(0.009534422 -0.0001396478 5.372356e-23)
(0.009758172 0.0004114358 -4.918474e-24)
(0.009385382 0.0004113351 0)
(0.01116458 0.0003987427 0)
(0.009806152 -0.001687683 -9.084408e-24)
(0.008623651 0.00175818 0)
(0.009065353 0.002821331 -1.707512e-23)
(0.01051582 0.001132388 1.325513e-23)
(0.01044777 -0.0001842709 -2.188189e-24)
(0.01070624 0.000608826 2.080284e-23)
(0.009424795 -0.0002293209 8.724695e-24)
(0.009416845 -2.373208e-05 -2.736664e-23)
(0.01085154 2.586562e-05 -3.770361e-24)
(0.01083161 -0.0005308271 -7.09751e-25)
(0.01059125 -0.0005501456 -9.500967e-25)
(0.0100254 -0.001864717 5.813936e-24)
(0.009484705 0.0001556875 0)
(0.009932295 0.0005398789 0)
(0.01016541 0.0004924269 0)
(0.01002722 0.0005167662 -1.020867e-23)
(0.00976906 0.000213011 0)
(0.01058425 -0.00163365 6.315288e-24)
(0.01171272 -1.705081e-06 2.103893e-24)
(0.01011983 0.0003791745 -1.710028e-23)
(0.01078647 0.0001355446 0)
(0.01066587 0.0001494111 -1.216768e-23)
(0.009894793 -0.001536888 0)
(0.01029178 8.869381e-05 -1.463278e-23)
(0.0108409 0.001946031 0)
(0.01023143 -0.0008771806 2.883748e-24)
(0.01071174 0.0001934518 0)
(0.01049867 -0.0001701604 -6.284652e-25)
(0.01047641 -0.0009767385 -5.459895e-25)
(0.01060693 8.216719e-05 7.246048e-24)
(0.008245584 -0.0001003154 0)
(0.01085115 0.000221122 1.675967e-23)
(0.009247135 0.0004936952 -1.927961e-23)
(0.01037819 -6.372444e-06 -4.885171e-24)
(0.00841616 0.00121203 8.831018e-24)
(0.01162384 -6.161816e-05 0)
(0.0113801 -0.0004048601 1.545307e-24)
(0.01005884 -0.001654281 5.13156e-24)
(0.01030313 0.0005675011 1.472026e-23)
(0.01071914 0.0004193116 0)
(0.009588892 0.0006045559 -3.430491e-23)
(0.01126393 -0.001065562 5.788761e-24)
(0.01066357 -0.0003036705 2.843143e-24)
(0.01077534 -0.0002716385 -2.835983e-24)
(0.009782591 0.0002734968 -2.264578e-23)
(0.01112783 0.0004534072 4.198416e-25)
(0.01032049 0.0003328856 0)
(0.01143966 -1.338814e-05 2.542781e-24)
(0.01017012 0.0003611383 -7.090278e-24)
(0.01052093 0.0004237273 -3.324619e-24)
(0.01043315 0.0004634156 -1.497725e-23)
(0.01064229 0.0004772137 0)
(0.01104573 -0.0003731775 -1.679163e-24)
(0.009616226 -4.940276e-05 0)
(0.01074361 0.0008395986 2.01394e-24)
(0.009888143 0.0005191244 -1.39597e-23)
(0.01063514 0.0003290683 -1.519436e-23)
(0.01031929 -0.0007905739 1.120009e-24)
(0.01058887 -0.0005218284 1.332514e-24)
(0.009952756 0.0004056135 3.000131e-24)
(0.009915791 0.000157776 3.457188e-23)
(0.009777671 9.148939e-05 -1.737827e-23)
(0.01061467 0.0005099043 0)
(0.01027066 -0.0009898966 1.399439e-24)
(0.008971536 -1.423027e-06 9.789609e-24)
(0.0107315 0.0001102837 9.859974e-24)
(0.009450431 0.0005820391 1.481379e-23)
(0.01003974 7.783886e-05 1.009502e-23)
(0.00977249 0.0004955631 1.254008e-23)
(0.009319096 0.0007926434 -1.291025e-23)
(0.00990187 0.0005910669 -5.281707e-24)
(0.009138648 -0.001161632 -5.192878e-24)
(0.00925536 0.002020512 -9.111723e-24)
(0.01000098 4.203775e-05 -1.554903e-23)
(0.009932417 0.0006518609 -4.452167e-24)
(0.01091626 0.0007698994 2.921956e-24)
(0.01045701 -0.0006372177 0)
(0.009947862 0.0001681582 -1.698857e-23)
(0.01066074 0.0007926198 6.681836e-24)
(0.01112814 -0.0003146466 2.59171e-24)
(0.008963739 0.002709154 6.340733e-23)
(0.01042559 0.0004372152 -1.787713e-23)
(0.00625157 0.0007755954 -4.959411e-24)
(0.009672536 0.000280356 -1.927633e-23)
(0.009990705 0.0001747289 2.150573e-23)
(0.009832742 0.001121873 0)
(0.009532956 0.001073683 -1.048741e-23)