/*--------------------------------*- C++ -*----------------------------------*\
| =========                 |                                                 |
| \\      /  F ield         | OpenFOAM: The Open Source CFD Toolbox           |
|  \\    /   O peration     | Version:  2406                                  |
|   \\  /    A nd           | Website:  www.openfoam.com                      |
|    \\/     M anipulation  |                                                 |
\*---------------------------------------------------------------------------*/
FoamFile
{
    version     2.0;
    format      ascii;
    arch        "LSB;label=32;scalar=64";
    class       volScalarField;
    location    "1.54";
    object      p;
}
// * * * * * * * * * * * * * * * * * * * * * * * * * * * * * * * * * * * * * //

dimensions      [0 2 -2 0 0 0 0];

internalField   nonuniform List<scalar> 
217010
(
-190.5351
-118.8475
-123.9062
-125.8861
-126.1918
-121.9461
-119.5265
-117.3762
-119.0576
-119.1988
-119.0118
-118.5443
-119.9849
-122.4506
-125.3273
-129.3306
-135.4656
-141.8981
-144.4525
-144.9146
-144.2575
-136.8815
-121.2041
-103.5918
-95.80625
-104.2721
-107.567
-109.5397
-112.0983
-111.4947
-108.3799
-108.0525
-110.37
-106.8948
-103.3461
-115.9092
-141.6305
-163.6123
-174.8633
-174.9318
-167.0526
-155.5137
-141.1452
-123.229
-101.5126
-79.44248
-61.56168
-47.22542
-36.47124
-26.52359
-28.95268
-26.53471
-30.89506
-36.83348
-44.82307
-54.68832
-63.08527
-67.81485
-69.56848
-69.76221
-70.70995
-74.4236
-77.72243
-77.38258
-74.095
-67.73537
-57.42915
-45.59429
-35.57591
-31.43686
-34.5026
-45.87746
-58.61622
-67.9501
-77.95602
-98.12628
-138.7186
-185.7982
-191.3107
-138.4735
-98.06557
-114.816
-139.2225
-158.6803
-167.9142
-165.4379
-162.0883
-163.9297
-168.3159
-172.662
-176.0052
-178.1475
-179.4402
-179.9124
-179.5821
-178.5651
-177.0532
-175.0803
-172.5747
-169.5594
-166.1531
-162.4275
-158.4335
-154.2657
-149.7905
-145.1814
-140.5104
-135.7282
-130.7302
-125.5911
-120.5123
-115.4378
-110.3729
-105.3437
-100.1248
-94.81376
-89.70282
-84.62042
-79.73208
-75.07476
-70.73076
-67.08941
-64.35301
-62.59983
-61.75035
-62.02191
-63.39899
-65.65367
-67.9471
-71.67041
-76.17643
-80.91126
-85.36071
-89.22832
-92.4856
-95.3734
-98.05701
-100.5724
-102.6867
-104.2201
-105.2592
-106.004
-106.6339
-107.216
-107.6967
-107.7896
-107.1616
-104.5884
-100.6166
-92.37125
-89.16367
-102.7647
-101.1358
-97.44361
-93.22865
-90.33156
-85.38741
-73.48839
-59.23377
-45.78298
-34.20997
-27.86917
-27.17095
-32.06918
-39.89263
-49.10351
-64.08102
-80.9468
-98.24821
-113.9291
-128.5098
-142.4556
-154.7653
-162.9906
-164.831
-159.0832
-146.0317
-127.2686
-111.1702
-104.1484
-101.3731
-106.4212
-118.935
-121.04
-116.9872
-110.4332
-96.51315
-81.95192
-81.39393
-90.1528
-95.07482
-96.3456
-95.31025
-96.36031
-94.19702
-96.33978
-99.16518
-100.3699
-93.20077
-153.8095
-76.1029
-64.81204
-52.5149
-45.23221
-39.06704
-33.97908
-29.59902
-25.64735
-22.20444
-19.08463
-16.2499
-13.65698
-11.2159
-8.909877
-6.749558
-4.747199
-2.873958
-1.074601
0.6469354
2.293277
3.86814
5.36286
6.779369
8.170406
9.53044
10.85962
12.13613
13.3426
14.50788
15.65699
16.79366
17.90824
18.9699
20.00214
21.0274
22.03379
23.02984
24.0124
24.99741
25.94578
26.90596
27.82617
28.73835
29.63772
30.53449
31.41514
32.27835
33.14429
34.02707
34.90925
35.77054
36.61647
37.45982
38.32891
39.21055
40.07922
40.95329
41.83661
42.71995
43.61457
44.5123
45.41044
46.34791
47.35562
48.35668
49.33537
50.41577
51.62024
52.76787
53.43646
55.78268
42.20528
43.89822
44.35737
43.78773
42.79563
41.8024
40.87806
39.99373
39.14716
38.31508
37.44307
36.55265
35.67708
34.83643
34.01193
33.18371
32.34017
31.49444
30.66977
29.84959
29.01082
28.16794
27.3323
26.48018
25.63114
24.76413
23.86052
22.96507
22.08594
21.19578
20.27966
19.30885
18.38194
17.40307
16.39421
15.38208
14.3611
13.29706
12.21038
11.11751
9.993338
8.804463
7.557284
6.30333
5.047262
3.737038
2.358576
0.9292664
-0.5732198
-2.14291
-3.765118
-5.455908
-7.182975
-9.035148
-11.01833
-13.08973
-15.30437
-17.63753
-20.16491
-22.91355
-25.85288
-29.02765
-32.58953
-36.56823
-41.11472
-46.17666
-52.06359
-59.34138
-67.7812
-82.26124
-93.9291
43.75937
43.76067
44.35124
43.8704
42.90516
41.91073
40.97826
40.087
39.23431
38.39893
37.52614
36.63253
35.75179
34.90599
34.07778
33.24697
32.40095
31.55188
30.72394
29.90117
29.06022
28.21494
27.37701
26.52256
25.67157
24.80303
23.89779
23.00005
22.1183
21.22654
20.30922
19.33601
18.40862
17.42731
16.41658
15.40284
14.38039
13.31461
12.22649
11.13208
10.00651
8.815686
7.566544
6.310958
5.053463
3.74111
2.360845
0.9298753
-0.5749794
-2.147428
-3.772591
-5.466526
-7.195714
-9.05307
-11.04095
-13.11679
-15.33794
-17.6764
-20.21285
-22.97121
-25.91955
-29.10608
-32.68337
-36.67801
-41.25992
-46.35108
-52.28427
-59.61647
-68.23102
-82.66818
-96.20275
-77.93332
-65.20344
-52.90053
-45.47056
-39.25937
-34.13089
-29.72614
-25.74268
-22.28609
-19.15525
-16.30895
-13.7079
-11.25975
-8.946731
-6.779631
-4.771453
-2.894508
-1.091374
0.6339172
2.28357
3.861355
5.359214
6.77758
8.17031
9.532218
10.86328
12.14195
13.34997
14.51677
15.66751
16.80589
17.92218
18.98547
20.01907
21.04606
22.054
23.05186
24.03639
25.02375
25.97354
26.9356
27.85735
28.77134
29.67284
30.57147
31.45399
32.31935
33.18802
34.07346
34.95783
35.82091
36.6693
37.51612
38.38885
39.27376
40.14551
41.02325
41.91034
42.79784
43.69655
44.59856
45.50338
46.45005
47.46456
48.47005
49.45933
50.55809
51.76625
52.87225
53.56936
55.42969
-88.16946
-102.7048
-101.8766
-97.95873
-93.62281
-90.70796
-86.13572
-74.62446
-60.47953
-46.87053
-34.96071
-28.10672
-27.10981
-31.8118
-39.52717
-48.6109
-63.4227
-80.23708
-97.58598
-113.366
-128.0248
-142.042
-154.4449
-162.865
-164.9251
-159.3303
-146.4305
-127.6155
-111.3292
-104.1957
-101.3947
-106.4349
-118.9859
-121.1041
-117.0957
-110.5332
-96.57332
-81.98675
-81.45737
-90.26523
-95.14476
-96.35679
-95.31774
-96.35089
-94.20949
-96.43495
-99.28655
-100.224
-94.60247
-142.5938
-28.77142
-26.45501
-30.33882
-36.04245
-43.80461
-53.5941
-62.26606
-67.40914
-69.4208
-69.66947
-70.44154
-74.07451
-77.55969
-77.46569
-74.39082
-68.28301
-58.20181
-46.43137
-36.15431
-31.46752
-34.21083
-45.34018
-58.09865
-67.47078
-77.27648
-96.9397
-137.1617
-184.9969
-192.3334
-140.1531
-98.41038
-114.3825
-138.7849
-158.3563
-167.8158
-165.5033
-162.1743
-163.9787
-168.3551
-172.6828
-176.0208
-178.16
-179.4535
-179.9295
-179.6011
-178.582
-177.0669
-175.091
-172.5819
-169.5614
-166.1487
-162.4174
-158.4146
-154.2402
-149.7564
-145.1382
-140.4581
-135.6665
-130.659
-125.5095
-120.4217
-115.339
-110.2641
-105.2242
-99.99425
-94.68404
-89.54777
-84.46653
-79.57821
-74.92445
-70.59212
-66.97444
-64.26888
-62.55194
-61.74445
-62.05723
-63.48143
-65.77041
-68.10865
-71.90498
-76.4627
-81.22228
-85.66649
-89.50404
-92.73573
-95.6089
-98.28652
-100.7965
-102.8828
-104.362
-105.3563
-106.0805
-106.7053
-107.2852
-107.7517
-107.7944
-107.0176
-104.2735
-99.74154
-91.70735
-176.3766
-120.8077
-124.0166
-125.9166
-126.3276
-122.0828
-119.6001
-117.3961
-119.0487
-119.2036
-119.0166
-118.5383
-119.9691
-122.4301
-125.3001
-129.3192
-135.474
-141.9173
-144.4749
-144.9321
-144.2893
-136.78
-121.0749
-103.5376
-95.94854
-104.5141
-107.6755
-109.6033
-112.121
-111.4337
-108.3552
-108.1245
-110.4079
-106.7514
-103.5897
-117.1421
-143.2264
-164.637
-175.1541
-174.479
-166.1108
-154.2547
-139.548
-121.2649
-99.35929
-77.41273
-59.82215
-45.80884
-35.30562
-26.13534
-161.5355
-121.5288
-124.224
-125.8705
-126.4534
-122.2905
-119.7201
-117.4406
-119.0572
-119.2251
-119.0259
-118.5224
-119.9351
-122.3871
-125.267
-129.3174
-135.4951
-141.9739
-144.5733
-145.0767
-144.4748
-136.9887
-121.1713
-103.7206
-96.3427
-104.791
-107.8077
-109.7183
-112.1849
-111.4329
-108.3943
-108.322
-110.5376
-106.603
-104.1094
-119.214
-145.6263
-166.0706
-175.8695
-174.9259
-166.1768
-154.1417
-139.2166
-120.6581
-98.49498
-76.40032
-58.98066
-45.08965
-34.68334
-25.89809
-28.66747
-26.44864
-30.05118
-35.65217
-43.37849
-53.32865
-62.21566
-67.42752
-69.51835
-69.7422
-70.39314
-73.98106
-77.64913
-77.67157
-74.73261
-68.81191
-58.80204
-46.87568
-36.24139
-31.47037
-33.99829
-45.06228
-57.85154
-67.25471
-76.8373
-96.03664
-136.2166
-185.3986
-194.5128
-142.2734
-98.27339
-113.8103
-138.3053
-157.9585
-167.5634
-165.6105
-162.6323
-164.4678
-168.6428
-172.8106
-176.088
-178.1966
-179.4799
-179.9569
-179.629
-178.6071
-177.0895
-175.1156
-172.6073
-169.584
-166.1676
-162.4357
-158.4256
-154.2531
-149.7646
-145.1417
-140.4588
-135.6657
-130.6551
-125.4955
-120.405
-115.3221
-110.2412
-105.2009
-99.96303
-94.64491
-89.52506
-84.42347
-79.52928
-74.87432
-70.53763
-66.92776
-64.23572
-62.54001
-61.75631
-62.10366
-63.55853
-65.87137
-68.23935
-72.05851
-76.62019
-81.35972
-85.77209
-89.58825
-92.80948
-95.67855
-98.35523
-100.8467
-102.8963
-104.378
-105.3826
-106.0948
-106.7088
-107.2774
-107.7296
-107.7391
-106.8898
-104.0186
-99.352
-90.92242
-87.49167
-102.8256
-102.2059
-98.3022
-93.91779
-90.99417
-86.46072
-75.18912
-61.02566
-47.35548
-35.39544
-28.41713
-27.17548
-31.69546
-39.34676
-48.35361
-63.1109
-79.92427
-97.36932
-113.194
-127.8987
-141.97
-154.5283
-163.0741
-165.1939
-159.8194
-147.3157
-128.6127
-111.7596
-104.2573
-101.4218
-106.4151
-119.0387
-121.2766
-117.5294
-110.8554
-96.79568
-82.13509
-81.57249
-90.4106
-95.23062
-96.38061
-95.33246
-96.35129
-94.25881
-96.57979
-99.37588
-100.0728
-95.14063
-130.7654
-77.63186
-65.44984
-53.07791
-45.5919
-39.35097
-34.20095
-29.77856
-25.79916
-22.31881
-19.18533
-16.33345
-13.7295
-11.27958
-8.963196
-6.793129
-4.781525
-2.904799
-1.100043
0.6268033
2.27805
3.856671
5.356883
6.774946
8.168571
9.531779
10.86396
12.14467
13.35273
14.51934
15.67045
16.80947
17.92754
18.9914
20.02389
21.05185
22.06004
23.05967
24.04486
25.03074
25.98104
26.94243
27.86571
28.78073
29.68202
30.58141
31.46455
32.3296
33.1979
34.08484
34.97118
35.8341
36.68254
37.52845
38.40232
39.29006
40.16179
41.03953
41.92881
42.81644
43.71597
44.61938
45.5255
46.47219
47.49181
48.50098
49.48996
50.59701
51.79962
52.87912
53.61242
55.16619
44.25794
43.71708
44.35746
43.92298
42.94656
41.94303
41.00494
40.10888
39.25613
38.42319
37.54795
36.65238
35.76859
34.92197
34.09334
33.26287
32.4153
31.56429
30.73678
29.91419
29.07182
28.22622
27.38871
26.53242
25.68336
24.81439
23.90595
23.00806
22.12688
21.23508
20.31491
19.34378
18.41598
17.43666
16.42351
15.40926
14.38682
13.31894
12.2306
11.13687
10.01182
8.819083
7.5679
6.312141
5.055575
3.741731
2.360815
0.9294197
-0.5777502
-2.151716
-3.778447
-5.473824
-7.201585
-9.062662
-11.05265
-13.12876
-15.3544
-17.69248
-20.23484
-22.99714
-25.94793
-29.13874
-32.72267
-36.74397
-41.31998
-46.43219
-52.3891
-59.76048
-68.4387
-82.93649
-96.00134
45.34313
43.88044
44.34769
43.9814
43.04184
42.04632
41.10424
40.20456
39.35076
38.51649
37.6383
36.74061
35.85318
35.00265
34.17057
33.33663
32.48613
31.6315
30.80195
29.97562
29.12976
28.28199
27.44221
26.58236
25.73273
24.86104
23.94821
23.05028
22.16674
21.27314
20.3499
19.38459
18.4438
17.46735
16.45021
15.43486
14.41157
13.33963
12.25053
11.1561
10.03025
8.83325
7.578845
6.322365
5.066189
3.748636
2.366139
0.9335546
-0.5778791
-2.154183
-3.783578
-5.482398
-7.208574
-9.07804
-11.07287
-13.15064
-15.38591
-17.72493
-20.27978
-23.05161
-26.00917
-29.21007
-32.81647
-36.84902
-41.44411
-46.59219
-52.5935
-60.0083
-68.83305
-83.16828
-96.19488
-77.73192
-65.665
-53.41182
-45.8023
-39.53218
-34.3406
-29.88945
-25.8899
-22.39942
-19.25231
-16.38792
-13.77732
-11.32127
-8.997135
-6.82044
-4.801308
-2.92307
-1.114029
0.6165755
2.271325
3.85201
5.356897
6.774412
8.169858
9.535648
10.86983
12.15466
13.36394
14.53131
15.68336
16.82385
17.94535
19.01181
20.04372
21.07411
22.08338
23.08647
24.0736
25.05763
26.02328
26.97815
27.90282
28.82046
29.72416
30.62528
31.51146
32.37902
33.25017
34.13958
35.02901
35.8942
36.74607
37.5956
38.47224
39.36464
40.23981
41.12138
42.01459
42.90667
43.81007
44.71864
45.63245
46.58584
47.60973
48.62552
49.62585
50.74427
51.92176
52.9302
53.64928
54.7924
-87.14016
-103.7315
-103.5405
-99.00243
-94.40251
-91.32615
-87.26356
-76.29109
-62.26905
-48.55253
-36.21645
-28.9378
-27.35027
-31.6127
-39.16196
-48.04591
-62.69033
-79.3618
-96.82225
-112.7158
-127.5074
-141.6563
-154.3461
-163.0488
-165.3966
-160.3821
-148.4825
-130.3305
-112.8256
-104.4074
-101.3516
-106.1311
-118.7036
-121.5005
-118.2157
-111.3693
-97.20274
-82.46299
-81.80144
-90.68575
-95.40009
-96.43799
-95.3753
-96.34606
-94.36596
-96.81898
-99.54335
-99.84753
-96.49528
-122.4149
-28.308
-26.38719
-29.5977
-34.94594
-42.37407
-52.17028
-61.22347
-66.98174
-69.48761
-69.81732
-70.33494
-73.73723
-77.49553
-77.83003
-75.11272
-69.47333
-59.63891
-47.65403
-36.5432
-31.34356
-33.58081
-44.54063
-57.31362
-66.7341
-76.15163
-94.88264
-134.8901
-185.1003
-196.8297
-144.8183
-99.37837
-113.439
-137.6034
-156.6685
-166.5617
-165.5849
-163.3279
-165.1265
-168.9896
-172.9617
-176.1758
-178.2452
-179.5147
-179.993
-179.6582
-178.632
-177.1074
-175.1327
-172.6225
-169.5905
-166.1631
-162.4275
-158.4004
-154.2282
-149.7289
-145.0929
-140.3989
-135.5993
-130.5831
-125.4048
-120.3059
-115.2213
-110.126
-105.082
-99.8396
-94.5098
-89.3758
-84.28421
-79.39168
-74.74876
-70.42218
-66.83912
-64.17843
-62.52624
-61.78377
-62.17978
-63.67381
-66.03041
-68.44248
-72.31811
-76.92923
-81.69674
-86.11208
-89.90405
-93.09271
-95.94575
-98.618
-101.1208
-103.165
-104.5912
-105.4984
-106.1856
-106.7958
-107.3729
-107.8127
-107.7676
-106.7784
-103.7982
-98.8903
-89.54295
-151.4198
-123.4292
-124.2259
-125.5709
-126.5652
-122.6369
-119.9278
-117.5211
-119.0642
-119.2562
-119.0436
-118.5018
-119.8695
-122.3192
-125.2178
-129.297
-135.5257
-142.0825
-144.7848
-145.3926
-144.8506
-137.1572
-121.4346
-104.1874
-97.07756
-105.2408
-107.9938
-109.8942
-112.1545
-111.2528
-108.3845
-108.7166
-110.8347
-106.6664
-105.4904
-122.6154
-148.5026
-167.4876
-176.1814
-174.3225
-165.1675
-152.8477
-137.6484
-118.8281
-96.59302
-74.55297
-57.4163
-43.86494
-33.78409
-25.58712
-144.4443
-125.2549
-123.9773
-124.8855
-126.6324
-123.1627
-120.2621
-117.6642
-119.0628
-119.2923
-119.0761
-118.486
-119.8
-122.2326
-125.1489
-129.2599
-135.5473
-142.232
-145.1375
-145.9948
-145.6373
-137.8276
-122.0865
-105.1489
-98.33724
-105.9164
-108.2177
-110.0804
-111.8886
-110.7575
-108.2161
-109.2761
-111.3814
-107.1587
-108.7186
-127.5324
-151.99
-169.4242
-177.4419
-174.8557
-164.8224
-152.1827
-136.6082
-117.3568
-94.85209
-72.75482
-55.95109
-42.66035
-32.88949
-25.32452
-27.87339
-26.24917
-29.12406
-34.279
-41.49439
-51.41831
-60.94698
-67.0635
-69.55983
-70.00867
-70.36413
-73.49422
-77.60634
-78.17307
-75.75754
-70.4073
-60.81391
-48.81812
-36.89698
-31.02751
-32.93521
-43.80984
-56.68246
-66.34127
-75.63151
-93.75839
-133.3915
-184.6352
-198.9168
-148.2804
-102.7134
-114.617
-137.4731
-155.3726
-165.1345
-165.3416
-163.9646
-165.7948
-169.3843
-173.155
-176.3092
-178.3277
-179.5817
-180.0695
-179.7374
-178.6962
-177.1623
-175.1913
-172.6821
-169.6421
-166.2029
-162.4706
-158.4208
-154.2568
-149.7431
-145.0907
-140.3891
-135.5904
-130.5722
-125.3673
-120.2619
-115.1784
-110.0577
-105.0167
-99.77655
-94.42654
-89.29124
-84.18887
-79.28875
-74.6595
-70.3354
-66.77255
-64.13996
-62.53918
-61.8411
-62.29247
-63.83075
-66.24589
-68.69758
-72.63956
-77.28176
-82.04665
-86.41898
-90.16684
-93.32243
-96.15827
-98.8296
-101.3085
-103.2531
-104.5889
-105.5512
-106.2262
-106.8263
-107.39
-107.8127
-107.7169
-106.6206
-103.5166
-98.33438
-87.95737
-87.02582
-105.3278
-105.0779
-100.007
-95.01902
-91.50369
-87.68327
-77.52344
-63.82712
-49.88107
-37.23922
-29.71183
-27.72815
-31.67801
-39.09695
-47.77566
-62.33279
-78.90872
-96.43722
-112.3784
-127.2777
-141.509
-154.4299
-163.4241
-166.0255
-161.2547
-150.0211
-132.7136
-114.8866
-104.8248
-101.2763
-105.5057
-118.1051
-121.7675
-119.0497
-112.042
-97.93459
-83.07617
-82.18493
-91.14071
-95.6729
-96.54613
-95.4727
-96.28666
-94.46292
-97.14929
-99.77785
-99.71379
-97.99879
-116.4798
-77.68576
-65.76019
-53.69436
-45.99022
-39.70002
-34.46978
-29.99618
-25.98183
-22.4647
-19.31284
-16.43717
-13.82186
-11.36248
-9.031749
-6.847995
-4.819254
-2.942883
-1.131026
0.6027062
2.261078
3.843576
5.354935
6.769682
8.16656
9.534443
10.86977
12.16018
13.36951
14.53538
15.68822
16.83046
17.95644
19.02441
20.05335
21.08679
22.09635
23.10309
24.09032
25.07195
26.03201
26.9961
27.92189
28.84122
29.74471
30.6473
31.5356
32.40322
33.27377
34.16569
35.0594
35.92472
36.77765
37.62676
38.50608
39.40497
40.28028
41.16237
42.06131
42.95531
43.86134
44.7737
45.69257
46.64878
47.68437
48.70988
49.71055
50.84081
52.0052
52.95809
53.63913
54.34371
46.19754
44.05808
44.32903
44.03552
43.13843
42.13642
41.17533
40.26293
39.40729
38.57711
37.69407
36.79222
35.8966
35.0429
34.20931
33.3754
32.52125
31.66162
30.83323
30.00679
29.15768
28.30894
27.46985
26.60491
25.75942
24.88644
23.96661
23.06894
22.18474
21.29158
20.36536
19.39681
18.45636
17.48462
16.4628
15.44713
14.42402
13.34748
12.25946
11.16676
10.04157
8.838791
7.580159
6.3252
5.07177
3.749284
2.366103
0.9337829
-0.5833287
-2.162015
-3.793834
-5.495641
-7.2155
-9.097076
-11.09703
-13.17438
-15.42037
-17.75446
-20.32507
-23.1055
-26.06532
-29.27149
-32.89705
-36.95759
-41.56191
-46.74092
-52.78276
-60.23809
-69.17257
-83.25899
-96.2351
47.12304
44.50958
44.37618
44.08074
43.23749
42.24733
41.27406
40.35622
39.50737
38.68524
37.79598
36.89508
35.99457
35.13778
34.30025
33.46601
32.60816
31.74074
30.91157
30.0814
29.22671
28.37624
27.53699
26.66391
25.82308
24.94801
24.01827
23.12263
22.23599
21.34132
20.40735
19.4539
18.49945
17.52746
16.4997
15.48421
14.45843
13.37079
12.28199
11.19169
10.07115
8.859872
7.590375
6.335607
5.089696
3.759347
2.373871
0.9439944
-0.5811285
-2.164668
-3.803539
-5.511496
-7.21549
-9.112923
-11.11853
-13.19879
-15.46223
-17.78322
-20.37854
-23.17184
-26.13792
-29.34386
-32.99418
-37.08863
-41.70353
-46.91551
-53.00406
-60.48805
-69.51048
-83.22964
-96.26159
-77.63412
-65.74094
-53.96815
-46.18238
-39.90144
-34.62765
-30.12605
-26.09062
-22.5456
-19.39324
-16.49866
-13.8755
-11.41494
-9.072627
-6.875976
-4.835136
-2.968006
-1.152067
0.5878278
2.25361
3.83897
5.358722
6.767937
8.167518
9.538089
10.87784
12.17826
13.38463
14.54954
15.70745
16.85181
17.98103
19.05123
20.07662
21.1155
22.12455
23.13623
24.12363
25.109
26.09085
27.04288
27.96747
28.8906
29.7965
30.70292
31.59497
32.4621
33.33518
34.2338
35.1351
35.99938
36.85511
37.7055
38.58774
39.49608
40.3722
41.25829
42.16442
43.05865
43.96684
44.88518
45.81213
46.76722
47.80677
48.84255
49.84405
50.97835
52.10039
52.96043
53.53883
53.77341
-87.45549
-108.0048
-108.0578
-101.4041
-95.83407
-91.55835
-87.62855
-78.70118
-65.70434
-51.64355
-38.57462
-30.85183
-28.34014
-31.96285
-39.22405
-47.63443
-61.98967
-78.47538
-96.13847
-112.0643
-127.0699
-141.4018
-154.5903
-163.8595
-166.7123
-162.3584
-151.9602
-135.6951
-117.9713
-106.0113
-101.5346
-104.7416
-117.6793
-122.2813
-120.0564
-113.0152
-99.26977
-84.13163
-82.8058
-91.88581
-96.11167
-96.7383
-95.60803
-96.10579
-94.45785
-97.60001
-100.0005
-99.51882
-98.98613
-110.7159
-27.29615
-25.9772
-28.58691
-33.50996
-40.3779
-50.31293
-60.13248
-66.40419
-69.58524
-70.30135
-70.58601
-73.28421
-77.52648
-78.60992
-76.47915
-71.59706
-62.35414
-50.35221
-37.40803
-30.62455
-31.9877
-42.73542
-55.69563
-65.76598
-75.36832
-92.78082
-131.4832
-183.3438
-199.965
-152.6121
-108.712
-117.4466
-137.6939
-154.2744
-163.806
-165.066
-164.5701
-166.5134
-169.8517
-173.3915
-176.4951
-178.4418
-179.6709
-180.1411
-179.8186
-178.7595
-177.2146
-175.2478
-172.7387
-169.6897
-166.2259
-162.4996
-158.4051
-154.2529
-149.7168
-145.0482
-140.3485
-135.5476
-130.517
-125.2713
-120.1581
-115.0744
-109.9291
-104.9214
-99.68447
-94.28906
-89.1735
-84.07076
-79.16498
-74.5756
-70.24384
-66.70099
-64.10834
-62.58306
-61.9334
-62.46249
-64.05826
-66.55572
-69.0583
-73.07623
-77.74729
-82.50865
-86.83744
-90.53547
-93.66065
-96.47744
-99.14813
-101.6416
-103.5651
-104.9168
-105.7208
-106.3516
-106.9412
-107.5146
-107.9289
-107.7732
-106.5395
-103.3295
-97.96558
-86.98764
-137.4805
-126.0082
-123.3715
-124.0764
-126.7355
-123.9884
-120.8211
-117.9346
-119.0681
-119.3261
-119.1236
-118.4856
-119.7296
-122.1301
-125.0602
-129.1889
-135.5002
-142.3548
-145.6458
-147.0657
-147.0693
-139.0663
-123.3241
-107.02
-100.3883
-106.8879
-108.5076
-110.2669
-111.3248
-109.7974
-107.8492
-109.8824
-112.1605
-108.5269
-114.3582
-133.6042
-155.8137
-171.5102
-178.266
-174.9082
-164.1425
-151.212
-135.2235
-115.5305
-92.79064
-70.6582
-54.12948
-41.24474
-31.91112
-25.06535
-129.9005
-125.2848
-122.517
-123.0001
-126.7257
-124.673
-121.6817
-118.3603
-119.1443
-119.3109
-119.1709
-118.5113
-119.6628
-121.9983
-124.9024
-129.0709
-135.2829
-142.3356
-146.3177
-148.7873
-149.3946
-141.0137
-125.2822
-110.2022
-103.3623
-107.8735
-108.8739
-110.5877
-110.7649
-108.7229
-107.6091
-110.7257
-113.1707
-111.5588
-121.7739
-140.3435
-160.0939
-174.2854
-180.0267
-175.5417
-163.4694
-149.9718
-133.4629
-113.2791
-90.37329
-68.14871
-51.57862
-39.54561
-30.81345
-24.69827
-26.49953
-25.69224
-27.92667
-32.56864
-38.96426
-48.88527
-59.43714
-66.57364
-69.78865
-70.7387
-71.0441
-73.00131
-77.42293
-79.26177
-77.78696
-73.23674
-64.374
-52.47097
-38.19345
-30.32347
-30.99268
-41.68928
-54.86509
-65.73895
-75.59247
-91.95904
-128.4464
-179.3903
-198.1198
-156.4673
-116.3619
-121.4521
-138.1874
-153.3469
-162.6357
-164.8906
-165.2402
-167.3258
-170.4262
-173.719
-176.8016
-178.6349
-179.8261
-180.2938
-179.9646
-178.8991
-177.3337
-175.36
-172.859
-169.8042
-166.2811
-162.5809
-158.4124
-154.3031
-149.7528
-145.0844
-140.3714
-135.5221
-130.4824
-125.2166
-120.0795
-115.0052
-109.8858
-104.8893
-99.60106
-94.14562
-89.08639
-83.93296
-79.05219
-74.50544
-70.11069
-66.62892
-64.10993
-62.69092
-62.08613
-62.73022
-64.40361
-66.98546
-69.66431
-73.65266
-78.36005
-83.09212
-87.36317
-90.98858
-94.04822
-96.85885
-99.52895
-102.0061
-103.7945
-104.9552
-105.8042
-106.4188
-106.9998
-107.5838
-108.0146
-107.8149
-106.4864
-103.2397
-97.92142
-87.3336
-88.98504
-111.9139
-112.2149
-103.2929
-97.16519
-91.66704
-87.35464
-79.84533
-67.87661
-53.89844
-40.5413
-32.78758
-29.33328
-32.4587
-39.46624
-47.965
-61.68582
-77.6743
-95.66907
-111.6905
-126.7062
-141.3191
-154.9896
-164.5808
-167.8024
-163.8971
-154.5322
-139.3208
-122.0216
-108.5989
-102.5539
-104.2108
-117.7237
-123.248
-121.3093
-114.2533
-101.2341
-85.84216
-84.11363
-93.14409
-96.86983
-97.0737
-95.74897
-95.77117
-94.2789
-98.37753
-100.4893
-99.1768
-98.96049
-104.6189
-77.38882
-65.52887
-54.18634
-46.34779
-40.13553
-34.79007
-30.24342
-26.19839
-22.64345
-19.48639
-16.55022
-13.93286
-11.47855
-9.110418
-6.903362
-4.863482
-3.010387
-1.173608
0.5759374
2.252559
3.8331
5.356075
6.762726
8.163213
9.536766
10.8898
12.18881
13.38844
14.5611
15.72015
16.85315
17.98504
19.07169
20.0901
21.13471
22.14096
23.16083
24.15073
25.13633
26.11002
27.06514
27.99282
28.92467
29.83191
30.73747
31.62854
32.5007
33.38009
34.2773
35.17709
36.03986
36.90456
37.75638
38.64086
39.55916
40.43892
41.32617
42.23391
43.13052
44.05014
44.9767
45.91381
46.86213
47.91367
48.98001
49.98394
51.11221
52.16222
52.89004
53.29188
53.08136
47.95256
45.13235
44.51174
44.11977
43.33334
42.37484
41.37601
40.43779
39.59445
38.78404
37.87342
36.96641
36.05837
35.20724
34.36254
33.52401
32.66356
31.79402
30.9717
30.13529
29.2721
28.42168
27.58268
26.69767
25.86687
24.98038
24.04075
23.15048
22.26525
21.37662
20.43012
19.45385
18.5186
17.54274
16.50906
15.50749
14.48838
13.38845
12.29746
11.20013
10.08665
8.877922
7.599393
6.331616
5.096588
3.764523
2.370918
0.9435489
-0.5823447
-2.164822
-3.813432
-5.546271
-7.229451
-9.145818
-11.13756
-13.2222
-15.52098
-17.80996
-20.43992
-23.23032
-26.22116
-29.42835
-33.09551
-37.21717
-41.84321
-47.09117
-53.23079
-60.72575
-69.78442
-82.97261
-95.91245
48.55363
45.89201
44.85405
44.26182
43.48866
42.59175
41.55255
40.56465
39.73839
38.97743
38.06771
37.13372
36.17703
35.33607
34.51426
33.66276
32.76367
31.87423
31.08091
30.24457
29.36218
28.51907
27.68822
26.76786
26.0036
25.0783
24.10475
23.23281
22.31481
21.45664
20.49685
19.55946
18.62944
17.61685
16.52587
15.52998
14.52109
13.42474
12.36009
11.25312
10.09083
8.882342
7.650102
6.369834
5.100707
3.791029
2.398309
0.9230658
-0.5994169
-2.161439
-3.773029
-5.52897
-7.234776
-9.226864
-11.1738
-13.2198
-15.61245
-17.84404
-20.56884
-23.27761
-26.28415
-29.60527
-33.29015
-37.42713
-42.06063
-47.35533
-53.58462
-61.10444
-70.20164
-82.62121
-95.76942
-76.91196
-65.28263
-54.57098
-46.63955
-40.52733
-34.94139
-30.41055
-26.40195
-22.83167
-19.57195
-16.58831
-14.04031
-11.56086
-9.143897
-6.972934
-4.933737
-3.024577
-1.152759
0.5677144
2.245045
3.792773
5.330563
6.781655
8.140604
9.548652
10.91082
12.16305
13.41659
14.60147
15.72595
16.8478
18.04065
19.16461
20.12069
21.18079
22.18209
23.22089
24.20805
25.18358
26.14793
27.13772
28.08228
29.00519
29.90742
30.79907
31.71844
32.61043
33.46344
34.3392
35.2815
36.17806
37.03017
37.87871
38.74566
39.69523
40.59629
41.43732
42.384
43.31253
44.21516
45.13745
46.07858
47.01306
48.10498
49.2307
50.17146
51.22315
52.14636
52.7324
52.98751
52.39249
-91.70893
-116.4483
-118.5327
-107.0813
-99.60192
-91.87855
-86.89667
-81.34369
-70.59172
-57.10922
-43.67309
-35.51162
-31.30477
-33.20029
-40.02516
-48.85682
-61.70096
-76.26685
-94.65199
-111.1991
-126.1419
-141.1589
-155.856
-165.7937
-169.3692
-165.871
-157.7254
-143.622
-127.2629
-112.9498
-104.8283
-104.5591
-119.2967
-125.0137
-122.404
-115.1234
-102.6
-88.40533
-87.16749
-95.11614
-97.83854
-97.54197
-95.93922
-95.21598
-93.68624
-99.36613
-100.717
-98.54428
-97.72006
-98.67808
-25.44449
-24.55473
-26.79757
-31.34107
-37.24357
-46.98656
-58.01003
-65.71919
-69.67185
-71.17032
-71.8445
-72.63564
-76.82472
-79.42897
-79.21415
-75.34568
-67.28639
-55.48529
-39.66777
-30.53605
-30.13942
-40.59259
-53.7953
-65.07752
-75.77378
-91.09539
-123.7324
-170.3566
-190.8411
-157.8322
-123.9581
-126.1846
-139.015
-152.4879
-161.5445
-164.7558
-165.9677
-168.107
-171.1268
-174.1614
-177.1669
-178.8468
-180.0057
-180.4789
-180.1902
-179.1422
-177.4415
-175.467
-173.0236
-169.9473
-166.2997
-162.7311
-158.4241
-154.442
-149.8332
-145.1523
-140.2396
-135.362
-130.4476
-125.2608
-119.9175
-115.0012
-109.8966
-104.6379
-99.32263
-94.00847
-88.93075
-83.74366
-78.99923
-74.40724
-69.94317
-66.63919
-64.24306
-62.91255
-62.41148
-63.1292
-64.89781
-67.51804
-70.54508
-74.33488
-79.20102
-83.9303
-88.21213
-91.7555
-94.62214
-97.45061
-100.1843
-102.5691
-104.1796
-105.3387
-106.0354
-106.604
-107.176
-107.7836
-108.241
-107.9999
-106.5887
-103.4183
-98.3838
-89.50576
-122.7463
-122.6375
-121.902
-123.3318
-127.6056
-126.8429
-122.7128
-118.5705
-119.0837
-119.3524
-119.2246
-118.5654
-119.5894
-121.8731
-124.8804
-128.9513
-134.6581
-141.9736
-147.1244
-151.2455
-152.9623
-144.0051
-128.6391
-113.9459
-106.9767
-108.1234
-109.2277
-111.1129
-110.2323
-107.3795
-107.4833
-111.1094
-114.3848
-116.9607
-130.5036
-147.7463
-165.3381
-177.5194
-181.9006
-176.1562
-161.7367
-147.2637
-130.909
-110.5715
-87.78137
-65.11201
-48.77856
-37.97103
-29.76571
-24.20483
-0.04383997
-0.0104378
-0.6536826
5.264607
1.776777
-0.3431127
0.09607288
4.790184
4.465915
0.227427
-5.398565
2.188993
-0.01639742
9.126702
-0.2322268
5.488874
9.113278
11.71921
6.441376
-75.53002
-1.454339
6.568238
0.1591062
6.154469
-0.1259266
5.761489
6.197111
3.087418
4.669555
-0.2659288
5.855279
-0.2933265
-44.32388
0.08559057
7.021884
0.3239737
0.1980754
7.61291
0.1321476
6.285034
8.060381
-0.01021155
-1.329878
1.727192
-17.10727
-118.8697
0.04192533
-0.01378197
-0.02191022
8.479438
3.226737
-0.1832514
1.641632
-0.57398
6.505055
0.2280771
5.107103
5.688281
6.671923
-0.009802138
-1.855668
6.716451
-0.3111504
1.160086
8.713717
-0.2736769
-0.2470168
-15.12008
5.905003
0.3518412
2.774431
0.3820125
7.292314
3.41959
5.927477
6.537236
5.327551
5.611195
-0.04358442
7.063691
0.2544527
6.172728
-0.8025378
-0.2972058
-0.3628998
-0.1140957
8.822025
0.1614503
-0.5196009
0.4879699
6.987262
7.527748
5.82557
3.2315
0.2080419
-3.212157
5.883912
6.409828
-109.6346
-1.174218
-0.8155511
-103.5493
9.9757
-0.3861955
1.27034
5.114083
-1.373978
6.503098
-4.049894
4.910429
0.2228435
-179.7938
0.1324668
0.688329
-1.769832
0.03891793
-0.3058715
-16.67514
-1.835425
2.430225
0.5694533
-0.837405
-0.3172778
-0.3001756
4.56789
-0.4693563
-0.01809811
0.365755
-7.950135
0.3420615
11.8423
8.145273
5.20864
-2.686297
-0.2684973
0.1642881
4.463619
12.06839
15.02881
7.691889
5.2769
8.62724
5.33241
5.884066
0.0904963
0.9189637
7.122182
-1.6132
-0.1157225
-11.00963
3.473119
0.1946065
-0.2169496
4.906582
11.10109
4.583203
-0.1278264
-7.473344
-0.005651666
4.192435
-8.357203
4.973998
2.887876
0.093909
7.815853
0.2182002
-4.930611
6.860478
0.1654484
3.521006
-0.758915
-0.4595813
0.1299679
9.645462
-0.08246834
-0.004318611
0.1246475
-8.975715
-0.3480714
-38.09608
-1.048868
5.709087
-0.124848
1.758538
1.08647
0.5426049
6.473672
6.22239
7.392556
0.2285687
5.534866
0.2064549
6.338917
0.2211749
-208.5984
0.7031229
0.292702
-0.9796459
1.993925
0.8651176
-51.10685
-11.2346
1.458146
10.65415
-7.025776
1.379727
-0.01967787
-1.859265
6.889373
-20.24863
0.07866503
-166.1338
0.060588
6.254508
-0.08138785
0.1860048
-17.76228
-0.390979
3.656013
0.6015889
-0.4621796
6.187234
4.651213
0.01934849
20.47341
-7.900165
5.83308
0.2545199
1.313427
12.03133
-0.4358976
3.915684
20.4253
6.39648
2.826019
-56.16405
4.180807
6.248478
-89.40399
-0.1468833
1.316136
-0.4195409
-0.1052311
0.1141134
-6.491659
-15.3382
-0.9173579
-2.613828
6.073056
6.190523
6.176095
-400.9642
8.591428
2.802649
-0.08037498
8.44452
-0.0264253
3.57692
0.3258887
2.720934
4.164951
0.1294199
2.505427
1.959536
6.897447
4.773015
0.0811879
2.292372
4.839418
-11.44905
-3.56504
0.1921213
-0.3400299
-0.09500979
7.868455
-157.4334
6.29959
-1.025406
-84.33044
0.2416858
-6.264072
7.302735
-5.844785
0.186458
7.81211
-0.3394407
1.176161
7.102686
7.645908
4.840814
3.052903
0.02791727