/*--------------------------------*- C++ -*----------------------------------*\
| =========                 |                                                 |
| \\      /  F ield         | OpenFOAM: The Open Source CFD Toolbox           |
|  \\    /   O peration     | Version:  2406                                  |
|   \\  /    A nd           | Website:  www.openfoam.com                      |
|    \\/     M anipulation  |                                                 |
\*---------------------------------------------------------------------------*/
FoamFile
{
    version     2.0;
    format      ascii;
    arch        "LSB;label=32;scalar=64";
    class       volVectorField;
    location    "2.46";
    object      U;
}
// * * * * * * * * * * * * * * * * * * * * * * * * * * * * * * * * * * * * * //

dimensions      [0 1 -1 0 0 0 0];

internalField   nonuniform List<vector> 
15536
(
(-0.05510114 7.868641 -1.070125e-21)
(-0.3801902 8.706401 -8.666285e-19)
(-0.7276466 9.172871 -1.901544e-18)
(-0.9868546 8.910805 -1.915045e-18)
(-0.9962475 7.408896 -2.770687e-20)
(-0.5239733 3.755494 1.554875e-20)
(0.3871567 -1.072034 1.955947e-20)
(1.117997 -3.377119 -1.943778e-20)
(1.332866 -3.662526 5.295349e-18)
(0.9268659 -2.62748 4.52742e-18)
(0.2629726 -0.8260899 0)
(0.7119399 -1.293766 0)
(1.661093 -2.858379 -3.005423e-20)
(2.07351 -3.345067 7.736168e-18)
(2.317251 -3.456046 3.78982e-18)
(2.154312 -2.963297 -7.597097e-18)
(1.294124 -1.698521 4.137837e-18)
(-0.1369645 0.05166186 4.708266e-20)
(-1.789738 1.841477 -1.092207e-19)
(-3.339818 3.320328 6.090373e-20)
(-4.741845 4.438052 0)
(-5.771641 5.079026 1.313686e-17)
(-6.049702 5.036796 0)
(-4.514163 3.731046 1.158167e-17)
(0.2727654 0.214553 -7.455949e-20)
(4.699356 -2.84264 -2.771108e-20)
(3.052887 -1.888557 2.781057e-20)
(-0.5718735 0.1330368 -6.965424e-18)
(-2.246478 0.9660827 -8.867815e-18)
(-2.955002 1.192614 0)
(-4.293106 1.524165 -4.943712e-20)
(-6.908942 2.161722 -6.81054e-18)
(-9.519515 2.834458 9.690631e-18)
(-7.811316 2.355039 0)
(-1.348323 0.5637403 -8.268193e-18)
(2.859852 -0.5658178 -3.126503e-20)
(-0.5260273 -0.2451865 4.295064e-18)
(1.504453 -0.09964092 -2.039356e-18)
(7.622102 0.1177556 1.871487e-21)
(11.43758 0.5822523 -4.634602e-19)
(13.40743 1.160659 1.86031e-18)
(14.41797 1.811882 -2.925745e-20)
(14.98126 2.501514 2.898923e-20)
(15.27981 3.187391 0)
(15.40278 3.859252 -7.18376e-18)
(15.3769 4.503877 -7.093272e-18)
(15.20001 5.111573 0)
(14.94382 5.690026 -1.341421e-17)
(14.6213 6.238618 1.303435e-17)
(14.25785 6.760655 1.255377e-17)
(13.8423 7.241403 4.564638e-20)
(13.36877 7.676894 -1.137745e-17)
(12.84511 8.062007 0)
(12.28022 8.3987 0)
(11.68352 8.683497 9.238282e-18)
(11.0528 8.908348 8.502957e-18)
(10.40685 9.084838 5.703775e-20)
(9.75188 9.211066 6.803301e-18)
(9.07431 9.267945 1.207112e-17)
(8.387326 9.264377 5.203418e-18)
(7.699144 9.203623 4.314492e-18)
(7.023265 9.095105 -3.072271e-20)
(6.356258 8.928771 0)
(5.695737 8.697924 1.745365e-18)
(5.055572 8.419573 0)
(4.431365 8.079932 -6.426013e-21)
(3.831668 7.685373 -2.798345e-20)
(3.267162 7.246702 -3.039957e-21)
(2.737261 6.761708 7.863828e-21)
(2.246104 6.23427 -3.143707e-18)
(1.79945 5.672923 -1.618943e-20)
(1.397993 5.075294 2.264322e-18)
(1.043392 4.443844 2.554206e-18)
(0.7410467 3.794998 0)
(0.4904095 3.133184 0)
(0.2941896 2.456613 3.248775e-18)
(0.1498586 1.778651 -3.988198e-22)
(0.06008979 1.117616 9.015401e-19)
(0.02595509 0.4379381 1.680821e-21)
(0.04401273 -0.3357883 -7.184569e-21)
(0.1095922 -1.124908 -1.787926e-18)
(0.2326067 -1.865608 0)
(0.4110354 -2.572763 3.286502e-18)
(0.6418905 -3.254286 0)
(0.9238228 -3.909195 -2.849639e-18)
(1.254393 -4.534677 2.56478e-18)
(1.633065 -5.129819 1.913738e-20)
(2.0564 -5.693143 4.017444e-18)
(2.520891 -6.214378 1.181929e-20)
(3.022485 -6.69138 -2.704889e-18)
(3.558588 -7.126476 -1.978204e-18)
(4.126427 -7.51366 1.216815e-20)
(4.723811 -7.854692 -4.301885e-19)
(5.342667 -8.144432 -3.648718e-19)
(5.975851 -8.380101 1.216221e-20)
(6.613614 -8.548967 6.210686e-21)
(7.260764 -8.664771 -2.731745e-18)
(7.912934 -8.727637 0)
(8.561631 -8.730232 8.474501e-18)
(9.208834 -8.682828 4.932515e-18)
(9.835335 -8.57203 9.511138e-20)
(10.43738 -8.400499 -6.459274e-18)
(11.01069 -8.17133 0)
(11.55384 -7.888733 0)
(12.06553 -7.560719 0)
(12.53685 -7.185684 0)
(12.95764 -6.764998 9.317619e-18)
(13.32396 -6.302406 9.825815e-18)
(13.63598 -5.803431 2.997224e-20)
(13.88285 -5.274257 -1.049342e-17)
(14.03298 -4.707774 -5.328965e-18)
(14.06595 -4.108403 -5.468547e-18)
(13.93789 -3.475289 4.266228e-20)
(13.60138 -2.815356 5.477818e-18)
(12.97246 -2.145054 2.778931e-18)
(11.84964 -1.508384 -2.133952e-20)
(9.612269 -0.8972232 -4.933033e-21)
(5.379533 -0.3353102 3.307732e-19)
(-0.8951985 -0.06192526 -6.810749e-19)
(-4.33827 -0.42714 -1.724031e-20)
(-5.385921 -0.7321954 1.160448e-20)
(-3.9262 -0.377567 2.346756e-18)
(-0.1713226 0.3636523 1.462007e-20)
(6.138671 1.648823 0)
(-0.5388297 -0.6169902 -4.569542e-18)
(-9.51873 -3.662231 -7.454441e-18)
(-11.18932 -4.31959 6.770753e-21)
(-8.67249 -3.547613 8.077252e-18)
(-5.661843 -2.536971 -3.607914e-18)
(-3.488575 -1.727238 0)
(-1.946734 -1.010623 0)
(-0.07796485 0.0879913 1.051374e-18)
(2.492299 1.730574 0)
(3.028061 2.105123 -7.659588e-21)
(1.032012 0.6892122 6.586987e-19)
(-0.1039681 -0.1691918 -3.585419e-19)
(-0.2347461 -0.2548172 1.319993e-20)
(-0.3292729 -0.4030356 -4.004763e-18)
(-0.8093169 -0.9821619 -3.231354e-20)
(-1.319136 -1.570326 3.918538e-18)
(-0.9549298 -1.153465 1.516875e-18)
(-0.4719941 -0.6310279 1.172614e-18)
(-0.4805285 -0.7831949 9.19517e-19)
(-0.803879 -1.328451 0)
(-0.2545326 -0.3420134 -6.796129e-22)
(0.5309895 1.250929 -6.014299e-19)
(1.222726 2.712175 0)
(1.141952 2.48954 1.438814e-18)
(0.2355611 0.4535582 -7.385106e-21)
(-0.2367698 -0.780162 2.844278e-21)
(-0.1849946 -0.759983 3.613238e-19)
(-0.0755434 -0.2475312 -1.996743e-22)
(0.1118105 0.9037011 0)
(0.2780175 2.280661 3.894515e-19)
(0.3581393 3.748411 3.787445e-21)
(0.3275074 5.260325 2.001362e-21)
(0.1909222 6.688857 -2.641533e-21)
(-0.3607096 8.175663 -3.054577e-19)
(-0.7386669 9.1011 7.062583e-19)
(-1.120863 9.610694 0)
(-1.459202 9.817712 1.552707e-18)
(-1.626865 9.779839 0)
(-1.319704 8.20272 4.624205e-18)
(-0.1611462 2.62105 1.466411e-20)
(1.474744 -4.12706 -1.556564e-20)
(1.606531 -4.461911 -4.300367e-18)
(1.359117 -3.829834 -3.595083e-18)
(1.246301 -3.001835 0)
(1.798828 -3.241413 2.350839e-20)
(2.623741 -4.540651 3.737711e-22)
(2.883874 -4.734797 -3.08701e-18)
(2.94984 -4.584795 -6.181525e-18)
(2.329663 -3.535437 3.027113e-18)
(1.110753 -1.864409 -3.237171e-18)
(-0.4555012 0.03272566 -2.887062e-20)
(-2.093493 1.833165 0)
(-3.619806 3.305094 0)
(-5.007334 4.374685 0)
(-6.017116 5.004662 1.073537e-17)
(-6.310089 5.029546 7.974085e-20)
(-5.826747 4.776835 -7.606555e-20)
(-1.943446 2.230262 3.03812e-20)
(5.099846 -2.94336 -3.318036e-20)
(3.847859 -2.657743 0)
(1.124899 -0.9834401 0)
(0.4333392 -0.3564598 1.482875e-17)
(0.3591388 -0.2975282 6.901676e-20)
(-0.4614404 -0.1599986 -6.632138e-20)
(-2.789709 0.3947502 5.958346e-18)
(-4.554534 1.054289 8.510492e-18)
(-7.332505 2.205081 -5.634734e-20)
(-3.134217 1.235124 -6.261465e-18)
(4.878144 -0.5928221 2.813474e-18)
(9.46519 -0.7711685 1.752391e-21)
(13.2464 -0.3464477 1.309319e-18)
(17.54788 -0.04829588 0)
(18.96497 0.3050406 3.329473e-19)
(19.2445 0.8162512 2.767887e-18)
(19.27023 1.466205 2.858537e-18)
(19.16987 2.164813 2.871882e-18)
(18.98386 2.868794 -8.888308e-20)
(18.73853 3.581678 5.765506e-18)
(18.44116 4.283861 -4.377738e-20)
(18.10706 4.973049 0)
(17.70867 5.628774 1.068693e-17)
(17.25204 6.253719 0)
(16.75417 6.84577 -7.555888e-20)
(16.20723 7.391738 7.578072e-20)
(15.60768 7.888623 9.080073e-18)
(14.96267 8.329957 -6.402413e-20)
(14.27897 8.715966 7.991146e-18)
(13.56475 9.042507 -7.428185e-18)
(12.82323 9.307263 0)
(12.06494 9.519309 4.515373e-20)
(11.29664 9.673906 -5.578418e-18)
(10.51346 9.757639 -9.624934e-18)
(9.720107 9.772571 0)
(8.929263 9.729521 -3.462218e-18)
(8.149971 9.629835 -1.867646e-20)
(7.382669 9.465765 2.048499e-18)
(6.628353 9.236581 7.862707e-21)
(5.893963 8.948221 -7.957729e-21)
(5.183351 8.597526 5.212549e-21)
(4.499811 8.18836 6.721783e-19)
(3.854311 7.726151 0)
(3.247947 7.216584 0)
(2.685492 6.662995 -2.076526e-20)
(2.171093 6.067151 0)
(1.707901 5.431156 0)
(1.297695 4.759693 0)
(0.9451338 4.064977 -2.330885e-18)
(0.6491922 3.356718 1.886003e-20)
(0.418456 2.630681 1.121697e-20)
(0.2441898 1.902335 -5.48182e-21)
(0.1332839 1.186824 -7.403115e-19)
(0.09365916 0.4500215 3.060178e-21)
(0.119953 -0.3776297 -7.597045e-19)
(0.1955103 -1.22046 1.456725e-18)
(0.3420934 -2.014064 1.11452e-20)
(0.553207 -2.771548 -2.664316e-18)
(0.8236516 -3.502072 -3.947384e-20)
(1.152768 -4.204819 2.36074e-18)
(1.536536 -4.873272 -2.131893e-18)
(1.975756 -5.507329 0)
(2.462899 -6.106882 -6.556401e-18)
(2.996078 -6.657118 -1.945276e-20)
(3.572651 -7.16042 2.192946e-18)
(4.186932 -7.620956 1.611231e-18)
(4.836328 -8.026194 0)
(5.518918 -8.377986 0)
(6.226655 -8.679946 0)
(6.950941 -8.917299 9.361633e-21)
(7.687254 -9.08603 -9.29936e-21)
(8.434852 -9.196356 2.123894e-18)
(9.188335 -9.246803 4.998668e-21)
(9.943592 -9.23408 -3.424723e-18)
(10.69479 -9.162807 -7.009687e-20)
(11.43174 -9.028472 9.13349e-18)
(12.14639 -8.828795 5.119497e-18)
(12.83414 -8.566742 -4.182241e-20)
(13.49707 -8.248564 6.035956e-18)
(14.13028 -7.879069 4.938918e-20)
(14.72574 -7.454387 -5.620223e-20)
(15.27574 -6.980233 5.59875e-20)
(15.77629 -6.459743 6.135678e-20)
(16.22618 -5.89876 8.056239e-18)
(16.62323 -5.303743 -6.331736e-20)
(16.96222 -4.681823 0)
(17.2504 -4.039025 0)
(17.49094 -3.389054 0)
(17.66736 -2.741966 0)
(17.74596 -2.098421 1.59034e-20)
(17.66764 -1.522638 -1.57809e-20)
(17.19001 -1.07906 9.194737e-19)
(15.11882 -0.737673 3.507791e-21)
(9.179013 -0.3649386 0)
(2.038455 -0.0679781 -1.181996e-18)
(-0.8183565 0.08773051 2.663029e-18)
(1.138588 0.5178049 -2.019726e-18)
(1.518123 0.8189563 1.449301e-20)
(4.366026 1.023404 -1.585525e-18)
(-4.600945 -2.327825 5.474451e-21)
(-10.93189 -4.174259 0)
(-9.352325 -3.226089 1.164415e-17)
(-7.308843 -2.487931 -1.319718e-17)
(-4.515342 -1.629133 -2.874101e-18)
(-2.686118 -1.095747 -1.167366e-20)
(-1.408232 -0.5285061 -2.715114e-21)
(-0.04773424 0.4062806 -2.628633e-21)
(2.464507 2.017039 0)
(3.710447 2.564573 -1.078922e-18)
(0.6835243 0.2124458 -5.2037e-19)
(-0.4691574 -0.5214054 -6.480566e-21)
(-0.5891371 -0.5555044 -1.117555e-18)
(-0.5105777 -0.5607739 3.318205e-18)
(-0.4718819 -0.6335558 1.813525e-18)
(-0.6144132 -0.7623505 5.300819e-22)
(-0.5677754 -0.6243601 -1.25933e-18)
(-0.3985415 -0.4882182 -8.819173e-21)
(-0.2979545 -0.5681983 -7.570102e-19)
(-0.913837 -1.466411 3.570431e-21)
(-0.3905728 -0.2909304 3.370134e-21)
(0.2891411 1.13035 -7.88819e-21)
(0.8583444 2.225049 0)
(1.402495 3.077317 0)
(0.7973914 1.607564 -6.923791e-19)
(-0.2690684 -1.177391 0)
(-0.3468278 -1.174985 -5.939983e-19)
(-0.1548288 -0.1385694 3.369993e-19)
(0.002175159 0.9000107 -4.316447e-21)
(0.1433682 2.328456 4.167293e-21)
(0.1923613 3.865815 4.790105e-19)
(0.1146055 5.440048 -3.496794e-19)
(-0.06221698 6.931018 -2.338666e-19)
(-0.3755857 8.160964 2.433812e-19)
(-0.6629732 9.090236 -5.753743e-19)
(-0.9475211 9.636063 2.002828e-20)
(-1.215613 9.722497 -1.311372e-18)
(-1.352703 9.41476 0)
(-1.235087 9.209497 -3.689633e-18)
(-0.4947409 6.150342 -2.205798e-20)
(1.286291 -2.015457 1.557007e-18)
(1.747307 -4.631068 3.515839e-18)
(1.49199 -4.390785 2.93209e-18)
(1.638769 -3.997679 2.47934e-18)
(2.27883 -3.974661 -1.885111e-20)
(2.787951 -4.674522 0)
(2.915215 -4.73309 0)
(2.782222 -4.413263 2.489734e-18)
(1.95997 -3.284069 2.481784e-18)
(0.704301 -1.701919 2.6678e-18)
(-0.7731409 0.03089991 4.653577e-20)
(-2.248514 1.676532 0)
(-3.636724 3.07053 5.894375e-18)
(-4.878173 4.066091 7.436301e-18)
(-5.702262 4.71442 -8.87613e-18)
(-5.797839 4.794396 0)
(-4.942121 4.480923 7.378156e-18)
(-2.684854 3.414945 0)
(3.958608 -1.806242 -1.925972e-18)
(4.425418 -3.07907 0)
(3.879478 -2.415477 -4.393026e-18)
(4.346034 -2.056252 -1.140718e-17)
(4.671306 -2.050684 0)
(3.800572 -1.879445 0)
(1.893843 -1.355507 1.069984e-20)
(-0.1805562 -0.2722369 -7.401492e-18)
(-2.124449 1.180343 7.500366e-18)
(-0.4779309 1.174879 9.731497e-18)
(11.09577 -0.7390558 -1.909072e-18)
(16.72542 -0.9774064 2.03189e-18)
(18.51892 -0.3534571 -1.007862e-18)
(19.13121 0.1756121 0)
(18.76012 0.6654178 0)
(18.69088 1.312557 -2.304057e-18)
(18.67578 2.039084 -2.398861e-18)
(18.60131 2.771904 -4.697313e-18)
(18.45387 3.500386 4.646162e-18)
(18.24575 4.218079 1.089693e-19)
(17.97694 4.904207 -7.223206e-20)
(17.63766 5.566191 0)
(17.23259 6.186302 0)
(16.77343 6.776764 8.382851e-18)
(16.27412 7.336343 -8.084088e-18)
(15.72959 7.84614 0)
(15.13482 8.306825 0)
(14.49798 8.710913 1.051196e-19)
(13.82392 9.061924 -6.661956e-18)
(13.12239 9.35309 0)
(12.39682 9.581585 -5.467437e-18)
(11.65536 9.760165 -4.960855e-18)
(10.90684 9.882355 -4.374673e-18)
(10.14734 9.93298 3.874738e-18)
(9.377521 9.917635 -4.782586e-20)
(8.611263 9.847665 2.797348e-18)
(7.857328 9.72359 0)
(7.117983 9.535892 -1.672036e-18)
(6.393047 9.28503 -1.252461e-20)
(5.686217 8.97911 8.888097e-21)
(5.008986 8.609601 -5.49946e-20)
(4.35585 8.185967 0)
(3.739872 7.711864 -1.143034e-18)
(3.161423 7.193289 -1.461128e-20)
(2.627553 6.632369 2.131801e-18)
(2.138793 6.032005 1.301462e-18)
(1.699814 5.39312 -1.516534e-18)
(1.310809 4.720518 -1.718415e-18)
(0.9758522 4.025808 1.89667e-18)
(0.6934621 3.318948 -2.065799e-18)
(0.4772814 2.593748 -1.075015e-18)
(0.3091794 1.867466 2.2967e-18)
(0.2024682 1.155522 1.211588e-18)
(0.1705382 0.4253082 2.48384e-21)
(0.2046048 -0.3867112 6.286862e-19)
(0.2741778 -1.2172 -9.442623e-21)
(0.4133443 -2.000569 0)
(0.6137761 -2.750419 -1.679215e-20)
(0.8688067 -3.475518 -1.483538e-20)
(1.179878 -4.174167 -1.866639e-18)
(1.541404 -4.840596 3.500571e-18)
(1.959501 -5.473529 -1.569731e-18)
(2.420526 -6.075651 2.657034e-18)
(2.92522 -6.630945 1.935055e-20)
(3.475145 -7.14065 0)
(4.06013 -7.611519 1.360467e-18)
(4.679649 -8.029314 9.40244e-21)
(5.334049 -8.395116 -3.775246e-19)
(6.011782 -8.715681 0)
(6.706563 -8.973508 6.733497e-19)
(7.416825 -9.163194 0)
(8.139034 -9.297485 -4.700116e-20)
(8.867206 -9.374771 2.204708e-18)
(9.600986 -9.388881 0)
(10.33033 -9.348353 -3.255601e-18)
(11.04768 -9.246477 -3.741604e-18)
(11.74513 -9.080305 -4.196692e-18)
(12.41782 -8.852103 0)
(13.06951 -8.56668 -1.007537e-17)
(13.69355 -8.231212 8.100016e-20)
(14.2827 -7.83957 0)
(14.82923 -7.398706 0)
(15.32918 -6.909605 0)
(15.7816 -6.379808 6.51069e-18)
(16.17955 -5.81785 -6.720324e-18)
(16.51538 -5.219159 0)
(16.78023 -4.589141 0)
(16.98521 -3.929585 3.447014e-18)
(17.12738 -3.258608 2.731666e-20)
(17.20057 -2.581537 0)
(17.22208 -1.926364 0)
(17.30601 -1.387049 -1.511916e-18)
(17.63369 -1.078264 1.70009e-19)
(16.08796 -0.7355718 0)
(12.0777 -0.1125181 7.809712e-19)
(9.577691 0.7617653 1.572702e-20)
(8.556608 1.493146 7.769475e-21)
(6.355824 1.616237 -1.89367e-20)
(2.514918 0.1607745 1.17812e-18)
(-5.373308 -3.150824 2.626249e-18)
(-7.994671 -3.531415 6.032997e-20)
(-7.454266 -2.47798 6.063294e-20)
(-5.367792 -1.366371 5.415735e-18)
(-2.704856 -0.5396179 2.409662e-18)
(-1.125673 -0.1832929 0)
(-0.3368959 0.1750675 1.430175e-19)
(0.2934006 0.845098 0)
(1.919963 1.887519 1.513654e-20)
(2.996177 1.875481 8.71539e-19)
(0.08773803 -0.5505701 -1.449914e-21)
(-0.5553092 -0.6948826 1.543253e-21)
(-0.7923266 -0.7762161 9.235512e-19)
(-0.7951724 -0.8565033 -1.369042e-18)
(-0.6155685 -0.7879405 -1.499698e-18)
(-0.5575399 -0.675918 -1.381848e-18)
(-0.6895342 -0.7617546 -1.027905e-18)
(-0.5604587 -0.682281 0)
(-0.04461229 -0.2803517 3.504497e-22)
(-0.7532177 -1.205058 0)
(-0.4935336 -0.2092758 -3.125649e-19)
(-0.07618913 0.6840977 4.069945e-19)
(0.3909859 1.451807 0)
(1.111455 2.266903 0)
(1.038916 1.753451 1.126688e-18)
(-0.2098472 -1.480196 -1.892201e-19)
(-0.3581092 -1.161256 4.878824e-19)
(-0.2819849 -0.1934381 -2.523383e-21)
(-0.1179177 0.9380898 2.476745e-21)
(-0.0009103597 2.355663 0)
(0.04507236 3.864152 -3.851884e-19)
(-0.02187225 5.424803 5.550358e-19)
(-0.1462065 6.913177 1.918752e-19)
(-0.5290511 8.186475 -3.971498e-19)
(-0.8057102 9.113995 -1.537851e-20)
(-1.095924 9.650854 1.553684e-20)
(-1.338695 9.737815 -3.199967e-20)
(-1.383481 9.311586 3.124331e-20)
(-1.040319 8.893456 1.528836e-18)
(-0.4463103 8.114527 -1.747313e-20)
(0.9302545 1.566714 -1.201154e-18)
(1.608499 -3.485435 4.383353e-20)
(1.366008 -4.143221 -2.431999e-18)
(1.698776 -4.259372 -6.500215e-20)
(2.36029 -3.993399 0)
(2.644636 -4.354015 0)
(2.644213 -4.36108 -2.112504e-18)
(2.356257 -3.990612 -2.077141e-18)
(1.49071 -2.983682 -4.070683e-18)
(0.3339282 -1.632762 -2.176845e-18)
(-0.9593886 -0.1578244 0)
(-2.219515 1.282514 0)
(-3.451653 2.589004 -9.684312e-18)
(-4.541779 3.522767 -1.227527e-17)
(-5.207767 4.199537 1.175066e-19)
(-5.162156 4.335527 -2.321655e-19)
(-3.974328 4.04549 -1.223763e-17)
(-2.084462 3.748362 -3.627035e-18)
(3.057646 -0.5903577 1.535607e-18)
(5.438134 -3.469926 2.138944e-18)
(6.78517 -3.740333 3.410578e-18)
(7.961166 -3.585368 4.482823e-18)
(8.492357 -3.63218 0)
(7.907257 -3.595498 -9.878502e-20)
(6.571008 -3.248972 -7.274552e-18)
(4.539176 -2.062441 5.913677e-20)
(2.332304 -0.01495033 8.015896e-20)
(5.88595 0.7981918 -3.551182e-18)
(16.49228 -0.7019998 -1.37299e-18)
(18.92958 -1.04473 -3.600652e-20)
(18.78966 -0.5625934 -8.178644e-19)
(18.59102 -0.08787346 -4.202813e-19)
(18.55855 0.2935974 -3.482004e-21)
(18.74376 0.8543724 0)
(18.81616 1.516641 -2.999744e-20)
(18.78951 2.217077 1.9751e-18)
(18.66607 2.923537 -7.685213e-18)
(18.47069 3.641865 5.88084e-20)
(18.20678 4.338773 -3.757478e-18)
(17.87298 5.012622 -1.123787e-19)
(17.47394 5.646445 -7.047031e-18)
(17.01818 6.254996 4.043843e-21)
(16.5212 6.838091 6.668197e-18)
(15.98006 7.368381 -6.274496e-18)
(15.38754 7.852393 0)
(14.75217 8.279066 8.510644e-20)
(14.07759 8.654949 -8.565691e-20)
(13.37336 8.972566 0)
(12.64294 9.2285 4.50432e-18)
(11.89541 9.434292 7.647369e-20)
(11.13948 9.583599 3.657527e-18)
(10.37253 9.660026 -3.128742e-18)
(9.596705 9.666874 -2.670853e-18)
(8.820486 9.620761 -2.26244e-18)
(8.057409 9.518895 -1.757899e-18)
(7.309411 9.351529 1.682247e-20)
(6.57458 9.120135 -1.699037e-20)
(5.857388 8.833109 0)
(5.169535 8.481267 4.833593e-20)
(4.505238 8.074264 -1.137696e-20)
(3.878914 7.615033 9.504795e-19)
(3.29043 7.110051 1.351592e-18)
(2.749117 6.560734 -1.743575e-18)
(2.252744 5.971065 -1.06818e-18)
(1.806698 5.341677 -5.053229e-21)
(1.410737 4.677372 1.40965e-18)
(1.071558 3.9887 2.519215e-20)
(0.783767 3.286813 1.655508e-18)
(0.5663428 2.563481 1.425635e-20)
(0.3951479 1.837176 -9.598809e-19)
(0.2867237 1.125751 -4.938876e-19)
(0.2619039 0.3988238 -6.210126e-23)
(0.3044424 -0.3947207 4.984604e-19)
(0.3706298 -1.212833 7.730047e-21)
(0.5063553 -1.987056 -9.461201e-19)
(0.707028 -2.728412 1.805875e-18)
(0.9631763 -3.444245 0)
(1.276538 -4.132807 -2.60877e-21)
(1.640628 -4.788789 -1.439063e-18)
(2.064085 -5.41082 1.323949e-18)
(2.528899 -6.002698 -2.278254e-18)
(3.041747 -6.544989 2.675666e-20)
(3.601775 -7.040977 -2.650645e-20)
(4.192526 -7.49985 -1.118023e-18)
(4.821129 -7.902417 0)
(5.488842 -8.250278 3.044187e-19)
(6.17439 -8.555554 3.341757e-21)
(6.877945 -8.795484 -4.722174e-20)
(7.598403 -8.965443 -9.079562e-19)
(8.329162 -9.080309 -1.40737e-18)
(9.065248 -9.136999 -2.446752e-20)
(9.806499 -9.129324 2.16601e-18)
(10.54416 -9.064966 -3.727691e-20)
(11.26752 -8.939827 -2.962478e-18)
(11.97046 -8.748731 0)
(12.64959 -8.493315 3.683193e-18)
(13.30514 -8.183111 4.088376e-18)
(13.92954 -7.826279 4.247782e-18)
(14.51823 -7.412903 -4.531906e-18)
(15.0627 -6.952358 4.858519e-18)
(15.56038 -6.444347 0)
(16.0104 -5.896666 -1.064943e-17)
(16.40456 -5.323675 1.108475e-17)
(16.73575 -4.715516 -1.307315e-19)
(16.99957 -4.07632 -2.81462e-18)
(17.19181 -3.421699 -2.826823e-18)
(17.30519 -2.764313 0)
(17.31817 -2.125934 1.404932e-18)
(17.23135 -1.536833 -1.352909e-18)
(17.02764 -1.068031 6.351409e-19)
(17.19559 -0.8706598 -1.472604e-19)
(17.70479 -0.6916387 -2.808176e-19)
(17.13314 0.005017058 9.062173e-21)
(16.02972 1.19777 -1.313365e-18)
(14.56991 1.987835 2.419946e-20)
(11.82588 2.009637 0)
(3.794467 -0.2453276 0)
(-3.913455 -3.364686 -9.558324e-20)
(-4.733856 -2.703206 1.057577e-19)
(-5.124169 -1.466808 0)
(-3.277156 -0.08587626 0)
(-0.9187062 0.5922242 0)
(0.602194 0.8201809 8.026498e-19)
(1.071939 0.9866858 -2.195321e-19)
(0.9848834 1.372861 -5.402226e-19)
(1.353779 1.620739 8.910022e-19)
(1.877273 0.7954238 2.113152e-20)
(-0.1352991 -1.010975 -3.286154e-19)
(-0.5749069 -0.7676792 2.174363e-19)
(-0.9340907 -0.9394379 1.481483e-20)
(-1.124474 -1.17828 3.751163e-21)
(-1.04814 -1.22696 -1.84507e-20)
(-0.9773904 -1.183342 -1.547554e-20)
(-1.115852 -1.305419 8.696825e-19)
(-0.7625248 -0.8427751 0)
(0.05095837 -0.1988867 5.17228e-19)
(-0.5369029 -0.8884414 -3.568897e-19)
(-0.6436083 -0.3146587 2.612752e-19)
(-0.489357 0.06348077 0)
(-0.1483991 0.5011512 0)
(0.6216255 0.976103 -1.042327e-20)
(1.020155 1.149354 -4.612449e-19)
(-0.1837657 -1.912507 1.599085e-19)
(-0.3953895 -1.020408 -1.99887e-19)
(-0.4220642 -0.2479454 0)
(-0.2700458 0.982551 0)
(-0.1755278 2.384349 0)
(-0.140989 3.872182 -3.079e-19)
(-0.2100224 5.437237 -2.314783e-19)
(-0.3130891 6.934989 -3.126728e-19)
(-0.6835755 8.243206 1.619622e-19)
(-0.9120604 9.165938 0)
(-1.114534 9.704818 -8.526909e-19)
(-1.253212 9.791306 0)
(-1.267515 9.436551 -1.596124e-18)
(-0.8818183 8.636506 0)
(-0.2172336 8.739014 0)
(0.6638447 5.094008 -9.489158e-19)
(1.199964 -0.4603422 -2.314445e-18)
(1.057929 -2.978982 2.119205e-18)
(1.611678 -4.132933 -1.670305e-18)
(2.2975 -3.742476 1.617522e-18)
(2.438191 -3.938007 0)
(2.324558 -3.879245 3.528471e-18)
(1.923028 -3.528827 1.717336e-18)
(1.079291 -2.742121 1.728287e-18)
(0.08879367 -1.708726 -5.400255e-20)
(-0.9674561 -0.5617616 -8.115655e-20)
(-2.020947 0.6748182 -2.890828e-18)
(-3.11796 1.920045 8.032043e-18)
(-4.069973 2.826079 5.092856e-18)
(-4.609954 3.596799 1.973579e-19)
(-4.407649 3.869539 6.364395e-18)
(-3.068378 3.695299 5.171556e-18)
(-0.7962029 3.587578 2.980666e-18)
(2.954613 0.2836094 0)
(6.923599 -3.780835 -2.764917e-20)
(9.454263 -4.728535 0)
(10.98395 -4.757443 3.301413e-18)
(11.6447 -4.905999 3.750085e-18)
(11.54251 -5.068422 4.243206e-18)
(11.211 -4.983871 -1.604931e-19)
(10.46616 -3.758091 1.096056e-19)
(9.69534 -1.149048 -8.52243e-18)
(13.31808 0.3306542 0)
(18.97284 -0.4759627 -1.09641e-18)
(18.30868 -0.9051794 -1.324112e-18)
(18.11752 -0.4607206 1.375467e-18)
(18.20425 0.1185601 3.341735e-19)
(18.30927 0.6377062 0)
(18.45164 1.272851 7.630096e-19)
(18.50161 1.963379 0)
(18.46698 2.663343 0)
(18.34103 3.351569 3.212732e-18)
(18.14442 4.056962 -4.881193e-20)
(17.88468 4.726174 4.978699e-20)
(17.55416 5.371094 -2.956796e-18)
(17.16164 5.970763 5.918073e-18)
(16.71258 6.546363 -5.630017e-18)
(16.22543 7.098202 -5.42172e-18)
(15.70022 7.587387 2.447362e-19)
(15.12135 8.037968 -1.569535e-19)
(14.50342 8.428844 -1.38369e-19)
(13.84559 8.774464 -3.981564e-18)
(13.16061 9.063525 -4.057441e-18)
(12.45015 9.291253 -1.072459e-19)
(11.72035 9.475169 3.412433e-18)
(10.98713 9.602059 0)
(10.24456 9.656257 2.576451e-18)
(9.48709 9.647947 2.198763e-18)
(8.730242 9.588728 1.763132e-18)
(7.988998 9.475189 1.446478e-18)
(7.261826 9.298805 0)
(6.547826 9.058946 0)
(5.848112 8.76849 2.749396e-19)
(5.180607 8.412453 0)
(4.530982 8.005654 0)
(3.920945 7.547404 8.440632e-19)
(3.349667 7.044055 -1.219685e-20)
(2.818937 6.499646 -1.528289e-20)
(2.330844 5.915239 -2.969918e-20)
(1.893543 5.291339 2.084485e-18)
(1.506768 4.632406 0)
(1.177115 3.948644 0)
(0.8858775 3.25455 1.402014e-18)
(0.6725467 2.533633 7.115419e-19)
(0.4997773 1.806998 7.744842e-19)
(0.3892198 1.096023 -4.044033e-19)
(0.3717064 0.3708586 0)
(0.4249582 -0.399258 -4.240749e-22)
(0.486946 -1.204225 2.487427e-20)
(0.6116842 -1.968874 7.506209e-19)
(0.8060527 -2.698926 -1.480174e-18)
(1.057264 -3.403517 -4.244919e-20)
(1.365993 -4.082491 1.301238e-18)
(1.725022 -4.730081 3.857822e-20)
(2.143269 -5.345155 2.129227e-18)
(2.594835 -5.933514 -1.180603e-20)
(3.094309 -6.472318 -1.61729e-18)
(3.645476 -6.96571 4.405327e-20)
(4.222051 -7.425421 0)
(4.830639 -7.830775 6.368166e-19)
(5.48418 -8.181213 0)
(6.155417 -8.491565 0)
(6.837037 -8.741212 -4.21005e-19)
(7.538069 -8.92059 1.480998e-18)
(8.251861 -9.045984 3.923479e-20)
(8.967694 -9.116821 -8.882568e-20)
(9.689196 -9.124755 -1.777982e-18)
(10.40658 -9.080151 -2.058842e-18)
(11.11002 -8.976418 2.52149e-18)
(11.79189 -8.810803 -2.761237e-18)
(12.44958 -8.583998 -6.841102e-20)
(13.088 -8.300515 0)
(13.69476 -7.975314 -3.677255e-18)
(14.26796 -7.593326 7.755086e-18)
(14.79798 -7.167699 -4.133015e-18)
(15.28199 -6.695922 0)
(15.72283 -6.182076 8.395031e-20)
(16.10967 -5.640568 -4.43791e-18)
(16.43465 -5.060624 -7.066644e-20)
(16.69428 -4.445317 1.169044e-19)
(16.88509 -3.806297 -7.242245e-20)
(17.00122 -3.162336 0)
(17.02959 -2.515663 -2.237652e-18)
(16.96631 -1.893304 1.052711e-18)
(16.81573 -1.344526 5.042743e-19)
(16.70072 -0.966111 -7.644329e-21)
(17.12654 -0.6459337 2.312676e-19)
(17.63449 0.1363979 4.791258e-19)
(17.35386 1.346451 0)
(16.2305 2.024762 8.528153e-19)
(14.75407 1.829104 -2.685196e-20)
(7.10507 -0.5334743 7.50185e-19)
(-1.013998 -3.145755 0)
(-1.389413 -1.804512 0)
(-2.15237 -0.2683457 0)
(-0.7256879 1.400777 4.289574e-20)
(1.10073 1.862691 1.595194e-18)
(2.380408 1.840455 -6.54024e-19)
(2.628297 1.799523 1.041749e-19)
(1.956085 1.906096 8.989832e-19)
(1.032978 1.3377 -7.643647e-19)
(0.9464353 -0.1683766 0)
(-0.003871063 -1.10218 2.658282e-19)
(-0.553231 -0.8311301 -1.796332e-19)
(-1.037583 -1.132603 6.639483e-19)
(-1.467499 -1.595252 -2.436746e-20)
(-1.613146 -1.897753 -2.99402e-20)
(-1.618985 -1.971525 3.013766e-20)
(-1.512116 -1.713068 0)
(-0.9174333 -0.8135438 -5.29386e-19)
(-0.0413411 -0.2606971 1.118192e-20)
(-0.3235669 -0.6197922 5.712713e-19)
(-0.8091705 -0.5837274 -2.238573e-19)
(-0.9027793 -0.6752922 2.04195e-20)
(-0.7136625 -0.5790549 -5.437666e-19)
(0.02153525 -0.2249306 0)
(0.8157826 0.02799033 -3.946619e-19)
(-0.1786981 -2.311477 1.352623e-19)
(-0.4603688 -0.8802021 -1.022597e-20)
(-0.5521037 -0.2132347 2.00931e-19)
(-0.4455869 1.049769 -1.141982e-20)
(-0.3780556 2.4202 4.55326e-21)
(-0.3649939 3.899508 2.556942e-19)
(-0.4347258 5.485355 -3.449005e-21)
(-0.5010531 6.99449 3.328056e-21)
(-0.8715317 8.323482 8.977712e-21)
(-1.044069 9.229805 3.030886e-19)
(-1.177028 9.759075 7.002056e-19)
(-1.256308 9.843244 -7.163529e-19)
(-1.184282 9.530725 1.310596e-18)
(-0.792855 8.707242 0)
(-0.005126833 8.656347 8.040114e-19)
(0.5886388 7.412915 8.020503e-19)
(0.729273 3.278133 1.787545e-18)
(0.6717261 -0.5965607 0)
(1.432802 -3.547838 0)
(2.184852 -3.430018 -1.342877e-18)
(2.229026 -3.547158 -4.400096e-20)
(2.03713 -3.506749 -1.416412e-18)
(1.567688 -3.220935 -1.404786e-18)
(0.7936959 -2.673885 -1.379209e-18)
(0.002492212 -1.985525 1.484154e-18)
(-0.8146395 -1.157525 -1.765758e-18)
(-1.743741 -0.05802431 2.302351e-18)
(-2.752164 1.218222 -3.245267e-18)
(-3.599796 2.082827 0)
(-4.049181 2.998993 0)
(-3.690772 3.434044 -5.463677e-18)
(-2.177782 3.446331 0)
(0.7009324 3.245288 -5.635108e-20)
(3.646388 0.8043025 2.169854e-20)
(8.46122 -3.800659 -1.20402e-18)
(11.29121 -5.173849 -5.291873e-20)
(12.84759 -5.371466 -2.957393e-20)
(13.62736 -5.615847 -2.996346e-18)
(14.08558 -5.94883 3.674937e-21)
(14.94987 -6.154679 2.164507e-18)
(16.07416 -5.107858 -9.801618e-20)
(16.78187 -2.250552 3.346654e-18)
(18.1795 -0.1274497 -7.555982e-20)
(18.9946 -0.3811808 3.701424e-18)
(17.64295 -0.8954231 3.315904e-20)
(18.03686 -0.5097067 -7.877881e-21)
(18.19321 -0.03897238 -5.732488e-19)
(18.33747 0.398615 -4.675317e-21)
(18.47987 0.9630327 -6.292831e-19)
(18.53492 1.605463 -3.974403e-20)
(18.50005 2.282613 -1.227306e-18)
(18.36974 2.967198 2.515815e-18)
(18.17324 3.673939 -2.487953e-18)
(17.92049 4.340666 4.757848e-18)
(17.59308 5.008586 2.588568e-18)
(17.20251 5.623682 0)
(16.75235 6.217882 0)
(16.2661 6.791319 4.396624e-18)
(15.7421 7.29962 4.194806e-18)
(15.16372 7.768279 0)
(14.54906 8.170738 -1.114207e-19)
(13.89143 8.530953 3.610461e-18)
(13.2036 8.839953 3.233623e-18)
(12.49421 9.079774 2.869392e-18)
(11.77066 9.269297 -7.747229e-20)
(11.03942 9.409073 -2.237252e-18)
(10.29386 9.479992 5.867097e-20)
(9.541065 9.477817 -5.923634e-20)
(8.792753 9.422375 -1.489007e-18)
(8.054376 9.318626 1.14283e-18)
(7.323087 9.157975 0)
(6.617086 8.922614 0)
(5.919815 8.642506 -4.170986e-19)
(5.261087 8.292643 -9.32685e-21)
(4.61611 7.894618 -8.965826e-21)
(4.02189 7.440847 -6.511318e-19)
(3.458745 6.94509 -1.868642e-18)
(2.920142 6.417612 1.127352e-18)
(2.434332 5.84497 -1.424933e-18)
(2.002086 5.231206 -8.158955e-19)
(1.625656 4.579958 -2.828815e-20)
(1.304632 3.900726 0)
(1.005506 3.219476 -1.094069e-18)
(0.8037871 2.504316 -3.686413e-20)
(0.6258529 1.777493 -6.440912e-19)
(0.5130583 1.068184 3.465506e-19)
(0.5032378 0.3424208 4.645648e-23)
(0.5676673 -0.4009308 -3.544373e-19)
(0.6167459 -1.194072 3.067801e-20)
(0.73778 -1.944443 -6.536845e-19)
(0.9251116 -2.65774 1.212071e-18)
(1.170709 -3.350243 -1.1833e-18)
(1.475326 -4.020391 2.297444e-21)
(1.829734 -4.65883 1.008268e-18)
(2.252038 -5.263474 -1.694239e-18)
(2.694734 -5.84679 1.512191e-18)
(3.183274 -6.380512 1.209619e-18)
(3.735064 -6.865205 7.474435e-21)
(4.318132 -7.313078 7.905753e-21)
(4.918718 -7.712136 -5.021271e-19)
(5.55586 -8.06394 2.823891e-19)
(6.226637 -8.36628 4.903655e-21)
(6.906617 -8.606535 2.732354e-19)
(7.599676 -8.780055 -1.162418e-18)
(8.305591 -8.901968 8.435754e-19)
(9.025739 -8.956192 -5.067637e-20)
(9.74426 -8.954921 -1.411676e-18)
(10.45416 -8.906617 3.377704e-18)
(11.15752 -8.790356 6.419544e-20)
(11.83646 -8.614927 2.14269e-18)
(12.49439 -8.372829 -2.522863e-18)
(13.13466 -8.073299 7.840772e-20)
(13.74053 -7.735368 -2.889692e-18)
(14.31447 -7.335272 -2.973161e-18)
(14.84411 -6.893602 1.022756e-19)
(15.32986 -6.398786 -3.409832e-18)
(15.77114 -5.863563 3.524298e-18)
(16.15794 -5.302973 0)
(16.48116 -4.706784 0)
(16.73706 -4.084889 1.882039e-18)
(16.92773 -3.453929 1.84994e-18)
(17.04486 -2.825733 0)
(17.07007 -2.213215 9.564321e-19)
(16.99914 -1.643554 8.499457e-19)