/*--------------------------------*- C++ -*----------------------------------*\
| =========                 |                                                 |
| \\      /  F ield         | OpenFOAM: The Open Source CFD Toolbox           |
|  \\    /   O peration     | Version:  2406                                  |
|   \\  /    A nd           | Website:  www.openfoam.com                      |
|    \\/     M anipulation  |                                                 |
\*---------------------------------------------------------------------------*/
FoamFile
{
    version     2.0;
    format      ascii;
    arch        "LSB;label=32;scalar=64";
    class       surfaceScalarField;
    location    "1.82";
    object      phi;
}
// * * * * * * * * * * * * * * * * * * * * * * * * * * * * * * * * * * * * * //

dimensions      [0 3 -1 0 0 0 0];

oriented        oriented;

internalField   nonuniform List<scalar> 
326221
(
-0.001796644
-0.004050195
0.005846839
-0.0008718138
-0.0009248305
0.0003236003
-0.001195414
-0.001053151
0.001376752
-0.001073612
2.046074e-05
-0.0001162111
-0.0009574009
-9.762243e-05
-1.858865e-05
-0.0001516345
5.401206e-05
2.34731e-05
-0.0001751076
0.0001237234
-0.0001002503
0.0002275772
-0.0001038537
0.0003150431
-8.746599e-05
0.0003545769
-3.953372e-05
0.0003826026
-2.80257e-05
0.0005210175
-0.000138415
0.0006584906
-0.000137473
0.0007672548
-0.0001087643
0.0008201097
-5.28549e-05
0.000778555
4.155471e-05
0.0005655817
0.0002129734
0.0002479802
0.0003176015
1.354741e-05
0.0002344328
-0.0001203118
0.0001338593
-0.000208996
8.868419e-05
-0.0001479946
-6.100145e-05
-8.7035e-05
-6.095959e-05
-6.960721e-05
-1.742778e-05
-6.862023e-05
-9.869814e-07
-4.530486e-05
-2.331537e-05
-6.048258e-07
-4.470003e-05
6.558039e-05
-6.618522e-05
0.000158142
-9.256157e-05
0.0002774229
-0.000119281
0.000444033
-0.0001666101
0.0005143885
-7.035549e-05
0.0003751405
0.000139248
6.539432e-05
0.0003097462
-6.623079e-06
7.20174e-05
-0.0001761572
0.0001695341
-0.0005789746
0.0004028174
-0.0003086738
-0.0002703008
0.000388015
-0.0006966888
0.0008490356
-0.0004610205
0.0008441844
4.851136e-06
0.0005777083
0.0002664761
0.00024329
0.0003344183
-1.874338e-05
0.0002620334
-6.262179e-05
4.387841e-05
-3.489496e-05
-2.772683e-05
-0.0001087983
7.390329e-05
0.0004169238
-0.0005257221
0.0009244666
-0.0005075428
0.001318169
-0.000393702
0.001619258
-0.000301089
0.001853385
-0.0002341277
0.002047774
-0.0001943883
0.00222228
-0.0001745064
0.002372911
-0.0001506311
0.00250322
-0.000130309
0.002614099
-0.0001108787
0.002736417
-0.0001223184
0.002863499
-0.0001270818
0.002962072
-9.857273e-05
0.003044057
-8.198507e-05
0.003122969
-7.89123e-05
0.003198518
-7.554859e-05
0.003272071
-7.355352e-05
0.003345653
-7.358179e-05
0.003416563
-7.09102e-05
0.003479951
-6.33878e-05
0.003542464
-6.251255e-05
0.003599489
-5.70256e-05
0.003648526
-4.903653e-05
0.003691244
-4.271796e-05
0.003730184
-3.894028e-05
0.003761297
-3.111314e-05
0.003786128
-2.483058e-05
0.003802776
-1.664792e-05
0.003808903
-6.127792e-06
0.003812382
-3.478906e-06
0.003805869
6.513465e-06
0.00378244
2.342929e-05
0.003726448
5.599185e-05
0.003570276
0.0001561713
0.003505816
6.446091e-05
0.003434189
7.162668e-05
0.003347711
8.647762e-05
0.003238574
0.0001091376
0.003100579
0.0001379943
0.002925824
0.0001747552
0.00269887
0.0002269541
0.002398757
0.000300113
0.00200112
0.0003976369
0.001472725
0.0005283954
0.0008017567
0.000670968
3.605862e-05
0.0007656981
-0.0004021978
0.0004382565
-0.0001028527
-0.0002993451
9.719117e-05
-0.0002000439
-0.0009052383
0.001002429
-0.002523265
0.001618026
-0.002560584
3.731944e-05
-0.001483443
-0.001077141
-0.0007316847
-0.0007517579
-0.0003443931
-0.0003872917
0.0001223047
-0.0004666978
0.001081789
-0.0009594841
0.001739428
-0.0006576396
-6.210981e-05
0.001801538
-0.002696289
0.002634179
-0.00338456
0.0006882709
-0.002729175
-0.0006553851
-0.001775997
-0.0009531779
-0.001078204
-0.0006977929
-0.0006785534
-0.0003996506
-0.0003500366
-0.0003285168
8.677633e-05
-0.0004368129
0.0006379192
-0.0005511429
0.001240919
-0.0006029997
0.001543371
-0.0003024519
0.001457328
8.60428e-05
0.001252838
0.0002044902
0.001013378
0.0002394602
0.0006303116
0.000383066
0.0005398667
9.04449e-05
0.0007013148
-0.0001614481
0.0007005276
7.871959e-07
0.0004327512
0.0002677764
0.0008041312
-0.00037138
0.00157587
-0.0007717393
0.001158444
0.0004174265
0.0003478437
0.0008106003
9.256822e-05
0.0002552755
-0.0006575749
0.0007501432
-0.001973275
0.0013157
-0.002743696
0.0007704209
-0.002912036
0.0001683401
-0.00285544
-5.659624e-05
-0.002747143
-0.0001082973
-0.00240928
-0.0003378625
-0.00189664
-0.0005126399
-0.001285653
-0.0006109872
-0.0007365181
-0.000549135
-0.0003092548
-0.0004272633
-7.299077e-05
-0.000236264
-0.0005418756
0.0004688848
-0.001190605
0.0006487298
-0.001569953
0.0003793479
-0.000422874
-0.001147079
-0.0007170835
0.0002942095
-0.0008418549
0.0001247714
-0.0006698313
-0.0001720236
0.0001915567
-0.000861388
0.001065981
-0.0008744243
0.001609304
-0.0005433231
0.002218364
-0.0006090601
0.002852459
-0.0006340953
0.003528064
-0.0006756046
0.00414676
-0.0006186962
0.004671592
-0.000524832
0.005137347
-0.0004657551
0.005476377
-0.0003390299
0.005776533
-0.0003001556
0.006030446
-0.0002539131
0.00618381
-0.0001533638
0.006344311
-0.0001605011
0.006404968
-6.065688e-05
0.006219958
0.00018501
0.00570491
0.0005150477
0.004558583
0.001146327
0.002397974
0.002160609
5.901458e-05
0.002338959
-0.001099045
0.00115806
-0.001527691
0.0004286455
-0.001763816
0.0002361249
-0.001244168
-0.0005196478
-0.001684637
0.0004404694
-0.003297554
0.001612917
-0.003928309
0.0006307556
-0.003211652
-0.0007166576
-0.00242633
-0.0007853218
-0.001870541
-0.000555789
-0.001485944
-0.0003845967
-0.001163892
-0.0003220518
-0.0007810493
-0.0003828432
-0.0003758018
-0.0004052474
-0.0001061897
-0.0002696122
-0.0001381196
3.192993e-05
-0.0004400988
0.0003019792
-0.0005387283
9.862949e-05
-0.0006597927
0.0001210644
3.792332e-06
-0.000663585
0.0005135802
-0.0005097879
0.0001796072
0.000333973
0.0003757552
-0.0001961479
0.001163699
-0.0007879436
0.0005196286
0.0006440702
0.00174614
-0.001226512
0.002561891
-0.000815751
-0.006487464
0.009049355
-0.006763627
0.000276163
-0.005838919
-0.0009247081
-0.005484528
-0.0003543901
-0.005123221
-0.0003613078
-0.004851342
-0.0002718789
-0.004602337
-0.000249005
-0.004385803
-0.0002165334
-0.004094668
-0.0002911355
-0.003944403
-0.0001502642
-0.003814627
-0.0001297761
-0.003694835
-0.0001197924
-0.003587533
-0.000107302
-0.003483567
-0.0001039658
-0.003384683
-9.888398e-05
-0.003290445
-9.42383e-05
-0.003205403
-8.504211e-05
-0.003126377
-7.902596e-05
-0.003050539
-7.583828e-05
-0.00297585
-7.468853e-05
-0.002906182
-6.966768e-05
-0.00283882
-6.73619e-05
-0.002775262
-6.355867e-05
-0.002717358
-5.790331e-05
-0.0026588
-5.855801e-05
-0.002600694
-5.810617e-05
-0.0025421
-5.85938e-05
-0.002487096
-5.500482e-05
-0.002436459
-5.063675e-05
-0.002389734
-4.672448e-05
-0.002341454
-4.828069e-05
-0.00229399
-4.746389e-05
-0.002244112
-4.987809e-05
-0.002199237
-4.487497e-05
-0.002156999
-4.223778e-05
-0.002113143
-4.385625e-05
-0.00206894
-4.420293e-05
-0.002023761
-4.517926e-05
-0.001982164
-4.159704e-05
-0.001942446
-3.971732e-05
-0.001967812
2.536578e-05
-0.001938953
-2.8859e-05
-0.001906518
-3.243458e-05
-0.001873769
-3.274902e-05
-0.001844176
-2.959294e-05
-0.001813554
-3.062281e-05
-0.001784689
-2.886513e-05
-0.001755432
-2.925666e-05
-0.001725909
-2.952318e-05
-0.001692209
-3.369995e-05
-0.001657879
-3.432993e-05
-0.001624929
-3.294948e-05
-0.001592521
-3.240802e-05
-0.001559671
-3.285052e-05
-0.001521565
-3.810601e-05
-0.001479244
-4.232038e-05
-0.001430947
-4.829712e-05
-0.00137985
-5.109752e-05
-0.001318474
-6.13756e-05
-0.001242659
-7.581506e-05
-0.001144499
-9.816014e-05
-0.001012181
-0.0001323176
-0.0008145511
-0.0001976303
-0.0005097108
-0.0003048403
-8.120982e-05
-0.000428501
0.0004011613
-0.0004823711
0.0007985894
-0.0003974281
0.0007929561
5.633295e-06
0.0003332075
0.0004597486
0.0002705862
6.262129e-05
-0.0002031063
0.0004736924
-0.001980105
0.001776999
-0.000725856
-0.001254249
0.0004456703
-0.001171526
0.0006336127
-0.0001879424
0.0006440122
-1.039947e-05
0.000708358
-6.434581e-05
0.000798867
-9.050901e-05
0.0008739554
-7.508838e-05
0.0009255385
-5.158313e-05
0.0009714618
-4.592335e-05
0.001026225
-5.476365e-05
0.001073087
-4.686102e-05
0.001112588
-3.950143e-05
0.001142327
-2.973894e-05
0.001168606
-2.627882e-05
0.001191966
-2.335985e-05
0.001216419
-2.445299e-05
0.001238792
-2.237349e-05
0.001255749
-1.695713e-05
0.001271804
-1.60553e-05
0.001290225
-1.842025e-05
0.001306591
-1.636651e-05
0.001321062
-1.44705e-05
0.00133842
-1.735857e-05
0.001352382
-1.396215e-05
0.001370443
-1.806022e-05
0.001392505
-2.20624e-05
0.001408593
-1.608785e-05
0.00142126
-1.26668e-05
0.001435392
-1.413237e-05
0.001451704
-1.631154e-05
0.001462137
-1.043299e-05
0.001433692
2.844463e-05
0.001454427
-2.073512e-05
0.001481526
-2.709922e-05
0.001508105
-2.657818e-05
0.001534511
-2.640649e-05
0.001562829
-2.831754e-05
0.001588796
-2.596737e-05
0.001611655
-2.285904e-05
0.00163686
-2.520534e-05
0.00166642
-2.95599e-05
0.001698457
-3.2037e-05
0.001724517
-2.606009e-05
0.001748648
-2.413119e-05
0.001775396
-2.67474e-05
0.001804576
-2.917966e-05
0.001834427
-2.98515e-05
0.001868446
-3.401926e-05
0.001903564
-3.511753e-05
0.00193818
-3.46163e-05
0.00197298
-3.480006e-05
0.002004681
-3.170067e-05
0.002044473
-3.979256e-05
0.002086707
-4.223401e-05
0.002130152
-4.34443e-05
0.002176737
-4.65857e-05
0.002224574
-4.783622e-05
0.002278477
-5.39031e-05
0.002338341
-5.986428e-05
0.002398475
-6.01344e-05
0.002464201
-6.572561e-05
0.002540815
-7.661363e-05
0.00263418
-9.336512e-05
0.002820135
-0.0001859555
0.00295283
-0.0001326943
0.003104805
-0.0001519758
0.003276865
-0.0001720592
0.003499683
-0.0002228188
0.003731496
-0.0002318125
0.004289156
-0.0005576606
0.0002389619
-0.0009654507
0.002118467
-0.002407265
-0.0001027705
-0.002034207
0.0001750642
-0.000465777
0.0006101257
-0.000445461
0.0009103097
-0.0003645299
0.001149113
-0.000329312
0.001336753
-0.0002627285
0.001484641
-0.0001994709
0.001613379
-0.000174662
0.001742241
-0.0001836259
0.001859888
-0.0001645077
0.001969188
-0.0001488011
0.002067138
-0.0001276887
0.002159221
-0.0001183623
0.002244379
-0.0001085174
0.002327362
-0.0001074364
0.002405938
-0.0001009496
0.002478255
-8.927424e-05
0.002546575
-8.437504e-05
0.002614209
-8.605436e-05
0.002678269
-8.04269e-05
0.002738575
-7.477619e-05
0.00279964
-7.842362e-05
0.002855974
-7.029563e-05
0.002913768
-7.585466e-05
0.002972906
-8.11999e-05
0.003028311
-7.149336e-05
0.00307951
-6.386591e-05
0.003131335
-6.595719e-05
0.003182754
-6.773006e-05
0.003231746
-5.942589e-05
0.003209639
5.05525e-05
0.003266232
-7.732896e-05
0.003325867
-8.673396e-05
0.003384916
-8.562733e-05
0.003443655
-8.514497e-05
0.003503071
-8.773404e-05
0.003561384
-8.427981e-05
0.003616438
-7.791343e-05
0.003673336
-8.210333e-05
0.003731464
-8.768761e-05
0.003792752
-9.332538e-05
0.003848989
-8.229661e-05
0.003904849
-7.999174e-05
0.003961191
-8.308889e-05
0.004019538
-8.752684e-05
0.004077621
-8.793481e-05
0.004138967
-9.536455e-05
0.004201462
-9.761283e-05
0.004263674
-9.682874e-05
0.004327155
-9.828129e-05
0.004387491
-9.203666e-05
0.004454592
-0.0001068936
0.004522096
-0.0001097378
0.004592338
-0.0001136864
0.004663853
-0.0001181002
0.004737896
-0.0001218798
0.004815599
-0.0001316058
0.004899137
-0.0001434018
0.00498282
-0.0001438172
0.005072114
-0.0001550202
0.005169892
-0.0001743916
0.005281747
-0.0002052197
0.005540009
-0.0004442181
0.005692564
-0.0002852488
0.005868414
-0.0003278264
0.006059829
-0.0003634738
0.006313488
-0.0004764784
0.006531192
-0.000449516
0.007184347
-0.001210816
0.00648192
0.0009413898
-0.01046822
0.00964159
0.001102789
-0.009428851
-0.001964073
-0.009078627
-0.0007046144
-0.008682952
-0.0007569828
-0.00838657
-0.0005682613
-0.008109434
-0.0005261407
-0.007870903
-0.0004550643
-0.007486416
-0.0006756227
-0.007310231
-0.0003264487
-0.007152959
-0.0002870488
-0.00700383
-0.0002689216
-0.006866251
-0.0002448802
-0.006731025
-0.0002391924
-0.006601926
-0.0002279831
-0.006475579
-0.0002205854
-0.006358321
-0.0002022992
-0.006244015
-0.0001933329
-0.006134456
-0.0001853969
-0.006024568
-0.0001845765
-0.005920177
-0.0001740589
-0.005816611
-0.000170928
-0.005716793
-0.0001633761
-0.005620787
-0.0001539092
-0.005524623
-0.0001547219
-0.005429617
-0.0001531121
-0.005333928
-0.000154283
-0.005241761
-0.0001471723
-0.005151215
-0.0001411825
-0.005064344
-0.0001335956
-0.004974415
-0.0001382092
-0.004886672
-0.0001352076
-0.004795435
-0.0001411145
-0.004708447
-0.0001318632
-0.004621446
-0.0001292385
-0.004533309
-0.0001319937
-0.004443882
-0.0001336298
-0.004353373
-0.0001356888
-0.004264615
-0.0001303541
-0.004175709
-0.0001286238
-0.004190144
3.980071e-05
-0.004111956
-0.000107047
-0.004033057
-0.0001113332
-0.003951816
-0.0001139902
-0.003872811
-0.0001085975
-0.003790418
-0.0001130166
-0.003708612
-0.0001106712
-0.003623802
-0.0001140668
-0.003537564
-0.0001157604
-0.003445969
-0.0001252952
-0.003352426
-0.0001278726
-0.003257231
-0.0001281446
-0.003159256
-0.0001303835
-0.003057573
-0.0001345334
-0.002947808
-0.0001478707
-0.002831235
-0.0001588935
-0.002704791
-0.0001747416
-0.002570891
-0.0001849973
-0.002420401
-0.0002118658
-0.00224894
-0.0002472762
-0.002046175
-0.0003009242
-0.001800656
-0.0003778368
-0.001484866
-0.000513421
-0.001066615
-0.0007230905
-0.0005306501
-0.0009644663
5.787237e-05
-0.001070894
0.0005742022
-0.0009137579
0.0008192931
-0.0002394577
0.0007144344
0.0005646073
0.0004551154
0.0003219403
-0.0003910143
0.001319822
0.003504451
-0.002013275
0.001566216
0.0005718301
-0.001206804
-0.0009784942
-4.093908e-06
-0.002064098
0.001029947
-0.001908465
0.001789044
-0.00130242
0.002600052
-0.001420068
0.003448129
-0.001482173
0.004342343
-0.001569819
0.005184745
-0.001461098
0.005923929
-0.001264015
0.006598299
-0.001140125
0.007129867
-0.0008705977
0.007611635
-0.0007819244
0.008041897
-0.000684175
0.008362846
-0.000474312
0.00868372
-0.0004813759
0.008949803
-0.0003267397
0.009093011
4.180171e-05
0.009092229
0.0005158302
0.00876563
0.001472926
0.007246334
0.003679905
0.003597089
0.005988204
-0.0006639474
0.005419096
-0.002811271
0.002575969
-0.003520469
0.0009453227
-0.003719043
-0.0003210731
-0.004338791
0.001060217
-0.005226667
0.002500792
-0.004937969
0.0003420581
-0.003827146
-0.00182748
-0.002969391
-0.001643077
-0.002294344
-0.001230836
-0.001823824
-0.0008551166
-0.00143001
-0.0007158656
-0.0009947927
-0.000818061
-0.0005648693
-0.0008351708
-0.0003433619
-0.0004911195
-0.0004470959
0.0001356639
-0.0007499931
0.0006048764
-0.0007502836
9.892003e-05
-0.0008116405
0.0001824212
6.256005e-05
-0.001537786
0.0008463049
-0.001293533
0.0005920117
0.0005882662
0.0007902051
-0.0003943413
0.001789608
-0.001787346
0.001937274
0.0004964038
0.00292867
-0.002217907
0.0008456566
0.001267262
0.0195366
0.0006344683
0.0001198318
-0.001280022
0.001275363
-0.001148437
0.001836202
-0.0009545414
0.002311789
-0.0007766755
0.002712452
-0.0006347905
0.003062156
-0.0005440929
0.00338013
-0.0004924802
0.003663442
-0.0004339428
0.003916083
-0.0003829502
0.004137611
-0.0003324071
0.004358311
-0.000343018
0.004579382
-0.0003481531
0.004773534
-0.000292725
0.004949903
-0.0002583542
0.005119329
-0.0002483376
0.005281747
-0.0002379671
0.005438912
-0.0002307178
0.005593552
-0.0002282223
0.005744735
-0.0002220928
0.005888333
-0.000206986
0.0060304
-0.0002045799
0.006167549
-0.0001941743
0.006297868
-0.0001793558
0.006422331
-0.0001671804
0.006543077
-0.0001596866
0.006656569
-0.0001446054
0.006763866
-0.0001321277
0.006863361
-0.0001161427
0.006952252
-9.501871e-05
0.007037063
-8.828966e-05
0.007114267
-7.069065e-05
0.007182985
-4.528869e-05
0.007237222
1.754629e-06
0.007134884
0.0002585092
0.007182216
1.712958e-05
0.007215598
3.824386e-05
0.00723174
7.033634e-05
0.007224365
0.0001165127
0.007187212
0.0001751465
0.007111754
0.0002502141
0.006982403
0.0003563046
0.006775661
0.0005068548
0.006454157
0.0007191414
0.005951901
0.001030651
0.005175373
0.001447496
0.004137826
0.001803246
0.003035161
0.001540922
0.001690218
0.001045597
8.355614e-05
0.001406618
-0.00136275
0.002448736
-0.001684732
0.001940009
-0.000641515
-0.001005898
0.000397247
-0.002115904
0.001084989
-0.0014395
0.00130458
-0.0006068831
0.001410568
-0.0005726856
0.002033148
-0.001582064
0.002015638
-0.0006401299
-0.0007875593
0.004604736
-0.0035523
0.005398919
-0.003565905
0.000701876
-0.002704125
-0.001517165
-0.001571849
-0.002085454
-0.0008179875
-0.001451654
-0.0004119229
-0.0008057152
-5.832239e-05
-0.0006821173
0.0004101384
-0.0009052738
0.001049518
-0.001190523
0.001873824
-0.001427306
0.002511176
-0.0009398033
0.002548171
4.904726e-05
0.00209741
0.0006552513
0.001534544
0.0008023267
0.0009365984
0.0009810111
0.000746432
0.0002806113
0.0009364683
-0.0003514843
0.001169881
-0.0002326254
0.001200318
0.0002373394
0.001716789
-0.000887851
0.002445339
-0.00150029
0.002025981
0.0008367848
0.0009227441
0.001913837
-0.0006309783
0.001808998
-0.002646406
0.002765571
-0.003803421
0.002472715
-0.00400414
0.0009711402
-0.003876219
4.041852e-05
-0.003671889
-0.0002609256
-0.003386874
-0.0003933122
-0.002834722
-0.0008900148
-0.002109448
-0.001237914
-0.001307097
-0.001413339
-0.0005942338
-0.001261998
-1.013771e-05
-0.001011359
0.0004765639
-0.0007229656
-3.098683e-06
0.0009485474
-0.001246377
0.001892008
-0.001287516
0.000420487
-0.0002008592
-0.002233736
0.001659566
-0.0006397588
0.01296852
-0.001829237
0.0002646479
-0.001071985
-0.001952667
-0.001846797
0.002151564
-0.001511917
-0.0003144197
-0.0002890841
-0.002180233
-0.0001808778
-0.0001267949
-0.0002434398
0.000116574
2.01241e-06
-0.0004205598
0.0001828025
-0.0002810404
0.0003612937
-0.000282345
0.0005370303
-0.0002632026
0.0006737382
-0.0001762416
0.0007593324
-0.0001136199
0.0009322152
-0.0003112978
0.001098443
-0.0003037009
0.001254372
-0.0002646935
0.001381096
-0.0001795786
0.00146514
-4.24893e-05
0.0013567
0.0003214138
0.0008248467
0.0008494545
0.0001112542
0.0009480252
-0.0002408776
0.000485991
-0.0002548711
0.0001026777
-0.0001036462
-0.0002122263
1.262232e-05
-0.0001772281
7.917423e-05
-8.39797e-05
0.0001239416
-4.575433e-05
0.0001944113
-9.378508e-05
0.0002850595
-0.0001353483
0.0004069898
-0.0001881155
0.0005571024
-0.0002426741
0.0007380833
-0.0003002618
0.0009777146
-0.0004062414
0.001165117
-0.0002577576
0.001179475
0.0001248897
0.0006727297
0.0008164914
-5.670024e-05
0.0008014474
-0.0006276198
0.0007404537
-0.0009420465
0.0007172442
-0.0005239301
-0.0006884172
0.0002855135
-0.001506132
0.001029253
-0.00120476
0.001258451
-0.000224346
0.0007696225
0.0007553042
1.45475e-05
0.001089493
-0.0002906233
0.0005672042
-0.0002490062
2.261229e-06
-0.0001957692
-8.09638e-05
-2.03414e-06
0.0008921645
-0.008396924
0.02047328
-0.002074315
0.003231127
-0.002033047
-0.001993934
-0.00249998
0.002618497
-0.001921445
-0.0008929543
-0.0006262315
-0.003475447
-0.0004576324
-0.000295394
-0.0003828942
4.183579e-05
-7.589979e-05
-0.0007275542
0.0001398195
-0.0004967596
0.0003492737
-0.0004917992
0.0005631201
-0.000477049
0.0007448089
-0.0003579304
0.0008592928
-0.0002281038
0.001065593
-0.0005175983
0.001261762
-0.0004998691
0.00145413
-0.000457062
0.00161221
-0.0003376583
0.001748265
-0.0001785443
0.001815296
0.0002543827
0.001375558
0.001289192
0.0003714742
0.001952109
-0.0001707065
0.001028172
-8.49876e-05
1.695888e-05
9.871484e-05
-0.0003959287
0.0002267039
-0.0003052172
0.0002927259
-0.0001500016
0.0003360113
-8.903976e-05
0.0004073339
-0.0001651077
0.0004993429
-0.0002273573
0.0006294894
-0.000318262
0.0007929
-0.0004060847
0.0009927128
-0.0005000747
0.001273189
-0.0006867175
0.00149459
-0.0004791585
0.001681887
-6.240753e-05
0.001328718
0.001169661
0.0001241083
0.002006057
-0.0008963319
0.001760894
-0.001198534
0.001019447
-0.0007640402
-0.001122911
3.86786e-05
-0.002308851
0.0008785171
-0.002044599
0.001154922
-0.0005007509
0.0005087114
0.001401515
-0.0001810331
0.001779238
-0.0003139232
0.0007000944
-0.0003524846
4.082255e-05
-0.0005272265
9.377813e-05
-0.0003652314
-0.0001640292
0.000739638
-0.002384892
0.001620155
-0.002028955
0.002322099
-0.001656485
0.0029269
-0.001381477
0.003444537
-0.001152427
0.003896646
-0.0009962027
0.004306976
-0.0009028099
0.004672203
-0.0007991698
0.004998275
-0.0007090225
0.005280347
-0.0006144789
0.00555708
-0.0006197506
0.005833785
-0.0006248578
0.006077199
-0.0005361391
0.006297064
-0.0004782198
0.006505753
-0.0004570261
0.006704285
-0.0004364996
0.006895448
-0.0004218804
0.007082792
-0.0004155669
0.007265927
-0.0004052276
0.007439614
-0.0003806728
0.007612124
-0.00037709
0.007779553
-0.000361603
0.007940305
-0.0003401078
0.00809533
-0.0003222052
0.008247627
-0.0003119842
0.008392852
-0.0002898301
0.008532712
-0.0002719878
0.008665279
-0.0002487093
0.008786628
-0.0002163684
0.008904537
-0.0002061978
0.009014889
-0.0001810428
0.009112065
-0.0001424646
0.009208548
-9.472884e-05
0.009124905
0.0003421519
0.009215795
-7.37595e-05
0.009295962
-4.192394e-05
0.009364897
1.401855e-06
0.009422233
5.917683e-05
0.009465999
0.0001313806
0.009493439
0.0002227738
0.00949812
0.0003516238
0.009470608
0.000534366
0.009396884
0.0007928659
0.009245297
0.001182238
0.008949914
0.001742879
0.008430515
0.002322644
0.007608785
0.002362652
0.00608775
0.002566632
0.003260253
0.004234115
0.0003958043
0.005313185
0.0005493285
0.001786484
0.002280079
-0.002736648
0.003603513
-0.003439338
0.004252784
-0.002088771
0.00431314
-0.0006672389
0.003931369
-0.0001909146
0.003434289
-0.001084984
0.00202263
0.0007715295
-0.00120885
0.007836215
-0.003583781
0.007773851
-0.003356097
0.0004741918
-0.00226126
-0.002612002
-0.0007921541
-0.00355456
0.0001085393
-0.002352348
0.0004804492
-0.001177625
0.0006644124
-0.0008660805
0.001006361
-0.001247222
0.001492693
-0.001676854
0.002239494
-0.002174107
0.002908879
-0.001609189
0.002929201
2.872515e-05
0.002290543
0.001293909
0.00151999
0.00157288
0.00075594
0.001745061
0.0005401225
0.0004964288
0.0007880722
-0.000599434
0.001179094
-0.000623647
0.001453824
-3.739116e-05
0.002189963
-0.00162399
0.002991539
-0.002301866
0.002522303
0.001306021
0.0008547158
0.003581425
-0.001915142
0.004578856
-0.004245503
0.005095932
-0.004838342
0.003065554
-0.004859492
0.0009922901
-0.004778668
-4.040535e-05
-0.004513184
-0.0005264098
-0.004129813
-0.0007766829
-0.003389471
-0.001630357
-0.002472482
-0.002154903
-0.001508453
-0.002377367
-0.0006753605
-0.002095091
2.581818e-05
-0.001712538
0.0005260445
-0.001223192
0.0004610224
0.001013569
-0.0007829108
0.003135941
-0.001001304
0.0006388805
-0.0001537367
-0.003081304
-0.001988664
0.003494493
-0.002367542
0.000950709
-0.001182704
-0.002163332
0.0001672516
-0.003414054
0.001501213
-0.003242427
0.002440567
-0.002241774
0.003389514
-0.002369015
0.004373994
-0.002466653
0.005429873
-0.002625698
0.006438308
-0.002469533
0.007323276
-0.002148984
0.008130975
-0.001947824
0.008757813
-0.001497436
0.009325017
-0.001349129
0.009835986
-0.001195144
0.01021391
-0.0008522382
0.01061282
-0.0008802866
0.01093574
-0.0006496528
0.01107917
-0.0001016368
0.0110645
0.0005305066
0.01095804
0.00157938
0.01052624
0.004111709
0.008034204
0.008480241
0.002358914
0.01109439
-0.002490623
0.007425506
-0.004551435
0.003006135
-0.005076739
0.0002042313
-0.005505735
0.001489213
-0.00580767
0.002802728
-0.005279725
-0.0001858877
-0.00413177
-0.002975435
-0.003156538
-0.002618309
-0.002368785
-0.002018588
-0.00180514
-0.001418762
-0.001374712
-0.001146293
-0.0009669341
-0.001225839
-0.0006410578
-0.001161047
-0.0004760899
-0.0006560875
-0.0004917001
0.0001512741
-0.0006238335
0.0007370098
-0.0006406715
0.000115758
-0.0008074555
0.0003492052
0.0001826639
-0.002527905
0.001109378
-0.002220247
0.0009451012
0.0007525427
0.001293642
-0.0007428817
0.002278504
-0.002772209
0.00260659
0.0001683185
0.003023109
-0.002634426
-0.001299899
0.00559027
-0.01210832
0.03034503
-0.01289715
0.001891612
-0.01185714
-0.003004082
-0.01140246
-0.001159288
-0.01095966
-0.00119979
-0.01062576
-0.000902162
-0.01031795
-0.0008339474
-0.01005868
-0.0007143304
-0.009614058
-0.001120247
-0.009419867
-0.0005206398
-0.009244318
-0.0004625975
-0.009077235
-0.0004360047
-0.008922334
-0.0003997809
-0.008769289
-0.0003922379
-0.008623033
-0.0003742392
-0.008478827
-0.0003647907
-0.008344114
-0.0003370125
-0.008211354
-0.000326093
-0.008083853
-0.0003128977
-0.007955169
-0.0003132607
-0.007832403
-0.0002968249
-0.007709734
-0.000293597
-0.007590651
-0.0002824593
-0.007475158
-0.0002694021
-0.007359177
-0.0002707028
-0.007244702
-0.0002675867
-0.007129101
-0.000269884
-0.007017111
-0.0002591627
-0.00690567
-0.0002526233
-0.006798015
-0.0002412513
-0.00668611
-0.0002501139
-0.00657719
-0.0002441272
-0.006463636
-0.0002546691
-0.006354508
-0.0002409911
-0.006244312
-0.000239434
-0.006132641
-0.0002436651
-0.006019314
-0.0002469567
-0.005904241
-0.0002507618
-0.005790034
-0.0002445611
-0.00567342
-0.0002452376
-0.005690085
5.646624e-05
-0.005584905
-0.0002122273
-0.0054834
-0.0002128385
-0.005378524
-0.0002188658
-0.005276439
-0.0002106829
-0.005169959
-0.0002194967
-0.005064475
-0.0002161552
-0.004955297
-0.0002232446
-0.004844959
-0.0002260987
-0.004728718
-0.0002415361
-0.004610817
-0.0002457737
-0.004491172
-0.0002477895
-0.004368342
-0.0002532129
-0.004241607
-0.0002612689
-0.004105916
-0.0002835618
-0.003963427
-0.0003013817
-0.003810071
-0.0003280982
-0.003648849
-0.0003462196
-0.003468547
-0.000392167
-0.003264873
-0.0004509506
-0.003025139
-0.0005406578
-0.002734214
-0.0006687624
-0.002357812
-0.0008898228
-0.001860384
-0.001220518
-0.00122548
-0.00159937
-0.0005112117
-0.001785162
7.233664e-05
-0.001497306
0.000509411
-0.000676532
0.0005409242
0.0005330941
8.103743e-05
0.000781827
-0.001135183
0.002536042
-0.002645494
0.005014762
-0.001347456
-0.003705303
-0.0002932414
-0.003088421
0.0002383169
-0.0009973354
0.0007534186
-0.0009605626
0.00111629
-0.0007274016
0.001413132
-0.0006261541
0.00165109
-0.0005006858
0.001841817
-0.000390198
0.002007723
-0.0003405685
0.002174926
-0.0003508284
0.002329186
-0.0003187675
0.002474656
-0.0002942711
0.002606283
-0.0002593159
0.002731331
-0.0002434102
0.002848073
-0.0002252597
0.002962455
-0.0002218188
0.003072191
-0.0002106851
0.003174771
-0.0001918538
0.003272701
-0.0001823055
0.003369724
-0.0001830776
0.003462762
-0.0001734644
0.003551095
-0.0001631091
0.003640572
-0.000167901
0.003723833
-0.0001535564
0.003808157
-0.0001601791
0.003893762
-0.0001668042
0.003975506
-0.0001532376
0.004052754
-0.0001411143
0.004130586
-0.0001437888
0.004206794
-0.0001439382
0.004286608
-0.0001392398
0.004276936
6.022454e-05
0.004361386
-0.0001617795
0.004446648
-0.0001719954
0.004529732
-0.0001687119
0.004611947
-0.0001673596
0.004694388
-0.0001701749
0.004775869
-0.0001657606
0.004853562
-0.0001556066
0.004932831
-0.0001613722
0.005011958
-0.000166815
0.005094723
-0.0001760904
0.005172073
-0.0001596461
0.005249468
-0.0001573874
0.005326594
-0.0001602143
0.005405508
-0.0001664411
0.005483371
-0.0001657978
0.005564218
-0.0001762116
0.005645935
-0.0001793296
0.005727094
-0.0001779882
0.005810153
-0.0001813405
0.005889049
-0.0001709322
0.005974837
-0.0001926814
0.006059703
-0.0001946044
0.00614753
-0.0002015134
0.006235932
-0.0002065018
0.006326632
-0.0002125796
0.006420099
-0.0002250736
0.006519227
-0.0002425292
0.006617888
-0.0002424782
0.006721679
-0.0002588118
0.006833869
-0.000286581
0.006956029
-0.0003273795
0.00725468
-0.0007428691
0.007418025
-0.0004485945
0.007609875
-0.0005196766
0.00782032
-0.0005739179
0.00810051
-0.0007566692
0.008366448
-0.0007154539
0.009023318
-0.001867686
0.001567783
-0.001720034
0.003217926
-0.005203195
-0.0005757727
-0.004232682
0.0002300947
-0.001803203
0.0008257248
-0.001556193
0.001243637
-0.001145314
0.001600476
-0.0009829931
0.001892321
-0.0007925304
0.002129807
-0.000627684
0.002336214
-0.0005469752
0.002543225
-0.0005578393
0.002733668
-0.0005092105
0.002914292
-0.000474896
0.003078326
-0.0004233492
0.003234309
-0.0003993934
0.003380055
-0.0003710053
0.003522464
-0.0003642286
0.003659676
-0.0003478969
0.003787875
-0.0003200528
0.00391074
-0.0003051705
0.004032074
-0.0003044118
0.004148622
-0.0002900124
0.004259381
-0.0002738672
0.004371666
-0.0002801866
0.004475985
-0.0002578757
0.004581597
-0.0002657907
0.004688787
-0.000273994
0.004790807
-0.0002552578
0.00488821
-0.0002385174
0.0049858
-0.0002413786
0.00508135
-0.0002394879
0.005182081
-0.000239971
0.005177491
6.481469e-05
0.00528097
-0.0002652586
0.005387455
-0.0002784809
0.005489972
-0.0002712292
0.005591548
-0.0002689352
0.005693432
-0.0002720592
0.005793886
-0.0002662146
0.005889959
-0.0002516798
0.005987631
-0.0002590443
0.006085075
-0.0002642585
0.006186653
-0.0002776682
0.006281771
-0.0002547647
0.006376968
-0.0002525836
0.006471945
-0.0002551919
0.006568613
-0.000263109
0.006663946
-0.0002611311
0.006762831
-0.0002750963
0.00686243
-0.0002789284
0.006961433
-0.0002769908
0.007062783
-0.0002826909
0.007158684
-0.0002668334
0.007263268
-0.0002972653
0.007365895
-0.0002972318
0.007471835
-0.000307453
0.007578705
-0.000313372
0.007687315
-0.0003211897
0.007799695
-0.0003374533
0.007917992
-0.0003608261
0.008035375
-0.0003598608
0.008158648
-0.0003820851
0.008291639
-0.0004195714
0.008611372
-0.0006471127
0.008789403
-0.0009209003
0.008978994
-0.0006381854
0.009204683
-0.0007453657
0.009459707
-0.000828942
0.009790249
-0.001087212
0.01016283
-0.001088039
0.01076969
-0.002474538
0.01038921
0.001948256
-0.01544514
0.01492304
0.002413711
-0.01447194
-0.003977286
-0.01385009
-0.001781134
-0.01332771
-0.001722174
-0.01292485
-0.001305019
-0.0125615
-0.0011973
-0.01225963
-0.001016199
-0.01197601
-0.001403861
-0.01150275
-0.0009939087
-0.01129864
-0.0006667032
-0.01110436
-0.0006302878
-0.01092469
-0.0005794487
-0.01074707
-0.0005698528
-0.0105773
-0.0005440182
-0.01040994
-0.0005321457
-0.01025332
-0.0004936352
-0.01009927
-0.0004801391
-0.009951261
-0.0004609086
-0.009801779
-0.0004627431
-0.009659258
-0.0004393451
-0.009517062
-0.000435793
-0.009378592
-0.0004209294
-0.009244874
-0.0004031207