/*--------------------------------*- C++ -*----------------------------------*\
| =========                 |                                                 |
| \\      /  F ield         | OpenFOAM: The Open Source CFD Toolbox           |
|  \\    /   O peration     | Version:  2406                                  |
|   \\  /    A nd           | Website:  www.openfoam.com                      |
|    \\/     M anipulation  |                                                 |
\*---------------------------------------------------------------------------*/
FoamFile
{
    version     2.0;
    format      ascii;
    arch        "LSB;label=32;scalar=64";
    class       volScalarField;
    location    "0.28";
    object      p;
}
// * * * * * * * * * * * * * * * * * * * * * * * * * * * * * * * * * * * * * //

dimensions      [0 2 -2 0 0 0 0];

internalField   nonuniform List<scalar> 
15536
(
-5.21191
-4.238131
-4.557216
-6.668096
-9.182343
-11.31808
-12.62316
-12.88416
-12.98411
-12.79796
-10.84024
-8.485223
-7.599718
-8.8344
-11.24335
-11.21913
-9.941853
-8.030313
-8.980746
-17.51984
-32.52972
-52.26919
-70.14228
-75.93253
-59.68231
-21.82791
-1.468452
-16.0912
-33.63352
-42.45484
-53.15647
-83.3634
-133.1348
-149.8186
-109.1476
-83.46329
-96.96527
-101.0105
-103.7007
-109.2452
-113.8614
-116.954
-118.3162
-118.4197
-117.829
-116.3052
-113.9467
-110.6331
-106.8808
-102.8247
-98.09919
-92.8081
-86.90059
-80.63778
-73.96185
-66.94509
-59.93264
-52.83351
-45.39531
-37.80514
-30.35927
-23.06826
-15.81941
-8.668849
-1.753835
5.022948
11.4921
17.62557
23.31657
28.56793
33.33857
37.63259
41.41109
44.596
47.15164
49.18458
50.56061
51.32047
51.53653
51.25001
50.15005
48.38984
46.05204
43.12778
39.63977
35.61156
31.11364
26.06465
20.62365
14.83964
8.570126
1.998192
-4.806957
-12.01936
-19.37442
-26.66705
-34.10966
-41.68929
-49.22373
-56.79108
-64.23264
-71.36935
-78.15967
-84.68809
-91.07179
-97.01088
-102.481
-107.4372
-111.8949
-115.9139
-119.2242
-121.7506
-123.5434
-124.5864
-124.7405
-123.6946
-121.1882
-117.078
-111.7984
-108.5248
-105.8878
-93.53492
-112.8011
-154.5265
-144.9222
-97.71337
-66.26672
-54.66805
-46.37035
-30.30647
-13.06768
-28.88356
-62.66634
-83.6369
-83.32248
-72.06616
-51.96937
-31.43969
-19.37059
-15.65735
-17.00668
-19.45052
-18.90704
-15.61557
-13.96906
-16.37536
-19.3957
-21.16921
-22.96506
-24.7515
-25.75292
-25.70371
-24.24999
-21.30227
-16.98866
-11.93826
-7.872479
-5.212386
-4.241568
-4.558244
-6.66108
-9.161178
-11.29662
-12.61405
-12.88583
-12.98968
-12.80484
-10.85065
-8.48345
-7.586055
-8.810515
-11.20805
-11.13496
-9.838473
-7.988383
-9.007223
-17.56945
-32.54579
-52.21665
-69.98425
-75.86316
-59.79874
-21.8255
-1.324379
-16.20619
-33.70839
-42.47287
-53.12958
-83.33875
-133.2118
-149.8884
-108.9456
-83.35103
-96.88658
-100.9121
-103.3043
-108.4851
-112.7886
-115.6385
-116.8741
-116.909
-116.2847
-114.7457
-112.3903
-109.0894
-105.3563
-101.3358
-96.64927
-91.4054
-85.5479
-79.34202
-72.73043
-65.77976
-58.83396
-51.80646
-44.44524
-36.92782
-29.5552
-22.33825
-15.1623
-8.080581
-1.232407
5.47555
11.8777
17.94993
23.58472
28.78297
33.50611
37.75817
41.49981
44.65563
47.18656
49.20117
50.5655
51.31903
51.53295
51.24758
50.15474
48.41093
46.09489
43.19764
39.74231
35.75266
31.29806
26.29778
20.91225
15.18377
8.974857
2.470909
-4.268117
-11.41565
-18.69823
-25.91836
-33.29027
-40.79589
-48.25696
-55.75225
-63.12365
-70.1909
-76.91568
-83.38689
-89.71802
-95.60498
-101.0309
-105.9465
-110.3713
-114.3674
-117.661
-120.1847
-121.9906
-123.0641
-123.2725
-122.3335
-120.0358
-116.2307
-111.3085
-108.3602
-105.7705
-93.43739
-112.6317
-154.5646
-144.9371
-97.68919
-66.23806
-54.67465
-46.43261
-30.42026
-13.0187
-28.92315
-62.7585
-83.61479
-83.12559
-71.95887
-51.97124
-31.48121
-19.42259
-15.65484
-16.92761
-19.37768
-18.8604
-15.57446
-13.94181
-16.36717
-19.39158
-21.17288
-22.97321
-24.74352
-25.7223
-25.65339
-24.18782
-21.22274
-16.93046
-11.90663
-7.863269
-5.218312
-4.24986
-4.563513
-6.660819
-9.148577
-11.29106
-12.61968
-12.92029
-13.02562
-12.82398
-10.86075
-8.484675
-7.579745
-8.88141
-11.23727
-11.06386
-9.764991
-7.994743
-9.097637
-17.6974
-32.63263
-52.27224
-70.065
-76.15724
-60.58083
-22.29208
-1.122036
-16.23738
-33.71176
-42.46494
-53.20651
-83.50975
-133.6395
-150.3604
-109.2174
-83.42831
-96.0508
-100.2358
-102.7192
-107.5919
-111.7139
-114.568
-115.9034
-115.9676
-115.3808
-113.8702
-111.5495
-108.2654
-104.5467
-100.5563
-95.88472
-90.66936
-84.83725
-78.66633
-72.09572
-65.16207
-58.24637
-51.26308
-43.92944
-36.444
-29.10512
-21.92897
-14.79248
-7.74169
-0.936173
5.741909
12.10894
18.14867
23.75244
28.92188
33.61593
37.84172
41.55972
44.69777
47.20847
49.20987
50.56506
51.31249
51.5238
51.23895
50.15256
48.42279
46.12276
43.24432
39.81151
35.84657
31.42029
26.44471
21.09087
15.39558
9.215087
2.746722
-3.954981
-11.07137
-18.31774
-25.49524
-32.83388
-40.30711
-47.72552
-55.19799
-62.53586
-69.57472
-76.27273
-82.70315
-89.00583
-94.85865
-100.2623
-105.1545
-109.5576
-113.5384
-116.8088
-119.3052
-121.0797
-122.1261
-122.2998
-121.2789
-118.9453
-115.2704
-110.6653
-107.7304
-104.928
-93.41969
-112.9728
-154.995
-145.3824
-97.8772
-66.32015
-54.66349
-46.41304
-30.42375
-12.84355
-29.42676
-63.49681
-83.92464
-83.16963
-72.00528
-52.06665
-31.59593
-19.55702
-15.73137
-16.91772
-19.349
-18.80139
-15.46746
-13.86343
-16.34848
-19.40351
-21.22053
-23.03085
-24.76251
-25.71314
-25.6283
-24.15422
-21.19407
-16.90573
-11.88613
-7.860811
-5.230961
-4.265165
-4.57737
-6.670538
-9.140889
-11.28318
-12.63869
-12.99165
-13.08219
-12.8204
-10.85714
-8.500068
-7.607566
-9.109944
-11.33205
-10.9782
-9.690022
-8.044285
-9.265006
-17.92078
-32.805
-52.45749
-70.35295
-76.67107
-61.98961
-23.37063
-0.9191157
-16.01032
-33.47706
-42.38583
-53.38336
-83.84018
-134.0595
-150.7584
-110.3032
-84.27151
-95.16065
-99.15164
-101.851
-106.3574
-110.1846
-112.8468
-113.9979
-113.963
-113.3697
-111.8526
-109.5818
-106.3319
-102.6416
-98.71495
-94.1224
-88.9903
-83.23744
-77.14688
-70.66659
-63.82415
-56.99249
-50.10385
-42.87709
-35.47471
-28.22028
-21.13518
-14.08827
-7.115317
-0.3958424
6.208322
12.502
18.47934
24.02056
29.13213
33.77528
37.95778
41.63786
44.7489
47.2298
49.21403
50.55798
51.29812
51.50634
51.22084
50.14025
48.43012
46.15263
43.30119
39.9027
35.97853
31.60169
26.67219
21.38123
15.74849
9.628679
3.240945
-3.385645
-10.43581
-17.58813
-24.67685
-31.93691
-39.31661
-46.64297
-54.02781
-61.27592
-68.21659
-74.81779
-81.17489
-87.40296
-93.16872
-98.50127
-103.3163
-107.6621
-111.6039
-114.8311
-117.2895
-119.0558
-120.1202
-120.3499
-119.4941
-117.3602
-113.9398
-109.7332
-106.748
-103.9723
-94.06617
-114.2033
-155.2886
-145.7448
-98.20039
-66.49616
-54.58988
-46.14761
-30.1273
-12.44977
-30.51146
-64.86357
-84.50115
-83.3733
-72.20802
-52.27849
-31.79068
-19.78192
-15.89227
-16.94121
-19.34579
-18.78152
-15.38647
-13.7769
-16.31864
-19.41002
-21.3123
-23.13336
-24.8042
-25.71899
-25.61131
-24.11432
-21.1445
-16.88576
-11.86865
-7.866843
-5.253976
-4.291578
-4.604954
-6.694588
-9.143069
-11.29691
-12.67947
-13.09455
-13.14457
-12.78281
-10.82149
-8.53797
-7.703263
-9.515036
-11.50199
-10.91788
-9.618979
-8.131884
-9.520492
-18.25541
-33.09304
-52.83593
-70.95999
-77.67208
-64.0351
-24.97631
-1.061103
-15.47072
-32.82264
-42.27925
-53.69437
-83.86773
-133.1694
-149.6424
-111.3963
-86.40964
-94.75602
-98.04543
-100.871
-105.0906
-108.7085
-111.3271
-112.5775
-112.5543
-111.9795
-110.4479
-108.1998
-104.9526
-101.2305
-97.36577
-92.77006
-87.6798
-81.94251
-75.90263
-69.49097
-62.67419
-55.89514
-49.09435
-41.93415
-34.58134
-27.39271
-20.39334
-13.42238
-6.505159
0.1307532
6.676184
12.90199
18.81729
24.29202
29.35042
33.94219
38.07915
41.71323
44.79435
47.24249
49.20687
50.53895
51.27098
51.47522
51.18589
50.10925
48.42777
46.18057
43.36
39.99865
36.1155
31.79015
26.90498
21.68346
16.10891
10.03514
3.734197
-2.817438
-9.83025
-16.90107
-23.90261
-31.10688
-38.42245
-45.66151
-52.99998
-60.19184
-67.07263
-73.62094
-79.92125
-86.1219
-91.83455
-97.14873
-101.9339
-106.2586
-110.2257
-113.4105
-115.8813
-117.6467
-118.7266
-118.9285
-117.9719
-115.8586
-112.5942
-108.702
-105.7132
-103.3785
-95.84072
-115.3958
-153.8226
-144.4512
-98.03616
-66.75977
-54.48865
-45.56246
-29.4685
-12.10659
-32.1172
-66.83486
-85.50571
-83.83235
-72.62939
-52.63235
-32.06791
-20.10771
-16.1527
-17.0232
-19.40354
-18.84525
-15.44157
-13.76278
-16.3312
-19.41967
-21.43407
-23.27101
-24.87716
-25.75568
-25.62451
-24.10452
-21.11526
-16.887
-11.86439
-7.887382
-5.29667
-4.339414
-4.647701
-6.739827
-9.158218
-11.33503
-12.74903
-13.22762
-13.22681
-12.75563
-10.81694
-8.608341
-7.894028
-10.09281
-11.74182
-10.87377
-9.503554
-8.222917
-9.842777
-18.65461
-33.52672
-53.49803
-72.02856
-79.3528
-66.9449
-27.29088
-2.134864
-14.92351
-32.26115
-42.2467
-54.02978
-82.75119
-128.212
-143.4396
-110.5447
-88.81184
-94.39499
-96.79124
-99.5416
-103.3643
-106.6407
-109.0425
-110.1468
-109.8601
-109.3098
-107.8542
-105.7358
-102.5393
-98.85385
-95.14419
-90.63556
-85.67535
-80.03056
-74.08283
-67.78413
-61.05123
-54.38932
-47.72349
-40.66099
-33.39771
-26.32671
-19.43625
-12.57101
-5.733684
0.7823547
7.251868
13.38111
19.20082
24.60214
29.60716
34.13423
38.21233
41.78253
44.83668
47.24395
49.17968
50.50149
51.22358
51.4218
51.12628
50.05709
48.40665
46.20047
43.41974
40.10391
36.27163
32.00264
27.16309
22.04242
16.54962
10.51299
4.3164
-2.100666
-9.05794
-16.03281
-22.89966
-30.00248
-37.2314
-44.35299
-51.58949
-58.6773
-65.44986
-71.87483
-78.07436
-84.20474
-89.78895
-95.02202
-99.69558
-103.9312
-107.8144
-110.9219
-113.2914
-114.9407
-116.0522
-116.3926
-115.6161
-113.7287
-110.7439
-107.2913
-104.4779
-102.7307
-97.72731
-114.7448
-147.2187
-138.7366
-96.45459
-66.98705
-54.43347
-44.919
-28.80351
-12.4147
-34.49079
-69.52737
-87.08592
-84.67493
-73.36339
-53.24465
-32.45217
-20.5369
-16.51671
-17.13901
-19.48882
-18.97885
-15.72255
-13.91768
-16.44988
-19.48846
-21.59631
-23.45225
-24.99953
-25.83988
-25.68246
-24.1325
-21.109
-16.93649
-11.89369
-7.927171
-5.369703
-4.424524
-4.719007
-6.833526
-9.199761
-11.40893
-12.86103
-13.402
-13.36033
-12.80153
-10.87486
-8.749951
-8.204163
-10.82215
-12.02907
-10.73284
-9.285203
-8.228693
-10.07834
-18.97623
-34.06072
-54.48509
-73.65695
-81.93926
-70.9503
-30.64107
-4.81525
-15.00159
-32.00739
-42.27637
-54.35452
-80.63253
-119.0867
-131.9168
-106.9769
-90.24321
-93.71515
-95.49461
-98.10647
-101.6064
-104.6089
-106.8869
-108.0624
-107.8033
-107.3934
-105.6505
-103.56
-100.3564
-96.60193
-93.01181
-88.49255
-83.65967
-78.0403
-72.11463
-65.95888
-59.35757
-52.7663
-46.16745
-39.25503
-32.13397
-25.14987
-18.30908
-11.63359
-4.870326
1.500154
7.89536
13.89013
19.6154
25.00743
29.89947
34.32847
38.32557
41.83508
44.91264
47.23113
49.13112
50.44186
51.14782
51.33954
51.05019
49.9973
48.33862
46.16628
43.43905
40.18555
36.44202
32.24926
27.4328
22.4202
17.06222
11.1074
4.952137
-1.357184
-8.151061
-15.04565
-21.81461
-28.7918
-35.8492
-42.93192
-50.08851
-57.00946
-63.71511
-70.0013
-76.10929
-82.21199
-87.67303
-92.88645
-97.46092
-101.6883
-105.6354
-108.6773
-111.099
-112.9532
-114.0593
-114.2751
-113.4528
-111.6604
-108.8681
-105.8052
-103.1898
-101.7968
-98.71707
-111.7973
-136.0403
-129.3313
-93.79438
-67.20782
-54.44946
-44.54166
-28.83189
-14.2074
-38.0295
-73.02558
-89.34644
-86.13448
-74.56479
-54.31291
-32.96759
-20.99597
-16.89357
-17.21244
-19.54362
-19.12458
-16.27774
-14.33153
-16.73094
-19.66099
-21.82897
-23.70173
-25.19817
-26.00052
-25.81394
-24.22155
-21.14355
-17.07889
-11.93268
-7.988245
-5.471633
-4.554948
-4.89418
-7.017292
-9.313723
-11.55063
-13.0345
-13.63444
-13.58784
-12.97275
-11.08839
-9.005628
-8.690001
-11.69286
-12.3447
-10.52845
-8.882205
-7.872201
-9.909854
-19.20843
-34.46373
-55.7036
-75.94345
-85.63068
-76.63748
-35.33819
-9.783312
-16.19299
-32.08055
-42.31925
-55.17223
-78.36883
-108.8433
-119.8808
-102.5868
-90.47881
-92.52838
-93.85716
-96.11372
-99.2264
-101.8291
-103.8008
-105.1049
-104.2487
-103.8163
-102.4223
-100.4588
-97.52179
-93.50254
-90.14291
-85.77479
-81.14486
-75.49234
-69.65692
-63.89723
-57.47529
-50.62278
-44.2207
-37.73697
-30.79222
-23.62025
-16.91792
-10.67546
-3.880293
2.25848
8.625375
14.36466
20.18731
25.57465
30.18793
34.48898
38.37709
41.8762
44.99784
47.15592
49.07173
50.35129
51.03567
51.23433
50.96517
49.88881
48.22682
46.05266
43.3911
40.20928
36.57317
32.56751
27.73652
22.80107
17.60853
11.96704
5.859825
-0.6935733
-7.181358
-13.72834
-20.63242
-27.53484
-34.13833
-41.07442
-48.52095
-54.97993
-61.69256
-67.80185
-73.72694
-79.82633
-85.02819
-90.28095
-94.59321
-98.6814
-102.6697
-105.5431
-107.8387
-109.3252
-110.553
-111.0552
-110.3435
-108.7823
-106.2593
-103.7503
-101.5087
-100.4217
-98.65066
-108.2503
-124.5817
-118.9495
-90.63874
-67.7541
-54.29246
-44.45889
-29.97214
-17.84966
-42.98423
-76.8821
-92.38746
-88.37996
-76.4655
-55.29395
-33.2506
-21.18256
-17.00675
-17.11652
-19.53384
-19.21024
-17.13667
-15.00675
-17.2602
-19.97806
-22.17135
-24.0686
-25.51912
-26.27511
-26.04884
-24.40789
-21.30603
-17.33829
-11.8585
-8.10981
0.8936702
0.002064355
-39.98676
-13.86897
9.869224
-11.97713
0.1600436
-0.6665766
8.198821
-2.046322
-2.836937
-0.2297718
-1.134586
-0.2708923
-0.3660793
1.555239
0.146176
-3.286529
-0.01257006
-0.9776149
-55.64478
0.04739419
0.809114
-2.203632
0.0002742885
0.1724614
-1.029634
-1.717938
-6.820129
-0.08423543
-0.1365792
-22.41619
0.1489563
-0.01513169
0.03923772
-4.817992
0.03274242
0.02630133
0.002464963
-5.831166
-20.87289
1.050482
0.06959333
2.814343
30.45096
-0.03263762
0.01353306
0.09378507
0.2374251
-1.751918
0.06271556
0.0591445
1.54337
0.03490669
0.007881963
19.34907
-3.53301
0.09430749
-12.44682
-18.37837
-1.61039
0.01224527
15.48137
-0.04156355
0.3050724
0.2208888
-34.85588
-0.006113433
0.02737158
-0.01909274
-0.9335226
-0.007286247
-1.43188
-56.84035
21.35724
-0.1048024
3.119131
-2.800018
0.0273456
-0.09126826
-18.95032
-0.03272578
2.092982
0.0386719
-9.923774
0.1039591
0.130813
-0.9469238
19.60798
0.03741761
-15.70051
22.73616
0.09352383
0.02007703
0.06166736
-0.04832535
5.669884
5.079947
-48.21035
0.1228524
-0.5155884
-0.9504302
0.05354469
-85.10795
-0.02480936
-19.81484
0.001468505
-0.1337743
-5.937654
5.516963
-0.7148469
0.5093231
1.540399
6.485554
-25.10537
-0.01003754
-0.01566389
-0.05011172
21.30963
-0.2146697
0.68703
-0.0989798
-0.9306689
0.02252157
0.01068014
4.036207
-0.5984754
-36.91524
0.3047707
0.156967
-0.006081136
0.07969328
0.04736661
-0.3286986
0.1317061
-23.851
-0.02699665
4.341704
-0.3978657
-0.01027699
-38.75867
-0.224812
-63.2219
0.4221458
0.002440776
0.06231469
-1.372405
-41.66933
-0.01099587
-0.8652049
0.1700237
-21.65127
-14.18321
0.03546695
0.8720424
-47.64893
-0.1055539
0.01566391
-0.03232519
-25.68025
0.04375089
-20.42601
2.494163
-1.868111
0.3683939
9.386283
-21.30906
0.904455
-35.865
-0.00474384
0.1113891
-12.33857
1.056193
-41.67884
-6.651665
3.890632
0.9920393
0.0273558
-54.418
0.03264162
14.2846
-0.4801958
-0.05114754
-0.1997461
3.163648
-45.16679
0.1034724
0.007694972
1.182384
-0.1740318
-0.6210841
-0.5000898
-8.02332
-2.513133
0.001258609
-0.149191
0.004494245
-0.1206799
-3.990207
-32.44935
-1.188889
0.1116604
0.6377849
-16.22882
0.3494792
-2.88046
-7.311024
0.05150134
-8.90222
0.001005111
0.01690848
0.06100305
0.6891286
0.6004935
0.03719447
-9.69004
-11.20265
-0.8229355
6.182497
-0.06791497
0.3047223
0.3227699
1.726672
0.1215689
-3.382274
-2.728471
0.02957684
6.947983
0.03586996
16.77578
-5.744257
-49.22072
1.552648
0.002302043
-74.78821
-0.1457785
23.57407
0.1100895
1.580324
-0.2623855
-0.3998305
-0.1914228
-0.009867174
-12.74169
-0.3357653
10.06634
0.02002341
-48.3963
0.02876941
0.1275539
-31.13197
0.1767802
-1.102027
-0.836525
1.908053
-25.22991
0.4427138
0.1348289
23.27086
-4.625968
-7.166061
-0.005260954
0.223941
0.03671322
-0.7370031
1.006137
-0.1240751
-0.04726329
-3.242686
-25.2181
0.01363848
0.02151185
11.50641
-1.312365
0.01754281
2.109619
0.4869782
-29.26715
-89.29406
-0.4399556
0.01827828
0.1894479
0.05148223
0.0582325
0.2156116
0.04360059
36.48354
-0.6872993
0.7040753
0.00901898
-0.1568976
-0.0006649244
-0.04662325
0.04346079
-43.19735
0.003634101
-7.820713
-0.003773626
0.5288239
-0.4078021
-41.34682
-0.009192169
0.03339002
-24.45562
-0.624922
-0.005448694
0.004826039
-0.03426971
0.196467
0.1271015
1.145237
-1.372139
-0.02485064
0.1404738
-0.5840694
-12.2427
33.69872
-50.50727
-23.95995
-76.41075
-0.9182464
0.01067028
-1.403069
-0.002111395
0.02337223
0.03792598
-0.03423151
-0.01195647
-0.08726805
2.751096
17.6552
0.02242816
-7.692951
-32.83898
0.04579558
0.5375369
0.02902687
0.001274244
-3.634757
0.04676854
-51.95329
0.6960075
0.2985972
-1.319266
-13.04086
3.68433
7.016544
-0.7033689
-10.86172
-0.01019358
0.02150943
0.01779819
11.86075
0.03862945
-0.5207457
-48.44727
-51.58042
0.01594228
-0.07609548
0.2920831
0.07833686
0.1578673
0.03435962
1.038299
-0.8463762
0.6126927
0.3465178
0.1132235
-0.2840114
-0.02935774
-3.236453
11.08887
-36.91321
-0.07118855
0.8130445
0.5464911
0.0810512
0.3602756
0.8091339
-0.3854658
0.1690883
0.216581
-0.01060569
-15.87823
-0.01852023
0.05186866
0.1011928
38.43149
0.9676445
0.003300856
0.1204721
-0.3400799
1.666047
-42.96615
0.01108501
-1.332183
0.364974
0.7149827
0.1166774
-0.109527
0.8283198
-1.079617
-27.97548
0.01427488
0.01015896
0.1414243
-41.59532
-49.50575
0.4928981
0.5652304
0.005087317
0.16839
0.02867263
-0.4997563
0.3433538
-1.049937
1.574156
0.8277632
-0.01187266
14.68433
-1.058119
0.01249108
2.682372
-0.02501869
-0.6773146
-25.38548
0.01704946
-0.3320634
-27.55619
0.1237181
11.67883
0.08162313
0.06237273
0.01436945
0.3343415
0.460939
-0.012449
-5.863459
-0.07612554
-0.9112811
-0.0003903973
0.02663859
1.108832
-0.1237892
-4.648656
0.04228091
0.001290485
0.01594256
0.06388242
-0.7883941
-0.7487341
-86.15927
0.7696038
-11.77954
-0.01746306
0.001188721
0.006798289
3.529601
0.03249956
-19.20873
-0.0675857
-42.74579
-1.447422
-0.04185069
0.492439
-0.01029729
26.57443
-0.1768103
2.222588
-1.982322
-10.42366
-1.6305
-0.02356051
6.543222
0.03087371
-12.1255
0.2169814
-39.4154
0.006724663
-0.2636658
2.370806
0.230765
0.1007539
-0.1570894
0.169431
0.01036115
0.01104497
15.21455
0.002771325
0.2454369
0.02535425
-23.57739
-2.835934
0.002191823
-18.80499
-0.2835786
0.040018
2.935641
0.01968
2.608349
-0.1533691
-0.1213744
0.003159469
-5.03754
1.00716
0.03185269
-0.6681464
0.3892817
0.1942289
0.07997703
-22.86886
1.365204
11.69805
-2.175755
0.3627513
0.108583
0.5112958
-0.01151531
-0.001529529
0.01665135
-0.2200837
-0.1061477
-5.585153
0.01782378
0.04499263
-1.034362
-0.3571594
2.55864
0.03805776
0.0205781
-25.82669
-3.706896
-23.28831
0.02536488
3.054327
3.492251
2.44166
-0.03398256
0.1318816
-0.002387279
3.701517
0.0572252
-0.03831588
0.6583804
-54.96187
1.398993
2.899993
0.006914208
0.01971091
7.24007
0.09202666
7.017821
0.1013486
-3.799689
4.682964
0.01087448
-0.786512
6.442812
14.76056
-8.687393
0.01240402
0.26704
0.1028238
0.1658821
-0.008345979
0.06111496
-0.1454668
4.932614
28.92444
0.02912569
-0.01140281
2.757501
1.507862
-60.22691
0.04163987
1.67899
0.06880214
1.462654
-0.009666959
0.0352875
0.9481653
0.03118589
4.612835
0.01808172
1.502231
-21.96372
0.5505273
0.04204309
-77.80984
-4.10353
-1.411227
-20.07562
0.2370957
0.01724473
0.06008511
0.006019613
-0.2508178
-60.79055
0.1054263
0.09236767
0.01630931
1.877026
0.03052773
0.0009758158
0.7234894
-19.43821
-10.278
-0.1258306
-23.29288
0.136453
3.900397
-0.006836858
-18.3109
0.09488724
7.481087
-8.288217
-0.8496379
-2.103848
5.386407
2.607612
2.787794
0.02497966
-0.3471622
0.01665114
0.07631332
16.86683
1.720429
-0.130657
-0.01858105
-2.797864
2.852507
7.484002
-14.22324
0.9454609
-35.88799
-8.237938
-9.65586
-0.7350002
-0.9421585
0.1150621
-0.004415927
-0.01239808
0.04896894
0.8308977
0.01222503
0.3277517
0.01605822
-31.49866
0.09684831
24.53845
2.912335
-35.61825
0.01490942
2.270076
5.993178
-3.105965
-21.67843
0.02883465
-0.1014923
-22.78754
-1.278748
-0.9556817
-0.1673927
0.3099245
0.03262627
0.04160181
0.439983
0.6835159
0.6789364
-4.640669
0.03175607
0.05456175
-82.83954
0.1175606
-0.009751359
1.993153
10.59229
0.01717561
-0.3926572
6.556665
13.37406
10.84912
1.043231
0.2590901
0.09616439
0.02714904
-0.0455483
-2.878251
1.680817
0.1437983
-24.70781
0.02255786
-35.1813
0.001529834
0.01438443
0.1120845
-31.05142
0.9991817
-0.5932426
-1.397334
0.1459077
-9.575448
-3.453344
-5.381729
3.268483
12.4685
0.5616531
-0.03098668
-23.34426
0.324592
0.4080037
0.08747576
0.5134492
-0.03575556
-4.914692
-0.6357957
-0.04305153
-41.58199
-0.00958759
0.05933338
0.3293652
0.02955804
-0.6247701
-0.01793214
0.001640093
-0.8817098
-0.1347291
-25.64887
0.08926651
0.01861277
-0.6437326
-0.6201594
-0.1153995
-0.1000045
0.005163782
0.9165131
0.09179465
2.558056
-12.49734
-0.698652
-0.02387703
0.05078064
0.05934512
-0.2013996
2.693987
-0.01203692
-50.5883
1.383187
3.763779
6.617057
0.02158715
-16.65254
-7.5968
0.2671869
-0.01621013
-5.617491
0.7738001
-11.22731
-18.59879
-5.550197
-4.474118
-2.072185
0.7151669
12.50762
0.9728086
0.4364282
-23.47654
0.1898743
-0.3565342
-0.1298246
-9.265621
21.69794
-8.559369
0.1074429
0.9829406
-0.6513704
-0.04111321
0.02625562
-4.544197
0.1387924
0.461977
-1.50698
0.06358479
-2.573249
4.724026
-0.1319148
0.08910471
0.006838545
0.3781715
-0.4426937
-1.276665
3.134352
30.08216
0.01496773
0.02653463
-0.2440589
-0.07375129
0.03976443
0.009266856
-36.20583
-0.3168837
-82.02432
-8.679012
-1.043464
0.01762925
0.02877436
-7.56697
0.3078887
0.07889819
0.052113
0.07675879
-9.469331
-56.81349
0.08789522
-1.437031
-1.632146
-0.03307997
-1.383131
0.9159847
1.333139
-3.754087
13.82348
-0.2438571
-0.1420599
-0.7800177
-0.7758384
1.169067
-1.54376
0.001984878
-1.135756
0.7570077
-0.07776902
7.563122
-22.76116
0.04972
0.01381291
-13.69894
-0.4801241
-0.1701386
0.08468561
-2.513973
-1.556722
0.05824333
1.706108
0.4877726
1.034109
2.529112
-1.107358
0.01434286
30.67415
-0.1928231
-2.786714
0.0171395
-69.90395
-0.1142233
0.05416314
0.5196889
-0.4935689
32.69397
-0.9533048
-0.0109828
0.4901846
-0.08694873
0.02501118
-0.2919062
-0.06500081
-0.02987688
-21.71883
-15.31967
0.007222587
-2.962993
5.083275
0.01199432
-0.0001091905
0.05617136
-12.23393
4.018589
29.87178
0.01915813
-0.4166138
-1.046064
0.01190005
0.002161638
8.695329
-1.954429
-0.05095096
0.01948232
-1.003774
-0.570399
0.03104511
0.05385737
-7.955737
0.5454504
-28.26752
1.875091
6.701887
0.02409529
0.3684027
0.05055548
2.072337
-11.46246
0.01321555
0.07731772
9.387281
-20.95763
4.260488
0.06933824
-0.1572135
-11.77797
25.96665
0.4414178
0.01423509
-4.306494
-23.95332
-0.01564518
0.002356319
1.806677
0.1557447
0.1821759
-26.31441
-4.470475
1.107964
0.1174283
0.100325
0.0132409
-19.79909
-20.67583
-51.83968
1.74815
-42.50639
0.6746222
-1.051869
-18.43048
-0.1896423
-1.69704
-30.13924
-0.01060807
0.05650279
0.195079
0.9833788
0.01255486
-29.45361
-32.87517
1.166167
15.12881
-0.1234789
0.009732119
-22.24706
17.68242
-12.88216
0.1591223
-0.4193777
0.7593457
0.02713641
0.03881453
0.3131408
0.1857227
-0.07035932
-1.354089
-59.2522
-72.16072
0.1014276
0.2198113
1.547877
0.01480239
-0.5312864
1.762775
-0.05251413
-0.004774895
-0.3018475
-0.3176259
0.0320272
0.4578649
-0.002307657
-15.03751
0.2002658
-0.1135302
-33.80151
0.6425068
-0.2784268
-2.718644
-28.33071
3.036607
-3.123116
0.8906249
-13.58372
-37.6761
33.41962
47.25531
1.111425
-0.8088198
0.5605816
4.819542
0.5205451
-0.00145465
10.49689
-33.33068
0.8699253
-0.04578951
-1.280937
1.131627
-0.08277341
2.283969
-1.590044
-23.88251
-57.33835
0.3368448
0.2627228
0.03526442
1.055113
0.9338866
-9.480206
0.05691915
-0.02776085
-0.119989
-1.186077
0.07045682
0.06374506
-35.793
-21.95796
0.6935453
0.2601427
-0.002123124
0.9787231
0.02497384
0.7748322
-0.01459427
30.45824
-0.02363049
-1.629248
-53.85399
-0.4895081
-1.066236
-79.32321
-70.65045
-0.708738
0.4082376
0.2227172
-0.03357531
-1.364622
-7.285608
0.02263517
-0.08809933
-0.04947329
0.18682
0.05271654
-2.073817
-0.1932075
0.01376381
-0.6738127
0.02485184
0.01580341
-1.031201
-1.570092
0.05109432
-0.4510956
1.024513
-0.9290369
0.03665439
2.657753
-0.02423388
0.2656686
3.379348
0.03085408
0.03631896
-22.18857
-21.39798
0.01001475
-0.07308528
-0.006955824
-0.01411278
-29.2454
-11.97285
-25.46824
-32.13971
22.81769
0.0182426
2.245436
0.187454
-21.57742
-0.03645973
2.485194
9.454998
0.06591212
0.1079912
0.9675258
0.9402151
4.447614
-0.8272312
0.05609932
-20.26021
0.02868172
-23.10457
2.218918
6.049225
35.40126
-12.55847
-7.341731
-0.005830737
0.9969943
0.252207
7.105125
0.2762302
6.735383
-1.638502
0.105289
-8.561753
0.09365313
-3.013456
-0.05805939
-20.62252
-0.3147548
-86.62851
7.139129
0.4428353
13.92008
-0.01337475
29.57237
0.05519507
0.3933139
-0.005895771
-1.594876
14.15257
0.3168865
-42.56741
-0.04701923
0.01184593
-0.2632522
-0.2307965
0.4865771
-10.27306
2.072569
0.003699171
-31.99139
0.1859766
17.70901
-44.30997
1.238772
23.65031
-16.02857
-4.310528
-16.81204
38.20177
-0.08904559
-0.0136905
-38.99131
0.0926195
0.03170577
-2.19322
-0.8945306
-20.20594
-79.54958
0.6263281
0.1121207
0.8674705
0.3150702
-0.05467843
-0.009364099
0.353423
5.149769
2.201308
-0.06753964
0.03246214
0.0347919
0.08210646
0.5002151
0.03280536
-0.4744466
-0.4438076
-46.77574
-0.02274786
0.1578466
0.02211023
-1.143296
-30.18966
0.7307099
0.02386302
0.5539299
0.0487319
-0.01708167
0.1341474
-0.04846427
0.1645158
-47.97959
25.1325
-2.683165
0.07982646
2.253146
-2.050898
-0.191374
-0.4577181
0.01508358
-0.692097
-0.008398779
7.660528
-0.3103518
-16.10016
0.4256909
2.204961
0.4229123
0.3771034
-1.521595
-0.5880117
1.010496
1.566512
-41.41642
1.357126
0.01964659
0.02298177
-1.386928
0.002501066
-0.4657416
-30.64176
0.1775287
-0.2227908
-0.01583545
-8.764354
-0.02058803
0.03278904
1.794194
-56.69448
-0.0140155
0.01222068
-0.02695341
-69.35236
0.02954043
-34.79225
-0.06018075
-0.004926775
-0.5193671
-0.704736
1.546956
-32.37714
-40.60582
0.01141656
0.03287246
9.077525
0.02772974
1.743282
1.346604
1.420852
-1.187379
-0.02443507
-0.1400739
-75.68818
0.1287068
0.1061459
-0.4978094
0.1718634
-1.670123
-0.1257452
0.007218395
-0.2099655
-10.76452
-0.7736859
-0.05093679
8.704601
0.2674677
-13.24322
-0.1645893
0.06389597
-2.038782
-24.99237
-0.829572
-1.430185
0.1058907
-18.54981
-26.26474
-23.04264
-0.03414529
22.3773
0.1493347
-7.662024
-3.569087
-0.7117465
15.60396
0.392095
-30.18948
-73.72346
0.05871881
0.06745981
-2.227372
0.05548643
0.06813897
0.05030713
0.1788252
0.02133251
0.06098086
-15.99926
-1.125457
0.02673132
0.3104709
0.7415737
-1.557721
-0.2632049
0.02505545
-0.01274025
0.03392764
-19.50522
-1.017578
1.205367
-0.5876897
0.00948128
-37.96742
0.0467205
-3.713939
0.05698873
0.04648036
0.020861
-26.45035
-5.141392
1.709125
2.060065
-0.002349603
10.59622
-56.07026
-17.44179
-1.039914
-0.85713
17.7478
-2.821487
0.03909052
-0.01959305
-2.433154
0.005383732
-45.61026
-30.90577
-19.66519
11.07205
7.871779
-0.009602251
-48.29387
-46.87554
-70.76608
1.307181
-5.145627
-1.627076
0.5706289
0.003581437
0.0182625
0.0121657
-0.00258433
-0.04297279
0.1982682
0.0219754
-0.0007072468
-27.33264
0.02026716
-0.2305391
-0.8652008
11.30902
19.05654
0.004132313
20.62029
-36.00383
-11.5221
6.963682
-3.705946
-7.302798
-13.46476
-64.09546
0.032925
-22.71511
0.2473458
-52.74023
-22.2607
-0.01032387
0.1258471
-9.571332
0.07936767
13.65219
-0.05230661
0.02581175
1.384323
-0.04171037
0.02773495
0.0299795
-0.3132814
-0.4915308
0.172796
-38.10844
0.01125788
-0.2213192
0.1361549
0.08114411
0.05662367
-19.58401
0.0822805
-43.33067
-1.085182
0.5233526
22.52564
0.01900471
0.01681454
-43.23393
-1.760642
-60.61596
0.1685117
0.02380158
-0.06521392
-0.0995721
0.3179968
0.0118293
0.3572391
-0.3724249
0.02314609
0.02186293
-0.01275662
20.16698
1.519903
-17.76198
4.094996
0.4371387
-0.04642187
-78.74349
-0.04777439
-0.01382299
2.128887
1.221639
0.1002471
-55.12639
-48.87604
-57.63472
0.02065291
0.07420176
-47.17845
0.4560088
-23.77291
-0.3086474
0.3546547
1.147281
-36.36967
0.2163155
-66.72963
-0.3120342
-3.335654
-0.01084203
0.3844265
8.916507
-0.4932048
-0.939677
0.1364909
0.01201183
-1.438011
15.21606
-1.204131
9.722776
-0.1464079
0.0940071
0.02560579
0.5037856
0.5230438
-1.214369
0.03359641
-8.350917
0.1841768
-0.02667515
3.48023
0.06071901
0.01370677
-6.642213
-4.851056
-0.0900557
-0.1215553
0.5726189
-0.003746549
0.3358569
-71.05518
26.43802
-7.037274
0.04780339
0.0591122
-31.16753
-0.05579009
0.2434634
0.1828745
0.3434258
-1.076474
-0.09912106
-0.5629421
4.943136
-1.258323
20.39651
33.95243
0.7783368
0.7448904
0.883391
0.4037821
0.2585917
0.01707673
32.74019
-48.29701
0.002124142
1.305158
0.112497
0.3890527
0.04297984
0.03262414
1.128734
-0.01862439
0.310888
-1.676624
-0.1813307
0.5073421
0.0955788
6.865817
-13.4008
-3.268422
0.07548078
-77.13151
27.94297
19.20825
-0.3284155
-9.264127
-4.315698
-0.06652788
1.037845
31.80004
0.2628376
0.01051001
0.406627
-0.8431023
0.008033637
-1.577917
0.09143093
0.02923844
0.02632856
-0.02219588
18.88929
0.066369
0.3145386
0.1498316
0.04413744
0.1337185
19.07794
2.115801
6.186293
-81.81128
-18.21712
0.02376906
0.01031522
-46.20581
0.06728098
-37.53497
-1.955476
0.04867998
0.1671406
-0.5547499
0.4617415
-14.8259
1.488488
0.2241843
-6.965488
-0.00348546
-0.03939445
-2.178176
-57.8242
-18.27665
-1.100646
2.423845
-0.001944342
-0.01044118
0.6108103
0.09659581
-0.256865
-0.7272231
-69.02198
0.5291877
-2.824643
-2.422543
-45.88982
0.6255093
0.9949269
-10.72706
2.68381
1.374137
-0.05875412
35.72463
0.009113291
-0.1057093
-0.4154507
-0.2340257
6.622453
-24.88408
-38.35446
12.99866
0.4704209
0.04559179
-0.1787413
-0.1674196
-0.02907267
-0.03534909
0.04721897
0.1511596
-0.3789782
-0.363905
0.01701738
-0.3370979
11.3588
7.413665
0.05071554
-0.01327461
-2.177154
-1.848132
-0.01105243
0.9648037
7.318998
-46.59182
-9.667424
-0.08434405
0.1008675
-74.61384
42.2984
-88.49679
0.6055839
0.5195017
3.482858
0.1717295
8.204426
-23.32413
0.02337888
2.935592
-0.8089247
1.969677
-0.1375195
0.01405747
-0.9664499
26.71935
0.5886224
0.1048728
-1.742259
0.007717709
-76.48509
-52.41218
-46.22805
-0.03184946
14.26229
0.0787339
0.09453553