/*--------------------------------*- C++ -*----------------------------------*\
| =========                 |                                                 |
| \\      /  F ield         | OpenFOAM: The Open Source CFD Toolbox           |
|  \\    /   O peration     | Version:  2406                                  |
|   \\  /    A nd           | Website:  www.openfoam.com                      |
|    \\/     M anipulation  |                                                 |
\*---------------------------------------------------------------------------*/
FoamFile
{
    version     2.0;
    format      ascii;
    arch        "LSB;label=32;scalar=64";
    class       volScalarField;
    location    "0.46";
    object      p;
}
// * * * * * * * * * * * * * * * * * * * * * * * * * * * * * * * * * * * * * //

dimensions      [0 2 -2 0 0 0 0];

internalField   nonuniform List<scalar> 
4541
(
2.263937e-05
1.962222e-05
1.513812e-05
5.392644e-06
2.431085e-05
3.847277e-05
2.607797e-05
2.465366e-05
3.969393e-05
5.060991e-06
3.787434e-05
2.480376e-05
1.369361e-05
2.955134e-05
8.682515e-06
-9.452705e-07
-6.885179e-06
-8.180171e-06
-1.180459e-05
1.887013e-05
-1.196311e-05
2.232704e-05
4.076847e-07
4.72908e-05
2.174892e-05
2.491534e-05
2.944125e-05
2.502581e-05
3.998487e-05
1.306883e-05
2.720789e-05
2.928638e-05
5.222825e-06
3.564524e-05
1.98927e-05
1.34133e-05
1.596457e-05
1.249148e-05
3.12335e-05
-9.058519e-06
1.36264e-05
4.169389e-05
1.69937e-05
5.580226e-06
1.200779e-05
4.721759e-06
1.236412e-05
-1.99712e-05
1.901855e-05
2.712707e-05
3.170825e-05
3.17947e-06
-3.065496e-06
2.817233e-05
-3.652523e-06
3.274587e-05
2.515749e-05
3.668213e-05
-7.08835e-06
1.949116e-05
3.09451e-05
1.8004e-05
-1.21127e-05
5.997367e-05
4.006028e-05
1.876879e-05
3.404244e-05
1.058892e-05
1.783106e-06
-1.702806e-05
-8.415415e-06
-2.684992e-06
2.689843e-05
3.032582e-06
3.746511e-05
1.117712e-06
-4.201348e-06
-1.284338e-05
9.461804e-06
3.571822e-05
-1.064143e-05
9.986572e-06
3.329135e-05
7.866622e-06
2.732023e-05
2.274816e-05
1.987915e-05
-1.566514e-05
-7.847809e-06
-1.165065e-06
2.228047e-05
-1.815432e-05
-9.474598e-06
-5.603774e-06
2.835708e-05
-1.440078e-05
2.422952e-05
1.833748e-05
2.205162e-05
2.380036e-05
2.851961e-05
1.646495e-05
3.594576e-05
-3.870559e-06
5.302497e-06
3.135234e-05
-9.534293e-06
1.249213e-05
1.716074e-05
7.145897e-06
2.224546e-05
3.138015e-05
5.501093e-06
9.328145e-07
3.376011e-05
3.120941e-05
2.904564e-05
-7.086959e-06
3.06652e-05
4.296708e-05
4.105623e-06
1.597125e-06
1.102257e-05
-5.004485e-06
-2.824499e-06
1.697109e-05
4.921262e-05
5.473033e-05
2.037482e-05
4.036211e-05
3.718005e-05
2.493795e-05
2.865977e-05
1.657463e-05
1.792211e-05
6.143281e-05
4.503892e-06
2.58214e-05
3.672833e-06
1.085747e-05
2.735768e-05
-6.261373e-06
3.96715e-05
-3.260122e-06
1.653967e-05
3.876116e-05
4.093831e-05
3.102321e-05
-4.643328e-06
3.406947e-05
-1.065664e-06
8.024412e-06
2.931055e-05
2.065811e-05
2.372255e-05
4.030925e-05
3.895326e-05
-1.249321e-05
3.47748e-05
1.026791e-05
2.916672e-05
2.390941e-05
4.208886e-05
-9.268525e-06
7.54066e-06
1.597929e-06
3.894064e-05
1.997626e-05
2.213602e-05
3.510869e-05
3.62377e-05
-2.483773e-07
-1.394085e-05
-1.183329e-07
-2.198652e-06
1.305426e-05
-9.503583e-06
2.637966e-05
1.849776e-05
3.764473e-05
-4.557682e-06
4.612522e-05
4.665791e-06
2.384027e-05
2.320745e-05
1.437642e-06
1.272496e-05
3.292054e-05
6.997781e-06
3.615203e-05
2.252248e-05
3.348815e-07
1.181434e-06
3.170602e-07
-6.244636e-06
9.635502e-06
2.832125e-05
-1.501113e-05
-1.481902e-05
-3.279122e-06
6.346105e-06
5.824028e-05
2.609799e-05
-9.104039e-07
5.162991e-06
-1.005118e-06
1.969207e-06
-4.814581e-06
2.815373e-05
1.526546e-05
2.848453e-05
-1.158667e-05
1.756245e-05
2.526392e-05
4.547355e-05
2.422326e-05
-1.99962e-06
1.806295e-05
5.184886e-05
4.285453e-05
6.821511e-05
1.913755e-07
3.505486e-05
3.05994e-05
3.568103e-06
2.983601e-05
-5.193337e-07
8.309448e-07
-4.36432e-06
3.472206e-05
2.356545e-05
2.341719e-05
1.76079e-06
3.692032e-05
5.105297e-05
-2.126143e-05
6.620053e-06
1.347161e-05
2.936875e-05
3.291507e-05
2.369021e-05
-1.471113e-06
2.385022e-05
3.415022e-05
3.367486e-05
2.40001e-05
2.331373e-05
1.938974e-05
-1.188256e-05
2.236524e-05
2.938593e-05
4.180197e-05
-2.593886e-06
2.902841e-06
3.910797e-05
2.089952e-05
3.630984e-05
-1.93837e-06
-3.530113e-06
-1.357062e-06
3.702232e-05
2.52049e-05
3.777908e-06
5.906196e-05
2.634373e-05
-1.719261e-05
2.525102e-05
-1.617085e-05
8.573215e-06
-7.331581e-06
-1.467155e-05
1.583734e-05
4.038703e-05
3.184592e-05
2.668724e-06
5.14221e-07
4.444133e-05
-6.083615e-06
1.782914e-05
2.179631e-05
2.983453e-05
-7.452436e-06
2.219812e-05
1.34994e-05
-2.868148e-06
-8.458155e-08
1.446304e-05
-8.135145e-06
-1.26169e-05
-1.188347e-05
2.731816e-05
2.617338e-05
3.847145e-05
-1.432286e-05
-1.403738e-05
2.533237e-05
3.152277e-05
2.512008e-05
-9.108073e-06
9.350471e-06
-3.614659e-06
3.427142e-05
2.324056e-05
1.000891e-05
1.120589e-05
4.531129e-05
4.39547e-05
-9.028039e-06
-1.792619e-06
-4.482345e-06
1.52028e-05
4.987737e-06
3.081527e-05
2.520507e-06
3.970195e-05
3.532589e-05
-3.34613e-06
4.121467e-05
1.713812e-07
6.282385e-05
4.400627e-06
-5.626886e-06
3.355591e-06
1.952076e-05
3.423121e-05
2.78948e-05
1.052224e-05
2.349296e-05
2.232284e-05
3.376082e-05
2.219931e-05
-2.163644e-06
-3.197976e-06
2.685223e-05
2.417491e-05
2.700202e-05
3.918116e-05
3.507189e-05
1.449552e-06
6.683708e-06
2.586741e-05
1.730039e-05
3.486239e-05
2.269742e-05
5.769146e-05
1.089751e-05
4.916583e-06
2.077642e-05
-1.442973e-06
1.962285e-05
-2.745854e-06
7.776046e-06
-5.730442e-06
2.899788e-05
-5.947804e-06
2.192029e-05
-7.324261e-06
-4.588322e-06
2.661509e-05
6.319075e-09
-1.177028e-05
-2.345134e-07
9.777476e-06
2.588035e-05
-1.323064e-06
-1.240518e-05
1.250735e-05
2.97519e-05
1.715805e-05
-4.45411e-06
-4.140866e-06
6.269121e-05
-1.282642e-05
-1.032224e-05
1.880193e-05
2.454187e-05
2.299304e-05
2.811033e-05
6.238976e-06
2.383065e-05
3.200059e-05
-1.026067e-05
-8.84632e-06
2.244915e-06
-1.533085e-05
4.548157e-05
-3.930701e-06
1.236381e-05
3.565289e-05
3.227875e-05
5.756465e-06
4.857799e-06
-9.852549e-06
3.61629e-05
2.262218e-05
3.502261e-05
3.466631e-05
-7.266443e-06
1.136895e-05
2.169466e-05
8.207864e-06
5.749256e-06
2.893983e-05
2.807023e-05
3.831181e-05
-8.02093e-06
-9.859832e-06
8.80667e-06
-3.417052e-06
1.96697e-05
1.074146e-05
-1.037156e-05
1.747238e-05
3.844954e-05
3.521283e-05
1.144688e-05
3.565512e-06
6.388679e-06
-1.775348e-06
1.016661e-05
4.216454e-05
5.002943e-05
2.157931e-06
3.734414e-05
3.195021e-05
6.238629e-06
6.638145e-06
5.580151e-06
2.966968e-05
3.354051e-05
2.442614e-06
3.708899e-05
1.753296e-05
-1.170227e-06
6.734926e-06
3.015064e-05
-2.156331e-06
4.652491e-05
1.912037e-05
1.559775e-05
-6.098841e-06
3.653578e-05
2.171619e-05
-1.849423e-05
2.425605e-05
2.263706e-05
1.118402e-05
4.851402e-05
2.74873e-05
7.361288e-06
6.66977e-06
2.609264e-05
-4.842004e-06
-2.594386e-06
2.579503e-06
3.03698e-05
3.173775e-05
2.356485e-05
3.5148e-05
3.170459e-05
-1.010951e-05
3.71668e-07
2.814407e-05
-4.39265e-06
1.373569e-05
-7.730881e-06
-5.683959e-06
1.706536e-05
1.484829e-06
2.341051e-05
7.280773e-06
-6.885519e-08
8.630663e-07
4.271486e-05
2.038186e-05
-3.322169e-07
-2.038783e-05
2.680127e-05
2.203586e-05
2.377389e-05
1.936057e-06
-1.630206e-05
2.422216e-05
3.53061e-05
5.458656e-06
3.627663e-05
3.089439e-05
2.610592e-05
3.632888e-05
3.733171e-05
2.248931e-05
2.264365e-06
8.328572e-06
5.706403e-06
1.843699e-05
5.404521e-05
2.662588e-05
3.567171e-05
1.044301e-05
1.637141e-05
2.712206e-05
2.284643e-05
2.713219e-05
4.683226e-05
3.677007e-07
2.126363e-05
3.367435e-05
1.521188e-05
2.70676e-05
1.388896e-05
-9.471219e-06
5.372743e-06
-1.360691e-06
2.48261e-05
2.547223e-05
-1.550445e-05
1.817372e-06
2.61216e-05
1.321288e-07
2.765152e-05
2.845838e-05
-2.070904e-06
3.963172e-05
3.843108e-05
3.15487e-05
3.399217e-05
3.303644e-05
2.329455e-05
2.603522e-05
2.577175e-05
2.629687e-05
7.27848e-05
2.07572e-05
8.709586e-06
1.387116e-06
3.100804e-05
8.241284e-06
2.450853e-05
2.543889e-05
5.215599e-05
1.79481e-06
1.838337e-05
2.348768e-05
3.912969e-05
5.137188e-05
3.021722e-05
-7.207826e-06
2.530279e-05
6.588363e-05
4.802247e-05
1.587588e-05
2.459377e-05
1.81516e-05
3.73326e-05
3.728134e-06
3.027021e-05
2.666506e-05
3.348728e-07
1.52331e-05
3.484568e-05
9.515037e-06
3.06957e-05
1.672689e-05
4.826421e-05
2.165277e-05
-1.160877e-05
-2.261625e-06
-6.230494e-06
1.589759e-05
-9.403926e-06
-5.025804e-06
-7.212005e-07
4.8207e-05
2.553667e-05
7.777985e-07
-2.410063e-06
-1.162261e-06
-1.765185e-06
-2.051589e-06
1.239252e-05
1.156302e-05
2.64917e-05
5.545155e-06
5.185741e-06
2.602208e-05
5.00449e-06
-6.21885e-06
4.26156e-05
1.927588e-05
2.920854e-05
2.848828e-05
-3.51518e-06
-2.253336e-06
2.768647e-05
3.102402e-05
1.552823e-05
3.714879e-06
4.052874e-05
9.857943e-06
2.734821e-05
2.790704e-05
1.989413e-06
1.613549e-05
-3.695097e-06
-3.904922e-06
2.683291e-06
1.627132e-05
2.297675e-05
2.896056e-05
-5.707715e-06
3.432462e-05
2.83217e-05
-1.933866e-05
3.381031e-06
2.656865e-05
2.525037e-05
3.058778e-05
1.287455e-06
-1.988319e-06
3.594379e-05
4.251928e-05
-4.917915e-06
2.980644e-05
3.634415e-05
3.281995e-05
2.792585e-06
-8.854848e-06
5.056504e-05
3.313748e-05
3.875933e-05
-1.589033e-06
-3.011917e-06
1.483499e-05
3.675009e-05
3.063618e-06
1.692243e-05
-1.34029e-05
1.734466e-05
1.693992e-06
2.648174e-05
-1.615363e-05
3.193011e-05
3.037105e-05
1.353995e-06
-6.931531e-07
2.313695e-05
2.384495e-05
3.788619e-05
3.64464e-05
2.199114e-05
-7.782113e-07
1.332367e-05
-6.021844e-06
1.977418e-05
3.594944e-06
2.264296e-05
3.87991e-05
-2.738938e-06
3.076998e-05
1.757381e-05
-3.905347e-06
4.002037e-06
-5.312677e-06
1.134771e-05
3.203609e-05
2.452353e-05
-6.405703e-07
6.710177e-07
3.558032e-05
3.728738e-05
2.269996e-05
5.679884e-06
9.714373e-06
5.972388e-06
7.029723e-06
1.091275e-05
5.019781e-06
7.693561e-06
3.534018e-05
3.954496e-05
3.060187e-06
3.348605e-05
-8.75733e-06
4.835205e-07
2.984138e-05
3.050307e-05
2.361982e-05
3.270285e-05
2.627176e-05
3.679085e-05
3.682296e-05
-1.471955e-05
-2.191185e-05
-4.706249e-06
-7.878047e-06
-4.283878e-06
-6.877767e-07
-1.360156e-06
-5.658451e-06
3.137356e-05
2.52702e-05
2.639443e-05
2.757665e-05
3.519638e-06
-4.458552e-06
2.569811e-05
2.227725e-05
2.271446e-05
3.249729e-05
1.452238e-05
8.98682e-06
2.604148e-05
-5.219379e-06
3.505875e-05
-3.438982e-06
-5.402855e-06
1.595635e-05
2.136063e-05
4.479088e-05
3.153873e-05
3.308533e-06
3.385821e-06
3.872565e-06
2.36755e-06
1.738356e-06
1.260426e-06
1.353137e-07
2.035256e-05
-7.875534e-08
3.1051e-06
3.37273e-05
2.944982e-05
3.013769e-05
1.28547e-05
1.566949e-05
6.815862e-06
5.980617e-06
1.684063e-05
1.639282e-05
2.867503e-05
6.58732e-05
2.035873e-05
2.110422e-05
2.241501e-05
2.066758e-05
3.479273e-07
2.41062e-05
2.417583e-05
2.619468e-05
-2.967452e-06
-3.075578e-06
-5.892517e-06
2.635754e-05
-5.969544e-07
-9.850835e-07
1.154604e-05
1.406952e-05
1.919932e-05
-4.600446e-06
5.133766e-06
1.691539e-05
1.300302e-05
-7.662571e-07
3.489338e-05
3.591012e-05
6.168764e-05
-1.609391e-06
2.651689e-05
-1.326356e-06
-3.901069e-06
3.656476e-05
2.471049e-05
5.261226e-05
1.708781e-07
3.016384e-05
-1.468751e-05
2.109928e-05
8.992005e-06
1.454975e-05
-7.181955e-06
-1.285317e-05
2.487122e-05
2.985441e-05
3.054462e-05
1.226173e-05
3.796873e-05
-6.123245e-08
2.552556e-05
3.088725e-05
3.444601e-06
3.324536e-05
2.2736e-05
2.338676e-05
3.46637e-06
2.24888e-05
2.427271e-05
2.745338e-05
4.39617e-05
1.837759e-05
1.474888e-05
1.046343e-06
2.233264e-05
2.273521e-05
2.776718e-05
2.105799e-05
3.722076e-05
3.536272e-05
3.425462e-05
-4.247248e-06
-1.721961e-05
2.24624e-05
1.104306e-06
9.935625e-06
9.153044e-06
1.212509e-05
2.464377e-05
1.595766e-05
2.283564e-05
-1.191785e-06
2.74023e-05
3.689426e-05
3.521459e-05
2.32562e-05
7.960771e-07
4.653853e-06
2.981235e-06
3.781994e-06
2.127813e-05
1.082168e-05
1.630176e-06
-2.157782e-05
3.896146e-05
3.876601e-05
3.855109e-05
3.88575e-05
2.472041e-05
5.386496e-05
3.994588e-05
2.209115e-05
3.067543e-05
1.042448e-05
-2.910741e-06
-5.350552e-07
2.361904e-05
6.106739e-06
8.770831e-06
-4.248039e-06
-6.68171e-06
-2.208748e-05
4.950992e-05
1.181724e-05
2.314707e-05
-6.56776e-06
-2.231781e-05
1.990483e-05
5.03691e-05
2.496213e-05
-3.935948e-06
3.631639e-05
-3.57117e-06
1.725509e-05
-1.035653e-05
3.340765e-05
-8.23554e-07
8.552341e-06
5.51973e-05
1.969217e-05
5.167044e-05
-8.106007e-06
-5.454604e-06
-1.074025e-06
3.620232e-06
-5.230542e-07
-1.051736e-06
2.423871e-05
-6.936737e-06
3.10768e-05
2.717026e-05
5.977715e-05
-1.794402e-05
-2.136647e-05
2.895596e-05
6.220241e-06
3.229595e-05
3.139234e-05
1.876319e-05
2.756001e-05
2.923022e-06
-1.322295e-05
2.604485e-06
9.451898e-06
9.874791e-06
1.76584e-05
1.530375e-06
1.130609e-06
6.910073e-07
1.139921e-06
-1.349994e-05
3.302194e-05
3.143892e-05
1.754364e-05
1.225435e-05
3.191552e-05
1.911049e-05
2.584113e-05
1.235729e-05
-2.185247e-07
2.360767e-05
2.071978e-05
1.995331e-05
2.511419e-05
8.649283e-06
3.956062e-05
1.851534e-06
2.334702e-05
2.530747e-05
-9.199452e-07
-3.266143e-06
4.847069e-05
1.755961e-05
-2.227259e-06
3.128624e-05
-2.909616e-06
1.590141e-06
-9.508276e-06
7.224284e-07
6.278745e-08
1.084119e-06
1.414205e-05
1.011659e-05
3.401597e-05
-8.180776e-06
-8.74236e-06
-9.520187e-06
-9.981188e-06
1.634334e-05
-7.330733e-06
-8.251027e-06
3.961096e-05
2.780379e-05
3.701598e-05
-3.644857e-06
-9.862199e-06
-1.151781e-05
3.027998e-05
6.33095e-07
3.523044e-05
5.049272e-06
3.315463e-07
2.256438e-05
3.234735e-05
3.10187e-05
3.229991e-05
3.153265e-05
1.928808e-09
3.583489e-05
2.618962e-05
3.564616e-05
8.259436e-06
9.110113e-06
8.022428e-06
1.889486e-05
1.784812e-05
1.832469e-05
1.842668e-05
-2.783164e-06
-4.185042e-06
-4.640861e-06
3.627787e-05
3.563921e-05
-1.522253e-06
2.330884e-05
-2.41351e-06
1.436435e-05
2.56596e-05
3.526754e-05
3.025899e-05
3.606376e-05
1.893003e-05
2.206673e-05
2.825682e-05
3.443046e-05
3.480481e-05
2.552858e-05
-8.869478e-06
-5.655394e-06
-1.565484e-05
-1.99589e-05
1.187131e-06
3.938222e-05
-3.906639e-06
-2.542435e-06
-4.114281e-06
2.838984e-05
7.647548e-06
8.931438e-06
2.212825e-05
2.849386e-05
2.739636e-05
-1.016584e-05
-1.386424e-05
2.363277e-05
2.911191e-05
9.124129e-06
4.708504e-05
3.59088e-05
3.857736e-05
-4.860992e-06
4.257045e-06
8.706422e-06
2.176899e-05
3.713573e-05
8.996179e-06
2.364247e-06
-1.094419e-05
-1.508366e-05
1.498148e-05
4.47218e-05
-4.355555e-06
2.742418e-06
-3.676622e-07
1.650417e-06
1.251466e-07
-3.512942e-06
1.343792e-05
-9.720247e-06
3.306793e-05
1.359069e-05
-1.021183e-05
1.523552e-05
4.033402e-05
4.090806e-05
1.945102e-05
-6.66363e-07
1.182317e-05
-4.129097e-06
3.905128e-06
1.315848e-05
1.418634e-05
4.315521e-05
4.143003e-05
7.616474e-06
6.057314e-05
1.135769e-05
4.256288e-05
-1.18807e-05
6.967049e-07
7.804378e-07
6.963323e-07
-4.107352e-07
-6.503047e-07
1.687962e-06
2.699251e-06
1.937803e-05
2.846984e-05
3.959361e-06
4.938299e-06
4.940184e-07
2.17789e-06
-3.599319e-06
-7.213601e-06
-7.779861e-06
2.371807e-05
2.298594e-06
2.497964e-05
-5.219381e-06
1.585134e-05
1.504235e-05
1.533851e-05
-2.492067e-06
3.895924e-06
3.270265e-05
2.970324e-05
2.968817e-05
2.461375e-05
3.198356e-05
4.052163e-05
-8.237858e-06
-6.151692e-06
2.961756e-05
2.977314e-05
3.117219e-05
2.213585e-05
-3.819721e-06
4.49107e-06
8.465265e-06
1.024536e-05
4.758581e-06
2.087585e-05
2.24011e-05
3.701761e-06
9.062149e-06
1.55108e-05
-1.204673e-05
-3.001464e-07
1.356558e-06
3.933429e-06
7.492911e-06
-1.195376e-05
-2.494672e-05
-7.522913e-06
-5.982709e-06
2.589525e-05
-5.630015e-07
1.401206e-05
1.650437e-05
3.725694e-05
1.778296e-06
4.452489e-05
3.725786e-05
2.192679e-05
-1.934323e-07
-3.169412e-06
-9.434752e-06
2.687945e-05
2.948474e-05
1.18719e-05
2.712628e-05
2.793149e-05
-2.149551e-05
-1.323774e-05
-2.221503e-05
-1.957351e-05
-9.592594e-06
-1.66774e-05
-2.042759e-05
1.158311e-05
1.15302e-05
2.719177e-05
-1.100947e-05
-9.695542e-06
-1.238045e-05
2.082903e-05
1.855363e-05
8.417013e-06
5.326987e-06
3.393039e-05
8.215063e-06
2.289965e-05
2.50855e-05
3.09613e-06
3.858127e-06
6.451207e-06
4.22781e-05
3.468485e-05
-1.214014e-05
-1.076484e-05
1.936601e-05
3.301848e-05
3.468987e-05
9.924794e-08
3.258172e-05
3.309567e-05
3.32063e-05
1.06263e-05
4.579596e-05
3.632947e-05
1.393831e-05
5.550951e-05
1.821474e-05
2.141001e-05
1.220077e-05
-1.476388e-06
2.160119e-05
3.622546e-05
2.641733e-06
8.546251e-07
1.007409e-05
4.207644e-05
3.562794e-05
1.985959e-05
2.700757e-05
-1.766509e-06
-3.379962e-06
-9.897621e-06
-7.147755e-06
5.074271e-07
-2.03098e-06
1.593907e-05
1.583572e-05
1.97205e-05
1.693499e-05
3.378255e-05
-6.948729e-06
2.47148e-05
2.534209e-05
3.122516e-05
3.027446e-05
2.488258e-06
4.676458e-06
2.384828e-05
2.849103e-05
-2.832767e-06
3.457115e-05
3.722106e-05
3.586507e-05
2.802684e-05
3.978855e-05
3.310729e-05
3.27338e-05
1.103608e-05
-4.01356e-06
-8.684936e-07
-1.401185e-06
5.863593e-08
2.296645e-05
2.313678e-05
2.548096e-06
3.849238e-05
-6.218633e-06
5.52235e-05
3.750414e-05
3.0302e-05
2.745999e-05
2.351056e-05
2.357168e-05
-1.226485e-05
1.34375e-05
3.499491e-05
5.018422e-06
5.606292e-06
1.04894e-05
-9.021116e-07
-1.004229e-05
2.712301e-05
2.970486e-05
2.825065e-05
1.559372e-05
1.405227e-05
2.903327e-06
2.584991e-05
3.342128e-07
4.409962e-05
2.099535e-05
2.875546e-05
2.450907e-05
2.839112e-05
2.589002e-05
2.585566e-05
3.655021e-05
-1.037498e-05
6.853976e-05
6.892477e-05
2.303554e-05
2.599393e-05
2.719938e-05
3.600803e-05
2.374754e-05
7.406909e-07
2.593682e-05
3.441064e-05
2.476117e-05
2.958248e-05
-1.0119e-05
-1.072244e-05
4.279176e-05
1.634297e-05
3.44538e-06
3.591802e-06
1.832522e-06
3.822214e-05
3.704646e-05
3.506029e-08
-1.020557e-06
1.886824e-05
6.18279e-06
7.623021e-06
1.399814e-05
6.445902e-06
6.718201e-06
4.151946e-05
3.230026e-05
2.730886e-05
3.533151e-05
3.339574e-05
2.789384e-05
3.700551e-05
3.600196e-05
2.813223e-05
2.590585e-05
2.275384e-05
2.603774e-05
1.952622e-05
9.210394e-06
1.321596e-05
7.492081e-06
-8.036376e-06
-3.198125e-06
2.020787e-06
2.10917e-05
2.24423e-05
-9.825599e-06
3.707331e-05
3.404873e-05
3.815329e-05
2.074568e-05
5.498762e-05
4.738198e-05
1.397571e-05
1.772192e-05
8.295259e-06
3.345798e-05
4.008524e-05
2.263441e-05
1.956617e-05
2.748997e-05
2.565034e-05
4.143446e-05
3.082952e-05
2.85346e-05
2.923315e-05
3.682122e-05
3.6149e-05
1.51555e-07
1.584477e-05
3.073327e-05
-1.391587e-06
-8.594279e-07
-1.708255e-06
1.208192e-05
4.48575e-05
8.38121e-06
3.503406e-05
1.875564e-05
3.307218e-05
3.29093e-05
1.981263e-06
8.30632e-06
4.119512e-05
-4.642455e-07
2.732849e-05
3.773084e-05
1.79849e-05
2.167394e-06
-6.727047e-06
-1.055866e-06
-1.739402e-06
2.710231e-05
1.300099e-05
3.126886e-06
-5.03745e-06
2.286755e-05
4.000979e-05
4.185911e-05
3.637267e-05
3.617355e-05
4.549609e-05
2.35712e-05
9.597168e-06
2.686148e-05
1.571979e-05
2.515507e-05
3.028993e-05
2.913015e-05
2.863356e-05
1.950129e-05
8.369838e-06
-6.244849e-06
1.445959e-05
7.818345e-06
6.105829e-05
6.355216e-05
7.295857e-05
9.441471e-06
1.788756e-06
1.056267e-05
-1.872637e-06
2.151205e-05
3.878321e-05
1.788202e-06
3.966296e-06
1.145249e-05
2.006411e-06
2.626557e-05
5.816973e-07
2.603842e-05
1.386752e-05
2.043676e-05
2.733163e-05
2.81951e-05
-3.145015e-06
-8.06132e-06
2.570547e-05
1.803684e-05
3.353667e-05
7.641635e-06
8.979565e-06
-9.602156e-06
-1.59016e-05
-1.878817e-05
2.772849e-05
-2.236252e-05
1.999456e-06
1.585259e-05
-1.135204e-05
1.39186e-05
4.089582e-05
4.099243e-05
3.628521e-05
6.271329e-05
3.055469e-05
-1.35938e-05
1.539819e-05
-1.356012e-05
2.553372e-05
1.772206e-05
1.329039e-05
2.631789e-05
2.794581e-05
2.882216e-05
4.741971e-05
1.897376e-05
2.133662e-05
3.217531e-05
3.169764e-05
3.065124e-05
1.455251e-05
-2.592852e-06
4.84604e-06
-5.631167e-06
-3.846481e-06
-2.7338e-06
-4.986426e-06
-8.476349e-06
3.388398e-05
2.86497e-05
2.06265e-06
-4.856611e-06
3.688994e-05
2.550746e-05
-5.95297e-06
2.454143e-06
-3.336437e-06
-9.288861e-06
1.541071e-05
7.01749e-06
3.369164e-05
6.787319e-06
2.267649e-05
1.633177e-05
6.806607e-06
6.472845e-06
2.849648e-05
1.651084e-05
2.594401e-05
2.717739e-05
2.450913e-05
1.484909e-05
2.784727e-05
-3.432356e-06
-2.798523e-06
-1.384706e-05
-5.15658e-06
-6.009766e-07
7.213124e-06
9.138995e-06
-1.905756e-05
-1.37754e-05
-1.055448e-05
3.206842e-05
3.17826e-05
3.420618e-05
3.596859e-05
2.033817e-05
1.796831e-05
2.79189e-05
1.664018e-05
2.017487e-05
2.945116e-05
2.560506e-05
2.468465e-05
2.697352e-05
-1.203246e-05
-1.049253e-05
-1.421877e-06
2.583507e-06
4.434003e-06
5.342084e-05
6.349525e-06
7.574879e-06
9.733463e-06
2.895974e-05
4.200707e-05
-5.7275e-07
-1.761803e-06
2.721653e-05
2.785756e-05
1.900132e-05
1.373408e-05
1.030035e-05
-3.720892e-06
2.420818e-05
2.115501e-06
6.33116e-06
5.146996e-06
3.96712e-06
-6.764055e-07
-6.209006e-07
-8.129595e-08
-6.450692e-06
1.462791e-06
2.354762e-05
2.283344e-05
6.434071e-06
5.693344e-06
2.898329e-05
3.036192e-05
4.461206e-05
3.323026e-05
8.339535e-06
2.656359e-05
2.486288e-05
5.294364e-05
1.564243e-05
1.850054e-05
2.901179e-05
2.933108e-05
6.523405e-06
6.424437e-06
6.294959e-06
8.306479e-06
3.279135e-05
3.367932e-05
-1.118175e-05
-1.417606e-05
-1.097521e-05
2.202391e-05
4.157688e-06
4.007041e-06
9.900734e-06
7.816744e-06
1.096095e-05
1.122916e-05
2.642843e-05
3.564556e-05
2.608669e-05
-3.715308e-06
-1.7618e-06
4.035424e-06
3.626706e-05
3.473655e-05
3.474776e-05
2.902431e-06
1.398593e-06
-2.869933e-07
-7.758591e-06
-1.53576e-06
-5.251632e-06
4.928512e-05
6.754851e-05
5.141224e-06
-3.443874e-06
-2.3501e-06
-9.104032e-06
-1.078004e-05
-2.920695e-06
1.164363e-05
9.474331e-06
5.365613e-06
-9.077469e-06
5.338973e-06
-5.724266e-06
3.111544e-05
3.080946e-05
1.196824e-05
2.393293e-05
6.676777e-05
3.738668e-05
4.238313e-05
4.319534e-05
3.669852e-05
2.187918e-05
1.852255e-06
2.934433e-06
2.777204e-05
8.57363e-06
1.538096e-05
2.985283e-05
4.469256e-05
1.473051e-05
1.605632e-05
3.514057e-05
2.334512e-05
2.283006e-05
-9.393797e-06
-1.062098e-05
-1.02863e-05
-1.155067e-05
-3.205108e-06
1.098417e-05
9.778468e-06
3.143814e-05
2.669005e-06
3.475298e-05
3.345877e-05
3.341753e-05
3.252784e-05
3.277946e-05
3.316457e-05
2.56452e-05
1.797638e-05
-5.187188e-06
8.187809e-06
9.816566e-06
2.364502e-05
3.394162e-05
2.210172e-05
-7.017456e-06
-4.870265e-06
6.281711e-06
6.449584e-06
2.582985e-05
2.569427e-05
2.460241e-05
1.457195e-05
1.394317e-05
1.419687e-05
1.493229e-05
2.153064e-05
1.348016e-05
1.188607e-05
1.403541e-05
2.691004e-05
1.057769e-05
4.489192e-05
1.789553e-05
1.598959e-05
2.360442e-05
-9.943856e-06
-8.212994e-07
1.892914e-05
3.255934e-05
2.157855e-05
-2.846348e-06
4.024027e-05
3.865692e-05
1.757016e-06
5.721159e-05
1.502578e-05
3.12319e-05
-3.752101e-06
4.2554e-05
4.569363e-05
1.827374e-06
3.248273e-05
2.733439e-05
1.023037e-05
3.128267e-07
-2.167042e-06
-3.585743e-06
4.814161e-06
7.865025e-06
7.231165e-06
2.063616e-05
5.158039e-05
1.987658e-05
5.624425e-06
4.853202e-06
-5.238076e-06
2.789631e-06
7.319078e-06
2.320283e-05
1.923169e-05
1.873492e-05
2.24256e-05
3.014782e-05
3.032806e-05
2.426757e-05
3.309915e-05
2.120076e-05
1.416274e-05
4.572375e-05
4.608194e-05
2.715027e-06
-1.170044e-05
1.746125e-05
2.652967e-05
2.652949e-05
6.028284e-05
3.349039e-05
3.464607e-05
2.957302e-05
2.41393e-05
3.510471e-05
-4.973286e-06
2.692691e-05
-2.780002e-06
3.446431e-06
4.174127e-06
2.249253e-05
8.529185e-06
3.655183e-05
3.13568e-05
3.374531e-05
6.676085e-06
5.339361e-06
5.44497e-06
2.958764e-06
4.132356e-06
6.414673e-06
-7.339966e-06
-1.446683e-05
4.707027e-07
2.76516e-05
2.681974e-06
2.6705e-05
3.189349e-05
8.130294e-07
2.904319e-05
2.982823e-05
2.979946e-05
-1.664951e-05
2.346088e-05
-8.363312e-06
2.277537e-05
1.29348e-05
3.108474e-05
2.494217e-05
2.571163e-05
2.535955e-05
3.290263e-05
3.253897e-05
-1.662557e-05
2.734818e-05
2.500392e-05
1.942235e-05
2.411525e-05
3.526863e-05
1.916897e-05
2.428601e-05
1.288407e-05
-1.961786e-05
-2.079261e-05
-1.688254e-05
-1.971014e-05
-1.455729e-05
-1.604337e-05
2.548546e-05
4.063174e-06
6.821074e-06
2.98822e-05
9.75104e-06
-3.42013e-06
1.073138e-05
-6.637229e-06
-1.19618e-06
-3.027231e-07
3.438707e-05
3.74619e-06
5.099784e-06
3.046982e-05
1.000171e-05
2.113118e-05
3.089601e-05
7.167484e-07
3.043837e-05
-1.017752e-05
-8.940568e-06
1.62248e-05
4.731086e-07
2.35611e-05
2.040546e-05
-1.165213e-06
2.660714e-05
-1.116862e-05
-8.63629e-06
3.824853e-05
-2.149002e-07
-1.479147e-06
1.943597e-05
1.29207e-05
2.257785e-05
2.166031e-05
4.463877e-06
-5.790975e-06
-5.51028e-06
1.031499e-05
2.815124e-05
5.882778e-05
-6.779066e-06
4.339787e-05
-1.374441e-05
-1.496565e-05
-7.25313e-06
-7.58791e-06
1.733639e-05
1.851132e-05
2.227668e-05
7.736713e-06
1.081794e-05
2.970072e-05
2.814809e-05
2.445632e-05
1.973103e-05
3.622949e-05
-2.192779e-05
2.816967e-05
1.381646e-05
2.486593e-05
1.854454e-05
3.993979e-05
3.991449e-05
2.487737e-05
-4.61154e-06
-4.108802e-06
1.373802e-05
1.530977e-05
2.340521e-05
2.272122e-05
2.243082e-05
-4.055675e-06
-5.013496e-06
3.589411e-05
3.500658e-05
2.832107e-05
3.939272e-05
3.545766e-05
9.046354e-06
1.151e-05
1.657322e-05
5.794357e-05
5.743313e-05
5.629447e-05
3.879279e-05
3.99491e-05
3.659526e-06
3.836332e-05
3.931556e-05
-4.78075e-06
2.038084e-05
1.907031e-05
2.060194e-05
-7.561277e-06
4.363599e-06
3.966207e-05
3.05985e-06
1.628791e-06
3.859323e-06
3.546795e-06
2.616512e-06
1.16405e-06
3.232096e-07
3.727574e-06
3.199668e-05
1.521661e-05
1.579883e-05
3.090094e-05
-6.421973e-06
-5.09138e-06
1.879491e-05
-4.205348e-06
-3.500068e-06
4.235151e-06
3.570432e-05
2.367069e-05
2.351557e-05
3.995245e-05
-2.206343e-06
2.427169e-05
2.431554e-05
3.585951e-05
4.653723e-05
8.596135e-08
-1.85799e-05
3.820069e-05
3.992948e-05
9.046766e-06
4.024116e-05
3.793966e-05
4.634105e-05
3.717387e-05
3.868046e-05
3.425997e-05
3.948672e-05
3.534323e-05
2.302785e-05
2.353668e-05
-1.402673e-05
-1.500528e-05
2.715111e-05
2.859954e-05
6.173694e-06
-3.926065e-07
-1.68818e-06
-1.680985e-06
3.831094e-05
-3.666341e-06
-1.618252e-06
3.46247e-05
2.228495e-05
1.997664e-05
1.94503e-06
1.304192e-05
4.160363e-05
2.833874e-05
2.785325e-05
-1.839968e-06
1.796819e-05
1.798768e-05
2.228567e-05
2.436151e-05
2.144787e-05
2.198683e-05
2.219014e-05
2.124112e-05
2.193686e-05
-3.627418e-06
-6.542034e-06
-3.241978e-07
1.361019e-05
-5.651112e-06
1.747987e-05
1.53303e-05
1.657612e-05
1.647853e-05
1.282562e-05
-2.756718e-06
-1.67808e-06
3.698186e-05
2.52104e-05
2.554896e-05
3.163503e-05
3.127537e-05
3.260746e-05
-8.640739e-06
-8.760191e-06
6.519998e-06
3.42122e-05
3.430332e-05
1.651145e-05
3.685744e-05
-2.987577e-06
3.807194e-05
3.593948e-05
3.654364e-05
2.239424e-06
2.427498e-05
1.803631e-05
-6.101525e-06
5.470889e-06
3.62827e-05
3.746786e-05
3.157775e-05
3.123142e-05
2.427695e-05
3.987421e-07
-2.834105e-06
-3.285116e-06
1.788876e-05
-7.304133e-06
2.011938e-05
1.970502e-05
-1.431086e-05
4.528229e-05
4.547218e-05
1.491207e-05
1.570137e-05
2.584354e-05
2.578412e-05
-4.92018e-06
-7.02285e-06
2.484988e-05
2.417699e-05
-2.740652e-06
2.15584e-05
2.09078e-05
4.314702e-05
2.470217e-05
2.287196e-05
3.221037e-05
6.70692e-06
2.584531e-05
1.931775e-05
1.031624e-05
-4.080631e-06
-5.35229e-06
2.017972e-05
2.749627e-05
-1.335826e-06
8.350625e-06
-3.469358e-08
3.207624e-05
3.138643e-05
5.053758e-06
2.612296e-05
2.422924e-05
1.987657e-05
2.015968e-05
2.245069e-05
2.218794e-05
3.97602e-05
3.035367e-05
5.31213e-05
2.011699e-05
1.908145e-05
1.849235e-05
4.724316e-06
2.437025e-06
4.922898e-05
4.945213e-05
-7.384754e-07
4.049104e-05
-1.347795e-06
5.258835e-07
2.519499e-05
-1.89278e-07
1.977231e-05
1.942886e-05
2.79668e-05
5.772105e-05
3.764079e-05
1.924667e-05
1.974796e-05
3.803388e-05
-5.448524e-06
2.350564e-05
2.445797e-05
4.089393e-06
4.390462e-06
1.376849e-10
9.636917e-07
3.312357e-05
3.278193e-05
4.432179e-05
-7.705558e-07
3.654612e-05
3.709179e-05
2.892851e-06
4.203266e-06
3.260576e-05
2.543147e-05
2.499293e-05
-1.32174e-06
1.130524e-06
2.496966e-05
3.198536e-05
2.842787e-05
6.223696e-06
-5.635857e-06
3.86223e-07
2.408218e-07
2.54351e-05
2.335828e-05
2.26234e-05
-1.296696e-05
-1.050919e-05
2.207677e-06
1.823984e-06
1.802671e-05
-1.71372e-05
1.411491e-05
-9.442877e-07
5.319545e-05
1.629196e-05
1.68205e-05
3.60647e-06
3.562355e-05
-8.577586e-06
-1.046313e-05
-8.326592e-06
-8.839979e-06
4.1641e-05
4.954792e-05
5.139205e-05
3.407139e-05
3.476161e-05
6.561061e-06
-7.022812e-06
1.121644e-05
2.089443e-05
2.150372e-05
-3.608116e-06
2.857221e-07
2.637413e-09
3.702707e-05
-9.189727e-06
1.727877e-05
-4.93932e-07
2.822922e-05
2.409953e-05
2.427925e-05
1.963646e-05
1.890049e-05
2.203153e-05
-7.379797e-06
-3.478244e-06
2.127036e-05
2.24557e-05
2.391234e-05
2.269433e-05
1.127639e-05
-1.566615e-06
-1.290528e-06
1.995336e-05
3.785087e-05
3.817975e-05
3.325256e-06
4.132049e-05
4.431726e-05
3.36763e-05
3.370359e-05
3.005953e-05
3.805947e-06
2.391321e-05
3.656334e-05
3.758554e-05
-1.406955e-06
3.923148e-05
4.101689e-05
4.337899e-05
-4.304499e-06
-3.716846e-06
-1.034568e-05
2.24031e-05
3.618758e-05
4.829279e-05
5.095062e-05
4.886143e-05
4.862421e-05
1.43134e-06
4.330128e-07
7.344173e-06
6.646188e-06
4.049453e-06
2.604967e-05
2.952206e-05
2.893869e-05
7.666479e-06
7.448647e-06
1.616098e-05
3.082609e-05
3.082282e-05
9.109346e-06
8.781352e-06
3.234473e-05
3.140995e-05
2.688857e-05
-1.356232e-05
-2.218145e-05
5.244212e-05
-1.008892e-05
-8.586806e-06
2.860324e-05
4.010038e-05
7.786862e-06
3.930391e-06
-2.092808e-05
7.427421e-06
1.31241e-06
-4.324557e-06
2.444535e-05
3.491844e-06
1.020976e-05
-9.688034e-06
4.089104e-06
2.690058e-06
-8.759634e-07
4.075706e-06
5.64041e-06
-5.924717e-06
9.132904e-06
6.657713e-05
6.478671e-05
1.727045e-05
2.138575e-05
2.744739e-05
2.637832e-05
-5.145305e-06
1.563392e-05
2.199922e-05
2.412276e-05
-8.829456e-07
-4.116865e-07
-1.017459e-06
2.722532e-05
7.354879e-06
3.792552e-06
2.594586e-05
1.791775e-05
1.695853e-05
3.81274e-05
2.447809e-05
2.416613e-05
-7.938014e-06
-8.51045e-06
1.593349e-05
6.638962e-06
7.202341e-06
1.779789e-05
3.237285e-05
3.1736e-05
-1.000197e-05
-6.284196e-06
-6.837577e-06
2.688619e-05
-1.512896e-06
-9.02572e-06
3.735759e-05
-1.026158e-05
-8.331526e-06
1.095451e-06
-1.428687e-07
1.766399e-05
1.773444e-05
-1.094651e-06
9.428389e-06
2.105596e-05
2.496751e-05
2.925834e-05
3.005909e-05
4.983362e-05
5.59703e-05
5.408369e-05
4.734213e-05
5.411426e-05
5.197968e-05
2.048056e-05
2.087379e-05