/*--------------------------------*- C++ -*----------------------------------*\
| =========                 |                                                 |
| \\      /  F ield         | OpenFOAM: The Open Source CFD Toolbox           |
|  \\    /   O peration     | Version:  2406                                  |
|   \\  /    A nd           | Website:  www.openfoam.com                      |
|    \\/     M anipulation  |                                                 |
\*---------------------------------------------------------------------------*/
FoamFile
{
    version     2.0;
    format      ascii;
    arch        "LSB;label=32;scalar=64";
    class       volScalarField;
    location    "0.04";
    object      p;
}
// * * * * * * * * * * * * * * * * * * * * * * * * * * * * * * * * * * * * * //

dimensions      [0 2 -2 0 0 0 0];

internalField   nonuniform List<scalar> 
4562
(
1.455658e-07
2.465179e-08
1.044047e-07
7.56579e-09
4.389511e-06
5.026391e-08
-1.579838e-06
-5.918914e-07
-4.445975e-07
9.536574e-09
-1.305053e-06
3.557214e-07
-4.93774e-07
-2.6381e-08
5.216957e-06
2.498508e-07
-1.042798e-06
6.944256e-07
-2.026607e-06
1.649213e-07
-2.856441e-06
-2.335451e-07
-1.363591e-06
7.274815e-08
8.776683e-08
-3.881712e-07
-6.090592e-07
-3.397654e-07
-2.99129e-06
1.054964e-06
-1.732753e-08
9.918407e-08
-2.721054e-09
-1.281979e-06
9.402876e-07
7.224669e-07
-2.858144e-06
-2.642976e-07
1.179949e-07
4.029492e-07
-9.176588e-07
1.444394e-08
-1.037084e-06
-2.351043e-08
4.789279e-08
-8.907475e-07
8.449498e-08
2.763448e-08
-6.345388e-08
3.660572e-07
-6.998948e-08
-8.868664e-08
1.060768e-06
-1.51274e-06
2.300156e-07
3.361372e-06
-1.455972e-06
-2.074428e-06
-1.298587e-06
4.06597e-06
3.505368e-08
-2.169954e-06
-8.662414e-07
3.521515e-07
-7.759025e-07
8.715759e-07
-2.876879e-07
-3.189453e-07
3.138879e-07
-1.182323e-07
-1.933424e-06
-2.324989e-07
1.405481e-06
-4.34915e-07
-9.624164e-07
2.213844e-06
1.243898e-07
-3.84718e-07
-1.165525e-08
5.728035e-06
6.996613e-06
1.711651e-06
-8.48934e-07
-8.207908e-08
-1.270019e-06
-9.034998e-08
1.123565e-07
-2.122757e-07
-5.129548e-07
-2.240383e-07
-2.377014e-07
3.99408e-08
-4.21472e-07
2.870965e-08
-1.383126e-07
-1.147969e-06
6.419661e-08
-3.116501e-07
-2.629739e-06
-1.455398e-06
-4.584994e-08
-2.208501e-06
-4.755518e-08
-2.754716e-06
-1.308436e-08
-8.806881e-07
-5.322218e-07
1.287467e-08
-1.685993e-08
3.474812e-07
-5.74538e-07
4.133237e-07
3.402293e-08
-1.861906e-06
8.221944e-07
2.981289e-08
4.748185e-06
-5.138273e-07
-2.522803e-06
-3.075349e-07
1.104327e-06
-6.474684e-07
-9.091425e-08
-1.676974e-08
-9.759543e-07
-1.57327e-08
-1.973954e-07
-1.909594e-09
-2.026258e-08
2.077558e-07
4.653504e-07
-8.868819e-08
-7.585791e-07
3.120641e-08
5.604859e-08
2.451861e-06
-1.807538e-06
-1.386966e-07
1.665473e-06
3.741935e-08
-3.664453e-07
1.901032e-06
1.582479e-07
2.112552e-06
-4.405233e-07
3.194779e-09
-1.238245e-06
-1.359601e-07
4.237085e-07
1.369729e-06
-2.660893e-09
-1.840006e-06
-7.290822e-08
4.613034e-07
2.386989e-08
1.042808e-06
-1.632616e-07
1.05643e-06
7.490614e-08
-5.521718e-08
-4.763473e-07
2.381585e-06
1.031975e-06
-1.830565e-08
-1.808413e-07
3.712144e-06
1.661278e-07
9.868948e-08
-1.531478e-06
1.111862e-06
-2.517475e-06
2.952057e-07
3.119923e-07
1.029703e-07
-7.56339e-07
9.435945e-08
-3.824355e-08
-1.044346e-07
-6.34837e-07
-3.157247e-07
3.568749e-08
-1.05968e-06
-1.272068e-06
5.727183e-06
-2.674834e-08
-7.379823e-09
-1.019998e-06
2.006762e-07
-2.293658e-07
2.734915e-07
-1.51236e-06
-2.48901e-07
9.475809e-07
7.004668e-08
-2.622071e-07
-3.237426e-07
-1.491955e-06
-1.373606e-06
1.061543e-06
-9.460565e-09
-1.185011e-07
-7.827946e-07
1.656385e-07
1.934704e-07
-1.837731e-06
8.822535e-08
2.349138e-06
2.082328e-06
7.781152e-07
-5.034166e-07
7.68249e-08
-1.392147e-06
-7.770038e-08
1.225838e-07
1.035853e-06
1.997749e-06
-9.873081e-09
1.586375e-08
8.695446e-08
1.31413e-06
2.572351e-08
-1.893687e-07
9.467125e-07
1.979494e-07
-1.322157e-06
-1.063954e-06
-1.079123e-06
-1.068693e-06
7.413301e-08
-7.505873e-07
2.19866e-08
-1.056052e-06
6.121087e-07
-8.566857e-07
-2.729647e-07
-1.815401e-06
-1.52397e-06
8.008894e-07
7.052682e-07
-5.646046e-07
-6.688367e-07
-3.653353e-07
-9.380353e-08
-1.320835e-07
2.069806e-07
3.523739e-06
-3.433012e-07
-1.682388e-06
1.098443e-07
-6.262363e-08
6.560918e-09
-1.27532e-07
-4.159927e-08
-8.668394e-08
1.887419e-07
2.258837e-07
2.900089e-08
-9.243345e-07
-6.927853e-07
-2.102246e-06
-7.377279e-07
-3.456003e-07
5.408031e-07
8.362184e-08
1.747302e-06
4.583363e-08
3.830116e-08
3.583205e-07
1.455098e-07
6.20541e-08
-1.09986e-08
-1.98389e-07
-5.736556e-07
1.589691e-06
2.888743e-06
-1.053384e-09
8.160467e-08
1.059984e-08
2.275348e-07
3.537238e-06
-3.237341e-07
8.182178e-08
-5.791553e-07
-3.342759e-07
-1.046158e-06
2.461148e-07
1.655099e-07
-3.028829e-08
1.374751e-09
-1.999705e-06
-2.526542e-07
-5.898317e-08
-1.177559e-06
1.94131e-08
-7.229675e-08
-1.336324e-06
-9.858011e-07
-7.464421e-09
-2.475079e-06
2.277267e-06
3.655266e-07
-3.259017e-07
1.706582e-07
1.059936e-06
1.536399e-06
-2.099477e-06
-2.666539e-06
1.476338e-07
-6.507595e-07
-8.096076e-07
-4.300745e-07
9.699854e-07
1.241459e-06
-2.382643e-06
-4.526298e-07
3.147933e-07
-4.362145e-08
1.058498e-07
7.922044e-07
-6.375261e-08
-1.060428e-07
5.354715e-06
2.224641e-08
-6.14377e-08
-2.277696e-06
-4.871129e-07
-1.374643e-06
-7.718276e-07
-1.7701e-07
-1.448494e-06
1.830618e-07
5.76552e-07
1.196039e-07
2.465618e-07
-2.244467e-06
-2.179324e-06
5.207828e-08
-5.113415e-07
9.542541e-07
-4.51439e-08
3.758431e-07
9.804573e-07
-1.557503e-07
-2.49334e-07
-6.278345e-08
2.887448e-08
2.18581e-08
-6.102129e-07
-1.944164e-06
-3.597147e-07
6.837829e-07
-2.416215e-07
9.617631e-08
-2.084866e-07
3.173808e-08
-4.171856e-07
-1.675887e-07
-1.526018e-07
-8.4718e-07
-1.675924e-07
-1.595071e-07
2.958872e-09
6.579151e-08
4.910493e-07
-2.07864e-07
-7.334705e-07
-5.007036e-07
-7.107948e-07
-5.542094e-07
-2.975174e-07
-9.894648e-07
-1.18409e-06
-1.059665e-06
-1.703724e-06
2.954185e-07
3.993105e-08
-1.305389e-06
-2.637153e-06
-2.151219e-07
-1.0858e-07
2.671717e-08
2.230507e-07
-1.039822e-06
6.632988e-08
5.759489e-07
-1.332941e-06
-1.001502e-06
2.971198e-08
-9.397907e-08
-2.7747e-07
-2.282077e-07
-2.065834e-07
4.189311e-10
4.315146e-07
3.762823e-06
2.50496e-06
-1.598792e-06
-2.368347e-06
-2.467081e-08
-1.797079e-06
-8.091747e-07
-3.415707e-06
-1.221701e-06
2.683992e-07
4.745229e-06
2.452843e-07
-1.989117e-06
-2.271151e-06
-3.079922e-06
-1.262749e-08
-8.101906e-08
4.857434e-08
9.668878e-08
-2.574745e-07
-1.31986e-07
3.24111e-08
-1.389619e-06
-7.254301e-08
8.413032e-08
-1.120502e-07
-2.483275e-07
-3.486799e-07
-1.26815e-06
-8.939921e-07
5.61532e-08
-7.424254e-08
5.036335e-08
-9.348261e-07
-7.756817e-07
-3.656399e-07
-2.763781e-07
-6.337809e-07
-1.356362e-06
-7.832272e-07
-6.952907e-07
5.059261e-07
1.284869e-07
-6.841347e-08
-2.029285e-06
-8.410535e-07
6.904334e-08
9.706894e-08
-2.181824e-06
-5.718887e-07
4.488339e-06
-9.418808e-08
-1.165573e-07
2.596755e-08
-5.063287e-07
-4.635817e-08
-7.146051e-07
9.437554e-08
-2.307275e-07
6.32495e-07
9.780771e-08
-1.864371e-07
1.626945e-06
-1.112066e-06
-3.606886e-06
5.507309e-07
2.66601e-06
2.949895e-08
-3.904936e-07
-2.064924e-06
-2.124119e-06
-4.369554e-08
6.770627e-09
-7.66081e-09
1.884557e-06
-5.912549e-07
-1.464812e-07
-3.168937e-06
-3.424344e-07
-2.409518e-07
3.399918e-06
-5.446862e-07
-3.088414e-07
-4.623327e-07
-7.802593e-07
-5.639406e-07
8.920532e-08
-5.534535e-07
-6.508534e-07
4.690914e-06
2.151553e-07
1.659914e-06
1.546602e-06
-4.239018e-07
-6.06236e-07
1.766774e-07
4.568712e-08
2.644269e-08
9.396572e-08
-8.80717e-07
-1.864075e-06
2.952263e-07
-9.964905e-08
-3.350748e-08
9.559614e-07
9.533129e-07
1.178933e-06
1.050679e-06
6.180137e-07
-2.118889e-07
-9.150772e-07
-4.624523e-07
2.008652e-06
-1.799171e-07
1.208087e-06
1.565241e-06
1.166634e-06
4.039449e-07
4.120579e-07
3.652524e-07
-3.700908e-07
4.745856e-07
3.090026e-06
-3.098661e-07
2.601395e-06
2.898596e-07
1.399914e-07
-1.201509e-06
5.296509e-07
-8.416982e-07
2.630549e-07
-9.355069e-07
3.24662e-07
8.575813e-07
1.455069e-07
-1.239407e-06
-1.937429e-06
-2.369151e-06
-8.329193e-07
-1.160709e-06
1.276388e-08
-5.631521e-07
-5.095402e-07
3.781779e-07
-6.984335e-07
-2.37228e-07
3.424779e-06
-4.595943e-07
-5.386549e-07
2.044175e-08
2.608482e-07
-3.178418e-07
-1.061123e-06
-9.06343e-07
-9.120004e-07
-1.898353e-06
-1.752621e-06
-2.039296e-06
-5.955666e-07
-1.503607e-06
-3.887787e-07
-1.588309e-06
-3.902094e-07
1.120509e-07
1.053681e-06
3.56194e-07
-7.012074e-07
1.501209e-07
-4.427879e-07
2.728894e-08
4.270781e-08
2.505744e-07
-1.132491e-07
-2.332763e-07
-2.374527e-07
4.790384e-07
2.541768e-06
-1.611391e-09
-3.544513e-08
-1.524629e-06
3.800465e-07
1.238011e-07
2.241867e-07
2.149674e-07
-1.888487e-07
-1.635625e-07
-1.851991e-07
-5.488223e-07
4.558341e-09
-3.934007e-07
-5.752939e-07
-2.772013e-08
2.900877e-08
-1.076163e-06
3.793728e-08
-6.966312e-07
-1.557947e-06
6.083112e-06
-1.840736e-06
-1.807019e-06
-1.647357e-06
-1.220395e-06
2.716955e-07
1.140524e-07
-1.248057e-07
8.064315e-09
-1.936188e-06
-2.210772e-06
-2.525326e-07
-1.806974e-07
8.964451e-07
-9.232157e-07
-7.027482e-07
4.251717e-08
6.769811e-08
1.533989e-06
-3.482969e-07
3.916214e-07
3.123013e-06
3.426613e-06
-1.032465e-07
-3.189125e-06
-6.298612e-07
2.399163e-06
-1.589639e-07
2.689456e-07
4.093405e-07
5.681237e-08
6.639317e-08
1.117791e-07
1.280896e-07
5.110924e-07
1.86641e-07
1.041853e-07
6.178575e-07
-1.235159e-06
-1.329864e-06
-2.416888e-06
-5.58234e-09
-8.494963e-07
-2.577039e-07
-1.93388e-06
4.323251e-07
-1.160991e-06
-1.058632e-06
-1.404404e-06
8.916413e-08
1.814007e-07
-1.380712e-06
-1.439063e-06
2.589857e-07
1.877545e-07
-2.315382e-07
-5.226993e-08
-8.8285e-08
-3.976136e-08
-1.160721e-06
-1.284484e-06
-1.22852e-06
-1.233947e-06
-1.650324e-07
3.551467e-07
-5.23689e-07
-1.3522e-08
-6.877014e-08
-1.259335e-08
-1.411771e-06
6.130861e-08
3.356194e-08
7.135715e-08
1.701685e-07
2.060539e-07
2.510279e-07
4.971964e-08
5.488553e-06
-1.511376e-07
-1.594343e-06
7.153829e-08
1.021368e-07
3.036945e-07
-3.506553e-07
-1.761268e-06
3.000024e-08
8.125412e-09
2.811414e-06
2.355972e-06
-1.111833e-07
-1.597617e-07
1.455798e-07
6.039305e-10
8.503185e-08
-2.361833e-08
1.382079e-06
-4.126161e-07
6.201569e-08
-1.211928e-08
-6.689199e-08
-1.037839e-07
8.054657e-08
1.56975e-06
-1.324264e-06
4.10317e-07
5.987694e-07
-5.477396e-07
3.745566e-08
1.731704e-06
-1.855079e-06
3.295082e-07
4.094629e-07
2.877355e-08
1.877914e-08
-4.761287e-07
5.221532e-08
2.727626e-07
3.655359e-08
2.59386e-07
-2.950606e-06
-2.089328e-06
-8.272809e-07
-4.677143e-07
-8.226067e-07
-2.142215e-07
-3.950445e-06
1.187773e-08
4.306718e-07
6.069515e-07
-5.782141e-07
-5.113332e-07
-6.838346e-07
-2.612919e-06
6.42191e-07
1.025895e-07
6.636434e-07
-2.017181e-08
2.02364e-06
4.12734e-06
1.626557e-06
5.615974e-08
-3.746699e-07
1.28945e-08
-1.8451e-06
5.779915e-06
-2.398941e-06
-3.902923e-08
1.478366e-06
2.285653e-06
4.273645e-06
-4.625405e-08
-9.9139e-07
4.303279e-08
-1.111113e-07
2.052811e-06
-1.851978e-06
1.345444e-06
-3.107102e-07
2.213999e-06
1.343498e-07
2.313578e-06
-3.395445e-07
-5.580397e-07
2.188212e-07
2.413205e-07
-4.166518e-07
-7.428245e-07
-3.841e-08
-2.845644e-07
9.351335e-08
-3.560442e-07
-7.801412e-07
-6.660201e-07
-6.510877e-07
1.792752e-07
-1.539051e-06
1.732294e-07
-1.256195e-06
1.315517e-07
2.201167e-06
-9.340919e-07
-1.81379e-07
2.372017e-08
-7.336126e-07
2.222628e-07
6.289616e-07
2.225485e-07
-3.18154e-07
-1.780682e-06
1.985124e-06
1.80327e-06
-1.388444e-06
2.494506e-08
4.076377e-07
1.876208e-07
-8.817526e-08
-2.374075e-07
5.31739e-08
3.426498e-07
2.969691e-08
-1.344279e-06
1.080324e-07
1.217554e-07
-1.22122e-09
1.064681e-07
-1.92254e-07
1.60586e-06
1.770363e-06
2.505843e-07
-1.448818e-07
1.747026e-06
-5.0383e-07
-2.366425e-07
-7.683618e-07
7.241722e-07
9.742779e-07
-1.805255e-06
-9.765262e-08
-1.952364e-06
-1.726022e-06
-1.791179e-07
2.998149e-07
-1.929901e-07
-4.801301e-07
-1.288155e-06
9.179224e-07
2.441063e-07
-2.198144e-07
-8.303039e-07
-1.604864e-07
1.582007e-06
-2.190883e-07
9.568671e-07
-3.827111e-07
-3.95786e-07
-8.132144e-07
-9.912979e-07
-1.767897e-06
-1.014668e-06
3.679425e-08
-6.350217e-08
8.734323e-08
1.223849e-06
3.458668e-06
-5.394734e-07
-7.456326e-07
-2.823264e-07
2.23799e-07
1.136499e-07
-4.482257e-07
-1.428094e-07
-1.797858e-07
-2.093879e-06
-7.321246e-07
-2.86437e-07
-7.192882e-08
1.734871e-07
6.578356e-07
6.029293e-07
-2.214535e-06
-7.944039e-07
4.708432e-07
5.779364e-07
2.891045e-06
-6.235328e-08
-5.947589e-08
4.383731e-06
-1.623417e-08
-3.848115e-08
-1.982682e-06
1.811089e-09
-1.209668e-06
2.002898e-08
7.841827e-07
1.036099e-07
1.110867e-06
-2.082109e-06
1.894143e-10
6.270912e-07
2.14553e-07
3.914028e-07
-8.508861e-07
-1.098457e-06
3.578152e-07
-1.434175e-06
-2.437964e-07
3.738707e-07
-3.27096e-07
2.651752e-07
-1.937723e-07
2.671031e-06
-4.407594e-07
-7.529729e-08
2.084067e-08
-7.840967e-07
-1.730336e-06
-9.902328e-07
-2.158999e-06
6.306305e-08
-1.133314e-07
-4.961057e-07
-6.835562e-07
4.197359e-08
4.015984e-07
-4.826186e-07
-7.418667e-07
-1.146548e-06
3.933326e-08
3.319702e-07
-1.834469e-06
-1.514652e-07
-8.78261e-07
-5.869948e-07
-5.340185e-07
1.092635e-06
1.88408e-07
1.213317e-07
-3.243176e-08
-1.710563e-06
-2.563353e-07
-3.228291e-07
-3.04671e-07
-3.623003e-07
-3.647533e-07
-3.625499e-07
-3.555885e-07
-3.736143e-07
-1.050858e-06
-2.783507e-07
1.892278e-08
-4.309164e-07
-3.772098e-07
-5.120047e-07
-4.162983e-07
1.61951e-06
9.875991e-07
2.674076e-07
-6.062479e-07
-1.363945e-07
1.140355e-07
1.114784e-07
-3.004268e-07
-9.339699e-07
-8.846636e-07
3.088857e-06
6.867839e-08
2.78078e-08
4.219694e-07
-1.813597e-06
-1.908738e-06
-1.70165e-06
-2.31855e-06
1.484809e-06
3.906661e-07
3.880227e-07
2.948181e-08
2.774852e-08
2.105005e-07
-1.638416e-06
-1.359524e-07
-2.110978e-06
-5.908765e-07
-2.52787e-06
-3.740448e-07
-4.819349e-08
7.90261e-07
3.039485e-06
-8.615963e-07
-2.484794e-06
-3.695437e-08
3.886506e-09
-4.563676e-08
-2.076423e-06
3.424183e-06
9.899062e-07
5.547645e-08
8.426079e-07
-3.693962e-06
-2.420468e-06
3.01819e-06
-6.679684e-07
1.195468e-08
2.965629e-06
-2.075173e-08
1.621682e-06
-1.548505e-06
-1.745394e-06
-1.142343e-06
8.139808e-08
-2.00388e-07
-3.882502e-07
-4.376347e-07
-3.229043e-07
-2.488585e-07
-3.173009e-07
5.142929e-08
-1.862256e-06
-2.10304e-06
-3.156434e-06
6.986189e-07
4.049343e-08
7.101807e-08
1.700051e-07
-2.643203e-07
-1.363438e-06
4.107069e-07
-1.631517e-07
-1.701799e-06
-1.643969e-06
-1.557358e-06
-8.355843e-08
-1.010155e-07
-3.26031e-07
-1.645002e-06
1.695721e-06
-4.021973e-07
4.274868e-07
-6.499653e-07
-4.847909e-07
-7.584861e-07
1.909342e-08
1.959664e-06
1.047254e-07
2.003862e-07
-1.674334e-06
7.118551e-08
1.505076e-07
6.897941e-07
4.048186e-07
5.937769e-07
3.016099e-07
-4.187144e-07
-6.341224e-07
-8.747899e-07
-3.564611e-07
-1.135096e-06
1.559451e-07
3.072397e-07
1.71895e-07
6.109598e-07
5.796692e-08
-1.365613e-07
2.002604e-08
-1.766957e-06
-1.870853e-06
-4.063962e-07
2.443918e-08
2.087912e-08
-3.290391e-06
-3.418708e-06
-1.973529e-06
-2.270798e-06
-2.472911e-07
-1.939917e-07
-1.572122e-07
-2.507954e-07
-1.616841e-07
-8.893291e-08
-1.239431e-07
-6.766056e-08
-3.793014e-07
-3.106974e-06
1.11599e-06
1.561003e-07
1.346492e-07
1.680415e-07
-1.003864e-07
-1.65239e-07
1.525593e-06
-1.531731e-07
6.024114e-07
-5.446983e-07
2.498188e-08
1.146927e-07
3.137706e-08
-1.712056e-06
-1.059273e-07
5.205818e-06
2.031323e-07
1.360133e-07
1.948947e-07
-2.240895e-06
-2.468654e-06
-2.165303e-06
-2.151364e-06
-1.264458e-06
-2.300888e-08
1.51261e-06
-2.991433e-06
-2.593145e-06
-2.622144e-06
2.870957e-08
2.473802e-08
-6.30834e-09
-1.398274e-07
-9.293292e-08
-8.219787e-07
3.538922e-08
-1.891131e-06
-1.923588e-06
-8.984675e-07
-1.139794e-06
6.954901e-09
4.245031e-08
-2.245722e-07
-1.466443e-06
8.001101e-07
-4.618447e-07
4.815874e-07
2.378777e-07
-1.86215e-08
1.01155e-08
3.797671e-06
3.455579e-08
6.483732e-08
6.480905e-07
6.690628e-07
-3.498126e-06
1.133591e-07
-5.601042e-09
7.264345e-07
9.159495e-07
9.557621e-07
-4.895516e-07
2.826255e-08
1.074075e-06
-2.903654e-07
-1.393875e-07
-6.097133e-07
2.807732e-07
-3.533894e-06
-4.036076e-06
-4.656079e-08
-5.406453e-09
-1.014986e-09
-4.082455e-07
1.646694e-07
1.279934e-07
3.216839e-08
-1.180151e-06
7.750534e-08
2.416848e-07
1.452534e-07
8.545419e-08
-2.577927e-07
-2.015755e-07
-2.161919e-08
-8.356707e-08
-5.833872e-08
3.763319e-08
2.853377e-08
2.902913e-08
-3.094308e-07
3.516792e-07
4.069787e-07
1.73954e-08
5.148985e-06
2.447163e-08
-1.184138e-06
-1.627808e-06
-8.157742e-07
5.666282e-08
2.777215e-07
5.034783e-06
5.015207e-06
-1.336567e-06
1.710986e-06
5.335641e-07
2.124774e-07
8.214025e-07
-7.782231e-08
3.553842e-08
7.10343e-07
6.274704e-08
-1.175728e-07
-1.178219e-07
-4.80579e-08
3.123855e-07
-1.407178e-06
2.897503e-08
-1.263081e-06
2.273094e-06
1.242781e-07
-5.351607e-07
1.243773e-07
-4.893623e-07
-5.04829e-07
-3.653429e-07
-3.636418e-07
-3.469255e-07
-3.555162e-08
-3.669713e-07
-4.696673e-07
-4.527906e-07
7.700781e-08
4.238628e-08
2.108665e-07
9.649945e-08
4.369403e-08
-1.330997e-06
-1.230633e-06
-9.143841e-07
4.08034e-07
3.145202e-07
-3.320742e-07
1.632817e-07
-1.467541e-06
-1.462658e-06
-1.436377e-06
-1.961547e-06
1.504192e-07
1.87829e-07
-6.135717e-08
-1.590836e-06
9.405813e-07
1.297471e-06
3.15992e-08
-3.59453e-07
9.959785e-07
1.21129e-06
1.407351e-06
-4.545391e-07
-3.484123e-07
3.247272e-07
-1.093078e-06
1.333116e-06
9.714418e-07
1.357555e-06
1.217826e-06
1.157814e-07
6.778886e-07
-5.137567e-07
-5.399271e-07
-4.744004e-07
-1.114797e-06
8.390538e-08
-9.001147e-07
5.463441e-07
-6.811577e-07
1.89278e-06
3.251499e-07
-1.741128e-06
-2.306197e-06
7.898228e-07
-1.550461e-07
-2.257373e-07
-4.533178e-08
4.396312e-08
-2.20017e-08
-2.145113e-08
-1.328011e-08
-1.534261e-07
-7.932275e-08
-6.882499e-08
-6.054381e-07
-5.652928e-07
-6.354519e-07
5.168052e-07
7.943913e-07
1.197822e-06
-1.481918e-06
-1.731664e-06
3.716903e-06
3.757715e-06
3.787549e-06
3.383673e-06
2.913754e-06
1.156732e-07
1.140769e-07
2.036673e-06
2.116846e-08
3.631995e-06
-2.663658e-07
-3.265588e-07
-3.347278e-07
-3.637342e-07
5.120861e-06
4.496772e-08
-7.269886e-08
-1.076402e-07
3.204201e-07
4.887642e-07
-5.296541e-07
-4.498278e-07
6.262208e-07
-2.8139e-07
-4.126631e-07
6.198147e-08
4.697241e-08
-4.936893e-09
-1.343249e-07
2.544797e-06
-2.258362e-06
-1.834547e-06
5.743891e-07
1.613358e-07
2.921375e-07
1.371272e-06
1.039214e-06
2.207705e-06
-1.195503e-06
-1.49171e-06
7.353923e-07
9.606163e-08
-1.068923e-07
-2.672188e-07
-3.297392e-07
7.326547e-06
-1.491259e-06
-1.401301e-06
-9.289756e-09
2.263036e-06
2.382736e-06
-2.639966e-06
6.905148e-08
5.204781e-07
-4.049634e-08
-1.258497e-06
-6.492379e-08
1.231659e-07
-1.066974e-06
-1.162014e-06
4.291925e-06
-3.350082e-06
-2.540042e-08
-1.215628e-07
-1.475027e-07
-2.508243e-07
-2.864023e-07
-3.452405e-07
-1.880192e-07
-1.15597e-07
-1.833715e-07
-1.966633e-07
-1.248198e-07
-8.993174e-07
-1.236562e-06
-9.963502e-07
-3.889755e-07
2.799124e-08
3.94813e-08
-7.991978e-09
-2.357526e-09
-2.551883e-08
-4.21472e-08
6.464251e-08
-5.386675e-09
-7.389852e-09
1.027454e-06
1.400097e-06
4.342852e-10
2.862356e-09
4.296534e-07
4.955568e-07
4.115405e-07
1.023022e-06
9.901346e-08
-4.16139e-07
7.296362e-08
-1.972323e-06
6.200997e-07
-3.738756e-07
-1.4943e-06
1.080437e-06
1.082389e-07
1.314996e-07
-7.808433e-07
-9.164019e-07
-8.260717e-07
-6.67299e-07
-1.083959e-06
-8.385373e-07
-7.470647e-07
-6.600399e-07
-6.356948e-07
-1.10368e-06
-7.07924e-07
-7.208894e-07
-1.016657e-06
-1.11446e-06
-1.042198e-06
-9.509536e-07
-2.049413e-06
-1.941535e-06
1.357352e-06
2.443497e-07
-4.092686e-08
2.689359e-08
2.72724e-08
3.369014e-07
-1.272362e-06
-8.900369e-07
-8.370578e-07
-8.300923e-07
1.415898e-07
1.460737e-07
1.231406e-07
7.54155e-07
-2.405773e-07
-7.825643e-07
-2.916278e-07
-1.110065e-07
2.768116e-06
-2.832849e-08
2.721765e-07
2.291371e-07
8.999019e-07
9.965478e-07
2.008684e-06
7.151034e-07
3.157455e-08
4.335678e-08
5.731914e-08
-9.973194e-08
3.983977e-07
-2.759109e-07
-2.197628e-07
2.742369e-07
3.556815e-07
-1.41776e-07
-3.57558e-07
-2.118211e-07
-2.517334e-07
-6.022315e-07
-3.977903e-07
-4.183002e-07
9.660892e-07
1.613826e-07
2.756817e-07
2.679862e-07
1.243889e-06
1.100628e-06
-4.663084e-07
6.052417e-08
-2.418487e-07
-1.070856e-07
-6.047742e-08
-5.331647e-08
-4.669553e-07
4.123448e-07
-1.178412e-06
8.859367e-08
9.535386e-08
-1.013451e-06
-9.059414e-08
2.231891e-07
-2.251617e-06
-2.108863e-06
3.167676e-06
-1.147342e-08
9.040084e-07
1.099619e-06
-2.122357e-07
-1.026106e-07
-2.469661e-07
-1.913516e-07
-2.324278e-07
1.430054e-08
-1.691475e-07
-5.857143e-07
-1.323309e-06
-4.544896e-07
1.378901e-06
9.298235e-07
-1.037676e-06
-1.057693e-06
-1.177388e-06
-1.173763e-06
-1.875208e-06
-1.789164e-06
-1.481643e-06
-2.203376e-07
-3.678167e-07
-4.067708e-07
-4.622335e-07
-4.788765e-07
-5.475643e-07
-4.855542e-07
-4.361227e-07
6.603553e-07
-1.195154e-06
-2.083738e-07
-2.886578e-07
-4.042419e-06
1.555153e-08
5.95921e-08
-1.385179e-07
1.133102e-06
-3.845389e-09
4.474156e-09
-1.068542e-06
-1.072069e-06
-9.524233e-07
4.883129e-08
1.79179e-08
-8.09947e-08
7.492735e-08
5.436251e-07
1.778244e-08
9.044763e-08
7.769488e-08
3.065994e-06
4.75771e-07
3.612193e-07
-2.861269e-07
-2.585162e-07
-5.351053e-08
1.637543e-07
2.714555e-07
-4.812753e-07
-5.225652e-07
-9.401402e-08
-8.185086e-08
-2.847477e-06
-7.24357e-07
-7.329216e-07
8.194145e-07
9.097831e-07
1.143317e-06
1.957411e-07
-2.200095e-06
1.805261e-06
7.241259e-08
-8.849082e-07
-8.712482e-07
-7.982388e-07
-6.74388e-07
-6.823551e-07
-1.362547e-09
-2.041332e-06
-1.594052e-07
4.241042e-07
2.094576e-06
1.956204e-06
-1.880423e-06
-2.224541e-06
-8.028784e-08
3.299952e-08
-8.451733e-08
-1.190467e-07
-8.996131e-08
2.934601e-07
-5.913355e-07
-1.511684e-06
1.491356e-07
1.476024e-07
2.981897e-08
3.079171e-07
4.610472e-08
1.186464e-07
-9.947725e-08
9.234842e-07
8.138468e-07
-4.654137e-07
6.88082e-08
-3.305764e-07
-2.995379e-07
-3.273113e-07
-1.482476e-06
3.525176e-07
9.310591e-08
-1.353464e-07
-1.322262e-07
-4.874164e-09
2.466707e-07
3.290197e-07
-1.075953e-06
-2.373799e-06
-4.974521e-08
-1.651445e-06
3.830996e-08
2.984319e-08
1.191335e-07
-1.383978e-06
3.888519e-08
-3.991099e-10
1.36268e-08
-5.0863e-07
-1.634385e-07
8.535868e-08
-1.602538e-07
-1.826858e-07
-1.522553e-06
-1.461692e-07
1.731204e-08
3.737377e-08
-3.314255e-06
-5.945301e-07
-6.162465e-07
-5.902816e-07
-7.213916e-07
-3.046085e-07
-2.734425e-07
-3.008863e-06
-1.533287e-06
-5.446961e-07
-3.227174e-07
-1.708021e-08
2.800128e-08
-2.175764e-06
2.713717e-08
2.065444e-07
-3.895964e-07
-2.432769e-07
1.565555e-07
2.777253e-07
1.72458e-07
1.831983e-07
1.409653e-06
-2.29728e-07
3.409572e-08
2.912289e-08
2.942632e-08
-1.017488e-06
-2.089192e-07
-1.395161e-07
-1.057598e-06
-1.283214e-06
-1.637328e-06
-2.113143e-06
-1.195416e-06
5.913163e-08
4.371905e-08
1.838783e-07
2.770047e-08
-2.538382e-07
1.247311e-06
-7.255449e-07
-2.459712e-09
-6.045616e-09
-1.841445e-06
-2.146338e-06
-6.38402e-07
-6.337997e-07
-1.168349e-06
-9.524751e-07
-8.875595e-07
-9.093659e-07
-8.531193e-07
-1.054771e-06
-1.130945e-06
-7.956013e-07
-8.59066e-07
-7.923366e-07
-8.32504e-07
-7.454923e-07
-7.868643e-07
-8.218986e-07
-7.588846e-07
-9.002088e-07
-9.605769e-07
-9.956886e-07
-1.057661e-06
-1.238116e-06
-1.195101e-06
-7.021307e-07
-7.528949e-07
-8.654571e-07
-9.074449e-07
-9.703656e-07
-8.112097e-07
-7.50589e-07
-1.128181e-06
-1.118648e-06
-8.598902e-07
-8.061088e-07
-7.081685e-08
-3.35771e-07
1.863889e-07
-3.132456e-08
-7.503648e-08
-8.123995e-07
-1.94195e-08
1.265025e-08
-1.412635e-07
7.006848e-07
3.310033e-07
4.710842e-06
4.013218e-06
-5.08029e-07
-1.500227e-06
-1.48713e-06
-4.316013e-07
7.841689e-07
-1.584271e-06
-2.350912e-06
2.203594e-08
-9.267595e-08
-3.025445e-06
-2.46538e-06
1.259913e-08
-5.193032e-07
-6.294678e-07
1.251358e-07
1.515795e-06
3.596794e-06
6.782576e-08
-7.667006e-07
-8.802955e-07
9.648759e-08
-4.684576e-07
-2.285201e-07
1.406854e-07
1.177795e-07
-5.077398e-07
1.897383e-07
1.191365e-07
2.464788e-08
1.251147e-08
-2.188489e-06
-2.614036e-06
3.016633e-06
3.445688e-06
-2.423572e-06
-2.595916e-06
-1.80226e-06
-1.595419e-06
4.527962e-08
-4.496556e-08
-3.659319e-07
-2.184503e-06
-1.072635e-07
-1.210299e-06
-1.599726e-06
-6.025522e-09
-5.851099e-07
-5.57814e-07
-1.555708e-06
1.39112e-08
6.408319e-07
-1.655423e-06
9.043585e-07
1.4053e-06
-8.447423e-09
-4.055399e-07
-7.658023e-07
4.462712e-08
3.531628e-07
7.06051e-08
2.583116e-06
2.320061e-06
2.038561e-07
5.298537e-09
-6.418154e-07
-1.741907e-06
-1.619663e-06
-6.36991e-09
-1.472106e-07
-1.698647e-07
-1.916075e-07
7.580875e-07
-3.822382e-08
-5.007469e-08
-2.199386e-06
2.297438e-08
-7.631883e-07
-8.573342e-07
-9.366444e-07
-8.099202e-07
-8.10202e-07
-7.189856e-07
9.506497e-07
-9.431968e-07
-2.758314e-08
5.747674e-09
3.718059e-08
-8.507555e-08
-2.027544e-08
-8.407208e-07
-9.832917e-07
3.843155e-08
-6.344774e-07
-6.006339e-07
7.412286e-07
-2.072169e-06
4.172786e-07
8.917231e-07
-1.574406e-07
-2.906972e-07
-5.038621e-07
1.551922e-06
3.501921e-07
-8.413507e-07
3.96057e-06
-1.159273e-06
-1.632433e-06
4.181465e-07
-1.233973e-06
3.831117e-08
-1.295021e-06
-1.198043e-06
1.480474e-07
-1.834918e-06
2.191648e-08
7.972642e-09
1.880567e-08
2.115411e-08
6.560441e-07
6.675725e-07
2.277671e-07
-7.976378e-07
-9.726545e-07
2.664983e-06
-5.150064e-08
1.904723e-07
-2.506794e-07
6.177718e-07
1.566484e-07
1.993822e-07
3.902757e-07
-1.401344e-06
4.347784e-09
3.112613e-08
5.205949e-07
-7.959942e-07
-1.340487e-07
-6.602034e-07
3.511486e-07
4.568136e-07
8.045774e-07
-1.07958e-06
-1.449117e-06
-1.37653e-06
-9.791674e-07
1.397349e-07
-8.243992e-07
-6.170015e-07
-6.442702e-07
-3.884274e-08
-9.344423e-08
-2.208126e-06
-2.439887e-06
-2.149132e-07
6.070539e-07
-2.713904e-06
-2.089506e-06
-3.052261e-06
-3.961934e-06
-5.952107e-08
-2.795902e-06
3.518358e-09
-3.22086e-08
-1.411337e-07
2.471049e-08
7.410931e-08
-1.739701e-07
-2.229987e-07
2.52227e-06
-9.952258e-07
-5.804873e-07
-5.173389e-07
-4.706199e-07
-4.596888e-07
2.099527e-07
2.248587e-08
-2.143642e-08
-2.067417e-07
-1.842941e-07
1.851559e-06
-3.704563e-07
-3.587157e-07
-3.402784e-08
-1.520898e-06
-2.356718e-07
-6.110582e-07
-2.352269e-07
-1.945879e-07
-2.581412e-07
3.161162e-06
-9.641441e-09
1.44564e-06
1.69137e-06
7.174252e-07
6.557853e-07
-3.449251e-06
-1.617412e-06
2.297995e-06
1.812477e-06
4.27635e-07
3.715256e-07
-1.97715e-06
-4.068654e-08
-1.555836e-08
7.510602e-08
-6.301453e-08
-9.053771e-08
-1.125621e-06
-1.167007e-06
7.20446e-08
2.501365e-06
2.343618e-06
-2.220072e-07
-2.360846e-08
1.351959e-07
-3.061332e-07
-1.03093e-08
1.99297e-08
-2.052211e-06
1.768185e-07
-3.272347e-06
1.074279e-06
-2.758803e-06
-2.509319e-06
-3.118466e-07
-5.308896e-07
-1.8192e-06
1.308865e-07
1.711443e-07
-1.977401e-06
-2.253146e-06
-1.554201e-06
-3.827913e-07
2.716054e-07
-8.742362e-08
3.082613e-08
-1.346796e-06
7.589303e-08
-7.662967e-07
-5.194858e-07
-5.80757e-07
-7.729845e-07
-1.855017e-06
6.256956e-07
3.983058e-07
-1.664872e-08
1.584396e-07
-2.633905e-08
-1.946825e-08
-1.965855e-06
3.71258e-07
-3.821768e-07
-1.027244e-06
8.84114e-08
4.804763e-07
6.961799e-07
-1.287995e-07
-2.531992e-06
-1.024878e-06
-4.109024e-07
-4.244185e-07
2.014968e-07
1.695127e-07
3.026569e-08
-5.463555e-07
-8.66669e-08
8.135134e-07
2.55887e-06
-3.359576e-07
-9.519333e-07
-1.288609e-06
8.344581e-08
2.338849e-08
-6.657575e-07
1.084704e-07
7.001249e-08
1.327966e-07
1.858018e-07
-4.995479e-10
-6.779196e-07
7.719783e-08
1.521098e-06
-8.168809e-07
-2.000669e-07
3.656967e-07
-1.819805e-06
-1.261079e-06
-3.126133e-07
1.458792e-06
-1.539971e-07
-1.685266e-07
-6.953896e-07
-1.547797e-07
-7.790259e-07
1.160918e-06
-3.77241e-07
-3.4052e-07
-9.639143e-07
-1.188731e-07
-1.213001e-07
1.646792e-09
6.97753e-09
5.428713e-07
3.839669e-07
-1.331864e-06
-1.696277e-06
1.051559e-07
-2.79277e-06
-2.533866e-06
-3.325123e-06
-3.91533e-06
-4.514827e-07
1.822161e-06
-2.716249e-07
-2.905608e-07
2.077678e-07
-1.159664e-07
4.472875e-06
4.682178e-08
-7.283163e-08
-8.292994e-08
-1.425892e-07
-1.82606e-08
-5.654995e-07
1.528709e-06
3.238238e-07
-9.209892e-07
-4.519343e-07
-5.109629e-07
-3.951947e-07
-3.189474e-07
-3.685501e-07
9.301342e-07
9.163455e-07
-6.294066e-08
-8.330234e-08
1.162684e-06
-1.667474e-06
-1.388326e-06
-1.49893e-06
1.814852e-06
-2.22124e-06
2.472123e-08
1.675279e-07
-5.340093e-07
-5.979799e-07
2.100585e-07
7.607793e-08
-2.760667e-07
-3.115606e-07
1.974314e-08
2.966022e-09
-1.788912e-07
5.271022e-08
-2.456806e-08
8.35176e-07
7.086673e-07
-1.220377e-06
-1.299339e-07
-4.077516e-08
-1.07976e-07
3.483368e-07
-2.015589e-06
-1.683774e-06
-1.963149e-06
-1.361851e-06
-1.965542e-06
-1.849389e-06
-1.922385e-06
-1.979718e-06
7.339721e-08
-8.228891e-08
-3.267698e-07
-5.80331e-07
-1.13517e-06
-1.126954e-06
9.914269e-09
1.436555e-08
-1.861006e-07
-1.697084e-07
-1.581476e-07
-2.005339e-07
-1.134149e-07
-1.324516e-07
-2.186338e-07
-2.347995e-07
8.441505e-08
8.709191e-08
5.36154e-08
2.48652e-06
4.884882e-07
-8.59114e-08
8.585009e-08
-7.564402e-07
-1.752306e-06
-2.295592e-07
-1.966092e-07
-5.457972e-07
-8.272216e-08
-1.136785e-07
-4.515579e-07
1.669057e-07
2.018976e-07
9.663534e-08
6.586333e-08
2.391962e-07
1.322567e-06
1.924761e-08
-1.279405e-07
-1.215882e-07
5.593815e-07
6.61745e-07
-2.346738e-07
-2.076823e-07
1.276394e-07
9.572126e-07
3.468139e-08
5.835939e-08
6.448437e-07
-1.367651e-06
-1.406105e-06
-1.671785e-07
-2.695348e-07
-2.645772e-07
-2.067459e-06
-6.614737e-07
3.518574e-07
3.311023e-06
-1.542519e-09
-7.880152e-08
-1.18763e-07
-2.01751e-06
7.346983e-08
-4.653971e-08
7.540717e-07
-2.109878e-06
9.029923e-08
-3.521572e-07
-5.018374e-07
7.091615e-08
-1.085088e-06
1.158791e-07
1.042146e-07
-3.159023e-07
-1.167082e-06
-1.59934e-07
-1.711091e-07
-1.797957e-06
2.88748e-07
-1.228539e-07
-1.222887e-07
2.499211e-06
-4.836722e-09
4.082029e-08
-2.580811e-07
1.574268e-09
-5.814427e-09
1.125564e-08
2.557212e-07
-1.544926e-07
-1.096665e-06
-4.97721e-07
7.932239e-07
-4.893159e-08
-4.540742e-08
-2.154914e-08
-2.685113e-08
-1.336597e-08
2.991665e-07
3.069472e-07
3.599003e-08
-1.044625e-06
-1.000094e-06
1.105674e-07
3.521773e-07
3.731186e-07
-1.60597e-06
1.807915e-07
-3.058492e-07
-2.07041e-07
-4.570162e-07
-1.002649e-06
4.686869e-08
-1.486335e-06
1.791681e-07
-4.266505e-08
-7.525006e-07
-5.26331e-07