/*--------------------------------*- C++ -*----------------------------------*\
| =========                 |                                                 |
| \\      /  F ield         | OpenFOAM: The Open Source CFD Toolbox           |
|  \\    /   O peration     | Version:  2406                                  |
|   \\  /    A nd           | Website:  www.openfoam.com                      |
|    \\/     M anipulation  |                                                 |
\*---------------------------------------------------------------------------*/
FoamFile
{
    version     2.0;
    format      ascii;
    arch        "LSB;label=32;scalar=64";
    class       surfaceScalarField;
    location    "4.7";
    object      phi;
}
// * * * * * * * * * * * * * * * * * * * * * * * * * * * * * * * * * * * * * //

dimensions      [0 3 -1 0 0 0 0];

oriented        oriented;

internalField   nonuniform List<scalar> 
23794
(
-0.007286631
0.007666364
-0.0003797334
-0.00673767
-0.0005489612
-0.00604873
-0.0006889402
-0.0052332
-0.0008155294
-0.004357177
-0.0008760226
-0.003460223
-0.000896955
-0.00260236
-0.0008578628
-0.001739313
-0.0008630464
-0.0008752681
-0.0008640451
-0.0001554847
-0.0007197834
0.0003491655
-0.0005046502
-0.0004638816
0.0008130471
-0.002112413
0.001648532
-0.002892074
0.0007796611
-0.002510966
-0.0003811085
-0.001496235
-0.00101473
-0.0002613223
-0.001234913
0.0009479697
-0.001209292
0.001194181
-0.0002462109
0.000304764
0.0008894165
-0.0009068513
0.001211615
-0.002072963
0.001166112
-0.003205279
0.001132316
-0.003503243
0.0002979641
-0.001647701
-0.001855542
0.0008830716
-0.002530773
0.002421639
-0.001538567
0.003788837
-0.001367198
0.006147999
-0.002359162
0.009475653
-0.003327654
0.01115268
-0.001677025
0.007507198
0.003645481
-0.0008267719
0.00833397
-0.003946964
0.003120192
-2.404974e-06
-0.003944559
0.003845518
-0.003847923
0.00446895
-0.0006234321
0.003161781
0.001307169
-0.0004154568
0.003577237
-0.005570405
0.005154949
-0.009544381
0.003973975
-0.01171132
0.002166935
-0.01284373
0.001132413
-0.01350989
0.0006661608
-0.01394452
0.0004346287
-0.01415225
0.0002077305
-0.0142376
8.535619e-05
-0.01424683
9.222684e-06
-0.01419189
-5.493514e-05
-0.014116
-7.589225e-05
-0.01397955
-0.0001364495
-0.01380027
-0.0001792806
-0.01356198
-0.0002382927
-0.01329805
-0.000263927
-0.01301484
-0.0002832122
-0.01267757
-0.0003372729
-0.01231929
-0.000358272
-0.01195112
-0.0003681725
-0.01151994
-0.0004311794
-0.01106533
-0.0004546128
-0.01058515
-0.0004801802
-0.01009725
-0.0004878958
-0.009587641
-0.0005096109
-0.009030089
-0.0005575525
-0.008478498
-0.0005515911
-0.007886135
-0.0005923624
-0.007276517
-0.0006096186
-0.006659493
-0.0006170234
-0.006033343
-0.00062615
-0.005377468
-0.0006558758
-0.004718627
-0.0006588406
-0.004050691
-0.0006679355
-0.003367879
-0.0006828125
-0.002680918
-0.0006869611
-0.00201386
-0.0006670582
-0.001302754
-0.0007111054
-0.000617971
-0.0006847832
2.803182e-05
-0.0006460029
0.0006586988
-0.000630667
0.001408114
-0.0007494149
0.002146722
-0.0007386079
0.002871734
-0.0007250122
0.003582067
-0.0007103334
0.004273528
-0.0006914609
0.004962644
-0.0006891164
0.005629241
-0.0006665971
0.006306492
-0.0006772506
0.006963134
-0.0006566421
0.007584269
-0.0006211345
0.008209117
-0.0006248487
0.008821159
-0.000612042
0.009410327
-0.0005891675
0.009996561
-0.0005862339
0.01056937
-0.0005728051
0.01108728
-0.0005179144
0.0116021
-0.0005148181
0.01210236
-0.000500257
0.01256157
-0.0004592116
0.01302244
-0.0004608735
0.01343101
-0.0004085736
0.01381298
-0.0003819706
0.01415645
-0.0003434679
0.01445767
-0.0003012186
0.01475576
-0.0002980881
0.01501734
-0.0002615796
0.0152407
-0.000223366
0.01542253
-0.0001818245
0.01556338
-0.0001408544
0.01567584
-0.0001124545
0.01572743
-5.158902e-05
0.01575689
-2.946303e-05
0.01570687
5.001829e-05
0.01548656
0.0002203126
0.01512441
0.000362153
0.01461026
0.0005141415
0.01384698
0.0007632796
0.01254651
0.001300472
0.01007464
0.002471876
0.005837901
0.004236735
0.001382798
0.004455103
-0.0001772332
0.001560031
-0.002808346
0.002631113
-0.0085069
0.005698554
-0.009590914
0.001084014
-0.006247311
-0.003343604
-0.003260795
-0.002986516
-0.00126641
-0.001994384
0.001758622
-0.003025033
0.005591193
-0.003832571
0.002886553
0.00270464
-0.006758537
0.009645091
-0.01133106
0.004572526
-0.009594908
-0.001736155
-0.007712943
-0.001881964
-0.005727051
-0.001985892
-0.003872538
-0.001854513
-0.001779121
-0.002093417
0.001140307
-0.002919428
0.003194055
-0.002053748
0.002972671
0.000221384
0.00226255
0.0007101211
0.001529205
0.0007333448
0.0005760728
0.0009531323
0.0003915207
0.0001845522
0.00125042
-0.0008588995
0.003147564
-0.001897144
0.004636502
-0.001488937
0.001875569
0.002760932
-0.002427315
0.004302884
-0.0009159529
-0.001511362
0.002100096
-0.003016049
0.001497858
0.0006022379
-0.001332435
0.002830293
-0.004977789
0.003645354
-0.007100259
0.002122471
-0.007737863
0.0006376038
-7.149882e-05
-0.009294312
0.009835949
-0.0009213709
-0.008554338
-0.001288935
-0.007680782
-0.001562496
-0.006684264
-0.001812048
-0.005648874
-0.001911412
-0.004635971
-0.001909859
-0.003730606
-0.001763227
-0.00289933
-0.001694323
-0.002146114
-0.001617261
-0.001659571
-0.001206326
-0.001688649
-0.0004755729
-0.002791736
0.001916135
-0.003872385
0.00272918
-0.003845581
0.0007528576
-0.003071473
-0.001155217
-0.001840791
-0.002245412
-0.0003434035
-0.0027323
0.0007725481
-0.002325244
0.0009959959
-0.0004696586
0.0004593573
0.001426055
-0.0006566572
0.00232763
-0.002512279
0.003021734
-0.004604168
0.003224206
-0.004713525
0.0004073209
-0.001985941
-0.004583126
0.0006511037
-0.005167818
0.002005861
-0.002893325
0.003292612
-0.002653949
0.005687708
-0.004754258
0.009384332
-0.007024278
0.01197879
-0.004271485
0.01050053
0.005123745
0.00187637
0.01695813
-0.003431986
0.008428548
-0.00237832
-0.004998225
-0.001132227
-0.005094016
-0.001152307
-0.0006033517
-0.005076183
0.005231045
-0.01188039
0.01038145
-0.01751925
0.0107938
-0.01991303
0.006367757
-0.0205031
0.002757007
-0.02064615
0.001275461
-0.02065619
0.0006762009
-0.02060709
0.0003855341
-0.02044443
4.506752e-05
-0.02026093
-9.815026e-05
-0.02007211
-0.0001795939
-0.01983974
-0.0002873069
-0.01958719
-0.0003284364
-0.01927291
-0.0004507349
-0.01891661
-0.000535574
-0.01849699
-0.0006579145
-0.01805072
-0.0007101988
-0.01759076
-0.0007431674
-0.01707259
-0.0008554431
-0.01652925
-0.0009016205
-0.01597976
-0.0009176546
-0.01535809
-0.00105285
-0.01471408
-0.00109863
-0.01404058
-0.001153672
-0.01335774
-0.001170741
-0.01265542
-0.001211929
-0.01189578
-0.00131719
-0.01114516
-0.001302216
-0.0103518
-0.001385728
-0.009536237
-0.001425177
-0.008715319
-0.001437941
-0.007887794
-0.001453675
-0.007023986
-0.001519684
-0.006155879
-0.001526948
-0.005279422
-0.001544392
-0.004386587
-0.001575648
-0.003491415
-0.001582133
-0.002616424
-0.001542049
-0.001695984
-0.001631545
-0.0008048432
-0.001575924
4.353278e-05
-0.001494379
0.0008731258
-0.00146026
0.00183652
-0.001712809
0.00279244
-0.001694528
0.003733648
-0.001666221
0.004656255
-0.00163294
0.005559674
-0.00159488
0.006462284
-0.001591726
0.007339103
-0.001543417
0.008228694
-0.001566841
0.009095394
-0.001523342
0.00991888
-0.00144462
0.01074933
-0.001455298
0.01156931
-0.001432019
0.01236059
-0.00138045
0.01314943
-0.001375078
0.01392691
-0.001350279
0.01464001
-0.00123102
0.01535378
-0.001228589
0.01605137
-0.001197844
0.01670319
-0.001111035
0.01735905
-0.001116728
0.01795348
-0.001003002
0.01852556
-0.0009540521
0.01905444
-0.0008723525
0.01953694
-0.0007837204
0.02002296
-0.0007841061
0.02047009
-0.0007087074
0.0208753
-0.0006285741
0.02123815
-0.0005446745
0.02155864
-0.0004613497
0.02185194
-0.0004057475
0.02208301
-0.0002826598
0.02231261
-0.0002590628
0.02251936
-0.0001567301
0.02263704
0.0001026303
0.02271052
0.0002886739
0.02275019
0.0004744706
0.02272695
0.0007865193
0.02253287
0.001494547
0.02176728
0.003237467
0.0190406
0.006963413
0.01333312
0.01016259
0.004732156
0.01016099
-0.003297721
0.01066099
-0.006207754
0.008608587
-0.004086566
-0.001037174
-0.0006681401
-0.006762029
0.001733663
-0.005388319
0.00276563
-0.003026352
0.004671356
-0.004930758
0.007563061
-0.006724276
0.0004413891
0.009826312
-0.01100323
0.02108971
-0.01368756
0.007256855
-0.01104692
-0.0043768
-0.008969096
-0.003959787
-0.006709932
-0.004245056
-0.004603626
-0.003960819
-0.002272678
-0.004424365
0.001209965
-0.006402071
0.004619743
-0.005463526
0.005314396
-0.0004732688
0.003647015
0.002377502
0.001359785
0.003020575
-9.824842e-05
0.002411166
-0.000174636
0.0002609397
0.001059152
-0.002092688
0.003262441
-0.004100432
0.005779147
-0.004005644
0.004145578
0.004394502
-0.0001627717
0.008611233
-0.0005056086
-0.001168525
0.001412407
-0.004934065
-0.001333353
0.003347998
-0.006649015
0.008145955
-0.009931784
0.006928123
-0.01044583
0.002636516
-0.01017433
0.000366107
-0.000409882
-0.0110126
0.01170545
-0.001614219
-0.01009688
-0.002204654
-0.009027796
-0.002631585
-0.007835967
-0.003003876
-0.006642231
-0.003105148
-0.005546239
-0.00300585
-0.004688159
-0.002621308
-0.004069195
-0.002313286
-0.003668638
-0.002017819
-0.003578622
-0.001296341
-0.003763103
-0.0002910922
-0.004330046
0.002483078
-0.004561421
0.002960554
-0.004295746
0.0004871825
-0.003410595
-0.002040367
-0.001772945
-0.003883063
0.0003122185
-0.004817464
0.001824846
-0.003837871
0.001925296
-0.0005701079
0.001277219
0.002074132
8.136191e-05
0.003523487
-0.001875899
0.004978994
-0.004304901
0.005653208
-0.004706161
0.0008085809
-0.002295392
-0.006993895
-0.000328993
-0.007134216
0.0004063112
-0.003628629
0.001372539
-0.003620177
0.003882525
-0.007264244
0.008291823
-0.01143358
0.01088968
-0.006869339
0.01018536
0.005828061
0.003667506
0.02347598
-0.004190584
0.01628664
-0.009341807
0.000152998
-0.01305369
-0.001382128
-0.01528763
0.001630579
-0.018839
0.008782418
-0.02273954
0.01428198
-0.02431564
0.01236991
-0.02419786
0.006249968
-0.02412925
0.0026884
-0.02423109
0.001377301
-0.02430416
0.0007492738
-0.02433789
0.0004192643
-0.02422089
-7.19286e-05
-0.02405062
-0.0002684216
-0.02384553
-0.0003846873
-0.02357833
-0.0005545035
-0.02329015
-0.0006166209
-0.02292518
-0.0008157049
-0.02251131
-0.0009494419
-0.02202051
-0.001148716
-0.02149734
-0.001233367
-0.02095888
-0.001281632
-0.02034801
-0.00146631
-0.01970703
-0.001542597
-0.0190601
-0.001564591
-0.01832398
-0.001788968
-0.01756128
-0.001861331
-0.01676291
-0.00195204
-0.01595301
-0.001980638
-0.01511977
-0.002045166
-0.01421564
-0.002221323
-0.01332334
-0.002194512
-0.01237739
-0.002331679
-0.01140501
-0.002397563
-0.01042539
-0.002417557
-0.009437341
-0.002441725
-0.008405252
-0.002551773
-0.007367602
-0.002564599
-0.006318863
-0.002593131
-0.005250742
-0.002643769
-0.004178502
-0.002654372
-0.003128408
-0.002592144
-0.002026108
-0.002733845
-0.0009566193
-0.002645412
6.713904e-05
-0.002518137
0.001069602
-0.002462723
0.002219265
-0.002862472
0.003361681
-0.002836945
0.004486858
-0.002791397
0.005588603
-0.002734685
0.00666739
-0.002673667
0.007744742
-0.002669079
0.008790259
-0.002588933
0.009850866
-0.002627449
0.01088281
-0.002555282
0.01186271
-0.002424525
0.01285086
-0.002443453
0.01382529
-0.002406449
0.01476491
-0.002320069
0.01570168
-0.002311847
0.0166241
-0.002272702
0.01746846
-0.00207538
0.01831425
-0.002074377
0.01913975
-0.002023343
0.01990893
-0.001880211
0.02068488
-0.001892685
0.02138462
-0.001702739
0.02205857
-0.001627999
0.02267952
-0.001493309
0.02324289
-0.001347082
0.02381192
-0.00135314
0.02433238
-0.001229169
0.02480338
-0.001099571
0.02522242
-0.0009637188
0.02559068
-0.0008296118
0.02592639
-0.0007414506
0.02618729
-0.0005435597
0.02644357
-0.0005153411
0.02664359
-0.0003567537
0.02670308
4.31381e-05
0.0266986
0.0002931545
0.02665692
0.0005161526
0.0265871
0.0008563354
0.02649438
0.001587274
0.02660275
0.003129088
0.02662899
0.006937175
0.02442719
0.01236439
0.01539038
0.01919781
0.002704604
0.02334677
-0.0004363373
0.01174953
0.00430665
-0.005780162
0.00823999
-0.01069537
0.01036386
-0.007512192
0.01025674
-0.002919232
0.009399843
-0.004073859
0.008130556
-0.005454988
-0.001534933
0.0194918
-0.01237433
0.03192911
-0.01405589
0.008938413
-0.01151574
-0.006916953
-0.009341063
-0.006134461
-0.006992519
-0.006593599
-0.004875234
-0.006078105
-0.002562677
-0.006736921
0.001167378
-0.01013213
0.005335567
-0.009631716
0.006350884
-0.001488586
0.003778849
0.004949536
0.0005329548
0.00626647
-0.000880393
0.003824514
-0.0007494282
0.0001299749
0.0008097353
-0.003651851
0.003355583
-0.00664628
0.0059403
-0.006590361
0.005173547
0.005161255
0.002062379
0.0117224
-0.0001530107
0.001046865
-0.00224086
-0.002846215
-0.006913075
0.008020213
-0.01115644
0.01238932
-0.0122961
0.00806778
-0.0121457
0.002486119
-0.01207557
0.0002959782
-0.0007800036
-0.01326185
0.01412124
-0.002473609
-0.01210278
-0.003363723
-0.01074641
-0.003987961
-0.009239453
-0.004510832
-0.007749197
-0.004595404
-0.006409035
-0.004346012
-0.005405803
-0.003624539
-0.004781058
-0.002938032
-0.004505716
-0.00229316
-0.004633812
-0.001168245
-0.004875856
-4.904877e-05
-0.00526147
0.002868692
-0.00544174
0.003140825
-0.005316492
0.0003619346
-0.004257447
-0.003099413
-0.002203805
-0.005936705
0.0004984221
-0.007519691
0.002961071
-0.00630052
0.003696108
-0.001305145
0.002947893
0.002822346
0.001273817
0.005197563
-0.0008204091
0.00707322
-0.003226248
0.008059046
-0.004139738
0.001722071
-0.003009013
-0.008124621
-0.002356443
-0.007786786
-0.002637684
-0.003347388
-0.00193217
-0.004325691
0.001209488
-0.0104059
0.005993874
-0.01621796
0.008834538
-0.009710004
0.00807478
0.006587819
0.002447907
0.02910285
-0.009067781
0.02780233
-0.01970734
0.01079256
-0.02539234
0.004302873
-0.02781243
0.004050668
-0.02935435
0.01032433
-0.02960799
0.01453563
-0.02891919
0.01168111
-0.02873233
0.006063111
-0.0290591
0.003015174
-0.02931579
0.001633987
-0.02944436
0.0008778464
-0.02948356
0.0004584677
-0.02931919
-0.0002363077
-0.02908714
-0.0005004703
-0.02881612
-0.0006557018
-0.0284721
-0.0008985231
-0.02810518
-0.0009835433
-0.02764984
-0.001271048
-0.02713741
-0.001461871
-0.02653373
-0.001752393
-0.0258921
-0.001875002
-0.02523368
-0.001940046
-0.0244905
-0.002209498
-0.02371145
-0.002321642
-0.022926
-0.002350044
-0.02203705
-0.002677915
-0.02111453
-0.002783847
-0.02015038
-0.002916189
-0.01917381
-0.002957214
-0.01817065
-0.00304832
-0.0170813
-0.003310678
-0.016009
-0.003266807
-0.01487112
-0.003469559
-0.01370327
-0.003565418
-0.01252585
-0.003594981
-0.01133895
-0.003628617
-0.01009945
-0.003791273
-0.008853337
-0.003810714
-0.007593599
-0.00385287
-0.006312597
-0.00392477
-0.005024276
-0.003942694
-0.003762323
-0.003854097
-0.002436693
-0.004059475
-0.001148261
-0.003933844
9.301757e-05
-0.003759415
0.001310343
-0.003680048
0.002688131
-0.00424026
0.004055924
-0.004204738
0.005406152
-0.004141625
0.006726289
-0.004054823
0.008017565
-0.003964942
0.009306282
-0.003957796
0.01055641
-0.00383906
0.01182722
-0.003898264
0.01306147
-0.003789525
0.01423681
-0.003599866
0.01542367
-0.003630319
0.01659249
-0.003575262
0.01772324
-0.003450819
0.01885275
-0.003441361
0.01996222
-0.003382172
0.02098192
-0.003095076
0.02200429
-0.003096747
0.02300129
-0.003020346
0.02393322
-0.002812134
0.02487401
-0.00283348
0.02572445
-0.002553176
0.02654407
-0.002447623
0.02730139
-0.002250629
0.02799323
-0.002038918
0.02869181
-0.00205172
0.0293322
-0.001869564
0.02991641
-0.001683774
0.03043739
-0.001484699
0.03090105
-0.001293271
0.03132826
-0.001168668
0.03166627
-0.0008815678
0.0320006
-0.0008496698
0.0322721
-0.0006282518
0.0323697
-5.446102e-05
0.03237441
0.000288446
0.03231623
0.000574331
0.03217154
0.001001028
0.03187897
0.001879837
0.03154685
0.003461214
0.03162589
0.006858126
0.03197811
0.01201217
0.02790998
0.02326593
0.01863926
0.0326175
0.0136609
0.01672789
0.01584878
-0.007968046
0.01921951
-0.0140661
0.0204986
-0.008791283
0.0193125
-0.001733132
0.0155895
-0.0003508517
0.00938996
0.0007445472
-0.002704376
0.03158614
-0.0128118
0.04203654
-0.0142588
0.01038541
-0.01120715
-0.0099686
-0.008905316
-0.008436297
-0.006501882
-0.008997033
-0.004567727
-0.008012259
-0.002531326
-0.008773322
0.001148726
-0.01381218
0.005755706
-0.0142387
0.00662952
-0.0023624
0.003132358
0.008446699
-0.0003790161
0.009777843
-0.001639825
0.005085322
-0.001353203
-0.0001566465
0.0004230552
-0.00542811
0.00312377
-0.009346995
0.005677906
-0.009144497
0.00538439
0.005454771
0.003021074
0.01408572
-0.001635681
0.005703619
-0.007717083
0.003235187
-0.01241701
0.01272014
-0.01441753
0.01438985
-0.01447435
0.008124596
-0.01462126
0.002633032
-0.01459447
0.0002691873
-0.001253231
-0.01619346
0.01725236
-0.003532512
-0.0147414
-0.004815783
-0.01301371
-0.005715649
-0.01106162
-0.006462921
-0.009105799
-0.006551226
-0.007328877
-0.006122933
-0.005969944
-0.004983473
-0.005115174
-0.003792802
-0.004795494
-0.00261284
-0.005182296
-0.0007814433
-0.005648092
0.0004167479
-0.006310998
0.003531598
-0.006780877
0.003610704
-0.006681935
0.0002629925
-0.005303647
-0.004477701
-0.002824764
-0.008415588
0.0003627246
-0.01070718
0.003614703
-0.009552499
0.005365537
-0.003055979
0.005095268
0.003092615
0.002987936
0.007304896
0.0002447047
0.009816451
-0.002112495
0.01041625
-0.003605708
0.003215284
-0.004482197
-0.007248131
-0.00575325
-0.006515734
-0.007012442
-0.002088195
-0.006619731
-0.004718402
-0.00363723
-0.0133884
0.0006943279
-0.02054952
0.003960657
-0.01297633
0.00289685
0.007651627
-0.003065362
0.03506507
-0.01676671
0.04150367
-0.02888586
0.02291171
-0.03345219
0.008869204
-0.03524309
0.005841571
-0.03562505
0.01070629
-0.03471804
0.01362861
-0.03402
0.01098307
-0.03420285
0.006245961
-0.03459607
0.003408398
-0.03489214
0.00193005
-0.03505103
0.001036742
-0.03513661
0.0005440428
-0.03496385
-0.0004090594
-0.03471378
-0.0007505426
-0.03441462
-0.000954866
-0.03401301
-0.001300131
-0.03360054
-0.001396011
-0.03306519
-0.001806396
-0.03246766
-0.002059404
-0.03175318
-0.002466871
-0.03099392
-0.002634269
-0.03021778
-0.002716187
-0.02933222
-0.00309505
-0.02840422
-0.003249642
-0.02747197
-0.003282296
-0.02641209
-0.003737794
-0.02530886
-0.003887082
-0.02415656
-0.004068484
-0.02299158
-0.004122194
-0.02179442
-0.004245479
-0.02048764
-0.004617466
-0.01920844
-0.004546002
-0.01784454
-0.004833463
-0.01644811
-0.004961845
-0.01503811
-0.005004977
-0.01361878
-0.005047948
-0.01213281
-0.005277247
-0.01063864
-0.005304886
-0.009125353
-0.005366153
-0.007590072
-0.005460051
-0.006043655
-0.005489111
-0.004530641
-0.005367112
-0.002935365
-0.005654751
-0.001381312
-0.005487896
0.000124357
-0.005265085
0.001601934
-0.005157625
0.003255184
-0.00589351
0.004892944
-0.005842499
0.006513108
-0.005761789
0.008089463
-0.005631178
0.00962812
-0.005503599
0.01116542
-0.005495092
0.01265696
-0.005330604
0.01417961
-0.005420911
0.01565255
-0.005262465
0.01706219
-0.005009508
0.01848838
-0.005056514
0.0198844
-0.004971282
0.02124029
-0.004806708
0.0225998
-0.004800868
0.02392529
-0.004707666
0.02514574
-0.004315523
0.02637182
-0.004322828
0.02756347
-0.004212
0.02867376
-0.003922417
0.02980082
-0.003960545
0.03081333
-0.003565686
0.03178861
-0.003422896
0.03268783
-0.003149857
0.03350504
-0.002856123
0.03433366
-0.00288034
0.0350847
-0.002620607
0.03577363
-0.002372702
0.03637939
-0.00209046
0.0369164
-0.001830283
0.03741321
-0.001665471
0.03778833
-0.001256695
0.03816917
-0.001230505
0.03846276
-0.0009218392
0.03855037
-0.0001420715
0.038527
0.0003118105
0.0384217
0.0006796309
0.03823924
0.001183487
0.03790554
0.002213542
0.03749165
0.003875101
0.03709859
0.007251188
0.03763869
0.01147207
0.03825523
0.02264939
0.03642282
0.0344499
0.03376982
0.01938089
0.03256494
-0.006763169
0.03234519
-0.01384635
0.03151163
-0.007957723
0.02903208
0.0007464178
0.02309742
0.005583813
0.01218405
0.01165792
-0.002223424
0.04599361
-0.01208615
0.05189926
-0.01388115
0.01218042
-0.0100766
-0.01377315
-0.007685843
-0.01082706
-0.005061156
-0.01162172
-0.003366647
-0.009706769
-0.001803059
-0.01033691
0.001305522
-0.01692076
0.005756588
-0.01868976
0.006059905
-0.002665717
0.001883201
0.0126234
-0.001375967
0.01303701
-0.002372137
0.006081492
-0.00208194
-0.0004468426
-0.0004417201
-0.00706833
0.0023135
-0.01210222
0.004843883
-0.01167488
0.00466297
0.005635684
0.00210999
0.0166387
-0.00506294
0.01287655
-0.0132741
0.01144635
-0.01680765
0.01625368
-0.01729354
0.01487574
-0.01740641
0.008237464
-0.01785624
0.00308286
-0.01782606
0.0002390136
-0.001826936
-0.0199995
0.02126323
-0.004796246
-0.01821556
-0.006599723
-0.0160582
-0.007873004
-0.01354482
-0.008976301
-0.01094838
-0.009147663
-0.008503964
-0.008567352
-0.006567319
-0.006920118
-0.005312977
-0.005047144
-0.004794955
-0.003130862
-0.005547893
-2.850481e-05
-0.006466978
0.001335833
-0.007601564
0.004666184
-0.008257693
0.004266833
-0.008008485
1.378397e-05
-0.00625215
-0.006234035
-0.003280421
-0.01138732
0.0005118158
-0.01449942
0.004346392
-0.01338708
0.006631786
-0.005341372
0.006892276
0.002832125
0.004737933
0.009459239
0.001230984
0.0133234
-0.001534131
0.01318136
-0.003931566
0.005612719
-0.007270472
-0.003909226
-0.01075441
-0.0030318
-0.0131315
0.0002889002
-0.01331784
-0.004532061
-0.0111012
-0.01560505
-0.006812252
-0.02483847
-0.004227068
-0.01556152
-0.005897713
0.009322272
-0.01394423
0.04311158
-0.02716021
0.05471966
-0.03647155
0.03222305
-0.03913368
0.01153133
-0.041028
0.007735894
-0.04163176
0.01131005
-0.04118563
0.01318248
-0.04101144
0.01080889
-0.04136274
0.006597254
-0.04177629
0.003821952
-0.04211643
0.002270186
-0.04225697
0.001177284
-0.04232573
0.000612803
-0.04207379
-0.0006610004
-0.04176018
-0.001064147
-0.04138305
-0.001332005
-0.04087465
-0.001808532
-0.04037772
-0.001892938
-0.03972044
-0.002463675
-0.03899796
-0.002781879
-0.03813047
-0.003334366
-0.03720936
-0.003555376
-0.03627605
-0.003649497
-0.03520468
-0.004166425
-0.03408601
-0.004368304
-0.03296932
-0.004398989
-0.03169482
-0.005012295
-0.03036389
-0.005218018
-0.0289804
-0.005451969
-0.02758195
-0.005520643
-0.02614883
-0.005678604
-0.02457384
-0.006192452
-0.02304747
-0.00607237
-0.02140793
-0.006473008
-0.01973459
-0.006635186
-0.01804531
-0.006694249
-0.01634899
-0.006744267
-0.01457148
-0.007054765
-0.01278704
-0.007089328
-0.01097046
-0.007182725
-0.009131762
-0.007298753
-0.007269245
-0.007351627
-0.005460889
-0.007175468
-0.003544266
-0.007571374
-0.00166392
-0.007368243
0.0001631552
-0.00709216
0.001956024
-0.006950493
0.003943376
-0.007880863
0.005908272
-0.007807394
0.007840305
-0.007693822
0.009711401
-0.007502274
0.01154148
-0.007333682
0.01337701
-0.00733062
0.01516147
-0.007115063
0.01699541
-0.007254852
0.01875591
-0.007022963
0.02045349
-0.006707093
0.02217708
-0.006780104
0.02384705
-0.006641246
0.02547442
-0.006434077
0.02712278
-0.006449232
0.02871059
-0.006295475
0.0301734
-0.005778331
0.03165069
-0.005800116
0.03308364
-0.005644957
0.03441367
-0.005252446
0.03577321
-0.005320087
0.03699214
-0.00478461
0.03816689
-0.004597651
0.03924825
-0.00423121
0.04023621
-0.003844086
0.04124371
-0.003887837
0.04214745
-0.003524354
0.04299133
-0.003216577
0.04372545
-0.002824587
0.04438589
-0.002490717
0.04499928
-0.002278861
0.04547007
-0.001727482
0.04594507
-0.001705506
0.04631277
-0.001289542
0.0464589
-0.0002881983
0.04646826
0.0003024476
0.04638679
0.0007611001
0.04620428
0.001365995
0.04582602
0.002591805
0.04535863
0.004342489
0.04481881
0.007791004
0.04450615
0.01178473
0.0464075
0.02074805
0.04953158
0.03132582
0.04937976
0.01953272
0.04605312
-0.003436531
0.04292451
-0.01071775
0.04030806
-0.005341268
0.03694122
0.00411326
0.03036831
0.01215672
0.01661783
0.0254084
4.731489e-05
0.06256413
-0.009358354
0.06130493
-0.01151258
0.01433465
-0.007412222
-0.01787351
-0.005527583
-0.0127117
-0.002650993
-0.01449831
-0.001074029
-0.01128373
0.000142538
-0.01155348
0.00203152
-0.01880974
0.005306897
-0.02196514
0.004562593
-0.001921412
0.000263869
0.01692213
-0.002201734
0.01550261
-0.003062269
0.006942028
-0.003053752
-0.0004553596
-0.001861552
-0.008260531
0.0004233969
-0.01438716
0.002817792
-0.01406928
0.002693911
0.005759566
-0.0009533216
0.02028593
-0.01020118
0.02212441
-0.01825426
0.01949943
-0.02052272
0.01852214
-0.02077901
0.01513203
-0.02137399
0.008832447
-0.02195749
0.003666363
-0.021886
0.0001675162
-0.002449702
-0.02477624
0.02624983
-0.006269831
-0.02264331
-0.008732654
-0.0200371
-0.01047922
-0.016863
-0.0121504
-0.01353268
-0.01247799
-0.01020329
-0.01189675
-0.00735825
-0.009765153
-0.005436305
-0.006969089
-0.004542413
-0.004024754
-0.005691854
0.001120936
-0.007158922
0.0028029
-0.008844204
0.006351466
-0.009560473
0.004983102
-0.009127974
-0.0004187143
-0.006991806
-0.008370204
-0.003453383
-0.01492574
0.001040103
-0.0189929
0.005448003
-0.01779498
0.007905746
-0.007799115
0.008287111
0.00245076
0.00608755
0.0116588
0.001893089
0.01751786
-0.001888007
0.01696246
-0.005932688
0.0096574
-0.01195172
0.002109806
-0.01759658
0.002613065
-0.02117108
0.003863395
-0.02248216
-0.003220979
-0.02206111
-0.0160261
-0.01952521
-0.02737436
-0.01765077
-0.01743596
-0.02066753
0.01233903
-0.02981664
0.05226069
-0.03966878
0.0645718
-0.04390303
0.0364573
-0.04582128
0.01344958
-0.04843656
0.01035117
-0.04942066
0.01229416
-0.04932863
0.01309044
-0.04927921
0.01075947
-0.04959083
0.006908869
-0.0499945
0.004225625
-0.05041149
0.002687173
-0.05054371
0.00130951
-0.05069602
0.000765111
-0.05039268
-0.0009643431
-0.05003043
-0.001426394
-0.04959233
-0.001770109
-0.04896229
-0.002438566
-0.04840261
-0.002452624
-0.04760069
-0.00326559
-0.04675185
-0.003630726
-0.04571231
-0.0043739
-0.04460174
-0.004665946
-0.04349494
-0.004756303
-0.04221489
-0.005446471
-0.04087276
-0.005710438
-0.03953243
-0.005739319
-0.03801401
-0.006530716
-0.03641999
-0.00681203
-0.0347633
-0.007108659
-0.03306831
-0.007215631
-0.03137631
-0.007370609
-0.02946815
-0.008100617
-0.02765229
-0.007888228
-0.02567395
-0.008451348
-0.02367208
-0.008637057
-0.02165391
-0.008712422
-0.01959314
-0.008805035
-0.01748313
-0.009164774
-0.01535989
-0.009212562
-0.01318609
-0.009356533
-0.01100694
-0.009477903
-0.008732337
-0.009626227
-0.006592655
-0.00931515
-0.004289892
-0.009874137
-0.002007697
-0.009650438
0.0002123794
-0.009312236
0.002388472
-0.009126586
0.004779164
-0.01027155
0.007137431
-0.01016566
0.009403566
-0.009959957
0.01162582
-0.00972453
0.01382211
-0.009529975
0.01601743
-0.009525932
0.01815798
-0.009255616
0.02038706
-0.009483931
0.02249821
-0.009134114
0.02453344
-0.008742325
0.0266045
-0.008851161
0.02862172
-0.008658462
0.03057793
-0.008390291
0.03254723
-0.008418533
0.03445462
-0.008202865
0.03620282
-0.007526531
0.03797208
-0.007569372
0.03966951
-0.007342387
0.04127762
-0.006860561
0.0429096
-0.006952067
0.04435962
-0.006234627
0.04577956
-0.006017589
0.04705672
-0.00550837
0.04823917
-0.005026538
0.04945146
-0.005100131
0.05051241
-0.004585302
0.05153317
-0.00423734
0.05238733
-0.003678745
0.05317699
-0.003280377
0.05391505
-0.003016917
0.0544485
-0.002260941
0.05501528
-0.00227228
0.05547097
-0.001745234
0.05560919
-0.0004264185
0.05559124
0.0003204034
0.05546165
0.0008906901
0.05524062
0.001587018
0.05481878
0.003013651
0.05434715
0.004814118
0.0539555
0.008182656
0.05344113
0.0122991
0.05484966
0.01933952
0.05878477
0.0273907
0.05940066
0.01891682
0.05526368
0.0007004568
0.0508782
-0.006332271
0.04741702
-0.001880083
0.04358888
0.007941396
0.03747283
0.01827277
0.02318326
0.03969796
0.006732793
0.07901459
-0.003372151
0.07140987
-0.005427451
0.01638995
-0.002254201
-0.02104676
-0.001462594
-0.0135033
0.001522177
-0.01748308
0.003113687
-0.01287524
0.003906192
-0.01234598
0.004057817
-0.01896137
0.004812374
-0.0227197
0.002556788
0.0003341747
-0.001271825
0.02075074
-0.002620044
0.01685083
-0.003711527
0.008033511
-0.004578283
0.0004113969
-0.00413678
-0.008702034
-0.002436145
-0.0160878
-0.0007795785
-0.01572584
-0.0008786178
0.005858605
-0.007028152
0.02643546
-0.01667056
0.03176682
-0.02294073
0.0257696
-0.02458642
0.02016783
-0.02540274
0.01594835
-0.02639887
0.009828575
-0.02703218
0.004299682
-0.02697478
0.0001101107
-0.003174654
-0.03051591
0.03226624
-0.008020169
-0.02800886
-0.0112397
-0.02494973
-0.01353835
-0.0210693
-0.01603082
-0.0169684
-0.01657889
-0.01266222
-0.01620293
-0.008661327
-0.01376604
-0.005526232
-0.01010418
-0.004355417
-0.005195569
-0.006103326
0.002868846
-0.007767528
0.004467101
-0.009804586
0.008388524
-0.01034374
0.005522258
-0.009751614
-0.001010842
-0.007369786
-0.01075203
-0.00323644
-0.01905909
0.001974462
-0.0242038
0.006712816
-0.02253333
0.009285413
-0.01037171
0.00974654
0.001989633
0.007350121
0.01405522
0.002621275
0.02224671
-0.002260732
0.02184446
-0.008859423
0.01625609
-0.01842051
0.01167089
-0.02611686
0.01030942
-0.03105604
0.008802577
-0.03415043
-0.0001265929
-0.03654401
-0.01363252
-0.03749438
-0.02642399
-0.04021773
-0.0147126
-0.04500084
0.01712213
-0.05139087
0.05865072
-0.05346061
0.06664154
-0.05266987
0.03566656
-0.05507137
0.01585109
-0.0580588
0.0133386
-0.05920443
0.01343979
-0.05930002
0.01318602
-0.05937597
0.01083542
-0.05973991
0.007272813
-0.06010842
0.004594135
-0.06065002
0.003228776
-0.06068151
0.001340996
-0.06082782
0.0009114212
-0.0604709
-0.001321265
-0.06001497
-0.00188232
-0.05954692
-0.002238158
-0.0587124
-0.003273091
-0.05808141
-0.003083607
-0.05710481
-0.004242194
-0.05611333
-0.004622208
-0.05484609
-0.005641136
-0.05348346
-0.006028582
-0.05217893
-0.006060826
-0.05067336
-0.006952044
-0.04900247
-0.007381331
-0.04740118
-0.007340612
-0.04560595
-0.008325941
-0.04371266
-0.008705325
-0.04169107
-0.009130244
-0.03963625
-0.009270455
-0.03770015
-0.009306703
-0.03532505
-0.01047572
-0.03319708
-0.01001619
-0.03074924
-0.0108992
-0.0284061
-0.01098019
-0.0259915
-0.01112702
-0.02348164
-0.01131489
-0.02099304
-0.01165338
-0.01842662
-0.01177898
-0.01581067
-0.01197248
-0.0132632
-0.01202537
-0.01049348
-0.01239595
-0.007998078
-0.01181055
-0.00519116
-0.01268106
-0.002437272
-0.01240433
0.0002696603
-0.01201917
0.002931418
-0.01178834
0.005831538
-0.01317168
0.008549459
-0.01288358
0.01119831
-0.01260881
0.01388638
-0.0124126
0.01656761
-0.01221121
0.01921484
-0.01217316
0.021755