/*--------------------------------*- C++ -*----------------------------------*\
| =========                 |                                                 |
| \\      /  F ield         | OpenFOAM: The Open Source CFD Toolbox           |
|  \\    /   O peration     | Version:  2406                                  |
|   \\  /    A nd           | Website:  www.openfoam.com                      |
|    \\/     M anipulation  |                                                 |
\*---------------------------------------------------------------------------*/
FoamFile
{
    version     2.0;
    format      ascii;
    arch        "LSB;label=32;scalar=64";
    class       volVectorField;
    location    "4.7";
    object      U;
}
// * * * * * * * * * * * * * * * * * * * * * * * * * * * * * * * * * * * * * //

dimensions      [0 1 -1 0 0 0 0];

internalField   nonuniform List<vector> 
15536
(
(0.293366 -7.704637 -1.199507e-21)
(0.5505266 -7.209613 -7.592775e-19)
(0.7476547 -6.536199 -1.345803e-18)
(0.8730252 -5.732423 -1.156116e-18)
(0.9216202 -4.84353 -1.574256e-20)
(0.894908 -3.923985 9.662862e-21)
(0.8003423 -3.014417 1.137923e-20)
(0.6366118 -2.12922 -1.151482e-20)
(0.4073407 -1.274268 2.736718e-18)
(0.1496589 -0.4960174 2.836914e-18)
(-0.1137933 0.1213508 0)
(-0.2349812 0.4537565 0)
(0.821259 -1.283367 -2.664596e-20)
(1.607155 -2.492134 6.850112e-18)
(1.618622 -2.431198 3.252633e-18)
(1.163809 -1.683204 -6.052828e-18)
(0.4963546 -0.7430344 2.889648e-18)
(-0.2858491 0.2279049 2.319172e-20)
(-0.9258885 0.9984616 -4.644985e-20)
(-0.5942861 0.6918667 2.330287e-20)
(0.2888394 -0.1667102 0)
(1.088107 -0.8557341 1.249549e-18)
(2.122611 -1.596106 0)
(3.219906 -2.263281 -6.867861e-20)
(2.483031 -1.698728 1.222284e-21)
(0.1550737 -0.2187796 -7.351389e-21)
(-1.637152 0.8365871 7.412497e-21)
(-2.944657 1.45877 -2.502885e-18)
(-4.648316 2.08795 -4.005473e-18)
(-7.26895 2.951349 0)
(-9.805377 3.699818 -5.478092e-20)
(-10.45659 3.80051 -7.62493e-18)
(-4.190564 1.729221 6.145649e-18)
(5.251 -1.182562 0)
(2.805408 -0.9086276 -2.557496e-18)
(-2.578332 0.07128669 -2.020965e-20)
(-4.770357 0.5443224 2.938884e-18)
(-4.475087 0.4417926 -1.562267e-18)
(-2.663392 0.08491491 1.426042e-21)
(3.31825 0.2171298 -3.436679e-19)
(8.452533 0.8155882 1.321469e-18)
(11.27288 1.45738 -2.137498e-20)
(12.65096 2.098581 2.096164e-20)
(13.36059 2.759736 0)
(13.7373 3.420438 -5.414045e-18)
(13.89813 4.054046 -5.392275e-18)
(13.87238 4.648394 0)
(13.72378 5.20758 -1.029837e-17)
(13.47629 5.730816 1.003366e-17)
(13.1802 6.230544 9.668353e-18)
(12.82678 6.691151 3.504891e-20)
(12.41154 7.108238 -8.708531e-18)
(11.94295 7.477031 0)
(11.43043 7.79893 0)
(10.88349 8.070259 6.880443e-18)
(10.30041 8.283239 6.237076e-18)
(9.699274 8.448264 4.042047e-20)
(9.086654 8.563656 4.73748e-18)
(8.450422 8.611515 8.080117e-18)
(7.803275 8.599747 3.287134e-18)
(7.153398 8.531458 2.477442e-18)
(6.513869 8.415463 -1.663645e-20)
(5.881896 8.242502 0)
(5.255244 8.006529 1.546952e-19)
(4.647015 7.72332 0)
(4.055713 7.378815 1.418462e-18)
(3.488545 6.979901 -2.910651e-20)
(2.955429 6.536585 -2.66752e-21)
(2.456132 6.046816 1.267869e-20)
(1.995252 5.515238 -4.242134e-18)
(1.578199 4.949692 -1.999217e-20)
(1.205794 4.347634 2.735731e-18)
(0.8796605 3.710157 2.978962e-18)
(0.6050065 3.051503 0)
(0.3816131 2.377554 0)
(0.21342 1.683264 3.536111e-18)
(0.09680989 0.9779752 -1.128493e-22)
(0.03546118 0.2954238 9.495166e-19)
(0.0227497 -0.3478116 1.732785e-21)
(0.06364964 -1.052771 -7.083319e-21)
(0.1555017 -1.807622 -1.749504e-18)
(0.3057818 -2.553591 0)
(0.5126172 -3.273773 3.112528e-18)
(0.7726245 -3.965048 0)
(1.084141 -4.626285 -2.584805e-18)
(1.445057 -5.256344 2.25753e-18)
(1.85436 -5.85362 1.654391e-20)
(2.308703 -6.416854 3.229073e-18)
(2.80504 -6.937231 8.230895e-21)
(3.338888 -7.412555 -1.749353e-18)
(3.907544 -7.844451 -9.383134e-19)
(4.508489 -8.227137 3.832078e-21)
(5.139857 -8.563297 7.690021e-19)
(5.791379 -8.849256 -1.642132e-18)
(6.459438 -9.079879 2.301717e-20)
(7.133152 -9.24192 6.914592e-21)
(7.817827 -9.350522 -4.241946e-18)
(8.509126 -9.405808 0)
(9.198156 -9.399513 1.179181e-17)
(9.88766 -9.342805 6.659944e-18)
(10.55763 -9.221214 1.159607e-19)
(11.20462 -9.037478 -8.38146e-18)
(11.82479 -8.794854 0)
(12.41712 -8.497416 0)
(12.98072 -8.153615 0)
(13.50691 -7.761265 0)
(13.98571 -7.321361 1.170879e-17)
(14.41413 -6.837811 1.234392e-17)
(14.79284 -6.315401 2.944697e-20)
(15.11654 -5.761677 -1.323992e-17)
(15.36743 -5.173413 -6.756657e-18)
(15.54038 -4.557435 -6.980281e-18)
(15.58126 -3.908877 5.461406e-20)
(15.4646 -3.232545 7.123978e-18)
(15.17335 -2.540114 3.668237e-18)
(14.65531 -1.845778 -2.834413e-20)
(13.76053 -1.182284 -6.868429e-21)
(12.10194 -0.6011117 4.496791e-19)
(8.815306 -0.1397304 -8.710533e-19)
(3.132893 0.07952965 -2.114143e-20)
(0.3298631 0.1967021 1.508096e-20)
(-0.4273715 -0.2372736 3.890875e-18)
(-6.880914 -1.786896 3.21641e-20)
(-9.983259 -2.556524 0)
(-7.313825 -1.976206 -6.737994e-18)
(-4.74783 -1.383573 -4.966387e-18)
(-2.429358 -0.7311913 -4.174279e-21)
(-0.4921723 0.01455719 6.449333e-18)
(4.574154 2.36445 -3.020802e-18)
(6.53893 3.231836 0)
(-2.433574 -2.027472 0)
(-9.058929 -6.108547 -1.478619e-17)
(-8.846318 -6.077158 0)
(-7.114831 -5.271469 7.043341e-20)
(-5.44707 -4.329787 -7.840275e-18)
(-3.808232 -3.240446 -5.485333e-18)
(-2.216686 -1.971593 2.043033e-20)
(-0.3532367 -0.2164013 -3.427896e-18)
(1.711018 1.896426 -1.59223e-20)
(2.391783 2.716973 1.852932e-18)
(1.740261 2.178801 9.533862e-19)
(1.128079 1.539871 1.074437e-18)
(0.5677969 0.7632764 1.902288e-18)
(0.1356372 0.1812794 0)
(0.2763094 0.5557706 -1.66024e-20)
(0.9042675 1.988276 -4.633597e-18)
(1.592842 3.631852 0)
(1.956096 4.36395 7.557386e-18)
(0.00611735 -0.5766902 -5.267005e-20)
(-1.221507 -3.37683 2.52894e-20)
(0.1161966 1.212836 3.18204e-18)
(0.5888089 2.632515 -1.711762e-21)
(0.2174287 0.7867364 0)
(-0.2670422 -3.697588 1.736198e-18)
(-0.3793909 -6.738627 1.354549e-20)
(-0.2474705 -7.878259 3.493489e-21)
(0.01129969 -8.012517 -4.749184e-21)
(0.000213612 -8.205186 -3.445619e-19)
(0.2946738 -7.631626 6.209307e-19)
(0.5350731 -6.917778 0)
(0.7039475 -6.091625 9.433924e-19)
(0.8001116 -5.20361 0)
(0.8255829 -4.311932 2.796441e-18)
(0.7981001 -3.471653 9.23564e-21)
(0.7208628 -2.713671 -9.323088e-21)
(0.6058165 -2.047779 -2.208132e-18)
(0.5047693 -1.503721 -2.283205e-18)
(0.4926992 -1.21077 0)
(0.8480978 -1.423007 2.065781e-20)
(1.677793 -2.692531 9.724974e-22)
(1.871811 -3.034102 -2.779642e-18)
(1.555491 -2.503824 -5.396101e-18)
(1.134089 -1.797399 2.450848e-18)
(0.4369207 -0.8014512 -2.291608e-18)
(-0.3105457 0.1589452 -1.845972e-20)
(-0.5667669 0.5907102 0)
(-0.4448738 0.5863248 0)
(0.08615989 0.1099743 0)
(0.8871398 -0.5540026 1.020448e-18)
(2.515521 -1.792329 9.738058e-22)
(3.882914 -2.830834 -9.768852e-22)
(2.35288 -1.924604 3.73736e-22)
(0.05631817 -0.443038 -3.799764e-22)
(-1.18243 0.4179859 0)
(-2.200281 0.9064031 0)
(-3.573188 1.2944 6.566524e-18)
(-5.887048 1.936437 6.468023e-20)
(-8.317362 2.717206 -6.343273e-20)
(-9.853185 3.446901 6.312701e-18)
(-7.316697 3.0653 4.557288e-18)
(3.098283 -0.2732565 -1.575826e-20)
(2.97434 -0.9987011 -2.039396e-18)
(1.949934 -0.7682327 1.820535e-18)
(0.2933418 -0.2582771 3.107257e-21)
(1.476754 -0.0892034 1.250364e-18)
(6.747114 0.3093582 0)
(13.42712 0.7892627 2.268914e-19)
(16.68682 1.183761 1.850208e-18)
(17.41703 1.576407 1.988523e-18)
(17.53755 2.104681 2.068987e-18)
(17.46452 2.721963 -6.542565e-20)
(17.29655 3.362673 4.316267e-18)
(17.0598 4.00023 -3.298868e-20)
(16.77067 4.633491 0)
(16.42943 5.243934 8.206431e-18)
(16.03933 5.833909 0)
(15.60146 6.393044 -5.808849e-20)
(15.11183 6.908714 5.822162e-20)
(14.56707 7.377871 6.954551e-18)
(13.97486 7.794002 -4.847581e-20)
(13.34244 8.156765 6.017554e-18)
(12.67745 8.462469 -5.536528e-18)
(11.98338 8.708191 0)
(11.27054 8.902132 3.188973e-20)
(10.54587 9.039763 -3.888588e-18)
(9.805324 9.108463 -6.424175e-18)
(9.053747 9.109852 0)
(8.303411 9.053862 -1.990509e-18)
(7.563247 8.941795 -7.968492e-21)
(6.834116 8.766386 6.9857e-19)
(6.117037 8.52705 -1.841226e-21)
(5.418414 8.229886 1.863178e-21)
(4.743731 7.870838 -1.151554e-18)
(4.09579 7.454028 1.766261e-18)
(3.485143 6.984395 0)
(2.912959 6.467336 0)
(2.384384 5.906768 -1.637268e-20)
(1.903597 5.30446 0)
(1.473578 4.661943 0)
(1.096238 3.982263 0)
(0.7764059 3.276165 -2.64383e-18)
(0.5125722 2.554161 2.116052e-20)
(0.3159551 1.808228 1.161808e-20)
(0.1750489 1.051709 -5.683144e-21)
(0.09851063 0.3148498 -7.80123e-19)
(0.08406546 -0.3860168 3.108235e-21)
(0.1445934 -1.144578 -7.538504e-19)
(0.2568881 -1.950953 1.424618e-18)
(0.4373109 -2.746749 1.081716e-20)
(0.6821833 -3.514425 -2.521575e-18)
(0.9868576 -4.252495 -3.663196e-20)
(1.35031 -4.960029 2.139802e-18)
(1.768858 -5.631102 -1.878898e-18)
(2.242917 -6.265592 0)
(2.76507 -6.863273 -5.274145e-18)
(3.333853 -7.41 -1.365485e-20)
(3.946252 -7.909124 1.41898e-18)
(4.596505 -8.364144 7.669314e-19)
(5.28224 -8.761943 0)
(6.001829 -9.105692 0)
(6.746054 -9.400092 0)
(7.508556 -9.627468 1.807077e-20)
(8.283938 -9.784716 -1.794723e-20)
(9.071644 -9.883027 3.33106e-18)
(9.866286 -9.920646 5.58548e-21)
(10.66383 -9.893714 -4.7681e-18)
(11.45851 -9.807143 -7.894783e-20)
(12.23999 -9.65606 1.20655e-17)
(13.00015 -9.437769 6.660381e-18)
(13.73467 -9.15524 -5.403131e-20)
(14.44633 -8.814968 7.693036e-18)
(15.1304 -8.421453 6.269635e-20)
(15.77843 -7.970721 -7.080439e-20)
(16.38301 -7.468333 7.049524e-20)
(16.94059 -6.916844 7.726036e-20)
(17.45109 -6.322912 1.013956e-17)
(17.91036 -5.691013 -7.985785e-20)
(18.30501 -5.02313 0)
(18.63717 -4.324999 0)
(18.93543 -3.611974 0)
(19.18416 -2.893712 0)
(19.36391 -2.176634 2.160858e-20)
(19.45608 -1.463867 -2.153878e-20)
(19.42919 -0.7836819 1.327051e-18)
(19.19083 -0.2256576 5.075874e-21)
(18.18904 0.1496895 0)
(14.38373 0.3688263 -1.2176e-18)
(9.032619 0.5261877 2.56786e-18)
(-0.5329603 -0.4987978 -2.911914e-18)
(-6.384462 -1.851085 6.044e-20)
(-3.883779 -0.9614243 -8.590345e-18)
(-1.522409 0.06871229 4.889177e-20)
(0.4152596 0.5396679 0)
(1.57069 0.8347801 6.719111e-18)
(2.362207 1.395979 -1.002594e-17)
(5.679685 3.18052 -2.32437e-18)
(6.726235 2.946486 2.405947e-20)
(-5.925121 -4.706989 -1.075777e-19)
(-9.725883 -6.434798 7.634963e-20)
(-8.65344 -5.421556 0)
(-7.059022 -4.806346 8.538949e-18)
(-5.443247 -3.969156 6.250202e-18)
(-3.872495 -3.007136 1.456792e-20)
(-2.38185 -1.840668 -2.833779e-18)
(-0.7166033 -0.1684008 2.722137e-18)
(1.496382 2.092761 5.823284e-19)
(3.182354 3.809734 -4.081209e-21)
(2.778267 3.394381 -7.543688e-19)
(1.228715 1.495865 -6.417015e-21)
(0.207519 0.09141239 -1.561907e-18)
(-0.177701 -0.32079 2.16341e-20)
(-0.01236772 0.2100763 8.002428e-21)
(0.5864309 1.726089 -2.923086e-20)
(1.202998 3.255179 0)
(2.380565 5.194947 0)
(1.080138 1.475191 -5.455844e-18)
(-0.6686507 -1.702811 0)
(-0.2224853 0.6974988 -5.178154e-18)
(0.3922344 1.430398 2.961352e-18)
(-0.1909896 -3.449628 -2.111364e-20)
(-0.7163311 -8.012531 1.983081e-20)
(-0.7992029 -9.02313 1.404076e-18)
(-0.611351 -8.781131 -7.464012e-19)
(-0.3159675 -8.555828 -3.555391e-19)
(0.1313116 -8.080885 2.776226e-19)
(0.3612896 -7.491781 -5.070941e-19)
(0.5472201 -6.761532 1.297811e-20)
(0.6701072 -5.935104 -7.88284e-19)
(0.7374369 -5.070454 0)
(0.7558517 -4.239543 -2.288934e-18)
(0.7572813 -3.516715 -1.512614e-20)
(0.7539158 -2.961156 9.42561e-19)
(0.7739218 -2.59643 1.799744e-18)
(0.8639949 -2.401031 1.853542e-18)
(1.034656 -2.35037 1.988761e-18)
(1.436922 -2.450541 -1.555002e-20)
(1.816015 -2.83781 0)
(1.703802 -2.735356 0)
(1.440859 -2.410872 2.18052e-18)
(0.8935983 -1.652426 2.030529e-18)
(0.1072322 -0.6061585 1.906587e-18)
(-0.8051735 0.5961623 3.004381e-20)
(-0.9664054 0.9959411 0)
(-0.7238877 0.9227299 1.973302e-18)
(-0.2805908 0.5806503 1.550164e-18)
(0.4821386 -0.0008912274 -8.363585e-19)
(1.91375 -1.095519 0)
(3.205073 -2.31497 -6.145768e-20)
(1.809138 -1.807603 0)
(0.3145586 -0.8178139 -2.574099e-19)
(-0.1870484 -0.2282887 0)
(-0.6957186 0.06202816 -1.776248e-18)
(-1.696013 0.2602271 -5.485984e-18)
(-4.015235 0.85588 0)
(-6.39052 1.854995 0)
(-6.968905 2.696898 4.598929e-20)
(-6.722353 3.457066 -3.619689e-18)
(0.7478219 0.8164862 1.591551e-18)
(5.562616 -1.314435 3.364409e-18)
(8.923731 -1.605985 -1.374238e-18)
(9.953277 -0.993899 1.764425e-18)
(11.64927 -0.1147043 -8.658098e-19)
(14.92505 0.6854783 0)
(17.32789 1.208953 0)
(17.31149 1.487019 -1.499137e-18)
(17.04441 1.934935 -1.66113e-18)
(17.01493 2.557689 -3.379442e-18)
(16.93533 3.218363 3.416791e-18)
(16.80323 3.886823 8.150558e-20)
(16.60449 4.538107 -5.449841e-20)
(16.34079 5.162034 0)
(16.00427 5.749769 0)
(15.6097 6.308148 6.43029e-18)
(15.16984 6.837722 -6.203399e-18)
(14.68082 7.321904 0)
(14.1395 7.758544 0)
(13.55418 8.140915 7.948098e-20)
(12.93034 8.47153 -5.016523e-18)
(12.27692 8.744501 0)
(11.59768 8.956596 -3.98558e-18)
(10.90068 9.119402 -3.535517e-18)
(10.1947 9.226876 -3.026113e-18)
(9.476583 9.264776 2.578827e-18)
(8.747449 9.23803 -2.862309e-20)
(8.020536 9.15713 1.57784e-18)
(7.3045 9.022639 0)
(6.602004 8.825567 -5.687968e-19)
(5.913417 8.566071 3.392848e-21)
(5.242421 8.252016 7.909749e-21)
(4.599721 7.875705 -1.011792e-18)
(3.980489 7.446164 0)
(3.397894 6.966152 -1.980856e-18)
(2.85191 6.441665 -2.050256e-20)
(2.349874 5.875547 2.869709e-18)
(1.892915 5.270528 1.639908e-18)
(1.485113 4.627224 -1.826495e-18)
(1.127034 3.948798 -2.000192e-18)
(0.8231997 3.245282 2.150541e-18)
(0.5704923 2.527811 -2.289787e-18)
(0.3863437 1.786117 -1.169128e-18)
(0.2478509 1.035183 2.456776e-18)
(0.1693589 0.3036608 1.275755e-18)
(0.1538656 -0.3981779 2.560952e-21)
(0.2243967 -1.150736 6.240341e-19)
(0.3313327 -1.948677 -9.301394e-21)
(0.5026053 -2.73528 0)
(0.7340819 -3.495523 -1.575278e-20)
(1.020447 -4.228546 -1.329921e-20)
(1.363067 -4.932724 -1.694822e-18)
(1.756642 -5.602654 3.086482e-18)
(2.207146 -6.236893 -1.336094e-18)
(2.70073 -6.838036 2.140704e-18)
(3.238663 -7.390698 1.507398e-20)
(3.822226 -7.897193 0)
(4.441055 -8.363645 6.804439e-19)
(5.094925 -8.775146 -2.49988e-21)
(5.784695 -9.133952 4.144436e-19)
(6.499016 -9.447049 0)
(7.230697 -9.696206 1.555086e-18)
(7.978527 -9.876042 0)
(8.739399 -10.00009 -5.335334e-20)
(9.507233 -10.06647 3.241481e-18)
(10.28206 -10.06826 0)
(11.05356 -10.01456 -4.406119e-18)
(11.81415 -9.898236 -4.949227e-18)
(12.55585 -9.715864 -5.46065e-18)
(13.27398 -9.469761 0)
(13.9732 -9.164841 -1.285316e-17)
(14.64684 -8.80836 1.029458e-19)
(15.28731 -8.393969 0)
(15.88697 -7.928573 0)
(16.44242 -7.412988 0)
(16.95435 -6.852757 8.215931e-18)
(17.41499 -6.258815 -8.505418e-18)
(17.81618 -5.626361 0)
(18.15303 -4.957475 0)
(18.42466 -4.262215 4.477804e-18)
(18.63613 -3.542281 3.571627e-20)
(18.77944 -2.803694 0)
(18.84435 -2.059077 0)
(18.84713 -1.321385 -2.21458e-18)
(18.82773 -0.6387028 2.620582e-19)
(19.09977 -0.1160829 0)
(18.77624 0.2754102 8.985886e-19)
(16.40528 0.5290143 4.295201e-20)
(5.927888 -0.3336808 -7.629153e-21)
(-3.0355 -1.071454 -4.506098e-20)
(2.273145 0.9794072 7.116942e-18)
(4.800116 2.110982 4.525457e-18)
(6.279733 2.567577 5.993598e-20)
(6.745905 2.700269 3.525686e-20)
(6.396646 3.014136 3.884894e-18)
(6.677034 3.643557 1.929844e-18)
(4.711522 1.195262 0)
(-6.377552 -5.873797 5.92729e-18)
(-7.756261 -5.519172 0)
(-7.59824 -4.56346 -1.212622e-19)
(-6.198878 -4.030914 -6.949543e-18)
(-4.825127 -3.268337 6.794742e-20)
(-3.506466 -2.471105 -7.012859e-20)
(-2.290408 -1.498676 2.332e-18)
(-0.9780567 -0.02438285 -1.096951e-18)
(1.088325 2.080787 -4.657342e-19)
(3.123329 3.817917 -6.244721e-19)
(2.867746 3.24972 -5.977449e-19)
(0.9485553 0.7282445 0)
(-0.05295016 -0.530296 -6.014807e-21)
(-0.3829255 -0.6846533 0)
(-0.2672309 -0.01753532 -2.501343e-18)
(0.2381176 1.460875 3.076509e-18)
(0.8502288 2.971204 0)
(2.084383 4.214951 0)
(1.77797 2.590926 8.670367e-18)
(0.1661322 0.5602179 -2.005315e-18)
(-0.6056736 -0.8461417 4.329455e-18)
(-0.09686904 -2.579304 -1.752857e-20)
(-0.4235429 -7.015394 1.571178e-20)
(-0.6375735 -8.924817 0)
(-0.6047866 -8.601167 -1.158585e-18)
(-0.4052801 -8.62282 1.214242e-18)
(-0.1234604 -8.478582 2.960659e-19)
(-0.0204183 -8.090778 -4.554429e-19)
(0.2205684 -7.480595 -1.21456e-20)
(0.4127634 -6.718341 1.223423e-20)
(0.5336045 -5.853756 -1.822066e-20)
(0.6003234 -4.953751 1.855101e-20)
(0.6251232 -4.101853 9.401355e-19)
(0.6462688 -3.379041 -1.24397e-20)
(0.6715648 -2.856589 -7.770022e-19)
(0.7371189 -2.58425 2.370721e-20)
(0.9028791 -2.528303 -1.500507e-18)
(1.120665 -2.554673 -3.521735e-20)
(1.526282 -2.611513 0)
(1.760819 -2.731378 0)
(1.706331 -2.791604 -1.924322e-18)
(1.437379 -2.545474 -1.817848e-18)
(0.8198478 -1.796001 -3.309334e-18)
(-0.02857901 -0.73168 -1.544497e-18)
(-1.01964 0.6289361 0)
(-1.453163 1.524361 0)
(-1.305098 1.597449 -3.213604e-18)
(-0.7814356 1.18465 -2.517932e-18)
(0.1054005 0.5219792 7.092184e-21)
(1.245202 -0.3138523 -8.138414e-21)
(2.189678 -1.494648 1.21405e-19)
(1.319848 -1.631139 1.375788e-19)
(0.9731638 -1.323267 2.183273e-19)
(1.216299 -1.009285 8.695942e-19)
(1.115611 -0.9100524 1.377064e-18)
(0.06019027 -0.7771626 2.294443e-18)
(-2.146816 -0.3169297 0)
(-4.166066 0.7986769 -1.307137e-19)
(-4.500929 1.902619 -9.56354e-18)
(-4.317613 3.297785 7.772644e-20)
(1.197717 1.401119 6.921998e-20)
(9.997002 -1.489217 -1.262581e-18)
(14.27847 -1.959463 -1.006979e-18)
(15.80205 -1.396253 -5.523184e-20)
(16.92634 -0.2827673 -6.381881e-19)
(17.55901 0.6575238 -2.892926e-19)
(17.30964 1.054216 -2.296522e-21)
(16.87193 1.188552 0)
(17.0111 1.571041 -2.119638e-20)
(17.11372 2.125813 1.421817e-18)
(17.10491 2.739877 -5.647678e-18)
(17.00221 3.394874 4.406235e-20)
(16.81976 4.036792 -2.843811e-18)
(16.55689 4.668959 -8.583116e-20)
(16.22565 5.263223 -5.386757e-18)
(15.834 5.834221 -8.233318e-21)
(15.39581 6.382968 5.118129e-18)
(14.90981 6.883884 -4.796637e-18)
(14.37054 7.340976 0)
(13.7864 7.743646 6.416053e-20)
(13.16155 8.097541 -6.454169e-20)
(12.50541 8.394918 0)
(11.82153 8.632331 3.283899e-18)
(11.11878 8.820318 6.751884e-20)
(10.40584 8.952909 2.529564e-18)
(9.68087 9.014644 -2.058514e-18)
(8.946168 9.008464 -1.644235e-18)
(8.210104 8.949638 -1.274798e-18)
(7.485682 8.835731 -8.161904e-19)
(6.77517 8.657637 3.172261e-21)
(6.077157 8.416574 -3.203662e-21)
(5.396192 8.120569 0)
(4.744165 7.760587 8.220945e-19)
(4.115005 7.34653 -2.236161e-20)
(3.523438 6.880347 1.649648e-18)
(2.969023 6.368375 1.980582e-18)
(2.461089 5.812909 -2.327688e-18)
(1.998092 5.217859 -1.345745e-18)
(1.585139 4.583727 -3.515451e-21)
(1.222367 3.91401 1.640418e-18)
(0.9166974 3.217931 2.820294e-20)
(0.6601535 2.508107 1.834082e-18)
(0.4773376 1.771537 1.535584e-20)
(0.3366353 1.024781 -1.026083e-18)
(0.255117 0.2974486 -5.195918e-19)
(0.237856 -0.4097117 -6.353635e-23)
(0.3198809 -1.157423 4.951749e-19)
(0.4272649 -1.946999 7.61742e-21)
(0.5987043 -2.724759 -9.119789e-19)
(0.8329974 -3.476373 1.711542e-18)
(1.122629 -4.199792 0)
(1.469099 -4.892974 -3.903063e-21)
(1.866574 -5.550853 -1.269966e-18)
(2.32363 -6.172154 1.12549e-18)
(2.822168 -6.760832 -1.84812e-18)
(3.369881 -7.29813 1.903864e-20)
(3.964764 -7.78879 -1.886059e-20)
(4.590255 -8.241259 -5.592351e-19)
(5.254426 -8.635408 0)
(5.95877 -8.974244 -3.474185e-19)
(6.680784 -9.270933 2.459605e-20)
(7.421507 -9.500733 -6.448509e-20)
(8.18011 -9.659092 -1.657099e-18)
(8.950058 -9.761924 -2.227103e-18)
(9.726381 -9.805792 -1.822976e-20)
(10.50907 -9.783917 3.053347e-18)
(11.2894 -9.704323 -5.150848e-20)
(12.05629 -9.562771 -3.942277e-18)
(12.80371 -9.353379 0)
(13.5286 -9.077754 4.757371e-18)
(14.23166 -8.746035 5.219737e-18)
(14.90517 -8.366635 5.400343e-18)
(15.54489 -7.928212 -5.736583e-18)
(16.14224 -7.440468 6.136016e-18)
(16.69494 -6.902493 0)
(17.20373 -6.320578 -1.344668e-17)
(17.66034 -5.709928 1.403705e-17)
(18.05649 -5.060252 -1.662716e-19)
(18.38743 -4.380458 -3.607728e-18)
(18.65625 -3.670969 -3.671718e-18)
(18.85418 -2.952593 0)
(18.97215 -2.234027 1.889376e-18)
(18.99683 -1.517027 -1.871222e-18)
(18.9174 -0.8397266 9.184965e-19)
(18.72299 -0.2439425 -2.251983e-19)
(18.58372 0.1641953 -4.154918e-19)
(18.73233 0.4301062 1.190507e-20)
(19.39671 0.4462562 -1.355558e-18)
(13.95506 -0.1655714 -1.432695e-20)
(7.059167 0.2298523 0)
(8.603173 2.667302 0)
(10.33826 3.973259 -8.931562e-20)
(11.06123 4.268747 9.123862e-20)
(10.9762 4.203211 0)
(9.900827 4.250334 0)
(8.059431 3.925652 0)
(3.379873 -0.4554821 9.616541e-19)
(-5.174965 -6.16772 -9.781021e-18)
(-6.334814 -4.753945 8.804549e-18)
(-6.363372 -3.466571 -7.204178e-18)
(-5.12142 -3.021745 -1.847665e-19)
(-3.92052 -2.315542 4.335198e-18)
(-2.8845 -1.72425 3.085565e-18)
(-2.000727 -0.996807 2.261198e-20)
(-1.134663 0.2313376 -1.163321e-20)
(0.5876433 2.073268 -1.016731e-20)
(2.75859 3.541837 -8.065322e-21)
(2.561472 2.491213 5.031792e-19)
(0.657496 -0.143159 0)
(-0.1966576 -0.9365441 1.047831e-18)
(-0.5388581 -0.8927423 -1.618276e-18)
(-0.5157392 -0.1894478 2.053013e-18)
(-0.1374364 1.16821 0)
(0.412541 2.466361 0)
(1.709535 3.175782 -6.337078e-20)
(2.022363 2.643627 -3.566044e-18)
(0.5663021 0.9784481 1.653025e-18)
(-0.8448216 -3.360948 -1.753319e-18)
(-0.4436832 -6.016079 0)
(-0.4614694 -8.497493 0)
(-0.6025929 -8.591349 0)
(-0.7099443 -8.506429 -9.462713e-19)
(-0.5619931 -8.661993 -5.169324e-19)
(-0.2964442 -8.488133 -4.865875e-19)
(-0.06251443 -8.19543 1.86287e-19)
(0.144028 -7.573634 0)
(0.3106514 -6.782481 -5.960581e-19)
(0.4059841 -5.869282 0)
(0.464018 -4.89955 -8.858794e-19)
(0.4803355 -3.971079 0)
(0.5025394 -3.175873 0)
(0.5309888 -2.584821 -6.306159e-19)
(0.6051036 -2.268232 -1.223948e-18)
(0.8230488 -2.272751 1.270218e-18)
(1.082353 -2.399645 -1.338957e-18)
(1.523672 -2.540399 1.391996e-18)
(1.802904 -2.756702 0)
(1.788737 -2.934493 3.177951e-18)
(1.407151 -2.676823 1.487054e-18)
(0.7240386 -1.964238 1.390616e-18)
(-0.1546189 -0.9396777 -4.099451e-20)
(-1.109175 0.3679557 -4.112047e-20)
(-1.663462 1.592552 -1.361271e-18)
(-1.756235 2.132553 2.652762e-18)
(-1.264213 1.852863 1.021848e-18)
(-0.2327824 1.050132 1.166616e-20)
(0.8397701 0.2426161 1.540958e-19)
(1.375698 -0.7523836 -5.704403e-20)
(1.113138 -1.478871 -1.153858e-19)
(1.956245 -1.869675 0)
(2.7921 -1.805309 -8.228803e-21)
(2.865285 -1.845348 0)
(1.889292 -1.89608 1.751595e-18)
(0.1707956 -1.666219 3.414632e-18)
(-1.347122 -0.4811016 6.732037e-18)
(-1.543228 1.068947 -2.850805e-19)
(-0.845908 2.793797 9.621434e-20)
(3.920494 1.710095 -2.010844e-18)
(13.20049 -1.208146 0)
(15.89671 -1.852035 -7.533405e-19)
(16.88454 -1.468066 -1.039803e-18)
(17.50647 -0.4023822 1.037811e-18)
(17.21158 0.579892 2.312303e-19)
(16.69149 1.076218 0)
(16.62032 1.400948 5.13395e-19)
(16.76849 1.902443 0)
(16.83101 2.498537 0)
(16.8055 3.125145 2.357507e-18)
(16.69808 3.773391 -3.604942e-20)
(16.518 4.395561 4.354777e-20)
(16.25951 5.005119 -2.24619e-18)
(15.93407 5.570411 4.523801e-18)
(15.54837 6.111689 -4.310695e-18)
(15.11921 6.631344 -4.14175e-18)
(14.64873 7.092311 1.970001e-19)
(14.12305 7.516152 -1.19573e-19)
(13.55605 7.883769 -1.040468e-19)
(12.9478 8.20792 -2.972449e-18)
(12.31057 8.477475 -2.989591e-18)
(11.64623 8.687572 -7.68782e-20)
(10.96084 8.854437 2.42175e-18)
(10.26982 8.965655 0)
(9.568227 9.006408 1.695021e-18)
(8.851346 8.985918 1.353499e-18)
(8.134008 8.914821 9.628385e-19)
(7.430605 8.790055 6.715305e-19)
(6.740088 8.603709 0)
(6.062155 8.354889 0)
(5.397932 8.056103 -3.885561e-19)
(4.765157 7.69276 0)
(4.149833 7.279624 0)
(3.573654 6.815198 1.417681e-18)
(3.035154 6.305812 -3.30229e-20)
(2.536294 5.756286 -1.169471e-20)
(2.080545 5.167051 -3.640792e-20)
(1.675319 4.53881 2.503643e-18)
(1.320974 3.874972 0)
(1.024995 3.184804 0)
(0.7647626 2.486113 1.550885e-18)
(0.5873799 1.756196 7.719835e-19)
(0.4437752 1.013628 8.268683e-19)
(0.358629 0.2919396 -4.250741e-19)
(0.3399213 -0.4206431 0)
(0.4378005 -1.160248 -2.882942e-22)
(0.5465613 -1.941054 2.417785e-20)
(0.7078043 -2.711012 7.23352e-19)
(0.934508 -3.45228 -1.402849e-18)
(1.218255 -4.163439 -3.905941e-20)
(1.558634 -4.844706 1.183703e-18)
(1.949159 -5.491834 3.463226e-20)
(2.399089 -6.10438 1.820345e-18)
(2.88239 -6.688503 -1.528818e-20)
(3.41528 -7.221706 -1.224857e-18)
(3.999778 -7.709766 3.161324e-20)
(4.609239 -8.163597 0)
(5.251626 -8.56129 1.532714e-19)
(5.940727 -8.903381 0)
(6.647445 -9.20593 0)
(7.365171 -9.446238 -1.012834e-18)
(8.103565 -9.614766 2.728232e-18)
(8.855947 -9.728961 6.038299e-20)
(9.611053 -9.788177 -1.164887e-19)
(10.37326 -9.783 -2.508228e-18)
(11.13255 -9.724487 -2.820791e-18)
(11.87885 -9.605633 3.355025e-18)
(12.60452 -9.423065 -3.624746e-18)
(13.30737 -9.177339 -7.685175e-20)
(13.99309 -8.87325 0)
(14.64883 -8.526293 -4.674942e-18)
(15.27305 -8.119813 9.828417e-18)
(15.85587 -7.667685 -5.220192e-18)
(16.39498 -7.16637 0)
(16.89395 -6.620673 9.490364e-20)
(17.34188 -6.046276 -5.623952e-18)
(17.73175 -5.429264 -8.976337e-20)
(18.05961 -4.779377 1.436085e-19)
(18.32493 -4.095592 -9.376226e-20)
(18.52416 -3.394632 0)
(18.6448 -2.690507 -3.012224e-18)
(18.67672 -1.978681 1.456672e-18)
(18.61742 -1.279707 7.225567e-19)
(18.46107 -0.6246171 -1.130291e-20)
(18.29898 -0.09700287 3.376849e-19)
(18.02401 0.325726 6.303053e-19)
(19.16975 0.2986412 0)
(18.645 0.0007183693 1.16585e-18)
(16.30451 1.351426 -1.05704e-19)
(16.02254 4.073616 3.667147e-18)
(15.39125 5.314759 0)
(14.60396 5.361374 0)
(13.85552 5.089223 0)
(12.45889 4.881223 2.833865e-20)
(9.614378 3.917334 1.198771e-18)
(3.260827 -1.653957 -8.759223e-19)
(-3.184429 -5.944132 4.199628e-18)
(-4.987287 -4.065043 -1.501333e-17)
(-4.978081 -2.275533 6.104076e-18)
(-4.026086 -1.995636 0)
(-2.856299 -1.230994 -3.62207e-18)
(-2.039019 -0.8332656 -2.545957e-18)
(-1.478974 -0.3475698 1.680786e-18)
(-1.070712 0.6537313 -3.66912e-20)
(0.05817544 2.019091 -1.118227e-20)
(2.23166 2.991815 1.248493e-20)
(2.079247 1.385621 0)
(0.4638162 -0.8636244 -4.833603e-19)
(-0.2580323 -1.168428 3.34234e-20)
(-0.645063 -1.010701 2.624765e-18)
(-0.7712373 -0.3738948 -1.734165e-18)
(-0.5445061 0.7661682 1.353665e-19)
(-0.1007877 1.768897 -2.931608e-18)
(1.323781 2.16084 0)
(1.95479 1.963489 -3.027255e-18)
(0.6590873 -0.1027666 1.289109e-18)
(-0.8439385 -5.527741 -8.400456e-20)
(-0.5380526 -7.761517 1.425912e-18)
(-0.413429 -8.616233 -6.297679e-20)
(-0.5456845 -8.384703 2.232528e-20)
(-0.6157814 -8.657454 7.944213e-19)
(-0.4684019 -8.757922 -6.3461e-21)
(-0.2779525 -8.600487 7.192211e-21)
(-0.1403471 -8.376251 9.009248e-21)
(0.04229622 -7.759019 2.64537e-19)
(0.181858 -6.958156 4.864294e-19)
(0.2530288 -6.007785 -4.185753e-19)
(0.3078478 -4.965985 7.232931e-19)
(0.3137984 -3.930711 0)
(0.3352943 -3.009601 5.265621e-19)
(0.3726177 -2.309284 5.546455e-19)
(0.4594071 -1.896185 1.015141e-18)
(0.7293365 -1.895669 0)
(1.030347 -2.180699 0)
(1.559681 -2.460074 -1.145362e-18)
(1.865928 -2.777886 -3.929133e-20)
(1.779114 -2.946284 -1.271579e-18)
(1.277218 -2.690115 -1.232457e-18)
(0.5271667 -2.036373 -1.123502e-18)
(-0.394359 -1.070082 1.052717e-18)
(-1.327663 0.2079889 -1.026327e-18)
(-1.7748 1.457199 1.070536e-18)
(-1.885455 2.224472 -1.065953e-18)
(-1.474914 2.263714 0)
(-0.4297679 1.533611 0)
(0.6923507 0.5901038 -1.358327e-19)
(1.02392 -0.3304161 0)
(1.37014 -1.456516 -2.227131e-22)
(3.192655 -2.391567 -1.047713e-20)
(4.417917 -2.533946 -5.247514e-19)
(4.620848 -2.760221 -2.238806e-20)
(3.92995 -3.109117 1.186545e-20)
(2.876896 -3.163685 -2.700865e-18)
(2.06284 -2.027616 3.058119e-20)
(1.951882 0.01784847 3.484698e-18)
(3.096967 2.178765 -4.865255e-20)
(7.990814 1.866042 8.595194e-19)
(14.91765 -0.6812183 -2.55621e-20)
(15.46928 -1.544099 2.53826e-18)
(16.29814 -1.314765 2.271648e-20)
(16.8808 -0.3851239 -1.441264e-20)
(16.73401 0.4744101 -3.971147e-19)
(16.58437 0.9413291 -3.177884e-21)
(16.66245 1.239346 -4.256753e-19)
(16.79445 1.672417 -2.809491e-20)
(16.86722 2.210482 -8.802016e-19)
(16.84392 2.792729 1.837078e-18)
(16.73499 3.427169 -1.84432e-18)
(16.55566 4.041354 3.587023e-18)
(16.29829 4.661423 1.965922e-18)
(15.975 5.240552 0)
(15.58749 5.800849 0)
(15.15826 6.342158 3.358634e-18)
(14.68806 6.822527 3.198386e-18)
(14.16219 7.264456 0)
(13.59757 7.643728 -8.344855e-20)
(12.98922 7.981768 2.695814e-18)
(12.3492 8.269958 2.381825e-18)
(11.68577 8.491362 2.063105e-18)
(11.00624 8.663361 -5.367905e-20)
(10.3173 8.786325 -1.515949e-18)
(9.61324 8.842421 3.688962e-20)
(8.901078 8.827411 -3.723436e-20)
(8.192161 8.759554 -8.11119e-19)
(7.491913 8.643689 4.971163e-19)
(6.797968 8.472056 0)
(6.128271 8.227193 0)
(5.46693 7.938091 6.511951e-19)
(4.843288 7.580348 -8.259277e-21)
(4.232613 7.175645 -7.902123e-21)
(3.672098 6.715388 -1.093159e-18)
(3.142475 6.212909 -2.705225e-18)
(2.637548 5.680099 1.498944e-18)
(2.184925 5.103032 -1.777564e-18)
(1.7844 4.485471 -9.791365e-19)
(1.438381 3.830194 -3.331533e-20)
(1.150332 3.144258 0)
(0.8844934 2.459649 -1.21053e-18)
(0.7212573 1.739966 -4.068631e-20)
(0.5724548 1.00112 -6.872902e-19)
(0.4844549 0.2860637 3.640532e-19)
(0.4661533 -0.4309937 -3.169534e-23)
(0.5792476 -1.159334 -3.523021e-19)
(0.6802602 -1.934531 2.997377e-20)
(0.8356089 -2.693421 -6.307872e-19)
(1.053097 -3.416162 1.150316e-18)
(1.330406 -4.110229 -1.102106e-18)
(1.666366 -4.778191 2.832181e-21)
(2.053034 -5.413414 8.952745e-19)
(2.507474 -6.014213 -1.449755e-18)
(2.981822 -6.59258 1.229175e-18)
(3.503774 -7.12023 9.175267e-19)
(4.089135 -7.599719 8.488584e-21)
(4.706413 -8.041335 8.905605e-21)
(5.341457 -8.432076 -1.169901e-19)
(6.014082 -8.775332 -1.372438e-19)
(6.720874 -9.069505 1.949074e-20)
(7.437744 -9.299568 7.347231e-19)
(8.168304 -9.46182 -2.192798e-18)
(8.912899 -9.572262 1.389916e-18)
(9.673104 -9.613846 -5.753599e-20)
(10.4327 -9.598667 -2.018438e-18)
(11.1845 -9.536014 4.64317e-18)
(11.93108 -9.403612 8.519628e-20)
(12.65384 -9.210414 2.811514e-18)
(13.35703 -8.948305 -3.268598e-18)
(14.04461 -8.627191 1.012608e-19)
(14.69903 -8.26704 -3.69414e-18)
(15.3235 -7.841918 -3.771967e-18)
(15.90508 -7.373977 1.296695e-19)
(16.44503 -6.849699 -4.325251e-18)
(16.94404 -6.282372 4.462804e-18)
(17.39117 -5.688952 0)
(17.77858 -5.05501 0)
(18.10212 -4.385712 2.417388e-18)
(18.36214 -3.699666 2.41447e-18)
(18.55936 -3.004706 0)
(18.68151 -2.304427 1.289594e-18)
(18.71432 -1.612019 1.176316e-18)
(18.6525 -0.9604493 -6.055031e-19)