/*--------------------------------*- C++ -*----------------------------------*\
| =========                 |                                                 |
| \\      /  F ield         | OpenFOAM: The Open Source CFD Toolbox           |
|  \\    /   O peration     | Version:  2406                                  |
|   \\  /    A nd           | Website:  www.openfoam.com                      |
|    \\/     M anipulation  |                                                 |
\*---------------------------------------------------------------------------*/
FoamFile
{
    version     2.0;
    format      ascii;
    arch        "LSB;label=32;scalar=64";
    class       surfaceScalarField;
    location    "1.06";
    object      phi;
}
// * * * * * * * * * * * * * * * * * * * * * * * * * * * * * * * * * * * * * //

dimensions      [0 3 -1 0 0 0 0];

oriented        oriented;

internalField   nonuniform List<scalar> 
23794
(
0.006766052
-0.005893992
-0.0008720607
0.007297658
-0.0005316058
0.007234412
6.324629e-05
0.006179367
0.001055045
0.003848159
0.002331208
0.0007810562
0.003067103
0.0002745303
0.0005065259
-3.260451e-05
0.0003071348
-0.00313638
0.003103775
-0.005037847
0.001901467
-0.002973045
-0.002064802
-0.00043057
-0.002542475
0.001278242
-0.001708813
0.002139069
-0.0008608264
0.002484155
-0.0003450858
0.002331546
0.0001526089
0.001385414
0.0009461319
-0.0002628326
0.001648246
-0.002258816
0.001995983
-0.003768695
0.001509879
-0.00436674
0.0005980444
-0.00220586
-0.00216088
0.001117437
-0.003323297
0.003130581
-0.002013144
0.004475127
-0.001344546
0.006734403
-0.002259275
0.01006544
-0.003331035
0.01342676
-0.003361325
0.01155321
0.001873556
0.001680796
0.00987241
-0.006103569
0.007784365
-0.002444468
-0.003659101
0.002860699
-0.005305167
0.006168926
-0.003308227
0.006708426
-0.0005394992
0.004356365
0.002352061
0.001183729
0.003172635
-0.003716212
0.004899941
-0.00880668
0.005090468
-0.01189134
0.003084661
-0.01345408
0.00156274
-0.01433906
0.0008849791
-0.01491227
0.000573211
-0.01530068
0.0003884127
-0.01556485
0.0002641707
-0.01564123
7.637582e-05
-0.01563063
-1.059967e-05
-0.01557768
-5.29488e-05
-0.01547982
-9.785966e-05
-0.01536746
-0.0001123584
-0.0151971
-0.0001703633
-0.01498723
-0.0002098687
-0.01471965
-0.000267577
-0.0144296
-0.0002900571
-0.0141238
-0.0003057974
-0.01376441
-0.0003593891
-0.01338651
-0.0003778996
-0.01300222
-0.0003842937
-0.01255376
-0.0004484583
-0.01208354
-0.0004702204
-0.01158897
-0.0004945728
-0.01108926
-0.0004997018
-0.01056963
-0.0005196354
-0.01000053
-0.0005690978
-0.00944068
-0.0005598512
-0.008840608
-0.0006000716
-0.00822318
-0.0006174281
-0.007602202
-0.0006209775
-0.00697401
-0.0006281921
-0.006314504
-0.0006595061
-0.005654582
-0.0006599219
-0.004988416
-0.0006661665
-0.004310733
-0.0006776827
-0.003637911
-0.0006728219
-0.002981451
-0.0006564606
-0.002286259
-0.0006951916
-0.001599706
-0.0006865535
-0.0009056324
-0.0006940732
-0.0001335207
-0.0007721117
0.0006455997
-0.0007791204
0.001354663
-0.0007090638
0.002048734
-0.0006940704
0.002736435
-0.0006877013
0.003408483
-0.0006720476
0.004081114
-0.0006726314
0.004735175
-0.0006540607
0.005401116
-0.0006659408
0.006047146
-0.0006460305
0.006659393
-0.0006122471
0.00727533
-0.0006159366
0.007878132
-0.0006028025
0.00845823
-0.0005800972
0.009034313
-0.0005760832
0.009595208
-0.0005608955
0.01010305
-0.0005078403
0.010605
-0.0005019494
0.01109084
-0.0004858429
0.01153557
-0.0004447338
0.01197969
-0.0004441108
0.01237235
-0.0003926601
0.01273678
-0.0003644345
0.01306187
-0.0003250916
0.01334376
-0.0002818904
0.01361892
-0.0002751618
0.01385605
-0.0002371232
0.01405273
-0.0001966872
0.01420603
-0.0001532939
0.01431502
-0.0001089924
0.01439141
-7.638697e-05
0.01439978
-8.371419e-06
0.01435926
4.051452e-05
0.01420948
0.0001497833
0.01386751
0.000341973
0.01331767
0.000549838
0.01245537
0.0008622997
0.01091399
0.001541383
0.007890375
0.003023612
0.003100878
0.004789497
-0.001326609
0.004427487
-0.004031606
0.002704997
-0.00573819
0.001706584
-0.004883773
-0.0008544171
-0.001423495
-0.003460278
0.003148736
-0.00457223
0.004594463
-0.001445727
-0.003172353
0.007766816
-0.01071828
0.007545927
-0.01096024
0.0002419635
-0.007734361
-0.003225883
-0.004798925
-0.002935436
-0.00292625
-0.001872675
-0.001385807
-0.001540444
0.0008983628
-0.00228417
0.002790078
-0.001891715
0.002636392
0.0001536861
0.001530862
0.00110553
0.0004542084
0.001076654
-0.0002612058
0.0007154142
-0.0005370675
0.0002758617
-0.0002632686
-0.0002737989
0.0004860478
-0.0007493164
0.001678173
-0.001192125
0.002199049
-0.0005208761
0.001390842
0.0008082072
-0.0002452062
0.001636048
-0.001334214
0.001089008
-0.001254543
-7.967124e-05
-0.0003446653
-0.0009098779
-3.043267e-05
-0.0003142326
-0.0004760375
0.0004456048
-0.000589841
0.0001138035
6.535447e-05
-0.0006551955
0.0009463657
-0.0008810112
0.002074318
-0.001127952
0.003390832
-0.001316514
0.004745799
-0.001354967
-0.001148192
0.008612602
-0.007451602
-0.00203306
0.009378134
-0.001297139
0.009780571
-0.0003391907
0.00980295
0.001032666
0.008660742
0.003473416
0.005664084
0.00606376
0.001882547
0.004288063
-0.001549994
0.003739676
-0.005019546
0.006573327
-0.005363228
0.002245149
-0.002329071
-0.005098959
0.0004307318
-0.005302278
0.002493121
-0.003771202
0.003545571
-0.001913276
0.003997315
-0.0007968298
0.003840368
0.0003095554
0.002705098
0.002081402
0.000317756
0.004035588
-0.003265742
0.005579481
-0.006205524
0.004449662
-0.006151939
0.0005444595
-0.002617225
-0.005695595
0.001092426
-0.007032948
0.003144783
-0.004065501
0.004540273
-0.002740036
0.006910637
-0.004629639
0.01057491
-0.006995309
0.0142636
-0.007050018
0.01479013
0.001347028
0.006655285
0.01800726
-0.004041762
0.01848141
-0.003957662
-0.0037432
-0.001290121
-0.007972708
7.769343e-05
-0.004676042
0.002828978
-0.003290784
0.0005267094
0.00465433
-0.008626248
0.01232559
-0.01685211
0.0131258
-0.02097221
0.009210574
-0.02221558
0.00432803
-0.0225138
0.001860953
-0.02258482
0.0009560055
-0.02256699
0.0005553776
-0.02250059
0.0003220094
-0.02240517
0.0001687573
-0.02220385
-0.0001249472
-0.02198818
-0.0002262695
-0.02175661
-0.000284517
-0.02147749
-0.0003769793
-0.02118519
-0.0004046552
-0.02083267
-0.0005228879
-0.02044129
-0.0006012523
-0.01998743
-0.0007214323
-0.01950991
-0.0007675766
-0.01902282
-0.0007928931
-0.01847789
-0.0009043193
-0.01791015
-0.0009456381
-0.01734041
-0.0009540266
-0.01669691
-0.001091965
-0.01603304
-0.001134086
-0.01534105
-0.00118656
-0.01464254
-0.001198214
-0.01392698
-0.001235196
-0.01315251
-0.001343572
-0.01239062
-0.001321742
-0.0115868
-0.001403888
-0.01076079
-0.001443443
-0.00993407
-0.001447693
-0.009103571
-0.001458692
-0.008234928
-0.001528149
-0.007364951
-0.001529899
-0.006490655
-0.001540462
-0.005603821
-0.001564517
-0.004724861
-0.001551782
-0.003864034
-0.001517287
-0.002961855
-0.001597371
-0.002066194
-0.001582214
-0.001159043
-0.001601225
-0.0001663939
-0.001764761
0.0008343827
-0.001779897
0.001758192
-0.001632873
0.00266342
-0.001599298
0.003558751
-0.001583032
0.004438355
-0.001551652
0.005319931
-0.001554207
0.006180298
-0.001514428
0.007054426
-0.001540069
0.007906894
-0.001498498
0.008718695
-0.001424048
0.009536896
-0.001434138
0.010344
-0.001409908
0.01112294
-0.001359039
0.01189769
-0.001350832
0.01265999
-0.001323193
0.01335975
-0.001207601
0.01405673
-0.00119893
0.01473589
-0.001165004
0.01536917
-0.001078018
0.01600381
-0.001078743
0.01657825
-0.0009671065
0.01712817
-0.0009143493
0.01763424
-0.0008311609
0.01809299
-0.000740642
0.01855087
-0.0007330382
0.01896866
-0.0006549164
0.01934242
-0.0005704437
0.01967208
-0.0004829598
0.01995674
-0.0003936516
0.02020891
-0.0003285594
0.02040017
-0.0001996315
0.02059624
-0.0001555558
0.02076888
-2.285321e-05
0.02084984
0.0002610157
0.02086627
0.00053341
0.02080254
0.0009260205
0.0205227
0.001821231
0.01926135
0.004284963
0.01521699
0.008833848
0.00771659
0.01192789
3.041012e-05
0.01039118
-0.001637695
0.003374688
0.0006204014
-0.003112513
0.001925538
-0.004765415
0.00421029
-0.006856982
0.002116793
0.0006477701
-0.007642303
0.01752591
-0.01299238
0.012896
-0.01136757
-0.001382839
-0.007964243
-0.006629214
-0.00478652
-0.006113159
-0.002866728
-0.003792467
-0.001410931
-0.00299624
0.001045815
-0.004740915
0.00383118
-0.004677081
0.003916078
6.878876e-05
0.001886529
0.003135078
0.0001119835
0.002851199
-0.0007112173
0.001538615
-0.0009853306
0.000549975
-0.0006355272
-0.0006236022
0.0003137169
-0.00169856
0.001812073
-0.002690481
0.003230954
-0.001939757
0.003633097
0.0004060647
0.001926402
0.003342742
-0.000568583
0.003583993
-0.001429806
0.0007815519
-0.0007239115
-0.001615773
-0.0006914641
-0.00034668
-0.001117981
0.0008721216
-0.0007990905
-0.0002050868
0.0001481783
-0.001602464
0.001241493
-0.001974326
0.002655226
-0.002541685
0.004289812
-0.002951099
0.005982215
-0.003047371
-0.002617579
0.01040686
-0.009005975
-0.003433949
0.01134035
-0.002230628
0.01168633
-0.0006851696
0.01161092
0.001108077
0.01124473
0.003839609
0.009572292
0.007736195
0.004677142
0.009183214
-0.001285793
0.009702611
-0.004674128
0.009961662
-0.004349688
0.001920709
-0.001212857
-0.00823579
0.001850714
-0.008365849
0.004028684
-0.005949172
0.00523779
-0.003122382
0.005760295
-0.001319334
0.005545657
0.0005241932
0.00409307
0.003533989
0.001205911
0.006922748
-0.003076751
0.009862143
-0.006846553
0.008219464
-0.00691505
0.0006129564
-0.003094002
-0.009516643
0.000245578
-0.01037253
0.0020469
-0.005866823
0.003167902
-0.003861038
0.005433884
-0.006895621
0.009517345
-0.01107877
0.01389146
-0.01142413
0.01482238
0.000416105
0.008968509
0.02386113
-0.001161653
0.02861157
-0.007391209
0.002486356
-0.01017415
-0.005189764
-0.01061586
-0.004234338
-0.010965
-0.002941644
-0.01504482
0.008734152
-0.02189777
0.01917854
-0.02601705
0.01724508
-0.02644297
0.00963649
-0.02627998
0.004165044
-0.0263662
0.001947171
-0.0264631
0.001052903
-0.02652634
0.0006186143
-0.02653686
0.0003325312
-0.02650881
0.0001407147
-0.02632129
-0.000312469
-0.02608523
-0.0004623348
-0.02582219
-0.0005475554
-0.02550307
-0.0006960933
-0.02517008
-0.000737654
-0.02476189
-0.0009310751
-0.02430842
-0.001054724
-0.02377831
-0.001251536
-0.02321956
-0.001326327
-0.02265048
-0.001361977
-0.02200884
-0.001545954
-0.02133973
-0.001614753
-0.02066979
-0.001623964
-0.01990822
-0.001853538
-0.01912231
-0.001919991
-0.01830216
-0.002006709
-0.01747375
-0.002026627
-0.01662473
-0.002084218
-0.0157025
-0.002265801
-0.01479682
-0.002227421
-0.01383806
-0.002362646
-0.01285259
-0.002428916
-0.01186535
-0.002434935
-0.01087297
-0.002451074
-0.009833964
-0.00256715
-0.008792943
-0.00257092
-0.007745693
-0.002587713
-0.006683762
-0.002626447
-0.005630228
-0.002605317
-0.004598733
-0.002548782
-0.003520399
-0.002675705
-0.002450323
-0.00265229
-0.001368171
-0.002683377
-0.000193606
-0.002939326
0.0009917542
-0.002965257
0.00209679
-0.002737909
0.003181282
-0.002683791
0.00425325
-0.002655
0.00530646
-0.002604862
0.006361066
-0.002608813
0.007389382
-0.002542744
0.008433835
-0.002584521
0.009451332
-0.002515996
0.01041987
-0.002392589
0.01139576
-0.002410025
0.01235717
-0.002371321
0.01328438
-0.002286248
0.01420678
-0.002273228
0.01511305
-0.002229462
0.01594336
-0.002037917
0.01677083
-0.002026399
0.01757614
-0.001970308
0.01832512
-0.001826999
0.01907746
-0.001831082
0.01975537
-0.001645016
0.02040476
-0.001563743
0.02100055
-0.001426949
0.02153791
-0.001278001
0.02207607
-0.001271198
0.02256333
-0.00114218
0.02299947
-0.001006584
0.02338166
-0.0008651521
0.02370998
-0.0007219677
0.02400044
-0.0006190162
0.02421482
-0.0004140161
0.02441484
-0.0003555744
0.02455372
-0.0001617293
0.02456394
0.0002507966
0.02450016
0.0005971869
0.02440961
0.001016571
0.02435935
0.001871494
0.02454728
0.004097029
0.02404312
0.009338004
0.02024203
0.01572898
0.01456618
0.01606703
0.0112777
0.006663168
0.01078827
-0.002623086
0.009578292
-0.003555432
0.006542893
-0.003821583
-0.0002266859
0.007417349
-0.008811215
0.02611044
-0.01278144
0.01686622
-0.01110497
-0.003059306
-0.006979689
-0.01075449
-0.003466126
-0.009626723
-0.001662572
-0.00559602
-0.0005971456
-0.004061667
0.001246652
-0.006584713
0.003855273
-0.007285702
0.003794849
0.0001292128
0.001586259
0.005343668
-0.0001631613
0.004600619
-0.001205686
0.002581139
-0.001652345
0.0009966345
-0.001323128
-0.0009528199
-0.0001522901
-0.002869398
0.001552096
-0.004394868
0.003162151
-0.003549811
0.004552265
-0.0009840497
0.004325087
0.00356992
0.001724278
0.006184803
-0.0005651964
0.003071026
-0.001031458
-0.001149511
-0.001319471
-5.866693e-05
-0.001459804
0.001012454
-0.0008653063
-0.000799584
0.0002045863
-0.002672357
0.001563507
-0.003333247
0.00325717
-0.004235348
0.005206341
-0.00490027
0.007235308
-0.005076338
-0.004388246
0.01267951
-0.01098268
-0.005130781
0.01379502
-0.003346141
0.01422643
-0.001116582
0.01394892
0.001385586
0.01338554
0.004402989
0.01244838
0.008673357
0.008099096
0.0135325
0.0004783768
0.01732333
-0.0033342
0.01377424
-0.002430549
0.001017059
0.0005933527
-0.01125969
0.003686173
-0.01145867
0.005867728
-0.008130727
0.007144956
-0.00439961
0.007708699
-0.001883078
0.007516373
0.0007165198
0.00594326
0.005107101
0.002629696
0.01023631
-0.001991129
0.01448297
-0.00625766
0.01248599
-0.006984167
0.001339463
-0.003775107
-0.0127257
-0.00117953
-0.0129681
-0.0003525562
-0.006693797
0.0004664011
-0.004679995
0.002719667
-0.009148886
0.007493807
-0.01585291
0.0127441
-0.01667443
0.01316941
-9.205896e-06
0.008190297
0.02884025
-0.002217062
0.03901893
-0.01473803
0.01500733
-0.02294832
0.003020518
-0.02589712
-0.001285535
-0.02785435
-0.000984415
-0.03023
0.01110981
-0.03192775
0.0208763
-0.03175169
0.01706902
-0.03123264
0.009117436
-0.03152932
0.004461732
-0.03187515
0.002292993
-0.03207677
0.001254525
-0.0321712
0.0007130406
-0.03217415
0.0003354829
-0.03212158
8.814664e-05
-0.03186428
-0.0005697681
-0.0315547
-0.0007719122
-0.03121377
-0.0008884873
-0.03080554
-0.001104324
-0.03038447
-0.001158729
-0.02987599
-0.001439554
-0.02931473
-0.001615985
-0.02866262
-0.001903646
-0.02797669
-0.002012248
-0.02727994
-0.002058737
-0.0264985
-0.002327388
-0.02568426
-0.002428999
-0.02486958
-0.002438643
-0.02394889
-0.002774228
-0.02299698
-0.002871901
-0.02200513
-0.002998561
-0.02100474
-0.003027015
-0.01998087
-0.00310809
-0.0188678
-0.003378868
-0.01777699
-0.003318232
-0.0166213
-0.003518329
-0.01543507
-0.003615148
-0.0142455
-0.003624509
-0.01305041
-0.003646165
-0.01179944
-0.003818121
-0.01054584
-0.003824517
-0.009284086
-0.003849467
-0.00800609
-0.003904444
-0.006735703
-0.003875703
-0.005494167
-0.003790318
-0.004197228
-0.003972644
-0.002912036
-0.003937481
-0.001618383
-0.003977029
-0.0002281494
-0.004329561
0.001177559
-0.004370966
0.002504169
-0.004064519
0.003810054
-0.003989676
0.005098201
-0.003943147
0.006362495
-0.003869156
0.007627775
-0.003874092
0.008861115
-0.003776085
0.01011583
-0.00383924
0.01133561
-0.003735775
0.01249913
-0.003556105
0.01367255
-0.003583442
0.01482672
-0.003525496
0.01594291
-0.003402436
0.01705491
-0.003385235
0.01814492
-0.003319469
0.01914729
-0.003040283
0.0201472
-0.00302631
0.02111943
-0.002942542
0.02202622
-0.002733783
0.02293783
-0.002742692
0.02376084
-0.002468026
0.02454981
-0.002352721
0.02527557
-0.002152708
0.02593452
-0.001936948
0.02659412
-0.001930796
0.02719324
-0.0017413
0.02773407
-0.001547417
0.02820932
-0.001340405
0.02862356
-0.0011362
0.02899533
-0.0009907876
0.02927581
-0.0006945024
0.02954346
-0.0006232261
0.02973662
-0.0003548889
0.02975975
0.0002276751
0.02966701
0.0006899248
0.02947684
0.001206739
0.02917113
0.002177205
0.02896869
0.004299467
0.02952737
0.008779327
0.02969289
0.01556346
0.0282788
0.01748112
0.0262258
0.008716168
0.02429029
-0.0006875806
0.02083482
-9.995446e-05
0.01231533
0.004697899
0.0001937524
0.01953893
-0.007634175
0.03393837
-0.01119103
0.02042308
-0.009840533
-0.004409802
-0.005183974
-0.01541105
-0.001209326
-0.01360137
0.0008221783
-0.007627524
0.00121702
-0.004456509
0.001922114
-0.007289807
0.003398651
-0.008762238
0.003034166
0.0004936974
0.001204354
0.00717348
-0.0004064494
0.006211423
-0.001770733
0.003945423
-0.002399035
0.001624936
-0.001993345
-0.00135851
-0.0005526443
-0.004310099
0.001491629
-0.006439141
0.003099947
-0.005158129
0.004630946
-0.002515049
0.005696071
0.002504796
0.004230488
0.007650386
0.001064741
0.006236773
-0.0009036588
0.0008188888
-0.001728813
0.0007664872
-0.001704985
0.0009886261
-0.0009267783
-0.001577791
0.0003125034
-0.003911639
0.001965002
-0.004985745
0.00400202
-0.006272366
0.006362073
-0.007260322
0.008830985
-0.007545251
-0.006539937
0.01555616
-0.01350635
-0.007180596
0.01690467
-0.004694647
0.01741543
-0.001627342
0.0170765
0.001724517
0.01610933
0.005370153
0.01514816
0.009634532
0.01196332
0.01671734
0.004397903
0.02488875
-0.0007936917
0.01896583
0.0007052419
-0.0004818751
0.003234717
-0.01378917
0.006063306
-0.01428726
0.007978196
-0.01004562
0.00914588
-0.005567294
0.009679518
-0.002416715
0.009519777
0.0008762603
0.008053435
0.006573443
0.004637121
0.01365263
-0.0001830228
0.01930311
-0.004592271
0.01689524
-0.0062708
0.003017992
-0.004756379
-0.01424012
-0.00390239
-0.01382209
-0.004393931
-0.006202255
-0.004441293
-0.004632633
-0.001518044
-0.01207214
0.003567702
-0.02093866
0.009209335
-0.02231606
0.009151714
4.841478e-05
0.004524256
0.0334677
-0.00719667
0.05073986
-0.02334209
0.03115275
-0.03304987
0.0127283
-0.03654524
0.002209838
-0.03903151
0.001501847
-0.03984463
0.01192293
-0.03849088
0.01952254
-0.03711838
0.01569652
-0.03702836
0.009027412
-0.03751658
0.004949957
-0.03788667
0.002663082
-0.03813154
0.001499393
-0.03827863
0.0008601277
-0.0383058
0.0003626563
-0.03827872
6.106981e-05
-0.03799643
-0.0008520607
-0.03765303
-0.001115316
-0.03727069
-0.001270825
-0.0367941
-0.001580914
-0.03631856
-0.001634271
-0.03572096
-0.002037155
-0.03506668
-0.002270266
-0.03429554
-0.002674782
-0.03348466
-0.002823127
-0.03266432
-0.002879077
-0.0317341
-0.003257603
-0.03076506
-0.003398042
-0.02979932
-0.00340438
-0.02870247
-0.003871083
-0.02756483
-0.004009543
-0.02638001
-0.004183379
-0.02518734
-0.004219681
-0.02396604
-0.004329393
-0.02263088
-0.00471403
-0.02132945
-0.004619666
-0.0199435
-0.004904271
-0.01852367
-0.005034976
-0.01709687
-0.005051315
-0.01566479
-0.005078245
-0.01416135
-0.005321555
-0.01265431
-0.005331564
-0.0111342
-0.005369578
-0.009597109
-0.005441532
-0.008064963
-0.005407849
-0.006570149
-0.005285133
-0.005006348
-0.005536445
-0.003459029
-0.0054848
-0.001912088
-0.00552397
-0.0002695342
-0.005972115
0.001395967
-0.006036467
0.002990726
-0.005659277
0.00456385
-0.0055628
0.006108863
-0.00548816
0.00762393
-0.005384224
0.009141662
-0.005391824
0.01061961
-0.005254037
0.01212694
-0.005346565
0.01358552
-0.005194359
0.01498248
-0.004953066
0.01639367
-0.004994623
0.01777326
-0.004905095
0.01911218
-0.004741356
0.02045103
-0.00472408
0.02175431
-0.004622749
0.02295464
-0.004240608
0.02415421
-0.004225884
0.02531671
-0.004105042
0.02639744
-0.003814509
0.02748981
-0.003835064
0.02847005
-0.003448265
0.02940926
-0.003291929
0.03027148
-0.003014936
0.03105022
-0.002715683
0.03183312
-0.002713697
0.03253611
-0.002444287
0.0331739
-0.002185209
0.03372632
-0.001892824
0.03420538
-0.001615267
0.03463705
-0.001422458
0.03494461
-0.00100206
0.03524464
-0.0009232589
0.03544645
-0.0005566904
0.03544482
0.000229304
0.03530919
0.0008255489
0.03507645
0.001439481
0.03474992
0.002503737
0.03433366
0.004715724
0.03452663
0.008586356
0.0357905
0.01429959
0.03680995
0.01646167
0.03586251
0.009663613
0.033539
0.001635926
0.02998893
0.003450116
0.01965127
0.01503556
0.004726346
0.03446386
-0.004277736
0.04294245
-0.00769973
0.02384507
-0.00626322
-0.005846313
-0.001615438
-0.02005883
0.002683341
-0.01790015
0.004666252
-0.009610436
0.004361787
-0.004152044
0.003404436
-0.006332456
0.002967604
-0.008325407
0.002330308
0.001130994
0.001097474
0.008406313
-0.0006324622
0.007941359
-0.002387142
0.005700104
-0.003145047
0.00238284
-0.002578315
-0.001925242
-0.0008196637
-0.006068749
0.001580804
-0.008839609
0.003373525
-0.006950851
0.004537128
-0.003678652
0.005911422
0.001130502
0.005802173
0.007759634
0.002775433
0.009263513
-0.000462694
0.004057016
-0.002018464
0.002322257
-0.001890774
0.0008609363
-0.0009414669
-0.002527098
0.0005042274
-0.005357333
0.002479632
-0.00696115
0.004959285
-0.00875202
0.007867221
-0.01016826
0.0108966
-0.01057463
-0.009149685
0.01919326
-0.01672703
-0.009646827
0.02080911
-0.006310503
0.02140569
-0.002223913
0.02103207
0.002098132
0.01978225
0.006619971
0.01837579
0.011041
0.01633208
0.01876104
0.01043371
0.03078712
0.004726059
0.02467348
0.004528365
-0.0002841809
0.007063447
-0.01632425
0.008981986
-0.0162058
0.01025902
-0.01132265
0.01114858
-0.006456854
0.01162881
-0.002896944
0.01149114
0.001013929
0.01016179
0.007902786
0.006970521
0.0168439
0.002094708
0.02417892
-0.002310707
0.02130066
-0.005079451
0.005786736
-0.006333398
-0.01298618
-0.008177013
-0.01197848
-0.01023118
-0.004148087
-0.01089486
-0.003968957
-0.008223762
-0.01474323
-0.003537053
-0.02562537
0.0008823298
-0.02673544
0.001149119
-0.0002183743
-0.003138607
0.03775543
-0.0163141
0.06391535
-0.03265863
0.04749728
-0.04035927
0.02042894
-0.04338574
0.005236307
-0.04614958
0.004265685
-0.04669723
0.01247058
-0.04530188
0.0181272
-0.04452763
0.01492227
-0.04482865
0.009328434
-0.04536524
0.005486552
-0.04577745
0.003075283
-0.04603326
0.001755204
-0.04618479
0.001011665
-0.04615238
0.0003302452
-0.04609451
3.195982e-06
-0.04572867
-0.001217897
-0.04530282
-0.001541168
-0.04482345
-0.001750196
-0.04422194
-0.002182427
-0.04365013
-0.002206082
-0.04291616
-0.002771123
-0.04212509
-0.003061336
-0.04118874
-0.003611127
-0.04020479
-0.003807082
-0.03921821
-0.003865659
-0.03809279
-0.004383019
-0.03692436
-0.004566475
-0.03576779
-0.004560948
-0.03444914
-0.005189728
-0.03307673
-0.005381958
-0.03165434
-0.005605773
-0.03022306
-0.005650959
-0.02876142
-0.005791035
-0.02715228
-0.006323162
-0.02559963
-0.006172316
-0.02393368
-0.006570225
-0.02223202
-0.006736633
-0.02052195
-0.006761384
-0.01880802
-0.006792174
-0.01700467
-0.007124906
-0.01519891
-0.007137324
-0.01336727
-0.007201217
-0.01151922
-0.007289587
-0.009665206
-0.007261861
-0.007867279
-0.00708306
-0.005980798
-0.007422925
-0.004110205
-0.007355394
-0.002258751
-0.007375424
-0.0003171294
-0.007913736
0.001655619
-0.008009216
0.003579449
-0.007583107
0.005466206
-0.007449557
0.007316661
-0.007338615
0.009133166
-0.007200728
0.01095354
-0.007212198
0.01272452
-0.007025016
0.0145395
-0.007161544
0.01628362
-0.006938484
0.01796485
-0.006634293
0.01966888
-0.006698654
0.02131874
-0.006554959
0.02292548
-0.006348091
0.02454766
-0.006346264
0.02610876
-0.00618384
0.02754639
-0.005678241
0.02899065
-0.005670147
0.03038754
-0.005501934
0.03168088
-0.005107848
0.0329976
-0.005151786
0.03417674
-0.004627404
0.03530719
-0.004422381
0.0363434
-0.004051142
0.03728399
-0.003656271
0.0382353
-0.003665011
0.03908051
-0.003289494
0.03986142
-0.002966116
0.04053086
-0.002562268
0.04112019
-0.002204592
0.04165318
-0.001955451
0.04204239
-0.001391268
0.04241639
-0.001297258
0.0426869
-0.0008272048
0.04273522
0.0001809847
0.04260677
0.0009539967
0.04235956
0.001686694
0.04200389
0.002859407
0.0415407
0.005178914
0.04135636
0.00877069
0.04207302
0.01358294
0.0430453
0.01548938
0.04221845
0.01049046
0.03965431
0.004200068
0.03700339
0.006101032
0.02843178
0.02360717
0.01353803
0.0493576
0.002749195
0.05373129
-0.0003437187
0.02693798
0.0009576923
-0.007147724
0.004714256
-0.0238154
0.008520597
-0.02170649
0.01011993
-0.01120977
0.00909568
-0.003127796
0.006276121
-0.003512896
0.003492026
-0.005541312
0.002334795
0.002288225
0.001354553
0.009386555
-0.0009096029
0.01020552
-0.003096218
0.007886718
-0.003966383
0.003253005
-0.003224873
-0.002666752
-0.001108719
-0.008184904
0.001708582
-0.01165691
0.003876542
-0.009118811
0.004782298
-0.004584407
0.005614439
0.0002983602
0.006100581
0.007273493
0.003831782
0.01153231
-0.0001000191
0.007988817
-0.002289576
0.004511813
-0.002050322
0.000621683
-0.0009013807
-0.003676039
0.0008115515
-0.007070265
0.003185946
-0.009335544
0.006264627
-0.0118307
0.00990004
-0.01380367
0.01359579
-0.01427038
-0.01228092
0.02377752
-0.02080441
-0.01261994
0.02571572
-0.008248702
0.02642691
-0.002935105
0.02598838
0.002536666
0.02455509
0.008053261
0.02257005
0.01302603
0.02122678
0.02010432
0.01853045
0.03348344
0.01425638
0.02894755
0.01176754
0.002204666
0.01211322
-0.01666993
0.01228061
-0.01637319
0.01261916
-0.0116612
0.01313242
-0.006970115
0.01363779
-0.003402315
0.01357977
0.001071943
0.01223644
0.009246123
0.009268122
0.01981221
0.004405047
0.029042
-0.0002073097
0.02591301
-0.004237681
0.009817107
-0.008924612
-0.008299245
-0.0141796
-0.006723489
-0.01806353
-0.0002641585
-0.01982652
-0.002205966
-0.01826558
-0.01630418
-0.01507583
-0.02881511
-0.0102457
-0.03156558
-0.01065028
0.0001862084
-0.01768133
0.04478648
-0.03058388
0.0768179
-0.04290395
0.05981734
-0.04742679
0.02495178
-0.0506871
0.00849662
-0.05385962
0.0074382
-0.05478558
0.01339655
-0.05401944
0.01736106
-0.05355271
0.01445553
-0.05378862
0.009564343
-0.0542979
0.005995833
-0.05473564
0.003513022
-0.05502782
0.00204738
-0.05525419
0.001238042
-0.05521394
0.0002899944
-0.05522192
1.117186e-05
-0.05474064
-0.001699172
-0.05425487
-0.002026938
-0.05370005
-0.002305018
-0.05295968
-0.002922802
-0.05231338
-0.002852378
-0.05142011
-0.003664395
-0.05049122
-0.003990227
-0.04936996
-0.00473239
-0.0481842
-0.004992838
-0.04701508
-0.005034781
-0.04567163
-0.005726464
-0.04427023
-0.005967881
-0.0428833
-0.005947873
-0.04131355
-0.006759482
-0.0396711
-0.007024403
-0.03796895
-0.007307928
-0.03623588
-0.007384029
-0.03451262
-0.007514288
-0.0325644
-0.008271385
-0.03071931
-0.008017411
-0.02870996
-0.00857957
-0.02667572
-0.008770878
-0.02463358
-0.008803522
-0.02255456
-0.008871191
-0.02041289
-0.009266581
-0.01826034
-0.009289871
-0.01606183
-0.00939973
-0.01385973
-0.009491688
-0.01158277
-0.00953882
-0.009441432
-0.009224395
-0.007162254
-0.009702103
-0.00488896
-0.009628688
-0.002671339
-0.009593045
-0.0003698202
-0.01021526
0.00196967
-0.01034871
0.004294895
-0.009908333
0.006532714
-0.009687377
0.008757981
-0.009563882
0.01094516
-0.009387905
0.01312028
-0.009387321
0.01524136
-0.009146096
0.01744452
-0.009364708
0.01953752
-0.009031481
0.02155047
-0.008647246
0.02359734
-0.008745525
0.02559188
-0.008549496
0.0275232
-0.008279407
0.02945953
-0.008282598
0.0313357
-0.008060011
0.03305229
-0.007394829
0.03478205
-0.007399903
0.03643637
-0.007156262
0.03800008
-0.006671554
0.03958083
-0.006732533
0.04098452
-0.006031098
0.04235115
-0.005789006
0.04357594
-0.005275931
0.044702
-0.004782332
0.04584744
-0.004810457
0.04684002
-0.004282077
0.04778536
-0.003911454
0.04856507
-0.003341976
0.04927035
-0.002909875
0.04991378
-0.002598877
0.0503534
-0.001830888
0.05080846
-0.001752317
0.0511298
-0.001148547
0.05113411
0.0001766802
0.05097268
0.001115422
0.05067886
0.001980519
0.05030431
0.003233953
0.04986816
0.00561506
0.04972339
0.008915466
0.05014493
0.0131614
0.05055993
0.01507438
0.0493902
0.0116602
0.04632815
0.007262117
0.04389041
0.008538769
0.03864286
0.02885472
0.02721927
0.0607812
0.01647182
0.06447874
0.01010551
0.03330429
0.01151391
-0.008556116
0.01491199
-0.02721348
0.01722044
-0.02401495
0.0176831
-0.01167242
0.0157267
-0.001171397
0.01122024
0.0009935597
0.005940039
-0.0002611084
0.003374534
0.004853729
0.001726305
0.01103478
-0.001416883
0.0133487
-0.004146556
0.01061639
-0.005189496
0.004295946
-0.004235466
-0.003620783
-0.001530979
-0.01088939
0.001861222
-0.01504911
0.004423339
-0.01168093
0.00552999
-0.005691058
0.005635557
0.0001927927
0.005533402
0.007375648
0.003893517
0.0131722
-9.094949e-05
0.01197328
-0.002618294
0.007039158
-0.002199459
0.000202848
-0.0008106674
-0.005064831
0.001272014
-0.009152946
0.004202026
-0.01226556
0.008097457
-0.01572613
0.01264785
-0.01835406
0.01708284
-0.01870537
-0.01600249
0.02954952
-0.02596827
-0.01620119
0.03184498
-0.01054416
0.03270146
-0.003791582
0.03219922
0.003038902
0.0306098
0.009642684
0.02814752
0.01548831
0.02674787
0.02150397
0.02698805
0.03324327
0.0248465
0.03108909
0.02046672
0.006584448
0.01761881
-0.01382202
0.01582972
-0.0145841
0.01518559
-0.01101706
0.01534996
-0.007134487
0.01597036
-0.00402271
0.01609444
0.0009478626
0.01457222
0.01076834
0.01148921
0.02289522
0.006295657
0.03423555
0.001455715
0.03075296
-0.004156955
0.01542978
-0.01287832
0.0004221184
-0.02215324
0.002551435
-0.02785216
0.005434763
-0.03187996
0.001821828
-0.03283791
-0.01534623
-0.03263667
-0.02901635
-0.02993353
-0.03426871
-0.0330946
0.003347281
-0.04133138
0.05302326
-0.04999933
0.08548585
-0.05438008
0.06419809
-0.05655415
0.02712585
-0.0606658
0.01260827
-0.06401087
0.01078328
-0.06530364
0.01468931
-0.06492697
0.01698438
-0.06458567
0.01411423
-0.06480902
0.009787697
-0.06537467
0.006561485
-0.06585004
0.003988391
-0.06608401
0.002281346
-0.06642429
0.001578322
-0.06623426
9.996801e-05
-0.06621054
-1.254477e-05
-0.06570157
-0.002208142
-0.06508031
-0.002648201
-0.06447628
-0.002909052
-0.06349545
-0.003903622
-0.06276756
-0.003580272
-0.06167956
-0.004752398
-0.06059355
-0.005076232
-0.05922646
-0.006099483
-0.05777094
-0.006448358
-0.05639295
-0.006412771
-0.05481364
-0.007305771
-0.0530653
-0.007716226
-0.05141024
-0.007602924
-0.04955581
-0.008613912
-0.04760597
-0.008974246
-0.04552485
-0.009389044
-0.04342666
-0.009482226
-0.04146034
-0.009480602
-0.03903597
-0.01069576
-0.03687729
-0.01017609
-0.0343925
-0.01106436
-0.03201842
-0.01114496
-0.02956854
-0.01125341
-0.02703988
-0.01139985
-0.02452157
-0.0117849
-0.0219189
-0.01189254
-0.01927803
-0.0120406
-0.01669187
-0.01207785
-0.01389605
-0.01233464
-0.01139281
-0.01172764
-0.008589063
-0.01250585
-0.00583794
-0.01237981
-0.00317445
-0.01225654
-0.0004225577
-0.01296715
0.002397566
-0.01316883
0.005113295
-0.01262406
0.00776603
-0.01234011
0.01047027
-0.01226812
0.01312098
-0.01203861
0.01573677
-0.01200311
0.018255
-0.01166433
0.02097014
-0.01207985
0.02346367
-0.01152501
0.02588447
-0.01106805
0.02832549