/*--------------------------------*- C++ -*----------------------------------*\
| =========                 |                                                 |
| \\      /  F ield         | OpenFOAM: The Open Source CFD Toolbox           |
|  \\    /   O peration     | Version:  2406                                  |
|   \\  /    A nd           | Website:  www.openfoam.com                      |
|    \\/     M anipulation  |                                                 |
\*---------------------------------------------------------------------------*/
FoamFile
{
    version     2.0;
    format      ascii;
    arch        "LSB;label=32;scalar=64";
    class       surfaceScalarField;
    location    "0.4";
    object      phi;
}
// * * * * * * * * * * * * * * * * * * * * * * * * * * * * * * * * * * * * * //

dimensions      [0 3 -1 0 0 0 0];

oriented        oriented;

internalField   nonuniform List<scalar> 
6749
(
5.230225e-09
4.077254e-09
-9.307479e-09
-1.774882e-09
-1.159872e-09
2.934754e-09
-9.564662e-11
-1.690076e-09
1.785723e-09
1.745333e-09
-5.545608e-10
-1.190772e-09
1.305525e-09
-1.390306e-09
8.478108e-11
-1.01156e-09
1.82859e-09
-8.170301e-10
1.234042e-09
2.503132e-10
-1.484356e-09
2.373249e-10
1.11808e-09
-1.355405e-09
-9.183317e-10
1.361173e-09
-4.428416e-10
-1.712039e-09
4.91067e-10
1.220972e-09
1.755397e-09
-1.024515e-09
-7.30882e-10
-7.97772e-10
-1.491203e-09
2.288975e-09
-2.239128e-09
-2.563008e-10
2.495429e-09
3.702143e-09
-1.241631e-09
-2.460513e-09
9.919342e-10
4.511995e-10
-1.443134e-09
-1.909572e-09
8.937677e-11
1.820196e-09
1.785997e-09
-2.035956e-11
-1.765638e-09
3.72096e-10
-1.411418e-09
1.039322e-09
-6.396636e-10
-6.017431e-10
1.241407e-09
1.835085e-09
1.433223e-10
-1.978407e-09
-7.938476e-10
1.625637e-09
-8.317895e-10
9.297992e-10
-1.796665e-09
8.668655e-10
1.507658e-09
6.140236e-10
-2.121681e-09
-1.192846e-09
2.456175e-10
9.472284e-10
9.168252e-10
9.233917e-10
-1.840217e-09
-5.839885e-10
-1.103782e-09
1.687771e-09
1.068607e-09
3.569761e-10
-1.425583e-09
3.481149e-10
9.336012e-10
-1.281716e-09
2.82343e-10
-1.375615e-09
1.093272e-09
1.30536e-09
1.443914e-10
-1.449752e-09
-3.311133e-09
1.908645e-09
1.402488e-09
1.467629e-09
2.234515e-09
-1.445146e-09
2.67055e-09
-1.225404e-09
-1.68431e-09
1.041584e-09
6.42726e-10
-7.831222e-10
-1.473486e-09
2.256608e-09
4.839192e-09
-1.012753e-08
5.288338e-09
1.010294e-10
-1.492009e-09
1.390979e-09
-1.701291e-09
1.915702e-09
-2.144108e-10
-9.621464e-10
2.88031e-09
-1.918164e-09
1.013878e-09
7.593741e-10
-1.773252e-09
6.587393e-09
-1.7482e-09
7.386172e-10
8.333993e-10
-1.572017e-09
6.22418e-10
-3.002419e-09
2.380001e-09
4.494154e-09
2.438379e-09
-6.932534e-09
1.318776e-09
-2.621804e-09
1.303028e-09
-1.021501e-09
-6.90538e-10
4.604857e-10
-1.934681e-09
1.474196e-09
-8.663008e-11
-1.139395e-09
1.226025e-09
-1.734068e-09
1.714364e-09
1.970456e-11
4.849531e-10
-1.829489e-09
1.344535e-09
1.594832e-09
-5.756179e-10
-1.019214e-09
1.729322e-09
3.296508e-09
-5.025829e-09
-1.414339e-09
-4.191795e-10
-1.197784e-09
-8.06393e-10
2.004176e-09
-4.477849e-10
1.859901e-09
-1.412116e-09
7.402503e-10
8.425919e-10
-1.582842e-09
6.40583e-09
-5.028391e-09
-1.377439e-09
1.954249e-09
2.212042e-10
-2.175453e-09
-9.808943e-10
1.219255e-09
-2.383604e-10
-3.034475e-10
1.818457e-09
-1.51501e-09
6.721601e-10
-1.701587e-09
1.029427e-09
-5.50205e-10
-1.086699e-09
1.636904e-09
-2.930957e-10
-1.496889e-09
1.789985e-09
-8.196134e-10
6.004529e-10
2.191605e-10
-8.992529e-10
1.341676e-09
-4.424228e-10
-6.608743e-10
-1.08844e-09
1.749315e-09
1.283599e-09
1.987018e-10
-1.4823e-09
-9.008042e-11
-2.022842e-09
2.112922e-09
-1.828279e-09
2.38468e-09
-5.564006e-10
1.160962e-10
1.287452e-09
-1.403548e-09
6.66971e-10
-1.91353e-09
1.246559e-09
1.447469e-09
6.157606e-10
-2.06323e-09
3.07692e-10
-1.315828e-09
1.008136e-09
-4.837982e-10
-1.265778e-09
1.749576e-09
1.187322e-09
4.653011e-10
-1.652623e-09
9.354484e-10
-1.737665e-09
8.02217e-10
2.141822e-09
-1.043491e-09
-1.098331e-09
6.537656e-10
-1.117624e-09
1.844139e-09
-1.084192e-09
-7.599472e-10
3.656366e-09
-2.775536e-09
-8.808297e-10
-3.436478e-11
1.812678e-09
-1.778313e-09
-1.881331e-09
1.150423e-09
7.309073e-10
1.776761e-09
-1.056962e-09
-7.197993e-10
-1.216967e-09
1.503746e-09
-2.867789e-10
-4.244236e-09
4.600789e-10
3.784157e-09
-4.014297e-10
1.691028e-09
-1.289598e-09
-1.682032e-09
3.602813e-10
1.32175e-09
-1.087684e-09
-4.02242e-10
1.489926e-09
1.450205e-09
-1.946667e-09
4.964622e-10
-1.883793e-09
4.032654e-10
1.480527e-09
6.742399e-09
-7.091938e-09
3.495394e-10
1.275162e-09
1.181859e-10
-1.393348e-09
9.157903e-10
9.175336e-10
-1.833324e-09
-1.99105e-09
1.955199e-09
3.585159e-11
-9.690097e-11
-1.66645e-09
1.763351e-09
1.705649e-09
-1.027676e-09
-1.007838e-09
1.88098e-09
-8.731415e-10
2.229181e-09
-3.332966e-09
1.103785e-09
-7.918297e-10
-6.982186e-10
1.490048e-09
-3.70187e-10
-1.111643e-09
1.48183e-09
-2.243801e-09
8.872688e-10
1.356533e-09
-1.348265e-09
-7.090309e-09
8.438574e-09
1.252582e-09
-1.767689e-09
5.151067e-10
-1.846963e-09
9.495009e-10
8.974618e-10
-6.419402e-11
6.983694e-09
-6.9195e-09
-1.219108e-09
-5.698488e-10
1.788956e-09
-9.415272e-10
-7.777034e-10
2.186704e-09
-6.174785e-09
3.988081e-09
1.974977e-10
-1.524385e-09
1.326887e-09
-2.184109e-09
8.904874e-10
1.293622e-09
1.085419e-09
-1.895411e-09
8.099923e-10
3.75687e-09
1.716633e-09
-5.473503e-09
1.651674e-09
-3.768893e-09
2.117219e-09
-8.787549e-10
-7.376986e-10
-2.000991e-09
2.564337e-09
-5.63346e-10
-1.323504e-09
8.930929e-11
1.234195e-09
6.313812e-10
1.12422e-09
-1.755601e-09
1.497313e-09
1.52502e-10
-1.649815e-09
4.937696e-10
1.218461e-09
-1.712231e-09
-9.563877e-10
-8.825482e-10
1.838936e-09
-5.00948e-09
5.003042e-09
6.438617e-12
-1.857401e-09
-8.66701e-10
2.724102e-09
-3.105057e-10
1.887423e-09
-1.576917e-09
-1.691705e-09
2.58655e-10
1.43305e-09
2.03673e-09
-1.094732e-09
-9.419973e-10
2.056732e-09
-2.48189e-10
-1.808543e-09
-3.906155e-10
1.255761e-09
-8.651451e-10
-4.129317e-10
1.333566e-09
-9.206341e-10
-1.635096e-09
2.438107e-09
-8.030107e-10
2.972566e-10
-1.196509e-09
4.780739e-10
-1.524418e-09
1.046344e-09
1.510285e-09
-1.310757e-09
-1.995283e-10
-1.311634e-09
2.572697e-10
1.054364e-09
-1.433824e-09
2.028182e-09
-5.943578e-10
-1.185306e-09
-4.895521e-10
1.674858e-09
9.903133e-10
3.312818e-10
-1.321595e-09
6.667119e-10
1.458216e-09
-2.124928e-09
4.71076e-10
-1.587903e-09
1.116827e-09
1.291642e-09
-1.43182e-09
1.401782e-10
1.1011e-09
-1.984221e-09
8.831214e-10
-1.241018e-09
1.725971e-09
2.169537e-10
-1.566161e-09
1.349207e-09
2.044411e-09
-6.794796e-10
-1.364932e-09
9.110496e-10
-2.107863e-09
2.081347e-09
-1.193111e-09
-8.882357e-10
-1.619244e-09
3.437952e-10
1.275449e-09
-1.35159e-09
6.982163e-10
6.533733e-10
-4.663679e-09
3.755822e-09
9.078572e-10
-1.991255e-09
-5.351571e-10
2.526412e-09
-6.998204e-10
-1.223483e-09
1.923303e-09
5.30577e-10
1.296206e-09
-1.826783e-09
7.612899e-10
1.034421e-09
-1.795711e-09
1.700134e-09
-1.650922e-09
-4.92127e-11
-1.663286e-09
7.815878e-10
8.816978e-10
-2.06546e-09
1.276231e-09
7.892288e-10
-3.687268e-10
-1.166965e-09
1.535692e-09
1.053917e-09
-1.754095e-09
7.001777e-10
-1.602585e-09
8.708657e-10
7.317197e-10
4.812865e-09
2.778282e-09
7.245185e-10
1.287683e-09
-2.012201e-09
-1.328686e-09
1.960067e-09
1.318579e-09
4.259468e-10
-1.744526e-09
-5.693961e-10
-7.71215e-10
1.340611e-09
5.162285e-10
-2.127367e-09
1.611138e-09
-1.676903e-09
1.46541e-09
2.114934e-10
1.757642e-09
8.737364e-13
-1.758516e-09
5.088169e-10
-1.59838e-09
1.089563e-09
-9.090447e-10
-1.132424e-09
2.041469e-09
1.895786e-09
-1.414955e-09
-4.808308e-10
-1.256442e-09
1.647045e-09
-3.906029e-10
3.151107e-10
-1.987092e-09
1.671981e-09
1.616508e-09
-7.962411e-10
-8.202673e-10
-1.703648e-10
-1.116329e-09
1.286694e-09
2.086585e-09
-6.545888e-10
-1.431996e-09
1.095108e-09
1.082263e-09
-2.177371e-09
-1.774606e-09
-6.584452e-11
1.840451e-09
-8.540974e-10
-8.681279e-10
-1.171294e-09
-2.995279e-10
1.470822e-09
-1.565571e-09
-1.159188e-10
1.68149e-09
1.23741e-09
5.202339e-10
-1.757644e-09
1.529472e-09
7.333939e-10
-2.262866e-09
1.241622e-09
-2.877434e-10
-9.538782e-10
-1.218628e-09
1.0966e-09
1.220277e-10
2.006235e-09
-1.924397e-09
-8.183894e-11
4.190269e-10
1.323194e-09
-1.742221e-09
-4.156911e-10
2.153107e-09
-1.737416e-09
-2.228844e-09
4.415547e-09
-5.218063e-10
-1.175807e-09
1.697613e-09
-8.697877e-10
-2.280522e-09
3.150309e-09
2.091958e-10
-1.618359e-09
1.409164e-09
1.594804e-09
-9.906526e-10
-6.041514e-10
1.316513e-09
-1.918629e-09
6.021164e-10
1.432066e-09
7.026334e-10
-2.134699e-09
-1.303195e-09
1.860875e-09
-5.576807e-10
1.61585e-09
1.97031e-10
-1.812881e-09
2.669321e-09
-2.275626e-09
-3.936951e-10
-2.053382e-09
6.218315e-10
1.43155e-09
7.488532e-10
7.66912e-10
-1.515765e-09
7.91976e-10
-1.784226e-09
8.776065e-10
9.066195e-10
1.011551e-09
-1.406368e-09
3.948175e-10
8.12121e-10
1.465375e-10
-9.586585e-10
6.205672e-10
-1.421497e-09
8.0093e-10
1.576023e-09
-1.506082e-09
-6.994133e-11
5.434133e-09
-9.399786e-10
-1.93538e-09
9.856676e-10
9.497125e-10
-1.146294e-09
1.163307e-09
-1.701366e-11
-1.329433e-09
8.816484e-10
-1.33876e-09
-5.37799e-10
1.876559e-09
-4.811532e-10
2.009359e-09
-1.528206e-09
-1.074905e-09
-6.443307e-10
1.719236e-09
-1.438579e-09
1.145483e-09
2.078298e-09
-8.229643e-10
-1.255333e-09
-1.060378e-09
1.214455e-09
-1.540772e-10
-8.584817e-10
-5.895038e-10
1.447986e-09
2.00043e-09
-8.172853e-10
-1.183145e-09
1.362411e-09
-1.953098e-09
5.906867e-10
-1.272221e-09
-1.066296e-09
2.338517e-09
-4.353213e-10
1.470184e-09
-1.034863e-09
1.229478e-09
-4.876979e-10
-7.417802e-10
8.512721e-10
-5.852541e-10
-2.66018e-10
1.430819e-09
4.975057e-10
-1.928325e-09
9.156954e-10
8.285375e-10
-1.744233e-09
-1.107964e-09
1.810417e-09
-7.024533e-10
-1.371576e-09
-7.577552e-10
2.129331e-09
1.832997e-09
1.064773e-09
-2.89777e-09
2.029945e-09
-1.291253e-09
-7.38692e-10
1.550052e-09
-1.713066e-09
1.630141e-10
8.07109e-10
7.361285e-10
-1.543237e-09
4.16619e-09
-4.39031e-09
2.241199e-10
7.871895e-10
1.245718e-09
-2.032907e-09
-2.245555e-09
1.798006e-09
4.47549e-10
2.290257e-09
-1.498177e-09
-7.9208e-10
-1.737843e-09
9.535994e-10
7.842433e-10
8.85217e-10
-4.008177e-10
-4.843993e-10
-1.211516e-09
1.371358e-09
1.94247e-09
-3.249298e-10
-1.61754e-09
2.679275e-09
-3.19195e-09
5.12675e-10
2.802869e-09
-4.000089e-09
1.197219e-09
2.996899e-10
-1.539695e-09
1.240005e-09
-1.016052e-09
-1.229503e-09
-2.230314e-09
1.13174e-09
-1.26181e-09
1.448973e-10
1.116912e-09
-1.487619e-10
1.433598e-09
-1.284837e-09
1.488895e-09
-8.772838e-10
-6.11611e-10
6.018055e-11
1.800897e-09
-1.861078e-09
1.184871e-09
7.529427e-10
-1.937814e-09
-7.507477e-10
2.021188e-09
-1.270441e-09
-3.389592e-10
-7.966936e-10
1.135653e-09
1.401963e-09
2.132636e-09
-3.534599e-09
9.477847e-11
1.738218e-09
5.551753e-10
9.226193e-10
-1.477795e-09
8.970026e-10
6.808226e-10
-1.577825e-09
1.189085e-10
-1.726713e-09
1.607805e-09
7.10472e-10
5.612173e-10
-1.271689e-09
-4.146681e-09
6.484183e-10
3.498263e-09
1.872878e-09
-9.571829e-10
-1.849107e-09
9.783922e-10
8.707151e-10
-9.020118e-10
1.663492e-09
-8.746888e-11
-1.147699e-09
-6.193436e-10
1.767043e-09
4.31651e-10
9.878646e-10
-1.419516e-09
2.907398e-09
-1.783188e-09
-1.12421e-09
8.915111e-10
5.082574e-10
-1.399768e-09
1.71027e-09
-1.402578e-09
-1.462663e-09
1.070682e-09
3.919815e-10
-5.770707e-10
-1.062926e-09
1.639997e-09
1.006245e-09
-1.593888e-09
5.876428e-10
2.41237e-09
-9.69454e-10
-1.442915e-09
-2.990159e-10
-1.208593e-09
1.507609e-09
2.706262e-10
1.228856e-09
-1.499483e-09
1.169314e-09
3.337723e-10
-1.503086e-09
-1.092851e-09
1.402253e-09
-3.094021e-10
-2.579899e-10
1.283552e-09
-1.025563e-09
-1.483686e-09
-2.611891e-10
1.744875e-09
-1.49801e-10
1.927468e-09
-1.777667e-09
6.591342e-10
8.214362e-10
-1.48057e-09
-6.654465e-10
1.596814e-09
-9.313672e-10
-1.52629e-09
1.681603e-09
-1.553123e-10
-3.767126e-10
1.891624e-09
-1.514911e-09
-1.480079e-09
4.041918e-10
1.075887e-09
-1.759746e-09
1.680504e-09
7.924102e-11
9.816853e-10
5.760713e-09
1.446503e-09
-1.51382e-09
6.731751e-11
1.351888e-09
6.658816e-10
-2.01777e-09
9.258053e-10
7.919541e-10
-1.717759e-09
-3.164699e-09
-6.962832e-09
1.623917e-09
-1.067486e-09
-5.564305e-10
-1.217265e-09
1.291387e-09
-7.412204e-11
-1.493153e-09
9.937986e-10
4.99354e-10
-1.833351e-10
-1.479445e-09
1.66278e-09
1.149776e-09
-6.787002e-10
1.842555e-09
-7.886382e-10
-6.441593e-10
-9.584261e-10
1.430745e-09
-9.145161e-10
-1.505806e-09
4.470292e-10
1.058776e-09
1.738616e-09
-6.521131e-10
-1.086503e-09
-2.129899e-09
1.866529e-09
2.633704e-10
-8.914657e-10
-4.716505e-10
1.363116e-09
2.600509e-09
-1.713465e-09
-8.870436e-10
-1.980835e-09
1.403315e-09
5.7752e-10
5.384758e-10
-1.611045e-09
1.072569e-09
-2.635219e-09
1.885922e-09
7.492969e-10
-1.288431e-09
-2.634686e-10
1.551899e-09
7.163242e-10
-2.421289e-09
1.704964e-09
-9.052589e-10
-8.51383e-10
1.756642e-09
-3.99447e-10
1.608125e-09
-1.208678e-09
1.290373e-09
3.335438e-10
8.941214e-10
-2.02608e-09
1.131958e-09
-7.853105e-10
-9.338033e-10
1.719114e-09
-1.877719e-09
2.176467e-09
-2.987475e-10
1.210538e-09
-2.655684e-09
-2.47199e-09
-2.191689e-09
1.96031e-10
1.52191e-09
-1.717941e-09
8.134482e-10
7.560135e-10
-1.569462e-09
-4.007935e-09
2.551416e-09
1.456518e-09
1.948487e-09
-6.210064e-10
-1.32748e-09
-8.562209e-10
1.594838e-09
2.914616e-11
1.478512e-09
8.195678e-10
5.190014e-10
-1.338569e-09
1.565251e-09
1.17588e-10
-1.682839e-09
1.045601e-09
-1.583314e-09
2.20044e-09
-1.145582e-10
-2.085882e-09
-9.783252e-10
2.312456e-09
-1.334131e-09
-1.106632e-09
8.852575e-10
2.213748e-10
1.335336e-09
-2.100725e-09
7.653888e-10
2.227328e-09
-7.249254e-09
5.021926e-09
9.671278e-10
1.138641e-09
-2.105768e-09
-8.197676e-10
1.629502e-09
-8.097347e-10
-9.135081e-10
1.618723e-09
-7.052148e-10
2.318777e-09
-1.679722e-09
-6.390553e-10
1.538557e-09
-1.362562e-09
-1.759955e-10
9.485604e-10
-2.500835e-09
1.552275e-09
-5.72223e-10
1.880393e-09
-1.30817e-09
2.169434e-09
-1.737783e-09
1.749321e-09
-8.538478e-10
-8.954736e-10
-1.579939e-09
6.359681e-10
9.439708e-10
8.30888e-10
-1.071938e-09
2.410497e-10
1.748946e-09
-1.673973e-09
-7.497245e-11
4.373644e-09
-2.445225e-09
-1.928418e-09
-1.217242e-09
1.837809e-09
-6.511737e-10
1.408946e-09
-7.577723e-10
1.953725e-09
-1.525696e-09
-4.280298e-10
-1.811484e-09
3.213448e-09
3.252782e-10
-1.411384e-09
1.086106e-09
-2.091017e-09
1.239687e-09
8.513292e-10
-2.255975e-09
-4.87567e-10
2.743542e-09
1.139487e-09
-1.922609e-09
8.847662e-10
1.196374e-09
-2.08114e-09
-2.034377e-10
-1.362133e-09
-1.083725e-09
1.674209e-09
-5.904845e-10
8.66171e-10
-2.206701e-09
1.34053e-09
1.519984e-09
-1.721651e-09
2.016678e-10
6.575688e-10
-1.814193e-09
1.156624e-09
-2.222403e-09
1.518403e-09
7.040005e-10
3.54065e-10
-1.72051e-09
1.366445e-09
-1.073531e-09
-8.443314e-10
1.171188e-09
-1.749995e-09
5.788074e-10
1.641937e-09
-2.943327e-09
1.301389e-09
1.675404e-09
-1.06138e-09
1.112089e-09
-1.905937e-09
9.702152e-10
-1.837012e-09
8.667972e-10
1.937774e-09
-9.273063e-10
-1.010468e-09
1.172363e-09
-2.841654e-09
1.669291e-09
1.18247e-09
-2.134989e-09
9.525184e-10
-6.866426e-10
1.558238e-09
-8.715957e-10
-1.708296e-09
1.914848e-10
1.516811e-09
-1.532035e-09
9.607646e-11
1.435958e-09
-7.497379e-09
6.153674e-09
1.343705e-09
-1.437381e-09
-3.830096e-10
1.820391e-09
-2.47627e-09
8.949928e-10
1.581277e-09
-2.260409e-10
-5.935725e-10
-1.688282e-09
6.975749e-10
9.907069e-10
-4.389913e-10
-1.688376e-09
1.988268e-09
-8.697403e-10
-1.118528e-09
-1.343545e-09
1.434925e-09
-9.137968e-11
1.899928e-09
-9.327999e-10
9.002833e-10
1.184816e-09
-2.085099e-09
-1.741741e-09
1.515754e-09
2.259869e-10
4.859096e-10
1.024376e-09
4.086449e-10
-1.781009e-09
1.372365e-09
1.593815e-09
-1.791198e-10
-1.414695e-09
-1.718229e-09
8.899311e-10
8.282974e-10
2.12253e-09
3.144739e-10
-2.437004e-09
-1.411315e-09
1.24095e-09
-8.688649e-10
1.428477e-09
-5.596126e-10
-1.206917e-09
1.485126e-09
-2.782095e-10
8.367765e-10
-2.538068e-09
1.383809e-09
-9.277101e-10
-4.560989e-10
-1.987274e-10
1.647564e-09
-1.448837e-09
-9.017926e-10
1.690117e-09
-7.883247e-10
-1.525885e-09
1.823828e-09
-2.979431e-10
-1.795625e-09
1.969768e-09
-3.077353e-09
1.107586e-09
-1.677678e-09
1.158889e-09
5.187889e-10
-3.508714e-10
-1.350838e-09
1.701709e-09
1.248492e-09
-1.936628e-09
6.881361e-10
2.297582e-10
1.392107e-09
-1.621865e-09
-3.233474e-09
4.864737e-09
-1.631262e-09
-7.628641e-10
1.906028e-09
-1.143164e-09
-4.029315e-10
-8.711246e-10
1.274056e-09
1.236073e-09
-1.714715e-09
4.786412e-10
-3.036506e-10
1.42787e-09
9.975581e-10
-1.625155e-09
6.275973e-10
-1.058082e-09
-3.157442e-10
1.373826e-09
7.94891e-10
1.127415e-09
-1.922306e-09
1.254856e-09
6.003593e-10
-1.817326e-09
-9.350756e-10
-9.296359e-10
1.864712e-09
-2.753207e-09
-2.078568e-09
7.337387e-10
1.344829e-09
7.291731e-10
-1.452822e-09
7.236486e-10
4.03853e-10
1.697167e-09
-2.10102e-09
1.194414e-09
-8.214718e-10
-3.729418e-10
-5.858018e-10
-1.006022e-09
1.591824e-09
-2.02973e-09
1.27954e-09
7.501897e-10
-2.560206e-09
3.076082e-10
2.252597e-09
-1.619847e-09
-7.527526e-11
1.695122e-09
7.78054e-10
-1.852653e-09
1.074599e-09
1.11266e-09
1.048882e-09
-2.161542e-09
1.300448e-09
-3.774577e-10
-9.229901e-10
-1.247546e-09
8.482498e-10
3.992963e-10
-1.332302e-09
-1.816656e-09
3.148958e-09
7.189206e-10
-1.6542e-09
9.352799e-10
-1.302768e-09
1.730314e-09
-4.275463e-10
-6.747252e-10
-1.206919e-09
1.881644e-09
2.022909e-09
-1.261619e-09
9.668041e-10
-1.796939e-09
8.301347e-10
-6.469014e-11
-1.118742e-09
1.183432e-09
1.833531e-09
-1.041717e-09
-7.918138e-10
-1.710497e-09
2.268109e-10
1.015306e-09
5.194727e-10
-1.534778e-09
4.280288e-12
-1.89931e-09
1.89503e-09
-8.517454e-10
1.831097e-09
-9.793513e-10
-1.315224e-09
-6.544255e-09
7.859479e-09
-1.949623e-09
6.093984e-10
1.340224e-09
-1.068909e-09
-8.675286e-10
1.526265e-09
-6.587366e-10
-1.307388e-09
-8.577815e-10
2.16517e-09
2.642229e-09
-2.746312e-09
1.040835e-10
1.684398e-09
-1.870849e-10
-1.857682e-09
1.392513e-09
4.651682e-10
-1.148999e-09
-3.284863e-10
1.477485e-09
1.021915e-09
-1.537829e-09
5.159136e-10
-8.867077e-10
-1.048167e-09
1.934875e-09
2.016193e-09
-5.717143e-10
-1.444479e-09
-2.445986e-09
3.764762e-09
4.352057e-10
-1.321055e-09
8.85849e-10
5.032818e-10
1.225468e-09
-1.72875e-09
9.62097e-09
-9.62097e-09
-1.520939e-09
1.138001e-09
3.829381e-10
1.760785e-09
-9.047427e-10
-8.560424e-10
1.08004e-09
-1.650928e-09
1.593201e-09
-9.39007e-10
-6.541938e-10
-1.62922e-09
-1.802236e-10
1.809444e-09
1.430141e-09
1.766857e-09
-3.196999e-09
1.615985e-09
-8.757342e-10
1.47028e-09
-8.407198e-10
-6.295606e-10
1.563559e-09
-7.123835e-10
-8.511754e-10
1.796461e-09
-5.527272e-10
-1.243734e-09
8.432e-10
-1.608929e-09
7.657293e-10
1.924075e-09
-4.932558e-10
8.507087e-10
5.622336e-10
-1.412942e-09
-7.85286e-10
-5.441474e-10
1.80401e-09
-1.510423e-09
-2.935873e-10
1.679963e-09
3.224306e-11
-1.635662e-09
1.603419e-09
-2.719417e-10
1.574219e-09
-1.302278e-09
6.78011e-10
1.599232e-09
-1.180205e-09
-9.535459e-10
1.819717e-09
1.859902e-09
-1.287217e-09
-5.726855e-10
2.224225e-09
-1.288776e-09
1.306044e-09
-1.481085e-09
1.750409e-10
3.330617e-10
-1.898685e-09
1.565623e-09
-4.089347e-10
-1.500638e-09
-1.380082e-09
1.273375e-09
1.067069e-10
8.151439e-11
-1.397343e-09
7.36203e-09
-2.131805e-09
2.558007e-09
9.93251e-10
-3.551258e-09
-2.824632e-09
1.492329e-09
7.938672e-10
-1.689715e-09
3.507445e-10
-1.111665e-09
7.609207e-10
-1.146307e-09
1.193494e-09
-4.718746e-11
-3.662959e-10
1.791978e-09
-1.425682e-09
1.31297e-09
5.599086e-10
-1.23211e-09
1.72588e-09
7.712288e-10
-1.772067e-09
1.000838e-09
5.880098e-10
-3.054975e-09
2.466965e-09
-1.808737e-09
-5.701881e-10
3.742691e-09
2.25322e-09
-5.995911e-09
-1.822294e-09
3.042865e-10
1.518007e-09
-6.769994e-10
1.817103e-09
-1.140104e-09
-3.053568e-09
-1.529354e-09
4.582922e-09
-2.346152e-09
-1.978406e-09
4.324559e-09
9.860656e-10
-1.385363e-09
3.992971e-10
-3.485224e-09
7.131251e-10
2.772099e-09
-1.516815e-09
6.504575e-10
8.663571e-10
-9.358017e-10
2.048461e-09
2.577467e-09
-2.536236e-09
-4.123165e-11
1.131386e-09
6.179356e-10
-2.679662e-09
2.103434e-10
2.469318e-09
1.427909e-09
-2.985628e-10
-1.129346e-09
1.781856e-09
-5.684046e-10
-1.213452e-09
8.323382e-10
1.254247e-09
-1.686159e-09
2.558767e-09
-8.72608e-10
-4.675781e-10
-1.12631e-09
1.593888e-09
-1.645987e-09
9.066473e-10
7.393393e-10
-8.736628e-11
-3.397858e-09
1.668849e-11
-1.350561e-09
1.333872e-09
-1.179498e-09
2.022698e-09
-1.400663e-09
2.231198e-09
-8.305353e-10
-1.792858e-09
9.340897e-10
8.587678e-10
-1.201573e-09
1.541837e-09
-3.402639e-10
1.895688e-09
-1.12446e-09
-9.466389e-10
2.942506e-10
-9.636929e-10
1.885982e-09
-9.222893e-10
-9.837819e-11
-1.252634e-09
1.351012e-09
3.838572e-10
1.27988e-09
-1.663737e-09
5.499295e-10
-1.747713e-09
-6.400664e-10
2.087536e-09
-3.973096e-10
-7.679907e-10
1.1653e-09
1.600798e-09
-9.416641e-10
2.395394e-10
1.034198e-09
-1.273737e-09
-1.105509e-09
3.759916e-10
7.295172e-10
-4.500313e-10
1.507205e-09
-1.057174e-09
5.323579e-09
-3.621057e-09
-1.702522e-09
9.075532e-10
-1.617416e-09
7.098631e-10
-2.093819e-10
1.449696e-09
-1.240314e-09
1.310739e-09
-1.321553e-09
1.081365e-11
3.744353e-10
-1.729712e-09
2.562264e-10
5.271239e-09
-1.162165e-09
-4.109074e-09
2.270474e-11
1.221481e-09
-1.244186e-09
-2.972163e-10
1.592238e-09
-1.295021e-09
2.912492e-09
-3.047365e-10
-2.607755e-09
-1.125253e-09
2.116275e-09
-9.910221e-10
-1.017835e-09
1.732618e-09
-7.147833e-10
-1.504642e-09
2.57096e-10
2.627304e-09
-2.333054e-09
-1.362688e-10
1.432899e-09
-1.29663e-09
3.322379e-10
1.396609e-09
-1.728847e-09
6.043964e-10
-1.149679e-09
5.452824e-10
-3.700928e-10
-1.134549e-09
1.32032e-09
2.604256e-09
-3.924576e-09
1.354315e-10
1.604716e-09
-1.740148e-09
3.104345e-09
1.035684e-10
-3.207914e-09
-1.087207e-09
2.060976e-10
-3.888201e-10
-8.478419e-10
1.236662e-09
1.688451e-10
3.435218e-09
-3.604063e-09
-1.693948e-09
5.57652e-10
1.136296e-09
1.285878e-09
7.023903e-10
-1.527815e-09
-2.312768e-11
1.550942e-09
-3.376891e-09
3.350937e-09
2.595418e-11
-1.60629e-09
-3.312756e-09
4.919045e-09
-1.201744e-09
1.585601e-09
1.974317e-09
-1.127778e-09
-8.465396e-10
7.284413e-10
1.913788e-09
6.319493e-10
7.518598e-10
8.238544e-10
1.11392e-09
-2.723769e-10
-1.562287e-09
1.834664e-09
9.270753e-10
-2.590447e-09
1.663371e-09
-1.726927e-10
-1.111551e-09
1.284244e-09
-1.636485e-09
1.791495e-09
-1.550099e-10
1.613577e-09
-8.844039e-10
1.341104e-09
-1.897401e-09
5.562974e-10
1.517288e-09
-1.682067e-09
1.647789e-10
-6.229079e-10
-1.827751e-09
2.450659e-09
1.289724e-09
-1.468844e-09
-5.724389e-10
-8.649421e-10
1.271449e-09
5.884532e-10
1.142035e-09
-1.509475e-09
3.674403e-10
5.164533e-10
-1.100442e-09
-2.26317e-09
2.113368e-09
5.127823e-10
1.054151e-09
-1.566933e-09
-1.275308e-09
1.970864e-09
-6.955559e-10
2.236654e-09
8.20726e-10
-2.196973e-09
1.376247e-09
1.504997e-09
-2.20496e-09
6.999627e-10
5.962484e-10
1.319454e-09
-2.335038e-09
5.286815e-09
-2.951778e-09
-1.974339e-09
1.682417e-09
2.919219e-10
-7.638016e-10
-1.023137e-09
-9.088012e-10
1.931938e-09
-6.904722e-10
1.920041e-09
-1.229569e-09
7.928352e-11
1.605115e-09
1.008427e-09
5.779385e-10
-1.586365e-09
-3.506025e-09
-4.529673e-11
-1.347098e-09
1.392395e-09
1.90539e-09
-1.796842e-10
-1.725706e-09
7.688062e-10
-1.336192e-09
1.56496e-09
-8.255936e-10
-7.393662e-10
3.764732e-11
-1.361152e-09
-1.839365e-09
-3.103245e-10
2.14969e-09
7.168117e-09
-1.694624e-09
-5.473493e-09
9.757613e-10
1.06865e-09
-1.816022e-09
2.119573e-09
-3.035508e-10
3.663149e-09
-3.750515e-09
1.313965e-09
2.349184e-09
-1.824511e-09
1.657044e-09
1.674673e-10
-4.647211e-09
3.97776e-10
4.249435e-09
-9.087517e-10
-8.754743e-10
-8.950116e-10
-1.017407e-09
1.912418e-09
-1.18896e-10
-5.39641e-09
5.515306e-09
1.349207e-09
7.691379e-10
-2.118345e-09
9.790212e-10
-1.798789e-09
-4.913648e-10
1.423303e-09
-9.319377e-10
9.304172e-10
-1.595864e-09
-1.269318e-09
9.777689e-11
1.171541e-09
5.156308e-10
1.38976e-09
-3.952003e-10
1.53109e-09
-1.13589e-09
5.712197e-10
-1.00774e-09
-5.878658e-10
1.595606e-09
-1.258359e-09
1.099136e-09
1.592233e-10
-1.358656e-09
-4.510283e-10
1.809684e-09
-1.068076e-09
2.35913e-09
-1.291054e-09
-1.56041e-09
-4.30845e-10
-1.699709e-09
1.745196e-09
-4.548709e-11
1.563602e-09
2.005738e-09
9.932601e-11
-2.105064e-09
-1.992369e-09
1.637902e-09
3.544674e-10
-1.677387e-09
7.202045e-10
1.166374e-09
-1.673057e-09
5.066829e-10
1.629604e-09
-3.446259e-09
1.028018e-09
-1.805721e-09
1.519803e-09
-1.389517e-09
-1.30286e-10
3.129209e-09
-1.606094e-09
-1.523115e-09
2.775851e-10
1.239505e-09
-1.51709e-09
-9.954373e-10
-8.5367e-10
-1.090449e-09
1.856914e-09
-7.664653e-10
-2.992707e-09
3.721148e-09
-8.28254e-10
1.724801e-09
-8.965471e-10
9.184123e-10
1.988986e-09
-5.363967e-10
1.885603e-09
8.645014e-10
-1.508661e-09
-3.539744e-10
-1.288933e-09
1.642907e-09
-2.792308e-10
-1.874566e-09
2.153796e-09
1.595529e-09
-8.157156e-10
-7.798133e-10
-1.732739e-10
1.436862e-09
-1.263588e-09
2.264661e-09
-3.226807e-09
1.655634e-09
-1.928011e-09
-7.631079e-10
2.281087e-09
-1.517979e-09
-1.383213e-09
-5.0058e-10
2.019542e-09
-1.042573e-09
-9.769691e-10
1.415493e-09
-1.737929e-09
3.224364e-10
1.641344e-09
-5.22676e-10
-1.118668e-09
-5.232736e-10
1.775856e-09
-6.681381e-10
-1.159672e-09
1.82781e-09
-2.131795e-09
1.121065e-09
1.01073e-09
-1.420844e-09
-6.184544e-10
2.039298e-09
2.117149e-09
-5.012986e-10
-2.797425e-09
-4.395175e-09
7.1926e-09
-3.076652e-09
3.855396e-09
-7.787435e-10
-2.056044e-09
4.180361e-09
-2.124317e-09
1.887902e-09
-1.829281e-09
-5.862072e-11
1.283396e-09
-1.948872e-09
6.654758e-10
6.865497e-10
1.346153e-09
-2.032703e-09
-5.778246e-09
2.552908e-09
3.225338e-09
6.456285e-10
1.34234e-09
-1.987968e-09
-1.855901e-09
1.044071e-09
8.118302e-10
9.348664e-10
1.01133e-09
-1.946197e-09
1.380214e-09
-2.139275e-09
7.590614e-10
2.540297e-09
-2.756364e-10
1.827809e-09
6.475552e-09
-5.577634e-10
-1.524338e-09
2.082102e-09
-1.702269e-09
-4.271387e-10
2.129408e-09
2.15426e-09
-1.844922e-10
-6.935707e-10
1.412491e-09
-9.602947e-10
1.817221e-09
-8.569267e-10
-1.333609e-10
-1.392524e-09
-6.142806e-09
3.473514e-09
2.669292e-09
1.320076e-09
7.468314e-09
-8.783538e-09
-1.817424e-09
1.873419e-09
-5.599447e-11
1.992234e-09
-8.70068e-10
-1.122166e-09
-1.210534e-09
-3.85916e-10
1.59645e-09
-7.382779e-10
4.152352e-09
-3.414074e-09
-1.617512e-09
1.573418e-09
4.409405e-11
1.817343e-10
1.679392e-09
-1.861127e-09
1.128218e-09
2.250677e-09
-1.583706e-09
-5.784529e-10
1.812837e-09
-1.234384e-09
-1.077753e-09
-9.146164e-10
9.780044e-10
1.877307e-09
-2.855312e-09
-4.588953e-09
4.735579e-09
-1.46626e-10
-1.528618e-09
-2.542435e-11
1.554043e-09
-1.901125e-09
5.77224e-10
1.323901e-09
-1.876804e-09
1.125149e-09
7.516553e-10
-4.612348e-10
-1.41557e-09
1.0304e-09
-6.142969e-10
-4.161031e-10
-1.406431e-09
1.174661e-09
1.133204e-09
-1.716857e-09
5.836527e-10
9.36878e-10
-1.870916e-09
9.340378e-10
6.754046e-10
-1.955888e-09
1.280484e-09
-9.888397e-10
1.964517e-09
-9.756773e-10
-1.5705e-09
-2.480578e-10
1.818558e-09
-2.050528e-10
1.484768e-09
1.100641e-10
-1.499295e-09
9.222244e-10
1.911591e-10
1.079429e-09
-1.270588e-09
-9.995156e-11
-1.328781e-09
1.428732e-09
1.498778e-09
5.396282e-10
-2.038406e-09
1.07459e-09
-1.52053e-09
1.154711e-09
3.658186e-10
-1.000681e-09
1.776556e-09
-7.758742e-10
-1.067561e-09
-8.679856e-10
1.935546e-09
1.248205e-09
-3.235826e-09
1.987621e-09
1.270133e-10
-2.366141e-09
3.432696e-09
-7.633747e-10
1.71767e-09
-7.400604e-12
-7.770049e-10
1.707422e-09
6.501784e-10
-1.577889e-09
1.608258e-09
-8.011489e-10
1.849142e-09
-6.779541e-10
9.92666e-10
-1.473819e-09
5.285176e-10
3.681262e-09
-4.20978e-09
-1.033232e-09
-2.463744e-10
1.279607e-09
9.618855e-10
-1.537503e-09
2.782224e-09
4.385894e-09
-1.795239e-09
1.421154e-10
1.653123e-09
1.782656e-09
8.021739e-11
-1.862873e-09
-8.118779e-10
2.219816e-09
-1.407939e-09
-1.995442e-09
1.716211e-09
2.509467e-09
-8.627769e-10
-1.64669e-09
2.046022e-09
-1.106697e-09
-9.393255e-10
-2.469415e-09
8.846886e-10
1.584726e-09
-2.218189e-10
1.736959e-09
-1.51514e-09
3.618158e-10
1.460728e-09
-1.822543e-09
1.721e-09
8.433377e-10
1.360526e-09
1.439129e-10
-1.504439e-09
2.270482e-09
-3.512113e-09
1.693295e-09
-1.349829e-09
-3.43466e-10
-1.571091e-09
1.475445e-09
-8.285972e-10
-1.044808e-09
1.873406e-09
1.432506e-09
-2.261103e-09
-1.386116e-09
1.583613e-09
1.809405e-09
-1.664821e-10
1.255823e-09
-1.089341e-09
-1.098728e-09
1.273895e-09
-1.751672e-10
-2.028548e-09
9.577773e-10
1.070771e-09
-9.49927e-10
-1.061115e-09
2.011042e-09
-1.328084e-09
2.307105e-09
-1.311994e-09
2.206799e-09
-8.948045e-10
1.333687e-09
1.687548e-09
-5.489071e-10
7.793694e-10
1.221061e-09
-3.900222e-10
-1.382044e-09
1.812638e-09
-9.350314e-10
-1.982097e-09
6.459046e-10
1.542128e-09
4.130701e-10
-3.383766e-09
-3.862995e-10
3.770065e-09
-6.210833e-10
1.17566e-09
-5.545763e-10
-1.334859e-09
3.760339e-10
-1.762859e-09
1.386825e-09
1.979558e-09
-1.499499e-09
-4.800588e-10
1.382829e-09
-9.695178e-11
1.461911e-09
-9.40874e-10
-5.210366e-10
1.386544e-09
-8.592862e-10
-5.272573e-10
-1.376922e-09
1.39361e-09
-1.938968e-09
1.021877e-09
9.170906e-10
-2.198936e-09
-1.808999e-09
-1.347643e-09
-1.72971e-09
1.500438e-09
-1.097462e-10
1.765677e-09
1.294973e-09
-3.874198e-10
1.284778e-09
-1.390317e-09
1.055394e-10
2.189631e-09
-1.24107e-09
1.19511e-09
-1.798047e-10
-4.491219e-10
-1.875427e-09
2.324549e-09
9.736286e-10
-1.23675e-09
2.631209e-10
-1.773889e-09
2.917285e-10
1.482161e-09
5.79887e-10
7.489156e-10
-1.328803e-09
-1.626973e-09
4.965903e-10
1.130383e-09
-1.820673e-09
5.086783e-10
-9.596318e-09
3.340536e-09
6.255783e-09
1.424655e-09
-8.566615e-10
-5.679933e-10
-1.607244e-09
-6.130396e-10
-8.930146e-10
1.506054e-09
-1.942539e-09
-1.31523e-09
4.134122e-10
9.018175e-10
3.867969e-11
1.367997e-09
-1.406676e-09
-1.959159e-09
6.223648e-10
1.336794e-09
-1.614575e-09
5.366583e-10
1.077917e-09
-1.860958e-09
2.220738e-09
-4.641729e-09
2.42099e-09
-1.648435e-09
2.769937e-10
1.371442e-09
-3.666228e-10
1.767465e-09
-1.400842e-09
1.111931e-09
5.704858e-10
-1.682417e-09
8.123757e-10
-1.992709e-09
1.180334e-09
1.342326e-09
-2.052342e-09
7.100164e-10
-8.831034e-10
1.731486e-09
-8.483831e-10
8.704026e-10
-1.986066e-09
1.115664e-09
-1.000129e-09
1.522923e-09
-5.227935e-10
7.53215e-10
-1.879979e-09
-1.933146e-11
-5.620643e-10
2.457094e-09
4.689048e-10
1.47578e-09
-1.944685e-09
-1.783596e-09
1.020732e-09
3.436426e-09