/*--------------------------------*- C++ -*----------------------------------*\
| =========                 |                                                 |
| \\      /  F ield         | OpenFOAM: The Open Source CFD Toolbox           |
|  \\    /   O peration     | Version:  2406                                  |
|   \\  /    A nd           | Website:  www.openfoam.com                      |
|    \\/     M anipulation  |                                                 |
\*---------------------------------------------------------------------------*/
FoamFile
{
    version     2.0;
    format      ascii;
    arch        "LSB;label=32;scalar=64";
    class       volVectorField;
    location    "0.4";
    object      U;
}
// * * * * * * * * * * * * * * * * * * * * * * * * * * * * * * * * * * * * * //

dimensions      [0 1 -1 0 0 0 0];

internalField   nonuniform List<vector> 
4541
(
(0.01003654 -8.051558e-05 1.098802e-23)
(0.0105724 -0.0006123635 -3.256556e-24)
(0.01098884 -0.001562058 0)
(0.01079831 -0.001518793 0)
(0.01031701 -0.0006966075 -3.097838e-24)
(0.00945366 -0.0009701217 0)
(0.01022389 -0.0008368685 9.802368e-24)
(0.01025191 -0.0006762336 -2.397169e-23)
(0.009320016 -0.0006099073 1.437874e-23)
(0.01136173 -9.254614e-06 3.693578e-24)
(0.00938833 -0.00112405 1.636899e-23)
(0.01032788 -0.001152047 -9.460443e-24)
(0.01102262 -0.0005676239 6.851611e-24)
(0.01000461 -0.0004523178 1.85456e-24)
(0.01084944 -0.00169959 0)
(0.01135382 0.0004630016 -2.420719e-27)
(0.01025299 0.001305491 2.225161e-24)
(0.009429472 0.001437839 -1.22774e-24)
(0.009945849 0.001377296 -7.489863e-24)
(0.01044722 -0.00212008 3.654781e-24)
(0.01044879 -0.0001858673 0)
(0.01048985 -0.0009116959 -1.114779e-23)
(0.01114817 0.0005484969 0)
(0.008395527 -0.0006245553 4.1698e-23)
(0.01053742 -0.001703174 0)
(0.010234 -0.0007126991 7.578894e-24)
(0.01002249 -0.000564292 -4.626135e-24)
(0.01018779 -0.0005540584 4.57308e-24)
(0.009347812 -0.000416165 5.243158e-24)
(0.01106551 -0.0006711602 0)
(0.01006191 -0.0004403129 -2.014484e-23)
(0.01000735 -0.0004889599 -2.191213e-24)
(0.01126489 -6.336961e-06 -1.5767e-24)
(0.009688192 -0.0005930217 -8.360477e-24)
(0.01070961 -0.001199333 0)
(0.01074583 -0.0001550002 0)
(0.0109797 -0.001478587 0)
(0.01123427 -0.0009593495 -1.308322e-24)
(0.009958164 -0.0004730166 -3.635965e-23)
(0.008964237 0.001513295 3.484061e-24)
(0.01080249 -0.0001863582 0)
(0.00917148 -0.0004525656 -1.079925e-23)
(0.01073055 -0.0005646697 -2.398082e-24)
(0.01103464 9.820994e-05 -4.839171e-25)
(0.01110822 -0.000501564 6.409681e-24)
(0.01136267 -3.486973e-05 -3.957648e-24)
(0.01120622 -0.0008771018 5.853689e-24)
(0.008539387 0.001507672 0)
(0.01068363 -0.001856084 0)
(0.01011369 -0.0006950224 1.242772e-25)
(0.009906012 -0.000936142 0)
(0.01092269 0.0003213551 0)
(0.01036233 0.001109408 6.491241e-25)
(0.01005967 -0.0006821299 2.909099e-24)
(0.01074001 0.001074633 -1.055436e-24)
(0.009834489 -0.001452345 2.129824e-23)
(0.01001765 -0.0001575506 6.418944e-24)
(0.009685975 -0.0001778731 2.294548e-24)
(0.01112923 0.0004565545 4.131112e-24)
(0.01071905 -0.001063789 4.683398e-24)
(0.009944301 -0.0006201816 0)
(0.01076819 -0.00085348 0)
(0.01015867 0.001082917 0)
(0.006801622 -0.001846018 -8.695306e-24)
(0.00924202 -0.001294863 4.939692e-23)
(0.009471409 -0.002436618 -8.265818e-24)
(0.009843079 -0.0005899089 -9.389712e-24)
(0.01118761 -0.000399001 1.132722e-23)
(0.01103242 0.0004834686 -7.682088e-25)
(0.009780649 0.0007351543 0)
(0.01061617 0.001062517 3.064435e-24)
(0.01142836 0.0002010567 5.302123e-25)
(0.01016649 -0.0007424081 0)
(0.01156389 -0.0003501533 8.93624e-25)
(0.00956765 -0.0004338288 2.594083e-23)
(0.01155239 -0.0004003251 7.58838e-25)
(0.01001805 0.001240752 -1.466098e-24)
(0.008483338 0.001549423 -5.513262e-25)
(0.01124211 -0.001345401 2.363324e-24)
(0.009837835 -0.0002419523 -1.973148e-23)
(0.01059751 0.0005353886 0)
(0.01103217 -0.001599922 -2.89709e-24)
(0.009811117 -0.0008608314 2.004684e-25)
(0.01138784 -0.0005196058 4.530177e-24)
(0.01002554 -0.0002641389 0)
(0.01056369 -0.001255177 7.428312e-24)
(0.01078454 -0.001057958 0)
(0.01004017 0.000363887 1.454982e-23)
(0.01035945 0.001248926 -2.588194e-24)
(0.01139543 0.0003969197 0)
(0.01008209 -0.0001473221 -1.209333e-23)
(0.009571598 0.0009581653 -9.506786e-24)
(0.008753769 0.001489207 0)
(0.01017632 0.0013196 0)
(0.01012129 -0.001049197 1.923499e-23)
(0.008403228 0.0015803 5.239792e-24)
(0.01042038 -0.001790433 6.751472e-24)
(0.01067409 -0.000601267 -5.264362e-24)
(0.01043113 -0.0007121478 -1.84053e-23)
(0.01039004 -0.001046829 -4.397414e-24)
(0.01012455 -0.001372273 1.084987e-23)
(0.0105976 -0.0001695987 0)
(0.00968626 -0.0005360592 -8.21979e-24)
(0.01125664 -0.0003598476 -1.6843e-24)
(0.0109077 0.0001003196 4.228906e-24)
(0.009911999 -0.001335995 -3.749377e-23)
(0.008725848 0.001439336 3.632113e-24)
(0.01091856 -0.0003072292 -1.470054e-23)
(0.01085532 -0.0008224726 -6.398149e-24)
(0.01144904 -0.0006742097 -2.296768e-24)
(0.01038654 -0.0006194851 4.215643e-24)
(0.009985579 -0.0001585063 -2.278538e-23)
(0.01121171 3.49662e-05 0)
(0.01087403 0.00055549 -3.968163e-25)
(0.009854494 -0.0004563445 5.005226e-26)
(0.009847454 -0.001687438 -1.673786e-23)
(0.01006586 -0.0009035053 0)
(0.01040742 0.001244511 0)
(0.009972462 -0.0008396182 2.386755e-23)
(0.009137724 -0.0006474637 1.993426e-23)
(0.01092146 0.000180905 3.226561e-24)
(0.01099173 0.000471585 0)
(0.008952203 -0.002186822 -1.515516e-23)
(0.01127952 2.134811e-05 4.957984e-24)
(0.01061481 0.001072421 1.300217e-24)
(0.0108193 -0.0007578309 0)
(0.008158874 -0.001774022 0)
(0.007714626 -0.00221993 2.537616e-23)
(0.01052499 -0.0006816227 -1.556327e-24)
(0.00920793 -0.00123635 3.498094e-25)
(0.009545625 -0.0006323459 9.87194e-24)
(0.01044118 -0.001330731 6.992503e-24)
(0.01009634 -0.0007537545 2.327246e-23)
(0.01087222 -0.0007547994 -7.436154e-24)
(0.01029707 -0.002202044 -2.274887e-24)
(0.006905408 -0.001264726 0)
(0.01140843 -5.590563e-05 2.573282e-24)
(0.01018539 -0.0006556855 -8.641438e-26)
(0.009158863 -0.001858341 5.473525e-24)
(0.01119263 -0.0005218615 -3.661173e-24)
(0.0101259 -0.0006878854 8.498956e-24)
(0.009947393 0.00139571 1.953822e-24)
(0.009296876 -0.0008335701 -1.51527e-23)
(0.01023469 0.001142969 -1.174004e-24)
(0.01089113 -0.0009804078 -4.803914e-24)
(0.00905896 -0.001868855 4.087289e-24)
(0.009091669 -0.0008420339 -1.287298e-23)
(0.009975291 -0.0003788104 0)
(0.0109257 -0.0005789811 0)
(0.009789827 -0.000438736 -5.48709e-24)
(0.01068895 0.0008746903 2.402043e-26)
(0.01114836 -0.001442102 -4.479085e-24)
(0.01006757 -0.001094024 0)
(0.0106406 -0.001662247 6.077822e-26)
(0.01029732 -0.0007143989 -6.913573e-24)
(0.009389511 -0.0006127091 0)
(0.009345338 -0.0009592884 8.084807e-24)
(0.009204182 0.00152242 -9.471445e-24)
(0.009996535 -2.424953e-05 -1.430172e-23)
(0.01130018 -0.0007952101 4.27521e-24)
(0.01005124 -0.0009270733 -1.748752e-23)
(0.01038676 -0.000970925 -1.009494e-24)
(0.008894458 -0.001299032 -2.628327e-25)
(0.01016653 0.001249868 1.021609e-23)
(0.01133901 -0.0001721865 4.00862e-24)
(0.01117422 0.0004694928 0)
(0.009278444 -0.00162139 0)
(0.01076224 -0.001319677 8.504867e-24)
(0.00953144 -0.002535312 1.029236e-23)
(0.009786886 -0.0003662699 -2.225715e-23)
(0.009722451 -0.0003770015 -1.262966e-23)
(0.01081592 0.0007150968 0)
(0.01041996 0.000739996 0)
(0.01091812 0.0006989248 -3.251258e-26)
(0.01056037 0.001054799 0)
(0.01110184 -0.0006932824 -5.175187e-24)
(0.00843608 0.001404129 0)
(0.01027523 -0.001032958 6.465882e-24)
(0.01079165 -0.001659237 -4.932487e-24)
(0.009557075 -0.0004994931 8.770954e-24)
(0.01092616 0.0009491335 -2.489261e-24)
(0.007387104 -0.002293419 -1.681954e-23)
(0.0114939 -0.0002218538 1.682161e-24)
(0.01023679 -0.0005607349 1.658865e-23)
(0.01037772 -0.002034178 0)
(0.01126591 0.0004080868 -4.089264e-25)
(0.01097709 -0.0003267442 5.252513e-24)
(0.00983783 -0.0006454418 -3.300754e-23)
(0.01128658 -0.0001011805 0)
(0.009685869 -0.0004449007 5.509939e-24)
(0.01056411 -0.001164342 0)
(0.01100987 -0.0009751966 0)
(0.01091647 0.0005787914 1.087747e-25)
(0.01153575 -2.930015e-05 -6.332249e-26)
(0.01070446 0.001076815 -3.387217e-24)
(0.01116712 -0.0003410152 0)
(0.0101284 -0.001169678 -9.66192e-24)
(0.008811976 0.001562265 -3.701736e-24)
(0.008389943 0.001557204 -6.702543e-24)
(0.01047775 0.001113302 -1.276062e-24)
(0.01148825 -0.0006085375 -2.503182e-25)
(0.007609248 -0.00110506 -1.750874e-25)
(0.01026986 -0.0008892316 -9.836773e-24)
(0.01123129 0.0006206583 0)
(0.01098713 0.000119956 3.445129e-24)
(0.01098604 0.0007663441 0)
(0.01009598 -0.001518515 -1.625365e-24)
(0.01070013 0.001100115 0)
(0.01015286 -0.001280943 0)
(0.01104578 -0.0009430495 -3.459591e-24)
(0.01004845 -0.000518876 0)
(0.01032046 0.001016425 0)
(0.01088488 -0.0009252404 0)
(0.01014452 -0.002217172 -8.399334e-24)
(0.00860058 -0.00100197 2.292328e-23)
(0.01043261 -0.001214503 0)
(0.01137579 0.0004276402 -6.22262e-25)
(0.01069152 -0.000697288 0)
(0.007912846 -0.001868053 -2.456538e-23)
(0.008740324 -0.001825058 -1.483649e-24)
(0.006185121 -0.001069688 5.245949e-23)
(0.01143687 0.0002900623 -1.142381e-25)
(0.009688108 -0.0006520133 -2.300707e-23)
(0.01000512 -0.001378731 -7.423008e-24)
(0.01149189 -7.451637e-05 6.251684e-24)
(0.009996558 -0.0005401695 0)
(0.01145929 0.0002569072 -7.12221e-26)
(0.0113719 0.0003496125 2.3454e-25)
(0.01033122 0.001227855 0)
(0.009880457 -0.000266387 0)
(0.01040835 -0.0009245165 -4.541089e-26)
(0.0102191 -0.000485068 6.505975e-24)
(0.01127841 0.0003410971 8.047599e-25)
(0.009600632 -0.0005956656 1.901147e-23)
(0.007573529 -0.002471665 0)
(0.008698881 0.001400262 0)
(0.01058848 -0.001739827 2.106159e-24)
(0.01097889 -0.0004370954 1.835203e-24)
(0.009999917 -0.0003318327 -1.53888e-23)
(0.009867712 -0.0006745641 -2.214305e-23)
(0.01020257 -0.0004686826 2.092818e-23)
(0.01050611 0.001010289 8.603627e-25)
(0.01011077 -0.0023192 -6.765213e-24)
(0.009733167 -0.0007388289 0)
(0.009777055 -0.0009551976 0)
(0.01021081 -0.0005377774 2.115827e-23)
(0.01038525 -0.0008393095 1.546708e-23)
(0.01069338 -0.0009117326 2.355534e-24)
(0.01060561 0.0008133715 2.437482e-24)
(0.01023863 -0.0004180533 -1.108434e-23)
(0.01000576 -0.0005494216 0)
(0.009065087 -0.0009574735 5.236367e-24)
(0.01098598 0.000861427 2.703296e-25)
(0.01130132 0.0002271367 0)
(0.009443208 -0.001428244 0)
(0.01030839 -0.0002899708 0)
(0.009655801 -0.0006538359 1.66489e-23)
(0.01064112 0.0009268518 -4.777297e-25)
(0.01016318 0.001160162 1.556125e-24)
(0.01119069 0.0006731666 -1.295337e-25)
(0.009620911 -0.0005061577 -2.515574e-23)
(0.01029197 -0.0008598697 -4.616063e-24)
(0.01122519 0.0002157717 2.504134e-24)
(0.007574239 -0.001526749 0)
(0.01017701 -0.0007321831 1.142418e-23)
(0.009563169 0.0001195096 4.152253e-24)
(0.01016874 -0.000558672 8.685457e-25)
(0.008679454 0.001555375 0)
(0.01129791 -0.0003367438 3.238257e-24)
(0.01010853 0.001323559 -4.957077e-24)
(0.01014757 0.0005349675 -1.301793e-23)
(0.01096607 -0.0007286095 -9.520894e-24)
(0.009357677 -0.0006757833 1.206287e-23)
(0.0098964 -0.0007639691 -1.059248e-23)
(0.01134348 0.0002378772 2.868223e-24)
(0.01122647 0.0005420251 -3.047199e-25)
(0.008339179 -0.002724348 -1.24932e-23)
(0.009866883 0.00135675 4.765557e-24)
(0.01088286 -0.0015624 1.110118e-23)
(0.01062153 -0.001513404 -1.005765e-23)
(0.01003035 -0.001776563 1.698824e-23)
(0.01021081 0.001319012 0)
(0.01011816 -0.000150927 1.147901e-23)
(0.01115765 -0.0009281092 0)
(0.01077676 0.0009548488 -1.350204e-24)
(0.01140971 -0.0006210902 5.52114e-25)
(0.01071014 -0.0001788578 6.117595e-24)
(0.009667046 0.001450635 4.190313e-24)
(0.01027182 0.0005832361 0)
(0.008841886 0.001536665 4.537445e-24)
(0.01013817 -0.0008214534 6.869226e-24)
(0.01018496 -0.00067012 9.463144e-24)
(0.009377412 -0.001015138 0)
(0.009255697 0.001516253 1.065089e-23)
(0.009994118 0.001306345 3.080998e-24)
(0.0101773 -0.0006204666 7.281248e-24)
(0.009909434 -0.001402889 -1.819917e-23)
(0.01012228 -0.0004324959 4.552377e-24)
(0.009486311 0.001477342 0)
(0.01118837 -0.0002635535 -2.120623e-24)
(0.01095354 0.0009230865 -2.12124e-24)
(0.009708746 -0.001227353 -2.430726e-23)
(0.01028535 -0.0005544704 0)
(0.01136099 -0.0008722539 -9.598309e-24)
(0.01116197 -0.0004844759 1.297009e-23)
(0.008700355 -0.0006785196 6.027685e-26)
(0.008968908 -0.000721628 2.139631e-23)
(0.009600981 0.001453141 -3.881172e-24)
(0.01059319 0.0009808703 4.54856e-25)
(0.01074094 0.001060268 3.294233e-24)
(0.01101299 -0.0008886402 -7.433706e-25)
(0.01129067 -3.706399e-05 1.589371e-24)
(0.009977722 -0.0003394313 -1.137409e-23)
(0.01141968 0.0001354189 0)
(0.008900753 -0.002434493 2.696804e-23)
(0.00987994 -0.0001963248 0)
(0.01067325 0.000986261 0)
(0.009184703 -0.0004985368 0)
(0.01112298 0.0005555487 0)
(0.006987245 -0.0005998399 0)
(0.01152357 -0.0002671765 0)
(0.00940619 -0.001246426 -2.571414e-24)
(0.01124508 0.0002696068 1.694272e-24)
(0.01057211 -0.0006668373 -1.625486e-23)
(0.009534947 -0.001997691 -2.15177e-23)
(0.01008484 -0.0006507053 6.827021e-24)
(0.01091425 -0.0001185497 -1.745995e-25)
(0.01042728 -0.0009703829 1.002263e-23)
(0.01042811 -0.0007463644 1.95268e-26)
(0.009753908 -0.001002347 1.382417e-23)
(0.01035954 -0.0005415577 -1.419445e-24)
(0.01119211 0.0006870564 9.137548e-25)
(0.01118998 0.0006971985 0)
(0.01019325 -0.0009196632 -1.28415e-23)
(0.01030442 -0.0008411108 3.105775e-24)
(0.01017105 -0.001905027 1.011647e-23)
(0.009277371 -0.001863454 0)
(0.009499228 -0.001889049 -2.363068e-23)
(0.011367 0.0003014574 7.977861e-25)
(0.01115367 -1.051491e-05 0)
(0.01026378 -0.0009083026 0)
(0.009131458 -0.002442919 0)
(0.009700747 -0.0008451408 6.651619e-24)
(0.01024785 -0.000449462 0)
(0.007246381 -0.001537614 -1.510076e-23)
(0.01120954 -0.001335555 -2.783156e-24)
(0.01120282 0.0001220158 5.108457e-24)
(0.0106816 -0.001242493 9.607254e-24)
(0.01083402 0.0008879696 5.413745e-25)
(0.0107232 -0.001699675 7.563409e-25)
(0.01116713 0.000727492 1.739019e-24)
(0.01135201 -0.0003106935 -3.39676e-24)
(0.01114725 0.0003491145 0)
(0.01002708 -0.0006454847 -1.537126e-23)
(0.01089805 0.0009271681 1.143971e-24)
(0.01045957 -0.0007597367 0)
(0.009556224 0.001388669 0)
(0.01059419 0.001142745 0)
(0.01008235 -0.0004702456 -8.133732e-24)
(0.01114464 0.000574524 4.614371e-26)
(0.0103157 -0.0002244264 -3.620415e-25)
(0.01113742 -0.0009840577 0)
(0.01138113 -0.0007539991 2.899137e-24)
(0.01008552 -0.0004106886 5.136205e-24)
(0.01138548 -0.0003049714 1.265147e-24)
(0.009187737 0.001524358 -1.124151e-24)
(0.01073244 -0.001865111 -6.524208e-24)
(0.01000952 -0.0006921884 1.399837e-23)
(0.01056164 -0.0002684994 -4.711401e-24)
(0.01104528 0.0008228985 0)
(0.01078032 0.001056304 3.602088e-24)
(0.006949701 -0.001728097 -1.401946e-23)
(0.009668689 -0.0005126327 -7.81788e-25)
(0.01027196 0.001185615 -5.144911e-24)
(0.01074083 -0.0009440739 0)
(0.01012629 -0.002122824 0)
(0.0104514 -0.0009499611 -9.585849e-26)
(0.01017397 -0.001123428 1.16746e-23)
(0.01147177 -0.0007495994 -5.982818e-25)
(0.01048543 -0.001341326 1.452882e-23)
(0.00990056 -0.0006647267 0)
(0.01079457 0.0006859694 -4.43614e-24)
(0.009046551 0.001488608 5.111314e-24)
(0.01107694 0.0004468695 -7.568371e-25)
(0.01030042 0.0007779641 -8.446719e-24)
(0.007793695 -0.002717213 1.480969e-23)
(0.01042159 0.001107942 0)
(0.01121507 -0.001009968 2.931476e-25)
(0.0096636 -0.0009781869 -1.740396e-23)
(0.009861197 -0.0006094823 1.763736e-23)
(0.01152953 -0.0005659896 2.116879e-24)
(0.011512 -0.0007393495 -4.934561e-25)
(0.008586022 0.001438499 0)
(0.0097488 -0.0002817975 -3.34482e-23)
(0.01038114 -0.0006555469 9.186976e-24)
(0.009631693 -0.0008519169 3.576806e-24)
(0.009769321 -0.0005710988 2.319105e-26)
(0.0104806 0.001209251 3.531249e-24)
(0.0110445 -0.000378905 -1.111916e-23)
(0.01036415 -0.0005768657 0)
(0.01144026 -0.0005784358 -1.650958e-24)
(0.01144145 -0.0009522622 -9.962952e-25)
(0.01008815 -0.0009128137 0)
(0.010159 -0.001440392 7.858026e-24)
(0.009462743 -0.0005307815 -1.534907e-23)
(0.01097398 0.0004668389 -7.426802e-25)
(0.01070188 0.0007703865 1.26198e-23)
(0.01136231 -0.00053834 -2.45173e-24)
(0.01126695 0.0005874708 0)
(0.01055489 -0.0006356547 8.035481e-24)
(0.01126812 -0.0006349322 2.643244e-24)
(0.009508982 0.001484756 0)
(0.0107634 -0.0007692822 0)
(0.009106818 -0.002187237 0)
(0.009623789 -0.001202345 1.451806e-23)
(0.01118547 -0.0005728858 1.136597e-23)
(0.01119459 0.0002976448 2.88948e-24)
(0.01150084 -0.0007295014 3.109074e-24)
(0.01133488 -0.0005913091 -1.24512e-24)
(0.01114261 -0.001487678 -5.65039e-24)
(0.008606535 -0.001423931 0)
(0.008126192 -0.001002436 -3.563489e-23)
(0.01093812 0.0004168784 1.914171e-24)
(0.009646341 -0.0002802544 2.101128e-23)
(0.009840307 -0.001145908 -1.597533e-23)
(0.01128633 -0.001227828 -1.458067e-24)
(0.01113526 -0.001412755 3.44835e-24)
(0.01136711 -0.001091599 5.002293e-24)
(0.01003712 -0.0008243265 1.328945e-23)
(0.009033036 -0.002689095 0)
(0.01136297 0.000217188 -1.417206e-24)
(0.009529603 -0.001138733 0)
(0.01064949 -0.001977002 0)
(0.01070829 0.000941856 4.521693e-25)
(0.01095745 4.060472e-05 -3.542402e-25)
(0.009996767 -0.0008818183 -6.811414e-24)
(0.01127808 -0.0005030342 1.963207e-24)
(0.008770306 -0.001369236 -5.907741e-24)
(0.01073764 -0.001006765 -8.03586e-24)
(0.010875 -0.0006347174 3.36231e-24)
(0.01042024 0.001243298 2.819458e-24)
(0.009673262 -0.0003705964 2.26833e-23)
(0.01064285 -0.001581493 1.571391e-23)
(0.009396698 -8.404019e-05 -1.444409e-23)
(0.01034831 -0.001046855 4.292449e-24)
(0.01021205 -0.002019043 9.074635e-24)
(0.01109971 -0.0004554152 1.479051e-23)
(0.008173204 -0.002091679 0)
(0.0101058 -0.0006614689 -1.627193e-23)
(0.01086287 1.877484e-06 0)
(0.01148991 -0.0005528795 -2.132643e-24)
(0.01013478 -0.000554124 0)
(0.009978534 0.001289267 0)
(0.011305 0.0005448337 -4.684734e-26)
(0.0112279 0.0003136444 0)
(0.009984716 -0.0004946833 2.737742e-23)
(0.009898448 -0.001468576 0)
(0.0104259 -0.001041604 0)
(0.009567472 -0.001321351 -1.516578e-23)
(0.009902418 -0.001185417 1.806496e-23)
(0.01064872 0.000993866 4.470889e-24)
(0.01142225 0.0003101933 -2.507532e-25)
(0.01009648 -0.001493389 9.966438e-24)
(0.01073608 0.001079336 0)
(0.01110568 -0.00136742 3.810744e-24)
(0.01038657 0.001246995 -3.694075e-24)
(0.01126182 0.0003960814 -1.693507e-24)
(0.01092413 -0.001020959 -1.549388e-23)
(0.009135785 -0.001571802 -1.369018e-26)
(0.01044351 -0.001979933 0)
(0.01137705 -0.0003012645 4.182596e-24)
(0.01151557 7.172995e-05 -1.46826e-26)
(0.01154503 -0.0003729886 0)
(0.008874578 -0.0006063317 -2.881714e-23)
(0.01048645 -0.000624209 0)
(0.01138697 0.0004003184 0)
(0.008987807 0.001413068 -9.709697e-24)
(0.01015087 -0.0007303462 4.704314e-24)
(0.0100595 -6.874383e-05 -1.814724e-23)
(0.01013561 -0.0003485374 0)
(0.01095455 0.0004341991 0)
(0.008450738 0.001584585 3.663793e-25)
(0.0103197 -0.0007435548 5.719681e-24)
(0.008267606 -0.002806227 9.642227e-24)
(0.0114831 -0.000298808 1.408839e-24)
(0.009637427 -0.0006808079 1.635468e-23)
(0.009952803 -0.0008517097 -1.58774e-23)
(0.01033627 -0.001491145 -1.195599e-23)
(0.009798888 -0.0001682555 -1.28852e-23)
(0.009688795 -0.0001145263 -5.518848e-26)
(0.01017213 -0.0002659154 0)
(0.01139194 0.0002102868 0)
(0.01140908 -0.000779828 -1.440982e-25)
(0.01111733 5.632883e-05 -3.643382e-24)
(0.01057999 -0.0005401814 -1.214987e-23)
(0.007858257 -0.0005793788 1.205253e-23)
(0.0100491 -0.0003574914 8.122857e-24)
(0.009690288 -0.0004859663 0)
(0.01114438 -0.001486366 8.989774e-24)
(0.01081134 -0.0006579767 0)
(0.01022655 -0.001932755 1.107114e-23)
(0.01025678 -0.0005058298 9.545151e-24)
(0.01007881 -0.0004933102 1.53835e-23)
(0.008771552 -0.0005309096 1.131967e-23)
(0.01089384 0.0007103383 -3.214793e-26)
(0.01040619 -0.0005316783 8.215027e-24)
(0.009698783 -0.001486862 -2.439066e-23)
(0.011037 -0.001327838 -2.495331e-24)
(0.01003974 -0.0003346889 -3.440057e-25)
(0.01014692 -0.002157888 0)
(0.01053913 0.001044519 -3.992974e-24)
(0.01142243 -0.0001495375 -1.24674e-24)
(0.01077971 0.0008647549 4.26722e-25)
(0.01038466 -0.001726354 7.936434e-24)
(0.0103337 -0.001541835 0)
(0.01027618 0.0005027416 0)
(0.01105287 0.0004473572 0)
(0.01011661 -0.000541563 2.698512e-23)
(0.01089615 0.0006169963 -4.880549e-25)
(0.008958675 -0.002706558 -2.152562e-23)
(0.01006591 -0.0006665127 0)
(0.01143611 0.0002179761 0)
(0.008927226 -0.002089712 0)
(0.008625384 -0.002716633 0)
(0.009825662 -0.001843517 -3.128842e-23)
(0.009465961 -0.002145809 0)
(0.00968803 -0.001555549 5.518015e-24)
(0.01012072 -0.0002792184 4.97867e-24)
(0.01014357 -0.0006166037 9.047511e-24)
(0.0102514 -0.0008283931 9.054867e-24)
(0.01039755 -0.001603135 -1.402158e-23)
(0.005911859 -0.001215228 3.160399e-23)
(0.0106862 -0.001167305 2.670473e-25)
(0.01111602 -0.0001734369 0)
(0.01113755 0.0004497263 0)
(0.009959447 -0.0007618475 0)
(0.01117951 -0.000188201 8.814337e-25)
(0.01039846 -0.001280639 5.079047e-24)
(0.01018173 -0.0005909757 -1.238006e-23)
(0.008160812 -0.0009002552 2.397338e-23)
(0.01104292 0.000424196 -2.603357e-24)
(0.01075252 -0.0008178005 0)
(0.0104733 -0.001545463 0)
(0.009319632 -0.0007224517 -2.224937e-23)
(0.0082665 -0.0008759387 -2.241443e-23)
(0.009995315 -0.0003785399 -7.762554e-24)
(0.01099304 0.0007504326 2.9657e-24)
(0.01009199 -0.0003533985 5.417996e-24)
(0.006293252 -0.002398899 -5.78362e-23)
(0.008440337 -0.002540621 -2.823375e-23)
(0.01083419 -0.0005788802 -5.556315e-24)
(0.01016629 -0.0004996404 3.796471e-24)
(0.01076717 -0.0009459742 5.727412e-24)
(0.00963266 -0.0002003311 -3.788266e-23)
(0.01100989 0.0002605336 -3.582854e-24)
(0.009990519 -0.0002792036 9.555685e-24)
(0.0087349 -0.002729195 -1.742766e-23)
(0.01106458 0.0006353769 -4.997856e-25)
(0.01090677 -0.0006020596 -6.479283e-24)
(0.00966211 -0.001003322 1.632984e-23)
(0.01140537 -0.0007158175 -5.667266e-24)
(0.009949278 -0.001057806 0)
(0.01088616 -0.001333993 -6.01818e-24)
(0.008521602 -0.0007156828 0)
(0.01048619 -0.0007342002 0)
(0.009363328 0.001509856 0)
(0.01144841 -0.0002987129 -1.09557e-24)
(0.01114665 0.0001855161 0)
(0.01084543 -0.0007067399 -2.352176e-24)
(0.01088214 0.0006450834 3.942706e-24)
(0.01105016 0.0008121258 -1.981765e-24)
(0.01149479 0.0001405129 -1.624287e-26)
(0.008102915 -0.00246358 -2.92396e-24)
(0.01023148 -0.0006947671 -1.315496e-23)
(0.01122642 0.0005132993 -2.594888e-26)
(0.01073767 0.0009985194 0)
(0.01087846 0.0008067731 0)
(0.01078035 0.000933396 1.677145e-24)
(0.01087123 0.0008906959 3.582672e-25)
(0.01113605 -0.000599624 0)
(0.01127279 -0.0009362486 5.049022e-24)
(0.01000863 -0.0001539122 -9.539062e-24)
(0.01130668 1.293195e-05 5.9581e-25)
(0.01130865 -2.920719e-05 0)
(0.01012737 -0.0005239122 5.559883e-24)
(0.01135589 4.295702e-05 0)
(0.01033668 0.001276133 -2.63889e-24)
(0.00898153 -0.0008758538 0)
(0.0105566 -0.0005783128 1.032565e-23)
(0.01004468 -0.0007433906 1.239446e-24)
(0.010049 -0.000578436 1.346945e-24)
(0.009999047 0.001224842 2.771494e-24)
(0.01054047 0.001012323 3.014133e-25)
(0.01010387 -0.001606798 9.846744e-26)
(0.00979457 -0.001658455 3.87991e-23)
(0.01060499 -0.002009082 -6.025951e-24)
(0.0108393 0.0001943902 -1.363973e-24)
(0.009260663 -0.0008822437 2.907901e-23)
(0.01135316 -0.0006377318 -6.617706e-24)
(0.01003315 -0.0003490853 1.072388e-23)
(0.01003972 -0.0003944158 -1.114599e-23)
(0.01117001 0.0003819126 1.415187e-24)
(0.01066871 -0.0003014464 8.177154e-24)
(0.0105167 0.001108831 1.525337e-24)
(0.01014967 0.001197603 0)
(0.01085773 0.0002812155 -6.475332e-25)
(0.01096745 -0.001149493 0)
(0.01041591 -0.0007599653 1.049357e-23)
(0.01012404 -0.0009511519 -8.023897e-24)
(0.009953045 0.001340005 0)
(0.009768325 -0.0006933916 1.950748e-23)
(0.01005763 -0.0005971073 0)
(0.009639757 0.000557729 -5.283515e-24)
(0.01123013 0.0002813725 -7.946982e-25)
(0.01018978 -0.0008358455 0)
(0.01021028 -0.0006780056 -2.152615e-23)
(0.009981938 -0.001233422 0)
(0.01090769 0.0005152647 -7.382732e-25)
(0.01099859 -0.0007215056 -3.436812e-25)
(0.009697696 -0.0007029684 0)
(0.008996498 -0.0009458135 6.111025e-25)
(0.01121153 0.0004997232 0)
(0.01000659 -0.0006222701 2.631049e-24)
(0.00964363 -0.0006236363 -2.608693e-23)
(0.009866369 -0.0005578387 0)
(0.01095039 0.0003785488 -1.633318e-24)
(0.008872033 0.001462468 -3.537977e-24)
(0.008502686 -0.0004452299 1.235239e-23)
(0.009887939 -0.0004119361 -1.374419e-23)
(0.009491278 -0.0006768894 2.404828e-23)
(0.01067995 0.0009222764 -5.422149e-25)
(0.01080218 0.000995707 0)
(0.01090248 -0.0005588837 2.224987e-24)
(0.008699076 -0.002605638 9.313865e-24)
(0.0112071 0.0002438207 -1.461064e-24)
(0.01099221 -0.001110452 0)
(0.009450916 0.00148431 -1.065585e-23)
(0.01083399 -0.0009103608 1.274467e-23)
(0.01123883 0.0003866879 1.805433e-25)
(0.01026879 -0.001132986 -7.602958e-24)
(0.009986404 0.000885263 4.334408e-24)
(0.009945865 -0.0004572634 1.028826e-23)
(0.00998147 -0.001036851 0)
(0.01099076 0.0005275307 1.255584e-24)
(0.01142461 0.0003370032 1.988405e-25)
(0.01038131 -0.0007884349 0)
(0.01029726 -0.000750662 1.537328e-23)
(0.009513271 -0.0005664338 -2.798796e-23)
(0.009659859 -0.0005391059 -5.5208e-26)
(0.01048748 -0.0008163405 -3.797279e-25)
(0.01108024 0.0007092361 -6.569889e-26)
(0.01117146 -0.001195332 1.755652e-24)
(0.01072292 0.001075864 0)
(0.01033843 -0.0001937894 0)
(0.01106216 0.0002876605 -2.823047e-24)
(0.01018446 -0.000350003 -1.056893e-23)
(0.009568127 -0.000261816 -2.749112e-23)
(0.01134322 0.0004595291 5.495156e-26)
(0.009973758 -0.0009282803 0)
(0.01056118 -0.0003625257 0)
(0.01136477 0.0002580648 -9.338376e-25)
(0.01125363 -0.001151301 2.180966e-24)
(0.01020717 0.001253976 -1.963263e-24)
(0.01127517 -0.001006611 -3.829786e-25)
(0.009930803 -0.0004799207 0)
(0.01000013 -2.97788e-05 0)
(0.01152008 -2.059037e-05 0)
(0.01154405 -0.0002469933 1.487562e-25)
(0.009740889 -0.0003152541 2.93167e-23)
(0.009640537 -0.0003102433 -3.806098e-23)
(0.01048664 -0.0009903358 -2.814845e-23)
(0.01149309 -0.0008055818 3.330951e-24)
(0.01099526 -0.0001431971 -3.315506e-24)
(0.01115251 3.118637e-05 2.287472e-24)
(0.01092093 2.194452e-05 -5.400165e-24)
(0.01121296 -0.0004757563 9.971268e-24)
(0.01152911 -0.0003786498 -3.477382e-24)
(0.01141666 -0.0004067351 4.345984e-24)
(0.00988742 -0.0001249055 0)
(0.00943908 -0.000312869 -1.665315e-23)
(0.01135896 0.0001593272 -1.953685e-24)
(0.009877158 -0.0004422889 1.334385e-23)
(0.0104785 0.001125199 0)
(0.01093403 0.0006152203 0)
(0.01000074 -0.0005959061 9.909518e-24)
(0.009972053 -0.0005555529 6.068161e-26)
(0.01007005 -0.0002144973 -1.874469e-23)
(0.009862108 -0.0007834766 1.675989e-23)
(0.01018151 -0.0009755393 2.818153e-23)
(0.009546172 -0.0009008753 1.597492e-23)
(0.009554835 -0.0008525742 -4.301065e-23)
(0.009671882 0.001261034 -1.119616e-24)
(0.009115851 0.001080014 9.548499e-24)
(0.01009064 0.001252734 2.041507e-24)
(0.01059234 0.001111101 0)
(0.01058741 0.001153833 0)
(0.01104577 0.0006884599 -1.808341e-26)
(0.0111023 0.0007197344 -7.246773e-25)
(0.0102611 0.001292519 -2.034091e-24)
(0.0099023 -0.0009712537 7.360107e-24)
(0.01016839 -0.0005433472 -3.899538e-24)
(0.01009853 -0.0004896782 9.023992e-27)
(0.01007456 -0.0005180697 9.160956e-24)
(0.0115539 -0.0003040882 7.954689e-25)
(0.01071276 0.001082254 7.610862e-25)
(0.01042387 -0.001487321 0)
(0.0104754 -0.0008585472 6.210953e-26)
(0.01044955 -0.0008245653 2.762344e-24)
(0.009911178 -0.0004460695 0)
(0.01098234 -0.000569552 0)
(0.01119523 -0.0003298865 0)
(0.01019359 -0.0007417746 1.070464e-23)
(0.01000319 0.001319924 1.382829e-24)
(0.009691192 -0.0009630569 0)
(0.01035273 0.001208522 0)
(0.01051193 0.001181186 2.187866e-24)
(0.01104367 -0.000974494 -1.60258e-26)
(0.01028152 -0.0003390941 0)
(0.008843565 -0.001550254 -2.796377e-23)
(0.009927016 -0.0009238563 0)
(0.01079753 0.0001999785 -1.790306e-25)
(0.01132491 0.0001715776 -1.697977e-24)
(0.01131307 0.0001198695 0)
(0.01152235 -2.258026e-05 -5.461666e-25)
(0.01123014 0.0003656755 -1.972073e-25)
(0.01102816 0.0005402078 1.477375e-24)
(0.01107259 0.0005836756 0)
(0.01049862 -0.0005390274 -7.267675e-24)
(0.01138219 0.0003861314 2.128411e-25)
(0.01144291 5.691113e-05 0)
(0.009846566 -0.0004876881 -1.646391e-23)
(0.01001913 -0.0007335762 1.232208e-23)
(0.009993051 -0.0004351528 -2.034035e-24)
(0.01120192 -0.00127906 0)
(0.01100741 -0.001514769 -8.695956e-24)
(0.01140962 -0.0003110424 -2.708954e-24)
(0.01142502 -0.0003379609 2.635229e-24)
(0.01085002 -0.000796548 1.105363e-23)
(0.01091761 -0.0009844216 3.813702e-24)
(0.01007412 -0.0007875801 -1.156217e-23)
(0.007249644 -0.0009470164 0)
(0.01063172 -0.0009051729 -6.222189e-24)
(0.01059131 -0.0009577946 5.795715e-25)
(0.01042213 -0.0007851918 -8.323042e-24)
(0.01060131 -0.0008476395 1.443366e-23)
(0.0108968 0.0006009656 -4.247011e-25)
(0.01043421 -0.0009986472 -6.040682e-24)
(0.01047519 -0.001227355 0)
(0.01029738 -0.001457396 0)
(0.01042445 0.001138437 2.705907e-24)
(0.01053163 0.001037113 0)
(0.01018585 0.001308663 0)
(0.0100361 -0.0002889759 -9.41247e-24)
(0.01080355 0.0007477055 0)
(0.01069705 0.0008483267 2.233304e-25)
(0.01088765 -0.00175966 0)
(0.01089567 -0.001755784 7.792939e-24)
(0.01078577 -0.0009232481 -6.019366e-24)
(0.009944242 -0.00117263 -2.050386e-24)
(0.009961232 -0.001802467 8.80132e-24)
(0.01057632 -0.002033529 6.545344e-24)
(0.01003485 -0.002177467 -7.445383e-24)
(0.01081162 0.000813846 5.421795e-25)
(0.009905293 -0.0001744648 0)
(0.009779389 -0.000258594 1.418303e-23)
(0.007470295 -0.0003506326 -5.63542e-24)
(0.01136923 0.0004427805 8.401753e-25)
(0.01014573 -0.0006345415 -9.227235e-24)
(0.01124728 0.0006215004 0)
(0.01112369 0.0007595073 0)
(0.009557576 -0.00117573 0)
(0.01013954 -0.0004304105 1.51716e-23)
(0.007879164 -0.001509821 0)
(0.01100964 0.0006486645 0)
(0.009803794 -0.002334318 2.523954e-23)
(0.01010152 9.13818e-05 -8.281858e-24)
(0.01058398 -0.0008231893 -1.902915e-23)
(0.01090518 -4.568396e-05 -1.170812e-24)
(0.01111285 -0.0009998639 0)
(0.01030664 0.00128402 0)
(0.01053437 0.0004032642 3.697608e-24)
(0.01039912 -0.001238432 0)
(0.01003137 -0.0007742048 1.790375e-23)
(0.00996687 -0.0007061783 0)
(0.01126443 -0.0008681965 -1.442147e-24)
(0.009368009 -0.001506573 -1.839389e-24)
(0.01153775 -6.170353e-05 0)
(0.01005388 -0.0002912362 -2.929022e-23)
(0.009953228 -0.0009787823 0)
(0.01041208 -0.001664266 -1.066864e-24)
(0.009787808 -0.001210814 9.14256e-24)