/*--------------------------------*- C++ -*----------------------------------*\
| =========                 |                                                 |
| \\      /  F ield         | OpenFOAM: The Open Source CFD Toolbox           |
|  \\    /   O peration     | Version:  2406                                  |
|   \\  /    A nd           | Website:  www.openfoam.com                      |
|    \\/     M anipulation  |                                                 |
\*---------------------------------------------------------------------------*/
FoamFile
{
    version     2.0;
    format      ascii;
    arch        "LSB;label=32;scalar=64";
    class       volVectorField;
    location    "0.58";
    object      U;
}
// * * * * * * * * * * * * * * * * * * * * * * * * * * * * * * * * * * * * * //

dimensions      [0 1 -1 0 0 0 0];

internalField   nonuniform List<vector> 
4541
(
(0.01003704 -8.343508e-05 1.05506e-23)
(0.01060841 -0.0007244533 -3.108608e-24)
(0.01089496 -0.00175615 0)
(0.01055791 -0.001675926 0)
(0.01032577 -0.0007741114 -2.988447e-24)
(0.009422176 -0.001019445 0)
(0.01022383 -0.0009163002 9.452718e-24)
(0.0102571 -0.0007416254 -2.305518e-23)
(0.009294139 -0.0006367091 1.39919e-23)
(0.01153364 -0.0002132594 2.974807e-24)
(0.00934831 -0.001180123 1.587699e-23)
(0.0103154 -0.00127435 -9.077014e-24)
(0.01111223 -0.0007515512 6.387548e-24)
(0.01000388 -0.0004677364 1.793658e-24)
(0.01064109 -0.001859401 0)
(0.01140017 0.0002426852 -6.403819e-27)
(0.01006737 0.001160234 2.704553e-24)
(0.009092832 0.001333282 -1.417137e-24)
(0.00964556 0.001163669 -8.447934e-24)
(0.01027931 -0.002253414 3.470016e-24)
(0.01012766 -0.0003802073 0)
(0.01050011 -0.001037616 -1.067006e-23)
(0.01134685 0.0004225576 0)
(0.008338507 -0.0006418043 4.053898e-23)
(0.01046384 -0.001862285 0)
(0.01023757 -0.0007791592 7.308146e-24)
(0.01002112 -0.0005909086 -4.47543e-24)
(0.01019133 -0.000597252 4.403926e-24)
(0.009326553 -0.0004336244 5.101913e-24)
(0.01113744 -0.0008696742 0)
(0.01006204 -0.0004583267 -1.946122e-23)
(0.01000637 -0.0005076063 -2.119255e-24)
(0.01147253 -0.0001837438 -1.293247e-24)
(0.009676847 -0.0006198229 -8.11834e-24)
(0.01070066 -0.001371534 0)
(0.01086423 -0.0002156814 0)
(0.01090975 -0.001675879 0)
(0.01123816 -0.001187192 -1.197521e-24)
(0.009956525 -0.0004893216 -3.522994e-23)
(0.008552493 0.001354167 3.938171e-24)
(0.01093242 -0.0002662309 0)
(0.00914275 -0.0004710614 -1.051393e-23)
(0.01079075 -0.0006978047 -2.267436e-24)
(0.01131111 7.297967e-06 -4.059651e-25)
(0.01121471 -0.0006943657 5.902965e-24)
(0.01153152 -0.0002412463 -3.114963e-24)
(0.01123226 -0.001101451 5.36141e-24)
(0.008130974 0.001273157 0)
(0.01056546 -0.002018771 0)
(0.0101129 -0.0007441711 1.449372e-25)
(0.009891682 -0.0009984772 0)
(0.01123525 0.0002872384 0)
(0.01034981 0.001114408 9.455674e-25)
(0.01005755 -0.0007246077 2.809656e-24)
(0.01068108 0.0009222443 -1.484605e-24)
(0.009788195 -0.001548639 2.060216e-23)
(0.01001759 -0.0001599751 6.188768e-24)
(0.009679468 -0.0001836945 2.229709e-24)
(0.01092506 0.0001945214 4.864773e-24)
(0.01072587 -0.001232274 4.490785e-24)
(0.00994032 -0.0006500614 0)
(0.01080082 -0.001018203 0)
(0.009831212 0.0008301247 0)
(0.006702212 -0.001849135 -8.364902e-24)
(0.009189769 -0.001353355 4.796129e-23)
(0.009246187 -0.002498169 -7.810775e-24)
(0.009836958 -0.0006160053 -9.11416e-24)
(0.0113155 -0.0005969966 1.031695e-23)
(0.01130093 0.0004122737 -4.023291e-25)
(0.009419845 0.0005119056 0)
(0.01039043 0.0008225051 3.602005e-24)
(0.01132767 -6.149148e-05 7.953754e-25)
(0.01016637 -0.0008036648 0)
(0.01154016 -0.0006106608 6.042519e-25)
(0.009554694 -0.0004517449 2.521716e-23)
(0.01146901 -0.000660713 4.044961e-25)
(0.00986994 0.001235069 -1.871746e-24)
(0.008036982 0.001361595 -5.937354e-25)
(0.01110096 -0.001555619 2.059711e-24)
(0.009835225 -0.0002481355 -1.917088e-23)
(0.01028872 0.0002889747 0)
(0.01085778 -0.001782022 -2.637315e-24)
(0.009796539 -0.0009116579 2.047627e-25)
(0.01145709 -0.0007584961 3.97548e-24)
(0.01002558 -0.0002693388 0)
(0.01054717 -0.001411546 7.087791e-24)
(0.01079327 -0.001235344 0)
(0.009693039 0.0001557586 1.486703e-23)
(0.0101312 0.001039118 -3.023156e-24)
(0.01140234 0.0001595766 0)
(0.01008355 -0.0001544655 -1.161795e-23)
(0.009201924 0.0007276334 -9.706155e-24)
(0.008315499 0.001347779 0)
(0.009991241 0.001195561 0)
(0.01010887 -0.001139872 1.854507e-23)
(0.007960105 0.001378699 5.621082e-24)
(0.01033842 -0.001938742 6.421581e-24)
(0.01072264 -0.0007300572 -5.028294e-24)
(0.01044737 -0.0008101079 -1.766768e-23)
(0.01038712 -0.001169069 -4.216808e-24)
(0.0100906 -0.001487619 1.045968e-23)
(0.01067335 -0.0002161977 0)
(0.009675931 -0.0005590669 -7.982823e-24)
(0.01102844 -0.0005972766 -2.1116e-24)
(0.01120151 5.672598e-05 3.651972e-24)
(0.009875636 -0.001431648 -3.625056e-23)
(0.008277956 0.001322627 4.104472e-24)
(0.01104806 -0.0004388092 -1.375931e-23)
(0.01089651 -0.0009984565 -6.042432e-24)
(0.0114585 -0.0009234291 -1.978145e-24)
(0.0104026 -0.0007002198 4.036572e-24)
(0.009985518 -0.0001597567 -2.207665e-23)
(0.01144154 -0.0001224058 0)
(0.01115325 0.0005439795 -9.4438e-26)
(0.009850664 -0.000472325 4.881168e-26)
(0.009782226 -0.001792849 -1.612826e-23)
(0.01005766 -0.0009733795 0)
(0.01022007 0.001061047 0)
(0.009963812 -0.0008951972 2.310242e-23)
(0.00910406 -0.000674514 1.941029e-23)
(0.01122913 0.0001371736 2.613991e-24)
(0.01127306 0.0004163127 0)
(0.008704493 -0.002229339 -1.436064e-23)
(0.01107164 -0.0002348097 6.357355e-24)
(0.01062481 0.001004626 1.843778e-24)
(0.01086647 -0.0009237302 0)
(0.0080657 -0.001806291 0)
(0.007599908 -0.002239311 2.463528e-23)
(0.0105512 -0.0007915486 -1.48749e-24)
(0.009157418 -0.001291439 3.303386e-25)
(0.009528156 -0.0006616433 9.587791e-24)
(0.010416 -0.001476051 6.748901e-24)
(0.01009381 -0.0008084393 2.253719e-23)
(0.01092337 -0.0009292069 -7.011346e-24)
(0.01010138 -0.002317672 -2.137152e-24)
(0.006818012 -0.001269994 0)
(0.01155381 -0.0002745477 1.97622e-24)
(0.01018776 -0.0007091439 -9.283974e-26)
(0.008891769 -0.001917373 4.890863e-24)
(0.01129249 -0.0007312286 -3.329309e-24)
(0.01012546 -0.0007376078 8.220077e-24)
(0.009688625 0.001241023 2.291315e-24)
(0.0092644 -0.0008718284 -1.473301e-23)
(0.01018082 0.001158995 -1.590173e-24)
(0.01091167 -0.001168771 -4.554316e-24)
(0.008971307 -0.001933861 3.958275e-24)
(0.009051549 -0.0008769588 -1.251168e-23)
(0.009974547 -0.0003884406 0)
(0.01064814 -0.0007805241 0)
(0.009784337 -0.0004546556 -5.325736e-24)
(0.0108373 0.0008784863 5.392581e-26)
(0.01097593 -0.001637114 -3.927238e-24)
(0.010051 -0.00118379 0)
(0.01056787 -0.001829399 1.92942e-26)
(0.0103042 -0.0007910981 -6.654781e-24)
(0.009366391 -0.0006401719 0)
(0.009310508 -0.001005206 7.849049e-24)
(0.008816646 0.001308926 -1.041923e-23)
(0.009996534 -2.431786e-05 -1.389023e-23)
(0.01132803 -0.001029679 3.893243e-24)
(0.01004194 -0.0009981467 -1.689606e-23)
(0.01038827 -0.001086569 -9.698242e-25)
(0.008832658 -0.001345925 -2.876698e-25)
(0.009869269 0.001009342 1.143064e-23)
(0.01149482 -0.0003822261 3.451065e-24)
(0.01139172 0.0003414561 0)
(0.00920929 -0.001692102 0)
(0.01073752 -0.001500176 8.082339e-24)
(0.009326149 -0.002601477 9.826684e-24)
(0.009782126 -0.0003783984 -2.161836e-23)
(0.009715617 -0.0003906214 -1.227722e-23)
(0.01104012 0.0007086067 0)
(0.01009939 0.0004897825 0)
(0.01113115 0.0006519666 1.411073e-25)
(0.01058938 0.001020795 0)
(0.01116993 -0.0008979593 -4.810608e-24)
(0.007954418 0.001287471 0)
(0.01026883 -0.00113895 6.219258e-24)
(0.01070607 -0.001837756 -4.651862e-24)
(0.009542697 -0.0005209735 8.529972e-24)
(0.01085596 0.0007527946 -3.369355e-24)
(0.007270496 -0.00230375 -1.630039e-23)
(0.01156987 -0.0004668411 1.325521e-24)
(0.01024279 -0.0006119614 1.59525e-23)
(0.01025492 -0.002172413 0)
(0.01145104 0.0002448651 -1.763553e-25)
(0.01111185 -0.0004734375 4.925952e-24)
(0.009830333 -0.0006764495 -3.200687e-23)
(0.01147062 -0.0002937047 0)
(0.009677003 -0.0004624755 5.354346e-24)
(0.0105571 -0.001316989 0)
(0.01075587 -0.001167132 0)
(0.01118189 0.0005488804 -3.754976e-26)
(0.01149327 -0.0002910748 8.891232e-26)
(0.01054231 0.0008623666 -4.110048e-24)
(0.01131042 -0.0005291673 0)
(0.01010892 -0.001272091 -9.317804e-24)
(0.008396149 0.001344665 -3.988951e-24)
(0.007942424 0.001361717 -7.293354e-24)
(0.01046625 0.001073034 -1.791183e-24)
(0.01149318 -0.000860719 -2.72572e-25)
(0.007529533 -0.001119986 -1.816159e-25)
(0.01027007 -0.0009805579 -9.48247e-24)
(0.01130648 0.0004331618 0)
(0.01127545 4.991139e-05 2.879218e-24)
(0.01113633 0.0006716151 0)
(0.009814343 -0.001629641 -1.088668e-24)
(0.01062052 0.0009419374 0)
(0.01012637 -0.001393602 0)
(0.01107148 -0.001150072 -3.230202e-24)
(0.01004794 -0.0005427027 0)
(0.01000981 0.0007618552 0)
(0.01091341 -0.001110514 0)
(0.01000064 -0.002335208 -8.012376e-24)
(0.008540958 -0.001032737 2.232217e-23)
(0.01041803 -0.001354017 0)
(0.01135105 0.0001848727 -1.275986e-24)
(0.01073358 -0.0008376797 0)
(0.007814119 -0.001893899 -2.38476e-23)
(0.008651008 -0.001876556 -1.435022e-24)
(0.006100236 -0.001068237 5.094277e-23)
(0.01149227 5.788963e-05 1.871868e-25)
(0.009675456 -0.000683005 -2.233334e-23)
(0.009967594 -0.001483956 -7.180937e-24)
(0.01157968 -0.0003148993 4.405254e-24)
(0.009994905 -0.0005632332 0)
(0.01145609 8.554146e-06 -3.583557e-25)
(0.01149104 0.0001449284 -9.008209e-26)
(0.01022467 0.001145846 0)
(0.009878624 -0.0002726588 0)
(0.0104134 -0.001039195 -2.9242e-26)
(0.01022476 -0.000526857 6.255942e-24)
(0.01147613 0.0001760645 3.958331e-25)
(0.009586033 -0.000622729 1.847641e-23)
(0.007448493 -0.002485122 0)
(0.008303054 0.001167731 0)
(0.01034855 -0.001876353 1.825283e-24)
(0.01109058 -0.0006003626 1.714763e-24)
(0.009999538 -0.0003392274 -1.488737e-23)
(0.009860511 -0.0007085393 -2.148303e-23)
(0.01020747 -0.0005067124 2.013436e-23)
(0.01056733 0.001023623 1.395735e-24)
(0.009931178 -0.002424839 -6.415614e-24)
(0.009719785 -0.0007769865 0)
(0.009757422 -0.001013526 0)
(0.01021567 -0.000582685 2.034792e-23)
(0.01039311 -0.0009421205 1.486729e-23)
(0.01071554 -0.001068877 2.23885e-24)
(0.01031993 0.0005557976 2.676121e-24)
(0.01024639 -0.0004571809 -1.065641e-23)
(0.01000413 -0.0005738449 0)
(0.00902051 -0.0009967863 5.089699e-24)
(0.01104488 0.0007226 4.843846e-25)
(0.01150567 5.365929e-05 0)
(0.009389713 -0.00150018 0)
(0.01032574 -0.0003266685 0)
(0.009641878 -0.0006849059 1.616585e-23)
(0.01075907 0.0009299689 -8.628877e-25)
(0.01008545 0.001180782 2.105563e-24)
(0.01125965 0.0004921741 -2.745728e-25)
(0.009608797 -0.0005277291 -2.44578e-23)
(0.01029414 -0.0009510872 -4.438125e-24)
(0.01146545 6.861607e-05 1.873607e-24)
(0.007484447 -0.001544422 0)
(0.01017777 -0.0007932346 1.101042e-23)
(0.009217294 -4.869163e-05 4.176947e-24)
(0.01017137 -0.0005997469 8.372149e-25)
(0.0082643 0.001324803 0)
(0.01142876 -0.0005506698 2.849024e-24)
(0.00982848 0.001105618 -5.692032e-24)
(0.009802532 0.0003087054 -1.34449e-23)
(0.01102557 -0.000915246 -8.929575e-24)
(0.009331836 -0.0007063955 1.174592e-23)
(0.009887779 -0.0008078269 -1.026726e-23)
(0.01152081 4.916775e-05 1.769493e-24)
(0.01137552 0.0003809385 1.944866e-25)
(0.008185466 -0.002752674 -1.211408e-23)
(0.009634674 0.001277842 5.727678e-24)
(0.01080694 -0.001750352 1.043989e-23)
(0.01057224 -0.001680447 -9.600365e-24)
(0.009956902 -0.001896344 1.636672e-23)
(0.009986331 0.001140491 0)
(0.0101214 -0.0001605163 1.102811e-23)
(0.01117846 -0.001147312 0)
(0.01085453 0.0008848192 -2.18919e-24)
(0.01122952 -0.0008610285 -1.899385e-25)
(0.01081587 -0.0002403398 5.791222e-24)
(0.009359809 0.001303199 4.800155e-24)
(0.009934487 0.00034818 0)
(0.00842006 0.001357916 5.004926e-24)
(0.01013525 -0.0008887063 6.629763e-24)
(0.0101871 -0.0007250157 9.134902e-24)
(0.009341648 -0.001064862 0)
(0.008872482 0.001297826 1.162842e-23)
(0.009676234 0.001066951 3.386782e-24)
(0.01017972 -0.0006688786 7.009204e-24)
(0.009868427 -0.001502111 -1.758962e-23)
(0.01012381 -0.0004567479 4.387339e-24)
(0.00914634 0.001321061 0)
(0.01134966 -0.0004491896 -1.907163e-24)
(0.01094213 0.0007527914 -3.038828e-24)
(0.009673629 -0.001303324 -2.355808e-23)
(0.01029462 -0.0006127688 0)
(0.01135599 -0.001112178 -8.459e-24)
(0.01127128 -0.0006862474 1.186251e-23)
(0.008651246 -0.0007010345 5.864945e-26)
(0.008927689 -0.0007496364 2.08268e-23)
(0.009285964 0.001315579 -4.513564e-24)
(0.01067724 0.0009776423 8.45557e-25)
(0.01070468 0.0009227608 4.500779e-24)
(0.01104806 -0.001090134 -6.957839e-25)
(0.01148522 -0.0002244519 1.303642e-24)
(0.009977194 -0.0003468105 -1.102342e-23)
(0.0115561 -7.997566e-05 0)
(0.008769457 -0.002489644 2.60719e-23)
(0.00987837 -0.000200383 0)
(0.01074363 0.0009442234 0)
(0.009155756 -0.0005191819 0)
(0.01133203 0.0004403889 0)
(0.006908361 -0.0006038729 0)
(0.01157034 -0.0005188811 0)
(0.009110776 -0.001334468 -2.74447e-24)
(0.01147232 0.0001154738 1.157941e-24)
(0.01060403 -0.0007840347 -1.549679e-23)
(0.009440031 -0.002087219 -2.07694e-23)
(0.01008387 -0.0006917168 6.589154e-24)
(0.01110029 -0.0002034973 -1.77533e-25)
(0.01043079 -0.001091977 9.620465e-24)
(0.01044286 -0.0008468905 7.911604e-27)
(0.0097316 -0.001063704 1.339876e-23)
(0.01037529 -0.0006103628 -1.367104e-24)
(0.01123487 0.0004954933 1.701256e-24)
(0.01115043 0.0004734354 0)
(0.01018898 -0.001004553 -1.23936e-23)
(0.01030804 -0.0009320203 2.986051e-24)
(0.01008126 -0.002035074 9.710541e-24)
(0.009192315 -0.001939063 0)
(0.009413737 -0.001976104 -2.278742e-23)
(0.01151156 0.0001026198 2.165678e-25)
(0.01138512 -0.0001549012 0)
(0.0102628 -0.001000731 0)
(0.008900655 -0.002489033 0)
(0.009682855 -0.0008915965 6.45229e-24)
(0.01025585 -0.0004924409 0)
(0.007154387 -0.001548608 -1.468601e-23)
(0.01112192 -0.001550995 -2.547945e-24)
(0.0114474 -2.412172e-05 4.150249e-24)
(0.01066765 -0.001412428 9.142923e-24)
(0.0109481 0.0008211904 1.056942e-24)
(0.01063709 -0.001872129 7.179796e-25)
(0.01115963 0.0005202627 2.607389e-24)
(0.01147572 -0.000533488 -2.93166e-24)
(0.0109329 8.844774e-05 0)
(0.0100247 -0.0006814511 -1.48608e-23)
(0.01075125 0.0006961264 1.385227e-24)
(0.01047618 -0.0008670505 0)
(0.009252692 0.001314513 0)
(0.01052425 0.00101772 0)
(0.01008283 -0.0004927772 -7.855914e-24)
(0.01133164 0.0004466389 -1.197421e-25)
(0.009989613 -0.000409309 -3.755691e-25)
(0.01090435 -0.001186408 0)
(0.01139887 -0.0009961262 2.588015e-24)
(0.01008608 -0.000429239 4.95263e-24)
(0.01119589 -0.0005557546 2.084977e-24)
(0.008798402 0.001300269 -1.220607e-24)
(0.01053454 -0.002015053 -6.004369e-24)
(0.01000586 -0.0007325314 1.353794e-23)
(0.01062043 -0.0003319703 -4.467656e-24)
(0.01094407 0.0005941867 0)
(0.01067772 0.000865927 4.621698e-24)
(0.006853319 -0.001734023 -1.362915e-23)
(0.009343702 -0.000647319 -7.415407e-25)
(0.009983077 0.0009416566 -5.725935e-24)
(0.01076198 -0.001109719 0)
(0.0100052 -0.002244217 0)
(0.01045738 -0.001073185 -9.636224e-26)
(0.01015873 -0.001226457 1.127413e-23)
(0.01144638 -0.00099981 -5.068413e-25)
(0.01045927 -0.001492085 1.386533e-23)
(0.009894548 -0.0006982551 0)
(0.01053057 0.0004276183 -4.865544e-24)
(0.008643991 0.001349493 5.809017e-24)
(0.01134185 0.0003593151 -4.461257e-25)
(0.009969051 0.0005299736 -8.883534e-24)
(0.007649917 -0.002730671 1.432202e-23)
(0.0104153 0.001094019 0)
(0.01121168 -0.001235972 2.692438e-25)
(0.009639408 -0.001034143 -1.688487e-23)
(0.009855139 -0.0006373673 1.707111e-23)
(0.0115107 -0.0008219143 1.75824e-24)
(0.01142791 -0.000989454 -4.476293e-25)
(0.008123274 0.001315197 0)
(0.009743614 -0.0002908072 -3.248714e-23)
(0.01039564 -0.0007394701 8.818907e-24)
(0.009611046 -0.0008973895 3.46953e-24)
(0.009761109 -0.0005960069 2.16859e-26)
(0.0102899 0.001010062 4.221015e-24)
(0.01117425 -0.000545831 -1.027806e-23)
(0.01037938 -0.0006495731 0)
(0.01147676 -0.0008259032 -1.450021e-24)
(0.01132845 -0.001190709 -8.297825e-25)
(0.01008035 -0.0009858131 0)
(0.01011939 -0.001561778 7.565493e-24)
(0.009444135 -0.0005540742 -1.492127e-23)
(0.01072428 0.000207685 -9.503485e-25)
(0.01043014 0.0005120975 1.384006e-23)
(0.01143396 -0.0007742633 -2.160041e-24)
(0.01120702 0.0003473816 0)
(0.01058707 -0.0007471587 7.66318e-24)
(0.01133734 -0.000861241 2.406604e-24)
(0.009156431 0.001281307 0)
(0.01080469 -0.0009272393 0)
(0.008995233 -0.002254673 0)
(0.009587402 -0.001272222 1.407243e-23)
(0.0112748 -0.0007841384 1.037617e-23)
(0.0114416 0.0001633212 2.112936e-24)
(0.01145787 -0.0009813494 2.588518e-24)
(0.01112843 -0.0008250376 -2.197372e-24)
(0.0110107 -0.00168856 -5.118847e-24)
(0.00853328 -0.001464982 0)
(0.008056305 -0.00102433 -3.469373e-23)
(0.0112409 0.0003829357 1.328066e-24)
(0.00963788 -0.000290362 2.043134e-23)
(0.009813571 -0.001223663 -1.547148e-23)
(0.01112465 -0.001440653 -1.22139e-24)
(0.0109479 -0.001605064 2.945872e-24)
(0.01122235 -0.001316551 4.117214e-24)
(0.01003073 -0.0008826155 1.285245e-23)
(0.008859736 -0.002738198 0)
(0.01153057 2.172391e-05 -8.903479e-25)
(0.009493674 -0.001200522 0)
(0.01049072 -0.002127476 0)
(0.01080975 0.0009096103 8.902492e-25)
(0.01122403 -2.614208e-05 -3.60078e-25)
(0.009987497 -0.0009436447 -6.590502e-24)
(0.01105571 -0.0007357448 2.86998e-24)
(0.008702294 -0.001414166 -5.754467e-24)
(0.01075194 -0.001175241 -7.612319e-24)
(0.01094304 -0.000800368 3.174739e-24)
(0.01024627 0.001069689 3.436742e-24)
(0.009664895 -0.0003844844 2.204252e-23)
(0.0105833 -0.00175093 1.493574e-23)
(0.009059045 -0.0002313655 -1.437947e-23)
(0.01034367 -0.001163821 4.151419e-24)
(0.01010511 -0.002148106 8.634315e-24)
(0.01121655 -0.0006420713 1.371707e-23)
(0.008066072 -0.00212473 0)
(0.0101053 -0.0007058148 -1.570448e-23)
(0.01111417 -9.284276e-06 0)
(0.01150775 -0.0008048535 -1.769284e-24)
(0.01013618 -0.0005902146 0)
(0.009797824 0.001249023 0)
(0.01127645 0.0003095291 -7.200855e-26)
(0.0114581 0.000168394 0)
(0.009983385 -0.0005130954 2.650273e-23)
(0.009852049 -0.001570256 0)
(0.01042451 -0.001168673 0)
(0.009522888 -0.001395116 -1.470884e-23)
(0.00987539 -0.001270274 1.750771e-23)
(0.01040932 0.0007446579 5.170965e-24)
(0.01149139 8.366173e-05 3.328112e-26)
(0.01005142 -0.001611537 9.601246e-24)
(0.01065549 0.0009127174 0)
(0.01103917 -0.001576947 3.535461e-24)
(0.01017334 0.001045367 -4.336213e-24)
(0.01110332 0.000134381 -2.14827e-24)
(0.01093927 -0.001214905 -1.460054e-23)
(0.008856702 -0.001637817 1.830847e-25)
(0.01032639 -0.002124108 0)
(0.01149561 -0.0005278451 3.609899e-24)
(0.01148417 -0.0001874125 1.482755e-25)
(0.0114476 -0.0006326505 0)
(0.008832271 -0.0006284751 -2.801863e-23)
(0.0105115 -0.0007224934 0)
(0.01143791 0.0001757385 0)
(0.008592632 0.001173396 -1.007737e-23)
(0.01015047 -0.000788246 4.537833e-24)
(0.01006094 -7.177178e-05 -1.742463e-23)
(0.01013806 -0.0003697345 0)
(0.01125095 0.000393168 0)
(0.008017214 0.001369409 3.524897e-25)
(0.01032718 -0.0008265383 5.501453e-24)
(0.008074275 -0.002821438 9.230112e-24)
(0.01155645 -0.0005440788 1.105199e-24)
(0.009622177 -0.0007136855 1.588526e-23)
(0.009943142 -0.0009075204 -1.537075e-23)
(0.01029339 -0.001630643 -1.143784e-23)
(0.009795651 -0.0001727031 -1.252141e-23)
(0.009682594 -0.0001182121 -5.873417e-26)
(0.01017763 -0.000286258 0)
(0.01153888 4.532935e-06 0)
(0.01141026 -0.00102433 -1.410784e-25)
(0.01137249 -6.812577e-05 -3.099696e-24)
(0.01062157 -0.0006450231 -1.157328e-23)
(0.007789933 -0.0005899273 1.17356e-23)
(0.01004918 -0.0003689701 7.842308e-24)
(0.009680936 -0.0005058575 0)
(0.0109994 -0.001684977 8.095045e-24)
(0.01087004 -0.0008149101 0)
(0.01013181 -0.002065649 1.056905e-23)
(0.01026475 -0.0005550027 9.174048e-24)
(0.01007895 -0.0005174818 1.484393e-23)
(0.00872705 -0.0005492896 1.102919e-23)
(0.01110695 0.000672045 3.364719e-26)
(0.01042684 -0.0006068669 7.875837e-24)
(0.009647088 -0.001575954 -2.359308e-23)
(0.01099288 -0.001533552 -2.321986e-24)
(0.01003977 -0.0003440967 -3.32161e-25)
(0.009919755 -0.002259441 0)
(0.01028167 0.0007957955 -4.476263e-24)
(0.01154931 -0.0003768987 -1.005809e-24)
(0.01092399 0.0008333887 9.511569e-25)
(0.01031304 -0.001872969 7.598267e-24)
(0.01028488 -0.001682024 0)
(0.009938637 0.0002724035 0)
(0.01132463 0.0003691258 0)
(0.01011761 -0.0005741257 2.601484e-23)
(0.01115084 0.0005917819 2.651637e-26)
(0.008761524 -0.002746993 -2.068991e-23)
(0.01006431 -0.0007076828 0)
(0.01135098 -4.306974e-05 0)
(0.008822801 -0.002150218 0)
(0.00846615 -0.00275369 0)
(0.009745987 -0.00194961 -3.017129e-23)
(0.009356999 -0.002230156 0)
(0.009631141 -0.001646456 5.333596e-24)
(0.0101229 -0.0002945986 4.784969e-24)
(0.0101448 -0.0006601844 8.728292e-24)
(0.01025277 -0.0009105539 8.723648e-24)
(0.01034154 -0.001750412 -1.343397e-23)
(0.005826103 -0.001211005 3.072152e-23)
(0.01068048 -0.001335826 2.536654e-25)
(0.01130559 -0.0003292816 0)
(0.01137894 0.0003377993 0)
(0.009952826 -0.0008077456 0)
(0.01135984 -0.000362609 8.00072e-25)
(0.01037701 -0.001419248 4.875929e-24)
(0.0101846 -0.0006369506 -1.193692e-23)
(0.008093622 -0.0009204643 2.334025e-23)
(0.01132251 0.00034973 -1.600888e-24)
(0.01078794 -0.0009777224 0)
(0.01042409 -0.001699178 0)
(0.009291192 -0.0007550589 -2.161482e-23)
(0.008202063 -0.0008975004 -2.181233e-23)
(0.009994844 -0.0003883795 -7.514607e-24)
(0.01080901 0.0004965742 3.525286e-24)
(0.0100929 -0.0003689941 5.223747e-24)
(0.006180719 -0.002387441 -5.610652e-23)
(0.008304481 -0.002576001 -2.734017e-23)
(0.01090576 -0.0007318872 -5.245067e-24)
(0.01016922 -0.0005349636 3.65687e-24)
(0.01078921 -0.001116014 5.447672e-24)
(0.009624292 -0.000207382 -3.681786e-23)
(0.01131097 0.0001917965 -2.760299e-24)
(0.009990316 -0.0002838607 9.2595e-24)
(0.008533689 -0.002759682 -1.661546e-23)
(0.01126116 0.0005342856 6.703312e-26)
(0.01098233 -0.000770118 -6.109115e-24)
(0.009636699 -0.001061168 1.584279e-23)
(0.01142433 -0.000960138 -5.005889e-24)
(0.009930887 -0.001134886 0)
(0.01085221 -0.001527484 -5.683697e-24)
(0.00846635 -0.0007370833 0)
(0.01050622 -0.0008433612 0)
(0.008994729 0.001309482 0)
(0.0112868 -0.0005544969 -1.523993e-24)
(0.01091231 -7.030323e-05 0)
(0.01090133 -0.0008728484 -2.204667e-24)
(0.01063493 0.000385511 4.3596e-24)
(0.0109413 0.000579903 -2.628749e-24)
(0.01146102 -0.0001170929 -8.237386e-25)
(0.007976009 -0.002490434 -2.836773e-24)
(0.0102353 -0.0007590848 -1.268504e-23)
(0.01139319 0.0003572683 2.043143e-27)
(0.01078355 0.000918563 0)
(0.01103954 0.0007508688 0)
(0.01087467 0.000872025 2.934036e-24)
(0.01097087 0.0008047863 7.4058e-25)
(0.01122152 -0.0008050196 0)
(0.01127508 -0.001167715 4.632952e-24)
(0.01000856 -0.0001556697 -9.203343e-24)
(0.01150434 -0.0001746041 4.766909e-25)
(0.01150047 -0.0002196986 0)
(0.01012872 -0.0005562229 5.370696e-24)
(0.01153495 -0.0001559444 0)
(0.01015136 0.001109968 -3.217175e-24)
(0.008937024 -0.0009100094 0)
(0.01059287 -0.0006836174 9.852634e-24)
(0.01004092 -0.0007921924 1.198476e-24)
(0.01004797 -0.0006083405 1.302171e-24)
(0.009852356 0.001231335 3.480623e-24)
(0.01060321 0.001013142 4.990907e-25)
(0.01004822 -0.001729349 1.217791e-25)
(0.009731237 -0.001759646 3.743594e-23)
(0.01042319 -0.00215063 -5.63997e-24)
(0.01115416 0.0001782359 -1.084158e-24)
(0.009225586 -0.0009222091 2.828966e-23)
(0.01140494 -0.0008753639 -5.907636e-24)
(0.01003308 -0.0003588742 1.036109e-23)
(0.01003967 -0.0004073904 -1.076913e-23)
(0.01141436 0.0002583884 8.546682e-25)
(0.01074713 -0.0003855695 7.734795e-24)
(0.01050575 0.001054823 2.130495e-24)
(0.01005048 0.001196278 0)
(0.01117562 0.0002645132 -4.830701e-25)
(0.01096079 -0.001351158 0)
(0.0104293 -0.0008599213 1.007768e-23)
(0.01011595 -0.001031687 -7.73829e-24)
(0.009741948 0.001259921 0)
(0.009757432 -0.0007280501 1.892611e-23)
(0.01005657 -0.0006297781 0)
(0.009280645 0.0003545014 -5.340985e-24)
(0.01146337 0.0001336527 -5.488851e-25)
(0.01018832 -0.0009107217 0)
(0.01021343 -0.0007373054 -2.071447e-23)
(0.009954438 -0.001327615 0)
(0.01119323 0.0004918128 -3.785529e-25)
(0.01073301 -0.0009220752 -5.294489e-25)
(0.009684022 -0.0007379325 0)
(0.008950361 -0.0009831073 5.942241e-25)
(0.01105567 0.0002398251 0)
(0.01000412 -0.0006543821 2.54609e-24)
(0.00962996 -0.0006525821 -2.535312e-23)
(0.009861409 -0.0005811969 0)
(0.01125618 0.0003389296 -1.130178e-24)
(0.008444783 0.001340785 -3.998085e-24)
(0.008451038 -0.0004582519 1.203625e-23)
(0.009885362 -0.0004246802 -1.332133e-23)
(0.009470617 -0.0007086522 2.339659e-23)
(0.01079772 0.000910377 -1.022744e-24)
(0.01082298 0.0008803457 0)
(0.01098516 -0.000721837 2.094835e-24)
(0.008551085 -0.002648266 8.981138e-24)
(0.01145345 0.0001043959 -9.858641e-25)
(0.0109911 -0.001313558 0)
(0.009084848 0.001261977 -1.161879e-23)
(0.01086273 -0.001087949 1.199106e-23)
(0.01144787 0.0002361401 8.877261e-26)
(0.01025624 -0.001247339 -7.323451e-24)
(0.009633971 0.0006432613 4.517272e-24)
(0.009944195 -0.0004723452 9.971636e-24)
(0.009965052 -0.001114342 0)
(0.01125704 0.0004713421 5.838914e-25)
(0.01143479 9.617625e-05 8.290462e-25)
(0.010391 -0.0008860137 0)
(0.01030319 -0.000831027 1.475423e-23)
(0.009495974 -0.0005917562 -2.720411e-23)
(0.009648548 -0.0005624522 -5.672943e-26)
(0.01050332 -0.0009329706 -3.639138e-25)
(0.01122176 0.0005841559 -5.844831e-25)
(0.01113532 -0.001414914 1.616679e-24)
(0.01057708 0.0008690026 0)
(0.01036303 -0.0002220643 0)
(0.01135295 0.0002022098 -2.177256e-24)
(0.01018938 -0.000377149 -1.016714e-23)
(0.009557104 -0.000271748 -2.676272e-23)
(0.01128474 0.0002118137 7.670781e-26)
(0.009962059 -0.0009937278 0)
(0.0106128 -0.0004411352 0)
(0.01122927 -4.8823e-06 -1.170635e-24)
(0.01106323 -0.001359965 1.656262e-24)
(0.01007839 0.001188849 -2.505893e-24)
(0.01126081 -0.001238163 -3.497461e-25)
(0.009928583 -0.0004967975 0)
(0.0100001 -2.991068e-05 0)
(0.0114473 -0.0002841161 0)
(0.01145542 -0.0005095281 4.104532e-26)
(0.009735208 -0.0003257052 2.847429e-23)
(0.009631634 -0.0003216666 -3.700583e-23)
(0.01049164 -0.001121669 -2.694655e-23)
(0.01140298 -0.001052755 2.624814e-24)
(0.01118462 -0.0002599325 -3.018472e-24)
(0.01139469 -0.0001078847 1.920198e-24)
(0.0111815 -2.677921e-05 -4.760667e-24)
(0.01132169 -0.0006852653 8.99724e-24)
(0.01155418 -0.0006330725 -2.602146e-24)
(0.01150002 -0.0006454386 3.692405e-24)
(0.009886187 -0.0001272556 0)
(0.009422703 -0.0003255627 -1.621276e-23)
(0.01153595 -3.569682e-05 -1.347301e-24)
(0.009874015 -0.0004569961 1.294758e-23)
(0.01022928 0.0008857408 0)
(0.01118214 0.0005741183 0)
(0.009998529 -0.000624853 9.593115e-24)
(0.009969753 -0.0005794333 5.512069e-26)
(0.01007068 -0.000222801 -1.803708e-23)
(0.009851791 -0.0008282718 1.625172e-23)
(0.01017411 -0.001065406 2.706758e-23)
(0.009520768 -0.0009480534 1.551501e-23)
(0.009531325 -0.0008965944 -4.17699e-23)
(0.009308295 0.00101259 -1.180552e-24)
(0.008737774 0.0008586494 9.680355e-24)
(0.009949819 0.001222149 2.617432e-24)
(0.01038047 0.0008812516 0)
(0.01049182 0.001008434 0)
(0.01121941 0.0005860291 -6.005143e-25)
(0.01121568 0.0005774446 -1.796499e-24)
(0.01008981 0.001160275 -2.472343e-24)
(0.009886387 -0.001036946 7.123866e-24)
(0.01017114 -0.0005828632 -3.759942e-24)
(0.01009919 -0.0005155339 1.655641e-26)
(0.01007464 -0.0005439454 8.842954e-24)
(0.01155944 -0.0005624217 5.666918e-25)
(0.01065786 0.0009384379 1.069396e-24)
(0.01038114 -0.001635908 0)
(0.010488 -0.0009776438 5.647046e-26)
(0.01046229 -0.0009360147 2.646099e-24)
(0.009908738 -0.0004606068 0)
(0.01106876 -0.0007468971 0)
(0.01134088 -0.0005234925 0)
(0.01019473 -0.0008061312 1.032468e-23)
(0.00981126 0.00124972 1.728692e-24)
(0.009668487 -0.001018803 0)
(0.01026535 0.001138707 0)
(0.01042398 0.001062223 2.743616e-24)
(0.01106311 -0.001182321 -3.59546e-26)
(0.01029451 -0.0003774619 0)
(0.008770198 -0.001601358 -2.718813e-23)
(0.009913999 -0.0009860597 0)
(0.01111332 0.000195532 -1.832149e-25)
(0.01152042 -1.186083e-05 -1.23124e-24)
(0.01151521 -6.202283e-05 0)
(0.01156832 -0.0002719756 -2.971399e-25)
(0.01144916 0.0002186475 -9.696631e-26)
(0.01128008 0.0004676809 5.144046e-25)
(0.01129096 0.0004876278 0)
(0.01052969 -0.0006304842 -6.978079e-24)
(0.01146249 0.0001700302 -3.493025e-25)
(0.01156898 -0.0001666731 0)
(0.009842123 -0.0005059083 -1.597525e-23)
(0.01001487 -0.0007794359 1.191192e-23)
(0.009992314 -0.0004488532 -1.96966e-24)
(0.01113552 -0.001497461 0)
(0.01092305 -0.001712269 -8.071321e-24)
(0.01151463 -0.0005445312 -2.278149e-24)
(0.01151884 -0.0005754226 2.210966e-24)
(0.01089419 -0.0009699519 1.046628e-23)
(0.01093819 -0.0011768 3.591422e-24)
(0.0100701 -0.0008442964 -1.11733e-23)
(0.007169131 -0.0009558784 0)
(0.01065104 -0.001052291 -5.932384e-24)
(0.01060387 -0.001102458 5.536208e-25)
(0.01043483 -0.0008885674 -7.993249e-24)
(0.01062324 -0.0009853311 1.385769e-23)
(0.01115811 0.0005771339 -1.932059e-25)
(0.01043633 -0.001123178 -5.80295e-24)
(0.01046056 -0.001372671 0)
(0.01025796 -0.001592039 0)
(0.01039408 0.001100002 3.782641e-24)
(0.01057746 0.001027881 0)
(0.0100118 0.001195716 0)
(0.01003606 -0.000296293 -9.080592e-24)
(0.01101314 0.0007404951 0)
(0.01086081 0.0008578839 6.647105e-25)
(0.01070688 -0.001925979 0)
(0.01075396 -0.001931158 7.243666e-24)
(0.0108112 -0.001094674 -5.717673e-24)
(0.009645118 -0.001288762 -2.279254e-24)
(0.00969393 -0.001897228 8.139808e-24)
(0.01040724 -0.002176251 6.126093e-24)
(0.009801734 -0.002271501 -6.94569e-24)
(0.01098297 0.0007859067 1.551142e-24)
(0.009904237 -0.0001775282 0)
(0.009775217 -0.0002662808 1.377898e-23)
(0.007398071 -0.0003549703 -5.493424e-24)
(0.01135843 0.0002044386 1.732429e-24)
(0.01014686 -0.0006802803 -8.908594e-24)
(0.01128702 0.0004182048 0)
(0.01105955 0.000535632 0)
(0.00952055 -0.001240935 0)
(0.01014174 -0.0004566204 1.461521e-23)
(0.007792346 -0.00153365 0)
(0.01122161 0.0005705571 0)
(0.009662265 -0.00243225 2.419531e-23)
(0.009761325 -0.000101757 -8.430306e-24)
(0.01060615 -0.000957108 -1.826983e-23)
(0.01111685 -0.0001030175 -1.061218e-24)
(0.01112399 -0.00121616 0)
(0.01009493 0.001098223 0)
(0.0102148 0.0001670677 3.90559e-24)
(0.01038155 -0.001374961 0)
(0.01002654 -0.0008258192 1.734486e-23)
(0.009961726 -0.0007461647 0)
(0.01128276 -0.001099628 -1.320249e-24)
(0.00930704 -0.001578559 -1.776928e-24)
(0.01148172 -0.0003247866 0)
(0.01005407 -0.0003003163 -2.82352e-23)
(0.009938594 -0.001048335 0)
(0.01015255 -0.001790106 -1.033861e-24)