/*--------------------------------*- C++ -*----------------------------------*\
| =========                 |                                                 |
| \\      /  F ield         | OpenFOAM: The Open Source CFD Toolbox           |
|  \\    /   O peration     | Version:  2406                                  |
|   \\  /    A nd           | Website:  www.openfoam.com                      |
|    \\/     M anipulation  |                                                 |
\*---------------------------------------------------------------------------*/
FoamFile
{
    version     2.0;
    format      ascii;
    arch        "LSB;label=32;scalar=64";
    class       volScalarField;
    location    "0.18";
    object      p;
}
// * * * * * * * * * * * * * * * * * * * * * * * * * * * * * * * * * * * * * //

dimensions      [0 2 -2 0 0 0 0];

internalField   nonuniform List<scalar> 
4529
(
-7.871371e-07
-2.716179e-06
-2.045044e-06
-5.670437e-06
-3.468533e-06
-6.383128e-06
-1.912431e-06
-2.368802e-06
-3.167282e-06
-1.636706e-06
2.721984e-06
-9.064934e-07
-5.361874e-07
-7.90848e-07
-1.469203e-06
-7.614136e-07
-3.381753e-06
-1.245726e-06
3.462977e-07
-2.223074e-06
-7.896262e-08
-1.330062e-06
-1.279316e-06
-2.142563e-06
-1.010668e-07
-2.312689e-06
-3.378761e-06
-4.043667e-06
-3.731151e-06
-4.789371e-06
-1.360224e-07
-1.373509e-06
-8.314113e-07
2.663102e-07
2.336845e-06
-2.548381e-06
-2.068491e-06
-1.470008e-06
-4.552007e-06
6.021804e-07
-1.313109e-06
-7.758184e-07
-1.657572e-06
2.59879e-08
1.193329e-07
1.261278e-06
-1.578877e-06
-2.516835e-06
3.465191e-07
-3.007888e-06
-6.489341e-06
-1.832127e-06
-7.419835e-06
5.203675e-07
-3.182634e-06
-3.300591e-06
-2.951131e-06
3.843576e-06
-6.535228e-06
-7.782355e-06
-3.048431e-06
1.037209e-06
-6.2305e-07
-7.700541e-06
-2.05872e-06
6.468337e-07
-1.177561e-06
-1.273885e-06
-2.049943e-06
3.960258e-06
-2.011174e-06
-2.741953e-06
-4.408293e-06
-7.525415e-07
-8.750098e-06
-5.479239e-06
9.588731e-07
1.848275e-06
-6.891278e-06
-2.880131e-06
-4.155984e-06
-1.818927e-06
6.220692e-07
-1.819752e-06
-2.668703e-06
-8.63539e-07
1.784631e-07
1.060111e-06
1.297749e-06
-1.1558e-06
-7.817246e-06
-9.499193e-07
5.318463e-07
-1.708494e-06
-1.14407e-06
-8.011416e-07
-5.979717e-06
-3.558964e-06
-4.766126e-06
-2.927025e-06
-9.161331e-07
-4.860873e-06
-2.549334e-06
-3.217391e-06
-1.40847e-06
1.296154e-06
-5.529826e-06
1.598767e-06
1.345653e-06
-2.155224e-07
-2.311925e-07
-1.481332e-06
-5.007446e-06
-4.352866e-06
-4.558554e-06
-1.225602e-06
-1.636048e-06
-3.084456e-06
-1.82483e-06
-4.808035e-07
-2.548179e-06
-2.164329e-06
-1.6429e-07
-1.35625e-06
-1.284953e-06
-3.395636e-06
-2.976653e-06
7.633917e-07
-1.408795e-06
-4.769799e-06
-2.010256e-06
-3.546077e-06
-8.639154e-06
1.844319e-07
5.854086e-07
5.273293e-07
7.689926e-07
-1.408174e-07
-1.028003e-06
-2.519672e-06
-2.873495e-06
-1.977393e-06
-9.809342e-07
-3.707493e-06
-5.677145e-06
-2.995812e-06
-4.407735e-09
-4.271901e-06
-2.600597e-06
-2.022793e-06
-2.366085e-06
-4.157587e-06
-3.452839e-06
-8.355744e-07
-4.19623e-06
-6.278917e-07
6.821612e-08
-2.969133e-06
-1.182362e-06
-2.036283e-06
2.620751e-06
-3.204571e-07
-5.08367e-06
-2.930877e-06
-4.080893e-08
1.579022e-07
-3.789728e-08
-2.396579e-06
-2.436404e-06
-2.269803e-06
-6.1318e-06
-1.709755e-06
-8.810812e-06
5.188042e-07
9.515162e-07
-3.325584e-06
-1.670986e-06
-7.6662e-06
-8.941233e-06
2.538504e-06
5.786564e-07
-2.694537e-06
-2.028255e-06
-1.864665e-06
4.036779e-06
-9.192979e-06
-2.435258e-06
-5.433647e-07
-5.173211e-06
-5.766073e-07
-2.622656e-06
-7.510931e-06
1.188031e-06
-3.932695e-06
-2.094304e-06
1.566556e-06
3.641152e-07
-5.532e-06
3.461474e-06
-2.551234e-08
-1.668674e-06
1.964531e-06
-1.587831e-06
-7.326527e-06
-1.160547e-06
-2.506835e-06
-5.503777e-06
-2.64397e-06
-3.277348e-06
-7.723755e-06
3.129018e-07
-3.467238e-06
-3.830114e-07
-4.11578e-06
-2.440382e-06
-2.791653e-06
-1.844966e-06
-1.156479e-06
-2.560373e-06
7.395638e-06
-2.823697e-06
-4.312947e-07
-2.198338e-06
-3.951112e-07
-8.984829e-07
2.228243e-06
-1.162377e-06
-2.960973e-06
-5.822596e-06
-7.767234e-07
-4.334836e-06
-7.629877e-06
-8.69409e-06
-2.827725e-07
-3.326983e-06
-3.304969e-06
-1.531669e-06
-4.145724e-06
3.441682e-07
-2.34222e-06
-3.156126e-06
2.373667e-07
-7.298377e-07
-6.258805e-06
2.320601e-06
-3.496685e-06
-6.797126e-06
-1.301983e-06
-1.414529e-06
5.861985e-07
-4.215002e-06
1.252317e-06
-3.897714e-06
4.420068e-06
1.858873e-06
-6.837977e-07
-4.409352e-06
-6.444128e-06
-5.069217e-06
-1.455948e-06
1.621206e-06
-8.490164e-07
-1.446028e-06
-8.503562e-07
-1.973057e-06
-5.49011e-06
-2.053469e-06
-3.065015e-06
-3.032938e-06
-9.195802e-07
-2.249367e-06
-4.11962e-07
-9.888085e-08
-2.638684e-06
-6.677118e-06
-2.001712e-07
-1.3883e-07
1.30156e-07
-5.191103e-06
-9.172567e-06
-1.017844e-06
-1.654593e-06
2.831364e-07
-3.15711e-06
1.094676e-07
-2.054302e-06
-2.414217e-06
-5.719539e-08
-3.164894e-06
-1.513745e-06
-3.99521e-06
2.029103e-07
-5.221543e-07
-2.061242e-06
-2.783542e-06
-1.741854e-07
-1.582008e-06
-3.004616e-06
-1.018914e-06
-1.713493e-06
-1.685146e-06
-2.075633e-06
-3.145208e-06
4.147363e-06
-1.160308e-06
-3.163959e-06
-3.339756e-06
-1.394821e-06
-3.493164e-06
-1.016013e-06
-1.019714e-06
-2.135118e-06
9.190601e-07
-2.049807e-06
-2.388298e-06
-9.690998e-07
-1.861997e-06
-1.536088e-06
-7.073447e-06
1.882885e-06
-2.277872e-07
2.523824e-06
-2.614614e-06
-4.042958e-06
-1.119586e-06
-3.310502e-06
-3.033156e-06
-2.392593e-07
-6.784511e-07
-1.987656e-07
-1.277188e-07
-4.554916e-07
-5.471925e-07
-1.597854e-06
7.266896e-07
-4.946885e-06
-4.278198e-06
-2.994306e-06
-4.098859e-07
-1.091053e-06
-1.268062e-06
-3.371029e-06
3.539853e-06
-4.552834e-06
-4.14816e-06
1.679109e-06
-2.310145e-06
-5.567425e-06
-4.711332e-06
-1.51067e-06
-1.361751e-06
2.496064e-06
-1.627198e-06
-1.73469e-06
9.382924e-07
-3.587402e-06
-4.313102e-06
4.820221e-06
-2.039266e-06
-1.567327e-06
-6.454865e-07
8.200444e-07
-2.770188e-06
-7.530011e-07
-4.267997e-07
1.491825e-07
3.140046e-08
-3.329465e-06
-1.903835e-06
-1.155291e-06
2.814152e-07
-7.60694e-07
-2.152922e-06
1.177176e-06
-1.83957e-06
-3.299317e-07
1.155165e-06
-6.609037e-06
-8.864648e-06
-2.06648e-06
-1.125536e-06
7.650662e-07
7.224584e-07
7.393478e-08
1.089804e-06
1.593878e-08
-3.955139e-06
3.651055e-06
-3.337937e-06
6.424802e-08
-6.763241e-06
1.868201e-06
5.107634e-06
-2.530894e-06
-4.158602e-07
-2.607384e-06
-2.507259e-06
-2.998586e-06
-2.72777e-06
-3.443076e-06
-1.807053e-06
2.185695e-06
-6.444572e-06
-5.978626e-06
-6.260156e-06
-1.053187e-06
-6.040717e-06
-5.92286e-07
2.157735e-06
-2.145393e-06
-3.226572e-06
-1.353707e-06
-4.824567e-06
-1.999208e-06
3.885286e-07
-9.004965e-07
-9.003925e-07
-3.08751e-06
-2.541943e-07
1.251643e-06
-6.640042e-06
-1.953671e-06
-6.720098e-06
-3.73764e-06
-8.255844e-06
-7.500977e-06
-4.579736e-06
-2.458012e-06
9.105902e-08
-2.604331e-06
-5.679971e-07
1.210577e-06
-8.375791e-06
-7.280779e-06
1.556753e-06
-1.341262e-06
8.568713e-07
3.061178e-07
-3.246262e-06
7.234014e-07
-8.471775e-07
-2.790783e-07
-4.556746e-06
-1.948165e-06
-1.680025e-06
-1.608542e-06
1.323502e-06
-1.784486e-06
-1.69327e-06
-2.816192e-06
-3.617494e-06
-2.140386e-06
-2.625252e-06
-1.245261e-06
-9.731694e-07
-3.860465e-06
-1.20196e-06
-4.043455e-06
5.51152e-07
-9.065158e-07
8.189604e-07
-7.565674e-07
-1.801359e-06
3.390342e-06
-3.818314e-06
-3.770927e-06
-9.628631e-07
-7.233342e-07
1.001472e-07
-4.232641e-07
2.399011e-07
2.951534e-06
-2.693979e-06
-1.882173e-06
-4.799731e-06
3.628526e-08
-4.250101e-06
-1.601809e-06
4.073835e-07
-1.214571e-06
2.537719e-06
2.110535e-07
-6.49664e-07
-3.897332e-07
-1.925026e-06
1.952175e-06
-3.091362e-06
7.798001e-07
-2.051246e-06
-3.545491e-06
-1.081641e-05
-2.462931e-06
-2.659624e-06
-4.000517e-07
-1.699696e-06
-3.200457e-06
-3.219753e-06
-3.820896e-06
-2.041179e-06
-4.526723e-06
-2.927162e-06
-6.613872e-07
-2.609285e-06
-1.819299e-06
-2.910394e-08
-9.117141e-07
-2.826133e-07
-3.223988e-07
-5.772275e-07
-6.801191e-07
-3.903342e-07
-3.559037e-07
-3.318996e-06
1.672505e-06
-1.677243e-06
-3.645404e-06
-1.183016e-06
-4.494585e-07
1.750476e-06
7.863907e-07
-1.466013e-06
2.855359e-07
-2.116531e-06
-1.434794e-06
-1.432501e-06
-1.550038e-07
-6.447619e-07
-2.730634e-06
1.081512e-06
2.622761e-07
-1.465557e-06
-6.711886e-07
-7.214956e-07
-9.0466e-07
-4.012477e-07
-4.418804e-06
5.036817e-07
3.180338e-07
2.529657e-07
2.996399e-06
-8.818233e-06
-5.56975e-07
3.746084e-06
-5.592227e-07
-3.211573e-06
-4.398282e-09
-1.842245e-06
-3.304853e-06
-1.25871e-06
3.177675e-06
-2.818966e-06
-1.875419e-06
-2.202515e-06
-2.664025e-06
-5.394955e-07
-1.249813e-06
-5.103143e-06
-3.994634e-06
2.400664e-06
-2.668028e-06
9.994612e-07
-1.387505e-06
-3.20494e-06
-6.087713e-06
-4.457994e-06
-1.171984e-06
-1.487414e-06
-4.200604e-06
-3.699976e-06
-5.210019e-06
-1.918132e-07
1.425255e-06
7.453589e-07
-2.512982e-06
-2.475748e-06
-2.785861e-06
-2.656392e-06
-3.108852e-06
-4.445613e-08
1.005625e-07
-2.41813e-06
-3.32848e-06
-2.336433e-06
-7.017366e-07
-1.487984e-06
-3.175759e-06
-5.629014e-07
-2.030413e-06
-2.328446e-06
1.327937e-06
2.441024e-06
-2.417599e-06
-7.243235e-07
5.113766e-06
-3.474878e-06
-1.748671e-06
-2.665607e-06
-2.590938e-06
2.24471e-06
2.255783e-06
-2.756176e-07
-2.339929e-06
9.682622e-07
3.983351e-07
5.302586e-07
7.495388e-07
8.060375e-07
-1.149142e-06
1.01102e-06
-2.120062e-06
-6.104417e-06
-1.454213e-06
-1.484117e-06
-9.672624e-07
-3.871192e-07
3.773846e-06
6.704027e-07
2.769956e-07
-6.057733e-06
-5.308379e-07
-3.261972e-07
-4.211609e-06
-4.594388e-06
8.592533e-07
-3.347668e-06
-4.595256e-07
1.231769e-06
-1.553693e-06
-2.099124e-06
-1.665675e-06
-3.861765e-06
-5.827252e-06
-5.290952e-06
-1.457792e-06
-9.702969e-07
1.107391e-06
8.354884e-07
-1.23737e-06
-2.29738e-06
-1.157937e-06
-1.077527e-06
-1.821679e-07
2.71561e-06
4.855695e-06
-2.287886e-06
-2.42527e-07
-2.886314e-06
-4.161464e-06
-2.816967e-08
-1.148589e-06
4.357528e-07
-4.416284e-06
-2.396601e-06
-5.40191e-06
-1.451307e-06
-1.969897e-06
1.513475e-07
-5.405469e-06
-9.168288e-07
-9.052123e-06
-1.377653e-06
-2.355712e-06
-5.393955e-06
-1.426453e-06
-2.571944e-06
-3.637609e-06
-2.77521e-06
-1.87047e-06
-8.910404e-06
-2.14828e-06
-2.319042e-06
2.983493e-06
-1.686151e-06
-5.566163e-08
-2.687799e-06
-1.780925e-06
-1.518765e-06
1.768067e-06
-3.167599e-06
-1.75514e-06
-1.233146e-06
-1.626301e-06
-2.056452e-06
-2.205723e-06
1.907178e-06
1.266353e-06
1.701651e-06
-1.601433e-06
-1.302909e-06
-5.059439e-06
-3.268287e-06
-2.292573e-06
-3.796593e-06
-3.685881e-06
-9.19954e-07
1.343376e-06
-8.307876e-07
-4.624704e-06
-5.500195e-06
-9.096696e-07
-9.194276e-07
-9.975765e-07
-8.973289e-06
-1.309239e-06
3.232315e-07
3.46725e-06
-2.539686e-06
-2.154583e-06
-1.931103e-06
-6.457173e-06
-5.63215e-06
-2.262807e-06
-4.682651e-06
-1.334705e-06
-2.019327e-06
-4.127786e-06
-1.501643e-06
-2.03344e-06
-2.658619e-06
-1.966836e-06
-5.601847e-06
-1.59397e-06
-2.672763e-06
-1.027433e-06
-6.216701e-07
-3.950193e-06
3.529178e-06
1.490247e-06
4.463315e-06
-1.870251e-06
-1.91037e-06
-3.274579e-07
-1.888353e-06
-1.042139e-06
-3.319861e-06
-2.584779e-06
-2.181367e-06
-6.059627e-06
-1.241862e-06
-5.765966e-06
6.207725e-08
-5.852149e-06
-6.192091e-06
-6.964517e-06
-4.227672e-06
-1.933947e-06
-1.520185e-06
-1.638933e-06
-1.674232e-06
-8.658166e-06
-1.845983e-06
-2.36775e-06
-6.225163e-06
-2.315398e-06
-4.836429e-06
-3.223377e-06
-1.411684e-06
-9.817309e-06
-7.250576e-06
-8.239152e-06
-4.759732e-06
-4.479913e-06
1.683601e-06
-7.193278e-06
-2.471058e-07
-5.16651e-06
-5.778736e-06
-1.883493e-06
-5.059972e-06
-3.188589e-06
-1.34673e-06
-4.886856e-06
-7.011157e-06
-1.371307e-06
-2.362373e-06
-1.263741e-06
5.40808e-07
-9.062147e-07
-3.863074e-06
-4.038844e-06
-9.331624e-06
-3.558544e-06
-1.240734e-06
-1.603219e-06
-1.157455e-06
-1.615926e-06
-5.730047e-06
-1.933165e-06
-1.933743e-06
-5.392908e-07
-2.549746e-06
-9.544366e-07
-4.866912e-06
-9.967244e-08
-1.816833e-06
-1.245514e-06
-1.34857e-06
-7.044029e-06
-2.469269e-06
-2.484784e-06
2.060727e-06
-1.395655e-06
-5.833789e-06
-8.172275e-06
-2.828027e-06
-2.355818e-06
-1.440986e-06
-2.416212e-06
-1.280007e-06
1.527777e-07
-1.393841e-06
-1.598101e-06
-3.809679e-07
-1.618792e-06
-1.682205e-06
-2.30818e-06
-1.888633e-06
-1.239445e-06
-2.658595e-06
-2.949274e-07
-1.231678e-06
-5.754308e-06
-1.00068e-05
1.413599e-07
1.169132e-06
-5.26397e-07
-1.754355e-06
-6.181935e-07
-2.633509e-07
-6.332607e-07
1.950336e-07
-5.491307e-07
-1.606812e-06
-1.833498e-06
-9.855082e-07
5.034614e-07
4.631056e-07
-3.856111e-06
5.412311e-10
-2.219183e-06
-1.874955e-06
-4.630001e-06
-2.506829e-06
-6.122226e-06
-4.128421e-06
-7.225338e-06
-6.684191e-06
-4.498317e-06
-4.5012e-06
5.331963e-07
1.002641e-06
1.475205e-06
-1.869329e-06
-2.155405e-06
-1.198231e-06
-1.557935e-06
-1.512367e-06
-1.635585e-06
-1.700232e-06
-1.929904e-06
-3.050912e-06
-1.886503e-06
-4.496002e-07
-2.289501e-06
-2.759287e-07
-4.812708e-07
-6.597313e-06
-3.801519e-06
-3.753771e-06
-6.051239e-06
-5.43226e-06
-1.417148e-06
-2.489009e-06
-7.504892e-06
-3.612245e-06
-4.864321e-06
8.591035e-07
-6.993897e-06
1.822996e-07
-1.577782e-06
1.385486e-06
-4.459029e-06
-1.321186e-06
-3.993535e-06
-5.409658e-06
-8.420687e-06
-3.473348e-06
-2.958655e-06
-2.673098e-06
-8.991702e-07
-1.169954e-06
-5.463466e-07
-3.640795e-06
-3.779868e-06
-2.815384e-06
-6.347383e-06
-5.830173e-06
-5.530438e-06
-4.243079e-06
-8.231591e-06
-8.673307e-07
-1.715639e-06
-4.282591e-07
2.880177e-07
-1.304233e-06
-1.014405e-06
-3.076274e-06
-2.626646e-06
-5.529359e-06
-4.638556e-06
-4.292252e-06
-5.65551e-06
-4.722203e-06
-3.847541e-06
-4.194514e-06
-5.444069e-06
-4.427604e-06
1.163176e-07
5.536683e-08
-5.165968e-06
-5.799096e-06
-8.217249e-06
-6.470565e-06
-2.953495e-06
-3.133916e-06
-7.239799e-06
-7.846701e-06
-8.350803e-06
-2.492102e-06
4.976194e-07
-3.828027e-06
-4.052315e-06
-1.122426e-06
-1.186903e-06
-1.454602e-06
-4.305219e-06
-6.568423e-06
-5.092344e-06
-5.195615e-06
-5.222274e-06
-5.334652e-06
-6.473885e-06
-5.752251e-06
2.805807e-07
-4.965029e-06
-5.365634e-06
1.421401e-06
-4.259203e-06
-3.231907e-06
-3.420145e-06
-5.929973e-06
-2.577338e-06
1.798132e-07
-3.998425e-06
-7.628173e-06
-9.340094e-07
7.103662e-08
-7.545881e-06
1.776029e-06
-4.86761e-06
-1.327722e-06
-2.41553e-06
-4.554539e-06
-2.041531e-06
-6.350523e-07
-4.112928e-07
-5.436896e-06
-3.900065e-06
-4.880275e-06
-6.364369e-06
-3.979889e-06
-4.246837e-06
-4.630533e-06
-5.584612e-06
-6.113181e-07
-1.101392e-06
-1.011418e-06
-2.065717e-06
-4.334764e-06
-8.633632e-06
-7.64072e-06
-1.077579e-06
-7.161384e-07
-6.923996e-06
2.453387e-06
-6.029849e-06
-1.850383e-06
3.97088e-06
-2.090482e-07
-3.369075e-06
-7.696137e-06
-1.939434e-07
-1.224287e-07
-1.125845e-06
-4.895176e-06
-8.293875e-06
-2.316797e-06
6.356893e-07
3.945112e-06
-4.86823e-07
8.375312e-08
2.723043e-06
-2.209551e-06
7.908565e-07
-3.715928e-06
-2.125309e-06
-3.696255e-06
-9.713888e-07
-1.044956e-06
-3.795403e-06
-8.929155e-06
-1.76219e-07
-7.778055e-06
-5.075207e-06
-5.136059e-06
-2.463476e-06
-1.124343e-06
-3.868549e-06
-2.225778e-06
-2.475e-06
-2.499295e-06
-2.451921e-06
2.455405e-06
-8.968653e-06
-9.06921e-06
-7.004791e-06
-9.979442e-06
-8.824855e-06
-9.233926e-06
-1.072887e-05
-2.357208e-06
-6.516428e-06
6.460995e-07
1.185409e-06
-2.509734e-07
1.809299e-07
-3.74272e-06
-3.026223e-06
-4.813389e-06
-2.086847e-06
-1.670581e-06
-1.516188e-06
-5.484496e-07
-1.785087e-06
-7.961611e-07
5.017585e-07
1.260854e-07
7.65291e-07
6.277075e-07
6.612676e-07
-2.889962e-06
-1.39885e-06
5.524321e-08
4.469363e-07
2.704708e-06
-1.569182e-06
-3.115026e-07
-2.394361e-06
-5.969616e-06
6.539178e-07
-6.271351e-06
-7.799901e-06
-6.26692e-06
-2.377586e-06
-2.106327e-06
-4.414863e-06
-3.357247e-06
-6.528011e-06
-3.876368e-06
-9.909302e-07
2.803243e-06
-2.790587e-06
-2.836281e-06
-1.062358e-06
-1.418774e-06
1.23177e-06
4.163109e-07
-1.343121e-06
-1.332743e-06
-1.295022e-06
-3.962612e-07
1.206958e-07
-2.965461e-07
-2.302777e-08
-1.187608e-06
1.210981e-07
-2.502123e-07
-2.570015e-07
3.170918e-08
3.334322e-09
4.634133e-08
-2.601839e-06
-2.026948e-06
-2.219737e-06
-6.567751e-06
-7.017721e-06
-4.406843e-06
-1.508224e-06
-8.517969e-06
-5.790874e-06
-7.177868e-06
-1.08969e-06
-1.566987e-06
-3.65459e-06
1.234575e-06
-2.543071e-07
-2.074073e-06
-2.046223e-06
-6.43388e-07
-1.866016e-06
-2.168991e-06
-2.692654e-06
-7.896928e-08
-3.035352e-06
1.030579e-06
-7.454055e-07
-6.634378e-07
-1.332624e-06
-1.657412e-06
-1.417542e-06
-3.94834e-06
-4.807517e-07
-8.418242e-07
-1.531557e-06
-2.380516e-06
-2.538276e-06
-3.293651e-06
-8.677019e-06
-8.695076e-06
-1.161248e-06
-8.517806e-06
9.319606e-08
2.55897e-07
1.631684e-07
-8.268745e-08
1.854936e-07
3.857591e-07
-6.462865e-06
-6.28695e-06
8.24398e-07
-3.638788e-06
-3.581163e-06
-5.391948e-06
-1.936481e-06
-2.116735e-06
-2.041342e-06
-5.220884e-06
-2.146728e-07
-8.204155e-06
-3.715845e-06
-1.796861e-06
-1.82399e-07
-2.213947e-06
-2.214165e-06
-6.82568e-07
-8.611658e-07
-2.509132e-06
-1.151167e-06
-1.792831e-06
-2.469946e-06
-2.1969e-06
-2.091903e-06
2.902852e-07
-2.40551e-06
-2.344859e-06
-2.037235e-06
-1.339283e-06
-2.654575e-06
-2.860672e-06
-1.718499e-06
-9.591549e-07
-3.882234e-06
-8.205513e-07
-4.685962e-06
-2.364921e-06
-3.724847e-06
-3.383885e-06
-5.00036e-07
-2.069711e-06
-2.473844e-06
-4.833024e-06
-1.871493e-06
1.095219e-06
-1.576732e-06
-5.604784e-06
-2.025383e-06
-1.99846e-06
-1.662782e-07
1.114642e-06
-1.86594e-06
-1.792084e-06
1.407895e-06
-4.936732e-06
-7.380262e-06
-5.877507e-06
-1.579967e-06
9.532368e-07
9.319387e-07
-1.195107e-06
-7.771352e-07
-1.554026e-06
-3.197937e-07
-2.214052e-06
7.103273e-07
-2.126146e-06
-3.524272e-06
-3.77093e-06
-7.989369e-07
-2.63569e-06
-2.732706e-06
-1.647042e-07
-2.053742e-06
-2.362639e-06
-4.861078e-06
-3.758124e-06
-3.481901e-06
3.066652e-07
2.363068e-06
1.591947e-07
-4.439337e-06
-4.910023e-06
-8.810902e-07
-1.623774e-07
-1.817921e-06
5.201762e-07
-1.217793e-06
-1.411592e-06
3.37446e-07
8.609229e-07
-4.022682e-07
1.714918e-07
-5.333267e-07
-1.85281e-06
-1.509585e-06
-4.382801e-06
-6.989424e-07
-5.325935e-07
-2.970904e-06
2.18591e-07
-9.106274e-07
-7.872233e-07
-1.130563e-06
-3.638602e-06
-5.215982e-06
-1.794858e-06
-1.494623e-06
-1.616037e-06
9.781037e-08
-1.939562e-06
8.660914e-07
-3.743683e-06
-1.961897e-06
-1.654294e-06
-8.359961e-06
-6.50395e-06
-1.264546e-06
-4.286431e-06
-6.235509e-06
-6.911821e-06
-9.487628e-07
-1.000875e-06
-1.663837e-06
-4.544416e-07
-3.171598e-06
-6.044198e-07
6.915602e-07
-2.25036e-06
-7.470559e-06
-9.24159e-07
6.991006e-07
-1.268184e-06
-1.132183e-06
-2.315023e-06
-7.562932e-07
-4.749788e-06
-6.076726e-06
-2.316335e-06
-4.54355e-06
3.532246e-07
2.206765e-06
-6.775288e-07
-8.101009e-06
-1.330346e-06
-1.695049e-06
-5.242807e-07
-1.394929e-06
4.25202e-06
-2.704597e-06
-4.3204e-06
-3.318776e-07
-2.471992e-06
-2.367395e-06
1.822549e-06
1.607708e-06
-7.691902e-08
-1.807309e-06
6.968918e-07
2.361438e-07
-1.577613e-06
-6.311146e-06
-3.918469e-07
-3.458439e-07
-5.6015e-07
-6.792666e-07
-9.307187e-07
-6.19212e-07
-7.642337e-07
-4.2735e-07
-6.374782e-07
-7.194631e-07
-4.139823e-07
-3.653626e-07
-2.718661e-06
-4.342036e-07
6.70895e-07
1.017021e-06
1.21555e-06
5.223298e-08
3.237e-07
2.651657e-07
1.124672e-06
2.158791e-07
-4.846254e-06
2.025308e-06
1.599566e-06
-1.193191e-06
-4.611401e-06
-3.371375e-06
-4.475348e-06
-1.300998e-06
-6.013666e-06
-4.700997e-07
-8.167163e-07
2.100674e-06
1.020195e-07
-1.449372e-07
-5.636422e-07
-2.012255e-06
-1.140192e-06
-3.058305e-06
-2.867533e-06
-8.191249e-06
-3.371992e-06
-3.392123e-06
-3.7063e-06
-3.36428e-06
-4.051637e-06
-4.093416e-06
-3.641739e-06
-3.348739e-06
-2.876357e-06
3.856817e-07
-4.343787e-06
-3.527336e-06
-2.055619e-06
6.054348e-07
-4.678263e-06
1.209043e-06
-1.853667e-06
-1.250057e-07
-4.725248e-06
-4.232728e-06
-5.13312e-06
-7.853745e-06
-7.673262e-06
-2.892814e-06
-1.293693e-06
-1.319405e-06
-1.846767e-06
-1.769147e-06
-2.829245e-06
3.137386e-07
-6.691646e-06
-2.344523e-06
5.463972e-07
-3.030567e-07
3.121415e-06
-4.857374e-06
-5.633672e-06
-3.386314e-06
-5.112635e-06
-4.876505e-06
-3.066375e-06
-2.917402e-06
-5.263849e-08
-3.730753e-06
2.627767e-06
1.976452e-06
1.490137e-06
-4.292076e-06
-4.617535e-06
-5.795249e-06
-5.264706e-06
-3.373027e-06
-4.448072e-06
-5.849055e-06
-6.064889e-06
-4.594878e-06
-4.087777e-06
-1.519419e-06
-4.775585e-06
-1.233054e-06
-7.381526e-06
1.499324e-06
-1.398798e-07
-4.476796e-06
3.166833e-07
5.710595e-07
3.118694e-06
-1.950073e-06
3.772828e-06
2.935262e-06
-2.348588e-06
-4.295554e-06
-7.231433e-06
1.0103e-06
6.272087e-07
5.67923e-07
-5.404631e-07
-5.143844e-06
-5.089464e-06
-4.399847e-06
-2.72137e-07
-7.342655e-08
-6.242801e-06
-8.230666e-06
-8.384165e-06
-3.742298e-06
-2.980404e-06
-5.156984e-06
-6.434704e-06
-1.643217e-06
-2.368568e-06
-3.121955e-06
-3.32353e-06
-3.128005e-06
-8.550933e-07
-8.439246e-06
1.517277e-07
-1.921331e-06
2.0349e-06
-1.094865e-07
-2.952001e-06
1.336071e-06
-3.094619e-06
3.712419e-07
-6.630528e-06
-1.469553e-06
-3.596583e-06
1.097407e-06
-6.022666e-07
3.911823e-07
-3.410561e-07
-6.25331e-07
-2.968653e-06
-1.650929e-06
-2.224279e-06
-1.811951e-06
-1.392613e-06
-1.467732e-06
-2.073255e-06
-6.422762e-06
-2.500025e-06
-3.154589e-07
-3.30237e-06
1.234413e-06
1.155414e-06
-3.897767e-06
-4.245299e-08
-3.820547e-06
-2.123282e-06
-2.265713e-06
-1.361332e-06
-1.908491e-06
3.108884e-06
-4.307009e-07
5.889741e-07
-4.601038e-06
5.330207e-06
-6.803549e-07
-1.504192e-06
-7.315248e-07
-6.963988e-07
-6.279796e-07
-7.643955e-07
-1.657673e-06
-8.10122e-07
-7.802819e-07
5.239412e-06
1.361241e-07
5.815116e-08
-1.211028e-06
-2.70065e-06
-3.245691e-06
-1.491125e-06
-1.242939e-06
2.640261e-07
4.29161e-07
7.135701e-07
-1.33539e-06
-1.429629e-06
4.191989e-06
3.575308e-06
5.608413e-07
5.238069e-07
-5.70672e-07
-1.59283e-06
-1.679993e-06
-2.440635e-06
-2.070818e-06
5.643404e-07
1.718159e-07
-5.612396e-06
-1.128015e-06
-1.103517e-06
1.04945e-06
1.091763e-06
-4.809803e-06
-2.093728e-06
-2.38791e-06
7.642558e-07
5.45753e-07
-8.250551e-06
-3.743342e-06
-4.362696e-06
-3.985019e-06
-8.706911e-07
-1.106183e-06
-5.738212e-08
-1.254668e-06
-9.513488e-06
1.045014e-06
-5.110829e-06
2.595317e-06
-8.88616e-07
-1.252376e-06
-2.214057e-06
-2.96342e-07
-5.322904e-07
-3.745788e-06
-1.06016e-06
9.054184e-07
1.026507e-06
-4.012105e-06
-7.806609e-06
4.218698e-07
-2.838472e-07
-3.281952e-06
-7.116082e-08
-2.528943e-07
-4.290872e-06
-8.894065e-06
2.228024e-07
9.264305e-07
-2.52654e-06
-4.255381e-06
-5.070217e-06
-4.69995e-06
-4.124339e-07
-3.741309e-07
-3.311971e-06
-2.221585e-06
2.728133e-08
7.970394e-08
3.351775e-07
-1.518181e-08
6.5463e-07
2.861962e-06
2.666984e-06
-2.95772e-07
-1.268372e-06
-2.491833e-06
-1.721465e-06
-3.50032e-06
3.299177e-06
-6.2123e-06
-2.204701e-06
-2.409627e-06
-2.762238e-06
9.514502e-07
-2.291235e-06
-2.088389e-06
-5.141784e-06
-5.63564e-06
1.184992e-07
-4.938262e-06
2.775779e-06
-1.32025e-07
-1.217682e-07
-8.696354e-07
-8.223059e-06
-7.73845e-06
-1.134873e-07
-1.855017e-06
-2.44836e-06
-3.411721e-06
1.157153e-06
-5.415788e-07
-2.720374e-06
-2.405343e-06
-1.895094e-06
4.068865e-06
4.547239e-06
4.437587e-08
-4.006653e-08
-4.186347e-06
-1.094341e-07
-1.486288e-06
-1.66556e-06
-4.594078e-06
-6.018411e-06
-5.753875e-07
-1.342679e-07
-1.712694e-06
-1.624263e-06
2.941841e-07
-4.616598e-06
2.005385e-07
-6.109493e-07
-6.75121e-06
-1.600097e-06
3.116121e-06
5.468391e-06
-1.514903e-06
-1.178395e-06
3.967594e-07
5.275107e-07
-1.093665e-06
2.457953e-06
3.314225e-06
9.079152e-07
7.10811e-07
-5.665727e-07
-3.706496e-07
4.842957e-06
2.530702e-06
-2.650754e-06
1.019012e-06
1.735605e-06
-3.776751e-06
-1.907109e-06
-2.652773e-06
-2.592925e-06
-1.357381e-06
-1.081423e-06
-2.356076e-06
-2.942501e-06
-2.586515e-06
-2.797785e-06
-3.653774e-06
-3.080912e-06
-3.39596e-06
-5.100272e-06
-2.258795e-06
-3.007436e-06
-3.087187e-06
-3.612409e-06
-3.542422e-06
-3.779015e-06
-2.781004e-06
-3.327451e-06
-3.219332e-06
-2.457014e-06
-2.155209e-06
-1.128243e-07
-2.101301e-06
-2.16188e-06
-4.461703e-06
-4.360759e-06
4.905211e-07
1.653464e-06
-3.058441e-06
-5.033331e-06
4.029615e-07
-1.299701e-06
-3.968197e-06
-1.607806e-06
-2.043541e-06
-3.045424e-06
-2.580529e-06
-2.706103e-06
-2.930749e-06
-8.740174e-07
-3.202959e-06
-3.158988e-06
-3.856352e-06
-2.859384e-06
-2.52786e-06
-3.098793e-06
-4.247886e-07
2.784735e-07
1.731252e-07
2.142482e-06
6.430289e-07
-1.378746e-06
-1.359416e-06
1.360388e-07
-5.079682e-07
-1.969471e-06
1.342923e-07
-5.718117e-06
-2.9107e-06
-2.761918e-06
6.031072e-07
3.735518e-07
1.393543e-06
1.190271e-06
1.254993e-06
-1.662501e-06
-1.768198e-06
-1.778674e-06
-4.939143e-06
-2.674556e-06
-2.177225e-06
-2.506472e-06
-1.318513e-06
-1.211974e-06
2.481084e-06
-8.209344e-07
-6.227966e-08
-3.23358e-06
-1.88521e-06
5.852775e-07
-2.274745e-06
-3.333856e-07
-1.697542e-06
-1.970896e-06
-1.891518e-06
1.234418e-07
-2.158359e-06
-7.308019e-06
1.61921e-06
2.172772e-06
2.059012e-06
1.742768e-06
1.712555e-07
-1.965903e-06
-1.527207e-07
-1.402117e-06
-7.799826e-07
-3.397762e-06
5.060583e-07
6.051035e-07
-1.289769e-06
-2.846035e-06
-9.417761e-07
-2.177895e-06
-2.070585e-06
4.949628e-06
-7.081708e-06
-6.679914e-06
-1.425457e-06
-1.5487e-06
-2.878256e-06
-1.45419e-06
-3.864486e-06
-2.370718e-06
-3.194981e-06
-2.645684e-07
-1.39781e-06
-9.824461e-07
-1.315655e-06
-1.231843e-06
-2.289256e-06
-3.401698e-06
-1.445592e-06
-1.607249e-06
-4.908938e-07
3.518238e-07
-7.978362e-06
-5.32482e-06
-5.167597e-06
2.568966e-07
-2.657263e-06
2.859049e-07
1.885542e-06
2.246066e-06
-1.626956e-06
-7.321186e-07
-1.766408e-06
-2.303861e-06
-5.765142e-07
1.436357e-06
-6.330793e-06
-5.198193e-06
-7.016256e-07
-6.8834e-07
-1.043738e-06
-4.758982e-06
-4.214927e-06
-6.276378e-06
3.995159e-07
5.385006e-07
-8.774922e-06
2.324389e-06
-3.744418e-06
-2.68906e-06
2.471522e-07
-1.710796e-06
-9.950119e-07
-8.134775e-07
-2.896487e-06
-3.148505e-06
1.130191e-06
-1.859485e-06
-1.595404e-06
2.026573e-06
-8.220651e-06
-5.213469e-06
-3.45388e-06
-1.816257e-06
-1.971965e-06
-1.320408e-06
-1.311029e-06
-2.620259e-06
-2.081922e-06
-2.093877e-06
-1.824421e-06
4.242509e-07
4.159625e-07
-7.108308e-06
-6.847131e-06
3.297625e-06
-4.330492e-07
-6.117671e-07
-6.723637e-08
1.217216e-07
-3.60982e-06
-2.298897e-07
-5.993525e-07
-1.458696e-06
-1.64039e-06
5.522144e-06
-1.740695e-06
1.78114e-06
1.218125e-06
-2.134823e-06
-4.69865e-06
-2.063775e-07
-1.883065e-07
-1.70649e-06
-1.875961e-06
-2.572342e-06
-3.724058e-06
-5.961017e-06
-2.565655e-06
-7.454188e-06
-7.967962e-06
-1.441375e-07
-2.21915e-06
-1.228502e-06
-8.374719e-06
-2.759481e-06
-8.260685e-06
-1.924361e-07
-1.56848e-06
1.0825e-06
1.552223e-06
4.039806e-07
3.912401e-07
1.795027e-06
5.891272e-07
-3.240216e-06
-2.385191e-06
-2.337568e-06
4.121081e-07
1.341423e-06
-8.077563e-06
7.122778e-09
6.550861e-08
-2.861408e-06
-2.924204e-06
-4.185463e-06
-3.485464e-06
-1.047629e-06
-3.679822e-07
-6.528223e-07
-3.9461e-06
-5.455388e-06
-1.617587e-06
-5.985961e-06
-5.495374e-06
-5.530353e-06
-5.855547e-06
1.07777e-06
-4.650536e-06
-2.052677e-07
-3.629026e-06
-3.806477e-06
-3.684786e-06
-8.001843e-06
-2.217321e-06
-2.193081e-06
-2.949705e-06
-3.103973e-06
-5.391816e-06
-1.466244e-09
-7.576043e-07
-1.572997e-06
-3.524329e-07
-8.136254e-06
-9.756822e-06
-8.587164e-06
-2.295312e-06
-6.520444e-06
-8.408023e-06
-9.120196e-06
-1.365354e-06
-2.028651e-06
-1.878413e-06
-2.777863e-06
-2.395541e-06
-4.599349e-06
-3.726334e-06
2.258573e-06
-7.044368e-06
-2.396019e-06
2.374078e-06
2.180646e-06
-2.260307e-06
4.163733e-08
-4.550661e-06
3.320146e-07
-1.325059e-06
-1.403929e-06
-3.735681e-07
-2.349956e-06
9.460026e-07
-2.205372e-06
-8.089557e-06
-3.85561e-06
-6.45994e-06
-7.799905e-06
-7.054256e-06
-1.069906e-06
-6.822861e-06
-4.733116e-06
-4.264448e-06
-2.28331e-06
-1.956431e-06
-1.878566e-06
-1.016817e-06
-4.01247e-07
-3.342977e-06
-2.319999e-06
-7.164476e-06
-5.165028e-06
-4.472856e-06
-4.466319e-06
4.270289e-07
-8.045537e-07
-1.197972e-06
3.693404e-06
-2.787472e-06
-3.785257e-06
-3.799042e-06
-5.460051e-07
-6.448792e-07
-4.946167e-06
-2.880698e-06
-4.925329e-07
-4.188305e-06
-3.227635e-06
-2.889943e-06
-2.897303e-06
-3.49011e-06
-5.70949e-06
-1.254762e-06
-1.567306e-06
1.381141e-06
1.297227e-06
-7.109919e-08
-3.81002e-08
-1.704818e-07
-2.711447e-07
-1.130506e-07
2.373448e-07
-1.887858e-06
-3.721838e-06
-5.445767e-06
-4.642814e-07
-1.497099e-06
-1.173452e-06
-1.222347e-06
-1.823456e-06
1.384999e-06
-7.501405e-07
-1.226528e-06
-2.23162e-06
-1.791616e-06
-1.778844e-06
-6.760607e-07
-5.978071e-07
-5.603521e-07
8.739253e-07
9.367931e-07
1.073599e-06
-6.379206e-06
-1.247113e-06
4.118542e-07
6.479045e-07
-7.178933e-07
-1.618114e-06
-2.030516e-06
-1.18166e-06
-1.051041e-06
2.148782e-06
2.012401e-06
-9.069002e-07
2.891812e-06
-5.45418e-06
-6.63124e-06
-1.468585e-07
-2.569307e-06
-6.251733e-07
-1.536167e-06
6.033494e-07
-3.815094e-07
-1.428528e-06
-2.458093e-06
-4.385407e-06
-4.354935e-06
-7.946236e-07
-5.533931e-07
-7.592904e-06
-1.881339e-06
-5.40564e-06
5.293e-07
-3.091374e-06
-2.933677e-06
3.71031e-08
1.313366e-07
-1.38392e-06
-1.293317e-06
-1.371367e-06
2.555752e-07
-2.054756e-06
-2.65995e-06
-2.39963e-06
-2.651135e-06
-1.568773e-06
-2.211998e-06
-1.506079e-06
-1.572211e-06
3.690032e-06
3.695485e-06
-2.024028e-06
6.158802e-07
5.445143e-07
-1.468062e-06
-1.37777e-06
-3.123828e-06
-1.23539e-06
-2.273281e-06
7.364984e-08
-2.366718e-07
-2.714659e-06
-7.194336e-06
-7.295962e-06
-5.190503e-06
-4.826644e-06
-1.754814e-06
-1.75611e-06
5.293758e-07
-8.859369e-06
-8.746405e-06
-8.849261e-06
-3.557007e-06
1.054955e-06
-9.598839e-07
-9.292925e-07
5.494822e-07
2.062717e-06
-9.785502e-07
2.043278e-06
-1.877263e-06
-1.453787e-06
-2.122858e-06
-1.769143e-06
-1.820352e-06
-6.990636e-07
-5.740339e-07
-1.657351e-07
-4.313123e-07
-9.92369e-07
-1.217419e-06
8.497298e-07
1.01868e-06
-2.090978e-06
-1.844473e-06
1.716894e-06
-4.099865e-06
-5.314225e-06
-5.225025e-06
-5.54546e-06
-5.48315e-06
-5.909113e-06
-6.785991e-06
-5.81756e-06
-5.272399e-06
-6.651689e-06
-8.202702e-06
1.113914e-06
-2.378414e-06
-2.262095e-06
-4.94212e-06
-1.640042e-06
-1.080469e-06
-9.533755e-07
-8.138402e-07
3.252672e-08
1.550066e-07
-6.337193e-07
2.423239e-07
-1.860485e-06
-1.053953e-06
2.35217e-07
-8.501663e-06
-8.584941e-06
-1.908081e-06
-2.367759e-06
-2.391455e-06
-1.81335e-06
-7.946256e-07
-6.439033e-06
-5.036277e-06