/*--------------------------------*- C++ -*----------------------------------*\
| =========                 |                                                 |
| \\      /  F ield         | OpenFOAM: The Open Source CFD Toolbox           |
|  \\    /   O peration     | Version:  2406                                  |
|   \\  /    A nd           | Website:  www.openfoam.com                      |
|    \\/     M anipulation  |                                                 |
\*---------------------------------------------------------------------------*/
FoamFile
{
    version     2.0;
    format      ascii;
    arch        "LSB;label=32;scalar=64";
    class       volScalarField;
    location    "0.82";
    object      p;
}
// * * * * * * * * * * * * * * * * * * * * * * * * * * * * * * * * * * * * * //

dimensions      [0 2 -2 0 0 0 0];

internalField   nonuniform List<scalar> 
217010
(
-80.80573
-41.26651
-48.98358
-49.6946
-45.59723
-42.86612
-42.92464
-42.52943
-42.5781
-42.57545
-42.51254
-42.40339
-42.36643
-42.43544
-42.35731
-42.48062
-42.55785
-42.66822
-42.9598
-43.4471
-44.06508
-44.69887
-45.21919
-45.65563
-45.93305
-46.08105
-45.9208
-45.71006
-46.26464
-45.97742
-45.32679
-44.87058
-44.37403
-43.83672
-43.24904
-42.77593
-43.00641
-44.09027
-46.10057
-49.38719
-54.70082
-61.08767
-66.50741
-69.74614
-70.47202
-68.72475
-67.72193
-68.25719
-57.22801
-58.9405
-55.28141
-62.95656
-64.00672
-64.56927
-65.03867
-65.57426
-65.8764
-66.03579
-66.03774
-65.84636
-65.43436
-64.84575
-64.11228
-63.20674
-62.13266
-60.94001
-59.62958
-58.18917
-56.63668
-54.9895
-53.23699
-51.40171
-49.51828
-47.60188
-45.64736
-43.64893
-41.59899
-39.53905
-37.50876
-35.48174
-33.46551
-31.49035
-29.53547
-27.58599
-25.66143
-23.78987
-21.99999
-20.25651
-18.60872
-17.05691
-15.51165
-14.1024
-12.84215
-11.67572
-10.62345
-9.656061
-8.810488
-8.153385
-7.557172
-7.054671
-6.700411
-6.514502
-6.477468
-6.598345
-6.84935
-7.250634
-7.789457
-8.460506
-9.231974
-10.10537
-11.07095
-12.16504
-13.31808
-14.54522
-15.84562
-17.16952
-18.54022
-20.02438
-21.4638
-22.88059
-24.32681
-25.75597
-27.1693
-28.58518
-29.98647
-31.29654
-32.54014
-33.75619
-34.94775
-36.03748
-37.03247
-37.95035
-38.76686
-39.45318
-40.0109
-40.48375
-40.90478
-41.34704
-41.86632
-42.27041
-42.30934
-42.16006
-42.20936
-41.92877
-40.18152
-36.8281
-32.65143
-31.71478
-37.12553
-40.20664
-42.63375
-47.80445
-48.17466
-48.66621
-48.71553
-46.09972
-41.24596
-34.85933
-28.52434
-23.26789
-18.93785
-15.73907
-17.98119
-20.59452
-23.10229
-23.96425
-23.15477
-22.32078
-21.3006
-20.37276
-21.5825
-24.51665
-25.05233
-25.5998
-25.9591
-25.78418
-26.08226
-26.07347
-25.04604
-23.14413
-21.16628
-19.66864
-19.64815
-21.15325
-22.58257
-23.17426
-23.55324
-24.16761
-24.88778
-25.11361
-24.45872
-24.01079
-24.098
-24.36707
-24.46355
-24.46286
-23.60169
-26.35352
-23.61484
-55.08646
-15.92586
-13.85197
-8.745438
-5.89087
-3.236544
-1.000679
0.9901581
2.856355
4.481531
6.015728
7.435323
8.75755
10.02512
11.23835
12.3901
13.4732
14.50473
15.50972
16.4808
17.41875
18.32752
19.19971
20.0359
20.86605
21.68472
22.4921
23.27045
24.01696
24.74449
25.46683
26.18673
26.89964
27.58344
28.25201
28.921
29.58136
30.23945
30.89428
31.55531
32.18865
32.84765
33.47514
34.10202
34.72239
35.3432
35.95633
36.56297
37.17436
37.79957
38.42538
39.04097
39.64872
40.25806
40.88887
41.53253
42.171
42.81235
43.46485
44.12365
44.79537
45.47076
46.14399
46.84841
47.62408
48.43187
49.23167
50.01897
50.7969
51.72767
53.02959
54.6775
52.34908
50.83297
49.64623
48.47626
47.40883
46.43047
45.45846
44.51991
43.67325
42.87778
42.04538
41.19235
40.36219
39.57562
38.81105
38.04764
37.27646
36.50787
35.76287
35.02783
34.28261
33.53853
32.80552
32.06396
31.32936
30.58625
29.81912
29.06349
28.32705
27.58825
26.83341
26.0411
25.28819
24.50697
23.70905
22.91292
22.11603
21.29407
20.46215
19.63319
18.79157
17.91296
16.99837
16.08696
15.18625
14.25876
13.29283
12.30557
11.28296
10.22701
9.14901
8.041756
6.927929
5.752895
4.512355
3.235711
1.897992
0.511694
-0.9610315
-2.535423
-4.187421
-5.929087
-7.837846
-9.897214
-12.22335
-14.72561
-17.53857
-20.92051
-24.59739
-30.99762
-34.18148
52.4838
51.04063
49.80118
48.61751
47.53571
46.54585
45.56613
44.61803
43.76067
42.95919
42.12473
41.26855
40.43281
39.64047
38.87176
38.10536
37.33148
36.55955
35.81124
35.0734
34.3259
33.57945
32.84411
32.10034
31.36398
30.61919
29.85007
29.09249
28.35395
27.61345
26.85704
26.06223
25.30999
24.5258
23.72635
22.92887
22.13069
21.30732
20.47419
19.64389
18.80111
17.92098
17.00488
16.09223
15.19045
14.2614
13.29415
12.30579
11.28152
10.22367
9.143768
8.034566
6.919592
5.741367
4.498008
3.218873
1.877623
0.4885559
-0.9889837
-2.568579
-4.224826
-5.971805
-7.88686
-9.953501
-12.29822
-14.81099
-17.64348
-21.04531
-24.79824
-31.13626
-35.26762
-16.83118
-13.95952
-8.907252
-5.989644
-3.321204
-1.069103
0.9295083
2.811843
4.4427
5.980437
7.405285
8.731026
10.00193
11.21859
12.37377
13.45975
14.49307
15.50009
16.47326
17.41298
18.32339
19.1974
20.03464
20.86584
21.68558
22.4942
23.27384
24.02134
24.74987
25.47327
26.19428
26.90833
27.59327
28.26276
28.93294
29.59436
30.25373
30.90994
31.5733
32.20629
32.86731
33.49606
34.12448
34.74627
35.36846
35.98306
36.59138
37.20475
37.83192
38.45943
39.07653
39.68625
40.29828
40.93191
41.57816
42.21905
42.86328
43.51898
44.18129
44.85626
45.53483
46.21311
46.92542
47.70895
48.52178
49.32393
50.11436
50.90674
51.8794
53.23392
54.6279
-42.33981
-47.42654
-48.1196
-48.72834
-48.96051
-46.56949
-41.81088
-35.42952
-28.99077
-23.62395
-19.19221
-15.79564
-17.87647
-20.45893
-23.01742
-23.98799
-23.20756
-22.37338
-21.34592
-20.37119
-21.4982
-24.47589
-25.05433
-25.60451
-25.96159
-25.78251
-26.08594
-26.09333
-25.07545
-23.16435
-21.18098
-19.67664
-19.65398
-21.15792
-22.58891
-23.17777
-23.55684
-24.17356
-24.89541
-25.11519
-24.45461
-24.01052
-24.10234
-24.37282
-24.46762
-24.44807
-23.64127
-26.34931
-24.3696
-50.20936
-55.04613
-62.31236
-63.86216
-64.51248
-64.98221
-65.53797
-65.86802
-66.04295
-66.06071
-65.88697
-65.48995
-64.91255
-64.1913
-63.29962
-62.2326
-61.04461
-59.73846
-58.30046
-56.74877
-55.10244
-53.34957
-51.51174
-49.6246
-47.70471
-45.74734
-43.7459
-41.69131
-39.62445
-37.58866
-35.55673
-33.53424
-31.55398
-29.59463
-27.63742
-25.70914
-23.83182
-22.03758
-20.28934
-18.63594
-17.08189
-15.53225
-14.11807
-12.85486
-11.68558
-10.63104
-9.661645
-8.814003
-8.155494
-7.558223
-7.055049
-6.700578
-6.514778
-6.478049
-6.599783
-6.851619
-7.254619
-7.795307
-8.4687
-9.242349
-10.11844
-11.08707
-12.18546
-13.34111
-14.57256
-15.87697
-17.20282
-18.57719
-20.07066
-21.51102
-22.93083
-24.38163
-25.81295
-27.22948
-28.64931
-30.05264
-31.36195
-32.60642
-33.82518
-35.01853
-36.10575
-37.09826
-38.01251
-38.82302
-39.50301
-40.05629
-40.52775
-40.94874
-41.39381
-41.91087
-42.29158
-42.30213
-42.15004
-42.18196
-41.78513
-39.86465
-36.40848
-32.42168
-32.02432
-37.68828
-40.42954
-74.78235
-42.07673
-48.79648
-49.82905
-45.73659
-42.90086
-42.92735
-42.534
-42.57833
-42.57633
-42.51359
-42.40396
-42.36651
-42.43582
-42.35729
-42.48098
-42.55738
-42.66768
-42.96066
-43.45045
-44.07125
-44.70688
-45.2267
-45.66303
-45.93862
-46.08184
-45.91694
-45.71539
-46.27238
-45.96379
-45.31093
-44.85438
-44.35417
-43.81337
-43.2266
-42.77148
-43.04122
-44.18051
-46.26562
-49.67424
-55.14469
-61.60231
-66.95928
-70.03235
-70.55365
-68.68083
-67.64052
-67.58308
-56.84187
-58.6083
-67.55465
-42.39787
-48.52759
-49.95652
-45.88899
-42.93963
-42.92998
-42.53992
-42.57977
-42.57815
-42.51463
-42.40426
-42.36667
-42.4373
-42.35746
-42.48256
-42.55625
-42.6658
-42.96048
-43.45332
-44.07705
-44.71254
-45.23051
-45.67204
-45.94632
-46.08474
-45.91514
-45.72843
-46.29261
-45.97243
-45.29935
-44.84381
-44.34306
-43.79951
-43.21033
-42.76803
-43.07356
-44.25107
-46.38429
-49.87543
-55.43029
-61.8554
-67.0767
-70.12575
-70.67214
-68.82927
-67.77527
-67.44064
-56.5002
-57.8687
-54.85892
-62.02521
-63.71048
-64.50603
-64.98656
-65.53407
-65.87598
-66.05711
-66.07942
-65.9124
-65.5177
-64.93488
-64.20715
-63.31601
-62.25224
-61.06435
-59.76086
-58.3279
-56.77916
-55.13576
-53.38589
-51.5493
-49.66193
-47.74173
-45.78399
-43.78356
-41.72966
-39.66058
-37.62303
-35.59062
-33.56633
-31.58465
-29.62289
-27.66778
-25.73524
-23.85476
-22.05925
-20.30955
-18.65215
-17.09869
-15.54691
-14.129
-12.86439
-11.69351
-10.63797
-9.66788
-8.818438
-8.158389
-7.559995
-7.055835
-6.70132
-6.515913
-6.47955
-6.60244
-6.854612
-7.259318
-7.801187
-8.47629
-9.250753
-10.12817
-11.09794
-12.19938
-13.35474
-14.58871
-15.89449
-17.21964
-18.59981
-20.09273
-21.53196
-22.95295
-24.40517
-25.83523
-27.25256
-28.67389
-30.07672
-31.38269
-32.62715
-33.84674
-35.03828
-36.1212
-37.11508
-38.03202
-38.84853
-39.53238
-40.09248
-40.57586
-41.00623
-41.45158
-41.94675
-42.29391
-42.29645
-42.15907
-42.18424
-41.75045
-39.77459
-36.22097
-32.2418
-32.09909
-38.10088
-40.59469
-42.09213
-47.32242
-48.17934
-48.86138
-49.11116
-46.66421
-42.04198
-35.73789
-29.27916
-23.86143
-19.41993
-15.90111
-17.84139
-20.41263
-23.06195
-24.09214
-23.34285
-22.42586
-21.37397
-20.35563
-21.47112
-24.47877
-25.07392
-25.61306
-25.95281
-25.79531
-26.11298
-26.13196
-25.1063
-23.19019
-21.20805
-19.69703
-19.67398
-21.17129
-22.60314
-23.18481
-23.56716
-24.18859
-24.91325
-25.12766
-24.45716
-24.01406
-24.10933
-24.3805
-24.47374
-24.4309
-23.65277
-26.38868
-24.65682
-44.22171
-16.92872
-14.04294
-8.975611
-6.037202
-3.359698
-1.099234
0.9064942
2.783838
4.428602
5.966182
7.393398
8.720183
9.99166
11.2101
12.3667
13.45447
14.48725
15.49527
16.46931
17.40986
18.32066
19.1961
20.03297
20.86473
21.68514
22.49475
23.27555
24.02303
24.75154
25.47508
26.19648
26.91177
27.59732
28.26589
28.93671
29.59831
30.25909
30.91575
31.5776
32.21483
32.87161
33.50181
34.13116
34.75299
35.37574
35.99069
36.59896
37.2121
37.84055
38.46939
39.08653
39.6963
40.30761
40.94214
41.59049
42.23187
42.87577
43.53306
44.19566
44.87133
45.55093
46.22989
46.94229
47.73109
48.54817
49.34896
50.14001
50.93454
51.93185
53.33395
54.53844
52.53569
51.12048
49.84889
48.65149
47.56767
46.57735
45.59151
44.6364
43.77924
42.98177
42.14517
41.28677
40.44776
39.65503
38.88616
38.12032
37.34492
36.57094
35.82313
35.0856
34.33664
33.58982
32.85492
32.10934
31.37454
30.62924
29.8573
29.09944
28.36139
27.62075
26.86183
26.07181
25.31536
24.53349
23.73212
22.93412
22.1359
21.31077
20.4774
19.64764
18.80537
17.92375
17.00585
16.09309
15.19221
14.26205
13.29419
12.30565
11.27976
10.22081
9.13993
8.030009
6.916171
5.73565
4.490861
3.211772
1.868086
0.4794789
-1.001298
-2.582974
-4.240097
-5.988474
-7.90602
-9.988675
-12.32703
-14.84899
-17.69111
-21.10763
-24.88428
-31.23678
-35.31631
52.58331
51.27108
49.99907
48.79429
47.7044
46.70492
45.71036
44.749
43.88384
43.07831
42.23693
41.37571
40.53241
39.73393
38.9602
38.18981
37.4112
36.63335
35.88273
35.141
34.3886
33.63938
32.9019
32.15305
31.41707
30.66917
29.89336
29.13514
28.39479
27.65236
26.89048
26.10142
25.33813
24.55817
23.75318
22.95407
22.15499
21.32658
20.49246
19.66195
18.81908
17.93413
17.01349
16.10017
15.19982
14.26681
13.29756
12.30838
11.27954
10.21886
9.136145
8.024145
6.911564
5.725781
4.477756
3.197901
1.848791
0.4599504
-1.027718
-2.614783
-4.275038
-6.027464
-7.955218
-10.04526
-12.38897
-14.92804
-17.78906
-21.22044
-25.06333
-31.3215
-35.4528
-17.09199
-14.11767
-9.120628
-6.124743
-3.440212
-1.162449
0.8564335
2.738356
4.390535
5.932647
7.36569
8.695163
9.969403
11.19194
12.35185
13.44365
14.47663
15.4873
16.46347
17.40595
18.31784
19.19626
20.03251
20.86547
21.68721
22.4986
23.28183
24.02998
24.75915
25.48314
26.20552
26.92317
27.61085
28.27875
28.9513
29.6137
30.2773
30.93564
31.59553
32.24057
32.89535
33.52714
34.15844
34.78209
35.40616
36.02348
36.63368
37.24877
37.87911
38.51038
39.12954
39.74204
40.35611
40.99282
41.64487
42.28913
42.93609
43.59664
44.26315
44.94183
45.62544
46.31012
47.02817
47.82293
48.64527
49.44562
50.23749
51.04538
52.07362
53.4537
54.39694
-41.74707
-46.83274
-48.33816
-49.17578
-49.46201
-47.2908
-42.67475
-36.34925
-29.78097
-24.24805
-19.75208
-16.0814
-17.83781
-20.34717
-23.05921
-24.2294
-23.56437
-22.53011
-21.37138
-20.30152
-21.30349
-24.53115
-25.18312
-25.61082
-25.90202
-25.80649
-26.16417
-26.19503
-25.16764
-23.23491
-21.25444
-19.73535
-19.71612
-21.19725
-22.62947
-23.19967
-23.59452
-24.22127
-24.9458
-25.14778
-24.46599
-24.02346
-24.12238
-24.39538
-24.48417
-24.40013
-23.67714
-26.44176
-25.41508
-39.34818
-54.09778
-61.3773
-63.48334
-64.48683
-65.02131
-65.55722
-65.90702
-66.09455
-66.12591
-65.97557
-65.59616
-65.03513
-64.32471
-63.45079
-62.38602
-61.19783
-59.89652
-58.46326
-56.91133
-55.26718
-53.5151
-51.67356
-49.78073
-47.85644
-45.89373
-43.8894
-41.83014
-39.75194
-37.70874
-35.67216
-33.64039
-31.6531
-29.68455
-27.72501
-25.78801
-23.8995
-22.10051
-20.34671
-18.68032
-17.1279
-15.57146
-14.14615
-12.87932
-11.70558
-10.64829
-9.677405
-8.825406
-8.16325
-7.563086
-7.057306
-6.702875
-6.518259
-6.482511
-6.607299
-6.859698
-7.267103
-7.810717
-8.488728
-9.264789
-10.14513
-11.11696
-12.22456
-13.38019
-14.61998
-15.92995
-17.25587
-18.64236
-20.14275
-21.58244
-23.00792
-24.46623
-25.89721
-27.31865
-28.74578
-30.15362
-31.45718
-32.7037
-33.92756
-35.12529
-36.20553
-37.20129
-38.1206
-38.93174
-39.60045
-40.1591
-40.65132
-41.08876
-41.53002
-41.99913
-42.31502
-42.31844
-42.18763
-42.13546
-41.5058
-39.33766
-35.79358
-32.11049
-32.479
-38.56326
-40.68795
-61.83548
-43.18422
-48.13774
-50.16965
-46.15392
-42.99592
-42.93221
-42.54843
-42.58224
-42.58044
-42.5162
-42.40454
-42.36701
-42.43982
-42.35804
-42.4852
-42.55438
-42.66238
-42.95926
-43.45678
-44.08576
-44.72379
-45.24089
-45.68601
-45.95879
-46.09453
-45.92089
-45.76413
-46.32644
-45.98002
-45.2904
-44.83285
-44.32694
-43.78
-43.18848
-42.76268
-43.11775
-44.35457
-46.56452
-50.18507
-55.91526
-62.41128
-67.62021
-70.53139
-70.93765
-69.22352
-67.97776
-66.33447
-55.80642
-56.2174
-57.87956
-43.97448
-47.76259
-50.52784
-46.52025
-43.08057
-42.93548
-42.55929
-42.5845
-42.58291
-42.51843
-42.40601
-42.36839
-42.44422
-42.35981
-42.48873
-42.55178
-42.65725
-42.9568
-43.4608
-44.09763
-44.73738
-45.24988
-45.70487
-45.97608
-46.11274
-45.93818
-45.83449
-46.36997
-45.98884
-45.29013
-44.82403
-44.30723
-43.75705
-43.15999
-42.75528
-43.17235
-44.47419
-46.77383
-50.55334
-56.50667
-63.03495
-68.07091
-70.79862
-71.21371
-69.6527
-67.97002
-65.03087
-54.84229
-54.06065
-53.38336
-60.72479
-63.17411
-64.41543
-65.03755
-65.57332
-65.93129
-66.12312
-66.159
-66.02017
-65.63497
-65.05219
-64.34465
-63.4918
-62.44401
-61.2632
-59.97139
-58.54785
-56.9997
-55.36137
-53.61406
-51.77295
-49.87804
-47.95314
-45.98876
-43.98521
-41.92556
-39.83959
-37.79203
-35.75345
-33.71396
-31.72352
-29.75185
-27.78922
-25.84678
-23.94892
-22.14778
-20.39034
-18.71126
-17.1658
-15.60254
-14.16617
-12.89899
-11.72123
-10.66213
-9.69072
-8.834456
-8.17107
-7.568015
-7.059704
-6.705956
-6.522702
-6.488212
-6.616108
-6.868624
-7.279851
-7.825516
-8.506949
-9.283572
-10.16719
-11.1411
-12.25665
-13.40923
-14.6572
-15.96979
-17.29171
-18.68889
-20.19932
-21.63267
-23.06225
-24.5252
-25.95239
-27.37745
-28.80948
-30.21836
-31.51279
-32.76068
-33.98725
-35.18568
-36.25434
-37.24852
-38.16309
-38.96586
-39.63571
-40.22013
-40.7273
-41.17305
-41.60994
-42.05649
-42.34417
-42.34764
-42.20422
-42.02264
-41.22006
-39.07666
-35.76568
-32.45584
-33.22333
-39.11237
-40.75728
-41.32448
-46.22309
-48.45228
-49.56117
-49.80224
-47.63995
-43.31562
-37.04999
-30.37624
-24.72443
-20.19328
-16.37277
-17.90887
-20.31412
-23.14242
-24.44933
-23.89348
-22.74077
-21.37715
-20.2072
-21.08787
-24.65358
-25.36668
-25.5954
-25.8002
-25.79723
-26.23138
-26.28866
-25.26746
-23.30644
-21.32936
-19.80255
-19.78925
-21.24195
-22.67416
-23.22617
-23.64943
-24.2824
-24.99918
-25.18051
-24.48958
-24.04449
-24.14543
-24.41479
-24.50165
-24.3557
-23.73234
-26.52941
-26.19821
-36.03401
-17.28568
-14.13806
-9.247455
-6.201892
-3.514281
-1.220252
0.8086316
2.692687
4.360281
5.902509
7.340959
8.671848
9.947208
11.17331
12.33668
13.43364
14.46469
15.47734
16.45525
17.39958
18.31229
19.1948
20.02893
20.86299
21.6854
22.49837
23.2847
24.03266
24.76117
25.48557
26.20904
26.92953
27.61873
28.28424
28.95888
29.62135
30.28759
30.94585
31.60324
32.25231
32.90678
33.53943
34.17217
34.79587
35.42106
36.0397
36.65017
37.26483
37.89749
38.53161
39.15107
39.76428
40.37813
41.01699
41.67359
42.31872
42.96566
43.63061
44.29898
44.97949
45.66581
46.35429
47.07575
47.88258
48.71263
49.50638
50.30023
51.12804
52.19171
53.52597
54.19151
52.59762
51.38977
50.11345
48.8898
47.79085
46.78975
45.78195
44.80433
43.93392
43.13315
42.28733
41.42201
40.5706
39.76955
38.99444
38.22426
37.44263
36.66019
35.91033
35.16861
34.41332
33.66292
32.92598
32.17267
31.43978
30.69073
29.90899
29.15046
28.40968
27.66746
26.90319
26.11473
25.34905
24.57172
23.76275
22.96334
22.16437
21.33246
20.49898
19.66954
18.82731
17.93816
17.01395
16.10174
15.20372
14.26703
13.2969
12.30826
11.27556
10.2131
9.128756
8.015066
6.90685
5.713498
4.462016
3.182763
1.827806
0.4422256
-1.054035
-2.645977
-4.306665
-6.060273
-7.996793
-10.10335
-12.44717
-15.00066
-17.87851
-21.32359
-25.21856
-31.33782
-35.57338
52.56687
51.49015
50.24902
49.02809
47.92618
46.92778
45.91007
44.9247
44.05291
43.25135
42.39665
41.5303
40.67192
39.86479
39.08391
38.31176
37.52563
36.73484
35.98272
35.23689
34.47626
33.72352
32.98569
32.22518
31.49503
30.74387
29.9537
29.19605
28.453
27.70894
26.93838
26.15557
25.38418
24.60626
23.79212
22.99237
22.19096
21.35042
20.51599
19.68794
18.84928
17.95382
17.02086
16.10876
15.21657
14.27399
13.30158
12.31509
11.27674
10.21064
9.121578
8.0043
6.906657
5.703218
4.447607
3.166867
1.802014
0.424291
-1.085771
-2.685373
-4.348681
-6.100446
-8.049081
-10.1751
-12.52037
-15.08909
-17.98748
-21.44187
-25.38151
-31.32172
-35.74508
-17.55637
-14.13615
-9.381154
-6.286276
-3.607121
-1.292779
0.7476501
2.637963
4.321195
5.861316
7.309672
8.64326
9.918709
11.15146
12.32134
13.42482
14.44956
15.46521
16.44667
17.39512
18.30919
19.19718
20.02752
20.86379
21.68681
22.50434
23.29599
24.04189
24.77061
25.49813
26.22267
26.94501
27.63703
28.29961
28.97808
29.64019
30.31031
30.96917
31.62929
32.2889
32.93811
33.57095
34.20683
34.83262
35.46055
36.08134
36.69227
37.30908
37.94708
38.58589
39.20514
39.82085
40.43593
41.07753
41.74067
42.3881
43.038
43.70789
44.37735
45.06008
45.75125
46.44584
47.16721
47.98021
48.8158
49.59984
50.40047
51.24681
52.30857
53.53127
53.91191
-40.8373
-45.46806
-48.48348
-50.05307
-50.37654
-48.40046
-44.17195
-37.96149
-31.16927
-25.37087
-20.81685
-16.90494
-18.13418
-20.34029
-23.30629
-24.74531
-24.34415
-23.10292
-21.49152
-20.10482
-20.83534
-24.90588
-25.72035
-25.59782
-25.68021
-25.76709
-26.32031
-26.43458
-25.42705
-23.4142
-21.46026
-19.92881
-19.91149
-21.31302
-22.74207
-23.26866
-23.74249
-24.3855
-25.08207
-25.23319
-24.53363
-24.08496
-24.18589
-24.45656
-24.5299
-24.30207
-23.85305
-26.64951
-26.7302
-33.46054
-53.01603
-60.12653
-62.82611
-64.31133
-65.04919
-65.60562
-65.98077
-66.18449
-66.23165
-66.12127
-65.80429
-65.22605
-64.50482
-63.66175
-62.60938
-61.42112
-60.1333
-58.71606
-57.16275
-55.52444
-53.77733
-51.93096
-50.02642
-48.09646
-46.12664
-44.12151
-42.05977
-39.95808
-37.90028
-35.85886
-33.81019
-31.81921
-29.84199
-27.8704
-25.92079
-24.00959
-22.20691
-20.44483
-18.7509
-17.21877
-15.63908
-14.18881
-12.92525
-11.74178
-10.68168
-9.709526
-8.845198
-8.182026
-7.575163
-7.063393
-6.712403
-6.530776
-6.498615
-6.63088
-6.883511
-7.300685
-7.848262
-8.534942
-9.30923
-10.19583
-11.17282
-12.30254
-13.44616
-14.70953
-16.0275
-17.337
-18.74752
-20.27738
-21.69845
-23.13793
-24.61063
-26.02993
-27.46217
-28.90687
-30.32224
-31.60207
-32.85514
-34.09138
-35.29797
-36.35276
-37.35615
-38.27591
-39.08272
-39.75888
-40.34289
-40.84207
-41.28704
-41.71319
-42.13403
-42.38609
-42.3779
-42.20199
-41.89058
-40.95358
-38.83347
-35.84287
-33.18846
-34.26416
-39.73106
-40.74916
-54.57676
-44.51643
-47.55942
-51.06203
-46.97447
-43.17945
-42.94572
-42.57843
-42.5842
-42.58351
-42.52228
-42.4096
-42.37022
-42.45119
-42.36512
-42.49214
-42.54778
-42.6498
-42.95362
-43.46664
-44.11444
-44.75758
-45.26145
-45.73068
-45.99766
-46.14097
-45.97132
-45.93007
-46.41701
-45.98366
-45.30197
-44.81701
-44.28314
-43.73235
-43.12331
-42.73988
-43.24851
-44.62384
-47.03761
-51.01849
-57.2704
-63.8379
-68.73604
-71.38428
-71.66748
-70.09153
-67.75808
-63.61184
-53.69896
-52.30443
-51.39228
-44.76061
-47.71661
-51.64143
-47.72315
-43.19766
-42.91862
-42.62046
-42.58068
-42.57855
-42.52748
-42.41854
-42.36955
-42.46225
-42.37778
-42.49548
-42.54325
-42.63754
-42.94804
-43.47413
-44.13497
-44.784
-45.2795
-45.77265
-46.02388
-46.17869
-46.02321
-46.03124
-46.47347
-45.95654
-45.32666
-44.80836
-44.25401
-43.70527
-43.0808
-42.70827
-43.3852
-44.88963
-47.42343
-51.65507
-58.2557
-64.87454
-69.54552
-72.02085
-72.19339
-70.48393
-67.47815
-62.33472
-52.89918
-51.57228
-53.21251
-59.63687
-62.4643
-64.18106
-65.04579
-65.63332
-66.02781
-66.24214
-66.28832
-66.18233
-65.83071
-65.28378
-64.58241
-63.77738
-62.73533
-61.55666
-60.28696
-58.87948
-57.32088
-55.68704
-53.94745
-52.09558
-50.18173
-48.25482
-46.28435
-44.27832
-42.21621
-40.08991
-38.02402
-35.99012
-33.93786
-31.94424
-29.94673
-27.96739
-26.01972
-24.09154
-22.28413
-20.5157
-18.8171
-17.27634
-15.68339
-14.22975
-12.95432
-11.77127
-10.71362
-9.741089
-8.876445
-8.193601
-7.584575
-7.069905
-6.723997
-6.545652
-6.516132
-6.654355
-6.903873
-7.332266
-7.876945
-8.578885
-9.350015
-10.23895
-11.20963
-12.36974
-13.49322
-14.77096
-16.10804
-17.40858
-18.81369
-20.37491
-21.77629
-23.22332
-24.71591
-26.12115
-27.55298
-29.00947
-30.44245
-31.70075
-32.95123
-34.19137
-35.41623
-36.44206
-37.45417
-38.37435
-39.17543
-39.82557
-40.40918
-40.9626
-41.40589
-41.82235
-42.22096
-42.43159
-42.40348
-42.18466
-41.75446
-40.70725
-38.64711
-36.06503
-34.17163
-35.49031
-40.28277
-40.74773
-40.58027
-44.66467
-48.46562
-50.6009
-51.07296
-49.24573
-45.24949
-39.16308
-32.26791
-26.28512
-21.71757
-17.88428
-18.63138
-20.51024
-23.64838
-25.19879
-24.975
-23.66793
-21.82927
-20.1218
-20.65493
-25.30088
-26.1158
-25.64821
-25.54028
-25.71712
-26.44482
-26.65402
-25.66297
-23.5832
-21.69329
-20.15614
-20.12325
-21.42363
-22.82866
-23.32712
-23.88415
-24.54011
-25.19511
-25.29403
-24.58657
-24.15239
-24.25293
-24.52168
-24.58583
-24.11503
-23.83187
-26.72829
-26.91154
-31.10694
-17.82998
-14.07182
-9.493438
-6.357742
-3.714306
-1.36529
0.6916464
2.584041
4.272649
5.812517
7.282791
8.611696
9.883421
11.13084
12.30485
13.40749
14.42312
15.45175
16.43906
17.39365
18.30375
19.19453
20.02273
20.85992
21.68354
22.512
23.30026
24.04224
24.77699
25.50455
26.22102
26.94556
27.65076
28.30653
28.98921
29.64931
30.32581
30.98676
31.64779
32.30129
32.95077
33.58708
34.22909
34.85587
35.48281
36.10281
36.71914
37.33903
37.97617
38.61348
39.23384
39.85559
40.47156
41.1147
41.7843
42.43789
43.08549
43.75698
44.43129
45.12169
45.81858
46.52096
47.23809
48.06448
48.92113
49.69721
50.51005
51.3603
52.37868
53.44181
53.55758
52.46603
51.54853
50.38634
49.18312
48.06767
47.06225
46.01568
45.01197
44.13842
43.34225
42.46501
41.59584
40.73205
39.92893
39.13889
38.36309
37.57647
36.78347
36.03581
35.28411
34.51623
33.76282
33.02495
32.25443
31.53132
30.77101
29.97285
29.21873
28.47713
27.73739
26.95768
26.16114
25.3965
24.61791
23.79913
23.00992
22.21342
21.36358
20.52684
19.69302
18.8602
17.96682
17.02592
16.10455
15.22088
14.2765
13.29768
12.31398
11.27488
10.20895
9.112987
7.980009
6.896518
5.681372
4.433442
3.150816
1.765505
0.4067812
-1.122362
-2.721755
-4.397325
-6.147361
-8.103656
-10.24461
-12.59172
-15.17611
-18.09665
-21.55152
-25.51316
-31.21392
-35.86768
52.27492
51.52211
50.50166
49.37393
48.28925
47.31548
46.21526
45.16629
44.30894
43.55044
42.66691
41.76266
40.85379
40.05909
39.28737
38.49325
37.6718
36.86075
36.13668
35.38381
34.59877
33.85016
33.11825
32.31771
31.64787
30.85451
30.02818
29.28732
28.51928
27.80326
27.01337
26.24395
25.48262
24.6761
23.8119
23.02673
22.2374
21.39116
20.57301
19.73104
18.86271
17.97008
17.06059
16.13077
15.22368
14.2936
13.31445
12.29932
11.26224
10.20956
9.136795
7.989666
6.891775
5.629215
4.407503
3.149367
1.709687
0.3839489
-1.197637
-2.753409
-4.434992
-6.244629
-8.209138
-10.35825
-12.70554
-15.30988
-18.27022
-21.73265
-25.72
-31.07674
-35.94358
-18.05732
-14.04961
-9.685449
-6.487566
-3.893175
-1.432698
0.609453
2.483459
4.179958
5.769932
7.263272
8.553962
9.838858
11.1134
12.26488
13.36804
14.41502
15.46258
16.4344
17.3892
18.27743
19.17966
20.0342
20.84435
21.69151
22.52543
23.282
24.06131
24.80209
25.50735
26.21662
26.98261
27.71209
28.32431
29.01946
29.67577
30.36619
31.02403
31.67887
32.3283
33.00153
33.64774
34.28533
34.90841
35.52591
36.16701
36.79617
37.39714
38.021
38.69031
39.33283
39.94574
40.55977
41.19085
41.88545
42.55431
43.167
43.87091
44.56773
45.2447
45.93879
46.64699
47.35587
48.21873
49.11547
49.83768
50.63132
51.43851
52.38089
53.28306
53.16005
-40.24158
-43.97738
-48.35778
-51.18231
-52.00813
-50.35845
-46.6637
-40.89536
-33.75222
-27.49764
-22.86397
-19.08734
-19.33205
-20.95201
-24.30379
-25.90656
-25.87548
-24.57895
-22.58155
-20.49088
-20.7213
-26.00524
-27.03681
-25.7453
-25.40082
-25.66125
-26.63802
-26.97164
-26.03754
-23.93178
-22.00606
-20.44075
-20.46031
-21.60003
-22.92703
-23.38599
-24.08398
-24.74919
-25.32855
-25.35224
-24.65436
-24.25228
-24.33414
-24.62346
-24.62513
-24.12829
-23.42341
-26.2905
-26.51247
-28.94853
-53.93491
-59.33632
-62.12539
-64.00707
-65.02582
-65.67582
-66.11258
-66.35206
-66.3946
-66.36059
-66.07941
-65.50578
-64.7785
-63.9911
-62.98375
-61.82547
-60.51833
-59.12026
-57.56461
-55.95324
-54.22126
-52.36786
-50.45072
-48.53459
-46.54531
-44.52978
-42.46424
-40.31975
-38.26432
-36.23656
-34.17283
-32.10824
-30.07739
-28.12797
-26.18611
-24.25453
-22.40689
-20.66453
-18.93233
-17.30883
-15.78672
-14.33207
-12.99149
-11.81707
-10.76219
-9.788038
-8.956106
-8.206614
-7.596746
-7.082989
-6.73977
-6.578774
-6.54527
-6.70052
-6.929239
-7.381095
-7.91866
-8.643412
-9.427509
-10.31519
-11.25751
-12.45628
-13.56956
-14.83029
-16.18877
-17.54892
-18.9531
-20.50757
-21.91394
-23.34883
-24.85833
-26.28786
-27.7158
-29.15273
-30.59629
-31.86689
-33.13422
-34.34454
-35.59017
-36.60219
-37.61799
-38.52414
-39.33323
-39.99547
-40.59412
-41.15694
-41.57025
-41.97411
-42.35078
-42.50844
-42.44292
-42.15728
-41.59627
-40.44598
-38.50277
-36.40476
-35.26843
-36.82691
-40.68427
-40.72643
-48.53977
-44.5155
-48.34768
-52.56438
-49.05225
-42.96422
-42.79132
-42.64618
-42.56963
-42.56168
-42.54099
-42.43941
-42.37817
-42.4771
-42.39361
-42.49497
-42.53672
-42.62019
-42.93195
-43.48293
-44.16291
-44.79076
-45.29063
-45.83274
-46.0699
-46.23406
-46.10736
-46.12851
-46.53614
-45.90975
-45.35448
-44.79253
-44.21845
-43.63791
-43.05641
-42.72412
-43.56791
-45.32024
-47.94239
-52.63145
-59.71431
-66.33472
-70.81091
-72.97123
-72.8556
-70.8594
-67.05037
-61.15727
-52.63206
-51.74614
-0.02565375
-0.0058131
-5.512399
2.528486
0.8987514
-0.2304143
0.0404911
1.958231
-0.07769176
0.09343787
1.785401
1.038008
-0.01146418
17.00245
0.08347566
3.023145
7.7613
-18.46406
2.964015
14.12539
-0.8428536
3.017261
0.05347033
2.653044
-0.06339677
3.16353
2.588007
-0.09912731
1.81562
-0.449875
3.124296
-0.8048688
-96.64732
-0.09325067
4.011484
0.1270589
0.06535054
5.408216
0.01363674
3.642274
5.85297
-0.005812504
1.307743
0.8594949
0.4378243
8.529854
-0.01157434
-0.001181239
-0.001067023
6.502456
-4.173526
-0.0125627
-1.475618
-0.02397642
3.665823
0.07849269
-3.501501
0.8860518
-10.89135
-0.001767158
0.211062
2.768376
-0.1558194
0.8447913
6.924893
0.04467302
-0.1311891
2.851873
15.74146
-1.261437
1.453549
0.05853675
4.484336
-0.07208647
1.995291
2.440111
1.335619
0.8675493
-0.006417288
3.363316
0.5078894
0.8095142
0.4375227
-0.1530885
0.3257786
0.07446393
7.770649
0.05463049
-0.4823563
-1.270358
5.142095
5.884645
3.368383
0.191887
0.6168844
-2.239127
3.516236
3.171608
-135.8302
0.6057523
-0.2041427
18.65211
10.82993
0.3588153
-4.088569
2.360531
0.1009126
3.803808
-0.07795875
2.134941
0.07017018
-117.1256
0.04448567
-1.309237
-3.860348
0.02190905
-0.1876594
-8.556368
-7.149831
-0.9268752
-0.7035845
-1.534356
-0.4268402
0.1085947
1.695722
-0.2483027
-0.00294959
0.1281932
1.409772
0.05867889
12.0623
6.573513
2.460306
-0.4366383
0.08614173
-0.02106285
-4.229633
-155.1009
-18.40138
5.423494
2.538919
6.784612
2.686413
-5.826351
-0.08294813
0.4373564
4.009442
-0.7609455
0.02377884
3.278324
1.806273
0.1944276
-0.4657079
2.106191
13.50577
1.672299
0.05735223
-0.7750651
0.005721697
-0.5223091
1.365771
2.201359
-3.110003
0.02699772
6.208228
-0.06375657
-0.2354991
4.805446
-0.3376827
6.589086e-05
0.1975788
0.4336083
0.04409471
-5.95739
-0.5407139
0.003582038
-0.611475
-0.2083296
-0.1891541
3.299631
-0.1327997
3.218024
-10.66344
-1.265641
-0.8607913
-5.116024
4.077727
3.672842
5.990292
-0.1577196
-4.606001
0.07478943
1.325268
0.08653232
14.51622
-0.7124441
-0.8968501
0.734451
-13.09543
-0.7224134
5.200728
-0.7188479
-0.761325
10.3688
-0.7020491
-1.532447
0.0257893
-6.691668
-10.19801
-0.08734797
0.03532643
1.747718
0.04470433
3.579003
0.03049202
0.04374571
-1.458863
-0.3094444
0.6449073
1.708451
-8.064197
-5.910685
1.793108
0.1900263
23.40413
2.985241
1.836035
0.08466956
-4.259902
-13.4319
0.05487579
-0.01048792
-11.82021
3.666872
2.265116
4.245243
1.226556
2.722228
-1.112966
0.1152587
-3.926291
0.3947762
0.04654399
-0.1534281
0.2629876
1.477149
-1.721661
-2.412436
0.2235321
2.697324
2.691951
-112.7922
7.132437
-1.127922
0.03989021
20.79756
-0.4615828
0.5046937
-0.9730578
-1.636086
1.040317
0.5735519
-0.5115891
0.9166602
4.245296
0.6973828
0.1516965
1.102225
2.015634
0.3240673
-1.113933
0.07309129
-0.3293367
0.04591111
6.244813
5.539245
3.601552
0.1346003
3.709285
0.117622
-1.272067
-47.68002
2.317743
-0.4909422
6.39267
0.04125365
-3.638065
4.413583
5.109968
0.6010868
1.806407
0.05094655
-69.61045
3.285472
5.058127
4.276365