/*--------------------------------*- C++ -*----------------------------------*\
| =========                 |                                                 |
| \\      /  F ield         | OpenFOAM: The Open Source CFD Toolbox           |
|  \\    /   O peration     | Version:  2406                                  |
|   \\  /    A nd           | Website:  www.openfoam.com                      |
|    \\/     M anipulation  |                                                 |
\*---------------------------------------------------------------------------*/
FoamFile
{
    version     2.0;
    format      ascii;
    arch        "LSB;label=32;scalar=64";
    class       surfaceScalarField;
    location    "0.82";
    object      phi;
}
// * * * * * * * * * * * * * * * * * * * * * * * * * * * * * * * * * * * * * //

dimensions      [0 3 -1 0 0 0 0];

oriented        oriented;

internalField   nonuniform List<scalar> 
326221
(
-0.001936038
-0.004153049
0.006089087
-0.0008486465
-0.001087392
0.0001273507
-0.0009759973
-0.001144249
0.0012716
-0.0009449263
-0.0001993225
-0.0003103164
-0.00063461
-0.0002149239
-9.539247e-05
-5.220607e-05
-0.0001627178
5.333732e-05
-0.0001055434
4.971639e-05
3.620927e-06
3.799283e-05
1.172356e-05
7.534694e-05
-3.735411e-05
0.0001435638
-6.821689e-05
0.00018288
-3.931618e-05
0.000273551
-9.067096e-05
0.0002996437
-2.60927e-05
0.0003249516
-2.530796e-05
0.0003906722
-6.572057e-05
0.0004874833
-9.681104e-05
0.0005891066
-0.0001016234
0.000659061
-6.995436e-05
0.0006657863
-6.725316e-06
0.0006417924
2.399385e-05
0.0005645506
7.724179e-05
0.0004288616
0.000135689
0.0003066157
0.0001222459
0.0003004529
6.162801e-06
0.0001391106
0.0001613423
-0.0001986872
0.0003377978
-0.000208199
9.511806e-06
-5.129105e-05
-0.000156908
2.960263e-05
-8.089368e-05
0.0001011041
-7.150146e-05
0.0001958238
-9.471972e-05
0.0003547567
-0.0001589329
0.0006182387
-0.000263482
0.0009337491
-0.0003155103
0.001286868
-0.0003531187
0.001703288
-0.0004164201
0.002213686
-0.0005103983
0.002659491
-0.0004458045
0.002926586
-0.0002670952
0.002956645
-3.00596e-05
0.002626026
0.0003306193
0.001660475
0.0009655512
0.0002002041
0.001460271
-0.0008138637
0.001014068
-0.001181774
0.0003679101
-0.0001483433
-0.00103343
-0.0004102237
0.0002618804
0.0003333161
-0.0007435398
0.0006140518
-0.0002807358
0.0003186933
0.0002953586
-0.0002235436
0.0005422369
-0.0006447824
0.0004212388
-0.001077746
0.0004329635
-0.001478594
0.000400848
-0.001829322
0.0003507284
-0.002118035
0.0002887128
-0.002342296
0.0002242614
-0.002504341
0.0001620441
-0.002619182
0.0001148413
-0.002705015
8.583358e-05
-0.002765148
6.013233e-05
-0.002798563
3.341511e-05
-0.00281401
1.544713e-05
-0.002815627
1.616451e-06
-0.002803475
-1.215174e-05
-0.002779861
-2.361355e-05
-0.002747874
-3.198682e-05
-0.002705742
-4.213273e-05
-0.002654555
-5.11868e-05
-0.002597347
-5.720769e-05
-0.002535501
-6.184572e-05
-0.002467821
-6.768013e-05
-0.002394504
-7.331736e-05
-0.002313192
-8.131182e-05
-0.002225956
-8.723657e-05
-0.002139023
-8.693211e-05
-0.002049154
-8.986958e-05
-0.001953983
-9.517068e-05
-0.00185694
-9.70437e-05
-0.001753888
-0.0001030513
-0.001615688
-0.0001382001
-0.00151419
-0.0001014978
-0.001408065
-0.000106125
-0.001305936
-0.0001021296
-0.001199058
-0.0001068775
-0.001090452
-0.000108606
-0.0009911592
-9.929309e-05
-0.0008716594
-0.0001194999
-0.0007529216
-0.0001187377
-0.0006502808
-0.0001026409
-0.0005455971
-0.0001046837
-0.0004373951
-0.000108202
-0.0003173473
-0.0001200478
-0.0001808771
-0.0001364702
-8.804261e-05
-9.283448e-05
7.038678e-06
-9.508128e-05
0.0001176345
-0.0001105959
0.0002427605
-0.000125126
0.0003677063
-0.0001249458
0.0005012345
-0.0001335281
0.0006302016
-0.0001289671
0.0007647548
-0.0001345532
0.0008971042
-0.0001323494
0.001027989
-0.0001308853
0.001150358
-0.0001223684
0.001268074
-0.0001177164
0.001379525
-0.0001114507
0.001492904
-0.0001133788
0.001594033
-0.000101129
0.001692657
-9.862419e-05
0.001785627
-9.296961e-05
0.001866136
-8.050987e-05
0.001945404
-7.926787e-05
0.002077936
-0.0001325317
0.002156379
-7.844316e-05
0.002225714
-6.933478e-05
0.002290095
-6.438118e-05
0.002343685
-5.358959e-05
0.00239194
-4.825478e-05
0.002437047
-4.510735e-05
0.002476079
-3.903229e-05
0.00250116
-2.508097e-05
0.00251924
-1.808026e-05
0.00253298
-1.373924e-05
0.002540288
-7.308381e-06
0.002530237
1.0051e-05
0.002507193
2.304436e-05
0.0024696
3.759254e-05
0.002410046
5.95539e-05
0.002319753
9.029338e-05
0.002187832
0.000131921
0.001995867
0.0001919651
0.0017107
0.0002851664
0.001320553
0.0003901475
0.0008692004
0.0004513526
0.0004580304
0.00041117
0.0001741514
0.000283879
5.340283e-06
0.0001688111
-0.0001410906
0.0001464309
-0.0002919722
0.0001508817
-0.0003919281
9.99559e-05
-0.0002616748
-0.0001302534
0.0001466102
-0.000408285
0.0006078172
-0.000461207
0.0005576473
5.016986e-05
-0.0002564785
0.0008141258
-0.0001423015
-0.000114177
0.0006388657
-0.0007811672
0.0005120634
0.0001268024
-0.0005331543
0.001045218
-0.001779974
0.00124682
-0.002527014
0.0007470404
-0.002610157
8.31428e-05
-0.00238551
-0.0002246466
-0.002005803
-0.0003797072
-0.001545475
-0.0004603283
-0.001066439
-0.0004790357
-0.000460351
-0.0006060882
0.0005215173
-0.0009818683
0.001127671
-0.0006061542
0.001559718
-0.0004320467
0.001512277
4.74414e-05
0.0008150056
0.0006972712
-7.136953e-05
0.0008863751
-0.0004265479
0.0003551784
-4.736556e-05
-0.0003791823
0.0004371208
-0.0004844864
0.0004149475
2.217327e-05
-0.0001080656
0.0005230131
-0.0001407282
3.266262e-05
0.0001259234
-0.0002666516
0.0001232004
2.723083e-06
-0.0001360231
0.0002592234
-0.0006036404
0.0004676173
-0.000989536
0.0003858956
-0.001056833
6.729739e-05
-0.0008525429
-0.0002042905
-0.0005127872
-0.0003397556
-1.017709e-05
-0.0005026101
0.0004724112
-0.0004825882
0.000600673
-0.0001282619
0.0005046275
9.604554e-05
0.0004235392
8.10883e-05
0.0002746779
0.0001488613
3.931514e-05
0.0002353628
-0.0001831806
0.0002224958
-0.0003020227
0.000118842
-9.99377e-05
-0.000202085
0.0001647058
-0.0002646435
0.0002573491
-9.26433e-05
0.0001913421
6.600706e-05
1.456401e-06
0.0001898857
0.0001849026
-0.0001834462
0.0001952241
-1.032145e-05
0.001096886
-0.0009016623
0.001778547
-0.0006816605
-0.003652726
0.005431273
-0.003829761
0.0001770349
-0.003418597
-0.0004111639
-0.003233627
-0.0001849701
-0.003057126
-0.0001765011
-0.002921469
-0.0001356568
-0.002796649
-0.0001248196
-0.00268758
-0.0001090692
-0.002519372
-0.0001682081
-0.002443086
-7.628576e-05
-0.002382884
-6.020196e-05
-0.002327157
-5.572685e-05
-0.002278395
-4.876216e-05
-0.00223039
-4.800501e-05
-0.002184238
-4.615261e-05
-0.00213977
-4.446717e-05
-0.002100687
-3.908294e-05
-0.002064678
-3.600924e-05
-0.002029528
-3.51507e-05
-0.001994201
-3.532672e-05
-0.001961529
-3.267223e-05
-0.001929699
-3.182998e-05
-0.001900136
-2.956274e-05
-0.001874259
-2.58767e-05
-0.001846852
-2.740697e-05
-0.001818782
-2.807055e-05
-0.001789361
-2.942025e-05
-0.001762379
-2.698235e-05
-0.001738383
-2.399616e-05
-0.001716993
-2.139028e-05
-0.001693859
-2.313313e-05
-0.001670487
-2.337245e-05
-0.001644502
-2.598503e-05
-0.00162212
-2.238215e-05
-0.001601816
-2.03034e-05
-0.001579601
-2.221531e-05
-0.001556372
-2.32287e-05
-0.001531669
-2.470388e-05
-0.001509545
-2.212361e-05
-0.001489023
-2.05217e-05
-0.00152125
3.222699e-05
-0.001513994
-7.256648e-06
-0.001500878
-1.311535e-05
-0.001487156
-1.372258e-05
-0.001475621
-1.153511e-05
-0.001463399
-1.222171e-05
-0.001452862
-1.053653e-05
-0.001443443
-9.41888e-06
-0.001434583
-8.860345e-06
-0.001422738
-1.184495e-05
-0.001410618
-1.212056e-05
-0.001401427
-9.190611e-06
-0.001394638
-6.789009e-06
-0.001390285
-4.353177e-06
-0.001382715
-7.569359e-06
-0.001372393
-1.03222e-05
-0.001363881
-8.512635e-06
-0.001358146
-5.734287e-06
-0.001350579
-7.566918e-06
-0.001344987
-5.59221e-06
-0.001338315
-6.671956e-06
-0.001330572
-7.743447e-06
-0.001323262
-7.310133e-06
-0.001314007
-9.254987e-06
-0.001288118
-2.588888e-05
-0.001250866
-3.725161e-05
-0.001210755
-4.011077e-05
-0.001151122
-5.963306e-05
-0.001062501
-8.862164e-05
-0.0008897952
-0.0001727054
-0.0005798478
-0.0003099474
0.0002407711
-0.000820619
0.0008670453
-0.0006262742
0.001109706
-0.000242661
0.00126676
-0.0001570541
0.001336955
-7.019438e-05
0.001378744
-4.178934e-05
0.001416287
-3.754327e-05
0.001438451
-2.216364e-05
0.001439775
-1.324398e-06
0.001438027
1.748373e-06
0.001449157
-1.113011e-05
0.001461549
-1.239232e-05
0.001471303
-9.753793e-06
0.001475367
-4.063228e-06
0.001479556
-4.189517e-06
0.001484739
-5.182944e-06
0.001493854
-9.115107e-06
0.001502525
-8.671293e-06
0.001508123
-5.597148e-06
0.001514488
-6.365812e-06
0.001524331
-9.842352e-06
0.001533111
-8.780139e-06
0.001541337
-8.225975e-06
0.001552703
-1.136655e-05
0.00156167
-8.966585e-06
0.001575042
-1.337195e-05
0.001591851
-1.680916e-05
0.001604624
-1.277244e-05
0.001613919
-9.295844e-06
0.001625066
-1.114692e-05
0.001638613
-1.354684e-05
0.001645425
-6.811962e-06
0.001607982
3.74429e-05
0.001627981
-1.999877e-05
0.001654069
-2.608803e-05
0.001680332
-2.626348e-05
0.001706477
-2.614429e-05
0.001734516
-2.80392e-05
0.001760377
-2.586074e-05
0.001783086
-2.270949e-05
0.001807725
-2.463903e-05
0.001836041
-2.83163e-05
0.00186745
-3.140887e-05
0.001893441
-2.599081e-05
0.001917238
-2.379695e-05
0.001943185
-2.594662e-05
0.00197181
-2.862536e-05
0.002000652
-2.884221e-05
0.002033488
-3.283617e-05
0.002067594
-3.410509e-05
0.002101365
-3.377147e-05
0.002135692
-3.432688e-05
0.002166563
-3.08712e-05
0.002204832
-3.826913e-05
0.002245
-4.016772e-05
0.002286641
-4.16412e-05
0.002331132
-4.449062e-05
0.002376837
-4.570479e-05
0.002427893
-5.105634e-05
0.002484399
-5.650635e-05
0.002541251
-5.685201e-05
0.002602792
-6.154025e-05
0.00267396
-7.116865e-05
0.002762099
-8.813834e-05
0.002946654
-0.0001845557
0.003071281
-0.0001246273
0.003212662
-0.0001413801
0.003370614
-0.0001579529
0.003573437
-0.0002028224
0.003778178
-0.0002047412
0.004277932
-0.0004997534
0.0001248826
0.001103773
-0.0002728867
-0.001457161
0.001520284
-0.0006591712
0.001799067
-0.0004358372
0.001997008
-0.0002681355
0.002150986
-0.0001957674
0.002289735
-0.0001762927
0.002408211
-0.0001406396
0.002502665
-9.577854e-05
0.002584493
-8.007939e-05
0.002668216
-9.485276e-05
0.002746736
-9.091214e-05
0.002820251
-8.326923e-05
0.002885471
-6.928283e-05
0.00294759
-6.630863e-05
0.003005537
-6.313025e-05
0.0030638
-6.737828e-05
0.003119057
-6.392835e-05
0.003170734
-5.727411e-05
0.003220153
-5.578431e-05
0.003270394
-6.008342e-05
0.003318442
-5.682783e-05
0.003364491
-5.427527e-05
0.003411981
-5.885625e-05
0.003456065
-5.305123e-05
0.003502445
-5.975218e-05
0.003549878
-6.424167e-05
0.003595488
-5.838231e-05
0.003637223
-5.103143e-05
0.003680387
-5.431071e-05
0.003723795
-5.695478e-05
0.003763841
-4.685786e-05
0.003721268
8.001632e-05
0.003772803
-7.15341e-05
0.003827648
-8.093303e-05
0.003882771
-8.138664e-05
0.003937819
-8.119243e-05
0.003993586
-8.380622e-05
0.004048622
-8.089623e-05
0.004100477
-7.456444e-05
0.004154188
-7.834991e-05
0.004208491
-8.261966e-05
0.004266488
-8.940576e-05
0.004319714
-7.92169e-05
0.004372652
-7.673534e-05
0.004425657
-7.89509e-05
0.00448098
-8.394924e-05
0.004535679
-8.354106e-05
0.004593507
-9.066412e-05
0.004652539
-9.313685e-05
0.004711326
-9.255853e-05
0.004771679
-9.46797e-05
0.004828625
-8.781752e-05
0.004891887
-0.000101531
0.004954943
-0.0001032236
0.00502097
-0.0001076682
0.0050877
-0.0001112209
0.005156971
-0.0001149759
0.005229041
-0.0001231263
0.005306435
-0.0001339005
0.005383727
-0.0001341434
0.005465764
-0.0001435777
0.005554904
-0.0001603087
0.005657891
-0.0001911247
0.005915858
-0.0004425227
0.006057356
-0.0002661251
0.006219389
-0.0003034139
0.006393758
-0.0003323211
0.006623222
-0.0004322866
0.0068149
-0.0003964197
0.007380547
-0.0010654
0.006549686
0.0009557436
-0.006843878
0.00590034
0.001120573
-0.006356125
-0.0008989169
-0.006189543
-0.0003515524
-0.005986767
-0.0003792769
-0.005833864
-0.0002885593
-0.005687986
-0.0002706973
-0.005561098
-0.0002359581
-0.005321416
-0.0004078893
-0.005229934
-0.0001677678
-0.005151629
-0.0001385077
-0.005076369
-0.0001309863
-0.005007235
-0.0001178959
-0.004938131
-0.0001171094
-0.004871911
-0.000112373
-0.00480597
-0.000110408
-0.00474536
-9.969229e-05
-0.004685363
-9.600643e-05
-0.004627777
-9.273668e-05
-0.00456893
-9.41739e-05
-0.004513279
-8.832309e-05
-0.004457371
-8.773775e-05
-0.004403687
-8.324744e-05
-0.004352111
-7.745237e-05
-0.004299672
-7.984597e-05
-0.004247504
-8.023859e-05
-0.004194164
-8.275998e-05
-0.004143298
-7.7849e-05
-0.004093119
-7.417486e-05
-0.004045425
-6.908464e-05
-0.003994908
-7.364939e-05
-0.003945715
-7.256593e-05
-0.003893405
-7.829479e-05
-0.003844217
-7.15706e-05
-0.003794876
-6.964418e-05
-0.003744453
-7.263833e-05
-0.00369275
-7.493199e-05
-0.003640124
-7.73294e-05
-0.003589303
-7.29447e-05
-0.003539283
-7.05412e-05
-0.003578657
7.160058e-05
-0.003540462
-4.545147e-05
-0.003498874
-5.470313e-05
-0.003455898
-5.66989e-05
-0.003414852
-5.258132e-05
-0.003371436
-5.563775e-05
-0.00332911
-5.286261e-05
-0.003285457
-5.307142e-05
-0.003241563
-5.275485e-05
-0.003194228
-5.917927e-05
-0.003146112
-6.023697e-05
-0.003098254
-5.704884e-05
-0.00304953
-5.5513e-05
-0.003000167
-5.371563e-05
-0.002945813
-6.192354e-05
-0.002888133
-6.800243e-05
-0.002828455
-6.819028e-05
-0.002767847
-6.634214e-05
-0.002701273
-7.414177e-05
-0.002632608
-7.425629e-05
-0.002557297
-8.198314e-05
-0.002475799
-8.92414e-05
-0.002387279
-9.583041e-05
-0.002290277
-0.0001062567
-0.002173156
-0.0001430098
-0.002040655
-0.0001697532
-0.001894215
-0.0001865506
-0.001710973
-0.0002428754
-0.001478969
-0.000320625
-0.00117609
-0.0004755845
-0.000726709
-0.0007593288
-0.001820215
0.0003089504
0.0002395605
-0.001329678
3.719938e-05
0.0003985534
-0.001873203
0.00295562
-0.003287858
0.002661474
-0.003550169
0.001009351
-0.003388149
-7.887743e-05
-0.003069614
-0.0005431808
-0.002575435
-0.0008738867
-0.001984081
-0.001051682
-0.001345086
-0.001118031
-0.0005434238
-0.00140775
0.0006899654
-0.002215258
0.001502138
-0.001418327
0.00212797
-0.001057878
0.002445476
-0.0002700651
0.0021216
0.001021147
0.0008993239
0.002108651
-0.0002378768
0.001492379
-0.0003335494
-0.0002835097
0.0001684622
-0.0009864979
0.0001280392
6.25962e-05
-0.0005106036
0.001161656
-0.000514279
3.633804e-05
-9.971677e-07
-0.0007799334
-7.561853e-05
7.734444e-05
-0.0008075063
0.0009911113
-0.001424325
0.001084436
-0.001649682
0.0006112534
-0.001543689
-3.869587e-05
-0.001208455
-0.0005395242
-0.0007211007
-0.0008271104
-4.090215e-05
-0.001182809
0.0006583757
-0.001181866
0.0009695206
-0.0004394067
0.0009463983
0.0001191678
0.0007833229
0.0002441636
0.000387747
0.0005444373
-5.852275e-05
0.0006816325
-0.0003493435
0.0005133165
-0.0004290983
0.0001985968
-9.44564e-05
-0.0005367269
0.00030819
-0.0006672899
0.0005161256
-0.000300579
0.0004981478
8.398491e-05
0.0003163133
0.0003717201
0.0004042333
-0.0002713662
0.0007972025
-0.0004032907
0.001779411
-0.00188387
0.001004597
9.315326e-05
0.01233621
-0.001614956
0.001075808
-0.0002043915
-0.002113544
0.0002178525
-0.002577073
0.0007588875
-0.003313321
0.001278484
-0.003963644
0.001071562
-0.004450187
0.0009195066
-0.004815825
0.0007664855
-0.005065627
0.0006005308
-0.005224341
0.0004474271
-0.005313388
0.0003133081
-0.005348577
0.000197233
-0.00534617
0.0001124341
-0.005321167
6.083083e-05
-0.005278462
1.742758e-05
-0.005219257
-2.579008e-05
-0.005150584
-5.322576e-05
-0.005073822
-7.514546e-05
-0.004986438
-9.95361e-05
-0.004888437
-0.000121615
-0.004782598
-0.0001378249
-0.004667413
-0.000157318
-0.0045437
-0.0001748998
-0.004413787
-0.0001871213
-0.004278838
-0.0001967939
-0.004137912
-0.0002086062
-0.003991504
-0.0002197252
-0.003837738
-0.0002350786
-0.003678028
-0.0002469463
-0.003517966
-0.0002469942
-0.003354757
-0.000253078
-0.003186239
-0.0002636894
-0.003016053
-0.0002672293
-0.002842628
-0.0002764764
-0.002613731
-0.0003670969
-0.002440898
-0.0002743304
-0.002263956
-0.0002830673
-0.002090897
-0.0002751893
-0.001912915
-0.0002848594
-0.001731877
-0.0002896435
-0.001559838
-0.0002713325
-0.001368362
-0.0003109753
-0.001180023
-0.000307077
-0.001008578
-0.0002740854
-0.0008329621
-0.0002803
-0.0006514138
-0.0002897503
-0.0004542494
-0.0003172123
-0.0002326374
-0.0003580822
-6.38917e-05
-0.0002615802
9.691019e-05
-0.0002558832
0.0002750796
-0.0002887653
0.0004690651
-0.0003191115
0.0006639174
-0.0003197981
0.0008692636
-0.0003388744
0.001072236
-0.0003319393
0.001282662
-0.0003449799
0.001492704
-0.0003423907
0.001703107
-0.0003412884
0.001906485
-0.0003257464
0.00210573
-0.0003169611
0.00229818
-0.0003039009
0.002491628
-0.0003068266
0.002672952
-0.0002824533
0.002851201
-0.0002768736
0.003023241
-0.0002650097
0.003183142
-0.0002404108
0.003339483
-0.0002356089
0.003572935
-0.0003659832
0.003726534
-0.0002320426
0.00387456
-0.0002173606
0.004017586
-0.0002074076
0.004150154
-0.0001861569
0.004276952
-0.0001750534
0.00439921
-0.000167365
0.004514914
-0.0001547365
0.004617987
-0.000128154
0.00471406
-0.0001141533
0.004804253
-0.0001039319
0.004888517
-9.157282e-05
0.004960882
-6.231348e-05
0.005025638
-4.171222e-05
0.005080891
-1.766059e-05
0.005120233
2.021247e-05
0.00513625
7.427614e-05
0.005119975
0.0001481957
0.005053679
0.0002582617
0.00489857
0.0004402749
0.004610362
0.0006783562
0.004170318
0.0008913967
0.003619674
0.0009618138
0.003019598
0.0008839548
0.002373556
0.0008148533
0.001704707
0.00081528
0.001194538
0.0006610507
0.001082566
0.0002119271
0.001212787
-0.0002604741
0.001175037
-0.0003705352
0.0008213313
-0.000107501
-8.010701e-06
0.0008795118
-0.0005187847
0.0013249
-0.0003934012
-0.000904024
0.0135428
-0.001929812
-6.160369e-05
-0.001367498
-0.001538311
-0.001869786
0.001773888
-0.00131157
-0.000757539
-0.0005454793
-0.001400701
-0.0003640001
-0.0002768716
-0.0001090142
-0.0004177037
7.091556e-05
-0.0002854732
9.422428e-05
-1.968779e-05
7.809799e-05
2.784986e-05
0.0001207564
-8.001252e-05
0.0002255612
-0.0001730217
0.0002977709
-0.0001115259
0.0004520558
-0.0002449559
0.0005409503
-0.0001149871
0.0006135815
-9.79392e-05
0.0007081911
-0.0001603301
0.000833346
-0.000221966
0.0009755696
-0.000243847
0.001100518
-0.0001949027
0.001166555
-7.276279e-05
0.001196596
-6.046393e-06
0.001168215
0.0001056226
0.00104021
0.0002636937
0.000815422
0.0003470341
0.0006452151
0.0001763698
0.000171106
0.0006354514
-0.0003124929
0.0008213967
-0.0001882153
-0.0001147658
2.792898e-05
-0.0003730522
0.0001574831
-0.0002104478
0.0002912322
-0.0002052506
0.0004501898
-0.0002536773
0.0006837398
-0.000392483
0.001037732
-0.0006174745
0.001447738
-0.0007255159
0.001900969
-0.0008063503
0.002426197
-0.0009416473
0.00305562
-0.001139822
0.00362194
-0.001012125
0.004006483
-0.0006516386
0.004203652
-0.0002272285
0.004214116
0.0003201554
0.003674939
0.001504728
0.00176256
0.003372651
-0.000590055
0.003366682
-0.0007466523
0.0005245073
0.0006547239
-0.002434807
0.001992412
0.0006536222
-0.008488229
0.0213774
-0.002213296
0.002805314
-0.002214911
-0.001536697
-0.002488441
0.002047419
-0.001695406
-0.001550573
-0.0007441011
-0.002352006
-0.0004755489
-0.0005454238
-0.0001912348
-0.0007020178
2.792639e-05
-0.0005046344
8.142362e-05
-7.318502e-05
6.604291e-05
4.323056e-05
0.0001062236
-0.0001201932
0.0002297599
-0.0002965579
0.0003110707
-0.0001928366
0.0004968577
-0.000430743
0.0006256686
-0.0002437981
0.0007379533
-0.0002102238
0.0008653224
-0.0002876993
0.001014979
-0.0003716229
0.001178768
-0.000407636
0.001329025
-0.0003451593
0.001420465
-0.0001642029
0.001475072
-6.065332e-05
0.001484215
9.647952e-05
0.00142663
0.0003212785
0.001204723
0.0005689417
0.0008783945
0.0005026979
0.0001420723
0.001371774
-0.0002890838
0.001252553
3.301664e-05
-0.0004368663
0.0002500781
-0.0005901137
0.0003637276
-0.0003240972
0.000501284
-0.000342807
0.0006680677
-0.000420461
0.0009301264
-0.0006545416
0.001340809
-0.001028157
0.001822292
-0.001206999
0.002363518
-0.001347576
0.003000896
-0.001579026
0.003765339
-0.001904265
0.004454042
-0.001700827
0.004927827
-0.001125424
0.005165581
-0.0004649825
0.00515365
0.0003320864
0.00489697
0.001761407
0.003635391
0.00463423
0.001503299
0.005498775
0.0006123625
0.001415444
0.000959606
-0.00278205
-0.002170122
0.005122141
-0.004368116
0.001993602
-0.005604227
0.001453963
-0.006033177
0.001187838
-0.006419275
0.001664583
-0.006731509
0.001383796
-0.006901559
0.001089556
-0.006980249
0.0008451752
-0.00700007
0.0006203519
-0.006986975
0.0004343321
-0.00695418
0.0002805137
-0.006904159
0.0001472117
-0.006840732
4.900706e-05
-0.006769156
-1.074458e-05
-0.006688528
-6.32004e-05
-0.006594308
-0.0001200102
-0.006489155
-0.0001583795
-0.00637481
-0.0001894901
-0.006249588
-0.0002247585
-0.006113338
-0.0002578649
-0.00596905
-0.0002821126
-0.005815112
-0.0003112561
-0.0056522
-0.0003378114
-0.005482722
-0.0003565992
-0.005308051
-0.0003714658
-0.005126902
-0.0003897548
-0.004939993
-0.0004066345
-0.004745321
-0.00042975
-0.004543995
-0.0004482727
-0.004342405
-0.0004485839
-0.004137658
-0.0004578249
-0.003927011
-0.0004743367
-0.00371519
-0.0004790497
-0.003500838
-0.0004908291
-0.00322001
-0.000647925
-0.003005919
-0.0004884211
-0.002787426
-0.0005015605
-0.002573835
-0.0004887802
-0.00235505
-0.0005036444
-0.002131983
-0.0005127102
-0.001919822
-0.0004834933
-0.001685661
-0.0005451368
-0.00145532
-0.0005374182
-0.001244647
-0.000484758
-0.001029498
-0.0004954489
-0.0008082154
-0.0005110331
-0.0005680336
-0.000557394
-0.0002957362
-0.0006303796
-8.598235e-05
-0.000471334
0.0001107446
-0.0004526101
0.0003259109
-0.0005039316
0.0005589967
-0.0005521973
0.0007944402
-0.0005552416
0.001043887
-0.0005883216
0.001292321
-0.000580373
0.001551158
-0.0006038172
0.001810323
-0.0006015557
0.002070807
-0.0006017721
0.002323274
-0.0005782133
0.002571165
-0.0005648521
0.002810825
-0.0005435613
0.003051834
-0.0005478349
0.00327831
-0.0005089299
0.003501825
-0.0005003887
0.003717884
-0.0004810678
0.00392036
-0.0004428876
0.004119295
-0.0004345438
0.004409008
-0.0006556954
0.00460225
-0.0004252852
0.004791625
-0.0004067355
0.004976016
-0.0003917983
0.005149008
-0.0003591497
0.005316307
-0.0003423516
0.005478708
-0.0003297664
0.005634312
-0.0003103404
0.005776517
-0.0002703594
0.005912116
-0.0002497517
0.006041731
-0.0002335466
0.006165406
-0.0002152486
0.0062764
-0.0001733075
0.006380208
-0.0001455201
0.006475237
-0.0001126894
0.006560862
-6.541298e-05
0.006636736
-1.597056e-06
0.006704029
8.090215e-05
0.006762605
0.0001996861
0.006803528
0.0003993519
0.006810997
0.0006708866
0.006751979
0.0009504147
0.006585512
0.001128281
0.006287933
0.001181534
0.005841468
0.001261318
0.005291877
0.001364871
0.004831033
0.001121894
0.004564667
0.0004782938
0.004253135
5.105741e-05
0.003382683
0.0004999165
0.001816799
0.001458383
0.0001868563
0.002509455
-0.0003816207
0.001893377
-0.000368503
-0.0004065189
-0.0003607713
-0.00133741
-0.001285912
0.001323694
-0.003184757
0.004854466
-0.004245523
0.003722239
-0.004380628
0.001144457
-0.004232797
-0.0002267086
-0.003842782
-0.0009331959
-0.003228978
-0.001487691
-0.002479593
-0.001801067
-0.001648403
-0.001949221
-0.0006111713
-0.002444982
0.0009047502
-0.003731179
0.001906234
-0.002419811
0.002681566
-0.00183321
0.003096272
-0.0006847715
0.003118242
0.0009991769
0.002230244
0.00299665
0.0006692636
0.003053359
-0.000252744
0.0006384978
-0.0001739728
-0.001065269
-0.00029263
0.0001812534
-0.001112265
0.001981291
-0.001173044
9.711631e-05
-0.0007205044
-0.001232473
-0.0009116911
0.0002685311
-0.001537829
0.001617249
-0.0019612
0.001507807
-0.002063233
0.0007132859
-0.001928519
-0.0001734095
-0.001527555
-0.0009404883
-0.0009369287
-0.001417737
-0.0001358919
-0.001983846
0.0007220872
-0.002039845
0.001197674
-0.0009149932
0.001256056
6.078533e-05
0.001002408
0.0004978117
0.0003946646
0.001152181
-0.0001498766
0.001226174
-0.0004379369
0.0008013769
-0.000466368
0.0002270279
-3.186857e-05
-0.0009712263
0.0004341191
-0.001133278
0.0006967872
-0.0005632471
0.0007373085
4.346365e-05
0.0005892438
0.0005197849
0.0005615472
-0.0002436696
0.001232576
-0.001074319
0.002103328
-0.002754622
-0.0003745171
0.002570998
-0.007752775
0.01971447
-0.008785693
0.002153491
-0.008275716
-0.001408893
-0.008088319
-0.00053895
-0.007867452
-0.000600143
-0.007703128
-0.0004528841
-0.007546114
-0.0004277111
-0.007413557
-0.0003685152
-0.007135497
-0.000685949
-0.007038567
-0.0002646975
-0.006949544
-0.0002275309
-0.006863201
-0.0002173292
-0.006782462
-0.0001986351
-0.006700825
-0.0001987468
-0.006622267
-0.0001909311
-0.006542907
-0.0001897672
-0.006468712
-0.0001738881
-0.006393746
-0.000170972
-0.006321485
-0.000164998
-0.006247059
-0.0001685994
-0.006175958
-0.0001594238
-0.006103692
-0.0001600046
-0.006033326
-0.0001536126
-0.005964483
-0.0001462961
-0.005894487
-0.0001498414
-0.005825097
-0.0001496285
-0.005754115
-0.0001537421
-0.005685477
-0.0001464875
-0.005616239
-0.0001434129
-0.005549342
-0.000135981
-0.005478589
-0.0001444032
-0.005409881
-0.0001412731
-0.005337108
-0.000151068
-0.005267413
-0.0001412662
-0.005196387
-0.0001406697
-0.005124056
-0.0001449696
-0.005050206
-0.000148782
-0.004974885
-0.00015265
-0.004899815
-0.0001480154
-0.004822917
-0.0001474384
-0.004852995
0.0001016786
-0.004784195
-0.0001142515
-0.00471952
-0.0001193789
-0.004651699
-0.0001245194
-0.00458618
-0.0001181002
-0.004517142
-0.0001246761
-0.004449157
-0.0001208475
-0.004378894
-0.0001233339
-0.004308282
-0.000123367
-0.004233595
-0.0001338662
-0.004158018
-0.0001358145
-0.004082156
-0.0001329102
-0.004004456
-0.0001332132
-0.003925618
-0.0001325542
-0.003841028
-0.0001465129
-0.003752863
-0.0001561677
-0.003662311
-0.0001587422
-0.003570418
-0.0001582356
-0.003471082
-0.0001734775
-0.003369649
-0.000175689
-0.003260585
-0.0001910474
-0.003145066
-0.0002047601
-0.003021647
-0.0002192502
-0.002889153
-0.00023875
-0.002733408
-0.0002987547
-0.002561876
-0.0003412857
-0.002377235
-0.0003711918
-0.002150559
-0.0004695507
-0.001868641
-0.0006025433
-0.001490394
-0.000853832
-0.0008257204
-0.001424002
0.0003419029
-0.002987838
0.001346858
-0.002462116
0.001933092
-0.001245405
0.002273414
-0.0007761595
0.002515422
-0.0005101427
0.002704537
-0.0003848828
0.002878004
-0.0003497592
0.00303142
-0.0002940557
0.003157971
-0.0002223297
0.003269413
-0.0001915214
0.00338456
-0.0002100004
0.003493974
-0.0002003253
0.00359909
-0.0001883857
0.003694455
-0.0001646478
0.003786568
-0.0001584219
0.003873389
-0.0001499512
0.003960629
-0.0001546184
0.004044563
-0.0001478619
0.00412429
-0.0001370015
0.004201147
-0.0001326409
0.004278659
-0.0001375956
0.004353567
-0.0001317358
0.004425718
-0.0001264266
0.004499627
-0.0001327652
0.004568752
-0.0001221762
0.004639939
-0.0001309384
0.004711719
-0.0001360218
0.004781908
-0.000128572
0.004847723
-0.0001168458
0.004915169
-0.0001217574
0.004981174
-0.0001229591
0.005051676
-0.0001173598
0.005018471
0.0001132207
0.005096522
-0.0001495843
0.005175282
-0.0001596937
0.005252484
-0.0001585885
0.005328971
-0.0001576788
0.005405675
-0.0001605102
0.005481874
-0.0001570953
0.005554382
-0.0001470727
0.00562864
-0.000152608
0.005701998
-0.0001559776
0.005779562
-0.0001669696
0.005851917
-0.0001515724
0.005924522
-0.0001493405
0.005996359
-0.0001507874
0.006070376
-0.0001579668
0.006142935
-0.0001561
0.006218342
-0.0001660712
0.00629462
-0.0001694145
0.00637028
-0.000168218
0.006448128
-0.0001725279
0.006521517
-0.0001612066
0.006601413
-0.000181427
0.006679671
-0.0001814813
0.006761171
-0.0001891683
0.006842487
-0.0001925374
0.006926179
-0.0001986679
0.007011639
-0.000208586
0.007102214
-0.0002244753
0.007191988
-0.0002239179
0.007285961
-0.0002375506
0.007386868
-0.0002612157
0.007496703
-0.0003009597
0.007794688
-0.0007405077
0.007943191
-0.0004146282
0.008117737
-0.00047796
0.008306752
-0.0005213356
0.008559252
-0.0006847869
0.00878543
-0.0006225976
0.009366462
-0.001646432
0.001833976
0.001489179
-0.0003984081
-0.003552887
0.002211624
-0.00196785
0.002621091
-0.001185626
0.002912536
-0.0008015876
0.003145759
-0.0006181065
0.003361107
-0.0005651069
0.003552547
-0.0004854953
0.003713607
-0.0003833895
0.003856657
-0.0003345716
0.004003201
-0.0003565446
0.004142251
-0.0003393753
0.004276162
-0.0003222967
0.004398823
-0.0002873087
0.004517146
-0.0002767451
0.00462919
-0.0002619948
0.004740798
-0.0002662271
0.004848736
-0.0002557993
0.004950946
-0.0002392117
0.00504992
-0.0002316152
0.005148995
-0.0002366706
0.005244834
-0.000227574
0.005337134
-0.000218727
0.0054315
-0.0002271316
0.005519659
-0.000210335
0.005610156
-0.000221435
0.005701322
-0.0002271879
0.005790031
-0.0002172813
0.005874123
-0.0002009383
0.005959632
-0.000207266
0.006043207
-0.0002065339
0.00613437
-0.0002085231
0.006100955
0.0001466361
0.006197312
-0.0002459416
0.006295867
-0.000258249
0.006391231
-0.000253952
0.00648568
-0.0002521281
0.006580394
-0.0002552239
0.006674172
-0.0002508739
0.006763672
-0.0002365727
0.006854964
-0.000243899
0.006945067
-0.0002460811
0.007039976
-0.0002618786
0.007128663
-0.0002402594
0.007217641
-0.0002383185
0.007305823
-0.0002389694
0.007396186
-0.0002483302
0.007484687
-0.0002446004
0.0075766
-0.0002579844
0.007669219
-0.0002620338
0.007761132
-0.0002601303
0.007855761
-0.0002671574
0.007944568
-0.0002500136
0.008041601
-0.0002784605
0.008135842
-0.0002757221
0.008233752
-0.0002870776
0.008331632
-0.0002904174
0.008431398
-0.000298434
0.008533695
-0.000310883
0.008641264
-0.0003320447
0.008747604
-0.0003302578
0.008858602
-0.0003485492
0.0089777
-0.0003803137
0.009295988
-0.0006192469
0.009458391
-0.000902911
0.009629294
-0.0005855317
0.009833598
-0.0006822633
0.01006201
-0.0007497451
0.01035953
-0.0009823069
0.01067826
-0.0009413313
0.01121047
-0.002178639
0.01051866
0.002525785
-0.01053785
0.00966694
0.003024399
-0.01006938
-0.001877362
-0.009807525
-0.0008008047
-0.009549916
-0.0008577517
-0.00935349
-0.0006493102
-0.009169956
-0.0006112445
-0.009018201
-0.0005202702
-0.008871548
-0.0008326029
-0.008576799
-0.0005594462
-0.008472172
-0.0003321576
-0.008370022
-0.0003194798
-0.008274273
-0.0002943832
-0.008177151
-0.0002958696
-0.008083356
-0.0002847261
-0.007988413
-0.0002847101
-0.007898957
-0.0002633435