/*--------------------------------*- C++ -*----------------------------------*\
| =========                 |                                                 |
| \\      /  F ield         | OpenFOAM: The Open Source CFD Toolbox           |
|  \\    /   O peration     | Version:  2406                                  |
|   \\  /    A nd           | Website:  www.openfoam.com                      |
|    \\/     M anipulation  |                                                 |
\*---------------------------------------------------------------------------*/
FoamFile
{
    version     2.0;
    format      ascii;
    arch        "LSB;label=32;scalar=64";
    class       surfaceScalarField;
    location    "0.1";
    object      phi;
}
// * * * * * * * * * * * * * * * * * * * * * * * * * * * * * * * * * * * * * //

dimensions      [0 3 -1 0 0 0 0];

oriented        oriented;

internalField   nonuniform List<scalar> 
6710
(
-1.354509e-09
1.640929e-09
-2.864192e-10
1.604709e-09
-1.566253e-09
-3.845558e-11
-5.830186e-10
1.645171e-09
-1.062152e-09
-1.264132e-09
1.522238e-09
-2.581059e-10
-1.374926e-09
3.631306e-10
1.011796e-09
1.439149e-10
1.641905e-09
-1.78582e-09
1.070915e-10
1.358441e-09
-1.465532e-09
1.103088e-09
-1.103523e-09
4.347511e-13
-2.920896e-10
1.790981e-09
-1.498892e-09
1.797716e-09
-1.922153e-09
1.244373e-10
-5.561788e-09
2.907149e-09
2.654639e-09
-1.696306e-09
1.579417e-09
1.168889e-10
-4.766668e-10
-1.162843e-09
1.63951e-09
-1.637377e-09
6.960939e-11
1.567768e-09
1.234204e-09
-1.162716e-09
-7.148838e-11
1.285794e-09
-1.519293e-09
2.334984e-10
-1.304599e-09
1.3245e-09
-1.990094e-11
-1.004533e-09
9.963211e-11
9.049005e-10
1.716828e-09
-1.303942e-09
-4.128857e-10
-1.543877e-09
1.206929e-09
3.369482e-10
3.431294e-10
-1.413834e-09
1.070704e-09
1.562647e-09
-1.6742e-09
1.115528e-10
-1.497211e-09
5.772593e-10
9.199514e-10
1.677241e-09
-4.561912e-10
-1.22105e-09
-1.630959e-09
6.08302e-11
1.570129e-09
-1.211331e-09
6.538533e-10
5.57478e-10
-1.469901e-09
1.231472e-09
2.384292e-10
3.304021e-10
-1.453466e-09
1.123064e-09
-8.462098e-10
1.807993e-09
-9.617828e-10
1.771474e-09
-1.525185e-09
-2.462884e-10
1.663255e-09
-2.905231e-10
-1.372732e-09
-1.185674e-09
-1.68787e-10
1.843446e-09
-8.465466e-10
-9.968994e-10
-1.730357e-09
1.056626e-09
6.737316e-10
-1.874279e-09
3.208022e-10
1.553477e-09
3.179434e-10
8.628874e-10
-1.180831e-09
3.212241e-10
1.356017e-09
-3.956999e-11
1.383513e-09
-1.343943e-09
-1.487348e-09
4.545872e-11
1.44189e-09
1.011907e-09
-1.945734e-09
9.338274e-10
1.188407e-09
-1.028542e-09
-1.598652e-10
-1.670138e-09
1.422429e-09
2.477095e-10
1.614716e-09
-1.93412e-09
3.194039e-10
-8.332176e-10
-8.639474e-10
1.697165e-09
-1.547836e-09
1.981736e-09
-4.339003e-10
-2.804417e-10
-9.955947e-10
1.276036e-09
-1.809834e-09
1.373693e-09
4.361413e-10
-2.168354e-10
-1.349583e-09
1.566418e-09
1.520178e-09
-5.095166e-10
-1.010661e-09
-1.495445e-09
-1.24226e-10
1.619671e-09
-4.778392e-10
-7.109441e-10
1.188783e-09
1.572371e-09
3.761206e-10
-1.948492e-09
9.817616e-10
-6.203054e-11
-9.197311e-10
1.136468e-09
-4.962847e-10
-6.401829e-10
-1.135913e-09
-1.753579e-10
1.311271e-09
-1.772343e-09
4.796186e-10
1.292724e-09
-1.792838e-09
1.502478e-09
2.903598e-10
7.619381e-09
-7.665768e-09
4.638694e-11
-5.159613e-10
1.607809e-09
-1.091848e-09
-1.335481e-09
-2.775002e-10
1.612981e-09
-1.776743e-09
6.282101e-10
1.148533e-09
-1.095217e-09
2.076889e-09
-9.816721e-10
4.784888e-10
9.042384e-10
-1.382727e-09
-1.658115e-09
2.757987e-10
1.382316e-09
-1.602116e-09
1.471886e-09
1.302303e-10
1.528969e-09
-1.542673e-09
1.370478e-11
1.586646e-09
-1.657131e-09
7.048572e-11
-7.509962e-10
-1.074298e-09
1.825294e-09
-1.485027e-09
9.433611e-10
5.41666e-10
-5.47406e-10
2.904247e-09
-2.356841e-09
-1.364766e-09
-1.398901e-10
1.504656e-09
-1.653931e-09
1.410721e-09
2.432098e-10
-1.032545e-09
-3.257235e-10
1.358268e-09
-7.161418e-10
-1.145121e-09
1.861263e-09
1.222813e-09
-2.410509e-10
-1.233867e-09
1.42693e-09
-1.930631e-10
-1.32179e-09
-3.550622e-10
1.676852e-09
3.323953e-09
-4.909197e-09
1.585244e-09
-1.31909e-09
1.637445e-09
-3.183557e-10
1.48273e-09
1.414858e-10
-1.624215e-09
-1.497492e-10
1.553728e-09
-1.403979e-09
-1.773604e-09
1.699009e-10
1.603703e-09
1.763714e-09
-2.209218e-09
4.455038e-10
-1.775689e-10
1.975285e-09
7.047449e-10
1.093507e-09
-1.798252e-09
2.056422e-09
-1.601422e-09
-4.550001e-10
-1.511985e-09
-4.620981e-12
1.516606e-09
1.668315e-09
-8.930234e-10
-7.752915e-10
1.994467e-09
-8.813717e-10
-1.113095e-09
4.973276e-10
-1.824292e-09
1.326964e-09
-1.608128e-09
1.22563e-09
3.824983e-10
-1.600312e-09
3.768382e-10
-1.831648e-09
1.111283e-09
7.203648e-10
1.39957e-09
-1.672402e-10
-1.23233e-09
5.03101e-10
-1.892883e-09
1.389782e-09
-1.370053e-09
1.448315e-09
-7.826193e-11
1.263076e-09
-2.829084e-10
-9.801676e-10
1.458673e-09
-1.407333e-09
-5.133983e-11
2.430854e-10
-1.493531e-09
1.250445e-09
-2.785242e-10
-1.120643e-09
1.399167e-09
1.995543e-09
-3.78367e-10
-1.617177e-09
-2.003894e-09
9.325684e-10
1.071326e-09
1.225776e-10
1.521558e-09
-1.644135e-09
3.78497e-11
1.420824e-09
1.699462e-09
-2.586549e-10
-1.440808e-09
-6.342682e-10
1.567121e-09
-9.328529e-10
-3.050767e-10
1.322112e-09
-1.017035e-09
-1.476495e-09
-4.763165e-11
1.524127e-09
-8.376603e-10
2.175324e-09
-1.337664e-09
1.802897e-10
-1.391183e-09
1.210893e-09
-7.024425e-10
1.789669e-09
-1.087227e-09
1.272748e-09
-1.673927e-09
-1.322457e-09
-3.495121e-12
1.325952e-09
-7.217712e-10
-6.944836e-10
1.416255e-09
6.707467e-10
4.037533e-10
-1.0745e-09
8.510041e-11
1.410188e-09
-1.495288e-09
3.61178e-10
9.987232e-10
-1.359901e-09
-6.853693e-10
-1.091374e-09
1.429733e-09
-3.212666e-11
-1.397606e-09
1.986358e-09
-1.089159e-09
-8.971995e-10
1.587883e-09
-1.760798e-09
1.729148e-10
1.691756e-10
1.65019e-09
-1.819366e-09
4.703099e-10
1.223198e-09
-1.693508e-09
-2.718165e-10
1.855359e-09
-1.583543e-09
-3.052132e-10
1.585807e-09
-1.280594e-09
-1.05233e-09
-2.522695e-10
9.330289e-10
-1.549084e-09
6.160546e-10
-7.84951e-10
1.229654e-09
-4.447035e-10
-5.275746e-10
1.251264e-09
-7.236895e-10
-1.529969e-09
1.411431e-09
1.185383e-10
-1.318403e-09
1.714327e-09
-3.959244e-10
-5.257736e-10
-9.727415e-10
1.498515e-09
-1.349923e-09
-2.582054e-10
-1.325067e-09
1.258545e-09
6.652189e-11
-8.991806e-10
1.911087e-09
1.865263e-09
-7.949277e-10
-1.070335e-09
1.034771e-09
-1.605643e-09
5.708721e-10
-1.564606e-09
9.222414e-10
6.423648e-10
-1.466965e-09
1.268503e-09
1.984623e-10
1.739648e-10
9.935344e-10
-1.167499e-09
1.518265e-09
-1.451031e-09
-6.723424e-11
2.872332e-11
-1.368995e-09
1.340271e-09
-1.185439e-09
7.204526e-10
4.649866e-10
1.555454e-10
1.062771e-09
-1.218316e-09
1.558442e-09
6.404397e-11
-1.622486e-09
1.164859e-09
-8.046206e-10
-3.60238e-10
-1.271856e-09
1.742165e-09
-9.363019e-11
1.150721e-09
-1.057091e-09
-4.99873e-10
1.538979e-09
-1.039106e-09
-1.942818e-09
3.142998e-10
1.628518e-09
1.765716e-09
-5.606169e-10
-1.205099e-09
4.067522e-10
-1.393685e-09
9.869324e-10
1.150026e-09
-2.007389e-09
8.573623e-10
1.021172e-09
-2.103078e-09
1.081906e-09
-1.272462e-09
-2.90385e-10
1.562847e-09
6.761586e-10
-1.753011e-09
1.076852e-09
1.052928e-10
-1.71959e-09
1.614297e-09
3.889125e-10
1.072264e-09
-1.461176e-09
-1.542111e-09
6.517718e-10
8.90339e-10
9.251657e-10
-1.508184e-09
-2.038767e-10
1.566585e-09
-1.362708e-09
8.618935e-11
-1.195693e-09
1.109503e-09
1.403051e-10
1.473205e-09
-1.61351e-09
3.107944e-10
5.62542e-10
-8.733364e-10
-1.629246e-09
1.514279e-09
1.149674e-10
-1.517156e-09
5.171554e-12
-1.681762e-09
7.953755e-10
8.863864e-10
-9.417609e-10
-7.547623e-10
1.696523e-09
-1.739428e-09
5.159058e-10
1.223522e-09
5.336958e-10
-1.594545e-09
1.060849e-09
-1.791865e-09
2.600181e-10
1.531847e-09
1.880448e-09
-8.122923e-10
-1.068156e-09
1.610504e-09
-1.339769e-09
-2.707352e-10
1.591936e-09
-1.03418e-09
-5.577557e-10
4.217422e-10
1.33195e-09
-1.753692e-09
-1.58982e-09
1.088711e-09
5.011091e-10
-5.122587e-10
-7.785566e-10
1.290815e-09
-2.194658e-10
-1.326813e-09
1.546279e-09
2.751948e-10
1.318341e-09
-1.593536e-09
1.694591e-09
-1.066223e-10
-1.535677e-09
2.060218e-10
1.329655e-09
2.459701e-10
-1.468503e-09
1.222533e-09
7.790706e-10
-1.875295e-09
1.096224e-09
-2.437965e-10
1.640723e-09
-1.396926e-09
-6.262551e-10
2.270462e-09
-1.644207e-09
2.933767e-10
-1.628773e-09
1.335396e-09
-3.411676e-10
1.445454e-09
-1.104286e-09
8.616538e-10
1.124705e-09
-1.383166e-09
1.610458e-09
-2.272917e-10
9.212202e-10
-1.030029e-09
1.088085e-10
1.375686e-09
-1.450158e-09
7.447141e-11
-1.325615e-09
-8.096627e-11
1.406582e-09
2.714965e-09
-1.317503e-09
-1.397461e-09
1.304393e-09
-1.401658e-09
9.726531e-11
9.924566e-10
2.283699e-10
-1.220827e-09
-2.63746e-11
-1.34978e-09
1.376155e-09
9.234238e-10
-1.419484e-09
4.960605e-10
-7.585764e-10
-3.64414e-10
1.12299e-09
-8.267849e-10
-7.294041e-10
1.556189e-09
1.286117e-09
2.474557e-10
-1.533573e-09
-1.254268e-09
2.978443e-10
9.564239e-10
-7.887446e-10
-1.50473e-09
2.293474e-09
1.992119e-09
-8.041989e-10
-1.18792e-09
1.527755e-09
-2.944042e-10
-1.233351e-09
-1.604219e-09
1.958912e-10
1.408328e-09
-3.723441e-11
1.349171e-09
-1.311937e-09
-1.58413e-09
5.416078e-11
1.567475e-09
1.554121e-10
-1.595597e-09
1.440185e-09
-1.625771e-09
2.902902e-10
-1.645961e-09
1.745121e-09
-9.916021e-11
1.352301e-10
1.487239e-09
-1.622469e-09
-5.371235e-10
1.741724e-09
-1.2046e-09
-1.396143e-09
1.15715e-09
2.389923e-10
-7.817641e-10
9.557288e-10
1.44248e-09
4.966773e-10
-1.939157e-09
-1.224678e-09
6.956768e-10
5.290011e-10
-1.856586e-09
-9.373857e-11
1.950325e-09
-1.610858e-09
2.954821e-10
1.315376e-09
8.787181e-09
1.71128e-09
-4.149385e-10
-1.296342e-09
-1.359653e-10
-1.442344e-09
1.57831e-09
3.221496e-10
1.255928e-09
-1.578078e-09
-1.556952e-09
1.524224e-09
3.272861e-11
1.84546e-09
-8.03119e-11
-1.765148e-09
2.30158e-09
-1.188935e-09
-1.112645e-09
1.849393e-09
-1.217252e-09
-6.321405e-10
-1.225565e-09
-1.038318e-10
1.329397e-09
-1.236188e-10
-1.364395e-09
1.488014e-09
-1.304663e-09
1.205616e-09
9.904757e-11
-8.113605e-10
1.632815e-09
-8.214541e-10
-8.446813e-11
-1.636096e-09
1.720564e-09
1.61676e-09
-3.958631e-10
1.825565e-09
-1.758153e-09
-6.741132e-11
-1.319786e-09
1.385814e-09
-6.602779e-11
1.679722e-09
-1.051511e-09
1.30241e-09
-1.49797e-09
1.955603e-10
1.739948e-09
-8.731884e-10
-8.667595e-10
1.338023e-09
-4.145996e-10
-1.25242e-09
3.220302e-10
9.3039e-10
1.339996e-10
1.490882e-09
-1.624882e-09
1.502307e-09
-1.358281e-09
-1.44026e-10
-1.823013e-09
3.645916e-10
1.458422e-09
-3.097382e-10
-1.337972e-09
1.64771e-09
-1.907331e-09
5.568685e-09
-3.661354e-09
-9.2853e-10
-4.676126e-10
1.787673e-10
1.527909e-09
-1.706677e-09
-1.680116e-10
-1.182581e-09
1.350593e-09
1.82073e-09
-1.766229e-09
-5.450181e-11
7.650795e-10
1.343949e-09
-2.109029e-09
1.517591e-09
-1.519882e-09
2.291232e-12
-3.715565e-09
2.078635e-09
1.63693e-09
1.316594e-09
-1.364663e-09
4.806936e-11
-7.705621e-09
7.705621e-09
2.204481e-10
1.474143e-09
-7.13119e-10
1.310463e-09
-5.973439e-10
1.634528e-09
-6.175177e-10
-1.01701e-09
1.373152e-09
-6.724901e-11
-1.305903e-09
-5.180768e-11
1.666877e-09
-1.615069e-09
-1.425943e-09
1.248374e-09
-5.738132e-09
4.230446e-09
1.507686e-09
-1.740694e-09
2.79516e-10
1.461178e-09
2.505295e-10
-1.124975e-09
8.744452e-10
1.150601e-09
-9.140611e-10
-2.365401e-10
1.368841e-09
-4.271887e-10
-9.416525e-10
-1.468529e-09
-8.176412e-11
1.550294e-09
-1.195098e-09
1.516322e-09
1.678831e-09
-5.293294e-10
-1.149501e-09
1.601597e-09
-1.285786e-09
-3.158111e-10
-1.348445e-09
5.126068e-10
8.358381e-10
1.726485e-09
-4.243647e-10
-1.30212e-09
-9.426794e-10
-1.000256e-09
1.942935e-09
5.41102e-10
1.227062e-09
-1.768164e-09
1.615664e-09
-1.792042e-09
1.763779e-10
-1.450899e-09
1.338929e-09
1.119698e-10
9.995075e-10
5.516796e-10
-1.551187e-09
1.263521e-09
-1.808628e-09
5.451071e-10
-8.786073e-10
1.716576e-09
-8.379687e-10
1.672957e-09
-1.776464e-09
1.035068e-10
1.181203e-09
4.355574e-10
-8.859326e-11
-1.341629e-09
1.430222e-09
1.591199e-09
-9.149618e-10
-6.762371e-10
-1.68923e-09
-5.686923e-11
1.746099e-09
1.817675e-09
-1.198923e-09
-6.187523e-10
1.365578e-09
-8.375195e-11
-1.281826e-09
7.733463e-10
8.718246e-10
-1.193233e-09
-5.089976e-10
1.702231e-09
-8.591366e-10
-8.226254e-10
1.444275e-09
-1.594335e-09
1.500597e-10
1.400422e-10
-1.259364e-09
1.119322e-09
-1.532805e-09
1.227728e-09
8.513824e-10
-2.123238e-09
-4.000602e-10
1.41622e-09
-1.01616e-09
7.569511e-10
-1.825916e-09
1.068965e-09
-9.590763e-11
-1.577221e-09
1.673128e-09
1.261202e-09
-1.292105e-09
3.090273e-11
-3.807095e-10
-1.429125e-09
-1.257576e-09
3.467774e-10
9.107988e-10
1.138248e-09
9.181741e-10
1.461395e-09
-1.432672e-09
1.39565e-09
-1.231996e-09
-1.636547e-10
-5.989168e-10
-1.016295e-09
1.615212e-09
-1.708539e-10
-1.477255e-09
1.648109e-09
4.341366e-09
-3.548877e-09
-7.924884e-10
1.665721e-09
-7.907536e-11
-1.58341e-09
1.032504e-09
5.509055e-10
-1.452752e-09
-1.366131e-10
1.589366e-09
5.0489e-10
-1.827619e-09
1.322729e-09
-2.272718e-10
-1.590644e-09
1.817916e-09
-2.147666e-09
1.150659e-09
9.970065e-10
1.058433e-09
-1.221003e-10
-9.363325e-10
-1.281779e-09
1.38887e-09
-2.717232e-09
2.307146e-09
4.100869e-10
7.199876e-10
9.12555e-10
-1.632543e-09
-6.202797e-10
-8.652255e-10
1.485505e-09
1.589825e-09
1.979636e-10
-1.787789e-09
-1.421859e-09
1.462204e-09
-4.034458e-11
-4.620811e-10
-1.133487e-09
1.595568e-09
-1.84693e-09
4.108926e-10
1.436037e-09
2.347433e-09
-1.163248e-09
-1.184185e-09
-1.47504e-09
1.813539e-09
-3.384998e-10
2.679363e-09
-1.308953e-09
-1.370409e-09
-1.454395e-09
-1.564629e-10
1.479474e-09
-8.247921e-11
-1.396995e-09
-1.888718e-09
1.010332e-09
8.783869e-10
1.836948e-09
-1.399618e-09
-4.373306e-10
1.03282e-09
-1.938655e-09
4.152038e-10
-1.16278e-09
7.475764e-10
-4.045221e-10
-1.177876e-09
1.582398e-09
1.513012e-09
-5.064175e-12
-1.507948e-09
-1.206234e-09
-4.288786e-10
1.635113e-09
1.374532e-09
-6.314461e-10
-7.430862e-10
-1.708725e-09
1.919297e-09
-2.10572e-10
9.651984e-10
5.983042e-11
-1.025029e-09
3.830358e-10
1.345811e-09
-1.728847e-09
7.524436e-11
1.465261e-09
-1.540505e-09
-1.566107e-09
1.486168e-09
7.993851e-11
-1.210552e-09
1.666212e-09
-4.556599e-10
1.832446e-09
-5.559283e-10
-1.276518e-09
-5.986541e-10
1.607105e-09
-1.008451e-09
9.487733e-10
-1.699769e-09
-2.763088e-10
-1.307095e-09
1.583404e-09
1.323711e-09
7.52944e-10
-2.076655e-09
-8.94676e-11
1.369945e-09
-1.280477e-09
-2.575837e-10
-1.210049e-09
1.467633e-09
1.077977e-09
1.269456e-09
1.748944e-09
-1.384108e-09
-3.648363e-10
8.790189e-10
-1.857459e-09
9.784401e-10
-1.464295e-09
-1.018123e-10
6.304264e-10
1.361692e-09
1.540315e-09
1.938771e-10
-1.734192e-09
3.704367e-09
-4.493111e-09
-1.601668e-09
5.023823e-10
1.099286e-09
-1.256871e-09
1.778402e-09
-5.215312e-10
-1.570112e-09
9.358435e-10
-1.424843e-09
1.63334e-09
-2.084979e-10
1.264816e-09
-3.951276e-11
-1.225303e-09
-6.877392e-09
-7.74357e-10
7.651749e-09
-1.460993e-09
1.348207e-09
1.127862e-10
-1.025702e-10
-1.110282e-09
1.212853e-09
1.350557e-09
-1.431501e-09
8.094354e-11
1.177517e-09
4.615029e-10
-1.63902e-09
6.063847e-10
-1.705968e-09
1.099583e-09
-1.791838e-09
4.26827e-10
1.365011e-09
-1.938745e-09
1.394681e-09
5.440646e-10
9.755883e-10
5.131093e-10
-1.488698e-09
1.623932e-09
-1.433414e-09
-1.905177e-10
1.55116e-09
4.153938e-11
-1.5927e-09
-6.428785e-10
1.224821e-09
-5.819425e-10
-1.184711e-09
-6.858381e-10
1.870549e-09
-1.76389e-09
1.693954e-09
6.99369e-11
1.742709e-09
-1.190574e-09
-5.521351e-10
8.150324e-10
5.892696e-10
-1.404302e-09
-2.721878e-09
-2.887428e-10
3.010621e-09
1.775728e-09
-4.283203e-10
-1.347408e-09
4.199544e-10
-1.644802e-09
1.224848e-09
-4.878635e-09
4.483439e-09
3.951961e-10
-1.393708e-09
1.591639e-09
-1.97931e-10
-7.516215e-10
1.170901e-09
-4.192797e-10
1.334712e-09
-3.943983e-10
-9.403141e-10
-2.655022e-10
-9.958395e-10
1.261342e-09
1.132162e-09
-1.572686e-09
4.405242e-10
1.399209e-09
6.79639e-10
-2.078848e-09
1.670189e-09
-8.944599e-10
-7.757286e-10
-1.70864e-09
6.953973e-10
1.013243e-09
-1.692354e-09
1.628812e-09
-1.318117e-10
-1.497e-09
-2.341605e-09
1.794199e-09
-1.255826e-09
-3.814434e-10
1.63727e-09
1.514491e-09
-3.50986e-12
-1.510981e-09
-1.115793e-11
-1.294625e-09
1.305782e-09
1.189517e-09
-1.36895e-09
1.794327e-10
-2.840089e-09
5.00246e-09
-2.162371e-09
4.223348e-10
7.622696e-10
-1.184604e-09
-2.286643e-10
1.476303e-09
-1.247638e-09
-4.527729e-10
-1.006887e-09
1.45966e-09
1.907737e-09
-1.156508e-09
-7.51229e-10
-4.918671e-10
1.367933e-09
-8.76066e-10
3.305215e-10
1.260164e-09
-1.590685e-09
-1.463249e-09
1.618661e-09
9.25562e-10
-1.845539e-09
1.565437e-09
7.36143e-10
1.527328e-09
-1.452398e-09
-7.49299e-11
1.338975e-09
1.379913e-10
-1.476966e-09
1.457014e-09
7.031398e-11
-1.802431e-09
1.338026e-09
4.644049e-10
1.696273e-09
-9.742861e-10
-7.21987e-10
3.987397e-10
-1.433412e-09
1.034672e-09
7.670876e-11
1.289003e-09
-1.365712e-09
4.803726e-10
-1.67547e-09
1.608877e-09
-5.771638e-11
-3.503662e-10
1.913013e-09
-1.496763e-09
3.246892e-11
2.557531e-10
1.200202e-09
-1.455955e-09
-6.50678e-10
1.599365e-09
-9.486874e-10
-1.036659e-09
-2.989871e-10
1.335646e-09
-1.045928e-09
-2.196049e-10
1.265533e-09
-2.600601e-10
1.667388e-09
-1.407328e-09
-1.651509e-09
2.811797e-10
1.370329e-09
-1.560365e-09
-1.28492e-12
1.56165e-09
1.363453e-09
-1.651136e-09
2.876825e-10
-1.717041e-09
1.096761e-09
-3.23917e-10
1.472341e-09
-1.148424e-09
6.929722e-10
1.272385e-09
-1.965357e-09
-1.237902e-09
1.627084e-09
-3.891821e-10
-1.038701e-09
-3.902877e-10
1.428988e-09
1.782411e-09
-1.539326e-09
1.843151e-09
-1.618948e-09
-2.242023e-10
1.980103e-09
-9.369043e-10
-1.508906e-09
1.230382e-09
-1.908769e-10
1.396989e-09
-1.206113e-09
1.115307e-09
-1.480618e-09
3.653112e-10
-3.002705e-10
-1.442299e-09
1.74257e-09
-1.26729e-09
-1.678312e-10
1.435122e-09
1.857071e-09
-8.994037e-10
-9.576668e-10
-1.50122e-09
1.66999e-09
-1.687699e-10
2.039981e-09
-6.073985e-10
-1.432582e-09
6.865089e-10
1.125282e-09
-1.811791e-09
-1.368409e-09
-4.215904e-11
1.410568e-09
1.868404e-10
-9.717913e-10
4.967442e-11
1.638936e-09
-1.688611e-09
-1.605513e-09
2.284333e-10
1.37708e-09
1.441235e-09
-1.512257e-09
7.102128e-11
-3.485608e-10
1.704577e-09
-1.592413e-09
8.603688e-10
7.320438e-10
-1.685203e-09
7.615209e-10
-3.573336e-10
-8.087676e-10
1.166101e-09
-9.824031e-10
-6.439372e-10
1.62634e-09
-8.133118e-11
-1.172937e-09
4.351777e-10
-1.787543e-09
1.352366e-09
1.19037e-09
-7.058256e-10
-4.845447e-10
1.87013e-09
-1.055098e-09
-9.09596e-10
1.194068e-09
-2.844717e-10
1.757402e-09
-1.310111e-09
-4.472907e-10
7.580155e-11
1.47131e-09
-1.547111e-09
3.933448e-10
-9.814292e-10
5.880844e-10
6.915853e-10
1.310765e-09
-2.002351e-09
-9.747393e-10
1.363652e-09
3.420433e-10
-1.814376e-09
1.472332e-09
-7.484169e-10
1.769099e-09
-1.020683e-09
1.401545e-09
-7.143561e-10
-6.871885e-10
-4.992586e-10
-1.312667e-09
1.811926e-09
-1.091973e-09
-7.582859e-10
1.850259e-09
-1.378364e-09
5.515788e-10
1.372174e-09
-7.70583e-10
-6.015913e-10
-1.331437e-09
1.451429e-09
-1.199918e-10
4.588379e-10
-1.55509e-09
1.096253e-09
1.124916e-09
5.586608e-10
-1.683577e-09
1.372424e-09
-1.017452e-09
-3.549723e-10
-9.136309e-10
1.616765e-09
-7.031341e-10
-7.547689e-10
-1.480377e-09
1.276501e-09
-9.617149e-11
-1.300383e-09
1.396554e-09
-1.395056e-09
5.889653e-10
8.060911e-10
6.844174e-10
1.89472e-10
-8.738894e-10
1.709171e-09
-1.946807e-10
1.528868e-09
-1.027456e-11
-1.518593e-09
-1.937675e-09
1.076379e-09
8.612954e-10
1.110494e-09
-1.519118e-09
1.266743e-09
-1.373365e-09
7.993206e-10
1.180783e-09
1.341279e-10
-1.228578e-09
1.09445e-09
7.912434e-10
-1.602986e-09
8.117422e-10
-1.785196e-09
3.727184e-11
1.747924e-09
2.451988e-10
1.47955e-09
-1.724749e-09
1.628912e-09
-1.489265e-09
-1.396471e-10
-1.888821e-09
2.330023e-09
-4.41202e-10
4.826517e-10
1.25741e-09
-1.740062e-09
4.057216e-10
-1.162536e-09
7.568139e-10
1.375488e-09
-7.120319e-11
-1.232911e-09
1.629879e-09
-3.969679e-10
1.624024e-09
-6.03111e-11
-1.563713e-09
1.332738e-09
-1.821288e-09
4.885502e-10
-1.015364e-09
-5.077012e-10
1.523065e-09
-1.489198e-09
1.623197e-09
1.496502e-09
-1.454963e-09
8.992157e-10
-1.669398e-09
7.701823e-10
1.63216e-09
-1.507761e-10
-1.481384e-09
1.813703e-09
-1.668253e-09
-1.454501e-10
-1.625543e-09
1.495707e-09
1.298369e-10
-8.210525e-10
-7.222141e-10
1.543267e-09
2.773013e-10
-1.059065e-09
1.403072e-09
6.201974e-10
1.205951e-09
-1.553604e-09
3.476528e-10
-7.046332e-10
-1.319341e-09
2.023974e-09
-1.589062e-09
3.885536e-10
1.200508e-09
1.656584e-09
-8.653401e-10
-1.244576e-09
-5.18674e-11
1.296444e-09
-1.037911e-10
-1.491244e-09
1.595035e-09
7.127311e-10
9.527554e-10
-1.665487e-09
9.004178e-10
-1.338796e-09
4.383781e-10
9.017429e-10
9.352055e-10
2.115731e-09
-5.190726e-09
3.074994e-09
1.402442e-09
-1.146531e-09
-2.559106e-10
5.820542e-10
-1.365012e-09
7.829578e-10
-9.843746e-10
-7.247705e-10
1.709145e-09
1.076983e-10
-1.296912e-09
1.189213e-09
8.965178e-10
-1.954992e-09
1.058475e-09
1.948735e-10
-1.3568e-09
1.161926e-09
-1.727163e-09
-3.143626e-10
2.041526e-09
-6.789702e-10
1.735596e-09
5.658674e-10
-1.465169e-09
-1.687832e-09
-3.933084e-11
-1.101703e-09
1.73213e-09
-1.487441e-09
1.959377e-10
1.291504e-09
4.75407e-10
-2.014986e-10
1.397649e-09
-1.19615e-09
-1.284218e-09
1.509067e-09
-2.248497e-10
-1.47421e-09
-1.794101e-10
1.65362e-09
-1.495392e-09
3.24703e-10
1.170689e-09
1.128046e-09
-2.158506e-10
-9.121958e-10
1.948527e-09
-1.270691e-09
-6.778354e-10
-5.828937e-10
-1.564772e-09
-9.210835e-10
-6.824919e-10
1.603575e-09
1.816571e-09
9.279146e-10
-2.119304e-09
1.19139e-09
1.39661e-10
1.362646e-09
1.605357e-09
-2.673332e-10
-2.587378e-09
7.130991e-10
-1.41609e-09
1.672366e-09
-2.562754e-10
-1.403828e-09
-1.986994e-10
1.602527e-09
-2.496663e-10
1.416761e-09
6.736843e-10
-1.594768e-09
4.572414e-10
-1.689929e-09
1.232688e-09
-1.023441e-09
-3.470229e-10
1.370464e-09
-1.337232e-09
-3.095714e-10
1.646803e-09
-1.873036e-10
-1.408294e-09
3.605914e-10
1.11662e-09
-1.477211e-09
-2.680449e-09
9.307078e-11
1.133285e-11
1.471397e-09
-1.461291e-09
1.380522e-09
8.076948e-11
3.239184e-10
8.790986e-10
-1.203017e-09
-1.380043e-09
-2.745112e-10
1.654554e-09
2.532942e-10
1.035617e-09
-1.288911e-09
4.320049e-11
-1.494518e-09
1.451318e-09
-1.312235e-09
1.585589e-09
-2.733545e-10
-2.173106e-11
1.541632e-09
-1.519901e-09
-1.646478e-09
1.51526e-09
1.31218e-10
-1.206788e-10
1.638944e-09
1.092268e-09
-2.187485e-09
6.640364e-10
9.4052e-10
-1.604556e-09
-2.675174e-10
-1.336073e-09
1.603591e-09
1.158988e-10
-1.488991e-09
1.373092e-09
1.359462e-09
-1.453092e-09
4.113392e-10
6.678743e-10
-1.079214e-09
-6.472018e-10
-9.266954e-10
1.573897e-09
-1.494057e-10
1.414222e-09
1.344795e-09
-1.56244e-10
-1.188551e-09
7.488134e-10
1.003992e-09
1.809935e-10
-1.656033e-09
1.975017e-09
2.125401e-09
-4.100418e-09
-1.165345e-09
-1.524613e-10
1.317806e-09
1.647242e-09
-1.91e-10
-1.456242e-09
1.457886e-09
-7.378278e-11
-1.384103e-09
-1.475338e-09
1.486671e-09
4.673168e-11
-1.495798e-09
1.449066e-09
1.073104e-10
-1.529667e-09
1.422357e-09
-1.08861e-09
1.883986e-09
-1.514924e-09
-2.068128e-11
1.3072e-09
-5.902726e-10
-7.16927e-10
1.5186e-09
2.990745e-10
5.17496e-10
-2.084958e-09
1.567462e-09
1.685055e-09
-1.649139e-09
-3.591528e-11
6.63819e-10
-1.163966e-09
5.001468e-10
-1.914286e-09
7.037343e-10
5.714039e-10
-1.515676e-09
9.442722e-10
-1.246349e-09
1.925708e-09
-6.793598e-10
9.390699e-10
-1.581639e-09
6.425691e-10
3.551265e-10
1.335907e-09
-1.691034e-09
-2.687915e-10
1.148663e-09
-8.798712e-10
1.497456e-09
1.268825e-10
-1.624339e-09
9.37033e-11
1.748732e-09
-1.842436e-09
-6.245761e-10
6.796031e-09
-6.171455e-09
1.850565e-10
1.517054e-09
-1.70211e-09
1.032879e-09
8.817425e-10
-1.914621e-09
-1.281245e-09
4.090438e-10
8.72201e-10
-1.452042e-09
1.405722e-09
4.631949e-11
1.690064e-09
-1.369262e-09
1.819174e-09
8.601888e-10
1.477295e-09
-1.383441e-09
-9.385354e-11
1.881353e-10
-1.421046e-09
-6.950965e-10
-7.151159e-10
1.410212e-09
1.030832e-09
8.707745e-10
-1.901607e-09
-7.823123e-10
1.282892e-09
-5.005794e-10
-1.05486e-09
-5.653479e-10
1.620208e-09
-1.543056e-09
-3.457649e-10
1.556885e-09
-1.645479e-09
-7.586256e-10
-5.143343e-10
1.27296e-09
1.755196e-09
-1.054539e-09
-1.800413e-09
3.108664e-10
1.489547e-09
-1.312045e-09
1.444569e-09
-1.325237e-10
1.62953e-09
1.912006e-10
7.957621e-10
-1.544179e-09
1.64829e-09
-3.692263e-10
-1.279064e-09
-4.802327e-09
-1.622097e-09
6.424424e-09
-2.68419e-09
-1.04742e-09
1.842013e-09
-1.168281e-09
-1.722414e-09
1.428643e-09
2.937711e-10
1.965461e-09
-1.724504e-09
-2.409565e-10
-1.356361e-09
-2.785899e-10
1.634951e-09
1.131357e-10
1.408786e-09
-1.521921e-09
-1.567035e-09
-1.296339e-10
1.696669e-09
9.132543e-10
-1.812435e-09
-1.702663e-09
3.053181e-10
1.397344e-09
-1.82361e-09
5.409045e-10
1.282706e-09
3.020158e-11
-1.994676e-09
1.964474e-09
1.364162e-09
3.003553e-10
-1.664517e-09
1.090377e-09
7.082547e-10
1.777696e-09
-2.053246e-10
9.941171e-10
6.270762e-10
-1.621193e-09
-1.324102e-09
9.023544e-11
-1.444033e-09
1.320414e-09
-1.487983e-09
6.57564e-10
8.304191e-10
2.74617e-10
1.053654e-09
-1.328271e-09
1.702027e-09
-2.880512e-10
-1.413976e-09
-3.375333e-09
1.344792e-09
2.030541e-09
1.149142e-10
1.536953e-09
-1.651868e-09
1.148348e-09
7.593891e-10
-1.027465e-09
-1.586605e-11
1.043331e-09
1.491592e-09
1.716169e-10
-1.663209e-09
1.507087e-09
-8.166066e-10
-6.9048e-10
-7.633575e-10
-1.102418e-09
1.865775e-09
-2.936106e-09
3.234774e-09
-2.986673e-10
-1.377996e-10
1.472512e-09
8.996722e-10
6.482093e-10
-1.547882e-09
9.07809e-10
7.584028e-10
1.484779e-09
-1.644453e-09
1.532729e-09
1.11724e-10
1.393905e-09
1.95042e-09
-2.653578e-11
-1.923884e-09
-1.679939e-09
-3.239553e-10
-1.685606e-09
3.231513e-10
1.362455e-09
-1.198174e-09
-7.428799e-11
-3.787543e-10
-1.295446e-09
-1.089582e-09
1.607078e-09
1.555462e-09
-8.689528e-10
-1.505824e-09
1.833669e-10
1.310965e-09
-1.62038e-09
3.094152e-10
1.904568e-10
1.171929e-09
-1.843786e-09
6.868508e-10
1.156935e-09
3.075555e-10
1.286266e-09
-1.593822e-09
1.305253e-09
-1.483625e-09
1.783722e-10
-1.539563e-09
8.496192e-10
6.899434e-10
4.324821e-10
1.550117e-09
-1.58546e-09
3.534286e-11
1.08625e-10
-1.469517e-09
1.360892e-09
-1.836595e-09
7.446227e-10
-1.813577e-09
1.736147e-09
7.74295e-11
-1.785853e-09
1.328464e-09
4.573891e-10
4.609687e-10
1.304747e-09
1.338553e-09
-1.135654e-09
-2.028993e-10
-6.922967e-10
1.526713e-09
-8.344163e-10
-1.555646e-09
-1.200381e-10
1.675684e-09
-1.812506e-09
3.828899e-10
1.429616e-09
-7.451535e-10
-6.064578e-10
1.351611e-09
1.619077e-09
-4.744593e-10
-1.144618e-09
-1.546948e-09
2.182256e-09
-6.353082e-10
2.917497e-10
-1.580618e-09
1.288869e-09
8.646483e-10
1.144833e-09
-2.009481e-09
1.656479e-09
-1.541564e-09
1.570472e-09
-1.869242e-09
2.987699e-10
1.99404e-09
-1.237089e-09
1.630844e-09
-4.631754e-10
-1.167668e-09
1.57156e-09
-1.326362e-09
1.35033e-09
6.573379e-11
-1.416064e-09
-1.956557e-09
1.599223e-09
3.105729e-11
-1.383374e-09
1.352316e-09
1.429895e-09
2.855779e-10
-1.715473e-09
-1.34243e-09
-1.511011e-10
-1.491091e-09
1.621712e-09
-1.30621e-10
6.172904e-10
-1.511474e-09
1.022051e-09
-1.911893e-09
8.898419e-10
1.645795e-09
-6.516778e-10
-1.43147e-10
-1.278237e-09
1.421384e-09
-1.743509e-09
5.907933e-10
1.152716e-09
-1.926804e-09
8.166575e-10
5.480068e-10
-1.364664e-09
1.235507e-09
-1.384375e-09
1.488678e-10
-1.199553e-09
1.658391e-09
-1.773491e-09
9.647712e-10
8.087195e-10
-3.738584e-10
-1.482728e-09
-1.611498e-09
2.615755e-10
-1.031452e-09
-5.898147e-10
-1.412885e-09
8.214225e-10
5.914628e-10
1.467766e-09
1.803958e-09
-3.271724e-09
-1.750035e-09
5.568023e-10
-1.093637e-09
1.813625e-09
-1.057525e-09
-1.639561e-09
7.544674e-10
8.850938e-10
8.500035e-10
8.547665e-10
-1.70477e-09
1.287772e-09
8.440281e-11
1.294849e-09
-1.440998e-09
1.627539e-09
-1.378462e-09
-2.49077e-10
1.546586e-09
-8.373517e-10
-7.092343e-10
-1.594427e-09
1.384784e-09
2.096431e-10
-1.307464e-09
-3.910819e-10
1.698546e-09
-8.603185e-10
1.34297e-09
-1.282376e-09
1.377661e-09
-9.528407e-11
1.65277e-09
-1.347575e-09
-3.051959e-10
1.005332e-09
-1.861431e-09
8.560988e-10
-1.827015e-10
-1.041976e-09
1.993679e-10
-1.320011e-09
3.749503e-10
1.147406e-09
-1.522356e-09
-1.3371e-09
1.581034e-09
-2.43934e-10
1.974307e-10
-1.25431e-09
-1.240535e-10
-8.785801e-10
-3.567072e-09
2.425117e-09
1.141955e-09
-3.155384e-10
-1.571092e-09
1.88663e-09
1.815457e-09
-1.016137e-09
2.700411e-10
-1.841133e-09
1.3431e-09
-1.602356e-09
1.695161e-10
1.43284e-09
-1.615891e-09
4.279887e-10
1.187903e-09
9.582123e-10
1.736493e-10
-1.131862e-09
1.306632e-09
6.65194e-11
-1.027514e-09
-6.230658e-11
1.089821e-09
-1.604075e-09
2.396801e-10
-6.660178e-10
-9.375393e-10
1.603557e-09
-1.360578e-09
-4.39835e-10
1.542228e-09
-1.195403e-09
-3.468249e-10
2.107857e-09
-9.906228e-10
-1.117234e-09
1.461997e-09
1.668141e-10
-1.122087e-09
1.444237e-09
-1.864467e-11
1.589117e-09
1.808111e-09
7.233772e-11
-1.911615e-09
1.566986e-09
3.446292e-10
-2.383795e-10
1.40243e-09
1.234939e-09
-2.026093e-09
7.911541e-10
3.322328e-10
9.692019e-10
-1.301435e-09
-1.205197e-09
1.666261e-09
-4.610638e-10
1.628806e-09
-1.011516e-09
1.04202e-09
8.450841e-10
-1.887105e-09
-1.707304e-09
1.049481e-10
-9.483494e-10
-5.409911e-10
1.489341e-09
1.615165e-09
-1.63931e-09
1.36181e-09
-1.367231e-09
-2.908839e-10
-5.303744e-10
1.717804e-09
-1.18743e-09
-2.678962e-10
1.084554e-09
-8.469914e-10
1.519861e-09
-1.604329e-09
-1.547348e-11
-1.475266e-09
1.49074e-09
1.946677e-09
-9.68126e-10
-9.785506e-10
2.631006e-10
-1.724103e-09
1.461002e-09
-8.943748e-10
1.624099e-09
-7.297243e-10
1.462167e-09
8.096046e-11
-1.543127e-09
1.188353e-09
4.273113e-10
-1.5711e-09
3.863892e-10
-1.107982e-09
1.625407e-09
-5.174252e-10
5.038385e-11
-1.444092e-09
1.800363e-09
-1.303035e-09
-1.648007e-09
1.272962e-09
3.750454e-10
-4.247522e-10
1.83494e-09
7.018759e-10
-1.68709e-09
9.852137e-10
3.018242e-10
9.294939e-10
-1.231318e-09
-1.347234e-09
1.552467e-09
-2.05233e-10
1.934576e-09
-1.304647e-09
-6.299281e-10
3.024997e-10
-1.32588e-09
1.023381e-09
-1.067025e-09
1.478364e-09
7.912166e-10
-1.739566e-09
2.007679e-09
-1.419955e-09
-5.877231e-10
1.337083e-09
-1.647215e-09
3.10132e-10
1.428891e-09
-1.539657e-09
1.107654e-10
-1.287217e-09
-1.909108e-10
1.478128e-09
1.520879e-09
-2.279631e-10
-1.292916e-09
-1.706482e-09
1.356091e-12
1.705126e-09
-1.685434e-09
7.722902e-10
9.131441e-10
-1.451276e-09
-1.56891e-11
-1.111019e-09
1.069658e-09
4.136061e-11
7.456244e-10
-1.951859e-09
-1.949685e-09