/*--------------------------------*- C++ -*----------------------------------*\
| =========                 |                                                 |
| \\      /  F ield         | OpenFOAM: The Open Source CFD Toolbox           |
|  \\    /   O peration     | Version:  2406                                  |
|   \\  /    A nd           | Website:  www.openfoam.com                      |
|    \\/     M anipulation  |                                                 |
\*---------------------------------------------------------------------------*/
FoamFile
{
    version     2.0;
    format      ascii;
    arch        "LSB;label=32;scalar=64";
    class       volScalarField;
    location    "0.38";
    object      p;
}
// * * * * * * * * * * * * * * * * * * * * * * * * * * * * * * * * * * * * * //

dimensions      [0 2 -2 0 0 0 0];

internalField   nonuniform List<scalar> 
4562
(
-1.770706e-08
5.114566e-09
-1.967083e-08
-2.132103e-08
1.929292e-06
-2.342186e-08
-9.578507e-07
-3.273582e-07
-2.338076e-07
-1.694931e-08
-9.949458e-07
1.066583e-07
-4.641091e-07
-6.095564e-08
1.671011e-06
3.284175e-08
-6.34731e-07
1.533517e-07
-9.980658e-07
-2.295418e-08
-2.824033e-06
-1.650254e-07
-6.519102e-07
-4.811992e-09
-3.955534e-09
-3.704207e-07
-3.26757e-07
-1.932835e-07
-1.882959e-06
-1.173274e-07
-1.197543e-07
1.942882e-09
-6.504525e-08
-5.956634e-07
2.796618e-07
3.503346e-07
-1.963464e-06
-1.414094e-07
-2.094646e-09
1.317539e-07
-5.402108e-07
3.988864e-08
-5.491275e-07
-3.34354e-08
-3.005167e-08
-4.962615e-07
8.408187e-09
4.12165e-08
-4.217687e-08
1.102425e-07
-3.99196e-08
-8.178054e-08
4.186798e-07
-7.031021e-07
6.028109e-08
7.60775e-08
-7.409592e-07
-1.42769e-06
-8.087462e-07
1.585992e-06
-3.152072e-08
-1.449654e-06
-5.428721e-07
9.18306e-08
-3.917971e-07
-3.812155e-07
-2.706587e-07
-6.891049e-08
-1.510773e-07
-1.534386e-07
-1.120704e-06
-1.535857e-07
3.995919e-07
-2.094451e-07
-4.880842e-07
5.489904e-07
-3.697591e-08
-1.278917e-07
-2.36409e-07
1.979877e-06
3.145156e-06
7.053179e-07
-1.613563e-06
-7.491541e-08
-7.735362e-07
-4.407797e-08
5.182303e-09
-1.588383e-07
-3.480926e-07
-2.79814e-07
-1.554707e-07
-2.352615e-08
-1.8832e-07
-3.994489e-08
-3.295554e-07
-3.622139e-07
-6.874368e-09
-2.05917e-07
-1.76847e-06
-8.577374e-07
2.562965e-08
-1.01901e-06
-9.102362e-08
-2.786097e-06
-4.549401e-08
-1.21783e-06
-3.114192e-07
3.828999e-08
-6.652079e-08
9.329042e-08
-4.177424e-07
-1.742605e-07
5.045573e-11
-1.072417e-06
-4.671598e-07
5.274543e-08
2.052047e-06
-3.675154e-07
-1.47934e-06
-2.82504e-07
3.302787e-07
-3.612577e-07
-2.697579e-08
-2.404085e-08
-6.563679e-07
-5.234512e-08
-1.864904e-07
-5.020343e-08
-1.473022e-07
7.859676e-08
1.711078e-07
-5.225852e-08
-8.272403e-07
1.502225e-08
-3.645014e-08
7.84218e-08
-1.102827e-06
-4.758125e-08
7.230104e-07
-1.481765e-09
-1.368273e-06
6.788348e-07
4.08099e-08
-1.726011e-07
-4.34484e-07
-6.978516e-08
-5.676056e-07
-6.316941e-08
-3.095622e-08
6.379381e-07
-4.990633e-08
-1.329878e-06
-9.567382e-08
1.472735e-07
-6.223094e-08
3.745758e-07
-6.377348e-08
-8.655434e-07
-2.33172e-08
-2.891112e-08
-5.050782e-07
7.679086e-07
-1.806209e-07
1.280408e-10
-1.684317e-07
1.222738e-06
6.725024e-08
3.262647e-08
-9.851654e-07
3.561472e-07
-2.545878e-06
1.024378e-07
-8.239883e-08
-1.74226e-08
-9.168864e-07
-4.389329e-08
-9.055312e-09
-4.566174e-08
-3.75613e-07
-1.793732e-07
1.369142e-08
-7.334573e-07
-6.382046e-07
2.285977e-06
-2.897787e-07
-7.467978e-08
-1.107877e-06
-7.546164e-10
-8.004268e-08
-4.690072e-07
-2.112015e-06
-8.670432e-07
1.439581e-07
1.725211e-08
-4.871534e-07
-1.689923e-07
-8.002904e-07
-7.134999e-07
3.553689e-07
3.251399e-09
-5.954286e-08
-3.811461e-07
-2.748383e-08
-3.98128e-07
-1.130486e-06
-2.023666e-08
5.577875e-07
8.184491e-08
4.614166e-07
-2.571954e-07
7.437996e-09
-8.660912e-07
-4.20652e-08
1.387476e-08
6.367894e-08
3.742718e-07
-1.991451e-08
6.328488e-10
-1.209075e-07
-4.26571e-07
-1.17036e-08
-1.683458e-06
3.056926e-07
7.440691e-08
-1.188069e-06
-6.848122e-07
-9.665199e-07
-9.575314e-07
-8.96673e-07
-4.952246e-07
-3.085149e-09
-5.769913e-07
1.736315e-07
-5.046453e-07
-1.721387e-07
-1.071891e-06
-7.190432e-07
-6.998281e-07
3.270031e-07
-3.241746e-07
-3.50449e-07
-2.286085e-07
-4.455057e-07
-2.20005e-07
-4.398237e-09
9.433829e-07
-2.080742e-07
-1.09009e-06
-6.070589e-08
-1.40624e-08
-4.671049e-08
-1.108173e-07
-4.609892e-08
-5.002616e-08
7.869526e-08
4.732505e-08
-2.794708e-09
-6.704206e-07
-3.565639e-07
-1.432258e-06
-6.895463e-07
-1.734429e-07
1.827533e-07
-1.121718e-09
2.019608e-07
-9.496102e-08
1.335659e-08
1.103002e-07
-1.722765e-08
-1.830285e-08
4.536408e-10
-5.320025e-08
-2.953473e-07
6.75867e-07
9.877353e-07
-1.456382e-08
1.083665e-08
-1.568066e-08
1.127569e-07
1.129723e-06
-2.708799e-07
-1.757778e-08
-3.385465e-07
-2.36706e-07
-1.33099e-06
4.034144e-08
9.388928e-08
-6.690248e-08
-4.856516e-08
-1.063431e-06
-2.739849e-07
-6.310443e-08
-8.496258e-07
-2.433661e-07
-3.922362e-08
-9.598276e-07
-6.219066e-07
-6.919639e-08
-1.604147e-06
9.398479e-07
8.9695e-08
-1.322296e-07
3.377107e-08
-1.832112e-07
7.112066e-07
-1.706943e-06
-1.96714e-06
3.863886e-08
-4.351272e-07
-4.66029e-07
-2.506458e-07
1.977988e-07
-4.187698e-07
-1.615116e-06
-2.077708e-07
3.364269e-08
-7.613135e-09
-2.155338e-08
1.621922e-07
-1.85947e-08
-4.554612e-08
2.125331e-06
-2.885822e-08
-6.061412e-08
-1.934492e-06
-3.619586e-07
-1.0384e-06
-3.770849e-07
-8.771634e-08
-5.909566e-07
5.071224e-08
1.523939e-07
-2.04359e-08
1.093849e-07
-1.113954e-06
-1.202369e-06
-4.875672e-08
-7.251805e-07
-4.574789e-07
-1.030991e-06
-2.376869e-07
-1.361154e-07
-9.009467e-07
-5.136446e-08
-6.667841e-08
6.525312e-09
1.426629e-08
-4.004025e-07
-9.228004e-07
-1.872619e-07
-2.555694e-07
-2.382067e-07
-3.326668e-08
-1.058295e-07
-1.997104e-08
-3.106749e-07
-9.583613e-08
-4.333589e-09
-4.700426e-07
-7.513345e-08
-9.993224e-08
-2.500158e-08
1.429477e-08
1.743969e-07
-1.596326e-07
-4.036227e-07
-2.228011e-07
-3.77712e-07
-3.040726e-07
-2.01684e-07
-5.143472e-07
-5.350424e-07
-4.842611e-07
-1.388079e-06
1.94365e-08
-2.715855e-08
-6.924691e-07
-2.630016e-06
-1.13482e-07
-1.111657e-07
-5.823824e-08
-9.946622e-10
-7.625291e-07
-2.164207e-08
4.311248e-08
-1.561435e-06
-1.354719e-06
-1.559578e-08
-8.249958e-08
-1.868801e-07
-1.430148e-07
-1.791352e-07
1.604976e-08
3.080834e-09
1.209688e-06
1.119583e-06
-7.980021e-07
-1.393005e-06
-2.928551e-08
-7.320272e-07
-1.191545e-06
-3.642219e-06
-6.694787e-07
1.967227e-08
1.670647e-06
1.11524e-08
-3.258098e-06
-1.282886e-06
-2.893375e-06
-5.198125e-08
-1.692408e-07
-4.321821e-08
-5.899265e-08
-2.774401e-07
-9.363826e-08
-1.362754e-08
-7.536745e-07
-6.182212e-08
-2.654235e-08
-1.196886e-07
-1.103443e-07
-1.720312e-07
-5.418579e-07
-5.3087e-07
6.387318e-08
-1.065988e-07
1.702199e-08
-4.916807e-07
-4.377322e-07
-1.849113e-07
-1.42062e-07
-3.619837e-07
-7.704359e-07
-4.397283e-07
-4.168917e-07
1.820506e-07
2.237026e-08
-7.448567e-08
-8.85663e-07
-6.477498e-07
-3.741218e-08
8.770264e-09
-1.21926e-06
-7.860968e-07
1.230483e-06
-5.652908e-08
-5.927254e-07
3.428933e-08
-2.393764e-07
-7.614299e-08
-3.282954e-07
-6.576206e-09
-3.270447e-07
9.336828e-08
6.305914e-09
-8.939463e-08
-4.796332e-07
-5.860713e-07
-3.040782e-06
1.027519e-07
7.491034e-07
-7.788272e-08
-1.920845e-07
-1.158902e-06
-1.319185e-06
-3.113585e-08
1.923052e-08
-5.722796e-08
-3.086548e-07
-3.743685e-07
-1.058867e-07
-3.229257e-06
-2.107917e-07
-1.112732e-07
1.166209e-06
-3.878883e-07
-1.265501e-07
-4.626792e-07
-4.841739e-07
-3.691009e-07
-5.603747e-08
-8.159346e-07
-2.95407e-07
1.732926e-06
-3.749889e-08
5.655742e-07
1.663199e-07
-2.630317e-07
-3.906922e-07
2.580213e-08
3.63519e-09
2.111111e-09
-1.222545e-07
-2.234381e-07
-1.473106e-06
3.641964e-08
-1.517779e-07
6.026662e-09
-4.274897e-07
-2.066462e-07
-8.736765e-08
4.790882e-07
-2.041312e-07
-7.882582e-07
-1.017098e-06
-1.116847e-06
2.904553e-07
-8.233694e-07
-2.585234e-07
-4.149145e-07
1.558701e-07
-2.82843e-07
-2.237438e-07
2.517843e-07
-1.774371e-07
1.928632e-07
1.139554e-06
-1.531063e-07
9.834494e-07
8.614672e-08
2.062783e-09
-1.209095e-06
1.369469e-07
-8.321233e-07
4.626221e-08
-3.98122e-07
-5.910601e-07
3.174294e-07
1.373008e-08
-8.763699e-07
-1.176535e-06
-2.006945e-06
-4.081103e-07
-9.510244e-07
-8.97985e-09
-5.546072e-07
-3.772817e-07
7.543199e-08
-4.708675e-07
-3.368886e-07
1.363704e-06
-2.3499e-07
-2.926491e-07
-5.220699e-08
7.462347e-08
-2.208659e-07
-6.807023e-07
-5.394904e-07
-5.971193e-07
-1.073399e-06
-8.4268e-07
-1.126373e-06
-6.592511e-07
-9.011926e-07
-2.98585e-07
-1.039672e-06
-1.947184e-07
2.781899e-08
4.391479e-07
1.802434e-07
-5.790821e-07
-4.528247e-08
-8.383046e-08
-9.860984e-09
-5.518292e-09
-1.012883e-07
-1.034051e-07
-1.927354e-07
-1.552079e-07
4.159559e-08
1.864369e-07
-1.61604e-06
-2.494332e-08
-8.827596e-07
8.040392e-08
6.100496e-08
-1.261788e-07
-6.477258e-08
-1.135739e-07
-1.497312e-07
-2.299195e-07
-4.397792e-07
-2.836568e-08
-1.656223e-07
-7.235446e-07
3.299043e-09
-1.962573e-08
-5.919686e-07
-4.665085e-08
-4.910581e-07
-1.209588e-06
2.713757e-06
-1.148823e-06
-1.160276e-06
-2.264241e-06
-1.690337e-06
-7.390926e-07
-1.342492e-08
-4.784034e-07
-2.553545e-08
-1.018277e-06
-1.606432e-06
-2.021036e-07
-1.3006e-07
3.446506e-07
-7.148889e-07
-3.862503e-07
-2.120172e-08
-5.721239e-09
5.256962e-07
-1.482745e-07
-2.217349e-08
4.971477e-07
9.677863e-07
4.951756e-08
-2.452654e-06
-4.251298e-07
9.89582e-07
-2.148355e-07
8.841928e-08
1.166053e-07
-8.190725e-09
3.936236e-08
3.091964e-08
-5.474079e-08
9.867617e-08
-5.77425e-08
-7.323741e-09
1.280952e-07
-5.481905e-07
-6.351943e-07
-1.920261e-06
-2.603376e-08
-4.375362e-07
-1.691104e-07
-1.303087e-06
2.949974e-08
-5.905882e-07
-8.063461e-07
-1.503309e-06
-4.5999e-08
4.776652e-09
-1.2004e-06
-1.508522e-06
1.247544e-07
-1.945637e-09
-2.06157e-07
-4.766672e-08
-6.663341e-08
-7.323791e-09
-5.916554e-07
-6.499692e-07
-6.865942e-07
-7.22137e-07
-2.30007e-07
-6.915775e-07
-3.230977e-07
-4.531471e-08
-1.585747e-08
2.515645e-08
-8.750715e-07
-6.709262e-09
-2.435243e-08
-1.15884e-08
-2.918305e-09
6.593199e-08
8.718002e-08
4.651314e-09
2.273873e-06
-1.477699e-07
-9.778948e-07
-3.880982e-08
5.384133e-09
9.804104e-08
-3.21763e-07
-1.015943e-06
4.123717e-08
1.242856e-08
6.851799e-07
7.045346e-07
-1.191601e-07
-8.064574e-08
8.229755e-09
-7.814922e-08
-4.16112e-08
1.114648e-08
-5.226469e-07
-2.9072e-07
-1.982604e-08
-8.271835e-08
-9.778212e-08
-8.505816e-08
3.139707e-09
2.958339e-07
-5.561456e-07
-7.417697e-08
1.342179e-07
-3.398945e-07
1.205207e-08
5.926249e-07
-1.05848e-06
8.278216e-08
9.453299e-08
2.268408e-08
-7.808112e-09
-2.299061e-07
-2.64911e-08
1.091618e-07
-1.30075e-08
6.092432e-08
-2.309986e-06
-1.443457e-06
-1.496313e-06
-2.669194e-07
-5.846929e-07
-1.313176e-07
-2.848977e-06
2.794511e-08
1.356771e-07
1.9845e-07
-5.070539e-07
-3.050223e-07
-3.806617e-07
-1.638837e-06
1.816478e-07
4.46642e-09
2.040726e-07
-1.693635e-07
3.95819e-07
1.532234e-06
5.947941e-07
-4.064215e-09
-3.144522e-07
-8.799197e-08
-8.598157e-07
2.469836e-06
-1.074756e-06
1.311877e-08
4.754937e-07
-3.619733e-08
1.886762e-06
-6.246786e-09
-5.78335e-07
-3.893985e-09
-4.130906e-08
7.756598e-07
-1.127454e-06
3.50763e-07
-9.776002e-08
1.250507e-06
2.420837e-08
6.861764e-07
-2.225142e-07
-2.81744e-07
6.446829e-08
1.533722e-08
-2.49424e-07
-4.186506e-07
-5.967481e-09
-1.601652e-07
1.341724e-08
-2.252738e-07
-4.457827e-07
-3.886221e-07
-3.456456e-07
7.08789e-08
-9.083784e-07
8.350042e-08
-5.587608e-07
1.629564e-08
1.025502e-06
-6.388901e-07
-3.64882e-08
2.752189e-09
-5.682278e-07
-6.536578e-07
-7.126703e-07
-8.914899e-07
-1.024473e-06
-1.480739e-06
8.110809e-07
6.730179e-07
-8.596123e-07
-8.446709e-09
-6.666737e-08
6.267158e-08
-6.755878e-08
-2.691632e-07
-3.527781e-08
4.050743e-08
-2.364106e-08
-2.409336e-06
-2.23259e-08
-2.335847e-08
-8.296348e-08
-9.489742e-09
-1.278808e-07
6.431319e-07
7.125181e-07
1.013072e-07
-4.347795e-07
1.034921e-07
-3.201288e-07
-2.152693e-07
-4.459698e-07
-6.369075e-07
-7.454334e-07
-1.126465e-06
-4.114661e-08
-1.064736e-06
-1.087473e-06
-9.634712e-08
2.867366e-08
-1.085021e-07
-4.350844e-07
-7.104277e-07
-4.240721e-07
6.027727e-08
-1.881574e-07
-4.61996e-07
-1.221909e-07
4.339869e-07
-1.25234e-07
1.693257e-07
-3.666878e-07
-2.242392e-07
-4.427902e-07
-4.156445e-07
-1.090261e-06
-5.756147e-07
-7.103187e-09
-1.078712e-07
5.004696e-08
4.849745e-08
1.091232e-06
-2.437223e-07
-3.493415e-07
-1.689825e-07
1.957107e-08
-4.30512e-08
-2.07151e-07
-1.190254e-07
-1.244348e-07
-1.143406e-06
-7.823982e-07
-2.197607e-07
-6.50099e-08
3.929665e-08
3.210741e-07
5.452214e-08
-1.340442e-06
-3.957346e-07
1.857084e-07
2.596816e-07
2.390776e-07
-2.544534e-07
-9.173648e-10
1.903932e-06
1.787559e-08
2.897525e-08
-1.18869e-06
2.314497e-08
-5.458489e-07
-4.698587e-08
3.872804e-07
-2.731545e-08
3.377106e-08
-8.590188e-07
2.911048e-08
1.886581e-08
3.387705e-08
1.770975e-07
-4.607521e-07
-6.205054e-07
-6.309008e-08
-7.009974e-07
-1.84544e-07
6.060224e-08
-3.811356e-07
6.454155e-08
-1.454744e-07
6.195498e-07
-2.14179e-07
-1.469674e-06
-7.492481e-09
-5.445608e-07
-9.187683e-07
-5.899976e-07
-1.253511e-06
6.624376e-09
-8.742429e-07
-2.535637e-07
-3.906921e-07
-4.27854e-08
6.641174e-08
-3.417682e-07
-5.639797e-07
-7.969609e-07
-1.647582e-08
1.577803e-07
-1.654851e-06
-9.675642e-08
-5.563661e-07
-2.950359e-07
-2.771998e-07
4.179294e-07
4.006222e-08
-4.642011e-08
-1.085751e-07
-8.241142e-07
-2.069181e-07
-2.334102e-07
-2.628299e-07
-2.502054e-07
-1.565831e-07
-2.031504e-07
-2.454667e-07
-2.164964e-07
-3.840245e-07
-1.76544e-07
1.642237e-08
-2.793668e-07
-1.50222e-07
-2.575865e-07
-2.791774e-07
3.444942e-07
2.236865e-07
5.687528e-08
-3.311388e-07
-7.274664e-08
-6.497562e-09
-9.916194e-07
-1.684276e-07
-5.619584e-07
-4.701621e-07
1.063409e-06
-1.988536e-08
-8.47075e-08
-1.23536e-07
-1.919354e-06
-2.095706e-06
-2.248374e-06
-2.271658e-06
4.577497e-07
1.1164e-07
1.717868e-07
1.897668e-08
7.306018e-09
-8.273838e-07
-8.345828e-07
-3.083014e-08
-1.633562e-06
-1.028526e-06
-1.91608e-06
-1.985815e-07
-1.255308e-07
3.989791e-07
5.762576e-07
-6.239914e-07
-1.17885e-06
1.538625e-08
-4.77512e-08
-5.658883e-08
-1.106169e-06
1.459483e-06
2.970962e-07
-5.31746e-08
3.305549e-07
-2.383673e-06
-1.40023e-06
1.039558e-06
-4.989833e-07
-2.318174e-08
1.01054e-06
-3.295254e-09
1.33646e-07
-8.253765e-07
-8.848155e-07
-7.453809e-07
1.491375e-08
-1.083413e-07
-2.795541e-07
-3.177356e-07
-1.671507e-07
-1.433017e-07
-2.234769e-07
-2.394634e-09
-2.348064e-06
-1.957566e-06
-2.521589e-06
-7.905005e-07
-1.482971e-07
-1.036788e-07
1.978038e-08
-1.596887e-07
-9.005755e-07
1.214119e-07
-1.160275e-07
-9.529348e-07
-8.517949e-07
-1.29389e-06
-1.600908e-07
-2.147616e-07
-2.798294e-07
-1.583182e-06
7.569591e-07
-3.274314e-07
2.189511e-07
-2.985103e-07
-3.589459e-07
-6.76543e-07
5.77868e-09
7.268144e-07
9.673038e-09
-1.285931e-08
-1.213762e-06
-2.330428e-08
2.173907e-09
-7.958759e-08
-5.9725e-08
1.486441e-07
9.53265e-09
-3.110943e-07
-4.536675e-07
-4.659619e-07
-1.981584e-07
-8.562454e-07
2.995298e-08
1.612302e-07
3.8738e-09
-1.175502e-07
-1.876707e-08
-1.144737e-07
6.608084e-09
-9.827563e-07
-1.084931e-06
-2.632134e-07
-1.391312e-08
1.476694e-09
-2.387003e-06
-2.435539e-06
-1.778625e-06
-1.429107e-06
-1.487667e-07
-8.856557e-08
-1.16468e-07
-1.263567e-07
-6.559609e-08
-6.835924e-08
-7.834835e-08
-2.429192e-08
-3.041075e-07
-2.168872e-06
6.752593e-07
-5.664513e-08
-4.244996e-08
-1.903425e-08
-3.973555e-08
-1.080619e-07
1.51108e-07
-7.587314e-08
5.740702e-08
-5.945074e-07
-2.045195e-08
1.46396e-08
-2.866012e-08
-8.06541e-07
-9.188633e-08
2.334919e-06
-1.434391e-08
3.475665e-08
4.916956e-08
-1.310991e-06
-1.454301e-06
-1.096341e-06
-1.115561e-06
-8.022101e-07
-5.980264e-08
-2.457193e-07
-2.00453e-06
-2.019392e-06
-2.05904e-06
1.324931e-08
-1.005088e-08
-4.728015e-08
-1.565586e-07
-2.154893e-07
-7.231749e-07
-7.27908e-09
-1.40191e-06
-1.821561e-06
-7.168679e-07
-8.408854e-07
-4.404303e-08
-2.283474e-08
-3.519387e-08
-7.445483e-07
-4.339967e-08
-9.569657e-07
2.288136e-07
8.413564e-09
-2.064964e-08
2.41112e-08
1.315146e-06
-5.912347e-08
-1.969245e-08
1.651922e-07
-4.209851e-09
-2.479942e-06
-2.759181e-08
-1.940196e-08
7.735218e-08
9.893401e-08
2.417274e-07
-4.946421e-07
-4.314989e-07
-7.193725e-08
-1.067467e-07
-1.216333e-07
-8.571319e-07
5.869271e-08
-2.917944e-06
-3.35262e-06
1.386698e-08
2.307205e-08
4.408244e-08
-3.097222e-07
9.651787e-09
1.224928e-09
2.781295e-08
-1.082962e-06
-1.630379e-08
3.479057e-08
1.722778e-08
-8.687854e-10
-2.151566e-07
-1.525397e-07
-7.020117e-08
-9.817856e-08
-1.359657e-08
1.285105e-08
6.265944e-09
2.08701e-08
-1.98761e-07
1.411762e-07
1.550314e-07
-1.500808e-08
2.187725e-06
-1.447169e-07
-7.827459e-07
-1.009562e-06
-3.841605e-07
5.371123e-09
4.502761e-08
1.9399e-06
1.925303e-06
-7.461171e-07
5.672605e-07
1.790982e-07
-8.235485e-07
-3.0348e-08
-4.688792e-08
-1.307031e-08
2.743431e-07
3.527802e-08
-2.115801e-07
-6.484186e-08
-8.387001e-08
1.576643e-08
-9.992677e-07
-2.662828e-08
-1.219651e-06
9.301928e-07
-9.880685e-09
-3.499257e-07
-7.082771e-09
-2.744787e-07
-2.352297e-07
-1.615751e-07
-2.090735e-07
-6.153022e-07
-2.478263e-08
-3.978192e-07
-3.527672e-07
-3.197704e-07
-7.073125e-09
-3.59048e-08
6.609428e-08
-2.678396e-08
1.670107e-08
-6.890164e-07
-7.07579e-07
-5.715979e-07
-2.946762e-08
2.705233e-08
-3.191434e-07
2.716446e-08
-8.320427e-07
-7.444853e-07
-7.01048e-07
-1.187784e-06
-1.102268e-08
4.175219e-08
-8.288411e-08
-1.071583e-06
-1.140072e-07
1.895071e-07
-4.845705e-07
-7.090601e-07
1.847123e-07
3.676371e-07
9.707924e-08
-7.39253e-07
-7.939771e-07
-4.678916e-07
-8.687904e-07
-1.552876e-07
4.416119e-08
3.623058e-07
3.100744e-07
-6.860724e-07
-2.132146e-07
-7.787796e-07
-6.440066e-07
-7.953137e-07
-8.985268e-07
-4.833967e-07
-1.339891e-06
-3.690339e-07
-9.145571e-07
2.6679e-07
7.487598e-08
-1.286778e-06
-1.441463e-06
1.968928e-07
-9.82581e-08
-2.024648e-07
-5.50952e-08
-1.638761e-07
-3.398444e-08
4.376331e-08
1.89675e-08
-1.340323e-07
-1.795697e-07
-8.383137e-08
-2.998662e-07
-2.921502e-07
-3.352239e-07
2.75931e-07
2.718317e-07
3.814494e-07
-8.664063e-07
-8.427938e-07
1.06914e-06
1.00322e-06
1.100435e-06
1.117185e-06
9.482021e-07
1.234796e-08
1.771033e-08
4.572005e-09
-4.109799e-08
7.597401e-07
-2.728834e-07
-2.70157e-07
-1.880106e-07
-1.837563e-07
1.374762e-06
-1.587959e-09
-2.67794e-08
-3.815922e-08
4.005715e-08
1.406824e-07
-2.86978e-07
-2.233573e-07
1.898782e-07
-2.17337e-07
-3.578616e-07
-4.176199e-08
-1.246807e-08
4.214026e-08
-9.00341e-08
9.676195e-07
-1.424267e-06
-1.077778e-06
2.215137e-07
-4.143578e-07
7.992231e-08
5.969198e-07
4.958417e-07
4.577961e-07
-5.900266e-07
-1.414556e-06
2.480108e-07
-6.325455e-09
-1.502236e-07
-1.109908e-07
-1.826571e-07
3.285995e-06
-1.214158e-06
-6.973733e-07
1.953586e-08
9.191009e-08
6.37139e-07
-2.504937e-06
1.7123e-08
-1.524751e-08
-1.991353e-08
-7.695087e-07
-1.059126e-07
-9.606241e-09
-3.396781e-07
-8.573643e-07
9.077791e-07
-2.446974e-06
5.161015e-09
-3.272089e-08
-9.289498e-08
-1.353009e-07
-1.543643e-07
-1.391282e-07
-1.246562e-07
-6.697528e-08
-9.628522e-08
-1.1292e-07
-2.216434e-08
-6.482933e-07
-6.631981e-07
-6.474736e-07
-2.158652e-07
-1.097915e-08
-1.865962e-08
3.725308e-09
-1.849727e-08
-4.214557e-08
-1.814742e-08
-1.888822e-08
-5.320928e-08
-1.896064e-08
7.658803e-08
-1.78851e-07
7.297393e-09
-2.361045e-08
5.55052e-08
5.954974e-08
-1.542284e-07
2.019553e-07
3.766473e-09
-2.477391e-07
-2.632967e-08
-1.712613e-06
-1.061776e-08
-2.900565e-07
-8.246263e-07
-4.861842e-07
3.350844e-09
-8.951186e-10
-3.789439e-07
-4.875344e-07
-4.25033e-07
-3.932501e-07
-5.28073e-07
-4.76893e-07
-4.147495e-07
-3.29908e-07
-4.46742e-07
-5.832008e-07
-4.557325e-07
-4.381158e-07
-5.19407e-07
-6.66506e-07
-6.220381e-07
-5.189089e-07
-9.487481e-07
-1.122741e-06
5.592427e-07
-3.790415e-08
-2.341095e-08
1.972774e-08
5.538281e-09
8.540693e-08
-6.685075e-07
-4.835228e-07
-4.651876e-07
-4.023563e-07
1.535121e-08
-5.152977e-09
2.98782e-09
2.526236e-07
-1.361354e-07
-4.509914e-07
-1.838089e-07
-1.104918e-07
4.658117e-07
-3.089785e-07
5.544956e-08
3.776115e-08
4.422559e-07
2.72103e-07
3.911665e-07
8.062157e-08
-2.646875e-09
-2.882496e-08
-1.604485e-08
-4.880879e-08
-9.130691e-08
-3.744309e-07
-2.771525e-07
1.080453e-07
-8.401409e-07
-5.630838e-08
-5.454776e-07
-1.513187e-07
-1.672899e-07
-4.023616e-07
-3.680095e-07
-2.450976e-07
3.128428e-07
-2.425021e-08
-2.280811e-08
9.592856e-09
5.289238e-07
2.773175e-07
-3.832112e-07
9.599355e-09
-1.345165e-07
-7.269687e-08
-2.160279e-08
-1.179429e-08
-2.018618e-07
-1.029234e-07
-1.382665e-06
-3.298541e-07
-3.715244e-07
-5.938543e-07
-5.861042e-08
1.842952e-08
-1.964734e-06
-1.197461e-06
1.426845e-06
1.182556e-08
2.190858e-07
3.683038e-07
-1.125195e-07
-7.852312e-08
-1.329183e-07
-1.170902e-07
-1.186562e-07
-1.674126e-08
-2.399267e-07
-4.97166e-07
-7.697388e-07
-2.427566e-07
5.073733e-07
2.380824e-07
-8.037705e-07
-5.473923e-07
-7.470093e-07
-6.7458e-07
-9.552084e-07
-9.674638e-07
-1.869797e-06
-1.033898e-07
-1.907634e-07
-2.152114e-07
-2.296658e-07
-2.08055e-07
-3.451127e-07
-2.995632e-07
-2.325216e-07
1.558875e-07
-8.438564e-07
-9.761992e-08
-2.810331e-07
-2.770539e-06
-3.826283e-08
-4.370073e-07
-5.420617e-08
-4.887582e-07
2.794745e-09
1.062099e-08
-5.114007e-07
-5.91058e-07
-5.59431e-07
-1.420299e-08
2.844055e-08
-6.067704e-08
-2.876967e-07
1.855241e-07
-4.207516e-08
-1.745227e-08
2.965129e-09
8.254718e-07
2.349335e-07
9.976332e-08
-1.817808e-07
-1.281932e-07
-7.965518e-08
4.930511e-08
-1.563381e-07
-3.308344e-07
-2.878916e-07
-1.285024e-07
-1.057227e-07
-2.763295e-06
-3.899187e-07
-5.762667e-07
1.498812e-07
1.945058e-07
5.951876e-07
2.488935e-08
-2.70933e-06
6.733458e-07
-3.469198e-08
-4.957831e-07
-5.876826e-07
-4.368878e-07
-2.809668e-07
-3.969299e-07
-4.73851e-09
-1.232141e-06
-2.005757e-06
-9.161824e-07
6.946915e-07
5.276452e-07
-2.144872e-06
-1.959659e-06
-8.161855e-08
-1.26575e-09
-7.356016e-08
-6.956738e-08
-3.417649e-08
3.070442e-08
-3.395927e-07
-9.12919e-07
-2.488038e-09
-3.30667e-08
-2.044241e-08
4.218492e-08
7.535835e-09
-2.119381e-07
-1.121495e-07
1.840217e-07
2.749547e-07
-2.503469e-07
-8.905475e-09
-1.546062e-07
-1.682852e-07
-2.638056e-07
-1.234693e-06
2.827555e-08
1.454243e-09
-9.901443e-08
-7.536848e-08
1.806191e-08
4.991791e-08
9.389235e-08
-8.904513e-07
-1.56376e-06
-4.602944e-08
-1.311847e-06
-1.4029e-09
1.369152e-09
-5.374011e-08
-5.97842e-07
-3.740321e-08
-4.803495e-08
-6.506375e-08
-3.178e-07
-1.016939e-07
-2.326075e-08
-9.274339e-08
-2.121825e-07
-7.962391e-07
-7.265566e-08
-6.38501e-08
-3.448635e-08
-3.039115e-06
-3.053385e-07
-3.330921e-07
-3.047798e-07
-3.553951e-07
-1.547505e-07
-1.572344e-07
-2.163326e-06
-1.278357e-06
-1.804376e-06
-1.422397e-06
-8.783557e-09
-2.890171e-09
-1.256614e-06
6.205535e-09
2.924113e-08
-2.153628e-07
-2.345665e-07
-2.953636e-08
2.300166e-08
5.448025e-08
4.163283e-08
4.780237e-07
-1.106653e-07
-1.436809e-08
3.266724e-10
-1.719219e-09
-7.402634e-07
-1.910791e-07
-1.693448e-07
-8.941702e-07
-1.74615e-06
-1.776125e-06
-2.319636e-06
-6.432381e-07
8.177735e-09
-1.71492e-08
1.786323e-08
-1.689773e-08
-1.259161e-07
2.237962e-07
-6.128771e-07
2.155704e-08
-1.820174e-08
-9.364325e-07
-1.051461e-06
-3.665428e-07
-3.308786e-07
-7.305949e-07
-5.08962e-07
-4.620431e-07
-4.643604e-07
-4.458698e-07
-5.776301e-07
-6.301991e-07
-4.250474e-07
-4.816302e-07
-4.967822e-07
-4.66551e-07
-4.60885e-07
-4.592497e-07
-4.687418e-07
-3.412674e-07
-4.930637e-07
-4.859221e-07
-4.943371e-07
-5.572244e-07
-5.570848e-07
-7.433555e-07
-3.919845e-07
-4.289285e-07
-4.741701e-07
-4.982851e-07
-5.262794e-07
-4.514945e-07
-3.533734e-07
-5.09918e-07
-5.56454e-07
-4.6473e-07
-4.739892e-07
-5.403366e-08
-1.32868e-07
1.577694e-08
-5.695988e-08
-4.308978e-08
-7.363147e-07
-1.133311e-08
1.585525e-08
-1.462686e-07
2.286427e-07
1.078492e-07
1.766709e-06
1.629407e-06
-2.919007e-07
-1.172943e-06
-1.205043e-06
-2.534335e-07
-3.889584e-08
-7.826611e-07
-1.558977e-06
3.395139e-08
-7.481978e-08
-2.611218e-06
-2.052207e-06
-2.968665e-08
-3.527824e-07
-6.680759e-07
1.406733e-08
-3.591033e-07
1.377324e-06
2.667571e-09
-6.625636e-07
-6.179482e-07
-3.338169e-08
-2.587741e-07
-1.743875e-07
6.894747e-09
-1.588016e-08
-8.111406e-07
1.105898e-08
-1.310635e-08
1.379833e-08
-5.146399e-08
-1.701885e-06
-1.704955e-06
7.852458e-07
1.094658e-06
-1.796506e-06
-1.855173e-06
-1.513794e-06
-9.470371e-07
5.022727e-09
6.320902e-09
-1.386296e-07
-1.260684e-06
-2.103632e-07
-7.457815e-07
-1.014468e-06
-2.519664e-07
-3.878401e-07
-2.863005e-07
-8.938855e-07
4.094417e-08
2.177164e-07
-9.920651e-07
4.036514e-07
5.275818e-07
-1.230955e-09
-3.943027e-07
-5.136723e-07
-6.614952e-09
9.10093e-08
1.111628e-08
1.132173e-06
7.287751e-07
6.647025e-08
2.084974e-08
-4.007711e-07
-1.045023e-06
-8.451336e-07
2.824184e-09
-8.700269e-08
-7.362484e-08
-1.166181e-07
9.106997e-08
-1.380339e-07
-3.852631e-08
-1.254057e-06
2.354138e-09
-4.240381e-07
-5.188674e-07
-4.694059e-07
-4.164311e-07
-4.87172e-07
-4.1999e-07
-5.459351e-08
-3.5736e-07
-5.274578e-08
8.728975e-09
-2.969891e-08
-1.187954e-07
-3.089066e-08
-8.231637e-07
-6.246549e-07
-4.862598e-08
-4.039507e-07
-2.463356e-07
2.954045e-07
-1.312835e-06
1.027468e-07
1.199686e-07
-1.281766e-07
-2.218492e-07
-2.558448e-07
5.323673e-07
1.367752e-08
-4.617738e-07
1.495184e-06
-7.434259e-07
-1.027542e-06
-7.60881e-09
-5.037308e-07
-1.321497e-07
-7.786352e-07
-5.150051e-07
2.503311e-08
-1.254501e-06
-8.749878e-09
-4.232823e-09
-2.773854e-08
1.855423e-08
2.097953e-07
2.414618e-07
9.205717e-08
-7.750913e-07
-8.110699e-07
7.874372e-07
-3.456466e-08
2.120653e-08
-6.547943e-07
2.116206e-07
-8.146121e-08
2.135776e-08
8.684166e-08
-7.392421e-07
-7.469687e-09
3.488497e-08
5.125355e-08
-5.526748e-07
-2.913581e-07
-8.023495e-07
-1.258485e-07
-1.226177e-07
1.754226e-07
-1.678799e-06
-2.004762e-06
-1.123513e-06
-4.649519e-07
-1.674285e-08
-5.424366e-07
-3.715605e-07
-3.804897e-07
-5.509422e-07
-3.338106e-07
-2.576137e-06
-2.687645e-06
-2.292705e-07
8.487431e-08
-1.871194e-06
-1.636798e-06
-2.191454e-06
-3.027846e-06
-3.554051e-08
-1.759748e-06
-9.329381e-08
-1.147965e-07
-7.026153e-08
-1.031652e-07
-9.060489e-08
-1.069549e-07
-6.476918e-08
1.00199e-06
-5.656784e-07
-3.465922e-07
-3.778659e-07
-3.177025e-07
-3.868929e-07
-1.013513e-07
-1.084393e-07
2.309824e-08
-1.155774e-07
-9.980804e-08
3.621491e-07
-3.536512e-07
-1.817475e-07
-5.190968e-08
-9.101137e-07
-2.804605e-07
-3.14863e-07
-1.824833e-07
-3.495518e-07
-2.80502e-07
7.482198e-07
-1.393881e-08
-1.850914e-07
4.321641e-07
9.473992e-08
6.950871e-08
-3.583795e-06
-8.938583e-07
2.035916e-07
-7.333788e-08
1.303001e-07
-3.603412e-09
-1.446477e-06
-1.085945e-07
-2.10947e-08
-1.208793e-07
-2.50651e-08
-3.153494e-08
-6.939053e-07
-6.678003e-07
-1.324445e-08
8.985115e-07
5.604643e-07
-1.485555e-07
-1.641533e-06
6.376493e-10
-1.830906e-07
-3.373006e-09
1.246173e-08
-1.152502e-06
1.831762e-08
-2.369667e-06
4.638556e-07
-2.906183e-06
-2.691959e-06
-3.55782e-07
-3.248494e-07
-1.304202e-06
2.296852e-08
6.867387e-08
-9.409543e-07
-1.30451e-06
-7.626914e-07
-2.223429e-07
7.563504e-08
-7.82399e-08
-5.405101e-09
-1.764644e-06
3.526576e-09
-1.472806e-06
-2.123208e-07
-2.959806e-07
-1.311998e-06
-1.161951e-06
1.449688e-07
3.997288e-08
-3.448827e-08
-1.129045e-07
-4.18639e-08
-2.466431e-08
-1.749392e-06
8.784577e-08
-3.265313e-07
-6.185232e-07
3.845413e-09
2.175855e-07
2.057714e-07
-1.430725e-07
-2.288545e-06
-8.018266e-07
-2.441321e-07
-2.250067e-07
2.591119e-08
2.350706e-08
2.564516e-08
-3.507053e-07
-7.42344e-08
1.969892e-07
7.364984e-07
-1.673965e-07
-3.480629e-07
-1.085381e-06
-1.739711e-07
-3.292103e-08
-4.471312e-07
-1.560968e-08
-6.459389e-08
-1.282342e-08
-8.278101e-10
2.043414e-08
-1.025989e-06
-8.305879e-07
-2.114968e-07
-8.524284e-07
-9.728138e-07
1.023461e-07
-1.014828e-06
-6.083845e-07
-3.157855e-07
6.250831e-07
-1.177548e-07
-1.10501e-07
-2.154285e-07
-1.740719e-07
-4.666443e-07
7.671493e-08
-1.567747e-07
-1.754487e-07
-1.059149e-06
-7.683641e-08
-4.415648e-08
-2.033341e-07
-1.745164e-07
2.5209e-07
1.097297e-07
-6.327781e-07
-9.352823e-07
7.292165e-09
-1.774012e-06
-1.648561e-06
-2.866466e-06
-3.389536e-06
-6.312002e-07
-3.253931e-07
-1.269346e-07
-1.554873e-07
8.932676e-09
-9.762069e-08
1.307912e-06
-6.523607e-08
-3.305822e-08
-3.812029e-08
-4.854983e-08
-5.581018e-08
-4.178169e-07
1.725328e-07
5.173338e-08
-4.999824e-07
-2.863354e-07
-3.073987e-07
-2.439892e-07
-1.579371e-07
-2.169867e-07
2.542289e-07
2.661002e-07
-1.436663e-07
-5.105779e-07
3.709518e-07
-8.148932e-07
-1.20321e-06
-9.008068e-07
-4.361685e-07
-2.350221e-06
-3.016952e-07
-2.341093e-07
-2.630524e-07
-3.675906e-07
3.18965e-08
5.321133e-09
-1.018752e-07
-1.564723e-07
6.628378e-09
8.31325e-09
-8.859018e-08
-7.6677e-09
-4.690612e-08
6.193166e-08
1.204005e-07
-5.884076e-07
-6.165448e-08
-3.086371e-08
-1.297438e-07
1.26513e-07
-1.023636e-06
-1.078663e-06
-1.094304e-06
-8.066329e-07
-1.153686e-06
-1.162063e-06
-1.145218e-06
-1.152104e-06
4.337632e-09
-1.114992e-07
-8.36301e-07
-1.162208e-06
-7.846238e-07
-6.640172e-07
1.254216e-09
-8.685773e-08
-1.447525e-07
-1.111439e-07
-8.366802e-08
-1.312312e-07
-1.012344e-07
-1.278317e-07
-1.898498e-07
-1.031415e-07
4.290476e-09
-9.04187e-09
1.693478e-10
1.099398e-06
1.263499e-07
-5.080563e-07
-5.68756e-07
-8.015082e-07
-9.445657e-07
-2.253232e-07
-2.112894e-07
-4.347736e-07
-7.109908e-08
-1.268e-07
-1.945516e-07
8.93555e-10
1.274821e-08
-1.059805e-09
-1.745636e-08
5.403854e-08
4.9296e-07
-2.974854e-09
-6.470802e-08
-7.325943e-08
2.059325e-07
2.457193e-07
-1.158858e-07
-6.552106e-08
-1.762419e-08
1.947181e-07
-2.20997e-08
-7.339259e-08
2.570419e-07
-7.099866e-07
-7.036006e-07
-3.045762e-07
-2.386572e-07
-1.741138e-07
-1.079983e-06
-4.525274e-07
1.319054e-07
1.384081e-06
-1.129276e-07
-6.645047e-08
-1.029014e-07
-1.314723e-06
-2.885543e-08
-3.986091e-08
2.86787e-07
-1.094771e-06
-1.917407e-09
-1.675352e-07
-3.025835e-07
-2.223818e-08
-5.851077e-07
7.702955e-09
2.303479e-08
-2.468085e-07
-5.809654e-07
-1.02367e-07
-6.908947e-08
-1.198932e-06
1.075027e-07
-1.256054e-07
-1.730639e-07
3.992127e-07
1.649388e-08
4.330334e-09
-1.245675e-07
-3.632528e-08
-4.854502e-08
-6.354432e-08
7.291987e-08
-9.913187e-08
-6.155397e-07
-3.280061e-07
3.085749e-07
-4.593905e-08
-6.465825e-09
-2.561237e-08
-1.250343e-09