/*--------------------------------*- C++ -*----------------------------------*\
| =========                 |                                                 |
| \\      /  F ield         | OpenFOAM: The Open Source CFD Toolbox           |
|  \\    /   O peration     | Version:  2406                                  |
|   \\  /    A nd           | Website:  www.openfoam.com                      |
|    \\/     M anipulation  |                                                 |
\*---------------------------------------------------------------------------*/
FoamFile
{
    version     2.0;
    format      ascii;
    arch        "LSB;label=32;scalar=64";
    class       surfaceScalarField;
    location    "0.38";
    object      phi;
}
// * * * * * * * * * * * * * * * * * * * * * * * * * * * * * * * * * * * * * //

dimensions      [0 3 -1 0 0 0 0];

oriented        oriented;

internalField   nonuniform List<scalar> 
6770
(
7.230721e-11
-1.77024e-09
1.697933e-09
-1.466933e-09
3.384379e-10
1.128495e-09
-1.475334e-09
1.367315e-09
1.080189e-10
1.686313e-09
-1.012269e-09
-6.740435e-10
7.674615e-09
-6.94008e-09
-7.345345e-10
6.227761e-10
8.543479e-10
-1.477124e-09
-1.119987e-09
1.604149e-09
-4.841615e-10
-1.266586e-09
1.218052e-09
4.85344e-11
-8.820833e-10
-8.187856e-10
1.700869e-09
-1.180659e-09
1.22513e-09
-4.447108e-11
2.16287e-10
-1.275021e-09
1.058734e-09
7.45061e-10
-1.674053e-09
9.28992e-10
1.354991e-09
-1.399803e-09
4.481131e-11
1.105939e-09
-1.646693e-09
5.407547e-10
-2.377458e-10
1.854119e-09
1.821836e-09
-4.905026e-09
3.08319e-09
4.493784e-10
1.351682e-09
-1.80106e-09
-2.321133e-09
5.547056e-10
1.766428e-09
-1.288732e-09
9.768115e-10
3.119206e-10
-6.513628e-10
-1.160344e-09
1.811707e-09
-8.179028e-10
-1.034703e-09
1.852606e-09
5.552894e-10
-1.50766e-09
9.523702e-10
8.987161e-10
-1.797292e-09
8.985764e-10
1.514763e-09
-1.118035e-09
-3.967276e-10
-1.196813e-09
8.999085e-10
2.969042e-10
-1.319046e-09
-3.054679e-10
1.624514e-09
1.210585e-09
4.023371e-10
-1.612922e-09
7.796313e-10
9.565032e-10
-1.736135e-09
-1.566413e-09
8.051114e-10
1.698391e-10
-1.060268e-09
8.904285e-10
3.302428e-10
-1.389357e-09
1.059115e-09
1.886691e-09
-1.552174e-09
-3.345172e-10
1.489887e-09
-2.792128e-10
-1.210675e-09
-2.065063e-10
1.698705e-09
-1.492199e-09
-2.098728e-09
2.004101e-09
9.462782e-11
-6.590928e-09
5.028069e-09
1.562859e-09
8.089154e-10
-1.706453e-09
8.975371e-10
-2.037832e-09
1.400926e-09
6.369063e-10
-1.004477e-09
2.169011e-09
-1.164535e-09
3.101003e-09
-2.675387e-09
-4.25616e-10
1.588544e-09
-1.49609e-09
-9.245462e-11
1.736188e-09
-7.520554e-10
-9.841326e-10
-1.960547e-09
1.630852e-09
3.29695e-10
-1.589863e-09
1.008963e-09
5.809002e-10
-1.271528e-09
8.613149e-10
4.102134e-10
-1.966265e-09
1.633522e-09
3.327429e-10
-1.219844e-09
8.216344e-10
3.982098e-10
-7.908226e-10
-8.238025e-10
1.614625e-09
-5.544527e-10
-1.436101e-09
1.990554e-09
-1.579111e-09
-5.623384e-10
2.14145e-09
5.706644e-10
9.37197e-10
-1.507861e-09
-1.191342e-09
3.447207e-10
8.466217e-10
-5.903342e-09
2.459651e-10
5.657377e-09
-1.182242e-09
-4.238856e-10
1.606128e-09
1.611154e-09
7.744339e-10
-2.385588e-09
-1.530486e-09
1.027676e-09
5.028106e-10
1.464932e-09
-2.659384e-10
-1.198994e-09
-1.557151e-09
1.158109e-09
3.990427e-10
3.618857e-10
1.430077e-09
-1.791963e-09
-4.962057e-10
-2.394839e-09
2.891045e-09
-1.506857e-09
1.438119e-09
6.87383e-11
-1.168065e-09
2.823919e-10
8.856731e-10
3.79789e-10
1.296297e-09
-1.676086e-09
-3.511421e-10
-1.436454e-09
1.787596e-09
-1.655762e-09
1.841874e-09
-1.723321e-09
9.993637e-10
7.239574e-10
1.095708e-11
-1.737938e-09
1.726981e-09
1.024165e-09
-1.756791e-09
7.326259e-10
-4.988455e-11
-1.450523e-09
1.500408e-09
-1.487045e-09
9.361515e-10
5.508934e-10
-6.131225e-10
-1.011742e-09
1.624865e-09
2.185761e-09
-9.481344e-10
-1.237626e-09
1.206401e-09
6.089214e-10
-1.815322e-09
-9.085371e-10
-8.317819e-10
1.740319e-09
-3.748731e-10
1.886853e-09
-1.51198e-09
5.02056e-10
1.892135e-09
-2.394191e-09
-1.082335e-09
1.567374e-09
-4.850388e-10
-1.696865e-09
3.846879e-10
1.312177e-09
1.859004e-09
-4.320436e-10
-1.42696e-09
-1.735867e-10
3.420845e-09
-3.247258e-09
-4.766783e-09
8.338898e-09
-3.572115e-09
-1.251111e-09
-3.21641e-09
4.467521e-09
-2.087599e-09
1.42669e-09
6.60909e-10
-5.856483e-10
1.796269e-09
-1.21062e-09
-1.694616e-09
1.48811e-09
-1.07824e-09
-7.12884e-10
1.791124e-09
7.139862e-10
1.287802e-09
-2.001789e-09
-1.412234e-09
5.887454e-10
8.234887e-10
-1.49718e-10
-1.210872e-09
1.36059e-09
-1.709687e-09
3.637925e-10
1.345895e-09
-9.427394e-10
-1.122971e-09
2.06571e-09
7.275576e-10
-1.626492e-09
8.989348e-10
-1.197573e-09
-4.586665e-10
1.65624e-09
1.520418e-09
-3.290321e-10
-1.191386e-09
9.637821e-10
5.926796e-10
-1.556462e-09
1.189242e-09
-3.431519e-10
-8.460904e-10
8.046562e-10
-1.66732e-09
8.626642e-10
-1.283783e-09
1.166728e-09
1.170549e-10
6.377512e-10
-1.511592e-09
9.533953e-10
8.304884e-10
-1.783884e-09
-6.292872e-10
1.52754e-09
-8.982525e-10
-1.02703e-09
1.718793e-09
-6.917632e-10
1.650502e-09
-4.03937e-10
-1.246565e-09
-1.792703e-09
1.078079e-09
7.146238e-10
1.549726e-09
-1.247105e-09
-3.026216e-10
1.18505e-09
-1.03594e-09
-1.491102e-10
-1.338457e-09
1.208669e-09
1.297889e-10
2.093511e-09
-1.528478e-09
-5.650327e-10
9.806334e-10
-1.404962e-09
4.243286e-10
6.18483e-09
-9.530568e-10
-5.231773e-09
1.745943e-09
-4.233809e-10
-1.322562e-09
1.591226e-09
-4.959177e-10
-1.095308e-09
-9.003397e-10
1.45684e-09
-5.565002e-10
1.65539e-09
-1.254372e-09
-4.010181e-10
9.988312e-10
9.851645e-10
-1.983996e-09
1.045135e-09
6.910534e-10
-2.286758e-10
-4.518119e-09
4.746795e-09
-3.682116e-11
-1.362966e-09
1.399788e-09
-1.520409e-09
4.748469e-10
1.045562e-09
-1.295643e-09
1.087942e-09
2.077007e-10
9.653386e-10
1.669349e-09
-2.634688e-09
-6.943101e-10
1.719949e-09
-1.025639e-09
-1.542615e-09
1.681733e-09
-1.391174e-10
1.820328e-09
-1.252673e-09
-5.676551e-10
7.885205e-10
1.065302e-09
-1.853823e-09
-3.857355e-10
1.707848e-09
-1.322112e-09
5.878261e-10
-1.915072e-09
1.327246e-09
-1.260067e-09
1.635417e-09
-3.753502e-10
1.954593e-09
-9.908113e-10
-1.976142e-09
1.445282e-09
5.3086e-10
1.033402e-09
8.527233e-10
-1.886125e-09
-7.935718e-10
-5.141435e-10
1.307715e-09
1.552011e-09
-3.669614e-10
-5.529448e-10
-8.195773e-10
1.372522e-09
1.561606e-09
-4.37825e-10
-1.123781e-09
2.055175e-09
-1.025882e-09
-1.029293e-09
1.232916e-09
4.690321e-10
-1.701949e-09
-1.664228e-09
1.416014e-09
2.482142e-10
4.492677e-09
8.783526e-10
-5.371029e-09
1.529779e-09
-1.446768e-09
-8.301055e-11
-1.616664e-09
9.39719e-10
6.769445e-10
1.15586e-09
-4.962873e-09
3.807012e-09
-1.551922e-09
3.08625e-10
1.243297e-09
1.211455e-09
7.773777e-10
9.358264e-10
6.678189e-10
-1.603645e-09
1.706455e-09
-1.421698e-09
-2.847573e-10
7.264747e-10
-1.355923e-09
6.294479e-10
5.726022e-10
-1.370118e-09
7.97516e-10
1.851715e-09
-1.476086e-09
-3.756288e-10
-7.734467e-09
1.831125e-09
2.209815e-10
1.074244e-09
-1.295226e-09
-1.154346e-09
7.18856e-10
4.354898e-10
6.136065e-10
9.630246e-10
-1.576631e-09
7.458636e-10
8.795558e-10
-1.625419e-09
1.543855e-09
-9.655448e-10
-5.783098e-10
-3.480646e-11
2.639556e-09
-2.60475e-09
-1.695672e-09
9.09825e-10
7.858466e-10
-9.458961e-10
1.92644e-09
-9.805435e-10
1.502203e-09
4.329496e-10
-1.935152e-09
-1.580888e-09
-2.796843e-10
1.860572e-09
1.151666e-09
-1.772396e-09
6.2073e-10
-1.964522e-09
2.466578e-09
1.243645e-09
-1.006055e-09
-2.375906e-10
4.443865e-10
-1.530114e-09
1.085727e-09
-2.424229e-10
1.526815e-09
-1.284392e-09
-1.766979e-09
2.364928e-10
-1.559288e-09
2.738136e-10
1.285474e-09
3.690754e-10
-1.746168e-09
1.377093e-09
-1.699971e-09
6.697084e-10
1.030263e-09
-5.985983e-10
2.442935e-09
-1.844337e-09
-1.963287e-09
1.145384e-09
1.419127e-09
-2.410168e-11
-1.395025e-09
8.380436e-10
7.740405e-10
-1.612084e-09
2.882021e-10
-1.630341e-09
1.342139e-09
-7.877252e-10
1.819827e-09
-1.032102e-09
-5.23532e-10
2.025735e-09
1.206031e-09
-1.580106e-09
3.740744e-10
9.438318e-11
-1.636998e-09
-1.989294e-12
1.297527e-09
-1.295538e-09
-1.473265e-09
6.746305e-10
7.986345e-10
1.363359e-09
-1.590798e-09
2.274396e-10
1.629619e-10
-1.625013e-09
1.462051e-09
-9.234435e-10
1.649918e-09
2.849881e-09
-1.383491e-09
7.257962e-10
6.576945e-10
2.181502e-10
8.224671e-10
-1.040617e-09
1.078664e-09
-1.517814e-09
4.391502e-10
3.79552e-10
1.294575e-09
-1.674127e-09
-1.242284e-09
1.90032e-09
-6.580364e-10
9.921263e-10
-1.195227e-09
2.031004e-10
1.511245e-09
-5.866386e-10
-9.246062e-10
1.128947e-09
5.608237e-10
-1.68977e-09
-1.681422e-09
1.13339e-09
5.480319e-10
3.586423e-10
-1.332329e-09
9.736868e-10
-1.658605e-09
1.004645e-09
6.539602e-10
-2.646966e-10
-1.208568e-09
-1.7808e-09
1.304032e-09
4.76768e-10
-7.891665e-10
1.742562e-09
-1.73958e-09
1.140981e-09
1.074988e-09
7.102425e-10
-1.78523e-09
6.40576e-10
-2.032142e-09
1.391566e-09
-7.862609e-10
-1.085784e-09
1.872045e-09
-1.626483e-09
4.968447e-10
1.129639e-09
1.893965e-10
-1.186852e-09
9.974551e-10
1.023818e-09
1.378984e-10
-1.161717e-09
-1.839305e-10
1.552875e-09
-1.368944e-09
1.63275e-09
-1.366362e-09
-2.663877e-10
2.058089e-09
-9.876205e-10
-1.070468e-09
3.28607e-10
1.372626e-09
-1.701233e-09
8.822188e-10
8.805712e-10
-1.76279e-09
-1.118422e-09
-5.523781e-10
1.6708e-09
4.975576e-10
-1.313784e-09
8.162266e-10
1.76336e-09
-7.22995e-10
-1.040365e-09
9.775192e-10
4.88385e-10
-1.465904e-09
2.2911e-10
9.535772e-10
-1.182687e-09
1.382375e-09
6.757135e-10
-4.822822e-10
-1.222012e-09
1.704294e-09
-1.290331e-09
-2.615574e-10
1.551888e-09
1.532138e-09
-4.94307e-10
-1.037831e-09
8.231541e-10
-1.974451e-09
1.151297e-09
-1.399244e-09
3.489281e-10
1.050316e-09
1.104146e-09
-1.682162e-09
5.780164e-10
-2.506698e-11
-1.863803e-09
1.88887e-09
3.12979e-09
-1.518636e-09
1.407951e-09
-1.152109e-09
-2.558419e-10
-1.576426e-09
9.666926e-10
6.097333e-10
-9.046073e-10
1.147778e-09
-2.431709e-10
1.703674e-10
-1.371933e-09
1.201565e-09
8.828652e-10
-1.811853e-09
9.289875e-10
-1.5431e-09
-5.347815e-10
2.077882e-09
-1.318811e-09
-1.481216e-10
-1.718774e-09
9.794299e-10
7.393445e-10
8.155195e-10
1.007685e-09
-1.823204e-09
1.457884e-09
-2.142137e-09
6.842536e-10
-1.061367e-09
1.600269e-09
-5.389022e-10
1.731603e-09
-4.986863e-10
-1.75152e-09
2.714513e-10
1.480068e-09
-1.069058e-09
1.987651e-09
-9.185928e-10
-7.944392e-10
-1.09748e-09
1.891919e-09
-1.247264e-09
2.210078e-09
-9.628135e-10
-1.782725e-09
1.990212e-09
-1.210581e-09
-1.194396e-09
1.755209e-09
-5.608128e-10
-1.219208e-09
3.5058e-10
8.686278e-10
1.826672e-09
-1.317272e-09
-5.094001e-10
2.085701e-09
-1.644822e-09
-4.408784e-10
1.739872e-09
-6.212397e-10
-1.118632e-09
-1.264946e-09
-3.723694e-10
1.637315e-09
1.168989e-09
3.631494e-10
1.529618e-09
2.337424e-10
1.578545e-09
-9.290041e-10
-6.495412e-10
8.471393e-10
-1.852412e-09
1.005273e-09
1.486344e-09
5.219295e-11
-1.538537e-09
-8.829035e-10
-5.732019e-10
1.456105e-09
1.425847e-09
-1.05497e-09
-3.708768e-10
-1.223588e-09
-4.947224e-10
1.71831e-09
1.999752e-10
-1.223738e-09
1.023763e-09
-1.660019e-09
1.687258e-09
-2.723833e-11
-1.083182e-09
-6.995429e-10
-9.64085e-10
-3.132704e-10
1.277355e-09
-1.971555e-09
8.43348e-10
1.128207e-09
1.867895e-09
-1.439284e-09
-4.286112e-10
1.055739e-09
9.393873e-10
-1.995127e-09
-1.656052e-09
3.775308e-10
1.278521e-09
1.789013e-09
-3.254354e-10
-1.463577e-09
6.612661e-10
1.266016e-09
-1.417512e-09
1.514966e-10
-1.435775e-09
-3.533917e-10
1.789167e-09
1.213867e-09
9.060274e-10
-2.119895e-09
-2.107574e-09
9.506541e-10
1.156919e-09
-8.052417e-10
1.59864e-09
-7.933983e-10
8.277288e-10
-1.130903e-09
3.031744e-10
-2.121712e-10
-1.481561e-09
1.693732e-09
-4.798018e-09
3.546907e-09
1.80189e-09
-5.171885e-09
3.369995e-09
-1.729647e-09
1.27772e-09
4.519268e-10
-1.744805e-09
1.489712e-09
2.550933e-10
1.395276e-09
-2.974112e-11
-1.365535e-09
-1.717757e-09
1.393861e-09
3.23896e-10
-3.029445e-09
-4.491062e-11
3.074356e-09
-4.978187e-10
1.922031e-09
-1.424213e-09
1.359542e-09
-2.368064e-09
1.008522e-09
4.196271e-12
1.382921e-09
-1.387117e-09
-1.352624e-09
-4.884834e-10
1.841108e-09
-1.552522e-09
1.791849e-09
-2.393269e-10
2.352108e-09
-1.245524e-09
-1.106584e-09
-1.617328e-09
4.540147e-10
1.163313e-09
-1.583e-09
8.956158e-10
6.873839e-10
2.861671e-10
1.453611e-09
-1.739778e-09
-1.623601e-09
1.010479e-09
1.401732e-09
8.291044e-11
-1.484642e-09
1.565208e-09
-8.048359e-10
-7.603721e-10
-1.406902e-10
1.187644e-09
-1.046954e-09
-7.948404e-10
-1.016129e-09
1.810969e-09
-1.860924e-09
6.954261e-10
1.165498e-09
1.266511e-09
1.051762e-11
-1.277029e-09
1.063086e-09
1.26108e-09
-2.324166e-09
1.104152e-09
1.156017e-09
-1.35545e-09
1.99433e-10
2.648001e-09
-7.285764e-09
4.637763e-09
1.841629e-09
4.30019e-11
-1.884631e-09
-1.475566e-09
9.647939e-10
5.10772e-10
1.679558e-09
-8.103984e-10
-8.691598e-10
1.006147e-09
-1.210794e-09
2.046473e-10
-4.997991e-09
-2.736477e-09
-5.727852e-10
1.496698e-09
-9.239133e-10
1.729935e-09
-9.210193e-10
-1.819783e-09
-9.082547e-11
1.910609e-09
1.863085e-10
1.466226e-09
-1.652534e-09
1.06912e-09
-1.755535e-10
-8.935665e-10
-8.721901e-10
-5.287956e-10
1.400986e-09
-1.637578e-09
-1.33614e-09
2.973719e-09
-1.028726e-09
-9.39626e-10
1.968352e-09
1.001623e-09
-1.649377e-09
6.477549e-10
6.356064e-12
-1.309497e-09
1.303141e-09
-5.308394e-10
-1.169756e-09
1.700596e-09
-6.771831e-10
1.795641e-09
-1.118458e-09
1.644273e-09
-2.64875e-09
1.599871e-09
-1.811814e-09
2.119426e-10
1.397481e-09
-2.147487e-09
7.500057e-10
7.831428e-10
2.521133e-10
-1.035256e-09
2.160392e-09
6.894891e-10
-3.585287e-10
-1.619266e-09
1.977795e-09
2.658492e-10
-1.78466e-09
1.518811e-09
-7.283628e-10
-8.670412e-10
1.595404e-09
1.590344e-09
-1.627165e-09
-3.254089e-10
1.476426e-09
-1.151017e-09
7.280687e-11
-1.520444e-09
1.447637e-09
-1.194045e-09
-5.016266e-10
-8.615274e-10
1.08524e-09
-2.237124e-10
1.543489e-09
-1.900526e-09
3.570373e-10
2.748948e-09
-2.744686e-09
-4.26223e-12
1.483761e-09
-1.117493e-09
-3.662684e-10
-1.513155e-09
1.122273e-09
3.908824e-10
1.702424e-09
-1.237827e-09
3.655503e-10
1.336874e-09
1.092844e-09
-1.547505e-09
4.546609e-10
9.805856e-10
-1.176165e-09
1.955797e-10
-7.244898e-10
8.228803e-10
9.525398e-10
-1.77542e-09
1.001418e-09
-1.189105e-09
1.876862e-10
-1.388283e-09
1.579261e-09
-1.909784e-10
1.459726e-09
-3.307791e-10
-1.862454e-09
8.094514e-10
1.053002e-09
1.935537e-09
-2.385013e-10
-1.697035e-09
-4.268104e-12
1.234964e-09
-1.230696e-09
-1.413956e-10
1.307754e-09
-1.166358e-09
-1.505023e-09
-6.457693e-11
1.5696e-09
-1.430513e-09
1.502776e-09
-7.22626e-11
-1.409445e-09
1.036796e-09
3.726483e-10
1.195444e-09
-1.002464e-09
-1.929793e-10
1.919943e-09
-1.597257e-09
-3.226858e-10
-1.390414e-09
1.912812e-10
1.199133e-09
1.834493e-09
-1.1634e-09
-6.710935e-10
-8.966659e-10
-1.955753e-09
2.588883e-10
-6.15512e-10
-1.064519e-09
1.680031e-09
-8.532607e-10
1.080603e-09
-2.27342e-10
1.631456e-09
-1.969507e-09
3.380508e-10
-1.225993e-09
2.135818e-09
1.740595e-09
-9.547487e-10
-1.235389e-09
-3.931311e-10
1.62852e-09
-3.425241e-10
-9.290043e-10
8.224724e-10
2.43774e-09
-3.260213e-09
-1.104287e-09
1.692113e-09
2.110778e-09
-1.509367e-09
-6.014115e-10
8.914956e-10
8.583675e-10
-1.749863e-09
1.769633e-09
-1.26342e-10
-1.643291e-09
-7.753898e-11
-1.332864e-09
1.410403e-09
-1.046838e-09
-5.741922e-10
1.62103e-09
8.866608e-11
1.620415e-09
-1.709081e-09
-1.465915e-09
1.807324e-09
-3.414092e-10
1.115815e-09
5.860538e-10
-1.701869e-09
-4.724158e-10
1.330563e-09
-8.581474e-10
-1.822011e-09
1.526424e-09
2.955866e-10
-1.223031e-09
1.286142e-09
-6.31103e-11
-4.532099e-10
-7.745137e-10
1.227724e-09
2.032061e-09
-1.262267e-09
-7.697942e-10
-5.121812e-10
-7.27556e-10
1.239737e-09
-1.730628e-11
1.106214e-09
-1.088908e-09
1.353165e-09
-1.442252e-09
8.908698e-11
1.440403e-09
2.52621e-10
-1.693024e-09
5.431493e-10
7.165802e-10
-1.25973e-09
-4.848388e-10
-8.537354e-10
1.338574e-09
-8.910281e-10
1.589056e-09
-6.980281e-10
1.323197e-09
-1.339551e-10
-7.172633e-10
2.099417e-09
-1.382154e-09
8.04439e-10
6.677902e-10
-1.472229e-09
1.866302e-09
-9.965471e-10
-8.697547e-10
-4.407775e-10
-1.215246e-09
1.656024e-09
-8.794803e-10
1.574593e-09
-6.951122e-10
2.393115e-09
-6.413276e-10
-1.751787e-09
1.880569e-09
-1.131937e-09
-7.486328e-10
1.433338e-09
3.622552e-10
-1.795593e-09
-3.083493e-09
-2.417395e-09
5.500888e-09
1.769844e-09
-5.236261e-09
3.466417e-09
-1.273327e-09
-4.781925e-10
1.631576e-09
1.026732e-09
-1.481805e-09
4.550728e-10
1.311553e-09
-1.330346e-09
1.879317e-11
-9.171119e-10
-1.054443e-09
1.65819e-09
-8.672402e-10
-1.704316e-09
2.384013e-10
-9.724869e-10
-4.651879e-10
1.437675e-09
9.039533e-10
1.476474e-09
-2.380427e-09
8.520644e-10
4.589628e-10
-1.311027e-09
1.800258e-09
-6.009208e-10
6.328275e-10
-5.903391e-10
1.51457e-09
-9.242312e-10
4.39613e-10
-1.69968e-09
6.537287e-11
1.477929e-09
-1.543302e-09
-1.056834e-10
1.472485e-09
-1.366801e-09
-6.568181e-09
1.788403e-09
4.779777e-09
-1.228628e-09
1.426161e-09
-1.97533e-10
-1.46527e-09
1.445285e-09
1.99856e-11
1.591708e-09
-5.751733e-10
-1.016535e-09
-1.818568e-09
1.43194e-09
3.866278e-10
7.045284e-10
-1.818291e-09
1.113763e-09
-1.36785e-09
-8.565019e-10
-6.30543e-10
4.174439e-10
-8.802981e-10
4.628542e-10
1.386842e-09
-1.653043e-10
-1.221537e-09
-1.576737e-09
1.395578e-09
1.514043e-09
1.982519e-10
-1.712295e-09
-7.267052e-11
-1.541669e-09
1.282043e-09
-1.623596e-09
3.415537e-10
-3.157355e-12
1.547012e-09
-1.633539e-09
-3.327261e-10
-1.788561e-09
-3.427493e-10
2.13131e-09
-1.290373e-09
-1.190717e-10
-9.860013e-10
-1.051831e-09
4.456405e-11
1.505283e-09
-1.549847e-09
1.284277e-09
-1.737487e-09
-1.630011e-09
-3.17804e-10
1.947815e-09
1.879748e-09
-9.132484e-10
-9.664996e-10
-3.268926e-10
-4.630437e-09
4.957329e-09
1.377951e-09
-1.185322e-09
-1.926291e-10
-4.984055e-10
-1.223067e-09
1.721472e-09
-1.565667e-09
1.72933e-09
-1.636626e-10
-8.878697e-10
-5.905249e-10
1.478395e-09
-1.658382e-09
2.044887e-10
1.453893e-09
1.453231e-09
-1.408921e-09
-4.431053e-11
6.377215e-10
-1.664751e-09
3.637158e-10
-1.820214e-09
1.456498e-09
1.624663e-09
1.545869e-10
-1.77925e-09
1.753028e-09
-7.129564e-11
8.211569e-10
-2.218319e-09
1.397162e-09
-1.305997e-09
1.358008e-09
-5.201064e-11
-7.703852e-10
1.652604e-09
1.175615e-09
4.748871e-10
1.471564e-09
-1.213735e-10
-1.35019e-09
-4.926938e-09
5.449181e-10
4.38202e-09
-1.064837e-09
1.657516e-09
2.105584e-10
-1.820249e-09
1.609691e-09
4.476011e-11
1.408471e-09
-1.104443e-09
-6.904307e-10
1.794873e-09
5.142697e-10
1.346591e-09
1.752588e-09
-1.308278e-09
-4.443105e-10
1.942648e-09
-8.494928e-10
-1.093155e-09
-2.131947e-09
-1.693088e-10
2.301256e-09
-1.022362e-09
-4.446007e-10
1.466963e-09
1.525638e-09
-1.724727e-10
-4.537774e-10
1.612895e-09
-1.159118e-09
7.699184e-10
9.599318e-10
-1.72985e-09
1.191601e-09
-1.711033e-09
5.194323e-10
1.127201e-09
4.299386e-10
-1.55714e-09
-1.404465e-09
8.895652e-10
5.148994e-10
1.153135e-09
1.419677e-09
-3.730201e-11
-1.72323e-09
6.816324e-10
1.041598e-09
6.790716e-10
-2.081761e-09
1.402689e-09
5.569804e-10
-1.591684e-09
5.37116e-10
8.497257e-10
3.262296e-10
-1.766122e-09
6.692353e-10
-2.813403e-09
2.144168e-09
-1.440505e-09
-1.144113e-09
-4.297488e-10
1.573861e-09
-8.972899e-11
1.44472e-09
2.160945e-10
1.406544e-09
-1.622639e-09
-1.296774e-09
-4.747827e-10
1.771556e-09
-3.202945e-11
1.278906e-09
-1.246876e-09
1.294372e-09
-8.387867e-10
-4.555848e-10
1.863607e-09
-1.756613e-09
-1.069934e-10
3.563954e-09
2.505662e-10
-3.81452e-09
-1.669733e-09
-3.064083e-10
-3.208416e-09
2.50046e-09
7.07956e-10
-1.627423e-09
2.274159e-10
1.400007e-09
1.343612e-09
-1.797389e-09
-1.26239e-09
1.065862e-10
-1.581412e-09
1.474826e-09
1.495993e-09
-1.629206e-09
1.332136e-10
1.492474e-09
-3.926775e-10
-1.099796e-09
1.34094e-09
-1.428201e-09
8.726181e-11
-1.253273e-09
-4.067463e-10
2.956734e-10
-1.360928e-09
1.065255e-09
5.653151e-10
-1.710537e-09
1.145222e-09
-2.525598e-10
1.526233e-09
-1.273673e-09
-7.899814e-11
1.285029e-09
1.465828e-09
-4.664642e-10
-1.044719e-09
1.187549e-09
-1.4283e-10
-1.29697e-09
1.004711e-09
2.922587e-10
-1.548942e-09
5.401291e-10
1.008812e-09
-1.004293e-09
1.191282e-09
-1.869887e-10
-1.086059e-09
-1.083372e-10
1.530619e-09
-4.51955e-10
-1.099027e-09
1.659851e-09
1.565605e-09
-3.915417e-10
-1.174063e-09
-9.470985e-10
-7.426718e-10
-2.746349e-10
1.18885e-09
-9.142154e-10
-1.021715e-09
-8.708885e-10
1.892603e-09
-1.201393e-09
1.015925e-09
1.854674e-10
-1.858483e-10
1.187267e-09
-1.555622e-09
8.264802e-10
7.291414e-10
1.590494e-09
-1.393304e-09
-1.971897e-10
3.963869e-10
1.042776e-09
-1.439163e-09
5.445851e-10
-1.9506e-09
1.406014e-09
-4.399062e-09
6.200952e-09
-8.072126e-10
1.900315e-09
-1.093102e-09
-3.172089e-09
1.207567e-09
-2.214525e-09
1.096026e-09
1.118498e-09
-8.52418e-10
3.46197e-09
-2.609552e-09
4.994074e-10
8.404156e-10
-1.339823e-09
1.801784e-09
-7.845838e-10
1.749462e-09
-9.648783e-10
1.846791e-09
-1.281476e-09
-1.306911e-09
-3.014662e-10
1.608377e-09
-1.580584e-09
2.060948e-09
-4.803639e-10
5.219747e-09
-3.917827e-10
-4.827964e-09
-1.837924e-09
1.814059e-11
2.009096e-09
-1.054169e-09
-1.981302e-09
1.227109e-09
-8.543806e-10
-7.575919e-10
1.611972e-09
1.97276e-09
-1.858023e-09
-1.14738e-10
1.520672e-09
-6.124033e-10
-9.082685e-10
1.828692e-10
1.212407e-09
1.473108e-09
1.282045e-10
-1.601312e-09
1.056097e-09
4.138126e-10
-1.46991e-09
-9.262965e-10
-8.957142e-10
4.424273e-10
-1.607857e-09
1.16543e-09
-5.453767e-10
1.725605e-09
-1.180229e-09
-1.997195e-09
-3.002297e-09
4.999491e-09
-1.65151e-09
8.056264e-10
8.458835e-10
-1.575336e-09
8.049506e-10
-6.52612e-10
1.737706e-09
-1.085094e-09
-6.172846e-10
3.688699e-09
-3.071414e-09
-1.525472e-09
-5.235786e-10
2.049051e-09
1.968576e-09
2.200307e-09
-7.424236e-10
-8.401889e-10
1.628709e-09
-6.96866e-10
1.823429e-09
-1.126563e-09
9.334836e-10
3.780697e-10
1.275165e-09
3.507038e-10
-1.625869e-09
1.320196e-09
3.88346e-10
-1.708542e-09
-1.33821e-09
1.609662e-09
1.558218e-09
5.189397e-10
-2.077158e-09
7.777485e-10
-1.797798e-09
1.02005e-09
-1.827748e-09
1.269286e-09
5.584619e-10
-1.169935e-09
-1.316593e-09
2.486528e-09
1.771428e-09
-2.406182e-09
6.347542e-10
4.583981e-10
-1.784869e-09
1.326471e-09
2.179994e-09
-8.528359e-10
-1.327158e-09
-5.467422e-10
-1.3659e-09
1.912642e-09
-4.333267e-10
-9.664759e-10
-8.624619e-10
-7.547239e-10
-1.005685e-09
-1.032354e-10
1.10892e-09
-9.486848e-10
1.407083e-09
-1.154336e-09
-8.016797e-10
1.956015e-09
1.243021e-09
-4.703054e-10
-1.136647e-09
1.606953e-09
1.726663e-09
-2.93325e-10
-6.363295e-11
-9.587294e-10
-3.170269e-10
-1.263557e-09
2.082194e-10
-1.761038e-09
1.552819e-09
-1.051437e-09
-7.38517e-10
1.789954e-09
8.0633e-09
-8.0633e-09
-2.056298e-10
1.403671e-09
-1.198041e-09
-6.909265e-10
1.394398e-09
-7.034719e-10
3.144143e-10
-1.786677e-09
1.472263e-09
-1.043936e-09
-8.711362e-10
1.604311e-09
-5.665475e-10
-1.037763e-09
-1.193307e-09
-2.349413e-10
1.428248e-09
4.491697e-10
1.702866e-09
-1.295546e-09
-4.073197e-10
-1.03223e-09
1.593109e-09
-1.596912e-09
4.575913e-10
1.13932e-09
1.148544e-09
7.290725e-10
-1.877617e-09
-1.040406e-09
1.550004e-09
-5.095975e-10
-1.075779e-09
2.191594e-09
1.874719e-09
-1.44177e-09
-1.447791e-09
1.445802e-09
-3.854359e-10
-7.696535e-10
1.155089e-09
-7.058655e-09
1.724236e-09
5.334419e-09
9.702459e-10
5.836025e-10
-1.553848e-09
8.507395e-10
-1.257309e-09
4.065696e-10
-1.832999e-09
9.924567e-10
8.405419e-10
7.727461e-10
-1.384661e-09
6.11915e-10
-1.512208e-09
5.896974e-10
9.225107e-10
1.773325e-11
1.537302e-09
-1.555035e-09
-1.070557e-09
2.182366e-09
-1.111809e-09
4.674772e-10
9.601904e-10
4.041721e-11
-1.000608e-09
-3.977328e-10
1.32561e-09
-9.278772e-10
-9.433188e-10
1.360763e-09
-9.163381e-10
2.038985e-09
-1.122647e-09
8.083073e-09
-6.42587e-09
-1.657203e-09
-1.139158e-09
-1.002979e-09
-4.61833e-10
-1.621639e-09
2.083473e-09
-7.55238e-10
-8.712544e-10
-1.371445e-09
9.616902e-11
1.275276e-09
1.825992e-09
-1.2234e-09
-6.025921e-10
1.33806e-09
-1.415305e-09
7.724414e-11
1.500573e-09
-1.296289e-09
1.723434e-09
-4.271448e-10
7.89412e-10
-1.544273e-09
3.057405e-10
1.238533e-09
-1.753309e-09
9.732257e-10
7.800836e-10
1.388824e-09
-5.139839e-09
4.935481e-09
2.043581e-10
-1.445866e-09
1.81654e-09
-1.510584e-09
-3.059564e-10
6.836432e-10
1.056531e-09
-1.740174e-09
1.403798e-09
-1.499896e-09
9.609784e-11
-1.6449e-09
8.067271e-10
8.381725e-10
1.492464e-09
-3.36842e-10
-1.155622e-09
-1.664712e-10
-1.118124e-09
1.284596e-09
-3.083138e-09
6.943249e-09
-3.860111e-09
2.243615e-09
2.148088e-09
-4.391702e-09
-2.046866e-09
8.769313e-10
1.018389e-09
9.505635e-10
-1.968952e-09
-1.518489e-09
1.19308e-09
-1.847244e-09
5.634329e-10
1.283811e-09
1.797919e-09
-7.587316e-10
-1.039187e-09
-1.039126e-09
1.07806e-09
-3.89344e-11
-1.700102e-09
2.544255e-10
-1.082716e-09
1.378368e-09
-2.956526e-10
1.792132e-09
-7.683142e-10
1.459355e-09
2.673075e-10
-1.643269e-09
-3.785614e-10
2.021831e-09
6.344603e-10
-1.600162e-09
9.657019e-10
1.018064e-09
9.703059e-10
-1.98837e-09
-1.677501e-09
3.764009e-11
1.639861e-09
7.587023e-10
-2.31318e-09
1.554477e-09
7.770588e-10
7.34186e-10
1.309977e-09
-3.597633e-10
-9.502141e-10
1.983228e-09
-1.666878e-10
-3.207332e-10
1.373888e-09
-1.053155e-09
-1.69873e-09
1.149336e-09
-1.826519e-09
3.999702e-10
1.353058e-09
-1.809789e-09
1.40523e-09
4.045591e-10
-1.847855e-09
2.045862e-10
1.419765e-09
2.511394e-10
-1.670905e-09
1.48597e-09
3.198311e-10
-1.805801e-09
-1.99351e-09
1.614949e-09
3.946877e-10
-1.998415e-09
1.603728e-09
-7.752787e-10
-7.369294e-10
-1.192068e-09
1.04235e-09
-1.103916e-09
-3.809819e-10
1.484898e-09
-1.400537e-09
1.800507e-09
-1.765886e-09
7.454286e-10
1.020457e-09
-9.923853e-10
1.414871e-09
-4.224857e-10
-1.115389e-09
-4.536138e-10
1.569003e-09
-1.202819e-10
1.580362e-09
-1.46008e-09
-1.302917e-09
1.268033e-09
4.760706e-10
-1.744104e-09
-1.584228e-09
1.60695e-09
-2.272193e-11
-5.118417e-10
2.618167e-09
-2.106325e-09
1.835753e-09
-6.908687e-10
-1.144885e-09
4.067014e-09
-4.2406e-09
-1.72069e-09
1.647752e-09
7.293858e-11
1.957334e-09
-1.004887e-09
-9.524469e-10
-1.185146e-09
1.001215e-09
1.974591e-10
1.355415e-09
-4.089357e-09
3.472073e-09
-1.676946e-09
1.352326e-09
3.246194e-10
1.408871e-09
-4.753876e-10
-1.057429e-09
-1.18545e-09
2.24288e-09
-1.158196e-09
1.848252e-09
-6.900565e-10
-2.670596e-09
5.933662e-10
2.07723e-09
1.297876e-09
-2.074693e-09
7.768173e-10
5.98098e-10
8.455734e-10
-1.443671e-09
-7.487801e-10
-4.270955e-10
1.175876e-09
3.702797e-10
1.185671e-09
-1.555951e-09
1.144271e-09
-1.553695e-09
4.094236e-10
-3.787071e-10
-1.279675e-09
1.920018e-09
-5.708632e-12
-1.91431e-09
-1.967611e-09
4.060929e-10
1.272087e-09
-1.67818e-09
1.520983e-09
-1.143453e-09
-1.271678e-09
-2.806004e-10
1.552279e-09
7.634993e-10
8.017088e-10
3.3507e-10
-1.610309e-09
1.275239e-09
-1.727775e-09
6.093534e-10
1.36671e-09
-1.482009e-09
1.152989e-10
1.798682e-09
-7.282056e-10
-1.070476e-09
-1.351986e-09
4.120042e-10
9.399814e-10
-1.768538e-09
9.776708e-10
7.908667e-10
1.346609e-09
-1.55878e-09
-1.510908e-09
9.213685e-10
5.895399e-10
-1.287977e-10
2.070768e-09
-1.941971e-09
-7.687613e-10
1.739007e-09
1.318513e-09
-5.734522e-10
8.965112e-10
-1.876285e-09
9.797743e-10
-6.477016e-10
-4.208122e-10
1.068514e-09
-1.449694e-09
9.660103e-10
4.836833e-10
-7.709388e-10
-1.029924e-09
1.891239e-09
-6.447948e-10
1.561518e-09
-9.167234e-10
1.308435e-09
1.875578e-10
1.21836e-09
6.284306e-10
-7.648583e-10
-9.415942e-10
-5.600286e-10
1.448317e-09
-8.88288e-10
-6.413326e-10
1.428115e-09
-7.867826e-10
9.364869e-10
-1.845024e-09
-3.032517e-11
1.099445e-09
-5.017958e-10
1.890561e-09
-1.388765e-09
-1.16026e-09
4.188672e-10
-8.870526e-10
1.481975e-09
-5.949223e-10
-9.953392e-10
1.741203e-09
-1.988172e-09
1.694847e-09
1.315049e-09
-1.798289e-09
4.832392e-10
1.457424e-09
-1.534517e-09
7.70935e-11
1.357867e-09
1.13697e-10
-7.65468e-10
-7.549406e-10
-1.346996e-09
5.525565e-10
4.128945e-10
1.079569e-09
-5.767478e-10
-1.411425e-09
1.554266e-09
-1.759896e-09
-1.168459e-09
1.251752e-09
-8.329321e-11
4.100475e-09
-3.417005e-09
-6.834701e-10
-1.651807e-09
1.26067e-09
3.911373e-10
1.302422e-09
-1.476361e-09
1.739383e-10
-1.276239e-09
-4.007066e-10
-1.432388e-09
3.169993e-10
1.862395e-09
-1.326264e-09
-5.361302e-10
3.585707e-09
8.467074e-10
-4.432414e-09
1.055737e-09
1.002792e-10
5.814602e-10
-1.553331e-09
-5.053137e-10
1.067555e-09
-1.071029e-09
4.634983e-09
-1.275162e-09
-5.346265e-10
-2.214386e-09
3.35656e-10
1.87873e-09
-1.271059e-09
2.653743e-10
-1.27754e-09
1.371923e-09
1.42465e-09
8.325154e-10
-2.257166e-09
-3.036064e-10
3.845611e-10
1.983091e-09
-2.367652e-09
-7.466673e-10
-7.771239e-10
-2.601472e-09
3.378596e-09
-1.255456e-09
1.009176e-09
2.462799e-10
-1.864005e-09
6.442855e-10
1.21972e-09
2.143998e-10
-1.857407e-09
6.101425e-10
5.065549e-10
1.295051e-09
-1.801606e-09
1.428333e-09
-1.048781e-09
-8.604043e-10
-9.673439e-10
-5.906678e-10
1.013003e-09
-4.223355e-10
1.98669e-09
-1.156857e-09
-1.061436e-09
2.218293e-09
-1.579717e-09
-1.714453e-10
1.751162e-09
-1.342959e-09
3.785539e-10
9.644053e-10
1.9712e-09
-1.638244e-09
-3.329553e-10
1.261342e-09
6.184064e-10
1.716962e-09
-6.615164e-10
-1.055445e-09
1.02701e-09
-2.207413e-09
1.180403e-09
7.750918e-10
-5.832335e-10
-1.034094e-09
1.861427e-09
-1.303891e-09
-5.575363e-10
-1.667739e-10
1.394955e-09
-1.228181e-09
-5.633676e-09
8.281677e-09
-6.738379e-10
1.229978e-09
-5.561404e-10
-1.328596e-09
5.656907e-11
1.272027e-09
-1.157536e-09
1.443703e-09
1.734006e-09
-1.374851e-09
-3.59155e-10
-1.864759e-09
1.08948e-09
-1.971903e-09
9.028451e-10
-9.818938e-10
-1.024278e-09
1.915617e-09
-8.913396e-10
-1.087766e-09
1.997607e-09
-9.098409e-10
5.778309e-09
-4.622449e-09
2.561899e-09
5.760392e-10
-1.568425e-09
-6.719528e-10
-9.449288e-10
1.414773e-09
-1.293013e-09
-1.217601e-10
1.231665e-09
-3.791666e-10
-8.524981e-10
9.084599e-10
9.578419e-10
-4.78806e-11
1.592442e-09
-1.544561e-09
-8.536789e-10
1.029401e-09
-1.757222e-10
1.575722e-09
-1.302339e-09
-2.733828e-10
4.711787e-10
-1.436723e-09
-1.214051e-09
1.473897e-09
-2.598461e-10
1.105054e-09
-1.484254e-09
1.365725e-09
1.185287e-10
1.064988e-10
1.368131e-09
-1.47463e-09
1.267659e-09
-1.77984e-09
3.85073e-09
-2.67088e-10
-3.583643e-09
-2.313939e-09
-8.944768e-10
-1.448375e-09
-6.477995e-11
-8.005279e-10
-1.098095e-09
1.898623e-09
1.053669e-09
-1.402028e-09
3.483588e-10
-1.326552e-09
3.1165e-10
1.014902e-09
-2.120821e-10
-1.604969e-09
1.817051e-09
-1.765224e-09
1.64385e-09
9.16618e-10
1.071033e-09
7.850435e-10
1.141396e-09
5.02966e-11