/*--------------------------------*- C++ -*----------------------------------*\
| =========                 |                                                 |
| \\      /  F ield         | OpenFOAM: The Open Source CFD Toolbox           |
|  \\    /   O peration     | Version:  2406                                  |
|   \\  /    A nd           | Website:  www.openfoam.com                      |
|    \\/     M anipulation  |                                                 |
\*---------------------------------------------------------------------------*/
FoamFile
{
    version     2.0;
    format      ascii;
    arch        "LSB;label=32;scalar=64";
    class       surfaceScalarField;
    location    "1.86";
    object      phi;
}
// * * * * * * * * * * * * * * * * * * * * * * * * * * * * * * * * * * * * * //

dimensions      [0 3 -1 0 0 0 0];

oriented        oriented;

internalField   nonuniform List<scalar> 
23794
(
0.002035006
-0.00173052
-0.0003044859
0.001194243
0.0008407628
0.0006248099
0.0005694329
0.0009382491
-0.0003134391
0.001820922
-0.0008826726
0.001874467
-5.354532e-05
-0.0003728857
0.002247353
-0.002755543
0.002382657
-0.002799468
4.392518e-05
-0.001581798
-0.00121767
-0.0004643574
-0.001117441
7.500915e-05
-0.0005393666
-4.444653e-05
0.0001194557
-0.0006022963
0.0005578498
-0.001016199
0.0004139031
-0.001576059
0.0005598596
-0.002131996
0.0005559364
8.869531e-05
-0.002220691
0.003520706
-0.003432011
0.005929855
-0.002409149
0.007333062
-0.001403207
0.00755706
-0.0002239988
0.005649407
0.001907653
-1.522746e-05
0.005664635
-0.005116388
0.00510116
-0.002584578
-0.00253181
0.0008657897
-0.003450368
0.00263369
-0.0017679
0.003641833
-0.001008144
0.005863349
-0.002221516
0.009543751
-0.003680402
0.01034775
-0.0008039996
0.004919739
0.005428012
-0.0005483779
0.005468117
-0.0008420036
0.0002936256
0.0003601536
-0.001202157
-0.002962348
0.003322501
-0.007673207
0.004710859
-0.01087162
0.003198418
-0.01262021
0.001748584
-0.01362223
0.001002017
-0.01427364
0.0006514132
-0.01472878
0.0004551439
-0.01504541
0.0003166309
-0.0152582
0.000212788
-0.01529754
3.93333e-05
-0.01526454
-3.29939e-05
-0.01519693
-6.761154e-05
-0.01508607
-0.0001108595
-0.01496173
-0.0001243375
-0.01478134
-0.0001803921
-0.01456285
-0.000218493
-0.01428765
-0.000275195
-0.01399083
-0.0002968265
-0.01367855
-0.0003122778
-0.01331374
-0.0003648107
-0.01293071
-0.0003830292
-0.01254074
-0.0003899683
-0.01208829
-0.0004524541
-0.0116143
-0.000473985
-0.01111616
-0.0004981434
-0.01061241
-0.000503745
-0.01008875
-0.0005236629
-0.00951673
-0.0005720207
-0.008953223
-0.0005635063
-0.008349382
-0.0006038419
-0.007728993
-0.0006203882
-0.007103516
-0.0006254772
-0.006470055
-0.0006334612
-0.005806772
-0.0006632826
-0.005142103
-0.0006646693
-0.004469896
-0.0006722069
-0.003784581
-0.0006853152
-0.003100212
-0.0006843686
-0.002437007
-0.0006632055
-0.001738066
-0.0006989412
-0.001063621
-0.0006744442
-0.0004217849
-0.0006418366
0.0002557136
-0.0006774986
0.001048176
-0.000792462
0.001798009
-0.0007498331
0.002521707
-0.0007236979
0.00322807
-0.0007063633
0.003913285
-0.000685215
0.00459553
-0.0006822449
0.005256195
-0.0006606648
0.005927764
-0.000671569
0.006579061
-0.000651297
0.007195922
-0.0006168613
0.007816553
-0.0006206313
0.008424107
-0.0006075542
0.009008783
-0.0005846755
0.009590186
-0.0005814032
0.01015721
-0.0005670224
0.01066982
-0.0005126068
0.0111778
-0.0005079878
0.01167057
-0.0004927705
0.01212195
-0.0004513791
0.01257383
-0.0004518741
0.01297364
-0.0003998102
0.01334574
-0.0003721035
0.01367877
-0.0003330289
0.01396901
-0.0002902453
0.01425433
-0.0002853136
0.01450213
-0.0002478056
0.01471056
-0.0002084247
0.01487635
-0.000165791
0.01499956
-0.0001232081
0.0150916
-9.203876e-05
0.01512174
-3.014638e-05
0.0151161
5.641883e-06
0.01500968
0.0001064192
0.0147162
0.0002934855
0.01423514
0.0004810605
0.01348679
0.0007483442
0.01216435
0.001322439
0.009510996
0.002653356
0.004893975
0.004617021
-0.0002168448
0.00511082
-0.00339823
0.003181385
-0.00508416
0.00168593
-0.004858565
-0.0002255953
-0.002337597
-0.002520968
0.002014349
-0.004351946
0.005231871
-0.003217521
-0.0007734983
0.006005369
-0.009571489
0.008797991
-0.01164884
0.002077347
-0.009069299
-0.002579538
-0.006001989
-0.00306731
-0.004024637
-0.001977352
-0.002894734
-0.001129902
-0.001505176
-0.001389558
0.0008748254
-0.002380001
0.0027941
-0.001919275
0.00260623
0.0001878702
0.001361102
0.001245128
1.951149e-05
0.00134159
-0.0006388862
0.0006583977
-0.000363366
-0.0002755203
0.0003779692
-0.0007413352
0.0002496879
0.0001282814
-0.0005104102
0.000760098
-0.001318826
0.0008084154
-0.001361363
4.253697e-05
-0.0006579836
-0.000703379
-0.000170435
-0.0004875486
-0.001029221
0.0008587858
-0.002992527
0.001963306
-0.004325829
0.001333302
-0.004425615
9.978615e-05
-0.003894132
-0.0005314831
-0.003079368
-0.0008147638
-0.00197187
-0.001107498
-0.0007086971
-0.001263173
0.0005364769
-0.001245174
-0.001194043
0.003354633
-0.002135637
-0.001523482
0.003063115
0.001132281
0.001393537
0.002239011
0.0004457016
0.000634396
0.0009935119
-0.001430483
0.0007434117
0.0001965549
-0.001771853
0.004762617
-0.003701141
0.004311945
-0.00309109
-0.0005661255
-0.001681158
-0.002627602
-0.0002658486
-0.00253275
0.0005360658
-0.001341281
0.0005544242
0.0001010973
-0.0002007994
0.001313073
-0.001996785
0.002209889
-0.003380893
0.001943967
-0.00297974
0.0001547833
0.0006446623
-0.005845093
0.004871901
-0.007659249
0.007725911
-0.005263159
0.009351368
-0.003028663
0.009691624
-0.0005642553
0.008781501
0.002817777
0.002399434
0.0120467
-0.005528417
0.01302901
-0.004343931
-0.003716296
-0.001190074
-0.006604225
-0.0002268981
-0.002731076
0.0004060174
-0.001641059
0.002327042
-0.00414254
0.006079798
-0.007433158
0.009119319
-0.003843521
0.006976241
0.00757109
0.0004832015
0.01196116
-0.005624997
0.006401824
-0.01119634
0.004369184
-0.01628494
0.008411107
-0.0200534
0.008479313
-0.02157451
0.004719533
-0.02200692
0.002180992
-0.02213564
0.001130736
-0.02214373
0.000659506
-0.02209468
0.0004060927
-0.02200853
0.0002304775
-0.02189956
0.0001038185
-0.02168915
-0.0001710718
-0.02146172
-0.0002604268
-0.02121576
-0.0003135744
-0.02092566
-0.0004009631
-0.02062268
-0.0004273084
-0.02026143
-0.0005416466
-0.01986255
-0.0006173734
-0.01940213
-0.0007356157
-0.01891893
-0.0007800264
-0.01842613
-0.0008050792
-0.01787652
-0.0009144173
-0.01730447
-0.0009550774
-0.01672962
-0.0009648199
-0.01608287
-0.001099205
-0.01541586
-0.001141
-0.01472091
-0.001193093
-0.01401886
-0.001205788
-0.01329951
-0.001243013
-0.01252252
-0.001349018
-0.01175694
-0.001329078
-0.01094951
-0.001411273
-0.0101206
-0.001449305
-0.009288999
-0.001457073
-0.008452356
-0.001470104
-0.007579191
-0.001536448
-0.006703476
-0.001540384
-0.00582154
-0.001554143
-0.004925354
-0.001581501
-0.004032786
-0.001576936
-0.003163088
-0.001532904
-0.00225722
-0.001604809
-0.001379026
-0.001552638
-0.0005353943
-0.001485469
0.0003476438
-0.001560537
0.001363668
-0.001808486
0.00233443
-0.001720595
0.003275636
-0.001664905
0.004194171
-0.001624898
0.005090519
-0.001581563
0.005984899
-0.001576625
0.006854379
-0.001530146
0.007736578
-0.001553768
0.008596316
-0.001511035
0.009414216
-0.001434761
0.0102389
-0.001445313
0.0110527
-0.001421355
0.01183794
-0.001369919
0.0126202
-0.001363666
0.01339045
-0.001337273
0.01409669
-0.001218846
0.0148019
-0.001213196
0.01549021
-0.001181078
0.01613238
-0.001093553
0.01677726
-0.001096749
0.01736111
-0.00098366
0.01792126
-0.0009322541
0.01843772
-0.0008494938
0.01890728
-0.000759804
0.01937827
-0.000756299
0.01980949
-0.0006790266
0.02019773
-0.0005966672
0.02054267
-0.0005107327
0.02084382
-0.0004243508
0.02111555
-0.0003637712
0.0213233
-0.0002378998
0.02153288
-0.0002039388
0.02172303
-8.372555e-05
0.02182492
0.0001915958
0.02187401
0.0004319633
0.02186814
0.0007542206
0.02172323
0.00146735
0.02090837
0.003468208
0.01775371
0.007771689
0.01116909
0.01169544
0.003534174
0.0108163
-0.00021076
0.005430863
0.0008801282
-0.001316484
0.002375749
-0.004016589
0.00396309
-0.005939287
0.003863463
-0.003117894
-0.004448281
0.01431711
-0.01221724
0.01656694
-0.01221332
0.002073435
-0.009331833
-0.005461026
-0.006036702
-0.006362442
-0.004043952
-0.003970102
-0.002932106
-0.002241749
-0.001581028
-0.002740636
0.001124261
-0.00508529
0.004020798
-0.004815812
0.003918359
0.0002903093
0.001506699
0.003656787
-0.0004236876
0.003271977
-0.001075845
0.001310555
-0.0006288835
-0.0007224813
0.000702555
-0.002072774
0.001542631
-0.0007117945
0.00111525
0.001187479
-0.0002408341
0.0021645
-0.0008459824
0.0006476853
-0.0007416586
-0.0008077027
-0.001564332
0.0003351251
-0.003677396
0.00297185
-0.005613896
0.003899807
-0.0060451
0.001764506
-0.005618701
-0.0003266134
-0.004916515
-0.001233669
-0.003838848
-0.001892431
-0.002427319
-0.002519028
-0.000817772
-0.00287272
0.0006873395
-0.002750285
-0.002642341
0.00406858
-0.002550956
-0.003041107
0.00469537
0.0005054921
0.002951715
0.003982666
0.0006282516
0.002957859
-0.0002944623
-0.0005077691
-0.001068236
0.0009703285
-0.002782455
0.006476837
-0.0039996
0.00552909
-0.003204847
-0.001360879
-0.001603609
-0.00422884
1.286121e-05
-0.00414922
0.0009480159
-0.002276436
0.001078224
-2.911043e-05
0.0003538582
0.002037439
-0.00207962
0.004643367
-0.004109177
0.003973524
-0.003089846
-0.0008645475
0.001437505
-0.01037244
0.006254505
-0.01247625
0.009495007
-0.008503661
0.01122995
-0.004763606
0.01131256
-0.00064687
0.01023275
0.003897593
0.004605726
0.01767372
-0.004268274
0.02190301
-0.006084178
-0.001900392
-0.005295403
-0.007392999
-0.005900519
-0.00212596
-0.005850677
-0.001690901
-0.003435919
-0.006557298
0.0003076158
-0.01117669
0.003760444
-0.007296349
0.003340234
0.0079913
-0.004553652
0.01985504
-0.01587971
0.01772789
-0.0230959
0.01158537
-0.02555449
0.0108697
-0.02597456
0.00889939
-0.02580337
0.004548338
-0.02583254
0.002210162
-0.02592193
0.001220123
-0.02598337
0.0007209533
-0.02600749
0.000430212
-0.02598799
0.0002109748
-0.02593463
5.046161e-05
-0.02572483
-0.0003808776
-0.02546935
-0.0005159048
-0.02518934
-0.0005935834
-0.02485599
-0.0007343135
-0.02450948
-0.0007738133
-0.02409034
-0.0009607865
-0.02362726
-0.001080462
-0.02308912
-0.001273752
-0.02252298
-0.001346165
-0.02194645
-0.001381615
-0.021299
-0.001561859
-0.02062461
-0.001629467
-0.01994823
-0.001641206
-0.01918281
-0.001864623
-0.01839321
-0.001930604
-0.01756968
-0.002016617
-0.01673725
-0.002038218
-0.01588401
-0.002096257
-0.01495934
-0.002273688
-0.01404965
-0.002238766
-0.01308698
-0.002373943
-0.01209864
-0.002437649
-0.01110615
-0.002449561
-0.01010692
-0.002469334
-0.009063041
-0.002580326
-0.0080154
-0.002588025
-0.006958844
-0.002610699
-0.005884988
-0.002655358
-0.004813518
-0.002648406
-0.003767492
-0.002578929
-0.002679357
-0.002692944
-0.00162352
-0.002608474
-0.000608505
-0.002500484
0.0004459164
-0.002614958
0.001650383
-0.003012953
0.002807557
-0.002877769
0.003931762
-0.00278911
0.005028465
-0.0027216
0.006099194
-0.002652292
0.007167214
-0.002644645
0.008204651
-0.002567583
0.009257176
-0.002606292
0.01028178
-0.002535644
0.01125615
-0.002409129
0.01223853
-0.002427692
0.01320676
-0.002389579
0.01414036
-0.002303528
0.01507054
-0.002293837
0.01598535
-0.002252086
0.01682257
-0.00205607
0.0176591
-0.002049723
0.01847452
-0.001996499
0.01923321
-0.001852239
0.01999699
-0.001860529
0.02068517
-0.001671839
0.02134586
-0.001592953
0.02195309
-0.001456717
0.02250221
-0.001308926
0.02305451
-0.001308602
0.02355713
-0.001181644
0.02400922
-0.001048761
0.02440835
-0.0009098575
0.02475514
-0.0007711396
0.02506657
-0.0006752007
0.02530251
-0.0004738423
0.02552886
-0.0004302915
0.02569606
-0.0002509237
0.02572947
0.0001581859
0.02569183
0.0004696057
0.02562267
0.0008233767
0.0255676
0.001522423
0.02576475
0.003271056
0.02579002
0.007746425
0.02341114
0.01407431
0.01842554
0.0158019
0.0146383
0.009218096
0.01340062
-7.879583e-05
0.01228823
-0.002904207
0.008690226
-0.002341278
0.002650246
0.002922086
-0.006039024
0.02300638
-0.01184454
0.02237246
-0.01138524
0.001614129
-0.008020404
-0.008825862
-0.004279441
-0.0101034
-0.002412564
-0.005836978
-0.001635559
-0.003018754
-0.0007737736
-0.003602422
0.001327605
-0.007186669
0.004168708
-0.007656915
0.003922228
0.0005367892
0.001225863
0.006353153
-0.0006968983
0.005194738
-0.001424757
0.002038414
-0.0009309994
-0.001216239
0.0005989139
-0.003602687
0.002009436
-0.002122317
0.00254286
0.0006540546
0.00129307
0.00341429
5.239452e-05
0.001888361
-0.001002658
0.00024735
-0.003091069
0.002423536
-0.005701711
0.005582492
-0.007077982
0.005276077
-0.007133448
0.001819972
-0.006664731
-0.0007953299
-0.005808409
-0.002089991
-0.004520284
-0.003180555
-0.002821994
-0.004217318
-0.0009134617
-0.004781252
0.0009646051
-0.004628352
-0.004228691
0.004895494
-0.003214268
-0.004722333
0.006215992
-0.0008150055
0.005348812
0.004849846
0.002155113
0.006151557
-0.0005098407
0.002157185
-0.001843093
0.002303581
-0.00291757
0.007551313
-0.00374031
0.006351831
-0.002935386
-0.002165803
-0.001212608
-0.005951619
0.0005492749
-0.005911103
0.001461391
-0.003188552
0.001579783
-0.0001475027
0.001056553
0.002560669
-0.001430707
0.007130628
-0.004010838
0.006553655
-0.002554659
-0.002320727
0.002591468
-0.01551857
0.007537262
-0.01742204
0.01104518
-0.01201157
0.01289093
-0.006609361
0.01278016
-0.000536101
0.01104877
0.00562898
0.006026081
0.02269642
-0.003075285
0.03100438
-0.008525563
0.003549886
-0.01093425
-0.004984317
-0.01307249
1.228608e-05
-0.01354339
-0.001220004
-0.01144493
-0.008655755
-0.007020668
-0.01560096
-0.003172468
-0.01114455
-0.003919956
0.008738788
-0.01455111
0.0304862
-0.02659886
0.02977564
-0.03087076
0.01585727
-0.03101192
0.01101085
-0.0306829
0.008570376
-0.03081519
0.004680626
-0.03116466
0.00255963
-0.03138779
0.001443259
-0.03150213
0.0008352878
-0.03153628
0.0004643586
-0.03149561
0.0001703094
-0.03140819
-3.696363e-05
-0.03112543
-0.0006636325
-0.03079499
-0.0008463412
-0.03043442
-0.0009541573
-0.03001099
-0.001157745
-0.02957541
-0.001209395
-0.02905457
-0.001481619
-0.02848275
-0.001652289
-0.02782183
-0.001934673
-0.02712818
-0.002039807
-0.02642366
-0.002086138
-0.02563605
-0.00234947
-0.02481638
-0.002449137
-0.02399506
-0.002462524
-0.02307055
-0.002789135
-0.02211523
-0.002885921
-0.02112043
-0.003011416
-0.02011636
-0.003042291
-0.01908874
-0.003123872
-0.01797413
-0.003388303
-0.01688033
-0.003332565
-0.01572184
-0.003532433
-0.01453422
-0.003625266
-0.01334071
-0.003643079
-0.01213976
-0.00367028
-0.01088537
-0.003834712
-0.009626273
-0.003847127
-0.008355651
-0.003881321
-0.007065348
-0.003945661
-0.00577438
-0.003939374
-0.004513316
-0.003839993
-0.003199317
-0.004006944
-0.001921746
-0.003886045
-0.0006927063
-0.003729524
0.0005708434
-0.003878508
0.002000925
-0.004443035
0.003382183
-0.004259027
0.004729683
-0.00413661
0.006042996
-0.004034913
0.007324599
-0.003933894
0.008602896
-0.003922942
0.009844654
-0.003809342
0.01110729
-0.003868931
0.01233434
-0.003762694
0.01350432
-0.003579105
0.0146853
-0.003608672
0.01584753
-0.003551809
0.01697159
-0.003427588
0.01809342
-0.003415665
0.019194
-0.003352669
0.02020513
-0.003067195
0.02121633
-0.003060931
0.02220114
-0.002981306
0.02312014
-0.002771237
0.02404605
-0.002786444
0.02488213
-0.002507911
0.02568536
-0.002396188
0.02642564
-0.002196996
0.02709964
-0.001982927
0.02777742
-0.001986377
0.02839576
-0.001799985
0.02895657
-0.00160957
0.02945295
-0.001406239
0.02989021
-0.001208404
0.03028801
-0.001072997
0.03059507
-0.0007809045
0.03089426
-0.0007294777
0.03112417
-0.0004808333
0.03118123
0.0001011233
0.03113346
0.0005173752
0.03099728
0.000959561
0.03075239
0.001767311
0.03048959
0.003533849
0.03093547
0.007300547
0.03162199
0.01338779
0.03099913
0.01642477
0.02935107
0.01086615
0.02754164
0.001730637
0.02489009
-0.0002526531
0.0173878
0.005161014
0.005397605
0.01491228
-0.004603492
0.03300748
-0.009606773
0.02737575
-0.00954859
0.001555946
-0.005642591
-0.01273186
-0.001274949
-0.01447105
0.001065296
-0.008177224
0.001324636
-0.003278094
0.001210409
-0.003488194
0.00203837
-0.008014631
0.003860744
-0.009479289
0.003366289
0.001031244
0.0008938196
0.008825622
-0.001004128
0.007092686
-0.001969376
0.003003661
-0.001400016
-0.001785599
0.0004439834
-0.005446686
0.002125697
-0.003804031
0.003277941
-0.0004981891
0.002484927
0.004207304
0.0007635622
0.003609725
-0.001282179
0.002293091
-0.004437949
0.005579306
-0.007284514
0.008429058
-0.008382402
0.006373965
-0.008400659
0.001838228
-0.007920964
-0.001275024
-0.006913812
-0.003097143
-0.005375054
-0.004719314
-0.003322901
-0.006269471
-0.001020849
-0.007083303
0.001251883
-0.006901084
-0.006191076
0.005924386
-0.003955622
-0.006691097
0.007727607
-0.002618226
0.00816336
0.004414092
0.005359637
0.008955281
0.001201139
0.006315683
-0.001247879
0.004752599
-0.002250445
0.008553878
-0.002906095
0.00700748
-0.001914639
-0.003157259
-0.0001673204
-0.007698937
0.001513909
-0.007592332
0.002232218
-0.00390686
0.002169602
-8.488714e-05
0.001798898
0.002931374
-0.0001054021
0.009034927
-0.0027927
0.009240953
-0.00115861
-0.003954817
0.004081985
-0.02075917
0.008591154
-0.02193121
0.01213716
-0.01555758
0.01411207
-0.008584274
0.01384895
-0.0002729844
0.01154929
0.007928642
0.006623774
0.02762193
-0.002966875
0.04059503
-0.01217995
0.01276296
-0.01817372
0.001009458
-0.02185028
0.003688847
-0.02315498
8.469137e-05
-0.02213518
-0.009675551
-0.01887128
-0.01886486
-0.01544126
-0.01457457
-0.01878494
0.01208247
-0.02852198
0.04022323
-0.03543534
0.036689
-0.03619564
0.01661756
-0.03616703
0.01098224
-0.03627876
0.008682112
-0.03663448
0.005036342
-0.03703895
0.002964099
-0.03730108
0.001705388
-0.03745577
0.0009899829
-0.03753662
0.0005452092
-0.03750848
0.0001421701
-0.03744167
-0.0001037737
-0.03712498
-0.0009803277
-0.03675483
-0.001216486
-0.03634725
-0.001361742
-0.03585122
-0.001653768
-0.0353563
-0.001704322
-0.03474311
-0.002094808
-0.03407497
-0.002320423
-0.03329219
-0.002717459
-0.03247088
-0.002861117
-0.03163999
-0.00291703
-0.03070152
-0.003287943
-0.02972523
-0.003425421
-0.02875048
-0.003437277
-0.02764838
-0.003891232
-0.02650607
-0.004028234
-0.02531735
-0.004200132
-0.02411974
-0.004239902
-0.0228937
-0.004349916
-0.02155676
-0.004725236
-0.02025202
-0.00463731
-0.01886342
-0.004921029
-0.01744319
-0.005045501
-0.01601364
-0.005072622
-0.01457704
-0.005106882
-0.01307274
-0.005339019
-0.01156259
-0.005357273
-0.01003562
-0.005408288
-0.008487743
-0.005493541
-0.006934682
-0.005492436
-0.005417515
-0.00535716
-0.00382957
-0.005594889
-0.002280388
-0.005435227
-0.0007880801
-0.005221832
0.0007270275
-0.005393615
0.002424548
-0.006140555
0.004072712
-0.005907191
0.00568692
-0.005750818
0.007254657
-0.00560265
0.008783962
-0.005463199
0.01031261
-0.005451589
0.01179806
-0.005294796
0.01331402
-0.005384891
0.01478084
-0.005229508
0.01618568
-0.004983946
0.017606
-0.005028996
0.01899509
-0.004940895
0.02034349
-0.004775987
0.02169424
-0.004766413
0.02300973
-0.00466816
0.02422031
-0.004277777
0.0254333
-0.004273922
0.02661073
-0.004158733
0.02770583
-0.003866337
0.02881527
-0.003895892
0.02981096
-0.003503595
0.0307669
-0.00335213
0.03164615
-0.003076252
0.03244251
-0.002779286
0.03324666
-0.002790519
0.03397193
-0.002525261
0.03463326
-0.002270902
0.0352103
-0.001983271
0.03571636
-0.001714466
0.03617839
-0.001535031
0.03651718
-0.001119697
0.03685523
-0.001067524
0.0371001
-0.0007257
0.03714207
5.914942e-05
0.03705115
0.0006082923
0.03687585
0.001134861
0.03661526
0.002027906
0.03623654
0.003912569
0.03626213
0.007274956
0.03730812
0.0123418
0.03852849
0.01520441
0.03831251
0.01108212
0.03648574
0.003557412
0.03399315
0.002239937
0.02652621
0.01262795
0.01175972
0.02967876
-0.0004812778
0.04524848
-0.004586094
0.03148056
-0.004790393
0.001760245
-0.0006495355
-0.01687272
0.003619445
-0.01874003
0.006207674
-0.01076545
0.006159073
-0.003229493
0.004876353
-0.002205474
0.003703859
-0.006842137
0.003633933
-0.009409363
0.002819008
0.00184617
0.0006394312
0.0110052
-0.001507744
0.009239861
-0.002812461
0.004308379
-0.002237023
-0.002361037
-5.427339e-05
-0.007629436
0.002059277
-0.005917582
0.003731403
-0.002170315
0.003199795
0.004738913
0.001256096
0.005553424
-0.00167032
0.005219506
-0.005746292
0.009655279
-0.008837833
0.0115206
-0.009920175
0.007456308
-0.01004456
0.00196261
-0.009551455
-0.001768126
-0.008377037
-0.004271561
-0.006537098
-0.006559252
-0.004048071
-0.008758499
-0.001248494
-0.009882881
0.001472951
-0.009622529
-0.008673748
0.007141269
-0.004633253
-0.009199114
0.009355749
-0.004832706
0.01096068
0.002809157
0.009742942
0.01017302
0.004916717
0.01114191
0.0007958156
0.008873501
-0.0009699191
0.01031961
-0.001295268
0.007332829
0.000331712
-0.004784239
0.001784679
-0.009151905
0.00318386
-0.008991513
0.003449543
-0.004172543
0.002987742
0.0003769143
0.002487896
0.00343122
0.001898886
0.009623937
-0.0001684201
0.01130826
0.00113511
-0.005258348
0.005462686
-0.02508674
0.009368657
-0.02583718
0.01289829
-0.01908721
0.01501166
-0.01069765
0.0146197
0.0001189794
0.01195659
0.01059175
0.0062801
0.03329842
-0.004659491
0.05153462
-0.01715776
0.02526123
-0.02632952
0.01018121
-0.03126681
0.008626145
-0.03377243
0.002590305
-0.03479863
-0.008649353
-0.03489872
-0.01876477
-0.03546666
-0.01400663
-0.03923765
0.01585346
-0.04299702
0.04398261
-0.04299435
0.03668633
-0.04255471
0.01617793
-0.04341067
0.0118382
-0.0438209
0.009092334
-0.04429735
0.005512799
-0.04476284
0.003429589
-0.04504735
0.001989896
-0.04519946
0.001142096
-0.04526052
0.0006062631
-0.04517613
5.778096e-05
-0.04506963
-0.000210277
-0.04467
-0.001379955
-0.04421305
-0.001673437
-0.04370446
-0.001870327
-0.04308119
-0.002277039
-0.04248723
-0.002298288
-0.0417348
-0.002847233
-0.040928
-0.003127228
-0.03997821
-0.003667244
-0.03898225
-0.003857076
-0.03798337
-0.00391591
-0.03684823
-0.004423081
-0.03567156
-0.004602096
-0.03450386
-0.00460498
-0.03317874
-0.005216343
-0.03180075
-0.005406228
-0.03037362
-0.005627262
-0.02893588
-0.005677638
-0.02746837
-0.005817428
-0.02585701
-0.006336594
-0.02430021
-0.006194116
-0.02263103
-0.006590209
-0.02092914
-0.006747392
-0.01921658
-0.006785177
-0.01749904
-0.006824424
-0.01569852
-0.007139541
-0.01389391
-0.007161882
-0.01205995
-0.007242246
-0.01020533
-0.007348165
-0.008332734
-0.007365028
-0.00651384
-0.007176054
-0.004598645
-0.007510084
-0.002714684
-0.007319188
-0.0008986284
-0.007037888
0.0009210228
-0.007213267
0.002937855
-0.008157387
0.004908244
-0.00787758
0.006830578
-0.007673152
0.008695645
-0.007467717
0.01052158
-0.007289137
0.01235293
-0.007282935
0.01413379
-0.007075654
0.01596094
-0.007212042
0.01771503
-0.006983597
0.01940661
-0.006675529
0.02112257
-0.006744956
0.02278399
-0.006602319
0.02440213
-0.006394119
0.02603947
-0.006403755
0.0276153
-0.006243988
0.02906579
-0.005728268
0.03052679
-0.005734922
0.03194229
-0.005574232
0.03325346
-0.005177509
0.03459131
-0.005233744
0.03578956
-0.004701842
0.03694054
-0.004503109
0.03799756
-0.004133271
0.0389599
-0.003741629
0.03993737
-0.003767987
0.0408098
-0.003397698
0.04161982
-0.003080915
0.04231917
-0.002682622
0.04294176
-0.002337056
0.04351245
-0.002105721
0.04393956
-0.001546806
0.04436185
-0.001489823
0.0446774
-0.001041251
0.04477118
-3.462173e-05
0.04470999
0.0006694772
0.04453247
0.001312379
0.0442556
0.002304781
0.0438534
0.004314764
0.04364098
0.007487385
0.04410382
0.01187895
0.04495452
0.01435371
0.04473313
0.01130352
0.04268947
0.005601067
0.04057054
0.004358864
0.03553325
0.01766525
0.02217372
0.04303829
0.009658593
0.05776361
0.003631866
0.03750729
0.003535357
0.001856755
0.006983343
-0.0203207
0.01102583
-0.02278252
0.01327688
-0.0130165
0.01297357
-0.002926182
0.01058883
0.0001792698
0.007013921
-0.00326723
0.004401903
-0.006797346
0.002826979
0.003421094
0.0005042499
0.01332793
-0.002285522
0.01202963
-0.004126488
0.006149345
-0.003691124
-0.002796401
-0.0009065205
-0.01041404
0.001681165
-0.008505267
0.003950666
-0.004439817
0.003598377
0.005091202
0.001440066
0.007711736
-0.002354239
0.009013811
-0.007280599
0.01458164
-0.01065938
0.01489938
-0.01188721
0.008684136
-0.01221826
0.002293662
-0.01171943
-0.002266959
-0.01034289
-0.005648095
-0.008147741
-0.008754405
-0.005102392
-0.01180385
-0.001692999
-0.01329227
0.001589954
-0.01290548
-0.01171705
0.008521345
-0.005232199
-0.01248826
0.01128353
-0.007594887
0.01361879
0.0004738923
0.01441997
0.00937184
0.01089807
0.01466381
0.005229351
0.01454222
0.001879698
0.01366927
0.001895496
0.007317031
0.00404488
-0.006933622
0.005312764
-0.01041979
0.005859859
-0.009538608
0.005339406
-0.00365209
0.004243931
0.00147239
0.003320013
0.004355137
0.003811838
0.009132113
0.003966654
0.01115344
0.003879624
-0.005171319
0.006321578
-0.02752869
0.00998644
-0.02950205
0.0137841
-0.02288487
0.01603457
-0.01294812
0.01531651
0.0008370413
0.01214035
0.01376791
0.004543554
0.04089522
-0.008596084
0.06467426
-0.023205
0.03987014
-0.03426855
0.02124476
-0.03987766
0.01423525
-0.04355945
0.006272101
-0.04666223
-0.005546571
-0.0501004
-0.0153266
-0.05442873
-0.009678304
-0.0574178
0.01884253
-0.05505317
0.04161797
-0.05098953
0.03262269
-0.05109187
0.01628027
-0.05217989
0.01292622
-0.0525296
0.009442047
-0.0530199
0.006003096
-0.05352104
0.003930732
-0.05384878
0.002317628
-0.05403582
0.00132914
-0.05417682
0.0007472652
-0.05405701
-6.202787e-05
-0.05400749
-0.0002598038
-0.0534804
-0.001907044
-0.05295766
-0.002196174
-0.05236639
-0.002461592
-0.05160109
-0.003042343
-0.0509256
-0.002973783
-0.0500104
-0.003762428
-0.04906191
-0.004075723
-0.04792363
-0.004805524
-0.04672279
-0.00505791
-0.04553839
-0.005100318
-0.0441824
-0.005779071
-0.04277055
-0.006013939
-0.04136902
-0.006006515
-0.03979087
-0.006794488
-0.03814088
-0.007056224
-0.03643228
-0.007335862
-0.03469
-0.007419912
-0.03295846
-0.007548971
-0.03100656
-0.008288493
-0.02915505
-0.008045624
-0.02714109
-0.008604171
-0.02510551
-0.00878297
-0.0230599
-0.008830789
-0.02097467
-0.008909657
-0.01883745
-0.009276763
-0.01668943
-0.009309895
-0.01449387
-0.009437805
-0.01229343
-0.009548613
-0.01000455
-0.009653906
-0.007848049
-0.009332554
-0.005540169
-0.009817963
-0.003243428
-0.009615929
-0.00102914
-0.009252175
0.001162326
-0.009404733
0.003560963
-0.01055602
0.005918455
-0.01023507
0.008176128
-0.009930825
0.010404
-0.009695593
0.01260269
-0.009487824
0.01479526
-0.009475506
0.01693087
-0.009211261
0.01914975
-0.009430924
0.02125312
-0.009086965
0.02327973
-0.008702136
0.02534127
-0.008806495
0.02734923
-0.008610286
0.02929458
-0.008339466
0.03125034
-0.008359513
0.03314407
-0.008137716
0.0348769
-0.007461101
0.03662649
-0.007484511
0.03830315
-0.007250892
0.03988824
-0.006762606
0.04149433
-0.00683983
0.04291997
-0.006127484
0.04431126
-0.005894395
0.04555994
-0.005381948
0.04671182
-0.004893516
0.04788831
-0.00494447
0.04891252
-0.004421912
0.04989265
-0.004061044
0.05070646
-0.003496435
0.05145128
-0.00308187
0.05213885
-0.002793293
0.05262183
-0.002029785
0.05312939
-0.001997381
0.05351431
-0.001426177
0.05358343
-0.0001037364
0.05348372
0.0007691842
0.05326631
0.001529785
0.05297034
0.002600758
0.05258086
0.004704238
0.05244433
0.007623921
0.05276977
0.01155351
0.05316515
0.01395832
0.05253467
0.011934
0.05013611
0.00799963
0.04755665
0.006938317
0.04484633
0.02037557
0.03668281
0.05120181
0.02535855
0.06908788
0.0172569
0.04560893
0.0165035
0.002610157
0.01948855
-0.02330575
0.02187339
-0.02516736
0.02289564
-0.01403875
0.02189708
-0.001927619
0.01860225
0.003474102
0.01270576
0.002629258
0.007137865
-0.001229453
0.003771152
0.006787807
0.0004980256
0.01660105
-0.003403608
0.01593127
-0.006102173
0.00884791
-0.005934439
-0.002964135
-0.002238275
-0.0141102
0.0008215351
-0.01156508
0.003667393
-0.007285674
0.003622998
0.005135597
0.001245723
0.01008901
-0.003479767
0.0137393
-0.00926938
0.02037125
-0.01296113
0.01859113
-0.0144556
0.01017861
-0.01508714
0.002925199
-0.01458479
-0.002769312
-0.01297391
-0.00725897
-0.01038223
-0.01134609
-0.006629393
-0.01555668
-0.002457732
-0.01746394
0.001545814
-0.01690903
-0.01540343
0.01009894
-0.005855239
-0.01673196
0.01372226
-0.0112182
0.01647759
-0.002281441
0.01874808
0.007101353
0.01833699
0.01507491
0.01423752
0.01864169
0.01036817
0.01753861
0.009118155
0.008567047
0.01071298
-0.008528445
0.01068609
-0.0103929
0.009693971
-0.008546489
0.008084514
-0.002042633
0.006181973
0.003374931
0.004637441
0.005899668
0.005129827
0.008639727
0.006408532
0.009874738
0.005577953
-0.00434074
0.006600673
-0.02855141
0.01056354
-0.03346491
0.01491217
-0.0272335
0.01746561
-0.01550156
0.01573814
0.002564507
0.01181908
0.01768697
0.001584484
0.05112981
-0.014928
0.08118674
-0.03051199
0.05545414
-0.04198298
0.03271575
-0.04752571
0.01977798
-0.05226229
0.01100869
-0.05663766
-0.001171204
-0.06182677
-0.01013749
-0.0678795
-0.00362557
-0.07028193
0.02124496
-0.06562365
0.03695969
-0.06113208
0.02813112
-0.06192815
0.01707634
-0.06283218
0.01383025
-0.06327001
0.009879872
-0.06381431
0.0065474
-0.06438568
0.004502105
-0.06474624
0.002678183
-0.06487402
0.001456922
-0.06509402
0.0009672661
-0.06484441
-0.0003116332
-0.06475624
-0.0003479816
-0.06419237
-0.002470915
-0.06352651
-0.00286203
-0.06287933
-0.003108775
-0.06186801
-0.004053662
-0.06110686
-0.003734928
-0.05999218
-0.004877108
-0.05888326
-0.005184648
-0.05749532
-0.006193456
-0.05602263
-0.006530604
-0.05462623
-0.006496716
-0.05303078
-0.007374522
-0.05127262
-0.007772102
-0.04959917
-0.007679964
-0.04773302
-0.008660636
-0.04577305
-0.009016196
-0.04368681
-0.009422106
-0.04157612
-0.009530601
-0.03959632
-0.009528764
-0.03716696
-0.01071786
-0.0349983
-0.01021428
-0.03250682
-0.01109565
-0.03012663
-0.01116316
-0.02767597
-0.01128145
-0.02513875
-0.01144688
-0.02262024
-0.01179528
-0.02002365
-0.01190648
-0.01738466
-0.0120768
-0.01480929
-0.01212398
-0.01201673
-0.01244646
-0.009502235
-0.01184705
-0.006679683
-0.01264052
-0.003900135
-0.01239548
-0.001196755
-0.01195555
0.001472642
-0.01207413
0.004357289
-0.01344067
0.007073627
-0.01295141
0.009726575
-0.01258377
0.01243213
-0.01240115
0.01511186
-0.01216755
0.01775147
-0.01211511
0.02028291
-0.0117427
0.02301627