/*--------------------------------*- C++ -*----------------------------------*\
| =========                 |                                                 |
| \\      /  F ield         | OpenFOAM: The Open Source CFD Toolbox           |
|  \\    /   O peration     | Version:  2406                                  |
|   \\  /    A nd           | Website:  www.openfoam.com                      |
|    \\/     M anipulation  |                                                 |
\*---------------------------------------------------------------------------*/
FoamFile
{
    version     2.0;
    format      ascii;
    arch        "LSB;label=32;scalar=64";
    class       volVectorField;
    location    "1.12";
    object      U;
}
// * * * * * * * * * * * * * * * * * * * * * * * * * * * * * * * * * * * * * //

dimensions      [0 1 -1 0 0 0 0];

internalField   nonuniform List<vector> 
15536
(
(-0.008961061 -0.2593397 2.300682e-23)
(-0.03532669 0.4250823 -4.450971e-19)
(-0.09713584 1.094025 -7.772665e-19)
(-0.1187914 1.347093 -6.74975e-19)
(0.03281648 0.1019612 -9.082476e-21)
(-0.01004544 -0.2913934 4.923197e-21)
(-0.3503455 1.145201 1.014152e-20)
(0.2782008 -0.5990505 -9.778705e-21)
(0.6764982 -1.94959 3.491229e-18)
(0.391046 -1.223907 3.359056e-18)
(0.2772142 -0.6835479 0)
(1.272236 -2.328614 0)
(1.938667 -3.320867 -1.830276e-20)
(2.060323 -3.336174 4.380154e-18)
(1.835471 -2.775036 1.489796e-18)
(1.448209 -2.039739 -1.300507e-18)
(1.008 -1.321918 -2.040108e-19)
(0.7889016 -0.9335251 -7.61967e-21)
(0.9295453 -1.010362 1.655646e-20)
(1.403849 -1.381448 -8.920067e-21)
(1.846445 -1.661381 0)
(0.8764093 -0.8001933 -6.282057e-19)
(-1.389713 0.9752186 0)
(-3.564186 2.499962 3.24588e-18)
(-5.39642 3.614502 -3.588841e-20)
(-7.082051 4.3858 -6.785391e-20)
(-8.11171 4.86305 6.807601e-20)
(-4.200755 2.712884 -6.318957e-18)
(5.39581 -2.212984 6.424871e-19)
(5.969921 -2.687579 0)
(-0.1366926 -0.1642173 -1.105088e-20)
(-2.287759 0.5779528 -1.850085e-18)
(-4.77408 1.182521 2.68759e-18)
(-7.550142 1.686089 0)
(-10.81278 2.288365 -7.532695e-18)
(-7.874764 1.69453 -2.582904e-20)
(-0.6617148 0.2628377 3.008846e-18)
(0.4216989 -0.195913 -1.349442e-18)
(1.713544 0.01293732 1.415632e-21)
(7.339321 0.4256282 -3.443918e-19)
(10.9017 0.9918659 1.409482e-18)
(12.71843 1.612288 -2.308132e-20)
(13.68567 2.274216 2.274786e-20)
(14.2331 2.959985 0)
(14.5285 3.637996 -5.879653e-18)
(14.6397 4.289706 -5.869885e-18)
(14.57721 4.90357 0)
(14.39942 5.483144 -1.127254e-17)
(14.1301 6.028138 1.101965e-17)
(13.81536 6.549996 1.066031e-17)
(13.44305 7.031705 3.89252e-20)
(13.00867 7.469134 -9.700435e-18)
(12.52061 7.85721 0)
(11.98843 8.197813 0)
(11.42146 8.487483 7.852648e-18)
(10.81778 8.717949 7.20275e-18)
(10.19605 8.899949 4.782273e-20)
(9.562962 9.031974 5.66911e-18)
(8.905793 9.095399 9.932542e-18)
(8.237405 9.09845 4.200982e-18)
(7.565958 9.04417 3.374441e-18)
(6.905135 8.942037 -2.361155e-20)
(6.251957 8.782332 0)
(5.604071 8.558108 9.935043e-19)
(4.975137 8.285956 0)
(4.361174 7.952695 6.312562e-19)
(3.77099 7.564647 -2.953851e-20)
(3.215041 7.132264 -2.811592e-21)
(2.692714 6.653015 9.842265e-21)
(2.208355 6.131158 -3.569066e-18)
(1.767861 5.575271 -1.755469e-20)
(1.371891 4.98278 2.428418e-18)
(1.02209 4.355588 2.692071e-18)
(0.7238461 3.70908 0)
(0.4767985 3.048077 0)
(0.2839764 2.369085 3.310742e-18)
(0.1427495 1.678263 -3.204055e-22)
(0.05680268 0.9860211 9.051343e-19)
(0.02859622 0.2573034 1.678625e-21)
(0.05157356 -0.5393685 -7.038372e-21)
(0.1218445 -1.31093 -1.743296e-18)
(0.2495596 -2.027303 0)
(0.4316654 -2.714192 3.15252e-18)
(0.6657627 -3.381873 0)
(0.9509018 -4.027284 -2.673363e-18)
(1.284822 -4.646441 2.369033e-18)
(1.667007 -5.237466 1.750991e-20)
(2.094104 -5.798027 3.537115e-18)
(2.562968 -6.318115 9.677593e-21)
(3.069585 -6.795532 -2.134954e-18)
(3.611217 -7.231692 -1.361342e-18)
(4.18516 -7.620359 7.243892e-21)
(4.789647 -7.963886 2.777635e-19)
(5.416569 -8.257095 -1.120402e-18)
(6.058719 -8.496412 1.862551e-20)
(6.706143 -8.668673 6.668862e-21)
(7.364157 -8.788219 -3.638409e-18)
(8.028368 -8.855099 0)
(8.690349 -8.861604 1.04967e-17)
(9.352693 -8.818582 5.99575e-18)
(9.995872 -8.712162 1.049868e-19)
(10.61606 -8.544625 -7.663585e-18)
(11.20932 -8.319171 0)
(11.77461 -8.040107 0)
(12.31124 -7.715167 0)
(12.81028 -7.342589 0)
(13.26181 -6.923734 1.091215e-17)
(13.66257 -6.46247 1.152957e-17)
(14.01288 -5.963583 2.555201e-20)
(14.30634 -5.433801 -1.240841e-17)
(14.52961 -4.872837 -6.341099e-18)
(14.65465 -4.279886 -6.554959e-18)
(14.63488 -3.652801 5.133206e-20)
(14.43535 -2.996741 6.702024e-18)
(14.00681 -2.323788 3.451227e-18)
(13.20994 -1.663203 -2.670342e-20)
(11.63417 -1.048967 -6.45831e-21)
(8.306708 -0.4791705 4.31471e-19)
(2.887034 -0.03845959 -8.887903e-19)
(-1.069902 -0.1129186 -2.362557e-20)
(-4.011049 -0.7988912 1.553008e-20)
(-6.849888 -1.316158 4.418985e-18)
(-6.333036 -1.230065 3.241674e-20)
(-4.326352 -0.8370681 0)
(-1.854367 -0.2631817 -5.094641e-18)
(2.440788 1.057957 -3.802275e-18)
(7.08068 2.682749 7.493053e-21)
(1.441944 0.1553115 1.014077e-17)
(-7.455272 -4.034005 -1.70857e-17)
(-9.783618 -5.217453 0)
(-7.959942 -4.464103 0)
(-5.468326 -3.29978 -9.499905e-18)
(-3.387026 -2.213162 0)
(-1.911058 -1.340083 4.331017e-20)
(-0.5256686 -0.3430604 -5.138127e-18)
(1.133035 1.004143 -4.040045e-18)
(2.167927 1.973891 2.709113e-20)
(2.018308 1.978148 -6.911734e-18)
(1.475175 1.577426 -5.816315e-20)
(0.7224283 0.7756835 8.395682e-18)
(-0.1139035 -0.2349765 5.029332e-18)
(-0.4421659 -0.6501188 5.609686e-18)
(-0.270801 -0.3856868 5.841222e-18)
(0.1518535 0.2397858 0)
(0.08554789 0.1293833 -2.410474e-20)
(-0.002854722 0.03168182 -6.13995e-18)
(-0.06144296 -0.1447253 0)
(-0.1805125 -0.4156647 6.426231e-18)
(-0.1011606 -0.2314666 -5.034105e-20)
(-0.2539349 -0.9594341 2.473072e-20)
(-0.5141736 -2.283371 3.182191e-18)
(-0.6372322 -3.238597 1.18991e-21)
(-0.5807351 -3.413399 0)
(-0.4083528 -3.02441 1.412928e-18)
(-0.2457266 -2.443656 1.076601e-20)
(-0.1215459 -1.688437 2.251154e-21)
(-0.03447884 -0.9394547 -2.27187e-21)
(-0.09325132 -0.05576556 -2.09557e-19)
(-0.1387004 0.7051964 3.663419e-19)
(-0.2210165 1.357091 0)
(-0.2729113 2.083649 5.537837e-19)
(-0.1922907 1.64814 0)
(-0.1344037 0.5418449 1.537714e-18)
(0.1266004 -0.3243152 8.265866e-21)
(0.9475964 -2.1917 -7.668775e-21)
(1.304344 -3.521528 -2.789221e-18)
(1.320164 -3.377852 -2.648705e-18)
(1.582144 -3.316188 0)
(2.095376 -3.894624 1.586887e-20)
(2.097464 -3.772317 -1.2544e-21)
(1.87937 -3.262406 -1.802355e-18)
(1.626043 -2.675543 -2.47711e-18)
(1.197998 -1.871595 5.36056e-19)
(0.7408151 -1.110428 1.681722e-19)
(0.5848083 -0.697296 3.259384e-21)
(1.153468 -1.164518 0)
(2.336613 -2.266849 0)
(2.403694 -2.335151 0)
(0.4716476 -0.8223193 -4.927259e-19)
(-1.929669 1.050672 1.297119e-20)
(-3.909939 2.458022 -1.248231e-20)
(-5.578224 3.45831 4.58066e-20)
(-7.155165 4.059809 -4.377724e-20)
(-7.886792 4.556625 0)
(-7.220793 4.785728 0)
(5.303307 -1.628344 -9.269592e-19)
(6.889477 -3.389093 2.664114e-21)
(2.061272 -1.268937 -2.752773e-21)
(1.09617 -0.638573 1.544741e-18)
(-0.3301581 -0.3088949 2.320622e-18)
(-2.297371 -0.002975415 -4.103913e-20)
(-4.677188 0.8280076 -6.668407e-18)
(-7.579907 1.813986 3.214092e-18)
(-2.118981 0.7396048 -5.482341e-21)
(7.214911 -0.13917 9.268835e-19)
(12.46495 0.222913 0)
(16.6784 0.6120524 2.357188e-19)
(18.03531 0.9983256 2.030488e-18)
(18.3511 1.513474 2.180647e-18)
(18.39427 2.143115 2.254079e-18)
(18.2933 2.814242 -7.112299e-20)
(18.10883 3.491278 4.692231e-18)
(17.85801 4.165754 -3.58816e-20)
(17.5558 4.832653 0)
(17.20056 5.474594 8.974955e-18)
(16.79222 6.093664 0)
(16.33498 6.680397 -6.414359e-20)
(15.82581 7.222861 6.429733e-20)
(15.26087 7.717574 7.739599e-18)
(14.64771 8.15841 -5.452651e-20)
(13.99352 8.545394 6.797895e-18)
(13.30647 8.873987 -6.313184e-18)
(12.59021 9.141054 0)
(11.85483 9.355803 3.775264e-20)
(11.10741 9.513695 -4.648465e-18)
(10.34373 9.601581 -7.902702e-18)
(9.568403 9.621129 0)
(8.793901 9.582647 -2.708154e-18)
(8.029457 9.487734 -1.338494e-20)
(7.275843 9.328859 1.389806e-18)
(6.534124 9.104934 3.319353e-21)
(5.811173 8.821779 -3.358826e-21)
(5.111024 8.476536 -5.120631e-19)
(4.43726 8.07322 1.146004e-18)
(3.800674 7.616858 0)
(3.20234 7.112758 0)
(2.647094 6.564684 -2.015378e-20)
(2.139362 5.974486 0)
(1.682089 5.344003 0)
(1.277083 4.677296 0)
(0.9291672 3.985603 -2.423405e-18)
(0.6371163 3.278872 1.949945e-20)
(0.4100137 2.550854 1.131646e-20)
(0.2391689 1.810256 -5.543198e-21)
(0.1324965 1.064487 -7.426688e-19)
(0.0994444 0.2804865 3.029153e-21)
(0.12779 -0.5662728 -7.472642e-19)
(0.2067051 -1.392179 1.421464e-18)
(0.3582491 -2.162109 1.083551e-20)
(0.5729958 -2.899704 -2.557206e-18)
(0.8463854 -3.616649 -3.750019e-20)
(1.178538 -4.310033 2.215614e-18)
(1.565457 -4.972155 -1.97085e-18)
(2.007913 -5.60214 0)
(2.498555 -6.198987 -5.77687e-18)
(3.03588 -6.747867 -1.59783e-20)
(3.617159 -7.251392 1.732267e-18)
(4.236681 -7.712835 1.110919e-18)
(4.891923 -8.11923 0)
(5.581326 -8.473017 0)
(6.296795 -8.777935 0)
(7.029591 -9.018232 1.459016e-20)
(7.775147 -9.189615 -1.449121e-20)
(8.533074 -9.302809 2.856101e-18)
(9.297889 -9.356286 5.401047e-21)
(10.06573 -9.346324 -4.247542e-18)
(10.83105 -9.277981 -7.17102e-20)
(11.58351 -9.14654 1.096732e-17)
(12.31496 -8.949094 6.095703e-18)
(13.02098 -8.688663 -4.959353e-20)
(13.70411 -8.371695 7.1107e-18)
(14.35928 -8.003593 5.806335e-20)
(14.97902 -7.579139 -6.597199e-20)
(15.55573 -7.104187 6.569381e-20)
(16.08572 -6.581575 7.230571e-20)
(16.56836 -6.017675 9.497356e-18)
(17.00018 -5.41732 -7.488034e-20)
(17.36447 -4.781774 0)
(17.67703 -4.122025 0)
(17.95449 -3.450938 0)
(18.17991 -2.779876 0)
(18.33145 -2.113445 2.020848e-20)
(18.3731 -1.472736 -2.008126e-20)
(18.2308 -0.9510652 1.219546e-18)
(17.23041 -0.583531 4.647825e-21)
(13.46653 -0.2560831 0)
(6.290701 -0.07391528 -1.375221e-18)
(-3.395608 -0.5875332 3.450266e-18)
(-3.312826 -0.5624829 -3.962443e-18)
(0.08285269 0.3171635 4.76288e-20)
(1.021037 0.5726962 -5.327589e-18)
(2.03768 0.9575049 3.252513e-20)
(3.854506 1.78111 0)
(7.40369 2.773762 4.599932e-18)
(-1.503564 -1.725884 -1.494198e-17)
(-9.266828 -5.102927 -1.282705e-17)
(-8.841074 -4.403768 -1.217817e-20)
(-7.375724 -3.695934 -1.701842e-19)
(-5.039019 -2.66036 7.444227e-20)
(-3.111726 -1.771633 0)
(-1.797489 -1.067041 4.980631e-18)
(-0.6425485 -0.1774204 4.078669e-18)
(0.9483303 1.171284 4.799422e-21)
(2.643651 2.637335 -2.772245e-18)
(3.106854 3.064655 5.551646e-18)
(2.165043 2.186025 2.913552e-18)
(0.7524427 0.6248318 8.575827e-22)
(-0.2663343 -0.5430388 -4.077149e-18)
(-0.537061 -0.7710708 -3.445407e-20)
(-0.3646734 -0.4129664 -4.791318e-18)
(0.07305971 0.2390005 3.905328e-20)
(0.4236525 0.7345686 7.526567e-22)
(0.1118354 0.1458717 -3.943123e-20)
(-0.2617434 -0.7108754 0)
(-0.4222882 -1.134481 0)
(-0.4870023 -1.523031 -5.17024e-18)
(-0.6288341 -2.485719 0)
(-0.8176452 -3.533427 -5.096111e-18)
(-0.8137552 -3.76301 2.564171e-18)
(-0.6844444 -3.467843 -1.89093e-20)
(-0.5095246 -3.053595 1.885834e-20)
(-0.3327343 -2.401031 1.091944e-18)
(-0.2062719 -1.589116 -5.073956e-19)
(-0.105664 -0.7898061 -2.256783e-19)
(-0.1628516 0.06414736 1.693827e-19)
(-0.2052397 0.7938045 -2.969486e-19)
(-0.2812402 1.517851 7.595855e-21)
(-0.2648859 2.04887 -4.660235e-19)
(-0.2310429 2.358539 0)
(-0.1610336 1.318956 -1.234888e-18)
(0.5479644 -1.239734 -1.317147e-20)
(1.480862 -3.217038 9.854559e-19)
(1.696037 -4.475032 2.248168e-18)
(1.720708 -4.39026 2.151583e-18)
(1.866931 -4.048976 1.864415e-18)
(1.94267 -3.63892 -1.389353e-20)
(1.775482 -3.19771 0)
(1.723366 -3.009943 0)
(1.395812 -2.443924 1.003523e-18)
(0.9349573 -1.650216 4.541975e-19)
(0.4505024 -0.8494418 -1.349431e-19)
(0.3478523 -0.3488513 -5.44027e-21)
(0.9926131 -0.7979344 0)
(2.284457 -2.107411 -7.674249e-19)
(2.068183 -2.158669 -6.68506e-19)
(-0.2070639 -0.6421829 3.927117e-19)
(-2.37769 1.066199 0)
(-3.94571 2.229742 2.085948e-18)
(-5.279111 3.091423 0)
(-6.555471 3.535584 -5.374795e-18)
(-6.955527 4.118706 0)
(-7.225234 5.535995 -3.78487e-18)
(3.512619 0.003322591 6.134004e-19)
(7.135588 -3.534581 0)
(5.306102 -2.516653 0)
(5.525371 -2.055356 -2.081007e-21)
(4.923063 -1.902894 -1.748414e-18)
(3.549343 -1.626208 3.158017e-18)
(1.226501 -0.7027547 1.135691e-17)
(-4.431766 1.201198 -2.827506e-18)
(2.026665 0.9453228 1.657757e-18)
(14.20992 0.2084757 -6.497262e-19)
(17.38354 0.522308 0)
(18.06237 0.907748 0)
(17.83546 1.357163 -1.675269e-18)
(17.8284 1.980122 -1.827196e-18)
(17.81405 2.673625 -3.68284e-18)
(17.73166 3.372636 3.713629e-18)
(17.58262 4.076262 8.86703e-20)
(17.36832 4.755147 -5.926957e-20)
(17.08773 5.406155 0)
(16.73268 6.020074 0)
(16.31974 6.603967 7.060502e-18)
(15.86134 7.158558 -6.839088e-18)
(15.35365 7.666317 0)
(14.79253 8.126265 0)
(14.18658 8.530998 8.945745e-20)
(13.54129 8.883648 -5.668585e-18)
(12.86621 9.177565 0)
(12.16512 9.409037 -4.609806e-18)
(11.44586 9.590567 -4.154229e-18)
(10.71752 9.71625 -3.629105e-18)
(9.976786 9.771199 3.177424e-18)
(9.224372 9.760398 -3.783737e-20)
(8.473922 9.694772 2.16917e-18)
(7.734301 9.57518 0)
(7.008113 9.392355 -1.134062e-18)
(6.295345 9.146312 -5.058849e-21)
(5.599572 8.84507 8.231542e-21)
(4.932472 8.480471 -4.857918e-19)
(4.288742 8.062193 0)
(3.681532 7.5934 -1.49625e-18)
(3.111151 7.0798 -1.695463e-20)
(2.584467 6.524177 2.418493e-18)
(2.102587 5.929487 1.427144e-18)
(1.669851 5.296582 -1.625298e-18)
(1.286639 4.629773 -1.81061e-18)
(0.9573155 3.939834 1.972384e-18)
(0.6797543 3.23731 -2.1245e-18)
(0.4687235 2.514071 -1.095012e-18)
(0.306081 1.780916 2.319843e-18)
(0.205372 1.044834 1.21468e-18)
(0.180259 0.2727588 2.475083e-21)
(0.2115017 -0.553404 6.183751e-19)
(0.2808635 -1.3672 -9.259301e-21)
(0.4242442 -2.128822 0)
(0.6284048 -2.861535 -1.604654e-20)
(0.8865275 -3.575923 -1.384274e-20)
(1.201033 -4.267793 -1.753067e-18)
(1.566146 -4.930113 3.236961e-18)
(1.98783 -5.560905 -1.424044e-18)
(2.45264 -6.161931 2.342505e-18)
(2.961915 -6.717074 1.675435e-20)
(3.516778 -7.22807 0)
(4.107121 -7.700744 9.532255e-19)
(4.732672 -8.12035 2.306598e-21)
(5.39409 -8.488654 9.644896e-20)
(6.079641 -8.812662 0)
(6.782859 -9.073915 1.204411e-18)
(7.50231 -9.266631 0)
(8.23477 -9.404143 -4.789558e-20)
(8.974048 -9.484902 2.840653e-18)
(9.720284 -9.502057 0)
(10.46354 -9.464843 -3.968847e-18)
(11.19606 -9.36637 -4.497797e-18)
(11.90993 -9.202957 -4.996506e-18)
(12.60044 -8.97702 0)
(13.272 -8.693508 -1.187873e-17)
(13.91759 -8.360233 9.532314e-20)
(14.5305 -7.969664 0)
(15.10309 -7.529094 0)
(15.63172 -7.039673 0)
(16.11674 -6.506727 7.697179e-18)
(16.55033 -5.940843 -7.980462e-18)
(16.9246 -5.33819 0)
(17.23306 -4.701025 0)
(17.47915 -4.036695 4.207179e-18)
(17.66508 -3.349454 3.353654e-20)
(17.7802 -2.654431 0)
(17.82882 -1.960536 0)
(17.86485 -1.325405 -2.02725e-18)
(18.17403 -0.8699149 2.344754e-19)
(18.03704 -0.5672254 0)
(14.533 -0.3293823 9.102817e-19)
(6.55468 -0.158625 5.080124e-20)
(4.72045 0.7895502 1.366527e-20)
(6.860194 1.894858 -4.213792e-20)
(7.755769 2.288504 3.828245e-18)
(7.779019 2.504174 3.051403e-18)
(6.883338 2.736239 4.229365e-20)
(6.288978 1.974813 4.164765e-20)
(-3.04598 -3.169522 5.824686e-18)
(-7.247472 -4.634721 1.059433e-17)
(-7.545429 -3.766471 0)
(-6.114189 -2.719639 8.992724e-18)
(-3.885412 -1.670066 0)
(-2.166613 -0.9467955 -6.943077e-20)
(-1.167977 -0.4807217 -4.066712e-18)
(-0.4405998 0.1744531 4.743408e-20)
(0.6300982 1.182503 -4.597864e-20)
(2.276175 2.488234 2.28077e-18)
(3.072495 2.985865 -2.287655e-18)
(2.186889 1.967359 -2.361263e-18)
(0.6733362 0.2405535 -2.780582e-18)
(-0.2744848 -0.7135774 -3.321258e-18)
(-0.5491186 -0.8003206 0)
(-0.4336643 -0.421595 -4.421362e-21)
(-0.08361642 0.1380571 0)
(0.5471235 0.9356589 -4.195661e-18)
(0.2693497 0.2667914 4.106496e-18)
(-0.3163373 -1.061929 0)
(-0.5140609 -1.497237 0)
(-0.6110517 -2.054042 8.403775e-18)
(-0.6754607 -2.907847 -2.06387e-18)
(-0.7507425 -3.490367 4.200372e-18)
(-0.7316594 -3.515002 -1.638728e-20)
(-0.6494907 -3.295025 1.637923e-20)
(-0.5210374 -2.861123 0)
(-0.3831517 -2.231415 -8.913611e-19)
(-0.2777853 -1.437325 8.131724e-19)
(-0.1695256 -0.6565486 1.886818e-19)
(-0.2539813 0.1606011 -2.77844e-19)
(-0.3074253 0.8871453 -7.146964e-21)
(-0.3771244 1.608743 7.092983e-21)
(-0.3515091 2.091546 -1.090677e-20)
(-0.2292805 2.567671 1.061873e-20)
(-0.09088665 2.021085 4.91468e-19)
(0.8896946 -1.467217 -1.053828e-20)
(1.792637 -3.419677 -8.026767e-19)
(1.674119 -4.289549 2.78064e-20)
(1.541766 -4.08799 -1.756353e-18)
(1.547772 -3.595715 -3.874975e-20)
(1.601225 -3.10175 0)
(1.637071 -2.984545 0)
(1.650763 -2.953397 -1.236366e-18)
(1.273911 -2.433918 -8.406721e-19)
(0.7716531 -1.618763 -7.342455e-19)
(0.2261344 -0.7354862 1.172492e-19)
(0.0837604 -0.02261437 0)
(0.6890483 -0.2531066 0)
(1.745539 -1.450538 1.282807e-18)
(1.337266 -1.707685 1.116404e-18)
(-0.9730305 -0.4235371 1.214759e-21)
(-2.719638 1.010974 -1.825799e-20)
(-3.785947 1.875879 -3.418824e-18)
(-4.806623 2.612067 -3.356799e-18)
(-5.856162 2.899956 4.517417e-18)
(-6.258287 3.655348 5.684715e-18)
(-5.933839 5.675473 2.958636e-18)
(2.097423 1.69763 -1.816693e-19)
(7.467015 -3.391775 0)
(8.223051 -3.428306 -2.160708e-20)
(9.348724 -3.221337 -1.852166e-18)
(9.381859 -3.288415 5.146886e-21)
(8.634225 -3.178422 2.525608e-20)
(6.666195 -2.164662 -4.180451e-18)
(3.543739 0.3022142 -2.089325e-18)
(9.823342 1.15015 -3.093129e-21)
(17.90077 0.5504673 -4.949798e-19)
(17.7122 0.4459696 -2.808433e-19)
(17.55821 0.6521326 -2.380376e-21)
(17.67936 1.004328 0)
(17.8831 1.546996 -2.315257e-20)
(17.96377 2.179278 1.547271e-18)
(17.93076 2.844883 -6.134941e-18)
(17.80665 3.537883 4.79386e-20)
(17.60622 4.21374 -3.09327e-18)
(17.32574 4.876284 -9.374003e-20)
(16.97643 5.499186 -5.893948e-18)
(16.56634 6.097935 -8.055839e-21)
(16.10966 6.673635 5.641935e-18)
(15.60494 7.199686 -5.314735e-18)
(15.04587 7.681419 0)
(14.44131 8.107463 7.225429e-20)
(13.7955 8.483697 -7.268958e-20)
(13.11771 8.802845 0)
(12.4115 9.061196 3.798094e-18)
(11.68608 9.269251 7.404564e-20)
(10.95016 9.421422 3.034169e-18)
(10.20171 9.501693 -2.548772e-18)
(9.443107 9.512533 -2.127295e-18)
(8.682601 9.470071 -1.753881e-18)
(7.933653 9.372004 -1.283049e-18)
(7.198546 9.208852 1.021556e-20)
(6.475696 8.981482 -1.031569e-20)
(5.769365 8.698211 0)
(5.091407 8.350292 3.967117e-19)
(4.436288 7.947536 -1.610564e-20)
(3.818575 7.492397 1.245578e-18)
(3.238021 6.991063 1.608631e-18)
(2.703594 6.445756 -1.972458e-18)
(2.214029 5.860461 -1.17157e-18)
(1.774301 5.236002 -4.850674e-21)
(1.384443 4.576978 1.485647e-18)
(1.05148 3.893403 2.6054e-20)
(0.7689058 3.197547 1.702833e-18)
(0.5575921 2.479538 1.446281e-20)
(0.393517 1.751981 -9.694846e-19)
(0.2929285 1.023934 -4.949311e-19)
(0.2750707 0.2624755 -6.164492e-23)
(0.3106198 -0.5399797 4.903925e-19)
(0.3731567 -1.342667 7.584739e-21)
(0.5133335 -2.098562 -9.172541e-19)
(0.7187821 -2.826912 1.735267e-18)
(0.978757 -3.535728 0)
(1.296235 -4.220396 -2.783571e-21)
(1.664454 -4.874382 -1.331188e-18)
(2.091856 -5.495779 1.200289e-18)
(2.560758 -6.087464 -2.0128e-18)
(3.078616 -6.630022 2.207889e-20)
(3.643728 -7.127568 -2.187099e-20)
(4.239821 -7.588346 -7.833464e-19)
(4.874573 -7.99262 0)
(5.54952 -8.34278 -8.572736e-20)
(6.242821 -8.651412 1.614871e-20)
(6.954725 -8.894606 -5.46146e-20)
(7.684415 -9.067296 -1.364791e-18)
(8.425445 -9.185098 -1.90667e-18)
(9.172513 -9.24504 -1.712071e-20)
(9.926205 -9.240039 2.717723e-18)
(10.67771 -9.17868 -4.613789e-20)
(11.41608 -9.056662 -3.58267e-18)
(12.13531 -8.867952 0)
(12.83213 -8.614369 4.377921e-18)
(13.50731 -8.30564 4.824514e-18)
(14.15338 -7.949772 5.011148e-18)
(14.76582 -7.536384 -5.340184e-18)
(15.33626 -7.075085 5.727038e-18)
(15.86223 -6.565202 0)
(16.34419 -6.012656 -1.260158e-17)
(16.77391 -5.432442 1.317519e-17)
(17.1433 -4.815321 -1.562541e-19)
(17.44767 -4.169102 -3.395607e-18)
(17.688 -3.496997 -3.451617e-18)
(17.85515 -2.822168 0)
(17.93593 -2.149244 1.772738e-18)
(17.91354 -1.507126 -1.747934e-18)
(17.7849 -0.9500737 8.473628e-19)
(17.65846 -0.5817295 -2.035564e-19)
(18.20915 -0.4543434 -3.766648e-19)
(18.32837 -0.4193989 1.105479e-20)
(15.5214 0.1846731 -1.749989e-18)
(14.3038 1.769456 5.24518e-20)
(14.20812 3.116386 0)
(13.69584 3.561189 0)
(12.73985 3.622472 -6.602881e-20)
(10.5444 3.480155 6.845859e-20)
(6.069636 1.156813 0)
(-2.684362 -3.884607 0)
(-5.01771 -4.00315 0)
(-6.156206 -2.952875 1.055863e-17)
(-4.86416 -1.644059 -1.490218e-17)
(-2.665957 -0.5831306 5.35636e-18)
(-0.9192074 0.08044745 -4.050224e-18)
(-0.1746155 0.3359124 -1.09669e-19)
(0.1017182 0.7344914 2.796849e-18)
(0.4784216 1.306144 2.187567e-18)
(1.714424 2.21164 2.907742e-20)
(2.62275 2.498597 5.686469e-22)
(1.978359 1.442411 -2.944626e-20)
(0.6289397 -0.1358106 -3.822743e-20)
(-0.2441042 -0.830523 2.79774e-18)
(-0.5703547 -0.8227049 0)
(-0.518676 -0.4078835 3.223664e-18)
(-0.1716498 0.2086111 -3.308506e-18)
(0.5501238 0.98515 3.473185e-18)
(0.4450586 0.3544978 0)
(-0.246613 -1.220312 0)
(-0.4572938 -1.526239 -5.452224e-20)
(-0.5469697 -2.059304 -3.450745e-18)
(-0.5725869 -2.802514 1.754606e-18)
(-0.6518215 -3.236618 -1.742479e-18)
(-0.7003233 -3.291965 0)
(-0.6618562 -3.0763 0)
(-0.5579838 -2.657006 0)
(-0.4451973 -2.052863 -7.235637e-19)
(-0.3672179 -1.292143 -3.44862e-19)
(-0.2527032 -0.5380854 -3.102548e-19)
(-0.3568764 0.2621811 1.138884e-19)
(-0.413706 0.99743 0)
(-0.4686907 1.711489 -3.485911e-19)
(-0.4270526 2.266018 0)
(-0.2199363 2.62472 -5.157037e-19)
(0.04839544 2.660402 0)
(1.152782 -1.039254 0)
(1.942097 -3.040482 -6.721139e-19)
(1.478252 -3.683027 -1.594795e-18)
(1.262231 -3.536626 1.48225e-18)
(1.207165 -3.038258 -1.266281e-18)
(1.477581 -2.863775 1.18391e-18)
(1.708742 -3.042096 0)
(1.656316 -3.03117 2.042449e-18)
(1.192842 -2.532228 6.87353e-19)
(0.6596383 -1.700128 3.05081e-19)
(0.07632754 -0.7634158 -3.370817e-21)
(-0.1213576 0.1931395 1.471564e-20)
(0.3715672 0.2764761 5.169096e-19)
(1.040297 -0.6049339 -1.093452e-18)
(0.4510505 -1.063844 -4.687523e-19)
(-1.656715 -0.2232255 2.322906e-21)
(-2.865012 0.8466709 3.920066e-19)
(-3.435659 1.403857 1.429795e-18)
(-4.222444 2.051645 2.80017e-18)
(-5.085164 2.162316 0)
(-5.307389 3.100464 1.596905e-19)
(-4.268016 5.534406 0)
(1.366858 3.198335 6.334272e-20)
(8.001582 -2.994258 -5.199546e-19)
(10.47577 -3.86396 7.326042e-19)
(12.14059 -3.943631 -3.980025e-20)
(12.80866 -4.223795 2.733966e-20)
(13.38105 -4.316195 -3.598954e-18)
(13.60462 -3.255917 0)
(13.17566 -0.4469109 -1.377808e-18)
(16.02543 1.219883 -9.337774e-19)
(18.33573 0.7995388 8.14155e-19)
(16.95536 0.5046596 2.251612e-19)
(17.24591 0.859565 0)
(17.43124 1.335646 5.592243e-19)
(17.59721 1.941288 0)
(17.65408 2.600105 0)
(17.60932 3.265901 2.561141e-18)
(17.48314 3.943894 -3.917785e-20)
(17.28425 4.59868 4.732962e-20)
(17.0082 5.236661 -2.450301e-18)
(16.66498 5.828608 4.950424e-18)
(16.26105 6.396142 -4.733882e-18)
(15.81354 6.941793 -4.568807e-18)
(15.32443 7.427258 2.169795e-19)
(14.77921 7.87454 -1.329091e-19)
(14.19197 8.264589 -1.172637e-19)
(13.56281 8.610449 -3.366169e-18)
(12.9044 8.900662 -3.420714e-18)
(12.21853 9.130084 -8.977952e-20)
(11.511 9.315791 2.849585e-18)
(10.79766 9.445401 0)
(10.07363 9.503191 2.098918e-18)
(9.333525 9.498544 1.751315e-18)
(8.592414 9.442685 1.347478e-18)
(7.865063 9.332787 1.05575e-18)
(7.150643 9.160375 0)
(6.44854 8.924184 0)
(5.75947 8.637028 -3.521433e-20)
(5.101622 8.284332 0)
(4.460884 7.881038 0)
(3.85914 7.425944 1.088137e-18)
(3.295337 6.925075 -1.988724e-20)
(2.77103 6.383241 -1.470267e-20)
(2.289468 5.801369 -3.215533e-20)
(1.858154 5.180307 2.233624e-18)
(1.477103 4.524626 0)
(1.153666 3.844347 0)
(0.8680889 3.156074 1.442221e-18)
(0.6619077 2.442305 7.248364e-19)
(0.4980386 1.719034 7.821386e-19)
(0.3975968 0.9993589 -4.051217e-19)
(0.3874645 0.2487399 0)
(0.4311951 -0.5245702 -4.242033e-22)
(0.4871302 -1.317022 2.422192e-20)
(0.6154771 -2.068447 7.278324e-19)
(0.815311 -2.79052 -1.422527e-18)
(1.071331 -3.491682 -4.014363e-20)
(1.385076 -4.16882 1.223057e-18)
(1.748918 -4.815387 3.598672e-20)
(2.171317 -5.430126 1.933404e-18)
(2.626907 -6.018104 -1.219823e-20)
(3.131568 -6.556752 -1.375692e-18)
(3.687902 -7.051379 3.645169e-20)
(4.26973 -7.512719 0)
(4.884292 -7.91954 3.432318e-19)
(5.545265 -8.271939 0)
(6.224432 -8.585363 0)
(6.914256 -8.838141 -7.797629e-19)
(7.624467 -9.020022 2.244125e-18)
(8.348685 -9.148053 5.228386e-20)
(9.07545 -9.221971 -1.02813e-19)
(9.809374 -9.232304 -2.231697e-18)
(10.54079 -9.190329 -2.539322e-18)
(11.25932 -9.089425 3.048866e-18)
(11.95755 -8.92581 -3.316543e-18)
(12.63313 -8.700288 -7.018869e-20)
(13.29147 -8.417612 0)
(13.91997 -8.093078 -4.337711e-18)
(14.51698 -7.710651 9.148988e-18)
(15.07306 -7.283599 -4.871357e-18)
(15.58567 -6.808937 0)
(16.05791 -6.29125 8.700949e-20)
(16.4792 -5.74554 -5.278756e-18)
(16.84246 -5.159249 -8.434778e-20)
(17.14342 -4.540421 1.339656e-19)
(17.3812 -3.890856 -8.824241e-20)
(17.54966 -3.228572 0)
(17.63613 -2.564747 -2.82668e-18)
(17.63024 -1.905387 1.360407e-18)
(17.54611 -1.297361 6.712213e-19)
(17.38788 -0.7947214 -1.036743e-20)
(17.47519 -0.4904679 3.103837e-19)
(18.44749 -0.3698625 5.991328e-19)
(18.7993 0.5203299 0)
(18.4702 2.372367 1.64351e-18)
(17.49061 3.739281 -7.94814e-20)
(16.15247 4.099959 2.371829e-18)
(14.86128 3.998068 0)
(12.79257 3.59305 0)
(6.90418 0.4403155 0)
(-0.9641793 -4.006493 8.608557e-20)
(-2.865083 -3.337583 7.981877e-18)
(-4.255968 -1.922473 -9.387338e-18)
(-3.30354 -0.3688204 6.503325e-18)
(-1.434752 0.5563186 -8.738036e-18)
(0.3351943 1.132671 3.349264e-18)
(1.034383 1.262631 0)
(0.9457997 1.421993 -2.277452e-18)
(0.6102314 1.543228 -1.770575e-18)
(1.232589 1.934344 1.579154e-18)
(2.107788 1.913512 -4.929987e-20)
(1.74271 0.8722092 -5.322018e-20)
(0.6278215 -0.4533935 5.393505e-20)
(-0.1945068 -0.9215135 0)
(-0.6025506 -0.856685 -2.632612e-18)
(-0.6230637 -0.3913551 8.378192e-20)
(-0.2670216 0.2820196 5.323643e-18)
(0.5491925 0.9895463 -2.951085e-18)
(0.6556166 0.4313792 1.714083e-19)
(-0.09773861 -1.266946 -2.859491e-18)
(-0.3484834 -1.422723 0)
(-0.4171855 -1.903808 -2.84103e-18)
(-0.4269664 -2.59026 1.450211e-18)
(-0.5519259 -3.012851 -8.979125e-20)
(-0.6518238 -3.073659 1.563778e-18)
(-0.6657234 -2.851249 -6.604826e-20)
(-0.5965407 -2.437317 2.114358e-20)
(-0.5138764 -1.843733 6.045873e-19)
(-0.487773 -1.131406 -4.098687e-21)
(-0.3549712 -0.4221786 3.836669e-21)
(-0.4819294 0.4121116 5.500097e-21)
(-0.5444948 1.176777 1.577418e-19)
(-0.5881024 1.918475 2.841015e-19)
(-0.5245485 2.535311 -2.54006e-19)
(-0.2481193 2.697356 4.249448e-19)
(0.2138474 3.256145 0)
(1.348154 -0.01544306 3.052883e-19)
(2.003496 -2.292282 5.827918e-19)
(1.231305 -2.96153 1.328265e-18)
(1.090399 -3.265791 0)
(1.01976 -2.814201 0)
(1.505749 -2.8959 -9.724751e-19)
(1.806079 -3.150156 -2.843646e-20)
(1.628836 -3.086158 -8.133325e-19)
(1.075712 -2.62488 -5.835295e-19)
(0.5130728 -1.795828 -2.632086e-19)
(-0.1026227 -0.8066783 -7.816775e-20)
(-0.2693467 0.269307 2.975539e-19)
(0.1104755 0.6676361 -4.122806e-19)
(0.4419101 0.1017462 4.475069e-19)
(-0.3525147 -0.4913701 0)
(-2.054608 -0.2496682 0)
(-2.662797 0.462122 -3.283479e-19)
(-2.884893 0.809025 0)
(-3.532486 1.455031 -8.974761e-20)
(-4.241961 1.331068 -2.552826e-20)
(-4.063368 2.397716 -3.944632e-18)
(-2.497052 5.231249 -9.250708e-20)
(1.34722 4.408261 1.62453e-19)
(8.552855 -2.270089 3.915492e-19)
(11.47952 -3.710296 -1.53305e-20)
(13.16227 -4.02878 5.83396e-19)
(14.2557 -4.500362 -3.76954e-20)
(15.79829 -4.813009 1.548952e-18)
(17.58426 -3.920126 -5.798391e-20)
(18.36407 -1.102608 4.439132e-18)
(18.38606 0.9702516 2.771367e-20)
(17.53695 0.7446739 4.736035e-21)
(16.85532 0.4180343 -3.942495e-19)
(17.28272 0.7483629 -3.25741e-21)
(17.45615 1.126211 -4.617557e-19)
(17.6327 1.66118 -3.05446e-20)
(17.69497 2.269885 -9.551752e-19)
(17.65233 2.902097 1.994203e-18)
(17.52382 3.576848 -2.00482e-18)
(17.32865 4.219975 3.902386e-18)
(17.05446 4.871596 2.144438e-18)
(16.71349 5.478496 0)
(16.30789 6.065633 0)
(15.86041 6.633803 3.705211e-18)
(15.3717 7.139483 3.545891e-18)
(14.82636 7.605833 0)
(14.24158 8.00835 -9.412776e-20)
(13.61236 8.368983 3.052623e-18)
(12.95094 8.679124 2.726e-18)
(12.26568 8.921163 2.396794e-18)
(11.5638 9.113063 -6.401915e-20)
(10.85215 9.255745 -1.833312e-18)
(10.12535 9.330063 4.692023e-20)
(9.38982 9.331792 -4.7359e-20)
(8.656852 9.280086 -1.137038e-18)
(7.932261 9.180101 8.137108e-19)
(7.214068 9.023275 0)
(6.519861 8.791791 0)
(5.833237 8.51502 8.385552e-20)
(5.183983 8.168551 -8.623079e-21)
(4.547603 7.774031 -8.280067e-21)
(3.96088 7.323423 -8.392059e-19)
(3.404701 6.829704 -2.213274e-18)
(2.872926 6.303798 1.273793e-18)
(2.393479 5.732512 -1.558237e-18)
(1.966598 5.119872 -8.741787e-19)
(1.59439 4.469652 -3.003215e-20)
(1.27837 3.790847 0)
(0.9850821 3.112907 -1.125937e-18)
(0.7907237 2.404779 -3.778794e-20)
(0.6231069 1.683935 -6.505663e-19)
(0.5227405 0.9731252 3.47212e-19)
(0.5214345 0.2327561 6.313005e-24)
(0.5729652 -0.5080959 -3.489363e-19)
(0.6147279 -1.294176 2.99643e-20)
(0.7391213 -2.037286 -6.342088e-19)
(0.9323373 -2.747014 1.165174e-18)
(1.183556 -3.438117 -1.125678e-18)
(1.49381 -4.106678 2.574803e-21)
(1.853479 -4.743613 9.340364e-19)
(2.279968 -5.34721 -1.539011e-18)
(2.726279 -5.929505 1.335888e-18)
(3.219694 -6.462797 1.02971e-18)
(3.776713 -6.948686 8.055091e-21)
(4.365759 -7.397804 8.489791e-21)
(4.972029 -7.798311 -2.683275e-19)
(5.615871 -8.152439 2.496044e-20)
(6.294881 -8.457696 1.383977e-20)
(6.983019 -8.701051 5.578601e-19)
(7.684886 -8.877169 -1.798065e-18)
(8.400954 -9.001942 1.183817e-18)
(9.13227 -9.058881 -5.171573e-20)
(9.863071 -9.059948 -1.79458e-18)
(10.58659 -9.014655 4.178825e-18)
(11.30493 -8.901242 7.76978e-20)
(11.99987 -8.728058 2.572763e-18)
(12.67527 -8.487552 -3.007903e-18)
(13.33514 -8.189072 9.342734e-20)
(13.96222 -7.852337 -3.42959e-18)
(14.55951 -7.452132 -3.511758e-18)
(15.11453 -7.009987 1.21207e-19)
(15.6281 -6.513415 -4.048788e-18)
(16.10053 -5.974955 4.184022e-18)
(16.52128 -5.410938 0)
(16.88237 -4.808244 0)
(17.17954 -4.17272 2.275919e-18)
(17.4135 -3.523449 2.276431e-18)
(17.58329 -2.868267 0)
(17.67149 -2.2228 1.210576e-18)
(17.66597 -1.601524 1.102723e-18)
(17.57152 -1.05814 -5.633168e-19)