/*--------------------------------*- C++ -*----------------------------------*\
| =========                 |                                                 |
| \\      /  F ield         | OpenFOAM: The Open Source CFD Toolbox           |
|  \\    /   O peration     | Version:  2406                                  |
|   \\  /    A nd           | Website:  www.openfoam.com                      |
|    \\/     M anipulation  |                                                 |
\*---------------------------------------------------------------------------*/
FoamFile
{
    version     2.0;
    format      ascii;
    arch        "LSB;label=32;scalar=64";
    class       volScalarField;
    location    "3";
    object      p;
}
// * * * * * * * * * * * * * * * * * * * * * * * * * * * * * * * * * * * * * //

dimensions      [0 2 -2 0 0 0 0];

internalField   nonuniform List<scalar> 
217010
(
-92.75821
-27.9357
-38.50968
-41.68775
-39.35798
-32.35813
-31.06567
-31.81593
-34.12826
-36.91966
-40.37699
-43.03997
-44.24358
-49.46287
-57.17395
-60.48365
-56.19597
-45.12013
-32.29583
-22.59151
-19.03111
-24.96865
-38.58554
-46.77021
-49.13643
-50.68764
-49.69867
-47.66701
-42.03201
-34.6736
-30.81281
-36.91068
-52.94398
-71.84355
-86.85454
-95.11106
-97.52159
-94.93052
-88.26951
-78.02648
-65.28419
-51.39802
-36.76558
-21.33149
-5.116536
10.50772
22.28063
30.80784
35.52247
40.84559
36.90162
39.17338
36.63664
36.90718
36.83656
36.85843
36.88225
36.91401
36.86869
36.72682
36.52653
36.20812
35.76089
34.65967
33.51028
32.21476
30.69323
29.02593
27.26797
25.4091
23.45025
21.32269
18.96981
16.43784
13.70975
10.83763
8.086921
5.611763
3.086228
0.241533
-3.02472
-6.633124
-10.46687
-14.49489
-18.70955
-23.21429
-27.95056
-32.86897
-37.87638
-43.17752
-48.82286
-54.61137
-60.66207
-66.92925
-73.35899
-79.89632
-86.57797
-93.38492
-100.256
-107.1501
-113.9524
-120.6276
-126.9788
-133.0233
-138.61
-143.7804
-148.4367
-152.3322
-155.3931
-157.554
-158.6617
-158.5849
-157.1195
-154.0191
-149.1027
-142.6232
-136.5633
-130.4477
-120.269
-152.1728
-187.3372
-158.2082
-104.0461
-72.5749
-57.40782
-37.61031
-17.41117
-57.70363
-124.8241
-120.8858
-80.11963
-46.53607
-27.05783
-15.0118
-8.615642
-5.674235
-6.076169
-4.693568
0.106622
-6.023239
-16.98928
-23.24705
-21.44398
-12.41074
-1.217453
2.439138
-0.5763335
-3.588551
2.562972
-6.560042
14.21734
12.37053
12.13296
8.558121
4.431092
-0.8017269
-8.246828
-18.79693
-30.73068
-46.95011
-64.76458
-80.8121
-94.69072
-107.7654
-116.6104
-116.6244
-107.1097
-93.57649
-89.00313
-89.27288
-85.90111
-88.25752
-91.9752
-88.25216
-80.52418
-78.2441
-74.09407
-72.6676
-73.78884
-74.78226
-75.0794
-74.82101
-74.52398
-74.3767
-74.00737
-73.23914
-72.64914
-72.25199
-71.45004
-72.90447
-75.98142
-69.32781
-71.93874
-73.45088
-71.55596
-73.79973
-72.47016
-74.19679
-66.97658
-141.8449
-41.23237
-27.70971
-12.28146
-3.271688
4.365663
10.62408
15.97551
20.78104
24.95099
28.70303
32.09124
35.17337
38.06512
40.78274
43.31465
45.65091
47.8273
49.9092
51.89084
53.77753
55.57621
57.27684
58.87985
60.44944
61.9826
63.4757
64.89999
66.24275
67.53439
68.80354
70.05613
71.28294
72.44736
73.57393
74.69026
75.78302
76.86237
77.92505
78.98953
80.00727
81.04
82.02356
82.99763
83.9553
84.90733
85.84003
86.75352
87.66779
88.59755
89.52328
90.42592
91.31187
92.19446
93.10202
94.02188
94.92869
95.83685
96.75447
97.67479
98.60715
99.53914
100.4671
101.4394
102.4998
103.5745
104.6142
105.6984
106.9233
108.2834
109.5316
110.9657
114.1542
112.0056
110.6447
109.5297
108.4518
107.379
106.2972
105.2729
104.3562
103.4869
102.5673
101.6251
100.7084
99.83773
98.98797
98.13649
97.27225
96.40838
95.56972
94.73927
93.89348
93.04657
92.20991
91.35943
90.51413
89.65329
88.75792
87.87635
87.01349
86.14295
85.24772
84.30833
83.40285
82.45945
81.49119
80.51976
79.54137
78.52564
77.49196
76.4557
75.39359
74.27467
73.10485
71.93264
70.76246
69.54592
68.27084
66.95361
65.57515
64.14075
62.66372
61.13186
59.57236
57.90682
56.13012
54.28334
52.32041
50.26124
48.04243
45.64063
43.08784
40.34649
37.28923
33.9033
30.05359
25.80199
20.90005
14.88817
8.021361
-3.723898
-12.36098
114.1028
112.252
110.8109
109.668
108.5843
107.506
106.4168
105.3799
104.4514
103.5769
102.6559
101.7103
100.7873
99.9105
99.05648
98.20204
97.33504
96.46749
95.62518
94.79178
93.94356
93.09402
92.25485
91.40195
90.55472
89.69202
88.795
87.91091
87.04547
86.17316
85.27664
84.33447
83.429
82.48286
81.51274
80.53973
79.55986
78.54243
77.50729
76.46948
75.40598
74.28519
73.1135
71.93973
70.76815
69.54961
68.27283
66.95406
65.57338
64.13641
62.65672
61.12208
59.56067
57.89047
56.10959
54.25894
52.29038
50.2266
47.99996
45.58979
43.02951
40.2782
37.20817
33.80908
29.92926
25.65445
20.71471
14.65945
7.651845
-4.065252
-14.33286
-43.66683
-28.20099
-12.76678
-3.567418
4.127603
10.43754
15.82081
20.66523
24.8521
28.61824
32.02079
35.11284
38.01329
40.73948
43.27949
45.62268
47.8035
49.88994
51.876
53.76653
55.56856
57.27285
58.87798
60.44942
61.98469
63.48
64.90666
66.25111
67.54441
68.81533
70.06977
71.29845
72.46464
73.59257
74.71076
75.80514
76.88648
77.95133
79.01833
80.037
81.07201
82.05716
83.03309
83.99299
84.9467
85.88151
86.79728
87.71436
88.64682
89.5748
90.47928
91.36779
92.25401
93.16537
94.08866
94.99861
95.91056
96.83222
97.757
98.69347
99.62967
100.5647
101.5474
102.6165
103.6955
104.7424
105.8441
107.0901
108.4518
109.7355
111.1697
13.33391
12.49073
12.32342
8.948519
4.903411
-0.208317
-7.466012
-17.8409
-29.62381
-45.67392
-63.49979
-79.71609
-93.76126
-107.0531
-116.3856
-117.0138
-107.8839
-94.08981
-89.10096
-89.3889
-86.00209
-88.1858
-92.11186
-88.52348
-80.64355
-78.31486
-74.15135
-72.69145
-73.793
-74.78409
-75.0843
-74.82367
-74.5246
-74.37772
-74.00868
-73.23873
-72.64789
-72.24881
-71.45315
-72.94107
-75.98722
-69.35173
-72.00397
-73.4756
-71.57388
-73.83679
-72.49389
-74.23418
-68.91617
-127.3226
37.32284
39.16409
36.80279
36.90028
36.83249
36.85216
36.87849
36.91427
36.87716
36.74199
36.54835
36.23896
35.8223
34.75201
33.60681
32.31951
30.80733
29.14316
27.38439
25.52438
23.56931
21.4555
19.11131
16.58586
13.85887
10.98073
8.198804
5.709133
3.185253
0.3492086
-2.909557
-6.514178
-10.34687
-14.37394
-18.60054
-23.10285
-27.84324
-32.76717
-37.77899
-43.08529
-48.73657
-54.53081
-60.58977
-66.86458
-73.30313
-79.84919
-86.54058
-93.3571
-100.238
-107.1424
-113.9541
-120.639
-126.9983
-133.0538
-138.6466
-143.8254
-148.4877
-152.3845
-155.4457
-157.5997
-158.6986
-158.6108
-157.1353
-154.0338
-149.1316
-142.6507
-136.4811
-130.0326
-120.6129
-153.0842
-187.5787
-156.9836
-102.6761
-71.76093
-56.83943
-37.07179
-17.90784
-60.6339
-126.5171
-119.7889
-78.19359
-45.1067
-26.17393
-14.50208
-8.345821
-5.62607
-6.174718
-4.585047
0.08100321
-6.857301
-17.75862
-23.42288
-20.79219
-11.37311
-0.5991626
2.406432
-0.9536838
-3.41406
2.326396
-4.585813
-81.48305
-29.46339
-38.37889
-41.71502
-39.61986
-32.52564
-31.08455
-31.79613
-34.08214
-36.86846
-40.34813
-43.02699
-44.22155
-49.4704
-57.25501
-60.57121
-56.25802
-45.17348
-32.35077
-22.63235
-19.08983
-25.11486
-38.85481
-46.92875
-49.16941
-50.67715
-49.7001
-47.60722
-41.8437
-34.49213
-30.80916
-37.39994
-53.82726
-72.75426
-87.47763
-95.37275
-97.43225
-94.52284
-87.58324
-77.09429
-64.15882
-50.12736
-35.36958
-19.80856
-3.542251
11.8664
23.3495
31.57647
36.1051
40.93065
-69.38954
-30.01472
-38.02412
-41.67497
-40.01195
-32.76161
-31.12693
-31.79036
-34.05139
-36.83329
-40.35571
-43.08291
-44.3332
-49.71382
-57.48814
-60.74681
-56.43027
-45.3731
-32.54975
-22.7793
-19.23387
-25.32785
-39.24033
-47.23685
-49.23526
-50.68007
-49.7185
-47.66343
-41.73319
-34.29733
-30.80044
-38.08726
-55.25974
-74.04594
-88.31864
-95.84626
-97.78684
-94.69384
-87.60042
-76.96674
-63.88787
-49.77524
-34.92705
-19.23478
-2.897229
12.56779
23.90905
31.92252
36.41331
41.00031
37.73693
39.20728
36.86789
36.89396
36.80811
36.83883
36.86971
36.90805
36.87691
36.74523
36.55565
36.25066
35.85126
34.78298
33.64423
32.36153
30.85027
29.18762
27.43118
25.57108
23.61392
21.49207
19.1486
16.61583
13.89353
11.00064
8.247066
5.750596
3.22404
0.3916073
-2.867704
-6.473857
-10.30782
-14.34348
-18.55984
-23.06223
-27.808
-32.73677
-37.74472
-43.05522
-48.71202
-54.50458
-60.57147
-66.85062
-73.29448
-79.84353
-86.5407
-93.36241
-100.2488
-107.1596
-113.9758
-120.669
-127.0302
-133.0929
-138.6835
-143.8664
-148.5286
-152.4187
-155.4739
-157.6199
-158.73
-158.6399
-157.1695
-154.1045
-149.3332
-143.0908
-136.8811
-130.0475
-121.2216
-154.5357
-188.4295
-156.471
-101.7509
-71.27143
-56.4671
-36.5658
-17.89504
-64.14931
-130.1506
-120.439
-77.14435
-44.1677
-25.63262
-14.20565
-8.169592
-5.577424
-6.167887
-4.430529
-0.006123346
-7.538459
-18.67165
-23.88938
-20.82343
-10.99112
-0.3331765
2.239952
-1.220502
-3.298011
2.403946
-3.473537
13.01592
12.49318
12.42285
9.155479
5.126815
0.09505211
-7.063675
-17.41958
-29.03898
-45.14275
-63.07513
-79.42747
-93.53834
-107.071
-116.7466
-117.8898
-109.6882
-95.38762
-89.31882
-89.63465
-86.09051
-88.0645
-92.50528
-88.92023
-80.74987
-78.39637
-74.23361
-72.75201
-73.82662
-74.80798
-75.10294
-74.83855
-74.53182
-74.37989
-74.01213
-73.23976
-72.65089
-72.2527
-71.46318
-73.01768
-76.06758
-69.44806
-72.13463
-73.54458
-71.63385
-73.84684
-72.54643
-74.38539
-69.61749
-112.1367
-43.45713
-28.51978
-12.99179
-3.717882
4.014321
10.35174
15.75735
20.59694
24.81242
28.58217
31.99174
35.08713
37.98984
40.72022
43.26367
45.61083
47.7914
49.87987
51.86775
53.76005
55.56297
57.27011
58.8749
60.44723
61.98392
63.48072
64.90945
66.25384
67.54699
68.81827
70.07335
71.30391
72.47082
73.59741
74.71663
75.81117
76.89448
77.9601
79.02472
80.04611
81.07831
82.0653
83.04237
84.00201
84.95651
85.89168
86.80709
87.72363
88.65765
89.58753
90.49175
91.38017
92.26525
93.17763
94.10356
95.01357
95.92495
96.84869
97.77352
98.7107
99.64797
100.5837
101.5663
102.6417
103.7253
104.7712
105.8768
107.1236
108.4956
109.8114
111.252
114.0097
112.3631
110.8694
109.7019
108.6176
107.5406
106.4447
105.4009
104.4718
103.6004
102.6771
101.7293
100.8029
99.92548
99.07124
98.21735
97.34869
96.47905
95.63749
94.80449
93.95477
93.10494
92.2663
91.41142
90.56618
89.70297
88.80231
87.91836
87.05355
86.18129
85.28186
84.34341
83.43523
82.49175
81.51923
80.54575
79.56591
78.54644
77.51116
76.47415
75.41116
74.28849
73.11476
71.94095
70.77034
69.55041
68.27301
66.95381
65.57101
64.13262
62.65159
61.11587
59.55578
57.88231
56.09951
54.24876
52.27639
50.21305
47.98142
45.56795
43.00593
40.25125
37.17593
33.75342
29.88105
25.58891
20.63054
14.54492
7.488441
-4.286701
-14.19463
113.859
112.5179
111.0302
109.8347
108.7498
107.6747
106.5725
105.5203
104.5825
103.7047
102.7775
101.8274
100.8963
100.0129
99.15377
98.29568
97.42386
96.55011
95.70546
94.868
94.01462
93.16224
92.32088
91.46236
90.61607
89.74996
88.84512
87.96106
87.09342
86.21912
85.31659
84.38239
83.46286
82.52187
81.54523
80.57063
79.58976
78.56634
77.53016
76.49237
75.4285
74.30183
73.125
71.95048
70.78015
69.55675
68.27783
66.95744
65.57078
64.13021
62.64671
61.10804
59.54927
57.86826
56.08096
54.22881
52.24801
50.1838
47.94134
45.51939
42.95188
40.18863
37.09474
33.66278
29.77483
25.45266
20.45812
14.33869
7.159641
-4.473972
-14.39971
-43.69446
-28.80298
-13.41853
-3.980108
3.789398
10.18041
15.62214
20.48693
24.71469
28.50193
31.92712
35.03042
37.94082
40.68077
43.232
45.58808
47.7705
49.86419
51.85644
53.75272
55.55785
57.27051
58.87475
60.449
61.98857
63.48811
64.92114
66.26681
67.56091
68.83318
70.08982
71.32407
72.49405
73.61981
74.74172
75.83742
76.92481
77.99296
79.0547
80.09126
81.11763
82.10629
83.0861
84.04844
85.00469
85.94319
86.86122
87.78085
88.7176
89.65084
90.55752
91.44962
92.33879
93.25421
94.18522
95.099
96.01496
96.94291
97.87273
98.81384
99.75692
100.7012
101.6916
102.7722
103.8613
104.9155
106.0365
107.2858
108.6502
109.9793
111.3536
12.1226
12.49124
12.54604
9.490779
5.535932
0.6189944
-6.38322
-16.59737
-28.00275
-44.06244
-61.96795
-78.39233
-92.60468
-106.4061
-116.3592
-118.6917
-112.0478
-97.93017
-89.97778
-90.06137
-86.01254
-87.56007
-93.10617
-89.55086
-80.90237
-78.52966
-74.36682
-72.85981
-73.90301
-74.85952
-75.13833
-74.86869
-74.54673
-74.3777
-74.00679
-73.23754
-72.65438
-72.25638
-71.4882
-73.14174
-76.16408
-69.6427
-72.39657
-73.71
-71.78047
-73.8279
-72.57577
-74.50007
-71.52576
-101.616
38.1128
39.25564
37.07497
36.89664
36.78716
36.82276
36.85771
36.90022
36.87891
36.75454
36.57146
36.27376
35.90824
34.8754
33.74741
32.46815
30.96422
29.30543
27.54747
25.68234
23.72337
21.60987
19.2916
16.81417
14.06884
11.18226
8.367609
5.841953
3.308774
0.4866176
-2.765943
-6.365464
-10.19439
-14.22086
-18.44814
-22.94901
-27.69973
-32.6349
-37.63848
-42.95949
-48.62763
-54.41824
-60.49852
-66.78519
-73.24019
-79.79585
-86.50422
-93.33588
-100.2349
-107.1603
-113.9863
-120.6957
-127.0606
-133.1389
-138.7284
-143.9263
-148.5975
-152.4874
-155.5492
-157.7035
-158.808
-158.7038
-157.2387
-154.2158
-149.5871
-143.6448
-137.6192
-130.9815
-123.4788
-156.5836
-188.2886
-155.1902
-100.7297
-70.8252
-55.85107
-35.67922
-18.36776
-68.55646
-134.927
-120.546
-75.67324
-42.87966
-24.88444
-13.77714
-7.895535
-5.483717
-6.38101
-4.441
-0.3871468
-8.662121
-19.76492
-24.2277
-20.23804
-10.26522
-0.09451922
1.935247
-1.698451
-3.180937
2.327252
-2.760343
-60.50631
-31.63311
-37.31107
-41.55687
-40.64737
-33.10515
-31.20675
-31.78804
-34.00819
-36.7748
-40.32912
-43.13561
-44.67625
-50.22354
-57.87774
-61.05705
-56.77279
-45.78847
-32.96886
-23.09423
-19.50884
-25.69401
-39.84896
-47.70037
-49.30552
-50.50525
-49.63869
-47.84923
-41.57615
-33.84598
-30.95277
-39.55399
-57.39369
-75.54909
-89.20149
-96.08474
-97.60105
-94.25674
-86.91375
-76.04282
-62.74537
-48.48381
-33.54863
-17.76982
-1.490379
13.77523
24.83847
32.53791
36.91582
41.0907
-54.10264
-33.2366
-36.56496
-41.36535
-41.47976
-33.56489
-31.34677
-31.80017
-33.95482
-36.67508
-40.2159
-43.15322
-45.27128
-50.96753
-58.4802
-61.60849
-57.39802
-46.5437
-33.72374
-23.68941
-20.00913
-26.26192
-40.68379
-48.27235
-49.3074
-50.0891
-49.42011
-48.26448
-41.40927
-33.71949
-31.74617
-42.35168
-60.25733
-77.37551
-90.46089
-97.07913
-98.11904
-94.34993
-86.68797
-75.5211
-61.94154
-47.53332
-32.47638
-16.5125
-0.1744311
14.98036
25.72514
33.10889
37.38609
41.13883
38.45954
39.27634
37.21028
36.91202
36.76141
36.80092
36.8383
36.88443
36.87449
36.75772
36.58096
36.2906
35.95753
34.94418
33.83756
32.56454
31.06346
29.4078
27.65081
25.78198
23.82164
21.70725
19.38975
16.85237
14.1875
11.27226
8.481344
5.932883
3.382963
0.567816
-2.683621
-6.280417
-10.10388
-14.13248
-18.36627
-22.86375
-27.62079
-32.56286
-37.55461
-42.8876
-48.5697
-54.35883
-60.45948
-66.7481
-73.21704
-79.77923
-86.50201
-93.33977
-100.2484
-107.1937
-114.0319
-120.763
-127.1268
-133.2269
-138.8065
-144.0245
-148.704
-152.5879
-155.654
-157.8087
-158.8999
-158.7974
-157.3433
-154.3722
-149.8982
-144.2534
-138.4584
-132.6759
-127.7284
-158.1708
-185.3148
-152.2697
-99.93382
-70.96594
-55.57485
-34.68139
-20.15262
-74.61953
-141.2082
-121.2388
-74.14735
-41.47206
-24.09643
-13.26405
-7.524708
-5.363958
-6.3845
-4.568392
-1.283655
-10.47595
-21.20926
-24.90918
-20.03706
-9.673988
-0.07558771
1.386296
-2.312204
-3.039961
2.401265
-1.888009
11.49186
12.39337
12.63992
9.825922
5.926126
1.125922
-5.699312
-15.81564
-26.97205
-43.07157
-61.05028
-77.65288
-91.93489
-106.1827
-116.8524
-119.8087
-114.9794
-101.8147
-91.7037
-90.57539
-85.71261
-86.68782
-93.74827
-90.39208
-81.09856
-78.74001
-74.58697
-73.03381
-74.04292
-74.95945
-75.20641
-74.91943
-74.56939
-74.36905
-73.9923
-73.22838
-72.65312
-72.25283
-71.53957
-73.31952
-76.2891
-69.93066
-72.85948
-74.00796
-71.8942
-73.55389
-72.44065
-74.56255
-73.53388
-94.29032
-43.80565
-28.9369
-13.78209
-4.214623
3.58101
10.02235
15.4922
20.37577
24.63553
28.42934
31.86874
34.97731
37.89207
40.64036
43.19979
45.56714
47.74737
49.84469
51.84059
53.74095
55.54791
57.26819
58.8693
60.44491
61.98664
63.48823
64.92692
66.27249
67.56497
68.83796
70.09634
71.33547
72.50741
73.62944
74.75462
75.85043
76.94179
78.00975
79.0672
80.10263
81.13527
82.12484
83.10646
84.06837
85.02586
85.96621
86.88439
87.80296
88.74208
89.67922
90.58576
91.47868
92.36698
93.28489
94.22196
95.13593
96.05116
96.98445
97.91621
98.85982
99.80603
100.7543
101.7476
102.8434
103.9439
104.9972
106.1276
107.3819
108.7588
110.1089
111.4217
113.6341
112.6192
111.1613
109.9297
108.8346
107.7658
106.6521
105.5829
104.6391
103.7655
102.8327
101.878
100.9381
100.0521
99.19136
98.33338
97.45793
96.57934
95.73599
94.89863
94.04191
93.18839
92.34778
91.48415
90.64197
89.7743
88.86222
87.97848
87.11031
86.23676
85.3317
84.39293
83.47537
82.53819
81.55681
80.58209
79.60154
78.57401
77.53875
76.50247
75.43892
74.30705
73.12635
71.95333
70.78528
69.55739
68.27786
66.95756
65.5658
64.12304
62.63736
61.0963
59.54292
57.85111
56.05911
54.20764
52.21766
50.15775
47.90182
45.47237
42.9038
40.13592
37.02615
33.57008
29.67565
25.3283
20.30125
14.14966
6.881055
-4.543316
-14.46284
113.3123
112.6562
111.3041
110.0633
108.9578
107.9007
106.783
105.707
104.7615
103.8891
102.9489
101.995
101.0475
100.1553
99.28938
98.4306
97.55011
96.66238
95.81712
94.97589
94.11347
93.25765
92.41647
91.54447
90.70655
89.83665
88.91417
88.03257
87.16107
86.28558
85.37389
84.45035
83.51742
82.57972
81.5922
80.61724
79.63374
78.59594
77.55997
76.52634
75.46661
74.32639
73.13543
71.96328
70.80182
69.56636
68.28484
66.96651
65.56733
64.11997
62.62789
61.08219
59.54272
57.83649
56.03883
54.18521
52.18021
50.13147
47.85411
45.41291
42.8404
40.07215
36.9412
33.4563
29.55398
25.17952
20.114
13.93954
6.596706
-4.522888
-14.51378
-43.91971
-28.93928
-14.13661
-4.454679
3.330747
9.829596
15.33465
20.24465
24.53793
28.33331
31.79665
34.91394
37.83052
40.59348
43.16785
45.54932
47.71856
49.82121
51.82439
53.73324
55.54315
57.27349
58.86834
60.44673
61.99102
63.49906
64.94824
66.29031
67.58187
68.86047
70.1212
71.36375
72.53867
73.65624
74.78756
75.88269
76.9796
78.04808
79.1096
80.16787
81.18788
82.1765
83.16208
84.12684
85.08847
86.03303
86.9508
87.87177
88.81857
89.76441
90.67044
91.56622
92.45639
93.37776
94.32495
95.24085
96.16075
97.1026
98.03577
98.98127
99.93465
100.8925
101.8869
102.9895
104.0982
105.1479
106.2868
107.531
108.8904
110.2284
111.4499
10.62948
12.18705
12.6819
10.18922
6.377803
1.720781
-4.956967
-14.93372
-25.76759
-41.9259
-59.94994
-76.77623
-91.09972
-105.8195
-116.9463
-120.6885
-118.2033
-106.7094
-95.11275
-91.2239
-85.22801
-85.73431
-94.36352
-91.32263
-81.40759
-79.03952
-74.91645
-73.34053
-74.29062
-75.13215
-75.32302
-74.99859
-74.60421
-74.35829
-73.9671
-73.20558
-72.64237
-72.23679
-71.62869
-73.52949
-76.44775
-70.28694
-73.62535
-74.46043
-71.87461
-73.07607
-72.17479
-74.41036
-74.68644
-87.10397
38.8008
39.29905
37.35203
36.94315
36.74559
36.77247
36.81168
36.86115
36.86582
36.75715
36.5867
36.30471
36.0106
35.03829
33.96051
32.69172
31.1895
29.53938
27.78567
25.91026
23.94612
21.83386
19.54649
17.05552
14.40041
11.49961
8.654866
6.05528
3.472522
0.6609311
-2.591479
-6.183915
-9.995811
-13.99819
-18.23713
-22.73546
-27.51123
-32.46231
-37.42985
-42.78804
-48.46686
-54.24631
-60.40234
-66.68544
-73.16751
-79.73599
-86.48928
-93.3441
-100.2512
-107.2127
-114.0705
-120.8373
-127.1972
-133.339
-138.9008
-144.1578
-148.8474
-152.7235
-155.7933
-157.9506
-159.0475
-158.9587
-157.5256
-154.6164
-150.3205
-145.0241
-139.4743
-134.6914
-132.2377
-157.2722
-176.5696
-146.9264
-99.43056
-71.71309
-55.82406
-34.66276
-24.38094
-82.83231
-149.0769
-121.992
-72.31792
-39.94985
-23.19779
-12.59295
-6.983892
-5.141821
-6.666997
-4.977319
-2.926658
-12.94029
-22.96576
-25.62314
-19.71348
-9.088584
-0.3494503
0.5288638
-3.14402
-2.889194
2.465858
-0.899416
-48.14234
-34.22759
-35.89578
-41.34783
-42.86477
-34.19036
-31.49938
-31.84649
-33.85987
-36.45447
-39.91133
-43.15385
-46.11351
-51.98211
-59.40507
-62.52765
-58.46992
-47.84203
-35.00851
-24.7308
-20.82551
-26.90743
-41.70332
-48.9177
-49.25041
-49.5128
-49.08663
-49.07969
-41.38271
-34.15622
-33.96846
-46.34589
-63.66507
-79.45655
-91.94254
-97.46775
-98.3707
-94.24159
-86.21522
-74.74723
-60.85699
-46.28926
-31.09019
-14.93167
1.40618
16.31749
26.75395
33.76129
37.89536
41.19041
-42.06308
-34.36162
-35.61008
-41.57141
-43.62259
-35.12448
-31.47289
-31.88636
-33.6726
-36.07548
-39.37494
-43.19016
-47.26333
-53.33827
-60.77432
-63.97309
-60.21814
-49.95657
-37.10086
-26.38569
-21.9668
-27.72506
-42.86913
-49.54943
-49.13954
-48.98209
-48.46643
-50.33632
-41.8104
-35.74499
-38.10173
-51.30481
-67.62414
-82.03197
-94.15373
-99.17416
-99.10479
-94.3223
-85.91224
-74.0575
-59.63283
-44.69122
-29.33099
-12.9746
3.262568
17.77645
28.13853
34.57268
38.44145
41.10865
39.11203
39.29638
37.49372
36.98432
36.72361
36.73959
36.77825
36.82902
36.8543
36.75669
36.59432
36.30507
36.0664
35.14116
34.10207
32.84569
31.34007
29.6876
27.93877
26.06297
24.09865
21.98268
19.71639
17.23909
14.56517
11.63591
8.841016
6.192857
3.586113
0.7841455
-2.48515
-6.070666
-9.90596
-13.88523
-18.09577
-22.5954
-27.39033
-32.38878
-37.28736
-42.74224
-48.43301
-54.09097
-60.36784
-66.67033
-73.1457
-79.71088
-86.48362
-93.41629
-100.353
-107.2917
-114.164
-120.9779
-127.3073
-133.5165
-139.0339
-144.3791
-149.0741
-152.9595
-156.0436
-158.1739
-159.2657
-159.1913
-157.8015
-154.9778
-150.8588
-145.9645
-140.804
-136.8333
-135.9028
-154.4332
-166.4864
-140.6742
-99.35172
-73.05257
-56.89606
-36.60384
-32.20862
-92.94033
-157.3661
-122.3826
-69.84707
-38.28803
-21.83732
-11.55426
-6.232313
-4.827244
-6.787023
-5.694566
-5.421463
-16.06251
-25.13403
-26.62071
-19.40063
-8.642345
-1.06954
-0.6711648
-4.284483
-2.75186
2.495243
-0.2017949
9.70321
11.75331
12.6188
10.54501
6.933903
2.505274
-4.211505
-13.94689
-24.3872
-40.59068
-58.64672
-75.52278
-90.10767
-105.6728
-117.4285
-122.2241
-121.8815
-112.3251
-100.1273
-92.79077
-84.68907
-85.0373
-94.81125
-92.33616
-82.01018
-79.29273
-75.2556
-73.90454
-74.74853
-75.42979
-75.51471
-75.11246
-74.65538
-74.35486
-73.93495
-73.15683
-72.64793
-72.22357
-71.76924
-73.67776
-76.69002
-70.85096
-74.88993
-75.06329
-71.63537
-72.18526
-71.73792
-73.95472
-74.46934
-79.41046
-43.79256
-28.70864
-14.42715
-4.664076
3.037553
9.631374
15.1929
20.11443
24.41911
28.2217
31.73738
34.84571
37.75513
40.55045
43.13624
45.51625
47.66904
49.79706
51.8114
53.73263
55.53596
57.27055
58.86251
60.44132
61.98787
63.51392
64.95956
66.2936
67.5943
68.87411
70.12168
71.3665
72.56071
73.66976
74.80748
75.89925
77.00531
78.07751
79.14103
80.1818
81.20823
82.20041
83.19557
84.16175
85.12243
86.06462
86.98755
87.91526
88.8614
89.80416
90.70667
91.61184
92.50331
93.42766
94.38357
95.30342
96.22452
97.16588
98.10064
99.05871
100.021
100.9895
101.9765
103.0938
104.2311
105.2849
106.4451
107.673
109.0086
110.327
111.4074
112.8734
112.58
111.4182
110.2078
109.0912
108.0381
106.8969
105.8037
104.8548
103.9873
103.0217
102.0675
101.1145
100.2259
99.34835
98.4876
97.6072
96.71717
95.87614
95.02831
94.15819
93.30161
92.46067
91.57749
90.74696
89.86771
88.93552
88.0596
87.18975
86.3191
85.39552
84.44588
83.53463
82.59436
81.60192
80.64004
79.6622
78.61257
77.57348
76.53378
75.48155
74.34335
73.14246
71.95903
70.80839
69.57056
68.28156
66.96598
65.56589
64.11903
62.61713
61.05009
59.53002
57.80713
56.02044
54.16318
52.12796
50.10687
47.7998
45.35921
42.76759
39.99886
36.8533
33.34531
29.43449
25.03062
19.92359
13.74104
6.365634
-4.31597
-14.31249
112.3625
112.3591
111.4627
110.3611
109.2847
108.2795
107.0952
105.9629
105.0353
104.2106
103.2388
102.2445
101.2453
100.3689
99.51325
98.62924
97.71093
96.80317
95.99057
95.14059
94.25124
93.40211
92.56712
91.65035
90.88633
89.96136
89.0008
88.13852
87.23943
86.39782
85.46194
84.54976
83.64466
82.66341
81.61703
80.6608
79.69351
78.64718
77.63328
76.58076
75.48464
74.3489
73.1897
71.99215
70.8119
69.59501
68.30376
66.94671
65.54985
64.12176
62.65334
61.06296
59.52303
57.73414
55.98686
54.16219
52.04589
50.07506
47.68682
45.31569
42.70765
39.84387
36.68431
33.16257
29.24559
24.80251
19.62146
13.41894
6.008003
-4.045572
-14.21593
-43.3256
-28.43384
-14.93146
-5.032361
2.547565
9.450981
14.99152
19.86801
24.1913
28.12147
31.69698
34.71743
37.65808
40.51461
43.05572
45.43545
47.65459
49.8239
51.80386
53.72613
55.48974
57.24296
58.88639
60.41667
62.00199
63.54296
64.93207
66.32738
67.64195
68.88212
70.11728
71.42956
72.66729
73.70496
74.86015
75.94612
77.073
78.14198
79.19635
80.22985
81.28922
82.30069
83.28604
84.24747
85.19271
86.16394
87.11047
88.00895
88.93325
89.91883
90.85912
91.75138
92.64
93.54663
94.53276
95.47938
96.34953
97.33183
98.30348
99.24323
100.2012
101.1757
102.1486
103.3139
104.5184
105.516
106.6404
107.7991
109.1083
110.3844
111.2544
8.621084
11.06396
12.38841
10.79021
7.521232
3.429883
-3.31191
-12.74734
-22.84868
-38.98238
-57.22161
-73.0409
-88.03161
-105.3468
-117.507
-122.7792
-125.6596
-118.4262
-106.8905
-96.31658
-84.63599
-85.41507
-95.37029
-93.46037
-82.87827
-79.44062
-75.61112
-74.79057
-75.52164
-75.91775
-75.81119
-75.28023
-74.74209
-74.35748
-73.91316
-73.07137
-72.49921
-72.19616
-72.00703
-73.71602
-76.44473
-72.31782
-76.90873
-75.83376
-71.46494
-72.21688
-71.00915
-72.70184
-72.53766
-71.89629
39.36157
39.42908
37.65215
37.07108
36.74802
36.71577
36.73871
36.78739
36.83514
36.76064
36.61916
36.28985
36.12745
35.24212
34.26942
33.04935
31.59884
29.90098
28.13732
26.26247
24.32253
22.19049
19.96059
17.53789
14.88523
11.94352
9.15389
6.40498
3.770146
1.036208
-2.28517
-5.793627
-9.697216
-13.75985
-17.92971
-22.39458
-27.10144
-32.21815
-36.94762
-42.4908
-48.55641
-53.84982
-60.14559
-66.65958
-73.10795
-79.65571
-86.30195
-93.23082
-100.4963
-107.41
-114.2786
-121.2202
-127.4378
-133.7688
-139.1078
-144.6404
-149.2948
-153.1936
-156.4633
-158.55
-159.6432
-159.5431
-158.1842
-155.58
-151.6972
-146.9859
-142.2766
-139.0951
-138.9079
-151.9434
-157.2712
-134.1409
-98.73764
-74.78954
-58.97797
-40.70937
-42.80436
-104.9196
-164.1673
-120.692
-66.28856
-36.07812
-19.58291
-9.68363
-5.180909
-4.709303
-6.975192
-7.008895
-9.413156
-20.06688
-27.76939
-27.79312
-19.71192
-8.883413
-2.461732
-2.333387
-5.596975
-2.518661
2.493802
-0.01731039
-36.42886
-33.28872
-35.93161
-42.36862
-46.46324
-35.86642
-31.31519
-31.66038
-33.15681
-35.22684
-38.64462
-43.36248
-48.71041
-55.10014
-62.75772
-66.08933
-62.823
-52.87327
-40.14678
-28.7467
-23.50983
-30.34181
-44.35144
-50.74071
-49.02075
-48.61863
-50.11922
-53.25482
-42.81996
-39.22841
-44.0971
-57.23462
-72.29915
-85.28639
-97.09212
-100.3291
-99.71412
-94.37941
-85.70801
-73.16065
-57.6921
-41.74813
-26.83509
-10.64756
5.233673
19.42615
29.70968
35.40416
38.97045
41.20926
7.974598
1.941443
61.25337
63.84286
62.58422
47.95562
27.90955
63.94314
62.521
-70.48508
56.3797
63.13007
3.133851
63.34562
85.8443
64.68338
67.00095
62.34682
64.0314
69.99644
59.53844
64.00832
16.00819
63.90446
21.53487
64.30923
63.84705
61.8401
63.2887
56.51158
61.00257
60.92474
44.99475
16.88371
64.58341
48.51669
7.891136
65.56281
16.43432
64.54016
65.60221
2.38141
40.63344
63.55446
63.84336
-116.5459
6.455747
2.973067
15.03375
65.84705
62.43897
56.54827
61.88949
67.628
64.5192
-16.42264
61.89042
60.89675
60.18774
2.31016
71.21288
63.66126
44.29864
58.2497
66.13139
77.50914
37.71083
31.16312
71.51959
55.76125
36.97957
58.68832
64.83078
62.7248
63.52328
63.55851
63.18815
62.97123
14.54659
63.63018
70.12879
62.63225
27.76219
43.02064
-73.07191
89.11239
67.58213
15.9398
58.68663
61.76122
65.90828
66.34145
64.62634
61.80693
82.37317
62.82312
64.84495
64.19937
48.71297
43.8808
60.27618
58.69171
65.93093
-43.82387
61.31046
63.7704
60.50223
64.61981
60.46716
64.04926
-1.124493
-196.0301
17.12807
56.68873
61.30889
17.64238
44.17223
33.6429
66.8367
61.25719
60.04129
58.79874
56.13326
103.6842
63.19873
59.33844
14.77474
51.6827
18.9649
53.98917
70.58751
66.57706
63.79042
60.2923
94.3277
26.10138
62.1148
-28.48131
62.7149
65.5065
63.83985
66.06559
64.17289
60.63893
17.33804
63.82829
64.48928
61.87451
77.67958
-62.60874
45.39808
82.86413
56.62449
63.6777
66.88232
63.50219
88.83398
61.85025
11.92479
62.35387
58.57815
63.84806
62.2007
12.18021
66.45828
40.36949
63.75851
65.52962
37.80043
63.06971
65.88875
-34.15909
17.08644
61.7251
57.89387
7.600286
58.92129
63.62538
47.40983
-24.78763
63.87063
64.55149
61.14047
60.08175
61.071
60.93617
64.89811
64.59349
66.65524
52.43035
61.80595
2.204689
62.79144
13.85312
63.47221
60.1966
51.67674
42.35196
64.77605
60.4132
-44.88622
63.40234
61.05836
67.58245
63.21173
59.57719
50.6081
63.28612
60.52725
63.84686
26.00686
65.01927
36.31637
64.49422
84.33889
16.15147
63.39527
53.05314
62.28813
58.29453
61.76154
61.96318
63.28859
58.06544
77.79685
-49.70373
63.4446
18.16189
61.47973
62.15635
75.01708
62.36771
55.85134
64.53599
46.27225
8.085058
62.87353
63.9255
1.619292
101.8351
61.31038
-82.7414
93.47378
23.09554
60.31384
63.48699
59.10887
62.79755
61.87991
63.92556
63.92582
10.81663
66.82738
61.95793
93.30076
60.92118
55.60026
62.28989
52.73545
62.01645
63.373
88.50134
60.88991
63.67187
64.85548
62.82807
70.37396
62.85727
63.44111
63.65425
60.71763
44.26934
52.81595
99.82016
66.44526
-5.414959
64.50317
82.46888
63.54893
29.35313
63.00565
59.13196
49.00653
43.67779
66.75843
75.66436
62.64684
64.90415
65.16914
62.80916
56.67414
44.30494
24.08861
64.26823
65.75485
31.38005
5.785383
-11.34293
63.98029
63.30252
60.86734
-11.05237
63.28432
70.66975
62.30133
15.38322
61.59722
64.22086
46.70936
67.88116
63.64915
55.67708
20.21245
69.55376
63.04523
60.43042
63.50781
64.14111
61.52088
56.60098
57.37961
63.42533
101.209
64.13933
65.76359
62.74786
62.62381
62.42344
63.57373
68.65353
62.8368
23.90368
59.25801
63.44371
64.75942
99.61785
61.50582
17.04112
55.18171
-41.89733
64.06047
49.71617
60.74038
61.82837
63.16703
64.23893
70.37264
8.723995
69.68846
58.56331
58.98215
62.09928
7.122466
61.141
21.29184
-156.6061
85.90412
11.74323
50.46942
63.79248
60.76607
62.40123
51.86324
60.23508
45.12828
64.47862
60.39491
60.62243
62.11949
63.90838
64.83263
61.16188
64.20444
26.08034
63.96108
60.82475
25.92741
38.49897
62.46111
80.45093
43.75556
67.54775
65.62526
61.14764