/*--------------------------------*- C++ -*----------------------------------*\
| =========                 |                                                 |
| \\      /  F ield         | OpenFOAM: The Open Source CFD Toolbox           |
|  \\    /   O peration     | Version:  2406                                  |
|   \\  /    A nd           | Website:  www.openfoam.com                      |
|    \\/     M anipulation  |                                                 |
\*---------------------------------------------------------------------------*/
FoamFile
{
    version     2.0;
    format      ascii;
    arch        "LSB;label=32;scalar=64";
    class       surfaceScalarField;
    location    "3";
    object      phi;
}
// * * * * * * * * * * * * * * * * * * * * * * * * * * * * * * * * * * * * * //

dimensions      [0 3 -1 0 0 0 0];

oriented        oriented;

internalField   nonuniform List<scalar> 
326221
(
-0.002363343
-0.00555394
0.007917283
-0.001368916
-0.0009944275
0.0008546533
-0.002223569
-0.0004767382
0.001331392
-0.001458384
0.0009816455
-0.000460457
-0.0009979267
0.0003160851
-0.0007765421
0.0007794106
-0.0004633255
0.0008914297
-0.0001120191
0.001040175
-0.0001487454
0.001215187
-0.0001750115
0.001010839
0.0002043473
9.159527e-05
0.0009192441
-0.001368559
0.001460154
-0.002579222
0.001210663
-0.003058496
0.0004792744
-0.002758652
-0.0002998442
-0.001802798
-0.0009558538
-0.0004910747
-0.001311723
0.000848421
-0.001339496
0.002317576
-0.001469155
0.003232441
-0.000914865
0.002330385
0.0009020556
0.0008629436
0.001467442
0.0002094234
0.0006535202
0.0002093756
4.782858e-08
0.0007446178
-0.0005352422
0.001080933
-0.0003363148
0.001174887
-9.395454e-05
0.001569864
-0.0003949767
0.001883067
-0.0003132035
0.0006234711
0.001259596
-0.001673489
0.00229696
-0.003732969
0.002059479
-0.005035801
0.001302833
-0.005598639
0.0005628378
-0.005666857
6.821818e-05
-0.005490189
-0.0001766681
-0.005243647
-0.0002465424
-0.004945899
-0.0002977479
-0.004596068
-0.0003498306
-0.004231108
-0.0003649602
-0.003812825
-0.0004182832
-0.003302264
-0.0005105607
-0.002680751
-0.0006215134
-0.001777083
-0.0009036673
-0.00102766
-0.0007494239
-0.0004949607
-0.0005326988
0.0001785673
-0.000673528
0.0005406683
-0.0003621009
-0.000280682
0.0008213502
8.239325e-05
-0.0003630752
0.0002116629
-0.0001292697
-0.0002909331
0.000502596
-0.0006258614
0.0003349283
-0.0006619238
3.606235e-05
-0.000566437
-9.548676e-05
-0.0004281037
-0.0001383333
-0.0002833158
-0.0001447879
-0.0001537522
-0.0001295636
-4.652736e-06
-0.0001490994
0.0001740531
-0.0001787059
0.0004024633
-0.0002284102
0.0004879141
-8.545076e-05
0.0005768454
-8.893132e-05
0.0006978119
-0.0001209664
0.0008159418
-0.00011813
0.0009370005
-0.0001210586
0.001090263
-0.0001532629
0.00128569
-0.000195427
0.00147618
-0.0001904894
0.001544623
-6.844305e-05
0.001480113
6.450957e-05
0.001398842
8.127171e-05
0.001378767
2.007446e-05
0.001425812
-4.704462e-05
0.001572053
-0.000146241
0.001807133
-0.00023508
0.00207293
-0.0002657971
0.002334317
-0.0002613875
0.002567753
-0.0002334352
0.002769714
-0.0002019615
0.002952694
-0.0001829804
0.003058564
-0.0001058696
0.003225064
-0.0001665003
0.003395176
-0.0001701122
0.003565514
-0.0001703371
0.003729083
-0.0001635698
0.003903169
-0.0001740853
0.004084918
-0.0001817495
0.004264168
-0.0001792501
0.004453375
-0.0001892064
0.00464393
-0.0001905555
0.004834939
-0.0001910084
0.005023055
-0.0001881162
0.005211231
-0.0001881758
0.005396888
-0.0001856577
0.00557915
-0.0001822621
0.005757811
-0.0001786602
0.005928835
-0.0001710242
0.006093324
-0.0001644894
0.006242535
-0.0001492108
0.0063813
-0.0001387652
0.006500983
-0.0001196832
0.006607516
-0.0001065329
0.006695196
-8.767941e-05
0.0067555
-6.030422e-05
0.006788704
-3.320406e-05
0.00678216
6.544118e-06
0.006716496
6.566368e-05
0.006579502
0.0001369937
0.00634989
0.0002296129
0.005989081
0.0003608083
0.005405973
0.0005831079
0.004393959
0.001012015
0.002695638
0.001698321
0.0006250777
0.002070561
8.662764e-05
0.0005384501
-0.0002286035
0.0003152311
-0.002713597
0.002484993
-0.0053157
0.002602103
-0.004627099
-0.0006886005
-0.002571699
-0.0020554
-0.001162743
-0.001408956
0.0003304739
-0.001493217
0.002127391
-0.001796917
0.002343642
-0.0002162506
-0.001279569
0.003623211
-0.005000702
0.003721132
-0.004908633
-9.206854e-05
-0.003113141
-0.001795492
-0.001535389
-0.001577753
-0.0003169025
-0.001218486
0.000784924
-0.001101827
0.001481917
-0.0006969928
0.002106305
-0.0006243877
0.001931968
0.0001743366
0.001015485
0.0009164827
0.0006120706
0.0004034147
-0.0004094889
0.001021559
-0.001997366
0.001587877
-0.002976436
0.0009790697
-0.002906955
-6.948055e-05
-0.002157977
-0.000748978
-0.0006779989
-0.001479979
0.0006642803
-0.001342279
0.001024354
-0.0003600732
0.0007395977
0.0002847558
0.0007852627
-4.566496e-05
-0.001454745
0.002240008
-0.001108731
-0.0003460146
-0.0003769539
-0.0007317768
9.435445e-05
-0.0004713083
0.0006610167
-0.0005666622
0.001107177
-0.0004461608
0.001698036
-0.0005908583
0.002454112
-0.0007560763
0.003085246
-0.0006311335
0.003951656
-0.0008664104
0.004690719
-0.0007390632
0.005273682
-0.0005829625
0.00573985
-0.0004661681
0.006174819
-0.0004349693
0.006408379
-0.0002335602
0.006123623
0.0002847566
0.004585413
0.001538209
0.001403018
0.003182395
-0.001047512
0.002450531
-0.001373799
0.0003262862
-0.0009180231
-0.0004557756
0.000370632
-0.001288655
0.0002010816
0.0001695505
-0.001721464
0.001922545
-0.002538542
0.0008170782
-0.001862065
-0.0006764767
-0.001427452
-0.0004346129
-0.0006956178
-0.0007318345
7.061764e-05
-0.0007662354
0.0005240555
-0.0004534379
0.0005955426
-7.14871e-05
0.0003912019
0.0002043408
9.824787e-05
0.000292954
-0.0001168977
0.0002151456
-0.0002110265
9.412878e-05
-0.0001706579
-4.036861e-05
-9.643434e-06
-0.0001610145
0.0001581243
-0.0001677677
0.0003381836
-0.0001800594
0.0001896646
0.000148519
-0.0005147162
0.0007043808
-0.0007986553
0.0002839391
0.0003758455
-0.001174501
0.0008916552
-0.0005158097
0.0004167725
0.0004748827
-0.0002837713
0.0007005438
-0.001092781
0.0008090098
-0.0007843472
-0.0003084338
0.001853203
-0.00263755
0.002622027
-0.0007688236
-0.006346558
0.008968585
-0.006726483
0.0003799248
-0.00579546
-0.0009310234
-0.005428951
-0.0003665084
-0.005060414
-0.0003685368
-0.004783943
-0.0002764713
-0.004531748
-0.0002521952
-0.004312911
-0.0002188369
-0.004023384
-0.0002895269
-0.003872121
-0.0001512625
-0.003742586
-0.0001295353
-0.003623644
-0.000118942
-0.003517546
-0.0001060985
-0.003415368
-0.0001021772
-0.003318331
-9.70371e-05
-0.003226158
-9.217311e-05
-0.003143471
-8.268778e-05
-0.003067324
-7.614676e-05
-0.002994499
-7.282444e-05
-0.002923014
-7.148509e-05
-0.002856481
-6.653276e-05
-0.002792577
-6.390469e-05
-0.002732877
-5.969989e-05
-0.002679228
-5.36489e-05
-0.002624825
-5.44033e-05
-0.002570225
-5.459988e-05
-0.002515401
-5.482418e-05
-0.002464274
-5.112656e-05
-0.002418299
-4.597466e-05
-0.002376518
-4.178107e-05
-0.002333087
-4.343146e-05
-0.00229027
-4.281685e-05
-0.002245185
-4.508503e-05
-0.002205496
-3.968863e-05
-0.002168713
-3.678295e-05
-0.002130365
-3.834836e-05
-0.002091739
-3.862569e-05
-0.002052258
-3.948162e-05
-0.002016972
-3.52862e-05
-0.001984875
-3.209671e-05
-0.002016359
3.148456e-05
-0.001998598
-1.776182e-05
-0.001975029
-2.356836e-05
-0.001951317
-2.37122e-05
-0.001930543
-2.077451e-05
-0.001908901
-2.164102e-05
-0.001889392
-1.950992e-05
-0.001871621
-1.777098e-05
-0.001854772
-1.684886e-05
-0.001834782
-1.998966e-05
-0.001814723
-2.005891e-05
-0.001798873
-1.584993e-05
-0.001785999
-1.287419e-05
-0.001776279
-9.720255e-06
-0.001763456
-1.282291e-05
-0.001748197
-1.525864e-05
-0.0017355
-1.269738e-05
-0.001725286
-1.021437e-05
-0.001712816
-1.246919e-05
-0.00170265
-1.016629e-05
-0.001690827
-1.182268e-05
-0.001677713
-1.311458e-05
-0.001664823
-1.289002e-05
-0.00164969
-1.513259e-05
-0.001616593
-3.309723e-05
-0.001571536
-4.505701e-05
-0.00152661
-4.492631e-05
-0.001468827
-5.778284e-05
-0.001381123
-8.770418e-05
-0.001193098
-0.0001880246
-0.0008957376
-0.0002973604
-0.0003086709
-0.0005870667
0.000518123
-0.0008267938
0.0008645521
-0.0003464291
0.001097971
-0.0002334186
0.00122873
-0.0001307589
0.001314203
-8.547311e-05
0.001385714
-7.151095e-05
0.001434121
-4.840771e-05
0.0014577
-2.357873e-05
0.001475158
-1.745738e-05
0.001502678
-2.752041e-05
0.001527831
-2.515264e-05
0.00154825
-2.041934e-05
0.001561039
-1.278894e-05
0.00157238
-1.134159e-05
0.001583184
-1.080378e-05
0.001597141
-1.395653e-05
0.001609625
-1.248436e-05
0.001618177
-8.551839e-06
0.001627499
-9.3219e-06
0.001640783
-1.328448e-05
0.001653297
-1.251321e-05
0.001665789
-1.249221e-05
0.001682316
-1.652768e-05
0.001696447
-1.413101e-05
0.001716
-1.955289e-05
0.001739456
-2.345589e-05
0.001757805
-1.83486e-05
0.001772855
-1.505052e-05
0.001789997
-1.714162e-05
0.001809932
-1.993479e-05
0.001822903
-1.297162e-05
0.001788626
3.427691e-05
0.001815778
-2.715178e-05
0.001849894
-3.411608e-05
0.001884536
-3.464219e-05
0.001919525
-3.498822e-05
0.001957094
-3.756951e-05
0.001992705
-3.561028e-05
0.002025312
-3.260722e-05
0.002060908
-3.559606e-05
0.002101035
-4.01272e-05
0.002144724
-4.368943e-05
0.0021831
-3.83757e-05
0.002220091
-3.699078e-05
0.002259965
-3.987371e-05
0.002303125
-4.316057e-05
0.002347646
-4.452117e-05
0.002397366
-4.972008e-05
0.002449115
-5.174875e-05
0.002501348
-5.223293e-05
0.002555384
-5.403613e-05
0.002606524
-5.11401e-05
0.00266727
-6.074602e-05
0.002730987
-6.371635e-05
0.002797457
-6.647017e-05
0.002869102
-7.164528e-05
0.002943233
-7.413044e-05
0.003025418
-8.218577e-05
0.003115471
-9.005228e-05
0.003207726
-9.225586e-05
0.003308186
-0.0001004597
0.003422782
-0.0001145963
0.003556862
-0.0001340793
0.003812117
-0.0002552556
0.004002575
-0.0001904574
0.004219435
-0.00021686
0.004462264
-0.0002428288
0.004776585
-0.0003143215
0.005086481
-0.0003098955
0.005863931
-0.0007774503
0.0003099913
0.0006550931
0.0003539524
-0.001835839
0.001133482
-0.000824818
0.001502861
-0.0006027976
0.001778409
-0.0004063066
0.001987342
-0.0002944061
0.002168422
-0.0002525916
0.002321916
-0.0002019012
0.002446627
-0.0001482898
0.002555894
-0.0001267249
0.002665625
-0.0001372507
0.002767324
-0.0001268522
0.00286222
-0.0001153153
0.002947036
-9.760426e-05
0.003027392
-9.169772e-05
0.003102214
-8.562577e-05
0.003176575
-8.831754e-05
0.003246871
-8.278086e-05
0.003312428
-7.410829e-05
0.003375079
-7.197307e-05
0.003438198
-7.64034e-05
0.003498588
-7.290303e-05
0.003556556
-7.046054e-05
0.003616057
-7.602906e-05
0.003671601
-6.967441e-05
0.003729796
-7.774801e-05
0.003789147
-8.280717e-05
0.003846
-7.520126e-05
0.003898812
-6.786261e-05
0.003953138
-7.146794e-05
0.004007612
-7.440847e-05
0.004059428
-6.478781e-05
0.004023483
7.022237e-05
0.004087163
-9.083214e-05
0.004154451
-0.0001014044
0.004222006
-0.0001021967
0.004289728
-0.0001027109
0.004358601
-0.000106442
0.004426952
-0.000103961
0.004492152
-9.780772e-05
0.004560085
-0.0001035289
0.004629256
-0.0001092987
0.004702773
-0.0001172057
0.004771579
-0.0001071817
0.004840896
-0.0001063084
0.00491101
-0.0001099876
0.004984237
-0.0001163875
0.005057884
-0.0001181684
0.005135924
-0.0001277599
0.005216115
-0.0001319397
0.005296958
-0.0001330756
0.005380738
-0.0001378159
0.005461707
-0.0001321095
0.005551321
-0.0001503597
0.005641884
-0.0001542793
0.005736946
-0.000161532
0.005834866
-0.0001695662
0.005936852
-0.0001761159
0.006044276
-0.0001896095
0.006159623
-0.0002054001
0.006276785
-0.0002094173
0.006402167
-0.0002258423
0.006539143
-0.0002515717
0.006693627
-0.0002885636
0.007032535
-0.0005941631
0.007241885
-0.0003998076
0.007483176
-0.0004581515
0.007745948
-0.0005056001
0.008093577
-0.0006619509
0.008390416
-0.0006067341
0.009293992
-0.001681027
0.008518241
0.001085742
-0.01035489
0.009533597
0.001201218
-0.00927492
-0.002010994
-0.008925955
-0.0007154736
-0.008524474
-0.0007700178
-0.008227778
-0.0005731674
-0.007951007
-0.0005289657
-0.00771412
-0.0004557243
-0.007337279
-0.0006663674
-0.007164272
-0.0003242694
-0.00701039
-0.0002834174
-0.006865493
-0.0002638392
-0.006732545
-0.0002390467
-0.00660265
-0.0002320718
-0.00647916
-0.0002205275
-0.006358848
-0.0002124849
-0.006247989
-0.0001935468
-0.006140674
-0.0001834615
-0.0060384
-0.0001750992
-0.005936247
-0.0001736376
-0.005839784
-0.0001629963
-0.005744657
-0.0001590312
-0.00565379
-0.0001505673
-0.005567245
-0.0001401934
-0.005480822
-0.0001408264
-0.005395554
-0.0001398674
-0.005310251
-0.0001401278
-0.005228905
-0.0001324725
-0.005150012
-0.0001248674
-0.005075293
-0.0001164997
-0.004997891
-0.0001208339
-0.004923056
-0.0001176517
-0.004845335
-0.0001228066
-0.004772534
-0.0001124888
-0.004700262
-0.0001090555
-0.00462744
-0.00011117
-0.004553956
-0.0001121097
-0.004480018
-0.0001134195
-0.004408754
-0.0001065509
-0.00433857
-0.0001022802
-0.004373525
6.643955e-05
-0.004316879
-7.440762e-05
-0.004259159
-8.128902e-05
-0.004199966
-8.290468e-05
-0.004143574
-7.71663e-05
-0.004084705
-8.051008e-05
-0.004027566
-7.664895e-05
-0.003969579
-7.575829e-05
-0.003911833
-7.459535e-05
-0.003850548
-8.127441e-05
-0.003788794
-8.181258e-05
-0.003728253
-7.63907e-05
-0.0036672
-7.392732e-05
-0.003606073
-7.08471e-05
-0.003539869
-7.902737e-05
-0.003470586
-8.454127e-05
-0.003399843
-8.344033e-05
-0.003328242
-8.181566e-05
-0.003250605
-9.010578e-05
-0.003171609
-8.91626e-05
-0.003085805
-9.762651e-05
-0.002994263
-0.0001046566
-0.002896282
-0.0001108712
-0.002790425
-0.0001209894
-0.002663778
-0.0001597444
-0.002521796
-0.0001870387
-0.002370631
-0.0001960917
-0.002195666
-0.0002327483
-0.001975052
-0.0003083174
-0.001650195
-0.0005128823
-0.001170224
-0.0007773306
-0.001403339
-0.001676509
0.001618208
-0.0002877136
-0.0009400988
-0.001468187
-0.0002149909
-0.001196416
0.0004459341
-0.001227587
0.001037936
-0.001038162
0.001787073
-0.001339995
0.002729005
-0.001698008
0.003545075
-0.001447204
0.0046283
-0.001949635
0.005618179
-0.001728942
0.006451515
-0.001416299
0.007148943
-0.001163595
0.007807531
-0.001093558
0.008285874
-0.0007119031
0.008636741
-6.610983e-05
0.008479826
0.001695124
0.005723764
0.005938457
0.0006913655
0.00748293
-0.002049274
0.003066925
-0.001800281
-0.0007047679
-9.756802e-05
-0.002991369
-0.0007042792
0.0007762616
-0.003187618
0.004405885
-0.003423483
0.001052943
-0.002274975
-0.001824985
-0.00173914
-0.0009704486
-0.0007663698
-0.001704604
0.0002050081
-0.001737613
0.000832386
-0.001080816
0.001068759
-0.00030786
0.0009490175
0.0003240822
0.0005323001
0.0007096714
6.440024e-05
0.0006830455
-0.0001521135
0.0003106425
-0.0001034446
-8.903748e-05
6.180449e-05
-0.0003262635
0.0003083751
-0.0004143383
0.0006398967
-0.0005115809
0.0001595764
0.0006288392
-0.0008635843
0.001727542
-0.000862658
0.0002830129
0.0006574439
-0.002694603
0.001410807
-0.001269173
0.0009450762
0.0009406133
-0.0002002559
0.001845876
-0.0002184005
0.0008271544
0.0009408386
-0.001467673
0.002812389
-0.0045091
0.0008094132
0.001234152
0.01931159
-0.0004335301
-0.0008927263
0.002147607
-0.0005795259
-0.0002170794
-0.0008349084
0.0001261128
-0.001165936
0.0008336237
-0.001293522
0.0004625144
-0.001141159
-0.0001163009
-0.0009353445
-0.0003013012
-0.0007151948
-0.000358483
-0.0004906274
-0.0003693553
-0.0002862658
-0.0003339252
-6.535401e-05
-0.0003700113
0.0001819075
-0.0004259674
0.0004574069
-0.0005039096
0.0005902976
-0.0002183414
0.000761477
-0.0002601108
0.0009681261
-0.0003276155
0.001171311
-0.0003213148
0.001372875
-0.0003226226
0.001588141
-0.0003685288
0.001837284
-0.0004445703
0.002152176
-0.0005053813
0.00247994
-0.000396207
0.002641493
-9.704329e-05
0.002535429
0.000187336
0.002330702
0.0002248007
0.002249343
3.43149e-05
0.002387669
-0.000284567
0.00269847
-0.0005458808
0.00307975
-0.0006470773
0.003473143
-0.000654781
0.003842184
-0.0006024758
0.004175823
-0.0005356003
0.004479685
-0.0004868421
0.004674361
-0.0003005463
0.004955855
-0.0004479935
0.005232624
-0.0004468812
0.005504788
-0.0004425012
0.00576731
-0.000426092
0.006036858
-0.0004436339
0.006311762
-0.0004566528
0.006582573
-0.0004500612
0.006861604
-0.0004682378
0.00714091
-0.0004698612
0.007419985
-0.000470084
0.007695259
-0.0004633903
0.007969034
-0.0004619503
0.008238483
-0.0004551067
0.008502439
-0.0004462184
0.008760767
-0.000436988
0.009009776
-0.0004200329
0.009251325
-0.0004060388
0.009477612
-0.0003754976
0.009694219
-0.0003553718
0.009893125
-0.0003185893
0.0100808
-0.0002942059
0.01025221
-0.0002590956
0.01040045
-0.0002085422
0.01052467
-0.000157426
0.01062571
-9.449483e-05
0.01070385
-1.247526e-05
0.01075308
8.776662e-05
0.01076046
0.0002222284
0.01070473
0.0004165395
0.01053485
0.0007529941
0.01008955
0.001457306
0.008915846
0.00287203
0.00689918
0.004087226
0.00332368
0.00411395
-0.0005910511
0.004229962
-0.003748744
0.005642686
-0.004001168
0.002854527
-0.001766234
-0.002923535
-0.0001098181
-0.003711816
0.001043525
-0.002562299
0.001898859
-0.00234855
0.003344306
-0.003242364
0.001644821
0.001483234
-0.003593284
0.008861316
-0.00639549
0.006523338
-0.005175629
-0.001311929
-0.003080355
-0.003890766
-0.001279175
-0.003378933
8.903847e-05
-0.0025867
0.001384358
-0.002397146
0.002266954
-0.001579589
0.002926107
-0.001283541
0.002858627
0.0002418169
0.00169687
0.00207824
-0.0001517303
0.002252015
-0.002330988
0.003200817
-0.003737075
0.002993965
-0.00392325
0.001165245
-0.003296569
-0.0006961619
-0.002171209
-0.001874339
-0.0004062382
-0.003244949
0.001027291
-0.002775808
0.001470592
-0.0008033739
0.001188598
0.0005667499
0.001092438
5.049471e-05
0.004950654
-0.0007780503
0.01721357
-0.002362344
0.0005898659
-0.0007567401
-0.003829173
-0.001832374
0.002407026
-0.002296966
0.001446238
-0.000816523
-0.00247837
9.215787e-05
-0.001685223
0.000855961
-0.001227129
0.001298741
-0.0005547986
0.001577309
-0.0004273135
0.001760248
-0.0003579509
0.0009496312
0.001014964
-0.001212862
0.003081737
-0.003258581
0.003505873
-0.004146874
0.002098956
-0.004233848
0.0005662488
-0.003686933
-0.0008467595
-0.002462789
-0.002179997
-0.0007595841
-0.003014929
0.0009388302
-0.00303791
0.002647137
-0.003177461
0.004398741
-0.002666469
0.004585744
0.0007150528
0.00290666
0.003146525
0.001330389
0.002229792
0.0009975062
0.0003329302
0.001669532
-0.001207268
0.002095302
-0.0007620847
0.002424571
-0.0004232236
0.002814986
-0.0007853923
0.001430746
0.001071037
-0.002418829
0.005109171
-0.00591062
0.005788751
-0.007454322
0.003603182
-0.007828112
0.001676623
-0.00768774
0.0004224655
-0.007421371
-0.0001981504
-0.007085815
-0.0005122246
-0.006682967
-0.0006493898
-0.00622112
-0.0007595951
-0.005696036
-0.0008749152
-0.005142203
-0.0009187928
-0.004517185
-0.001043302
-0.003788769
-0.001238976
-0.002928945
-0.001481338
-0.001804272
-0.00202834
-0.0008110556
-0.001742641
-4.377926e-05
-0.001299975
0.0007936121
-0.001510919
-0.0004612151
0.00121828
-0.01082443
0.02681973
-0.002721066
0.004529211
-0.002416617
-0.004133621
-0.003005735
0.002996143
-0.00294459
0.001385093
-0.001324156
-0.004098804
-0.0002269093
-0.00278247
0.0006557811
-0.002109819
0.001277612
-0.001176629
0.001695163
-0.0008448648
0.001586781
-0.0002495693
-0.0001642842
0.00276603
-0.002881707
0.00579916
-0.004533599
0.005157765
-0.005214517
0.002779874
-0.005374117
0.0007258492
-0.004751116
-0.001469761
-0.003289166
-0.003641947
-0.001278263
-0.005025832
0.0007963021
-0.005112475
0.002841872
-0.005223031
0.00493779
-0.004762388
0.005944091
-0.0002912482
0.005077066
0.00401355
0.003406612
0.003900247
0.002655317
0.001084225
0.003105296
-0.001657248
0.00340374
-0.001060528
0.003633406
-0.0006528891
0.00290066
-5.264612e-05
-0.001068013
0.00503971
-0.006131584
0.01017274
-0.008583766
0.008240933
-0.009112278
0.004131694
-0.009219531
0.001783875
-0.009121938
0.000324872
-0.008892572
-0.0004275163
-0.008508075
-0.000896721
-0.008049981
-0.001107484
-0.007520052
-0.001289524
-0.006906387
-0.00148858
-0.006252357
-0.001572823
-0.005499225
-0.001796433
-0.004589378
-0.002148824
-0.003487565
-0.00258315
-0.002096135
-0.00341977
-0.000909564
-0.002929212
6.096888e-05
-0.002270508
0.001024731
-0.002474682
0.001101973
-0.0005384566
-0.0006066645
0.003856244
-0.001230978
0.0004072341
-0.00166648
0.000561615
-0.001686202
0.0008533459
-0.001527891
0.0003042035
-0.001292264
-0.000351928
-0.0010492
-0.0005443653
-0.0007850024
-0.0006226806
-0.0005137498
-0.0006406079
-0.0002635179
-0.0005841571
9.988647e-06
-0.0006435178
0.000327807
-0.0007437858
0.0007048712
-0.0008809738
0.0008762491
-0.0003897193
0.001078732
-0.0004625942
0.001318339
-0.0005672225
0.001561515
-0.0005644902
0.001808352
-0.0005694602
0.002063521
-0.0006236972
0.002332999
-0.0007140486
0.002660648
-0.0008330299
0.00305196
-0.0007875196
0.003362102
-0.0004071856
0.003396454
0.0001529848
0.003202585
0.0004186692
0.003053496
0.0001834037
0.003166224
-0.0003972947
0.003504183
-0.0008838396
0.003941916
-0.00108481
0.004402075
-0.00111494
0.004838433
-0.001038834
0.005236308
-0.0009334753
0.005602227
-0.000852761
0.005831522
-0.0005298414
0.00617004
-0.0007865117
0.006502227
-0.0007790681
0.006828497
-0.0007687705
0.007142411
-0.0007400068
0.007464175
-0.0007653976
0.007791672
-0.0007841494
0.008113834
-0.0007722234
0.008445918
-0.0008003223
0.008777834
-0.0008017772
0.009109894
-0.0008021438
0.009437332
-0.0007908284
0.009763054
-0.0007876722
0.0100833
-0.0007753558
0.01039679
-0.0007597015
0.0107033
-0.0007434981
0.01099843
-0.0007151692
0.01128497
-0.0006925763
0.01155333
-0.0006438544
0.01181112
-0.0006131683
0.01204812
-0.0005555822
0.01227318
-0.0005192649
0.01247997
-0.000465891
0.01266074
-0.0003893071
0.01281623
-0.0003129191
0.0129417
-0.0002199666
0.01303376
-0.00010453
0.01309093
3.058975e-05
0.01311021
0.0002029509
0.01308909
0.0004376598
0.01302868
0.0008134069
0.01295189
0.00153409
0.01276406
0.003059867
0.01221872
0.004632557
0.008910925
0.00742175
0.00250774
0.01063315
-0.001690787
0.009841214
-0.0001627956
0.001326535
0.002235217
-0.005321548
0.00418101
-0.005657609
0.004871293
-0.003252581
0.004606047
-0.002083305
0.004284467
-0.002920784
0.00034378
0.005423921
-0.004957552
0.01416265
-0.007122034
0.00868782
-0.005617363
-0.0028166
-0.003019716
-0.006488413
-0.000965974
-0.005432675
0.0004713845
-0.004024058
0.001705374
-0.003631136
0.002503038
-0.002377253
0.003144036
-0.001924538
0.003171094
0.0002147588
0.001643531
0.003605802
-0.001248132
0.005143678
-0.003804949
0.005757634
-0.004712926
0.003901942
-0.004706248
0.001158567
-0.003932904
-0.001469506
-0.002348735
-0.003458508
-0.0001598668
-0.005433817
0.001538376
-0.004474052
0.001944981
-0.001209979
0.001482838
0.001028893
0.001010217
0.000523116
-0.002057374
0.008018245
-0.002283254
-6.183359e-05
-0.001417655
-0.002333786
-0.0004680006
-0.00214607
0.0003485891
-0.002044177
0.001068086
-0.00175766
0.001923097
-0.002195006
0.003034045
-0.002808956
0.004013153
-0.002426312
0.005324432
-0.003260914
0.006546194
-0.002950704
0.007572864
-0.00244297
0.008404425
-0.001995156
0.009193368
-0.0018825
0.009770385
-0.001288921
0.009981788
-0.0002775124
0.01031661
0.001360297
0.009248863
0.007006208
0.004215337
0.01251646
-0.001186253
0.008468515
-0.002685258
0.0007942373
-0.001484092
-0.004192535
-0.002285798
0.001577968
-0.004099505
0.006219591
-0.003838683
0.0007921212
-0.002500767
-0.0031629
-0.001818192
-0.001653024
-0.000686033
-0.002836763
0.0004186896
-0.002842336
0.001157578
-0.001819704
0.001495644
-0.0006459266
0.0014637
0.0003560263
0.001102907
0.001070464
0.0005978406
0.001188112
0.0002384016
0.0006700816
0.0001405401
8.82393e-06
0.0002021617
-0.0003878851
0.0004321659
-0.0006443426
0.0007890504
-0.0008684654
3.426905e-05
0.001383621
-0.001020809
0.002782619
-0.0006883619
-4.9434e-05
0.001074224
-0.004457189
0.001916153
-0.002111102
0.00145277
0.001403997
-4.930681e-05
0.003347952
3.314105e-05
0.0007447065
0.001879429
-0.003313961
0.003026084
-0.005655755
-0.001355676
0.005615911
-0.01196902
0.02992494
-0.01264512
0.001877316
-0.01156691
-0.003089201
-0.01110646
-0.001175924
-0.01065776
-0.001218722
-0.01032312
-0.0009078095
-0.01001595
-0.0008361334
-0.009758949
-0.0007127245
-0.00932687
-0.001098447
-0.00913691
-0.0005142287
-0.008964759
-0.0004555684
-0.008802219
-0.0004263797
-0.008652243
-0.0003890225
-0.008504981
-0.0003793337
-0.008364833
-0.0003606754
-0.008227313
-0.0003500049
-0.008099609
-0.0003212513
-0.007974557
-0.000308513
-0.007855003
-0.0002946533
-0.00773488
-0.0002937612
-0.007620862
-0.0002770139
-0.007507524
-0.000272369
-0.007398249
-0.0002598429
-0.007293062
-0.00024538
-0.007187723
-0.0002461653
-0.007083954
-0.0002436366
-0.006979845
-0.0002442365
-0.006879668
-0.0002326493
-0.006780845
-0.0002236912
-0.006686133
-0.0002112116
-0.006587626
-0.000219341
-0.006492486
-0.000212791
-0.006393391
-0.0002219023
-0.00629933
-0.0002065495
-0.006204691
-0.0002036942
-0.006109167
-0.0002066947
-0.006012741
-0.0002085357
-0.005915189
-0.0002109714
-0.005818716
-0.0002030235
-0.005720347
-0.0002006491
-0.005747857
9.394924e-05
-0.00566017
-0.0001620947
-0.00557905
-0.000162409
-0.005494715
-0.0001672393
-0.005413762
-0.0001581193
-0.005329244
-0.0001650288
-0.005246634
-0.0001592586
-0.005162388
-0.0001600046
-0.005078395
-0.0001585877
-0.004990294
-0.0001693758
-0.004901673
-0.000170433
-0.004813993
-0.0001640707
-0.004724876
-0.0001630447
-0.004635384
-0.0001603395
-0.004540077
-0.0001743337
-0.004441474
-0.0001831446
-0.004341449
-0.0001834654
-0.004240511
-0.0001827537
-0.004132367
-0.00019825
-0.004023358
-0.0001981709
-0.00390686
-0.0002141248
-0.003784851
-0.0002266659
-0.003656002
-0.0002397199
-0.00351911
-0.0002578818
-0.003358308
-0.0003205463
-0.003182692
-0.0003626549
-0.003000079
-0.0003787049
-0.002786603
-0.000446224
-0.00251532
-0.0005796003
-0.002116935
-0.0009112668
-0.001473404
-0.001420862
-0.0004508953
-0.002425848
0.0007717383
-0.003058473
0.001467576
-0.001520656
0.001901708
-0.001036929
0.002233674
-0.0007382731
0.002489625
-0.000550357
0.002714648
-0.0004776147
0.002909143
-0.0003963963
0.003070426
-0.0003095732
0.003212745
-0.0002690437
0.003357021
-0.0002815268
0.00349252
-0.0002623508
0.003621631
-0.0002444268
0.003739038
-0.0002150114
0.003851878
-0.0002045376
0.003958253
-0.0001920008
0.004064515
-0.000194579
0.004166616
-0.0001848817
0.004263411
-0.000170903
0.004356816
-0.0001653788
0.004450579
-0.0001701665
0.004541156
-0.0001634798
0.004628418
-0.0001577224
0.004717526
-0.0001651365
0.004801104
-0.0001532532
0.004887071
-0.0001637149
0.004973943
-0.0001696793
0.005058425
-0.000159683
0.005138411
-0.0001478482
0.005220024
-0.0001530813
0.005300253
-0.0001546372
0.005385528
-0.0001500629
0.005360706
9.504396e-05
0.005454147
-0.0001842727
0.005548503
-0.0001957611
0.005641197
-0.0001948902
0.005733365
-0.0001948794
0.005826146
-0.0001992222
0.00591856
-0.0001963757
0.00600718
-0.000186427
0.006098345
-0.0001946945
0.006189198
-0.0002001514
0.006284898
-0.0002129059
0.006375266
-0.0001975491
0.006466547
-0.0001975896
0.006557713
-0.0002011542
0.006651752
-0.0002104257
0.006745253
-0.0002116703
0.006842817
-0.0002253236
0.006942125
-0.0002312479
0.007041611
-0.0002325615
0.007144592
-0.0002407966
0.007243491
-0.0002310084
0.00735139
-0.0002582585
0.007458773
-0.0002616632
0.007570932
-0.0002736908
0.007685211
-0.000283845
0.007803332
-0.0002942365
0.007926204
-0.0003124823
0.008057007
-0.0003362029
0.008189087
-0.0003414974
0.008329221
-0.0003659763
0.008481459
-0.0004038091
0.008648369
-0.0004554737
0.009036138
-0.0009819323
0.009259682
-0.000623352
0.009522851
-0.0007213201
0.009814099
-0.0007968486
0.0101994
-0.001047253
0.01058071
-0.0009880452
0.01147922
-0.002579538
0.001740534
0.0008011901
0.0005291366
-0.0043888
0.001666727
-0.002386193
0.00218865
-0.001558852
0.002588569
-0.001138192
0.002903693
-0.0008654807
0.003180689
-0.0007546116
0.003420409
-0.0006361162
0.003621907
-0.0005110709
0.003800029
-0.0004471659
0.003979463
-0.0004609602
0.004147661
-0.0004305492
0.004308555
-0.000405321
0.004455734
-0.0003621899
0.004596959
-0.0003457631
0.004730396
-0.0003254381
0.004862925
-0.000327108
0.004990903
-0.0003128591
0.005111927
-0.000291927
0.005229158
-0.0002826105
0.005346255
-0.0002872635
0.005459528
-0.0002767528
0.005568665
-0.0002668588
0.005680098
-0.0002765698
0.005784435
-0.0002575899
0.005891664
-0.0002709441
0.006000042
-0.0002780575
0.006105052
-0.0002646932
0.006205519
-0.0002483156
0.006307409
-0.0002549708
0.006407598
-0.0002548261
0.006515372
-0.0002578368
0.006492317
0.0001180984
0.006606413
-0.0002983686
0.00672369
-0.0003130374
0.006837537
-0.0003087376
0.006950811
-0.0003081538
0.007064917
-0.0003133279
0.00717827
-0.0003097285
0.007287271
-0.0002954286
0.007399057
-0.0003064798
0.00751043
-0.0003115251
0.007627394
-0.0003298695
0.007738005
-0.0003081603
0.007849686
-0.0003092707
0.007961376
-0.0003128433
0.008076024
-0.0003250744
0.008189945
-0.0003255906
0.008308695
-0.000344074
0.008429145
-0.0003516984
0.008549824
-0.0003532396
0.008674715
-0.0003656879
0.008794099
-0.0003503922
0.008924791
-0.0003889505
0.009053841
-0.0003907139
0.009188324
-0.0004081737
0.009325592
-0.0004211129
0.009466188
-0.0004348322
0.00961311
-0.0004594044
0.00976842
-0.0004915126
0.009924919
-0.0004979967
0.01009079
-0.000531845
0.01027091
-0.0005839344
0.01068624
-0.0008707971
0.01092851
-0.001224203
0.01118976
-0.0008846047
0.01150094
-0.001032502
0.01185566
-0.001151565
0.01231252
-0.001504116
0.01284564
-0.001521165
0.01367984
-0.003413733
0.01334198
0.002078391
-0.01504096
0.01471595
0.002202329
-0.01402304
-0.004107128
-0.01337937
-0.001819595
-0.01284498
-0.001753104
-0.01243503
-0.001317767
-0.0120673
-0.00120386
-0.01176301
-0.001017016
-0.01148179
-0.001379662
-0.01101945
-0.0009765743
-0.01081552
-0.0006594929
-0.01062242
-0.000619487
-0.01044456
-0.0005668781
-0.01026982
-0.0005540696
-0.01010325
-0.0005272475
-0.009939867
-0.0005133897
-0.009787531
-0.0004735872
-0.009638707
-0.000457337
-0.009496006
-0.0004373539
-0.009352582
-0.0004371855
-0.009216208
-0.0004133876
-0.009080814
-0.000407763
-0.008949571
-0.0003910865
-0.008823602
-0.0003713494
-0.008697172
-0.0003725952
-0.008572542
-0.0003682663
-0.008447589
-0.0003691894
-0.00832691
-0.0003533284
-0.008207765