/*--------------------------------*- C++ -*----------------------------------*\
| =========                 |                                                 |
| \\      /  F ield         | OpenFOAM: The Open Source CFD Toolbox           |
|  \\    /   O peration     | Version:  2406                                  |
|   \\  /    A nd           | Website:  www.openfoam.com                      |
|    \\/     M anipulation  |                                                 |
\*---------------------------------------------------------------------------*/
FoamFile
{
    version     2.0;
    format      ascii;
    arch        "LSB;label=32;scalar=64";
    class       volScalarField;
    location    "2.46";
    object      p;
}
// * * * * * * * * * * * * * * * * * * * * * * * * * * * * * * * * * * * * * //

dimensions      [0 2 -2 0 0 0 0];

internalField   nonuniform List<scalar> 
217010
(
-137.1592
-76.59467
-83.69283
-85.83098
-82.64595
-77.41374
-78.40046
-78.64414
-78.39458
-78.91155
-79.89851
-80.07868
-79.36057
-78.01594
-76.60568
-79.04792
-82.98777
-87.93345
-93.23904
-97.28929
-97.71865
-95.00408
-93.57732
-92.55221
-92.37206
-98.97648
-101.7026
-101.6776
-105.7291
-112.1122
-118.6023
-125.4003
-131.7489
-136.6846
-132.6154
-122.6729
-118.9792
-117.9708
-114.0772
-109.6953
-105.1095
-99.09709
-91.0604
-82.56328
-77.25101
-77.88004
-82.45295
-84.16734
-76.47417
-81.26974
-23.56479
-30.28008
-33.59676
-38.93724
-43.24889
-46.14165
-47.97469
-49.09024
-49.79016
-50.19812
-50.2763
-50.77823
-52.35158
-54.29187
-56.07151
-57.1919
-57.16297
-55.27826
-51.45273
-46.30661
-42.37373
-40.89069
-40.39849
-41.09212
-42.4984
-43.8293
-45.33437
-47.20461
-50.10427
-55.334
-62.30642
-66.3551
-62.17
-52.62019
-51.03258
-54.32898
-56.58837
-57.77167
-58.85212
-61.9872
-68.7849
-73.23085
-69.78699
-65.21823
-66.11066
-67.62806
-68.1025
-68.40436
-68.88684
-69.39914
-69.88314
-70.30472
-70.64923
-70.93053
-71.12705
-71.30632
-71.46715
-71.62955
-71.82865
-72.09352
-72.48467
-73.04493
-73.88467
-74.95163
-76.27628
-78.04082
-80.35406
-83.05175
-86.37485
-90.11616
-93.94097
-98.59048
-103.6001
-108.8833
-114.327
-119.6982
-124.8939
-129.91
-134.4687
-138.5903
-142.3025
-145.4078
-148.0602
-150.332
-152.1543
-153.5067
-154.3615
-154.6946
-154.5363
-153.9656
-152.9713
-151.4534
-149.4313
-147.0634
-144.5395
-142.3571
-140.8604
-139.2501
-131.8821
-175.9293
-85.81296
-89.56036
-79.60672
-74.17565
-68.52177
-63.75966
-59.55827
-56.18975
-53.74054
-52.68392
-53.3239
-55.94798
-60.97239
-71.21998
-84.18867
-95.99159
-111.9412
-127.6448
-140.3462
-152.1843
-165.8169
-181.6033
-197.7986
-209.9131
-213.5541
-206.9623
-190.5054
-166.8712
-152.7748
-150.6488
-144.4679
-149.8398
-165.6029
-162.7221
-157.1255
-146.0846
-127.9203
-120.7946
-126.0014
-136.0868
-139.0027
-136.2473
-133.8247
-132.7477
-131.0938
-133.8981
-134.6598
-135.5239
-129.3701
-200.1895
-104.6931
-91.56715
-76.65183
-67.87387
-60.41513
-54.26671
-48.97651
-44.20929
-40.0555
-36.30151
-32.89332
-29.78046
-26.85276
-24.08835
-21.50068
-19.10628
-16.86947
-14.72177
-12.66784
-10.70468
-8.829059
-7.051442
-5.367881
-3.715269
-2.100134
-0.5207837
0.9937913
2.423362
3.804454
5.165603
6.509835
7.826645
9.082517
10.30398
11.51547
12.70383
13.87939
15.03932
16.20248
17.3212
18.45298
19.53764
20.61312
21.67368
22.7297
23.7666
24.78489
25.80662
26.84683
27.8852
28.90007
29.89778
30.89345
31.9184
32.95767
33.98401
35.0151
36.05753
37.10559
38.17036
39.23641
40.29744
41.40815
42.62496
43.87453
45.08787
46.30792
47.64473
49.23413
50.99048
53.07496
55.62569
53.79299
52.50086
51.51227
50.62104
49.73422
48.82011
47.94842
47.17304
46.43842
45.65599
44.85176
44.07168
43.33101
42.60551
41.87604
41.13499
40.39439
39.67593
38.96273
38.23264
37.50069
36.77789
36.04037
35.3078
34.55611
33.77304
33.00219
32.24944
31.49018
30.70558
29.87474
29.07975
28.2434
27.38555
26.52595
25.65941
24.75441
23.8314
22.90595
21.95604
20.95341
19.90154
18.84372
17.78866
16.69162
15.5365
14.34017
13.08647
11.77946
10.43077
9.025627
7.595535
6.064837
4.428896
2.727957
0.9118273
-0.9972103
-3.059064
-5.292905
-7.671454
-10.22984
-13.08707
-16.25558
-19.86906
-23.85654
-28.45242
-34.09906
-40.47576
-51.56098
-58.8538
55.5586
54.02361
52.65901
51.63307
50.73171
49.84044
48.92116
48.03939
47.25365
46.51459
45.73114
44.92398
44.13847
43.39261
42.66366
41.93178
41.18838
40.44462
39.72314
39.00759
38.27552
37.5414
36.81654
36.07693
35.34271
34.58972
33.80517
33.0322
32.27706
31.51639
30.73083
29.89776
29.10262
28.26403
27.40448
26.5435
25.67573
24.76922
23.84498
22.91821
21.96711
20.96282
19.90926
18.85004
17.79383
16.695
15.53831
14.34061
13.08493
11.77561
10.42446
9.01669
7.584942
6.049896
4.410114
2.705673
0.8841565
-1.02913
-3.098357
-5.339957
-7.725573
-10.29323
-13.16213
-16.34318
-19.98505
-23.99438
-28.62559
-34.31152
-40.823
-51.85681
-60.74093
-106.9774
-92.0273
-77.12069
-68.16121
-60.64755
-54.45004
-49.12949
-44.32408
-40.15394
-36.38644
-32.96422
-29.8415
-26.90528
-24.13246
-21.5366
-19.13519
-16.89395
-14.74173
-12.68329
-10.71615
-8.837018
-7.05566
-5.36991
-3.715265
-2.097918
-0.5163266
1.000842
2.432232
3.815131
5.178212
6.524472
7.843296
9.101102
10.32417
11.53771
12.72791
13.90562
15.06794
16.23402
17.35377
18.48802
19.57465
20.65251
21.71547
22.77363
23.8128
24.83369
25.85867
26.90198
27.94296
28.96002
29.96074
30.96057
31.98982
33.03301
34.06305
35.09857
36.1457
37.19902
38.2686
39.33945
40.40851
41.53169
42.75978
44.01562
45.23509
46.47074
47.83576
49.46095
51.28757
53.21983
-89.87704
-89.9057
-80.5511
-74.80883
-69.08367
-64.21078
-59.90909
-56.44024
-53.879
-52.70279
-53.23726
-55.72493
-60.57813
-70.60526
-83.51583
-95.33687
-111.2214
-126.9908
-139.813
-151.7041
-165.3307
-181.1276
-197.3964
-209.7107
-213.6302
-207.3196
-191.1093
-167.3205
-152.9096
-150.755
-144.5852
-149.9549
-165.7025
-162.897
-157.3166
-146.2054
-127.9689
-120.8761
-126.1274
-136.2536
-139.0538
-136.2115
-133.7808
-132.7047
-131.1065
-133.9771
-134.7039
-135.5523
-131.2095
-186.5753
-25.19433
-29.86989
-33.09201
-38.3346
-42.77328
-45.8407
-47.81677
-49.00509
-49.75465
-50.18085
-50.25527
-50.69566
-52.19137
-54.1306
-55.94704
-57.13941
-57.21403
-55.45493
-51.73138
-46.61172
-42.56676
-40.97913
-40.40117
-41.04844
-42.43682
-43.76588
-45.26375
-47.11502
-49.96569
-55.14702
-62.14811
-66.39019
-62.34876
-52.7883
-51.01259
-54.27687
-56.55358
-57.7525
-58.81872
-61.92111
-68.74812
-73.25434
-69.8333
-65.22917
-66.08665
-67.61789
-68.10235
-68.40619
-68.89027
-69.40329
-69.88705
-70.3083
-70.65191
-70.93338
-71.12923
-71.30836
-71.46953
-71.63195
-71.83156
-72.09719
-72.49129
-73.05514
-73.90083
-74.97517
-76.30915
-78.08614
-80.41891
-83.13432
-86.48086
-90.24169
-94.08649
-98.77192
-103.8067
-109.1156
-114.5806
-119.9643
-125.1678
-130.1871
-134.735
-138.8478
-142.542
-145.6214
-148.2559
-150.509
-152.3051
-153.6205
-154.4245
-154.7151
-154.5225
-153.9168
-152.8741
-151.2942
-149.2083
-146.7907
-144.2536
-142.1296
-140.5683
-138.8507
-134.3751
-165.9027
-126.1937
-78.19567
-83.75125
-85.90433
-82.83888
-77.48626
-78.39329
-78.64634
-78.39273
-78.90325
-79.89669
-80.09032
-79.38837
-78.04372
-76.625
-79.07194
-83.01
-87.95728
-93.27739
-97.35927
-97.78137
-95.03356
-93.56611
-92.58398
-92.48227
-99.12592
-101.7549
-101.7363
-105.8749
-112.3261
-118.8318
-125.6488
-132.0123
-136.8151
-132.3629
-122.3091
-118.8184
-117.8079
-113.7509
-109.2973
-104.6476
-98.45403
-90.31384
-82.01006
-77.13013
-78.17511
-82.90939
-84.01371
-76.33025
-73.57914
-114.2438
-78.79137
-83.80826
-85.8194
-83.0374
-77.56451
-78.39589
-78.64965
-78.38868
-78.89501
-79.90732
-80.1253
-79.46531
-78.10532
-76.68635
-79.14633
-83.0732
-88.01412
-93.34597
-97.44845
-97.92534
-95.19994
-93.50641
-92.50589
-92.60862
-99.33202
-101.8199
-101.8584
-106.0525
-112.4643
-118.9929
-125.8419
-132.2088
-136.8412
-132.2462
-122.2328
-118.8777
-117.8279
-113.7477
-109.2651
-104.5605
-98.42217
-90.08241
-81.76302
-77.12064
-78.49593
-83.13281
-83.74023
-75.87094
-70.016
-26.3487
-29.71111
-32.89429
-38.1437
-42.66202
-45.80049
-47.83609
-49.02512
-49.74668
-50.12566
-50.20918
-50.64189
-52.163
-54.09169
-55.94825
-57.17801
-57.30716
-55.63303
-52.00237
-46.85025
-42.67249
-41.01768
-40.42177
-41.02716
-42.407
-43.73779
-45.23201
-47.06658
-49.87832
-55.04183
-62.13218
-66.55439
-62.62991
-52.95515
-50.9504
-54.23115
-56.5466
-57.76223
-58.83243
-61.91697
-68.74168
-73.32163
-69.90426
-65.28262
-66.06922
-67.5883
-68.11068
-68.43784
-68.92006
-69.42476
-69.90139
-70.31887
-70.65884
-70.94031
-71.13537
-71.31274
-71.47484
-71.63733
-71.83762
-72.10297
-72.49999
-73.06492
-73.91529
-74.99575
-76.33532
-78.11821
-80.4634
-83.1893
-86.5477
-90.32147
-94.18135
-98.87798
-103.9168
-109.2287
-114.695
-120.0761
-125.2726
-130.2823
-134.8139
-138.9056
-142.5829
-145.6553
-148.2773
-150.5136
-152.2958
-153.6033
-154.4241
-154.7015
-154.4926
-153.8688
-152.8008
-151.2002
-149.1034
-146.6892
-144.1851
-142.0527
-140.4726
-138.5412
-135.3903
-155.9139
-91.26835
-90.27042
-80.95099
-75.11143
-69.35517
-64.45756
-60.12429
-56.62351
-54.01501
-52.75821
-53.21079
-55.60714
-60.34992
-70.27181
-83.23915
-94.96164
-110.9673
-126.8092
-139.6677
-151.5178
-165.1294
-180.9665
-197.4129
-209.9054
-214.0126
-207.9538
-192.4662
-168.7466
-153.3916
-151.0004
-144.8715
-150.0081
-165.6996
-163.5236
-157.9069
-146.562
-128.1705
-121.1041
-126.349
-136.4494
-139.1455
-136.1922
-133.7605
-132.6837
-131.1048
-133.9846
-134.6824
-135.6253
-131.886
-172.1914
-106.7961
-92.32947
-77.33945
-68.30883
-60.75902
-54.53522
-49.19331
-44.39202
-40.19366
-36.42284
-32.99376
-29.86748
-26.92909
-24.15228
-21.55282
-19.14729
-16.90634
-14.75217
-12.6919
-10.72287
-8.842702
-7.058535
-5.373197
-3.717421
-2.098628
-0.5157049
1.00391
2.435213
3.817881
5.181466
6.528505
7.84925
9.107631
10.3295
11.54417
12.73458
13.91432
15.07737
16.24119
17.36379
18.49534
19.58375
20.66273
21.72547
22.78452
23.8242
24.84469
25.86917
26.91426
27.95737
28.97417
29.97481
30.97337
32.00401
33.05028
34.08026
35.11544
36.16499
37.21843
38.2891
39.36133
40.43116
41.55418
42.78995
44.05066
45.26636
46.50378
47.87266
49.52226
51.39281
53.26443
55.4439
54.12601
52.71266
51.66032
50.7572
49.86844
48.94408
48.05641
47.27097
46.53513
45.74958
44.94048
44.15234
43.4061
42.67698
41.94549
41.20067
40.45508
39.73426
39.01898
38.28549
37.55113
36.82675
36.08542
35.35333
34.5995
33.81194
33.03889
32.28435
31.52386
30.73538
29.9056
29.10844
28.27209
27.41042
26.549
25.68132
24.7728
23.84843
22.92227
21.97163
20.96574
19.91037
18.85087
17.79567
16.69562
15.53826
14.3402
13.08262
11.77205
10.41959
9.010571
7.580214
6.04197
4.400431
2.696082
0.8706823
-1.042102
-3.116186
-5.360805
-7.748204
-10.31899
-13.19272
-16.39625
-20.03113
-24.05705
-28.70589
-34.41984
-40.97955
-52.06065
-60.75072
55.26977
54.25216
52.86647
51.78293
50.8705
49.98198
49.05291
48.15861
47.36566
46.62413
45.83482
45.02345
44.23119
43.47996
42.74685
42.01179
41.26416
40.51495
39.79196
39.07307
38.33634
37.6
36.87353
36.12893
35.39649
34.63985
33.84855
33.07544
32.31872
31.55674
30.76535
29.94059
29.13212
28.29844
27.43319
26.57077
25.70246
24.79023
23.86528
22.93851
21.98718
20.97777
19.91955
18.85922
17.80464
16.7015
15.54258
14.34353
13.08246
11.76994
10.41525
9.003205
7.574466
6.02902
4.383444
2.678195
0.8444964
-1.06882
-3.153286
-5.405476
-7.798198
-10.37689
-13.26812
-16.48125
-20.12959
-24.18423
-28.86735
-34.61229
-41.29152
-52.2358
-60.9917
-107.025
-92.60265
-77.74983
-68.564
-60.97858
-54.70401
-49.32734
-44.50124
-40.29092
-36.50337
-33.05906
-29.92462
-26.97881
-24.19275
-21.58523
-19.1706
-16.92787
-14.76857
-12.70382
-10.73058
-8.847876
-7.058203
-5.373535
-3.715396
-2.093642
-0.5082693
1.016359
2.448999
3.832625
5.197425
6.546338
7.87096
9.132393
10.3538
11.57141
12.76319
13.9472
15.11303
16.27431
17.41236
18.5385
19.62901
20.71106
21.77686
22.83801
23.88139
24.90494
25.93308
26.98122
28.02807
29.04779
30.05268
31.05591
32.08995
33.14189
34.17622
35.21667
36.27111
37.33046
38.40581
39.48472
40.5648
41.69866
42.94276
44.21102
45.43451
46.68796
48.07848
49.74895
51.60084
53.29842
-93.61924
-91.1023
-81.9145
-75.79133
-69.94705
-64.94388
-60.50806
-56.91988
-54.21485
-52.84479
-53.18739
-55.46567
-60.04464
-69.7676
-82.65625
-94.32902
-110.4278
-126.227
-139.1268
-151.0195
-164.6594
-180.5662
-197.2015
-209.9017
-214.1299
-208.6659
-194.264
-171.397
-154.6771
-151.3789
-145.0732
-149.4982
-165.2355
-164.545
-158.8081
-147.1304
-128.5978
-121.5542
-126.8007
-136.8868
-139.3489
-136.1921
-133.7244
-132.6246
-131.0854
-134.0466
-134.6309
-135.5782
-133.6407
-162.2406
-27.84198
-29.56361
-32.5394
-37.61882
-42.19144
-45.47133
-47.64372
-49.01686
-49.73697
-50.06123
-50.1384
-50.53556
-51.98603
-53.90073
-55.77434
-57.12265
-57.37914
-55.86635
-52.38342
-47.24811
-42.91468
-41.11903
-40.4326
-40.97987
-42.34016
-43.67046
-45.16609
-46.99177
-49.76233
-54.90306
-62.08744
-66.74116
-62.9879
-53.22325
-50.95976
-54.16456
-56.51888
-57.79933
-58.91688
-61.96406
-68.64234
-73.21424
-69.98314
-65.54635
-66.18313
-67.57859
-68.13022
-68.48561
-68.96111
-69.45206
-69.91853
-70.33157
-70.6655
-70.94771
-71.13974
-71.31688
-71.48033
-71.64291
-71.84511
-72.11008
-72.51247
-73.07868
-73.93701
-75.0285
-76.37736
-78.16905
-80.53951
-83.28042
-86.66103
-90.46032
-94.34368
-99.07365
-104.1357
-109.4733
-114.969
-120.3663
-125.5716
-130.5927
-135.1206
-139.2166
-142.889
-145.9282
-148.538
-150.7715
-152.5441
-153.7936
-154.5255
-154.751
-154.4981
-153.8356
-152.7277
-151.0805
-148.9429
-146.4997
-143.9961
-141.8315
-140.0263
-138.0392
-136.5283
-149.2441
-105.6368
-80.41626
-83.59139
-85.58229
-83.28012
-77.72211
-78.39821
-78.65354
-78.38348
-78.87712
-79.87829
-80.19142
-79.60465
-78.22282
-76.81171
-79.29431
-83.19685
-88.11767
-93.4661
-97.61051
-98.13711
-95.45556
-93.33405
-92.19414
-92.70853
-99.63261
-101.9361
-102.1073
-106.3678
-112.7252
-119.2432
-126.1338
-132.5407
-137.1583
-132.2524
-122.2862
-118.7921
-117.7192
-113.4289
-108.9689
-104.2366
-97.74445
-89.54416
-81.45876
-77.19845
-78.95843
-83.52827
-83.44711
-75.20186
-66.91974
-99.7254
-81.926
-83.12327
-85.03098
-83.63649
-77.95421
-78.39739
-78.65191
-78.37643
-78.84488
-79.81486
-80.29751
-79.81166
-78.40843
-77.01164
-79.55687
-83.41386
-88.29682
-93.66456
-97.86691
-98.40847
-95.72531
-93.03125
-91.69711
-92.71802
-99.8722
-102.0362
-102.5715
-106.8567
-113.0506
-119.5751
-126.5275
-133.0263
-137.543
-132.3747
-122.3918
-118.7564
-117.7492
-113.3133
-108.8611
-104.099
-97.55698
-89.17926
-81.27249
-77.43473
-79.59277
-83.96858
-82.87989
-74.03388
-62.89988
-29.39601
-29.53998
-32.23167
-37.19249
-41.87169
-45.29125
-47.58235
-48.99942
-49.72938
-50.01094
-50.05241
-50.40014
-51.88838
-53.78433
-55.76467
-57.15732
-57.61168
-56.2108
-52.94138
-47.89658
-43.31108
-41.25649
-40.42773
-40.91158
-42.26286
-43.60545
-45.10749
-46.93233
-49.65961
-54.77378
-62.0606
-67.00877
-63.42495
-53.70529
-51.14423
-54.21993
-56.56682
-57.90846
-59.11079
-62.06687
-68.32461
-72.57448
-69.87028
-66.00131
-66.42573
-67.59497
-68.15661
-68.53568
-69.00743
-69.48541
-69.94174
-70.35182
-70.67794
-70.96397
-71.15075
-71.32723
-71.49297
-71.65471
-71.85944
-72.12215
-72.53224
-73.09818
-73.96709
-75.07207
-76.43009
-78.2293
-80.63376
-83.38665
-86.79523
-90.62692
-94.52702
-99.29313
-104.3736
-109.7362
-115.2459
-120.6502
-125.851
-130.8679
-135.3615
-139.4165
-143.0539
-146.067
-148.6459
-150.8172
-152.5162
-153.7843
-154.5366
-154.7359
-154.4544
-153.7669
-152.6219
-150.9183
-148.7294
-146.2556
-143.7439
-141.5253
-139.6023
-137.619
-137.3469
-144.3996
-96.20272
-91.84163
-82.85207
-76.49509
-70.56318
-65.49083
-60.96681
-57.29968
-54.49554
-52.99727
-53.21704
-55.38534
-59.74226
-69.24755
-82.13913
-93.67485
-109.9585
-125.8011
-138.7336
-150.5963
-164.2729
-180.2741
-197.2198
-210.2711
-214.9593
-209.7523
-196.5477
-175.0809
-157.2651
-151.833
-145.0453
-148.144
-164.1859
-165.7451
-159.9717
-148.0385
-129.4304
-122.3784
-127.5712
-137.6468
-139.7182
-136.2026
-133.6647
-132.5276
-131.0284
-134.1176
-134.5265
-135.423
-135.4117
-155.2981
-107.123
-92.73415
-78.1016
-68.79265
-61.18244
-54.86054
-49.4565
-44.61174
-40.36969
-36.57642
-33.11829
-29.97798
-27.02819
-24.23431
-21.61813
-19.19192
-16.95158
-14.78888
-12.72041
-10.74282
-8.857864
-7.060642
-5.379439
-3.719365
-2.095405
-0.5086278
1.022743
2.455152
3.836944
5.202723
6.55375
7.883371
9.146413
10.3645
11.5856
12.77762
13.96569
15.13138
16.28868
17.42525
18.55817
19.6498
20.73382
21.79921
22.86193
23.90737
24.93105
25.95835
27.0092
28.06048
29.08017
30.08612
31.08851
32.12576
33.18474
34.21909
35.25949
36.32011
37.3818
38.46035
39.5429
40.62734
41.7647
43.0271
44.30687
45.5238
46.78613
48.19904
49.90992
51.75259
53.28853
55.02375
54.32129
52.98807
51.8676
50.93844
50.05514
49.1178
48.20993
47.41276
46.67547
45.8817
45.06658
44.26725
43.51373
42.7795
42.04463
41.29391
40.54025
39.81856
39.09978
38.35999
37.62281
36.89713
36.14783
35.41986
34.66124
33.86393
33.09087
32.33359
31.57247
30.77844
29.95063
29.14286
28.31292
27.44367
26.58098
25.71305
24.79656
23.87263
22.94726
21.99642
20.98237
19.92043
18.86105
17.8092
16.702
15.54214
14.34337
13.07766
11.76318
10.4065
8.991669
7.568667
6.012742
4.362939
2.658777
0.8156473
-1.093209
-3.190834
-5.449653
-7.843941
-10.42664
-13.33272
-16.5688
-20.22291
-24.30196
-29.01617
-34.79039
-41.5615
-52.29986
-61.17122
54.68895
54.31838
53.11563
51.99165
51.04523
50.16864
49.22757
48.31503
47.51733
46.78119
45.97959
45.16472
44.35969
43.60117
42.86219
42.12647
41.37194
40.61052
39.88773
39.16556
38.42052
37.68169
36.95587
36.19894
35.47595
34.71407
33.90853
33.13691
32.37743
31.61539
30.81465
30.00004
29.17953
28.34873
27.47478
26.61228
25.74236
24.81581
23.89147
22.96805
22.02103
21.00018
19.92872
18.86898
17.82415
16.71038
15.54799
14.35141
13.07913
11.7606
10.39808
8.977622
7.568657
5.998727
4.344308
2.638822
0.7802138
-1.117157
-3.235685
-5.504396
-7.903618
-10.48598
-13.41155
-16.67539
-20.33688
-24.44201
-29.19306
-34.98862
-41.83718
-52.29137
-61.36788
-107.216
-92.73935
-78.44513
-69.02735
-61.42723
-55.05183
-49.61333
-44.74238
-40.46687
-36.67311
-33.19171
-30.04178
-27.09058
-24.28284
-21.65093
-19.21017
-16.98114
-14.81347
-12.73756
-10.75103
-8.862451
-7.055377
-5.380988
-3.717216
-2.090383
-0.4981294
1.045508
2.474075
3.854775
5.226811
6.58073
7.913837
9.179315
10.39372
11.62131
12.81283
14.00657
15.17293
16.33525
17.4956
18.61569
19.70669
20.79507
21.86371
22.93123
23.98135
25.00465
26.03507
27.09438
28.1552
29.17457
30.1839
31.18834
32.22956
33.2999
34.33615
35.38233
36.45246
37.51597
38.59733
39.68844
40.78478
41.92639
43.19965
44.48853
45.69863
46.97713
48.40668
50.10622
51.87376
53.2262
-98.94417
-93.19363
-84.05128
-77.40351
-71.33555
-66.20279
-61.55972
-57.79793
-54.89023
-53.24499
-53.32147
-55.41238
-59.48882
-68.73478
-81.57514
-92.99017
-109.4659
-125.3557
-138.2914
-150.0492
-163.7886
-179.9655
-197.3395
-210.8123
-215.7763
-211.1037
-199.2745
-179.5733
-161.2741
-152.6484
-144.9145
-146.3054
-163.1475
-167.1294
-161.4004
-149.3427
-130.749
-123.707
-128.6628
-138.8704
-140.3386
-136.2131
-133.5606
-132.3717
-130.9156
-134.2667
-134.4433
-135.0227
-136.3108
-148.3901
-31.09342
-29.70144
-31.97055
-36.72733
-41.43594
-45.00278
-47.40114
-48.89789
-49.70599
-49.96693
-49.97281
-50.2337
-51.7527
-53.57326
-55.56737
-57.17285
-57.72316
-56.6667
-53.72918
-48.83178
-43.90916
-41.44744
-40.36601
-40.80109
-42.15717
-43.5218
-45.04257
-46.8921
-49.5806
-54.63439
-62.01088
-67.21268
-63.92089
-54.43672
-51.63399
-54.42769
-56.66504
-58.04352
-59.37188
-62.2073
-67.83548
-71.4359
-69.45326
-66.42458
-66.68539
-67.62822
-68.19631
-68.58948
-69.05934
-69.52352
-69.96801
-70.36888
-70.68878
-70.98365
-71.16348
-71.33911
-71.50936
-71.6695
-71.88
-72.13871
-72.56189
-73.12612
-74.00878
-75.12862
-76.49932
-78.30739
-80.75633
-83.51849
-86.96827
-90.84415
-94.75169
-99.56965
-104.6763
-110.0831
-115.6138
-121.0162
-126.2189
-131.2678
-135.7334
-139.7797
-143.4182
-146.392
-148.9549
-151.1475
-152.9089
-154.0583
-154.6907
-154.8221
-154.4818
-153.7436
-152.5373
-150.7551
-148.5019
-145.9839
-143.4411
-141.1544
-139.1426
-137.2888
-137.9217
-139.7608
-94.21194
-82.64385
-82.46065
-84.73403
-84.2788
-78.31654
-78.36324
-78.6426
-78.3646
-78.78787
-79.73028
-80.47058
-80.08694
-78.65494
-77.30716
-79.98505
-83.75359
-88.59477
-93.975
-98.26262
-98.75476
-96.01014
-92.65221
-91.12403
-92.57281
-99.87876
-102.1489
-103.2999
-107.5334
-113.4906
-120.0233
-127.0552
-133.6941
-138.1586
-132.6076
-122.5019
-118.5596
-117.434
-113.3149
-109.0423
-104.0834
-97.3462
-88.92006
-81.28727
-77.93717
-80.43789
-84.25815
-81.86732
-71.91803
-58.27335
-88.46507
-82.38736
-81.85296
-84.37252
-84.78166
-78.96519
-78.17956
-78.61743
-78.33501
-78.68882
-79.63509
-80.72615
-80.43203
-79.02538
-77.84711
-80.58675
-84.21585
-89.00709
-94.40604
-98.83645
-99.22954
-96.32747
-92.22053
-90.63881
-92.28847
-99.69568
-102.3482
-104.3322
-108.4242
-114.2089
-120.6829
-127.7726
-134.5625
-138.9817
-132.9347
-122.6058
-118.3437
-117.2403
-113.5342
-109.7058
-104.4596
-97.35122
-88.80455
-81.54498
-78.59786
-81.04211
-83.63085
-79.33488
-68.29871
-53.51979
-33.04889
-30.25378
-31.86548
-36.27902
-40.9136
-44.65042
-47.25467
-48.87428
-49.6823
-49.92171
-49.89765
-50.00443
-51.61154
-53.34158
-55.4177
-57.20064
-58.19134
-57.33864
-54.84876
-50.14664
-44.80612
-41.73547
-40.24337
-40.64367
-42.02236
-43.42441
-44.96679
-46.87236
-49.49501
-54.36993
-61.7747
-67.2715
-64.3368
-55.38854
-52.44773
-54.7946
-56.82312
-58.19657
-59.65592
-62.37034
-67.32713
-70.40632
-68.98442
-66.75253
-66.92536
-67.67985
-68.26068
-68.65852
-69.12923
-69.57952
-70.00954
-70.41578
-70.71028
-71.0191
-71.18625
-71.35822
-71.53758
-71.69432
-71.91638
-72.16516
-72.60916
-73.16667
-74.06193
-75.21298
-76.62153
-78.42181
-80.91187
-83.7223
-87.19835
-91.12664
-95.14774
-99.98201
-105.0739
-110.4855
-116.1059
-121.5115
-126.6917
-131.7504
-136.1859
-140.1608
-143.7732
-146.6996
-149.2218
-151.3097
-152.9393
-154.1055
-154.7448
-154.8306
-154.4459
-153.6769
-152.414
-150.5481
-148.2343
-145.6639
-143.0661
-140.7086
-138.6251
-137.1988
-138.0163
-135.6525
-101.6793
-94.7049
-85.4865
-78.53277
-72.35094
-67.19606
-62.33511
-58.49809
-55.47497
-53.65089
-53.49729
-55.55605
-59.46743
-68.34614
-80.67584
-92.34987
-108.9875
-124.7578
-137.8151
-149.3976
-163.0147
-179.6463
-197.771
-211.7355
-217.115
-213.0038
-202.7676
-184.8227
-166.4779
-154.7726
-145.0866
-144.5589
-162.6257
-168.6884
-162.8766
-150.5834
-132.0898
-125.4037
-130.2735
-140.6303
-141.267
-136.1945
-133.3749
-132.1565
-130.8575
-134.3954
-134.4116
-134.501
-135.9341
-140.9355
-107.0638
-92.52041
-78.72683
-69.23254
-61.71313
-55.24874
-49.75494
-44.87226
-40.58485
-36.78518
-33.25305
-30.11032
-27.16642
-24.32784
-21.68341
-19.24376
-17.03162
-14.83885
-12.75143
-10.75204
-8.869252
-7.058442
-5.387491
-3.722049
-2.092033
-0.4839572
1.058179
2.478171
3.868038
5.241691
6.582343
7.91787
9.202197
10.40922
11.64344
12.8317
14.03495
15.20543
16.37041
17.51213
18.63877
19.73434
20.83304
21.90328
22.97006
24.01778
25.04668
26.08531
27.1437
28.2012
29.21732
30.23728
31.2433
32.28823
33.36903
34.40903
35.45766
36.52774
37.5935
38.6893
39.7903
40.89873
42.03381
43.32469
44.6405
45.85101
47.16685
48.60729
50.2792
51.95576
53.09041
54.25251
54.19778
53.20597
52.12164
51.15939
50.28154
49.31838
48.39303
47.59591
46.86558
46.04206
45.22478
44.41559
43.66111
42.91393
42.17506
41.41962
40.6561
39.93895
39.21113
38.4584
37.71989
36.9946
36.22664
35.51432
34.73982
33.92721
33.15949
32.40167
31.64567
30.83332
29.99829
29.19642
28.36037
27.482
26.6314
25.76776
24.82946
23.90384
22.97417
22.03318
21.01527
19.93552
18.86392
17.82966
16.71446
15.54413
14.35001
13.0773
11.75969
10.38904
8.946944
7.556944
5.969617
4.327069
2.619574
0.7297211
-1.139754
-3.288177
-5.553472
-7.972874
-10.55567
-13.49419
-16.78019
-20.44969
-24.58304
-29.3745
-35.17796
-42.0663
-52.10811
-61.35568
53.75926
53.93847
53.2182
52.25083
51.32375
50.48455
49.4814
48.52278
47.74535
47.05476
46.22437
45.37475
44.52553
43.78052
43.05236
42.29671
41.50758
40.72647
40.03591
39.30732
38.53622
37.80447
37.08636
36.28586
35.63693
34.82121
33.9823
33.22788
32.44235
31.7153
30.88955
30.08631
29.29337
28.42232
27.4951
26.64941
25.79622
24.85847
23.95642
23.01743
22.03499
21.01896
19.97705
18.89316
17.83254
16.73658
15.56509
14.3313
13.0618
11.76153
10.42174
8.958379
7.552935
5.899444
4.295314
2.622624
0.6511385
-1.16741
-3.396926
-5.593113
-8.026921
-10.70102
-13.65296
-16.95152
-20.62679
-24.79717
-29.66017
-35.48478
-42.42123
-51.86189
-61.22302
-106.5734
-92.26463
-79.21555
-69.59375
-62.18912
-55.43022
-49.95681
-45.11802
-40.8113
-36.88574
-33.29816
-30.23865
-27.26343
-24.36713
-21.76578
-19.32608
-17.04622
-14.81288
-12.76015
-10.75993
-8.915727
-7.086598
-5.363168
-3.747311
-2.075308
-0.4584714
1.029825
2.514091
3.917333
5.250238
6.578681
7.986007
9.312791
10.44805
11.70026
12.88294
14.10789
15.275
16.4303
17.56388
18.72676
19.84416
20.93205
21.9971
23.04765
24.12759
25.18157
26.18959
27.22296
28.3286
29.38643
30.39284
31.39564
32.4212
33.53717
34.60426
35.59927
36.71516
37.82168
38.89834
39.9959
41.11322
42.23683
43.58387
44.97184
46.12453
47.4165
48.79484
50.41651
51.98378
52.85643
-104.7602
-96.82409
-87.50931
-80.29466
-73.97788
-68.59302
-63.37314
-59.53295
-56.28948
-54.28248
-53.6872
-55.81532
-59.76662
-67.94002
-79.20018
-91.42159
-108.6902
-123.558
-136.567
-148.2978
-161.7723
-179.226
-198.8895
-213.3942
-219.0748
-215.3853
-207.0787
-190.716
-173.0694
-158.9813
-146.296
-143.993
-163.7978
-170.754
-164.4884
-151.3833
-133.0079
-127.1018
-133.9111
-143.2916
-142.489
-136.0375
-133.0033
-131.6506
-130.7642
-135.8743
-134.4065
-133.6994
-134.1144
-133.6774
-34.63885
-31.06243
-31.93492
-35.87279
-40.33565
-44.10802
-46.87854
-48.68717
-49.59859
-49.88669
-49.86921
-49.69001
-51.37942
-52.99513
-55.22813
-57.12543
-58.46876
-58.16411
-56.41025
-52.02051
-46.25896
-42.22805
-40.03587
-40.24611
-41.76693
-43.25026
-44.8264
-46.82422
-49.30185
-53.86576
-61.10414
-66.85004
-64.34656
-56.4458
-53.44098
-55.21372
-57.03381
-58.32202
-59.92936
-62.57179
-66.76221
-69.47843
-68.63882
-67.03501
-67.13679
-67.72774
-68.36057
-68.74324
-69.20848
-69.64272
-70.0381
-70.46083
-70.72023
-71.06828
-71.21421
-71.38475
-71.58836
-71.73573
-71.97555
-72.19572
-72.67841
-73.21746
-74.12264
-75.366
-76.85407
-78.56539
-81.14801
-84.07637
-87.51746
-91.50511
-95.85014
-100.6216
-105.6364
-111.0084
-116.8648
-122.3561
-127.4793
-132.3882
-136.8593
-140.8054
-144.3499
-147.1468
-149.6717
-151.7752
-153.3995
-154.4675
-154.9776
-154.9797
-154.4937
-153.6639
-152.2993
-150.2667
-147.8723
-145.2347
-142.5393
-140.0876
-138.0306
-136.3943
-136.686
-132.5799
-83.13862
-80.85892
-81.72194
-85.09648
-87.54175
-79.52318
-77.85113
-78.5794
-78.3312
-78.50683
-79.55538
-81.12713
-80.90792
-79.67521
-78.85314
-81.26752
-84.81439
-89.36474
-94.99853
-99.48109
-99.80281
-96.86329
-91.76782
-90.48709
-92.01735
-99.65566
-102.8414
-106.0804
-110.2894
-115.4603
-121.7344
-128.7993
-135.6749
-140.0839
-133.2354
-122.5657
-117.6431
-117.2194
-114.3123
-111.0094
-104.9578
-97.39418
-88.86983
-81.89338
-78.81832
-80.17996
-80.29358
-74.38124
-62.9111
-48.85767
-0.3330028
-0.07800949
4.469014
5.959812
-37.14766
-1.842336
-127.9008
6.402962
1.491339
1.811487
8.794096
-234.2102
-0.117202
-0.02479646
-0.2704738
6.985384
7.602699
-0.07342167
3.81227
-0.6045776
4.001325
3.660977
-0.3034123
3.754558
-0.9393155
6.179005
3.567342
5.26473
5.774938
-1.256017
-1.064798
-0.3715658
-17.03034
0.6095131
4.567078
-0.8467445
1.914977
6.241817
0.7060584
5.810111
5.748371
-0.1044489
-11.0344
-38.41323
0.4926648
-51.44398
0.2542715
-0.1316801
-0.4658001
5.821019
0.7092807
-4.151788
0.3911305
-6.67772
5.234512
1.340258
0.2660504
-1.03608
-2.189571
-0.09487256
-28.38011
2.916897
-2.032881
-8.551823
6.176269
-15.53597
-1.648152
12.12293
18.45566
3.503989
-23.75367
-2.181292
4.854699
5.597231
3.005103
2.814879
2.557689
2.066774
-0.6344834
2.693298
-7.401799
1.430197
-1.943625
-1.9443
-13.0991
-30.82251
9.157194
-0.02269767
-1.201029
0.1692177
7.805594
8.081587
6.675845
5.277145
-4.646136
0.7657859
6.966919
4.309971
-54.55361
0.5097209
-2.692769
-12.60283
4.450251
-8.379637
4.322826
6.013197
2.357609
5.578866
6.02182
6.474345
1.431655
-61.72187
-7.321174
3.804723
5.054368
-7.328234
-1.816145
-31.78452
5.631963
4.995928
-0.3258138
4.119824
-1.355559
-27.22101
5.751513
1.266338
-0.3830891
-199.4515
-261.5602
-1.152323
11.998
7.869851
5.939767
4.963145
-1.557718
0.8608375
0.3863492
-6.293493
0.8055493
5.988879
5.940811
6.128287
6.401259
-1.379101
0.6190349
-21.92809
4.256182
-0.3915525
-5.757716
-23.08261
-30.53739
-110.1322
-1.202672
6.06138
5.135605
6.04095
-18.66008
6.972417
0.6573969
1.218992
9.160289
6.219583
0.4707817
-3.650987
8.00718
0.5476475
-0.1456962
7.236128
1.36374
5.795757
-31.51554
-4.103253
-7.846653
1.208755
-0.958146
0.4260391
-0.7018841
0.3023155
-2.0391
3.627294
-3.153295
6.658007
3.034709
4.65724
0.0758464
4.111646
6.407496
6.091048
8.762761
0.2785903
0.08649477
2.056912
1.631944
-28.06101
-6.240714
-0.2474665
2.77157
1.081107
3.94448
-0.1479211
-27.83906
0.6066187
0.1842743
7.118843
0.30911
4.492745
4.111067
5.057078
-1.754487
0.7170023
-68.47918
1.338471
0.05536917
5.737246
-3.662671
1.367598
1.427038
-1.721387
5.447446
-3.672965
4.047285
0.2039552
5.78921
-38.50077
17.51299
-12.39019
2.88413
0.6391255
4.259211
0.2589109
-12.94524
1.404023
-0.3077786
5.546049
-23.44207
-23.60663
5.666363
3.719762
-64.77274
-43.32545
4.370167
-6.333296
-9.117663
0.8329796
-16.94056
-2.971509
4.283973
0.7893103
0.3438869
3.775942
3.791812
-108.0999
7.861936
0.673797
-0.9688493
-3.221737
1.627858
5.4506
2.954393
0.5647272
6.021708
-5.219828
4.964233
-90.09251
5.505989
2.022302
-55.72038
-243.2162
5.815761
0.4577785
5.7402
-104.4288
-1.618915
-4.145232
7.922404
-129.8886
5.663635
-31.13169
-0.5544256
0.7422661
0.5467489
-2.167272
9.430673
1.751502
8.582251
-13.79578
0.9469616
5.29279
5.241322
1.957984
-26.01511
6.281945
-51.98154
4.460174
7.520641