/*--------------------------------*- C++ -*----------------------------------*\
| =========                 |                                                 |
| \\      /  F ield         | OpenFOAM: The Open Source CFD Toolbox           |
|  \\    /   O peration     | Version:  2406                                  |
|   \\  /    A nd           | Website:  www.openfoam.com                      |
|    \\/     M anipulation  |                                                 |
\*---------------------------------------------------------------------------*/
FoamFile
{
    version     2.0;
    format      ascii;
    arch        "LSB;label=32;scalar=64";
    class       volScalarField;
    location    "0.3";
    object      p;
}
// * * * * * * * * * * * * * * * * * * * * * * * * * * * * * * * * * * * * * //

dimensions      [0 2 -2 0 0 0 0];

internalField   nonuniform List<scalar> 
217010
(
-121.6549
-69.57134
-78.06315
-78.94256
-75.83029
-73.58679
-74.64365
-75.43892
-77.2915
-77.89768
-77.49231
-76.25646
-77.61868
-86.73935
-94.56766
-109.5409
-118.2221
-113.3992
-92.92038
-82.1486
-92.47335
-100.7787
-110.7921
-126.4806
-136.1537
-137.8
-132.8539
-123.1079
-109.8897
-94.81808
-79.49462
-63.19581
-47.46508
-37.44843
-32.11907
-30.47511
-33.59051
-39.67564
-47.07729
-53.81183
-59.09131
-63.57634
-68.93883
-76.23212
-83.73764
-87.04194
-79.29735
-76.72372
-72.07593
-64.07818
-62.82547
-68.50176
-71.331
-74.00551
-76.23309
-78.47837
-80.44996
-81.70887
-82.4147
-84.47719
-91.60869
-104.9731
-117.4015
-116.6278
-104.5787
-95.66863
-93.92241
-94.60546
-94.70341
-94.39105
-94.68822
-95.25437
-94.54803
-93.19434
-92.07887
-91.02327
-89.60317
-87.6354
-85.13794
-82.15372
-78.74218
-74.95287
-70.7365
-66.06812
-61.07762
-55.898
-50.61285
-45.18009
-39.81496
-34.42776
-28.8936
-23.68503
-18.77884
-14.07614
-9.647368
-5.454972
-1.707051
1.554765
4.480725
6.985821
8.878098
10.10211
10.95141
11.26826
11.23846
10.63188
9.574539
8.036883
6.092277
3.760359
1.110941
-1.891309
-5.051079
-8.376859
-11.80666
-15.16981
-18.52231
-21.92471
-25.04871
-27.90626
-30.57216
-32.92284
-34.94082
-36.65225
-37.99242
-38.8148
-39.13394
-39.0198
-38.56971
-37.91108
-37.16387
-36.20924
-34.88919
-33.38709
-31.78447
-29.97953
-28.38857
-27.97833
-28.82191
-29.56325
-28.51569
-25.24438
-20.6486
-16.28158
-13.19237
-11.51035
-10.23276
-7.322825
-2.779664
-3.390311
-7.325655
-13.58395
-18.93874
-26.92374
-35.87402
-46.68423
-59.49983
-74.58466
-91.56776
-109.5576
-126.7579
-142.0191
-153.9201
-161.2675
-162.2282
-155.0723
-139.6597
-116.8362
-90.57229
-72.04755
-69.30965
-71.76643
-63.4671
-59.20924
-76.58426
-78.59248
-65.66375
-58.39507
-46.66409
-40.18328
-47.99262
-72.60371
-98.21968
-119.5769
-134.9433
-142.6563
-142.4313
-134.5709
-122.6184
-115.9866
-117.176
-111.5118
-101.7248
-97.9634
-95.71403
-95.93977
-98.54899
-100.7031
-93.69865
-155.8261
-77.14345
-67.39685
-55.42705
-48.44909
-42.43868
-37.47026
-33.17729
-29.28152
-25.88825
-22.8013
-19.99173
-17.41968
-14.99142
-12.69516
-10.54316
-8.547589
-6.677023
-4.876115
-3.152877
-1.504439
0.07378747
1.57285
2.995056
4.393479
5.761179
7.100287
8.383862
9.599884
10.77616
11.93593
13.08305
14.2096
15.28445
16.32932
17.3672
18.38608
19.39522
20.3922
21.39339
22.35403
23.33217
24.26659
25.19433
26.10911
27.02056
27.91594
28.79572
29.67855
30.57813
31.47608
32.35447
33.21811
34.08013
34.96841
35.87035
36.76131
37.65544
38.56074
39.47132
40.39664
41.32365
42.24617
43.21206
44.27292
45.3661
46.42976
47.48809
48.61824
49.99203
51.63953
53.54331
54.41778
52.54841
51.10109
49.9535
48.94654
47.96288
46.95178
45.98249
45.11733
44.30237
43.44207
42.55913
41.70139
40.88813
40.09476
39.29983
38.4945
37.6904
36.91036
36.13829
35.35173
34.56451
33.78747
32.9976
32.21346
31.41405
30.58457
29.76757
28.96981
28.16676
27.34033
26.47023
25.63562
24.7644
23.87262
22.97983
22.08162
21.14822
20.19919
19.24965
18.27878
17.25798
16.1899
15.11938
14.05512
12.95208
11.79547
10.60335
9.359042
8.066163
6.737197
5.360255
3.964538
2.478289
0.8966511
-0.7419323
-2.478929
-4.294899
-6.244441
-8.345931
-10.57042
-12.94431
-15.57567
-18.46672
-21.74178
-25.31789
-29.39285
-34.3401
-39.82672
-49.28085
-54.86527
54.40697
52.80104
51.27901
50.09228
49.06988
48.08041
47.06363
46.08367
45.20702
44.3865
43.52463
42.63845
41.7748
40.95568
40.15826
39.36048
38.55248
37.74493
36.96151
36.1867
35.39788
34.60823
33.82887
33.03674
32.25092
31.44982
30.61845
29.79925
28.99925
28.19437
27.36665
26.4941
25.65967
24.7858
23.89224
22.99798
22.09844
21.16345
20.21311
19.26214
18.29002
17.26749
16.19768
15.12572
14.06027
12.95541
11.79723
10.60375
9.357473
8.062293
6.730932
5.351472
3.954185
2.463798
0.8784858
-0.763413
-2.505341
-4.325206
-6.281492
-8.390135
-10.6209
-13.00288
-15.64433
-18.54623
-21.84681
-25.44092
-29.54574
-34.52499
-40.12524
-49.51584
-56.42046
-78.96172
-67.74599
-55.8024
-48.67906
-42.62635
-37.61878
-33.3022
-29.37503
-25.9686
-22.87121
-20.0502
-17.47027
-15.03505
-12.73181
-10.57307
-8.571751
-6.6976
-4.892879
-3.16586
-1.514118
0.06701914
1.56925
2.993276
4.393436
5.762967
7.10403
8.389771
9.607329
10.78516
11.94657
13.09543
14.2237
15.30024
16.34646
17.3861
18.40655
19.41756
20.41662
21.42045
22.38167
23.36213
24.29824
25.22804
26.14489
27.05821
27.95556
28.83759
29.72319
30.62545
31.52568
32.406
33.27224
34.13786
35.02991
35.93527
36.82944
37.72741
38.63688
39.55209
40.48167
41.41291
42.34243
43.31918
44.39005
45.48874
46.55652
47.62568
48.78108
50.19729
51.91152
53.6
-6.667678
-12.84208
-18.123
-25.99626
-34.85727
-45.54515
-58.23104
-73.20578
-90.13601
-108.1703
-125.5124
-140.9964
-153.1759
-160.8786
-162.3045
-155.549
-140.6019
-118.0635
-91.60633
-72.49715
-69.30856
-71.90921
-63.6474
-59.20628
-76.54595
-78.70275
-65.88288
-58.65379
-46.85878
-40.28685
-48.03393
-72.64169
-98.25987
-119.635
-135.0172
-142.7735
-142.5784
-134.7036
-122.6053
-115.9502
-117.1599
-111.4015
-101.6105
-97.90857
-95.71257
-96.00065
-98.67267
-100.5818
-95.15348
-144.4669
-62.42192
-67.92805
-71.00897
-73.72521
-75.99744
-78.26473
-80.28596
-81.60582
-82.28023
-84.09179
-90.79626
-103.9461
-116.9833
-117.039
-105.4159
-96.0699
-93.96817
-94.60358
-94.72696
-94.38496
-94.6452
-95.24908
-94.6096
-93.28345
-92.17624
-91.12684
-89.7124
-87.75175
-85.26415
-82.29469
-78.88616
-75.09857
-70.88726
-66.20131
-61.21549
-56.02685
-50.73526
-45.29017
-39.9125
-34.52064
-28.9708
-23.7476
-18.83228
-14.11854
-9.681556
-5.480072
-1.723238
1.543684
4.47374
6.982146
8.877646
10.10233
10.95128
11.26743
11.23539
10.62448
9.562465
8.01773
6.065977
3.725378
1.066751
-1.946912
-5.114325
-8.450929
-11.88937
-15.2563
-18.61381
-22.03195
-25.15333
-28.0101
-30.67447
-33.01936
-35.03228
-36.73359
-38.05632
-38.85952
-39.16228
-39.03601
-38.57285
-37.89213
-37.11935
-36.12832
-34.77381
-33.2544
-31.64332
-29.84594
-28.29937
-27.96937
-28.85247
-29.52677
-28.30104
-24.83629
-20.18552
-15.89004
-12.93152
-11.32861
-9.954785
-6.892785
-2.61615
-3.591632
-112.3304
-70.85369
-78.17146
-79.0326
-75.95395
-73.60781
-74.62732
-75.42649
-77.28218
-77.90526
-77.50635
-76.26309
-77.60124
-86.73585
-94.53306
-109.7456
-118.6169
-113.6609
-92.93183
-82.31156
-92.73098
-100.9762
-111.1284
-126.8626
-136.3546
-137.7803
-132.6578
-122.7739
-109.4804
-94.36005
-78.98359
-62.65
-47.02702
-37.20377
-32.03268
-30.53318
-33.87063
-40.20783
-47.63916
-54.29793
-59.48611
-63.99324
-69.48373
-76.96147
-84.57476
-87.36682
-79.09624
-76.24361
-71.4784
-62.65753
-102.1545
-71.50233
-78.28595
-79.14742
-76.2071
-73.65304
-74.61695
-75.42671
-77.29253
-77.93272
-77.53618
-76.28403
-77.60866
-86.81517
-94.5289
-110.2203
-119.6855
-114.3082
-92.40858
-82.20589
-92.90049
-101.4079
-112.1639
-127.7031
-136.7494
-138.0566
-132.7775
-122.7875
-109.3993
-94.20751
-78.77059
-62.38156
-46.76257
-37.08812
-32.01914
-30.6436
-34.14525
-40.50113
-47.83686
-54.42481
-59.5168
-63.95553
-69.78094
-77.43058
-84.93124
-87.80174
-79.59866
-76.62873
-71.72205
-61.12023
-62.07537
-67.70737
-70.8288
-73.57451
-75.8552
-78.1445
-80.21794
-81.58755
-82.23248
-83.83
-90.21656
-103.4206
-117.0555
-117.792
-106.0189
-96.05161
-93.97499
-94.56981
-94.71149
-94.41157
-94.66229
-95.2419
-94.6853
-93.44065
-92.33499
-91.24895
-89.80297
-87.82191
-85.30739
-82.3255
-78.91938
-75.14146
-70.93151
-66.27231
-61.27381
-56.08204
-50.79457
-45.34741
-39.96318
-34.57844
-29.02022
-23.78782
-18.87112
-14.15103
-9.712161
-5.505442
-1.740561
1.528555
4.460648
6.972254
8.873693
10.09887
10.94795
11.26368
11.22908
10.61348
9.548944
7.998402
6.042991
3.697614
1.035115
-1.985597
-5.152977
-8.494913
-11.93465
-15.29831
-18.66539
-22.07787
-25.19242
-28.04634
-30.70746
-33.04304
-35.04867
-36.7514
-38.0844
-38.88669
-39.19196
-39.0752
-38.62823
-37.94792
-37.14784
-36.13077
-34.77643
-33.25856
-31.63282
-29.80688
-28.27795
-27.98756
-28.92741
-29.59138
-28.28397
-24.75558
-19.99908
-15.70076
-12.8093
-11.27441
-9.899414
-6.730442
-2.562943
-3.652459
-6.524017
-12.52571
-17.78469
-25.56342
-34.34978
-44.98638
-57.61627
-72.56342
-89.51411
-107.6607
-125.1444
-140.8343
-153.231
-161.2181
-162.8384
-156.263
-141.8127
-119.8818
-93.25522
-73.12399
-69.23753
-72.05876
-63.98129
-59.40649
-76.67098
-79.02403
-66.41749
-59.20481
-47.17161
-40.57659
-48.23162
-72.84714
-98.45209
-119.8229
-135.207
-142.943
-142.8117
-135.1334
-123.0914
-116.1705
-117.3105
-111.4549
-101.5268
-97.87391
-95.74695
-96.09885
-98.76103
-100.4577
-95.69157
-132.2
-78.81025
-67.97521
-55.97521
-48.79659
-42.71622
-37.68762
-33.3539
-29.43118
-26.00086
-22.90128
-20.07458
-17.49197
-15.05504
-12.74835
-10.58665
-8.581923
-6.70819
-4.901716
-3.173111
-1.519799
0.06214635
1.566817
2.990432
4.391605
5.762293
7.10466
8.392382
9.609874
10.78761
11.94941
13.09889
14.22887
15.30608
16.35116
17.39176
18.4124
19.42528
20.42503
21.42674
22.39152
23.36851
24.30635
25.23724
26.15398
27.06807
27.96587
28.84763
29.73281
30.63672
31.53881
32.41895
33.28514
34.14966
35.0429
35.95103
36.84537
37.74297
38.65458
39.56991
40.5003
41.43269
42.3629
43.3396
44.41741
45.52089
46.586
47.65696
48.81666
50.25825
52.01524
53.58775
54.34277
52.9025
51.3381
50.12505
49.09971
48.11197
47.08971
46.10289
45.22594
44.40892
43.54494
42.65664
41.78988
40.97028
40.17262
39.37533
38.56585
37.75628
36.97345
36.19896
35.40869
34.61874
33.83986
33.04589
32.26191
31.46017
30.6258
29.80644
29.0069
28.20217
27.37165
26.50296
25.66553
24.79413
23.89844
23.0037
22.10419
21.16722
20.21668
19.26631
18.29469
17.27056
16.19882
15.12663
14.06217
12.95605
11.79719
10.60341
9.355233
8.058773
6.726143
5.345571
3.949626
2.456232
0.8691799
-0.7726883
-2.518094
-4.337483
-6.298225
-8.409701
-10.64197
-13.02655
-15.6722
-18.59489
-21.88837
-25.49669
-29.61641
-34.61878
-40.25843
-49.6817
-56.47638
54.23159
53.04876
51.51465
50.26893
49.22899
48.23839
47.21079
46.21712
45.33171
44.50763
43.63934
42.74845
41.87718
41.05182
40.24944
39.44792
38.6353
37.82175
37.03619
36.25757
35.46377
34.67146
33.89008
33.09266
32.30788
31.50332
30.66493
29.84526
29.04337
28.23688
27.40332
26.53819
25.69062
24.82169
23.92219
23.02633
22.126
21.1853
20.23402
19.2829
18.31057
17.28282
16.20807
15.13511
14.07121
12.96189
11.80144
10.60676
9.355083
8.056631
6.721778
5.338381
3.943948
2.44374
0.8527171
-0.7901394
-2.543081
-4.362985
-6.333243
-8.451876
-10.68888
-13.08021
-15.74144
-18.67291
-21.97741
-25.61083
-29.75979
-34.7874
-40.52857
-49.83035
-56.71458
-78.93316
-68.17572
-56.30355
-49.00065
-42.89377
-37.82424
-33.46225
-29.52133
-26.08031
-22.96762
-20.12829
-17.53938
-15.09642
-12.78192
-10.61365
-8.601348
-6.726446
-4.915485
-3.183114
-1.526313
0.05763579
1.567097
2.990023
4.393305
5.766321
7.111052
8.402871
9.621442
10.80007
11.96281
13.11386
14.24724
15.32728
16.37171
17.41487
18.43668
19.45345
20.45564
21.45472
22.43243
23.4051
24.34485
25.27844
26.19775
27.11362
28.01468
28.89907
29.78718
30.69368
31.59907
32.48178
33.35166
34.22008
35.11623
36.02938
36.92751
37.8295
38.74544
39.66605
40.60059
41.53872
42.47744
43.46276
44.54771
45.65738
46.72626
47.8076
48.98903
50.45904
52.18613
53.54447
-5.928232
-11.74517
-17.02909
-24.68905
-33.38446
-43.92984
-56.44252
-71.29088
-88.1871
-106.3786
-123.9811
-139.8796
-152.5173
-160.8013
-162.8241
-156.9274
-143.1195
-122.1255
-95.90092
-74.4719
-69.40309
-72.40945
-64.64005
-59.80952
-76.74939
-79.41518
-67.4794
-60.15806
-47.73327
-41.11604
-48.68849
-73.33644
-98.85531
-120.1789
-135.5585
-143.263
-143.1763
-135.8161
-124.2144
-116.8255
-117.3995
-111.3811
-101.3851
-97.81646
-95.79786
-96.23627
-98.92157
-100.2791
-97.07847
-123.5725
-61.21941
-67.13094
-70.5319
-73.3426
-75.65517
-77.95538
-80.08089
-81.53228
-82.16895
-83.51183
-89.42003
-102.3659
-116.7436
-118.6078
-106.8052
-96.33627
-93.92054
-94.53118
-94.7365
-94.52044
-94.80141
-95.30905
-94.80625
-93.65077
-92.54814
-91.42604
-89.9597
-87.97952
-85.49957
-82.51954
-79.10142
-75.31891
-71.09568
-66.43031
-61.43161
-56.22179
-50.93289
-45.47101
-40.06586
-34.68957
-29.10977
-23.85699
-18.9374
-14.20492
-9.762112
-5.5456
-1.766584
1.504276
4.438271
6.954005
8.86502
10.09036
10.93974
11.25513
11.21706
10.59476
9.527141
7.967693
6.00622
3.651485
0.9819552
-2.053567
-5.224064
-8.580166
-12.02885
-15.394
-18.77128
-22.19799
-25.30898
-28.16702
-30.83443
-33.16416
-35.17109
-36.88041
-38.19799
-38.95352
-39.25081
-39.14071
-38.71445
-38.04467
-37.2294
-36.19479
-34.8354
-33.28769
-31.58829
-29.70372
-28.17792
-27.966
-28.9766
-29.58146
-28.04066
-24.27453
-19.51362
-15.2984
-12.5366
-11.07221
-9.650462
-6.457583
-2.51273
-3.708553
-94.74968
-72.89982
-77.98079
-78.83931
-76.49642
-73.74328
-74.60895
-75.4427
-77.32442
-77.98524
-77.59195
-76.33178
-77.6449
-86.97597
-94.54403
-110.875
-121.2651
-115.3111
-91.07118
-81.65937
-92.84457
-102.2554
-113.8865
-128.791
-137.2005
-138.0922
-132.7249
-122.6137
-109.2066
-93.96839
-78.47405
-62.05525
-46.49044
-37.03306
-32.06798
-30.83363
-34.58215
-41.08253
-48.43261
-54.85971
-59.85004
-64.33951
-70.23452
-78.29819
-86.09499
-89.06092
-81.32781
-77.68343
-70.2018
-58.73974
-89.68662
-74.24146
-77.35681
-78.23586
-76.76622
-73.86023
-74.61284
-75.47787
-77.38508
-78.07232
-77.68947
-76.43095
-77.73137
-87.29523
-94.63991
-111.7706
-123.2814
-116.6919
-89.43894
-80.8481
-92.66647
-103.7504
-116.1949
-130.2415
-138.0362
-138.6259
-132.9449
-122.6558
-109.2185
-93.87936
-78.30073
-61.83883
-46.28432
-37.05317
-32.20902
-31.15051
-35.19061
-41.7698
-49.06386
-55.30736
-60.11247
-64.2155
-70.60718
-79.38692
-87.68392
-91.00126
-84.05355
-78.88806
-68.11167
-56.3261
-60.21115
-66.58405
-70.19759
-73.10699
-75.45324
-77.7614
-79.93679
-81.51441
-82.2211
-83.33518
-88.61713
-101.1345
-116.1871
-119.3745
-107.9213
-96.85592
-93.93179
-94.55834
-94.8832
-94.77566
-95.04904
-95.43456
-94.94841
-93.86794
-92.77171
-91.61285
-90.11322
-88.06926
-85.57615
-82.62845
-79.22546
-75.46108
-71.24755
-66.59125
-61.58764
-56.36146
-51.08153
-45.60538
-40.17585
-34.83081
-29.21817
-23.93765
-19.02493
-14.27501
-9.829639
-5.600253
-1.803262
1.463821
4.401287
6.922034
8.84763
10.0738
10.92318
11.23903
11.19532
10.56402
9.493136
7.923677
5.957984
3.592293
0.9140685
-2.139109
-5.306434
-8.682456
-12.13459
-15.48933
-18.8866
-22.32903
-25.41844
-28.27577
-30.94065
-33.24942
-35.24499
-36.93573
-38.22526
-39.0047
-39.30732
-39.20849
-38.80415
-38.13969
-37.31135
-36.27062
-34.92347
-33.36695
-31.62048
-29.72541
-28.23644
-28.0845
-29.10892
-29.66702
-27.9927
-24.03056
-19.08547
-14.90945
-12.29151
-10.93433
-9.481317
-6.227483
-2.480392
-3.66726
-5.595945
-11.08936
-16.29611
-23.83524
-32.43053
-42.92045
-55.28089
-70.04598
-86.94596
-105.2757
-123.0766
-139.3214
-152.2938
-161.1317
-163.8809
-158.1134
-144.9125
-124.922
-99.65635
-77.3393
-70.11093
-72.90266
-65.61322
-60.22719
-76.34662
-79.68017
-69.12797
-61.59591
-48.62976
-42.03378
-49.57911
-74.2991
-99.57857
-120.7648
-136.1552
-143.8163
-143.7425
-136.696
-125.7592
-117.8862
-117.1296
-110.9097
-101.1333
-97.71027
-95.83765
-96.39313
-99.14842
-100.1742
-98.59721
-117.7379
-79.00381
-68.25628
-56.58533
-49.18326
-43.0592
-37.95117
-33.56705
-29.61261
-26.14491
-23.02835
-20.17722
-17.58412
-15.13796
-12.81663
-10.64128
-8.619315
-6.746882
-4.932728
-3.19718
-1.536797
0.04885895
1.564911
2.984709
4.389871
5.764373
7.110858
8.408138
9.62642
10.80372
11.96731
13.12015
14.25776
15.33954
16.38083
17.42704
18.44899
19.46937
20.47137
21.4666
22.44583
23.42244
24.36306
25.29847
26.21757
27.13489
28.0378
28.92232
29.80964
30.71885
31.62822
32.511
33.38174
34.24953
35.14846
36.06781
36.9663
37.86816
38.78975
39.71242
40.64938
41.59073
42.53379
43.52296
44.62421
45.74408
46.80645
47.8951
49.10069
50.6093
52.30227
53.45068
54.05852
53.14003
51.65214
50.36896
49.30931
48.32175
47.28442
46.2752
45.38393
44.564
43.69093
42.79585
41.91651
41.08856
40.28477
39.48338
38.66758
37.8493
37.06482
36.28628
35.48938
34.69602
33.91534
33.11312
32.33232
31.52609
30.68141
29.86161
29.05919
28.25329
27.41723
26.54955
25.70201
24.83666
23.93297
23.03683
22.13676
21.19195
20.24155
19.29175
18.31997
17.28755
16.20889
15.13701
14.07576
12.96228
11.80088
10.6066
9.350315
8.049841
6.713008
5.327126
3.938133
2.42805
0.8328241
-0.8092013
-2.570541
-4.386322
-6.368569
-8.493589
-10.73178
-13.12616
-15.80067
-18.75333
-22.06182
-25.71651
-29.89198
-34.94352
-40.76457
-49.88684
-56.94226
53.80834
53.17151
51.8038
50.5164
49.43582
48.45206
47.40973
46.39486
45.50205
44.6824
43.80099
42.90582
42.01973
41.18579
40.37645
39.57368
38.75352
37.92662
37.14028
36.35783
35.5554
34.7599
33.97864
33.16859
32.39183
31.58283
30.72934
29.91074
29.10592
28.29852
27.45569
26.60006
25.74058
24.87433
23.96553
23.06939
22.16693
21.21214
20.26102
19.31307
18.34522
17.30582
16.21727
15.1453
14.09094
12.97068
11.80673
10.61479
9.35186
8.047203
6.704587
5.313643
3.93801
2.414754
0.8147316
-0.8289407
-2.604186
-4.40947
-6.410822
-8.545579
-10.788
-13.18138
-15.87363
-18.85193
-22.16599
-25.84355
-30.05095
-35.12038
-41.01082
-49.89712
-57.22252
-79.11694
-68.24135
-56.86207
-49.37186
-43.25925
-38.10668
-33.69514
-29.72057
-26.22495
-23.10902
-20.23767
-17.63768
-15.19056
-12.85702
-10.6688
-8.634833
-6.772624
-4.953602
-3.211694
-1.543803
0.04454028
1.56921
2.983005
4.391763
5.76797
7.120237
8.427189
9.64201
10.81896
11.98781
13.1427
14.28307
15.36786
16.40552
17.45736
18.47875
19.50432
20.50712
21.50667
22.50496
23.47092
24.41116
25.35069
26.2726
27.19391
28.10042
28.98486
29.87498
30.79157
31.70849
32.59069
33.46456
34.33403
35.23649
36.16543
37.06603
37.97265
38.90197
39.82612
40.76582
41.71437
42.66701
43.65805
44.76766
45.89449
46.94832
48.05165
49.278
50.77712
52.36983
53.29803
-5.1586
-10.26238
-15.44151
-22.77357
-31.26686
-41.72424
-53.92649
-68.55053
-85.43732
-103.9291
-121.9153
-138.6081
-151.9807
-161.3116
-164.3576
-159.3902
-147.0541
-128.2058
-104.2849
-81.97924
-71.99225
-73.60447
-66.53571
-60.18274
-74.72475
-79.50142
-71.25904
-63.65268
-50.0504
-43.58023
-51.04214
-75.86423
-100.823
-121.7284
-137.1129
-144.7342
-144.6223
-137.7873
-127.5937
-119.1006
-116.2382
-109.3673
-100.6734
-97.54767
-95.83306
-96.61785
-99.36226
-100.0482
-99.57974
-112.2318
-59.05534
-65.94011
-69.86081
-72.85326
-75.24377
-77.54327
-79.74044
-81.47997
-82.38457
-83.38749
-87.88956
-99.58645
-114.8562
-119.6506
-109.4408
-98.04906
-94.45433
-94.86743
-95.1872
-95.11056
-95.33112
-95.60183
-95.13998
-94.13947
-93.06497
-91.88339
-90.36814
-88.38703
-85.84646
-82.86371
-79.44266
-75.69285
-71.48089
-66.81769
-61.80513
-56.54637
-51.278
-45.78169
-40.32662
-35.02809
-29.34792
-24.03824
-19.14289
-14.36082
-9.913806
-5.668331
-1.853404
1.402823
4.343814
6.868194
8.81648
10.04742
10.89413
11.21199
11.15918
10.516
9.445612
7.859985
5.895085
3.5158
0.8235309
-2.259556
-5.412068
-8.826556
-12.28805
-15.61199
-19.03458
-22.51368
-25.57037
-28.44036
-31.11412
-33.39885
-35.39878
-37.10699
-38.42119
-39.14216
-39.41877
-39.32172
-38.93493
-38.26326
-37.41309
-36.36054
-35.03125
-33.49337
-31.75863
-29.94754
-28.56345
-28.39376
-29.28281
-29.58154
-27.52868
-23.3064
-18.34828
-14.32924
-11.93951
-10.70554
-9.258328
-5.948464
-2.313361
-3.511031
-85.08224
-74.95558
-76.60016
-77.84317
-77.18516
-74.02858
-74.63901
-75.5322
-77.48138
-78.20067
-77.83859
-76.65092
-77.92293
-87.80208
-94.86974
-113.0277
-125.7011
-118.7207
-88.17546
-80.28514
-93.17609
-106.0591
-119.0737
-132.0494
-139.1077
-139.2451
-133.3297
-122.8664
-109.4214
-93.93665
-78.29081
-61.76236
-46.10796
-37.1889
-32.5285
-31.64532
-36.0824
-42.6851
-49.88913
-55.87697
-60.38086
-64.19535
-71.16048
-80.89702
-90.17016
-94.18112
-87.76564
-80.03029
-65.10105
-53.47867
-80.37966
-74.83648
-75.87501
-77.32227
-77.58697
-74.33413
-74.62282
-75.60991
-77.62248
-78.36375
-78.07475
-77.1041
-78.35582
-88.25603
-95.34389
-114.8047
-128.3884
-121.4324
-87.99846
-80.84259
-95.21369
-109.3471
-122.5914
-134.3964
-140.6524
-140.2691
-134.0459
-123.2322
-109.6613
-94.13795
-78.48833
-61.85382
-46.05492
-37.79582
-33.17277
-32.38807
-37.46039
-44.08485
-50.99577
-56.50678
-60.64364
-64.23082
-72.2065
-83.12637
-93.72715
-98.84798
-92.58556
-81.57136
-61.76685
-50.88349
-58.16042
-65.30569
-69.54394
-72.65475
-75.08218
-77.34451
-79.51789
-81.43565
-82.68612
-83.71971
-87.3101
-97.73021
-111.8862
-118.2173
-110.4977
-99.83743
-95.63844
-95.46847
-95.58542
-95.47366
-95.63623
-95.81197
-95.37579
-94.4445
-93.39019
-92.18062
-90.62517
-88.55252
-86.03443
-83.09352
-79.69813
-75.97279
-71.74311
-67.0651
-62.0706
-56.77454
-51.51832
-46.02142
-40.55127
-35.24169
-29.51186
-24.19999
-19.28506
-14.48417
-10.04834
-5.79749
-1.956749
1.337142
4.256505
6.780346
8.770876
10.0071
10.847
11.16748
11.10757
10.44523
9.390098
7.754578
5.791499
3.395496
0.7153991
-2.439334
-5.550212
-8.99666
-12.50393
-15.80515
-19.20668
-22.74739
-25.75326
-28.63247
-31.32554
-33.56411
-35.55225
-37.26673
-38.55531
-39.2215
-39.5373
-39.45236
-39.09107
-38.40723
-37.54725
-36.48293
-35.16344
-33.64978
-31.94583
-30.25593
-29.03708
-28.79865
-29.29996
-29.12714
-26.72675
-22.46556
-17.67079
-13.81543
-11.63391
-10.57243
-8.930515
-5.449469
-1.885031
-3.237766
-4.741603
-9.43237
-14.39779
-21.47156
-29.71736
-39.99647
-52.3607
-66.84367
-83.64208
-102.3619
-120.567
-137.7208
-151.7726
-161.9915
-165.9978
-161.291
-149.9637
-132.2443
-109.5042
-87.84962
-75.6164
-74.44971
-67.16472
-59.31461
-71.24107
-78.5673
-73.73076
-66.57614
-52.18081
-46.06593
-53.3076
-78.15182
-103.0354
-123.5585
-138.56
-146.1192
-145.9208
-139.1229
-129.6225
-120.2915
-114.93
-107.3777
-99.99049
-97.45939
-95.71411
-97.09683
-99.96987
-99.85069
-99.66769
-106.4211
-79.09143
-68.0506
-57.08828
-49.53588
-43.49381
-38.26577
-33.81121
-29.82828
-26.32315
-23.20322
-20.28798
-17.69593
-15.25501
-12.8944
-10.69666
-8.663972
-6.816499
-4.975116
-3.223528
-1.544762
0.03769439
1.566075
2.976853
4.387478
5.765426
7.132971
8.436811
9.644655
10.83036
12
13.14294
14.28587
15.38873
16.41834
17.47606
18.49452
19.52882
20.53533
21.53735
22.51911
23.49063
24.43549
25.38389
26.30712
27.2273
28.13225
29.02275
29.9186
30.83392
31.74843
32.62967
33.5124
34.38308
35.28798
36.22605
37.132
38.03825
38.96836
39.8963
40.84755
41.80433
42.76765
43.75289
44.87879
46.03164
47.08331
48.21567
49.44999
50.90962
52.37455
53.07334
53.46569
53.10405
51.92944
50.6764
49.57192
48.58147
47.51424
46.48433
45.58984
44.77529
43.87011
42.97253
42.08151
41.2516
40.43261
39.62645
38.80596
37.97674
37.19546
36.4069
35.59671
34.80099
34.01996
33.19894
32.43128
31.61093
30.74955
29.93482
29.13181
28.32981
27.47558
26.59864
25.75747
24.88689
23.97329
23.08924
22.19275
21.22663
20.27353
19.31915
18.35773
17.32121
16.22373
15.14033
14.09634
12.97433
11.80262
10.61353
9.349959
8.045913
6.695048
5.283695
3.926097
2.386928
0.7975811
-0.8484179
-2.651986
-4.431701
-6.460021
-8.592885
-10.85325
-13.24613
-15.95015
-18.94877
-22.26896
-25.97114
-30.21366
-35.28955
-41.21799
-49.77341
-57.37384
53.05521
52.91017
51.9905
50.85276
49.77861
48.82083
47.70489
46.63588
45.76039
44.98678
44.07473
43.14064
42.20516
41.38509
40.58597
39.7602
38.90379
38.05593
37.30128
36.51158
35.68265
34.89321
34.1189
33.265
32.55947
31.6988
30.80942
30.008
29.17671
28.40269
27.53594
26.69177
25.85736
24.95171
23.9876
23.10833
22.22143
21.25755
20.32731
19.36319
18.36022
17.32563
16.26551
15.17059
14.09959
12.99601
11.82332
10.5956
9.334901
8.047596
6.726308
5.295337
3.921363
2.320086
0.7661274
-0.8476033
-2.725801
-4.459706
-6.561508
-8.632566
-10.90449
-13.38069
-16.09708
-19.10714
-22.43139
-26.16587
-30.47093
-35.56555
-41.53988
-49.60556
-57.44177
-78.82764
-67.85264
-57.48441
-49.82688
-43.88355
-38.4104
-33.97818
-30.03222
-26.51136
-23.28666
-20.32483
-17.80501
-15.33732
-12.92657
-10.7672
-8.733979
-6.829215
-4.954044
-3.231249
-1.551725
-0.003960293
1.541754
2.997193
4.364768
5.779476
7.1548
8.410522
9.675592
10.87194
12.00652
13.13871
14.34449
15.48409
16.44974
17.52431
18.53752
19.59134
20.59425
21.58762
22.56299
23.56705
24.52844
25.46852
26.38675
27.29284
28.22721
29.13749
30.00617
30.90071
31.85923
32.77401
33.64432
34.51217
35.39973
36.37081
37.29874
38.15749
39.13002
40.09145
41.02496
41.97831
42.94935
43.92353
45.09842
46.31142
47.30508
48.41786
49.59691
50.98877
52.31485
52.77058
-4.305591
-8.387164
-13.13471
-19.8927
-27.73694
-37.52394
-50.42653
-64.95161
-81.4407
-100.4912
-119.0231
-136.0337
-150.8692
-162.86
-168.0581
-163.6416
-153.5669
-137.5545
-115.8929
-95.03368
-81.55613
-75.68256
-67.07398
-57.37203
-66.17594
-77.42546
-76.63058
-70.53143
-54.94741
-49.49669
-57.32951
-82.13926
-106.1028
-126.6311
-140.577
-147.6475
-147.6138
-140.672
-131.8451
-121.3991
-113.4026
-104.9295
-99.13795
-96.98962
-95.28513
-97.48795
-100.1056
-99.32277
-98.71783
-100.8411
-57.86393
-64.74959
-69.22834
-72.39947
-74.81624
-77.00533
-79.161
-81.23977
-82.85529
-83.90486
-86.80513
-95.73136
-107.3542
-113.8325
-109.9537
-101.4344
-96.99507
-96.17883
-96.07276
-95.89247
-96.00141
-96.10904
-95.70971
-94.85279
-93.83516
-92.60954
-91.05594
-88.96834
-86.44439
-83.55477
-80.16987
-76.3312
-72.09769
-67.49857
-62.54076
-57.24183
-51.87331
-46.54
-40.85006
-35.40778
-29.94648
-24.49917
-19.47578
-14.7165
-10.29349
-6.073148
-2.167508
1.23828
4.110386
6.641109
8.713434
9.925336
10.77498
11.08305
11.03809
10.33394
9.284305
7.587557
5.599812
3.203599
0.5868584
-2.678559
-5.766717
-9.163827
-12.74316
-16.18869
-19.56029
-23.0761
-26.07211
-28.92546
-31.62985
-33.86711
-35.8313
-37.52439
-38.80098
-39.4408
-39.74313
-39.66517
-39.33647
-38.58034
-37.72117
-36.6694
-35.35377
-33.78156
-32.13544
-30.57472
-29.44815
-29.11661
-29.05966
-28.23335
-25.45118
-21.14476
-16.61734
-13.15648
-11.20957
-9.949064
-8.14204
-4.577296
-1.372307
-2.912093
-76.10367
-73.63969
-75.60359
-77.9361
-79.72863
-74.54465
-74.49479
-75.71205
-77.74846
-78.53967
-78.43415
-77.85221
-79.15588
-88.63632
-96.05111
-116.3939
-132.0991
-125.2599
-89.77984
-83.43335
-98.91626
-114.0582
-126.9819
-137.4683
-143.0078
-141.9117
-135.2462
-123.5943
-109.9528
-94.73494
-79.06848
-62.39012
-46.66636
-39.27066
-34.19976
-33.70343
-39.14677
-45.97736
-52.557
-57.33373
-60.93602
-64.40032
-74.67249
-87.25874
-99.24424
-105.3692
-97.89887
-83.00292
-59.02497
-49.31813
-0.008379338
-0.01188946
-1.672642
3.029491
0.2264966
-0.1112174
0.01311282
3.032256
0.1787934
0.03621979
0.4353797
0.2549342
0.002243077
5.09392
0.01702625
3.806194
6.135844
-6.122382
2.292331
3.22481
-0.2038002
2.219849
0.02333825
2.170034
-0.04056556
3.426198
2.049505
1.462474
2.606128
-0.1963187
-0.8685303
-0.3311871
-6.194721
0.008599778
3.05119
0.05632277
0.03325466
4.456829
0.02086159
3.478384
4.371227
-0.002666782
0.4406656
0.2169629
0.02135625
3.619327
0.005860847
-0.00774835
-0.00581016
4.65576
-1.522892
-0.02661379
-0.5933885
-0.04884174
3.237326
0.03609576
-1.733084
-1.583027
-5.885642
-0.01051018
0.04466683
1.679007
-0.08673847
0.2149926
5.013895
-0.01957382
-0.07353306
0.8011646
14.72418
-0.01294566
0.3773815
0.05883695
3.373544
1.720059
1.550832
1.527602
1.170128
0.668723
-3.781692e-06
1.692116
0.1302831
0.1203048
0.08563811
-0.07718977
0.06574651
0.002783627
6.978099
0.02328653
-0.2095623
-0.5138912
5.136741
5.601452
3.771568
1.572764
0.1518181
-0.8453915
3.988078
2.622888
-93.83501
0.1336833
-0.1078272
5.130523
5.418309
0.07131242
-0.5953076
2.983136
0.01432163
3.449187
-0.07601305
3.13721
0.03427684
-5.830431
0.01545967
0.09793615
-1.17727
0.006751347
-0.09360196
-25.74575
-2.371924
0.9395458
-0.2684782
-0.3087784
-0.1848295
0.01850578
2.539084
-0.03308087
-0.007559767
0.03716665
0.8896515
0.06347448
10.37945
5.785005
2.98456
-0.1423284
0.02030519
0.02057206
-1.759042
-24.23543
-4.838566
4.333775
3.023756
4.936727
3.331509
-3.800227
0.00647575
0.1249015
2.875469
-0.332748
-0.009908909
3.33173
0.4178556
0.03215919
-0.2107145
2.892351
6.885956
2.695283
-0.003668238
-0.348816
0.004081303
-0.0924053
0.3046742
3.019532
-1.282412
0.01937129
5.694642
0.02338972
-0.1687274
4.69185
0.003365767
1.904677
0.04472412
0.09138129
0.01499471
-1.535826
-0.2252211
0.0005122901
-0.2288651
-0.1703039
-0.1050418
1.163565
-0.09567241
3.697779
-3.699166
0.5575892
-0.3196093
-1.252147
3.945063
3.623505
6.016779
0.02468319
-2.198268
0.03140812
0.3978305
0.02790905
3.229325
-0.2709057
-0.008511217
0.1727928
-4.150062
-0.2368271
2.810463
-0.3482645
-0.2652831
6.884712
-0.3371861
0.3254485
0.00265098
-2.249196
-5.32282
-0.1466924
0.01045941
0.3073084
0.01402854
3.417099
-0.0004959716
0.0262958
-0.5128126
-0.1589794
1.889929
0.403125
-2.67039
-2.438692
2.601039
0.04465237
18.47491
0.8605581
1.441754
0.04301718
-0.582704
-4.304733
-0.02077761
0.2467421
-1.67659
3.373436
0.534632
2.058815
2.280376
2.154961
1.655873
0.01795688
-0.5108492
0.08113871
-0.002846752
-0.0003169836
0.06717745
0.3522191
-0.37681
-0.9005656
-0.827073
2.192502
2.201604
-147.4688
6.018633
-0.4166224
0.003753462
4.695196
-0.03249365
1.828464
0.01523705
-0.6682539
2.430757
0.13968
1.078329
0.2341736
3.607017
0.7091933
0.03593128
0.2697247
2.71954
-0.003707028
-0.3624883
0.01759866
-0.1560842
0.001623617
5.670852
2.657062
3.394904
0.02827514
0.6719241
0.03696842
-0.532252
-16.79468
0.5941312
0.004272004
6.088072
-0.01826488
-1.252967
3.578262
3.815151