/*--------------------------------*- C++ -*----------------------------------*\
| =========                 |                                                 |
| \\      /  F ield         | OpenFOAM: The Open Source CFD Toolbox           |
|  \\    /   O peration     | Version:  2406                                  |
|   \\  /    A nd           | Website:  www.openfoam.com                      |
|    \\/     M anipulation  |                                                 |
\*---------------------------------------------------------------------------*/
FoamFile
{
    version     2.0;
    format      ascii;
    arch        "LSB;label=32;scalar=64";
    class       surfaceScalarField;
    location    "0.3";
    object      phi;
}
// * * * * * * * * * * * * * * * * * * * * * * * * * * * * * * * * * * * * * //

dimensions      [0 3 -1 0 0 0 0];

oriented        oriented;

internalField   nonuniform List<scalar> 
326221
(
-0.002270542
-0.005115581
0.007386123
-0.001393789
-0.0008767533
0.001042119
-0.002435907
0.0005570987
0.0004850199
-0.0006351265
0.001192225
-0.0006303798
-4.746637e-06
-0.0004099422
-0.0002204377
-5.577534e-05
-0.0003541668
0.0002563467
-0.000312122
0.0004738724
-0.0002175258
0.0007514625
-0.00027759
0.001398343
-0.0006468808
0.002432506
-0.001034163
0.003174995
-0.0007424888
0.00429465
-0.001119655
0.004072253
0.0002223974
0.001379245
0.002693007
-0.001627721
0.003006967
-0.001004696
-0.000623025
0.001401882
-0.002406578
0.001989675
-0.0005877924
0.0004626001
0.001527075
-0.002130741
0.002593341
-0.004047876
0.001917135
-0.004830358
0.0007824816
-0.004961825
0.0001314676
-0.004743461
-0.0002183645
-0.004383343
-0.0003601181
-0.003746085
-0.000637257
-0.002956096
-0.0007899893
-0.002145179
-0.0008109168
-0.001308151
-0.0008370287
-0.0002007838
-0.001107367
0.0009237815
-0.001124565
0.001939149
-0.001015367
0.003041958
-0.001102809
0.003774998
-0.0007330406
0.003676006
9.899198e-05
0.003032757
0.0006432489
0.002592492
0.0004402648
0.002550733
4.175955e-05
0.002881062
-0.0003303291
0.003528411
-0.0006473494
0.004279706
-0.0007512946
0.004535185
-0.0002554791
0.00293284
0.001602345
-2.924362e-05
0.002962084
-0.002387541
0.002358298
-0.001733568
-0.0006539735
-0.0008408905
-0.0008926771
-0.0006597597
-0.0001811308
-0.0006194401
-4.031969e-05
-0.0005487967
-7.064337e-05
-0.0003820813
-0.0001667154
-0.0001392288
-0.0002428524
0.0001399246
-0.0002791534
0.0003798003
-0.0002398757
0.0005969969
-0.0002171966
0.0009263964
-0.0003293995
0.001514447
-0.0005880502
0.002304571
-0.0007901244
0.002688765
-0.0003841938
0.001833844
0.0008549209
0.0001585399
0.001675304
-0.0009240195
0.001082559
-0.0007313789
-0.0001926406
-0.0002487402
-0.0004826387
1.508241e-06
-0.0002502484
8.510414e-05
-8.35959e-05
0.0001303376
-4.523345e-05
0.0001095084
2.082915e-05
-0.000223857
0.0003333654
-0.0009934582
0.0007696012
-0.001973495
0.0009800364
-0.002861987
0.0008884924
-0.003506167
0.0006441801
-0.003919307
0.0004131402
-0.004169774
0.0002504668
-0.004315847
0.000146073
-0.004389327
7.347969e-05
-0.004405523
1.619605e-05
-0.004379613
-2.590938e-05
-0.004316723
-6.289018e-05
-0.004153067
-0.0001636559
-0.004062815
-9.025181e-05
-0.003948248
-0.0001145675
-0.003819814
-0.0001284342
-0.003664843
-0.0001549712
-0.003496063
-0.0001687792
-0.003317406
-0.0001786571
-0.003101931
-0.0002154749
-0.002884737
-0.0002171941
-0.00266699
-0.0002177477
-0.00243166
-0.0002353297
-0.002191014
-0.0002406459
-0.00193159
-0.0002594243
-0.001666961
-0.0002646291
-0.001408922
-0.0002580381
-0.001131436
-0.0002774865
-0.0008311618
-0.0003002742
-0.0005297789
-0.0003013829
-0.0002859951
-0.0002437838
-2.988614e-05
-0.0002561089
0.0002030394
-0.0002329255
0.000472986
-0.0002699466
0.000729347
-0.000256361
0.000992738
-0.0002633909
0.001241898
-0.0002491597
0.001484032
-0.0002421347
0.0017118
-0.0002277676
0.001938452
-0.000226652
0.002139271
-0.0002008195
0.002330699
-0.0001914277
0.002504255
-0.0001735557
0.002648805
-0.0001445504
0.002778929
-0.0001301235
0.002969191
-0.0001902625
0.003076084
-0.000106893
0.003158314
-8.222977e-05
0.003220632
-6.231837e-05
0.003252969
-3.233648e-05
0.003258722
-5.75321e-06
0.003233138
2.558428e-05
0.003160874
7.226369e-05
0.003020688
0.000140186
0.002801613
0.0002190753
0.002476049
0.0003255634
0.002002426
0.0004736236
0.001355956
0.0006464699
0.0006060853
0.0007498707
-8.356945e-05
0.0006896547
-0.0005896437
0.0005060742
-0.0009289429
0.0003392992
-0.001137075
0.0002081323
-0.001231275
9.420014e-05
-0.001205209
-2.606587e-05
-0.001100927
-0.0001042829
-0.001137082
3.615534e-05
-0.001448626
0.0003115439
-0.001900084
0.0004514586
-0.002204613
0.0003045287
-0.00224035
3.573707e-05
-0.002083113
-0.0001572369
-0.001855978
-0.0002271358
-0.001636577
-0.0002194008
-0.001434017
-0.0002025599
-0.00119457
-0.0002394469
-0.0006483082
-0.0005462619
0.0003738397
-0.001022148
0.0003850408
-1.120106e-05
0.0006133673
-0.0002283265
0.0006632899
-4.992256e-05
0.000891246
-0.0002279562
0.001238224
-0.0003469778
0.001759077
-0.0005208533
0.002349113
-0.0005900358
0.003003147
-0.0006540341
0.003667332
-0.0006641845
0.004304181
-0.000636849
0.004845388
-0.0005412078
0.005311045
-0.0004656567
0.005666564
-0.0003555189
0.005911294
-0.0002447304
0.005944226
-3.293141e-05
0.005623376
0.0003208501
0.004855351
0.0007680247
0.003330249
0.001525102
0.0007692101
0.002561039
-0.001689249
0.002458459
-0.002645666
0.0009564165
-0.002576117
-6.954878e-05
-0.002628185
5.206805e-05
-0.00169991
-0.000928275
0.0002218906
-0.0019218
0.001085335
-0.0008634441
0.0001934839
0.0008918508
-0.001439026
0.00163251
-0.003056749
0.001617723
-0.002795893
-0.0002608565
-0.0009040973
-0.001891795
0.001065767
-0.001969865
0.002371439
-0.001305672
0.0033114
-0.0009399614
0.003965176
-0.000653776
0.004359625
-0.0003944486
0.004355131
4.494516e-06
0.003555963
0.000799168
0.001688354
0.001867609
-0.0003928523
0.002081206
-0.001445912
0.00105306
-0.001946482
0.00050057
-0.001822772
-0.0001237104
-0.001025147
-0.0007976251
-0.0004737502
-0.0005513964
0.0002469632
-0.0007207134
0.0008536431
-0.00060668
0.0002126679
0.0006409752
0.001478308
-0.00126564
0.002325897
-0.0008475895
-0.005701237
0.008027134
-0.005951065
0.0002498274
-0.005146968
-0.000804097
-0.004831861
-0.0003151064
-0.004516148
-0.000315713
-0.00427862
-0.0002375286
-0.004061603
-0.000217017
-0.003872878
-0.0001887247
-0.003616727
-0.0002561511
-0.003486247
-0.0001304798
-0.003376105
-0.0001101418
-0.003274571
-0.0001015345
-0.003184352
-9.021818e-05
-0.0030972
-8.715283e-05
-0.003014159
-8.304058e-05
-0.002935027
-7.913168e-05
-0.002864446
-7.058158e-05
-0.002799627
-6.481846e-05
-0.002737251
-6.237634e-05
-0.002675704
-6.15466e-05
-0.002618459
-5.72457e-05
-0.002563467
-5.499209e-05
-0.002512297
-5.116999e-05
-0.002466509
-4.578807e-05
-0.002419525
-4.698335e-05
-0.002372597
-4.692841e-05
-0.002325029
-4.756739e-05
-0.002280581
-4.444831e-05
-0.002240945
-3.963618e-05
-0.002204973
-3.597173e-05
-0.002167227
-3.774653e-05
-0.002129934
-3.7293e-05
-0.002090443
-3.949034e-05
-0.002055858
-3.458514e-05
-0.002023783
-3.207542e-05
-0.001990057
-3.372588e-05
-0.001955882
-3.417462e-05
-0.001920674
-3.52081e-05
-0.001889231
-3.144317e-05
-0.001860551
-2.868036e-05
-0.001892658
3.210689e-05
-0.001878066
-1.459189e-05
-0.001857534
-2.053213e-05
-0.001836836
-2.069705e-05
-0.00181897
-1.786676e-05
-0.001800385
-1.858509e-05
-0.001784003
-1.638168e-05
-0.001769427
-1.457556e-05
-0.001755734
-1.369354e-05
-0.00173886
-1.687385e-05
-0.001721778
-1.70815e-05
-0.001708557
-1.322131e-05
-0.001698067
-1.049006e-05
-0.001690338
-7.72866e-06
-0.001678855
-1.148389e-05
-0.001664357
-1.449723e-05
-0.00165227
-1.20873e-05
-0.00164257
-9.699669e-06
-0.001630742
-1.182883e-05
-0.001621431
-9.310906e-06
-0.001610812
-1.061874e-05
-0.001599263
-1.15489e-05
-0.001588765
-1.049839e-05
-0.001577145
-1.16192e-05
-0.001548762
-2.838327e-05
-0.001510493
-3.826923e-05
-0.001473786
-3.670655e-05
-0.001424132
-4.965426e-05
-0.001349013
-7.511916e-05
-0.001183549
-0.0001654643
-0.0009022173
-0.0002813313
-7.634767e-05
-0.0008258696
0.0007966792
-0.0008730269
0.001065843
-0.0002691633
0.001240932
-0.0001750898
0.00133265
-9.171779e-05
0.001393905
-6.12546e-05
0.001446994
-5.308956e-05
0.001481206
-3.421168e-05
0.001493456
-1.224982e-05
0.001501919
-8.463141e-06
0.001522126
-2.02073e-05
0.001542219
-2.009269e-05
0.00155902
-1.680066e-05
0.001569956
-1.093615e-05
0.001580786
-1.083035e-05
0.001591905
-1.111934e-05
0.001606333
-1.442743e-05
0.001619723
-1.33906e-05
0.001629678
-9.954554e-06
0.001640348
-1.066998e-05
0.001654618
-1.427001e-05
0.001667748
-1.312994e-05
0.001680431
-1.268336e-05
0.001696599
-1.616796e-05
0.001710279
-1.368004e-05
0.001729228
-1.894913e-05
0.001751565
-2.233639e-05
0.001769696
-1.813099e-05
0.001784403
-1.470726e-05
0.001801082
-1.66794e-05
0.001820636
-1.955383e-05
0.001833105
-1.246883e-05
0.001797976
3.51291e-05
0.001824307
-2.633096e-05
0.001857079
-3.277236e-05
0.001890448
-3.336898e-05
0.001924163
-3.371466e-05
0.001960461
-3.629813e-05
0.001994857
-3.439594e-05
0.002026284
-3.142706e-05
0.002060237
-3.395316e-05
0.002098114
-3.78772e-05
0.002139603
-4.148841e-05
0.002176066
-3.646277e-05
0.002210709
-3.464369e-05
0.002247784
-3.707515e-05
0.002288069
-4.028469e-05
0.002329154
-4.108467e-05
0.00237486
-4.570576e-05
0.002422358
-4.749803e-05
0.002470167
-4.780985e-05
0.002519629
-4.946132e-05
0.002565792
-4.616352e-05
0.00262067
-5.487748e-05
0.002677891
-5.722132e-05
0.002737344
-5.945329e-05
0.002801229
-6.38842e-05
0.002867107
-6.587893e-05
0.00293988
-7.277285e-05
0.003019345
-7.946475e-05
0.003100252
-8.090736e-05
0.003187746
-8.749351e-05
0.003287182
-9.94364e-05
0.003405119
-0.0001179367
0.003637919
-0.0002327995
0.003804394
-0.000166475
0.003992166
-0.0001877722
0.004200288
-0.0002081224
0.004465867
-0.0002655785
0.00472591
-0.000260043
0.005351971
-0.000626061
0.0002363895
0.0009890846
8.781439e-05
-0.001949926
0.001424421
-0.0007044996
0.001721627
-0.0004722954
0.001956022
-0.0003261135
0.002140484
-0.0002457168
0.00230235
-0.0002149547
0.002439472
-0.0001713337
0.002550602
-0.0001233801
0.002648004
-0.0001058655
0.002746505
-0.0001187077
0.002838303
-0.0001118915
0.002924126
-0.0001026231
0.003001151
-8.796123e-05
0.003074906
-8.458491e-05
0.003144137
-8.035094e-05
0.003213516
-8.380606e-05
0.003279601
-7.947608e-05
0.003341879
-7.223193e-05
0.003401869
-7.066075e-05
0.003462795
-7.519598e-05
0.003521422
-7.175621e-05
0.003578004
-6.926574e-05
0.003636264
-7.44284e-05
0.003690857
-6.827295e-05
0.003748323
-7.641454e-05
0.003806701
-8.071504e-05
0.003863164
-7.459387e-05
0.003915606
-6.714867e-05
0.003969593
-7.066719e-05
0.004023785
-7.374516e-05
0.004075454
-6.413799e-05
0.004039131
7.145167e-05
0.004102579
-8.977887e-05
0.004169263
-9.945631e-05
0.004236214
-0.0001003201
0.004303271
-0.0001007715
0.004371408
-0.0001044346
0.004439024
-0.0001020127
0.004503499
-9.590138e-05
0.004570375
-0.0001008295
0.004637976
-0.0001054782
0.004709843
-0.000113355
0.00477714
-0.0001037605
0.004844603
-0.0001021067
0.00491243
-0.0001049014
0.004983187
-0.0001110419
0.005053826
-0.0001117241
0.005128254
-0.0001201331
0.005204455
-0.0001236997
0.005280966
-0.0001243207
0.005360114
-0.0001286089
0.005435998
-0.0001220481
0.005519602
-0.0001384814
0.005603455
-0.0001410738
0.005691166
-0.0001471647
0.005780863
-0.0001535811
0.005873978
-0.0001589941
0.005971268
-0.0001700623
0.006075228
-0.0001834247
0.006180085
-0.0001857642
0.006291453
-0.0001988615
0.006412239
-0.0002202234
0.006548243
-0.0002539406
0.00686208
-0.0005466358
0.007046133
-0.0003505282
0.007256662
-0.0003983013
0.00748292
-0.0004343801
0.007780021
-0.0005626794
0.008023922
-0.0005039439
0.008759791
-0.00136193
0.007823605
0.001172576
-0.009397978
0.008580032
0.001067774
-0.008491852
-0.001710223
-0.008190494
-0.0006164648
-0.007846114
-0.0006600929
-0.007589571
-0.0004940714
-0.007349463
-0.0004571245
-0.007143007
-0.0003951815
-0.006803677
-0.0005954809
-0.006653191
-0.0002809652
-0.006520125
-0.0002432086
-0.006394169
-0.0002274899
-0.006278621
-0.0002057662
-0.006165318
-0.0002004563
-0.006057393
-0.0001909658
-0.005951805
-0.0001847192
-0.005854698
-0.0001676886
-0.005760464
-0.0001590521
-0.005670445
-0.0001523956
-0.005580148
-0.0001518435
-0.005494888
-0.0001425058
-0.005410632
-0.0001392484
-0.005330208
-0.0001315938
-0.005253509
-0.0001224869
-0.005176525
-0.0001239679
-0.005100741
-0.0001227119
-0.00502452
-0.0001237881
-0.004951693
-0.0001172757
-0.004881004
-0.0001103254
-0.004813952
-0.0001030231
-0.004744107
-0.0001075919
-0.004676523
-0.0001048775
-0.004606051
-0.0001099621
-0.004539965
-0.0001006713
-0.004474068
-9.797182e-05
-0.004407457
-0.0001003375
-0.004339976
-0.0001016557
-0.004271844
-0.00010334
-0.00420608
-9.720708e-05
-0.004141229
-9.353117e-05
-0.004177514
6.839234e-05
-0.004125669
-6.643755e-05
-0.004072043
-7.415831e-05
-0.004016924
-7.581543e-05
-0.003964385
-7.040616e-05
-0.00390931
-7.365999e-05
-0.003855824
-6.986756e-05
-0.003801355
-6.904491e-05
-0.003746885
-6.816331e-05
-0.003688726
-7.503299e-05
-0.003629864
-7.594361e-05
-0.003571884
-7.12006e-05
-0.003513205
-6.916941e-05
-0.003454192
-6.6742e-05
-0.003389781
-7.58948e-05
-0.003322008
-8.227046e-05
-0.003252793
-8.130139e-05
-0.003182671
-7.982256e-05
-0.003106679
-8.782069e-05
-0.003029496
-8.649338e-05
-0.002945864
-9.425129e-05
-0.00285678
-0.0001006328
-0.002761803
-0.0001054751
-0.002659664
-0.0001137585
-0.002537734
-0.0001503129
-0.002401984
-0.0001740195
-0.002256311
-0.0001823799
-0.002081548
-0.0002244164
-0.001864802
-0.0002918655
-0.001573069
-0.000457197
-0.001117896
-0.0007365045
-0.001855951
-0.0002450023
-9.227917e-05
0.000108955
5.954964e-05
-0.0003544745
0.0005381278
-0.0007065343
0.001105385
-0.0009142351
0.001777725
-0.001193193
0.002553662
-0.001365973
0.003414248
-0.001514621
0.004297071
-0.001547007
0.00515974
-0.001499518
0.005923843
-0.001305311
0.006606377
-0.00114819
0.007167823
-0.0009169654
0.007603714
-0.0006806214
0.007882538
-0.0003117549
0.007948968
0.00025442
0.007788979
0.000928013
0.007078423
0.002235658
0.004760119
0.004879343
0.0003447657
0.006873813
-0.003366996
0.004668178
-0.004185109
0.0007485638
-0.003857692
-0.0002753488
-0.00251145
-0.002274517
-0.000292008
-0.004141242
0.0009086417
-0.002064094
-0.0004474707
0.002247963
-0.003542621
0.00472766
-0.00498114
0.003056242
-0.00337805
-0.001863947
-0.0009546935
-0.004315152
0.001288779
-0.004213337
0.002974401
-0.002991294
0.004199135
-0.002164695
0.005086081
-0.001540722
0.005637485
-0.0009458533
0.005908648
-0.0002666677
0.005855379
0.0008524363
0.004588056
0.003134931
0.001297954
0.005371309
-0.001680539
0.004031553
-0.002549484
0.001369515
-0.002031801
-0.0006413932
-0.001129881
-0.001699545
-0.0003975749
-0.001283703
0.0005618151
-0.001680103
0.001455315
-0.00150018
0.001559812
0.0005364777
0.002572852
-0.00227868
0.0008233913
0.0009018715
0.01743056
-0.001498732
0.001320379
-2.777713e-06
-0.001483492
-5.556046e-05
-0.001312697
-0.0002414382
-0.001094769
-0.0003846431
-0.0007889684
-0.0005486532
-0.0004352545
-0.0006328672
-8.88921e-05
-0.0005862382
0.0002441237
-0.0005502125
0.000663708
-0.0007489838
0.00134812
-0.001272463
0.002325445
-0.001767449
0.003241712
-0.001300461
0.003088439
0.001008194
0.001467258
0.003296484
-1.398579e-05
0.002563804
-0.0003068428
0.0001002164
7.068468e-07
-0.0007901883
0.0001380422
-0.0003875838
-0.0002422529
0.0002966993
-0.001333133
0.001045647
-0.002735961
0.001423657
-0.004051983
0.001649387
-0.00527506
0.001992678
-0.006264268
0.001969244
-0.006861133
0.001485357
-0.007126526
0.0009095734
-0.007203438
0.0004900517
-0.007186931
0.0002339598
-0.007121958
8.110081e-05
-0.007028363
-2.01159e-05
-0.00691363
-9.85372e-05
-0.00677808
-0.0001614586
-0.006616622
-0.0002243487
-0.006306967
-0.0004733109
-0.006111042
-0.0002861767
-0.005892066
-0.0003335431
-0.00565782
-0.0003626807
-0.005395957
-0.0004168342
-0.005118506
-0.0004462303
-0.004830488
-0.0004666745
-0.004504618
-0.0005413448
-0.004175789
-0.0005460232
-0.00384448
-0.0005490566
-0.003493808
-0.000586002
-0.003136856
-0.0005975981
-0.002759892
-0.0006363882
-0.002375984
-0.0006485373
-0.001995864
-0.0006381578
-0.001594141
-0.00067921
-0.001171658
-0.0007227572
-0.0007522443
-0.0007207963
-0.0003984113
-0.0005976168
-3.00713e-05
-0.0006244489
0.0003105147
-0.0005735116
0.0006954799
-0.0006549118
0.001066613
-0.0006274944
0.001446259
-0.0006430367
0.001810762
-0.0006136622
0.002167139
-0.000598512
0.002507087
-0.0005677158
0.002844377
-0.0005639413
0.003153957
-0.0005104003
0.003452735
-0.0004902054
0.003731872
-0.0004526925
0.003980278
-0.0003929571
0.004213675
-0.0003635203
0.004531181
-0.000507768
0.004732556
-0.0003082681
0.004913875
-0.0002635493
0.005075243
-0.0002236862
0.005206737
-0.0001638307
0.005315972
-0.0001149881
0.005407779
-6.62221e-05
0.005475724
4.318801e-06
0.005503603
0.0001123063
0.005481749
0.0002409298
0.005381855
0.0004254573
0.00514221
0.0007132686
0.004662518
0.001126162
0.003875704
0.001536684
0.002833984
0.001731375
0.001660263
0.001679795
0.0004757668
0.001523796
-0.0005942683
0.001278167
-0.001378795
0.0008787272
-0.00178631
0.0003814488
-0.001970873
8.027989e-05
-0.002219857
0.0002851396
-0.002584312
0.0006759989
-0.00287939
0.0007465362
-0.002936002
0.0003611412
-0.002791685
-0.0001085804
-0.002549504
-0.000399418
-0.002294275
-0.0004823644
-0.002078116
-0.00043556
-0.001839838
-0.0004408378
-0.001486195
-0.0005930893
-0.0007183447
-0.001314113
0.0004913712
-0.002231864
0.0003878909
-0.001167128
0.01637686
-0.002294984
0.0002511031
0.0006112196
-0.005342112
0.0005454236
0.0005508159
-0.001129437
0.002867086
-0.001081796
-5.238796e-05
-0.0006829195
-0.0006193139
-0.0001703253
-0.000866761
0.0002526804
-0.0007351277
0.0005734655
-0.0005383108
0.000929301
-0.0006334256
0.001684789
-0.001402369
0.00292038
-0.002269753
0.003848034
-0.001670143
0.005300776
-0.002572398
0.006216558
-0.0006933848
0.004320428
0.004589138
0.0005848707
0.006742523
0.0002615122
-0.0002996664
0.002174647
-0.004319714
0.001561259
2.559603e-05
-0.001985859
0.005074192
-0.005508763
0.006116246
-0.006705988
0.00311436
-0.006824179
0.0009006728
-0.006651722
-4.098953e-05
-0.006220339
-0.0006497473
-0.005659804
-0.0009206537
-0.004782589
-0.001514472
-0.003732314
-0.001840265
-0.002671678
-0.001871553
-0.001565749
-0.001942957
-0.0001569386
-0.002516177
0.001265098
-0.002546602
0.002504926
-0.002255195
0.003758617
-0.0023565
0.00500828
-0.001982703
0.006053654
-0.0009463824
0.006340523
0.0003563806
0.005757682
0.001023105
0.004941778
0.0008576634
0.004723469
-0.0001120201
0.005241914
-0.001165794
0.005969555
-0.001478936
0.006559149
-0.000845073
0.005919783
0.002241711
0.002162505
0.006719362
-0.002016965
0.006537767
-0.001993201
-0.0006777374
-0.001565498
0.0007368477
-0.009979721
0.02561973
-0.002647597
0.003635548
-0.0009847056
-0.007005003
-0.000882363
0.0004484734
-0.001761674
0.003746396
-0.001368926
-0.0004451357
-0.0009090946
-0.001079145
-0.0002847468
-0.001491109
0.0001873173
-0.001207192
0.0005249051
-0.0008758986
0.000849438
-0.0009579585
0.001637693
-0.002190624
0.003066785
-0.003698845
0.004196289
-0.002799647
0.005850167
-0.004226276
0.007215458
-0.002058676
0.00659526
0.005209336
0.003546023
0.00979176
0.002098293
0.001148064
0.001942346
-0.004163767
-0.0008532332
0.002821175
-0.005220576
0.009441535
-0.007702822
0.008598492
-0.00820807
0.003619608
-0.008353976
0.001046579
-0.008184803
-0.0002101621
-0.007651028
-0.001183522
-0.006967029
-0.001604653
-0.005891006
-0.002590494
-0.004611465
-0.003119806
-0.003323696
-0.003159322
-0.001972502
-0.00329415
-0.0002782669
-0.004210413
0.001416903
-0.004241772
0.002942347
-0.003780639
0.00445408
-0.003868233
0.005825123
-0.003353746
0.007182354
-0.002303613
0.008234724
-0.0006959902
0.008426267
0.0008315625
0.007877118
0.001406812
0.007521607
0.0002434912
0.007824923
-0.00146911
0.008464835
-0.002118849
0.008771576
-0.001151814
0.008214142
0.002799145
0.004940512
0.009992992
-0.0002491709
0.01172745
-0.00220105
0.001274141
-0.001869738
-0.00189681
-0.002208195
0.0003356793
-0.002485041
0.0002212853
-0.002415824
-0.0003106552
-0.002273636
-0.0005268313
-0.002028198
-0.0007940905
-0.001699438
-0.0009616278
-0.001335376
-0.0009502994
-0.0009871381
-0.0008984508
-0.0005365781
-0.001199544
0.0001675064
-0.001976547
0.001246744
-0.002846686
0.002592186
-0.002645904
0.003217182
0.0003831985
0.002289427
0.004224239
0.0007183233
0.004134907
-2.522014e-06
0.0008210617
-0.0003604534
-0.0004322569
-0.00164459
0.0008965528
-0.003624518
0.002276628
-0.00554552
0.002966648
-0.007095778
0.002973915
-0.008123478
0.002677088
-0.008709565
0.002578765
-0.008947631
0.00220731
-0.008973404
0.001511131
-0.008929947
0.0008661162
-0.008871037
0.0004311419
-0.008795106
0.0001580292
-0.008696854
-1.715164e-05
-0.00857424
-0.0001427293
-0.008421934
-0.0002508433
-0.008242381
-0.0003410122
-0.008035402
-0.0004313279
-0.007653763
-0.0008549494
-0.007405396
-0.000534544
-0.007131736
-0.0006072032
-0.006842013
-0.000652403
-0.006520703
-0.000738144
-0.00618071
-0.0007862233
-0.00583018
-0.0008172054
-0.005435185
-0.0009363393
-0.005036636
-0.0009445725
-0.00463593
-0.0009497627
-0.004211908
-0.001010024
-0.003780713
-0.001028793
-0.003326191
-0.001090911
-0.002863073
-0.001111655
-0.00240397
-0.001097261
-0.001918958
-0.001164221
-0.0014109
-0.001230816
-0.0009084731
-0.001223223
-0.0004814233
-0.001024667
-3.713061e-05
-0.001068742
0.0003787025
-0.0009893447
0.0008455841
-0.001121793
0.001295542
-0.001077452
0.001753775
-0.001101269
0.002193227
-0.001053115
0.002623253
-0.001028537
0.003034016
-0.0009784787
0.003442061
-0.0009719867
0.0038172
-0.0008855395
0.004180691
-0.0008536965
0.004520701
-0.0007927016
0.004825526
-0.0006977825
0.005114566
-0.0006525605
0.005501647
-0.0008948485
0.005750803
-0.0005574249
0.005979628
-0.0004923741
0.006186241
-0.0004302994
0.006359477
-0.000337066
0.006507848
-0.0002633593
0.006632278
-0.000190652
0.006729533
-9.293635e-05
0.006794096
4.774296e-05
0.006835808
0.0001992184
0.006855749
0.0004055163
0.006849586
0.0007194316
0.006773249
0.001202499
0.006527909
0.001782025
0.005999699
0.002259585
0.005131061
0.002548433
0.003937196
0.002717661
0.002475194
0.002740169
0.0008514563
0.002502465
-0.0007757607
0.002008666
-0.002000561
0.00130508
-0.002619464
0.0009040425
-0.003004339
0.001060874
-0.003276674
0.001018871
-0.003299879
0.0003843463
-0.003082107
-0.0003263522
-0.002713579
-0.0007679468
-0.002397014
-0.0007989289
-0.002247604
-0.0005849699
-0.002134447
-0.0005539952
-0.001839391
-0.000888145
-0.0009023099
-0.002251194
0.000520928
-0.003655102
1.321167e-05
0.0008956072
-0.0003442155
0.0004663822
0.0001107714
-0.0008094615
0.0006766712
-0.001272434
0.001335249
-0.001572812
0.002128125
-0.00198607
0.003049686
-0.002287534
0.004078233
-0.002543168
0.005144603
-0.002613377
0.006195227
-0.002550142
0.007123617
-0.002233702
0.007949111
-0.001973683
0.008621847
-0.001589702
0.009151967
-0.001210741
0.009458252
-0.0006180398
0.009452705
0.0002599671
0.009228394
0.001152325
0.008841202
0.002622849
0.007743024
0.005977522
0.003987824
0.01062901
-0.001807763
0.01046377
-0.005029023
0.003969823
-0.005108292
-0.0001960797
-0.003506272
-0.003876536
-0.00104066
-0.006606855
1.550015e-05
-0.003120254
-0.002026003
0.004289467
-0.005520708
0.008222364
-0.006118382
0.003653917
-0.003737914
-0.004244415
-0.001002967
-0.007050099
0.001765668
-0.006981972
0.003819773
-0.005045399
0.005259687
-0.003604609
0.006268242
-0.002549277
0.006906728
-0.001584339
0.007137047
-0.0004969872
0.007051155
0.0009383283
0.006492289
0.003693798
0.003787735
0.008075862
-0.000420585
0.008239873
-0.002233685
0.003182615
-0.001605259
-0.001269819
-0.0007746862
-0.002530118
-0.0001181566
-0.001940233
0.0009524775
-0.002750738
0.001915561
-0.002463263
0.002261475
0.0001905638
0.002725229
-0.002742434
-0.001118819
0.00474592
-0.01080638
0.02711812
-0.01157539
0.001836782
-0.01066598
-0.002619626
-0.01028335
-0.0009990986
-0.009901322
-0.001042121
-0.009616091
-0.0007793017
-0.009352238
-0.0007209778
-0.00913089
-0.000616529
-0.008741967
-0.000984404
-0.008578445
-0.0004444874
-0.008429776
-0.0003918774
-0.008288484
-0.000368782
-0.008157848
-0.0003364029
-0.008028904
-0.0003293996
-0.007905882
-0.0003139881
-0.007784463
-0.0003061379
-0.007671698
-0.0002804539
-0.007560745
-0.0002700049
-0.007454394
-0.0002587472
-0.007347022
-0.000259215
-0.007245011
-0.0002445166
-0.007143253
-0.000241007
-0.007045065
-0.0002297819
-0.006950269
-0.0002172828
-0.00685488
-0.0002193562
-0.006761104
-0.0002164879
-0.006666535
-0.000218357
-0.006575308
-0.0002085034
-0.00648509
-0.000200543
-0.006398419
-0.000189694
-0.006307898
-0.0001981129
-0.006220435
-0.000192341
-0.006129048
-0.0002013489
-0.00604213
-0.0001875893
-0.005954294
-0.0001858078
-0.005865465
-0.0001891661
-0.005775531
-0.0001915899
-0.005684303
-0.0001945676
-0.005593844
-0.0001876669
-0.005501408
-0.0001859669
-0.005529992
9.697628e-05
-0.005447446
-0.0001489833
-0.005370707
-0.0001508975
-0.005290639
-0.0001558831
-0.005213577
-0.0001474683
-0.005132767
-0.0001544698
-0.005053539
-0.000149096
-0.004972383
-0.0001502003
-0.004891084
-0.0001494626
-0.004805383
-0.0001607342
-0.004718818
-0.0001625085
-0.004632731
-0.0001572878
-0.004544931
-0.0001569692
-0.004456418
-0.0001552546
-0.004361703
-0.0001706099
-0.004263347
-0.0001806271
-0.004163474
-0.0001811742
-0.004062414
-0.0001808826
-0.003954098
-0.0001961359
-0.00384485
-0.0001957417
-0.003728197
-0.0002109042
-0.003605988
-0.0002228417
-0.003477108
-0.0002343555
-0.003340575
-0.000250292
-0.003180594
-0.0003102936
-0.003006798
-0.0003478154
-0.002825446
-0.000363732
-0.002609985
-0.0004398776
-0.002344725
-0.0005571251
-0.00197557
-0.0008263522
-0.001301641
-0.001410433
-0.0001121025
-0.00304549
0.001125543
-0.003187571
0.001784586
-0.001363543
0.002155814
-0.0008435234
0.002441296
-0.0006115956
0.002668686
-0.0004731067
0.002872714
-0.0004189825
0.00305066
-0.0003492798
0.00319873
-0.0002714495
0.003329651
-0.0002367867
0.003462725
-0.0002517815
0.003588077
-0.000237244
0.003707505
-0.000222051
0.003816258
-0.0001967137
0.003921275
-0.0001896024
0.004020565
-0.0001796413
0.004120058
-0.000183299
0.00421597
-0.0001753877
0.004307378
-0.0001636401
0.004395886
-0.0001591684
0.004485194
-0.0001645046
0.004571803
-0.0001583647
0.004655593
-0.0001530553
0.004741446
-0.0001602817
0.004822184
-0.0001490115
0.004905674
-0.0001599037
0.004989721
-0.0001647624
0.00507208
-0.0001569525
0.005149935
-0.0001450038
0.005229473
-0.0001502052
0.005307688
-0.0001519607
0.005391138
-0.0001475873
0.005364609
9.797998e-05
0.005456369
-0.0001815382
0.005548655
-0.0001917428
0.005639316
-0.0001909814
0.005729354
-0.0001908088
0.005819926
-0.0001950069
0.005910084
-0.0001921707
0.005996461
-0.0001822787
0.006085094
-0.0001894623
0.006172958
-0.0001933424
0.006265571
-0.0002059678
0.006353005
-0.0001911945
0.006441022
-0.000190124
0.006528563
-0.0001924424
0.006618881
-0.0002013597
0.006708216
-0.0002010594
0.006801118
-0.000213035
0.006895466
-0.0002180471
0.0069897
-0.0002185554
0.007087188
-0.0002260964
0.007180232
-0.0002150926
0.00728144
-0.0002396892
0.007381534
-0.0002411681
0.007485804
-0.0002514349
0.007591359
-0.0002591362
0.007700152
-0.0002677864
0.00781244
-0.0002823508
0.0079314
-0.0003023839
0.008050731
-0.0003050955
0.008176342
-0.0003244723
0.008311756
-0.0003556375
0.008458973
-0.0004011581
0.008819186
-0.0009068491
0.00901536
-0.0005467022
0.009245234
-0.0006281746
0.009495766
-0.0006849123
0.009826581
-0.0008934948
0.01013365
-0.0008110115
0.01088671
-0.002114994
0.002079567
0.001177803
0.0001327487
-0.004498123
0.002003952
-0.002189692
0.002464407
-0.001303978
0.002813003
-0.0009601912
0.003097651
-0.000757755
0.003353451
-0.0006747828
0.003575963
-0.0005717916
0.003763524
-0.0004590105
0.003930115
-0.0004033776
0.004098404
-0.0004200705
0.004256676
-0.0003955167
0.004407856
-0.0003732301
0.004546403
-0.000335261
0.004679811
-0.0003230107
0.004806182
-0.0003060126
0.004931794
-0.000308911
0.005053344
-0.000296937
0.005168682
-0.0002789788
0.005280656
-0.0002711418
0.005392872
-0.0002767206
0.00550166
-0.0002671529
0.005606776
-0.0002581717
0.005714342
-0.0002678472
0.005815173
-0.000249843
0.005919274
-0.0002640046
0.006023994
-0.0002694825
0.006126159
-0.0002591175
0.006223571
-0.0002424154
0.006322463
-0.0002490975
0.006419749
-0.0002492466
0.00652463
-0.0002524677
0.006498303
0.000124306
0.006609717
-0.0002929519
0.006723772
-0.0003057971
0.006834506
-0.0003017161
0.006944472
-0.0003007749
0.007055157
-0.0003056919
0.00716496
-0.0003019734
0.007270382
-0.0002877004
0.007378206
-0.0002972866
0.007485058
-0.0003001942
0.007597369
-0.0003182791
0.007703453
-0.0002972777
0.007810148
-0.0002968192
0.007916437
-0.000298732
0.008025602
-0.0003105246
0.008133494
-0.000308951
0.008245694
-0.0003252353
0.008359275
-0.0003316277
0.00847276
-0.0003320402
0.008590208
-0.0003435444
0.008701764
-0.0003266487
0.008823719
-0.000361645
0.00894345
-0.000360899
0.009067984
-0.0003759682
0.009194395
-0.0003855475
0.009323564
-0.0003969556
0.009457645
-0.0004164316
0.009598777
-0.0004435153
0.009740169
-0.0004464885
0.009888886
-0.0004731892
0.01004929
-0.000516046
0.0104368
-0.0007886672
0.01065187
-0.001121916
0.01088138
-0.0007762071
0.01115368
-0.0009004762
0.01145988
-0.0009911162
0.01185295
-0.001286567
0.01228878
-0.001246835
0.01298375
-0.002809968
0.01234101
0.002722306
-0.01378098
0.0132869
0.002330864
-0.01292875
-0.00347186
-0.01239475
-0.001533099
-0.01194145
-0.00149542
-0.01159369
-0.001127062
-0.01127935
-0.001035319
-0.011019
-0.0008768788
-0.01077635
-0.001227052
-0.01036103
-0.0008598072
-0.01018543
-0.0005674721
-0.01001791
-0.0005363076
-0.009863185
-0.0004911258
-0.009710303
-0.0004822816
-0.00956414
-0.0004601515
-0.009419849
-0.0004504285
-0.009285183
-0.0004151195
-0.009152951
-0.000402237
-0.009025755
-0.0003859429
-0.00889728
-0.0003876902
-0.00877496
-0.0003668364
-0.008653055
-0.0003629124
-0.008534733
-0.000348104
-0.008420845
-0.0003311707
-0.008305928