/*--------------------------------*- C++ -*----------------------------------*\
| =========                 |                                                 |
| \\      /  F ield         | OpenFOAM: The Open Source CFD Toolbox           |
|  \\    /   O peration     | Version:  2406                                  |
|   \\  /    A nd           | Website:  www.openfoam.com                      |
|    \\/     M anipulation  |                                                 |
\*---------------------------------------------------------------------------*/
FoamFile
{
    version     2.0;
    format      ascii;
    arch        "LSB;label=32;scalar=64";
    class       volVectorField;
    location    "0.06";
    object      U;
}
// * * * * * * * * * * * * * * * * * * * * * * * * * * * * * * * * * * * * * //

dimensions      [0 1 -1 0 0 0 0];

internalField   nonuniform List<vector> 
4562
(
(0.0100098 4.758105e-05 -1.37873e-26)
(0.01000162 5.535352e-06 0)
(0.01000908 2.316177e-05 0)
(0.00999997 5.759199e-06 1.19455e-26)
(0.01009722 3.002081e-05 0)
(0.01000569 8.259725e-06 5.953249e-27)
(0.009953113 3.897719e-05 1.924501e-26)
(0.009980085 2.085497e-05 -1.674361e-26)
(0.009983279 8.449925e-06 -2.019515e-25)
(0.01000002 6.15948e-06 8.120888e-27)
(0.00996712 8.508326e-05 -4.287295e-25)
(0.01001894 3.398936e-05 9.241883e-26)
(0.009986137 3.786957e-05 0)
(0.01000122 2.222473e-05 0)
(0.0101923 0.000168818 3.978437e-24)
(0.01000985 4.171659e-06 -1.819937e-26)
(0.009966983 1.45496e-05 2.371998e-25)
(0.01003003 2.687296e-05 -1.935089e-25)
(0.009937735 3.186594e-05 6.182002e-25)
(0.01001133 2.845841e-05 0)
(0.009969846 0.0002688308 1.597426e-24)
(0.009992781 2.310852e-05 0)
(0.009961594 7.030356e-05 0)
(0.01001037 6.695913e-06 2.376072e-26)
(0.01001065 7.885737e-06 0)
(0.009991165 5.57866e-05 1.807162e-25)
(0.009978812 1.638828e-05 0)
(0.009989076 2.478473e-05 -2.818375e-25)
(0.009920732 0.0001421398 0)
(0.01005772 0.0001456028 0)
(0.01000305 4.450852e-05 4.55975e-26)
(0.01001394 6.589136e-06 -1.237594e-26)
(0.01000268 1.819399e-05 2.918889e-26)
(0.009961289 3.907935e-05 5.063783e-25)
(0.01003872 5.431454e-05 5.04137e-25)
(0.01001191 1.683505e-05 -2.040445e-26)
(0.009932723 0.0001710232 -9.385284e-25)
(0.009988841 8.823405e-06 0)
(0.01001885 5.392944e-06 4.872586e-26)
(0.01002511 1.912208e-05 4.223597e-26)
(0.009970296 1.228984e-05 0)
(0.009995436 2.015824e-06 -3.125873e-28)
(0.009967321 2.386281e-05 -4.718963e-25)
(0.009998957 8.778558e-06 -1.70775e-26)
(0.01000886 6.765361e-06 -3.519559e-27)
(0.00997139 2.212978e-05 -9.445228e-25)
(0.01000883 7.959389e-06 0)
(0.009997308 2.798485e-06 0)
(0.009995198 6.258152e-06 0)
(0.01002061 6.836284e-05 2.357573e-26)
(0.009995746 7.804231e-06 0)
(0.009999383 4.317516e-05 5.295295e-26)
(0.01002603 1.069354e-06 4.296609e-25)
(0.009954546 4.265711e-05 0)
(0.01002121 8.370928e-06 -5.686617e-26)
(0.01015313 0.0001968996 0)
(0.009956306 3.939533e-05 3.449474e-25)
(0.009939894 5.534801e-05 1.162611e-24)
(0.009961155 3.37895e-05 -1.052384e-24)
(0.01014336 0.0001411732 0)
(0.01000459 1.24337e-05 1.144266e-27)
(0.009945502 0.0001252726 -7.291849e-25)
(0.009974047 3.602266e-05 -4.100578e-25)
(0.01001888 4.749765e-05 -1.809077e-25)
(0.009973811 1.101078e-05 6.244797e-26)
(0.01006697 0.0001887904 -3.412857e-25)
(0.009992251 3.631401e-05 -1.558475e-25)
(0.009991762 5.264945e-05 1.64659e-26)
(0.01002059 6.407454e-05 0)
(0.009997542 2.247855e-05 0)
(0.009944122 6.468738e-05 0)
(0.009990911 1.259964e-05 -1.077266e-25)
(0.01005798 9.379241e-05 0)
(0.009983654 1.034118e-05 -9.031139e-26)
(0.009969802 2.734522e-05 3.656034e-25)
(0.01008276 0.0001039013 4.059324e-25)
(0.01000842 4.024045e-05 -1.164658e-26)
(0.009985894 1.681744e-05 -2.909638e-25)
(0.01000723 6.569354e-05 0)
(0.0101694 9.768192e-05 1.694713e-24)
(0.01014603 3.147883e-05 4.066695e-24)
(0.01004997 4.565632e-05 -4.342354e-25)
(0.01003177 0.0002434137 2.093458e-25)
(0.009996888 1.201478e-05 0)
(0.009962637 4.055471e-05 0)
(0.009993138 5.30468e-06 -4.99075e-26)
(0.01001574 6.260074e-06 3.497118e-26)
(0.009993387 2.105137e-05 -9.645425e-26)
(0.009982673 1.779523e-05 0)
(0.009994647 3.556358e-05 -8.1918e-26)
(0.009990581 1.149621e-05 0)
(0.01001292 7.80932e-06 0)
(0.009985835 2.208237e-05 -1.063383e-25)
(0.0100042 1.929087e-05 -9.862648e-27)
(0.01000743 0.0001033919 0)
(0.009972938 0.0001072463 0)
(0.01001379 6.925716e-06 0)
(0.009987398 7.504431e-06 2.382872e-26)
(0.009926025 9.353439e-05 0)
(0.009957562 4.803085e-05 2.181238e-26)
(0.009999346 2.656716e-05 5.014793e-26)
(0.009936966 9.071758e-05 4.741065e-25)
(0.009999124 1.242234e-05 6.185437e-26)
(0.009981132 0.0002894492 0)
(0.01000203 3.989688e-05 2.251151e-26)
(0.009991212 0.0001297894 0)
(0.009981876 1.868211e-05 -1.356071e-25)
(0.01000203 2.58133e-05 0)
(0.01000075 1.110436e-05 9.78617e-27)
(0.01001536 4.833409e-06 0)
(0.009984274 5.196649e-05 1.497827e-25)
(0.01002864 9.777117e-05 1.242058e-25)
(0.01000382 3.81136e-05 -1.27952e-26)
(0.009943871 3.392037e-05 0)
(0.01006984 0.0001997216 0)
(0.009995773 1.923131e-06 8.836056e-27)
(0.01013801 8.470375e-05 -1.784523e-24)
(0.009983704 2.438583e-05 2.648993e-25)
(0.009932302 0.0001215219 -6.053471e-25)
(0.009991077 2.997666e-05 -2.785637e-25)
(0.01004252 5.594482e-05 -1.111479e-24)
(0.009977405 1.067299e-05 2.816998e-25)
(0.009993767 6.54958e-06 -4.280403e-26)
(0.009999553 9.903401e-06 -9.924128e-27)
(0.009972042 4.782147e-05 3.046397e-25)
(0.01000128 1.729372e-05 -3.770494e-26)
(0.009993656 1.71109e-05 -4.837676e-26)
(0.01000186 1.280486e-05 5.927599e-27)
(0.0100104 0.0001012697 -1.937753e-26)
(0.01001452 7.442194e-05 7.885816e-26)
(0.01002277 3.789603e-05 -8.643164e-27)
(0.00999468 7.546197e-06 -3.897375e-26)
(0.009992638 0.00012715 -1.007565e-25)
(0.0100027 5.412016e-06 -8.922536e-27)
(0.01000513 3.991979e-05 -7.499273e-27)
(0.01012426 0.0001966414 -1.863252e-24)
(0.009947793 5.816615e-05 0)
(0.009995091 1.709596e-05 -1.149196e-25)
(0.01005403 2.261008e-05 0)
(0.0100041 6.406381e-06 -1.245565e-27)
(0.01003534 0.0002120169 0)
(0.01005351 5.269065e-05 -4.134281e-25)
(0.01001634 8.364229e-06 -2.862656e-26)
(0.01013064 0.0002299646 -6.904521e-25)
(0.009991479 6.855474e-05 0)
(0.01000299 2.4134e-05 0)
(0.009963624 5.219364e-05 0)
(0.009994146 1.186133e-05 -4.149967e-26)
(0.01002299 4.854203e-05 2.108308e-25)
(0.0100369 6.606832e-06 -8.428735e-25)
(0.01000046 8.437185e-06 0)
(0.009955717 0.000120009 0)
(0.009999326 2.238294e-05 0)
(0.01002455 3.053102e-05 1.582791e-25)
(0.01000373 8.028567e-06 0)
(0.01004024 5.044003e-05 3.261364e-25)
(0.009991636 7.950911e-06 0)
(0.01009347 0.0002287093 -7.939207e-25)
(0.01000574 3.115216e-05 1.408099e-26)
(0.009996103 7.127845e-06 -6.508546e-26)
(0.009988292 5.212339e-05 -4.503204e-25)
(0.01008386 9.94286e-05 -5.354419e-25)
(0.01006126 0.0001580107 0)
(0.009994612 2.553191e-06 1.319125e-26)
(0.009992813 1.085251e-05 -6.171903e-26)
(0.01015891 0.0001959708 4.721882e-25)
(0.01001286 1.626886e-05 -4.422992e-26)
(0.01001009 6.892232e-06 -3.120698e-26)
(0.009957603 6.836822e-05 -3.819192e-25)
(0.01004432 6.470114e-05 2.676168e-25)
(0.009981828 0.0002703021 -2.926102e-24)
(0.01001913 2.40019e-05 -6.631002e-27)
(0.01002435 0.0001125639 -1.70299e-25)
(0.01000938 1.980307e-05 0)
(0.009990609 0.0001145284 -2.995022e-25)
(0.01000703 3.04149e-05 -7.489021e-27)
(0.009994845 3.96574e-06 1.202221e-26)
(0.009993377 6.755838e-06 9.205351e-26)
(0.009981373 4.47277e-05 1.337555e-26)
(0.009987871 1.128819e-05 0)
(0.01000426 6.636566e-06 0)
(0.009968709 3.677166e-05 5.856312e-25)
(0.009962633 5.047608e-05 6.080236e-25)
(0.01019466 0.0001593402 -2.830542e-25)
(0.01001177 0.0001073548 0)
(0.0100022 3.334118e-05 -1.833105e-26)
(0.009990322 0.0001513249 -4.622612e-25)
(0.01001174 4.334832e-05 2.120027e-26)
(0.009989482 7.896833e-06 -1.949745e-26)
(0.01003534 0.0001584803 0)
(0.009982421 0.0001712503 0)
(0.01002324 0.000173215 2.955449e-25)
(0.0100399 5.834073e-05 0)
(0.01000623 1.661767e-05 -1.625236e-26)
(0.01000626 0.0001145392 0)
(0.009987464 1.162001e-05 -2.621429e-25)
(0.009954034 2.295263e-05 2.947748e-25)
(0.009959532 4.83579e-05 6.408615e-25)
(0.010043 6.701607e-05 -8.392672e-26)
(0.009998486 6.650721e-06 8.896971e-27)
(0.009994456 1.048892e-05 1.072931e-25)
(0.009977475 5.279369e-05 0)
(0.01001015 3.736208e-05 0)
(0.01002597 0.0001335501 -5.26587e-26)
(0.009951834 0.0001036401 -3.106829e-25)
(0.01000909 1.408002e-05 0)
(0.01009911 0.0001471558 -6.916409e-25)
(0.0101104 0.0001963567 -7.172584e-25)
(0.0100334 5.697997e-05 3.018611e-25)
(0.009981724 1.35364e-05 2.204298e-25)
(0.010011 6.698632e-06 -1.215539e-26)
(0.009969632 0.0001240653 0)
(0.009993658 5.059479e-06 -4.168028e-26)
(0.01001288 8.603058e-06 -2.029858e-26)
(0.01005487 0.0001403507 0)
(0.01010498 0.0001932347 -3.472043e-25)
(0.01000061 1.204591e-05 0)
(0.01000052 5.010902e-06 -9.250347e-28)
(0.01000793 4.46386e-05 0)
(0.01010439 0.0002375686 -2.745305e-25)
(0.0100031 1.189993e-05 -8.336844e-27)
(0.01007008 0.0002673542 4.031343e-25)
(0.01004187 8.058707e-05 0)
(0.01002034 8.187567e-06 3.617913e-26)
(0.009965746 7.325788e-05 0)
(0.009969172 4.571285e-05 -1.32271e-25)
(0.009978915 0.0001111675 -1.912743e-25)
(0.009973934 7.881292e-05 9.776404e-26)
(0.01004659 0.0002048043 0)
(0.009975092 1.711553e-05 0)
(0.01000162 5.644143e-06 -1.426513e-27)
(0.009969203 4.923005e-05 2.758637e-25)
(0.01002905 3.565484e-05 2.258521e-25)
(0.009976477 6.133654e-05 4.948856e-25)
(0.009988389 7.316046e-06 9.338286e-26)
(0.009947126 5.556832e-05 0)
(0.009953619 3.457983e-05 -2.728607e-25)
(0.01007706 0.0002161024 -9.866295e-26)
(0.01003163 5.452512e-05 0)
(0.009979889 9.524841e-06 0)
(0.00997676 1.028319e-05 -5.454499e-25)
(0.009988289 2.416728e-05 -1.689116e-25)
(0.01001361 0.0001227471 0)
(0.009997569 3.211365e-05 1.045773e-25)
(0.0100128 3.098583e-05 -3.029766e-26)
(0.01014048 0.0001642084 -5.388185e-25)
(0.009988094 1.722003e-05 8.473565e-26)
(0.009955556 9.139956e-05 -4.237285e-25)
(0.01000807 4.326392e-05 1.453998e-26)
(0.009993898 4.780395e-06 -7.076398e-27)
(0.01000214 6.005595e-06 2.863473e-27)
(0.009996579 2.139876e-05 -1.522223e-25)
(0.009999688 1.673382e-05 3.67807e-26)
(0.009996235 1.128814e-05 3.939735e-26)
(0.0100148 1.185599e-05 8.066106e-26)
(0.01001643 2.178816e-05 -6.490749e-26)
(0.01000277 8.52798e-06 0)
(0.009972413 3.19274e-05 -9.067433e-25)
(0.009976033 1.076271e-05 3.29154e-25)
(0.009950451 0.0001388397 -8.774473e-25)
(0.01000369 0.000171458 -3.266985e-25)
(0.00998646 1.005504e-05 9.03732e-27)
(0.01002614 3.678516e-05 1.49157e-25)
(0.01000741 1.886974e-05 2.874873e-26)
(0.01007326 0.0001143448 -1.690958e-25)
(0.01000522 3.859836e-05 1.16925e-26)
(0.01000625 6.658708e-06 0)
(0.01001919 5.036758e-05 1.127011e-25)
(0.01001786 7.813877e-06 6.72794e-26)
(0.0100147 7.274283e-06 -2.660351e-26)
(0.009996847 4.068543e-06 0)
(0.009993162 2.002196e-05 1.465089e-25)
(0.009982114 3.293171e-05 1.770504e-25)
(0.01004826 4.856774e-05 -4.103842e-25)
(0.01007847 6.024713e-05 -7.771015e-26)
(0.009999202 5.315181e-06 0)
(0.01000945 7.324294e-06 -6.344988e-27)
(0.01000102 7.797363e-06 -1.590198e-26)
(0.01001384 2.705028e-05 5.607028e-26)
(0.01012272 0.0001220216 -7.761113e-25)
(0.009991288 4.176234e-05 1.342215e-25)
(0.01001656 7.089907e-06 -2.159306e-26)
(0.009980955 2.210223e-05 0)
(0.009989397 2.312353e-05 -7.27259e-26)
(0.01001107 0.000215428 2.590517e-25)
(0.01002036 1.384078e-05 -4.331778e-26)
(0.01001341 1.257963e-05 7.992976e-26)
(0.009998589 8.215341e-06 2.588128e-26)
(0.01000126 9.642548e-06 2.956766e-26)
(0.009941425 6.370683e-05 0)
(0.009996297 5.93288e-05 0)
(0.009999359 2.094922e-05 0)
(0.009969783 8.018383e-05 -1.942477e-25)
(0.01001479 0.0001157098 0)
(0.009996491 1.00553e-05 -4.19906e-26)
(0.009966479 8.940079e-05 4.647172e-25)
(0.009977545 9.337881e-05 4.4076e-25)
(0.01000233 1.73646e-05 3.092378e-26)
(0.00993795 0.0001394309 2.957045e-25)
(0.01006433 4.198313e-05 -3.81626e-25)
(0.01002241 2.53479e-05 1.410191e-25)
(0.009989419 2.899518e-05 1.374972e-25)
(0.01001143 5.928623e-05 -5.575965e-26)
(0.01006518 0.0001681728 0)
(0.01004266 6.435587e-06 -3.169773e-26)
(0.009955479 0.0001554549 -4.844014e-25)
(0.009938957 0.0001674283 1.23627e-24)
(0.01001381 1.033818e-05 0)
(0.00998094 4.033709e-05 0)
(0.009975873 4.266278e-05 2.738034e-25)
(0.009983903 9.3053e-06 -2.627768e-25)
(0.01003819 4.177202e-05 -3.025783e-25)
(0.01008772 0.0002060427 0)
(0.009932977 8.411234e-05 1.166753e-24)
(0.009986754 4.459648e-05 -2.783085e-25)
(0.01001824 3.094574e-05 -5.46119e-26)
(0.009995139 5.273419e-06 8.28802e-26)
(0.01001812 5.655283e-06 0)
(0.01003795 8.891292e-05 3.327055e-26)
(0.009993215 3.790983e-06 3.853402e-26)
(0.009992802 5.782515e-06 7.67908e-26)
(0.01018777 0.0001544777 -4.730493e-24)
(0.01000249 7.295314e-06 -1.386078e-28)
(0.009997026 9.303254e-06 0)
(0.009955407 0.0001747118 0)
(0.009984722 2.49053e-05 -3.496378e-27)
(0.009963999 7.741618e-05 0)
(0.009980358 7.391537e-05 -4.089774e-25)
(0.009991461 8.394482e-06 3.929312e-26)
(0.009963166 0.0001066067 7.288376e-25)
(0.01001376 1.994457e-05 5.189066e-26)
(0.01002701 2.23806e-05 0)
(0.01000907 2.570408e-05 1.369447e-26)
(0.01001539 2.437849e-05 -8.477655e-26)
(0.009932389 5.638352e-05 9.256426e-25)
(0.009935127 5.493944e-05 -1.510768e-24)
(0.01000822 6.985208e-06 1.685583e-28)
(0.01000367 0.0001400917 3.424872e-25)
(0.01007212 0.0001931081 0)
(0.01004808 0.0002180432 0)
(0.01003122 0.0001316517 1.742512e-25)
(0.01004754 0.0001000754 0)
(0.01002538 0.0001689919 -1.852409e-25)
(0.009992182 3.332035e-05 -1.313602e-25)
(0.009994615 4.795126e-06 0)
(0.01000227 6.488181e-06 6.010784e-27)
(0.01000104 4.83828e-06 -4.525104e-27)
(0.009981837 3.798801e-05 -4.53914e-26)
(0.009945104 8.626707e-05 1.862883e-25)
(0.009986521 1.30408e-05 0)
(0.01004505 0.0001436277 -3.490554e-25)
(0.009993913 3.836398e-05 -1.138757e-25)
(0.01001187 8.209349e-06 1.059011e-26)
(0.009990139 7.525696e-06 1.891113e-25)
(0.01001223 7.701905e-06 0)
(0.009985893 1.754795e-05 1.45614e-25)
(0.009993151 1.220167e-05 0)
(0.009995076 2.409408e-05 0)
(0.009972165 1.790449e-05 -2.627134e-25)
(0.009991361 7.576982e-06 -7.755116e-27)
(0.009992064 7.995622e-06 0)
(0.01000007 6.478823e-06 0)
(0.01000886 6.726378e-06 -3.072641e-27)
(0.01002679 2.205672e-05 7.92594e-26)
(0.009992946 1.668084e-05 1.070505e-25)
(0.009975855 2.111687e-05 6.695801e-25)
(0.009981475 1.018799e-05 0)
(0.009977345 2.748542e-05 2.342264e-25)
(0.009981937 2.426713e-05 2.010497e-26)
(0.009990001 1.865281e-05 -8.482818e-26)
(0.009967955 1.667367e-05 0)
(0.00996251 2.090124e-05 1.207416e-24)
(0.00996599 1.86656e-05 1.084968e-24)
(0.009962438 0.0001295085 0)
(0.01002143 9.807056e-05 1.110461e-25)
(0.0100099 7.06048e-06 0)
(0.009959805 2.701935e-05 0)
(0.009970247 0.0002489219 0)
(0.009993588 3.046246e-05 0)
(0.009997804 2.480508e-05 0)
(0.01000455 1.139832e-05 5.505528e-27)
(0.01001434 5.539348e-05 0)
(0.009977477 0.0001031025 0)
(0.0100114 6.708481e-06 2.452837e-26)
(0.01002972 6.944514e-05 2.56147e-25)
(0.009972504 0.0001042298 2.408257e-25)
(0.01000358 0.0001880862 -1.101865e-24)
(0.01000898 7.154798e-06 -5.669923e-27)
(0.009996775 1.38612e-05 1.390922e-26)
(0.009990378 1.667193e-05 7.403278e-26)
(0.009992181 1.774186e-05 8.951703e-27)
(0.009992308 1.310531e-05 -1.648263e-26)
(0.009996688 3.246607e-06 0)
(0.01002526 8.09612e-05 8.061261e-26)
(0.0100987 5.299277e-05 3.266894e-24)
(0.01007505 7.343148e-05 1.313361e-24)
(0.009951528 3.546811e-05 -1.040387e-24)
(0.009931927 8.011838e-05 1.152042e-24)
(0.009998267 7.759067e-06 3.054466e-26)
(0.009943648 2.379135e-05 2.239773e-25)
(0.0100054 0.0001770383 -6.693368e-26)
(0.009967273 0.0003078034 1.827384e-24)
(0.009962005 2.237324e-05 -8.941857e-25)
(0.01001475 3.66853e-05 1.123833e-25)
(0.01016471 0.0001444035 0)
(0.01001565 6.13038e-05 0)
(0.01002391 0.0003006095 0)
(0.009932576 5.991649e-05 8.987538e-25)
(0.00995415 0.0002545936 0)
(0.01000116 1.327194e-05 0)
(0.01000229 5.733142e-05 0)
(0.01000581 2.027927e-05 0)
(0.01001648 2.314706e-05 0)
(0.009994681 4.848854e-05 1.215461e-27)
(0.01000012 6.055667e-05 -7.313182e-27)
(0.01000315 7.000638e-06 0)
(0.009957157 2.373129e-05 -9.916684e-27)
(0.009998623 1.879453e-05 3.747386e-26)
(0.01000791 1.967907e-05 -1.420394e-26)
(0.009997551 2.320659e-05 -7.271048e-26)
(0.009990432 1.35275e-05 0)
(0.009986166 8.0108e-06 -2.574125e-26)
(0.009959925 2.021963e-05 0)
(0.009972246 2.893285e-05 -1.200393e-26)
(0.00999993 3.747475e-06 4.308849e-26)
(0.009999468 3.070418e-05 -2.111288e-26)
(0.0100039 7.829492e-06 4.265505e-29)
(0.009970114 2.270467e-05 1.326125e-25)
(0.009974023 1.504694e-05 -1.103124e-25)
(0.009986376 1.352362e-05 0)
(0.009988545 9.359756e-06 0)
(0.00997989 2.738112e-05 0)
(0.009958443 2.630936e-05 -1.637684e-25)
(0.009973772 1.302421e-05 0)
(0.009976325 1.430803e-05 0)
(0.01002033 1.359517e-05 1.77462e-25)
(0.01001495 7.065327e-06 4.368383e-26)
(0.009997405 1.118062e-05 1.976244e-26)
(0.009938448 5.125361e-05 0)
(0.009976387 4.941803e-05 1.276698e-25)
(0.01000675 2.373377e-05 0)
(0.01000957 1.053496e-05 -3.116373e-26)
(0.009939132 9.342973e-05 0)
(0.00999194 8.837756e-05 1.431169e-25)
(0.01017446 0.0001756668 0)
(0.00999366 6.221258e-06 6.072411e-27)
(0.01004773 0.0002315039 0)
(0.01000175 6.12132e-06 0)
(0.009981466 1.290398e-05 -2.556969e-25)
(0.009998944 1.185323e-05 1.92141e-26)
(0.009977579 3.173144e-05 0)
(0.01001835 1.256239e-05 0)
(0.01000378 0.0001021528 -1.923474e-26)
(0.01003317 9.343958e-05 -2.629296e-25)
(0.01001008 1.003681e-05 2.760353e-26)
(0.009990666 7.20842e-06 -8.722684e-26)
(0.01011876 0.0002410319 3.334712e-25)
(0.009965748 2.936868e-05 -1.009898e-25)
(0.009936628 0.0002620893 1.113629e-24)
(0.01002832 2.939733e-05 1.2589e-25)
(0.0101129 0.0001615346 -1.663612e-24)
(0.01000505 1.106481e-05 -6.092073e-27)
(0.009986458 1.899137e-05 1.960903e-25)
(0.009940239 6.936014e-05 -8.895792e-25)
(0.009938021 5.976169e-05 0)
(0.009995392 4.809718e-06 0)
(0.009999597 5.001503e-06 -3.367839e-27)
(0.01000156 1.212357e-05 1.774189e-26)
(0.01010398 0.0001868696 -1.049879e-25)
(0.009979374 1.27458e-05 0)
(0.009994557 1.387004e-05 -1.416475e-25)
(0.0099636 0.0002770336 0)
(0.009986598 7.808636e-06 2.033525e-25)
(0.009988965 6.496385e-06 0)
(0.01010599 9.225643e-05 -1.593762e-24)
(0.00998283 2.477174e-05 -1.951635e-26)
(0.009990405 3.133339e-05 0)
(0.009986981 3.727841e-05 0)
(0.009977241 4.482709e-05 3.779002e-25)
(0.009984013 4.890952e-05 1.316945e-25)
(0.01000662 3.541102e-05 7.217512e-27)
(0.009997069 0.0001146893 1.890864e-25)
(0.009981068 5.037913e-05 -4.082546e-25)
(0.01014359 0.000103588 0)
(0.01001603 7.644216e-05 -8.711452e-26)
(0.01005967 7.647096e-05 -8.402484e-25)
(0.01006509 0.0001017745 4.071537e-26)
(0.009985619 1.872367e-05 -9.214563e-26)
(0.009980057 2.160332e-05 0)
(0.01001343 2.174454e-05 -4.979783e-26)
(0.01000728 6.785735e-06 -1.501196e-26)
(0.01000291 5.684819e-06 4.753611e-27)
(0.01000878 2.722476e-05 -5.35395e-27)
(0.009971887 3.32275e-05 -9.365323e-25)
(0.009964843 0.0001657214 0)
(0.01001804 2.86677e-05 -1.475013e-25)
(0.01000017 4.806433e-05 -6.863097e-26)
(0.009994726 3.665361e-06 2.636231e-27)
(0.01006843 0.0001834843 3.81e-25)
(0.01005709 0.0001518779 0)
(0.01006299 0.0001423125 -5.403456e-25)
(0.01004712 0.0001090418 0)
(0.01003976 0.0001324179 4.209154e-26)
(0.01001218 0.00012549 2.536216e-26)
(0.009992903 0.0001477042 8.023042e-25)
(0.01001643 0.0001729276 -8.260392e-26)
(0.01008958 0.0001484724 0)
(0.01002697 0.0001780845 -6.729647e-26)
(0.01007494 0.0001778216 -1.11809e-26)
(0.01010464 0.0002178072 -5.943539e-25)
(0.01005707 0.0001322877 0)
(0.01003217 0.0001291303 -1.465658e-25)
(0.01002899 0.0001147202 0)
(0.01002584 0.0001220876 1.402957e-25)
(0.00998586 1.152219e-05 1.371894e-26)
(0.01002623 8.909222e-05 5.31879e-26)
(0.01007866 5.307946e-05 -7.318984e-25)
(0.00998756 9.793044e-06 0)
(0.01008912 9.766997e-05 0)
(0.01002097 1.76675e-05 0)
(0.01001913 5.083517e-06 5.329607e-26)
(0.009978123 0.0001252383 0)
(0.01002915 9.501941e-05 -8.424259e-26)
(0.009980794 7.789914e-05 2.492211e-25)
(0.01001632 2.861256e-05 0)
(0.009971002 3.523314e-05 0)
(0.01006807 0.0002396331 6.183594e-26)
(0.01001994 1.493417e-05 0)
(0.01001466 1.079064e-05 0)
(0.009962144 1.840256e-05 0)
(0.009940845 2.115674e-05 3.481159e-25)
(0.009950018 0.0001664014 7.190219e-26)
(0.009972196 1.44385e-05 -2.220338e-25)
(0.009976693 0.0001170872 -4.266163e-25)
(0.01000072 7.60728e-06 7.328505e-28)
(0.009985929 5.7525e-05 0)
(0.00998455 3.002259e-05 2.835167e-25)
(0.01002299 0.0001003924 -1.106915e-25)
(0.009985267 8.770138e-05 -3.706134e-25)
(0.009998603 6.865877e-05 1.106598e-25)
(0.01009468 6.90626e-05 1.559053e-24)
(0.009983207 1.321536e-05 0)
(0.009980657 1.268795e-05 0)
(0.01000316 9.054854e-06 2.589478e-27)
(0.01002144 7.575626e-06 -7.737375e-26)
(0.009988954 1.634595e-05 6.023851e-26)
(0.009966733 1.328769e-05 -2.026809e-25)
(0.009974801 5.942183e-05 -5.254041e-25)
(0.009973726 4.786747e-05 -1.179548e-24)
(0.009942349 3.031035e-05 0)
(0.009945802 2.356431e-05 1.375033e-24)
(0.00993864 4.293192e-05 -2.455695e-25)
(0.00998423 4.467221e-05 -1.058732e-25)
(0.009955238 3.583318e-05 3.017021e-25)
(0.009989029 3.903157e-05 -7.985206e-26)
(0.00995768 8.295634e-05 6.567662e-25)
(0.009985135 1.071105e-05 0)
(0.0100177 5.731768e-06 4.291639e-26)
(0.01004622 9.443982e-05 0)
(0.01001783 4.380128e-05 8.716449e-26)
(0.009981075 5.381911e-05 2.640105e-25)
(0.01001034 3.001897e-05 4.812739e-26)
(0.009985977 3.936357e-05 0)
(0.01000929 7.196531e-06 -1.086353e-26)
(0.01000529 6.59307e-06 -6.336255e-27)
(0.01001561 4.409262e-05 0)
(0.009994061 7.859726e-06 1.390527e-26)
(0.009991075 1.202047e-05 9.298042e-26)
(0.009991642 1.670616e-05 -1.268934e-25)
(0.01002673 7.823318e-05 9.089547e-26)
(0.01011512 0.0001662794 2.245116e-25)
(0.01006842 0.0002472085 0)
(0.009998525 1.046483e-05 0)
(0.009955825 5.380196e-05 1.522928e-24)
(0.009972034 1.709404e-06 -1.544656e-25)
(0.01001183 8.258885e-05 -5.832593e-27)
(0.01001622 6.653406e-05 -7.279601e-26)
(0.01001383 4.856714e-05 -5.130716e-26)
(0.009993559 1.784628e-05 -1.448092e-25)
(0.00999515 1.96367e-05 5.935575e-26)
(0.009997096 4.69349e-05 6.459485e-26)
(0.009985099 5.044588e-05 -1.42903e-25)
(0.01000023 6.837627e-06 0)
(0.009984523 6.618816e-06 0)
(0.009988585 7.172907e-05 0)
(0.009996483 5.68061e-06 1.872687e-26)
(0.0100041 6.499787e-06 0)
(0.009965884 1.744589e-05 -3.862068e-25)
(0.01000399 3.098933e-05 -1.196607e-26)
(0.009979861 4.425532e-05 -4.240713e-25)
(0.009960779 9.336007e-05 -2.711697e-26)
(0.01016083 5.462132e-05 0)
(0.00994883 7.761945e-05 -2.038226e-24)
(0.009957144 0.0001262154 1.190469e-24)
(0.01001579 0.0002714965 -8.243172e-25)
(0.01000238 0.0002015093 -1.731403e-24)
(0.0100445 0.0001816367 9.031617e-26)
(0.01001111 1.442637e-05 3.627544e-26)
(0.01000496 7.629899e-05 -2.369213e-25)
(0.01000049 6.675922e-06 0)
(0.009950046 0.0001148379 1.320737e-25)
(0.009943185 0.0001154807 1.625728e-24)
(0.009990854 1.35382e-05 0)
(0.01000185 8.687321e-05 -1.935826e-25)
(0.01001016 8.622712e-06 0)
(0.009975613 6.389901e-05 -2.411576e-25)
(0.009977172 2.32624e-05 0)
(0.01001275 7.694271e-06 2.427351e-26)
(0.01000669 1.134491e-05 0)
(0.01005918 8.444138e-05 -1.363558e-25)
(0.009988119 2.054717e-05 2.563293e-26)
(0.01002144 4.701143e-05 5.839759e-26)
(0.01012976 0.0001627971 4.133257e-26)
(0.0101354 0.0001603636 0)
(0.009997917 4.169907e-05 0)
(0.009940812 0.0002337641 1.449224e-24)
(0.009982233 4.88246e-05 -1.637422e-25)
(0.01006632 6.133378e-05 2.14047e-24)
(0.009998301 4.833689e-05 0)
(0.01002014 1.580316e-05 0)
(0.01002179 3.311399e-05 0)
(0.0100068 6.930689e-06 9.12095e-27)
(0.01000498 8.629456e-06 1.106197e-27)
(0.01001075 9.167807e-06 -2.485746e-26)
(0.01001247 1.857808e-05 -2.78976e-26)
(0.0100135 7.137859e-06 0)
(0.0100208 1.072015e-05 0)
(0.01001697 5.902412e-06 0)
(0.01003027 5.940498e-05 2.599984e-25)
(0.009966338 7.813805e-05 1.144987e-24)
(0.009959261 3.116001e-05 -5.121748e-25)
(0.009945506 0.0001571944 0)
(0.01000005 7.942756e-06 -1.371629e-26)
(0.009971925 1.129707e-05 -3.310943e-25)
(0.009991357 1.872634e-05 -8.144368e-26)
(0.009949841 0.0001010959 0)
(0.01002485 7.659428e-05 3.101607e-26)
(0.009964487 3.20096e-05 -1.010273e-24)
(0.009989811 0.000161128 -8.014224e-25)
(0.009988479 0.000184976 4.653877e-25)
(0.01001188 9.639096e-06 9.963781e-27)
(0.01001834 1.04436e-05 0)
(0.009980731 0.000164747 7.506343e-25)
(0.009978213 0.0001553842 1.980318e-26)
(0.01001943 1.53325e-05 -1.798943e-26)
(0.01001549 1.891725e-05 0)
(0.009993948 3.642861e-05 1.926963e-25)
(0.009995577 5.474195e-06 -6.415174e-26)
(0.009993926 6.008083e-06 -2.190693e-26)
(0.009993874 3.080364e-06 0)
(0.009964637 3.364391e-05 6.078163e-25)
(0.009960035 2.4404e-05 2.93668e-25)
(0.009963158 3.649029e-05 -4.672553e-25)
(0.009962574 3.102756e-05 -1.179745e-26)
(0.009996234 2.807398e-05 0)
(0.0100488 0.0001864633 0)
(0.009982026 1.73163e-05 0)
(0.01000014 9.258828e-06 -6.878088e-27)
(0.009994445 6.023502e-06 -4.94479e-26)
(0.01000121 2.85712e-05 -4.793386e-26)
(0.009960506 6.383144e-05 1.876262e-25)
(0.01000751 6.062019e-05 3.349447e-27)
(0.01000999 7.180765e-06 9.185178e-27)
(0.01001472 6.958827e-06 -1.874275e-26)
(0.01001288 2.50888e-05 0)
(0.01001589 1.665188e-05 4.836029e-28)
(0.01002108 1.055503e-05 0)
(0.01000533 6.890444e-06 0)
(0.01016745 0.0001079606 2.534559e-24)
(0.009993543 1.000176e-05 0)
(0.009953459 4.653687e-05 -3.264675e-25)
(0.01000797 1.428533e-05 1.618819e-26)
(0.01000951 1.342119e-05 8.35893e-27)
(0.01001986 7.142103e-06 0)
(0.009993135 6.122155e-05 -1.504425e-27)
(0.00994617 2.198122e-05 -1.301396e-24)
(0.009998428 3.292028e-06 5.02967e-27)
(0.009997426 3.206455e-06 0)
(0.01010229 0.0001168512 -1.079154e-25)
(0.01009342 0.0001317029 7.001397e-25)
(0.00999658 1.505826e-05 9.038516e-26)
(0.009991161 6.237516e-06 -5.430877e-26)
(0.010011 2.416757e-05 -1.637077e-26)
(0.01000632 7.020788e-05 -3.017429e-26)
(0.01000725 2.466943e-05 -2.525744e-27)
(0.009997406 6.998281e-06 -3.659895e-26)
(0.01010219 0.0002252281 1.045092e-24)
(0.009986505 2.097414e-05 -1.983487e-25)
(0.01000616 1.874926e-05 5.776325e-27)
(0.01000223 1.974165e-05 0)
(0.009999444 2.011773e-05 -8.044139e-27)
(0.009996712 1.602191e-05 -3.793236e-26)
(0.01001198 6.672193e-06 -6.523993e-27)
(0.01006895 0.0001295283 4.501449e-25)
(0.009966935 0.0001029474 -7.415487e-25)
(0.01002381 7.249946e-05 -1.098197e-25)
(0.01002945 6.307532e-05 -2.279131e-25)
(0.009983258 3.35911e-05 -2.709436e-25)
(0.01000391 5.716192e-06 -1.098837e-26)
(0.01007474 0.0001334624 4.603869e-25)
(0.009947485 7.440477e-05 -2.481648e-26)
(0.01001744 3.394116e-05 -1.59856e-25)
(0.01002114 3.481662e-05 2.532613e-25)
(0.01000017 4.703767e-06 4.28762e-27)
(0.01000138 6.544495e-06 0)
(0.009982623 1.372072e-05 -2.2594e-25)
(0.01000964 6.794066e-06 1.327885e-26)
(0.01001809 2.273345e-05 -5.953942e-26)
(0.01000783 6.895895e-06 3.965146e-27)
(0.01001582 2.777576e-05 -6.706981e-26)
(0.009932419 0.0001778756 9.871111e-25)
(0.009952238 0.0001469315 -4.759767e-25)
(0.01001551 0.0002050995 -5.470838e-25)
(0.009982827 1.0093e-05 0)
(0.009976026 4.103423e-05 -3.172113e-25)
(0.009992139 1.514162e-05 5.697399e-26)
(0.00991309 0.000237802 0)
(0.009998475 4.602005e-06 0)
(0.01002318 3.066825e-05 -1.017939e-26)
(0.01003016 7.692916e-05 4.427397e-25)
(0.009982797 3.088373e-05 -2.802134e-25)
(0.009984537 3.574947e-05 -1.713776e-26)
(0.009978719 3.07829e-05 -7.506011e-26)
(0.009930287 0.0001261954 0)
(0.01003028 5.620385e-05 -8.986631e-26)
(0.01001099 8.733708e-06 3.814603e-27)
(0.01003183 7.845564e-05 -2.28822e-25)
(0.01000849 8.375255e-05 -3.489311e-26)
(0.01009705 0.0001690193 0)
(0.01013828 0.0001249471 0)
(0.01006244 9.058649e-05 6.990361e-25)
(0.01001128 7.179667e-06 0)
(0.009992406 6.352044e-05 -1.69571e-25)
(0.010006 6.237849e-05 -1.433329e-26)
(0.009944538 4.854438e-05 6.866536e-25)
(0.01016337 7.814853e-05 1.445431e-24)
(0.009936576 0.000136087 0)
(0.009993393 2.646541e-06 9.477554e-27)
(0.01005014 1.787729e-05 8.02555e-25)
(0.01011796 0.000192594 0)
(0.01013277 0.0001079888 0)
(0.009993646 3.299312e-06 -1.188642e-27)
(0.009968328 1.914954e-05 0)
(0.0100057 6.634963e-06 1.891811e-26)
(0.00999299 6.626131e-06 7.615587e-27)
(0.01008033 0.0001171927 0)
(0.009954942 0.0001240909 -1.216204e-24)
(0.01005196 7.288008e-05 -2.255113e-25)
(0.009987074 7.903982e-06 0)
(0.01007429 8.839219e-05 3.724449e-25)
(0.01001219 1.198332e-05 0)
(0.01008942 0.0001247523 1.266954e-24)
(0.009988237 1.64707e-05 -1.051983e-25)
(0.009979744 1.041507e-05 -1.39634e-25)
(0.01001721 1.499961e-05 3.047661e-26)
(0.01001363 4.245658e-05 0)
(0.009984524 1.115707e-05 -2.669093e-27)
(0.009977356 3.592134e-05 -3.90489e-26)
(0.00999373 2.73114e-06 -1.674679e-26)
(0.009988503 1.035302e-05 -2.799878e-27)
(0.01001222 6.818914e-06 0)
(0.009986311 9.090933e-06 0)
(0.009974851 2.315211e-05 -3.551238e-25)
(0.009977007 1.388352e-05 0)
(0.009977824 1.8187e-05 1.721052e-25)
(0.01001728 8.861472e-06 1.127695e-25)
(0.009954802 4.493775e-05 9.415494e-25)
(0.01001366 1.301704e-05 -3.981737e-26)
(0.009963547 5.805929e-05 -5.798169e-25)
(0.01001487 7.597104e-06 4.491687e-26)
(0.01006018 3.45467e-05 0)
(0.009978218 8.810297e-05 0)
(0.009992168 1.199768e-05 0)
(0.0100022 9.527954e-06 0)
(0.009987993 0.0001081745 -4.681749e-25)
(0.01004584 0.0001922173 0)
(0.01007404 0.0002235774 -2.453936e-25)
(0.01004969 0.0001980907 7.916017e-26)
(0.01002684 0.0001887487 0)
(0.009977532 0.0002004363 -1.327276e-24)
(0.010056 4.927076e-05 -2.799382e-25)
(0.01005394 4.5894e-05 1.002332e-24)
(0.009961464 6.602588e-05 -3.580897e-25)
(0.01000795 6.920403e-06 1.091782e-26)
(0.01002341 5.772676e-05 -1.253442e-25)
(0.01001047 3.560226e-05 3.584098e-26)
(0.009996844 1.319032e-05 8.215326e-26)
(0.00999604 5.288938e-05 1.395227e-25)
(0.01000501 2.661417e-05 1.551681e-28)
(0.01001961 5.717521e-05 3.400952e-26)
(0.01000313 8.110923e-06 0)
(0.0100366 0.0002866363 5.215978e-25)
(0.01000867 2.483589e-05 -3.815661e-27)
(0.01000962 2.408567e-05 1.73498e-26)
(0.01000316 2.161777e-05 0)
(0.01000917 2.142754e-05 0)
(0.009994673 3.073087e-05 -6.085569e-27)
(0.01005268 6.11458e-05 -1.056221e-24)
(0.01006305 7.966257e-05 0)
(0.01001596 2.502531e-05 1.026717e-25)