/*--------------------------------*- C++ -*----------------------------------*\
| =========                 |                                                 |
| \\      /  F ield         | OpenFOAM: The Open Source CFD Toolbox           |
|  \\    /   O peration     | Version:  2406                                  |
|   \\  /    A nd           | Website:  www.openfoam.com                      |
|    \\/     M anipulation  |                                                 |
\*---------------------------------------------------------------------------*/
FoamFile
{
    version     2.0;
    format      ascii;
    arch        "LSB;label=32;scalar=64";
    class       surfaceScalarField;
    location    "1.58";
    object      phi;
}
// * * * * * * * * * * * * * * * * * * * * * * * * * * * * * * * * * * * * * //

dimensions      [0 3 -1 0 0 0 0];

oriented        oriented;

internalField   nonuniform List<scalar> 
326221
(
-0.00250701
-0.006020473
0.008527483
-0.001601893
-0.0009051176
0.001051531
-0.002653423
0.000122841
0.0009286896
-0.001193615
0.001316456
-0.0001394639
-0.001054151
0.0003115082
-0.0004509721
-0.0001351136
0.0004466218
-0.0003824613
0.0002473478
-0.000320073
-6.238831e-05
-0.0001990363
-0.0001210368
-0.0004846428
0.0002856066
-0.001178057
0.0006934139
-0.001788784
0.0006107275
-0.001526248
-0.0002625358
-0.0004510355
-0.001075213
0.0009646101
-0.001415646
0.002682936
-0.001718326
0.003725407
-0.001042471
0.003138593
0.0005868142
0.001022959
0.002115634
-0.0009439674
0.001966926
-0.001541973
0.0005980061
-0.0003725689
-0.001169405
0.001410194
-0.001782763
0.002137702
-0.0007275082
0.001858249
0.0002794537
0.001036068
0.0008221808
-0.00011877
0.001154838
-0.000998294
0.000879524
-0.001299531
0.0003012371
-0.0009629518
-0.0003365792
-0.0002180692
-0.0007448826
0.0002264656
-0.0004445347
-0.0004089377
0.0006354033
-0.00208489
0.001675952
-0.002840045
0.0007551551
-0.002393393
-0.0004466514
-0.0016184
-0.0007749935
-0.001390288
-0.0002281115
-0.001651575
0.0002612868
-0.002988878
0.001337303
-0.00453477
0.001545892
-0.004704251
0.0001694813
-0.003756182
-0.0009480696
-0.002329516
-0.001426666
-0.0003232715
-0.002006245
0.001857597
-0.002180868
0.002246637
-0.0003890406
-0.001911167
0.004157804
-0.002889779
0.0009786119
-0.003476415
0.0005866359
-0.003153406
-0.0003230093
-0.002633427
-0.0005199781
-0.001884561
-0.0007488663
-0.001003144
-0.0008814175
-0.0001861184
-0.0008170252
0.0003897099
-0.0005758284
0.0009250914
-0.0005353815
0.00101926
-9.416808e-05
0.0006306056
0.0003886539
2.296465e-05
0.0006076409
-0.000590614
0.0006135786
-0.0009263792
0.0003357652
-0.0009466405
2.026128e-05
-0.001063111
0.0001164707
-0.001558614
0.0004955033
-0.001628546
6.993116e-05
-0.00082211
-0.0008064357
3.186215e-05
-0.0008539721
0.0006896677
-0.0006578055
0.001315575
-0.0006259073
0.002020089
-0.0007045141
0.002725371
-0.000705282
0.003398611
-0.0006732395
0.003312225
8.638515e-05
0.001024919
0.002287307
-0.001571241
0.002596159
-0.001356304
-0.0002149367
-0.0001592098
-0.001197094
0.0007014017
-0.0008606114
0.001071217
-0.0003698152
0.001129742
-5.852479e-05
0.001143331
-1.358952e-05
0.001449887
-0.0003065562
0.002389117
-0.0009392296
0.002947344
-0.000558227
0.001634482
0.001312862
0.0001196136
0.001514868
8.665452e-05
3.295913e-05
0.0005027277
-0.0004160732
-9.236882e-05
0.0005950965
-0.0008977324
0.0008053636
-0.001434505
0.0005367725
-0.001728545
0.0002940401
-0.001903374
0.0001748291
-0.002018368
0.0001149942
-0.002074856
5.648746e-05
-0.002114583
3.972734e-05
-0.002141653
2.707025e-05
-0.002159824
1.817052e-05
-0.002168489
8.665278e-06
-0.002168153
-3.359597e-07
-0.002154378
-1.377553e-05
-0.002122993
-3.138506e-05
-0.002087549
-3.544344e-05
-0.002040686
-4.686378e-05
-0.001959316
-8.136913e-05
-0.001859481
-9.983496e-05
-0.001750076
-0.0001094053
-0.0016341
-0.0001159764
-0.001473669
-0.000160431
-0.00131713
-0.0001565389
-0.001125266
-0.000191864
-0.0008683325
-0.0002569334
-0.0005766242
-0.0002917082
-0.0003063943
-0.0002702299
6.931874e-05
-0.000375713
0.0004164521
-0.0003471334
0.0007403048
-0.0003238527
0.00128819
-0.0005478851
0.001759973
-0.0004717834
0.002241022
-0.0004810486
0.002692055
-0.0004510329
0.002972727
-0.0002806722
0.003065858
-9.313129e-05
0.00309285
-2.699153e-05
0.003143525
-5.067493e-05
0.003240922
-9.739719e-05
0.003320828
-7.990622e-05
0.003267838
5.29905e-05
0.003089044
0.0001787932
0.002909246
0.0001797989
0.002794705
0.0001145402
0.002737521
5.718402e-05
0.002597441
0.0001400805
0.002007035
0.0005904056
0.0006725894
0.001334446
-0.0007176088
0.001390198
-0.001182376
0.0004647674
0.0002319544
-0.001414331
0.0003304493
-9.849484e-05
-0.001840341
0.00217079
-0.003018501
0.00117816
-0.001946203
-0.001072299
-0.0005913528
-0.00135485
0.0001778454
-0.0007691983
0.000926118
-0.0007482726
0.001638604
-0.0007124858
0.001926479
-0.0002878752
0.0009105446
0.001015934
0.001325249
-0.0004147048
0.001788021
-0.000462772
0.001973577
-0.0001855556
0.001575586
0.0003979908
0.0003137324
0.001261854
-0.001595494
0.001909227
-0.003089209
0.001493715
-0.003435292
0.0003460827
-0.002995103
-0.000440189
-0.002361581
-0.0006335216
-0.002137324
-0.0002242578
-0.002347643
0.0002103193
-0.002658727
0.0003110839
-0.002994142
0.0003354146
-0.003181325
0.0001871837
-0.002974091
-0.0002072342
-0.00231031
-0.0006637809
-0.001322724
-0.000987586
-0.0003663949
-0.0009563291
0.0004815619
-0.0008479567
0.001457198
-0.0009756361
0.002268483
-0.0008112848
0.002908612
-0.0006401294
0.00354243
-0.0006338175
0.004080369
-0.0005379396
0.004414783
-0.0003344136
0.004628485
-0.0002137021
0.004715865
-8.738029e-05
0.004588635
0.0001272306
0.004137322
0.000451313
0.003151226
0.0009860954
0.001432312
0.001718914
-0.0004387106
0.001871022
-0.001204059
0.0007653485
-0.0005943063
-0.0006097528
-0.001322118
0.000727812
-0.002992261
0.001670142
-0.00291524
-7.702058e-05
-0.001471578
-0.001443662
-0.0005720653
-0.0008995128
-0.000216125
-0.0003559403
-0.0003391302
0.0001230052
-0.0005333641
0.0001942338
0.0005869575
-0.001120322
0.0009650967
-0.0003781392
-5.623178e-05
0.001021329
0.001521876
-0.001578108
0.002414051
-0.000892175
-0.006361092
0.008775143
-0.006539752
0.0001786604
-0.005534811
-0.001004942
-0.005172074
-0.0003627366
-0.004803789
-0.0003682849
-0.004531287
-0.0002725025
-0.004283889
-0.0002473979
-0.00406998
-0.0002139091
-0.003790939
-0.0002790403
-0.00364393
-0.0001470096
-0.003518746
-0.0001251843
-0.003403991
-0.0001147547
-0.003302046
-0.0001019446
-0.003204293
-9.775316e-05
-0.003111285
-9.300759e-05
-0.00302286
-8.842569e-05
-0.002944043
-7.881721e-05
-0.002872226
-7.18165e-05
-0.002803386
-6.883975e-05
-0.00273558
-6.780642e-05
-0.002672379
-6.320108e-05
-0.002611965
-6.041416e-05
-0.002555904
-5.606104e-05
-0.002505878
-5.002508e-05
-0.002454708
-5.117018e-05
-0.002403714
-5.099435e-05
-0.002352414
-5.129981e-05
-0.00230377
-4.864445e-05
-0.002260873
-4.289698e-05
-0.002222066
-3.880673e-05
-0.002181371
-4.069471e-05
-0.002141076
-4.029567e-05
-0.002098787
-4.228889e-05
-0.002062062
-3.672501e-05
-0.002028002
-3.405997e-05
-0.001992252
-3.574979e-05
-0.001956261
-3.599076e-05
-0.001919301
-3.696066e-05
-0.001886166
-3.313423e-05
-0.001855622
-3.054475e-05
-0.001883664
2.804275e-05
-0.001865854
-1.781008e-05
-0.00184303
-2.282451e-05
-0.001820201
-2.282847e-05
-0.001800231
-1.997037e-05
-0.00177935
-2.088099e-05
-0.001760648
-1.870182e-05
-0.001744194
-1.645411e-05
-0.001728488
-1.570601e-05
-0.001709165
-1.932256e-05
-0.001689052
-2.011352e-05
-0.001673119
-1.593276e-05
-0.001660044
-1.307533e-05
-0.001650047
-9.996534e-06
-0.001636162
-1.388497e-05
-0.001619164
-1.699875e-05
-0.00160581
-1.335381e-05
-0.001594339
-1.147023e-05
-0.001580636
-1.370311e-05
-0.001569886
-1.075086e-05
-0.001557619
-1.226697e-05
-0.001544025
-1.35934e-05
-0.001531289
-1.273637e-05
-0.001517488
-1.380049e-05
-0.001485828
-3.166002e-05
-0.001444623
-4.120479e-05
-0.001404281
-4.034249e-05
-0.001337786
-6.649468e-05
-0.001206789
-0.0001309977
-0.0008283169
-0.0003784717
3.196274e-05
-0.0008602797
0.000845195
-0.0008132322
0.0007293467
0.0001158483
0.0007325224
-3.175759e-06
0.0008225569
-9.003445e-05
0.0009556242
-0.0001330674
0.001074253
-0.0001186288
0.001174141
-9.988759e-05
0.001247466
-7.332515e-05
0.001293793
-4.632694e-05
0.001330634
-3.68412e-05
0.001373057
-4.242298e-05
0.00141133
-3.827289e-05
0.001443899
-3.256968e-05
0.00146835
-2.445031e-05
0.001490855
-2.250575e-05
0.001512522
-2.166689e-05
0.001536867
-2.434478e-05
0.001559225
-2.235805e-05
0.001577626
-1.840059e-05
0.001596361
-1.873517e-05
0.001618235
-2.187372e-05
0.001638491
-2.025649e-05
0.001657814
-1.932311e-05
0.001680278
-2.24636e-05
0.001699826
-1.954819e-05
0.001724332
-2.450618e-05
0.001752127
-2.779471e-05
0.001775865
-2.373755e-05
0.001796214
-2.0349e-05
0.001818575
-2.236165e-05
0.001843479
-2.490425e-05
0.001862469
-1.898985e-05
0.001830737
3.173261e-05
0.001862809
-3.207217e-05
0.001900932
-3.812343e-05
0.001939468
-3.853606e-05
0.001978454
-3.898579e-05
0.002020178
-4.172345e-05
0.002060279
-4.01019e-05
0.00209758
-3.730023e-05
0.00213782
-4.024027e-05
0.00218221
-4.439029e-05
0.002230182
-4.797185e-05
0.002273242
-4.306018e-05
0.002315101
-4.185892e-05
0.002359548
-4.444634e-05
0.002407252
-4.770393e-05
0.002456251
-4.899945e-05
0.002510404
-5.415304e-05
0.002566599
-5.619452e-05
0.002623389
-5.679057e-05
0.002682425
-5.903555e-05
0.002738461
-5.603643e-05
0.002803979
-6.551833e-05
0.002872163
-6.818357e-05
0.002943393
-7.123006e-05
0.003020077
-7.668398e-05
0.003099391
-7.931383e-05
0.003186826
-8.743537e-05
0.003282184
-9.535788e-05
0.003380212
-9.802812e-05
0.003486685
-0.0001064727
0.003607646
-0.0001209607
0.003748545
-0.0001408999
0.004016633
-0.0002680876
0.004216889
-0.0002002561
0.004444713
-0.0002278242
0.004699267
-0.0002545537
0.005030044
-0.0003307769
0.005349048
-0.0003190046
0.006189887
-0.0008408389
0.0001694141
0.001019643
-0.0008176961
-8.609866e-05
0.001355575
-0.0003391079
0.001614524
-0.0003489835
0.001794033
-0.0003125764
0.001956837
-0.0002814322
0.002116471
-0.0002595217
0.002259594
-0.0002164485
0.002379133
-0.0001658652
0.002485077
-0.0001427858
0.002591886
-0.0001492321
0.002692425
-0.0001388118
0.002787361
-0.000127506
0.002873225
-0.0001103142
0.002955466
-0.0001047462
0.003033185
-9.938643e-05
0.003111277
-0.0001024367
0.003185731
-9.681176e-05
0.003256208
-8.887741e-05
0.003324531
-8.705853e-05
0.003393871
-9.1214e-05
0.003460821
-8.720586e-05
0.003525688
-8.41902e-05
0.003592265
-8.904062e-05
0.003655094
-8.237774e-05
0.003720885
-9.029682e-05
0.003787731
-9.464065e-05
0.00385276
-8.876698e-05
0.003913843
-8.143162e-05
0.003976645
-8.516382e-05
0.004039594
-8.785314e-05
0.004100504
-7.989934e-05
0.004071348
6.088857e-05
0.00414443
-0.0001051544
0.004220685
-0.0001143781
0.004297051
-0.0001149022
0.0043736
-0.0001155347
0.004451312
-0.0001194352
0.004528608
-0.0001173979
0.004602784
-0.0001114772
0.00467972
-0.0001171761
0.004757635
-0.0001223051
0.004839881
-0.0001302174
0.004917522
-0.0001207018
0.00499576
-0.0001200971
0.005074543
-0.0001232287
0.005156403
-0.0001295643
0.005238562
-0.0001311586
0.005325007
-0.0001405979
0.005413505
-0.0001446927
0.005502577
-0.0001458626
0.005594812
-0.0001512706
0.005684011
-0.0001452345
0.00578175
-0.0001632577
0.005880051
-0.0001664851
0.005982983
-0.0001741618
0.006088776
-0.0001824767
0.006198653
-0.0001891915
0.006313847
-0.0002026286
0.006436897
-0.0002184083
0.006561924
-0.0002230553
0.00669522
-0.0002397681
0.006840254
-0.0002659951
0.007003016
-0.0003036619
0.00735816
-0.0006232312
0.007577976
-0.0004200723
0.007830897
-0.0004807448
0.008106539
-0.0005301956
0.00846918
-0.0006934188
0.00878707
-0.0006368938
0.009710622
-0.001764391
0.008945406
0.0009346293
-0.009924887
0.009352388
0.0007511588
-0.008847862
-0.002081966
-0.008479146
-0.0007314532
-0.008080479
-0.0007669513
-0.007784871
-0.0005681105
-0.007511444
-0.0005208255
-0.007277644
-0.000447709
-0.006913341
-0.0006433426
-0.006742982
-0.0003173693
-0.006592156
-0.0002760098
-0.006450307
-0.0002566043
-0.006320456
-0.0002317957
-0.006194038
-0.0002241714
-0.006073756
-0.0002132895
-0.005956656
-0.0002055249
-0.005849076
-0.0001863979
-0.005745558
-0.0001753345
-0.00564673
-0.000167667
-0.005547975
-0.0001665623
-0.005454629
-0.000156547
-0.005362833
-0.0001522101
-0.005275326
-0.0001435679
-0.005192137
-0.0001332135
-0.005108723
-0.0001345848
-0.005026637
-0.00013308
-0.004944462
-0.000133475
-0.004865413
-0.0001276938
-0.004789319
-0.0001189906
-0.00471712
-0.000111006
-0.004642125
-0.0001156899
-0.004569349
-0.0001130715
-0.004493888
-0.0001177499
-0.004423266
-0.0001073472
-0.004352971
-0.0001043548
-0.00428188
-0.0001068408
-0.004210089
-0.0001077811
-0.004137651
-0.0001093995
-0.004067526
-0.0001032583
-0.003997929
-0.0001001423
-0.004024173
5.428699e-05
-0.0039663
-7.568312e-05
-0.003908041
-8.108332e-05
-0.003848308
-8.256126e-05
-0.003791225
-7.705428e-05
-0.003731629
-8.047693e-05
-0.003673658
-7.667269e-05
-0.00361514
-7.497161e-05
-0.00355653
-7.431638e-05
-0.003494066
-8.178659e-05
-0.003430667
-8.351225e-05
-0.00336856
-7.804011e-05
-0.003305827
-7.580821e-05
-0.003242865
-7.295887e-05
-0.003174198
-8.255124e-05
-0.003101758
-8.943943e-05
-0.003028591
-8.652068e-05
-0.002953586
-8.647497e-05
-0.002872456
-9.483349e-05
-0.002790085
-9.312171e-05
-0.002700687
-0.0001016646
-0.002605093
-0.000109188
-0.00250312
-0.000114709
-0.002393103
-0.0001238177
-0.002259966
-0.0001647964
-0.002111051
-0.0001901197
-0.001951923
-0.0001994707
-0.001753844
-0.0002645734
-0.001470532
-0.0004143104
-0.0009473227
-0.0009016806
-7.531377e-05
-0.001732289
-0.001706242
0.0009191595
-0.001965006
0.002061781
0.001648743
-0.001144288
0.002280217
-0.001094246
0.002613017
-0.0005183559
0.002602594
0.0004084142
0.001885109
0.001979338
-0.0003413057
0.004135642
-0.003565827
0.004718236
-0.005268876
0.002049131
-0.005047607
-0.0006614573
-0.004161508
-0.001519621
-0.003768934
-0.000616832
-0.004201633
0.0006430184
-0.005114209
0.001223661
-0.005889501
0.001110706
-0.005730149
2.783179e-05
-0.004584852
-0.001352531
-0.003101835
-0.002146798
-0.001675029
-0.002414392
-0.0004775638
-0.002153795
0.0005696873
-0.001895208
0.001774738
-0.002180687
0.002824378
-0.001860924
0.003683554
-0.001499305
0.004516228
-0.001466492
0.005253265
-0.001274977
0.005766592
-0.0008477398
0.006138518
-0.000585629
0.006374416
-0.0003232774
0.006451945
4.970084e-05
0.006374111
0.0005291478
0.005962888
0.001397318
0.004577985
0.003103817
0.001683241
0.004765766
-0.00110707
0.003555659
-0.002085695
0.0003688729
-0.003192204
0.001834321
-0.004167754
0.002645693
-0.003462249
-0.0007825259
-0.001820955
-0.003084956
-0.0007586074
-0.00196186
-0.0004878529
-0.0006266948
-0.0006715152
0.0003066675
-0.000615137
0.0001378556
0.0008594778
-0.002594936
0.001597204
-0.001115865
0.001511124
0.001107408
0.002706022
-0.002773006
0.0005203893
0.001293458
0.01864792
-0.004419492
0.002784141
0.002613963
-0.004524179
0.0006913232
-0.004014213
-0.0008329756
-0.003369286
-0.001164905
-0.002471619
-0.001646533
-0.001421627
-0.001931409
-0.0003999912
-0.001838661
0.000370349
-0.001346169
0.001140675
-0.001305708
0.001495394
-0.0004488868
0.001229896
0.0006541522
0.0004794955
0.001358041
-0.0004548787
0.001547953
-0.001224542
0.001105428
-0.00180171
0.0005974302
-0.002440056
0.0007548167
-0.002822269
0.0008777159
-0.002319769
-0.0004325694
-0.001159781
-0.001966423
-0.0002003464
-0.001813407
0.0005224718
-0.001380624
0.001263405
-0.00136684
0.002099927
-0.001541037
0.002950731
-0.001556085
0.003732374
-0.001454883
0.00433369
-0.0005149306
0.002656389
0.003964608
-0.001133531
0.006386079
-0.002203273
0.000854805
-0.001223413
-0.002176954
-0.0006615232
-0.001422501
-0.0004154035
-0.0006159349
-0.0004173516
-5.657665e-05
-0.0004615172
3.057603e-05
-0.0001470235
-0.0006210498
0.0006296753
-0.001715928
0.002175209
-0.00210376
0.002377722
0.001110349
0.0009602244
0.002932365
-0.0005081535
0.001501337
-0.001787922
0.0008636949
-0.002846483
0.001653658
-0.003658075
0.001616956
-0.004060189
0.0009388861
-0.004222692
0.0004565432
-0.004296792
0.0002489294
-0.004328855
0.0001470569
-0.004315221
4.285319e-05
-0.004284651
9.157742e-06
-0.004236937
-2.064325e-05
-0.004175739
-4.302812e-05
-0.004100632
-6.644174e-05
-0.00401292
-8.804786e-05
-0.003909582
-0.0001171135
-0.003786847
-0.00015412
-0.003655585
-0.0001667049
-0.003509761
-0.0001926888
-0.003330514
-0.0002606152
-0.003131803
-0.0002985462
-0.00291806
-0.0003231489
-0.002691782
-0.0003422535
-0.002417109
-0.0004351046
-0.002138303
-0.0004353448
-0.001816852
-0.0005133148
-0.001427757
-0.0006460286
-0.001000081
-0.0007193842
-0.0006005243
-0.0006697866
-7.336934e-05
-0.000902868
0.0004001973
-0.0008207
0.0008577082
-0.0007813636
0.001573926
-0.001264103
0.002211187
-0.001109044
0.002867784
-0.001137645
0.003500678
-0.001083927
0.00393969
-0.000719684
0.004139847
-0.0002932884
0.004216492
-0.0001036366
0.004286509
-0.0001206914
0.004416978
-0.0002278662
0.004587218
-0.0002501465
0.004692531
-5.232231e-05
0.004665116
0.0002062079
0.004539251
0.0003056635
0.00438711
0.0002666812
0.004281453
0.0001628412
0.004266998
0.000154536
0.00412694
0.0007304636
0.003115042
0.002346343
0.001041916
0.003463325
-0.0006184493
0.002125133
-0.001082727
-0.000950053
-0.001895949
0.0007147271
-0.003482548
0.003757389
-0.003284664
0.0009802768
-0.001539395
-0.002817568
-0.0002477404
-0.002646505
0.0006735778
-0.001690517
0.001407838
-0.001482533
0.002020627
-0.001325275
-0.0002322538
-0.0009897279
0.01846262
-0.002535069
0.000640224
4.378875e-05
-0.005232281
-0.0007648438
0.001737322
-0.001824849
0.002376461
-0.0002312509
-0.002647749
0.0001344338
-0.0008166568
-0.0003758128
0.0009568684
-0.0005570328
0.0004285678
-0.0004180045
-0.0002014166
-0.0003706347
-0.0001684066
-0.001113956
0.001028928
-0.002193167
0.001772625
-0.002597374
0.001014934
-0.002012589
-0.0008473201
-0.0006809676
-0.002406835
0.001164374
-0.003260987
0.003181389
-0.003735341
0.004768746
-0.002629828
0.005385555
-2.999472e-05
0.002995608
0.004505581
-0.0003398714
0.005302406
-0.001039586
0.00129772
0.0002989599
-0.00250795
0.002201723
-0.003685526
0.003209973
-0.001735758
0.002800295
0.0006891311
0.0007555701
0.002866906
-0.001225111
0.003135519
-0.002039385
0.001693797
-0.002071969
0.000333822
-0.001520745
-0.0008878033
-0.0006176731
-0.001647955
-0.0001889841
-0.0008732237
-0.00123844
0.001684859
-0.003482991
0.003920503
-0.003734754
0.001006919
-0.002380007
-0.001801399
-0.001615296
-0.001539704
-0.002262851
0.0004194431
-0.004151811
0.002150247
-0.006315319
0.00350081
-0.006848311
0.002078885
-0.005877897
-0.0008009328
-0.004516754
-0.002309213
-0.002774334
-0.003169086
-0.0004538905
-0.004326688
0.001811396
-0.004446154
0.001920715
-0.0004983597
0.00886266
0.001147503
-0.01128012
0.02859523
-0.002884715
0.004672443
-0.001922947
-0.006194049
-0.002387146
0.002201521
-0.002422147
0.002411462
-0.0005423462
-0.00452755
-0.0002166643
-0.001142339
-0.0006044822
0.001344686
-0.000690632
0.0005147176
-0.0005093309
-0.0003827177
-0.0005178114
-0.0001599261
-0.001546241
0.002057357
-0.002853124
0.003079508
-0.00329628
0.00145809
-0.002654747
-0.001488854
-0.001070639
-0.003990942
0.001157075
-0.005488701
0.003601534
-0.0061798
0.005349564
-0.004377858
0.006567549
-0.00124798
0.00496749
0.00610564
0.001223675
0.009046221
0.0001465776
0.002374818
0.001376748
-0.00373812
0.00316334
-0.005472119
0.003874258
-0.002446676
0.002605157
0.001958232
-0.0003200425
0.005792105
-0.002316644
0.005132121
-0.002906017
0.00228317
-0.002879377
0.0003071818
-0.002217615
-0.001549565
-0.001156385
-0.002709185
-0.0006580835
-0.001371525
-0.001848765
0.00287554
-0.004156074
0.006227812
-0.003984505
0.0008353492
-0.002434653
-0.003351252
-0.002329367
-0.001644989
-0.004313464
0.00240354
-0.007186392
0.005023176
-0.008951999
0.005266417
-0.008646532
0.001773418
-0.007445322
-0.002002143
-0.005773627
-0.003980907
-0.003492522
-0.005450191
-0.0006816098
-0.0071376
0.001952605
-0.007080369
0.00166226
-0.0002080139
-0.003286535
0.01381145
-0.005263429
0.004590858
-0.005485875
0.0009137693
-0.005015622
-0.001303229
-0.004215403
-0.001965124
-0.00313726
-0.002724676
-0.001858242
-0.003210427
-0.0005675027
-0.0031294
0.0003958853
-0.002309556
0.001412381
-0.002322203
0.0020665
-0.001103006
0.00199672
0.0007239322
0.001191098
0.002163664
-5.694671e-05
0.002795997
-0.001316259
0.00236474
-0.002377683
0.001658854
-0.003328916
0.00170605
-0.003584369
0.001133168
-0.002801704
-0.001215234
-0.001503658
-0.003264469
-0.000501122
-0.002815942
0.0002097059
-0.002091452
0.0009477851
-0.002104919
0.001841396
-0.002434648
0.002807945
-0.002522634
0.003795936
-0.002442874
0.004523166
-0.001242161
0.003475567
0.005012207
-0.0002347037
0.01009635
-0.002796047
0.003416148
-0.002904779
-0.002068221
-0.003042684
-0.001284596
-0.003149639
-0.00050898
-0.00323712
3.090422e-05
-0.003061957
-0.0001445875
-0.002585422
-0.001097585
-0.001472839
-0.002828511
0.000205897
-0.003782496
0.001660113
-0.0003438669
0.0002879399
0.004304538
-0.002787318
0.004576595
-0.004639105
0.002715482
-0.005242469
0.002257022
-0.005440606
0.001815094
-0.005477796
0.0009760764
-0.005484414
0.0004631609
-0.005486329
0.0002508438
-0.005475575
0.000136303
-0.005430022
-2.700035e-06
-0.005374784
-4.607965e-05
-0.005300443
-9.498441e-05
-0.005210411
-0.0001330597
-0.005103788
-0.0001730653
-0.00498233
-0.0002095052
-0.004843724
-0.00025572
-0.004683505
-0.0003143395
-0.00451393
-0.0003362793
-0.004328609
-0.0003780096
-0.004105163
-0.0004840612
-0.003860824
-0.000542885
-0.003598088
-0.0005858854
-0.003322016
-0.0006183256
-0.002988559
-0.000768562
-0.002650581
-0.0007733228
-0.002261415
-0.00090248
-0.001794382
-0.001113062
-0.001283714
-0.001230052
-0.0008090985
-0.001144402
-0.0001843191
-0.001527647
0.000376522
-0.001381541
0.0009165181
-0.00132136
0.001763385
-0.00211097
0.002543211
-0.00188887
0.003351779
-0.001946213
0.004151992
-0.00188414
0.004738142
-0.001305834
0.005034442
-0.0005895881
0.005156915
-0.0002261098
0.005244393
-0.0002081695
0.005392641
-0.0003761135
0.005582766
-0.0004402722
0.005698431
-0.0001679868
0.005670665
0.0002339737
0.005543013
0.0004333152
0.005371921
0.0004377734
0.005232073
0.0003026892
0.005161837
0.0002247719
0.005165086
0.000727215
0.004885472
0.002625957
0.003412353
0.004936444
0.0008222724
0.004715213
-0.001502298
0.001374517
-0.003076461
0.002288891
-0.004006194
0.004687123
-0.003064744
3.882624e-05
-0.001096137
-0.004786175
0.0003148316
-0.004057473
0.001334025
-0.00270971
0.002111571
-0.002260079
0.002676183
-0.001889887
0.002576144
-0.0001322148
0.001606564
0.00303136
0.002029064
-0.001566788
0.002543275
-0.001608457
0.002812655
-0.0007877358
0.002781622
0.000439447
0.002435554
0.002325407
0.0008084002
0.005762795
-0.002814922
0.008341558
-0.006076436
0.005310646
-0.006706409
-3.148398e-05
-0.006095642
-0.002130389
-0.005939357
-0.0007731172
-0.006704641
0.001408302
-0.00776522
0.00228424
-0.008129105
0.001474591
-0.00714107
-0.0009602033
-0.005352494
-0.003141107
-0.00358922
-0.003910072
-0.00198615
-0.004017462
-0.0005973181
-0.003542626
0.000649961
-0.003142487
0.002077307
-0.003608033
0.003347932
-0.003131549
0.004394962
-0.002546335
0.005402819
-0.00247435
0.006300042
-0.002172199
0.006929567
-0.001477264
0.0073897
-0.001045762
0.007685061
-0.0006186385
0.007760536
-2.577389e-05
0.007640496
0.0006491872
0.007346524
0.00169129
0.006663656
0.003786686
0.004356315
0.007073108
0.000333282
0.007578692
-0.002587689
0.003289843
-0.004053841
0.003300473
-0.004599147
0.003190998
-0.003594737
-0.001786935
-0.00185648
-0.004823213
-0.0007692981
-0.003049042
-0.000486722
-0.0009092709
-0.0007782669
0.0005982125
-0.0006173654
-2.304589e-05
0.001185987
-0.004398289
0.002100568
-0.002030447
0.002369417
0.0008385597
0.002774763
-0.003178352
-0.001559956
0.005628178
-0.01165437
0.02874234
-0.01211901
0.001215794
-0.0110448
-0.003156169
-0.01056601
-0.001210245
-0.01011857
-0.001214389
-0.009784859
-0.0009018254
-0.009480421
-0.000825264
-0.009225588
-0.0007025421
-0.008806873
-0.001062057
-0.008618562
-0.0005056806
-0.008448514
-0.0004460574
-0.00828794
-0.0004171784
-0.008139904
-0.0003798317
-0.007994959
-0.0003691164
-0.007856798
-0.0003514502
-0.007721274
-0.0003410495
-0.007595542
-0.0003121303
-0.00747298
-0.000297896
-0.007355478
-0.0002851691
-0.007237395
-0.0002846454
-0.007125088
-0.0002688541
-0.007013667
-0.0002636305
-0.006906257
-0.000250978
-0.006802912
-0.0002365587
-0.006699005
-0.0002384921
-0.006596798
-0.0002352869
-0.00649423
-0.0002360427
-0.006394688
-0.0002272364
-0.006297121
-0.0002165571
-0.00620329
-0.0002048367
-0.00610562
-0.0002133605
-0.006010923
-0.0002077681
-0.005912494
-0.0002161792
-0.005818978
-0.0002008626
-0.005724715
-0.0001986184
-0.005629305
-0.0002022504
-0.00553298
-0.0002041062
-0.005435337
-0.0002070427
-0.005338653
-0.0001999424
-0.005239611
-0.0001991839
-0.005255907
7.058264e-05
-0.005166208
-0.0001653815
-0.005082791
-0.0001645009
-0.004996213
-0.0001691389
-0.004912651
-0.0001606165
-0.004825408
-0.0001677202
-0.004739741
-0.0001623398
-0.004652679
-0.000162033
-0.004565295
-0.0001617008
-0.004473323
-0.0001737588
-0.004380179
-0.0001766562
-0.004288079
-0.0001701399
-0.004194266
-0.0001696214
-0.004099778
-0.0001674463
-0.003998533
-0.0001837967
-0.003892773
-0.0001951994
-0.003786312
-0.0001929811
-0.003677253
-0.0001955346
-0.003560452
-0.0002116343
-0.003442532
-0.0002110421
-0.003316263
-0.0002279336
-0.00318328
-0.0002421701
-0.00304275
-0.0002552397
-0.00289329
-0.0002732775
-0.002716027
-0.0003420594
-0.002523157
-0.0003829894
-0.002322799
-0.0003998291
-0.002070723
-0.0005166496
-0.001712281
-0.0007727523
-0.001110396
-0.001503566
-0.0001770364
-0.002665648
0.001033673
-0.002916951
0.00156287
-0.0006152954
0.001964579
-0.0007408174
0.002272341
-0.0006567451
0.00250375
-0.0005439859
0.002707956
-0.0004856382
0.00290554
-0.0004571053
0.00308435
-0.0003952586
0.003236126
-0.0003176414
0.003371178
-0.0002778374
0.003507369
-0.0002854233
0.003636474
-0.0002679171
0.003760285
-0.0002513168
0.003873475
-0.0002235041
0.003982669
-0.0002139404
0.004086095
-0.0002028129
0.004190047
-0.0002063879
0.004289946
-0.0001967109
0.004385325
-0.0001842568
0.004477932
-0.0001796652
0.004571551
-0.0001848333
0.004662543
-0.0001781973
0.004750935
-0.0001725823
0.004841529
-0.0001796352
0.004927155
-0.0001680031
0.005015847
-0.0001789887
0.005105362
-0.0001841563
0.005193471
-0.0001768758
0.005277162
-0.0001651222
0.005362891
-0.0001708928
0.005447687
-0.0001726492
0.0055366
-0.0001688126
0.005509841
8.764788e-05
0.005609482
-0.0002047958
0.005710156
-0.0002150523
0.005809449
-0.0002141945
0.005908298
-0.0002143841
0.006007776
-0.0002189137
0.006106951
-0.0002165723
0.006202313
-0.0002068395
0.006300366
-0.0002152289
0.006397964
-0.0002199031
0.006500476
-0.0002327298
0.00659768
-0.0002179055
0.006695947
-0.0002183643
0.006793936
-0.0002212169
0.006894935
-0.0002305634
0.006995412
-0.0002316363
0.007100045
-0.0002452308
0.007206452
-0.0002510992
0.007313062
-0.0002524725
0.007423477
-0.0002616857
0.007529671
-0.000251429
0.007645025
-0.0002786113
0.007759583
-0.0002810429
0.007879211
-0.0002937899
0.008001053
-0.0003043195
0.008126895
-0.0003150326
0.008257544
-0.0003332784
0.008396193
-0.0003570573
0.008536386
-0.000363248
0.008684866
-0.0003882478
0.008845722
-0.000426851
0.009022263
-0.0004802029
0.009429561
-0.00103053
0.009665
-0.0006555106
0.009941874
-0.0007576195
0.01024849
-0.000836809
0.01065288
-0.001097808
0.01105864
-0.001042653
0.01198807
-0.002693823
0.001642579
0.001829118
-0.001107367
-0.001337047
0.002451172
-0.001362872
0.002908187
-0.00111376
0.003215933
-0.0008517315
0.003458007
-0.0007277128
0.003687637
-0.0006867354
0.003898887
-0.0006065083
0.004081744
-0.0005004983
0.004245247
-0.0004413408
0.004409571
-0.0004497465
0.004565269
-0.000423616
0.004715521
-0.0004015682
0.004853872
-0.0003618555
0.004987434
-0.0003475018
0.005114088
-0.0003294673
0.005240673
-0.0003329732
0.005362732
-0.0003187699
0.005478926
-0.000300451
0.005591904
-0.0002926427
0.00570543
-0.0002983597
0.005815689
-0.0002884555
0.005922642
-0.0002795355
0.006032212
-0.0002892054
0.006135283
-0.0002710738
0.006241952
-0.0002856577
0.006349376
-0.0002915804
0.006454713
-0.000282213
0.006555357
-0.0002657666
0.006657959
-0.0002734943
0.006759325
-0.000274015
0.006866945
-0.0002764326
0.00683396
0.0001206329
0.006951168
-0.0003220046
0.007071794
-0.0003356779
0.007189408
-0.0003318085
0.00730644
-0.0003314161
0.007424228
-0.0003367019
0.007541329
-0.0003336729
0.007653988
-0.0003194986
0.007769599
-0.0003308401
0.007884501
-0.0003348049
0.008005094
-0.0003533232
0.008119335
-0.0003321462
0.008234882
-0.0003339111
0.008350183
-0.000336518
0.008468672
-0.0003490529
0.008586456
-0.0003494205
0.008709237
-0.0003680109
0.008833792
-0.0003756544
0.008958665
-0.0003773455
0.009088195
-0.0003912157
0.009212117
-0.0003753509
0.009347646
-0.0004141411
0.00948125
-0.0004146465
0.009620803
-0.0004333427
0.0097633
-0.0004468163
0.009909456
-0.0004611886
0.01006213
-0.0004859478
0.01022337
-0.000518301
0.0103863
-0.0005261765
0.01055896
-0.0005609127
0.01074654
-0.00061443
0.01118089
-0.0009145485
0.01143456
-0.001284205
0.01170762
-0.0009285678
0.01203304
-0.001083045
0.01240443
-0.001208189
0.01288285
-0.001576236
0.01344382
-0.001603622
0.01431193
-0.003561935
0.01390613
0.002048385
-0.01441919
0.01427668
0.001358311
-0.01339347
-0.004181897
-0.01273403
-0.001869686
-0.01220053
-0.001747889
-0.01179258
-0.001309769
-0.01142847
-0.001189376
-0.011127
-0.00100401
-0.01084902
-0.001340043
-0.01040173
-0.0009529636
-0.01020026
-0.0006475318
-0.01000937
-0.0006080675
-0.009833589
-0.0005556128
-0.009661347
-0.0005413585
-0.009496844
-0.0005159532
-0.009335454
-0.0005024393
-0.009185022
-0.0004625624
-0.009038695
-0.0004442234
-0.008897941
-0.0004259224
-0.008756418
-0.0004261683
-0.00862153
-0.0004037423
-0.008487846
-0.0003973143
-0.008358221
-0.0003806035
-0.008233883
-0.000360897
-0.008108537
-0.0003638379
-0.007985136
-0.000358688