/*--------------------------------*- C++ -*----------------------------------*\
| =========                 |                                                 |
| \\      /  F ield         | OpenFOAM: The Open Source CFD Toolbox           |
|  \\    /   O peration     | Version:  2406                                  |
|   \\  /    A nd           | Website:  www.openfoam.com                      |
|    \\/     M anipulation  |                                                 |
\*---------------------------------------------------------------------------*/
FoamFile
{
    version     2.0;
    format      ascii;
    arch        "LSB;label=32;scalar=64";
    class       volScalarField;
    location    "1.82";
    object      p;
}
// * * * * * * * * * * * * * * * * * * * * * * * * * * * * * * * * * * * * * //

dimensions      [0 2 -2 0 0 0 0];

internalField   nonuniform List<scalar> 
15536
(
-25.55926
-24.56921
-22.22011
-17.76121
-13.13067
-10.56558
-10.6072
-12.4537
-13.05732
-11.35709
-9.554496
-10.30071
-12.67881
-16.19844
-25.65027
-41.04715
-61.34744
-80.24123
-87.60471
-76.83051
-48.97567
-19.57112
-3.338677
-8.865022
-28.06978
-42.64685
-51.05482
-60.51556
-86.13532
-133.3483
-168.8729
-143.6847
-88.58505
-88.04785
-111.8377
-121.5056
-117.6256
-118.4315
-123.5771
-127.7733
-130.4676
-131.7787
-131.7232
-130.6739
-129.1313
-126.7385
-123.5876
-119.5288
-115.1156
-110.4772
-105.2123
-99.42532
-93.05342
-86.36775
-79.29969
-71.92017
-64.58531
-57.1955
-49.48249
-41.63709
-33.96334
-26.46816
-19.03023
-11.70479
-4.631637
2.293326
8.90096
15.16354
20.97705
26.34908
31.2408
35.65844
39.56239
42.87702
45.57335
47.75616
49.2939
50.23531
50.66275
50.56852
49.65136
48.1037
45.99128
43.29676
40.04394
36.255
31.99399
27.18056
21.96947
16.41212
10.36778
4.011875
-2.585091
-9.5874
-16.7319
-23.82317
-31.06146
-38.42859
-45.74336
-53.0817
-60.28286
-67.16689
-73.68885
-79.92571
-85.98708
-91.57566
-96.66346
-101.2001
-105.1887
-108.6776
-111.4007
-113.2603
-114.2351
-114.2765
-112.9998
-109.9138
-105.1154
-101.0781
-97.31861
-103.8837
-134.0533
-138.6261
-105.7857
-75.63884
-59.86752
-46.3312
-26.83278
-30.51674
-95.7682
-128.4284
-107.9523
-74.67505
-51.46867
-39.29483
-30.71695
-24.86118
-21.424
-22.40183
-25.40969
-26.74238
-27.59089
-29.84418
-32.93645
-35.31826
-36.84641
-37.37348
-36.77085
-35.03305
-32.17756
-28.84719
-25.4212
-22.42469
-20.45873
-20.05072
-21.22443
-23.21361
-25.04106
-25.51096
-24.54227
-22.21922
-17.76877
-13.11423
-10.54519
-10.55721
-12.38085
-12.98542
-11.29759
-9.49689
-10.2548
-12.66913
-16.22188
-25.67625
-41.03268
-61.23625
-79.98427
-87.30444
-76.72363
-48.92625
-19.5901
-3.198366
-9.021276
-28.18218
-42.69475
-50.99359
-60.35109
-85.94845
-133.2442
-168.9322
-143.5792
-88.46521
-88.12908
-111.845
-121.5456
-117.5765
-117.9877
-122.7199
-126.5735
-129.0353
-130.233
-130.1226
-129.0342
-127.4778
-125.0793
-121.9457
-117.9108
-113.5242
-108.9274
-103.7067
-97.97174
-91.65426
-85.02995
-78.02991
-70.71955
-63.45411
-56.1386
-48.50503
-40.73446
-33.13586
-25.7165
-18.35318
-11.09906
-4.09279
2.762257
9.301574
15.50177
21.25797
26.57568
31.41872
35.79324
39.65916
42.94347
45.61386
47.77712
49.30194
50.23518
50.65909
50.56484
49.65364
48.12048
46.02781
43.35827
40.13617
36.38378
32.1642
27.39762
22.24024
16.73704
10.75186
4.462493
-2.069179
-9.006394
-16.0805
-23.10039
-30.26888
-37.56305
-44.80559
-52.07319
-59.2056
-66.02189
-72.48027
-78.66212
-84.67408
-90.21395
-95.26133
-99.76174
-103.7231
-107.1979
-109.9163
-111.7885
-112.7917
-112.9024
-111.7904
-109.0153
-104.552
-100.8483
-97.25015
-103.722
-133.9537
-138.5701
-105.824
-75.6538
-59.96395
-46.45579
-26.92073
-30.49162
-95.99745
-128.5911
-107.8724
-74.60689
-51.44523
-39.31347
-30.74028
-24.85082
-21.36832
-22.33006
-25.36651
-26.69726
-27.57006
-29.8354
-32.92967
-35.31697
-36.85169
-37.37963
-36.77123
-35.03507
-32.1822
-28.84825
-25.41373
-22.39918
-20.40081
-19.95725
-21.10535
-23.13942
-24.98239
-25.39063
-24.51707
-22.24514
-17.80093
-13.12734
-10.55505
-10.52974
-12.34639
-12.9564
-11.25851
-9.427289
-10.20045
-12.68653
-16.29555
-25.76528
-41.08161
-61.23979
-79.98096
-87.44348
-76.95696
-49.43529
-20.0127
-3.018567
-9.188206
-28.31561
-42.76584
-50.97952
-60.30406
-86.0025
-133.5586
-169.6556
-144.1708
-88.47955
-87.90204
-111.0029
-120.2324
-116.9856
-117.4119
-121.7405
-125.4207
-127.9056
-129.1874
-129.1238
-128.0549
-126.5352
-124.1621
-121.0634
-117.0479
-112.6752
-108.113
-102.9106
-97.20741
-90.91827
-84.32967
-77.37266
-70.08095
-62.84722
-55.57778
-47.97302
-40.23549
-32.67163
-25.2942
-17.97105
-10.74844
-3.786412
3.038135
9.541769
15.70883
21.43343
26.72189
31.53523
35.88293
39.72472
42.99062
45.6401
47.78953
49.30452
50.22996
50.64955
50.55444
49.6491
48.12891
46.05114
43.39938
40.19882
36.47033
32.27822
27.53583
22.40957
16.93907
10.98205
4.727889
-1.767033
-8.673913
-15.71174
-22.68958
-29.825
-37.08704
-44.28769
-51.53283
-58.63253
-65.42136
-71.8542
-77.99665
-83.98006
-89.4884
-94.5158
-98.99589
-102.9365
-106.3969
-109.0918
-110.9319
-111.9065
-111.9806
-110.79
-108.0962
-103.9301
-100.4313
-97.08601
-104.0502
-134.1835
-139.1436
-106.0438
-75.70624
-59.95856
-46.39863
-26.76162
-30.86006
-97.49604
-129.6291
-108.1163
-74.63062
-51.42965
-39.35921
-30.80472
-24.87278
-21.32328
-22.27846
-25.34965
-26.65111
-27.52659
-29.81427
-32.93463
-35.33502
-36.87726
-37.40232
-36.79523
-35.05189
-32.20252
-28.86491
-25.42354
-22.39622
-20.37885
-19.90879
-21.01115
-22.97731
-24.80495
-25.31062
-24.4943
-22.24295
-17.81214
-13.18495
-10.63405
-10.56448
-12.3331
-12.92783
-11.22555
-9.347193
-10.1319
-12.72463
-16.43176
-25.93031
-41.21063
-61.37075
-80.1592
-87.56557
-77.38956
-50.41082
-21.00993
-2.656264
-9.119032
-28.27006
-42.69334
-50.92363
-60.30066
-86.16594
-133.9715
-170.3998
-145.1128
-89.59278
-88.02512
-109.3849
-117.7519
-115.7554
-116.5298
-120.3753
-123.7582
-126.0097
-127.1216
-127.015
-125.8983
-124.4023
-122.0542
-119.0137
-115.0311
-110.7049
-106.2143
-101.0933
-95.47724
-89.27049
-82.76649
-75.90358
-68.70547
-61.55805
-54.38618
-46.89096
-39.23826
-31.76062
-24.47636
-17.24457
-10.10103
-3.226387
3.522719
9.951651
16.05509
21.71575
26.94495
31.706
36.00917
39.81191
43.04936
45.6676
47.79869
49.30132
50.21702
50.63123
50.53364
49.63384
48.13181
46.07481
43.44817
40.2799
36.59001
32.44506
27.74689
22.68132
17.2717
11.37381
5.198298
-1.2231
-8.064609
-15.00986
-21.90051
-28.95844
-36.12843
-43.23822
-50.39735
-57.4086
-64.10103
-70.43887
-76.50953
-82.42113
-87.84519
-92.80348
-97.20988
-101.1053
-104.5301
-107.1872
-109.0102
-110.0046
-110.1928
-109.2165
-106.7773
-103.0302
-99.87555
-97.21074
-104.9073
-133.883
-138.4891
-105.8587
-75.66195
-59.73018
-45.94843
-26.25688
-31.82945
-100.5168
-131.5297
-108.758
-74.76183
-51.39877
-39.40977
-30.89569
-24.9164
-21.2817
-22.20851
-25.3376
-26.60967
-27.46137
-29.78806
-32.95544
-35.37893
-36.93104
-37.4491
-36.83331
-35.08678
-32.23899
-28.90085
-25.44865
-22.40272
-20.35855
-19.85789
-20.92648
-22.85992
-24.69595
-25.24812
-24.4978
-22.23519
-17.78512
-13.28545
-10.82215
-10.69185
-12.34904
-12.91038
-11.2011
-9.252977
-10.02435
-12.74304
-16.6154
-26.18234
-41.44401
-61.69159
-80.64214
-88.17739
-78.14589
-51.66571
-22.42741
-2.273173
-8.644405
-27.84274
-42.27659
-50.81884
-60.45386
-86.42306
-134.419
-170.5892
-145.9065
-92.35084
-89.50945
-107.9611
-115.1803
-114.3224
-115.482
-118.977
-122.1708
-124.3768
-125.6099
-125.5519
-124.3962
-122.9387
-120.5319
-117.5313
-113.5611
-109.2076
-104.7909
-99.67617
-94.10988
-87.92408
-81.47574
-74.68609
-67.51656
-60.42491
-53.34479
-45.91874
-38.31711
-30.90713
-23.71099
-16.55683
-9.470238
-2.680651
4.008683
10.36874
16.40905
22.00191
27.17686
31.88533
36.14191
39.89754
43.10362
45.6876
47.7976
49.28703
50.19129
50.59847
50.49493
49.59984
48.12452
46.09534
43.49755
40.36452
36.71379
32.61822
27.96296
22.96498
17.61271
11.76014
5.669632
-0.6777259
-7.481626
-14.3461
-21.15119
-28.15337
-35.2598
-42.28358
-49.39698
-56.35305
-62.98749
-69.27476
-75.2916
-81.17866
-86.55412
-91.4996
-95.88482
-99.76544
-103.2291
-105.8527
-107.6776
-108.6726
-108.8039
-107.8096
-105.4972
-102.0706
-99.26801
-97.57818
-105.2038
-130.5688
-134.2988
-104.2449
-75.31245
-59.27284
-45.21362
-25.76603
-33.71398
-104.8016
-134.4179
-109.9298
-75.01014
-51.29837
-39.43852
-30.99783
-24.97849
-21.25078
-22.13644
-25.34531
-26.57544
-27.38714
-29.76606
-33.00666
-35.46484
-37.03127
-37.53829
-36.91363
-35.16014
-32.31005
-28.97255
-25.50574
-22.44122
-20.37071
-19.84443
-20.89189
-22.77595
-24.57959
-25.2221
-24.57613
-22.34056
-17.79746
-13.43717
-11.14084
-10.92015
-12.38893
-12.87774
-11.15948
-9.120825
-9.83762
-12.66767
-16.7737
-26.5306
-41.84569
-62.28773
-81.57101
-89.37172
-79.40959
-53.21195
-24.23938
-2.234413
-7.851563
-26.93839
-41.47853
-50.669
-60.80753
-86.43741
-133.1941
-167.905
-144.9554
-95.88074
-92.0311
-106.6603
-112.6595
-112.6594
-113.9863
-117.0434
-119.9253
-121.8654
-122.8904
-122.7835
-121.5007
-120.1077
-117.8578
-114.9909
-111.0716
-106.7547
-102.5015
-97.47282
-92.04261
-85.95228
-79.5994
-72.92704
-65.84437
-58.87361
-51.93261
-44.6069
-37.09701
-29.80729
-22.72278
-15.67639
-8.67124
-2.003732
4.608125
10.86981
16.81263
22.33065
27.45107
32.09316
36.28903
39.97884
43.15628
45.69784
47.77776
49.25557
50.1454
50.54265
50.43014
49.54444
48.09747
46.10562
43.54475
40.4551
36.85329
32.81161
28.20037
23.29979
18.02753
12.21159
6.222828
0.006785984
-6.741524
-13.51114
-20.18486
-27.08656
-34.10737
-41.01569
-48.02936
-54.88288
-61.41167
-67.57861
-73.49703
-79.31583
-84.56663
-89.43347
-93.70929
-97.50154
-100.8751
-103.4256
-105.1527
-106.1607
-106.5116
-105.727
-103.7015
-100.7427
-98.36076
-97.5911
-104.1736
-123.9346
-126.435
-101.2162
-74.75545
-58.88063
-44.9185
-26.15293
-37.10461
-110.1977
-138.34
-111.8212
-75.49227
-51.16313
-39.40183
-31.07376
-25.05918
-21.24707
-22.06724
-25.38466
-26.56322
-27.34524
-29.77945
-33.11673
-35.61983
-37.20517
-37.69314
-37.05419
-35.29425
-32.43629
-29.08881
-25.6065
-22.52384
-20.43226
-19.87527
-20.90639
-22.75931
-24.52362
-25.24191
-24.72895
-22.60991
-17.9634
-13.71305
-11.58209
-11.25258
-12.4035
-12.71305
-11.02662
-8.951792
-9.539018
-12.40113
-16.8482
-26.91697
-42.46625
-63.25111
-83.10074
-91.41481
-81.44006
-55.12568
-26.50303
-3.3166
-7.307108
-26.05474
-40.4112
-50.58469
-61.28919
-85.64222
-128.1491
-158.4149
-139.5796
-98.4987
-94.2854
-105.0892
-110.1235
-110.8677
-112.3622
-115.0671
-117.7441
-119.5556
-120.6483
-120.6786
-119.2489
-118.0317
-115.4511
-112.6503
-108.7498
-104.3814
-100.2631
-95.23587
-89.94689
-83.88691
-77.55998
-71.03966
-64.09549
-57.19743
-50.3264
-43.15643
-35.79278
-28.59124
-21.55803
-14.70554
-7.775821
-1.256442
5.279441
11.40379
17.25085
22.75913
27.76481
32.30659
36.41898
40.04682
43.24661
45.69592
47.73792
49.20419
50.0723
50.4579
50.34509
49.47599
48.02179
46.06205
43.5506
40.52009
37.00349
33.03474
28.44594
23.64919
18.5088
12.77393
6.826171
0.7145871
-5.872523
-12.56205
-19.14047
-25.91792
-32.76994
-39.6387
-46.57482
-53.26423
-59.72788
-65.76034
-71.59049
-77.38485
-82.51937
-87.3722
-91.56289
-95.36027
-98.82002
-101.3395
-103.1771
-104.2827
-104.4991
-103.7583
-101.9175
-99.36236
-97.31119
-97.12781
-102.3789
-116.9182
-118.6115
-97.81124
-74.27749
-58.72752
-45.38537
-28.3928
-42.80471
-116.1773
-142.8398
-114.4551
-76.42788
-51.40319
-39.25052
-31.02803
-25.16407
-21.25422
-21.98061
-25.45348
-26.59341
-27.40668
-29.88258
-33.31823
-35.89276
-37.50057
-37.95694
-37.29327
-35.52015
-32.62542
-29.25195
-25.75311
-22.65634
-20.57882
-20.0054
-20.99613
-22.82395
-24.5565
-25.32285
-24.9412
-23.13793
-18.42023
-14.18011
-12.11986
-11.65626
-12.33805
-12.23415
-10.61921
-8.636671
-9.074792
-11.7977
-16.61743
-27.01014
-42.97648
-64.87872
-85.7484
-94.68964
-84.67332
-57.77143
-29.80698
-5.917256
-7.802236
-25.74707
-39.3101
-50.71456
-61.49967
-83.88742
-119.4624
-142.9902
-130.0747
-99.58124
-95.52019
-103.0948
-107.3747
-108.6356
-110.1082
-112.283
-114.6786
-116.2017
-117.0227
-117.2018
-115.4888
-114.3198
-112.0983
-109.4213
-105.8145
-101.1403
-97.27742
-92.41323
-87.33986
-81.24447
-75.01533
-68.91004
-62.15261
-54.98065
-48.31557
-41.58904
-34.40556
-27.00748
-20.11914
-13.70983
-6.746813
-0.4631976
6.04344
11.90778
17.85763
23.35822
28.07807
32.48856
36.48937
40.11133
43.35482
45.63382
47.68969
49.12341
49.96438
50.3491
50.24653
49.35312
47.9008
45.94332
43.49208
40.52807
37.1121
33.32209
28.71943
23.99775
19.02042
13.58586
7.685008
1.339046
-4.949351
-11.2992
-18.00891
-24.7097
-31.11972
-37.84296
-45.0617
-51.30044
-57.77072
-63.63107
-69.28421
-75.07653
-79.96225
-84.85377
-88.79506
-92.46531
-95.95643
-98.31087
-99.98196
-100.866
-101.5488
-101.0507
-99.49702
-97.4204
-95.74807
-96.09383
-100.3269
-110.6185
-111.1847
-93.83461
-73.99185
-58.94112
-46.90219
-32.80678
-50.19122
-122.1525
-147.1805
-116.4036
-77.25883
-52.07976
-39.18879
-30.53977
-25.03486
-20.90568
-21.69902
-25.48999
-26.68318
-27.65356
-30.15377
-33.67023
-36.32465
-37.97967
-38.38338
-37.6443
-35.87982
-32.88488
-29.51663
-26.00145
-22.84903
-20.82236
-20.30754
-21.22351
-22.92
-24.67471
1.626811
1.08516
-44.71866
2.548227
9.197687
0.7317361
1.812769
-0.1429461
6.763626
-0.5234139
-0.2245277
-0.2257497
0.4704857
0.7972591
1.063563
1.560048
-3.924522
-1.884229
-0.04775316
-0.4280985
-13.20666
-2.275889
0.9464665
-0.6552633
1.493219
-3.835844
-1.744342
-0.3602648
-4.961572
0.4188686
0.2585391
-25.75582
-5.503629
-3.019948
0.1141561
-3.364197
0.9854991
0.1066329
-0.8402404
-4.375309
-19.09021
1.751971
1.009494
3.298018
28.53333
1.454606
-0.4035281
1.547699
1.66491
-0.2034824
-6.292858
-0.7245095
-5.71517
-0.04946909
0.02991339
17.49929
-1.901151
-2.416702
-10.57846
-12.42238
-0.3594124
0.005326114
-0.1108769
0.6628065
5.250559
-2.537739
-39.45483
-0.1974731
1.873205
-2.567388
0.4252363
-0.9644177
-7.039647
-66.84112
21.15936
0.01582067
3.439168
-1.579067
-8.685297
-0.1082469
-12.14224
0.03331266
2.21738
0.375932
-8.487297
1.606953
-4.630827
-0.6097613
0.6284273
0.685363
-13.75985
22.94466
-5.490585
0.1520771
1.495143
-0.01565094
-28.27226
5.37303
-70.13726
1.544974
0.1096536
-0.5181213
0.07030103
-78.43176
-0.079313
-22.17422
-0.1458689
1.31623
-6.668062
-22.15951
-0.5918243
1.37465
2.339112
6.663437
-28.61105
0.0405432
0.04964063
-0.5046654
21.79798
1.15425
-1.291075
-0.0183476
0.2651552
-0.6615063
-0.6273889
8.354692
1.015723
-48.5922
1.581192
-3.168728
-0.007263817
-9.160263
-0.09886506
1.252401
1.465377
-37.95961
-0.04422246
3.106355
0.1073635
0.04870171
-48.83833
0.8140946
-58.50227
1.158673
-0.03100757
-10.76262
-0.5339775
-38.59725
-0.16542
0.5228438
-6.31772
-24.50117
-28.21024
-26.04901
-6.226013
-78.98585
0.3399725
0.2183084
-0.04836806
-29.8076
-1.020404
-38.16634
-31.44191
-1.634989
0.4933331
-61.51719
-19.41538
1.559909
-40.50853
-0.279758
1.703754
-13.90139
1.664694
-55.30663
-4.492214
-7.920346
1.095984
1.49862
-21.31135
0.7659074
13.75023
-0.5031668
-0.831518
1.075275
3.811379
-41.90857
1.335666
0.1268467
-6.812813
0.3483202
0.7966753
0.0103454
-6.543435
-0.7773948
-0.0236556
1.295861
-7.298875
0.7585905
-2.814525
-30.10868
-0.6642137
-2.066213
1.35148
17.17132
1.871648
-0.6117037
-5.888138
-4.901708
-7.330994
-0.03466728
0.3773238
-3.771275
-0.06203203
-25.45639
0.244411
-12.16465
-9.179332
-0.3922124
7.637998
-0.03427244
0.3309422
3.028329
1.887816
-3.800819
-1.657023
-0.4149642
1.68466
7.121783
0.7874533
15.6756
-3.45918
-35.02526
0.8882128
-0.1503495
-59.31335
0.7030281
21.79244
0.2542747
1.969926
0.6534005
1.156141
0.3429715
-0.1865423
-12.68127
-0.02222037
-77.47605
1.77476
-54.68884
0.08635718
0.9069281
-29.08726
1.114796
-0.9857211
-0.3668905
2.152856
-23.14865
1.311164
0.009861851
-20.63739
-2.429661
-9.458937
0.03053334
1.292632
-1.949847
0.4247871
1.20069
1.327345
-0.1754183
-3.614362
-23.20106
0.1264113
-0.09744875
11.27118
0.2999724
-4.34605
2.25325
0.5654766
-34.60445
-62.15076
0.9469849
1.721986
1.0779
-14.19869
0.3610239
2.166284
-0.7767767
36.56031
0.7730752
0.9090491
-1.181382
-0.3998411
-0.1639435
1.407573
1.685023
-48.16276
-0.006256179
7.680448
-0.03684486
1.834908
0.5477499
-38.41699
-14.83488
-0.2744129
-17.59302
0.3569638
-0.1436276
-1.19744
1.545054
-8.528505
-4.141894
2.934007
-1.699445
-1.4604
1.811552
0.3972855
-10.74871
32.92228
-56.30927
-7.398343
-85.06203
0.09628178
-0.3523797
-1.465848
-0.3630254
0.0510454
-1.099954
0.1663928
-0.07982976
1.365379
-7.03307
17.68134
-0.1942409
-6.197763
-41.27818
2.348826
0.7087146
-0.5425996
-0.05903234
-2.606551
0.5144584
-58.40123
1.644884
1.157951
-0.07850973
-11.34691
4.119792
-43.7982
0.7013788
-9.256339
0.00120199
0.6709435
-0.6155556
11.32209
0.0136423
0.3327954
-25.00986
-47.82038
-0.2215179
0.06235033
-14.38497
1.531998
1.234608
0.9197396
1.405839
-0.3016506
0.9446697
0.4271199
-2.694988
0.2182493
0.285517
-2.046495
10.52751
-34.29448
1.281545
1.009661
1.197714
-1.470206
-0.3540631
2.42678
-0.1861846
1.86199
0.5496041
-0.1029042
-18.82009
-0.02704974
1.55433
1.66421
38.48378
1.415772
-1.032028
-5.665927
1.107201
2.27029
-70.14801
-0.08481535
0.04443667
1.1992
-13.67772
1.375196
1.234776
1.141416
-0.4862008
-25.80959
2.271592
-0.8934451
-4.246602
-46.90118
-45.99501
0.5546731
1.624245
-0.279131
-0.03786065
-0.5497227
-0.1793856
0.9631706
0.2202489
2.287418
-6.61777
0.07624557
-29.04285
0.5362427
-0.07198999
2.535133
-0.9106736
0.6945434
-23.22708
0.1673525
-0.161661
-41.01958
-0.07377896
-20.79253
-2.836115
-1.735727
-0.5130229
1.645582
-5.3202
-0.6013209
-4.328315
0.03189778
-0.4421772
-5.20307
-0.5655706
-6.659146
0.9339852
-3.3523
0.3656688
-0.1535324
-0.4783969
-0.1461281
0.4498823
-0.08856319
-79.25206
2.196474
-14.29535
0.8562852
-0.5358363
-0.3307227
3.559542
-0.4520407
-17.34277
1.451496
-47.58566
-1.205036
0.9295985
-15.09752
-1.493734
26.6207
0.9100757
2.031908
-0.6750022
-8.578544
0.0255135
0.2851578
6.434112
1.760247
-15.01721
1.930895
-45.22324
-0.1930576
1.087833
-29.36427
1.962751
1.351723
1.175311
1.784126
1.815229
-0.5390785
14.81716
-0.06270247
0.3100946
-22.0404
-21.66813
-2.298082
-0.04051691
-16.64857
0.2270199
-0.8787753
3.266639
2.410437
2.847475
0.2230353
1.259165
-0.04256954
-3.582018
1.89104
-0.154476
-0.2270737
1.814451
1.071246
-5.598484
-20.47634
0.1708162
9.685778
-1.064238
1.483609
0.6657056
-23.98464
-2.465773
-0.159016
-0.130652
0.2915674
0.5489738
-1.180142
-0.8622893
1.589271
0.500603
0.2455863
0.2188756
0.1285266
0.270852
-23.80896
-5.037402
-21.63016
0.03182006
3.193288
3.827299
2.759595
0.07423357
0.4652392
-0.04316615
4.051518
0.7006066
0.8414307
2.213702
-67.55012
1.620199
3.295912
-0.960797
-0.2146004
7.514796
0.9797829
7.804887
-4.870781
-2.125435
-8.097342
-0.5117384
-0.6943723
-9.077587
14.42378
-11.41007
0.03821726
-28.64605
-2.582233
-6.938593
0.06307419
-1.392606
0.01715681
3.012197
27.27728
0.5208121
0.3986217
1.579686
-2.559869
-55.89761
0.01838099
1.888209
1.590965
1.471299
1.5642
-23.99171
-7.612632
-28.73611
4.69188
-0.06759437
2.006847
-20.14715
1.605669
0.1715037
-72.00045
-2.826917
0.2331649
-21.48185
-30.66002
-0.03371914
-0.6125391
0.1060325
0.24717
-70.62605
-2.596101
0.03468934
0.2222902
-14.81834
-0.5707567
-0.2217546
2.349327
-21.4557
-10.93609
1.267338
-26.34414
1.789784
4.280921
-1.323208
-8.919753
-1.794055
7.304255
0.5954789
0.3528096
-3.098082
-11.65276
2.5294
3.601742
-0.516227
0.04587345
0.2915694
1.610668
16.53056
2.061209
0.7325109
-1.182996
-1.217491
3.396936
-63.99364
-12.70886
-3.127012
-32.34246
-6.976213
-1.639974
-0.1883114
0.1158388
-2.047865
0.1102747
-0.4394914
-0.7265963
-0.1840208
-12.48303
1.146682
1.586478
-18.98684
1.107264
23.98439
2.932565
-39.53619
1.02498
-4.865692
6.184636
-1.784996
-26.98182
-0.193424
0.04072351
-17.35222
-0.9906525
-1.054561
0.8112518
1.582253
-18.58142
0.0125343
2.218336
0.4843047
1.413945
-4.443832
-0.7690118
-0.4431778
-75.87189
0.6678932
-0.2885835
0.4943513
8.310423
-0.8110433
0.5838793
7.167004
13.40809
11.62529
1.491102
2.479763
-1.634299
-0.01102235
0.6275018
-1.735512
1.939603
1.237336
-28.1998
-1.492946
-27.31873
-8.051284
2.138724
1.651422
-28.46596
1.661048
-0.2455501
-1.190152
1.583645
-8.073417
-5.911071
-4.941517
3.652728
-19.2383
0.5721123
0.2419888
-26.38444
2.56651
1.180219
0.8683565
-0.9834827
0.02626905
-6.153423
0.7754928
0.1198361
-38.60153
-0.6212405
1.172552
1.599807
0.09589879
0.6919532
-0.01753421
-6.043037
-0.08387239
1.254164
-23.5526
-0.9072097
-0.3136431
-0.3796101
-0.2013657
0.5302509
1.277551
-1.310782
1.710977
1.400716
2.349751
-11.29967
-0.511075
-0.1120643
0.6358006
-0.8222585
0.8686867
3.423621
-1.803548
-46.93095
1.521271
-1.789148
5.516962
-0.850162
-15.63177
-3.731852
2.860678
-0.05953101
-84.49368
1.648417
-12.09584
-21.08461
-4.407275
-3.145142
-1.305395
0.8886457
12.73214
1.692439
1.906896
10.60804
1.829428
0.1586701
0.170064
-7.9416
21.04985
-7.919598
-2.812189
1.193965
-0.5051945
0.2235332
0.06541844
-1.900299
-1.401954
-21.48597
-0.4686543
-1.658724
-4.104227
5.370658
0.0493562
-1.958012
-1.010924
1.039858
0.5960339
0.07449209
-10.4582
29.42269
-0.981349
0.1461662
1.191762
1.337015
-0.03835558
-0.09216533
-39.68963
1.050349
-55.11053
-7.504288
0.5109017
1.105521
0.08751167
-10.08464
0.9142264
-1.937991
-0.5212398
-1.901233
-12.17648
-63.51032
0.1926967
-0.2951726
-1.745455
0.04301055
-0.01256702
1.024471
-6.130291
-2.136174
12.86195
0.3988325
1.188338
0.632196
0.4531747
1.791155
-1.141937
-0.3097953
-0.5970357
-3.785523
1.400316
7.718643
-31.0416
1.477035
-0.3222425
-12.74694
0.9794399
1.110487
1.192032
-0.7223223
-1.388532
-2.169458
1.61209
0.644395
0.8280238
2.694299
0.4772818
2.383054
30.6669
1.000139
-1.13705
-0.2660473
-80.88153
-0.1826368
-0.4600296
1.287366
0.02720872
32.47848
0.5763914
1.707976
1.261738
1.329182
1.889455
0.1379493
-0.2538116
-0.365228
-24.56233
-13.71415
-0.3267448
-2.550549
-107.7822
0.07169012
-0.3667736
-1.01857
-10.00883
4.048233
29.9535
-0.4609175
0.07615316
0.1184959
-0.2475713
-0.2298427
7.423515
-0.6396117
0.09328577
-0.438945
0.385036
-0.1285829
0.2049124
-2.356949
-8.54717
-0.4123909
-32.12849
2.013859
-12.66527
0.419837
-25.26933
-6.657971
-0.05294643
-14.31281
-0.1784093
-4.612847
9.882425
-14.2289
3.769372
1.49943
1.271458
-11.499
24.38501
1.864559
-0.241515
-2.162523
-23.3613
-0.2985786
0.08822842
1.228809
1.025837
0.6279224
-33.87914
-4.633929
1.665457
-0.4868334
-4.459906
0.02913241
-19.43656
-23.08193
-57.11846
1.840484
-39.48041
2.535673
0.571358
-20.52249
1.248556
-0.5909726
-28.47666
-0.02312186
0.002405081
-10.10037
-4.629838
0.03026142
-16.48753
-26.34997
-5.97617
13.96315
0.9158884
-0.106998
-18.38673
18.61721
-15.13956
0.006226794
1.060673
-0.1691378
1.050076
0.5208713
2.468179
1.974407
1.358198
-0.9887692
-54.22342
-58.96392
1.660589
-25.80518
1.782617
0.09736921
-0.08554058
2.072315
-0.3485955
0.07349013
0.1824593
0.1870884
0.06114139
-2.014833
-0.3892176
-8.610784
1.068924
1.480089
-60.20568
1.350128
1.044775
-2.455381
-26.30969
1.69003
-1.672464
-1.378094
-16.15708
-44.26748
32.06135
46.04297
1.838645
1.745588
-32.21363
4.585528
1.325623
0.02938374
10.83117
-30.9662
1.548463
1.478399
-0.03732612
1.650119
1.317793
-14.18549
-0.6358704
-27.21504
-53.46924
-34.07939
0.844209
1.573442
1.728436
1.047518
-58.51409
-0.5495375
-0.1987348
1.317359
-1.178958
-2.584063
1.514106
-44.23792
-25.20842
1.351754
2.382363
-9.826557
1.702246
2.061004
1.450732
0.05697191
-22.27913
0.843842
-34.55654
-24.36792
0.4053785
0.04810456
-50.0845
-38.91075
-0.7648005
-15.68208
-0.5661649
-0.1240885
-1.614149
-5.390759
0.3190587
1.326581
1.034107
-7.466142
-1.129518
-0.7729176
0.6352044
-13.35285
-0.3383563
0.04630682
0.07363944
-0.960631
-1.202634
-0.04447883
0.05187566
-7.830068
-0.2191466
0.2569499
2.704967
0.02513929
0.3641381
6.114447
0.01623074
-1.015253
-31.4197
-24.10532
-0.822405
1.303624
0.04498756
-0.7745037
-27.0575
-10.54776
-16.59683
-29.7768
22.60759
-7.485298
2.812821
-0.6809908
-19.33736
0.01316102
2.820787
-28.65406
-4.435797
0.9822278
-2.167783
2.639111
3.748968
-0.4795386
1.546792
-19.95088
-14.98168
-10.41461
0.6187701
5.814253
35.36311
-10.8293
-5.981351
-0.100912
1.137787
-11.61113
7.168118
1.698912
6.986169
-1.192164
-0.2187371
-10.17743
-2.862692
-1.675955
-0.06494225
-23.83203
0.1543116
-39.19675
7.02687
-0.3137327
11.75142
1.734481
29.55287
2.401625
-19.59431
-1.297197
0.2961668
14.41138
3.611862
-54.50409
-0.2471883
-0.1785115
0.9892173
1.12399
-0.4010377
-11.23984
-30.25129
0.1549102
-37.55415
-13.8183
18.56247
-5.497183
1.95661
-7.621945
-17.89464
-5.053425
-16.94345
37.96743
0.7844596
1.734931
-36.13366
0.5799015
0.3868752
-1.496292
0.08968148
-23.37182
-70.42398
-0.1628841
0.9909972
-4.710519
1.799288
-0.2688421
-13.28021
0.3719324
3.07826
2.078948
-0.2081514
-0.3334744
-0.5785581
-6.897846
-0.9133852
-2.516003
0.28696
0.09478226
-51.77144
0.01730981
1.254375
0.01489965
-0.2226543
-39.80258
1.493635
0.04307925
0.7493819
-0.05165285
-2.257108
0.3270405
-0.1403768
1.786479
-74.54786
26.03929
-1.506729
-1.105244
2.276657
-0.6144187
1.337405
0.9978324
0.2789392
0.8634242
-4.791123
13.23888
-0.008414307
-13.7916
1.502388
0.4859355
1.283282
2.028769
0.08776116
1.022447
-1.356996
-1.8908
-42.9076
-8.881431
0.2272966
-1.005111
0.2753402
-0.4061207
1.073513
-17.08561
0.2976545
0.9992777
-0.2527016
-10.52701
-0.001557373
-1.112722
2.355365
-65.38183
-0.4424692
-1.005927
-0.3582665
-77.66179
1.914805
-32.22764
0.8399141
-0.6441811
0.567768
0.647947
1.639124
-29.75044
-72.08782
0.07181863
-0.1393061
9.803398
-3.891543
1.833829
1.762495
2.10739
-1.251573
-0.5888492
0.08555622
-38.20204
-3.865024
-6.603392
1.057007
1.765247
-0.08068182
0.7668654
2.201523
1.253148
-11.27197
0.858529
2.221733
9.247155
1.780696
-11.80046
1.174845
-13.51806
-0.5638928
-28.39396
-0.1957471
-1.046739
0.02796466
-16.19354
-70.64232
-48.09151
-0.2319783
-21.76226
0.3483102
-2.548202
-2.073431
-0.4263113
15.43279
1.584065
-66.20559
-68.86037
-0.01940389
-2.037494
-1.124739
-1.165339
-2.25568
-0.1873483
1.749137
0.1528077
-0.05471573
-12.91583
0.4641991
2.213387
2.020739
-2.253877
-0.4153134
1.237146
1.328411
1.84953
0.8802828
-8.374808
-0.694643
1.249476
-0.5595721
-0.7762446
-46.88265
-2.946858
-1.63055
-15.9921
-6.330767
-0.3038508
-14.99046
-6.712401
5.895735
2.039558
-0.2365721
9.897955
-51.95769
-19.70924
0.5991193
0.2448079
16.358
-1.746884
-0.4326378
0.5707487
-2.205251
-0.7468404
-53.08357
-28.62996
-17.87881
11.67666
8.39149
-0.8822048
-49.293
-43.45682
-65.42695
1.738503
-3.692275
-0.9062777
5.495968
0.1344716
-0.3191328
-0.2121411
-0.6407442
0.7472241
2.394372
0.7840876
-0.1803294
-25.17747
-0.6254528
-0.179766
0.1679958
-78.27287
18.83273
0.04135807
-10.34358
-33.2777
-10.79203
8.047693
-1.790389
-7.567206
-11.83032
-59.09449
0.177931
-0.4762356
1.135843
-57.52312
-25.60892
0.6290665
1.737696
8.238341
-1.740162
13.5524
-0.03707924
0.2241147
1.700693
-0.2414485
-2.305744
0.4005903
0.8101546
-0.08123818
1.569569
-36.63
-0.09855401
1.227391
1.053531
-0.8080028
0.2793524
-10.05249
-6.327505
-47.95636
-0.8286057
0.6951329
23.50579
-0.4451061
1.072489
-16.60789
-1.361069
-45.59074
1.712795
0.2200361
1.340439
1.282573
-8.007757
-0.3164762
-0.1947151
1.26749
0.06260891
1.045193
-1.143732
18.12562
2.192228
-20.88413
5.258317
1.098404
0.5674538
-73.2638
0.9790663
0.7382365
2.189162
1.546143
-4.016368
-51.07203
-62.88313
-34.50485
0.001314491
-7.586977
-80.72087
0.5974075
-16.17415
1.386063
1.180332
-2.511725
-33.70403
-15.08739
-77.51869
0.6274394
-5.570862
0.02283178
0.6363261
9.115354
0.5753615
-0.6167001
1.581946
-1.977687
-0.01784489
15.53989
-0.6447697
-58.28203
0.7709335
1.468007
0.0605819
1.526692
0.8703454
-0.1400514
-16.65599
-6.407063
0.3711779
-0.2138117
-22.68062
1.583652
-0.7510546
-4.57319
-3.292888
0.3589307
-0.0008722468
-28.57003
-0.01177944
1.641771
-66.00535
26.26379
-8.164498
0.4451108
-0.5722424
-28.86141
-0.3739215
0.2670412
1.626392
-10.23485
0.4430377
0.8339156
0.5141983
-53.67156
-0.1386813
20.10532
32.27608
1.524354
-11.9622
-7.515779
-0.3226681
1.089291
-0.1898649
31.85861
-55.57636
-2.084518
-0.4234645
-0.9522229
2.640557
0.7613446
0.2769581
1.932567
0.8208783
1.930026
-21.39385
1.207711
0.8549158
-0.3830157
17.94963
-11.93531
-1.880615
0.01793534
-71.3872
28.68971
-20.84538
0.4968781
-10.47179
-4.759983
-0.03091947
1.053714
31.27521
-43.57236
-0.3865583
1.796748
-0.454064
0.0366811
20.23533
1.533062
-0.1570988
-0.6965006
-0.1286445
18.76104
-9.889135
-39.31604
1.17246
-0.4090788
-3.249818
19.16687
2.597339
6.79073
-50.82477
-38.17572
-0.2521261
0.08445955
-10.54462
-6.869155
-35.69753
-4.370542
0.8418288
1.011762
-0.2919572
2.493482
-13.05863
2.79121
1.222397
-9.654038
-0.122825
-0.2284546
-1.600837
-53.35831
-16.30403
-0.09205995
2.550614
0.01869458
-0.6745869
-2.195147
-2.903276
1.29814
0.186908
-63.71372
0.3724634
-1.48931
-0.9410298
-14.21788
0.8126045
1.081837
-9.37239
3.118068
0.05843146
0.2579984
35.349
-0.8480042
1.103074
0.08997549
0.2638686
-36.72412
-28.3667
-43.17641
12.37212
1.25277
0.07655473
1.214034
1.261473
0.06504359
0.8704116
0.06687183
1.542975
0.5603457
0.589965
-0.1907969
-0.2841649
11.29554
7.73698
0.2711055
-15.90981
-1.01867
-0.6752739
-7.494121
-6.580837
5.048542
-43.28577
-31.92364
0.4918203
1.653319
-68.88566
41.20726
-81.40382
0.8365534
1.341507
3.655739
-2.178851
7.8547
-21.27319
0.014301
3.125376
0.4179574
2.610092
1.231729
-0.2103796
0.04301284
-24.92972
-0.005239132
-3.195852
-0.2520569
1.455074
-70.37717
-14.68828
-34.53823
0.1678649
13.81295
1.154717
1.296421
-0.2755134
0.6343282
-67.65464
-0.2436233
2.772055
28.60653
1.641675
1.440807
1.691976
23.81139
0.7770211
-5.73758
2.463789
-5.985274
-0.1103555
-0.04544777
-85.36582
0.09063748
-48.4104
1.679336
3.335941
44.5726
-2.227268
-0.09914551
1.924803
2.859046
-1.740479
-1.557026
-32.51933
42.32302
2.25692
-1.195849
44.80806
-1.390089
-0.6195302
-0.4572483
-19.83155
0.1323016
-1.497273
-3.274466
1.293655
-12.96589
-48.4472
1.375512
1.402444
0.2886462
1.430819
14.53887
0.05225528
1.073924
1.444234
0.7507145
0.6054223
0.4066006
0.4644123
-0.4714164
1.445228
-11.97532
-27.7571
-24.84402
-41.35373
-31.80283
-39.99243
-0.4152508
-3.479694
0.6615985
-0.2497715
3.223481
-54.67718
-8.336455