/*--------------------------------*- C++ -*----------------------------------*\
| =========                 |                                                 |
| \\      /  F ield         | OpenFOAM: The Open Source CFD Toolbox           |
|  \\    /   O peration     | Version:  2406                                  |
|   \\  /    A nd           | Website:  www.openfoam.com                      |
|    \\/     M anipulation  |                                                 |
\*---------------------------------------------------------------------------*/
FoamFile
{
    version     2.0;
    format      ascii;
    arch        "LSB;label=32;scalar=64";
    class       surfaceScalarField;
    location    "1.82";
    object      phi;
}
// * * * * * * * * * * * * * * * * * * * * * * * * * * * * * * * * * * * * * //

dimensions      [0 3 -1 0 0 0 0];

oriented        oriented;

internalField   nonuniform List<scalar> 
23794
(
0.001677056
-0.002654029
0.0009769731
0.0008213941
0.0008556619
0.0001761574
0.0006452367
-0.00047396
0.0006501174
-0.001280166
0.0008062058
-0.001884684
0.000604518
-0.002327893
0.0004432093
-0.003347213
0.00101932
-0.004070709
0.0007234965
-0.003665299
-0.0004054099
-0.002675342
-0.0009899572
-0.001960646
-0.0007146965
-0.00106501
-0.0008956353
0.0009009728
-0.001965983
0.0032425
-0.002341527
0.005574777
-0.002332277
0.007488026
-0.00191325
0.00856704
-0.001079014
0.008036797
0.000530243
0.004968812
0.003067985
0.000145558
0.004823254
-0.004146955
0.004292513
-0.003731567
-0.0004153878
-0.0001191635
-0.003612404
0.002819451
-0.002938614
0.004010718
-0.001191267
0.00483201
-0.0008212923
0.006515406
-0.001683396
0.009432015
-0.002916609
0.01145276
-0.002020742
0.008026541
0.003426215
0.000666918
0.007359623
-0.00208541
0.002752328
-0.0002494069
-0.001836003
0.002101739
-0.002351146
0.0002773298
0.001824409
-0.005304083
0.005581412
-0.009719674
0.004415591
-0.01221297
0.002493297
-0.01352383
0.001310857
-0.01429543
0.0007716077
-0.01481446
0.0005190209
-0.01518059
0.0003661345
-0.01543067
0.0002500757
-0.01559255
0.0001618815
-0.01558977
-2.779851e-06
-0.01552909
-6.067957e-05
-0.01544225
-8.684285e-05
-0.01531389
-0.0001283551
-0.01517492
-0.0001389728
-0.01498116
-0.0001937568
-0.01475102
-0.0002301424
-0.014465
-0.0002860168
-0.01415866
-0.0003063369
-0.01383793
-0.0003207328
-0.01346534
-0.0003725935
-0.01307564
-0.0003897004
-0.01267991
-0.0003957275
-0.01222177
-0.0004581409
-0.01174277
-0.0004789954
-0.01124031
-0.0005024659
-0.01073289
-0.000507421
-0.01020586
-0.0005270227
-0.00963068
-0.0005751848
-0.009064711
-0.0005659691
-0.00845862
-0.0006060902
-0.007835996
-0.0006226246
-0.007208876
-0.0006271199
-0.006574405
-0.0006344713
-0.005909904
-0.0006645004
-0.005244556
-0.0006653482
-0.004571999
-0.000672557
-0.003886651
-0.0006853479
-0.003203772
-0.0006828794
-0.00254146
-0.000662312
-0.001844802
-0.0006966582
-0.001173936
-0.0006708659
-0.0005342945
-0.0006396411
0.0001438276
-0.0006781221
0.0009308401
-0.0007870125
0.001676936
-0.0007460961
0.002397215
-0.0007202792
0.003101087
-0.0007038719
0.003784831
-0.0006837438
0.004465661
-0.0006808294
0.005124929
-0.0006592686
0.005794949
-0.0006700201
0.006444453
-0.000649504
0.007058981
-0.0006145278
0.007676814
-0.0006178328
0.008281185
-0.0006043714
0.008862194
-0.0005810091
0.009439084
-0.00057689
0.01000083
-0.0005617411
0.01050831
-0.0005074849
0.01101017
-0.0005018647
0.01149603
-0.0004858536
0.01194028
-0.0004442551
0.01238389
-0.0004436079
0.01277481
-0.0003909192
0.0131373
-0.0003624903
0.01345991
-0.0003226076
0.01373884
-0.0002789321
0.01401112
-0.0002722836
0.01424461
-0.0002334894
0.01443712
-0.0001925092
0.01458509
-0.0001479684
0.01468799
-0.0001028971
0.01475693
-6.894054e-05
0.01475173
5.199428e-06
0.01469037
6.135628e-05
0.01450963
0.0001807388
0.01411872
0.0003909092
0.01347789
0.0006408331
0.01241282
0.001065072
0.01039997
0.002012852
0.006696912
0.003703056
0.002075751
0.004621161
-0.0002158705
0.002291621
-0.002552877
0.002337006
-0.007247678
0.004694801
-0.008481779
0.001234101
-0.00578054
-0.002701239
-0.002989096
-0.002791445
-0.0006513668
-0.002337729
0.002703697
-0.003355064
0.00595163
-0.003247932
0.001535693
0.004415936
-0.006982444
0.008518138
-0.01006697
0.003084521
-0.007963606
-0.002103359
-0.004935281
-0.003028326
-0.002357968
-0.002577312
-0.0004874104
-0.001870558
0.001178607
-0.001666018
0.002426853
-0.001248245
0.003609377
-0.001182524
0.003766719
-0.0001573422
0.002455752
0.001310967
0.001415081
0.001040671
0.00159465
-0.0001795694
0.001751834
-0.0001571839
0.001297682
0.0004541527
0.0006818542
0.0006158273
0.0001737622
0.0005080921
-0.0001420983
0.0003158604
-0.0001853476
4.32493e-05
6.922904e-06
-0.0001922705
0.0004002606
-0.0003933377
0.001005519
-0.000605258
0.00177491
-0.0007693913
0.002696701
-0.0009217908
0.003584301
-0.0008876007
0.004055987
-0.0004716853
0.003985583
7.040402e-05
0.003497878
0.0004877048
0.0008438488
0.005695028
-0.007864431
0.003146376
0.003053793
0.003496897
0.001469573
0.002229456
0.0008411701
0.001278521
-0.0006132966
0.002260672
-0.002807721
0.002798942
-0.004400423
0.002035912
-0.005327088
0.001945984
-0.005480768
0.0008771775
-0.005041765
-0.0008444129
-0.004176109
-0.001855614
-0.003101459
-0.001789346
-0.001498774
-0.002498321
0.001182967
-0.004647723
0.004066379
-0.00522494
0.006864675
-0.005130573
0.009178878
-0.004227452
0.0104935
-0.002393636
0.01064819
0.0003755577
0.008941462
0.004774709
0.00359903
0.01016569
-0.003856054
0.0117476
-0.005195223
0.000923781
-0.001114313
-0.007693314
0.00132273
-0.005375657
0.002131289
-0.001999826
0.002621893
-0.001311896
0.004027486
-0.003088988
0.007125221
-0.006014344
0.01024623
-0.005141754
0.00950206
0.004170388
0.003242395
0.01361929
-0.001911386
0.007906109
-0.004965339
0.00121795
-0.008920505
0.00160402
-0.01355051
0.006454419
-0.01860087
0.01063177
-0.02155217
0.007366884
-0.02234578
0.003286913
-0.02256239
0.001527462
-0.02259691
0.0008061255
-0.02255506
0.0004771718
-0.02247206
0.0002831341
-0.02236172
0.0001397436
-0.02223642
3.657197e-05
-0.02201005
-0.0002291478
-0.02176395
-0.0003067742
-0.02149717
-0.000353623
-0.02118979
-0.0004357383
-0.02087178
-0.0004569854
-0.02049667
-0.000568865
-0.02008557
-0.0006412452
-0.01961362
-0.0007579634
-0.01912024
-0.0007997133
-0.01861838
-0.0008225946
-0.0180604
-0.0009305752
-0.01748113
-0.0009689726
-0.01690008
-0.0009767695
-0.01624719
-0.001111038
-0.01557476
-0.001151421
-0.01487515
-0.001202075
-0.01416916
-0.001213418
-0.01344624
-0.001249938
-0.01266589
-0.001355534
-0.01189769
-0.001334172
-0.01108791
-0.001415867
-0.01025665
-0.001453889
-0.009423395
-0.001460372
-0.00858586
-0.001472006
-0.007711547
-0.001538813
-0.006835253
-0.001541642
-0.00595316
-0.00155465
-0.005057128
-0.00158138
-0.004166325
-0.001573682
-0.003297911
-0.001530726
-0.002394716
-0.001599853
-0.001520506
-0.001545076
-0.0006797098
-0.001480438
0.0002053523
-0.001563184
0.001217029
-0.001798689
0.00218394
-0.001713007
0.003121554
-0.001657893
0.004037424
-0.001619742
0.004932015
-0.001578335
0.005824631
-0.001573446
0.006692405
-0.001527042
0.007572638
-0.001550253
0.008430198
-0.001507065
0.009245396
-0.001429725
0.01006674
-0.001439182
0.01087675
-0.001414379
0.01165771
-0.001361966
0.01243462
-0.001353798
0.01319889
-0.001326015
0.0138992
-0.001207794
0.01459736
-0.001200028
0.01527777
-0.001166256
0.0159118
-0.001078291
0.0165473
-0.001079106
0.01712118
-0.0009648041
0.01767057
-0.0009118767
0.01817552
-0.0008275542
0.01863269
-0.000736105
0.01908948
-0.000729076
0.01950534
-0.0006493489
0.01987678
-0.0005639495
0.0202032
-0.000474383
0.02048385
-0.0003835452
0.02073171
-0.0003168048
0.02091956
-0.0001826552
0.02111569
-0.0001347722
0.02128719
9.243992e-06
0.02136288
0.0003152155
0.02136591
0.0006378039
0.02126424
0.001166747
0.02080697
0.002470121
0.01880086
0.005709163
0.01392854
0.009493478
0.005637374
0.01058279
-0.002412275
0.01038666
-0.005183633
0.007466159
-0.003474953
-0.0004745789
-0.0006758402
-0.005500352
0.001516923
-0.004984208
0.002746172
-0.003566978
0.005236575
-0.005845467
0.007377742
-0.005389099
-0.0005263075
0.01231999
-0.01039817
0.01839
-0.01186519
0.004551543
-0.009180175
-0.004788375
-0.005808965
-0.006399536
-0.00303432
-0.005351957
-0.0009528804
-0.003951997
0.001192347
-0.003811245
0.003067494
-0.003123392
0.004824589
-0.002939619
0.005763967
-0.001096721
0.004806142
0.002268792
0.003003893
0.002842921
0.002331124
0.0004931992
0.002193116
-1.917581e-05
0.001646674
0.001000595
0.0008758864
0.001386614
0.0002391924
0.001144786
-0.0001392513
0.0006943041
-0.000205469
0.000109467
3.352083e-05
-0.0004312604
0.00055318
-0.0009129969
0.001309172
-0.00136125
0.002202662
-0.001662882
0.00328163
-0.002000759
0.004600868
-0.002206838
0.006053287
-0.001924104
0.007453485
-0.001329794
0.008348032
-0.0004068421
0.00132745
0.01008414
-0.01111476
0.004176998
0.007002217
0.006578821
0.003781757
0.005449917
0.002238628
0.00282165
0.000961282
0.003538019
-0.001907002
0.005667226
-0.004641528
0.004770438
-0.005616898
0.002921354
-0.005641332
0.0009016116
-0.005300328
-0.001185417
-0.004479031
-0.002676911
-0.003371249
-0.002897128
-0.001447605
-0.004421964
0.001652214
-0.007747542
0.004888587
-0.008461313
0.008037666
-0.008279651
0.01065965
-0.006849436
0.01217346
-0.003907446
0.01210337
0.0004456494
0.01040554
0.006472537
0.006328824
0.0142424
-0.00181114
0.01988756
-0.00565245
0.004765091
-0.003259974
-0.01008579
-0.002255692
-0.006379939
-0.002530216
-0.001725302
-0.00273794
-0.001104172
-0.001070327
-0.004756601
0.00254106
-0.00962573
0.005843777
-0.008444472
0.00622521
0.003788955
0.001908595
0.0179359
-0.008303534
0.01811824
-0.01760821
0.01052262
-0.02278129
0.006777098
-0.0254236
0.009096734
-0.02659203
0.01180021
-0.02651085
0.007285696
-0.02633381
0.003109878
-0.02640869
0.001602338
-0.02646529
0.000862726
-0.02649211
0.0005039955
-0.02647932
0.0002703446
-0.02642834
8.876652e-05
-0.02634837
-4.339965e-05
-0.02610897
-0.0004685466
-0.0258269
-0.000588846
-0.0255234
-0.0006571262
-0.02516926
-0.0007898801
-0.02480516
-0.0008210795
-0.02436972
-0.001004308
-0.02389223
-0.001118737
-0.02334063
-0.001309565
-0.02276241
-0.001377932
-0.02217524
-0.001409758
-0.021518
-0.001587818
-0.0208352
-0.001651778
-0.02015166
-0.001660308
-0.01937911
-0.001883581
-0.01858329
-0.001947241
-0.01775448
-0.002030892
-0.01691763
-0.002050263
-0.01606045
-0.002107116
-0.01513213
-0.00228386
-0.01421974
-0.002246564
-0.01325471
-0.002380893
-0.01226405
-0.002444547
-0.01127012
-0.002454308
-0.0102704
-0.002471727
-0.009225681
-0.002583528
-0.008177863
-0.002589461
-0.007121599
-0.002610914
-0.006048267
-0.002654712
-0.004979033
-0.002642917
-0.003934443
-0.002575316
-0.002848902
-0.002685394
-0.001796834
-0.002597144
-0.0007844567
-0.002492815
0.0002737775
-0.002621419
0.001475563
-0.003000474
0.002629529
-0.002866974
0.003750354
-0.002778718
0.004844408
-0.002713796
0.005913196
-0.002647124
0.006979065
-0.002639314
0.008014358
-0.002562335
0.009064361
-0.002600256
0.01008622
-0.002528926
0.01105721
-0.002400712
0.01203546
-0.002417433
0.01299905
-0.002377966
0.01392747
-0.002290385
0.01485125
-0.002277586
0.01575888
-0.00223364
0.01658902
-0.002037938
0.01741716
-0.002028165
0.0182232
-0.001972298
0.0189723
-0.001827389
0.019725
-0.001831809
0.02040144
-0.001641243
0.02104949
-0.001559927
0.0216432
-0.001421262
0.0221778
-0.001270706
0.02271339
-0.001264671
0.02319806
-0.001134015
0.02363048
-0.0009963663
0.02400803
-0.0008519361
0.0243306
-0.0007061179
0.02461484
-0.0006010363
0.02482057
-0.0003883948
0.02501125
-0.0003254493
0.02513902
-0.0001185258
0.02513511
0.00031913
0.02505808
0.0007148274
0.02495993
0.001264903
0.02500877
0.002421283
0.02515642
0.005561513
0.02380527
0.01084462
0.01665055
0.01773751
0.005350522
0.02168668
0.001067997
0.01174868
0.004491012
-0.003897594
0.008154632
-0.009163971
0.009893937
-0.006723513
0.009647516
-0.003320557
0.009128537
-0.005326488
0.007276793
-0.003537355
-0.002518774
0.02211555
-0.01181155
0.02768278
-0.01274556
0.005485551
-0.00982957
-0.007704365
-0.006056303
-0.0101728
-0.003299034
-0.008109226
-0.001501907
-0.005749124
0.0005793697
-0.005892522
0.002695156
-0.005239178
0.004939423
-0.005183886
0.006483895
-0.002641192
0.006121243
0.002631444
0.004384993
0.00457917
0.00316698
0.001711212
0.002456537
0.0006912671
0.00160577
0.001851362
0.0006916383
0.002300747
-6.226955e-05
0.001898694
-0.0005464982
0.001178533
-0.0006517177
0.0002146866
-0.0003612288
-0.0007217493
0.0002367254
-0.001510951
0.001133952
-0.002258476
0.002222572
-0.002751502
0.003514399
-0.003292585
0.005058449
-0.003750889
0.006739183
-0.003604838
0.008395512
-0.002986123
0.01008288
-0.002094209
0.0002955648
0.01366894
-0.01299516
0.00350322
0.01176172
0.008486045
0.007818956
0.009392678
0.004488119
0.006152487
0.002703285
0.005322852
5.7273e-06
0.008364784
-0.003683517
0.008459683
-0.005499258
0.004737095
-0.005576518
0.0009788716
-0.005052218
-0.001709716
-0.004116213
-0.003612916
-0.003158396
-0.003854946
-0.001191761
-0.006388599
0.002140156
-0.01107946
0.005615087
-0.01193624
0.009114672
-0.01177924
0.01209319
-0.009827951
0.01381461
-0.005628867
0.01359527
0.0006649925
0.01120068
0.008867127
0.007754663
0.01768841
7.849984e-05
0.02756373
-0.006041232
0.01088482
-0.006756386
-0.009370635
-0.007896602
-0.005239723
-0.009218128
-0.0004037756
-0.00972313
-0.0005991711
-0.008148886
-0.006330845
-0.004342332
-0.01343228
-0.001114945
-0.01167186
0.0006134181
0.002060592
-0.005378325
0.02392765
-0.01882912
0.03156904
-0.02892452
0.02061802
-0.03186105
0.00971362
-0.03241197
0.009647657
-0.03178464
0.01117288
-0.03140924
0.006910292
-0.03168038
0.003381024
-0.03195323
0.001875189
-0.03209217
0.001001666
-0.03213434
0.0005461657
-0.03211381
0.0002498137
-0.03202545
4.068337e-07
-0.03190141
-0.000167436
-0.03158396
-0.0007859988
-0.03122258
-0.0009502324
-0.03083342
-0.001046279
-0.03038602
-0.001237282
-0.02992958
-0.001277522
-0.02938907
-0.001544818
-0.02879995
-0.001707859
-0.0281228
-0.001986716
-0.02741467
-0.002086064
-0.02669731
-0.002127112
-0.02589782
-0.002387313
-0.02506793
-0.002481668
-0.02423792
-0.002490315
-0.02330478
-0.002816722
-0.0223419
-0.00291012
-0.02134068
-0.003032113
-0.0203313
-0.003059642
-0.01929897
-0.003139448
-0.01818003
-0.003402794
-0.0170831
-0.003343495
-0.01592199
-0.003541999
-0.01473191
-0.003634631
-0.01353702
-0.003649204
-0.01233602
-0.003672722
-0.01108126
-0.003838287
-0.009822634
-0.003848088
-0.008553067
-0.00388048
-0.007263888
-0.003943892
-0.005975878
-0.003930926
-0.004716576
-0.003834619
-0.003405188
-0.003996782
-0.002131134
-0.003871198
-0.0009045932
-0.003719356
0.0003643612
-0.003890373
0.001793487
-0.0044296
0.003172516
-0.004246003
0.004516463
-0.004122666
0.00582649
-0.004023822
0.007105315
-0.003925949
0.008380507
-0.003914507
0.009619238
-0.003801065
0.01087842
-0.003859442
0.01210185
-0.003752352
0.01326743
-0.003566293
0.01444322
-0.003593223
0.01559973
-0.003534479
0.01671742
-0.003408073
0.01783142
-0.003391584
0.01892332
-0.003325537
0.01992591
-0.003040526
0.02092697
-0.00302923
0.02190049
-0.002945814
0.02280793
-0.002734831
0.02372042
-0.002744304
0.0245423
-0.002463122
0.02533025
-0.002347878
0.02605418
-0.00214519
0.02671067
-0.001927195
0.02736831
-0.001922309
0.02796509
-0.001730793
0.02850216
-0.001533442
0.02897272
-0.001322493
0.02938197
-0.00111537
0.02974655
-0.0009656162
0.03001826
-0.0006601087
0.03027673
-0.0005839117
0.03045651
-0.0002983067
0.03046042
0.0003152197
0.03033466
0.0008405885
0.03009924
0.00150032
0.02978061
0.002739915
0.02972199
0.00562013
0.03024918
0.01031743
0.02795724
0.02002946
0.0208652
0.02877872
0.0159935
0.01662038
0.01673859
-0.004642684
0.01925383
-0.01167921
0.01992824
-0.00739792
0.01827941
-0.001671731
0.01446094
-0.001508021
0.007780629
0.00314296
-0.003655993
0.03355218
-0.01251652
0.03654331
-0.0136905
0.006659527
-0.01015828
-0.01123658
-0.005785834
-0.01454525
-0.00289507
-0.01099999
-0.001520827
-0.007123368
0.000289307
-0.007702656
0.002566796
-0.007516667
0.005358102
-0.007975193
0.007340471
-0.00462356
0.00730759
0.002664324
0.005730448
0.006156312
0.004015315
0.003426345
0.002650122
0.00205646
0.001439415
0.003062069
0.0002804553
0.003459706
-0.0006701362
0.002849285
-0.001261477
0.001769873
-0.001395943
0.0003491529
-0.001079666
-0.001038026
-0.0003359797
-0.002254638
0.0007089865
-0.003303443
0.002014527
-0.004057043
0.003557226
-0.004835285
0.005402178
-0.005595841
0.007437881
-0.005640541
0.009395531
-0.004943773
0.01123582
-0.003934498
-0.001463778
0.0162623
-0.01448551
0.001726429
0.01609892
0.00864942
0.01272244
0.01276916
0.007991932
0.01088299
0.004729681
0.008585103
0.002347902
0.01074656
-0.001621989
0.01242957
-0.004882111
0.007997217
-0.005397079
0.00149384
-0.00454018
-0.002566615
-0.003199441
-0.004953656
-0.002329129
-0.004725257
-0.0006064791
-0.008111249
0.002652796
-0.01433874
0.006243511
-0.01552696
0.01015581
-0.01569154
0.01361268
-0.01328482
0.01560949
-0.007625679
0.01522029
0.001054196
0.0119115
0.01217592
0.008148466
0.02145145
0.000906324
0.03480587
-0.007254739
0.01904589
-0.01190306
-0.004722314
-0.01571844
-0.001424341
-0.01818083
0.002058608
-0.01916854
0.000388545
-0.01819464
-0.007304747
-0.01492019
-0.01670674
-0.0102047
-0.01638735
-0.01047756
0.002333455
-0.01891032
0.03236041
-0.03109296
0.04375168
-0.03678067
0.02630573
-0.03745553
0.01038848
-0.03777889
0.009971016
-0.03730075
0.01069474
-0.0372788
0.006888348
-0.03766327
0.003765489
-0.03796032
0.002172242
-0.03813478
0.001176124
-0.03821949
0.0006308743
-0.03823086
0.0002611858
-0.03814634
-8.411308e-05
-0.03803919
-0.0002745881
-0.03767556
-0.001149629
-0.03726877
-0.001357021
-0.03682655
-0.001488494
-0.03630107
-0.001762763
-0.0357811
-0.001797492
-0.03514416
-0.002181758
-0.0344552
-0.002396823
-0.03365272
-0.002789194
-0.03281383
-0.002924953
-0.03196742
-0.002973522
-0.03101448
-0.003340254
-0.03002575
-0.003470404
-0.02904045
-0.003475613
-0.02792778
-0.003929388
-0.02677613
-0.004061772
-0.02557947
-0.004228773
-0.02437536
-0.004263754
-0.02314345
-0.004371357
-0.02180116
-0.004745081
-0.02049256
-0.004652094
-0.01910079
-0.004933768
-0.01767765
-0.005057775
-0.0162465
-0.005080353
-0.01481015
-0.005109069
-0.01330582
-0.005342619
-0.01179696
-0.005356945
-0.01027228
-0.005405161
-0.008726666
-0.005489509
-0.007177772
-0.00547982
-0.005662749
-0.005349642
-0.004077366
-0.005582165
-0.00253124
-0.005417324
-0.001041254
-0.005209341
0.0004806982
-0.005412325
0.002178566
-0.006127467
0.003825255
-0.005892692
0.00543465
-0.005732061
0.006997761
-0.005586932
0.008523284
-0.005451472
0.01004792
-0.005439145
0.0115296
-0.005282747
0.01304133
-0.005371172
0.01450389
-0.005214912
0.01590345
-0.004965852
0.01731767
-0.00500744
0.01870011
-0.004916922
0.02004101
-0.004748966
0.02138239
-0.004732971
0.02268765
-0.0046308
0.02388811
-0.004240983
0.02508888
-0.00423
0.02625272
-0.004109651
0.02733398
-0.003816094
0.0284272
-0.003837521
0.02940571
-0.003441636
0.03034328
-0.003285442
0.03120281
-0.003004726
0.03197803
-0.002702409
0.03275784
-0.002702118
0.03345718
-0.002430136
0.03408988
-0.002166141
0.03463596
-0.001868574
0.03510777
-0.001587184
0.03553058
-0.00138842
0.03582622
-0.0009557545
0.03611295
-0.0008706424
0.03629862
-0.0004839764
0.03627081
0.0003430324
0.03610351
0.00100789
0.03582917
0.001774659
0.03546803
0.00310106
0.0350507
0.006037455
0.0354072
0.009960928
0.03652165
0.01891501
0.03606006
0.02924031
0.03405673
0.01862372
0.03244953
-0.003035478
0.03179074
-0.01102043
0.03045423
-0.006061416
0.02743853
0.001343969
0.02094913
0.004981385
0.009651517
0.01444057
-0.003405684
0.04660938
-0.01206278
0.04520041
-0.01370442
0.008301162
-0.009660081
-0.01528092
-0.0048219
-0.01938343
-0.001675999
-0.01414589
-0.0006148949
-0.008184472
0.0007430257
-0.009060576
0.003006921
-0.009780562
0.006264863
-0.01123313
0.008601229
-0.006959927
0.008702039
0.002563515
0.007043736
0.007814616
0.004677148
0.005792933
0.002640643
0.004092965
0.001013955
0.004688757
-0.0004965306
0.004970192
-0.00170459
0.004057345
-0.002425711
0.002490994
-0.002620984
0.0005444264
-0.002265928
-0.001393082
-0.001355934
-0.003164633
-7.531224e-05
-0.004584064
0.001476162
-0.005608517
0.003283547
-0.00664267
0.005470775
-0.007783069
0.00792067
-0.008090436
0.010318
-0.007341102
0.01246467
-0.006081168
-0.003484617
0.01825448
-0.01602143
-0.0005066158
0.0194765
0.0074274
0.0173901
0.01485557
0.01234472
0.01592837
0.007381996
0.01354783
0.004693861
0.0134347
0.00145941
0.01566403
-0.002896366
0.01235299
-0.004544862
0.003142335
-0.003783233
-0.003328245
-0.002059124
-0.006677765
-0.001033051
-0.005751331
0.0004260626
-0.009570363
0.003188535
-0.01710121
0.006834622
-0.01917305
0.01131513
-0.02017205
0.01547144
-0.01744113
0.01785208
-0.01000632
0.017149
0.001757276
0.01264035
0.01668457
0.007594154
0.02649764
0.0003427972
0.04205722
-0.01013727
0.02952595
-0.01909401
0.004234433
-0.02544068
0.004922326
-0.02893384
0.005551768
-0.03071494
0.002169641
-0.03110051
-0.006919173
-0.03002866
-0.01777859
-0.02783492
-0.01858108
-0.03011801
0.004616545
-0.03709153
0.03933392
-0.04281629
0.04947644
-0.04338994
0.02687938
-0.04393158
0.01093012
-0.04493082
0.01097026
-0.04488436
0.01064827
-0.0451154
0.007119388
-0.04553846
0.004188553
-0.04587516
0.002508935
-0.04605005
0.001351014
-0.04609921
0.0006800349
-0.04608858
0.0002505558
-0.0459375
-0.0002351886
-0.04578246
-0.0004296339
-0.04533215
-0.001599934
-0.04483102
-0.00185815
-0.04428103
-0.002038487
-0.04362229
-0.002421504
-0.04299889
-0.002420896
-0.04221756
-0.002963084
-0.04138592
-0.003228467
-0.04041242
-0.003762695
-0.03939526
-0.003942106
-0.03837769
-0.003991095
-0.03722493
-0.004493017
-0.03603313
-0.004662198
-0.03485267
-0.004656073
-0.03351452
-0.005267534
-0.03212488
-0.005451412
-0.03068785
-0.00566581
-0.029242
-0.005709604
-0.0277669
-0.005846459
-0.0261486
-0.006363377
-0.0245867
-0.006213992
-0.02291327
-0.006607204
-0.02120749
-0.006763548
-0.0194926
-0.006795242
-0.01777522
-0.006826451
-0.01597425
-0.007143591
-0.01417118
-0.007160016
-0.0123406
-0.007235741
-0.01048983
-0.007340281
-0.008623805
-0.007345841
-0.006807791
-0.007165657
-0.004895078
-0.007494878
-0.003013494
-0.007298909
-0.001199555
-0.00702328
0.0006284057
-0.007240286
0.002645431
-0.008144493
0.00461403
-0.00786129
0.006529319
-0.00764735
0.008388843
-0.007446457
0.01021088
-0.00727351
0.01203783
-0.007266097
0.01381445
-0.007059367
0.01563678
-0.007193497
0.01738629
-0.006964427
0.01907155
-0.006651112
0.02078015
-0.00671604
0.02243371
-0.006570482
0.02404292
-0.006358174
0.02566868
-0.006358724
0.02723208
-0.006194206
0.02867028
-0.005679181
0.03011622
-0.005675942
0.03151506
-0.005508493
0.03280949
-0.005110523
0.03412754
-0.005155572
0.03530489
-0.004618985
0.0364337
-0.004414251
0.03746696
-0.00403798
0.03840391
-0.003639362
0.03935204
-0.003650245
0.04019359
-0.003271688
0.04096919
-0.002941741
0.04163157
-0.002530951
0.04221335
-0.002168969
0.04273614
-0.001911205
0.04311229
-0.001331907
0.04347159
-0.001229946
0.04372821
-0.0007405933
0.04374976
0.00032148
0.04357977
0.001177879
0.0432834
0.002071034
0.04288273
0.003501728
0.04239874
0.00652144
0.04207267
0.010287
0.04356572
0.01742195
0.04649878
0.02630725
0.04674223
0.01838027
0.04390131
-0.0001945594
0.04108686
-0.008205979
0.03830557
-0.003280125
0.0347182
0.004931337
0.02738352
0.01231607
0.01326018
0.0285639
-0.001445953
0.06131551
-0.009727065
0.05348152
-0.01157773
0.01015182
-0.00731069
-0.01954796
-0.002486148
-0.02420797
0.0008327287
-0.01746477
0.00149232
-0.008844063
0.002141658
-0.009709914
0.003921987
-0.01156089
0.007335788
-0.01464694
0.009937088
-0.009561227
0.0100826
0.002418005
0.008036011
0.009861203
0.004868399
0.008960545
0.002242337
0.006719026
8.872326e-05
0.006842371
-0.001844874
0.006903789
-0.003361537
0.005574008
-0.004266607
0.003396064
-0.004473023
0.0007508426
-0.004002953
-0.001863152
-0.002878285
-0.004289301
-0.001316902
-0.006145447
0.0005020188
-0.007427438
0.002660472
-0.008801123
0.005387753
-0.01051035
0.008421912
-0.01112459
0.01131544
-0.01023463
0.01384114
-0.008606867
-0.00566491
0.02011425
-0.0177944
-0.002826468
0.0220587
0.005482949
0.02123233
0.01568194
0.01677728
0.02038341
0.01072833
0.01959678
0.007022063
0.01714097
0.004809975
0.01787611
0.0008756461
0.01628732
-0.002016684
0.006034666
-0.002328356
-0.003016573
-0.0009782463
-0.008027874
0.0001190136
-0.006848591
0.001305625
-0.01075697
0.003703665
-0.01949925
0.007424347
-0.02289373
0.01274504
-0.02549273
0.0178895
-0.02258559
0.02072202
-0.01283885
0.01949359
0.002985705
0.01320468
0.02297349
0.005703373
0.03399895
-0.002704521
0.05046512
-0.01506568
0.04188711
-0.02771949
0.01688824
-0.03582679
0.01302963
-0.04007272
0.009797695
-0.04292078
0.005017697
-0.045244
-0.004595948
-0.04747933
-0.01554326
-0.04964635
-0.01641407
-0.05307554
0.008045742
-0.0552274
0.04148578
-0.05323703
0.04748607
-0.05128423
0.02492659
-0.05270856
0.01235444
-0.05378198
0.01204368
-0.05381892
0.01068521
-0.054059
0.007359472
-0.05445416
0.004583715
-0.05483645
0.002891227
-0.05504285
0.001557407
-0.05512755
0.0007647395
-0.05518508
0.000308089
-0.05496794
-0.0004523362
-0.05486711
-0.0005304649
-0.05427367
-0.002193367
-0.0536995
-0.002432326
-0.05305846
-0.002679524
-0.05225107
-0.003228892
-0.05154068
-0.003131285
-0.0505906
-0.003913161
-0.04961284
-0.004206232
-0.04844611
-0.004929428
-0.04721975
-0.005168463
-0.04601312
-0.005197729
-0.04463605
-0.005870084
-0.04320616
-0.006092092
-0.04178919
-0.006073038
-0.04019536
-0.006861366
-0.03853123
-0.007115542
-0.03681057
-0.007386471
-0.03505817
-0.007462003
-0.03331727
-0.007587359
-0.03135655
-0.008324093
-0.02949843
-0.008072115
-0.0274786
-0.008627031
-0.02543753
-0.008804623
-0.0233883
-0.008844472
-0.02130269
-0.008912063
-0.01916428
-0.009281999
-0.01701724
-0.009307059
-0.01482515
-0.009427824
-0.01262912
-0.009536313
-0.01034958
-0.009625382
-0.008198518
-0.00931672
-0.005893586
-0.009799809
-0.003598362
-0.009594133
-0.001387261
-0.009234381
0.0008154498
-0.009442996
0.003211725
-0.01054077
0.005565164
-0.01021473
0.007815095
-0.009897281
0.01003854
-0.009669906
0.01223382
-0.009468789
0.01442173
-0.009454004
0.01655265
-0.009190285
0.01876595
-0.009406804
0.0208642
-0.009062667
0.02288275
-0.008669668
0.02493534
-0.008768632
0.02693337
-0.008568513
0.02886764
-0.008292435
0.03080896
-0.008300047
0.03268703
-0.008072282
0.03440474
-0.007396888
0.03613576
-0.007406958
0.03779243
-0.007165171
0.039357
-0.006675093
0.04093901
-0.006737583
0.0423396
-0.006019571
0.04370399
-0.005778638
0.04492447
-0.005258465
0.04604593
-0.004760821
0.04718702
-0.004791337
0.04817471
-0.004259377
0.04911311
-0.003880141
0.0498836
-0.003301442
0.05057975
-0.002865114
0.05121087
-0.002542328
0.05163446
-0.001755494
0.05207412
-0.001669603
0.05237021
-0.001036684
0.05234234
0.0003493486
0.05214018
0.001380039
0.05180214
0.002409067
0.0513851
0.003918768
0.05099273
0.006913813
0.05063596
0.01064378
0.05156997
0.01648794
0.05455318
0.02332405
0.05518408
0.01774937
0.05187975
0.003109765
0.0482764
-0.00460263
0.04472453
0.0002717502
0.04102979
0.008626075
0.03416029
0.01918557
0.01936837
0.04335583
0.00414784
0.07653604
-0.003991959
0.06162132
-0.005652174
0.01181204
-0.001634292
-0.02356584
0.002542193
-0.02838446
0.005451343
-0.02037392
0.00526561
-0.00865833
0.005078776
-0.009523079
0.005786273
-0.01226839
0.008617799
-0.01747846
0.01103793
-0.01198136
0.0110407
0.002415235
0.008289095
0.01261281
0.004250767
0.01299887
0.001203309
0.009766484
-0.001562169
0.00960785
-0.004024979
0.009366599
-0.005907444
0.007456473
-0.006907572
0.004396191
-0.006955894
0.0007991654
-0.006292404
-0.002526642
-0.004857405
-0.0057243
-0.002974182
-0.008028671
-0.0007714477
-0.009630172
0.001998169
-0.01157074
0.00562488
-0.01413706
0.009433825
-0.01493354
0.01281297
-0.01361378
0.01556801
-0.0113619
-0.0078913
0.02218598
-0.02002245
-0.004989994
0.02434213
0.003326798
0.02438925
0.01563482
0.02108393
0.02368872
0.01486856
0.02581216
0.009795219
0.02221431
0.007779676
0.01989166
0.005318518
0.01874848
0.002046841
0.009306343
0.0001797535
-0.001149485
-0.0003081851
-0.007539936
0.0002798395
-0.007436615
0.001536929
-0.01201406
0.003894969
-0.02185729
0.007776706
-0.02677546
0.01432946
-0.03204548
0.02045753
-0.02871367
0.02336578
-0.01574709
0.02172385
0.004627631
0.01411325
0.03058409
0.004010929
0.04410127
-0.007650088
0.06212613
-0.02259169
0.05682871
-0.03715645
0.031453
-0.04554775
0.02142093
-0.05004888
0.01429883
-0.05404179
0.00901061
-0.05789
-0.000747738
-0.06256239
-0.01087087
-0.06779241
-0.01118405
-0.07136814
0.01162148
-0.06965364
0.03977127
-0.06373905
0.04157148
-0.06184894
0.02303648
-0.06368256
0.01418806
-0.06457763
0.01293875
-0.0647918
0.01089939
-0.06511959
0.00768726
-0.06551242
0.004976546
-0.06594203
0.003320833
-0.06615735
0.001772724
-0.06616068
0.0007680753
-0.06626738
0.0004147879
-0.06593902
-0.0007806975
-0.06578997
-0.0006795083
-0.06514294
-0.002840407
-0.06441352
-0.003161738
-0.06371019
-0.003382859
-0.06264449
-0.004294589
-0.06184324
-0.003932532
-0.06068718
-0.005069227
-0.05954427
-0.005349142
-0.05812191
-0.006351791
-0.05661875
-0.006671618
-0.05519656
-0.006619915
-0.05357665
-0.00749
-0.05179583
-0.007872913
-0.05010399
-0.007764874
-0.04822017
-0.008745188
-0.04624366
-0.00909205
-0.04414184
-0.009488289
-0.04201866
-0.009585184
-0.04002887
-0.00957715
-0.03758796
-0.010765
-0.03541161
-0.01024847
-0.03291212
-0.01112652
-0.03052586
-0.01119088
-0.02806854
-0.0113018
-0.02552852
-0.01145208
-0.02300984
-0.01180068
-0.02041261
-0.01190429
-0.01777758
-0.01206286
-0.01520451
-0.01210938
-0.01242045
-0.01240944
-0.009918653
-0.01181851
-0.007099446
-0.01261902
-0.004321194
-0.01237238
-0.001625363
-0.01193021
0.001059792
-0.01212815
0.003938401
-0.01341938
0.006650359
-0.01292669
0.009297412
-0.01254433
0.01200047
-0.01237296
0.01467494
-0.01214326
0.01730914
-0.01208821
0.01983606
-0.01171721
0.02256193
-0.01213267
0.02506011
-0.01156085
0.02748993
-0.01109949
0.02993465
-0.01121335