/*--------------------------------*- C++ -*----------------------------------*\
| =========                 |                                                 |
| \\      /  F ield         | OpenFOAM: The Open Source CFD Toolbox           |
|  \\    /   O peration     | Version:  2406                                  |
|   \\  /    A nd           | Website:  www.openfoam.com                      |
|    \\/     M anipulation  |                                                 |
\*---------------------------------------------------------------------------*/
FoamFile
{
    version     2.0;
    format      ascii;
    arch        "LSB;label=32;scalar=64";
    class       volVectorField;
    location    "1.82";
    object      U;
}
// * * * * * * * * * * * * * * * * * * * * * * * * * * * * * * * * * * * * * //

dimensions      [0 1 -1 0 0 0 0];

internalField   nonuniform List<vector> 
15536
(
(-0.07375822 2.224371 -1.866973e-22)
(-0.04703018 1.242966 -4.268691e-19)
(0.01116386 0.4879303 -7.850945e-19)
(0.0581623 0.001323294 -6.270533e-19)
(0.1937654 -0.8643086 -7.511155e-21)
(0.3919691 -1.738211 3.865181e-21)
(0.5285054 -1.943649 6.196072e-21)
(0.9677142 -2.809739 -6.041159e-21)
(1.470024 -3.835993 1.732376e-18)
(1.540236 -3.789643 1.50856e-18)
(1.282957 -2.915473 0)
(1.081546 -2.179044 0)
(0.8165383 -1.485097 -1.560699e-20)
(0.05878519 -0.2037438 4.505234e-18)
(-1.213488 1.698605 3.422956e-18)
(-2.662135 3.618325 -1.06277e-17)
(-4.104825 5.289124 7.675622e-18)
(-5.269893 6.382439 7.998385e-20)
(-5.890946 6.72098 -1.582243e-19)
(-4.983294 5.516601 7.886974e-20)
(-2.21128 2.537728 0)
(2.126393 -1.556345 2.576795e-18)
(4.200317 -3.337761 0)
(1.80789 -1.521305 1.19648e-18)
(-1.54989 0.8598667 -1.955844e-20)
(-3.184426 1.904523 -4.852175e-20)
(-4.152376 2.361255 4.794902e-20)
(-5.233522 2.706135 -7.655388e-18)
(-7.233745 3.356426 -1.038014e-17)
(-9.631728 4.107485 0)
(-10.5316 4.33402 -7.079323e-20)
(-5.084708 2.216124 -8.655573e-18)
(2.877945 -0.7083496 5.912451e-18)
(1.720823 -0.6372619 0)
(-0.8532131 -0.213705 -7.666682e-18)
(-3.302352 0.2804047 -3.242131e-20)
(2.440257 -0.1351334 3.839883e-18)
(8.526493 -0.2170792 -1.77701e-18)
(11.7628 0.1000646 1.763674e-21)
(13.46245 0.6025053 -4.488648e-19)
(14.39135 1.216339 1.810895e-18)
(14.95441 1.881123 -2.833267e-20)
(15.29092 2.555167 2.815393e-20)
(15.45869 3.222557 0)
(15.49362 3.877286 -6.933119e-18)
(15.40461 4.505958 -6.836945e-18)
(15.18417 5.101119 0)
(14.90789 5.672117 -1.287766e-17)
(14.56612 6.210684 1.249355e-17)
(14.18746 6.722782 1.201216e-17)
(13.75934 7.19355 4.354483e-20)
(13.27565 7.619116 -1.08407e-17)
(12.74375 7.994352 0)
(12.17259 8.321238 0)
(11.57163 8.596185 8.727233e-18)
(10.93798 8.811449 8.003079e-18)
(10.29017 8.978456 5.328978e-20)
(9.634435 9.095415 6.33489e-18)
(8.957301 9.143555 1.115899e-17)
(8.271698 9.131601 4.763206e-18)
(7.585627 9.06269 3.891538e-18)
(6.912473 8.946247 -2.748515e-20)
(6.248889 8.772459 0)
(5.592398 8.534694 1.386249e-18)
(4.956437 8.249787 0)
(4.337137 7.903971 3.026497e-19)
(3.743242 7.503458 -2.79697e-20)
(3.184831 7.059066 -2.916556e-21)
(2.661311 6.568491 8.809776e-21)
(2.17696 6.036036 -3.337807e-18)
(1.737411 5.470123 -1.675619e-20)
(1.34329 4.868193 2.329244e-18)
(0.9961728 4.232189 2.600888e-18)
(0.7013448 3.577831 0)
(0.4583276 2.910066 0)
(0.2701543 2.226468 3.237657e-18)
(0.1340346 1.541045 -2.929257e-22)
(0.05263087 0.8802354 8.875563e-19)
(0.0253998 0.2166826 1.644663e-21)
(0.05095752 -0.5391911 -6.912003e-21)
(0.1240768 -1.326479 -1.71254e-18)
(0.2555787 -2.075277 0)
(0.4429341 -2.788976 3.095244e-18)
(0.6828675 -3.474084 0)
(0.973973 -4.130979 -2.621136e-18)
(1.313933 -4.7578 2.319702e-18)
(1.702042 -5.353425 1.713174e-20)
(2.13489 -5.91646 3.450565e-18)
(2.6092 -6.437299 9.382213e-21)
(3.120778 -6.913805 -2.064346e-18)
(3.666888 -7.3478 -1.300381e-18)
(4.24478 -7.733261 6.811021e-21)
(4.852475 -8.072398 3.16307e-19)
(5.481121 -8.360518 -1.145227e-18)
(6.124531 -8.593899 1.863358e-20)
(6.772512 -8.759618 6.532127e-21)
(7.430133 -8.872008 -3.613554e-18)
(8.093027 -8.931274 0)
(8.752593 -8.929808 1.036551e-17)
(9.411042 -8.878208 5.907353e-18)
(10.0488 -8.76269 1.049059e-19)
(10.66214 -8.585891 -7.521028e-18)
(11.247 -8.351069 0)
(11.80209 -8.062462 0)
(12.32611 -7.728225 0)
(12.81012 -7.34654 0)
(13.24397 -6.918654 1.059013e-17)
(13.62399 -6.448448 1.115804e-17)
(13.94965 -5.940786 2.710339e-20)
(14.21507 -5.404255 -1.19302e-17)
(14.38448 -4.829674 -6.070025e-18)
(14.43487 -4.220818 -6.247968e-18)
(14.31956 -3.576072 4.88376e-20)
(13.9821 -2.900702 6.317835e-18)
(13.31867 -2.213094 3.227973e-18)
(12.03383 -1.553266 -2.494478e-20)
(9.403342 -0.894554 -5.972019e-21)
(4.410964 -0.2684458 4.086888e-19)
(0.4075155 0.1155515 -8.348987e-19)
(-0.6016882 -0.1962375 -2.266202e-20)
(-5.995553 -1.065776 1.456094e-20)
(-8.890873 -1.534148 4.22826e-18)
(-6.823376 -1.275053 2.921081e-20)
(-4.520722 -0.9198367 0)
(-2.088968 -0.4032858 -4.033818e-18)
(0.5317057 0.383329 -3.134525e-18)
(5.743107 2.294287 -5.08668e-21)
(5.751593 2.165829 3.887707e-18)
(-3.538625 -2.207675 -1.168359e-17)
(-8.832024 -4.874287 0)
(-7.98527 -4.51079 0)
(-5.618907 -3.363281 -9.206302e-18)
(-3.17675 -2.010686 0)
(-1.218903 -0.8053003 3.761821e-20)
(0.3150279 0.2916353 -4.322888e-18)
(1.467558 1.259974 -3.399853e-18)
(2.293859 2.135018 2.290705e-20)
(2.870861 2.840092 -5.984393e-18)
(2.450272 2.528826 -5.216748e-20)
(1.132418 1.279074 7.371345e-18)
(0.7868468 1.057276 3.842945e-18)
(1.049875 1.481519 4.153025e-18)
(0.9455553 1.384316 4.564384e-18)
(0.5503265 0.8450063 0)
(0.2194261 0.3361597 -2.030117e-20)
(0.00100857 -0.0523739 -5.325351e-18)
(-0.08600481 -0.2248789 0)
(-0.04119242 -0.1284218 5.055093e-18)
(0.06645071 0.1705314 -3.576217e-20)
(0.2090192 0.6697594 1.673331e-20)
(0.3632984 1.355136 1.764912e-18)
(0.5166242 2.245859 7.9051e-22)
(0.6361186 3.248654 0)
(0.641889 4.000437 6.593973e-19)
(0.4871737 4.168171 5.340004e-21)
(0.2448235 3.881619 1.56469e-21)
(0.02322676 3.206953 -1.802884e-21)
(0.09585572 6.12091 -1.678329e-19)
(-0.08121873 3.615076 3.31954e-19)
(-0.1091109 1.62412 0)
(-0.09606103 1.051287 5.121278e-19)
(0.03324166 0.4891295 0)
(0.4534863 -1.465676 1.197538e-18)
(0.9134299 -3.095068 4.95184e-21)
(1.424329 -4.238552 -4.808641e-21)
(1.639253 -4.511769 -1.399313e-18)
(1.567407 -4.120597 -1.225373e-18)
(1.507903 -3.670015 0)
(1.362055 -2.973984 9.845514e-21)
(0.8906569 -1.917176 2.603942e-21)
(-0.1375333 -0.2941539 -1.789818e-18)
(-1.481371 1.690338 -5.538605e-18)
(-2.950188 3.602135 4.195873e-18)
(-4.40091 5.247734 -6.038556e-18)
(-5.589694 6.348891 -5.478928e-20)
(-6.169805 6.686961 0)
(-6.134904 6.544964 0)
(-4.573062 5.047029 0)
(0.4454692 0.4230657 1.951171e-18)
(4.761495 -3.846405 5.205152e-21)
(2.037156 -2.143452 -4.916722e-21)
(-0.5837174 -0.09446671 3.01484e-20)
(-1.515159 0.7116582 -3.119189e-20)
(-2.05691 0.982509 0)
(-2.647999 1.054344 0)
(-4.228184 1.46613 1.753521e-17)
(-6.393798 2.205733 1.161391e-19)
(-8.437339 3.279967 -1.149366e-19)
(-7.124327 3.142049 6.62229e-18)
(0.5079893 0.3220179 4.594621e-18)
(3.289227 -0.9284517 -4.277705e-20)
(6.372856 -1.342719 -5.719448e-18)
(8.823468 -0.9301072 2.87969e-18)
(13.83324 -0.8388551 -2.925705e-22)
(18.02766 -0.8265504 1.193593e-18)
(19.01002 -0.5068359 0)
(19.3011 0.03266858 3.361422e-19)
(19.36224 0.7009688 2.744486e-18)
(19.31474 1.413781 2.802776e-18)
(19.17737 2.129816 2.797115e-18)
(18.96701 2.847009 -8.62443e-20)
(18.70478 3.565358 5.578655e-18)
(18.39431 4.269336 -4.225639e-20)
(18.04873 4.955904 0)
(17.6304 5.602958 1.026342e-17)
(17.15987 6.219459 0)
(16.64962 6.802786 -7.221147e-20)
(16.09276 7.339578 7.244086e-20)
(15.48522 7.826908 8.653835e-18)
(14.83394 8.258327 -6.075863e-20)
(14.14591 8.634067 7.57223e-18)
(13.42845 8.951249 -7.01866e-18)
(12.68485 9.206626 0)
(11.92558 9.409231 4.216015e-20)
(11.15732 9.554535 -5.19546e-18)
(10.37523 9.629399 -8.893247e-18)
(9.583954 9.635712 0)
(8.795926 9.584148 -3.123467e-18)
(8.020119 9.47617 -1.622466e-20)
(7.25701 9.304228 1.740585e-18)
(6.50754 9.067486 5.691784e-21)
(5.778326 8.772019 -5.761002e-21)
(5.073424 8.414651 -2.455315e-19)
(4.396326 7.999139 9.017751e-19)
(3.75768 7.530821 0)
(3.158498 7.015269 0)
(2.603632 6.456178 -1.951651e-20)
(2.097246 5.855351 0)
(1.642326 5.214629 0)
(1.240625 4.538102 0)
(0.896781 3.837514 -2.353714e-18)
(0.609561 3.122944 1.89797e-20)
(0.3883021 2.389405 1.100382e-20)
(0.223654 1.653582 -5.377791e-21)
(0.1222636 0.9385315 -7.289833e-19)
(0.09020952 0.2176908 2.976165e-21)
(0.1279066 -0.592721 -7.328983e-19)
(0.2138695 -1.433254 1.395013e-18)
(0.3707099 -2.23437 1.063176e-20)
(0.5922273 -2.998073 -2.508846e-18)
(0.8731977 -3.732029 -3.677204e-20)
(1.212883 -4.436701 2.171018e-18)
(1.607346 -5.106199 -1.929391e-18)
(2.057249 -5.740468 0)
(2.555093 -6.339373 -5.634033e-18)
(3.099201 -6.888506 -1.549933e-20)
(3.686783 -7.390645 1.674332e-18)
(4.312058 -7.849489 1.060904e-18)
(4.972462 -8.25223 0)
(5.666246 -8.601304 0)
(6.384895 -8.900691 0)
(7.120401 -9.1345 1.457981e-20)
(7.867899 -9.298965 -1.448238e-20)
(8.626799 -9.404721 2.832973e-18)
(9.391665 -9.450338 5.265167e-21)
(10.15847 -9.4323 -4.192208e-18)
(10.92135 -9.355423 -7.268624e-20)
(11.67 -9.215037 1.077586e-17)
(12.39632 -9.00867 5.975815e-18)
(13.09582 -8.739416 -4.857648e-20)
(13.77084 -8.413698 6.942166e-18)
(14.41654 -8.03606 5.663585e-20)
(15.02456 -7.602768 -6.402761e-20)
(15.58734 -7.119494 6.37766e-20)
(16.10082 -6.589213 6.977132e-20)
(16.56458 -6.018155 9.154097e-18)
(16.97277 -5.410909 -7.204115e-20)
(17.32227 -4.776004 0)
(17.62256 -4.119998 0)
(17.87719 -3.457125 0)
(18.06883 -2.799878 0)
(18.16646 -2.151264 1.855849e-20)
(18.0893 -1.588424 -1.836789e-20)
(17.52876 -1.162071 1.08906e-18)
(14.64674 -0.7408688 4.264482e-21)
(9.576758 -0.2424873 0)
(0.437063 -0.3319205 -1.341944e-18)
(-5.628472 -1.111364 3.463702e-18)
(-3.37237 -0.6127389 -3.829312e-18)
(-1.328459 0.1333988 3.838502e-20)
(0.2951964 0.4406467 -4.218189e-18)
(1.571175 0.741234 2.619271e-20)
(2.745295 1.356644 0)
(6.605852 2.885433 2.726264e-18)
(5.377609 1.553666 -5.904844e-18)
(-6.584527 -4.186561 -8.480476e-18)
(-8.904489 -4.817865 4.412554e-21)
(-7.823505 -4.033451 -1.567615e-19)
(-5.559815 -2.955244 7.02036e-20)
(-3.310061 -1.810158 0)
(-1.57516 -0.8286666 4.341953e-18)
(-0.08086159 0.243596 3.425734e-18)
(1.32004 1.388054 4.063019e-21)
(2.375605 2.45331 -2.290223e-18)
(3.1943 3.318898 4.854943e-18)
(3.526112 3.649411 2.698497e-18)
(2.242922 2.415241 -4.96232e-21)
(1.193439 1.534892 -3.11226e-18)
(1.086206 1.549777 -2.581703e-20)
(1.002217 1.43398 -3.755939e-18)
(0.6169146 0.8850299 3.251928e-20)
(0.2553832 0.3435421 2.639888e-21)
(0.02109952 -0.02856397 -3.587783e-20)
(-0.09379259 -0.1962875 0)
(-0.07992096 -0.1014992 0)
(0.01252261 0.2311642 -3.783826e-18)
(0.1420487 0.773791 0)
(0.2695566 1.469453 -2.889307e-18)
(0.364666 2.304264 1.25149e-18)
(0.435106 3.317452 -8.611618e-21)
(0.4943607 4.494088 8.445305e-21)
(0.5257964 5.728963 5.596122e-19)
(0.4853803 6.879237 -3.070936e-19)
(0.3395686 7.296483 -1.582952e-19)
(0.1544778 8.013535 1.296376e-19)
(0.04094926 6.298908 -2.537228e-19)
(-0.07884394 3.659598 6.838079e-21)
(-0.1330808 1.871606 -4.174246e-19)
(-0.03252716 1.411371 0)
(0.337641 0.02213455 -9.70158e-19)
(0.9189454 -2.501794 -8.084462e-21)
(1.385204 -3.86567 5.567414e-19)
(1.425225 -3.781125 1.173033e-18)
(1.344203 -3.553372 1.02314e-18)
(1.249341 -3.239452 8.494464e-19)
(1.159241 -2.760594 -6.946814e-21)
(0.6554027 -1.779337 0)
(-0.4584087 -0.2036835 0)
(-1.725724 1.631198 2.172654e-18)
(-3.088345 3.400844 3.402799e-18)
(-4.40806 4.965299 4.958827e-18)
(-5.429834 6.068655 8.995404e-20)
(-5.85194 6.50568 0)
(-5.514004 6.215037 6.153722e-18)
(-4.423513 5.401087 3.809886e-18)
(-1.158087 2.567465 -1.5139e-18)
(3.891939 -2.888404 0)
(2.267328 -2.601842 7.578473e-19)
(1.302439 -1.494958 0)
(1.255772 -0.9757971 -3.953837e-18)
(1.485261 -0.933297 0)
(1.171634 -0.9238294 -5.559439e-18)
(-0.5276335 -0.4461303 -1.488312e-17)
(-2.599211 0.4793684 0)
(-3.763669 1.751008 0)
(-4.781257 2.775601 2.890147e-20)
(1.597544 0.5179912 -3.439682e-18)
(10.70833 -1.989363 3.400473e-18)
(15.08841 -2.351274 8.103197e-18)
(17.05729 -1.717742 -2.051324e-18)
(18.73133 -1.010497 1.875289e-18)
(19.10686 -0.6257101 -9.789814e-19)
(18.73064 -0.1222505 0)
(18.7667 0.5530248 0)
(18.7782 1.284882 -2.285454e-18)
(18.74824 2.032218 -2.350771e-18)
(18.64171 2.773402 -4.571755e-18)
(18.46492 3.496192 4.503253e-18)
(18.23284 4.207456 1.052815e-19)
(17.94227 4.88629 -6.96435e-20)
(17.58183 5.540724 0)
(17.15967 6.153495 0)
(16.68574 6.736803 8.028769e-18)
(16.17484 7.287032 -7.729017e-18)
(15.62098 7.787247 0)
(15.01869 8.238372 0)
(14.376 8.632637 9.971554e-20)
(13.69784 8.973539 -6.311948e-18)
(12.99331 9.25539 0)
(12.26599 9.474673 -5.139198e-18)
(11.52377 9.644093 -4.640475e-18)
(10.77545 9.757309 -4.068169e-18)
(10.01715 9.79943 3.578061e-18)
(9.249508 9.77588 -4.340176e-20)
(8.486095 9.697825 2.516329e-18)
(7.735611 9.56593 0)
(7.000357 9.370886 -1.420285e-18)
(6.280218 9.112945 -8.964042e-21)
(5.578768 8.800193 8.60141e-21)
(4.907339 8.424316 -2.620314e-19)
(4.260318 7.994921 0)
(3.650942 7.515237 -1.310926e-18)
(3.079332 6.99122 -1.568827e-20)
(2.552542 6.425427 2.261616e-18)
(2.071348 5.820704 1.354841e-18)
(1.640124 5.177769 -1.558507e-18)
(1.259137 4.500809 -1.748649e-18)
(0.9324993 3.800912 1.914983e-18)
(0.6580968 3.088481 -2.070953e-18)
(0.45068 2.356363 -1.07099e-18)
(0.2909392 1.622785 2.274602e-18)
(0.1914103 0.9106729 1.192997e-18)
(0.1643598 0.1944059 2.429635e-21)
(0.2121588 -0.6030479 6.062646e-19)
(0.2926186 -1.431593 -9.07145e-21)
(0.4414347 -2.222454 0)
(0.6513659 -2.978582 -1.573363e-20)
(0.9160281 -3.707313 -1.356013e-20)
(1.236881 -4.40816 -1.717687e-18)
(1.608357 -5.075894 3.168386e-18)
(2.036467 -5.709256 -1.392296e-18)
(2.507528 -6.310923 2.284756e-18)
(3.022566 -6.865282 1.632288e-20)
(3.582902 -7.374058 0)
(4.178275 -7.843522 9.140861e-19)
(4.808279 -8.259111 1.868345e-21)
(5.473454 -8.622475 1.200313e-19)
(6.16218 -8.940491 0)
(6.867872 -9.195149 1.207792e-18)
(7.588968 -9.38104 0)
(8.32219 -9.511239 -4.891375e-20)
(9.061443 -9.584219 2.807631e-18)
(9.806573 -9.59348 0)
(10.54741 -9.547875 -3.907432e-18)
(11.27626 -9.440518 -4.418885e-18)
(11.9852 -9.268204 -4.898924e-18)
(12.6695 -9.033349 0)
(13.33317 -8.740913 -1.159621e-17)
(13.96956 -8.397921 9.296952e-20)
(14.5712 -7.99835 0)
(15.13037 -7.549098 0)
(15.64325 -7.051106 0)
(16.1091 -6.511517 7.414912e-18)
(16.52041 -5.939654 -7.660764e-18)
(16.86978 -5.330308 0)
(17.14698 -4.688901 0)
(17.36339 -4.017386 3.968573e-18)
(17.51421 -3.333719 3.150157e-20)
(17.60168 -2.646328 0)
(17.62608 -1.9867 0)
(17.86285 -1.47715 -1.782862e-18)
(17.87243 -1.108442 2.065871e-19)
(16.25138 -0.7472362 0)
(7.766418 -0.6545133 9.09666e-19)
(-1.174932 -0.5933809 6.426659e-20)
(2.371809 0.7319877 -5.43962e-21)
(5.039558 1.638907 -3.947652e-20)
(6.286867 1.966518 3.066567e-18)
(6.627627 2.116711 2.447782e-18)
(6.316558 2.507922 3.361712e-20)
(6.91375 2.958772 1.914545e-20)
(3.233248 -0.05073885 2.256934e-18)
(-6.612534 -4.959277 6.596775e-18)
(-7.668435 -4.359971 0)
(-7.129969 -3.422874 8.513425e-18)
(-5.018038 -2.304531 0)
(-2.974908 -1.333783 -6.055248e-20)
(-1.67497 -0.7250761 -3.466129e-18)
(-0.5507364 0.07070107 3.971543e-20)
(0.6770028 1.018211 -3.962889e-20)
(1.780325 2.086564 1.897641e-18)
(2.76091 2.97247 -1.99734e-18)
(3.499026 3.534116 -2.223834e-18)
(2.714236 2.758552 -2.380999e-18)
(1.570561 1.887254 -2.508469e-18)
(1.119108 1.533652 0)
(0.9045252 1.178523 -1.142061e-21)
(0.5376993 0.6117594 0)
(0.1927791 0.0920649 -3.56343e-18)
(-0.04255426 -0.2691983 3.63592e-18)
(-0.1815078 -0.4590379 0)
(-0.186063 -0.3690057 0)
(-0.1066269 -0.04482378 6.239088e-18)
(0.01121211 0.4810663 -1.372095e-18)
(0.1468843 1.179619 2.382053e-18)
(0.2563682 2.018951 -7.675623e-21)
(0.334312 3.006293 7.48996e-21)
(0.3908085 4.144558 0)
(0.3719493 5.328571 -4.55381e-19)
(0.2602543 6.493273 4.926208e-19)
(0.205572 7.738333 1.307828e-19)
(0.1641904 8.163993 -2.13592e-19)
(0.1599676 7.938069 -5.998527e-21)
(0.01381509 5.949609 6.197218e-21)
(-0.1498116 3.424679 -8.796993e-21)
(-0.03840021 1.983048 9.05316e-21)
(0.2725608 1.297746 3.943241e-19)
(0.7804599 -1.008938 -6.639456e-21)
(1.237136 -3.083739 -4.647308e-19)
(1.176287 -3.12111 1.497366e-20)
(1.029215 -2.88256 -8.386374e-19)
(0.8432638 -2.493729 -1.852205e-20)
(0.786382 -2.20927 0)
(0.3202894 -1.510542 0)
(-0.7977309 -0.1407821 -1.193837e-18)
(-1.914793 1.446444 -1.820311e-18)
(-3.142235 3.039315 -5.590456e-18)
(-4.332039 4.519837 -4.079024e-18)
(-5.21584 5.618078 0)
(-5.522049 6.091525 0)
(-4.957372 5.858009 -1.024032e-17)
(-3.520197 4.984332 -6.351111e-18)
(-1.51858 3.716705 1.126908e-20)
(2.845446 -1.515806 -1.949456e-20)
(2.861966 -3.068093 -1.234116e-18)
(3.530778 -2.932952 -1.973135e-18)
(4.263825 -2.721078 3.165012e-18)
(4.79606 -2.766339 3.711242e-18)
(4.462616 -2.783261 4.066312e-18)
(3.181481 -2.494617 5.843322e-18)
(1.536059 -1.540047 0)
(0.2725077 0.1149899 -1.952938e-19)
(-0.856455 1.859517 -9.261756e-18)
(6.534213 0.06951282 6.443448e-20)
(16.15324 -2.504201 5.861147e-20)
(18.31656 -2.786374 -3.074336e-18)
(18.94197 -2.099436 -1.570377e-18)
(18.94466 -1.241658 -4.2356e-20)
(18.53408 -0.8766999 -8.125492e-19)
(18.61156 -0.4957084 -4.296744e-19)
(18.81152 0.09466116 -3.48616e-21)
(18.90995 0.7613883 0)
(18.92126 1.476977 -2.926362e-20)
(18.84062 2.194357 1.921843e-18)
(18.67843 2.908323 -7.447617e-18)
(18.45203 3.62846 5.667273e-20)
(18.16544 4.318602 -3.615601e-18)
(17.81147 4.987972 -1.078596e-19)
(17.3953 5.615222 -6.756815e-18)
(16.92515 6.217599 4.733828e-22)
(16.41686 6.792012 6.374914e-18)
(15.86625 7.313235 -5.983747e-18)
(15.26607 7.787938 0)
(14.62461 8.205195 8.067748e-20)
(13.94545 8.571782 -8.121486e-20)
(13.23831 8.879883 0)
(12.50621 9.126339 4.233722e-18)
(11.75796 9.322705 7.478148e-20)
(11.00234 9.462725 3.400961e-18)
(10.23675 9.530291 -2.883322e-18)
(9.463172 9.528669 -2.434427e-18)
(8.689987 9.474141 -2.034764e-18)
(7.930567 9.364132 -1.541441e-18)
(7.186843 9.18916 1.372637e-20)
(6.456963 8.950495 -1.386473e-20)
(5.745198 8.656578 0)
(5.063431 8.298192 2.15734e-19)
(4.405614 7.885261 -1.362475e-20)
(3.786311 7.420332 1.090617e-18)
(3.205177 6.909779 1.47035e-18)
(2.671389 6.355529 -1.845452e-18)
(2.183037 5.761521 -1.11192e-18)
(1.745292 5.128208 -4.595161e-21)
(1.358009 4.45984 1.434325e-18)
(1.027832 3.76647 2.533295e-20)
(0.7483879 3.059739 1.659363e-18)
(0.5403486 2.330157 1.415455e-20)
(0.3776179 1.596915 -9.504796e-19)
(0.2752253 0.8846527 -4.862527e-19)
(0.2525852 0.1687828 -6.055596e-23)
(0.3122487 -0.6134231 4.805773e-19)
(0.3898997 -1.429698 7.425997e-21)
(0.5358329 -2.211082 -8.990834e-19)
(0.7464436 -2.958548 1.701082e-18)
(1.012637 -3.677779 0)
(1.336083 -4.368092 -2.987603e-21)
(1.710373 -5.024765 -1.303017e-18)
(2.144082 -5.646546 1.173425e-18)
(2.619217 -6.237288 -1.96511e-18)
(3.142891 -6.77796 2.145135e-20)
(3.713659 -7.272462 -2.125086e-20)
(4.315031 -7.72943 -7.51207e-19)
(4.954504 -8.12924 0)
(5.633448 -8.474137 -1.049922e-19)
(6.329986 -8.776646 1.647517e-20)
(7.044562 -9.013074 -5.582015e-20)
(7.776074 -9.178802 -1.357579e-18)
(8.518056 -9.289114 -1.890364e-18)
(9.265397 -9.341023 -1.877021e-20)
(10.01814 -9.327997 2.678028e-18)
(10.76743 -9.258028 -4.543208e-20)
(11.50234 -9.12691 -3.516045e-18)
(12.21683 -8.929121 0)
(12.90763 -8.666468 4.279409e-18)
(13.57513 -8.348758 4.709018e-18)
(14.21163 -7.984209 4.877759e-18)
(14.81265 -7.562471 -5.185708e-18)
(15.36964 -7.092996 5.547299e-18)
(15.88008 -6.575398 0)
(16.34334 -6.017235 -1.213724e-17)
(16.75089 -5.433046 1.264493e-17)
(17.0952 -4.813275 -1.494378e-19)
(17.37152 -4.162254 -3.230177e-18)
(17.57613 -3.494249 -3.254785e-18)
(17.69911 -2.823822 0)
(17.72215 -2.179277 1.639477e-18)
(17.62366 -1.589029 -1.591779e-18)
(17.48391 -1.159533 7.510411e-19)
(17.56968 -0.9149092 -1.780137e-19)
(18.36659 -0.9370803 -3.262701e-19)
(14.91495 -1.019807 1.01427e-20)
(9.023632 -0.1944994 -1.981259e-18)
(9.51425 1.796523 3.679295e-20)
(10.83949 2.958184 0)
(11.23412 3.227013 0)
(10.88806 3.217627 -5.357302e-20)
(9.654141 3.362464 5.451552e-20)
(7.643724 2.843082 0)
(1.870322 -1.525952 0)
(-5.278355 -5.150113 0)
(-6.795645 -3.980081 8.864996e-18)
(-6.339538 -2.695416 -1.405183e-17)
(-4.393431 -1.55891 5.015766e-18)
(-2.376315 -0.6731298 -3.570983e-18)
(-1.402795 -0.3747413 -9.345928e-20)
(-0.7078643 0.1386393 2.32775e-18)
(0.2668079 0.8941926 1.895251e-18)
(1.344665 1.958162 2.470192e-20)
(2.448188 2.877809 2.324826e-21)
(3.314985 3.31566 -2.705871e-20)
(2.944627 2.832263 -3.030299e-20)
(1.857755 2.063797 2.101013e-18)
(1.146482 1.426468 0)
(0.8128532 0.8928289 2.551931e-18)
(0.4498878 0.3156457 -2.781211e-18)
(0.07550673 -0.2413127 2.93492e-18)
(-0.1690561 -0.5905292 0)
(-0.3278053 -0.7759607 0)
(-0.3522095 -0.6955281 -4.203716e-20)
(-0.2864654 -0.3736525 -2.555129e-18)
(-0.1841397 0.1365349 1.168859e-18)
(-0.05669519 0.8310698 -9.835327e-19)
(0.04258463 1.662837 0)
(0.1032303 2.634822 0)
(0.1587566 3.762729 0)
(0.1811151 4.955649 -3.650151e-19)
(0.1354054 6.042059 -2.075139e-19)
(0.1098209 7.116661 -2.177315e-19)
(0.05246137 7.580487 8.994587e-20)
(0.1908467 8.298164 0)
(0.1450137 7.472856 -3.00075e-19)
(-0.05358578 5.142123 0)
(0.004260084 2.8254 -3.994236e-19)
(0.3150593 1.93713 0)
(0.6495828 0.7052798 0)
(1.084939 -1.963438 -3.792306e-19)
(0.9815746 -2.538443 -8.176901e-19)
(0.7280017 -2.274531 7.089093e-19)
(0.4169013 -1.760712 -5.815099e-19)
(0.3437703 -1.446394 6.265855e-19)
(-0.06621033 -1.085256 0)
(-1.128621 -0.0866323 1.96358e-18)
(-2.056638 1.179457 1.487125e-18)
(-3.157706 2.588159 2.383991e-18)
(-4.244704 4.012765 -8.807241e-20)
(-5.008319 5.143856 -1.464694e-19)
(-5.125449 5.712422 -5.031375e-18)
(-4.38116 5.578262 8.54395e-18)
(-2.647077 4.521324 2.672553e-18)
(-0.9138811 3.967961 1.913959e-20)
(2.278355 -0.3342314 1.037447e-19)
(3.893292 -3.545253 5.18742e-19)
(5.861969 -4.244077 1.614183e-18)
(7.197002 -4.331996 0)
(7.945623 -4.444393 -7.072663e-21)
(7.825715 -4.608097 0)
(7.086748 -4.60295 4.328088e-18)
(5.959144 -3.749759 7.024266e-18)
(4.401801 -1.591163 1.053461e-17)
(5.188627 0.5028982 -2.069156e-19)
(12.58532 -0.4681868 7.727511e-20)
(18.29791 -2.403692 -3.819878e-18)
(17.95654 -2.647296 0)
(18.36092 -2.006553 -1.241531e-18)
(18.29883 -1.137701 -1.335895e-18)
(18.18942 -0.6424001 1.358497e-18)
(18.37113 -0.1231836 3.380161e-19)
(18.51999 0.5258227 0)
(18.60211 1.219131 7.51293e-19)
(18.60485 1.935447 0)
(18.52249 2.639978 0)
(18.35886 3.333134 3.110823e-18)
(18.13431 4.034499 -4.709016e-20)
(17.85 4.6994 4.954918e-20)
(17.49892 5.338665 -2.838282e-18)
(17.08974 5.931384 5.67343e-18)
(16.62672 6.499472 -5.388395e-18)
(16.12802 7.043518 -5.176918e-18)
(15.59318 7.524555 2.360942e-19)
(15.00655 7.96651 -1.494771e-19)
(14.38251 8.348315 -1.310746e-19)
(13.71997 8.685049 -3.764846e-18)
(13.03169 8.965396 -3.823735e-18)
(12.3192 9.184322 -1.004309e-19)
(11.58846 9.359276 3.189126e-18)
(10.85521 9.477363 0)
(10.11352 9.523299 2.374193e-18)
(9.358027 9.506871 2.003999e-18)
(8.603948 9.439536 1.578519e-18)
(7.866039 9.318138 1.268293e-18)
(7.142765 9.134466 0)
(6.433486 8.887531 0)
(5.738984 8.59036 1.282432e-19)
(5.077268 8.228006 0)
(4.433862 7.815521 0)
(3.830627 7.351845 9.58258e-19)
(3.266367 6.843275 -1.657715e-20)
(2.742714 6.294381 -1.425206e-20)
(2.262435 5.705971 -3.067399e-20)
(1.833269 5.078486 2.140524e-18)
(1.455087 4.415895 0)
(1.134542 3.727969 0)
(0.8515334 3.030126 1.404593e-18)
(0.6478179 2.304061 7.083282e-19)
(0.4829901 1.571105 7.665907e-19)
(0.3771718 0.8588333 -3.98087e-19)
(0.3590955 0.141269 0)
(0.4338901 -0.6205742 -3.993262e-22)
(0.5084923 -1.423799 2.373015e-20)
(0.6428613 -2.195521 7.131764e-19)
(0.8464477 -2.931455 -1.394244e-18)
(1.107349 -3.638665 -3.93396e-20)
(1.425751 -4.318422 1.198396e-18)
(1.794519 -4.965947 3.525646e-20)
(2.222538 -5.580319 1.891844e-18)
(2.683933 -6.167326 -1.285659e-20)
(3.193982 -6.704393 -1.340808e-18)
(3.75558 -7.196381 3.545625e-20)
(4.342306 -7.654427 0)
(4.961301 -8.057314 3.236568e-19)
(5.625907 -8.405006 0)
(6.307925 -8.712859 0)
(7.000271 -8.959269 -7.812179e-19)
(7.712114 -9.134651 2.231085e-18)
(8.43701 -9.255671 5.168387e-20)
(9.163778 -9.322067 -1.032151e-19)
(9.896543 -9.324901 -2.199323e-18)
(10.62534 -9.27501 -2.495564e-18)
(11.3401 -9.165645 2.992259e-18)
(12.03327 -8.993683 -3.246634e-18)
(12.70245 -8.759966 -7.089766e-20)
(13.35272 -8.469232 0)
(13.97157 -8.136482 -4.222422e-18)
(14.55712 -7.746231 8.882828e-18)
(15.09965 -7.311833 -4.719269e-18)
(15.59646 -6.830623 0)
(16.05041 -6.306891 8.700301e-20)
(16.45046 -5.755197 -5.066262e-18)
(16.78869 -5.164638 -8.079942e-20)
(17.06121 -4.537784 1.294609e-19)
(17.26404 -3.887177 -8.340494e-20)
(17.39004 -3.231722 0)
(17.42896 -2.576639 -2.614038e-18)
(17.36321 -1.946526 1.239451e-18)
(17.25128 -1.420135 5.999502e-19)
(17.01911 -0.9915288 -9.17299e-21)
(17.83368 -0.9923474 2.652474e-19)
(18.14783 -1.122003 5.380584e-19)
(16.68901 0.1726317 0)
(16.32981 2.541221 1.681826e-18)
(15.61496 3.783756 -6.617496e-20)
(14.65161 3.942821 1.906919e-18)
(13.66996 3.794729 0)
(12.06682 3.711194 0)
(8.679318 2.485873 0)
(1.667938 -2.634119 4.909423e-20)
(-3.455292 -5.052555 4.868458e-18)
(-5.540427 -3.449744 -7.824476e-18)
(-5.243086 -1.753114 6.076072e-18)
(-3.622221 -0.6979344 -8.165578e-18)
(-1.644025 0.0509461 3.014406e-18)
(-0.7862488 0.1777765 0)
(-0.4901562 0.4658131 -1.917598e-18)
(0.1684915 1.034621 -1.521639e-18)
(1.117652 2.05918 1.298027e-18)
(2.2718 2.929827 -4.064639e-20)
(3.189269 3.190986 -4.905717e-20)
(3.080799 2.815414 4.777002e-20)
(2.01156 2.010592 0)
(1.137749 1.182688 -1.886902e-18)
(0.7208001 0.5548845 6.821138e-20)
(0.3450822 -0.05228741 4.503168e-18)
(-0.06063729 -0.6683524 -2.468424e-18)
(-0.3075211 -0.9987185 1.508293e-19)
(-0.4906513 -1.190742 -2.505071e-18)
(-0.5455181 -1.122335 0)
(-0.5007753 -0.7873651 -2.091394e-18)
(-0.4052649 -0.2772133 9.596849e-19)
(-0.2768292 0.4192209 -5.113763e-20)
(-0.1806738 1.223328 7.475692e-19)
(-0.1245088 2.160995 -2.990726e-20)
(-0.06443983 3.273964 9.320876e-21)
(-0.02409531 4.464193 3.053298e-19)
(-0.04894518 5.575662 -2.675795e-21)
(-0.06449178 6.533549 3.012546e-21)
(-0.09779575 6.895758 4.684185e-21)
(0.1494306 7.853502 1.351476e-19)
(0.2811058 7.955346 2.444376e-19)
(0.1510769 6.349888 -2.019257e-19)
(0.145298 3.864987 3.180305e-19)
(0.4166055 2.322781 0)
(0.6282398 1.88825 2.518052e-19)
(0.9115385 -0.3367645 3.280912e-19)
(0.7421274 -1.694868 6.814471e-19)
(0.3920616 -1.65352 0)
(0.04875884 -1.205542 0)
(-0.06955732 -0.7429192 -5.229033e-19)
(-0.4601605 -0.5717693 -2.379535e-20)
(-1.402778 -0.05354192 -7.91091e-19)
(-2.189208 0.871544 -1.252644e-18)
(-3.209962 2.099698 -1.921104e-18)
(-4.230629 3.524184 2.816293e-18)
(-4.884162 4.73978 -3.642789e-18)
(-4.806405 5.411395 4.041154e-18)
(-3.781535 5.382853 -3.417215e-18)
(-1.82457 4.18758 0)
(0.2317598 3.669026 0)
(2.422484 0.4334671 -9.917962e-20)
(5.379251 -3.958578 0)
(8.069027 -5.221012 -4.911024e-20)
(9.669516 -5.565161 -1.638445e-20)
(10.55053 -5.784737 -2.095828e-18)
(10.74155 -6.147552 -7.396865e-20)
(10.78598 -6.484017 -1.399103e-20)
(10.93245 -5.950388 -5.338527e-18)
(10.91584 -3.644081 -2.545045e-19)
(12.51201 -0.9590754 2.593754e-18)
(17.01865 -0.8909646 -4.758695e-20)
(18.13645 -2.132237 1.693099e-18)
(17.26448 -2.488267 -5.95621e-20)
(18.02639 -1.937423 4.302032e-18)
(18.12182 -1.236268 3.37178e-20)
(18.21253 -0.8243894 -7.590121e-21)
(18.39119 -0.3689235 -5.720055e-19)
(18.54373 0.2130387 -4.62925e-21)
(18.62799 0.8588569 -6.193324e-19)
(18.62904 1.553665 -3.869519e-20)
(18.54611 2.255732 -1.191631e-18)
(18.38139 2.945353 2.429216e-18)
(18.15691 3.657814 -2.394135e-18)
(17.88152 4.32147 4.572566e-18)
(17.53468 4.98325 2.484719e-18)
(17.12744 5.591406 0)
(16.66373 6.177598 0)
(16.16641 6.742195 4.197685e-18)
(15.63303 7.241739 3.997187e-18)
(15.04714 7.701311 0)
(14.42657 8.094344 -1.054554e-19)
(13.76437 8.445391 3.41391e-18)
(13.07349 8.745293 3.046932e-18)
(12.36237 8.975874 2.689293e-18)
(11.63801 9.156176 -7.205887e-20)
(10.90683 9.286889 -2.072306e-18)
(10.16227 9.349284 5.365133e-20)
(9.411542 9.338795 -5.417444e-20)
(8.665998 9.275059 -1.332572e-18)
(7.930959 9.163213 9.94335e-19)
(7.203631 8.995074 0)
(6.502405 8.752438 0)
(5.810361 8.465416 -1.810426e-19)
(5.157486 8.109006 -8.993742e-21)
(4.518596 7.705163 -8.618538e-21)
(3.931019 7.245831 -7.391309e-19)
(3.374999 6.744582 -2.025641e-18)
(2.84397 6.212545 1.191904e-18)
(2.366219 5.636066 -1.47927e-18)
(1.942019 5.019004 -8.376524e-19)
(1.573595 4.364585 -2.88841e-20)
(1.261545 3.681376 0)
(0.9715248 2.997029 -1.096177e-18)
(0.780082 2.27807 -3.692427e-20)
(0.6098665 1.54552 -6.374107e-19)
(0.5008629 0.8346311 3.411054e-19)
(0.4882106 0.1132939 1.458796e-23)
(0.5774314 -0.6243848 -3.416597e-19)
(0.6403297 -1.416762 2.933526e-20)
(0.7699269 -2.174159 -6.212957e-19)
(0.9653661 -2.891891 1.142113e-18)
(1.220238 -3.585146 -1.103657e-18)
(1.534482 -4.254885 2.539804e-21)
(1.899026 -4.892771 9.152071e-19)
(2.331341 -5.496592 -1.506019e-18)
(2.78382 -6.078484 1.305015e-18)
(3.282891 -6.610453 1.003647e-18)
(3.845228 -7.09389 7.94627e-21)
(4.439045 -7.539967 8.370982e-21)
(5.050147 -7.936414 -2.528101e-19)
(5.698145 -8.285538 1.453179e-20)
(6.379919 -8.585263 1.392494e-20)
(7.070832 -8.822018 5.571043e-19)
(7.774583 -8.991448 -1.785263e-18)
(8.491581 -9.10887 1.170128e-18)
(9.222912 -9.158276 -5.275343e-20)
(9.952747 -9.151643 -1.765246e-18)
(10.67397 -9.097986 4.105024e-18)
(11.38875 -8.975774 7.60824e-20)
(12.07902 -8.79374 2.518494e-18)
(12.7485 -8.544398 -2.938516e-18)
(13.40068 -8.237331 9.114633e-20)
(14.01858 -7.891701 -3.333649e-18)
(14.60479 -7.483208 -3.408584e-18)
(15.1468 -7.032798 1.17096e-19)
(15.64523 -6.528484 -3.905712e-18)
(16.09958 -5.983308 4.027064e-18)
(16.49948 -5.412602 0)
(16.83576 -4.805035 0)
(17.10465 -4.169399 2.163828e-18)
(17.30744 -3.526259 2.14303e-18)
(17.43523 -2.886035 0)
(17.47119 -2.267811 1.118995e-18)
(17.40031 -1.693992 1.006315e-18)
(17.28193 -1.252151 -5.048423e-19)
(17.0678 -0.8850938 1.155803e-19)
(17.1868 -0.8417794 2.295327e-19)