/*--------------------------------*- C++ -*----------------------------------*\
| =========                 |                                                 |
| \\      /  F ield         | OpenFOAM: The Open Source CFD Toolbox           |
|  \\    /   O peration     | Version:  2406                                  |
|   \\  /    A nd           | Website:  www.openfoam.com                      |
|    \\/     M anipulation  |                                                 |
\*---------------------------------------------------------------------------*/
FoamFile
{
    version     2.0;
    format      ascii;
    arch        "LSB;label=32;scalar=64";
    class       volScalarField;
    location    "0.26";
    object      p;
}
// * * * * * * * * * * * * * * * * * * * * * * * * * * * * * * * * * * * * * //

dimensions      [0 2 -2 0 0 0 0];

internalField   nonuniform List<scalar> 
4536
(
-1.855203e-05
2.9557e-05
-1.416315e-06
-1.663779e-05
4.331449e-05
4.58486e-05
3.003396e-05
2.800008e-05
6.750584e-07
3.666132e-05
-5.740511e-06
1.118834e-06
-8.441983e-06
3.692579e-05
3.043909e-05
1.681318e-05
3.458697e-05
-2.099923e-06
4.101297e-05
4.627892e-05
2.6513e-05
2.707059e-05
4.138489e-06
2.810308e-05
2.118204e-06
4.906541e-05
2.533204e-05
2.802232e-05
-1.480824e-05
7.686757e-06
1.822158e-05
1.060608e-06
3.664163e-05
1.422974e-05
1.898643e-05
3.697595e-05
3.110205e-05
3.231363e-05
2.902924e-05
-5.087827e-06
2.337724e-05
1.326698e-05
3.035044e-05
4.709325e-05
-8.789795e-06
-2.019707e-05
2.862577e-05
1.664746e-05
-3.04035e-06
3.745996e-05
2.564052e-05
4.253904e-05
2.494055e-05
-1.328172e-06
5.051059e-05
3.762359e-05
4.206488e-05
1.984096e-05
-2.158099e-05
-2.045118e-06
4.378335e-05
2.454369e-05
-4.55285e-06
3.276682e-05
2.141589e-05
8.969331e-06
3.006359e-05
1.118697e-05
2.377729e-05
8.321789e-06
2.196919e-05
3.829688e-05
4.178777e-06
-1.123172e-05
2.672497e-05
1.793626e-06
1.094936e-05
3.172922e-05
-1.773093e-05
-7.190586e-06
2.093178e-05
5.88495e-05
8.309287e-05
-9.602794e-06
3.96313e-05
2.307028e-05
2.335984e-05
2.26997e-05
2.059404e-05
4.184758e-05
3.058639e-05
4.11627e-05
3.925631e-05
1.587005e-05
2.738987e-05
3.345773e-05
3.568608e-06
3.010436e-05
-2.016868e-05
8.245058e-06
-1.918106e-05
3.800405e-06
1.528908e-05
3.531978e-05
-9.882385e-06
-2.803199e-06
1.89661e-05
-2.768041e-06
2.410099e-05
1.587123e-05
6.968582e-05
3.400537e-05
2.64927e-05
4.007561e-05
3.164518e-05
4.402645e-06
-1.141041e-05
2.460655e-05
3.455262e-05
1.246656e-05
5.381877e-06
1.355114e-05
2.925263e-06
-7.628983e-06
1.22221e-05
4.875641e-05
3.566848e-05
1.974905e-05
9.24354e-06
3.861031e-05
-9.935283e-06
7.073897e-07
4.660925e-05
2.491395e-05
5.181585e-05
2.656628e-05
-1.08973e-05
7.664516e-06
2.811483e-05
1.5888e-05
3.462672e-05
-8.491993e-06
1.350777e-05
3.655261e-05
2.577762e-05
-1.563411e-06
1.063299e-05
3.035252e-05
3.004662e-05
5.023144e-05
2.705342e-05
3.157845e-05
-3.552946e-06
1.868067e-05
4.2883e-05
4.0997e-05
4.172812e-05
1.513167e-05
3.28835e-05
1.787674e-06
5.77656e-06
3.163882e-05
4.117631e-06
3.583989e-05
5.141615e-05
3.068812e-05
1.063812e-05
2.361301e-05
1.569321e-06
4.820087e-05
4.109036e-05
3.272105e-05
1.818849e-05
7.825913e-05
2.241042e-05
4.249925e-05
6.394054e-06
2.679187e-05
3.143741e-05
2.073079e-05
1.73961e-05
2.784472e-05
6.617708e-05
3.863298e-05
4.497262e-05
5.71284e-05
3.17634e-06
2.217771e-05
8.252228e-06
2.332693e-05
7.791087e-07
-1.453192e-05
2.614143e-06
-5.481836e-06
1.965502e-06
5.067841e-05
5.024161e-05
4.265948e-05
4.335796e-05
3.428784e-05
2.628016e-05
2.386359e-05
2.80914e-05
2.807429e-05
2.861756e-05
2.826124e-05
2.339663e-05
-7.935253e-06
2.961695e-05
3.838596e-05
-8.272075e-06
2.221381e-05
1.366211e-05
4.881027e-05
1.89691e-05
2.748487e-05
-3.966937e-06
-2.719604e-06
3.436064e-05
3.648173e-05
1.162397e-05
2.184018e-05
2.463829e-06
-1.751277e-06
2.51994e-06
2.207354e-05
2.471629e-05
-9.885655e-06
2.72447e-05
-5.752048e-06
1.912126e-05
-3.321496e-06
9.716228e-06
4.274739e-05
6.613828e-06
4.453458e-05
7.108946e-05
3.727024e-05
2.648763e-05
1.372097e-05
1.564513e-07
4.176761e-05
1.499876e-05
1.946911e-05
4.368473e-05
8.251459e-06
7.028949e-06
2.25944e-05
2.983411e-05
1.243949e-05
-7.031317e-07
3.976088e-05
5.840479e-05
6.533602e-05
4.08232e-05
2.150703e-05
6.226536e-06
2.242695e-05
2.897013e-06
2.951725e-06
2.936609e-05
2.710632e-05
4.032228e-05
-1.126256e-05
7.109415e-05
4.763332e-06
1.358259e-05
1.521525e-05
4.485423e-05
3.648183e-05
-6.358285e-07
1.488064e-05
-1.505023e-05
3.94108e-05
2.711958e-05
1.022537e-05
1.108877e-05
1.12654e-05
3.913187e-05
4.652368e-05
2.007207e-05
3.326326e-05
5.533943e-05
3.078827e-05
-7.934091e-06
1.231963e-05
1.742247e-05
5.329153e-05
3.476874e-05
3.682116e-06
-1.449119e-06
-5.591166e-07
7.273599e-06
2.99204e-05
2.940797e-05
2.680806e-05
8.231544e-06
1.331918e-05
3.162901e-05
2.819895e-05
1.091187e-05
9.951232e-06
1.297019e-05
-3.18148e-06
-9.659065e-06
-1.173605e-05
-1.586058e-05
5.052623e-06
1.029701e-05
3.74197e-05
2.406035e-05
5.092539e-05
4.667977e-05
1.915102e-05
-8.742152e-06
2.595615e-05
3.33565e-05
3.854904e-05
2.763867e-05
2.626806e-05
2.632716e-05
2.724298e-05
2.667475e-05
2.486867e-05
4.061294e-05
5.09775e-05
1.657101e-05
2.898286e-05
2.892351e-05
1.383184e-05
6.436669e-06
1.367069e-05
2.614145e-06
5.038575e-06
-1.218553e-05
7.263679e-06
2.943149e-05
3.750802e-05
3.255452e-05
3.373852e-05
8.875771e-06
4.403669e-05
1.396666e-05
-1.352131e-05
2.020043e-05
5.171543e-05
2.772452e-05
1.661264e-05
2.974252e-05
2.556641e-05
4.238715e-05
1.968897e-05
1.34713e-06
2.240864e-05
3.727362e-05
3.942528e-05
4.021205e-05
5.36531e-05
2.465908e-05
5.651626e-05
4.132287e-06
2.59997e-05
6.130161e-05
3.600784e-05
2.547869e-05
6.030346e-05
1.541664e-05
-1.644673e-05
8.107709e-06
6.421928e-06
4.568549e-05
3.118778e-05
9.118194e-06
3.636408e-05
2.557906e-05
-7.315812e-06
9.407005e-06
4.299098e-05
8.738458e-06
-1.238006e-06
3.98988e-05
3.335996e-05
2.984065e-05
2.704405e-05
1.342445e-05
4.555614e-06
5.228547e-06
4.092313e-05
5.652173e-05
7.274453e-05
3.91062e-05
9.033819e-06
-6.889553e-08
3.307459e-05
8.371095e-06
2.131774e-06
4.322246e-05
2.996317e-05
2.526058e-05
-1.161136e-05
4.346437e-05
-1.80447e-05
4.251312e-05
4.499586e-05
2.360833e-05
4.003311e-05
4.150502e-05
-2.125904e-06
4.597759e-06
2.533882e-05
-2.259363e-07
3.175615e-05
4.521048e-05
4.488433e-05
-6.236856e-06
4.229723e-06
1.495652e-05
2.020557e-05
1.733378e-05
-7.420391e-06
-5.941154e-06
5.367403e-06
3.491617e-05
9.322162e-06
2.983135e-05
2.8049e-05
2.073645e-05
2.064526e-05
2.560629e-05
2.586693e-05
3.910163e-05
1.369381e-05
8.03539e-06
-4.926294e-06
5.48755e-07
-3.954587e-06
3.267558e-05
5.076899e-05
-4.858785e-06
3.497433e-05
3.464193e-05
5.204514e-05
-1.517782e-05
2.399294e-05
2.877934e-05
4.687585e-05
-2.221489e-05
-8.181434e-06
-1.754724e-06
3.952216e-05
3.070359e-05
4.147002e-05
2.627448e-05
-1.033666e-05
3.508594e-05
4.161839e-05
4.884187e-05
3.113916e-05
3.884033e-05
3.661134e-05
7.224848e-06
1.773599e-05
1.744766e-05
3.414225e-05
2.73584e-05
4.135897e-05
3.607997e-05
3.393625e-05
4.3e-05
4.044413e-05
3.149076e-05
4.188787e-05
4.33429e-05
1.882438e-06
2.11046e-05
3.693978e-05
5.729871e-05
3.625028e-05
9.463553e-07
1.042449e-05
4.724834e-05
3.338533e-05
-7.997166e-06
-6.83418e-06
1.629822e-05
1.991956e-05
5.020876e-05
2.276692e-06
1.549984e-06
3.147229e-05
-6.287145e-06
2.162796e-05
3.741572e-05
4.3486e-05
2.55234e-05
2.499756e-05
4.024521e-06
2.117966e-05
4.212222e-05
1.309872e-05
2.724504e-05
-1.17498e-05
3.467176e-05
2.827689e-05
5.027825e-06
1.717466e-05
5.575804e-05
-1.030227e-05
2.567293e-05
7.544108e-06
3.92785e-06
2.572149e-05
1.467616e-05
2.441483e-05
2.127313e-05
4.159089e-05
4.150332e-05
4.035506e-05
2.854207e-05
4.819238e-05
5.489459e-05
2.343558e-05
1.675521e-06
9.377765e-06
5.608266e-06
3.274207e-06
7.241701e-06
3.164376e-05
4.598836e-05
1.090551e-05
1.297058e-05
3.038996e-05
3.658233e-05
4.369238e-05
2.244003e-05
2.902113e-05
4.654925e-05
2.998136e-05
4.006488e-05
3.893413e-05
1.074599e-05
2.1601e-05
2.878166e-05
1.595008e-05
2.701963e-05
3.329529e-05
2.614573e-05
4.338978e-06
1.208738e-05
3.19138e-05
3.094423e-05
1.983123e-05
2.534359e-05
1.058224e-06
1.645476e-06
-7.395052e-06
2.518704e-05
7.354764e-07
5.690424e-05
4.400925e-05
4.554072e-05
4.708777e-05
4.70126e-05
2.179263e-05
3.898733e-05
2.33234e-05
3.884552e-05
-1.563329e-06
2.930513e-05
-6.326468e-06
2.879972e-05
2.945238e-05
3.002472e-05
3.569919e-05
3.493152e-05
3.927041e-05
1.438799e-05
-2.681279e-05
2.527537e-05
2.648326e-05
-2.833554e-05
4.767958e-05
1.438722e-05
-5.685552e-06
3.025502e-05
2.610958e-05
3.297006e-05
3.746815e-05
2.758688e-05
1.818475e-05
2.864272e-05
1.025997e-05
6.6409e-06
2.434748e-05
-2.050243e-05
6.233523e-05
6.443743e-05
2.431867e-05
-1.022728e-05
2.744094e-05
3.282678e-05
2.612504e-05
4.011261e-05
5.031406e-06
2.418946e-05
1.944168e-05
4.032912e-05
3.772725e-05
1.757008e-05
4.402424e-05
4.124406e-05
3.034879e-05
3.043163e-05
-9.873742e-06
1.601992e-06
6.300687e-05
2.059872e-05
-1.953138e-05
9.647057e-06
2.195685e-05
2.026157e-05
-2.708587e-06
2.294212e-05
4.564858e-06
1.267613e-05
1.599474e-05
2.825589e-05
3.865812e-05
5.720732e-05
5.045719e-05
2.403818e-05
2.765406e-05
2.718354e-05
1.706317e-06
2.924803e-05
2.886691e-05
-9.042169e-06
-1.046512e-06
3.988372e-05
3.333271e-05
-2.121444e-06
1.023223e-05
-6.709036e-06
5.330262e-05
1.333233e-05
5.054568e-05
2.127886e-05
2.001193e-05
-3.561153e-06
1.501261e-06
4.683137e-06
3.779004e-05
3.02466e-05
-9.489484e-06
-1.188999e-05
-1.031521e-05
1.913361e-05
1.964644e-05
2.592743e-05
2.513697e-05
2.613885e-05
-7.074174e-06
-9.504244e-06
3.500874e-05
1.175857e-05
1.632659e-05
-8.113886e-06
3.138091e-06
1.583664e-05
4.154067e-05
-5.202226e-08
2.861307e-05
8.255666e-06
6.613925e-06
1.231708e-05
-1.790435e-05
2.66251e-06
-8.453808e-07
3.923421e-06
6.388514e-06
2.703699e-05
2.945067e-05
2.660048e-05
3.315719e-05
4.362857e-06
2.564869e-05
3.936391e-05
8.461124e-06
8.641052e-06
7.393529e-06
-3.704931e-06
1.064181e-05
2.037513e-05
8.032063e-06
9.332391e-06
1.582868e-05
2.355458e-05
3.20332e-05
2.507311e-05
2.470508e-05
-1.520973e-06
1.433967e-05
4.645867e-05
4.184307e-05
3.825465e-05
4.381261e-05
1.291283e-05
-1.167496e-05
5.506823e-05
3.552823e-05
2.71188e-05
4.831068e-06
1.96295e-05
4.308167e-05
4.493141e-05
9.412797e-06
1.085013e-06
6.924416e-07
-2.427905e-05
4.287096e-05
3.424367e-05
2.835097e-05
3.181786e-05
3.897971e-05
-1.889949e-05
-1.33713e-06
2.803705e-05
1.244091e-05
1.431656e-05
-1.289136e-05
1.987443e-05
2.260134e-05
-3.747221e-06
1.367755e-05
6.003595e-06
-3.140394e-06
1.301247e-05
5.976593e-05
1.322088e-05
4.62085e-05
8.637163e-06
5.67054e-05
4.081459e-07
1.403398e-07
-2.608688e-05
2.685167e-05
1.750805e-05
4.051397e-05
-8.119081e-06
4.054633e-06
4.308153e-06
3.804448e-05
-7.613491e-06
2.321391e-05
3.782811e-06
2.693472e-05
2.019066e-05
2.287259e-05
1.937406e-05
-1.599903e-05
4.1258e-05
2.186663e-05
3.536823e-05
1.72375e-05
-3.326441e-06
6.941582e-07
3.35762e-05
3.706279e-05
3.953423e-05
2.031486e-05
-5.182623e-06
4.896316e-05
1.233496e-05
4.43667e-05
2.462359e-05
3.765716e-05
4.374544e-05
3.480574e-05
-1.13547e-05
4.70788e-05
3.128996e-05
3.454633e-05
1.772627e-05
-6.632082e-07
3.653781e-05
2.205297e-05
3.55243e-06
4.600451e-05
2.262163e-05
7.70291e-05
3.951757e-05
3.336573e-05
3.678172e-05
4.094489e-05
4.565098e-05
4.649202e-05
3.919654e-05
4.205438e-05
2.652572e-05
4.030088e-05
2.758233e-05
2.804402e-05
4.225947e-05
3.515675e-05
1.735412e-05
-1.148657e-05
2.379829e-05
3.865506e-05
-1.232657e-05
3.785387e-06
1.851237e-05
2.620346e-05
3.039221e-05
4.445906e-05
2.110608e-05
-3.596436e-06
5.255392e-05
3.623772e-05
1.679572e-05
5.093872e-06
-8.138971e-06
3.766593e-05
4.415334e-06
2.972795e-05
2.681154e-05
2.84239e-05
3.379529e-05
5.377129e-05
8.407823e-07
3.4607e-06
-1.872927e-05
-1.366018e-05
2.311171e-05
2.686875e-05
1.032238e-05
1.016746e-05
7.163804e-06
5.751558e-07
2.461196e-05
3.53827e-05
2.851817e-05
2.784112e-05
-1.347525e-05
3.38324e-05
1.79306e-05
-2.537441e-06
1.005267e-05
5.543877e-05
7.6277e-06
8.882854e-06
3.746143e-05
4.095111e-06
1.523787e-05
3.403337e-05
4.876411e-05
5.216895e-05
4.431209e-05
4.5095e-05
4.799457e-05
2.138444e-05
5.602486e-06
2.314163e-05
-1.285822e-05
4.17467e-05
2.904383e-05
2.644441e-06
5.913005e-05
-1.577187e-05
6.627104e-06
1.900262e-05
2.418071e-05
2.534514e-05
2.282138e-05
2.272284e-05
2.883975e-05
2.958569e-05
3.889022e-05
-3.668496e-06
-3.365203e-06
-1.032156e-06
8.030841e-06
-3.226274e-06
1.924954e-06
2.845094e-05
9.187916e-06
1.669075e-05
-1.25465e-07
2.098772e-06
3.764463e-06
2.769814e-05
3.257206e-05
3.369695e-05
3.270333e-05
3.204951e-05
1.629784e-05
1.869181e-05
-5.024891e-06
-5.402323e-06
2.704881e-05
2.51003e-05
2.548706e-05
2.385099e-05
1.986826e-05
-1.612479e-06
-6.918376e-06
-8.908021e-07
1.054128e-06
3.492236e-05
3.580932e-05
2.231555e-05
-4.718352e-06
3.5131e-05
3.211757e-05
2.448736e-05
1.977733e-05
3.015711e-05
3.069332e-05
4.570893e-07
-7.547112e-06
-8.329251e-06
-1.021246e-05
-4.722258e-06
3.880558e-05
-2.67162e-06
-9.67014e-06
-1.33011e-05
5.128976e-05
-7.832287e-06
-9.914196e-06
5.937985e-06
2.94651e-05
2.50179e-05
-3.754956e-06
-1.177103e-05
-4.89424e-06
6.163598e-07
3.215273e-05
3.271509e-05
2.629431e-05
3.406154e-05
6.884677e-06
5.411726e-06
1.15233e-05
2.900372e-05
5.029246e-05
2.678454e-05
2.835268e-05
3.1465e-05
5.030571e-05
4.531888e-05
4.205719e-05
4.251456e-06
4.042716e-05
4.735343e-05
3.677089e-05
6.850894e-06
2.423107e-05
4.083171e-05
2.435528e-05
3.381744e-05
2.429436e-06
3.917023e-07
2.492856e-05
2.620758e-05
4.033156e-05
2.40611e-05
2.034539e-05
1.80233e-05
2.367918e-05
2.941285e-06
3.655003e-05
2.693621e-05
4.292665e-05
2.868121e-05
4.12938e-05
4.037823e-06
3.286508e-05
1.441498e-05
4.32583e-05
4.634263e-05
5.185883e-05
4.973125e-05
4.867734e-05
3.227978e-05
3.08811e-05
7.543491e-06
2.814432e-05
-7.234214e-06
1.988779e-05
2.102651e-05
3.167782e-05
2.763789e-05
1.638091e-05
3.538884e-05
-5.342306e-06
-8.481257e-06
2.849396e-05
2.83338e-05
3.918261e-05
2.039489e-05
4.426942e-06
-1.812751e-05
4.219767e-05
4.036293e-05
4.070234e-05
5.813143e-06
5.192364e-05
6.514362e-08
4.371066e-06
1.408152e-05
1.211013e-05
1.312945e-05
3.587633e-05
-3.717518e-07
-3.573336e-06
-1.97929e-06
1.671356e-05
-8.30258e-06
4.161989e-05
-5.215617e-07
-1.00385e-05
7.893167e-06
4.57608e-05
3.859434e-05
3.263871e-05
1.939514e-05
3.260026e-05
3.369019e-05
1.660684e-05
3.905473e-05
2.018639e-05
5.030275e-05
2.340985e-05
2.553998e-05
2.457606e-05
4.723967e-06
3.867612e-05
3.815399e-05
3.803855e-05
2.563601e-06
2.082654e-06
-1.378795e-05
4.242903e-05
3.261415e-05
4.236774e-05
4.268617e-05
2.629693e-05
2.398343e-05
1.480636e-05
5.055235e-05
4.124122e-05
2.833574e-05
2.099949e-05
-1.720788e-05
2.661649e-05
4.348556e-05
-2.543461e-05
3.24558e-05
4.250311e-06
6.303687e-06
3.174236e-05
4.868923e-06
2.944713e-05
2.528702e-05
3.012084e-05
1.752287e-05
3.754768e-05
1.271007e-05
5.647856e-05
6.129416e-05
3.160092e-05
3.284447e-05
4.320115e-05
3.394155e-05
4.406515e-05
2.866615e-05
2.70912e-05
3.851367e-05
5.225877e-05
5.227633e-05
6.073175e-06
-1.545221e-06
-1.250766e-05
-1.353513e-05
3.130957e-05
3.934406e-05
4.048753e-05
2.909285e-05
3.881438e-05
6.048919e-05
2.386689e-05
-1.426506e-06
5.706808e-06
-2.255408e-05
2.102597e-05
2.180497e-05
3.08972e-05
9.915546e-06
3.029591e-05
6.125122e-05
4.246014e-05
2.434394e-05
9.263149e-06
3.031641e-06
-6.9487e-06
3.807058e-05
-2.186126e-05
9.111978e-06
3.049451e-05
3.112947e-05
-1.552209e-05
-7.14231e-06
1.587719e-05
-1.708298e-05
3.958063e-05
-1.088856e-05
3.214257e-05
2.597465e-05
2.394612e-05
3.554567e-05
3.70275e-05
2.880185e-05
2.910207e-05
2.134014e-05
1.793273e-05
7.335465e-05
9.571323e-05
1.865183e-05
1.942587e-05
1.462186e-05
2.489153e-05
2.05427e-05
-5.226605e-07
3.660324e-05
-1.713758e-07
8.325729e-06
9.694322e-06
3.806797e-05
2.741452e-05
-1.053552e-05
4.371067e-05
3.345842e-05
7.295839e-06
9.231866e-06
1.272664e-05
-1.186431e-05
3.691413e-05
1.165896e-05
8.96325e-06
-5.921191e-06
-7.06127e-06
3.781175e-05
3.441165e-05
-5.283189e-06
-7.461114e-06
1.102549e-05
1.153926e-05
3.8385e-05
2.772486e-05
2.693765e-05
2.888568e-05
2.751546e-05
5.747459e-06
-2.559942e-06
4.447026e-05
4.370358e-05
4.570004e-05
3.581119e-05
2.935468e-05
2.854033e-05
3.688494e-06
-4.798113e-06
6.698294e-06
5.637399e-06
3.120903e-06
1.789026e-06
4.822762e-05
5.42264e-05
3.361144e-05
3.305837e-05
5.657799e-06
5.902016e-06
6.757289e-06
1.665135e-05
7.868683e-06
3.983123e-05
-2.585128e-06
1.735484e-05
1.82829e-05
-1.012013e-06
1.949123e-06
3.593092e-05
-8.837879e-06
2.626271e-05
1.757753e-05
2.572774e-05
-9.201342e-06
1.62449e-05
2.062285e-05
2.233498e-05
-7.857672e-06
-1.21697e-05
-8.43794e-06
1.806663e-05
-5.853471e-06
1.893369e-05
2.259003e-05
-1.397675e-05
2.900558e-05
-3.600127e-06
-4.617926e-06
4.472881e-05
-1.315525e-05
2.449244e-05
2.594527e-05
2.570374e-05
3.966887e-05
4.096874e-05
4.491882e-05
4.626388e-05
3.183837e-05
-3.687628e-06
3.135972e-05
2.219336e-06
2.910408e-06
9.929172e-07
6.971396e-05
-1.462216e-05
3.885418e-05
3.475299e-05
-2.502532e-06
4.802864e-05
6.22735e-05
1.797525e-05
2.265745e-05
1.555861e-05
6.453992e-05
2.655381e-05
2.790678e-05
2.537156e-05
3.427957e-05
3.467025e-05
-1.679957e-06
4.07523e-05
5.373773e-06
8.959685e-06
4.136419e-05
1.123773e-05
7.178276e-06
6.570472e-06
3.834735e-05
2.377004e-05
-1.442083e-05
5.315556e-06
1.905657e-05
9.808029e-06
-1.376457e-05
2.620463e-05
3.609028e-05
-8.691408e-06
2.718218e-05
3.71191e-05
4.118481e-05
3.911288e-05
3.375263e-05
4.573068e-05
4.094903e-05
4.163834e-05
5.464641e-05
2.173762e-05
1.535498e-05
3.100313e-05
2.578641e-05
2.892926e-05
4.064344e-05
5.329463e-05
5.596836e-05
-4.842666e-06
3.605789e-05
4.232878e-06
2.6399e-05
4.590436e-05
2.088176e-05
2.726544e-05
3.055125e-05
3.474066e-05
3.586373e-05
2.36078e-05
-8.870398e-06
4.153197e-05
2.858981e-05
3.350039e-05
2.817122e-06
-1.445549e-06
1.709116e-06
4.820365e-06
3.124591e-05
1.332709e-06
-1.174584e-05
2.474497e-05
2.501181e-05
2.192152e-05
2.323424e-05
2.66843e-05
-6.284962e-06
2.854682e-05
2.937301e-05
7.913258e-06
9.888297e-07
4.253422e-05
4.502285e-05
4.172434e-05
4.183181e-05
4.169821e-05
1.865791e-05
4.166591e-06
2.648946e-05
2.2838e-05
-1.097211e-05
7.244833e-06
7.438318e-06
1.468654e-05
2.563836e-05
1.410108e-05
1.477174e-05
4.193532e-05
3.490976e-05
3.49648e-05
4.110974e-05
3.963741e-05
3.526648e-05
4.091766e-05
3.254649e-05
3.97675e-05
4.159168e-05
2.155231e-05
4.084271e-05
3.056201e-05
3.518635e-05
3.908402e-05
3.585531e-05
-7.670339e-06
1.146799e-05
1.664541e-05
6.506874e-07
7.42972e-05
6.900232e-05
2.041826e-05
-1.79762e-05
3.005333e-05
5.318879e-05
5.322124e-06
3.19968e-05
3.19327e-05
9.033534e-06
1.12921e-05
2.801517e-05
1.938483e-05
3.157966e-05
3.059402e-05
2.459918e-05
7.225819e-06
1.086717e-05
2.639191e-05
2.876851e-05
4.391709e-06
3.066059e-05
1.21204e-05
3.535675e-05
4.860843e-05
1.078823e-05
2.444354e-05
4.30237e-05
4.597982e-06
2.21093e-05
3.943852e-06
1.401783e-05
2.713376e-05
3.050966e-05
3.813205e-05
1.666038e-05
-1.554984e-05
5.137632e-06
-1.183237e-05
2.559028e-05
1.877263e-05
1.532618e-05
1.603142e-05
4.486155e-05
2.12978e-05
4.13752e-05
2.258304e-05
1.397206e-05
-1.123839e-06
2.090745e-06
4.565947e-05
6.25297e-05
7.168483e-05
2.416474e-05
-6.084573e-06
2.805277e-05
2.899254e-05
2.174426e-05
3.143909e-05
3.111328e-05
-2.626601e-05
3.242697e-05
-9.502838e-06
2.778314e-05
-6.968093e-06
2.575955e-05
3.823421e-06
-6.159363e-06
4.053312e-05
4.954031e-06
9.022599e-06
3.822572e-05
2.445505e-05
5.846806e-06
2.926337e-05
2.831479e-05
3.961095e-05
1.38323e-05
1.255141e-05
1.203337e-05
1.317856e-05
4.713016e-05
4.533748e-05
3.724195e-05
3.908936e-05
3.696854e-05
3.771346e-05
3.659917e-05
2.944542e-05
7.840252e-05
3.064013e-05
1.249837e-05
2.978228e-05
2.962198e-05
-3.783718e-06
-1.943209e-05
6.118294e-06
3.267273e-06
2.462349e-05
5.529968e-05
1.490695e-05
2.705273e-05
4.594611e-05
9.408845e-06
7.281552e-06
-8.796018e-06
2.919185e-05
2.695562e-05
2.583734e-05
2.974849e-05
3.781951e-05
3.898625e-05
6.483647e-05
4.075216e-05
2.351475e-05
4.474535e-05
4.380314e-05
3.453724e-05
3.785981e-05
2.216955e-05
-2.969106e-06
-8.206018e-06
7.619967e-06
7.121956e-05
1.844605e-05
-2.163874e-06
-1.08853e-05
1.635779e-07
2.057883e-05
1.510896e-05
2.63979e-05
2.94516e-05
-9.757648e-06
6.403661e-05
6.081661e-05
2.857606e-05
7.412865e-06
6.65127e-05
3.876833e-05
3.912672e-05
1.136061e-05
3.687447e-06
3.068886e-05
3.132968e-05
3.346761e-05
-1.579296e-05
-1.062286e-05
3.970395e-05
3.994868e-05
2.11366e-06
3.878701e-05
2.270753e-05
-1.794254e-05
-2.293127e-05
-1.336602e-05
3.411075e-05
6.621371e-07
-1.269751e-05
-1.384978e-05
3.286431e-05
2.756511e-05
6.285942e-05
1.370253e-05
4.552027e-05
2.712835e-05
1.92806e-05
-4.403609e-06
1.351224e-06
1.42543e-05
3.526548e-06
3.183646e-05
3.118716e-05
9.338032e-06
1.292653e-05
2.396937e-05
9.952232e-06
4.83936e-05
5.086784e-06
3.064499e-05
3.399516e-05
2.968738e-05
1.689717e-05
-9.329032e-06
-4.582612e-06
3.415395e-05
2.547828e-05
2.494357e-05
2.878402e-05
6.289483e-06
3.617828e-05
-8.739781e-06
1.485722e-05
6.423425e-05
1.881398e-05
5.613564e-05
-4.282478e-06
1.834452e-06
3.511021e-05
-1.611053e-05
-3.219332e-06
6.929694e-06
2.035835e-05
2.141613e-05
4.500867e-05
4.766263e-05
4.575931e-05
4.426537e-05
4.621846e-05
4.455461e-05
4.696384e-05
4.24939e-05
4.542217e-05
-1.180027e-05
-1.254089e-05
-4.277716e-06
-2.382569e-06
4.2851e-05
4.27138e-05
4.218419e-05
4.370988e-05
4.406756e-05
4.328094e-05
-1.892032e-06
-1.92462e-06
-1.033855e-06
-9.044464e-06
-1.093225e-05
2.842267e-05
8.140895e-06
3.691144e-05
-7.64897e-08
-2.518963e-05
5.364436e-05
-5.794958e-06
-5.377521e-06
-1.774558e-05
3.350691e-05
8.789671e-06
9.670953e-06
-2.479495e-06
-9.38279e-07
2.491647e-05
2.184259e-05
1.2288e-05
5.865255e-05
4.896591e-05
2.547328e-05
2.294337e-05
-6.55652e-07
1.620756e-05
2.415945e-05
2.484931e-05
-2.577083e-06
2.767963e-06
3.882221e-05
7.026383e-06
8.532687e-06
-1.95071e-05
1.356519e-06
-7.296525e-06
1.11906e-05
1.128851e-05
3.37033e-05
3.231268e-05
2.447577e-05
2.449225e-05
2.041456e-05
-3.750842e-06
-5.639036e-06
-2.196183e-06
3.070539e-05
3.101796e-05
3.077926e-05
-1.429837e-05
1.702565e-07
6.940309e-07
1.87914e-05
1.358698e-05
5.32362e-05
1.735747e-05
1.67898e-05
1.931208e-05
3.586572e-05
4.34294e-05
4.796777e-05
4.100659e-06
4.928043e-05
2.691779e-05
3.954482e-05
2.660157e-05
1.750549e-05
7.116026e-06
2.755478e-05
4.351405e-05
9.770981e-06
6.842915e-05
6.806226e-05
2.93825e-05
2.984283e-05
3.55092e-05
3.977468e-05
3.16239e-06
4.170101e-06
5.392214e-06
2.571574e-05
4.161382e-05
3.847232e-05
3.707305e-05
-6.825449e-06
2.609171e-06
2.830141e-06
8.086303e-06
1.944617e-06
3.403476e-05
3.498312e-05
2.828439e-05
2.847276e-05
5.518781e-06
6.153331e-06
-7.148254e-07
1.419968e-05
1.492157e-05
7.970681e-06
3.734537e-05
2.517513e-07
3.99642e-07
2.468374e-05
2.430824e-05
2.962271e-05
2.380477e-05
2.41401e-05
2.763821e-05
2.802747e-05
3.037064e-05
2.440654e-05
2.169823e-05
3.141101e-05
4.211792e-05
3.670297e-05
2.793203e-05
6.111836e-06
3.065173e-05
4.399594e-06
5.87924e-06
1.456696e-05
2.756512e-05
2.555742e-05
2.667576e-05
2.706602e-05
2.512288e-05
3.635831e-05
1.074691e-05
3.342726e-05
4.186029e-05
-1.882208e-05
2.566212e-05
2.485988e-05
2.436124e-05
1.845965e-05
1.839831e-05
-1.481305e-05
2.401515e-05
-6.802136e-06
2.627128e-05
1.051689e-06
2.965645e-05
2.081728e-05
4.168795e-05
4.142266e-05
3.185715e-05
1.320622e-06
3.141407e-07
1.605649e-05
8.994069e-06
2.025436e-05
2.705751e-05
3.538755e-05
3.546708e-05
3.474557e-05
5.940034e-06
1.227301e-05
-8.083231e-06
4.081837e-05
4.099227e-05
2.945239e-05
2.768815e-05
9.799564e-06
6.742675e-07
1.172906e-05
1.353558e-05
3.153606e-05
-3.484134e-05
3.243625e-05
3.244652e-05
5.042977e-05
5.041796e-05
3.512991e-05
6.368076e-08
2.272405e-06
-9.031649e-06
2.085063e-05
2.068998e-05
3.383174e-05
5.690716e-05
-2.716915e-06
2.518919e-05
6.005117e-06
3.450537e-05
1.683952e-06
1.727751e-06
1.78666e-05
2.242371e-05
4.51469e-05
2.918744e-05
-2.067353e-05
-1.978858e-05
4.252075e-05
6.505615e-05
2.892732e-05
-1.983013e-05
-1.54171e-05
3.459161e-05
3.851016e-05
3.600467e-05
3.44566e-05
3.93286e-05
3.865744e-05
3.994049e-05
3.960617e-05
3.662671e-05
3.64327e-05
2.397294e-05
2.735263e-05
2.626195e-05
2.487979e-05
3.890881e-05
3.585565e-05
3.699081e-05
1.385383e-06
3.813929e-05
2.874815e-05
2.300491e-05
2.31234e-05
2.657907e-05
2.473555e-05
2.227193e-06
-6.993753e-06
1.725348e-05
4.31003e-05
4.013739e-05
-1.202182e-05
3.938307e-05
3.912595e-05
4.166262e-05
3.877721e-05
-1.024095e-06
4.492975e-05
7.616125e-07
3.279083e-06
3.607755e-05
4.245317e-05
4.031046e-05
4.066867e-05
3.935416e-05
2.3667e-05
5.225841e-05
6.546626e-05
1.137675e-05
1.215419e-05
7.65561e-06
1.860163e-05
2.091763e-05
2.14151e-05
5.217307e-05
2.358252e-05
2.209774e-06
2.812859e-05
3.061078e-05
1.312648e-05
3.51338e-05
3.577763e-05
3.897968e-05
5.338677e-06
3.00921e-05
2.922065e-05
-2.514425e-06
7.247984e-06
2.496112e-05
2.57344e-05
1.750157e-06
6.814688e-05
1.267465e-05
1.252833e-05
1.17979e-05
1.264282e-05
5.17886e-05
5.698959e-05
4.776039e-05
2.570289e-05
-2.212284e-06
2.704184e-05
-1.07653e-05
-1.205052e-05
1.783558e-06
4.125919e-05
2.714357e-05
-3.350624e-06
2.560188e-05
2.746525e-05
1.266396e-06
1.053097e-05
-9.72264e-06
-8.289458e-06
3.415573e-05
4.481934e-06
5.04996e-06
2.475058e-05
2.776921e-05
1.160575e-05
4.96411e-05
3.44025e-05
3.497103e-05
6.765671e-05
5.718497e-05
2.361228e-05
1.816137e-05
-1.143387e-05
2.975205e-05
3.803683e-05
3.79934e-05
-2.230709e-05
3.725854e-06
3.360297e-05
3.331646e-05
-2.413082e-06
-9.585311e-07
7.161673e-05
2.226449e-05
2.140062e-05
1.472172e-05
7.782276e-07
1.591026e-05
-1.334538e-05
2.65757e-06
2.863307e-05
2.563318e-05
7.194885e-06
2.254175e-05
4.433471e-06
4.480572e-06
4.628337e-05
4.580537e-05
2.560346e-05
3.791581e-05
3.8141e-05
2.636036e-05
2.107421e-05
2.699573e-05
2.644161e-05
9.50226e-07
2.948959e-05
3.309867e-05
4.612128e-05
3.478073e-05
1.322145e-05
1.303279e-05
3.992384e-05
3.794727e-05
-1.662222e-06
-2.089775e-06
3.983165e-06
1.484246e-05
1.218161e-05
1.700809e-05
1.827585e-05
5.931838e-05
2.993757e-05
-1.976082e-05
1.998829e-05
1.808259e-05
1.855206e-05
1.175001e-06
2.414419e-05
1.813786e-05
4.657207e-05
4.494542e-05
7.707262e-06
1.471076e-05
1.577876e-05
4.632994e-05
3.838441e-05
3.609346e-05
3.578403e-05
-1.253882e-05
4.058912e-05
4.269973e-05
1.999509e-05
3.099409e-05
3.014982e-05
3.889387e-05
3.821361e-05
2.369991e-05
4.460231e-05
4.471466e-05
4.853848e-05
4.470298e-05
4.630704e-05
4.596352e-05
3.970841e-05
5.07867e-05
2.991312e-05
-2.770908e-06
4.091453e-05
-1.79967e-06
-3.324532e-06
2.841151e-05
2.538746e-05
1.182774e-05
1.159595e-05
3.046245e-06
5.381838e-06
4.277765e-05
-4.915901e-06
2.330145e-05
-7.17643e-06
1.811264e-06
3.930421e-05
-3.780246e-06
2.788816e-05
2.830245e-05
3.671356e-05
1.007263e-05
3.079346e-05
3.792044e-05
9.769839e-06
3.458178e-05
2.636071e-05
1.535983e-05
-1.526687e-05
-1.418886e-05
2.740759e-05
2.745916e-05
4.777715e-05
4.756003e-06
5.096509e-05
6.545643e-05
1.442091e-05
3.556303e-05
3.583687e-05
4.993109e-05
1.812371e-05
2.13879e-05
4.917012e-05
4.854018e-05
3.055595e-05
9.202821e-06
7.75569e-06
2.368525e-06
2.201687e-06
8.827707e-06
4.693838e-06
1.109953e-05
-1.37255e-05
3.846965e-06
3.270088e-06
4.145176e-05
8.684951e-06
6.093326e-06
-2.166261e-06
-2.252963e-05
1.883141e-05
7.474375e-06
4.101941e-05
2.703263e-05
2.56052e-05
2.502843e-05
4.902584e-05
8.189867e-06
6.568133e-05
1.725783e-05
2.723155e-05
4.047094e-05
3.422339e-05
-5.189024e-08
2.321279e-05
-5.241306e-06
2.738048e-05
4.2311e-05
1.351079e-05
1.379379e-05
-3.129502e-06
2.773629e-05
3.332937e-05
-5.726438e-06
2.561309e-05
2.483485e-05
7.510836e-06
7.807021e-06
8.920013e-06
2.573238e-05
2.569063e-05
3.263325e-05
4.956704e-05
5.008904e-05
3.109334e-05
-5.757659e-06
3.927475e-05
2.273846e-05
2.205047e-05
3.557909e-05
3.542857e-05
1.197701e-05
5.911259e-06
-4.900169e-06
-4.235244e-06
-2.358051e-06
2.601273e-05
2.712058e-05
4.814565e-06
3.71138e-05
3.75221e-05
3.260394e-05
3.792089e-05
3.67728e-05
3.978117e-05
3.795976e-05
2.463416e-05
3.385314e-05
3.335528e-05
4.651554e-05
5.459904e-05
5.936381e-05
3.027859e-05
8.118461e-07
6.405089e-07
6.053521e-05
9.298646e-06
8.921898e-06
-6.67822e-06
3.233742e-05
6.763119e-05
3.93599e-05
3.931298e-05
1.986975e-06
3.568095e-05
3.681198e-05
-1.045968e-07
-5.714534e-06
3.35917e-05
2.08382e-05
3.819486e-05
2.608261e-05
2.57377e-05
5.794053e-06
3.082922e-05
3.816321e-05
3.714996e-05
-1.446135e-05
-1.082784e-05
1.056208e-05
1.072856e-05
4.099782e-05
4.093932e-05
1.100674e-05
4.494747e-05
1.23969e-05
1.161229e-05
1.295872e-05
1.248166e-05
-1.247891e-05
1.870431e-05
2.747805e-05
5.891204e-05
5.667555e-05
2.947201e-05
2.910067e-05
5.281956e-06
6.716454e-06
5.251392e-05
5.230657e-05
-8.088002e-06
3.785935e-05
2.853793e-05
2.794276e-05
2.869394e-05
2.894845e-05
-4.550775e-06
-1.961642e-07
6.376866e-06
8.992423e-06
-8.844609e-06
-6.230278e-06
-1.234804e-05
1.856427e-05
1.634195e-05
1.189299e-05
2.002462e-05
3.947049e-05
4.003211e-05
2.49582e-05
1.043979e-05
4.796718e-05
4.099655e-05
4.998377e-05
2.082022e-05
5.560735e-06
5.286576e-06
5.273991e-05
5.14733e-05
2.605266e-05
2.636223e-05
3.471149e-05
-1.833944e-05
-1.722021e-05
3.764384e-05
3.87904e-05
5.427146e-05
3.240725e-05
3.271155e-05
6.270701e-05
6.254487e-05
6.019046e-05
6.119407e-05
7.642298e-05
-2.066311e-05
2.245865e-05
2.028319e-05
5.189996e-06
-3.733168e-06
8.015556e-07
3.823053e-06
-5.925981e-06
3.154627e-05
2.96175e-05
-1.370469e-05
6.937603e-06
3.713662e-05
3.269986e-05
1.554161e-05
1.079657e-05
3.484398e-05
-8.236469e-07
3.236283e-05
-1.195959e-05
-1.082023e-05
1.044119e-05
-2.000589e-06
2.723074e-05
-7.986016e-06
-1.207458e-05
1.034516e-05
-4.264947e-06
-3.764127e-06
3.555939e-06
2.518089e-06
1.969058e-06
-1.033866e-06
1.348497e-05
1.439214e-05
2.454276e-05
2.40949e-06
2.120398e-06
7.654536e-06
3.999883e-05
4.203229e-05
4.231691e-05
4.165499e-05
1.513381e-05
1.53798e-05
9.786116e-06
8.085644e-06
-1.996639e-06
-3.363654e-06
-6.181746e-06
-4.511945e-06
-4.538959e-06
-5.582353e-06
2.235452e-05
2.568348e-05
2.625798e-05
2.477846e-05
2.4515e-05
2.713205e-05
2.515903e-05
-3.151399e-06