/*--------------------------------*- C++ -*----------------------------------*\
| =========                 |                                                 |
| \\      /  F ield         | OpenFOAM: The Open Source CFD Toolbox           |
|  \\    /   O peration     | Version:  2406                                  |
|   \\  /    A nd           | Website:  www.openfoam.com                      |
|    \\/     M anipulation  |                                                 |
\*---------------------------------------------------------------------------*/
FoamFile
{
    version     2.0;
    format      ascii;
    arch        "LSB;label=32;scalar=64";
    class       surfaceScalarField;
    location    "0.26";
    object      phi;
}
// * * * * * * * * * * * * * * * * * * * * * * * * * * * * * * * * * * * * * //

dimensions      [0 3 -1 0 0 0 0];

oriented        oriented;

internalField   nonuniform List<scalar> 
6741
(
5.097753e-10
9.582289e-10
-1.468004e-09
-1.229843e-09
-6.094454e-11
1.290788e-09
1.695234e-09
-1.740759e-09
4.552568e-11
6.303083e-10
7.340236e-10
-1.364332e-09
1.54791e-09
-8.303512e-10
-7.175584e-10
2.012288e-09
-8.443023e-10
-1.167986e-09
-1.214669e-09
-2.131157e-10
1.427785e-09
-9.189179e-10
1.833832e-09
-9.14914e-10
1.102865e-10
2.109312e-09
-2.219598e-09
-1.531015e-09
3.444546e-10
1.186561e-09
-1.820944e-10
1.969657e-09
-1.787563e-09
1.319479e-09
-1.985007e-09
6.655281e-10
1.359844e-09
-1.97645e-09
6.166059e-10
1.861928e-09
-1.633241e-09
-2.286873e-10
-1.877314e-10
1.469695e-09
-1.281964e-09
3.45531e-09
-2.051549e-09
-1.403761e-09
-8.611313e-10
-6.036928e-10
1.464824e-09
1.296388e-09
-1.506878e-09
2.104896e-10
1.888508e-09
-1.753986e-09
7.305616e-10
-1.615932e-09
8.853706e-10
-2.358446e-09
1.254558e-09
1.103888e-09
4.133327e-10
-1.348024e-09
9.346909e-10
-1.71509e-09
1.414255e-09
3.008353e-10
4.165685e-10
1.516731e-09
-1.9333e-09
3.878744e-10
1.402563e-09
-1.790438e-09
1.690346e-09
-1.484636e-09
-2.057105e-10
1.798712e-09
-1.098848e-09
-6.998643e-10
-2.065977e-09
1.168034e-09
8.979433e-10
-1.324638e-09
1.466822e-09
-1.421833e-10
-4.78597e-09
7.121377e-10
4.073832e-09
-2.136268e-09
8.545927e-10
1.281675e-09
-1.518544e-09
1.154652e-09
3.638921e-10
1.721512e-09
-9.460822e-10
-7.7543e-10
2.769808e-09
-2.224428e-10
-2.547365e-09
4.137297e-09
2.052874e-09
-6.190171e-09
-1.321285e-09
1.597214e-09
-2.759293e-10
-1.505833e-09
-2.456207e-10
1.751454e-09
4.810713e-09
2.340477e-09
-7.15119e-09
1.766062e-09
-6.243093e-10
-1.141752e-09
-1.644563e-09
2.02399e-09
-3.794269e-10
1.47066e-09
7.076289e-10
-2.178288e-09
-7.969484e-10
-1.276862e-09
2.07381e-09
1.463511e-09
-2.270628e-10
-1.236448e-09
9.908313e-10
-1.528688e-09
5.378567e-10
-1.910585e-09
1.182364e-09
7.282209e-10
-1.356143e-09
5.346977e-10
8.21445e-10
-7.030676e-10
-1.094499e-09
1.797567e-09
-2.051166e-10
-1.559501e-09
1.764618e-09
-5.611413e-10
-1.418265e-09
1.979406e-09
6.161392e-10
1.225071e-09
-1.84121e-09
-1.57944e-09
1.652789e-09
-7.334917e-11
-1.288445e-09
4.205733e-10
8.678719e-10
1.402329e-09
-2.282302e-10
-1.174099e-09
1.947756e-09
-4.794877e-10
-1.468268e-09
-1.358833e-10
1.256023e-09
-1.12014e-09
4.466685e-10
1.34107e-09
-1.787738e-09
-1.633888e-09
1.432403e-09
2.014842e-10
-2.500113e-10
-1.616033e-09
1.866044e-09
-1.219351e-09
1.904452e-09
-6.851012e-10
5.536861e-10
-1.732161e-09
1.178475e-09
-8.148939e-10
-4.682751e-10
1.283169e-09
-1.512268e-09
1.106922e-09
4.053462e-10
-1.484215e-09
1.556241e-09
-7.202529e-11
3.946438e-10
1.450278e-09
-1.844921e-09
-2.359673e-09
1.177902e-09
1.181771e-09
1.518896e-09
-1.19577e-09
-3.231256e-10
-1.759439e-09
1.41851e-09
3.409292e-10
5.189153e-10
1.008035e-09
-1.526951e-09
6.794683e-09
-7.268646e-09
4.739625e-10
-1.940793e-09
3.691059e-10
1.571687e-09
4.892794e-10
-2.066608e-09
1.577329e-09
1.346972e-09
-1.590832e-09
2.4386e-10
1.495028e-09
-3.009262e-10
-1.194102e-09
1.445146e-09
-1.9591e-09
5.139534e-10
5.128336e-09
1.06902e-09
-6.197356e-09
-1.295818e-09
5.41945e-12
1.290398e-09
2.216568e-09
-7.793051e-10
-1.437263e-09
1.61953e-09
-1.725989e-10
-1.446931e-09
-1.538821e-09
-4.123294e-10
1.95115e-09
1.962887e-09
-2.309145e-09
3.462573e-10
4.307297e-10
1.266484e-09
-1.697214e-09
1.057812e-09
-1.165869e-09
1.080568e-10
-8.148682e-10
-1.45462e-10
-1.608963e-09
-4.166868e-10
2.02565e-09
-1.613914e-09
1.19597e-09
4.179443e-10
-5.749629e-10
2.229693e-09
-1.654731e-09
9.534552e-10
-1.682317e-09
7.288622e-10
5.509712e-10
2.506986e-09
-3.057957e-09
-6.084535e-10
-1.139041e-09
1.747494e-09
8.063663e-10
-1.567119e-09
7.607527e-10
2.05011e-10
-1.454715e-09
1.249704e-09
1.271915e-09
3.263142e-10
-1.598229e-09
-2.927052e-10
2.011169e-09
-1.718464e-09
-3.178671e-11
-1.76056e-09
1.792347e-09
-9.475804e-10
1.583527e-09
-6.35947e-10
-2.388539e-11
-2.931195e-09
2.95508e-09
8.862647e-10
-1.933163e-09
1.046898e-09
-1.293621e-10
1.231548e-09
-1.102186e-09
-1.289568e-09
-6.657514e-11
-6.17897e-09
4.00901e-09
2.16996e-09
1.29469e-09
-6.643821e-10
1.428778e-09
-1.792983e-09
3.642051e-10
-3.113419e-09
1.158871e-11
3.10183e-09
-2.362547e-09
-3.079569e-09
5.442116e-09
4.659158e-10
-2.074879e-09
1.684421e-10
1.445097e-09
-1.613539e-09
-1.952763e-09
1.413573e-09
5.391896e-10
-2.2335e-09
6.783887e-10
-3.649944e-10
2.046605e-09
-1.681611e-09
1.172217e-09
-1.682142e-09
5.09925e-10
1.035075e-09
-7.810061e-10
-2.540687e-10
-1.959015e-09
1.097883e-09
-7.506359e-10
-7.370669e-10
1.487703e-09
-1.101094e-09
1.633784e-09
-5.326897e-10
1.113678e-09
-9.078704e-12
-1.104599e-09
1.77232e-09
-2.772921e-10
-1.529641e-09
1.338726e-10
1.395768e-09
-1.944689e-09
9.811109e-10
9.635785e-10
-1.597521e-09
-7.652185e-11
1.674042e-09
-2.481575e-09
2.526649e-09
-4.507415e-11
-1.01767e-09
-1.727151e-10
1.190385e-09
3.38407e-09
8.979165e-10
-4.281987e-09
1.727614e-09
-1.403861e-09
-3.237526e-10
-1.145352e-09
-7.65233e-10
1.140902e-09
-1.500855e-09
3.599538e-10
-1.024365e-09
-7.207957e-10
1.745161e-09
3.027317e-09
-3.189599e-09
1.622827e-10
-3.072574e-09
4.469514e-10
2.625623e-09
-1.822003e-09
1.651497e-09
1.705055e-10
2.138114e-09
-3.638159e-10
-1.774298e-09
-7.813043e-11
-1.229285e-09
1.307415e-09
-1.421204e-09
-6.254411e-10
2.046646e-09
4.646482e-10
1.081148e-09
-1.545796e-09
2.447284e-09
-2.211004e-09
-2.362792e-10
-1.580169e-09
8.776859e-10
7.024834e-10
1.552716e-09
-2.391474e-09
8.387574e-10
-1.914166e-09
1.436842e-09
4.773241e-10
-1.558935e-09
1.291388e-09
2.675467e-10
-8.624603e-10
-1.203517e-09
1.304327e-10
-2.746733e-09
2.6163e-09
3.506107e-09
-5.868654e-09
-2.145882e-11
-1.837889e-09
1.859348e-09
1.011722e-09
-1.636746e-09
6.250241e-10
-1.142199e-09
-3.888163e-10
-1.234862e-09
2.332646e-09
-1.097784e-09
-1.758372e-09
2.312058e-09
-6.09354e-10
-1.139365e-09
1.748719e-09
1.174619e-09
-1.176805e-09
2.186034e-12
-1.384725e-09
1.255363e-09
-7.575926e-10
-4.881131e-10
1.245706e-09
1.213288e-09
-1.055203e-09
-1.580848e-10
-2.685389e-09
1.179556e-09
-2.023345e-09
-2.010709e-10
2.224415e-09
4.220242e-09
-1.296635e-09
-2.923607e-09
1.044418e-09
8.117769e-10
-1.856195e-09
-1.391088e-11
-1.022717e-09
1.036628e-09
1.961846e-09
-1.215916e-09
-7.459301e-10
1.473593e-09
-3.949208e-11
-1.434101e-09
5.585767e-10
-1.969884e-09
1.411307e-09
1.706889e-09
-2.475402e-09
7.68513e-10
2.158949e-09
-1.884149e-09
-2.748002e-10
-1.932469e-09
6.743182e-09
1.969187e-09
-1.968666e-10
-7.733591e-10
1.546219e-09
-7.728601e-10
1.008299e-09
-1.201538e-09
-3.219979e-09
2.375244e-10
2.982455e-09
2.5492e-10
1.341171e-09
-1.596091e-09
1.530974e-09
5.980767e-10
-2.129051e-09
1.159125e-09
3.585891e-10
-1.517714e-09
8.66223e-10
6.533762e-10
-1.519599e-09
-1.948118e-09
5.83264e-10
1.364854e-09
3.02533e-09
-2.058357e-09
-9.669725e-10
7.638932e-09
-3.501635e-09
-9.067254e-10
5.987902e-10
1.554753e-09
-2.153543e-09
-4.265374e-10
-8.822264e-10
1.308764e-09
-1.868037e-09
1.715957e-09
1.520805e-10
-8.279656e-10
1.864535e-09
-1.036569e-09
-1.132377e-09
1.379993e-09
-2.476168e-10
-7.477027e-10
-1.2131e-09
1.960803e-09
-2.807063e-10
-1.348286e-09
1.628992e-09
2.059201e-09
-5.730295e-10
-1.486172e-09
-5.331856e-10
-8.329513e-10
1.366137e-09
-3.451215e-09
3.257808e-09
1.934071e-10
-1.011076e-09
1.8935e-09
-8.824239e-10
-2.644495e-10
-7.178871e-10
9.823366e-10
1.170073e-09
5.575412e-10
1.759714e-09
-1.160924e-09
-2.61266e-10
-1.099236e-09
1.360502e-09
1.654374e-09
-7.009188e-10
3.682586e-10
-1.789463e-09
-1.351792e-11
-1.31112e-09
7.86364e-10
-2.420935e-09
1.634571e-09
-1.509094e-09
-4.65004e-10
-1.223485e-09
-5.634942e-10
1.78698e-09
-1.642476e-09
5.601913e-10
1.082284e-09
-4.922121e-10
1.25983e-09
-7.676181e-10
-1.601208e-09
9.89725e-10
6.114828e-10
-1.114807e-09
-4.769266e-10
1.591734e-09
5.130008e-10
-2.006991e-09
1.49399e-09
9.061367e-10
5.275944e-10
-1.433731e-09
1.45262e-10
-1.65753e-09
1.719377e-09
-5.230017e-10
-1.196376e-09
-9.840578e-10
1.909147e-09
-9.250896e-10
5.127731e-09
-2.188395e-09
-2.939336e-09
-1.885331e-09
1.649147e-09
2.361837e-10
-7.153192e-10
1.557269e-09
-8.419502e-10
1.626512e-09
-2.046332e-09
4.198196e-10
1.687173e-09
-3.346011e-10
-1.352572e-09
-4.240897e-10
1.208351e-09
-7.842616e-10
-1.280898e-09
1.657659e-09
-3.767611e-10
-5.077399e-09
7.699392e-09
-2.621992e-09
8.665633e-11
1.736369e-09
-1.823026e-09
5.035835e-10
-1.502559e-09
9.989752e-10
9.928919e-10
7.909412e-10
-1.783833e-09
-8.678438e-10
-1.347081e-09
2.214925e-09
1.063167e-10
-1.590532e-09
2.348729e-09
-1.402021e-10
-2.208527e-09
-1.289725e-10
-1.468548e-09
1.180539e-09
4.752257e-10
-1.655764e-09
-1.740845e-09
1.682186e-09
5.865814e-11
-1.83151e-09
-4.808433e-10
2.312353e-09
-6.12458e-11
1.953904e-09
-1.892658e-09
2.253337e-09
-5.454401e-10
-1.707896e-09
-1.512322e-09
1.498269e-09
1.405318e-11
-1.678934e-09
6.917738e-10
9.871599e-10
2.122683e-09
-5.280574e-10
-1.594626e-09
-1.137527e-09
-4.40637e-10
1.578164e-09
-1.403821e-09
-2.095926e-10
1.613413e-09
3.977043e-10
-1.450161e-09
1.052456e-09
1.540002e-09
-1.521804e-09
-1.819826e-11
1.020829e-10
1.454158e-09
1.990481e-09
-2.568868e-09
5.783873e-10
1.017613e-09
-1.725575e-09
7.079617e-10
1.785062e-09
-2.00274e-09
2.176776e-10
-7.674442e-10
1.770585e-09
-1.003141e-09
1.449029e-09
-7.13676e-10
-7.35353e-10
-1.301474e-09
1.567721e-09
-2.662468e-10
1.125871e-09
-3.42871e-11
-1.091584e-09
5.452331e-10
1.791794e-09
-2.337027e-09
1.245114e-09
-1.66469e-09
4.195765e-10
5.029932e-11
-1.389569e-09
1.33927e-09
3.288427e-09
-2.733962e-09
-5.544651e-10
1.400966e-09
-2.084037e-11
-1.380125e-09
8.768128e-10
6.710968e-10
1.916754e-09
-9.500624e-09
7.583871e-09
-8.588359e-10
-2.337233e-09
3.196069e-09
3.442767e-10
-8.27586e-09
7.931583e-09
1.762778e-09
-1.733057e-09
-2.972101e-11
3.898693e-10
5.779292e-09
-6.169161e-09
2.117193e-09
-2.217047e-09
9.985407e-11
-1.520793e-09
-7.663561e-11
1.597428e-09
7.785633e-10
-1.274543e-09
4.959794e-10
1.085068e-09
-3.844108e-10
-7.006572e-10
-1.388137e-09
1.438436e-09
1.411625e-09
-5.276309e-10
-8.839938e-10
1.186841e-09
5.057528e-10
-1.692594e-09
-8.857573e-10
1.791894e-09
1.540292e-09
-8.410895e-10
-6.992022e-10
1.582672e-09
-6.566069e-10
-9.26065e-10
1.953944e-09
-1.099013e-09
-8.549313e-10
1.489332e-09
-1.008883e-09
-4.804481e-10
1.444069e-09
-1.419652e-09
-2.441725e-11
2.102597e-10
-1.333737e-09
1.123478e-09
7.893142e-10
2.457606e-10
-1.822973e-10
-1.532792e-09
-3.878622e-10
-7.927766e-09
8.315629e-09
-1.626016e-09
2.243534e-09
-6.175181e-10
1.633211e-09
-1.304727e-09
-3.284837e-10
1.145778e-09
4.746291e-10
-1.620407e-09
1.962472e-09
-2.672382e-10
-3.907769e-10
-1.920841e-09
2.311618e-09
7.580635e-10
6.982073e-10
-1.456271e-09
6.637841e-10
1.219528e-09
-1.883312e-09
-1.511667e-09
-1.044147e-10
1.616081e-09
-8.874241e-10
9.12635e-09
-8.238926e-09
-2.333488e-11
1.70237e-09
-1.679035e-09
-2.851768e-09
2.068976e-09
7.827914e-10
-8.715154e-10
2.016232e-09
-1.144717e-09
1.508057e-09
-9.295312e-10
-5.785256e-10
1.221761e-09
-1.536166e-09
3.144052e-10
1.388471e-09
-1.241523e-09
-1.469476e-10
-1.452453e-09
6.753827e-10
7.770699e-10
-1.931028e-09
-1.438614e-09
3.369642e-09
1.442666e-09
1.199135e-10
-1.56258e-09
-1.560249e-09
-1.805953e-10
5.910623e-10
-1.981352e-09
1.39029e-09
9.074017e-10
7.329037e-11
-9.80692e-10
3.906072e-09
-2.776482e-09
-1.129589e-09
-3.520993e-10
1.610866e-09
-1.258767e-09
-9.581456e-10
2.076698e-09
-1.118552e-09
2.227479e-09
-4.322871e-10
1.661895e-09
-1.229608e-09
1.602062e-10
-1.24536e-09
1.085154e-09
1.868163e-09
-2.989625e-10
-1.5692e-09
1.328473e-09
5.284353e-10
-1.856908e-09
9.779595e-10
5.409361e-10
-7.86582e-10
1.798304e-09
1.249427e-10
1.754761e-09
-1.879703e-09
1.880154e-09
-7.121202e-10
-3.533446e-10
-1.676271e-09
2.029616e-09
4.910713e-10
-1.757007e-09
1.265936e-09
-2.31724e-09
5.187757e-10
1.798464e-09
-4.735737e-10
1.710849e-09
-1.237275e-09
-1.055716e-09
1.239474e-09
-1.837579e-10
1.588734e-10
1.163227e-09
-1.3221e-09
-1.419034e-09
7.449089e-10
6.741252e-10
2.176962e-09
-4.274939e-09
2.097978e-09
-1.616363e-09
1.698429e-09
-8.206584e-11
4.570325e-10
-1.621522e-09
1.164489e-09
-1.03606e-09
1.884834e-09
-8.487746e-10
-4.964963e-10
-1.1509e-09
1.647397e-09
6.043394e-10
-1.72468e-09
1.120341e-09
-1.89501e-09
1.28081e-09
6.142005e-10
2.124157e-09
-1.196727e-09
-9.274298e-10
-4.929714e-10
-8.754352e-10
1.368407e-09
-2.105001e-11
-1.441167e-09
1.462217e-09
-1.68562e-09
-1.28215e-09
2.967771e-09
5.42959e-10
-1.490539e-09
1.172361e-09
7.812859e-10
-1.953647e-09
-2.479322e-09
-6.153331e-10
3.094655e-09
9.391295e-10
5.50202e-10
-6.224163e-10
-7.883254e-10
1.410742e-09
-9.26372e-10
-8.533864e-10
1.779758e-09
1.08998e-09
7.397565e-10
-1.829736e-09
-1.076586e-09
-4.080288e-10
-1.356219e-09
1.764248e-09
-1.165918e-09
1.795747e-09
-6.298286e-10
-1.576647e-09
7.141867e-10
-2.998881e-10
2.280962e-09
-1.981073e-09
1.650271e-09
-9.333856e-10
-7.168851e-10
2.348734e-09
-4.870939e-10
-1.86164e-09
1.288253e-10
-1.525558e-09
1.396733e-09
1.060798e-09
-2.026902e-09
9.661045e-10
1.003245e-09
5.707249e-10
-1.57397e-09
4.549181e-10
-2.049171e-09
1.594253e-09
-1.533188e-09
1.765147e-09
-2.319592e-10
1.566251e-09
-3.160732e-10
-1.250177e-09
1.351645e-09
-1.162307e-09
-1.893379e-10
1.218837e-09
1.309265e-10
-1.349764e-09
-1.192011e-09
-4.473718e-10
1.639383e-09
-1.041984e-09
-5.295848e-10
1.571569e-09
-1.610337e-09
-7.06903e-10
6.617738e-10
-2.061461e-09
1.399687e-09
2.012286e-10
-1.762844e-09
1.561616e-09
-1.530844e-09
5.472459e-10
9.835979e-10
8.256698e-10
-1.653635e-09
2.218872e-09
-2.106978e-09
-1.118937e-10
-2.477941e-10
-1.367522e-09
1.615316e-09
1.879535e-09
-1.557182e-09
-3.223524e-10
-3.276674e-10
-1.491807e-09
1.819475e-09
-2.819236e-10
-3.117375e-09
3.399299e-09
2.048857e-09
-1.262493e-09
-1.342887e-09
3.947315e-09
-2.604428e-09
-4.313668e-09
1.037333e-09
3.276335e-09
-1.733557e-09
1.284379e-09
4.491777e-10
-1.49512e-09
1.204805e-09
2.903144e-10
1.014445e-09
-1.506658e-09
1.573029e-09
-1.706995e-10
7.487589e-10
1.014476e-09
-1.763235e-09
-1.651266e-09
1.299166e-09
1.060169e-09
-2.295031e-09
1.277505e-09
-7.565578e-10
-5.209469e-10
7.469426e-10
-1.125809e-09
3.788669e-10
-2.188349e-09
1.385046e-09
8.033028e-10
-3.22997e-10
1.131401e-09
-8.084039e-10
-2.118503e-09
4.924877e-10
-1.034902e-10
1.537749e-09
-1.434259e-09
6.497748e-09
-4.580994e-09
-5.219772e-09
-7.51115e-10
5.970887e-09
1.070189e-09
-8.440696e-10
-2.261195e-10
-4.285033e-11
1.156528e-09
-1.846626e-09
2.20164e-09
-3.550139e-10
9.269909e-10
6.382975e-10
-1.565288e-09
-3.00055e-09
1.772713e-09
1.227837e-09
3.581221e-10
-1.884024e-09
1.525902e-09
6.865959e-10
9.172629e-10
-1.603859e-09
-1.625994e-09
8.561496e-11
1.540379e-09
-1.712855e-10
-1.379576e-09
1.550861e-09
2.876936e-11
-1.740014e-09
1.711245e-09
1.774322e-09
-1.317289e-09
5.779402e-11
-1.557339e-09
1.499545e-09
9.360556e-10
-2.238255e-09
1.302199e-09
4.878499e-10
-1.568927e-09
1.081077e-09
-8.687738e-10
1.951657e-09
-1.082883e-09
-1.994609e-09
1.085357e-10
1.886073e-09
1.973406e-09
1.855426e-10
1.260192e-09
1.137092e-10
-1.373902e-09
1.359732e-09
-6.12848e-10
-7.468842e-10
-8.309453e-10
-4.699415e-10
1.300887e-09
1.243127e-09
-1.975618e-09
7.324909e-10
-2.988598e-11
2.81255e-09
-2.782664e-09
1.980227e-09
-4.874579e-10
-1.492769e-09
1.186676e-09
-2.067743e-09
8.810669e-10
1.610966e-09
4.242055e-10
-2.035171e-09
2.048834e-09
-1.257123e-09
-7.917103e-10
1.286475e-09
3.028323e-10
-1.589308e-09
-5.998703e-10
1.82502e-09
-1.22515e-09
-1.441817e-09
9.530694e-10
4.887471e-10
-8.190449e-10
2.001409e-09
2.081885e-09
-1.037467e-09
-1.66008e-09
1.075703e-09
5.843772e-10
-7.844543e-11
-1.235573e-09
1.314018e-09
-1.420632e-09
1.304342e-09
1.162909e-10
7.318425e-10
-2.131799e-09
1.399957e-09
-2.046594e-11
1.699236e-09
-1.67877e-09
1.289016e-09
-1.165371e-09
-1.236451e-10
2.199285e-10
2.033408e-09
1.883103e-09
-1.45151e-09
-4.315936e-10
-2.878738e-09
4.637745e-09
-1.759007e-09
-5.45899e-10
-1.551239e-09
2.097138e-09
2.3411e-09
-1.112005e-09
-1.229094e-09
9.90088e-10
-1.690121e-09
7.000326e-10
1.820421e-09
-9.471391e-10
-8.73282e-10
-1.925185e-09
2.1876e-09
-2.624149e-10
-9.16911e-10
1.541455e-09
5.49956e-10
-2.091411e-09
1.142199e-09
7.314432e-10
-1.873642e-09
-1.478488e-09
1.562483e-09
-8.399526e-11
7.401905e-10
-1.062282e-09
3.220911e-10
-1.892418e-09
3.476114e-10
1.544807e-09
8.349733e-10
-1.972429e-09
1.137456e-09
4.233411e-09
-1.841936e-09
-2.391475e-09
-1.677477e-09
1.942734e-09
-2.652573e-10
2.05273e-09
-1.668956e-09
-3.837747e-10
-2.51237e-11
1.353596e-09
2.106456e-09
-1.675727e-09
1.835356e-09
-3.951972e-10
-1.440158e-09
1.98595e-09
-1.387636e-09
-5.983134e-10
8.892715e-11
1.635208e-09
-1.724135e-09
3.818651e-10
1.470165e-09
-1.85203e-09
1.443102e-09
-1.010978e-09
-4.321242e-10
-2.430337e-09
-2.355633e-09
-3.747858e-10
1.402289e-09
-1.027503e-09
-1.916423e-10
-1.855226e-09
2.046869e-09
-2.232657e-09
2.093121e-10
4.124402e-10
-1.913227e-09
1.500786e-09
-1.028864e-09
-5.394461e-10
1.56831e-09
-1.210367e-09
1.364942e-09
-1.545746e-10
1.827278e-09
-1.548552e-09
-2.787262e-10
1.422961e-09
-1.834698e-09
4.117366e-10
1.457636e-09
-1.0438e-09
-4.13836e-10
-1.673718e-09
1.578361e-09
9.535684e-11
8.330482e-10
-2.379787e-09
1.546739e-09
1.68983e-09
-1.686305e-09
-3.52416e-12
-9.296418e-10
1.527757e-09
-5.981153e-10
-1.523945e-09
2.343771e-10
1.628955e-09
-4.895607e-10
-1.139394e-09
8.270134e-11
1.294193e-09
-1.376895e-09
-2.669439e-09
1.144034e-09
1.525405e-09
-2.192683e-10
1.570444e-09
-1.351175e-09
-6.06576e-10
-1.218742e-09
2.771951e-09
-1.55321e-09
-2.684142e-10
-1.132837e-09
1.401251e-09
1.999335e-09
-6.155703e-10
-1.383765e-09
1.208691e-09
-9.182147e-10
-2.904764e-10
-1.817434e-09
1.280456e-09
5.369782e-10
2.806231e-10
-2.424479e-09
2.143856e-09
-4.008547e-09
2.320276e-09
1.688271e-09
-4.832866e-09
1.524066e-09
3.3088e-09
2.860276e-09
-3.719112e-09
1.242113e-09
-2.067779e-09
8.256658e-10
-5.302885e-10
1.772401e-09
1.89613e-09
-9.178391e-10
-9.782911e-10
-2.186527e-09
1.318683e-09
1.394904e-09
-8.20142e-10
-5.747616e-10
8.492292e-10
-2.449921e-09
1.600691e-09
1.668658e-09
-1.274014e-09
-1.52374e-09
1.65654e-09
1.549246e-09
-1.051764e-10
-1.56501e-09
1.751306e-09
-1.862963e-10
-1.191703e-09
-4.421843e-10
4.139226e-10
-1.572137e-09
1.158214e-09
-1.760577e-09
1.363368e-09
3.972082e-10
2.052667e-09
-2.744811e-10
-1.778186e-09
-1.904933e-09
6.331721e-10
1.27176e-09
1.355977e-09
-6.072185e-10
1.352464e-09
3.991299e-10
-1.751594e-09
1.849127e-09
1.073235e-10
-1.956451e-09
-3.865329e-09
9.531308e-10
2.912199e-09
-1.317514e-09
-2.710068e-10
1.588521e-09
-6.453211e-09
1.732975e-09
4.720237e-09
-1.967188e-09
-2.988817e-10
2.266069e-09
3.64662e-10
-1.873514e-09
1.508851e-09
3.286308e-09
1.690024e-10
-2.386664e-09
1.665255e-09
7.214092e-10
1.214574e-09
-6.041437e-10
-6.104308e-10
-2.887226e-11
-1.850195e-09
1.879067e-09
1.451325e-09
4.447763e-10
-1.896101e-09
-1.675191e-09
1.120394e-09
5.547963e-10
1.522056e-10
-1.442396e-09
1.29019e-09
-1.97392e-09
6.188996e-10
1.35502e-09
4.410806e-10
-4.754749e-09
1.422557e-09
-1.010158e-09
-4.123992e-10
1.010152e-09
4.820839e-10
-1.492236e-09
8.723399e-10
-1.800948e-09
5.521857e-10
1.248763e-09
-4.532784e-09
6.93675e-10
3.839109e-09
1.559434e-09
2.180666e-10
-1.7775e-09
-1.185752e-10
1.734913e-09
-1.616337e-09
-7.852682e-10
1.198601e-09
7.942065e-10
1.202246e-09
-1.996452e-09
8.436211e-10
-1.609258e-09
7.656366e-10
-1.642448e-09
7.235302e-10
-1.97308e-09
1.055623e-09
9.174569e-10
-1.268503e-09
1.063386e-09
-9.217569e-10
9.457703e-10
-2.401347e-11
-1.282854e-09
2.187628e-09
-9.04774e-10
1.089151e-09
1.243496e-09
2.106909e-09
1.077092e-09
-3.184001e-09
-5.175246e-10
-1.469992e-09
1.987517e-09
-1.915465e-09
1.816703e-09
9.8762e-11
-6.549366e-10
-9.81809e-10
-8.089005e-10
3.148526e-09
-2.339625e-09
1.430259e-09
-1.637748e-10
1.273536e-09
-1.755537e-09
4.820008e-10
-8.923198e-10
1.718517e-09
-8.26197e-10
7.544843e-10
-1.949554e-09
1.19507e-09
-3.013977e-09
1.744182e-09
1.269795e-09
-2.030027e-10
-1.019325e-09
1.222328e-09
-1.002623e-10
1.206859e-09
-1.106597e-09
-4.733123e-09
9.840152e-10
-2.022446e-09
1.03843e-09
-9.190134e-10
1.752761e-09
-8.33748e-10
2.745733e-11
1.364339e-09
-1.391796e-09
8.881137e-10
6.52178e-10
-1.80132e-09
9.09705e-10
8.916149e-10
1.661221e-09
-2.847041e-10
-1.376517e-09
6.145853e-10
5.562624e-10
-1.170848e-09
1.722983e-09
-6.15664e-10
-1.107319e-09
2.179839e-09
8.286381e-10
-3.008477e-09
1.774947e-09
-3.114363e-10
9.441345e-10
-1.971919e-10
-1.178461e-09
3.635674e-10
2.48749e-10
1.714473e-09
-1.963222e-09
-9.236626e-10
-8.699952e-10
1.793658e-09
1.050078e-09
-1.533633e-09
4.835541e-10
-8.188565e-10
1.701807e-09
-8.829501e-10
6.4337e-10
-1.408437e-09
7.650666e-10
3.273938e-10
1.184886e-09
-1.51228e-09
-1.511547e-09
7.790297e-10
7.325169e-10
8.750328e-10
-1.752151e-09
8.771181e-10
1.689138e-09
-5.209715e-10
-1.168167e-09
-8.581549e-10
1.780263e-09
-9.221079e-10
-1.284939e-09
2.224068e-09
-1.155904e-09
1.406897e-09
-2.509926e-10
-3.367449e-09
8.881269e-10
-1.481494e-09
1.33026e-09
1.512338e-10
-6.975969e-10
-1.528521e-09
2.226118e-09
1.066365e-09
-1.109215e-09
7.338391e-10
-1.634456e-09
9.00617e-10
1.284183e-09
6.46516e-10
-1.930699e-09
-7.583913e-10
-1.067192e-09
1.825583e-09
1.983328e-09
-6.638486e-10
-2.302712e-09
7.627489e-10
1.539963e-09
1.860871e-09
3.193905e-10
-2.180261e-09
1.91263e-09
-3.108655e-09
1.196025e-09
-3.115154e-10
-1.366047e-09
1.677563e-09
-1.100621e-09
-7.556218e-10
1.856243e-09
-7.896296e-10
-1.092824e-09
1.882453e-09
-2.034752e-09
6.141197e-10
-1.224652e-09
1.6893e-09
1.442401e-09
-8.278156e-10
6.141385e-10
-2.445649e-09
4.04557e-10
-1.27228e-09
9.249313e-10
3.473488e-10
-2.726144e-09
3.869507e-09
-1.143363e-09
5.196164e-10
1.428139e-09
1.637923e-09
-1.654949e-09
1.702662e-11
1.326736e-09
-2.656243e-10
-1.061112e-09
9.386568e-10
9.602673e-10
-1.898924e-09
1.384395e-09
3.783828e-10
1.933116e-09
-1.199277e-09
1.282639e-09
-1.2938e-09
1.1161e-11
1.381131e-09
-1.135873e-09
-2.452578e-10
1.697505e-09
-9.476746e-10
-7.498304e-10
1.296875e-09
-1.230577e-11
-1.28457e-09
6.579295e-11
1.661997e-09
-1.72779e-09
9.318524e-10
-2.029636e-09
1.187578e-09
-8.303719e-10
1.376921e-09
-5.465489e-10
2.010377e-09
-1.322221e-09
-6.881561e-10
-1.526385e-09
1.610572e-09
-8.418693e-11
3.122961e-09
-5.909047e-09
2.786086e-09
-4.16452e-09
4.182026e-09
-1.75054e-11
1.303089e-09
-1.245295e-09
-1.043666e-09
-8.584085e-10
1.902075e-09
1.917042e-09
-1.248769e-09
-6.682736e-10
2.031548e-09
-4.052749e-10
-1.626273e-09
-7.112069e-10
-1.012972e-09
1.724179e-09
-1.561561e-09
-2.60442e-10
-6.229827e-11
-1.322552e-09
1.384851e-09
1.175527e-09
1.859141e-09
-3.034668e-09
4.838097e-10
-1.371284e-09
8.874747e-10
-7.123554e-10
-6.588361e-10
1.371191e-09
-9.871964e-10
-3.835473e-10
1.370744e-09
1.782985e-09
3.396979e-10
1.100711e-09
1.270245e-11
-1.113413e-09
1.668388e-09
-1.73459e-09
6.620174e-11
-9.849093e-10
1.193926e-09
-2.090171e-10
-1.351911e-09
4.661537e-10
-1.096314e-09
8.780558e-10
2.182578e-10
2.140664e-09
-7.837492e-10
-1.356915e-09
-1.976828e-09
1.1061e-09
8.707276e-10
-1.336301e-09
1.40942e-09
-7.311904e-11
-6.502439e-10
1.740223e-09
-9.997018e-10
1.620499e-09
-6.207975e-10
2.96976e-10
1.491844e-09
-1.78882e-09
-7.770986e-10
-7.910509e-10
1.56815e-09
-1.506717e-09
-2.441087e-10
1.750825e-09
-1.263316e-09
4.864634e-11
-1.829859e-09
4.421916e-10
1.387668e-09
-5.818698e-13
-2.229512e-09
2.230094e-09
1.659866e-09
3.889913e-10
-1.259296e-09
2.387691e-10
1.020527e-09
-3.549239e-09
2.662095e-09
8.87144e-10
-1.284416e-09
1.768226e-09
1.651073e-10
-4.030437e-09
-1.624266e-09
-3.496543e-10
8.200606e-09
-8.200606e-09
1.625004e-09
-1.456562e-09
-1.796493e-09
5.535377e-10
1.242955e-09
1.166574e-09
6.966426e-10
-1.863216e-09
-1.358517e-09
4.742588e-09
1.219733e-09
6.712489e-09
-7.932222e-09
-1.203516e-09
1.842994e-09
-6.394775e-10
6.881995e-10
-1.806909e-09
1.11871e-09
1.0591e-09
-2.805368e-10
1.030265e-09
-1.49912e-09
4.688547e-10
9.353652e-10
-1.971425e-09
2.024266e-09
-4.51542e-10
-1.572724e-09
1.296369e-09
9.239749e-10
-2.220344e-09
2.018609e-09
-3.117201e-10
9.432395e-10
1.010705e-09
3.887714e-10
1.37729e-09
-1.967769e-09
1.875547e-09
-1.846778e-09
1.88813e-09
2.346509e-10
-2.122781e-09
1.434648e-09
1.746043e-10
-1.609252e-09
-1.160099e-09
1.679716e-09
-5.163708e-10
-4.47669e-09
4.993061e-09
-2.120425e-10
-1.364614e-09
1.576656e-09
8.838074e-10
-9.840697e-10
1.617794e-09
-1.619409e-09
5.905451e-10
2.80023e-09
8.86366e-11
-2.888866e-09
1.214358e-09
-8.589822e-10
-3.553754e-10
6.002459e-10
1.029232e-09
-1.629478e-09
6.863899e-11
1.382686e-09
1.312896e-09
-1.946571e-09
6.336749e-10
-1.854506e-10
-2.540693e-09
3.120676e-10
-1.441121e-09
1.129053e-09
-1.32413e-09
1.35228e-09
-1.193406e-09
-1.127354e-09
1.123331e-09
4.023052e-12
1.855104e-09
4.547549e-10
-2.309859e-09
9.763401e-11
1.737722e-09
1.362484e-09
-1.296691e-09
4.564441e-10
-1.642786e-09
1.186342e-09
-1.030031e-11
-1.341611e-09
2.170828e-10
1.225584e-09
-1.855899e-09
3.26258e-10
-1.763533e-09
1.422826e-09
3.407079e-10
-2.036449e-09
1.87679e-10
1.84877e-09
-1.504252e-10
-1.477365e-09
1.62779e-09
1.422832e-09
5.627652e-10
-1.985597e-09
1.920252e-10
-1.218412e-09
1.026387e-09
2.349305e-09
1.748593e-09
1.399147e-10
-1.221532e-09
1.637433e-10
1.057788e-09
-1.131056e-09
-1.806277e-09
2.937333e-09
4.536449e-10
1.594112e-09
-2.047757e-09
-2.158074e-09
2.739251e-10
4.316297e-10
-2.31057e-09
1.87894e-09
-6.850106e-10
-5.036367e-11
-1.353498e-09
1.778293e-09
-2.79188e-10
-1.499105e-09
8.896704e-10
-1.620543e-09
7.30873e-10
-4.452694e-09
4.476448e-09
-2.375381e-11
-1.694378e-09
1.3746e-09
3.756514e-09
-4.266722e-09
5.102079e-10
6.407224e-09
1.895656e-09
6.317331e-10
1.257203e-09
-1.888936e-09
1.645174e-09
-2.562085e-09
1.444031e-09
-1.750125e-09
3.060937e-10
9.532666e-10
4.41637e-10
6.302578e-10
8.348238e-10
-1.465082e-09
-1.772806e-09
2.403064e-09
-1.312632e-09
1.018193e-09
2.944388e-10
5.179001e-11
1.590533e-09
-1.642323e-09
1.846217e-09
-1.869552e-09
9.774133e-10
4.342114e-10
1.498226e-10
1.781798e-09
-1.931621e-09
3.699425e-10
1.382571e-09
-1.686775e-09
3.042042e-10
1.597243e-09
-2.172206e-09
1.285624e-10
9.378025e-10
-1.812793e-09
2.011826e-09
-1.990329e-10
5.834962e-10
1.500168e-09
-2.083664e-09
-1.159989e-09
-4.53845e-10
1.613834e-09
6.331968e-10
-3.408084e-10
-7.760202e-10
1.116829e-09
-6.912417e-11
1.628558e-09
3.49055e-10
-1.802813e-09
1.453758e-09
9.727225e-10
4.498347e-10
-1.132256e-09
-3.974482e-10
1.529704e-09
-1.678938e-10
1.698336e-09
-1.530442e-09
5.097428e-10
1.270146e-09
-1.779889e-09
-8.379147e-10
-8.564637e-10
-2.47077e-10
-2.51852e-09
-2.814644e-10
1.856445e-09
5.2668e-10
-1.194082e-09
6.674017e-10
-9.01421e-11
1.719727e-09
-1.629585e-09
6.707595e-10
-1.377042e-09
7.062826e-10
-2.185988e-09
6.779184e-10
1.50807e-09
-2.933348e-10
1.909278e-09
-1.615943e-09
1.260392e-09
1.140155e-10
-1.374407e-09
1.114295e-09
8.29282e-10
-1.943577e-09
-4.690327e-10
-1.250709e-09
1.719742e-09
1.161989e-09
-1.873196e-09
-1.258288e-09
-2.871889e-10
1.545477e-09
1.061043e-09
-1.932559e-09
-1.519862e-09
1.494432e-09
2.543008e-11
-1.603562e-09
-1.364519e-10
-1.586589e-09
1.771014e-09
-1.84425e-10
7.838548e-10
-1.717789e-09
9.339338e-10
-1.938806e-09
4.385433e-10
1.500263e-09
-1.077522e-10
1.096859e-09
-9.891068e-10
-7.695082e-10
8.313556e-09
-7.544047e-09
-1.104558e-09
1.353307e-09
-2.051425e-09
8.594464e-10
1.191979e-09
1.355441e-09
4.464279e-09
-4.000673e-10
-4.064212e-09
1.441325e-09
-2.002466e-09
3.04604e-09
-4.404557e-09
7.528521e-10
6.031253e-10
1.551785e-09
-1.95799e-09
6.77671e-10
1.280319e-09
8.606034e-09
-8.606034e-09
1.193918e-09
-1.243974e-09
5.005641e-11
-2.812414e-11
-2.188923e-09
-2.187552e-10
-1.684316e-09
1.903071e-09
-1.482882e-09
1.456812e-09
2.60695e-11
2.163805e-10
1.282513e-09
-1.498893e-09
1.213456e-09
2.094218e-10
-1.422878e-09
-5.189286e-10
2.156961e-09
-1.638032e-09
-2.468796e-10
-1.21013e-09
1.45701e-09
-3.391952e-10
-1.461753e-09
1.939875e-09
-5.25621e-10
-1.323134e-09
1.166754e-09
1.563802e-10
-7.017601e-10
1.922986e-09
-1.221226e-09
-4.880408e-10
2.019015e-09
-1.45356e-10
-1.72297e-09
1.868326e-09
-5.765923e-10
-1.340279e-09
1.916871e-09
3.824139e-10
1.41092e-09
-1.793334e-09
5.351269e-10
1.119247e-09
-1.955076e-09
6.18775e-10
-1.305112e-09
-6.026099e-10
1.907722e-09
-1.784673e-09
3.906828e-10
1.39399e-09
-2.074554e-09
1.142959e-10
1.960258e-09
3.42116e-10
-1.956155e-09
1.614039e-09
-1.759194e-09
1.204269e-09
-1.836814e-09
6.325456e-10
-1.850804e-09
1.557469e-09
1.290485e-09
-2.757779e-09
1.467294e-09
-4.174414e-09
2.078526e-09
2.095889e-09
-1.975658e-09
-6.937814e-10
8.725838e-10
-1.478374e-09
6.057903e-10
1.800279e-09
-9.821162e-10
-8.18163e-10
-1.259549e-09
5.01956e-10
1.721346e-09
-2.064954e-09
3.436085e-10
-1.207825e-09
-8.06198e-11
6.80664e-09
-4.175881e-09
-2.630759e-09
-1.289246e-09
4.261315e-10
8.631147e-10
8.071889e-10
-1.574633e-09
-1.138393e-09
-3.810329e-10
1.519425e-09
1.12567e-09
-1.356385e-09
-8.06936e-10
-4.586782e-10
1.265614e-09
2.690457e-09
4.923494e-09
-9.456313e-10
1.817722e-09
-8.72091e-10
1.823317e-09
5.67437e-11
-1.88006e-09
8.024829e-10
-2.105646e-09
-2.72722e-09
-9.006024e-10
2.007524e-09
-1.53467e-09
1.590727e-09
-8.073659e-10
-7.833614e-10
2.47768e-10
1.261645e-09
-1.509413e-09
3.813022e-10
-9.950612e-10
-3.673373e-10
-1.052315e-09
-4.112735e-09
5.391248e-10
1.027126e-09
1.528369e-09
-1.351357e-09
-1.770121e-10
5.143768e-10
-1.556361e-09
1.529393e-09
-5.385616e-10
9.093157e-10
3.185203e-10
-1.227836e-09