/*--------------------------------*- C++ -*----------------------------------*\
| =========                 |                                                 |
| \\      /  F ield         | OpenFOAM: The Open Source CFD Toolbox           |
|  \\    /   O peration     | Version:  2406                                  |
|   \\  /    A nd           | Website:  www.openfoam.com                      |
|    \\/     M anipulation  |                                                 |
\*---------------------------------------------------------------------------*/
FoamFile
{
    version     2.0;
    format      ascii;
    arch        "LSB;label=32;scalar=64";
    class       surfaceScalarField;
    location    "0.12";
    object      phi;
}
// * * * * * * * * * * * * * * * * * * * * * * * * * * * * * * * * * * * * * //

dimensions      [0 3 -1 0 0 0 0];

oriented        oriented;

internalField   nonuniform List<scalar> 
6770
(
3.944353e-11
-1.748377e-09
1.708933e-09
-1.466267e-09
3.349394e-10
1.131327e-09
-1.468433e-09
1.37636e-09
9.207301e-11
1.687776e-09
-1.017331e-09
-6.704444e-10
7.477382e-09
-6.706803e-09
-7.70579e-10
6.188472e-10
8.581271e-10
-1.476974e-09
-1.124718e-09
1.642112e-09
-5.17394e-10
-1.270097e-09
1.229921e-09
4.017647e-11
-8.811938e-10
-8.286744e-10
1.709868e-09
-1.179091e-09
1.228503e-09
-4.941213e-11
2.654469e-10
-1.299239e-09
1.033792e-09
7.247834e-10
-1.666712e-09
9.419287e-10
1.378296e-09
-1.402756e-09
2.446068e-11
1.113498e-09
-1.643679e-09
5.301813e-10
-1.816851e-10
1.751368e-09
1.826076e-09
-4.894728e-09
3.068652e-09
4.45966e-10
1.372262e-09
-1.818228e-09
-2.32417e-09
5.805186e-10
1.743652e-09
-1.32546e-09
9.851858e-10
3.402743e-10
-6.32883e-10
-1.174055e-09
1.806938e-09
-6.98626e-10
-1.134422e-09
1.833048e-09
5.426425e-10
-1.508821e-09
9.661783e-10
8.684062e-10
-1.806838e-09
9.384319e-10
1.515762e-09
-1.114821e-09
-4.009413e-10
-1.198818e-09
8.966117e-10
3.022059e-10
-1.301023e-09
-3.442445e-10
1.645268e-09
1.211406e-09
4.1448e-10
-1.625886e-09
7.687436e-10
9.702558e-10
-1.738999e-09
-1.595149e-09
8.908678e-10
1.115611e-10
-1.02599e-09
9.144289e-10
3.57747e-10
-1.398695e-09
1.040948e-09
1.887589e-09
-1.548569e-09
-3.390198e-10
1.486732e-09
-2.658447e-10
-1.220887e-09
-1.800453e-10
1.707551e-09
-1.527506e-09
-2.067014e-09
2.006554e-09
6.046024e-11
-6.54221e-09
5.010726e-09
1.531485e-09
8.956928e-10
-1.716823e-09
8.211304e-10
-2.044203e-09
1.411802e-09
6.324017e-10
-1.01038e-09
2.16969e-09
-1.159311e-09
3.083004e-09
-2.680127e-09
-4.028767e-10
1.60095e-09
-1.516443e-09
-8.4507e-11
1.738428e-09
-7.560938e-10
-9.823345e-10
-1.992955e-09
1.638722e-09
3.542326e-10
-1.592136e-09
1.004307e-09
5.878293e-10
-1.271934e-09
8.648506e-10
4.070839e-10
-1.994665e-09
1.639542e-09
3.551225e-10
-1.218712e-09
8.258993e-10
3.928123e-10
-7.887833e-10
-8.275856e-10
1.616369e-09
-5.604951e-10
-1.434532e-09
1.995027e-09
-1.596858e-09
-5.183401e-10
2.115199e-09
5.660755e-10
9.441967e-10
-1.510272e-09
-1.181443e-09
3.23684e-10
8.577589e-10
-5.871811e-09
2.799908e-10
5.59182e-09
-1.179797e-09
-4.619962e-10
1.641793e-09
1.599986e-09
7.843875e-10
-2.384374e-09
-1.429656e-09
1.002179e-09
4.274764e-10
1.499529e-09
-2.967043e-10
-1.202825e-09
-1.601157e-09
1.162144e-09
4.390123e-10
3.893297e-10
1.431337e-09
-1.820667e-09
-5.244652e-10
-2.270655e-09
2.79512e-09
-1.502321e-09
1.443561e-09
5.875911e-11
-1.180509e-09
3.48496e-10
8.320126e-10
4.061713e-10
1.292955e-09
-1.699126e-09
-3.232859e-10
-1.444045e-09
1.767331e-09
-1.666722e-09
1.863401e-09
-1.665693e-09
1.032605e-09
6.330882e-10
3.122402e-11
-1.750817e-09
1.719593e-09
1.042215e-09
-1.748672e-09
7.064569e-10
-1.166519e-11
-1.465614e-09
1.477279e-09
-1.486898e-09
9.466141e-10
5.402843e-10
-6.667733e-10
-1.001739e-09
1.668512e-09
2.191683e-09
-9.573415e-10
-1.234341e-09
1.147246e-09
6.407788e-10
-1.788025e-09
-9.192764e-10
-8.282924e-10
1.747569e-09
-3.97684e-10
1.913883e-09
-1.516199e-09
5.624916e-10
1.802868e-09
-2.36536e-09
-1.0581e-09
1.571901e-09
-5.138006e-10
-1.699806e-09
3.760842e-10
1.323722e-09
1.863016e-09
-4.67692e-10
-1.395324e-09
-2.500301e-10
3.309496e-09
-3.059466e-09
-4.626281e-09
8.018977e-09
-3.392696e-09
-1.285718e-09
-3.113949e-09
4.399667e-09
-2.017931e-09
1.452088e-09
5.658434e-10
-5.780231e-10
1.797189e-09
-1.219165e-09
-1.710292e-09
1.530247e-09
-1.07754e-09
-7.180675e-10
1.795607e-09
7.108696e-10
1.29007e-09
-2.00094e-09
-1.414985e-09
5.816434e-10
8.333419e-10
-1.607719e-10
-1.213632e-09
1.374404e-09
-1.71948e-09
3.811042e-10
1.338376e-09
-9.386657e-10
-1.134178e-09
2.072843e-09
7.24492e-10
-1.626397e-09
9.01905e-10
-1.211558e-09
-4.459258e-10
1.657484e-09
1.516517e-09
-3.157139e-10
-1.200803e-09
1.012376e-09
5.335086e-10
-1.545885e-09
1.186031e-09
-3.832426e-10
-8.027886e-10
8.080371e-10
-1.667474e-09
8.594371e-10
-1.287505e-09
1.174751e-09
1.127537e-10
7.094543e-10
-1.561411e-09
9.957179e-10
8.19499e-10
-1.815217e-09
-6.455264e-10
1.522541e-09
-8.770151e-10
-9.815418e-10
1.735999e-09
-7.544575e-10
1.64954e-09
-3.963272e-10
-1.253213e-09
-1.772362e-09
1.164995e-09
6.073669e-10
1.552784e-09
-1.226645e-09
-3.261391e-10
1.235921e-09
-1.017129e-09
-2.187917e-10
-1.343128e-09
1.222218e-09
1.209102e-10
2.086653e-09
-1.535659e-09
-5.50994e-10
9.759361e-10
-1.409303e-09
4.333674e-10
6.17618e-09
-9.668204e-10
-5.20936e-09
1.763978e-09
-4.560811e-10
-1.307896e-09
1.585513e-09
-5.245361e-10
-1.060977e-09
-8.792221e-10
1.455194e-09
-5.759716e-10
1.697712e-09
-1.263777e-09
-4.339348e-10
1.032095e-09
8.8105e-10
-1.913145e-09
1.043761e-09
6.946677e-10
-1.323313e-10
-4.403698e-09
4.536029e-09
-2.058468e-11
-1.379321e-09
1.399906e-09
-1.549133e-09
5.513946e-10
9.977383e-10
-1.30858e-09
1.083091e-09
2.254882e-10
9.136737e-10
1.691011e-09
-2.604685e-09
-7.062452e-10
1.733241e-09
-1.026996e-09
-1.548489e-09
1.682131e-09
-1.336418e-10
1.823211e-09
-1.24638e-09
-5.768314e-10
8.246091e-10
1.050945e-09
-1.875554e-09
-3.738947e-10
1.702752e-09
-1.328857e-09
5.788605e-10
-1.917723e-09
1.338863e-09
-1.267924e-09
1.63374e-09
-3.658161e-10
1.950688e-09
-9.383114e-10
-1.938203e-09
1.457548e-09
4.806549e-10
1.006781e-09
8.705696e-10
-1.877351e-09
-7.91121e-10
-5.196163e-10
1.310737e-09
1.535089e-09
-2.991684e-10
-5.497889e-10
-8.228505e-10
1.372639e-09
1.564354e-09
-4.615697e-10
-1.102785e-09
1.971002e-09
-9.3062e-10
-1.040382e-09
1.226712e-09
5.150002e-10
-1.741713e-09
-1.660834e-09
1.421659e-09
2.391753e-10
4.412434e-09
8.96118e-10
-5.308552e-09
1.530842e-09
-1.444052e-09
-8.679069e-11
-1.573485e-09
9.944847e-10
5.79e-10
1.2138e-09
-4.913459e-09
3.699658e-09
-1.553462e-09
3.147068e-10
1.238756e-09
1.104256e-09
8.062178e-10
9.041086e-10
7.150371e-10
-1.619146e-09
1.701897e-09
-1.434252e-09
-2.67645e-10
7.046291e-10
-1.370068e-09
6.654386e-10
5.676738e-10
-1.372372e-09
8.046984e-10
1.83592e-09
-1.494269e-09
-3.416508e-10
-7.63635e-09
1.764539e-09
2.165428e-10
1.078042e-09
-1.294585e-09
-1.159133e-09
7.71613e-10
3.875198e-10
6.025206e-10
9.731092e-10
-1.57563e-09
7.23611e-10
8.900784e-10
-1.613689e-09
1.545545e-09
-9.705596e-10
-5.749849e-10
-7.868883e-11
2.643293e-09
-2.564604e-09
-1.70106e-09
9.067961e-10
7.942644e-10
-8.524835e-10
1.851588e-09
-9.991046e-10
1.517845e-09
4.085266e-10
-1.926372e-09
-1.577348e-09
-2.859669e-10
1.863315e-09
1.134914e-09
-1.790886e-09
6.559721e-10
-1.840116e-09
2.402607e-09
1.206528e-09
-1.038204e-09
-1.683237e-10
4.474413e-10
-1.533245e-09
1.085803e-09
-2.489714e-10
1.534789e-09
-1.285818e-09
-1.694055e-09
2.643992e-10
-1.549819e-09
2.619339e-10
1.287885e-09
3.644342e-10
-1.743236e-09
1.378802e-09
-1.734441e-09
7.217282e-10
1.012712e-09
-6.304183e-10
2.426415e-09
-1.795997e-09
-1.937904e-09
1.239278e-09
1.42021e-09
-3.664877e-11
-1.383561e-09
7.666437e-10
7.991022e-10
-1.565746e-09
2.751834e-10
-1.625288e-09
1.350105e-09
-8.568612e-10
1.829948e-09
-9.730865e-10
-5.042634e-10
2.022109e-09
1.206013e-09
-1.583936e-09
3.779229e-10
8.928279e-11
-1.637772e-09
-2.679451e-11
1.316564e-09
-1.28977e-09
-1.480691e-09
6.840683e-10
7.96623e-10
1.364908e-09
-1.589209e-09
2.243012e-10
1.899106e-10
-1.657235e-09
1.467324e-09
-9.65729e-10
1.670358e-09
2.721443e-09
-1.35858e-09
6.711459e-10
6.874345e-10
1.99661e-10
8.319359e-10
-1.031597e-09
1.14172e-09
-1.488887e-09
3.471674e-10
4.058198e-10
1.270292e-09
-1.676111e-09
-1.240618e-09
1.907247e-09
-6.666294e-10
1.03463e-09
-1.170913e-09
1.362822e-10
1.497606e-09
-4.879614e-10
-1.009645e-09
1.176313e-09
4.781257e-10
-1.654439e-09
-1.669348e-09
1.153341e-09
5.160072e-10
3.496946e-10
-1.327991e-09
9.782965e-10
-1.638548e-09
1.040159e-09
5.98389e-10
-2.718283e-10
-1.208863e-09
-1.81651e-09
1.315327e-09
5.011828e-10
-7.718357e-10
1.767554e-09
-1.723782e-09
1.093364e-09
1.071042e-09
7.143408e-10
-1.785383e-09
6.476699e-10
-2.036984e-09
1.389314e-09
-8.237661e-10
-1.058781e-09
1.882547e-09
-1.630032e-09
5.158888e-10
1.114143e-09
1.301074e-10
-1.168692e-09
1.038585e-09
9.932824e-10
1.978699e-10
-1.191152e-09
-1.920841e-10
1.555322e-09
-1.363237e-09
1.558754e-09
-1.360776e-09
-1.979783e-10
1.968016e-09
-8.87316e-10
-1.080701e-09
3.003573e-10
1.371298e-09
-1.671655e-09
8.789764e-10
8.934198e-10
-1.772396e-09
-1.114951e-09
-5.56427e-10
1.671378e-09
5.399317e-10
-1.297306e-09
7.573743e-10
1.76795e-09
-7.285398e-10
-1.03941e-09
9.718654e-10
4.961071e-10
-1.467973e-09
1.7374e-10
9.801772e-10
-1.153917e-09
1.376027e-09
5.919896e-10
-4.727437e-10
-1.228574e-09
1.701318e-09
-1.292824e-09
-2.58451e-10
1.551275e-09
1.538875e-09
-5.239976e-10
-1.014877e-09
8.511576e-10
-1.910478e-09
1.05932e-09
-1.396523e-09
3.418375e-10
1.054685e-09
1.132766e-09
-1.607833e-09
4.75067e-10
2.097253e-11
-1.86272e-09
1.841748e-09
3.126093e-09
-1.526107e-09
1.412161e-09
-1.189527e-09
-2.226339e-10
-1.596806e-09
1.005539e-09
5.912664e-10
-9.439934e-10
1.127848e-09
-1.838546e-10
1.35724e-10
-1.371132e-09
1.235408e-09
9.316919e-10
-1.758081e-09
8.263889e-10
-1.56538e-09
-5.300997e-10
2.095479e-09
-1.321868e-09
-1.443991e-10
-1.744162e-09
9.688321e-10
7.753297e-10
8.319627e-10
9.788893e-10
-1.810852e-09
1.430238e-09
-2.159933e-09
7.29695e-10
-1.062569e-09
1.607114e-09
-5.445451e-10
1.766417e-09
-5.397043e-10
-1.789026e-09
3.029099e-10
1.486116e-09
-1.092339e-09
1.914469e-09
-8.221293e-10
-8.08154e-10
-1.067853e-09
1.876007e-09
-1.248763e-09
2.225193e-09
-9.764295e-10
-1.796451e-09
1.997301e-09
-1.228558e-09
-1.233796e-09
1.724551e-09
-4.907556e-10
-1.228484e-09
3.733583e-10
8.55126e-10
1.817335e-09
-1.32853e-09
-4.888047e-10
2.005119e-09
-1.526807e-09
-4.783121e-10
1.744763e-09
-6.134179e-10
-1.131345e-09
-1.225081e-09
-4.27426e-10
1.652507e-09
1.14881e-09
3.900651e-10
1.529281e-09
2.386694e-10
1.580253e-09
-9.276367e-10
-6.52616e-10
8.578418e-10
-1.853024e-09
9.951823e-10
1.48115e-09
6.235341e-11
-1.543504e-09
-8.890503e-10
-5.674423e-10
1.456493e-09
1.423326e-09
-1.045981e-09
-3.77345e-10
-1.231013e-09
-4.801407e-10
1.711154e-09
1.941251e-10
-1.221558e-09
1.027433e-09
-1.671895e-09
1.71704e-09
-4.514544e-11
-1.097665e-09
-6.987854e-10
-8.854567e-10
-3.911776e-10
1.276634e-09
-1.944311e-09
8.998774e-10
1.044434e-09
1.876e-09
-1.439438e-09
-4.365621e-10
1.028606e-09
9.555584e-10
-1.984164e-09
-1.651693e-09
3.651577e-10
1.286535e-09
1.723062e-09
-2.654507e-10
-1.457611e-09
6.851321e-10
1.267995e-09
-1.416724e-09
1.487284e-10
-1.443724e-09
-3.240442e-10
1.767768e-09
1.207963e-09
9.135646e-10
-2.121528e-09
-2.108143e-09
9.475462e-10
1.160597e-09
-8.092826e-10
1.600058e-09
-7.907753e-10
8.216388e-10
-1.13465e-09
3.130117e-10
-1.876572e-10
-1.504158e-09
1.691815e-09
-4.750082e-09
3.464364e-09
1.860538e-09
-5.089787e-09
3.229249e-09
-1.732026e-09
1.276472e-09
4.555546e-10
-1.746128e-09
1.486217e-09
2.599115e-10
1.394441e-09
-2.49575e-11
-1.369484e-09
-1.706666e-09
1.396039e-09
3.10627e-10
-2.853859e-09
-1.333327e-10
2.987191e-09
-5.266098e-10
1.933987e-09
-1.407377e-09
1.355938e-09
-2.369193e-09
1.013254e-09
-8.25765e-12
1.39675e-09
-1.388492e-09
-1.370672e-09
-4.760348e-10
1.846706e-09
-1.482246e-09
1.801591e-09
-3.193458e-10
2.346699e-09
-1.254017e-09
-1.092683e-09
-1.613409e-09
4.472193e-10
1.16619e-09
-1.584621e-09
8.91203e-10
6.934177e-10
2.926002e-10
1.451129e-09
-1.743729e-09
-1.666641e-09
9.99868e-10
1.385785e-09
1.182782e-10
-1.504064e-09
1.565873e-09
-8.161042e-10
-7.497692e-10
-1.862753e-10
1.207383e-09
-1.021108e-09
-7.233424e-10
-1.061021e-09
1.784364e-09
-1.860736e-09
6.887895e-10
1.171946e-09
1.253193e-09
5.40451e-11
-1.307238e-09
1.101193e-09
1.219578e-09
-2.320771e-09
1.112837e-09
1.106718e-09
-1.386919e-09
2.802012e-10
2.650836e-09
-7.169414e-09
4.518578e-09
1.824986e-09
6.388957e-11
-1.888875e-09
-1.478942e-09
9.499664e-10
5.289752e-10
1.668106e-09
-8.321827e-10
-8.359232e-10
1.037521e-09
-1.176459e-09
1.389378e-10
-4.962014e-09
-2.674336e-09
-6.552518e-10
1.481341e-09
-8.260888e-10
1.734356e-09
-8.386633e-10
-1.815799e-09
-9.817434e-11
1.913973e-09
1.627822e-10
1.488165e-09
-1.650947e-09
1.067972e-09
-1.477642e-10
-9.202074e-10
-8.823254e-10
-5.262488e-10
1.408574e-09
-1.584561e-09
-1.36164e-09
2.946201e-09
-1.053329e-09
-8.421469e-10
1.895476e-09
9.879832e-10
-1.700726e-09
7.127423e-10
-2.099263e-11
-1.298975e-09
1.319968e-09
-5.086725e-10
-1.182211e-09
1.690883e-09
-6.744113e-10
1.796726e-09
-1.122314e-09
1.640525e-09
-2.650905e-09
1.597964e-09
-1.764623e-09
1.666595e-10
1.397446e-09
-2.152284e-09
7.548373e-10
7.823784e-10
2.564751e-10
-1.038854e-09
2.105943e-09
6.154999e-10
-3.535636e-10
-1.623374e-09
1.976938e-09
2.595865e-10
-1.783766e-09
1.524179e-09
-7.999872e-10
-7.815795e-10
1.581567e-09
1.605515e-09
-1.626099e-09
-2.706617e-10
1.476623e-09
-1.205961e-09
3.04825e-11
-1.499401e-09
1.468918e-09
-1.203683e-09
-4.973773e-10
-8.29338e-10
1.096159e-09
-2.668213e-10
1.547991e-09
-1.892377e-09
3.443858e-10
2.746243e-09
-2.71666e-09
-2.958268e-11
1.477743e-09
-1.127264e-09
-3.504798e-10
-1.502682e-09
1.128503e-09
3.741787e-10
1.755511e-09
-1.238036e-09
4.089097e-10
1.346601e-09
1.096791e-09
-1.547718e-09
4.509274e-10
1.033277e-09
-1.164764e-09
1.314869e-10
-6.335976e-10
8.756902e-10
8.452425e-10
-1.720933e-09
1.039882e-09
-1.169577e-09
1.296941e-10
-1.342777e-09
1.581099e-09
-2.38322e-10
1.431861e-09
-2.555479e-10
-1.859407e-09
7.915463e-10
1.067861e-09
1.938318e-09
-2.35395e-10
-1.702923e-09
-4.113647e-13
1.232478e-09
-1.232067e-09
-1.441456e-10
1.309402e-09
-1.165256e-09
-1.502367e-09
-8.957773e-11
1.591945e-09
-1.398546e-09
1.538089e-09
-1.395427e-10
-1.413428e-09
1.045129e-09
3.682987e-10
1.171569e-09
-1.038756e-09
-1.32813e-10
1.929799e-09
-1.583539e-09
-3.462603e-10
-1.389636e-09
1.860694e-10
1.203567e-09
1.840644e-09
-1.172281e-09
-6.683625e-10
-9.001149e-10
-1.969167e-09
2.693609e-10
-6.086927e-10
-1.0747e-09
1.683393e-09
-8.420374e-10
1.082948e-09
-2.409108e-10
1.63895e-09
-1.995677e-09
3.567275e-10
-1.234457e-09
2.141254e-09
1.747574e-09
-9.533095e-10
-1.233071e-09
-3.977638e-10
1.630835e-09
-3.459098e-10
-9.260246e-10
7.912113e-10
2.442214e-09
-3.233425e-09
-1.115442e-09
1.694303e-09
2.137269e-09
-1.512996e-09
-6.242727e-10
8.897251e-10
8.686341e-10
-1.758359e-09
1.791893e-09
-1.494049e-10
-1.642488e-09
-6.353957e-11
-1.347595e-09
1.411135e-09
-1.058035e-09
-5.654859e-10
1.623521e-09
1.044293e-10
1.631438e-09
-1.735867e-09
-1.474441e-09
1.836831e-09
-3.623906e-10
1.116376e-09
6.086683e-10
-1.725044e-09
-5.310974e-10
1.317497e-09
-7.863991e-10
-1.783821e-09
1.536077e-09
2.477432e-10
-1.222569e-09
1.288482e-09
-6.591212e-11
-4.753035e-10
-7.72095e-10
1.247398e-09
2.019254e-09
-1.370127e-09
-6.491274e-10
-4.950571e-10
-7.404845e-10
1.235542e-09
-3.253294e-11
1.116764e-09
-1.084231e-09
1.358607e-09
-1.439433e-09
8.082518e-11
1.449768e-09
2.145877e-10
-1.664355e-09
4.841107e-10
7.552463e-10
-1.239357e-09
-4.883149e-10
-8.510341e-10
1.339349e-09
-8.521211e-10
1.580423e-09
-7.283018e-10
1.369954e-09
-1.839231e-10
-6.284183e-10
2.06471e-09
-1.436291e-09
8.078456e-10
6.655746e-10
-1.47342e-09
1.87013e-09
-1.006279e-09
-8.638507e-10
-4.313376e-10
-1.227072e-09
1.658409e-09
-8.891515e-10
1.575976e-09
-6.868248e-10
2.399041e-09
-6.342581e-10
-1.764783e-09
1.882689e-09
-1.136216e-09
-7.464722e-10
1.435752e-09
3.193629e-10
-1.755115e-09
-3.093083e-09
-2.279351e-09
5.372434e-09
1.79678e-09
-5.133556e-09
3.336777e-09
-1.278763e-09
-5.102629e-10
1.685882e-09
1.02321e-09
-1.48321e-09
4.6e-10
1.342615e-09
-1.345806e-09
3.190249e-12
-8.268702e-10
-1.117441e-09
1.653457e-09
-7.580939e-10
-1.733449e-09
2.590085e-10
-9.535713e-10
-4.847423e-10
1.438314e-09
9.242052e-10
1.364139e-09
-2.288344e-09
8.635837e-10
4.317491e-10
-1.295333e-09
1.751405e-09
-4.784375e-10
6.878689e-10
-4.62921e-10
1.490438e-09
-1.027517e-09
4.310838e-10
-1.699008e-09
3.264142e-11
1.494894e-09
-1.527536e-09
-9.128656e-11
1.467369e-09
-1.376083e-09
-6.556548e-09
1.787046e-09
4.769503e-09
-1.213551e-09
1.442085e-09
-2.285347e-10
-1.475528e-09
1.425803e-09
4.972532e-11
1.591263e-09
-5.709386e-10
-1.020325e-09
-1.850894e-09
1.442627e-09
4.08267e-10
7.160915e-10
-1.819995e-09
1.103904e-09
-1.376509e-09
-8.695212e-10
-6.173772e-10
4.244543e-10
-8.826697e-10
4.582154e-10
1.393566e-09
-1.710197e-10
-1.222547e-09
-1.590475e-09
1.42185e-09
1.516831e-09
2.210583e-10
-1.737889e-09
-7.529292e-11
-1.540439e-09
1.262903e-09
-1.629416e-09
3.665125e-10
1.337233e-12
1.544207e-09
-1.639529e-09
-3.551362e-10
-1.797516e-09
-3.58146e-10
2.155662e-09
-1.301506e-09
-1.11922e-10
-9.954248e-10
-1.048778e-09
2.128901e-11
1.530595e-09
-1.551884e-09
1.290916e-09
-1.766219e-09
-1.638537e-09
-3.302216e-10
1.968758e-09
1.895256e-09
-9.280318e-10
-9.67224e-10
-3.464605e-10
-4.600151e-09
4.946612e-09
1.37443e-09
-1.187921e-09
-1.865092e-10
-4.91077e-10
-1.229746e-09
1.720823e-09
-1.614839e-09
1.740662e-09
-1.258233e-10
-9.215586e-10
-5.717132e-10
1.493272e-09
-1.652848e-09
1.893179e-10
1.46353e-09
1.455678e-09
-1.404021e-09
-5.165786e-11
7.129619e-10
-1.694504e-09
4.130209e-10
-1.851455e-09
1.438434e-09
1.570637e-09
1.084918e-10
-1.679129e-09
1.757993e-09
-7.586141e-11
8.672022e-10
-2.157311e-09
1.290108e-09
-1.303229e-09
1.358888e-09
-5.565876e-11
-7.81341e-10
1.660317e-09
1.182178e-09
4.673623e-10
1.493453e-09
-1.478666e-10
-1.345587e-09
-4.918784e-09
5.398922e-10
4.378891e-09
-1.113447e-09
1.646955e-09
1.669674e-10
-1.776207e-09
1.60924e-09
5.181809e-11
1.40386e-09
-1.112431e-09
-6.878004e-10
1.800231e-09
5.55506e-10
1.234488e-09
1.775932e-09
-1.304681e-09
-4.71251e-10
1.939094e-09
-9.749417e-10
-9.64152e-10
-2.112115e-09
-1.978035e-10
2.309918e-09
-1.004769e-09
-3.808006e-10
1.38557e-09
1.525291e-09
-1.666836e-10
-4.677153e-10
1.623078e-09
-1.155362e-09
8.328076e-10
9.449388e-10
-1.777746e-09
1.192247e-09
-1.759392e-09
5.671455e-10
1.126675e-09
4.346559e-10
-1.561331e-09
-1.404114e-09
8.921513e-10
5.11963e-10
1.160997e-09
1.341658e-09
3.436859e-11
-1.736464e-09
6.940964e-10
1.042368e-09
6.709627e-10
-2.084635e-09
1.413672e-09
4.481031e-10
-1.582525e-09
5.436552e-10
8.499112e-10
3.315349e-10
-1.772891e-09
7.262719e-10
-2.765535e-09
2.039263e-09
-1.44286e-09
-1.158296e-09
-4.138776e-10
1.572173e-09
-6.61903e-11
1.444486e-09
2.450867e-10
1.401438e-09
-1.646525e-09
-1.282553e-09
-5.0552e-10
1.788073e-09
-1.242345e-11
1.268452e-09
-1.256028e-09
1.29913e-09
-7.890543e-10
-5.100762e-10
1.883812e-09
-1.741158e-09
-1.426541e-10
3.364154e-09
3.483585e-10
-3.712513e-09
-1.678694e-09
-2.595083e-10
-3.149828e-09
2.511831e-09
6.379969e-10
-1.592856e-09
1.772749e-10
1.415582e-09
1.342366e-09
-1.810081e-09
-1.278355e-09
9.167347e-11
-1.574213e-09
1.482539e-09
1.49813e-09
-1.628011e-09
1.298815e-10
1.492638e-09
-3.894387e-10
-1.103199e-09
1.334311e-09
-1.438973e-09
1.046618e-10
-1.244813e-09
-4.270819e-10
3.80115e-10
-1.355758e-09
9.75643e-10
5.479619e-10
-1.702684e-09
1.154722e-09
-2.834367e-10
1.536812e-09
-1.253375e-09
-8.316328e-11
1.289177e-09
1.42091e-09
-3.883052e-10
-1.070764e-09
1.154225e-09
-8.346156e-11
-1.265283e-09
1.025794e-09
2.394883e-10
-1.500569e-09
4.922697e-10
1.0083e-09
-1.04039e-09
1.170448e-09
-1.300579e-10
-1.067303e-09
-1.664926e-10
1.516129e-09
-3.744095e-10
-1.153377e-09
1.631503e-09
1.496331e-09
-3.215761e-10
-1.174755e-09
-1.000349e-09
-6.540897e-10
-2.063998e-10
1.148257e-09
-9.418577e-10
-1.03983e-09
-7.821625e-10
1.821992e-09
-1.174105e-09
1.043972e-09
1.301332e-10
-1.292346e-10
1.169117e-09
-1.506414e-09
8.475936e-10
6.588199e-10
1.536447e-09
-1.391196e-09
-1.452507e-10
4.048168e-10
1.041467e-09
-1.446283e-09
5.034872e-10
-1.91385e-09
1.410363e-09
-4.233005e-09
6.093543e-09
-8.162048e-10
1.906927e-09
-1.090722e-09
-3.091287e-09
1.251171e-09
-2.208584e-09
1.081657e-09
1.126927e-09
-8.581564e-10
3.463029e-09
-2.604872e-09
4.303165e-10
8.938352e-10
-1.324152e-09
1.75248e-09
-8.249095e-10
1.766444e-09
-9.415342e-10
1.838268e-09
-1.290306e-09
-1.304978e-09
-3.216475e-10
1.626626e-09
-1.570097e-09
1.96932e-09
-3.992225e-10
5.172912e-09
-3.574134e-10
-4.815498e-09
-1.843098e-09
2.729989e-11
2.039762e-09
-1.059459e-09
-2.024771e-09
1.26743e-09
-7.694906e-10
-8.393788e-10
1.608869e-09
1.996683e-09
-1.868556e-09
-1.281268e-10
1.51541e-09
-5.461872e-10
-9.692232e-10
1.788586e-10
1.215583e-09
1.457951e-09
1.711887e-10
-1.62914e-09
1.072141e-09
4.02877e-10
-1.475019e-09
-8.645158e-10
-9.193048e-10
3.949076e-10
-1.590261e-09
1.195354e-09
-5.896031e-10
1.734864e-09
-1.145261e-09
-2.004248e-09
-2.842076e-09
4.846324e-09
-1.660157e-09
8.019291e-10
8.582275e-10
-1.585326e-09
8.03985e-10
-6.592897e-10
1.740071e-09
-1.080781e-09
-6.033067e-10
3.677597e-09
-3.074291e-09
-1.540438e-09
-5.15355e-10
2.055793e-09
1.990067e-09
2.222433e-09
-7.921945e-10
-8.234474e-10
1.648057e-09
-7.343629e-10
1.865523e-09
-1.13116e-09
9.423966e-10
4.002187e-10
1.282679e-09
3.85845e-10
-1.668524e-09
1.346871e-09
3.686786e-10
-1.715549e-09
-1.345408e-09
1.648317e-09
1.551642e-09
5.444431e-10
-2.096085e-09
8.374619e-10
-1.822729e-09
9.852666e-10
-1.837286e-09
1.268438e-09
5.688479e-10
-1.1735e-09
-1.311534e-09
2.485034e-09
1.778373e-09
-2.34768e-09
5.693063e-10
4.359303e-10
-1.766686e-09
1.330756e-09
2.197239e-09
-8.918407e-10
-1.305399e-09
-5.276129e-10
-1.378451e-09
1.906064e-09
-4.580474e-10
-9.44709e-10
-8.657395e-10
-7.519415e-10
-1.003707e-09
-1.070193e-10
1.110727e-09
-9.65398e-10
1.401328e-09
-1.161661e-09
-7.986956e-10
1.960357e-09
1.253017e-09
-4.605343e-10
-1.147554e-09
1.608089e-09
1.691052e-09
-2.553001e-10
-1.143872e-10
-8.903819e-10
-3.778727e-10
-1.192225e-09
2.013678e-10
-1.759044e-09
1.557676e-09
-1.040811e-09
-7.79141e-10
1.819952e-09
8.017621e-09
-8.017621e-09
-2.409922e-10
1.402654e-09
-1.161662e-09
-6.495848e-10
1.382182e-09
-7.325975e-10
2.794455e-10
-1.766835e-09
1.48739e-09
-1.035966e-09
-8.817572e-10
1.610384e-09
-5.798971e-10
-1.030487e-09
-1.175783e-09
-2.670436e-10
1.442827e-09
4.814246e-10
1.705082e-09
-1.292699e-09
-4.12383e-10
-1.033149e-09
1.601734e-09
-1.625454e-09
5.119865e-10
1.113468e-09
1.145194e-09
7.337662e-10
-1.87896e-09
-1.03753e-09
1.551071e-09
-5.135407e-10
-1.096379e-09
2.212755e-09
1.865258e-09
-1.456731e-09
-1.468902e-09
1.442108e-09
-4.444075e-10
-7.328251e-10
1.177233e-09
-6.77823e-09
1.591838e-09
5.186393e-09
9.480712e-10
6.412176e-10
-1.589289e-09
7.870388e-10
-1.255155e-09
4.681161e-10
-1.785562e-09
8.767321e-10
9.088299e-10
8.236887e-10
-1.376364e-09
5.526749e-10
-1.470785e-09
5.035645e-10
9.672201e-10
8.476427e-12
1.541412e-09
-1.549888e-09
-1.027776e-09
2.184418e-09
-1.156643e-09
4.720109e-10
9.381724e-10
8.512201e-11
-1.023294e-09
-4.694042e-10
1.3553e-09
-8.858959e-10
-9.435062e-10
1.367961e-09
-9.579649e-10
2.026027e-09
-1.068062e-09
8.024993e-09
-6.353047e-09
-1.671946e-09
-1.109766e-09
-1.050168e-09
-4.831338e-10
-1.620343e-09
2.103477e-09
-7.516706e-10
-8.747264e-10
-1.375302e-09
1.036447e-10
1.271657e-09
1.790311e-09
-1.161639e-09
-6.28672e-10
1.33397e-09
-1.423446e-09
8.947621e-11
1.512634e-09
-1.198007e-09
1.657429e-09
-4.594216e-10
8.071123e-10
-1.54173e-09
3.234094e-10
1.218321e-09
-1.750631e-09
8.753333e-10
8.752979e-10
1.378292e-09
-5.026029e-09
4.89378e-09
1.322487e-10
-1.45922e-09
1.80608e-09
-1.513526e-09
-2.925542e-10
6.608123e-10
1.06698e-09
-1.727792e-09
1.407408e-09
-1.498461e-09
9.105277e-11
-1.644279e-09
8.024255e-10
8.418534e-10
1.493773e-09
-3.449308e-10
-1.148842e-09
-1.569498e-10
-1.124221e-09
1.281171e-09
-3.053205e-09
6.911797e-09
-3.858592e-09
2.239416e-09
2.152309e-09
-4.391725e-09
-2.046862e-09
8.733622e-10
1.030223e-09
9.182505e-10
-1.948473e-09
-1.492864e-09
1.222202e-09
-1.876421e-09
5.948508e-10
1.281571e-09
1.79422e-09
-8.406029e-10
-9.536176e-10
-1.042922e-09
1.076549e-09
-3.362758e-11
-1.721854e-09
2.658989e-10
-1.093219e-09
1.37867e-09
-2.854505e-10
1.815853e-09
-8.225702e-10
1.468005e-09
2.230477e-10
-1.645069e-09
-4.052762e-10
2.050346e-09
5.424579e-10
-1.561014e-09
1.018556e-09
9.017404e-10
1.067481e-09
-1.969222e-09
-1.682055e-09
4.338964e-11
1.638665e-09
7.495041e-10
-2.310208e-09
1.560704e-09
8.427791e-10
6.548271e-10
1.279603e-09
-2.870519e-10
-9.92551e-10
1.982066e-09
-1.759862e-10
-3.326935e-10
1.375062e-09
-1.042368e-09
-1.688256e-09
1.155441e-09
-1.829852e-09
4.050608e-10
1.352932e-09
-1.814148e-09
1.405737e-09
4.084107e-10
-1.877038e-09
2.319689e-10
1.428691e-09
2.704918e-10
-1.699183e-09
1.487708e-09
3.509804e-10
-1.838689e-09
-2.026188e-09
1.620912e-09
4.197042e-10
-2.012758e-09
1.593054e-09
-8.242313e-10
-6.465533e-10
-1.203846e-09
1.043074e-09
-1.11136e-09
-3.736018e-10
1.484962e-09
-1.398334e-09
1.803395e-09
-1.75827e-09
7.233232e-10
1.034947e-09
-9.713914e-10
1.439323e-09
-4.679318e-10
-1.131653e-09
-4.22951e-10
1.554604e-09
-1.237338e-10
1.582811e-09
-1.459077e-09
-1.300106e-09
1.277241e-09
4.604973e-10
-1.737738e-09
-1.586077e-09
1.597909e-09
-1.183149e-11
-4.988575e-10
2.61166e-09
-2.112802e-09
1.835839e-09
-6.940629e-10
-1.141776e-09
3.86075e-09
-4.11078e-09
-1.72968e-09
1.650231e-09
7.944889e-11
1.995254e-09
-1.051366e-09
-9.438874e-10
-1.187309e-09
9.952247e-10
2.053462e-10
1.349975e-09
-4.074646e-09
3.47134e-09
-1.694025e-09
1.328959e-09
3.650653e-10
1.438762e-09
-4.963654e-10
-1.061398e-09
-1.183433e-09
2.244832e-09
-1.162483e-09
1.850181e-09
-6.876988e-10
-2.590392e-09
4.958947e-10
2.094497e-09
1.305672e-09
-2.000887e-09
6.952153e-10
6.072575e-10
8.408343e-10
-1.448092e-09
-7.475746e-10
-4.33005e-10
1.18058e-09
3.541014e-10
1.194255e-09
-1.548357e-09
1.112179e-09
-1.55248e-09
4.403014e-10
-3.634117e-10
-1.289436e-09
1.917888e-09
-4.076083e-13
-1.91748e-09
-1.892313e-09
4.216933e-10
1.269303e-09
-1.690997e-09
1.516813e-09
-1.151655e-09
-1.284751e-09
-2.662967e-10
1.551048e-09
7.523322e-10
8.135413e-10
3.435229e-10
-1.615238e-09
1.271716e-09
-1.728423e-09
6.134717e-10
1.346317e-09
-1.408418e-09
6.210093e-11
1.800911e-09
-7.756144e-10
-1.025297e-09
-1.327426e-09
3.69836e-10
9.575903e-10
-1.756562e-09
9.981597e-10
7.584024e-10
1.372221e-09
-1.559878e-09
-1.511263e-09
9.243988e-10
5.868639e-10
-1.857655e-10
2.040812e-09
-1.855046e-09
-8.322366e-10
1.780308e-09
1.31323e-09
-5.884467e-10
8.74411e-10
-1.869499e-09
9.950878e-10
-6.502335e-10
-4.181777e-10
1.068411e-09
-1.451104e-09
9.636631e-10
4.874409e-10
-7.667369e-10
-1.027447e-09
1.892298e-09
-6.327303e-10
1.55574e-09
-9.2301e-10
1.30758e-09
1.905501e-10
1.229941e-09
6.083265e-10
-6.82294e-10
-1.034529e-09
-6.445012e-10
1.438364e-09
-7.938631e-10
-7.226862e-10
1.415699e-09
-6.930126e-10
9.351556e-10
-1.854432e-09
-5.29597e-11
1.120931e-09
-5.099806e-10
1.896214e-09
-1.386233e-09
-1.16861e-09
5.331451e-10
-8.899038e-10
1.481577e-09
-5.916736e-10
-1.005078e-09
1.728689e-09
-1.95112e-09
1.69582e-09
1.313424e-09
-1.818421e-09
5.049966e-10
1.479479e-09
-1.535182e-09
5.570289e-11
1.355633e-09
1.3782e-10
-8.46453e-10
-7.0268e-10
-1.33058e-09
5.224262e-10
4.17771e-10
1.076002e-09
-5.329346e-10
-1.418186e-09
1.523377e-09
-1.764369e-09
-1.15025e-09
1.172067e-09
-2.18173e-11
3.978973e-09
-3.237985e-09
-7.409881e-10
-1.621025e-09
1.201783e-09
4.192422e-10
1.305231e-09
-1.475826e-09
1.705952e-10
-1.248889e-09
-4.45136e-10
-1.408855e-09
2.772022e-10
1.899064e-09
-1.318372e-09
-5.806921e-10
3.495069e-09
7.458437e-10
-4.240913e-09
1.081899e-09
2.481942e-11
5.858525e-10
-1.557054e-09
-5.495805e-10
1.083686e-09
-1.125115e-09
4.489269e-09
-1.275224e-09
-5.389239e-10
-2.24666e-09
3.560265e-10
1.890633e-09
-1.272025e-09
2.683178e-10
-1.282909e-09
1.372192e-09
1.424167e-09
7.655032e-10
-2.18967e-09
-3.72094e-10
4.375818e-10
1.913427e-09
-2.351008e-09
-7.438496e-10
-8.048371e-10
-2.502422e-09
3.307259e-09
-1.256348e-09
1.004937e-09
2.514109e-10
-1.800109e-09
6.728013e-10
1.127307e-09
2.043256e-10
-1.871033e-09
6.222695e-10
4.952726e-10
1.300189e-09
-1.795462e-09
1.429719e-09
-1.023899e-09
-8.571768e-10
-9.801089e-10
-6.138428e-10
1.019605e-09
-4.057619e-10
1.991589e-09
-1.154742e-09
-1.071429e-09
2.226171e-09
-1.576011e-09
-1.758792e-10
1.75189e-09
-1.349835e-09
3.847493e-10
9.650854e-10
1.99613e-09
-1.640962e-09
-3.551681e-10
1.263049e-09
6.322064e-10
1.729693e-09
-6.570028e-10
-1.07269e-09
1.020613e-09
-2.2056e-09
1.184987e-09
8.154564e-10
-5.755387e-10
-1.03787e-09
1.863677e-09
-1.3377e-09
-5.259763e-10
-1.734509e-10
1.397374e-09
-1.223923e-09
-5.497118e-09
8.147954e-09
-6.321401e-10
1.227569e-09
-5.954292e-10
-1.324341e-09
4.847441e-11
1.275866e-09
-1.153009e-09
1.445609e-09
1.753892e-09
-1.326098e-09
-4.277935e-10
-1.810405e-09
9.861742e-10
-1.900898e-09
8.085582e-10
-8.787136e-10
-1.075511e-09
1.871287e-09
-7.95776e-10
-1.141865e-09
1.924825e-09
-7.829606e-10
5.704426e-09
-4.490626e-09
2.590478e-09
6.18743e-10
-1.590134e-09
-6.692499e-10
-9.481935e-10
1.389798e-09
-1.301464e-09
-8.833412e-11
1.230644e-09
-3.938146e-10
-8.368294e-10
9.186669e-10
9.514632e-10
-1.731228e-11
1.57792e-09
-1.560607e-09
-8.627758e-10
1.023693e-09
-1.609172e-10
1.548538e-09
-1.307635e-09
-2.409035e-10
4.665512e-10
-1.437111e-09
-1.238393e-09
1.417292e-09
-1.788987e-10
1.114332e-09
-1.478385e-09
1.375653e-09
1.027328e-10
9.158148e-11
1.376657e-09
-1.468239e-09
1.28126e-09
-1.776317e-09
3.812843e-09
-3.324833e-10
-3.48036e-09
-2.219536e-09
-9.302923e-10
-1.450063e-09
-5.261872e-11
-7.510413e-10
-1.142379e-09
1.89342e-09
1.049384e-09
-1.323801e-09
2.744179e-10
-1.325878e-09
2.852659e-10
1.040612e-09
-2.348375e-10
-1.589783e-09
1.824621e-09
-1.790496e-09
1.642629e-09
8.203406e-10
1.094128e-09
6.99607e-10
1.151981e-09
7.239573e-11