/*--------------------------------*- C++ -*----------------------------------*\
| =========                 |                                                 |
| \\      /  F ield         | OpenFOAM: The Open Source CFD Toolbox           |
|  \\    /   O peration     | Version:  2406                                  |
|   \\  /    A nd           | Website:  www.openfoam.com                      |
|    \\/     M anipulation  |                                                 |
\*---------------------------------------------------------------------------*/
FoamFile
{
    version     2.0;
    format      ascii;
    arch        "LSB;label=32;scalar=64";
    class       volScalarField;
    location    "0.26";
    object      p;
}
// * * * * * * * * * * * * * * * * * * * * * * * * * * * * * * * * * * * * * //

dimensions      [0 2 -2 0 0 0 0];

internalField   nonuniform List<scalar> 
4531
(
-0.0005065764
-4.249007e-05
-0.000131585
-9.887529e-05
-7.086614e-05
-9.10357e-05
-5.311253e-05
-6.733434e-05
-6.42072e-05
-4.853236e-05
-6.256775e-05
-4.889994e-05
-5.713737e-05
-2.84364e-05
-3.788262e-05
-2.988457e-05
-3.053533e-05
-2.818155e-05
-1.426662e-05
-2.829758e-05
-1.171401e-06
-1.057367e-05
5.444411e-05
-0.0001278223
0.0006445202
-0.001070537
-0.00021847
-0.000347377
-0.0002807482
-0.00026221
-0.0002454297
-0.000234202
-0.0002226468
-0.0002090272
-0.0002064382
-0.0001984537
-0.0001937015
-0.00018846
-0.0001856496
-0.0001814899
-0.0001787202
-0.000176448
-0.0001742782
-0.0001727797
-0.0001713618
-0.0001697382
-0.0001693058
-0.0001680172
-0.0001677671
-0.0001674939
-0.000167705
-0.0001680398
-0.0001688049
-0.000169636
-0.0001711
-0.0001722032
-0.0001746919
-0.0001763956
-0.0001784656
-0.0001823294
-0.0001844973
-0.000189003
-0.0001936567
-0.0002003637
-0.0002055374
-0.0002144755
-0.0002208338
-0.0002370332
-0.0002428478
-0.0002686028
-0.0002715683
-0.0003640603
-0.0001969701
-0.001084698
0.0006448571
-0.0001288018
6.408397e-05
-1.142986e-05
4.548502e-06
-2.419682e-05
-1.282617e-05
-3.108141e-05
-2.238376e-05
-4.103988e-05
-4.206713e-05
-3.842808e-05
-5.511886e-05
-3.922194e-05
-5.663425e-05
-5.168138e-05
-7.191134e-05
-5.819222e-05
-7.308463e-05
-6.145729e-05
-8.934132e-05
-9.655865e-05
-0.0001534186
-1.042783e-05
-0.0004997076
0.0005859946
0.0001411232
0.0002216479
0.0001773562
0.000178517
0.0001680068
0.0001583153
0.0001650234
0.0001554007
0.0001428692
0.0001639943
0.000158036
0.0001539435
0.0001400738
0.0001572946
0.0001602713
0.0001545644
0.0001540228
0.0001552481
0.0001600706
0.0001515411
0.0001647698
0.0001561025
0.0001697792
0.0001678135
0.0001726137
0.000176594
0.0001815491
0.0001826857
0.0001967301
0.0002011973
0.0002151765
0.0002338257
0.0002400645
0.0003470783
0.000355675
0.0002404767
0.0002363291
0.0002171448
0.0002032733
0.0001987901
0.0001852484
0.0001837158
0.0001790035
0.000174964
0.000170162
0.0001720477
0.0001580549
0.0001668578
0.0001532627
0.0001610509
0.0001568037
0.0001536332
0.0001543787
0.0001596002
0.00015671
0.0001395867
0.0001535351
0.0001575247
0.000163183
0.000141894
0.0001541377
0.0001636191
0.0001565247
0.0001690145
0.0001778211
0.0001823829
0.0002464057
0.0001053223
0.0006137644
0.0003590677
0.0002450627
0.0002373225
0.0002184152
0.000203856
0.0001992319
0.000185914
0.0001838797
0.0001791877
0.0001751329
0.0001699787
0.0001721337
0.0001582521
0.0001667731
0.0001535019
0.0001606659
0.0001568578
0.000153712
0.0001541915
0.0001593625
0.0001565498
0.0001396515
0.0001535181
0.0001569896
0.0001625309
0.0001419879
0.0001537696
0.0001630186
0.0001564173
0.0001685648
0.0001771614
0.0001817639
0.0002438259
0.0001065897
0.0005868018
0.0005591418
0.0001414054
0.0002199411
0.0001764842
0.0001779862
0.0001674364
0.0001581364
0.0001643844
0.0001550182
0.0001429537
0.0001633387
0.0001575034
0.0001539296
0.0001401352
0.0001571188
0.0001600071
0.0001543478
0.0001540611
0.0001553113
0.000159703
0.0001517893
0.0001647067
0.000156308
0.0001698752
0.0001676463
0.0001727945
0.0001767918
0.000181717
0.0001833725
0.0001971887
0.0002017847
0.000216442
0.000234877
0.0002443911
0.0003509536
0.000594068
-0.0001059873
5.967918e-05
-1.029657e-05
4.151851e-06
-2.395217e-05
-1.288228e-05
-3.095852e-05
-2.259738e-05
-4.074589e-05
-4.202464e-05
-3.814394e-05
-5.489691e-05
-3.918176e-05
-5.641485e-05
-5.151848e-05
-7.13988e-05
-5.778334e-05
-7.265174e-05
-6.147305e-05
-8.885411e-05
-9.510225e-05
-0.0001514424
-1.112496e-05
-0.0004741846
-0.001022335
-0.0002469593
-0.0003453657
-0.0002830419
-0.0002630189
-0.000245978
-0.0002345518
-0.0002230767
-0.0002093732
-0.0002065446
-0.0001986071
-0.0001938252
-0.0001885422
-0.0001856899
-0.0001815477
-0.000178757
-0.0001764737
-0.0001742911
-0.000172776
-0.0001713621
-0.0001697422
-0.0001692971
-0.0001680185
-0.0001677696
-0.0001674973
-0.0001677092
-0.0001680434
-0.0001688081
-0.000169643
-0.0001711061
-0.0001722231
-0.0001746977
-0.0001764111
-0.0001785066
-0.0001823586
-0.0001845775
-0.0001891264
-0.0001938137
-0.0002005086
-0.0002057401
-0.0002147031
-0.0002212423
-0.000237355
-0.0002435461
-0.0002691302
-0.0002743602
-0.0003612389
-0.0002259771
-0.001037632
-0.0004800485
-4.259568e-05
-0.0001299708
-9.80364e-05
-7.048339e-05
-9.021308e-05
-5.30025e-05
-6.689577e-05
-6.367018e-05
-4.854413e-05
-6.237603e-05
-4.862364e-05
-5.686191e-05
-2.84103e-05
-3.800135e-05
-2.969212e-05
-3.043168e-05
-2.81343e-05
-1.470722e-05
-2.804891e-05
-1.239658e-06
-9.654415e-06
5.030575e-05
-0.0001045638
0.000594239
-0.000447706
-4.185023e-05
-0.0001272787
-9.698511e-05
-6.975373e-05
-8.918167e-05
-5.273077e-05
-6.629511e-05
-6.299137e-05
-4.850828e-05
-6.214073e-05
-4.823677e-05
-5.657088e-05
-2.832697e-05
-3.817073e-05
-2.944308e-05
-3.031672e-05
-2.812996e-05
-1.524286e-05
-2.784842e-05
-1.372928e-06
-8.783698e-06
4.612506e-05
-8.090895e-05
0.000535969
-0.0009638694
-0.0002766808
-0.0003438171
-0.0002856307
-0.0002639634
-0.0002465971
-0.0002349391
-0.0002235721
-0.000209765
-0.0002066703
-0.0001987785
-0.0001939658
-0.000188632
-0.0001857321
-0.0001816103
-0.0001787961
-0.0001765019
-0.000174302
-0.0001727675
-0.000171359
-0.000169743
-0.0001692848
-0.000168017
-0.0001677708
-0.0001674998
-0.0001677128
-0.000168046
-0.0001688102
-0.0001696494
-0.000171111
-0.0001722429
-0.0001747014
-0.0001764251
-0.0001785486
-0.0001823911
-0.000184668
-0.00018927
-0.0001939947
-0.0002006743
-0.0002059683
-0.0002149628
-0.000221701
-0.0002377278
-0.0002443271
-0.0002697736
-0.0002774797
-0.000358828
-0.0002562969
-0.0009804365
0.0005352839
-8.289833e-05
5.517248e-05
-9.194387e-06
3.621058e-06
-2.376876e-05
-1.295608e-05
-3.087133e-05
-2.283608e-05
-4.043672e-05
-4.198248e-05
-3.778013e-05
-5.461693e-05
-3.907206e-05
-5.615452e-05
-5.124764e-05
-7.076048e-05
-5.721198e-05
-7.204203e-05
-6.137443e-05
-8.799281e-05
-9.34554e-05
-0.0001483838
-1.106797e-05
-0.0004428517
0.0005262183
0.0001408115
0.0002174092
0.0001751165
0.00017732
0.0001665878
0.0001578131
0.0001635645
0.0001544806
0.0001429648
0.0001625005
0.0001568184
0.0001538916
0.0001401393
0.0001568883
0.0001596856
0.000154062
0.00015409
0.0001553783
0.000159256
0.0001520588
0.0001646414
0.0001565346
0.0001699883
0.0001674317
0.0001730156
0.0001770293
0.000181956
0.0001842035
0.0001977651
0.0002025318
0.0002179925
0.0002361774
0.0002497698
0.0003528847
0.0003604288
0.0002507079
0.0002385641
0.0002199684
0.0002045968
0.000199787
0.0001867183
0.0001841113
0.0001794077
0.000175338
0.0001697423
0.0001722321
0.0001584661
0.00016668
0.000153757
0.0001601932
0.0001569149
0.0001537904
0.0001539454
0.000159076
0.0001563402
0.0001396606
0.000153477
0.0001563022
0.0001616977
0.0001420119
0.0001532521
0.0001622491
0.0001561863
0.0001678447
0.0001764039
0.0001805585
0.0002403482
0.0001070785
0.0005537906
0.0003582938
0.0002569616
0.0002399039
0.0002216694
0.0002054663
0.0002004081
0.0001876233
0.0001844196
0.000179662
0.0001755622
0.0001694892
0.0001722996
0.0001587144
0.0001665822
0.0001539997
0.0001596686
0.0001569897
0.0001538471
0.0001536491
0.0001587966
0.0001561014
0.0001395735
0.0001533814
0.0001555854
0.0001607966
0.0001419196
0.0001526021
0.0001613755
0.0001558625
0.0001668942
0.0001755642
0.0001790909
0.0002355099
0.0001084341
0.0005162475
0.0004890087
0.0001411521
0.0002135305
0.0001735122
0.0001764774
0.0001655623
0.0001573843
0.0001626399
0.0001538063
0.0001428573
0.0001615931
0.0001561032
0.0001537978
0.0001400455
0.0001566265
0.0001593667
0.0001537225
0.0001540944
0.000155461
0.0001587605
0.0001523191
0.0001645733
0.0001567986
0.0001700733
0.0001672031
0.0001732578
0.0001773039
0.0001822741
0.0001851383
0.00019841
0.0002034105
0.0002196907
0.0002375808
0.0002557668
0.0003513924
0.0004710262
-6.068989e-05
5.006186e-05
-7.878303e-06
2.886535e-06
-2.364637e-05
-1.306623e-05
-3.077379e-05
-2.310462e-05
-4.014875e-05
-4.193668e-05
-3.73339e-05
-5.435237e-05
-3.891523e-05
-5.579315e-05
-5.096703e-05
-7.004602e-05
-5.65118e-05
-7.131879e-05
-6.114802e-05
-8.670059e-05
-9.209508e-05
-0.0001435791
-1.190206e-05
-0.0004071367
-0.0008963859
-0.0003059675
-0.0003420475
-0.0002885433
-0.0002649676
-0.0002472584
-0.0002353665
-0.0002241061
-0.00021017
-0.0002068059
-0.000198968
-0.0001941118
-0.0001887259
-0.0001857755
-0.0001816746
-0.0001788327
-0.0001765302
-0.0001743094
-0.0001727552
-0.0001713517
-0.0001697397
-0.0001692688
-0.0001680113
-0.0001677677
-0.0001674994
-0.0001677132
-0.0001680458
-0.0001688089
-0.0001696534
-0.0001711126
-0.0001722598
-0.0001747034
-0.0001764361
-0.000178588
-0.0001824252
-0.0001847632
-0.0001894209
-0.000194191
-0.0002008524
-0.0002062161
-0.0002152345
-0.0002221954
-0.0002381246
-0.000245169
-0.00027044
-0.0002809492
-0.0003561357
-0.0002862365
-0.0009142147
-0.0004110388
-4.202203e-05
-0.0001231414
-9.599196e-05
-6.877006e-05
-8.798817e-05
-5.230897e-05
-6.561841e-05
-6.220868e-05
-4.838367e-05
-6.188022e-05
-4.788956e-05
-5.625936e-05
-2.820092e-05
-3.829726e-05
-2.915722e-05
-3.02287e-05
-2.816984e-05
-1.588982e-05
-2.768901e-05
-1.660259e-06
-7.689318e-06
4.142183e-05
-5.796811e-05
0.0004720031
-0.0003691283
-4.333024e-05
-0.0001172702
-9.518917e-05
-6.78964e-05
-8.633261e-05
-5.176388e-05
-6.508603e-05
-6.101828e-05
-4.799446e-05
-6.166833e-05
-4.790888e-05
-5.572631e-05
-2.822867e-05
-3.810913e-05
-2.872181e-05
-3.020898e-05
-2.839297e-05
-1.695545e-05
-2.73964e-05
-2.30505e-06
-6.020569e-06
3.61926e-05
-3.614323e-05
0.0004008738
-0.0008178472
-0.0003340162
-0.0003402402
-0.0002919019
-0.000266094
-0.0002479957
-0.0002359121
-0.0002246716
-0.0002106157
-0.0002069337
-0.0001991839
-0.0001942703
-0.000188831
-0.0001858257
-0.0001817459
-0.0001788672
-0.0001765596
-0.0001743141
-0.0001727398
-0.0001713402
-0.0001697351
-0.0001692469
-0.0001679998
-0.0001677581
-0.0001674942
-0.0001677097
-0.0001680403
-0.0001688021
-0.0001696516
-0.0001711132
-0.0001722767
-0.0001747058
-0.0001764449
-0.0001786223
-0.0001824569
-0.0001848787
-0.0001895906
-0.0001944169
-0.0002010528
-0.0002065011
-0.0002155296
-0.0002227414
-0.0002385245
-0.0002461272
-0.0002711219
-0.0002848758
-0.0003531241
-0.0003149895
-0.0008371288
0.0004005078
-4.028376e-05
4.4097e-05
-5.969158e-06
1.643304e-06
-2.35755e-05
-1.317122e-05
-3.033622e-05
-2.373471e-05
-3.98184e-05
-4.174367e-05
-3.651873e-05
-5.434759e-05
-3.875087e-05
-5.49495e-05
-5.106487e-05
-6.916599e-05
-5.540192e-05
-7.080731e-05
-6.091448e-05
-8.500289e-05
-9.109535e-05
-0.0001367113
-1.413526e-05
-0.0003662806
0.0004469998
0.0001431118
0.0002079163
0.0001716446
0.0001753718
0.0001644347
0.0001570761
0.0001614368
0.0001529105
0.0001426051
0.0001607285
0.0001554005
0.0001536496
0.0001398284
0.0001563324
0.0001590524
0.000153273
0.0001540764
0.0001555535
0.000158165
0.000152613
0.0001645799
0.0001572873
0.0001699727
0.0001668908
0.0001735168
0.0001776649
0.000182791
0.0001863245
0.0001990001
0.0002044112
0.0002214616
0.0002393292
0.0002621283
0.000345765
0.0003519331
0.0002635645
0.0002415818
0.0002234436
0.0002064546
0.000200972
0.0001887751
0.0001849239
0.0001799989
0.0001758013
0.0001691494
0.0001721786
0.0001591845
0.0001665587
0.000154275
0.0001590503
0.0001570789
0.0001538784
0.00015324
0.0001585247
0.0001558306
0.0001393647
0.0001532328
0.0001548828
0.0001599406
0.000141686
0.0001517373
0.000160216
0.0001556753
0.0001658184
0.0001744036
0.0001775108
0.0002288036
0.0001112698
0.0004732495
0.0003410556
0.00026965
0.0002439782
0.0002252026
0.0002075482
0.0002012477
0.0001902082
0.0001857717
0.0001805116
0.000176067
0.0001686377
0.0001717102
0.0001600665
0.0001668079
0.000154737
0.000158285
0.0001570584
0.0001538539
0.0001526442
0.0001583964
0.000155564
0.0001388707
0.0001530586
0.0001543733
0.000159291
0.0001411734
0.0001505536
0.0001586343
0.000155876
0.0001646932
0.0001727569
0.0001760181
0.0002202451
0.0001155369
0.000424797
0.0003991202
0.00014675
0.0002004047
0.0001693739
0.0001739906
0.0001632982
0.000157127
0.0001598349
0.0001516885
0.0001420688
0.0001600673
0.0001548879
0.0001534736
0.0001393256
0.0001560464
0.0001588796
0.0001526505
0.0001540108
0.0001555304
0.0001574064
0.0001530917
0.0001648547
0.0001581874
0.0001695256
0.0001664075
0.000173804
0.0001782065
0.0001836549
0.0001877936
0.0001993054
0.0002055209
0.0002232181
0.0002418042
0.0002680068
0.0003357101
0.0003232824
-2.376656e-05
3.731787e-05
-3.093805e-06
-3.489425e-07
-2.354331e-05
-1.32462e-05
-2.888249e-05
-2.521031e-05
-3.927219e-05
-4.124878e-05
-3.497366e-05
-5.474691e-05
-3.859237e-05
-5.306116e-05
-5.209019e-05
-6.80493e-05
-5.361047e-05
-7.088486e-05
-6.083783e-05
-8.295959e-05
-9.070041e-05
-0.0001276339
-1.772345e-05
-0.0003202157
-0.0007250702
-0.0003582675
-0.0003389089
-0.0002957382
-0.0002674321
-0.0002488586
-0.0002366741
-0.0002252488
-0.0002111729
-0.0002070281
-0.0001994267
-0.0001944527
-0.0001889553
-0.0001858903
-0.0001818299
-0.0001788981
-0.0001765921
-0.0001743159
-0.0001727198
-0.0001713253
-0.0001697317
-0.0001692142
-0.0001679767
-0.000167738
-0.0001674809
-0.0001677022
-0.0001680245
-0.0001687834
-0.0001696357
-0.000171116
-0.0001722978
-0.0001747127
-0.0001764513
-0.0001786482
-0.0001824815
-0.0001850433
-0.0001898024
-0.0001946986
-0.0002012937
-0.0002068438
-0.000215869
-0.0002233539
-0.0002389154
-0.0002473054
-0.0002718191
-0.0002893484
-0.0003501099
-0.0003396069
-0.0007461201
-0.000321304
-4.52838e-05
-0.0001093605
-9.468091e-05
-6.74801e-05
-8.389772e-05
-5.112818e-05
-6.47686e-05
-5.908558e-05
-4.71565e-05
-6.161885e-05
-4.858737e-05
-5.471595e-05
-2.860465e-05
-3.728878e-05
-2.79544e-05
-3.03132e-05
-2.898566e-05
-1.869193e-05
-2.670806e-05
-3.429373e-06
-3.622143e-06
3.055169e-05
-1.710691e-05
0.0003218706
-0.0002648747
-4.999251e-05
-9.833216e-05
-9.317303e-05
-6.435868e-05
-8.254754e-05
-4.979703e-05
-6.234715e-05
-5.844914e-05
-4.680666e-05
-6.130508e-05
-4.777867e-05
-5.451253e-05
-2.761732e-05
-3.747574e-05
-2.740472e-05
-3.041791e-05
-2.914455e-05
-1.894865e-05
-2.703571e-05
-3.22063e-06
-3.648795e-06
2.248717e-05
-4.117434e-06
0.0002312404
-0.0006073376
-0.0003746154
-0.0003363788
-0.0002985852
-0.0002689567
-0.0002496597
-0.0002372813
-0.0002260406
-0.0002117661
-0.0002072006
-0.0001997037
-0.0001946361
-0.0001890622
-0.0001859459
-0.0001818943
-0.000178903
-0.0001766223
-0.0001742916
-0.0001726742
-0.0001712985
-0.0001696903
-0.000169165
-0.0001679245
-0.0001676917
-0.0001674502
-0.0001676779
-0.0001679912
-0.0001687397
-0.000169607
-0.0001710907
-0.000172295
-0.0001747173
-0.0001764303
-0.0001786709
-0.0001825391
-0.0001851845
-0.0001900189
-0.0001950199
-0.0002015762
-0.0002071933
-0.0002162227
-0.0002240596
-0.0002395793
-0.000248509
-0.0002728286
-0.0002934065
-0.0003470146
-0.0003545593
-0.0006291887
0.0002300492
-1.084964e-05
2.994566e-05
-2.064634e-06
-7.430782e-07
-2.391988e-05
-1.374579e-05
-2.778563e-05
-2.546355e-05
-3.877277e-05
-4.146208e-05
-3.448703e-05
-5.347838e-05
-3.795467e-05
-5.205711e-05
-5.171684e-05
-6.734918e-05
-5.305052e-05
-6.892884e-05
-5.965398e-05
-8.018962e-05
-9.075977e-05
-0.0001179481
-2.126521e-05
-0.0002674478
0.0003389088
0.0001506194
0.0001907922
0.0001666465
0.0001720728
0.000161639
0.0001555087
0.0001592287
0.0001503685
0.0001405584
0.0001589492
0.0001549432
0.0001530519
0.0001378784
0.0001558878
0.0001594356
0.0001521426
0.0001536658
0.0001551141
0.0001567608
0.0001536293
0.0001652503
0.0001581791
0.0001698341
0.000166257
0.0001742052
0.0001788728
0.000184299
0.0001882414
0.0002002334
0.0002070189
0.0002253598
0.0002445401
0.0002709822
0.0003240183
0.0003284568
0.0002727585
0.0002466137
0.0002273351
0.0002090201
0.0002021303
0.0001906369
0.0001863937
0.0001811451
0.0001764459
0.0001684627
0.0001719985
0.0001600434
0.0001671884
0.0001552395
0.0001575812
0.0001566409
0.0001535892
0.000152172
0.0001590177
0.0001554279
0.0001374367
0.0001526465
0.0001544368
0.000158182
0.000139686
0.0001492628
0.0001580325
0.0001544587
0.0001628879
0.0001704535
0.0001748646
0.0002108675
0.0001195473
0.0003713476
0.0003238886
0.0002681318
0.0002456065
0.0002316041
0.0002114917
0.0002094332
0.000185822
0.0001839921
0.0001810248
0.0001770186
0.0001709049
0.000177924
0.0001531243
0.0001656477
0.0001533409
0.0001583171
0.0001560342
0.0001526858
0.0001533866
0.0001610149
0.0001554129
0.0001341735
0.0001507565
0.0001547725
0.000153126
0.0001357256
0.0001490392
0.0001638818
0.0001422045
0.0001577966
0.0001669534
0.0001727782
0.0002012548
0.0001171619
0.0003115765
0.0002548749
0.0001495533
0.0001779921
0.0001634871
0.0001679909
0.0001569665
0.0001430779
0.0001649286
0.0001501811
0.0001366017
0.0001539044
0.0001552639
0.000151126
0.0001345732
0.0001557872
0.0001612858
0.0001531213
0.0001524616
0.0001545395
0.0001579186
0.0001518609
0.0001637555
0.0001513238
0.0001758007
0.0001687346
0.0001748056
0.0001787868
0.0001819333
0.0001834064
0.0002076313
0.0002095419
0.0002296857
0.0002436792
0.0002663931
0.0003204294
9.729484e-05
6.485674e-06
2.263047e-05
-1.73582e-05
1.033926e-05
-2.699948e-05
-1.600474e-05
-3.906803e-05
-1.291561e-05
-4.138884e-05
-4.674541e-05
-4.400115e-05
-4.295106e-05
-3.489139e-05
-6.340719e-05
-3.691744e-05
-6.983933e-05
-6.174917e-05
-5.28076e-05
-5.115075e-05
-7.45952e-05
-8.769973e-05
-0.0001122398
-1.95999e-05
-0.0002011645
-0.0004609941
-0.0003776065
-0.0003238399
-0.0002933977
-0.0002698599
-0.0002490232
-0.00023552
-0.0002280252
-0.0002112481
-0.0002079931
-0.0002000388
-0.0001946334
-0.0001889333
-0.0001858352
-0.0001817697
-0.0001787983
-0.0001765952
-0.0001741505
-0.0001725346
-0.0001712059
-0.0001694417
-0.0001691165
-0.000167818
-0.0001675821
-0.0001673868
-0.0001675756
-0.0001679466
-0.0001686669
-0.0001696309
-0.0001708909
-0.0001721175
-0.0001746499
-0.0001762773
-0.0001786967
-0.0001827972
-0.0001847531
-0.0001898927
-0.0001950859
-0.0002017294
-0.0002071605
-0.0002162551
-0.0002247314
-0.0002414784
-0.0002475538
-0.0002753292
-0.0002905098
-0.0003421891
-0.0003538151
-0.0004773071
-0.000194353
-6.903385e-05
-8.162281e-05
-8.526512e-05
-4.484842e-05
-9.094466e-05
-4.478504e-05
-4.983841e-05
-6.833978e-05
-5.094472e-05
-5.857076e-05
-3.644311e-05
-6.188159e-05
-1.764324e-05
-4.699624e-05
-3.032107e-05
-2.978589e-05
-2.506628e-05
-9.096212e-06
-3.647864e-05
5.747931e-06
-1.909521e-05
5.458753e-06
-3.19072e-06
0.0001243495
-1.902516e-05
7.724609e-06
-1.010448e-05
-4.781532e-05
-0.0001182656
-3.545468e-05
-0.0001861571
-0.0001785532
-1.501312e-05
-0.0001651447
-2.263224e-05
-2.692361e-05
-8.961658e-06
-2.893789e-05
-2.661574e-05
-0.0001626406
-0.0001982261
7.973303e-05
6.05172e-05
2.839393e-05
-0.0001639752
-0.0001649691
-0.0001541849
0.0001053609
0.0001422003
-1.125149e-05
8.50428e-06
0.0001330882
8.980589e-05
-2.379341e-05
0.0001197239
-1.467373e-05
0.0001502786
0.0001512395
-5.338756e-05
-1.084474e-05
0.0001647491
-1.350795e-05
0.000169234
8.098743e-05
-2.213682e-05
0.0001463194
-2.209254e-06
-6.66996e-05
-2.091659e-05
-6.743986e-05
-0.0001806
0.0001300666
-0.0001067342
-2.361404e-05
5.040368e-05
-8.404893e-05
-4.925158e-05
-3.299381e-05
6.727032e-05
-2.605453e-05
-1.866801e-05
9.134397e-05
0.0001290485
-5.098705e-05
-3.354878e-05
-4.244413e-05
-1.109652e-05
8.027867e-05
-3.108978e-05
-5.005205e-05
-0.0001542856
-2.157032e-05
-2.397813e-05
-0.0001537488
-0.0001349113
0.0001080516
-7.171554e-05
-7.688589e-06
-0.0001993041
-3.285171e-05
-0.0001664242
-4.684899e-05
-0.0002101675
-9.820915e-05
7.90119e-05
-2.814221e-05
-1.54536e-05
-9.58489e-06
-4.834846e-05
-0.0001670335
-1.493296e-05
-1.281131e-05
-3.528076e-06
-1.303703e-05
-1.182287e-05
-4.229236e-05
-1.372338e-05
-9.8572e-06
-1.49903e-05
-0.0001372525
-9.298742e-05
-4.231351e-05
-1.306225e-05
-4.512108e-05
-2.343186e-05
0.0001284408
-7.636403e-06
-2.60311e-05
-7.375112e-05
-5.247008e-05
-1.754339e-05
0.0001050702
-1.231094e-05
-5.670979e-05
-2.614348e-05
-0.0001041331
-6.372211e-05
-4.436103e-05
-4.497252e-05
0.0001028889
-0.0001839209
-1.716322e-05
-4.627797e-05
0.0001641107
0.0001894455
-1.172321e-05
-7.697504e-05
-1.765983e-05
-1.627106e-05
-3.287106e-05
0.0001182977
-2.767454e-05
-1.226619e-05
-3.511526e-05
-1.103268e-05
0.000154718
-1.060129e-05
-3.245768e-05
-5.786469e-05
9.083095e-05
-3.297439e-05
-1.476583e-05
-3.690942e-05
0.000123922
-7.198232e-05
0.0002041719
-2.098813e-05
-2.734553e-05
-1.173624e-05
-5.05426e-05
-0.0001303479
9.778282e-05
-3.182318e-05
-1.873271e-05
-2.531849e-05
-5.41065e-06
-9.078332e-06
1.569781e-05
0.0001470291
-5.324637e-05
0.0002124835
-3.307186e-05
-5.141455e-05
-2.289451e-05
0.0001631826
8.912185e-06
-6.337931e-05
5.577434e-06
-1.509624e-05
-4.004605e-05
6.676556e-05
-0.0001476444
-3.053328e-05
-4.321185e-05
-1.633779e-05
-9.811512e-05
0.0001172382
-2.79261e-05
5.695872e-05
6.148904e-05
-3.400033e-05
-0.0001072283
-4.508355e-05
-8.995504e-05
-3.426976e-05
-9.079162e-05
0.0001379279
-1.310604e-05
-0.000173988
-0.0001854572
-2.090772e-05
-6.507494e-05
0.0001262337
-1.664062e-05
0.0001243105
-1.355147e-05
1.871045e-05
0.0001099813
-0.0001108955
-2.305539e-05
-1.327812e-05
0.0001441963
0.0001727962
-2.47217e-05
-2.124663e-05
-7.803081e-06
0.0001213488
-1.380942e-05
-1.654218e-05
-0.0001691697
-2.509639e-05
-7.072856e-05
-5.054566e-05
-2.707245e-05
8.853335e-05
-1.216218e-05
-0.0001131934
2.579241e-05
2.604297e-05
-0.0001292678
-0.0001366063
4.089467e-05
0.0001473272
-8.697833e-06
-5.167769e-05
-0.0001661992
-1.667317e-05
-3.424853e-05
-5.704577e-05
-0.0001701645
0.0001303066
3.263007e-05
-0.0001258215
0.0001454069
-0.0001712344
-8.555071e-05
-0.0001969877
-0.000219054
-4.268676e-05
-0.0001720572
-2.090562e-05
-0.0001854369
7.740844e-05
0.0001347855
8.91937e-05
-6.630774e-05
-2.580879e-05
-2.822739e-05
6.378635e-06
-5.111402e-05
-2.760877e-05
-4.197197e-05
2.610304e-06
-9.185866e-06
-0.0001479261
4.19435e-06
-2.415306e-05
9.238714e-05
-3.912886e-05
0.0002256965
-4.049373e-05
-1.612229e-05
-3.908047e-05
9.479966e-05
-3.179174e-05
-1.267813e-05
0.0001399283
-0.000204731
-3.939795e-05
-2.429311e-05
-4.109309e-05
0.0001057428
0.0001285466
6.965853e-05
0.0001203177
-8.046362e-05
7.87477e-06
-0.0001624549
-4.218189e-05
-3.907825e-05
0.0001867724
-0.0001733956
-1.628154e-05
-0.0001605243
-0.000102786
-3.453526e-05
-0.0001951594
-3.080578e-05
-1.666798e-05
-1.90843e-05
0.0001342032
-1.838338e-05
-7.979187e-05
9.367324e-07
0.0001939987
8.787076e-05
-0.0001426303
-2.971056e-05
-0.0001330257
-1.199802e-05
-3.388676e-05
-4.251153e-05
-8.219474e-05
-0.0001616045
0.0001779123
-2.466915e-05
-3.445695e-05
4.865958e-05
-1.9443e-05
-0.0001159097
-7.248562e-05
-0.000106098
-3.941969e-05
-2.9165e-05
-2.238521e-05
0.0001346047
0.0001615064
0.0001516521
-0.0001480678
-9.681021e-06
-2.280382e-05
4.319796e-06
-7.739815e-05
-5.01555e-05
-0.0001606751
6.269249e-06
0.0001123422
-4.540723e-05
-8.245897e-07
-3.56324e-05
-0.000116988
2.991976e-05
-0.0002104392
0.0001271596
-1.531487e-05
-0.0001590489
-1.316153e-05
-1.076341e-05
-1.01373e-05
-1.149353e-05
-1.47629e-05
-6.283115e-05
-4.119739e-05
-3.18307e-05
0.0001432499
-4.568036e-05
0.0001029964
7.667024e-05
-1.182204e-05
-2.153072e-05
0.0001414908
0.0001166382
0.0001202155
0.0001070764
0.0001503499
-2.384395e-05
-3.630155e-05
-3.947768e-05
-8.722146e-05
-9.917182e-05
0.0001692255
0.0001557133
0.0001560883
0.0001720067
-6.370309e-05
-0.0001839888
-0.0001514296
-2.458304e-05
-5.758319e-05
6.847895e-05
-2.671003e-05
-2.859316e-05
-3.752683e-05
-1.838575e-05
-1.773093e-05
2.858006e-05
-4.402689e-05
-4.90454e-05
-4.006463e-05
-2.894457e-05
-3.876869e-05
0.000195572
-5.522274e-05
-1.497688e-05
-3.38395e-05
-3.349125e-05
-9.474939e-06
-7.726001e-06
0.0001334673
-3.072485e-05
-3.345603e-05
0.0001568557
0.0001402349
-0.0001681484
0.0001328615
1.835091e-05
-1.80367e-05
-2.847988e-05
0.000138287
-2.291366e-05
-1.076411e-05
-0.0001166144
-1.236723e-05
-1.501172e-05
-1.222578e-05
2.382905e-05
3.206294e-06
0.0001434753
0.0001878785
-2.853086e-05
6.341286e-05
-1.061259e-05
-0.0001718573
-0.0001638172
-0.0001491368
0.0001396898
-1.298442e-05
-0.0001693017
-1.106187e-05
0.0001030003
-2.752147e-05
-4.840205e-05
-2.832538e-05
-2.331673e-05
-2.290032e-05
-1.468558e-05
0.000145752
8.263597e-05
-6.216177e-05
-3.377801e-05
-3.234429e-05
-1.969388e-05
-2.691554e-05
3.93373e-05
-2.487261e-05
-6.500135e-05
-8.207794e-05
-5.972257e-05
5.778776e-05
-0.0001642617
-3.428333e-05
-4.087763e-05
-1.868854e-05
-2.323177e-05
-3.054401e-05
-4.550919e-05
-7.198134e-05
0.0001438437
-1.283751e-05
-4.3993e-06
-3.528114e-05
-4.127391e-05
-3.268147e-05
-1.436167e-05
-6.722415e-05
0.0001606347
1.349465e-05
-3.294537e-05
-3.848505e-05
-3.260303e-05
-2.112462e-05
-1.584256e-05
-2.213031e-05
-2.71163e-05
-1.277117e-05
-6.700778e-05
-1.408655e-05
7.916975e-05
-4.297642e-05
-7.271245e-05
-2.544915e-05
-4.852527e-05
-4.582093e-05
-1.067998e-05
0.0001548651
-2.4406e-05
-1.738315e-05
-0.0001521217
0.0001637509
-0.0001634185
-0.0001634935
-1.16424e-05
-2.087034e-05
9.037187e-05
-1.250847e-05
-1.404645e-05
0.0001078383
-3.848642e-05
0.0001569985
0.0001644486
-0.0001611686
0.000116869
0.000151662
0.0001315196
-0.0001525999
0.0001331695
-1.806735e-05
0.000109552
-2.586885e-05
-7.552487e-05
-1.841183e-05
-3.535799e-05
0.0001273804
3.041647e-06
-2.167037e-05
-9.683493e-05
6.786373e-05
-0.0001241007
-3.097327e-05
0.0001285831
0.0001459397
-6.025453e-05
7.42595e-05
9.75058e-05
-8.026594e-05
2.54393e-08
-2.394703e-05
-1.378524e-05
-1.307127e-05
-6.777143e-05
-3.718467e-05
3.429295e-05
0.0001918614
-2.47354e-05
-4.39125e-05
0.0001896859
0.0001286951
-2.700989e-05
8.647368e-05
-0.0001136738
-3.487802e-05
-5.096273e-05
-0.0001185782
-5.00112e-06
0.0001540543
0.0001622368
0.0001552529
-8.083671e-05
-3.318938e-05
-4.136155e-05
-2.37554e-05
-2.410169e-05
-1.939566e-05
-1.557241e-05
-1.562791e-05
-1.624681e-05
-1.409025e-05
-1.157023e-05
-5.677368e-05
-0.0001704685
-0.000247597
-9.063358e-05
5.825817e-05
-2.507989e-05
-2.726238e-05
-2.740256e-05
0.0002026436
-9.965008e-06
-2.367124e-05
-1.123563e-05
-9.577191e-06
-1.01061e-05
1.201533e-05
-0.0002139952
-7.701987e-05
-6.039945e-06
-5.128404e-05
-5.330321e-05
2.633229e-05
7.876485e-05
-5.285923e-05
-5.835876e-05
-9.335066e-05
0.0001359822
-4.009981e-05
-2.018698e-05
-1.30501e-05
-3.354133e-05
-0.0001797039
-2.937616e-05
0.0001255861
0.0001344799
-9.74527e-06
-5.8389e-05
-5.538158e-05
1.830243e-05
1.076163e-08
-2.93879e-05
0.00013687
-1.68096e-05
7.875203e-05
-1.137523e-05
9.638485e-05
0.0001238416
1.617216e-05
9.90536e-07
-6.908905e-07
-0.0001201207
7.690356e-05
0.0001162814
-3.137406e-05
0.0001040974
-1.22982e-05
-2.053679e-05
-0.0001640754
3.476399e-05
-0.0001155505
-3.643311e-05
-1.966334e-05
-0.0001855791
6.733799e-05
0.0001843641
-0.0002058275
-1.256245e-05
-2.325552e-05
-6.059273e-05
2.737084e-05
-3.251919e-05
-1.870691e-05
-1.736504e-05
-3.147067e-05
-0.0001621908
-9.082756e-05
-0.0001289214
-0.0001661444
-0.0001621322
-2.294878e-05
4.766702e-05
4.197738e-05
-1.453934e-06
9.334782e-05
0.0002030857
0.0001162705
-1.649722e-05
-1.966265e-05
-1.135594e-05
-1.189456e-05
-1.447765e-05
-1.01175e-05
-1.566556e-05
0.0001192032
-2.335509e-05
0.0001965601
-9.638378e-06
-3.017992e-05
-4.00345e-05
8.746051e-05
-3.199105e-05
-3.317864e-05
-0.0001892368
-0.000128404
-0.0001934721
-0.0001382659
8.688143e-05
-0.0002599519
-3.02051e-05
-2.79804e-05
-5.984994e-05
-3.895018e-05
-0.000128008
-0.000156796
-0.0001094505
0.0001037569
-0.000169759
-3.94323e-05
-3.816252e-05
-3.782866e-07
-3.186965e-05
0.0001170946
-4.631244e-05
-3.927759e-05
-0.0001786922
-2.236071e-05
-2.990853e-05
-0.0001087469
-4.010576e-05
-1.613537e-05
-0.0001151332
-2.144227e-05
7.802919e-05
-2.532798e-05
-2.850596e-05
-2.201232e-05
0.0001598701
-0.0001328986
-1.000945e-05
-9.314735e-06
3.686016e-05
-0.0001131254
-0.0001230322
-7.987445e-06
-4.069913e-05
7.943793e-05
-1.870231e-05
-0.0001531656
-2.513924e-05
-2.601304e-05
-6.192238e-05
-0.0001915482
-0.0001940319
0.0001314137
-4.3908e-05
-3.398275e-05
0.0001389055
-0.0001029453
0.00010401
-4.002284e-05
-6.224451e-05
0.0001261945
-0.0001669951
-2.193869e-05
2.008208e-06
-2.060013e-05
-0.0001726895
-9.908397e-06
-8.245057e-06
0.0001392506
0.0001079221
0.0001221294
0.0001244228
0.0001413749
0.0001640654
-1.326254e-05
1.078064e-05
-6.733792e-06
-3.225143e-05
-3.021302e-05
-3.405454e-05
-3.091005e-05
-0.0001636279
-1.204399e-05
-1.112332e-05
-2.471106e-05
-3.168522e-05
0.0001845531
0.0001727351
0.00012635
0.0001370265
-3.287768e-05
-5.430494e-05
-2.340886e-05
-2.279439e-05
7.888397e-05
-2.29277e-05
-7.38493e-06
-3.191471e-06
-4.413759e-05
0.0001255325
0.0001574406
-1.451303e-05
-1.075763e-05
4.153454e-05
-5.260153e-05
-0.0001396658
-2.291025e-05
7.992103e-05
-8.179406e-06
-3.518096e-05
-1.75567e-05
-7.169073e-05
-1.518741e-05
6.658089e-05
-0.0001423911
0.0001871615
-2.789428e-05
7.769255e-05
3.406769e-05
3.919633e-05
-0.0001658423
-4.28471e-05
-0.0001895952
1.381002e-06
-3.088028e-05
-9.746069e-05
-5.087745e-05
-1.616343e-05
-9.402544e-06
-2.514002e-05
-1.632518e-05
-2.130144e-05
4.579765e-05
8.979595e-05
-5.557861e-05
-8.208496e-05
-2.480836e-05
3.888869e-05
-7.308659e-05
-0.0001714429
-3.91464e-05
-1.365177e-05
-0.0001490117
3.920779e-05
-1.064385e-05
-1.604736e-06
-2.628936e-05
-4.16098e-05
0.0001912494
0.00016765
0.0001871113
0.0001554501
-0.0001707155
-1.359638e-05
1.718115e-05
-4.136321e-05
-0.0001271246
-1.463012e-05
-4.31068e-05
0.0001128801
-1.908743e-05