/*--------------------------------*- C++ -*----------------------------------*\
| =========                 |                                                 |
| \\      /  F ield         | OpenFOAM: The Open Source CFD Toolbox           |
|  \\    /   O peration     | Version:  2406                                  |
|   \\  /    A nd           | Website:  www.openfoam.com                      |
|    \\/     M anipulation  |                                                 |
\*---------------------------------------------------------------------------*/
FoamFile
{
    version     2.0;
    format      ascii;
    arch        "LSB;label=32;scalar=64";
    class       volVectorField;
    location    "1.8";
    object      U;
}
// * * * * * * * * * * * * * * * * * * * * * * * * * * * * * * * * * * * * * //

dimensions      [0 1 -1 0 0 0 0];

internalField   nonuniform List<vector> 
15536
(
(-0.01827611 3.268376 -2.601687e-22)
(-0.1443376 3.217531 -6.776606e-19)
(-0.2552646 3.150915 -1.340827e-18)
(-0.3194852 2.914556 -1.299757e-18)
(-0.2791716 2.047343 -1.991607e-20)
(-0.1272952 0.6486214 1.037911e-20)
(-0.1699256 0.5376516 1.769719e-20)
(0.2464213 -0.5894816 -1.736228e-20)
(0.8173275 -2.113718 4.264547e-18)
(0.8313502 -2.096068 3.61719e-18)
(0.6646635 -1.535535 0)
(0.6344976 -1.2416 0)
(0.9538655 -1.676077 -5.329017e-21)
(1.299705 -2.138303 9.073031e-19)
(1.673082 -2.489415 3.408735e-19)
(1.624397 -2.239035 -6.426155e-19)
(0.537064 -0.7681722 7.67708e-19)
(-0.9686851 1.040339 2.060993e-20)
(-2.263039 2.418953 -5.127086e-20)
(-3.460643 3.496877 3.052877e-20)
(-4.714992 4.435286 0)
(-6.254222 5.445165 8.524443e-18)
(-8.169724 6.584175 0)
(-9.88671 7.497825 1.570293e-17)
(-8.741168 6.574864 -1.241127e-19)
(-0.9185558 1.206278 -4.848732e-20)
(6.759251 -3.780331 5.248206e-20)
(3.655426 -2.131895 -4.52015e-18)
(-0.7999833 0.1711039 -7.912837e-18)
(-2.152149 0.7683849 0)
(-3.895325 1.315288 -4.77708e-20)
(-6.250351 1.924024 -6.490384e-18)
(-9.008166 2.679097 9.062324e-18)
(-7.223625 2.146723 0)
(-1.469024 0.5374157 -8.268721e-18)
(0.9537976 -0.26704 -3.064605e-20)
(1.712959 -0.1939049 3.813145e-18)
(7.431729 -0.1786883 -1.779872e-18)
(11.39599 0.1132596 1.74884e-21)
(13.35144 0.6053912 -4.4417e-19)
(14.37913 1.208945 1.790445e-18)
(14.96807 1.873926 -2.798874e-20)
(15.31041 2.548671 2.781566e-20)
(15.47624 3.215967 0)
(15.5071 3.870209 -6.838024e-18)
(15.41367 4.498203 -6.737462e-18)
(15.19047 5.093135 0)
(14.91133 5.663551 -1.267546e-17)
(14.56702 6.201396 1.228952e-17)
(14.18617 6.712698 1.180949e-17)
(13.75617 7.182691 4.278003e-20)
(13.27086 7.607486 -1.064816e-17)
(12.73757 7.981983 0)
(12.16526 8.308058 0)
(11.56343 8.582016 8.561698e-18)
(10.92902 8.796351 7.847868e-18)
(10.28069 8.962464 5.22322e-20)
(9.624558 9.078572 6.207937e-18)
(8.947102 9.125865 1.093116e-17)
(8.261299 9.113056 4.664334e-18)
(7.575175 9.043371 3.809795e-18)
(6.902059 8.926188 -2.689848e-20)
(6.238552 8.751665 0)
(5.582124 8.513316 1.355326e-18)
(4.946073 8.228077 0)
(4.327335 7.881593 2.962446e-19)
(3.734053 7.480554 -2.710155e-20)
(3.176321 7.035742 -2.849667e-21)
(2.653577 6.544992 8.607161e-21)
(2.170086 6.012547 -3.25977e-18)
(1.731394 5.446706 -1.636205e-20)
(1.338112 4.844823 2.27373e-18)
(0.991778 4.208606 2.538393e-18)
(0.6976804 3.553659 0)
(0.4553774 2.884684 0)
(0.2679176 2.198892 3.159268e-18)
(0.1326167 1.511152 -2.791573e-22)
(0.05215314 0.8515527 8.662552e-19)
(0.02480616 0.1971712 1.604567e-21)
(0.05054999 -0.5470188 -6.753945e-21)
(0.1239768 -1.329112 -1.675257e-18)
(0.2557424 -2.077444 0)
(0.4434516 -2.792148 3.038822e-18)
(0.6838327 -3.478316 0)
(0.9754207 -4.136114 -2.586108e-18)
(1.315873 -4.763566 2.296562e-18)
(1.704454 -5.359488 1.70002e-20)
(2.137708 -5.922487 3.453155e-18)
(2.61226 -6.442863 9.548733e-21)
(3.12384 -6.918414 -2.120396e-18)
(3.669725 -7.351111 -1.385233e-18)
(4.247243 -7.735158 7.581132e-21)
(4.854366 -8.072831 1.728188e-19)
(5.48256 -8.359048 -9.719591e-19)
(6.125178 -8.590576 1.692934e-20)
(6.772199 -8.754619 6.280661e-21)
(7.428666 -8.865364 -3.350662e-18)
(8.090192 -8.922929 0)
(8.748159 -8.919795 9.724662e-18)
(9.404694 -8.866458 5.559904e-18)
(10.04024 -8.749194 1.006052e-19)
(10.65113 -8.570733 -7.108824e-18)
(11.23326 -8.334319 0)
(11.78521 -8.04422 0)
(12.30573 -7.708482 0)
(12.78586 -7.325387 0)
(13.21541 -6.89625 1.003306e-17)
(13.59064 -6.424895 1.056719e-17)
(13.91148 -5.916631 2.747137e-20)
(14.16919 -5.378666 -1.128194e-17)
(14.33015 -4.802899 -5.734454e-18)
(14.37253 -4.193465 -5.894866e-18)
(14.25096 -3.549055 4.604391e-20)
(13.91257 -2.875942 5.941478e-18)
(13.26182 -2.192223 3.029597e-18)
(12.04767 -1.539151 -2.336384e-20)
(9.581167 -0.8993836 -5.563043e-21)
(4.93561 -0.2989957 3.787961e-19)
(-1.517778 -0.03793422 -7.988134e-19)
(-3.905335 -0.2838219 -1.929853e-20)
(-3.822875 -0.3814742 1.282172e-20)
(-1.829189 0.04192298 2.475622e-18)
(4.220276 1.143681 1.604635e-20)
(3.190876 0.5446515 0)
(-6.582062 -2.450753 -7.589151e-18)
(-11.25167 -3.97082 -8.397351e-18)
(-9.477653 -3.518649 6.407564e-21)
(-6.73929 -2.732298 7.266023e-18)
(-4.352027 -1.966755 -4.540904e-18)
(-2.860617 -1.424353 0)
(-1.480162 -0.7314025 0)
(0.6695046 0.5431739 -1.009047e-18)
(3.032723 2.062848 0)
(2.592862 1.760898 1.338537e-20)
(0.1741877 -0.008344376 -2.319722e-18)
(-0.3717155 -0.360809 -3.581471e-18)
(0.1058703 0.1270043 3.936803e-20)
(0.6672318 0.6517118 -1.094945e-17)
(0.3982033 0.3061281 -8.840965e-20)
(-0.9254148 -1.122132 1.129539e-17)
(-0.7199721 -0.8194299 5.382039e-18)
(-0.0181712 0.05177703 5.363305e-18)
(0.3403319 0.5254042 5.226823e-18)
(0.5149581 0.8470976 0)
(0.6935563 1.255748 -1.857852e-20)
(0.8965384 1.772756 -4.447816e-18)
(1.102588 2.413269 0)
(1.304852 3.185245 3.940876e-18)
(1.505417 4.127488 -2.996544e-20)
(1.747521 5.297722 1.486473e-20)
(1.57218 5.170648 2.025758e-18)
(0.8339395 3.304679 2.966834e-21)
(0.3038395 2.010117 0)
(0.2018262 1.950256 1.337009e-18)
(0.1942342 2.207715 1.056392e-20)
(0.1753332 2.656754 2.642149e-21)
(0.1020747 3.100388 -2.815587e-21)
(-0.124659 3.800758 -2.816676e-19)
(-0.2607534 3.783022 5.597548e-19)
(-0.4123638 3.779408 0)
(-0.5535842 3.962618 1.059749e-18)
(-0.6244451 3.960194 0)
(-0.5887908 3.247586 3.904167e-18)
(-0.4545013 2.180227 1.398365e-20)
(0.2793895 -0.335704 -1.39477e-20)
(0.7468688 -1.742855 -3.529531e-18)
(0.4697917 -1.297183 -3.030048e-18)
(0.2932689 -0.8279638 0)
(0.3146616 -0.5819101 8.49795e-21)
(0.8719407 -1.404769 -3.915618e-21)
(1.713244 -2.725118 -3.653877e-19)
(2.423157 -3.671822 -5.523367e-19)
(1.9019 -2.932107 2.534279e-19)
(0.3735613 -0.9775145 -5.966341e-19)
(-1.072906 0.8257518 -8.492759e-21)
(-2.24411 2.132141 0)
(-3.375892 3.131987 0)
(-4.609324 3.980378 0)
(-6.128318 4.862421 6.900898e-18)
(-7.962645 5.835649 8.704459e-20)
(-9.416187 6.593778 -8.660742e-20)
(-10.18023 7.554251 7.723503e-20)
(-4.576923 4.246916 -7.587007e-20)
(7.249874 -3.789034 0)
(4.947776 -3.103694 0)
(2.372279 -1.450645 1.228118e-17)
(1.959772 -1.007382 6.430513e-20)
(1.17756 -0.7630827 -6.40957e-20)
(-0.4174347 -0.3430778 5.795104e-18)
(-2.596944 0.5534101 8.144167e-18)
(-5.879809 1.882859 -5.565124e-20)
(-2.390927 0.9319436 -6.202007e-18)
(7.576386 -0.7590453 2.687831e-18)
(13.17064 -0.8506904 6.931672e-22)
(17.40908 -0.7244562 1.189741e-18)
(18.97969 -0.4384985 0)
(19.27978 0.06101663 3.323768e-19)
(19.35759 0.7106107 2.717794e-18)
(19.30705 1.419898 2.775351e-18)
(19.1691 2.13397 2.767859e-18)
(18.95721 2.850259 -8.526602e-20)
(18.6938 3.567951 5.510011e-18)
(18.38205 4.271176 -4.171697e-20)
(18.03443 4.95644 0)
(17.61439 5.602022 1.011384e-17)
(17.14232 6.216959 0)
(16.63075 6.798844 -7.105935e-20)
(16.07289 7.334071 7.128081e-20)
(15.46457 7.81983 8.508318e-18)
(14.81277 8.249604 -5.970446e-20)
(14.12455 8.623499 7.439163e-18)
(13.40684 8.939241 -6.891468e-18)
(12.66315 9.193178 0)
(11.90398 9.394417 4.136324e-20)
(11.13598 9.538389 -5.095328e-18)
(10.35426 9.611914 -8.719344e-18)
(9.563445 9.616952 0)
(8.776028 9.564211 -3.060079e-18)
(8.00094 9.455122 -1.589106e-20)
(7.238644 9.282071 1.704394e-18)
(6.490016 9.044363 5.570422e-21)
(5.761476 8.748313 -5.636533e-21)
(5.05766 8.390269 -2.404871e-19)
(4.381706 7.974172 8.821912e-19)
(3.744269 7.505428 0)
(3.146366 6.989704 0)
(2.592857 6.430598 -1.881558e-20)
(2.08777 5.829837 0)
(1.63411 5.189135 0)
(1.233606 4.512364 0)
(0.8908439 3.811216 -2.297746e-18)
(0.6046504 3.095525 1.852345e-20)
(0.3844135 2.360006 1.072314e-20)
(0.2208049 1.622135 -5.230888e-21)
(0.1206124 0.9085662 -7.117552e-19)
(0.08834209 0.1970181 2.907281e-21)
(0.1271764 -0.6025311 -7.160829e-19)
(0.2142996 -1.438259 1.365142e-18)
(0.3715921 -2.239122 1.041513e-20)
(0.5935215 -3.003993 -2.46398e-18)
(0.8750429 -3.739151 -3.619759e-20)
(1.215275 -4.444904 2.142832e-18)
(1.610264 -5.11524 -1.910767e-18)
(2.060664 -5.750021 0)
(2.55891 -6.349118 -5.640229e-18)
(3.103237 -6.898045 -1.577127e-20)
(3.690817 -7.399506 1.720381e-18)
(4.315861 -7.857338 1.130159e-18)
(4.975858 -8.258952 0)
(5.669041 -8.606798 0)
(6.38706 -8.904656 0)
(7.121584 -9.137049 1.321977e-20)
(7.867953 -9.300236 -1.313544e-20)
(8.625547 -9.404752 2.624248e-18)
(9.3889 -9.449108 5.060331e-21)
(10.15397 -9.429854 -3.934655e-18)
(10.91484 -9.351776 -7.074242e-20)
(11.66122 -9.210179 1.017051e-17)
(12.38505 -9.00274 5.648501e-18)
(13.08185 -8.73256 -4.595303e-20)
(13.75386 -8.405976 6.574978e-18)
(14.39613 -8.027737 5.366295e-20)
(15.00051 -7.59394 -6.068137e-20)
(15.55933 -7.110318 6.045239e-20)
(16.06861 -6.579962 6.608258e-20)
(16.52751 -6.008929 8.670149e-18)
(16.9322 -5.402834 -6.818953e-20)
(17.27853 -4.769476 0)
(17.57514 -4.115194 0)
(17.82594 -3.454062 0)
(18.01444 -2.797061 0)
(18.10919 -2.147121 1.74337e-20)
(18.042 -1.574921 -1.727671e-20)
(17.53369 -1.141675 1.022558e-18)
(15.09815 -0.7669958 3.961217e-21)
(9.065502 -0.3182826 0)
(3.884869 0.1359938 -1.321029e-18)
(1.672604 0.3727519 2.695767e-18)
(2.238546 0.8074307 -2.008028e-18)
(3.343082 0.9428225 2.462379e-20)
(-0.1749451 -0.7453001 -3.224637e-18)
(-9.073049 -3.465541 8.485129e-21)
(-9.290601 -3.054579 0)
(-7.72018 -2.395917 1.011125e-17)
(-5.074535 -1.618827 -1.196637e-17)
(-3.107548 -1.124003 -3.693051e-18)
(-2.012788 -0.8259948 -7.734457e-21)
(-0.955375 -0.2253979 -2.96259e-20)
(0.6700934 0.8632228 1.052937e-20)
(3.215158 2.392342 0)
(2.815928 1.759506 9.568582e-19)
(-0.4556641 -0.6540661 1.838202e-18)
(-0.4950921 -0.392641 -7.367115e-21)
(-0.07736585 0.06655139 -3.768425e-18)
(0.4283827 0.4972605 9.039014e-18)
(0.8134021 0.6820688 4.757538e-18)
(-0.2041723 -0.4093754 1.008531e-21)
(-0.4473602 -0.4258344 -4.440369e-18)
(-0.1418438 -0.0285514 -3.478567e-20)
(0.2084421 0.4247313 -4.321054e-18)
(0.4106344 0.8110174 3.162406e-20)
(0.6079636 1.286806 -1.304142e-21)
(0.8246618 1.86538 -2.854929e-20)
(1.009862 2.555423 0)
(1.209463 3.426903 0)
(1.350752 4.344193 -3.090304e-18)
(1.495809 5.394711 0)
(1.812962 6.770911 -3.247602e-18)
(1.749637 6.989059 1.719882e-18)
(1.323909 6.322769 -1.540193e-20)
(0.796203 5.200352 1.581116e-20)
(0.3719997 4.146537 1.098559e-18)
(0.1322424 3.725186 -5.616117e-19)
(-0.004840854 3.732586 -2.704151e-19)
(-0.04206113 4.036238 2.269949e-19)
(-0.1860716 3.801356 -4.589689e-19)
(-0.3465212 3.780341 1.399989e-20)
(-0.4987815 3.881717 -8.947249e-19)
(-0.6210296 4.106074 0)
(-0.7155569 4.18331 -3.155555e-18)
(-0.6185518 3.526913 -2.214247e-20)
(0.2068695 0.5862097 1.425081e-18)
(0.4161258 -0.6037229 2.958527e-18)
(0.1118908 -0.5060236 2.541794e-18)
(-0.05558593 -0.1541477 1.817128e-18)
(0.01372699 0.1550868 -1.169487e-20)
(0.6035963 -0.5889195 0)
(1.630396 -2.296601 0)
(2.440252 -3.635712 2.205721e-19)
(1.72653 -2.958346 2.053158e-19)
(0.1880617 -1.142737 4.995295e-19)
(-0.9628629 0.3991868 1.395999e-20)
(-1.858879 1.494588 0)
(-2.78121 2.353274 3.150329e-18)
(-3.809608 3.06792 4.254265e-18)
(-5.087518 3.785377 -5.743684e-18)
(-6.656895 4.62157 0)
(-7.987627 5.582391 1.077153e-17)
(-7.780794 6.386737 0)
(-5.393386 5.724231 -5.669222e-18)
(5.650626 -2.225416 0)
(6.545968 -3.933304 -2.879111e-18)
(6.727921 -3.360074 -9.496236e-18)
(7.303894 -3.143829 0)
(7.051832 -3.00408 0)
(5.79254 -2.620799 4.981618e-21)
(3.346342 -1.573446 -6.491386e-18)
(-1.369334 0.5627394 6.978156e-18)
(3.573391 0.4322597 9.202446e-18)
(15.11143 -1.019709 -1.830678e-18)
(18.50564 -0.9805077 1.855382e-18)
(19.07489 -0.5751766 -9.683527e-19)
(18.80451 -0.08312236 0)
(18.75247 0.5595659 0)
(18.77734 1.285448 -2.262642e-18)
(18.74459 2.028716 -2.327164e-18)
(18.63948 2.769241 -4.523077e-18)
(18.46141 3.49151 4.451922e-18)
(18.22785 4.202472 1.03961e-19)
(17.93538 4.880853 -6.875094e-20)
(17.57288 5.534584 0)
(17.14876 6.146604 0)
(16.67293 6.729359 7.90777e-18)
(16.16058 7.278511 -7.608008e-18)
(15.60557 7.777583 0)
(15.00235 8.227569 0)
(14.359 8.6206 9.799161e-20)
(13.68046 8.959975 -6.200814e-18)
(12.97551 9.240631 0)
(12.24792 9.458791 -5.045362e-18)
(11.50565 9.627135 -4.554103e-18)
(10.75743 9.739319 -3.990974e-18)
(9.999318 9.780393 3.508477e-18)
(9.231969 9.755851 -4.25471e-20)
(8.469005 9.676901 2.466399e-18)
(7.719087 9.544185 0)
(6.98451 9.348316 -1.390865e-18)
(6.265172 9.089624 -8.778864e-21)
(5.564721 8.776232 8.418101e-21)
(4.894196 8.399986 -2.559406e-19)
(4.248186 7.970324 0)
(3.639892 7.490541 -1.28152e-18)
(3.069375 6.966736 -1.533497e-20)
(2.543796 6.401318 2.21015e-18)
(2.063786 5.797087 1.323609e-18)
(1.633741 5.154641 -1.522236e-18)
(1.253904 4.477955 -1.707628e-18)
(0.9282699 3.778086 1.869768e-18)
(0.6548268 3.065149 -2.021775e-18)
(0.4482667 2.331624 -1.045626e-18)
(0.2890793 1.596302 2.220953e-18)
(0.1898004 0.8852362 1.165051e-18)
(0.1612734 0.1768222 2.372787e-21)
(0.2106375 -0.6122277 5.926345e-19)
(0.2927739 -1.437145 -8.874887e-21)
(0.4421228 -2.22835 0)
(0.652456 -2.985927 -1.546965e-20)
(0.9177179 -3.715975 -1.339652e-20)
(1.239151 -4.417943 -1.695664e-18)
(1.611164 -5.08649 3.13842e-18)
(2.039796 -5.720294 -1.385065e-18)
(2.511275 -6.322063 2.287473e-18)
(3.026528 -6.876131 1.641283e-20)
(3.586895 -7.38414 0)
(4.182132 -7.852488 9.695038e-19)
(4.81186 -8.266833 3.18326e-21)
(5.47655 -8.628879 2.609672e-20)
(6.164509 -8.945452 0)
(6.869342 -9.198564 1.076455e-18)
(7.589484 -9.382995 0)
(8.321585 -9.511754 -4.764336e-20)
(9.059548 -9.583219 2.618518e-18)
(9.80315 -9.591028 0)
(10.54216 -9.543955 -3.678254e-18)
(11.26898 -9.435063 -4.16989e-18)
(11.97568 -9.261341 -4.630701e-18)
(12.65752 -9.025171 0)
(13.31839 -8.731525 -1.098098e-17)
(13.9516 -8.387506 8.807203e-20)
(14.54981 -7.986928 0)
(15.10527 -7.536754 0)
(15.61414 -7.037963 0)
(16.07562 -6.49792 7.018222e-18)
(16.48243 -5.925556 -7.24513e-18)
(16.82716 -5.315884 0)
(17.10029 -4.674428 0)
(17.31348 -4.003092 3.738063e-18)
(17.46291 -3.319859 2.966063e-20)
(17.54895 -2.632123 0)
(17.58138 -1.969164 0)
(17.76566 -1.443899 -1.678494e-18)
(18.05782 -1.118805 1.932684e-19)
(16.42297 -0.6303494 0)
(13.62998 0.1696844 8.877527e-19)
(11.50542 0.9653902 1.795724e-20)
(9.811787 1.588276 7.807589e-21)
(5.249768 0.9906342 -2.09673e-20)
(-1.786617 -1.66854 2.467247e-18)
(-7.166299 -3.363138 4.611655e-18)
(-6.560519 -2.265437 9.16053e-20)
(-5.368035 -1.307562 5.196589e-20)
(-2.801823 -0.4035593 4.96822e-18)
(-0.8149232 0.03861982 3.164665e-18)
(-0.2425823 0.1189203 0)
(0.1372508 0.4950053 1.619053e-18)
(0.7562948 1.155512 0)
(2.503389 2.010875 -9.577383e-21)
(1.836663 0.7627054 -7.718072e-19)
(-0.5446527 -0.9331335 2.991589e-20)
(-0.4969409 -0.3666989 -3.151991e-20)
(-0.1285777 0.1014084 3.113869e-18)
(0.3143525 0.4494155 -3.718141e-18)
(0.7377191 0.5318688 -3.925015e-18)
(0.4242714 0.2260147 -3.892712e-18)
(-0.2234867 -0.1632936 -3.676757e-18)
(-0.2930716 -0.1999303 0)
(0.03689804 0.2272715 -1.444651e-21)
(0.2474652 0.6018644 0)
(0.4435061 1.074207 -3.222373e-18)
(0.679757 1.647545 3.027271e-18)
(0.8610707 2.323603 0)
(1.058831 3.164642 0)
(1.252522 4.151167 5.07459e-18)
(1.407385 5.122764 -1.271763e-18)
(1.630915 6.229292 2.691189e-18)
(1.807648 7.420355 -1.152444e-20)
(1.672326 8.039151 1.136085e-20)
(1.296658 7.776155 0)
(0.8253096 6.828436 -8.560156e-19)
(0.3867883 5.621345 8.755878e-19)
(0.1121079 4.610871 2.225001e-19)
(-0.02277139 4.51057 -3.68206e-19)
(-0.2326939 3.990899 -1.167932e-20)
(-0.4247398 3.879009 1.173501e-20)
(-0.5791692 3.949082 -2.231916e-20)
(-0.6757756 4.002653 2.211503e-20)
(-0.7315897 4.164326 1.302571e-18)
(-0.6331113 4.19895 -1.788982e-20)
(0.1422985 1.65422 -1.132933e-18)
(0.1912983 0.1962471 3.785167e-20)
(-0.2450708 0.2565142 -2.078601e-18)
(-0.3897976 0.4581459 -2.376952e-20)
(-0.21609 0.7016738 0)
(0.3742271 0.2086173 0)
(1.425922 -1.538401 -2.333456e-19)
(2.207058 -3.186611 -1.730353e-19)
(1.422644 -2.863119 -3.386493e-19)
(0.06394771 -1.397546 -4.107928e-19)
(-0.6758365 -0.2159162 0)
(-1.234292 0.6024223 0)
(-1.871562 1.245406 -5.304235e-18)
(-2.599919 1.734867 -7.187638e-18)
(-3.647444 2.280651 9.197255e-20)
(-5.261639 3.161343 -2.087589e-19)
(-6.601686 4.391667 -1.812508e-17)
(-5.726059 5.291635 -9.199304e-18)
(-4.3312 6.104053 4.596853e-18)
(4.661282 -0.6988263 1.323639e-18)
(8.513923 -4.597864 2.313182e-18)
(10.42229 -4.832583 3.843772e-18)
(11.55843 -4.843281 0)
(11.70679 -4.827494 -9.07151e-20)
(11.21905 -4.634638 -6.453268e-18)
(9.960743 -3.573881 5.014596e-20)
(8.306127 -1.224101 7.618958e-21)
(12.49605 -0.2846731 -3.256265e-18)
(19.05037 -1.059172 -1.370416e-18)
(18.88449 -1.11584 -3.237091e-20)
(18.53447 -0.8111452 -8.026987e-19)
(18.5987 -0.4329167 -4.240481e-19)
(18.79254 0.1131924 -3.45311e-21)
(18.9033 0.7711642 0)
(18.91626 1.480032 -2.896861e-20)
(18.83602 2.19616 1.901587e-18)
(18.67248 2.908807 -7.362898e-18)
(18.44441 3.627838 5.595481e-20)
(18.15611 4.316321 -3.568936e-18)
(17.80018 4.984725 -1.063504e-19)
(17.38211 5.610803 -6.660263e-18)
(16.91022 6.212294 1.571945e-21)
(16.40063 6.78538 6.27529e-18)
(15.84894 7.305194 -5.888146e-18)
(15.24787 7.778551 0)
(14.60572 8.194534 7.929928e-20)
(13.92602 8.559889 -7.981962e-20)
(13.2186 8.866536 0)
(12.48637 9.111596 4.156667e-18)
(11.7382 9.30666 7.271056e-20)
(10.98278 9.445458 3.336635e-18)
(10.21751 9.511773 -2.828536e-18)
(9.444352 9.508981 -2.387587e-18)
(8.671723 9.45341 -1.994577e-18)
(7.912934 9.342482 -1.511121e-18)
(7.169938 9.166617 1.345198e-20)
(6.4408 8.927253 -1.358506e-20)
(5.729972 8.632779 0)
(5.049265 8.273979 2.107511e-19)
(4.392581 7.860796 -1.332174e-20)
(3.774477 7.39582 1.066307e-18)
(3.194526 6.885595 1.437024e-18)
(2.662107 6.33187 -1.8034e-18)
(2.175075 5.738596 -1.086477e-18)
(1.738645 5.106105 -4.417585e-21)
(1.352641 4.438444 1.400924e-18)
(1.02357 3.745655 2.474254e-20)
(0.7452783 3.039042 1.620211e-18)
(0.5382416 2.308686 1.382475e-20)
(0.3760413 1.57414 -9.281897e-19)
(0.2735098 0.8625825 -4.749462e-19)
(0.2483795 0.1528823 -5.917294e-23)
(0.3100841 -0.6233587 4.699311e-19)
(0.3901778 -1.436983 7.266825e-21)
(0.5371083 -2.219042 -8.817342e-19)
(0.7483517 -2.967935 1.671335e-18)
(1.0153 -3.688275 0)
(1.339381 -4.379413 -2.913682e-21)
(1.714221 -5.036566 -1.290824e-18)
(2.148462 -5.658461 1.167683e-18)
(2.624026 -6.249041 -1.966924e-18)
(3.147913 -6.789243 2.181159e-20)
(3.718701 -7.282853 -2.161601e-20)
(4.319975 -7.738593 -7.968545e-19)
(4.959217 -8.137068 0)
(5.637588 -8.480621 -2.751906e-20)
(6.333395 -8.781543 1.361272e-20)
(7.047199 -9.016256 -5.317805e-20)
(7.77771 -9.180471 -1.237046e-18)
(8.518441 -9.28935 -1.749248e-18)
(9.264395 -9.33975 -1.985935e-20)
(10.01549 -9.325321 2.508561e-18)
(10.76281 -9.253984 -4.26591e-20)
(11.49556 -9.121447 -3.314372e-18)
(12.20767 -8.922408 0)
(12.89588 -8.658656 4.046242e-18)
(13.56046 -8.339974 4.45861e-18)
(14.1938 -7.974424 4.618447e-18)
(14.79135 -7.551899 -4.911054e-18)
(15.34455 -7.081857 5.253158e-18)
(15.85093 -6.563935 0)
(16.30978 -6.005862 -1.148599e-17)
(16.71267 -5.422199 1.195678e-17)
(17.05237 -4.803233 -1.411675e-19)
(17.3245 -4.152936 -3.046234e-18)
(17.52538 -3.48646 -3.065548e-18)
(17.64689 -2.817521 0)
(17.66898 -2.17133 1.539033e-18)
(17.58868 -1.576342 -1.492543e-18)
(17.41892 -1.119945 7.065538e-19)
(17.70458 -0.9068117 -1.673158e-19)
(18.12676 -0.5271084 -3.295162e-19)
(17.79754 0.3541643 1.055437e-20)
(16.69193 1.339955 -1.380064e-18)
(15.07356 1.880302 1.453187e-20)
(9.392194 0.992618 0)
(-0.3975128 -2.008856 0)
(-3.609118 -2.770864 -1.349354e-19)
(-3.831589 -1.276072 1.625606e-19)
(-2.78211 -0.03373164 0)
(-0.6438163 0.853482 0)
(1.272733 1.171079 0)
(1.87322 1.194654 1.888234e-18)
(1.711403 1.352227 -2.608134e-18)
(1.248274 1.549926 5.597577e-19)
(1.705463 1.447885 -3.080107e-19)
(0.8709081 -0.257283 -2.196962e-20)
(-0.3216718 -0.9123773 1.271469e-18)
(-0.5446635 -0.349805 2.031353e-18)
(-0.2118382 0.1200726 4.379018e-20)
(0.1779032 0.3860179 5.385842e-21)
(0.5249451 0.2928223 -4.953826e-20)
(0.5624758 0.3276324 -4.836775e-20)
(-0.3053166 -0.355839 3.153325e-18)
(-0.4777211 -0.4291654 0)
(-0.1584449 0.0226769 2.934375e-18)
(0.06474304 0.4139695 -2.827539e-18)
(0.2196273 0.8346806 2.665308e-18)
(0.4588417 1.382072 0)
(0.6277319 2.060255 0)
(0.8120327 2.910184 -3.352463e-20)
(1.004101 3.887765 -2.085932e-18)
(1.166676 4.917302 1.077584e-18)
(1.354259 5.924044 -1.103578e-18)
(1.519574 6.975626 0)
(1.538269 7.946459 0)
(1.386974 8.414115 0)
(1.050714 8.068346 -6.663479e-19)
(0.6141573 6.977616 -3.597834e-19)
(0.2459224 5.589873 -3.571385e-19)
(0.1284476 4.95843 1.488303e-19)
(-0.1488626 4.263787 0)
(-0.3935662 4.050889 -6.133464e-19)
(-0.5548169 4.069063 0)
(-0.6504008 4.047114 -1.147099e-18)
(-0.6787034 3.996098 0)
(-0.5454256 4.397982 0)
(0.09055393 2.678312 -9.07935e-19)
(-0.05008037 1.262618 -1.948526e-18)
(-0.6286365 1.181418 1.708353e-18)
(-0.720532 1.096473 -1.202678e-18)
(-0.3728191 1.114472 7.947966e-19)
(0.238053 0.8248293 0)
(1.235445 -0.7045037 3.8316e-19)
(1.919933 -2.54352 1.427666e-19)
(1.0961 -2.665253 1.471177e-19)
(0.03464105 -1.704124 -7.647595e-21)
(-0.1967245 -0.9766839 -3.71482e-20)
(-0.3667776 -0.4778383 -1.502112e-18)
(-0.6307055 -0.1146478 4.516043e-18)
(-1.106152 0.2074001 3.058837e-18)
(-2.289606 0.8161697 1.552046e-19)
(-4.207398 1.866976 5.37265e-18)
(-5.410156 3.321757 7.678848e-18)
(-4.306336 4.595089 7.78761e-18)
(-2.352247 5.840148 0)
(4.880189 0.3735607 1.292789e-19)
(10.38397 -4.864836 0)
(12.8833 -5.566563 2.867815e-18)
(14.19414 -5.772676 3.472298e-18)
(14.83511 -5.920055 4.052177e-18)
(15.56418 -5.992476 -1.259079e-19)
(16.38766 -5.143649 9.268992e-20)
(16.79935 -2.697508 -7.09062e-18)
(18.26096 -0.871921 0)
(19.38111 -0.9383817 -1.12471e-18)
(18.07236 -1.003706 -1.300521e-18)
(18.19104 -0.5910718 1.343232e-18)
(18.35247 -0.08435809 3.339339e-19)
(18.50919 0.5363648 0)
(18.59702 1.223248 7.445079e-19)
(18.60132 1.935916 0)
(18.51961 2.638145 0)
(18.35475 3.330405 3.075055e-18)
(18.1285 4.031416 -4.653485e-20)
(17.84217 4.695683 4.830731e-20)
(17.48902 5.334096 -2.799957e-18)
(17.07798 5.925712 5.591852e-18)
(16.61326 6.492691 -5.30785e-18)
(16.11312 7.03584 -5.097425e-18)
(15.57712 7.515713 2.3139e-19)
(14.98953 7.956461 -1.470553e-19)
(14.36477 8.33699 -1.288517e-19)
(13.70164 8.672491 -3.700454e-18)
(13.01294 8.951554 -3.756749e-18)
(12.30019 9.169231 -9.86199e-20)
(11.56933 9.343044 3.130553e-18)
(10.83615 9.460007 0)
(10.09473 9.504683 2.329113e-18)
(9.339534 9.487118 1.965486e-18)
(8.585883 9.418761 1.548327e-18)
(7.848551 9.296396 1.243395e-18)
(7.126037 9.111687 0)
(6.417469 8.863939 0)
(5.72383 8.566132 1.26461e-19)
(5.063067 8.203322 0)
(4.420716 7.790538 0)
(3.8186 7.326797 9.365434e-19)
(3.255494 6.818579 -1.641659e-20)
(2.733272 6.270267 -1.374432e-20)
(2.254318 5.682752 -2.997612e-20)
(1.82652 5.056375 2.091205e-18)
(1.449744 4.39491 0)
(1.130464 3.708168 0)
(0.848782 3.011195 1.371576e-18)
(0.6461592 2.285152 6.917157e-19)
(0.4817832 1.551559 7.486904e-19)
(0.3754005 0.8399293 -3.88886e-19)
(0.3538735 0.1268464 0)
(0.4309943 -0.6316064 -3.757503e-22)
(0.5087992 -1.43311 2.325345e-20)
(0.6446204 -2.205654 6.99525e-19)
(0.8488794 -2.94271 -1.370041e-18)
(1.110423 -3.650536 -3.878364e-20)
(1.429226 -4.33065 1.183246e-18)
(1.798268 -4.978318 3.487441e-20)
(2.226627 -5.592626 1.882289e-18)
(2.688312 -6.179471 -1.254145e-20)
(3.198444 -6.716161 -1.353977e-18)
(3.759916 -7.207373 3.60458e-20)
(4.346389 -7.664295 0)
(4.965068 -8.065907 3.723082e-19)
(5.629022 -8.412273 0)
(6.310107 -8.718605 0)
(7.001513 -8.963376 -6.933346e-19)
(7.712266 -9.137314 2.030657e-18)
(8.435809 -9.256993 4.793891e-20)
(9.16108 -9.322005 -9.814507e-20)
(9.892224 -9.323488 -2.060107e-18)
(10.61903 -9.272342 -2.344402e-18)
(11.33162 -9.161648 2.820757e-18)
(12.02245 -8.988525 -3.063968e-18)
(12.68904 -8.753812 -6.897738e-20)
(13.33643 -8.462145 0)
(13.95212 -8.1285 -3.99794e-18)
(14.53419 -7.737601 8.410235e-18)
(15.07295 -7.302704 -4.468955e-18)
(15.5657 -6.821146 0)
(16.01536 -6.297231 8.455247e-20)
(16.41092 -5.745364 -4.789461e-18)
(16.74448 -5.154851 -7.633682e-20)
(17.01267 -4.527964 1.233586e-19)
(17.21182 -3.87723 -7.855815e-20)
(17.33625 -3.221596 0)
(17.37313 -2.564302 -2.452906e-18)
(17.32329 -1.932706 1.161774e-18)
(17.1879 -1.380345 5.632059e-19)
(17.15711 -0.9805738 -8.605512e-21)
(17.5479 -0.4841784 2.70824e-19)
(17.85606 0.4229465 5.493752e-19)
(17.30736 1.368885 0)
(16.68101 1.688728 8.691763e-19)
(13.10967 0.6860791 -4.249339e-20)
(3.198377 -2.045968 1.654239e-18)
(0.2347765 -2.017145 0)
(-0.4105422 -0.2000429 0)
(0.4039964 1.427687 0)
(1.938877 2.299695 4.079755e-20)
(3.422618 2.34503 1.972059e-18)
(3.934407 2.211908 -1.570483e-18)
(3.480424 2.206574 1.10668e-18)
(2.16178 2.003452 -8.933003e-19)
(1.245727 0.9587439 2.644258e-19)
(0.4787299 -0.8048768 0)
(-0.170473 -0.8773018 -1.058292e-18)
(-0.6302291 -0.3790424 -1.648409e-18)
(-0.387563 0.06896719 2.197385e-18)
(-0.08241745 0.1884438 -7.378513e-20)
(0.2260702 -0.03256114 -8.435089e-20)
(0.4280263 0.07348806 8.281831e-20)
(-0.6027886 -0.8704694 0)
(-0.6740071 -0.6689487 -2.468054e-18)
(-0.4135231 -0.2470588 7.374094e-20)
(-0.1565995 0.1826162 4.592988e-18)
(-0.05939047 0.4806936 -2.272654e-18)
(0.2020136 1.03129 1.292405e-19)
(0.3640703 1.724528 -1.973446e-18)
(0.5387423 2.571876 0)
(0.7305353 3.516222 -1.718653e-18)
(0.9093335 4.521823 8.842963e-19)
(1.134083 5.557323 -5.657968e-20)
(1.314411 6.565331 1.023188e-18)
(1.357419 7.465864 -4.803736e-20)
(1.303732 8.092645 1.641909e-20)
(1.118955 8.160474 5.549127e-19)
(0.7984179 7.470075 -4.370649e-21)
(0.4516059 6.194142 4.98221e-21)
(0.2975069 5.263094 7.533418e-21)
(-0.09279579 4.537294 2.414375e-19)
(-0.4166263 4.263292 5.030285e-19)
(-0.6091115 4.197703 -4.908374e-19)
(-0.6953922 4.131064 9.437027e-19)
(-0.690838 3.923927 0)
(-0.4622067 4.336012 7.543877e-19)
(0.02899386 3.561474 7.852155e-19)
(-0.355425 2.643927 1.56147e-18)
(-0.9927741 2.239935 0)
(-0.9732768 1.713826 0)
(-0.4401845 1.429615 -6.459586e-19)
(0.2353138 1.223707 -7.97567e-21)
(1.125676 0.05932179 -1.488531e-19)
(1.669583 -1.845905 -9.168235e-20)
(0.8152401 -2.432018 -9.463775e-20)
(0.1658183 -2.098802 3.024432e-19)
(0.4697735 -1.835556 -6.972848e-19)
(0.6704105 -1.644198 1.164824e-18)
(0.6726765 -1.482838 -1.77104e-18)
(0.09138149 -1.140573 0)
(-1.364809 -0.4661525 0)
(-3.161807 0.4517253 -4.607451e-18)
(-3.886847 1.911977 0)
(-2.644442 3.787878 -1.750293e-19)
(0.153478 5.178743 7.260205e-20)
(6.059247 1.088092 -8.190863e-19)
(11.68318 -4.596187 -3.970813e-20)
(13.59213 -5.459154 -9.300305e-21)
(14.69997 -5.807295 -2.812333e-18)
(15.61573 -6.090537 -7.441183e-21)
(16.96279 -6.360629 2.039616e-18)
(18.75875 -5.775026 -8.513008e-20)
(19.88305 -3.498628 2.941033e-18)
(19.65928 -1.334409 -7.16444e-20)
(18.53987 -1.006917 3.912129e-18)
(17.92815 -1.092772 3.312455e-20)
(18.22881 -0.7316722 -6.673654e-21)
(18.37114 -0.3180772 -5.667782e-19)
(18.53784 0.2324265 -4.592109e-21)
(18.62503 0.8673909 -6.137242e-19)
(18.62786 1.555065 -3.831813e-20)
(18.54439 2.255116 -1.179702e-18)
(18.37802 2.943469 2.402358e-18)
(18.15168 3.655494 -2.365611e-18)
(17.8745 4.318075 4.51429e-18)
(17.52572 4.979035 2.451072e-18)
(17.11658 5.586106 0)
(16.65112 6.171278 0)
(16.15244 6.734732 4.132941e-18)
(15.61792 7.233052 3.933589e-18)
(15.03103 7.691514 0)
(14.40972 8.083338 -1.036856e-19)
(13.74696 8.433107 3.355385e-18)
(13.05566 8.731702 2.993418e-18)
(12.3442 8.961089 2.64191e-18)
(11.61971 9.140245 -7.075296e-20)
(10.88864 9.269775 -2.034546e-18)
(10.14426 9.330963 5.265308e-20)
(9.393701 9.319374 -5.315821e-20)
(8.648496 9.254632 -1.307089e-18)
(7.913989 9.141795 9.757463e-19)
(7.187264 8.972629 0)
(6.486597 8.729125 0)
(5.795302 8.441353 -1.79056e-19)
(5.143241 8.084344 -8.804159e-21)
(4.505258 7.680023 -8.436362e-21)
(3.918718 7.220399 -7.224312e-19)
(3.363846 6.719287 -1.979554e-18)
(2.834071 6.187745 1.164878e-18)
(2.357553 5.612099 -1.445426e-18)
(1.934712 4.996228 -8.184277e-19)
(1.567866 4.34318 -2.821302e-20)
(1.257336 3.66167 0)
(0.968701 2.978996 -1.07053e-18)
(0.7785848 2.260888 -3.606343e-20)
(0.6088535 1.528444 -6.225943e-19)
(0.499025 0.8183422 3.332491e-19)
(0.4822393 0.0999973 1.806124e-23)
(0.5743043 -0.6369541 -3.342199e-19)
(0.6410599 -1.428338 2.873794e-20)
(0.7720973 -2.186368 -6.094531e-19)
(0.9680999 -2.904534 1.12241e-18)
(1.223528 -3.597706 -1.087015e-18)
(1.538099 -4.267392 2.431152e-21)
(1.902911 -4.905278 9.066436e-19)
(2.335622 -5.509111 -1.498425e-18)
(2.788524 -6.090989 1.306526e-18)
(3.287811 -6.622648 1.013393e-18)
(3.850043 -7.105302 7.644216e-21)
(4.443475 -7.550211 8.055123e-21)
(5.054276 -7.945227 -2.916904e-19)
(5.701807 -8.292783 6.386042e-20)
(6.382635 -8.590877 1.186502e-20)
(7.072643 -8.825892 4.887396e-19)
(7.775507 -8.993739 -1.61994e-18)
(8.491354 -9.109694 1.076637e-18)
(9.221278 -9.157697 -5.138956e-20)
(9.949556 -9.149733 -1.649741e-18)
(10.66903 -9.094641 3.854183e-18)
(11.38178 -8.971013 7.16975e-20)
(12.06986 -8.78768 2.37688e-18)
(12.73695 -8.537159 -2.776716e-18)
(13.38635 -8.229086 8.614138e-20)
(14.00124 -7.882394 -3.152558e-18)
(14.58411 -7.473079 -3.226354e-18)
(15.12254 -7.021844 1.107587e-19)
(15.61709 -6.516967 -3.69299e-18)
(16.06718 -5.971558 3.808046e-18)
(16.4627 -5.400624 0)
(16.79451 -4.793301 0)
(17.05898 -4.159082 2.039292e-18)
(17.25811 -3.516735 2.014512e-18)
(17.38407 -2.877123 0)
(17.41832 -2.255318 1.04947e-18)
(17.35975 -1.678009 9.413139e-19)
(17.23176 -1.198268 -4.738527e-19)