/*--------------------------------*- C++ -*----------------------------------*\
| =========                 |                                                 |
| \\      /  F ield         | OpenFOAM: The Open Source CFD Toolbox           |
|  \\    /   O peration     | Version:  2406                                  |
|   \\  /    A nd           | Website:  www.openfoam.com                      |
|    \\/     M anipulation  |                                                 |
\*---------------------------------------------------------------------------*/
FoamFile
{
    version     2.0;
    format      ascii;
    arch        "LSB;label=32;scalar=64";
    class       surfaceScalarField;
    location    "0.14";
    object      phi;
}
// * * * * * * * * * * * * * * * * * * * * * * * * * * * * * * * * * * * * * //

dimensions      [0 3 -1 0 0 0 0];

oriented        oriented;

internalField   nonuniform List<scalar> 
7340
(
2.979886e-14
-4.825278e-14
1.845392e-14
2.118349e-14
8.615371e-15
1.983839e-14
1.345099e-15
1.803333e-14
1.805064e-15
1.797256e-14
6.077082e-17
1.679358e-14
1.178983e-15
1.676374e-14
2.983667e-17
1.624164e-14
5.220986e-16
1.546833e-14
7.733145e-16
1.553676e-14
-6.843073e-17
1.518264e-14
3.54123e-16
1.47364e-14
4.462315e-16
1.423785e-14
4.985573e-16
1.504826e-14
-8.104106e-16
1.515746e-14
-1.09202e-16
1.502557e-14
1.318847e-16
1.491017e-14
1.154045e-16
1.522875e-14
-3.185812e-16
1.591498e-14
-6.862275e-16
1.591964e-14
-4.662122e-18
1.658232e-14
-6.626759e-16
1.774463e-14
-1.162318e-15
1.743057e-14
3.140679e-16
1.904879e-14
-1.618224e-15
3.336261e-14
-1.431382e-14
3.271109e-15
3.00915e-14
1.583336e-15
1.687773e-15
2.675707e-15
-1.092371e-15
1.742286e-15
9.334214e-16
1.492392e-15
2.498946e-16
1.17619e-15
3.162017e-16
8.369099e-16
3.392801e-16
6.118147e-16
2.250953e-16
6.593044e-16
-4.748963e-17
4.940999e-16
1.652046e-16
3.881579e-16
1.059421e-16
3.388022e-16
4.935575e-17
2.906185e-16
4.818379e-17
2.082933e-16
8.232534e-17
1.768928e-16
3.140056e-17
1.557294e-16
2.116345e-17
1.264004e-16
2.932906e-17
1.037913e-16
2.260924e-17
6.396266e-17
3.982866e-17
3.385418e-17
3.010854e-17
2.586836e-17
7.985886e-18
-5.110391e-18
3.097882e-17
-1.250025e-17
7.389923e-18
-1.483863e-17
2.338454e-18
-1.482995e-17
-8.610719e-21
-1.516901e-17
3.391234e-19
-1.930863e-17
4.139692e-18
-2.759394e-17
8.285373e-18
-3.636168e-17
8.767801e-18
-5.291118e-17
1.654955e-17
-5.68751e-17
3.963979e-18
-1.030032e-16
4.612814e-17
-1.389952e-16
3.599205e-17
-1.670153e-16
2.802013e-17
-2.36796e-16
6.978082e-17
-2.419517e-16
5.155746e-18
-2.496764e-16
7.724671e-18
-2.815555e-16
3.187912e-17
-3.807161e-16
9.916071e-17
-4.815632e-16
1.008471e-16
-6.211767e-16
1.396135e-16
-7.715356e-16
1.50359e-16
-1.136715e-15
3.651797e-16
-1.357445e-15
2.207292e-16
-1.768229e-15
4.107841e-16
-2.387661e-15
6.194327e-16
-2.029417e-15
-3.582441e-16
-2.568561e-15
5.391439e-16
-3.339959e-14
3.083103e-14
-1.956841e-14
-1.383119e-14
-1.771966e-14
-1.848745e-15
-1.760318e-14
-1.164858e-16
-1.663972e-14
-9.634586e-16
-1.566589e-14
-9.738238e-16
-1.550789e-14
-1.58008e-16
-1.522585e-14
-2.820376e-16
-1.517782e-14
-4.803364e-17
-1.460381e-14
-5.740104e-16
-1.471577e-14
1.119606e-16
-1.487256e-14
1.567895e-16
-1.45551e-14
-3.174577e-16
-1.512202e-14
5.669192e-16
-1.521162e-14
8.960678e-17
-1.552627e-14
3.146488e-16
-1.569689e-14
1.706142e-16
-1.644756e-14
7.506736e-16
-1.694691e-14
4.993498e-16
-1.744859e-14
5.016769e-16
-1.727003e-14
-1.785553e-16
-1.787572e-14
6.056849e-16
-2.023628e-14
2.360562e-15
-2.215606e-14
1.919778e-15
-2.915839e-14
7.002331e-15
-4.771298e-14
1.855459e-14
-2.984824e-14
-1.786474e-14
-2.059486e-14
-9.253378e-15
-1.969798e-14
-8.968852e-16
-1.740323e-14
-2.294748e-15
-1.630874e-14
-1.094492e-15
-1.592014e-14
-3.885998e-16
-1.56529e-14
-2.672417e-16
-1.469004e-14
-9.628593e-16
-1.44017e-14
-2.883408e-16
-1.440368e-14
1.988334e-18
-1.357892e-14
-8.247667e-16
-1.291399e-14
-6.649308e-16
-1.26833e-14
-2.306817e-16
-1.304894e-14
3.656401e-16
-1.257297e-14
-4.759743e-16
-1.197855e-14
-5.944226e-16
-1.191171e-14
-6.683976e-17
-1.169957e-14
-2.121357e-16
-1.154655e-14
-1.530196e-16
-1.175666e-14
2.101022e-16
-1.176962e-14
1.296919e-17
-1.173341e-14
-3.621804e-17
-1.200445e-14
2.710445e-16
-1.169774e-14
-3.067127e-16
-1.161462e-14
-8.311477e-17
-1.151278e-14
-1.018407e-16
-1.147991e-14
-3.287022e-17
-1.172508e-14
2.451655e-16
-1.197111e-14
2.460267e-16
-1.200471e-14
3.360006e-17
-1.219028e-14
1.855737e-16
-1.227044e-14
8.01583e-17
-1.288448e-14
6.140453e-16
-1.413442e-14
1.249935e-15
-1.333256e-16
-1.400109e-14
1.404837e-14
-1.41817e-14
1.280068e-14
1.247692e-15
1.218823e-14
6.12455e-16
1.211944e-14
6.878719e-17
1.193513e-14
1.843119e-16
1.190646e-14
2.866645e-17
1.168685e-14
2.196085e-16
1.145096e-14
2.358931e-16
1.149654e-14
-4.557845e-17
1.161644e-14
-1.198995e-16
1.172321e-14
-1.067691e-16
1.205166e-14
-3.284519e-16
1.179479e-14
2.56868e-16
1.186451e-14
-6.972371e-17
1.18816e-14
-1.708158e-17
1.168859e-14
1.930042e-16
1.187431e-14
-1.857154e-16
1.204603e-14
-1.717204e-16
1.207232e-14
-2.629604e-17
1.263275e-14
-5.604242e-16
1.308689e-14
-4.541462e-16
1.271596e-14
3.709299e-16
1.29523e-14
-2.363315e-16
1.362165e-14
-6.693533e-16
1.444042e-14
-8.187683e-16
1.442525e-14
1.516375e-17
1.469185e-14
-2.665977e-16
1.559516e-14
-9.033093e-16
1.577795e-14
-1.827894e-16
1.61231e-14
-3.451497e-16
1.707043e-14
-9.473288e-16
1.972877e-14
-2.658346e-15
2.124352e-14
-1.514751e-15
2.893403e-14
-7.690501e-15
-1.931876e-14
4.898715e-14
4.476303e-16
-6.361648e-14
4.921796e-14
1.016877e-15
4.687343e-14
2.956985e-15
4.652629e-14
4.159236e-16
4.595292e-14
7.576805e-16
4.576817e-14
2.134249e-16
4.506757e-14
9.202072e-16
4.411416e-14
1.189296e-15
4.423075e-14
-1.621668e-16
4.46758e-14
-5.649489e-16
4.512171e-14
-5.526788e-16
4.626719e-14
-1.473935e-15
4.549726e-14
1.0268e-15
4.556601e-14
-1.384731e-16
4.581233e-14
-2.633978e-16
4.495648e-14
1.04885e-15
4.565894e-14
-8.881741e-16
4.639035e-14
-9.031316e-16
4.652112e-14
-1.570684e-16
4.853235e-14
-2.571655e-15
5.016966e-14
-2.091448e-15
4.908866e-14
1.451922e-15
4.996847e-14
-1.116138e-15
5.245461e-14
-3.15549e-15
5.535049e-14
-3.714655e-15
5.56667e-14
-3.010411e-16
5.673413e-14
-1.334032e-15
6.004754e-14
-4.216713e-15
6.096158e-14
-1.09683e-15
6.232886e-14
-1.71243e-15
6.622984e-14
-4.848315e-15
7.674607e-14
-1.317457e-14
8.269733e-14
-7.46601e-15
1.15173e-13
-4.016613e-14
1.733064e-13
-7.745218e-14
-1.180538e-13
1.707564e-13
-7.056732e-14
-8.085431e-14
-4.645288e-14
-7.661798e-14
-5.13322e-15
-6.902059e-14
-9.892134e-15
-6.316685e-14
-6.948235e-15
-6.148429e-14
-2.071162e-15
-6.027025e-14
-1.481282e-15
-5.673274e-14
-4.500369e-15
-5.558089e-14
-1.440187e-15
-5.521278e-14
-3.661194e-16
-5.229494e-14
-3.742609e-15
-4.98235e-14
-3.136373e-15
-4.896252e-14
-1.09166e-15
-5.002203e-14
1.425147e-15
-4.830171e-14
-2.196289e-15
-4.616413e-14
-2.732003e-15
-4.58755e-14
-3.554729e-16
-4.500967e-14
-1.077966e-15
-4.441282e-14
-7.498678e-16
-4.53442e-14
1.141479e-15
-4.521195e-14
-1.192735e-16
-4.526483e-14
1.665987e-17
-4.609308e-14
1.099296e-15
-4.503028e-14
-1.369519e-15
-4.467404e-14
-4.393529e-16
-4.429724e-14
-4.786368e-16
-4.422692e-14
-1.031974e-16
-4.522435e-14
1.242597e-15
-4.601579e-14
1.037466e-15
-4.622118e-14
2.389923e-16
-4.680214e-14
7.665377e-16
-4.719385e-14
4.718662e-16
-4.9541e-14
2.961191e-15
-4.944439e-14
1.153324e-15
-6.299785e-14
-8.656692e-14
1.130849e-13
-4.034922e-14
-6.932095e-14
-1.909471e-14
-6.890956e-14
-5.278788e-16
-6.48524e-14
-5.020617e-15
-6.114662e-14
-4.679603e-15
-5.998319e-14
-1.321437e-15
-5.906469e-14
-1.200539e-15
-5.865332e-14
-4.594019e-16
-5.665142e-14
-2.575913e-15
-5.682122e-14
2.817635e-16
-5.735481e-14
6.903734e-16
-5.625521e-14
-1.417058e-15
-5.815104e-14
2.462755e-15
-5.877664e-14
7.151993e-16
-5.986409e-14
1.402105e-15
-6.068513e-14
9.916523e-16
-6.328795e-14
3.353496e-15
-6.542723e-14
2.63863e-15
-6.721619e-14
2.290631e-15
-6.693946e-14
-4.552799e-16
-6.941835e-14
3.084573e-15
-7.853171e-14
1.147392e-14
-8.610779e-14
9.495862e-15
-1.156262e-13
3.652078e-14
7.368474e-14
3.015458e-14
-1.132442e-13
1.131811e-13
8.124516e-15
2.371784e-14
1.11366e-14
-4.104451e-15
7.684448e-15
4.385569e-15
6.310951e-15
1.623392e-15
4.966192e-15
1.660961e-15
3.615135e-15
1.690337e-15
2.685453e-15
1.154777e-15
2.681058e-15
-4.309409e-17
2.097128e-15
7.491343e-16
1.640131e-15
5.629397e-16
1.428633e-15
2.608532e-16
1.209589e-15
2.672283e-16
8.979039e-16
3.940107e-16
7.521689e-16
1.771357e-16
6.549955e-16
1.18337e-16
5.347479e-16
1.495768e-16
4.365926e-16
1.207646e-16
2.806781e-16
1.957433e-16
1.632226e-16
1.475641e-16
1.166458e-16
5.456278e-17
3.54021e-18
1.440846e-16
-3.864053e-17
4.957079e-17
-5.271837e-17
1.641643e-17
-6.06729e-17
7.946058e-18
-6.705098e-17
6.717332e-18
-9.020448e-17
2.729332e-17
-1.270933e-16
4.517427e-17
-1.698037e-16
5.147834e-17
-2.345064e-16
8.125243e-17
-2.686991e-16
3.81568e-17
-4.411582e-16
2.185873e-16
-5.907915e-16
1.856255e-16
-7.262455e-16
1.634742e-16
-9.8229e-16
3.258254e-16
-1.031466e-15
5.43317e-17
-1.083189e-15
5.944783e-17
-1.24623e-15
1.949198e-16
-1.635871e-15
4.888019e-16
-2.084212e-15
5.491881e-16
-2.645646e-15
7.010481e-16
-3.394068e-15
8.987806e-16
-4.7544e-15
1.725512e-15
-5.88668e-15
1.353009e-15
-7.598434e-15
2.122539e-15
-1.040466e-14
3.425659e-15
-9.156868e-15
-1.606036e-15
-2.794797e-14
1.933024e-14
1.15968e-13
1.179227e-13
7.383757e-14
8.318121e-14
4.335688e-14
7.879082e-14
5.735489e-15
7.017257e-14
1.042331e-14
6.923997e-14
9.933725e-16
6.514716e-14
5.271791e-15
6.452818e-14
6.488188e-16
6.261715e-14
2.433129e-15
5.977058e-14
3.61988e-15
5.975254e-14
-5.038439e-17
5.860239e-14
1.504266e-15
5.679201e-14
2.256617e-15
5.522898e-14
2.061584e-15
5.805628e-14
-3.637714e-15
5.855263e-14
-6.055479e-16
5.799283e-14
6.916856e-16
5.767472e-14
4.335122e-16
5.91124e-14
-1.756256e-15
6.152313e-14
-3.096959e-15
6.204887e-14
-5.304022e-16
6.468274e-14
-3.296545e-15
6.926726e-14
-5.746838e-15
6.823502e-14
1.34631e-15
8.463958e-14
-1.802279e-14
-4.291844e-14
2.625553e-13
-3.642703e-13
1.755525e-13
1.875214e-13
1.183909e-13
1.74946e-13
1.831087e-14
1.557543e-13
2.961499e-14
1.526248e-13
4.122904e-15
1.440263e-13
1.387022e-14
1.420063e-13
2.668883e-15
1.378466e-13
6.59281e-15
1.31746e-13
9.720483e-15
1.313647e-13
3.309048e-16
1.290607e-13
3.808222e-15
1.251281e-13
6.189276e-15
1.221485e-13
5.041171e-15
1.280806e-13
-9.569795e-15
1.29164e-13
-1.688944e-15
1.279175e-13
1.938201e-15
1.274955e-13
8.555194e-16
1.310214e-13
-5.282222e-15
1.36194e-13
-8.269571e-15
1.380543e-13
-2.390697e-15
1.444388e-13
-9.681022e-15
1.543221e-13
-1.563013e-14
1.550357e-13
6.326719e-16
1.968704e-13
-5.985743e-14
2.299255e-13
-7.597361e-14
8.858836e-14
2.545183e-13
2.529992e-14
8.700629e-14
2.629212e-14
-5.096654e-15
1.891053e-14
1.176716e-14
1.509867e-14
5.435254e-15
1.186187e-14
4.897766e-15
8.776485e-15
4.77572e-15
6.555872e-15
3.375391e-15
6.260436e-15
2.523426e-16
4.999563e-15
2.010007e-15
3.926565e-15
1.635938e-15
3.401421e-15
7.859976e-16
2.867538e-15
8.011112e-16
2.172716e-15
1.088834e-15
1.810384e-15
5.39467e-16
1.562572e-15
3.661494e-16
1.27907e-15
4.330795e-16
1.042977e-15
3.568575e-16
6.927782e-16
5.459425e-16
4.260897e-16
4.142529e-16
3.002734e-16
1.803792e-16
5.268796e-17
3.916703e-16
-6.148463e-17
1.637436e-16
-1.076824e-16
6.261439e-17
-1.401908e-16
4.045467e-17
-1.669608e-16
3.348753e-17
-2.320406e-16
9.237339e-17
-3.265156e-16
1.396495e-16
-4.357052e-16
1.606681e-16
-5.879855e-16
2.335329e-16
-6.920513e-16
1.422228e-16
-1.070689e-15
5.97225e-16
-1.4246e-15
5.395367e-16
-1.767042e-15
5.059162e-16
-2.325988e-15
8.847722e-16
-2.478478e-15
2.068214e-16
-2.647919e-15
2.288889e-16
-3.074381e-15
6.213818e-16
-3.974078e-15
1.388499e-15
-5.054949e-15
1.630059e-15
-6.393274e-15
2.039373e-15
-8.289637e-15
2.795144e-15
-1.134669e-14
4.782561e-15
-1.423585e-14
4.242171e-15
-1.856485e-14
6.451544e-15
-2.504083e-14
9.901636e-15
-2.678574e-14
1.388713e-16
-8.423261e-14
7.677711e-14
-2.291866e-13
2.60922e-13
-2.008429e-13
-6.869289e-14
-1.574943e-13
-6.244336e-14
-1.537747e-13
-4.247453e-15
-1.44813e-13
-1.398226e-14
-1.362055e-13
-1.328712e-14
-1.328337e-13
-4.693268e-15
-1.307953e-13
-3.238918e-15
-1.296772e-13
-1.577495e-15
-1.254193e-13
-6.833789e-15
-1.25373e-13
2.353886e-16
-1.264096e-13
1.726968e-15
-1.240472e-13
-3.779443e-15
-1.278673e-13
6.282903e-15
-1.295502e-13
2.398082e-15
-1.31907e-13
3.758861e-15
-1.338053e-13
2.890037e-15
-1.392006e-13
8.748724e-15
-1.441172e-13
7.555246e-15
-1.480359e-13
6.209302e-15
-1.48014e-13
-4.771253e-16
-1.542473e-13
9.317845e-15
-1.778441e-13
3.507078e-14
-1.929915e-13
2.464321e-14
-2.576541e-13
1.011834e-13
-3.584299e-13
1.744605e-13
-2.626215e-13
-1.663757e-13
-1.822773e-13
-1.267971e-13
-1.698707e-13
-1.753983e-14
-1.531819e-13
-2.658095e-14
-1.396087e-13
-2.052141e-14
-1.355186e-13
-6.161228e-15
-1.325779e-13
-4.422068e-15
-1.250187e-13
-1.205957e-14
-1.223415e-13
-4.117335e-15
-1.209806e-13
-1.72701e-15
-1.148861e-13
-9.837143e-15
-1.097161e-13
-8.306352e-15
-1.077796e-13
-3.028139e-15
-1.095798e-13
3.225323e-15
-1.059178e-13
-5.858325e-15
-1.01517e-13
-7.132773e-15
-1.00858e-13
-1.014426e-15
-9.88531e-14
-3.082914e-15
-9.757619e-14
-2.026773e-15
-9.975964e-14
3.324923e-15
-9.928385e-14
-5.950589e-16
-9.959986e-14
3.326669e-16
-1.011854e-13
2.684849e-15
-9.895739e-14
-3.597545e-15
-9.816216e-14
-1.234579e-15
-9.737282e-14
-1.267976e-15
-9.736958e-14
-1.064347e-16
-9.962228e-14
3.495296e-15
-1.01201e-13
2.616155e-15
-1.016921e-13
7.30133e-16
-1.028179e-13
1.892304e-15
-1.038559e-13
1.509892e-15
-1.078773e-13
6.982634e-15
-9.864902e-14
-8.075004e-15
-9.041109e-16
-1.607428e-13
9.750492e-14
-1.620255e-13
1.071324e-13
-8.610581e-15
1.031435e-13
6.945883e-15
1.022034e-13
1.355982e-15
1.011011e-13
1.860006e-15
1.006531e-13
6.614483e-16
9.926095e-14
2.31233e-15
9.711531e-14
3.334941e-15
9.72182e-14
-2.650627e-16
9.815383e-14
-1.50058e-15
9.91435e-14
-1.542342e-15
1.015532e-13
-3.883639e-15
1.000992e-13
2.480819e-15
1.000381e-13
-7.740903e-17
1.007644e-13
-9.896791e-16
9.875596e-14
3.05729e-15
1.002423e-13
-2.374502e-15
1.019783e-13
-2.639168e-15
1.02295e-13
-4.737045e-16
1.064233e-13
-6.700013e-15
1.099061e-13
-5.574237e-15
1.080564e-13
3.301603e-15
1.10029e-13
-3.088729e-15
1.152277e-13
-8.354151e-15
1.212754e-13
-9.762374e-15
1.225209e-13
-1.546548e-15
1.250104e-13
-3.823579e-15
1.320953e-13
-1.130153e-14
1.344e-13
-3.401608e-15
1.37727e-13
-5.039375e-15
1.502106e-13
-1.733197e-14
1.702328e-13
-3.319669e-14
1.8551e-13
-2.274327e-14
2.571551e-13
-1.118112e-13
-1.845674e-13
1.617362e-13
1.597864e-15
-3.253596e-13
1.947841e-13
-4.165848e-14
1.916897e-13
1.004031e-14
1.899191e-13
3.126549e-15
1.881115e-13
3.667627e-15
1.873664e-13
1.406567e-15
1.849481e-13
4.730543e-15
1.809113e-13
7.371799e-15
1.807693e-13
-1.231034e-16
1.824142e-13
-3.145433e-15
1.842141e-13
-3.342255e-15
1.886471e-13
-8.316674e-15
1.861852e-13
4.942727e-15
1.858567e-13
2.511316e-16
1.873928e-13
-2.525787e-15
1.835271e-13
6.923002e-15
1.861405e-13
-4.987945e-15
1.896102e-13
-6.108834e-15
1.902231e-13
-1.086603e-15
1.973166e-13
-1.379358e-14
2.036926e-13
-1.195023e-14
2.011091e-13
5.88513e-15
2.049576e-13
-6.937253e-15
2.140031e-13
-1.739958e-14
2.248609e-13
-2.062022e-14
2.280301e-13
-4.715766e-15
2.330198e-13
-8.81326e-15
2.459766e-13
-2.425833e-14
2.506991e-13
-8.124108e-15
2.576789e-13
-1.201922e-14
2.830279e-13
-4.268089e-14
3.194338e-13
-6.960264e-14
3.542136e-13
-5.752305e-14
4.804976e-13
-2.380952e-13
6.531674e-13
-3.572372e-13
-4.895614e-13
6.42424e-13
-3.192383e-13
-3.49268e-13
-2.670904e-13
-3.186353e-13
-4.817258e-14
-2.875327e-13
-5.76835e-14
-2.609354e-13
-4.711876e-14
-2.52739e-13
-1.435758e-14
-2.46851e-13
-1.031006e-14
-2.330571e-13
-2.585349e-14
-2.277151e-13
-9.459403e-15
-2.2433e-13
-5.112087e-15
-2.133867e-13
-2.078047e-14
-2.043884e-13
-1.730465e-14
-2.005972e-13
-6.819307e-15
-2.030845e-13
5.712615e-15
-1.963833e-13
-1.255951e-14
-1.887898e-13
-1.472625e-14
-1.875588e-13
-2.245501e-15
-1.836224e-13
-7.019243e-15
-1.813746e-13
-4.274587e-15
-1.85573e-13
7.523323e-15
-1.845056e-13
-1.662424e-15
-1.852858e-13
1.112809e-15
-1.879938e-13
5.392827e-15
-1.839007e-13
-7.690575e-15
-1.824569e-13
-2.678402e-15
-1.81075e-13
-2.649901e-15
-1.814019e-13
2.204243e-16
-1.856506e-13
7.744079e-15
-1.883984e-13
5.363929e-15
-1.892129e-13
1.544614e-15
-1.910806e-13
3.760041e-15
-1.930349e-13
3.46413e-15
-1.962817e-13
1.022951e-14
-1.639924e-13
-4.03643e-14
-3.231373e-13
-3.790639e-13
4.048919e-13
-9.452089e-14
-3.06347e-13
-1.351603e-13
-2.908788e-13
-1.971559e-14
-2.746733e-13
-3.018776e-14
-2.570973e-13
-3.086311e-14
-2.494593e-13
-1.233131e-14
-2.452094e-13
-7.488866e-15
-2.429837e-13
-3.803138e-15
-2.350309e-13
-1.478663e-14
-2.342125e-13
-5.830185e-16
-2.358784e-13
3.392912e-15
-2.313698e-13
-8.288091e-15
-2.380565e-13
1.296968e-14
-2.415106e-13
5.852177e-15
-2.460772e-13
8.325463e-15
-2.49515e-13
6.327761e-15
-2.59181e-13
1.841472e-14
-2.685158e-13
1.689005e-14
-2.761059e-13
1.379942e-14
-2.769617e-13
3.786973e-16
-2.904794e-13
2.283556e-14
-3.341409e-13
7.873222e-14
-3.678796e-13
5.838199e-14
-4.80646e-13
2.139497e-13
3.362385e-13
1.919617e-13
-4.067318e-13
4.692884e-13
6.720695e-14
2.117611e-13
5.381808e-14
8.292216e-15
3.972986e-14
2.585537e-14
3.093765e-14
1.422746e-14
2.420652e-14
1.16289e-14
1.816226e-14
1.081998e-14
1.359386e-14
7.943789e-15
1.254435e-14
1.301856e-15
1.012574e-14
4.428617e-15
8.016633e-15
3.745042e-15
6.89499e-15
1.907641e-15
5.806091e-15
1.890011e-15
4.464998e-15
2.429927e-15
3.713116e-15
1.29135e-15
3.177509e-15
9.017563e-16
2.604045e-15
1.006544e-15
2.124899e-15
8.360036e-16
1.453538e-15
1.217304e-15
9.332798e-16
9.345115e-16
6.615025e-16
4.521569e-16
1.885718e-16
8.646014e-16
-6.101127e-17
4.13327e-16
-1.841324e-16
1.857359e-16
-2.745253e-16
1.308479e-16
-3.535253e-16
1.124879e-16
-5.038054e-16
2.426539e-16
-7.114353e-16
3.472797e-16
-9.432696e-16
3.925028e-16
-1.257464e-15
5.477273e-16
-1.498936e-15
3.836952e-16
-2.215891e-15
1.314181e-15
-2.930599e-15
1.254245e-15
-3.647908e-15
1.223225e-15
-4.709422e-15
1.946287e-15
-5.071115e-15
5.685145e-16
-5.51776e-15
6.755343e-16
-6.439604e-15
1.543226e-15
-8.24219e-15
3.191086e-15
-1.043444e-14
3.822307e-15
-1.322187e-14
4.82681e-15
-1.718502e-14
6.758285e-15
-2.323173e-14
1.082927e-14
-2.933301e-14
1.034345e-14
-3.902361e-14
1.614215e-14
-5.173456e-14
2.261258e-14
-6.904604e-14
1.745035e-14
-1.844854e-13
1.922164e-13
4.813285e-13
4.895786e-13
3.391413e-13
3.589583e-13
2.490112e-13
3.284614e-13
4.880777e-14
2.924259e-13
6.565042e-14
2.850858e-13
1.146301e-14
2.692825e-13
2.967359e-14
2.646166e-13
7.334703e-15
2.567754e-13
1.443402e-14
2.455917e-13
2.090419e-14
2.444733e-13
1.449318e-15
2.404223e-13
7.85923e-15
2.334589e-13
1.315271e-14
2.285279e-13
9.972149e-15
2.393401e-13
-2.0382e-14
2.411473e-13
-3.496131e-15
2.388846e-13
4.20088e-15
2.386809e-13
1.059241e-15
2.459314e-13
-1.253269e-14
2.557031e-13
-1.804134e-14
2.602789e-13
-6.966483e-15
2.738314e-13
-2.323347e-14
2.915825e-13
-3.33813e-14
3.015414e-13
-9.326182e-15
3.723549e-13
-1.30671e-13
-1.103505e-13
8.38336e-13
-1.080537e-12
5.813427e-13
6.346671e-13
4.526802e-13
5.699295e-13
1.135453e-13
5.070817e-13
1.284983e-13
4.920983e-13
2.644635e-14
4.648588e-13
5.691318e-14
4.553677e-13
1.682578e-14
4.415524e-13
2.824927e-14
4.224931e-13
3.996351e-14
4.200214e-13
3.921055e-15
4.134681e-13
1.441248e-14
4.022764e-13
2.43444e-14
3.948407e-13
1.740789e-14
4.131848e-13
-3.872613e-14
4.15804e-13
-6.115329e-15
4.120596e-13
7.945313e-15
4.128641e-13
2.547647e-16
4.267862e-13
-2.645488e-14
4.441523e-13
-3.540737e-14
4.542117e-13
-1.702594e-14
4.807332e-13
-4.975497e-14
5.111842e-13
-6.383226e-14
5.410718e-13
-3.921376e-14
6.377927e-13
-2.273919e-13
6.670176e-13
-1.395753e-13
3.642762e-13
7.720297e-13
1.558072e-13
4.202301e-13
1.058532e-13
5.824618e-14
7.798534e-14
5.372323e-14
5.946589e-14
3.274691e-14
4.61531e-14
2.49417e-14
3.503449e-14
2.193859e-14
2.627568e-14
1.67026e-14
2.351725e-14
4.060289e-15
1.909636e-14
8.849511e-15
1.524182e-14
7.59958e-15
1.302361e-14
4.125846e-15
1.095933e-14
3.954293e-15
8.530511e-15
4.85875e-15
7.089629e-15
2.732232e-15
6.018028e-15
1.973358e-15
4.934789e-15
2.089784e-15
4.032689e-15
1.738104e-15
2.831917e-15
2.418077e-15
1.885831e-15
1.880598e-15
1.351928e-15
9.860605e-16
5.035793e-16
1.71295e-15
3.969612e-18
9.129372e-16
-2.844776e-16
4.741836e-16
-4.990869e-16
3.454578e-16
-6.94508e-16
3.079095e-16
-1.011764e-15
5.599106e-16
-1.435758e-15
7.712736e-16
-1.889709e-15
8.464543e-16
-2.498993e-15
1.157012e-15
-2.998898e-15
8.836007e-16
-4.268753e-15
2.584036e-15
-5.615397e-15
2.600889e-15
-7.002284e-15
2.610113e-15
-8.895654e-15
3.839657e-15
-9.670159e-15
1.343019e-15
-1.070898e-14
1.714353e-15
-1.254381e-14
3.378056e-15
-1.593332e-14
6.580601e-15
-2.008391e-14
7.972898e-15
-2.553537e-14
1.027827e-14
-3.320895e-14
1.443187e-14
-4.44939e-14
2.211422e-14
-5.66457e-14
2.249524e-14
-7.679627e-14
3.629273e-14
-1.02452e-13
4.826826e-14
-1.577143e-13
7.27127e-14
-3.524366e-13
3.869387e-13
-6.63419e-13
7.92311e-13
-6.478127e-13
-1.101272e-13
-5.498365e-13
-2.331365e-13
-5.104461e-13
-5.910605e-14
-4.826185e-13
-5.801535e-14
-4.492625e-13
-6.421916e-14
-4.333471e-13
-2.824666e-14
-4.24864e-13
-1.5972e-14
-4.20887e-13
-7.780141e-15
-4.069797e-13
-2.869392e-14
-4.041348e-13
-3.427935e-15
-4.065136e-13
5.771761e-15
-3.983464e-13
-1.645533e-14
-4.092484e-13
2.387165e-14
-4.156071e-13
1.221093e-14
-4.239069e-13
1.662531e-14
-4.294739e-13
1.189473e-14
-4.455221e-13
3.446289e-14
-4.618011e-13
3.316901e-14
-4.756992e-13
2.769753e-14
-4.786696e-13
3.349116e-15
-5.053019e-13
4.946787e-14
-5.796998e-13
1.531301e-13
-6.476251e-13
1.263073e-13
-8.23314e-13
3.896386e-13
-1.06291e-12
5.758346e-13
-8.382734e-13
-5.43875e-13
-6.183274e-13
-4.870365e-13
-5.525814e-13
-1.139186e-13
-4.984784e-13
-1.117864e-13
-4.502767e-13
-9.532054e-14
-4.35171e-13
-2.946323e-14
-4.243697e-13
-2.111133e-14
-4.010202e-13
-4.920306e-14
-3.910864e-13
-1.939314e-14
-3.83863e-13
-1.233551e-14
-3.655893e-13
-3.90542e-14
-3.513581e-13
-3.153583e-14
-3.444684e-13
-1.370903e-14
-3.472312e-13
8.475417e-15
-3.358374e-13
-2.395327e-14
-3.239309e-13
-2.66328e-14
-3.218382e-13
-4.338192e-15
-3.146912e-13
-1.416622e-14
-3.111233e-13
-7.842486e-15
-3.184981e-13
1.48981e-14
-3.164047e-13
-3.755771e-15
-3.180299e-13
2.737992e-15
-3.223679e-13
9.730849e-15
-3.153082e-13
-1.475034e-14
-3.12904e-13
-5.0826e-15
-3.107445e-13
-4.809356e-15
-3.119593e-13
1.435169e-15
-3.193489e-13
1.513375e-14
-3.237323e-13
9.747287e-15
-3.24746e-13
2.558281e-15
-3.274484e-13
6.462455e-15
-3.297328e-13
5.748584e-15
-3.245745e-13
5.071184e-15
-2.463941e-13
-1.185447e-13
-2.62024e-15
-5.669112e-13
2.424076e-13
-5.703874e-13
3.217851e-13
-1.210359e-13
3.273624e-13
4.462951e-15
3.254156e-13
5.073379e-15
3.228501e-13
6.233115e-15
3.219317e-13
2.325028e-15
3.180858e-13
8.576395e-15
3.110788e-13
1.437882e-14
3.101824e-13
7.733219e-16
3.127745e-13
-5.737569e-15
3.157793e-13
-6.34702e-15
3.234283e-13
-1.596574e-14
3.195107e-13
8.860314e-15
3.186187e-13
1.143199e-15
3.215241e-13
-5.431205e-15
3.147322e-13
1.371487e-14
3.188983e-13
-9.153988e-15
3.252902e-13
-1.250078e-14
3.263606e-13
-2.156966e-15
3.374199e-13
-2.485289e-14
3.482725e-13
-2.280285e-14
3.453383e-13
8.819361e-15
3.523093e-13
-1.390824e-14
3.666105e-13
-3.170087e-14
3.847398e-13
-3.874951e-14
3.915905e-13
-1.156642e-14
4.009171e-13
-1.813991e-14
4.229188e-13
-4.626e-14
4.317293e-13
-1.69346e-14
4.449968e-13
-2.528668e-14
4.923086e-13
-8.99927e-14
5.538307e-13
-1.311248e-13
6.25216e-13
-1.289083e-13
8.243998e-13
-4.37279e-13
-6.133748e-13
3.382314e-13
4.083695e-15
-9.127025e-13
4.977397e-13
-2.805443e-13
5.297941e-13
-2.759139e-14
5.312751e-13
3.592361e-15
5.285711e-13
8.937072e-15
5.280961e-13
2.80005e-15
5.225579e-13
1.411461e-14
5.108573e-13
2.60794e-14
5.081536e-13
3.476977e-15
5.118238e-13
-9.40768e-15
5.166327e-13
-1.1156e-14
5.294723e-13
-2.880528e-14
5.235136e-13
1.481897e-14
5.21357e-13
3.299848e-15
5.266199e-13
-1.069413e-14
5.152874e-13
2.504738e-14
5.214643e-13
-1.533087e-14
5.327266e-13
-2.376312e-14
5.34479e-13
-3.909322e-15
5.505416e-13
-4.091548e-14
5.682748e-13
-4.053604e-14
5.66112e-13
1.098214e-14
5.781437e-13
-2.593994e-14
5.993218e-13
-5.287901e-14
6.284438e-13
-6.787153e-14
6.419708e-13
-2.509335e-14
6.588151e-13
-3.498422e-14
6.946924e-13
-8.213735e-14
7.102128e-13
-3.245503e-14
7.342284e-13
-4.930224e-14
8.184866e-13
-1.742509e-13
9.187631e-13
-2.314013e-13
1.053243e-12
-2.63388e-13
1.345266e-12
-7.293019e-13
1.701296e-12
-9.694048e-13
-1.365339e-12
1.6746e-12
-8.531359e-13
-1.044409e-12
-8.079666e-13
-9.172648e-13
-2.41063e-13
-8.260603e-13
-2.029909e-13
-7.423969e-13
-1.78984e-13
-7.157715e-13
-5.608867e-14
-6.969738e-13
-3.990898e-14
-6.590473e-13
-8.712962e-14
-6.412165e-13
-3.722394e-14
-6.270719e-13
-2.648013e-14
-5.977167e-13
-6.840937e-14
-5.766356e-13
-5.261691e-14
-5.64709e-13
-2.563568e-14
-5.665836e-13
1.035002e-14
-5.479961e-13
-4.254071e-14
-5.305648e-13
-4.406414e-14
-5.272051e-13
-7.697856e-15
-5.147659e-13
-2.660547e-14
-5.095306e-13
-1.307779e-14
-5.218491e-13
2.721662e-14
-5.179325e-13
-7.672394e-15
-5.212128e-13
6.018342e-15
-5.278512e-13
1.636919e-14
-5.159904e-13
-2.661113e-14
-5.121464e-13
-8.926615e-15
-5.091497e-13
-7.806006e-15
-5.123773e-13
4.662735e-15
-5.247343e-13
2.749072e-14
-5.311052e-13
1.611824e-14
-5.316907e-13
3.143786e-15
-5.346878e-13
9.459513e-15
-5.338349e-13
4.895745e-15
-5.026652e-13
-2.609853e-14
-3.448228e-13
-2.763871e-13
-9.076503e-13
-1.042113e-12
1.035061e-12
-1.03075e-13
-9.368791e-13
-3.383707e-13
-8.597755e-13
-1.362096e-13
-8.130327e-13
-1.047581e-13
-7.528464e-13
-1.244055e-13
-7.205839e-13
-6.050915e-14
-7.041837e-13
-3.237215e-14
-6.973641e-13
-1.459976e-14
-6.741449e-13
-5.191311e-14
-6.66379e-13
-1.119392e-14
-6.695047e-13
8.897502e-15
-6.550802e-13
-3.08798e-14
-6.721341e-13
4.092555e-14
-6.832152e-13
2.329198e-14
-6.976282e-13
3.10383e-14
-7.060992e-13
2.036573e-14
-7.314401e-13
5.980386e-14
-7.586245e-13
6.035338e-14
-7.83372e-13
5.244501e-14
-7.906985e-13
1.067561e-14
-8.402983e-13
9.906771e-14
-9.618804e-13
2.747122e-13
-1.087619e-12
2.520462e-13
-1.34136e-12
6.433795e-13
9.090746e-13
6.391922e-13
-1.040689e-12
1.173527e-12
3.264426e-13
7.329797e-13
2.058083e-13
1.788805e-13
1.484483e-13
1.110833e-13
1.111434e-13
7.005184e-14
8.516478e-14
5.092028e-14
6.521671e-14
4.188667e-14
4.908441e-14
3.28349e-14
4.268611e-14
1.045858e-14
3.476953e-14
1.676609e-14
2.792938e-14
1.443973e-14
2.374085e-14
8.314379e-15
1.995859e-14
7.736553e-15
1.568927e-14
9.128077e-15
1.304179e-14
5.379711e-15
1.098815e-14
4.026998e-15
9.012504e-15
4.065432e-15
7.379e-15
3.371609e-15
5.300739e-15
4.496339e-15
3.643078e-15
3.53826e-15
2.646527e-15
1.982612e-15
1.173341e-15
3.186138e-15
2.160622e-16
1.870217e-15
-4.066643e-16
1.096911e-15
-8.728838e-16
8.116782e-16
-1.309206e-15
7.442326e-16
-1.94587e-15
1.196576e-15
-2.777441e-15
1.602845e-15
-3.628018e-15
1.697032e-15
-4.770871e-15
2.299865e-15
-5.74183e-15
1.85456e-15
-7.918203e-15
4.76041e-15
-1.037015e-14
5.052832e-15
-1.295051e-14
5.190477e-15
-1.622169e-14
7.110837e-15
-1.779471e-14
2.91604e-15
-2.002823e-14
3.947872e-15
-2.352647e-14
6.876303e-15
-2.970592e-14
1.276005e-14
-3.733802e-14
1.560499e-14
-4.765584e-14
2.059609e-14
-6.204244e-14
2.881847e-14
-8.250368e-14
4.257546e-14
-1.064148e-13
4.640636e-14
-1.46619e-13
7.649693e-14
-2.004907e-13
1.0214e-13
-3.280544e-13
2.002763e-13
-6.213505e-13
6.802348e-13
1.206022e-12
1.365514e-12
9.171245e-13
1.070708e-12
7.474865e-13
9.461241e-13
2.381289e-13
8.404274e-13
2.34195e-13
8.12199e-13
5.467471e-14
7.668629e-13
1.022493e-13
7.487084e-13
3.498032e-14
7.25286e-13
5.16716e-14
6.939788e-13
7.127077e-14
6.891684e-13
8.73146e-15
6.793622e-13
2.421861e-14
6.623179e-13
4.13887e-14
6.520722e-13
2.765368e-14
6.818265e-13
-6.848043e-14
6.851973e-13
-9.486191e-15
6.792839e-13
1.385876e-14
6.828779e-13
-3.33923e-15
7.089985e-13
-5.257557e-14
7.387541e-13
-6.516292e-14
7.59842e-13
-3.811385e-14
8.089071e-13
-9.882011e-14
8.603232e-13
-1.152483e-13
9.211965e-13
-1.00087e-13
1.028888e-12
-3.350832e-13
-1.513766e-13
2.153304e-12
-2.588738e-12
1.352558e-12
1.749986e-12
1.150805e-12
1.528783e-12
4.593312e-13
1.353738e-12
4.092399e-13
1.304887e-12
1.035259e-13
1.229441e-12
1.776955e-13
1.196042e-12
6.837938e-14
1.158341e-12
8.937287e-14
1.106667e-12
1.229438e-13
1.098163e-12
1.723604e-14
1.084671e-12
3.771036e-14
1.060467e-12
6.559301e-14
1.046591e-12
4.153e-14
1.094753e-12
-1.166432e-13
1.097592e-12
-1.232486e-14
1.08849e-12
2.296112e-14
1.098669e-12
-1.351815e-14
1.147163e-12
-1.010704e-13
1.198258e-12
-1.162578e-13
1.239435e-12
-7.929028e-14
1.328672e-12
-1.880579e-13
1.411387e-12
-1.979626e-13
1.507703e-12
-1.964032e-13
1.59596e-12
-4.2334e-13
1.56404e-12
-1.19457e-13
1.06661e-12
1.670957e-12
6.316993e-13
1.16789e-12
3.966939e-13
4.138859e-13
2.796537e-13
2.281235e-13
2.056654e-13
1.440401e-13
1.548653e-13
1.017203e-13
1.194086e-13
7.734338e-14
9.007788e-14
6.216565e-14
7.638892e-14
2.414755e-14
6.219918e-14
3.095584e-14
5.017519e-14
2.646371e-14
4.250853e-14
1.598104e-14
3.568538e-14
1.455971e-14
2.826166e-14
1.65518e-14
2.351711e-14
1.012426e-14
1.967659e-14
7.86752e-15
1.613627e-14
7.605752e-15
1.324552e-14
6.262358e-15
9.695405e-15
8.046459e-15
6.839624e-15
6.394043e-15
5.053127e-15
3.76911e-15
2.524903e-15
5.714364e-15
7.342456e-16
3.660875e-15
-5.38418e-16
2.369576e-15
-1.497446e-15
1.770709e-15
-2.404393e-15
1.65118e-15
-3.646788e-15
2.438972e-15
-5.234227e-15
3.190287e-15
-6.798995e-15
3.261803e-15
-8.895147e-15
4.39602e-15
-1.070115e-14
3.660566e-15
-1.438321e-14
8.442474e-15
-1.876678e-14
9.436406e-15
-2.347765e-14
9.901346e-15
-2.908306e-14
1.271625e-14
-3.213972e-14
5.972699e-15
-3.670833e-14
8.516482e-15
-4.320561e-14
1.337359e-14
-5.434165e-14
2.389609e-14
-6.823174e-14
2.949507e-14
-8.743193e-14
3.979629e-14
-1.139957e-13
5.538226e-14
-1.508845e-13
7.946426e-14
-1.97852e-13
9.33739e-14
-2.768691e-13
1.55514e-13
-3.881826e-13
2.134534e-13
-6.33597e-13
4.456908e-13
-1.04119e-12
1.087828e-12
-1.55827e-12
1.723102e-12