/*--------------------------------*- C++ -*----------------------------------*\
| =========                 |                                                 |
| \\      /  F ield         | OpenFOAM: The Open Source CFD Toolbox           |
|  \\    /   O peration     | Version:  2406                                  |
|   \\  /    A nd           | Website:  www.openfoam.com                      |
|    \\/     M anipulation  |                                                 |
\*---------------------------------------------------------------------------*/
FoamFile
{
    version     2.0;
    format      ascii;
    arch        "LSB;label=32;scalar=64";
    class       surfaceScalarField;
    location    "2.18";
    object      phi;
}
// * * * * * * * * * * * * * * * * * * * * * * * * * * * * * * * * * * * * * //

dimensions      [0 3 -1 0 0 0 0];

oriented        oriented;

internalField   nonuniform List<scalar> 
326221
(
-0.001924547
-0.004433338
0.006357885
-0.0009735325
-0.0009510147
0.0004246414
-0.001398174
-0.001042052
0.001466693
-0.001221229
0.0001791767
-0.0001539054
-0.001067323
9.966732e-05
-0.0002535728
0.0002520085
-0.0001523411
0.0003304238
-7.841537e-05
0.0001395144
0.0001909095
8.395869e-05
5.555566e-05
0.0002208168
-0.0001368581
0.0004397183
-0.0002189015
0.0008560897
-0.0004163714
0.00105235
-0.0001962606
0.000737626
0.0003147243
-7.877115e-06
0.0007455031
-0.0007899161
0.000782039
-0.001323989
0.0005340724
-0.001664694
0.0003407055
-0.001972079
0.0003073851
-0.002331697
0.0003596178
-0.00259972
0.0002680233
-0.002557698
-4.20223e-05
-0.002276583
-0.0002811153
-0.001797516
-0.0004790662
-0.001179933
-0.0006175829
-0.0004989013
-0.0006810321
0.0004526252
-0.0009515266
0.001401296
-0.0009486712
0.002549889
-0.001148592
0.00376914
-0.001219251
0.004973962
-0.001204823
0.005748714
-0.0007747513
0.005737878
1.083568e-05
0.004989943
0.0007479355
0.003977427
0.001012516
0.003009957
0.0009674702
0.002086713
0.0009232438
0.0009590009
0.001127712
-0.0005063395
0.00146534
-0.001589264
0.001082924
-0.000820374
-0.0007688895
-7.824565e-05
-0.0007421284
-0.001118498
0.001040253
-0.001996815
0.0008783164
-0.0002243293
-0.001772485
0.001755216
-0.001979546
0.002148828
-0.0003936118
-0.002599739
0.004748567
-0.002217506
-0.0003822328
-0.001518361
-0.0006991443
-0.001057714
-0.0004606478
-0.0006246635
-0.0004330501
-0.0002398925
-0.000384771
0.0001694933
-0.0004093858
0.0005336075
-0.0003641142
0.0008119601
-0.0002783526
0.001084198
-0.0002722382
0.001320418
-0.0002362198
0.001555071
-0.0002346532
0.00177424
-0.000219169
0.001933801
-0.0001595609
0.002064936
-0.0001311347
0.002178582
-0.0001136463
0.002278236
-9.965405e-05
0.002372601
-9.436503e-05
0.002473472
-0.0001008711
0.002577548
-0.000104076
0.002684649
-0.0001071003
0.002803761
-0.0001191123
0.002928743
-0.000124982
0.003047298
-0.0001185548
0.003143727
-9.642901e-05
0.003210797
-6.707023e-05
0.003252562
-4.17648e-05
0.003290863
-3.830102e-05
0.003336164
-4.530149e-05
0.003386021
-4.985687e-05
0.003446608
-6.058723e-05
0.003488386
-4.17779e-05
0.003503165
-1.477842e-05
0.003508022
-4.857498e-06
0.003426126
8.189608e-05
0.003427823
-1.697005e-06
0.003427869
-4.626107e-08
0.003424958
2.911797e-06
0.003462008
-3.705043e-05
0.003509614
-4.76063e-05
0.003571458
-6.184326e-05
0.003665365
-9.390755e-05
0.003745801
-8.043618e-05
0.003842255
-9.645338e-05
0.003949985
-0.0001077301
0.004049421
-9.943567e-05
0.004132908
-8.348743e-05
0.004201021
-6.811296e-05
0.004259062
-5.804084e-05
0.004289973
-3.091115e-05
0.004279087
1.088543e-05
0.0042238
5.528726e-05
0.004126936
9.686435e-05
0.003995211
0.0001317247
0.00382928
0.0001659314
0.003626801
0.0002024789
0.0033781
0.0002487009
0.003063341
0.0003147589
0.002660092
0.0004032496
0.002111325
0.0005487665
0.001361579
0.0007497465
0.0004366199
0.0009249588
-0.0002848335
0.0007214534
-0.0005831316
0.000298298
-0.001221319
0.0006381879
-0.002411435
0.001190115
-0.002696308
0.0002848732
-0.001847925
-0.0008483825
-0.0008424868
-0.001005439
0.000269924
-0.001112411
0.001441209
-0.001171285
0.001314166
0.0001270429
-0.001019365
0.002333531
-0.002726641
0.001707276
-0.002420232
-0.0003064085
-0.001539242
-0.0008809906
-0.0007406059
-0.0007986359
-0.0001039771
-0.0006366287
0.00047121
-0.0005751871
0.001001364
-0.0005301542
0.001125862
-0.0001244979
0.0009142179
0.0002116443
0.0009060171
8.20078e-06
0.0007863647
0.0001196524
0.0001017812
0.0006845835
-2.263094e-05
0.0001244121
0.0003819763
-0.0004046073
-4.55084e-05
0.0004274847
-0.0005788831
0.0005333747
-0.000172735
-0.0004061481
0.0005474945
-0.0007202295
0.001547364
-0.0009998691
0.002626922
-0.001079558
0.003539257
-0.000912335
0.004146033
-0.0006067759
0.004006859
0.0001391736
0.002431935
0.001574924
0.0002171199
0.002214815
-0.000838022
0.001055142
-0.001342705
0.0005046831
-0.00242976
0.001087055
-0.0008825263
-0.001547234
0.0004792197
-0.001361746
-5.150253e-06
0.0004843699
-0.001308774
0.001303624
-0.002117084
0.0008083092
-0.002034851
-8.22324e-05
-0.001908744
-0.0001261077
-0.001944047
3.53032e-05
-0.001656202
-0.0002878451
-0.0007877021
-0.0008684996
0.0003632926
-0.001150995
0.001389458
-0.001026165
0.002658591
-0.001269133
0.003771569
-0.001112978
0.00434513
-0.000573561
0.004680981
-0.0003358504
0.004754115
-7.313441e-05
0.004623673
0.0001304416
0.004505206
0.0001184676
0.004444789
6.041666e-05
0.004307347
0.0001374419
0.003802076
0.000505271
0.00234269
0.001459386
0.0002439067
0.002098783
-0.001138921
0.001382827
-0.000837005
-0.0003019157
-0.0007159289
-0.0001210762
-0.001939168
0.001223239
-0.002579532
0.0006403643
-0.001449109
-0.001130423
6.901951e-05
-0.001518128
0.0004857804
-0.0004167609
-0.0008044985
0.001290279
-0.001897592
0.001093094
-0.001167452
-0.0007301395
-0.0004617952
-0.0007056573
-0.0003020218
-0.0001597734
-0.0003939936
9.197183e-05
-0.0004828246
8.883098e-05
-0.0003281358
-0.0001546888
7.499842e-06
-0.0003356357
0.0001373132
-0.0001298134
-0.0003539997
0.000491313
-0.0007903577
0.0004363579
0.0005205524
-0.00131091
0.001600484
-0.001079931
0.0005594151
0.001041068
0.001784545
-0.00122513
0.002668493
-0.000883948
-0.007109535
0.009778028
-0.007374975
0.0002654402
-0.00630459
-0.001070385
-0.005912363
-0.0003922273
-0.00550974
-0.0004026231
-0.005209488
-0.0003002514
-0.004935534
-0.000273954
-0.004697883
-0.000237651
-0.004383887
-0.0003139967
-0.00421999
-0.0001638966
-0.004078346
-0.0001416442
-0.003947967
-0.0001303789
-0.003831443
-0.0001165245
-0.003719123
-0.0001123191
-0.003612459
-0.0001066643
-0.003511031
-0.0001014285
-0.003419788
-9.124309e-05
-0.003335291
-8.449618e-05
-0.003254297
-8.09949e-05
-0.003174709
-7.958758e-05
-0.003100532
-7.41772e-05
-0.00302915
-7.13822e-05
-0.002962071
-6.707832e-05
-0.002900968
-6.11033e-05
-0.002839225
-6.174336e-05
-0.002778036
-6.118824e-05
-0.002716555
-6.148158e-05
-0.002658762
-5.779254e-05
-0.002605901
-5.286154e-05
-0.002557137
-4.876372e-05
-0.002506662
-5.047474e-05
-0.00245712
-4.954242e-05
-0.002405198
-5.192166e-05
-0.002358595
-4.660308e-05
-0.002314698
-4.389741e-05
-0.002269387
-4.531078e-05
-0.002223824
-4.556312e-05
-0.002177445
-4.637838e-05
-0.00213491
-4.253558e-05
-0.002094748
-4.016138e-05
-0.002122769
2.802055e-05
-0.002094573
-2.819621e-05
-0.002062225
-3.234758e-05
-0.002029437
-3.278852e-05
-0.001999629
-2.980766e-05
-0.001968527
-3.110196e-05
-0.001939379
-2.914773e-05
-0.001910795
-2.858427e-05
-0.001882383
-2.841169e-05
-0.001849831
-3.255209e-05
-0.001816569
-3.326234e-05
-0.001785692
-3.087659e-05
-0.001756263
-2.94297e-05
-0.00172787
-2.839267e-05
-0.001695534
-3.233612e-05
-0.001660791
-3.474266e-05
-0.001623791
-3.700038e-05
-0.00158584
-3.795119e-05
-0.001540244
-4.559548e-05
-0.001485251
-5.499272e-05
-0.001414448
-7.080301e-05
-0.001322468
-9.198024e-05
-0.001195295
-0.0001271732
-0.001010336
-0.000184959
-0.0007266476
-0.0002836884
-0.0003086919
-0.0004179557
0.0002113098
-0.0005200017
0.000709308
-0.0004979982
0.000790981
-8.167297e-05
0.0005229289
0.000268052
-0.0002314159
0.0007543449
-0.002074076
0.00184266
-0.0007699865
-0.001304089
0.0004603806
-0.001230367
0.0006729162
-0.0002125356
0.0006891843
-1.626813e-05
0.0007515951
-6.241085e-05
0.0008351219
-8.35268e-05
0.000903412
-6.82901e-05
0.0009513066
-4.789459e-05
0.0009955932
-4.428662e-05
0.001048862
-5.326912e-05
0.001094442
-4.558004e-05
0.001132713
-3.827074e-05
0.001161963
-2.924944e-05
0.001188407
-2.644485e-05
0.00121227
-2.386217e-05
0.001237242
-2.497218e-05
0.001260198
-2.29565e-05
0.001277929
-1.773087e-05
0.001294989
-1.706015e-05
0.001314536
-1.954649e-05
0.001331994
-1.745865e-05
0.001347689
-1.569443e-05
0.001366367
-1.867821e-05
0.001381666
-1.529867e-05
0.001401762
-2.00958e-05
0.001425497
-2.373562e-05
0.001443285
-1.778763e-05
0.001457516
-1.423134e-05
0.001473277
-1.576078e-05
0.001491541
-1.826396e-05
0.001503868
-1.232755e-05
0.001476401
2.74678e-05
0.001499812
-2.34112e-05
0.001529411
-2.959936e-05
0.001558627
-2.921561e-05
0.001587829
-2.920182e-05
0.001619276
-3.144722e-05
0.001648476
-2.919978e-05
0.001674619
-2.614381e-05
0.00170319
-2.85711e-05
0.001736035
-3.284478e-05
0.001771673
-3.563819e-05
0.001801684
-3.001012e-05
0.001829745
-2.80617e-05
0.001860497
-3.07521e-05
0.001894048
-3.355107e-05
0.001928409
-3.436073e-05
0.001967072
-3.866297e-05
0.002007078
-4.000633e-05
0.002046914
-3.983587e-05
0.002087447
-4.053269e-05
0.002124897
-3.744989e-05
0.002170849
-4.595165e-05
0.002219391
-4.85421e-05
0.002269463
-5.007217e-05
0.002323325
-5.386195e-05
0.002378718
-5.539313e-05
0.002440774
-6.205634e-05
0.00250924
-6.846538e-05
0.002578543
-6.930331e-05
0.002654145
-7.560231e-05
0.002741492
-8.734689e-05
0.002846502
-0.0001050097
0.003050804
-0.0002043019
0.003199803
-0.0001489992
0.003370158
-0.0001703552
0.003562548
-0.0001923895
0.003811599
-0.0002490516
0.004067294
-0.0002556948
0.004690909
-0.0006236147
0.0002575706
-0.001012449
0.002214154
-0.002505794
-8.303197e-05
-0.002159785
0.0002049788
-0.0005005464
0.0006106643
-0.0004219536
0.0009055344
-0.0003572809
0.001148483
-0.0003264751
0.00134158
-0.0002613879
0.001496391
-0.0002027048
0.001632856
-0.0001807518
0.001768665
-0.0001890779
0.001892406
-0.0001693213
0.002006835
-0.0001526998
0.002109545
-0.0001319594
0.002206029
-0.0001229287
0.002295213
-0.0001130461
0.002381797
-0.0001115565
0.00246372
-0.0001048795
0.002539388
-9.339869e-05
0.002611118
-8.878979e-05
0.002682184
-9.061245e-05
0.002749607
-8.488183e-05
0.002813289
-7.937646e-05
0.002877717
-8.31067e-05
0.002937269
-7.485011e-05
0.002998613
-8.143965e-05
0.003060956
-8.607916e-05
0.003119597
-7.642851e-05
0.003173895
-6.852896e-05
0.003228762
-7.062842e-05
0.003283366
-7.286822e-05
0.003335703
-6.466395e-05
0.003314904
4.826678e-05
0.003375329
-8.383676e-05
0.003438774
-9.304378e-05
0.003501753
-9.219508e-05
0.003564571
-9.201967e-05
0.003628313
-9.518947e-05
0.003691116
-9.20026e-05
0.003750751
-8.577833e-05
0.003812397
-9.021715e-05
0.003875218
-9.566554e-05
0.0039415
-0.0001019205
0.004002986
-9.149573e-05
0.004064197
-8.927332e-05
0.004125978
-9.253342e-05
0.004190115
-9.76875e-05
0.004254141
-9.838717e-05
0.004321611
-0.000106133
0.004390487
-0.0001088821
0.004459357
-0.0001087061
0.004529982
-0.0001111574
0.004597522
-0.0001049893
0.004672288
-0.0001207185
0.004747625
-0.0001238791
0.004826075
-0.000128522
0.004906305
-0.000134092
0.004989401
-0.0001384889
0.005076672
-0.0001493271
0.005170262
-0.0001620556
0.005264491
-0.0001635327
0.005364982
-0.0001760929
0.005474794
-0.0001971591
0.005599404
-0.0002296193
0.005878953
-0.000483851
0.006048105
-0.0003181516
0.006242968
-0.0003652178
0.006455161
-0.0004045822
0.006736107
-0.0005299984
0.006977537
-0.0004971248
0.007704867
-0.001350945
0.007007958
0.0009544802
-0.01119274
0.0104632
0.000994978
-0.01001969
-0.00224343
-0.00962728
-0.0007846399
-0.009192566
-0.0008373368
-0.008869214
-0.0006236035
-0.008568693
-0.0005744753
-0.008311121
-0.0004952229
-0.007902504
-0.0007226137
-0.007713667
-0.000352733
-0.007545352
-0.0003099595
-0.00738635
-0.0002893807
-0.007240145
-0.0002627296
-0.00709701
-0.000255454
-0.006960603
-0.0002430712
-0.006827417
-0.0002346144
-0.006704208
-0.0002144523
-0.006584467
-0.0002042378
-0.00646984
-0.0001956211
-0.00635507
-0.0001943581
-0.006246199
-0.000183048
-0.006138494
-0.0001790874
-0.006034962
-0.0001706101
-0.005935501
-0.0001605639
-0.005835946
-0.0001612983
-0.005737707
-0.0001594278
-0.005638939
-0.0001602495
-0.005543833
-0.0001528985
-0.0054507
-0.0001459951
-0.005361444
-0.0001380197
-0.00526898
-0.0001429386
-0.005178927
-0.0001395954
-0.005085361
-0.0001454873
-0.004996361
-0.000135603
-0.004907357
-0.0001329014
-0.004817449
-0.0001352189
-0.004726351
-0.0001366615
-0.004634338
-0.000138391
-0.004544275
-0.0001325991
-0.004454283
-0.0001301527
-0.004473106
4.684374e-05
-0.004395164
-0.0001061384
-0.004317218
-0.000110294
-0.004237217
-0.0001127896
-0.004160075
-0.0001069494
-0.004080056
-0.0001111209
-0.004001666
-0.000107538
-0.003921698
-0.0001085518
-0.003841433
-0.0001086772
-0.003756677
-0.0001173075
-0.00367073
-0.0001192094
-0.003584423
-0.0001171842
-0.003496141
-0.0001177112
-0.003405278
-0.0001192555
-0.003306859
-0.0001307555
-0.003202429
-0.0001391729
-0.003089915
-0.0001495145
-0.002970605
-0.0001572603
-0.002837168
-0.0001790328
-0.002688979
-0.0002031822
-0.002518332
-0.0002414496
-0.002319638
-0.0002906747
-0.00207776
-0.0003690504
-0.001773539
-0.0004891801
-0.001375175
-0.0006820522
-0.000858944
-0.0009341872
-0.0002282645
-0.001150681
0.0003654303
-0.001091693
0.0007008028
-0.0004170455
0.0005679518
0.0004009031
-0.0003904108
0.001712707
0.003666403
-0.0007879403
0.002279859
-0.003039152
0.0009208057
-0.003070492
0.0008473274
0.0005578481
-0.0007656808
0.002916632
-0.003041189
0.003083817
-0.003720907
0.0005974856
-0.003621577
-0.000225438
-0.003556908
-2.936496e-05
-0.003006912
-0.0008378412
-0.001666992
-0.00220842
-7.780718e-06
-0.002810206
0.00148697
-0.002520916
0.003173803
-0.002955966
0.004663354
-0.002602529
0.005481212
-0.00139142
0.00597481
-0.0008294484
0.006201947
-0.0003002713
0.006222492
0.0001098968
0.006231592
0.0001093672
0.006288532
3.476942e-06
0.006347199
7.877509e-05
0.006365808
0.0004866621
0.005559542
0.002265652
0.003264236
0.004394089
0.0002297967
0.004417267
-0.00152784
0.001455721
-0.002184709
0.0005357929
-0.003288561
0.002327091
-0.003499464
0.0008512666
-0.002019307
-0.00261058
-0.0001792955
-0.00335814
-0.0001039739
-0.0004920824
-0.001883727
0.003070032
-0.002484248
0.001693614
-0.001256178
-0.001958209
-0.0006307653
-0.00133107
-0.0005326751
-0.0002578636
-0.0007193835
0.0002786802
-0.0007916417
0.0001610892
-0.0005380622
-0.0004082683
-0.000235475
-0.0006382228
-0.0002675589
-9.772947e-05
-0.000777577
0.001001331
-0.0008745771
0.0005333581
0.00085006
-0.003035547
0.002354458
-0.002584329
0.002378683
0.001016844
0.003226974
-0.002073421
0.0006444139
0.001698612
0.02088564
-0.002755379
0.002785682
-0.0004125354
-0.00209555
-0.001358974
-0.001417743
-0.001138454
-0.0008744399
-0.0009763533
-0.0003608231
-0.0008983879
0.000149561
-0.0009197699
0.0006350059
-0.0008495591
0.001037273
-0.0006806198
0.001431696
-0.0006666611
0.001787813
-0.0005923372
0.002140183
-0.0005870228
0.002482574
-0.0005615601
0.002768822
-0.0004458087
0.003022415
-0.0003847278
0.003251045
-0.0003422765
0.003457312
-0.0003059207
0.003648551
-0.0002856043
0.00383661
-0.0002889297
0.004020466
-0.0002879324
0.0042003
-0.0002869339
0.004386289
-0.0003051014
0.004578095
-0.0003167878
0.004774276
-0.0003147366
0.004974503
-0.0002966559
0.005182535
-0.0002751016
0.005397724
-0.0002569536
0.00562447
-0.0002650478
0.005861528
-0.0002823591
0.006105987
-0.0002943161
0.006369446
-0.0003240456
0.006642847
-0.0003151791
0.006924537
-0.0002964685
0.007191156
-0.0002714768
0.007190861
8.219083e-05
0.007123934
6.523003e-05
0.006845567
0.0002783209
0.006487081
0.0003613978
0.006225471
0.0002245601
0.006085399
9.246494e-05
0.006046106
-2.255005e-05
0.006091657
-0.0001394586
0.006162409
-0.000151188
0.006276702
-0.0002107464
0.006419428
-0.0002504557
0.00656339
-0.0002433976
0.006696679
-0.0002167768
0.006821723
-0.000193157
0.00695534
-0.0001916579
0.007092805
-0.0001683757
0.007231011
-0.0001273212
0.007361427
-7.512792e-05
0.007459944
-1.652843e-06
0.007507684
8.398505e-05
0.007495207
0.0001784082
0.007422358
0.0002753279
0.007289722
0.0003813363
0.007090072
0.0005144091
0.006806636
0.0006866854
0.006375578
0.0009798243
0.005674786
0.001450539
0.004568406
0.002031339
0.0029482
0.002341659
0.0005922686
0.00265423
-0.001552739
0.002783195
-0.001999682
0.001637059
-0.00111791
-0.0005968995
1.133865e-05
-0.001977631
0.0007363362
-0.001730436
0.00135879
-0.001734865
0.002203382
-0.002015876
0.001097008
0.001233416
-0.001932624
0.005363163
-0.003113184
0.002887836
-0.002274573
-0.001145019
-0.001199963
-0.0019556
-0.0003046528
-0.001693946
0.0003872629
-0.001328544
0.0009887592
-0.001176683
0.001576827
-0.001118223
0.00161019
-0.0001578601
0.001173392
0.0006484416
0.001215686
-3.409284e-05
0.001152829
0.0001825098
0.0001578485
0.001679564
-0.0001830232
0.0004652838
-1.758908e-06
-0.0005858716
-0.0005531488
0.0009788746
-0.0007642291
0.000744455
4.404519e-05
-0.001214422
0.0009300637
-0.001606248
0.002146143
-0.002215948
0.003428353
-0.002361768
0.004529943
-0.002013925
0.005260979
-0.001337813
0.005677353
-0.0002771996
0.005065255
0.002187021
0.002169504
0.005110567
-0.0007297097
0.003954356
-0.001658806
0.00143378
0.001708108
-0.0006255357
0.01399138
-0.00195432
0.00037777
-0.001065058
-0.002287436
-0.00196047
0.002362106
-0.001741795
-3.949878e-05
-0.0003717406
-0.002437378
-1.099103e-06
-0.0006242143
0.0001892474
-0.0003426876
0.0004828162
-0.0003719842
0.0003877923
0.0002859334
0.0001803453
0.0002630026
0.0002038444
-0.0001603573
0.0004375089
-0.000452566
0.0008438472
-0.0008227096
0.0009639747
-0.0003163881
0.0001746971
0.001104002
-0.001185144
0.002105345
-0.002081602
0.001678497
-0.002488865
0.0009413349
-0.002798938
0.0006507787
-0.00316556
0.0006740074
-0.003495553
0.0006896101
-0.003587492
0.0003599631
-0.00336289
-0.0002666243
-0.002934487
-0.0007095189
-0.002268465
-0.001145088
-0.001448392
-0.001437655
-0.0005512473
-0.001578177
0.0006565023
-0.002159276
0.00187707
-0.002169239
0.003314177
-0.0025857
0.004807437
-0.00271251
0.006239726
-0.002637111
0.007449834
-0.00198486
0.008487798
-0.001027129
0.009022378
0.0002133563
0.00864224
0.001392653
0.00731636
0.002293351
0.005405292
0.002834312
0.003219241
0.003313762
0.0006034433
0.004081139
-0.001544809
0.003231176
-0.002046756
-0.0002669428
-0.002171854
-0.00061703
-0.002970892
0.001839291
-0.002501261
0.0004086855
-0.0001207673
-0.004152979
0.001698583
-0.003798896
0.001685657
-0.0003806861
0.009219906
0.001021379
-0.009011727
0.02198173
-0.002194495
0.003593644
-0.002120379
-0.002361553
-0.002645261
0.002886989
-0.002164673
-0.0005200867
-0.0007193003
-0.003882751
-0.0002707352
-0.001072779
1.371377e-05
-0.0006271366
0.0004560359
-0.0008143063
0.0005036069
0.0002383624
0.0002328215
0.000533788
0.000152039
-7.957477e-05
0.0002523145
-0.0005528415
0.0002588051
-0.0008292002
-0.0001156853
5.810238e-05
-0.001209216
0.002197533
-0.00230822
0.003204348
-0.002817446
0.002187724
-0.003092295
0.001216184
-0.003446324
0.001004807
-0.003887625
0.001115309
-0.004276683
0.001078667
-0.004404479
0.0004877598
-0.004147623
-0.0005234803
-0.003616345
-0.001240797
-0.002812743
-0.00194869
-0.001849942
-0.002400457
-0.0007859304
-0.002642189
0.0006829149
-0.003628121
0.002172694
-0.003659018
0.00391762
-0.004330626
0.005743025
-0.004537915
0.00750784
-0.004401927
0.008910265
-0.003387285
0.0100371
-0.002153969
0.01094237
-0.0006919109
0.01129485
0.001040178
0.01047033
0.003117866
0.008289815
0.005014828
0.005311737
0.00629184
0.002081849
0.007311027
-0.0009637241
0.006276749
-0.002920785
0.001690119
-0.003630491
9.267514e-05
-0.003876453
0.002085253
-0.002677777
-0.0007899901
2.984359e-05
-0.0068606
0.002091789
-0.005860842
0.001318466
0.0003926367
-0.003472539
0.01401091
-0.003576287
-0.0003087874
-0.00274985
-0.002185411
-0.001925816
-0.001962488
-0.001213143
-0.001689026
-0.0005564436
-0.001555087
6.947195e-05
-0.001545685
0.0006812942
-0.001461381
0.001189247
-0.001188573
0.001676678
-0.001154092
0.00211232
-0.00102798
0.002540739
-0.001015441
0.00296075
-0.0009815708
0.003311903
-0.0007969617
0.003621573
-0.0006943979
0.003899002
-0.0006197062
0.004149071
-0.000555989
0.004379648
-0.000516182
0.004605508
-0.0005147892
0.004824879
-0.0005073029
0.005036908
-0.0004989631
0.005254465
-0.0005226586
0.005479167
-0.0005414894
0.005713978
-0.0005495483
0.005961709
-0.0005443867
0.006226742
-0.0005401345
0.006503475
-0.0005336868
0.006793517
-0.0005550894
0.007095726
-0.000584568
0.007409091
-0.0006076811
0.00774909
-0.0006640454
0.008098945
-0.0006650332
0.008450079
-0.0006476034
0.008847561
-0.0006689582
0.009088122
-0.0001583705
0.009437904
-0.0002845517
0.00962081
9.541434e-05
0.009575829
0.0004063797
0.009352925
0.0004474632
0.008982381
0.0004630096
0.008574033
0.0003857978
0.008261155
0.0001734192
0.008054658
5.530886e-05
0.007991951
-0.0001480395
0.00803488
-0.0002933843
0.008132683
-0.0003412008
0.00825429
-0.0003383839
0.008388735
-0.0003276024
0.008549403
-0.0003523258
0.008726768
-0.0003457406
0.008910999
-0.000311552
0.009087881
-0.0002520105
0.009236706
-0.0001504769
0.009345892
-2.520137e-05
0.009403909
0.0001203916
0.009408534
0.0002707021
0.00936228
0.0004275902
0.009267955
0.0006087344
0.009137675
0.0008169652
0.008963008
0.001154492
0.008703366
0.001710181
0.008211151
0.002523555
0.007124402
0.003428407
0.00469289
0.005085742
0.001636244
0.005839842
0.0007519736
0.002521329
0.001951789
-0.001796715
0.003215247
-0.003241089
0.003742177
-0.002257366
0.0035143
-0.001506987
0.002996447
-0.001498024
0.0006408664
0.003588997
-0.002247579
0.008251608
-0.003030476
0.003670733
-0.002080909
-0.002094586
-0.0006895231
-0.003346986
0.0004722539
-0.002855723
0.001147824
-0.002004115
0.001560732
-0.001589591
0.001935261
-0.001492751
0.001825221
-4.782003e-05
0.001393026
0.001080636
0.001534898
-0.0001759646
0.001469739
0.0002476682
0.000431543
0.00271776
-0.0002058488
0.001102676
-0.0005061461
-0.0002855743
-0.001057248
0.001529977
-0.0008477026
0.0005349094
0.0002200936
-0.002282219
0.001352727
-0.002738882
0.002869638
-0.00373286
0.004439359
-0.003931489
0.00576886
-0.003343425
0.006629133
-0.002198086
0.006972355
-0.0006204215
0.006701832
0.002457545
0.004247202
0.007565196
-0.0002629424
0.0084645
-0.002551354
0.003722191
-0.002713221
0.001869974
-0.0008852392
-0.004867134
0.001146943
-0.005102674
0.001393856
0.0003109353
-1.950648e-05
0.004329995
-0.003216135
0.006280446
-0.00507251
0.002453861
-0.005253142
-4.480596e-05
-0.004920045
-0.0003624628
-0.003799513
-0.001958372
-0.001869964
-0.004137969
0.0002484996
-0.00492867
0.002113435
-0.004385851
0.004132035
-0.004974566
0.005987734
-0.004458227
0.007065538
-0.002469224
0.007714601
-0.001478511
0.007980776
-0.0005664465
0.00796863
0.0001220425
0.007942201
0.000135797
0.007981215
-3.553787e-05
0.007993646
6.634458e-05
0.008002498
0.0004778102
0.007652996
0.002615154
0.006283729
0.005763356
0.00295747
0.007743526
-0.0007043519
0.005117543
-0.002754135
0.002585576
-0.003879054
0.003452011
-0.004084772
0.001056984
-0.002643227
-0.004052124
-0.001082666
-0.004918701
-0.001246018
-0.0003287303
-0.00258289
0.004406903
-0.002486073
0.001596797
-0.0009633168
-0.003480966
-0.0003986617
-0.001895725
-0.0003652471
-0.0002912782
-0.0006145718
0.0005280049
-0.0007239571
0.0002704745
-0.0004647044
-0.0006675211
-0.0002299325
-0.0008729947
-0.0004267534
9.909151e-05
-0.000934829
0.001509407
-0.0007566524
0.0003551815
0.001278714
-0.005070914
0.002888748
-0.004194363
0.003106778
0.0007988134
0.003241285
-0.002207928
-0.001629351
0.006569248
-0.01303781
0.0322941
-0.01368743
0.001644599
-0.01252223
-0.003408623
-0.01200883
-0.001298045
-0.0115221
-0.001324062
-0.01115764
-0.0009880705
-0.01082404
-0.0009080716
-0.01054435
-0.000774912
-0.01007417
-0.001192799
-0.009866468
-0.0005604309
-0.009678864
-0.0004975639
-0.009501087
-0.0004671582
-0.009336817
-0.0004269989
-0.009175162
-0.0004171095
-0.009020926
-0.0003973071
-0.008869229
-0.0003863116
-0.008727919
-0.0003557616
-0.008589088
-0.0003430694
-0.008455846
-0.000328863
-0.0083216
-0.0003286041
-0.008193656
-0.0003109923
-0.008066112
-0.0003066313
-0.007942525
-0.0002941966
-0.007822771
-0.0002803184
-0.00770254
-0.0002815291
-0.007583931
-0.0002780365
-0.007464317
-0.0002798633
-0.007348375
-0.0002688405
-0.007233301
-0.0002610699
-0.00712214
-0.0002491807
-0.007006511
-0.0002585673
-0.006894064
-0.0002520426
-0.006776883
-0.0002626677
-0.006664444
-0.0002480427
-0.006550906
-0.0002464388
-0.00643611
-0.0002500153
-0.006319772
-0.0002529995
-0.006201894
-0.0002562688
-0.006085005
-0.0002494885
-0.005965853
-0.0002493041
-0.005984778
6.576866e-05
-0.005878349
-0.000212568
-0.005777405
-0.0002112374
-0.005673611
-0.0002165835
-0.005573723
-0.0002068375
-0.005470409
-0.0002144352
-0.005369579
-0.0002083679
-0.005266935
-0.0002111962
-0.005164584
-0.0002110277
-0.005057532
-0.0002243597
-0.004949821
-0.0002269203
-0.004841924
-0.0002250811
-0.004731641
-0.0002279943
-0.004618586
-0.0002323106
-0.004497087
-0.0002522545
-0.004369472
-0.0002667877
-0.004233023
-0.0002859637
-0.004089643
-0.0003006409
-0.003930674
-0.0003380011
-0.003756605
-0.000377251
-0.003558663
-0.0004393923
-0.003330693
-0.0005186446
-0.00305342
-0.0006463237
-0.002702342
-0.0008402577
-0.002240357
-0.001144037
-0.001642519
-0.001532026
-0.0009019496
-0.00189125
-0.0001994478
-0.001794195
0.0003536666
-0.0009701598
0.0001759515
0.0005786181
-0.001160545
0.003049203
-0.002768606
0.005274465
-0.001417693
-0.003856708
-0.0003194291
-0.003258048
0.0002353881
-0.001055364
0.0007453796
-0.0009319451
0.001108964
-0.0007208648
0.001412996
-0.0006305075
0.001657895
-0.0005062866
0.001855906
-0.0004007162
0.002029946
-0.0003547919
0.002204656
-0.0003637878
0.00236584
-0.0003305052
0.002517261
-0.0003041212
0.00265457
-0.0002692676
0.002784936
-0.0002532948
0.002906656
-0.000234766
0.003025553
-0.0002304536
0.003139548
-0.0002188746
0.003246401
-0.0002002524
0.003348704
-0.0001910923
0.003450176
-0.000192084
0.003547642
-0.000182348
0.003640465
-0.0001721999
0.003734447
-0.0001770889
0.003821984
-0.0001623867
0.003911003
-0.0001704583
0.004000873
-0.0001759493
0.004086962
-0.0001625182
0.004168315
-0.0001498818
0.004250138
-0.0001524515
0.004330435
-0.0001531652
0.004414545
-0.0001487734
0.004406487
5.632489e-05
0.004495672
-0.0001730221
0.004585475
-0.0001828467
0.004673205
-0.0001799252
0.00476014
-0.0001789548
0.004847509
-0.0001825583
0.004934046
-0.0001785396
0.005016859
-0.0001685917
0.005101429
-0.0001747868
0.005185785
-0.000180022
0.005274055
-0.0001901898
0.005357105
-0.0001745464
0.005440267
-0.0001724351
0.005523214
-0.0001754807
0.005608274
-0.0001827473
0.005692401
-0.0001825141
0.005779695
-0.0001934265
0.00586809
-0.0001972776
0.005956146
-0.0001967619
0.006046562
-0.0002015739
0.00613281
-0.0001912371
0.006226486
-0.0002143944
0.006319412
-0.0002168052
0.006415678
-0.0002247874
0.006513059
-0.0002314734
0.006613062
-0.0002384918
0.006716454
-0.0002527188
0.006826049
-0.0002716511
0.006935718
-0.000273202
0.007051261
-0.0002916355
0.007176219
-0.0003221166
0.007312257
-0.0003656574
0.007634259
-0.0008058534
0.007815612
-0.0004995045
0.008028558
-0.0005781642
0.008262912
-0.0006389361
0.00857394
-0.0008410263
0.008874857
-0.0007980416
0.009603148
-0.002079235
0.001545901
-0.00179984
0.003369925
-0.005426793
-0.0006187391
-0.004439149
0.0002179519
-0.001892055
0.0008262957
-0.001540289
0.001252129
-0.001146698
0.001619319
-0.000997698
0.001920145
-0.0008071122
0.002165942
-0.0006465134
0.002380877
-0.000569727
0.002595438
-0.0005783485
0.002792817
-0.0005278843
0.002979264
-0.000490568
0.00314895
-0.0004389538
0.003310262
-0.0004146066
0.003461021
-0.0003855254
0.003607948
-0.0003773809
0.003749427
-0.0003603536
0.003881936
-0.0003327613
0.004009263
-0.0003184192
0.0041352
-0.0003180213
0.004256351
-0.0003034988
0.004371824
-0.0002876729
0.004488902
-0.0002941669
0.004597743
-0.0002712276
0.004708471
-0.0002811857
0.004820241
-0.0002877194
0.004927016
-0.0002692933
0.0050289
-0.0002517664
0.005130872
-0.0002544229
0.005230952
-0.0002532451
0.005336242
-0.0002540641
0.005333251
5.931597e-05
0.005441885
-0.0002816554
0.005553451
-0.0002944128
0.005661168
-0.000287642
0.005768002
-0.000285789
0.005875418
-0.000289975
0.005981526
-0.0002846468
0.006083334
-0.0002703998
0.006186964
-0.0002784175
0.006290292
-0.0002833495
0.006398096
-0.0002979942
0.006499662
-0.0002761119
0.006601346
-0.0002741194
0.006702904
-0.0002770389
0.00680654
-0.0002863834
0.006908975
-0.000284949
0.007015202
-0.0002996529
0.007122415
-0.0003044904
0.00722928
-0.0003036269
0.007339033
-0.0003113275
0.007443287
-0.0002954904
0.007556934
-0.0003280423
0.007668807
-0.0003286781
0.007784448
-0.0003404281
0.007901711
-0.0003487359
0.00802104
-0.000357821
0.008144994
-0.0003766735
0.008275479
-0.0004021359
0.008405745
-0.0004034682
0.008542834
-0.0004287239
0.008690932
-0.0004702144
0.009036165
-0.0007108912
0.009233733
-0.00100342
0.009445217
-0.0007109889
0.009696616
-0.0008295634
0.009981646
-0.0009239662
0.01034967
-0.001209048
0.01077182
-0.001220197
0.01144648
-0.002753896
0.01112539
0.001866996
-0.01631851
0.01598908
0.00197403
-0.01522011
-0.004507031
-0.01451694
-0.002001213
-0.01394115
-0.00189985
-0.01350019
-0.001429027
-0.01310568
-0.001302582
-0.01277945
-0.00110115
-0.01247692
-0.001495326
-0.01197778
-0.001059571
-0.01175984
-0.0007155057
-0.01155315
-0.0006738485
-0.01136281
-0.0006173398
-0.01117548
-0.0006044359
-0.01099675
-0.0005760378
-0.01082107
-0.000561987
-0.01065716
-0.000519676
-0.01049653
-0.0005036963
-0.01034225
-0.0004831414
-0.01018675
-0.0004841126
-0.0100386
-0.0004591397
-0.009891132
-0.0004540972
-0.009747759
-0.0004375694
-0.009609418
-0.0004186595
-0.009470277
-0.0004206706
-0.009333164
-0.0004151487
-0.009194963
-0.0004180647
-0.009060822
-0.0004029811
-0.008927598