/*--------------------------------*- C++ -*----------------------------------*\
| =========                 |                                                 |
| \\      /  F ield         | OpenFOAM: The Open Source CFD Toolbox           |
|  \\    /   O peration     | Version:  2406                                  |
|   \\  /    A nd           | Website:  www.openfoam.com                      |
|    \\/     M anipulation  |                                                 |
\*---------------------------------------------------------------------------*/
FoamFile
{
    version     2.0;
    format      ascii;
    arch        "LSB;label=32;scalar=64";
    class       volScalarField;
    location    "0.6";
    object      p;
}
// * * * * * * * * * * * * * * * * * * * * * * * * * * * * * * * * * * * * * //

dimensions      [0 2 -2 0 0 0 0];

internalField   nonuniform List<scalar> 
4531
(
-0.0004737968
-4.420155e-05
-0.0001263634
-9.595886e-05
-7.005511e-05
-8.86246e-05
-5.369167e-05
-6.681883e-05
-6.376771e-05
-4.966326e-05
-6.21841e-05
-4.995671e-05
-5.743047e-05
-3.150457e-05
-4.016367e-05
-3.285125e-05
-3.378142e-05
-3.160412e-05
-1.943145e-05
-3.217344e-05
-8.251739e-06
-1.696724e-05
3.964948e-05
-0.0001192293
0.0005493158
-0.0009382488
-0.0001962955
-0.0003073431
-0.0002493234
-0.0002327286
-0.0002180102
-0.0002079715
-0.0001977407
-0.0001860526
-0.0001834453
-0.000176565
-0.0001722981
-0.0001677518
-0.0001651829
-0.0001615867
-0.0001591496
-0.0001571037
-0.0001552237
-0.0001538671
-0.0001525978
-0.0001512491
-0.0001507885
-0.0001497236
-0.000149489
-0.0001492549
-0.0001494299
-0.0001497229
-0.0001503975
-0.0001511358
-0.0001523922
-0.0001534136
-0.0001555244
-0.0001570605
-0.0001589319
-0.0001622835
-0.0001642478
-0.0001681721
-0.0001722812
-0.0001781306
-0.0001827551
-0.0001905649
-0.0001962926
-0.0002103433
-0.0002158424
-0.0002382698
-0.0002411988
-0.0003220151
-0.000177496
-0.000950356
0.000549365
-0.0001200198
4.768707e-05
-1.736529e-05
-3.244021e-06
-2.843852e-05
-1.806728e-05
-3.432934e-05
-2.636137e-05
-4.300954e-05
-4.384374e-05
-4.050518e-05
-5.555414e-05
-4.106376e-05
-5.691699e-05
-5.240602e-05
-7.079762e-05
-5.838731e-05
-7.191212e-05
-6.134619e-05
-8.726595e-05
-9.357341e-05
-0.0001468282
-1.429251e-05
-0.0004677284
0.0005376444
0.0001264279
0.0002013203
0.0001606046
0.0001619042
0.0001523726
0.0001435792
0.0001499743
0.0001411649
0.0001295655
0.0001495152
0.0001441071
0.0001403733
0.0001274567
0.0001437127
0.00014667
0.0001413874
0.0001409995
0.000142206
0.0001468749
0.000138892
0.0001514479
0.0001433476
0.0001563247
0.0001545353
0.0001591393
0.0001629607
0.0001677187
0.0001688389
0.0001821922
0.0001864707
0.0001997418
0.0002174597
0.0002234094
0.0003248333
0.0003330177
0.0002237998
0.0002198386
0.0002016075
0.0001884352
0.0001841389
0.0001712582
0.0001697641
0.000165234
0.0001613551
0.0001567481
0.0001584604
0.000145181
0.0001534058
0.0001405003
0.0001477826
0.0001436518
0.000140618
0.0001411951
0.0001460308
0.0001431533
0.0001269888
0.0001399768
0.0001436136
0.0001487399
0.0001286323
0.000139966
0.0001486417
0.0001418768
0.0001532983
0.0001611506
0.0001654204
0.0002239479
9.344946e-05
0.0005629488
0.0003362329
0.0002281489
0.0002207834
0.000202815
0.0001889907
0.0001845615
0.0001718927
0.0001699233
0.000165413
0.0001615194
0.0001565795
0.0001585462
0.0001453718
0.0001533309
0.0001407308
0.0001474239
0.0001437083
0.0001406967
0.0001410235
0.0001458125
0.0001430087
0.0001270549
0.0001399663
0.0001431166
0.0001481344
0.000128727
0.0001396286
0.0001480873
0.000141782
0.0001528858
0.0001605451
0.0001648475
0.0002215667
9.462759e-05
0.0005380397
0.0005128267
0.0001266982
0.0001997447
0.0001598017
0.0001614182
0.0001518475
0.000143418
0.0001493841
0.0001408142
0.0001296513
0.0001489064
0.0001436125
0.0001403657
0.0001275197
0.0001435536
0.0001464269
0.0001411881
0.0001410399
0.0001422708
0.0001465324
0.0001391308
0.0001513931
0.0001435462
0.0001564199
0.000154382
0.0001593148
0.0001631525
0.0001678817
0.0001694934
0.0001826307
0.0001870305
0.0002009444
0.0002184596
0.0002275116
0.000328508
0.0005052885
-0.0001002772
4.385271e-05
-1.639723e-05
-3.585353e-06
-2.821623e-05
-1.810696e-05
-3.420627e-05
-2.654122e-05
-4.27325e-05
-4.379262e-05
-4.023354e-05
-5.533997e-05
-4.1014e-05
-5.670187e-05
-5.22418e-05
-7.031462e-05
-5.799699e-05
-7.15044e-05
-6.134741e-05
-8.679843e-05
-9.222302e-05
-0.0001449803
-1.491761e-05
-0.0004440433
-0.0008965344
-0.0002211477
-0.0003056605
-0.000251351
-0.0002334653
-0.0002185095
-0.0002083004
-0.0001981287
-0.0001863635
-0.0001835548
-0.0001767085
-0.0001724151
-0.0001678323
-0.0001652277
-0.0001616434
-0.000159189
-0.0001571322
-0.0001552417
-0.0001538715
-0.0001526047
-0.0001512577
-0.0001507879
-0.0001497308
-0.0001494966
-0.0001492632
-0.000149439
-0.0001497321
-0.0001504064
-0.0001511477
-0.0001524039
-0.0001534362
-0.0001555373
-0.0001570814
-0.0001589755
-0.0001623176
-0.0001643247
-0.000168287
-0.0001724262
-0.0001782677
-0.0001829436
-0.000190778
-0.0001966633
-0.0002106489
-0.0002164723
-0.0002387554
-0.0002436677
-0.000319626
-0.0002027885
-0.0009096488
-0.0004491889
-4.427712e-05
-0.000124858
-9.517073e-05
-6.968922e-05
-8.785269e-05
-5.357522e-05
-6.640251e-05
-6.326331e-05
-4.965736e-05
-6.199837e-05
-4.969251e-05
-5.716544e-05
-3.146592e-05
-4.025569e-05
-3.266812e-05
-3.367475e-05
-3.155099e-05
-1.981801e-05
-3.194354e-05
-8.306606e-06
-1.61654e-05
3.604687e-05
-9.910173e-05
0.0005056757
-0.0004191772
-4.355488e-05
-0.0001223506
-9.417955e-05
-6.899832e-05
-8.688286e-05
-5.330443e-05
-6.583239e-05
-6.262368e-05
-4.960235e-05
-6.176786e-05
-4.932283e-05
-5.688035e-05
-3.136971e-05
-4.038774e-05
-3.242894e-05
-3.355261e-05
-3.153104e-05
-2.028499e-05
-3.175151e-05
-8.414028e-06
-1.5404e-05
3.241029e-05
-7.86423e-05
0.0004551599
-0.0008458608
-0.000247108
-0.0003043894
-0.0002536465
-0.0002343292
-0.0002190776
-0.0002086691
-0.0001985784
-0.0001867186
-0.0001836855
-0.0001768714
-0.00017255
-0.0001679226
-0.0001652774
-0.000161707
-0.000159233
-0.000157165
-0.0001552604
-0.0001538743
-0.000152611
-0.0001512656
-0.0001507864
-0.0001497378
-0.0001495053
-0.0001492728
-0.0001494497
-0.0001497427
-0.0001504165
-0.0001511614
-0.0001524168
-0.0001534608
-0.000155551
-0.0001571036
-0.000159023
-0.0001623572
-0.0001644131
-0.000168422
-0.000172595
-0.0001784267
-0.0001831584
-0.0001910238
-0.0001970832
-0.0002110057
-0.0002171815
-0.0002393501
-0.000246434
-0.000317602
-0.0002292582
-0.0008601017
0.0004543312
-8.030701e-05
3.993234e-05
-1.54576e-05
-4.041031e-06
-2.804409e-05
-1.815706e-05
-3.41095e-05
-2.673834e-05
-4.24364e-05
-4.373646e-05
-3.988436e-05
-5.506808e-05
-4.08958e-05
-5.644375e-05
-5.197332e-05
-6.971078e-05
-5.745228e-05
-7.092974e-05
-6.123804e-05
-8.598022e-05
-9.069081e-05
-0.0001421248
-1.48341e-05
-0.0004149582
0.0004824073
0.0001261641
0.0001974095
0.000158541
0.0001608111
0.0001510663
0.0001431249
0.0001486278
0.0001403212
0.0001296709
0.0001481287
0.000142977
0.0001403373
0.0001275309
0.000143345
0.0001461318
0.0001409253
0.0001410732
0.0001423407
0.0001461165
0.0001393912
0.0001513379
0.0001437661
0.0001565326
0.0001541852
0.0001595297
0.0001633831
0.0001681133
0.0001702856
0.0001831818
0.0001877425
0.0002024182
0.0002196964
0.0002326115
0.0003303407
0.000337523
0.0002335024
0.0002219642
0.0002042915
0.0001896969
0.0001850927
0.0001726597
0.0001701479
0.0001656271
0.0001617192
0.0001563622
0.0001586451
0.00014558
0.0001532496
0.000140978
0.0001469841
0.0001437692
0.0001407768
0.0001407982
0.0001455502
0.0001428197
0.0001270707
0.000139935
0.0001424788
0.0001473613
0.0001287588
0.0001391541
0.0001473777
0.0001415748
0.0001522244
0.0001598527
0.0001637327
0.0002183587
9.50915e-05
0.0005075519
0.0003355001
0.0002394329
0.0002232388
0.0002059086
0.0001905257
0.0001856871
0.0001735229
0.000170446
0.0001658746
0.0001619381
0.0001561301
0.0001587158
0.0001458219
0.000153165
0.0001412145
0.0001464964
0.000143848
0.0001408375
0.0001405269
0.0001452958
0.0001426045
0.0001269974
0.0001398542
0.0001418151
0.0001465262
0.0001286833
0.0001385577
0.0001465727
0.0001412831
0.00015135
0.0001590888
0.000162374
0.0002138962
9.636267e-05
0.0004728824
0.000448032
0.0001265005
0.0001938316
0.0001570625
0.000160043
0.0001501226
0.0001427355
0.0001477754
0.0001397021
0.0001295811
0.0001472877
0.0001423148
0.0001402583
0.0001274514
0.0001431084
0.0001458404
0.0001406133
0.0001410844
0.0001424266
0.0001456559
0.0001396441
0.0001512811
0.0001440226
0.0001566198
0.0001539762
0.0001597656
0.0001636498
0.0001684208
0.000171177
0.0001837985
0.00018858
0.0002040324
0.0002210315
0.0002382977
0.0003289295
0.0003987068
-6.110726e-05
3.549315e-05
-1.433019e-05
-4.672963e-06
-2.792321e-05
-1.823531e-05
-3.400058e-05
-2.695852e-05
-4.215564e-05
-4.367293e-05
-3.945781e-05
-5.480683e-05
-4.073092e-05
-5.608958e-05
-5.169212e-05
-6.903326e-05
-5.678609e-05
-7.024693e-05
-6.100808e-05
-8.476067e-05
-8.941731e-05
-0.0001376501
-1.556772e-05
-0.0003818036
-0.0007872765
-0.0002727102
-0.0003029337
-0.0002562297
-0.0002352524
-0.0002196873
-0.0002090766
-0.0001990651
-0.0001870885
-0.0001838282
-0.0001770525
-0.0001726921
-0.0001680184
-0.00016533
-0.0001617736
-0.0001592767
-0.0001571993
-0.0001552777
-0.0001538754
-0.0001526151
-0.0001512713
-0.0001507832
-0.0001497426
-0.0001495115
-0.000149281
-0.000149459
-0.0001497521
-0.0001504252
-0.0001511745
-0.0001524283
-0.0001534845
-0.0001555646
-0.0001571247
-0.0001590703
-0.0001624003
-0.0001645072
-0.0001685651
-0.000172779
-0.0001785989
-0.000183393
-0.0001912836
-0.0001975379
-0.0002113885
-0.0002179487
-0.0002399712
-0.0002495113
-0.0003153415
-0.0002554188
-0.0008026364
-0.0003851502
-4.367338e-05
-0.0001185015
-9.323721e-05
-6.806928e-05
-8.575986e-05
-5.289216e-05
-6.518857e-05
-6.188581e-05
-4.946202e-05
-6.151069e-05
-4.898586e-05
-5.657248e-05
-3.123111e-05
-4.047805e-05
-3.215284e-05
-3.345079e-05
-3.154713e-05
-2.084787e-05
-3.159256e-05
-8.653895e-06
-1.444502e-05
2.832587e-05
-5.880902e-05
0.0003997788
-0.0003462562
-4.483327e-05
-0.0001130426
-9.246428e-05
-6.723542e-05
-8.420796e-05
-5.236182e-05
-6.467134e-05
-6.077298e-05
-4.907514e-05
-6.129368e-05
-4.897809e-05
-5.605869e-05
-3.122687e-05
-4.028419e-05
-3.173814e-05
-3.340609e-05
-3.172358e-05
-2.178116e-05
-3.131043e-05
-9.206763e-06
-1.297649e-05
2.378838e-05
-3.994256e-05
0.0003382829
-0.0007190012
-0.0002972472
-0.0003014586
-0.0002592054
-0.0002362928
-0.0002203696
-0.0002095892
-0.0001995855
-0.0001874967
-0.0001839704
-0.0001772597
-0.0001728481
-0.0001681263
-0.0001653904
-0.000161848
-0.0001593208
-0.0001572363
-0.0001552944
-0.0001538754
-0.0001526169
-0.0001512768
-0.0001507766
-0.000149744
-0.0001495138
-0.0001492865
-0.0001494662
-0.0001497587
-0.0001504309
-0.0001511844
-0.0001524398
-0.0001535094
-0.0001555799
-0.0001571456
-0.000159116
-0.0001624445
-0.0001646193
-0.0001687262
-0.0001729909
-0.0001787935
-0.0001836628
-0.0001915684
-0.0001980433
-0.0002117834
-0.000218822
-0.0002406167
-0.0002529914
-0.0003128194
-0.000280566
-0.0007356415
0.0003377474
-4.347388e-05
3.031799e-05
-1.267737e-05
-5.752187e-06
-2.784453e-05
-1.830379e-05
-3.358785e-05
-2.749831e-05
-4.183287e-05
-4.347136e-05
-3.869532e-05
-5.477707e-05
-4.05544e-05
-5.529162e-05
-5.175125e-05
-6.819957e-05
-5.574171e-05
-6.975257e-05
-6.076879e-05
-8.316212e-05
-8.847257e-05
-0.000131261
-1.758787e-05
-0.0003438746
0.0004092269
0.0001283426
0.0001886514
0.0001553422
0.0001590334
0.0001490864
0.0001424609
0.0001466646
0.0001388779
0.0001293573
0.0001464891
0.000141666
0.0001401299
0.0001272575
0.0001428431
0.0001455547
0.0001401993
0.0001410759
0.0001425231
0.0001451023
0.0001399298
0.0001512962
0.0001444928
0.0001565328
0.0001536896
0.0001600185
0.0001639995
0.0001689175
0.0001723074
0.0001843637
0.000189534
0.0002057165
0.0002226943
0.0002443299
0.0003236004
0.0003294728
0.0002456948
0.0002248345
0.0002075961
0.000191468
0.000186228
0.0001746211
0.0001709309
0.0001662016
0.0001621722
0.0001558174
0.0001586096
0.0001462748
0.0001531522
0.0001414832
0.0001459216
0.0001439417
0.0001408756
0.0001401515
0.0001450497
0.000142361
0.0001268111
0.0001397254
0.0001411664
0.0001457357
0.000128477
0.0001377624
0.0001455022
0.0001411212
0.000150361
0.0001580309
0.0001609117
0.0002077103
9.900875e-05
0.0004331792
0.0003191656
0.000251467
0.0002271121
0.0002092705
0.0001925117
0.000186497
0.0001759866
0.0001717425
0.0001666965
0.0001624331
0.0001553438
0.0001581766
0.0001471179
0.0001533984
0.0001419297
0.00014521
0.0001439336
0.0001408629
0.0001396016
0.0001449406
0.0001421228
0.0001263574
0.0001395747
0.0001407013
0.0001451405
0.0001280101
0.0001366714
0.0001440395
0.0001413271
0.0001493294
0.0001565264
0.0001595325
0.0001998143
0.0001029866
0.0003884448
0.0003650021
0.0001317476
0.0001817208
0.000153252
0.0001577715
0.0001480459
0.0001425265
0.0001451837
0.0001377512
0.0001288682
0.0001458831
0.0001411982
0.0001399776
0.0001267956
0.0001425868
0.0001454037
0.0001396242
0.0001410242
0.0001425128
0.0001443966
0.0001403916
0.0001515661
0.0001453527
0.0001561198
0.0001532428
0.0001602997
0.0001645217
0.0001697443
0.0001737068
0.00018466
0.0001905927
0.0002073884
0.0002250467
0.0002499049
0.0003140762
0.0002710748
-2.920347e-05
2.443468e-05
-1.016281e-05
-7.491847e-06
-2.779669e-05
-1.83387e-05
-3.226582e-05
-2.879097e-05
-4.131206e-05
-4.299138e-05
-3.726612e-05
-5.510628e-05
-4.037676e-05
-5.353972e-05
-5.264824e-05
-6.714348e-05
-5.407067e-05
-6.978923e-05
-6.066804e-05
-8.123857e-05
-8.80825e-05
-0.0001228232
-2.085013e-05
-0.0003011059
-0.0006382543
-0.0003184777
-0.0003004148
-0.0002626023
-0.0002375321
-0.0002211714
-0.0002102932
-0.0002001254
-0.0001880051
-0.0001840932
-0.0001774953
-0.0001730283
-0.000168254
-0.0001654656
-0.0001619353
-0.0001593645
-0.0001572779
-0.0001553104
-0.0001538734
-0.0001526171
-0.0001512837
-0.0001507628
-0.0001497377
-0.0001495088
-0.0001492865
-0.0001494713
-0.0001497586
-0.0001504288
-0.0001511849
-0.0001524541
-0.0001535391
-0.0001556002
-0.0001571667
-0.0001591589
-0.0001624873
-0.0001647732
-0.000168925
-0.0001732534
-0.0001790273
-0.0001839877
-0.0001918988
-0.0001986154
-0.0002121834
-0.0002198918
-0.0002412905
-0.000256953
-0.0003103217
-0.0003021212
-0.0006564371
-0.0003018715
-4.658037e-05
-0.0001056921
-9.195472e-05
-6.680993e-05
-8.193546e-05
-5.174162e-05
-6.434301e-05
-5.898035e-05
-4.827722e-05
-6.12192e-05
-4.956022e-05
-5.510765e-05
-3.153194e-05
-3.951731e-05
-3.10215e-05
-3.346924e-05
-3.222642e-05
-2.330976e-05
-3.066688e-05
-1.017908e-05
-1.085352e-05
1.889649e-05
-2.347528e-05
0.0002701081
-0.000249507
-5.08754e-05
-9.544908e-05
-9.051491e-05
-6.386887e-05
-8.064677e-05
-5.047623e-05
-6.207937e-05
-5.835864e-05
-4.793274e-05
-6.08904e-05
-4.876405e-05
-5.488716e-05
-3.059957e-05
-3.961796e-05
-3.049538e-05
-3.352842e-05
-3.232836e-05
-2.350383e-05
-3.090917e-05
-9.948983e-06
-1.084272e-05
1.190572e-05
-1.220049e-05
0.0001919856
-0.000535726
-0.0003328046
-0.000298343
-0.0002651647
-0.0002389355
-0.0002219395
-0.0002108938
-0.0002008441
-0.000188562
-0.000184281
-0.0001777633
-0.0001732131
-0.0001683741
-0.0001655391
-0.0001620107
-0.0001593912
-0.000157319
-0.0001553081
-0.0001538551
-0.0001526095
-0.0001512659
-0.0001507361
-0.0001497101
-0.0001494857
-0.0001492754
-0.000149465
-0.000149745
-0.0001504085
-0.0001511754
-0.0001524524
-0.0001535547
-0.0001556219
-0.0001571717
-0.0001592038
-0.0001625582
-0.0001649181
-0.0001691339
-0.0001735535
-0.0001793027
-0.0001843299
-0.0001922528
-0.0001992731
-0.0002128112
-0.0002210083
-0.0002422267
-0.0002605889
-0.0003077671
-0.0003151997
-0.0005546054
0.0001905707
-1.798075e-05
1.800591e-05
-9.261903e-06
-7.793086e-06
-2.810822e-05
-1.873987e-05
-3.122419e-05
-2.898243e-05
-4.082454e-05
-4.314341e-05
-3.676445e-05
-5.390684e-05
-3.975334e-05
-5.259498e-05
-5.22561e-05
-6.645777e-05
-5.35147e-05
-6.794949e-05
-5.952919e-05
-7.863321e-05
-8.80948e-05
-0.0001138178
-2.404512e-05
-0.0002521227
0.000309377
0.0001353757
0.000172859
0.0001507507
0.0001560199
0.0001465269
0.0001410478
0.000144643
0.0001365382
0.0001274702
0.0001448475
0.0001412693
0.0001395994
0.0001254481
0.0001424497
0.0001459428
0.0001391597
0.0001407129
0.0001421348
0.0001438022
0.000140913
0.0001519516
0.0001453536
0.0001564235
0.0001531121
0.0001606917
0.0001651645
0.0001703655
0.00017414
0.0001855532
0.0001920215
0.0002094274
0.0002276485
0.0002527303
0.0003030016
0.0003072278
0.0002544192
0.0002296184
0.000211301
0.0001939168
0.0001873448
0.0001764012
0.0001723427
0.0001673083
0.0001628041
0.0001551907
0.0001584614
0.0001471044
0.0001537688
0.0001424182
0.000144561
0.0001435537
0.0001406273
0.0001391672
0.0001455407
0.0001420067
0.0001250222
0.0001392054
0.0001407802
0.0001441134
0.0001266337
0.0001354856
0.0001435023
0.0001400402
0.0001476715
0.0001544226
0.0001584823
0.0001911582
0.0001067458
0.0003390926
0.0003029006
0.0002500424
0.0002286757
0.0002153554
0.0001962711
0.0001942795
0.0001718546
0.0001700851
0.0001672112
0.0001633629
0.000157515
0.0001640795
0.0001405799
0.0001523283
0.0001406462
0.0001452825
0.0001429992
0.0001397993
0.0001403274
0.0001474466
0.0001420043
0.0001219843
0.0001374621
0.0001411323
0.0001393817
0.0001229644
0.0001353117
0.000149025
0.00012866
0.0001429677
0.0001512362
0.000156618
0.0001822861
0.0001046442
0.0002838649
0.000231715
0.0001344446
0.0001610769
0.000147882
0.0001522806
0.0001422196
0.0001294966
0.0001500263
0.0001363981
0.0001238044
0.0001401265
0.0001416072
0.0001378228
0.0001223714
0.0001423663
0.0001477109
0.0001401042
0.0001396007
0.0001416068
0.0001449207
0.0001392655
0.0001505565
0.0001388906
0.0001620791
0.0001554683
0.0001612766
0.0001650999
0.0001681422
0.0001695754
0.0001925754
0.0001944225
0.0002135353
0.0002268454
0.0002483895
0.0002996063
7.563378e-05
-2.66971e-06
1.15721e-05
-2.274998e-05
2.175628e-06
-3.079853e-05
-2.067811e-05
-4.126174e-05
-1.768046e-05
-4.311861e-05
-4.783932e-05
-4.525498e-05
-4.429695e-05
-3.690744e-05
-6.286678e-05
-3.873657e-05
-6.86629e-05
-6.137677e-05
-5.312497e-05
-5.163204e-05
-7.33943e-05
-8.515015e-05
-0.0001084559
-2.237381e-05
-0.0001906604
-0.000408347
-0.0003354574
-0.0002875582
-0.000260823
-0.000239735
-0.0002214795
-0.0002095552
-0.000202511
-0.0001882234
-0.0001849433
-0.0001780689
-0.0001732434
-0.0001683045
-0.0001654867
-0.0001619396
-0.000159334
-0.0001573141
-0.0001552186
-0.0001537703
-0.0001525548
-0.0001511051
-0.0001507098
-0.0001496419
-0.0001494222
-0.0001492467
-0.000149402
-0.0001497205
-0.0001503676
-0.0001512029
-0.0001523316
-0.0001534446
-0.0001555932
-0.0001570813
-0.0001592496
-0.0001627775
-0.0001646277
-0.0001690725
-0.0001736451
-0.0001794739
-0.0001843607
-0.0001923366
-0.0001998763
-0.0002144134
-0.0002203465
-0.0002443377
-0.0002582938
-0.0003036175
-0.0003143835
-0.0004224824
-0.0001841045
-6.842951e-05
-7.991964e-05
-8.316644e-05
-4.583482e-05
-8.826176e-05
-4.583214e-05
-5.058228e-05
-6.728518e-05
-5.166251e-05
-5.831783e-05
-3.837044e-05
-6.15138e-05
-2.153651e-05
-4.812726e-05
-3.30482e-05
-3.290537e-05
-2.859233e-05
-1.461483e-05
-3.925723e-05
-1.885833e-06
-2.439034e-05
-2.845266e-06
-1.129385e-05
9.936823e-05
-2.142787e-05
5.701509e-06
-1.243252e-05
-4.513309e-05
-0.0001074768
-3.470542e-05
-0.0001659993
-0.0001592914
-1.774459e-05
-0.0001477041
-2.291425e-05
-2.579987e-05
-1.070524e-05
-2.971658e-05
-2.846917e-05
-0.0001454941
-0.0001770414
7.291672e-05
5.399407e-05
2.494867e-05
-0.0001466956
-0.0001473778
-0.000138496
9.701461e-05
0.000131251
-1.310918e-05
6.565991e-06
0.0001223298
8.245851e-05
-2.297164e-05
0.0001086084
-1.65413e-05
0.0001384928
0.0001384097
-5.189341e-05
-1.281793e-05
0.0001520463
-1.557929e-05
0.0001562032
7.4546e-05
-2.375355e-05
0.0001338722
-3.300713e-06
-6.355766e-05
-2.262708e-05
-6.185183e-05
-0.0001611084
0.0001189202
-9.756662e-05
-2.52139e-05
4.503606e-05
-7.696617e-05
-4.626757e-05
-3.265949e-05
5.921153e-05
-2.721944e-05
-2.016344e-05
8.441387e-05
0.000118907
-4.962722e-05
-3.167224e-05
-4.143984e-05
-1.298248e-05
7.375892e-05
-3.088373e-05
-4.744924e-05
-0.0001386909
-2.335071e-05
-2.305691e-05
-0.0001381349
-0.0001219862
9.708135e-05
-6.719778e-05
-8.295906e-06
-0.0001777432
-3.107501e-05
-0.0001486653
-4.705221e-05
-0.0001874224
-9.097258e-05
7.145289e-05
-2.785664e-05
-1.746789e-05
-9.589681e-06
-4.651885e-05
-0.0001499362
-1.752542e-05
-1.487538e-05
-4.141365e-06
-1.493668e-05
-1.381335e-05
-4.209586e-05
-1.57672e-05
-1.199696e-05
-1.681304e-05
-0.0001239409
-8.501265e-05
-4.074922e-05
-1.531365e-05
-4.324143e-05
-2.255981e-05
0.000116844
-8.702417e-06
-2.796304e-05
-6.751721e-05
-4.83086e-05
-1.936775e-05
9.568641e-05
-1.39789e-05
-5.245035e-05
-2.70575e-05
-9.487636e-05
-5.872463e-05
-4.328607e-05
-4.548641e-05
9.421707e-05
-0.0001652057
-1.898084e-05
-4.503959e-05
0.0001515287
0.0001754209
-1.419686e-05
-7.191529e-05
-1.92344e-05
-1.83749e-05
-3.347722e-05
0.0001084368
-2.876866e-05
-1.446172e-05
-3.468986e-05
-1.318877e-05
0.0001422906
-1.26353e-05
-3.268518e-05
-5.523587e-05
8.352642e-05
-3.311164e-05
-1.676277e-05
-3.593591e-05
0.000114133
-6.709459e-05
0.0001895637
-2.321486e-05
-2.820299e-05
-1.386744e-05
-4.892524e-05
-0.0001179077
8.99429e-05
-3.103828e-05
-2.063844e-05
-2.721214e-05
-6.637445e-06
-1.084301e-05
1.264406e-05
0.0001349822
-5.017425e-05
0.0001973885
-3.340476e-05
-4.76067e-05
-2.192565e-05
0.0001502019
7.03505e-06
-5.872678e-05
3.443599e-06
-1.702722e-05
-3.762291e-05
6.04973e-05
-0.0001327917
-3.110826e-05
-4.383498e-05
-1.818191e-05
-9.010027e-05
0.0001061418
-2.935837e-05
5.082434e-05
5.578864e-05
-3.376698e-05
-9.781812e-05
-4.188611e-05
-8.363908e-05
-3.466492e-05
-8.319813e-05
0.0001271297
-1.542696e-05
-0.0001562481
-0.000165623
-2.280687e-05
-6.132487e-05
0.0001149142
-1.628189e-05
0.0001138455
-1.646595e-05
1.434887e-05
9.971974e-05
-0.0001012917
-2.407951e-05
-1.543594e-05
0.000133123
0.0001598607
-2.614713e-05
-2.309639e-05
-9.503185e-06
0.0001112476
-1.591111e-05
-1.854245e-05
-0.0001513604
-2.682105e-05
-6.650629e-05
-4.8828e-05
-2.823429e-05
8.126688e-05
-1.427711e-05
-0.0001030342
2.059296e-05
2.278979e-05
-0.0001171516
-0.000123639
3.604109e-05
0.0001352872
-1.043547e-05
-4.813368e-05
-0.0001484399
-1.917435e-05
-3.635856e-05
-5.560339e-05
-0.0001522216
0.000118759
2.766972e-05
-0.0001142042
0.0001341215
-0.0001529944
-7.934318e-05
-0.0001762734
-0.0001960348
-4.03925e-05
-0.0001538891
-2.235661e-05
-0.0001663627
7.022389e-05
0.0001239101
8.155279e-05
-6.232877e-05
-2.680087e-05
-2.790765e-05
4.484702e-06
-4.696923e-05
-2.872917e-05
-4.134583e-05
1.214695e-06
-9.187978e-06
-0.0001329597
1.360321e-06
-2.573647e-05
8.417625e-05
-3.985737e-05
0.0002099253
-3.789148e-05
-1.732399e-05
-3.866085e-05
8.716185e-05
-3.210164e-05
-1.474399e-05
0.0001276369
-0.0001825362
-3.924134e-05
-2.322606e-05
-3.867873e-05
9.5896e-05
0.000117447
6.276114e-05
0.0001099196
-7.448057e-05
6.053077e-06
-0.0001456527
-4.026453e-05
-3.844552e-05
0.0001727172
-0.0001551222
-1.797238e-05
-0.0001451538
-9.37426e-05
-3.524119e-05
-0.0001744501
-3.179858e-05
-1.865295e-05
-2.094999e-05
0.0001229508
-1.847959e-05
-7.340079e-05
-1.475605e-06
0.0001799613
7.898718e-05
-0.0001286044
-2.925516e-05
-0.000121647
-1.36504e-05
-3.408827e-05
-4.320933e-05
-7.611296e-05
-0.0001456487
0.0001648113
-2.397079e-05
-3.623244e-05
4.434979e-05
-2.135528e-05
-0.000105347
-6.778833e-05
-9.704501e-05
-3.987196e-05
-3.076964e-05
-2.402928e-05
0.0001232943
0.0001493666
0.0001403612
-0.0001331937
-1.156773e-05
-2.279952e-05
2.79179e-06
-7.167486e-05
-4.820508e-05
-0.0001441256
4.512713e-06
0.0001008565
-4.389865e-05
-2.114176e-06
-3.460239e-05
-0.0001061123
2.429026e-05
-0.0001881909
0.0001169161
-1.806099e-05
-0.0001426783
-1.557916e-05
-1.269719e-05
-1.189477e-05
-1.339648e-05
-1.680351e-05
-5.8701e-05
-4.028271e-05
-3.32455e-05
0.0001314159
-4.614421e-05
9.429583e-05
6.989643e-05
-1.528926e-05
-2.225204e-05
0.0001305759
0.0001074938
0.0001106627
9.74992e-05
0.0001388281
-2.45411e-05
-3.600834e-05
-3.768429e-05
-8.019115e-05
-9.046573e-05
0.0001562281
0.0001432728
0.000143909
0.000158915
-5.965956e-05
-0.0001645273
-0.0001364625
-2.551822e-05
-5.338202e-05
6.244452e-05
-2.76905e-05
-2.972944e-05
-3.853882e-05
-2.027239e-05
-1.755215e-05
2.521137e-05
-4.464629e-05
-4.646843e-05
-3.836163e-05
-2.813058e-05
-3.65328e-05
0.0001814253
-5.281496e-05
-1.714624e-05
-3.284854e-05
-3.422286e-05
-1.193969e-05
-9.762555e-06
0.0001231446
-2.880964e-05
-3.323071e-05
0.0001438769
0.0001277625
-0.0001502932
0.000120716
1.536838e-05
-2.008629e-05
-2.89291e-05
0.0001257667
-2.464199e-05
-1.262156e-05
-0.0001061278
-1.435381e-05
-1.696283e-05
-1.396749e-05
1.962993e-05
-4.192423e-07
0.0001316948
0.0001740161
-2.948694e-05
5.754699e-05
-1.256954e-05
-0.000154444
-0.0001465672
-0.0001342103
0.0001288872
-1.501428e-05
-0.0001514582
-1.317886e-05
9.29741e-05
-2.824635e-05
-4.61281e-05
-2.944041e-05
-2.489334e-05
-2.430505e-05
-1.689935e-05
0.000134201
7.587148e-05
-5.821443e-05
-3.444286e-05
-3.258588e-05
-2.141163e-05
-2.663431e-05
3.369781e-05
-2.632176e-05
-6.098198e-05
-7.593514e-05
-5.615111e-05
5.065251e-05
-0.0001468327
-3.521671e-05
-4.056598e-05
-2.066494e-05
-2.46999e-05
-3.203264e-05
-4.291453e-05
-6.82592e-05
0.0001322405
-1.444281e-05
-5.373744e-06
-3.502624e-05
-3.993331e-05
-3.251326e-05
-1.628143e-05
-6.318867e-05
0.0001486762
1.155964e-05
-3.060927e-05
-3.718305e-05
-3.308163e-05
-2.286716e-05
-1.789195e-05
-2.380179e-05
-2.648321e-05
-1.477293e-05
-6.31247e-05
-1.62236e-05
7.233783e-05
-4.003256e-05
-6.69335e-05
-2.508635e-05
-4.702315e-05
-4.357931e-05
-1.257711e-05
0.0001429171
-2.505128e-05
-1.945843e-05
-0.0001368189
0.0001509447
-0.0001460851
-0.0001466278
-1.358718e-05
-2.283885e-05
7.987484e-05
-1.455296e-05
-1.618564e-05
9.906335e-05
-3.728914e-05
0.0001443981
0.0001512868
-0.0001444266
0.0001078641
0.0001401116
0.0001210569
-0.0001370632
0.000121363
-1.982271e-05
0.0001004387
-2.707132e-05
-6.970949e-05
-2.006219e-05
-3.54098e-05
0.0001171561
1.357616e-06
-2.099657e-05
-8.86482e-05
6.144591e-05
-0.000112582
-3.084039e-05
0.0001186515
0.000133505
-5.558835e-05
6.621304e-05
8.886837e-05
-7.40223e-05
-2.641434e-06
-2.290911e-05
-1.618939e-05
-1.511365e-05
-6.390685e-05
-3.665344e-05
3.019102e-05
0.0001778449
-2.576505e-05
-4.102687e-05
0.0001758444
0.0001183524
-2.628424e-05
7.803478e-05
-0.0001034232
-3.311215e-05
-4.74055e-05
-0.0001076732
-5.881839e-06
0.0001422802
0.0001498305
0.0001431821
-7.417858e-05
-3.41115e-05
-4.098781e-05
-2.514918e-05
-2.578552e-05
-2.084721e-05
-1.731043e-05
-1.794492e-05
-1.839815e-05
-1.59356e-05
-1.413696e-05
-5.548097e-05
-0.000152247
-0.000221637
-8.362621e-05
5.197871e-05
-2.613057e-05
-2.74529e-05
-2.787587e-05
0.0001881043
-1.210284e-05
-2.48848e-05
-1.330683e-05
-1.132988e-05
-1.216104e-05
9.542918e-06
-0.0001912449
-7.128795e-05
-8.928068e-06
-4.845407e-05
-5.122266e-05
2.31829e-05
7.162133e-05
-4.976764e-05
-5.540504e-05
-8.593673e-05
0.0001234296
-4.120312e-05
-2.18551e-05
-1.496959e-05
-3.437292e-05
-0.0001604601
-2.900478e-05
0.0001143395
0.0001241391
-1.145519e-05
-5.736434e-05
-5.343198e-05
1.604247e-05
-1.016921e-06
-3.011135e-05
0.0001242906
-1.874852e-05
7.192112e-05
-1.25341e-05
8.765625e-05
0.0001128068
1.226835e-05
-2.247773e-06
-3.546815e-06
-0.0001092456
6.963861e-05
0.000106051
-3.152205e-05
9.613101e-05
-1.233677e-05
-2.011695e-05
-0.0001468139
2.920943e-05
-0.0001052887
-3.629881e-05
-2.145747e-05
-0.0001664178
6.040752e-05
0.0001706725
-0.000184238
-1.479255e-05
-2.23718e-05
-5.67636e-05
2.370413e-05
-3.149509e-05
-2.047721e-05
-1.959636e-05
-3.055318e-05
-0.0001455366
-8.3439e-05
-0.0001165827
-0.000148513
-0.0001468541
-2.438824e-05
4.300565e-05
3.764845e-05
-2.731854e-06
8.62436e-05
0.0001884646
0.0001061772
-1.81702e-05
-2.127703e-05
-1.350763e-05
-1.380515e-05
-1.676487e-05
-1.230318e-05
-1.770547e-05
0.0001088555
-2.523384e-05
0.0001822333
-1.158597e-05
-3.140695e-05
-3.815748e-05
7.841795e-05
-3.118901e-05
-3.108622e-05
-0.0001694667
-0.0001166483
-0.0001725731
-0.0001247399
7.986743e-05
-0.0002322863
-3.015889e-05
-2.903049e-05
-5.707452e-05
-3.886331e-05
-0.000115844
-0.0001408704
-9.995173e-05
9.33822e-05
-0.0001513912
-3.999711e-05
-3.543977e-05
-2.488801e-06
-3.046411e-05
0.0001073233
-4.561578e-05
-3.968011e-05
-0.0001596073
-2.398729e-05
-3.068257e-05
-9.898437e-05
-3.843327e-05
-1.824535e-05
-0.0001048484
-2.311621e-05
7.040007e-05
-2.685218e-05
-2.938541e-05
-2.361141e-05
0.0001474384
-0.0001211539
-1.171062e-05
-1.10682e-05
3.296612e-05
-0.0001035973
-0.0001115759
-9.627433e-06
-3.888464e-05
7.141812e-05
-2.057319e-05
-0.0001379157
-2.636837e-05
-2.550504e-05
-5.87019e-05
-0.0001708299
-0.0001731431
0.0001212326
-4.367894e-05
-3.468416e-05
0.0001271068
-9.360515e-05
9.475979e-05
-3.856972e-05
-5.788918e-05
0.0001152188
-0.0001492427
-2.207043e-05
-2.774032e-07
-2.221966e-05
-0.0001541927
-1.197282e-05
-1.022839e-05
0.0001264306
9.786172e-05
0.0001107703
0.0001135846
0.0001301925
0.0001518111
-1.315693e-05
7.127409e-06
-7.462733e-06
-3.173447e-05
-3.009694e-05
-3.402774e-05
-3.13075e-05
-0.0001463043
-1.406415e-05
-1.313399e-05
-2.600474e-05
-3.263526e-05
0.0001709921
0.0001598855
0.0001159475
0.0001258864
-3.307891e-05
-5.308909e-05
-2.532193e-05
-2.452331e-05
7.168841e-05
-2.415929e-05
-7.998215e-06
-3.787569e-06
-4.320979e-05
0.0001149634
0.0001443913
-1.670414e-05
-1.302757e-05
3.640282e-05
-4.920059e-05
-0.0001262439
-2.473265e-05
7.35749e-05
-9.719789e-06
-3.530303e-05
-1.937908e-05
-6.674972e-05
-1.755128e-05
6.029701e-05
-0.0001282648
0.0001733218
-2.615484e-05
7.038751e-05
3.006458e-05
3.475695e-05
-0.0001484409
-4.347321e-05
-0.0001690137
4.569039e-07
-3.106191e-05
-8.994419e-05
-4.850173e-05
-1.863019e-05
-1.113307e-05
-2.6448e-05
-1.87779e-05
-2.310448e-05
4.016769e-05
8.018071e-05
-5.211075e-05
-7.495236e-05
-2.653011e-05
3.408769e-05
-6.739445e-05
-0.0001534063
-3.91363e-05
-1.577414e-05
-0.0001340227
3.510695e-05
-1.254728e-05
-4.054178e-06
-2.692596e-05
-4.100162e-05
0.0001770468
0.0001547456
0.0001730575
0.0001431583
-0.0001530971
-1.530124e-05
1.452492e-05
-3.919831e-05
-0.0001152764
-1.651896e-05