/*--------------------------------*- C++ -*----------------------------------*\
| =========                 |                                                 |
| \\      /  F ield         | OpenFOAM: The Open Source CFD Toolbox           |
|  \\    /   O peration     | Version:  2406                                  |
|   \\  /    A nd           | Website:  www.openfoam.com                      |
|    \\/     M anipulation  |                                                 |
\*---------------------------------------------------------------------------*/
FoamFile
{
    version     2.0;
    format      ascii;
    arch        "LSB;label=32;scalar=64";
    class       volVectorField;
    location    "0.22";
    object      U;
}
// * * * * * * * * * * * * * * * * * * * * * * * * * * * * * * * * * * * * * //

dimensions      [0 1 -1 0 0 0 0];

internalField   nonuniform List<vector> 
4541
(
(0.01003409 -7.053833e-05 1.209388e-23)
(0.01047826 -0.0004182597 -3.610779e-24)
(0.01109623 -0.001195037 0)
(0.01127589 -0.001218779 0)
(0.01028439 -0.0005265196 -3.368202e-24)
(0.009539151 -0.0008322922 0)
(0.01020911 -0.0006505276 1.072365e-23)
(0.01023008 -0.000523799 -2.632414e-23)
(0.009400808 -0.0005296515 1.546642e-23)
(0.0109787 0.0001518948 4.930935e-24)
(0.009494126 -0.0009714059 1.775084e-23)
(0.01032395 -0.000887594 -1.046273e-23)
(0.01080593 -0.0003204067 7.877827e-24)
(0.01000471 -0.0004036129 2.017592e-24)
(0.01124748 -0.001392106 0)
(0.01106114 0.0005850061 3.940027e-27)
(0.01031285 0.001195422 1.631281e-24)
(0.009764259 0.001255426 -1.036566e-24)
(0.01025468 0.00145807 -5.94736e-24)
(0.01078454 -0.001847024 4.214174e-24)
(0.01108221 0.0001686497 0)
(0.0104363 -0.0006639796 -1.235587e-23)
(0.01074 0.0005078908 0)
(0.008572952 -0.0005753234 4.503069e-23)
(0.01064086 -0.001374677 0)
(0.01021504 -0.000555276 8.287439e-24)
(0.01002271 -0.0004850823 -5.028508e-24)
(0.01017531 -0.0004453077 5.011063e-24)
(0.009418146 -0.0003621138 5.639604e-24)
(0.01086274 -0.0003910734 0)
(0.01006062 -0.0003866648 -2.194837e-23)
(0.01000778 -0.0004310528 -2.383839e-24)
(0.01087715 0.0001221798 -2.12302e-24)
(0.009721374 -0.0005095624 -9.028938e-24)
(0.01066665 -0.000875577 0)
(0.0105423 -8.434748e-05 0)
(0.01103404 -0.001109989 0)
(0.01111174 -0.0006005342 -1.566971e-24)
(0.009960723 -0.0004202373 -3.940907e-23)
(0.009496952 0.001475477 2.967343e-24)
(0.01058178 -9.669547e-05 0)
(0.009265018 -0.0003967648 -1.160472e-23)
(0.01058873 -0.0003610506 -2.70733e-24)
(0.01066341 0.0001292925 -6.016156e-25)
(0.01085915 -0.0002582435 7.508635e-24)
(0.01098387 0.0001342105 -5.443949e-24)
(0.01104997 -0.0005348011 7.010351e-24)
(0.009281807 0.001844781 0)
(0.0108786 -0.001527668 0)
(0.01010854 -0.0005654022 7.528831e-26)
(0.009934014 -0.0007699189 0)
(0.01054793 0.0002577013 0)
(0.01022059 0.0008070366 3.990403e-25)
(0.01005904 -0.000564857 3.174723e-24)
(0.01059702 0.0009947714 -5.274938e-25)
(0.009928741 -0.001218556 2.323778e-23)
(0.01001847 -0.0001493274 7.018355e-24)
(0.009710114 -0.0001571955 2.474212e-24)
(0.01130396 0.0007694562 2.644889e-24)
(0.01064835 -0.0007566835 5.186864e-24)
(0.009951504 -0.0005300584 0)
(0.01065423 -0.0005760483 0)
(0.0106249 0.001388749 0)
(0.007086915 -0.001844171 -9.664087e-24)
(0.009379499 -0.001138683 5.346573e-23)
(0.01000911 -0.002321611 -9.689611e-24)
(0.009858522 -0.0005082516 -1.014258e-23)
(0.01090103 -0.0001702132 1.341382e-23)
(0.010622 0.0004040965 -1.201651e-24)
(0.0104709 0.001119894 0)
(0.01078393 0.001229121 2.065993e-24)
(0.01138648 0.0004916705 9.706007e-27)
(0.01015682 -0.000589898 0)
(0.01141779 -1.640026e-05 1.478954e-24)
(0.009610191 -0.0003762843 2.795449e-23)
(0.01152123 -3.999735e-05 1.527837e-24)
(0.01004425 0.0009226222 -1.152835e-24)
(0.009160667 0.001633418 -4.997292e-25)
(0.01142588 -0.0009670198 3.15807e-24)
(0.009846832 -0.0002188915 -2.126672e-23)
(0.01108199 0.000905257 0)
(0.01132578 -0.001255084 -3.614124e-24)
(0.009844703 -0.0007186114 1.872548e-25)
(0.01113575 -0.0002156002 5.712828e-24)
(0.01002562 -0.0002478562 0)
(0.01054748 -0.0009445201 8.301587e-24)
(0.01070413 -0.0007426153 0)
(0.01072267 0.0007373155 1.334077e-23)
(0.01051045 0.001305611 -1.915262e-24)
(0.01115647 0.0005687273 0)
(0.01007622 -0.0001254526 -1.33029e-23)
(0.01026663 0.001343713 -8.865783e-24)
(0.009337006 0.001420394 0)
(0.01023659 0.001166465 0)
(0.01013267 -0.0008325618 2.106166e-23)
(0.009106415 0.001722174 4.776908e-24)
(0.010552 -0.001476938 7.640983e-24)
(0.01055251 -0.0003948157 -5.853022e-24)
(0.01037694 -0.0005172741 -2.03038e-23)
(0.01036522 -0.0007900177 -4.868774e-24)
(0.01017543 -0.001108223 1.189633e-23)
(0.01045143 -0.0001040868 0)
(0.009717456 -0.0004629407 -8.874298e-24)
(0.0115786 2.002069e-05 -5.524796e-25)
(0.01056135 0.0001008242 5.206061e-24)
(0.009981592 -0.001103718 -4.092728e-23)
(0.009309016 0.00131844 3.19485e-24)
(0.01068128 -0.0001557882 -1.674753e-23)
(0.01071974 -0.0005392367 -7.221035e-24)
(0.01128176 -0.0003236764 -2.997172e-24)
(0.01033845 -0.000454809 4.656937e-24)
(0.009985449 -0.0001541974 -2.468772e-23)
(0.01082007 0.0001343178 0)
(0.0104985 0.0004123255 -7.06076e-25)
(0.009864908 -0.0004028734 5.47927e-26)
(0.009980485 -0.001439034 -1.84431e-23)
(0.01007371 -0.0007261312 0)
(0.01047223 0.001224063 0)
(0.009986552 -0.000689333 2.594138e-23)
(0.00924246 -0.000567954 2.141832e-23)
(0.01056104 0.0001611425 4.09537e-24)
(0.01058888 0.0003828027 0)
(0.009561341 -0.00211729 -1.789255e-23)
(0.01150718 0.0003860269 1.721085e-24)
(0.01041193 0.0008610395 6.872209e-25)
(0.01068045 -0.000493773 0)
(0.008416498 -0.001692027 0)
(0.008026989 -0.002178436 2.754936e-23)
(0.01044795 -0.000479098 -1.729163e-24)
(0.009343357 -0.001087724 3.950368e-25)
(0.009598318 -0.0005432795 1.066286e-23)
(0.01045136 -0.001028472 7.680034e-24)
(0.01009408 -0.0006105978 2.525168e-23)
(0.01072174 -0.0004835949 -8.426247e-24)
(0.0107156 -0.001967902 -2.680054e-24)
(0.007164809 -0.001253125 0)
(0.0110428 0.0001346699 3.653759e-24)
(0.01017255 -0.0005223636 -7.083379e-26)
(0.009806296 -0.001751382 7.707016e-24)
(0.01093614 -0.0002571758 -4.359792e-24)
(0.01011977 -0.0005578759 9.241976e-24)
(0.01014217 0.001307001 1.571525e-24)
(0.009391927 -0.0007235072 -1.633925e-23)
(0.01014687 0.0008209442 -8.408238e-25)
(0.01078094 -0.0006631761 -5.443816e-24)
(0.009279026 -0.001706444 4.459482e-24)
(0.00921119 -0.0007420744 -1.389336e-23)
(0.009976049 -0.0003466301 0)
(0.01143026 -0.0002208028 0)
(0.009806321 -0.0003853749 -5.930991e-24)
(0.01038972 0.0006325184 -5.06054e-27)
(0.01142018 -0.001082054 -5.962638e-24)
(0.01008977 -0.0008766184 0)
(0.01073345 -0.001324254 1.510763e-25)
(0.01026869 -0.0005433671 -7.585877e-24)
(0.009461345 -0.000530006 0)
(0.009442851 -0.0008301894 8.747359e-24)
(0.009738091 0.001644555 -7.792358e-24)
(0.009996537 -2.383234e-05 -1.542273e-23)
(0.01112749 -0.0004515142 5.177818e-24)
(0.01006185 -0.0007464858 -1.907778e-23)
(0.01035545 -0.0007282127 -1.112669e-24)
(0.009065608 -0.001172339 -1.928618e-25)
(0.01049922 0.001439633 7.806652e-24)
(0.01098594 2.68903e-05 4.828704e-24)
(0.01075552 0.0004474415 0)
(0.009449479 -0.001441438 0)
(0.01074392 -0.0009778917 9.570661e-24)
(0.0100171 -0.002406423 1.172704e-23)
(0.00980211 -0.000324317 -2.401412e-23)
(0.009744866 -0.0003308895 -1.359944e-23)
(0.01046149 0.0005240346 0)
(0.01091894 0.001101104 0)
(0.01054235 0.000545569 -2.455967e-25)
(0.01035181 0.0008061934 0)
(0.01089856 -0.0004030712 -5.987052e-24)
(0.009105691 0.001305638 0)
(0.01026536 -0.0007967442 7.114281e-24)
(0.0109 -0.001308121 -5.672994e-24)
(0.009602984 -0.0004317955 9.442542e-24)
(0.01079408 0.0009726558 -1.251748e-24)
(0.007707213 -0.002276525 -1.835966e-23)
(0.01120075 4.368269e-05 2.35096e-24)
(0.01021729 -0.0004391588 1.822112e-23)
(0.01060907 -0.001742925 0)
(0.01085519 0.0004400538 -7.43074e-25)
(0.01072457 -0.0001595815 5.951124e-24)
(0.009856257 -0.0005509486 -3.574508e-23)
(0.01091739 6.295334e-05 0)
(0.009714151 -0.0003872467 5.940308e-24)
(0.01053095 -0.000864241 0)
(0.01147405 -0.0006261884 0)
(0.01053057 0.0004422346 3.31761e-25)
(0.01139888 0.0002685215 -3.610579e-25)
(0.01072987 0.001145825 -2.279655e-24)
(0.01086907 -0.0001337293 0)
(0.01015167 -0.0009306271 -1.05907e-23)
(0.009448728 0.001733842 -3.328406e-24)
(0.009092407 0.001677929 -5.992666e-24)
(0.01031337 0.0008600578 -7.726033e-25)
(0.01131997 -0.0002611694 -2.081845e-25)
(0.007846991 -0.001065146 -1.406694e-25)
(0.01025071 -0.0006828465 -1.078194e-23)
(0.01090735 0.0006576695 0)
(0.01062154 0.0001322278 4.323663e-24)
(0.01062588 0.0006464106 0)
(0.01073044 -0.001303085 -3.342364e-24)
(0.01058683 0.001029318 0)
(0.01018729 -0.001023222 0)
(0.0109102 -0.0006115361 -3.973121e-24)
(0.01004729 -0.000448438 0)
(0.01073879 0.00131729 0)
(0.01076303 -0.0006185568 0)
(0.01044311 -0.00196535 -9.527322e-24)
(0.008777265 -0.0009161132 2.466183e-23)
(0.01042381 -0.0009254694 0)
(0.01118363 0.0006143663 4.994988e-25)
(0.01057508 -0.0004651981 0)
(0.008186948 -0.001804445 -2.665792e-23)
(0.008974977 -0.00169433 -1.623101e-24)
(0.00643962 -0.001076616 5.686761e-23)
(0.01113708 0.0004583127 -6.237536e-25)
(0.009723955 -0.0005575004 -2.486955e-23)
(0.01007101 -0.001130238 -8.096031e-24)
(0.01117437 0.0001586346 9.605708e-24)
(0.009998139 -0.00046958 0)
(0.01124104 0.000473913 4.375236e-25)
(0.01100406 0.0004539015 7.316968e-25)
(0.01027641 0.00101157 0)
(0.009886225 -0.0002430115 0)
(0.01036999 -0.0006873803 -8.343585e-26)
(0.01020247 -0.00038411 7.147707e-24)
(0.01086165 0.0003877742 1.48248e-24)
(0.009644773 -0.0005121164 2.049872e-23)
(0.007910829 -0.002449315 0)
(0.009449258 0.001773448 0)
(0.01108925 -0.001474622 2.985778e-24)
(0.01074707 -0.0002336522 2.094259e-24)
(0.01000016 -0.000307839 -1.672606e-23)
(0.009884235 -0.0005728068 -2.394705e-23)
(0.01018848 -0.0003748435 2.296965e-23)
(0.01028997 0.0007237103 3.872105e-25)
(0.01050119 -0.00210107 -7.742535e-24)
(0.009768319 -0.0006261776 0)
(0.009822224 -0.0007963037 0)
(0.01019526 -0.0004276362 2.324429e-23)
(0.01034557 -0.0006241845 1.703269e-23)
(0.01060207 -0.0006335378 2.642799e-24)
(0.01097172 0.001130894 1.881343e-24)
(0.0102171 -0.0003267989 -1.217543e-23)
(0.01000701 -0.0004755294 0)
(0.009194649 -0.000846681 5.654159e-24)
(0.01069472 0.0007837688 2.230637e-26)
(0.01088587 0.0003055081 0)
(0.009573945 -0.001242542 0)
(0.01026288 -0.0002149151 0)
(0.009695807 -0.0005592839 1.798564e-23)
(0.01036599 0.0006714276 -9.928182e-26)
(0.0101065 0.0008294174 1.117892e-24)
(0.0108748 0.0006914609 7.775222e-26)
(0.009658991 -0.0004375737 -2.708878e-23)
(0.0102684 -0.0006562734 -5.077694e-24)
(0.01080624 0.0002671516 3.454783e-24)
(0.007833626 -0.001482028 0)
(0.01016554 -0.0005808421 1.250181e-23)
(0.01031531 0.000447203 3.969506e-24)
(0.01015858 -0.0004530813 9.498813e-25)
(0.0093728 0.001817562 0)
(0.01098461 -0.0001015069 3.998102e-24)
(0.01037456 0.001414434 -3.796056e-24)
(0.01078546 0.0009182884 -1.17407e-23)
(0.01079265 -0.0004503687 -1.086233e-23)
(0.009436537 -0.0005849166 1.294921e-23)
(0.009914277 -0.0006387321 -1.147758e-23)
(0.01093831 0.0003342352 4.588827e-24)
(0.01083964 0.0005477344 -9.948157e-25)
(0.008732893 -0.002672038 -1.364825e-23)
(0.01000917 0.001124725 3.862323e-24)
(0.01096035 -0.001201681 1.280123e-23)
(0.01066501 -0.001178138 -1.126937e-23)
(0.01017003 -0.001505023 1.87248e-23)
(0.01034427 0.001285819 0)
(0.01010647 -0.0001244597 1.262378e-23)
(0.01101619 -0.0005848911 0)
(0.01049715 0.000768124 -4.611855e-25)
(0.01162246 -0.0002359997 2.383392e-24)
(0.01052257 -0.0001024897 6.864188e-24)
(0.009956105 0.001351096 3.504971e-24)
(0.01086456 0.0009642204 0)
(0.009424357 0.001562181 4.021242e-24)
(0.01013358 -0.0006536473 7.505443e-24)
(0.01017216 -0.0005333683 1.032452e-23)
(0.009475247 -0.0008769268 0)
(0.009785314 0.001655034 8.691581e-24)
(0.01037732 0.001499229 2.550774e-24)
(0.01016558 -0.0004979903 7.98953e-24)
(0.009988463 -0.001164109 -1.987728e-23)
(0.01011825 -0.000365497 4.979719e-24)
(0.0098481 0.001404611 0)
(0.01086829 -7.455391e-05 -2.52512e-24)
(0.01074014 0.0008916635 -9.112089e-25)
(0.009787975 -0.001031587 -2.639557e-23)
(0.01025719 -0.0004238741 0)
(0.01123605 -0.0005073363 -1.211591e-23)
(0.01090023 -0.0002352127 1.528569e-23)
(0.008852831 -0.0006137251 6.49332e-26)
(0.00909571 -0.0006405808 2.301583e-23)
(0.009902433 0.001333017 -3.173307e-24)
(0.01034511 0.0007177834 8.268221e-26)
(0.01057001 0.0009541911 1.777948e-24)
(0.01086779 -0.0005708757 -8.560707e-25)
(0.01090826 0.0001085691 2.140078e-24)
(0.009978115 -0.0003143933 -1.232236e-23)
(0.01104503 0.0002898421 0)
(0.00922639 -0.002309507 2.960351e-23)
(0.0098854 -0.0001804681 0)
(0.01041607 0.0007613049 0)
(0.009278038 -0.0004364965 0)
(0.01071322 0.0005015389 0)
(0.007228734 -0.0005894533 0)
(0.01126779 2.14811e-05 0)
(0.01010438 -0.001075405 -1.705016e-24)
(0.0108239 0.0003170752 2.478548e-24)
(0.01048258 -0.0004597665 -1.813593e-23)
(0.009750706 -0.001785674 -2.366918e-23)
(0.01008173 -0.0005383953 7.457063e-24)
(0.0106329 -4.106774e-05 -1.784064e-25)
(0.01038933 -0.0007210934 1.106779e-23)
(0.01037586 -0.0005445321 3.443875e-26)
(0.009805538 -0.0008368057 1.500249e-23)
(0.01031519 -0.0003998487 -1.553485e-24)
(0.01090448 0.0007237558 -2.154163e-25)
(0.01101309 0.0008080506 0)
(0.01018641 -0.0007192451 -1.403742e-23)
(0.01027796 -0.0006396615 3.416378e-24)
(0.01033839 -0.001619407 1.124738e-23)
(0.009482796 -0.001677156 0)
(0.009695486 -0.001679221 -2.603588e-23)
(0.01097993 0.000402666 1.700629e-24)
(0.01078076 8.68302e-05 0)
(0.01024673 -0.0006988745 0)
(0.009695155 -0.002363629 0)
(0.009746528 -0.0007127357 7.204002e-24)
(0.0102254 -0.0003499698 0)
(0.007513571 -0.001511459 -1.631938e-23)
(0.0112758 -0.0009525344 -3.415674e-24)
(0.01079691 0.0001921582 6.574817e-24)
(0.01065034 -0.000917765 1.080457e-23)
(0.01052078 0.0007113713 -2.653544e-26)
(0.01083914 -0.001355415 8.623716e-25)
(0.01094325 0.0007942796 4.742835e-25)
(0.01103437 -6.860749e-05 -4.271734e-24)
(0.0113588 0.0006826712 0)
(0.01002842 -0.0005425946 -1.67375e-23)
(0.01090169 0.001054127 7.410592e-25)
(0.01040143 -0.0005491719 0)
(0.009821959 0.001152094 0)
(0.0104739 0.001006019 0)
(0.01008003 -0.0004052441 -8.865129e-24)
(0.01074221 0.0005311397 2.661954e-25)
(0.01097777 0.0001192341 -3.133345e-25)
(0.01153702 -0.00062178 0)
(0.01121234 -0.0004043995 3.603623e-24)
(0.0100842 -0.0003568401 5.613833e-24)
(0.01159349 7.422205e-05 -8.1206e-25)
(0.009748577 0.001696594 -9.337874e-25)
(0.01111892 -0.001570705 -8.018193e-24)
(0.01001342 -0.0005779249 1.523457e-23)
(0.0104393 -0.0001718032 -5.28792e-24)
(0.01096745 0.0009421699 0)
(0.01069969 0.00105821 2.181454e-24)
(0.007227936 -0.001717445 -1.515467e-23)
(0.01040076 -0.0002467575 -9.032455e-25)
(0.01059012 0.001388701 -3.978122e-24)
(0.01064587 -0.0006537137 0)
(0.01037064 -0.001859286 0)
(0.01040766 -0.0007009628 -1.039296e-25)
(0.01018632 -0.0008855261 1.274565e-23)
(0.01136416 -0.0003808593 -8.09296e-25)
(0.01049381 -0.0010321 1.618341e-23)
(0.009913374 -0.0005645481 0)
(0.01111052 0.00100445 -3.491523e-24)
(0.009539906 0.001396094 4.393681e-24)
(0.01066045 0.0003901949 -1.160522e-24)
(0.01083564 0.001144128 -7.333625e-24)
(0.008172596 -0.002700012 1.625752e-23)
(0.01026367 0.0008258953 0)
(0.01110815 -0.0006468603 3.515462e-25)
(0.009723824 -0.0008242369 -1.884466e-23)
(0.009875774 -0.0005232794 1.918532e-23)
(0.01139332 -0.0002130062 2.857975e-24)
(0.01151087 -0.0003583307 -5.902918e-25)
(0.009213221 0.001341572 0)
(0.009766871 -0.0002499387 -3.610214e-23)
(0.01033524 -0.0004828476 1.011944e-23)
(0.009686532 -0.0007220021 3.875048e-24)
(0.009792266 -0.0004924549 2.781057e-26)
(0.01055488 0.001232127 2.488775e-24)
(0.01078394 -0.0001840307 -1.284372e-23)
(0.01031987 -0.0004263768 0)
(0.0112283 -0.0002484776 -2.071338e-24)
(0.01152155 -0.0005621373 -1.404652e-24)
(0.01009396 -0.0007300593 0)
(0.01021868 -0.001166368 8.643441e-24)
(0.00952196 -0.0004589118 -1.654459e-23)
(0.01127396 0.0008096988 -3.484324e-25)
(0.01103056 0.0010824 1.000109e-23)
(0.01111186 -0.0002358772 -3.079584e-24)
(0.01112634 0.000755082 0)
(0.01046734 -0.0004384772 8.956353e-24)
(0.01103791 -0.0003294697 3.152485e-24)
(0.009933384 0.00154935 0)
(0.01063882 -0.000510539 0)
(0.009379128 -0.002027349 0)
(0.009710359 -0.001019068 1.576533e-23)
(0.01094275 -0.0002967515 1.349432e-23)
(0.01077161 0.0003181741 3.822183e-24)
(0.01142043 -0.0003568124 4.283791e-24)
(0.01161607 -0.0002085903 1.283606e-24)
(0.01132007 -0.001116576 -7.109599e-24)
(0.008811019 -0.001314311 0)
(0.008335669 -0.0009418354 -3.837237e-23)
(0.01055049 0.0003270425 2.630504e-24)
(0.009676053 -0.0002458319 2.261735e-23)
(0.009895503 -0.0009472218 -1.736952e-23)
(0.01150862 -0.000850473 -2.089095e-24)
(0.01144365 -0.001057604 4.839138e-24)
(0.01153433 -0.0007057041 7.245714e-24)
(0.01004385 -0.0006703759 1.445865e-23)
(0.009456971 -0.002591546 0)
(0.01096385 0.0003268242 -2.254001e-24)
(0.00962022 -0.0009727211 0)
(0.01094644 -0.00167543 0)
(0.01042654 0.0007164026 2.178573e-26)
(0.01061527 7.026085e-05 -3.589319e-25)
(0.01001058 -0.0007186697 -7.408894e-24)
(0.01159736 -0.0001218893 -4.476767e-25)
(0.008958606 -0.001248777 -6.355557e-24)
(0.01065337 -0.0007061018 -9.068253e-24)
(0.0107043 -0.0003916543 3.806447e-24)
(0.01046014 0.001198456 1.998899e-24)
(0.009701233 -0.0003240899 2.445707e-23)
(0.01070649 -0.001241309 1.774591e-23)
(0.01015488 0.0002092862 -1.416436e-23)
(0.01032964 -0.0007961325 4.682582e-24)
(0.01041696 -0.001738908 1.036396e-23)
(0.0108414 -0.0002269121 1.723954e-23)
(0.00846119 -0.002012324 0)
(0.01010102 -0.0005425177 -1.777387e-23)
(0.01054862 7.875602e-06 0)
(0.0112981 -0.0002162347 -2.868878e-24)
(0.01012806 -0.0004575544 0)
(0.01004373 0.001006609 0)
(0.01111489 0.0006992838 -4.814626e-27)
(0.01080443 0.0003423004 0)
(0.009985986 -0.000436553 2.972773e-23)
(0.009988987 -0.001225406 0)
(0.01039545 -0.0007797512 0)
(0.009673556 -0.001130799 -1.645782e-23)
(0.009954481 -0.0009735269 1.960497e-23)
(0.01085929 0.001209248 3.170799e-24)
(0.01110557 0.0004629712 -7.244159e-25)
(0.01017148 -0.001223514 1.098011e-23)
(0.01062281 0.001027473 0)
(0.0111384 -0.0009901312 4.519415e-24)
(0.0105045 0.001277727 -2.768537e-24)
(0.01133036 0.0006862108 -7.982293e-25)
(0.010819 -0.0006930284 -1.768487e-23)
(0.009809704 -0.00144887 -8.389563e-25)
(0.0106559 -0.001678066 0)
(0.01105964 -5.541724e-05 5.259997e-24)
(0.01135305 0.0003461106 -3.249618e-25)
(0.01153972 -1.244796e-05 0)
(0.00900742 -0.0005418744 -3.10965e-23)
(0.01041563 -0.0004409647 0)
(0.0110898 0.0005389895 0)
(0.009686704 0.001755587 -8.957734e-24)
(0.01014272 -0.0005839415 5.144039e-24)
(0.01005382 -5.912969e-05 -1.997452e-23)
(0.01012976 -0.0002911128 0)
(0.01056185 0.0003446825 0)
(0.009158405 0.001781128 4.353471e-25)
(0.0102878 -0.0005617387 6.280122e-24)
(0.008759929 -0.002795998 1.086166e-23)
(0.0111997 -2.040494e-05 1.970758e-24)
(0.009681057 -0.0005816983 1.765629e-23)
(0.009969722 -0.000700391 -1.725383e-23)
(0.01038977 -0.001191058 -1.331373e-23)
(0.009811107 -0.0001514179 -1.388732e-23)
(0.009712448 -0.0001012369 -4.247816e-26)
(0.01015599 -0.0002144556 0)
(0.01100613 0.000336951 0)
(0.0112646 -0.0004209626 -1.221588e-25)
(0.01073569 0.0001225541 -4.569697e-24)
(0.01047844 -0.0003638148 -1.357743e-23)
(0.008069732 -0.0005498351 1.296952e-23)
(0.010049 -0.0003224066 8.859565e-24)
(0.00971932 -0.000421597 0)
(0.01135232 -0.001119109 1.140884e-23)
(0.01066002 -0.0004182488 0)
(0.01040168 -0.001643636 1.245884e-23)
(0.0102335 -0.0003923325 1.049581e-23)
(0.01007669 -0.0004236851 1.680347e-23)
(0.008912544 -0.0004774325 1.2149e-23)
(0.01052344 0.0005461395 -1.04508e-25)
(0.01035036 -0.0003843467 9.076005e-24)
(0.009812146 -0.001266569 -2.661628e-23)
(0.01102998 -0.0009574858 -2.937936e-24)
(0.01003979 -0.0003055552 -3.752145e-25)
(0.01065404 -0.001957502 0)
(0.01078987 0.001262637 -3.089214e-24)
(0.01107886 7.094165e-05 -1.686935e-24)
(0.01046095 0.000656614 -1.366771e-25)
(0.01049581 -0.001414268 8.861884e-24)
(0.01039978 -0.001239991 0)
(0.01088301 0.0008854939 0)
(0.01063903 0.0003826988 0)
(0.01011133 -0.0004523505 2.952954e-23)
(0.01051587 0.0004669155 -1.100566e-24)
(0.009444491 -0.002635374 -2.411584e-23)
(0.01006431 -0.0005527145 0)
(0.01136209 0.0004956914 0)
(0.009189364 -0.001942964 0)
(0.009026094 -0.002644063 0)
(0.009991741 -0.001596304 -3.445223e-23)
(0.009717563 -0.001948674 0)
(0.009812747 -0.001332402 6.037184e-24)
(0.01011508 -0.0002357794 5.474192e-24)
(0.01013538 -0.0005023928 9.886967e-24)
(0.01023255 -0.0006391977 9.920797e-24)
(0.01047363 -0.001291395 -1.553711e-23)
(0.006167342 -0.00123067 3.415954e-23)
(0.01063963 -0.0008501758 2.998697e-25)
(0.01078829 -3.090491e-05 0)
(0.01071615 0.0004153217 0)
(0.009970705 -0.0006329986 0)
(0.01084395 -2.579396e-05 1.045924e-24)
(0.01040501 -0.0009889392 5.627718e-24)
(0.01016975 -0.0004747748 -1.354593e-23)
(0.008364113 -0.0008438622 2.581492e-23)
(0.01063139 0.000362175 -3.943927e-24)
(0.01063672 -0.0005499868 0)
(0.01052897 -0.001225475 0)
(0.009405527 -0.0006266585 -2.403544e-23)
(0.008461868 -0.0008155553 -2.415452e-23)
(0.009995372 -0.00034646 -8.424322e-24)
(0.01109072 0.0009810915 1.89272e-24)
(0.0100906 -0.0003078557 5.921234e-24)
(0.006608183 -0.002441626 -6.288983e-23)
(0.008789294 -0.002464776 -3.083167e-23)
(0.01066561 -0.0003564985 -6.277785e-24)
(0.01015708 -0.0004080954 4.157317e-24)
(0.01066813 -0.0006510833 6.413548e-24)
(0.00966315 -0.000176017 -4.083896e-23)
(0.01061896 0.0002360133 -4.732462e-24)
(0.009990384 -0.0002635852 1.035252e-23)
(0.009236678 -0.002682726 -1.98562e-23)
(0.01066841 0.0005495033 -1.150478e-24)
(0.01072314 -0.0003627441 -7.343588e-24)
(0.009724825 -0.0008452639 1.768163e-23)
(0.01123008 -0.0003685263 -7.074576e-24)
(0.009982286 -0.0008620935 0)
(0.0108739 -0.0009766504 -6.880344e-24)
(0.008691898 -0.0006546837 0)
(0.01042097 -0.0005251603 0)
(0.009826335 0.001571651 0)
(0.01158477 7.548992e-05 -7.530596e-26)
(0.01143068 0.0005472683 0)
(0.01069269 -0.0004508066 -2.695404e-24)
(0.01115463 0.0009585499 3.024733e-24)
(0.01098745 0.0009457513 -9.30637e-25)
(0.01133208 0.0004025828 1.498582e-24)
(0.008437486 -0.002406509 -3.181209e-24)
(0.01021271 -0.0005420353 -1.438473e-23)
(0.01082779 0.0005167858 -6.501631e-26)
(0.01048723 0.0008163094 0)
(0.01053145 0.0006361452 0)
(0.01048903 0.0007413992 3.828656e-25)
(0.0105612 0.0007353782 -7.16922e-26)
(0.01090607 -0.0003251322 0)
(0.01114784 -0.0005755106 6.025421e-24)
(0.01000921 -0.0001484031 -1.041627e-23)
(0.01091378 0.0001489778 7.954412e-25)
(0.01092273 0.0001187845 0)
(0.01012163 -0.0004362756 6.052226e-24)
(0.01096376 0.0001879563 0)
(0.01039648 0.00121247 -1.869992e-24)
(0.009114361 -0.000778608 0)
(0.01046416 -0.000395458 1.151159e-23)
(0.01004698 -0.0006107511 1.34965e-24)
(0.01004798 -0.0004918483 1.466534e-24)
(0.01002696 0.0008955163 2.265553e-24)
(0.01031547 0.000737546 1.119369e-25)
(0.01020024 -0.001329535 7.557471e-26)
(0.009926796 -0.001417298 4.262547e-23)
(0.01096457 -0.001725869 -7.206968e-24)
(0.01049756 0.0001543323 -1.742917e-24)
(0.009362591 -0.0007681534 3.130832e-23)
(0.01113385 -0.0003153888 -8.097769e-24)
(0.01003311 -0.0003186592 1.168129e-23)
(0.01003921 -0.0003545175 -1.214057e-23)
(0.01074592 0.0003735659 2.246758e-24)
(0.01051465 -0.0001841683 9.178687e-24)
(0.01034557 0.0008731237 8.916168e-25)
(0.01011178 0.0008825421 0)
(0.0105046 0.000217866 -8.783989e-25)
(0.01089501 -0.0007989268 0)
(0.01036659 -0.0005570628 1.155624e-23)
(0.01012795 -0.0007548178 -8.785179e-24)
(0.01006029 0.001110443 0)
(0.009796765 -0.0005893959 2.110337e-23)
(0.01005625 -0.0005039393 0)
(0.01037068 0.0009316412 -5.017733e-24)
(0.01080757 0.0003193243 -1.162019e-24)
(0.0101795 -0.0006558456 0)
(0.01019426 -0.0005339699 -2.363609e-23)
(0.01002991 -0.001004966 0)
(0.01052415 0.0003915479 -1.172204e-24)
(0.01147565 -0.0003649643 1.80045e-25)
(0.009735135 -0.0005982902 0)
(0.009132024 -0.000840557 6.592624e-25)
(0.01126512 0.0007676995 0)
(0.01000882 -0.0005281627 2.859641e-24)
(0.009683734 -0.0005347364 -2.812471e-23)
(0.009878568 -0.0004837316 0)
(0.01056248 0.0003028984 -2.249356e-24)
(0.00940978 0.001341617 -3.11206e-24)
(0.008666518 -0.0004075707 1.326018e-23)
(0.009894612 -0.0003683507 -1.489958e-23)
(0.009553135 -0.0005818187 2.586891e-23)
(0.01039576 0.000681489 -5.289724e-26)
(0.01056571 0.0008628119 0)
(0.01071207 -0.0003319414 2.524711e-24)
(0.009070751 -0.0025161 1.030079e-23)
(0.01078675 0.0002811999 -2.247395e-24)
(0.01090726 -0.0007626317 0)
(0.009936536 0.001627819 -9.238423e-24)
(0.01071784 -0.0006131426 1.447532e-23)
(0.01081863 0.0004068541 3.178645e-25)
(0.01026953 -0.0008795615 -8.352013e-24)
(0.01059619 0.001259767 3.85392e-24)
(0.009948747 -0.0004077108 1.114348e-23)
(0.01000907 -0.0008410952 0)
(0.01058852 0.0004248022 2.053943e-24)
(0.01118311 0.0005238339 -8.978748e-25)
(0.01034 -0.0005847682 0)
(0.01026933 -0.0005712912 1.694818e-23)
(0.009567253 -0.0004884206 -3.017441e-23)
(0.009694353 -0.0004652254 -5.038987e-26)
(0.01042702 -0.000589301 -4.201996e-25)
(0.01071264 0.0006370514 5.918597e-25)
(0.01113284 -0.0008192524 2.096166e-24)
(0.01071692 0.001122183 0)
(0.01027763 -0.0001393939 0)
(0.01065578 0.0002683494 -3.700388e-24)
(0.01017101 -0.0002820503 -1.159985e-23)
(0.009607063 -0.0002287218 -2.950769e-23)
(0.01120587 0.0006625109 2.689729e-26)
(0.009993143 -0.0007567966 0)
(0.01044903 -0.0002375495 0)
(0.01139361 0.0005589933 -4.577717e-25)
(0.01154448 -0.0007805211 3.612242e-24)
(0.01018962 0.00100965 -1.429647e-24)
(0.01118055 -0.0006357331 -4.617307e-25)
(0.009935145 -0.0004248133 0)
(0.0100003 -2.926947e-05 0)
(0.01143854 0.0002912685 0)
(0.01151058 9.977541e-05 3.798275e-25)
(0.009760242 -0.0002788201 3.164368e-23)
(0.009671355 -0.0002716838 -4.098271e-23)
(0.01044097 -0.0007286734 -3.119102e-23)
(0.01151053 -0.0004203315 4.969322e-24)
(0.01069551 -3.833008e-05 -3.92189e-24)
(0.01077036 0.0001148697 2.912653e-24)
(0.01059082 4.537488e-05 -6.472769e-24)
(0.01094252 -0.0002194389 1.191443e-23)
(0.01131082 -6.413305e-05 -5.236309e-24)
(0.01113737 -0.0001226938 5.607169e-24)
(0.009892251 -0.000115192 0)
(0.009495251 -0.0002723297 -1.78812e-23)
(0.01095797 0.0002781423 -2.934962e-24)
(0.009885366 -0.0003927487 1.442609e-23)
(0.01069677 0.001294901 0)
(0.01054606 0.0004781673 0)
(0.01000283 -0.0005097343 1.075961e-23)
(0.009975336 -0.000481958 7.782252e-26)
(0.01006878 -0.0001883003 -2.05561e-23)
(0.009884854 -0.0006555645 1.815439e-23)
(0.01018026 -0.0007643833 3.111583e-23)
(0.009614786 -0.0007673019 1.725969e-23)
(0.009619233 -0.0007264534 -4.647206e-23)
(0.01024154 0.00157266 -9.917447e-25)
(0.009864427 0.00147026 9.126891e-24)
(0.01009964 0.0009626304 1.523423e-24)
(0.01072174 0.001233868 0)
(0.01050065 0.001052227 0)
(0.01066353 0.0005928787 7.191903e-25)
(0.01075254 0.0006692153 7.683462e-25)
(0.01029735 0.001156464 -1.491225e-24)
(0.009933458 -0.0007979131 8.00789e-24)
(0.01015841 -0.0004415171 -4.262398e-24)
(0.01009532 -0.0004167078 -8.721312e-27)
(0.01007206 -0.000443511 9.997995e-24)
(0.01135775 1.122052e-05 1.237774e-24)
(0.01056591 0.0009843961 3.891539e-25)
(0.01047003 -0.001175291 0)
(0.01042029 -0.0006239234 8.008578e-26)
(0.01039706 -0.0006018343 3.039469e-24)
(0.009916781 -0.000397496 0)
(0.0107754 -0.0003280573 0)
(0.01088897 -0.0001192496 0)
(0.01018038 -0.0005847318 1.170484e-23)
(0.01008077 0.001076515 1.050941e-24)
(0.009747003 -0.0008095687 0)
(0.01027481 0.0009774791 0)
(0.0104196 0.00103019 1.536689e-24)
(0.01091816 -0.0006378386 -2.753141e-27)
(0.01024636 -0.0002566493 0)
(0.009040476 -0.001416031 -3.017501e-23)
(0.009951437 -0.0007582455 0)
(0.01046669 0.0001517547 -1.813266e-25)
(0.0109158 0.0002726849 -2.447577e-24)
(0.01090662 0.000228707 0)
(0.01124974 0.0002259324 -1.00471e-24)
(0.01080792 0.0003857986 -3.472031e-25)
(0.01062072 0.0004480826 2.65103e-24)
(0.01066624 0.0005038744 0)
(0.01041922 -0.000374807 -8.007521e-24)
(0.0110514 0.0005074808 1.121922e-24)
(0.01108087 0.0002376037 0)
(0.00985851 -0.0004277222 -1.779994e-23)
(0.0100235 -0.0006066764 1.342237e-23)
(0.00999329 -0.0003910597 -2.206467e-24)
(0.01122246 -0.0008966248 0)
(0.01109096 -0.001144857 -1.030137e-23)
(0.01110157 -5.271033e-05 -3.584035e-24)
(0.01112857 -6.822545e-05 3.480761e-24)
(0.01071118 -0.0005196387 1.248542e-23)
(0.01080454 -0.0006624966 4.354299e-24)
(0.01007512 -0.0006386653 -1.260252e-23)
(0.007492786 -0.0009238789 0)
(0.010551 -0.0006373198 -6.941286e-24)
(0.01052433 -0.0006859958 6.452282e-25)
(0.01037283 -0.0005756028 -9.165728e-24)
(0.01052034 -0.0005961475 1.592925e-23)
(0.01051598 0.0004539656 -7.210502e-25)
(0.01039771 -0.00074346 -6.646084e-24)
(0.01046299 -0.0009307871 0)
(0.01034677 -0.001164531 0)
(0.0102839 0.0008782641 1.659176e-24)
(0.01031808 0.000766352 0)
(0.01022879 0.001135708 0)
(0.01003688 -0.0002661334 -1.028086e-23)
(0.01045553 0.0005482994 0)
(0.01039023 0.0006083995 -2.207463e-25)
(0.01121491 -0.0014375 0)
(0.01112681 -0.001414293 9.307601e-24)
(0.01067978 -0.0006300071 -6.787721e-24)
(0.01062156 -0.0009465784 -1.15238e-24)
(0.0105743 -0.001620103 1.113217e-23)
(0.010906 -0.001746538 7.827935e-24)
(0.01056376 -0.001993237 -9.017148e-24)
(0.01047418 0.0006149527 -5.632611e-25)
(0.009908954 -0.0001621422 0)
(0.009794031 -0.0002308446 1.529639e-23)
(0.007694725 -0.0003386033 -6.048108e-24)
(0.01115495 0.0006141655 -6.896599e-25)
(0.01013717 -0.0005153249 -1.006684e-23)
(0.01096183 0.0006893814 0)
(0.01098378 0.000867115 0)
(0.009648947 -0.00100241 0)
(0.01013378 -0.0003596102 1.660858e-23)
(0.008128201 -0.001447911 0)
(0.01061627 0.0005363644 0)
(0.01011656 -0.00212021 2.821788e-23)
(0.0107914 0.0004483714 -7.652003e-24)
(0.0105046 -0.000578456 -2.100085e-23)
(0.01060788 -1.708256e-06 -1.375388e-24)
(0.01099305 -0.0006501403 0)
(0.01041717 0.001269895 0)
(0.01107699 0.000782408 3.130002e-24)
(0.0103985 -0.0009515321 0)
(0.01003596 -0.0006346832 1.94117e-23)
(0.009975194 -0.0005915429 0)
(0.01111284 -0.0005176072 -1.711758e-24)
(0.009517645 -0.00132223 -2.009794e-24)
(0.01142789 0.0002481387 0)
(0.01005456 -0.0002631704 -3.203319e-23)
(0.009979154 -0.0007984053 0)
(0.01097407 -0.001420386 -1.157945e-24)