/*--------------------------------*- C++ -*----------------------------------*\
| =========                 |                                                 |
| \\      /  F ield         | OpenFOAM: The Open Source CFD Toolbox           |
|  \\    /   O peration     | Version:  2406                                  |
|   \\  /    A nd           | Website:  www.openfoam.com                      |
|    \\/     M anipulation  |                                                 |
\*---------------------------------------------------------------------------*/
FoamFile
{
    version     2.0;
    format      ascii;
    arch        "LSB;label=32;scalar=64";
    class       volVectorField;
    location    "0.22";
    object      U;
}
// * * * * * * * * * * * * * * * * * * * * * * * * * * * * * * * * * * * * * //

dimensions      [0 1 -1 0 0 0 0];

internalField   nonuniform List<vector> 
4531
(
(3.585486e-05 7.217598e-07 0)
(1.355333e-05 -1.318558e-07 1.066049e-28)
(1.712592e-05 2.471513e-08 0)
(1.375803e-05 1.542646e-08 0)
(1.391511e-05 -7.331333e-09 0)
(1.319231e-05 1.839814e-08 0)
(1.244209e-05 -7.961174e-09 0)
(1.270858e-05 7.266692e-09 -1.704442e-28)
(1.175701e-05 8.909311e-09 0)
(1.160346e-05 -4.884749e-09 0)
(1.166171e-05 6.191679e-09 -1.125049e-27)
(1.132999e-05 2.290543e-10 2.098713e-27)
(1.083743e-05 1.000682e-08 1.698536e-27)
(1.094776e-05 -4.348538e-09 -1.704874e-27)
(1.146341e-05 7.38993e-10 0)
(1.126154e-05 1.623948e-09 0)
(1.116746e-05 2.433819e-09 0)
(1.106992e-05 5.322914e-09 0)
(1.173033e-05 -1.154663e-08 0)
(1.180468e-05 1.460975e-08 0)
(1.209115e-05 -3.746957e-09 -1.182864e-31)
(1.226239e-05 4.072316e-08 0)
(1.499131e-05 -1.489095e-07 -5.837807e-27)
(7.527957e-06 8.218786e-07 7.02659e-27)
(2.939645e-05 -1.253292e-06 0)
(1.123544e-06 -1.857431e-05 -1.222673e-24)
(-9.514967e-07 4.877674e-06 -4.789421e-27)
(9.873637e-08 -3.302358e-06 1.028689e-25)
(-6.064508e-08 -1.039853e-06 -1.047823e-25)
(-1.996261e-08 -1.108143e-06 -4.233494e-26)
(-1.429822e-08 -8.304909e-07 8.235488e-26)
(-9.145329e-09 -6.347961e-07 -4.001761e-26)
(-1.0046e-08 -3.735517e-07 0)
(-9.488487e-09 -3.720353e-07 -3.466443e-26)
(-1.803582e-09 -3.662135e-07 3.467006e-26)
(-4.364386e-09 -2.14926e-07 0)
(-2.843122e-09 -1.971768e-07 0)
(-2.3777e-09 -1.708393e-07 -1.56119e-26)
(-1.005499e-09 -1.226488e-07 1.561325e-26)
(-1.634334e-09 -8.096606e-08 0)
(-9.806937e-10 -7.897747e-08 1.482236e-26)
(-6.453674e-10 -6.068953e-08 -2.931534e-26)
(-4.823644e-10 -5.27487e-08 3.587351e-27)
(-1.015623e-10 -3.343795e-08 3.541635e-27)
(-1.041014e-10 -6.113256e-09 -1.84009e-27)
(-3.145852e-10 -4.174525e-09 -8.848886e-27)
(2.029067e-10 5.812932e-09 4.411038e-27)
(-2.01843e-10 2.078886e-08 -2.625545e-27)
(-4.912867e-11 1.343674e-08 1.313711e-27)
(-1.178366e-10 1.20841e-08 4.405488e-28)
(-8.305735e-11 7.18232e-09 -2.62538e-27)
(-1.256505e-10 2.521145e-09 8.740079e-28)
(-9.497801e-11 5.087289e-09 -3.523356e-27)
(-2.517971e-10 3.288176e-09 3.516917e-27)
(-1.365629e-10 1.200805e-08 5.343818e-27)
(-6.594298e-10 1.191134e-08 -7.094644e-27)
(-1.892509e-10 1.892741e-08 -7.227232e-27)
(-5.233114e-10 6.056372e-08 7.267745e-27)
(-1.310031e-09 5.572588e-08 0)
(-6.10206e-10 1.010445e-07 0)
(-2.089683e-09 1.26741e-07 -1.55875e-26)
(-2.700469e-09 1.143734e-07 1.558614e-26)
(-3.857638e-09 1.18957e-07 0)
(-3.288723e-09 1.627555e-07 0)
(-5.486131e-09 2.2654e-07 -3.505452e-26)
(-5.104223e-09 3.238926e-07 3.504882e-26)
(-1.156481e-08 3.651087e-07 0)
(-6.4012e-09 6.117937e-07 4.003826e-26)
(-2.02687e-08 7.261878e-07 -4.002803e-26)
(-8.872977e-09 1.135009e-06 0)
(-8.041636e-08 8.49791e-07 -1.06038e-25)
(1.307093e-07 3.419604e-06 1.078182e-25)
(-9.763502e-07 -4.845867e-06 -2.227328e-25)
(1.112484e-06 1.798749e-05 1.430919e-24)
(2.983839e-05 1.267046e-06 7.328323e-25)
(7.920933e-06 -8.164169e-07 6.312877e-27)
(1.490317e-05 1.575801e-07 1.003002e-27)
(1.227789e-05 -4.88895e-08 -4.767361e-27)
(1.208876e-05 1.119974e-08 -1.028836e-30)
(1.144411e-05 -1.549113e-08 0)
(1.148795e-05 5.113955e-09 0)
(1.135155e-05 -7.96699e-09 0)
(1.118251e-05 6.937211e-09 -2.503501e-27)
(1.074276e-05 -9.222984e-09 5.83021e-27)
(1.124559e-05 -1.009553e-09 -3.326739e-27)
(1.097204e-05 -2.044348e-09 0)
(1.12533e-05 -6.848508e-09 0)
(1.148213e-05 4.859658e-09 7.798338e-28)
(1.156372e-05 -6.285393e-09 0)
(1.171294e-05 2.02474e-09 3.132386e-28)
(1.203049e-05 -1.136806e-08 -3.134671e-28)
(1.261511e-05 -9.286691e-10 -1.468088e-28)
(1.30704e-05 -8.146552e-09 2.105803e-27)
(1.319925e-05 7.76098e-09 2.315853e-27)
(1.316745e-05 -3.684427e-09 -6.808973e-27)
(1.402554e-05 -1.247947e-08 3.741998e-27)
(1.769163e-05 -4.721401e-08 -6.618993e-27)
(1.414363e-05 1.557779e-07 2.780475e-26)
(3.447126e-05 -7.000995e-07 1.355133e-25)
(2.565897e-05 -2.466573e-05 0)
(9.400212e-06 -9.584273e-06 2.980883e-24)
(1.16631e-05 -1.161331e-05 -4.720309e-24)
(9.698604e-06 -9.707821e-06 2.91652e-26)
(9.224896e-06 -9.207986e-06 -3.791895e-24)
(8.61483e-06 -8.609431e-06 3.566701e-24)
(8.626346e-06 -8.628536e-06 3.298203e-24)
(8.276618e-06 -8.262066e-06 3.498367e-24)
(7.647696e-06 -7.641372e-06 -3.263951e-24)
(7.870147e-06 -7.880163e-06 3.03173e-24)
(7.609033e-06 -7.591789e-06 -3.543238e-24)
(7.078675e-06 -7.068784e-06 2.659817e-26)
(6.788098e-06 -6.787003e-06 -2.449968e-26)
(6.990928e-06 -6.998769e-06 2.452387e-26)
(7.004035e-06 -6.999116e-06 0)
(6.620802e-06 -6.614075e-06 0)
(6.452108e-06 -6.448331e-06 -3.234343e-24)
(6.46873e-06 -6.470634e-06 5.302056e-29)
(6.346855e-06 -6.349866e-06 -3.331434e-24)
(6.34303e-06 -6.331788e-06 2.581314e-26)
(6.372776e-06 -6.383767e-06 0)
(6.327446e-06 -6.321639e-06 2.679365e-26)
(6.41769e-06 -6.427417e-06 -2.64349e-26)
(6.475157e-06 -6.475954e-06 0)
(6.259491e-06 -6.257603e-06 0)
(6.255742e-06 -6.260641e-06 -1.705862e-27)
(6.212328e-06 -6.218051e-06 0)
(6.23181e-06 -6.233832e-06 -1.586097e-27)
(6.427901e-06 -6.44887e-06 3.878077e-24)
(6.505587e-06 -6.515959e-06 -1.581758e-26)
(6.517244e-06 -6.535055e-06 4.234309e-24)
(6.595226e-06 -6.62975e-06 -1.859481e-26)
(6.650918e-06 -6.672993e-06 1.859544e-26)
(7.397202e-06 -7.555645e-06 0)
(7.149044e-06 -7.298008e-06 6.442865e-24)
(7.008893e-06 7.141771e-06 6.604624e-24)
(7.385525e-06 7.556189e-06 -6.128531e-27)
(6.592418e-06 6.611812e-06 1.877782e-26)
(6.556592e-06 6.591558e-06 -4.623662e-24)
(6.479023e-06 6.496715e-06 4.255338e-24)
(6.465832e-06 6.475887e-06 -4.212021e-24)
(6.399641e-06 6.419947e-06 -1.585561e-26)
(6.215124e-06 6.217324e-06 1.548546e-27)
(6.19819e-06 6.203556e-06 0)
(6.251268e-06 6.255981e-06 0)
(6.265662e-06 6.263493e-06 0)
(6.496596e-06 6.49725e-06 0)
(6.445958e-06 6.455678e-06 0)
(6.366776e-06 6.360487e-06 0)
(6.436379e-06 6.447306e-06 0)
(6.411377e-06 6.400134e-06 0)
(6.440182e-06 6.442645e-06 3.312316e-24)
(6.559236e-06 6.562422e-06 3.218413e-24)
(6.509956e-06 6.506559e-06 0)
(6.662258e-06 6.656107e-06 3.375314e-24)
(7.027346e-06 7.022695e-06 -3.276229e-24)
(7.008292e-06 7.01616e-06 0)
(6.806454e-06 6.805252e-06 2.591181e-26)
(7.101801e-06 7.091811e-06 3.304498e-24)
(7.631443e-06 7.614271e-06 2.557996e-26)
(7.887737e-06 7.897884e-06 -2.528377e-26)
(7.654833e-06 7.648743e-06 -3.263851e-24)
(8.271835e-06 8.257912e-06 5.796869e-27)
(8.562531e-06 8.56666e-06 -6.601353e-24)
(8.535196e-06 8.52995e-06 5.543859e-26)
(9.080297e-06 9.067914e-06 -3.76561e-24)
(9.457407e-06 9.469489e-06 0)
(1.209331e-05 1.200359e-05 0)
(9.338664e-06 9.578272e-06 1.214999e-26)
(2.507747e-05 2.406681e-05 1.224431e-23)
(2.196837e-05 2.079819e-05 -2.341217e-23)
(2.32336e-05 2.350518e-05 0)
(2.109668e-05 2.119828e-05 0)
(2.091057e-05 2.095973e-05 3.003175e-26)
(2.069749e-05 2.072134e-05 -7.447428e-24)
(2.065763e-05 2.065409e-05 1.464833e-23)
(2.045459e-05 2.052943e-05 6.766957e-24)
(1.988773e-05 1.990635e-05 -1.338527e-23)
(1.982134e-05 1.982103e-05 -6.535736e-24)
(1.998774e-05 1.998437e-05 0)
(2.005622e-05 2.00078e-05 0)
(2.07633e-05 2.07266e-05 -4.737627e-26)
(2.061853e-05 2.066232e-05 5.835496e-24)
(2.037119e-05 2.034012e-05 -4.667712e-26)
(2.058643e-05 2.061596e-05 0)
(2.055228e-05 2.049162e-05 5.782478e-24)
(2.059587e-05 2.058196e-05 -5.7034e-24)
(2.09913e-05 2.100155e-05 0)
(2.087371e-05 2.084966e-05 0)
(2.136267e-05 2.128536e-05 -5.902001e-24)
(2.243025e-05 2.23662e-05 -5.631236e-24)
(2.241447e-05 2.2462e-05 -4.209511e-26)
(2.187481e-05 2.186394e-05 8.65906e-26)
(2.2836e-05 2.269326e-05 -5.792281e-24)
(2.442297e-05 2.425522e-05 4.608247e-26)
(2.521469e-05 2.52479e-05 0)
(2.46459e-05 2.455316e-05 5.552408e-24)
(2.657652e-05 2.64041e-05 1.203564e-23)
(2.746985e-05 2.743958e-05 5.658206e-24)
(2.749077e-05 2.736915e-05 0)
(2.923802e-05 2.905475e-05 6.449788e-24)
(3.088661e-05 3.052304e-05 0)
(3.844711e-05 3.812672e-05 0)
(3.319053e-05 3.188137e-05 -7.70657e-24)
(7.752361e-05 7.25104e-05 -2.121201e-23)
(7.910852e-05 -7.432714e-05 1.90876e-23)
(3.348297e-05 -3.186863e-05 5.163806e-26)
(3.724545e-05 -3.704753e-05 4.997493e-27)
(3.161235e-05 -3.130891e-05 -5.62311e-26)
(2.980454e-05 -2.960337e-05 0)
(2.774958e-05 -2.761375e-05 2.101412e-26)
(2.766976e-05 -2.762366e-05 5.666008e-24)
(2.659971e-05 -2.641597e-05 0)
(2.462686e-05 -2.453011e-05 -5.60003e-24)
(2.516156e-05 -2.519218e-05 -8.620632e-26)
(2.435374e-05 -2.418497e-05 -2.059846e-27)
(2.27636e-05 -2.262165e-05 4.562426e-26)
(2.181591e-05 -2.180603e-05 0)
(2.235853e-05 -2.240519e-05 0)
(2.235633e-05 -2.228806e-05 0)
(2.123364e-05 -2.114979e-05 4.509828e-26)
(2.069213e-05 -2.066056e-05 5.566672e-24)
(2.071044e-05 -2.07125e-05 4.359005e-26)
(2.030161e-05 -2.029352e-05 5.603637e-24)
(2.033327e-05 -2.027684e-05 0)
(2.038636e-05 -2.042119e-05 -4.522662e-26)
(2.024542e-05 -2.022088e-05 6.144578e-24)
(2.052847e-05 -2.057486e-05 -9.169919e-26)
(2.069586e-05 -2.066324e-05 9.515548e-26)
(2.003667e-05 -1.999279e-05 -4.816909e-26)
(2.000235e-05 -2.00024e-05 6.260307e-24)
(1.986609e-05 -1.986831e-05 0)
(1.994196e-05 -1.996224e-05 6.637592e-24)
(2.054528e-05 -2.062527e-05 -5.181775e-26)
(2.078382e-05 -2.078128e-05 7.230696e-24)
(2.081955e-05 -2.084354e-05 -7.293116e-24)
(2.103661e-05 -2.108816e-05 7.902305e-24)
(2.127863e-05 -2.138057e-05 8.612628e-24)
(2.32942e-05 -2.356167e-05 -3.319512e-26)
(2.23871e-05 -2.128649e-05 -3.436353e-23)
(9.108618e-05 4.81614e-06 -3.64997e-24)
(3.129171e-05 3.27473e-08 -2.059624e-27)
(4.670806e-05 5.638855e-08 -2.198876e-26)
(4.001241e-05 1.172185e-07 1.540517e-26)
(3.892398e-05 1.248783e-07 -1.132928e-29)
(3.683911e-05 1.528075e-08 0)
(3.686557e-05 3.445369e-08 5.826779e-27)
(3.645182e-05 2.185879e-09 1.335599e-27)
(3.592443e-05 7.311593e-08 -1.578301e-26)
(3.453569e-05 -1.77974e-08 8.601804e-27)
(3.599851e-05 -2.239217e-08 0)
(3.52165e-05 -1.374535e-08 -6.396754e-27)
(3.603492e-05 -5.349059e-08 1.01519e-26)
(3.677676e-05 1.830323e-09 -4.637931e-27)
(3.710854e-05 -3.323025e-08 3.306228e-27)
(3.760372e-05 -1.957134e-08 0)
(3.85647e-05 -9.951977e-08 7.203016e-28)
(4.041001e-05 -7.297554e-08 6.906083e-28)
(4.188546e-05 -7.559331e-08 -5.95947e-27)
(4.237757e-05 6.327301e-09 5.738693e-27)
(4.241121e-05 -1.023064e-07 1.2824e-26)
(4.543646e-05 -3.601675e-07 -1.277681e-26)
(5.616318e-05 -1.468414e-07 0)
(4.823834e-05 -8.823911e-07 6.89517e-26)
(0.0001052083 -3.347738e-06 -3.356748e-25)
(5.72604e-06 -5.702379e-05 2.163947e-24)
(2.341952e-09 8.409322e-06 -2.314209e-25)
(-1.39287e-07 -9.660318e-06 1.719112e-25)
(1.001783e-07 -4.124652e-06 0)
(2.463591e-08 -3.828931e-06 -5.890421e-28)
(3.414471e-08 -2.900139e-06 0)
(3.802735e-08 -2.231834e-06 -1.311252e-25)
(2.390276e-08 -1.38926e-06 1.311982e-25)
(-8.117639e-09 -1.303127e-06 -4.693107e-28)
(1.789543e-08 -1.256365e-06 5.810943e-26)
(1.124864e-08 -7.845659e-07 -5.790815e-26)
(4.39271e-09 -7.017141e-07 0)
(4.549987e-09 -6.054858e-07 0)
(8.677419e-09 -4.438822e-07 0)
(2.761717e-09 -3.076495e-07 0)
(1.587397e-09 -2.876569e-07 -2.550647e-26)
(2.057949e-09 -2.244171e-07 1.567425e-28)
(2.050163e-09 -1.9365e-07 6.176808e-27)
(4.019255e-09 -1.27282e-07 1.839005e-26)
(2.773229e-09 -4.023626e-08 -9.224364e-27)
(3.740792e-10 -2.728049e-08 9.093104e-27)
(2.844517e-09 6.827713e-09 -1.971314e-26)
(1.242682e-10 5.623597e-08 7.559517e-27)
(-5.033618e-10 3.950932e-08 -7.518238e-28)
(-7.103807e-10 3.829179e-08 6.146932e-30)
(-7.363621e-10 2.665154e-08 7.488143e-28)
(-3.154631e-10 1.538218e-08 7.534544e-27)
(1.996541e-10 2.69786e-08 3.025009e-27)
(2.880362e-10 2.589434e-08 0)
(1.155345e-09 5.565343e-08 9.159878e-27)
(-1.941171e-10 6.195959e-08 0)
(4.654978e-09 8.915967e-08 0)
(2.832525e-09 2.201782e-07 -2.527438e-26)
(2.341134e-09 2.196311e-07 5.138977e-26)
(7.286081e-09 3.672066e-07 2.678057e-26)
(-5.626589e-10 4.516786e-07 -5.267577e-26)
(-5.932294e-10 4.276576e-07 5.517993e-26)
(2.255528e-09 4.602584e-07 -5.495244e-26)
(1.021888e-08 6.084197e-07 -2.248458e-28)
(1.02126e-08 8.323864e-07 4.613057e-28)
(1.443435e-08 1.152907e-06 0)
(1.516479e-08 1.346658e-06 1.31473e-25)
(4.076168e-08 2.145226e-06 5.862242e-27)
(2.258734e-08 2.592526e-06 -1.382507e-25)
(4.49011e-08 3.865291e-06 0)
(6.059508e-08 3.591224e-06 0)
(-4.657787e-08 9.980495e-06 -3.237526e-27)
(-1.395386e-07 -8.416455e-06 7.366206e-27)
(5.75254e-06 5.525816e-05 1.979144e-24)
(0.0001093727 3.364101e-06 7.218351e-26)
(4.66118e-05 1.102514e-06 -7.440416e-26)
(5.474533e-05 7.868332e-08 3.410168e-26)
(4.470238e-05 2.803303e-07 -4.199443e-27)
(4.463391e-05 3.646106e-08 -1.731287e-26)
(4.238651e-05 1.734359e-07 1.060501e-26)
(3.999729e-05 1.545446e-08 -7.094562e-27)
(4.063377e-05 7.434231e-08 1.219931e-27)
(3.776624e-05 1.031987e-07 1.384377e-28)
(3.716647e-05 -1.137211e-08 8.408094e-28)
(3.73417e-05 3.718149e-08 -3.856491e-27)
(3.630695e-05 4.548298e-08 5.503274e-27)
(3.482834e-05 4.62559e-08 -3.912396e-27)
(3.519769e-05 -5.146078e-08 -4.497554e-27)
(3.672296e-05 -1.236442e-08 4.528053e-27)
(3.610914e-05 1.950005e-08 -8.080226e-27)
(3.577907e-05 1.747298e-08 8.139663e-27)
(3.560696e-05 -3.884125e-08 -5.640483e-27)
(3.764459e-05 -8.764199e-08 5.637207e-27)
(3.79489e-05 4.939149e-09 0)
(3.892706e-05 -8.380535e-08 2.030132e-31)
(3.994415e-05 -1.423451e-07 0)
(4.694836e-05 -7.260964e-10 3.623484e-27)
(3.002259e-05 -9.8584e-10 -2.799651e-26)
(8.977654e-05 -4.833179e-06 0)
(0.0001920799 9.541265e-06 0)
(9.023106e-05 4.106561e-06 3.418743e-27)
(0.0001000222 4.269175e-07 -2.152236e-26)
(8.274475e-05 9.198395e-07 0)
(8.17362e-05 2.056573e-07 -1.31163e-26)
(7.772402e-05 5.547917e-07 5.813587e-27)
(7.336046e-05 1.065819e-07 2.459681e-27)
(7.417176e-05 2.526446e-07 2.872789e-28)
(6.92164e-05 3.408085e-07 -1.643033e-28)
(6.793255e-05 -1.292551e-08 -9.979011e-28)
(6.825278e-05 1.108046e-07 -4.551094e-27)
(6.640831e-05 1.683981e-07 5.71256e-28)
(6.387481e-05 1.227292e-07 -2.242704e-27)
(6.458194e-05 -1.447467e-07 6.902218e-27)
(6.716881e-05 -5.030371e-08 1.095142e-26)
(6.609977e-05 7.196177e-08 -1.101985e-26)
(6.544996e-05 4.895924e-08 0)
(6.537938e-05 -1.5525e-07 -2.809347e-28)
(6.900247e-05 -2.718691e-07 0)
(6.968045e-05 -4.088227e-08 -8.649665e-27)
(7.161846e-05 -2.992954e-07 8.638219e-27)
(7.414982e-05 -5.302125e-07 0)
(8.472363e-05 2.969811e-08 -4.284096e-27)
(6.358527e-05 -1.886963e-06 2.600296e-25)
(0.0001568505 -1.321728e-05 -3.013331e-25)
(1.666501e-05 -0.000100611 9.321676e-24)
(2.181923e-06 4.254566e-06 4.675368e-25)
(-3.360788e-07 -1.697399e-05 0)
(3.776742e-07 -8.85123e-06 -3.720127e-25)
(1.455937e-07 -7.57254e-06 3.731994e-25)
(1.449006e-07 -5.750712e-06 0)
(1.46838e-07 -4.448814e-06 -2.494584e-27)
(9.912468e-08 -2.891112e-06 -2.376266e-27)
(-3.814341e-09 -2.594357e-06 5.562971e-28)
(6.11346e-08 -2.454624e-06 -1.098639e-27)
(4.706767e-08 -1.607258e-06 -2.640353e-28)
(2.054448e-08 -1.412764e-06 0)
(2.101333e-08 -1.214898e-06 0)
(3.146947e-08 -9.046663e-07 0)
(1.337417e-08 -6.500357e-07 6.138076e-26)
(8.064086e-09 -5.899168e-07 -8.419688e-28)
(8.44261e-09 -4.650213e-07 -3.908601e-28)
(8.741156e-09 -3.995434e-07 -1.466226e-26)
(1.464435e-08 -2.696081e-07 -2.905826e-26)
(1.026202e-08 -1.106527e-07 5.804149e-26)
(2.950862e-09 -7.542404e-08 -2.896229e-26)
(9.630073e-09 -9.099459e-09 1.43453e-26)
(1.769504e-09 8.442272e-08 -1.436318e-26)
(-1.063711e-09 6.570918e-08 1.788679e-27)
(-1.655033e-09 6.93044e-08 1.772272e-27)
(-1.916133e-09 5.535138e-08 -1.072695e-26)
(-2.98964e-10 4.127424e-08 -7.077219e-30)
(1.371355e-09 6.888916e-08 -3.589668e-27)
(2.010274e-09 7.515778e-08 0)
(4.625819e-09 1.333219e-07 -7.246834e-27)
(1.559755e-09 1.565675e-07 -1.454364e-26)
(1.642588e-08 2.142487e-07 -2.939544e-26)
(1.143286e-08 4.514457e-07 1.791623e-25)
(1.175255e-08 4.759437e-07 1.027586e-27)
(2.538664e-08 7.514207e-07 -6.147307e-26)
(2.568895e-09 9.110343e-07 -9.828323e-28)
(2.845779e-09 8.949351e-07 -1.258869e-27)
(1.489295e-08 9.861365e-07 0)
(4.015945e-08 1.272031e-06 1.396961e-25)
(4.586531e-08 1.717945e-06 -1.388376e-25)
(5.887239e-08 2.324942e-06 1.484325e-25)
(7.732554e-08 2.785953e-06 -1.483313e-25)
(1.473261e-07 4.272414e-06 6.300906e-28)
(1.20011e-07 5.227234e-06 -1.947145e-27)
(1.867979e-07 7.562651e-06 0)
(2.967093e-07 7.994548e-06 0)
(-1.246439e-07 1.745402e-05 -4.139651e-25)
(1.797105e-06 -4.415925e-06 1.240252e-24)
(1.674599e-05 9.762461e-05 -5.840231e-24)
(0.0001590322 1.313057e-05 3.067385e-25)
(6.59192e-05 1.987044e-06 0)
(8.433637e-05 1.358769e-07 2.210955e-26)
(7.431473e-05 4.690064e-07 -1.793148e-26)
(7.162984e-05 4.253977e-07 6.418594e-28)
(6.771572e-05 1.140966e-07 1.124109e-26)
(6.756698e-05 1.024586e-07 -1.131139e-26)
(6.683766e-05 3.456786e-08 -8.465445e-27)
(6.589502e-05 2.262398e-07 1.85115e-26)
(6.336609e-05 -3.145003e-08 3.263779e-27)
(6.579798e-05 -7.005623e-08 -1.346549e-26)
(6.451004e-05 -5.620796e-08 1.969046e-26)
(6.586713e-05 -1.636111e-07 -1.199739e-26)
(6.723158e-05 -2.299217e-08 0)
(6.796012e-05 -1.005338e-07 -4.424639e-27)
(6.889269e-05 -8.779407e-08 4.433067e-27)
(7.054397e-05 -3.161922e-07 1.127138e-28)
(7.387887e-05 -2.690715e-07 -5.71009e-27)
(7.661631e-05 -2.562188e-07 2.676821e-27)
(7.765666e-05 -2.446802e-08 9.833751e-27)
(7.793843e-05 -3.89714e-07 -1.231636e-26)
(8.417821e-05 -1.21675e-06 0)
(0.000102239 -5.494488e-07 4.8773e-26)
(9.279642e-05 -3.460706e-06 0)
(0.0001849683 -9.534963e-06 -1.116651e-24)
(0.0001415751 -0.0001278104 -4.370195e-23)
(6.62674e-05 -6.029702e-05 -2.251942e-25)
(6.82089e-05 -6.739114e-05 0)
(5.871742e-05 -5.756428e-05 0)
(5.491312e-05 -5.424775e-05 -7.671964e-24)
(5.101316e-05 -5.051065e-05 -1.426258e-23)
(5.065859e-05 -5.046466e-05 -6.995266e-24)
(4.879739e-05 -4.818771e-05 1.096247e-25)
(4.524239e-05 -4.48987e-05 6.697189e-24)
(4.591402e-05 -4.596426e-05 0)
(4.45026e-05 -4.395107e-05 0)
(4.176612e-05 -4.129071e-05 0)
(3.9995e-05 -3.995958e-05 0)
(4.081312e-05 -4.092425e-05 1.011758e-25)
(4.072814e-05 -4.050329e-05 6.650347e-24)
(3.885685e-05 -3.858905e-05 0)
(3.787035e-05 -3.775897e-05 0)
(3.783658e-05 -3.783372e-05 0)
(3.705315e-05 -3.701956e-05 0)
(3.72134e-05 -3.703827e-05 -1.039567e-25)
(3.720396e-05 -3.729281e-05 2.130192e-25)
(3.697232e-05 -3.690963e-05 -7.287895e-24)
(3.746954e-05 -3.759705e-05 -6.739488e-24)
(3.775419e-05 -3.764892e-05 0)
(3.660832e-05 -3.645533e-05 7.247309e-24)
(3.649321e-05 -3.648956e-05 -1.175733e-25)
(3.625269e-05 -3.625751e-05 -7.722789e-24)
(3.64176e-05 -3.649528e-05 5.904481e-26)
(3.745646e-05 -3.769199e-05 8.014944e-24)
(3.788517e-05 -3.787333e-05 -1.715651e-23)
(3.793115e-05 -3.798884e-05 7.012084e-26)
(3.823444e-05 -3.838783e-05 -9.359415e-24)
(3.876488e-05 -3.906751e-05 -5.933209e-26)
(4.148728e-05 -4.191336e-05 3.941775e-26)
(3.932893e-05 -3.527632e-05 2.779419e-23)
(3.863252e-05 3.438356e-05 1.421058e-23)
(4.132639e-05 4.173762e-05 1.052779e-23)
(3.844279e-05 3.874581e-05 -1.017204e-23)
(3.799976e-05 3.814461e-05 -1.487597e-25)
(3.770884e-05 3.776538e-05 8.786581e-24)
(3.765694e-05 3.764173e-05 -8.586886e-24)
(3.72911e-05 3.751051e-05 -8.088808e-24)
(3.631712e-05 3.638777e-05 7.902868e-24)
(3.617219e-05 3.616871e-05 7.811798e-24)
(3.646614e-05 3.645085e-05 7.541687e-24)
(3.664394e-05 3.647539e-05 -7.345732e-24)
(3.787549e-05 3.775606e-05 1.125255e-25)
(3.763322e-05 3.775114e-05 -1.385335e-23)
(3.720198e-05 3.711772e-05 1.107743e-25)
(3.756321e-05 3.763344e-05 -6.680962e-24)
(3.761393e-05 3.742267e-05 -1.269985e-25)
(3.758329e-05 3.753202e-05 2.110264e-27)
(3.833273e-05 3.835515e-05 1.03934e-25)
(3.819453e-05 3.810934e-05 0)
(3.90849e-05 3.883914e-05 -6.820381e-24)
(4.086108e-05 4.065068e-05 6.530927e-24)
(4.091545e-05 4.102987e-05 1.008231e-25)
(4.010261e-05 4.006431e-05 -1.054605e-25)
(4.189552e-05 4.141784e-05 1.361064e-23)
(4.462462e-05 4.407663e-05 -1.040658e-25)
(4.600539e-05 4.60647e-05 -6.052111e-24)
(4.527012e-05 4.494051e-05 -6.750549e-24)
(4.874161e-05 4.817019e-05 -6.992744e-24)
(5.029863e-05 5.015622e-05 1.0865e-25)
(5.05278e-05 5.008224e-05 -7.331823e-24)
(5.38924e-05 5.32493e-05 7.7441e-24)
(5.759692e-05 5.626271e-05 -7.720874e-24)
(7.014992e-05 6.903262e-05 -1.440298e-25)
(6.555508e-05 6.042698e-05 9.315335e-24)
(0.0001391142 0.0001246637 -2.241321e-23)
(5.724245e-05 4.704187e-05 1.698302e-23)
(6.177544e-05 6.209432e-05 -1.246239e-23)
(5.903753e-05 5.964581e-05 1.21113e-23)
(5.830762e-05 5.865387e-05 1.12123e-23)
(5.803496e-05 5.81565e-05 -1.026553e-23)
(5.80147e-05 5.797812e-05 0)
(5.745718e-05 5.794762e-05 0)
(5.605015e-05 5.623548e-05 -9.34739e-24)
(5.579699e-05 5.579429e-05 -1.426692e-25)
(5.622954e-05 5.619387e-05 -8.759206e-24)
(5.659767e-05 5.61924e-05 1.731435e-23)
(5.841591e-05 5.813151e-05 -1.329744e-25)
(5.806479e-05 5.831171e-05 1.138194e-25)
(5.743027e-05 5.725041e-05 0)
(5.793297e-05 5.806426e-05 -1.386657e-25)
(5.82178e-05 5.777097e-05 -1.598128e-23)
(5.797326e-05 5.78512e-05 0)
(5.918097e-05 5.921385e-05 7.784393e-24)
(5.909274e-05 5.888029e-05 1.242898e-25)
(6.04621e-05 5.990634e-05 8.058881e-24)
(6.291234e-05 6.241482e-05 0)
(6.315716e-05 6.335247e-05 -7.071568e-24)
(6.217123e-05 6.206874e-05 -1.178433e-25)
(6.50051e-05 6.388228e-05 -7.959438e-24)
(6.895131e-05 6.766333e-05 -1.225301e-25)
(7.098461e-05 7.104355e-05 1.29171e-25)
(7.033773e-05 6.95132e-05 1.254208e-25)
(7.56407e-05 7.428747e-05 -8.420657e-24)
(7.79164e-05 7.751553e-05 0)
(7.859277e-05 7.745693e-05 5.114847e-26)
(8.410385e-05 8.251203e-05 -9.018698e-24)
(9.102548e-05 8.770849e-05 -8.819021e-26)
(0.0001085685 0.0001055451 -1.183811e-23)
(0.0001089594 9.639088e-05 -5.258305e-24)
(0.0002110921 0.0001798892 2.629212e-23)
(0.0002142704 -0.0001845728 2.538123e-23)
(0.0001103231 -9.598167e-05 -2.504848e-25)
(0.0001060112 -0.0001035629 1.563495e-25)
(9.220773e-05 -8.930862e-05 -1.482475e-26)
(8.549924e-05 -8.389649e-05 -9.085299e-26)
(7.936318e-05 -7.808966e-05 1.830363e-25)
(7.846386e-05 -7.79416e-05 -8.097434e-24)
(7.574845e-05 -7.430514e-05 -1.274978e-25)
(7.030748e-05 -6.944847e-05 2.449037e-25)
(7.085357e-05 -7.089033e-05 -2.404231e-25)
(6.877064e-05 -6.747404e-05 -5.255543e-27)
(6.481035e-05 -6.369219e-05 8.076502e-24)
(6.200546e-05 -6.190893e-05 1.182e-25)
(6.299961e-05 -6.318642e-05 -2.376589e-25)
(6.271172e-05 -6.217954e-05 -7.85635e-24)
(6.012428e-05 -5.951576e-05 8.072822e-24)
(5.860651e-05 -5.833095e-05 7.941757e-24)
(5.844379e-05 -5.841922e-05 -1.223549e-25)
(5.716612e-05 -5.708368e-05 1.233959e-25)
(5.759853e-05 -5.719256e-05 7.871062e-24)
(5.738855e-05 -5.756538e-05 -2.320008e-27)
(5.707609e-05 -5.694674e-05 -1.785021e-27)
(5.781357e-05 -5.808445e-05 8.082491e-24)
(5.823131e-05 -5.798144e-05 -1.354304e-25)
(5.65428e-05 -5.617489e-05 -8.549769e-24)
(5.6272e-05 -5.626406e-05 1.349593e-25)
(5.591927e-05 -5.593636e-05 8.96238e-24)
(5.620724e-05 -5.641125e-05 -3.084606e-27)
(5.771169e-05 -5.823914e-05 -9.235048e-24)
(5.836361e-05 -5.833498e-05 1.028129e-23)
(5.837724e-05 -5.850312e-05 -1.577975e-25)
(5.867656e-05 -5.904317e-05 -1.110758e-23)
(5.952287e-05 -6.013464e-05 -1.189034e-23)
(6.209395e-05 -6.247509e-05 -1.259317e-23)
(5.820329e-05 -4.842033e-05 1.655149e-23)
(0.0002334149 2.739589e-05 3.059397e-24)
(0.0001143316 6.301341e-06 1.526168e-25)
(0.0001295762 6.94128e-07 -3.697551e-26)
(0.0001167994 1.139903e-06 3.726275e-26)
(0.0001116689 1.060143e-06 -6.528774e-29)
(0.0001053373 3.56401e-07 0)
(0.00010478 2.394316e-07 0)
(0.0001036875 1.099767e-07 1.445946e-27)
(0.000102273 5.14911e-07 8.112534e-28)
(9.834025e-05 -3.401512e-08 -1.582244e-26)
(0.0001017153 -1.561129e-07 1.532964e-26)
(9.99361e-05 -1.476178e-07 -1.434964e-26)
(0.0001018106 -3.698933e-07 8.972808e-27)
(0.0001039256 -9.38396e-08 -1.646977e-26)
(0.0001052647 -2.348249e-07 0)
(0.0001067503 -2.344171e-07 -2.484065e-27)
(0.0001091049 -7.323738e-07 1.982966e-27)
(0.0001142119 -6.719404e-07 -6.423096e-27)
(0.0001185321 -6.298576e-07 -6.717748e-27)
(0.0001203803 -1.281229e-07 2.739577e-26)
(0.0001211611 -1.033043e-06 -4.933978e-26)
(0.0001319927 -2.85289e-06 8.128108e-26)
(0.0001575494 -1.62774e-06 -1.041029e-25)
(0.0001503817 -8.464387e-06 -2.313124e-27)
(0.0002741737 -2.047558e-05 1.321797e-24)
(3.593761e-05 -0.0001493141 -1.032109e-23)
(7.185676e-06 -1.006088e-05 -1.394058e-24)
(-1.544136e-07 -2.653674e-05 -1.349322e-25)
(8.953483e-07 -1.590559e-05 4.407992e-25)
(4.371808e-07 -1.284581e-05 -8.504985e-25)
(3.818767e-07 -9.725757e-06 4.093606e-25)
(3.695445e-07 -7.555769e-06 3.64686e-25)
(2.577411e-07 -5.104744e-06 -3.652423e-25)
(2.134986e-08 -4.409888e-06 0)
(1.460944e-07 -4.09123e-06 1.295797e-27)
(1.208356e-07 -2.793375e-06 0)
(5.635121e-08 -2.422572e-06 0)
(5.65755e-08 -2.07696e-06 1.504613e-25)
(7.77589e-08 -1.567378e-06 -1.505333e-25)
(3.68816e-08 -1.162577e-06 0)
(2.322334e-08 -1.029276e-06 -7.151311e-26)
(2.208132e-08 -8.180232e-07 9.036234e-28)
(2.351059e-08 -7.011488e-07 6.973659e-26)
(3.661191e-08 -4.838303e-07 -3.445916e-26)
(2.611457e-08 -2.371283e-07 0)
(9.666837e-09 -1.631299e-07 3.399568e-26)
(2.352348e-08 -5.325562e-08 -3.40566e-26)
(6.493831e-09 9.8224e-08 -1.688584e-26)
(-9.186471e-10 8.97266e-08 1.267651e-26)
(-2.451559e-09 1.060142e-07 -4.350146e-27)
(-3.213136e-09 9.754351e-08 -1.478997e-26)
(7.793889e-10 8.725878e-08 2.111068e-26)
(4.751996e-09 1.42071e-07 0)
(6.434324e-09 1.661732e-07 -5.11851e-26)
(1.259811e-08 2.636481e-07 3.40907e-26)
(6.922502e-09 3.201665e-07 1.7179e-26)
(4.024912e-08 4.225074e-07 1.045278e-25)
(3.00175e-08 7.885797e-07 -2.106861e-25)
(3.313601e-08 8.694582e-07 -7.261762e-26)
(6.127878e-08 1.308164e-06 7.486982e-26)
(1.134502e-08 1.566479e-06 -1.161296e-27)
(1.312438e-08 1.590688e-06 -1.190639e-27)
(4.338771e-08 1.786801e-06 -1.586571e-25)
(1.021943e-07 2.256909e-06 -1.055869e-27)
(1.213366e-07 3.014027e-06 1.632753e-25)
(1.541486e-07 3.99906e-06 0)
(2.13174e-07 4.895341e-06 0)
(3.641297e-07 7.260357e-06 0)
(3.339791e-07 8.971025e-06 3.055025e-27)
(5.128712e-07 1.271599e-05 0)
(7.52452e-07 1.476287e-05 -3.518166e-27)
(2.336432e-07 2.708751e-05 5.070229e-25)
(6.378608e-06 9.630699e-06 -1.416273e-24)
(3.61306e-05 0.0001451392 1.058197e-23)
(0.0002842572 2.041959e-05 0)
(0.0001470343 9.86756e-06 -4.029385e-27)
(0.0001544661 1.439053e-06 2.376005e-26)
(0.000129366 2.151806e-06 0)
(0.0001266358 6.157e-07 -1.329773e-26)
(0.0001205681 1.296869e-06 8.694492e-27)
(0.0001137954 3.330052e-07 5.756796e-27)
(0.0001144937 6.131294e-07 -7.38254e-27)
(0.0001072774 8.065026e-07 0)
(0.0001049654 5.052022e-09 0)
(0.0001055015 2.495584e-07 -1.069265e-26)
(0.0001027233 4.112382e-07 1.065908e-26)
(9.908833e-05 2.494945e-07 0)
(0.0001002369 -3.028116e-07 -2.124349e-26)
(0.0001039154 -1.223605e-07 0)
(0.0001023416 1.812628e-07 -2.251722e-26)
(0.0001012505 9.674618e-08 2.249991e-26)
(0.0001015576 -4.036271e-07 1.663768e-27)
(0.0001070337 -6.284469e-07 -1.601066e-26)
(0.0001082908 -1.723186e-07 3.650262e-26)
(0.000111601 -7.707915e-07 -2.047627e-26)
(0.000116463 -1.26061e-06 0)
(0.0001301316 -3.177821e-07 1.638619e-26)
(0.0001106981 -6.07657e-06 -3.773168e-25)
(0.0002303953 -2.762383e-05 5.652368e-24)
(0.0003860755 3.724729e-05 -1.17395e-24)
(0.0002199362 1.940077e-05 9.340166e-26)
(0.0002201956 3.774306e-06 -1.017312e-25)
(0.0001865462 4.245556e-06 -8.717546e-26)
(0.0001810958 1.387822e-06 4.651001e-26)
(0.0001726158 2.625883e-06 0)
(0.0001628485 7.892865e-07 0)
(0.000163039 1.225662e-06 -3.623997e-27)
(0.000153382 1.653313e-06 4.489371e-27)
(0.0001495353 8.339075e-08 -1.798833e-26)
(0.0001504528 4.752179e-07 1.25364e-26)
(0.0001465889 7.822003e-07 0)
(0.0001418418 4.585759e-07 -2.509074e-26)
(0.0001435701 -5.751992e-07 5.442208e-26)
(0.000148342 -1.988883e-07 -2.973472e-26)
(0.0001462008 3.90685e-07 0)
(0.0001444815 1.471669e-07 0)
(0.0001455947 -8.934424e-07 -1.560717e-27)
(0.0001532928 -1.288024e-06 -1.872887e-27)
(0.0001554154 -4.491386e-07 2.435794e-26)
(0.0001607319 -1.732075e-06 -2.010361e-26)
(0.0001689163 -2.473816e-06 -6.840724e-26)
(0.0001856728 -1.729333e-06 3.836986e-26)
(0.0001737907 -1.402236e-05 7.047349e-25)
(0.000309915 -4.933813e-05 -1.428437e-24)
(6.573844e-05 -0.0002027141 -1.119755e-23)
(1.706081e-05 -3.712323e-05 0)
(1.320314e-06 -4.050947e-05 4.690379e-25)
(1.866311e-06 -2.636095e-05 1.036649e-24)
(1.073175e-06 -2.043699e-05 -1.040362e-24)
(8.537807e-07 -1.534268e-05 4.374984e-25)
(7.807546e-07 -1.195135e-05 -4.597366e-25)
(5.732865e-07 -8.363467e-06 4.078439e-25)
(1.006953e-07 -6.995558e-06 -3.960365e-25)
(3.054069e-07 -6.359824e-06 0)
(2.594623e-07 -4.502257e-06 0)
(1.300134e-07 -3.866825e-06 0)
(1.260232e-07 -3.306956e-06 -5.557818e-27)
(1.633791e-07 -2.522914e-06 0)
(8.364022e-08 -1.925044e-06 -5.355231e-27)
(5.538335e-08 -1.669949e-06 -1.676558e-25)
(4.881511e-08 -1.335343e-06 4.961898e-25)
(5.247733e-08 -1.144237e-06 0)
(7.707878e-08 -8.043782e-07 -4.010342e-26)
(5.620122e-08 -4.488057e-07 1.210054e-25)
(2.372209e-08 -3.122157e-07 0)
(4.936942e-08 -1.42924e-07 -1.994655e-26)
(1.74213e-08 8.684166e-08 0)
(1.999489e-09 1.078083e-07 1.484892e-26)
(-1.693174e-09 1.495422e-07 -9.74463e-27)
(-3.391482e-09 1.594746e-07 4.951042e-27)
(4.906286e-09 1.636556e-07 -2.983355e-26)
(1.30796e-08 2.634682e-07 3.969893e-26)
(1.657696e-08 3.214349e-07 1.001459e-25)
(2.886501e-08 4.745078e-07 -1.606126e-25)
(1.956235e-08 5.892425e-07 -8.451943e-28)
(8.379037e-08 7.553241e-07 8.094564e-26)
(6.604471e-08 1.282539e-06 -1.659333e-25)
(7.701679e-08 1.465933e-06 1.674827e-25)
(1.274882e-07 2.118276e-06 1.704641e-25)
(3.149989e-08 2.509709e-06 -1.703296e-25)
(4.05653e-08 2.625783e-06 2.788231e-27)
(1.028418e-07 2.99585e-06 0)
(2.218375e-07 3.71516e-06 3.773059e-25)