/*--------------------------------*- C++ -*----------------------------------*\
| =========                 |                                                 |
| \\      /  F ield         | OpenFOAM: The Open Source CFD Toolbox           |
|  \\    /   O peration     | Version:  2406                                  |
|   \\  /    A nd           | Website:  www.openfoam.com                      |
|    \\/     M anipulation  |                                                 |
\*---------------------------------------------------------------------------*/
FoamFile
{
    version     2.0;
    format      ascii;
    arch        "LSB;label=32;scalar=64";
    class       volVectorField;
    location    "4.64";
    object      U;
}
// * * * * * * * * * * * * * * * * * * * * * * * * * * * * * * * * * * * * * //

dimensions      [0 1 -1 0 0 0 0];

internalField   nonuniform List<vector> 
15536
(
(0.1847368 -5.717489 -5.595719e-22)
(0.3319153 -4.802383 -6.1321e-19)
(0.4145306 -3.906792 -1.015719e-18)
(0.4202476 -2.983002 -8.202016e-19)
(0.3679947 -2.080177 -1.097746e-20)
(0.2860727 -1.329882 5.255637e-21)
(0.2374175 -0.8823842 7.652373e-21)
(0.2712553 -0.8753437 -7.645651e-21)
(0.2211631 -0.7011971 1.621396e-18)
(-0.01770705 -0.01455297 1.407294e-18)
(0.1546845 -0.3089666 0)
(0.5608643 -1.026525 0)
(0.9436966 -1.622942 -1.07651e-20)
(1.153922 -1.85927 2.735578e-18)
(1.133385 -1.735794 1.094511e-18)
(0.9811596 -1.428958 -1.839006e-18)
(1.150538 -1.449132 1.149232e-18)
(1.43512 -1.627619 1.242401e-20)
(0.7693814 -0.8894524 -2.77934e-20)
(-0.996587 0.8528935 1.509464e-20)
(-2.800883 2.528117 0)
(-4.13182 3.609081 4.303651e-18)
(-4.326128 3.671184 0)
(-2.104515 1.874202 1.773759e-18)
(2.365411 -1.375422 -2.240858e-21)
(3.818292 -2.400985 2.094713e-20)
(1.341545 -0.9078499 -2.129589e-20)
(-1.290654 0.5308152 2.687762e-19)
(-2.772513 1.233507 -1.197844e-18)
(-3.973577 1.608273 0)
(-6.093209 2.185506 -3.012173e-20)
(-8.978502 2.893552 -4.887688e-18)
(-11.36256 3.500519 7.725863e-18)
(-6.738071 2.200847 0)
(2.566955 -0.3288952 -4.020246e-18)
(2.944592 -0.7382673 -1.74553e-20)
(-0.9088358 -0.3061932 2.689154e-18)
(-3.604241 0.04310498 -1.544381e-18)
(2.333359 0.0832153 1.391156e-21)
(8.077393 0.4550486 -3.365599e-19)
(11.10765 0.9924895 1.375665e-18)
(12.69899 1.598454 -2.240007e-20)
(13.56578 2.251579 2.209788e-20)
(14.06539 2.923179 0)
(14.33346 3.586678 -5.670481e-18)
(14.42744 4.224556 -5.650339e-18)
(14.35328 4.8252 0)
(14.16835 5.392092 -1.079908e-17)
(13.89781 5.926144 1.053227e-17)
(13.58237 6.436578 1.016065e-17)
(13.21057 6.907005 3.690975e-20)
(12.77773 7.333299 -9.178246e-18)
(12.29212 7.71053 0)
(11.7631 8.040478 0)
(11.20008 8.319638 7.304653e-18)
(10.60126 8.539724 6.646588e-18)
(9.984779 8.711493 4.33946e-20)
(9.357344 8.833336 5.103511e-18)
(8.706492 8.887024 8.779529e-18)
(8.044957 8.880676 3.616646e-18)
(7.380822 8.81726 2.782637e-18)
(6.727531 8.706028 -1.895945e-20)
(6.082228 8.537519 0)
(5.442647 8.305091 3.905021e-19)
(4.821953 8.025119 0)
(4.217081 7.684213 1.236746e-18)
(3.636624 7.288631 -3.067641e-20)
(3.090563 6.848768 -2.776613e-21)
(2.578423 6.362207 1.222084e-20)
(2.104682 5.833517 -4.167605e-18)
(1.675009 5.27094 -1.985182e-20)
(1.290073 4.671749 2.724783e-18)
(0.9514978 4.03737 2.981745e-18)
(0.6645703 3.382569 0)
(0.4289993 2.712865 0)
(0.2482905 2.024887 3.576753e-18)
(0.1194504 1.329545 -2.037014e-22)
(0.04559047 0.6542999 9.660244e-19)
(0.02574585 -0.01980229 1.776648e-21)
(0.05947118 -0.7790442 -7.3382e-21)
(0.140919 -1.569505 -1.812634e-18)
(0.2817341 -2.32176 0)
(0.4784083 -3.03559 3.239934e-18)
(0.7274613 -3.718623 0)
(1.027523 -4.372412 -2.711068e-18)
(1.376446 -4.996073 2.38154e-18)
(1.773471 -5.58858 1.751213e-20)
(2.215411 -6.148847 3.468707e-18)
(2.699368 -6.66798 9.128595e-21)
(3.221149 -7.14383 -1.973309e-18)
(3.778021 -7.57771 -1.152125e-18)
(4.36735 -7.963448 5.43911e-21)
(4.987466 -8.303534 5.796183e-19)
(5.628721 -8.59399 -1.467033e-18)
(6.286324 -8.829875 2.18396e-20)
(6.949601 -8.997773 7.032638e-21)
(7.62391 -9.112576 -4.11414e-18)
(8.304928 -9.174467 0)
(8.983983 -9.17533 1.160618e-17)
(9.663848 -9.12628 6.585896e-18)
(10.32467 -9.013026 1.140138e-19)
(10.9628 -8.838006 -8.343537e-18)
(11.57439 -8.604467 0)
(12.15856 -8.316563 0)
(12.71449 -7.982486 0)
(13.23342 -7.600153 0)
(13.70549 -7.170691 1.177759e-17)
(14.12762 -6.697971 1.243798e-17)
(14.50045 -6.186735 2.742394e-20)
(14.81846 -5.644257 -1.338643e-17)
(15.06471 -5.067763 -6.843509e-18)
(15.23084 -4.463098 -7.08296e-18)
(15.26173 -3.825186 5.547569e-20)
(15.12846 -3.158758 7.258187e-18)
(14.8007 -2.474191 3.745466e-18)
(14.18849 -1.787618 -2.899097e-20)
(13.01873 -1.150279 -7.054864e-21)
(10.59632 -0.5767893 4.666813e-19)
(5.789883 -0.1237758 -9.3934e-19)
(0.5037453 0.07586315 -2.45661e-20)
(-1.906822 -0.4223431 1.663611e-20)
(-5.829769 -1.342019 4.797373e-18)
(-7.695775 -1.670341 3.695749e-20)
(-5.486808 -1.136573 0)
(-3.230223 -0.6887882 -6.111746e-18)
(-0.4727641 0.1205151 -5.008165e-18)
(5.164738 2.172524 -9.004597e-21)
(6.414486 2.504855 6.555671e-18)
(-3.301193 -2.166745 -1.518434e-17)
(-9.958673 -5.597483 0)
(-9.903024 -5.702611 0)
(-7.701684 -4.731306 -1.268904e-17)
(-5.358206 -3.570356 0)
(-3.701164 -2.694377 5.427197e-20)
(-2.496304 -1.94747 -6.536924e-18)
(-1.210846 -0.9697778 -5.381648e-18)
(0.4158618 0.4400052 2.888387e-20)
(1.746686 1.737863 -6.506088e-18)
(1.857402 1.9652 -4.866199e-20)
(1.043233 1.170065 6.373634e-18)
(0.3026078 0.3170909 3.700188e-18)
(0.1669923 0.2180699 4.563449e-18)
(0.3322088 0.5364242 5.434214e-18)
(0.6154107 1.081888 0)
(0.8838863 1.590623 -2.85289e-20)
(0.9488466 1.75281 -7.855897e-18)
(0.5677031 1.147248 0)
(-0.09943623 -0.366355 8.233404e-18)
(-0.6687564 -2.232639 -6.496591e-20)
(-1.000544 -3.630702 3.230589e-20)
(-1.096316 -4.501431 4.326697e-18)
(-1.071316 -5.268392 6.058794e-21)
(-0.965842 -6.151872 0)
(-0.800861 -7.094236 2.090083e-18)
(-0.5811641 -7.642763 1.601489e-20)
(-0.3018371 -7.378407 3.411908e-21)
(-0.02903896 -6.607933 -4.229802e-21)
(-0.06169638 -5.367034 -3.018634e-19)
(0.117057 -4.462908 5.080707e-19)
(0.2278803 -3.600265 0)
(0.2451082 -2.693528 6.786033e-19)
(0.2133597 -1.783799 0)
(0.1518579 -1.050978 1.956694e-18)
(0.1120794 -0.5562352 6.371219e-21)
(0.09673367 -0.3496022 -6.397712e-21)
(0.0615268 -0.2986195 -1.350533e-18)
(0.01422163 -0.05858583 -1.165936e-18)
(0.3965745 -0.7211063 0)
(0.8358895 -1.484208 8.565377e-21)
(1.069378 -1.862008 2.436135e-22)
(1.139501 -1.886079 -1.127385e-18)
(1.175206 -1.819739 -1.82606e-18)
(1.524307 -2.155069 7.428045e-19)
(2.094969 -2.666352 -9.093507e-19)
(1.701461 -2.118354 -8.319095e-21)
(0.4356943 -0.8385569 0)
(-1.373772 0.8950558 0)
(-3.140694 2.554707 0)
(-4.439416 3.64246 3.492243e-18)
(-4.947777 4.080284 1.784235e-20)
(-3.994694 3.519321 -1.721688e-20)
(0.9411062 -0.01310982 -1.260579e-20)
(4.005516 -2.599405 1.376534e-20)
(1.875644 -1.517347 0)
(-0.1376903 -0.2723952 0)
(-0.9901092 0.2776913 2.042304e-18)
(-1.570119 0.4082105 2.484001e-20)
(-3.370129 0.7822155 -2.300906e-20)
(-6.268956 1.495938 4.156032e-18)
(-8.235283 2.328821 6.719627e-18)
(-8.673307 2.915407 -3.219488e-20)
(-0.638092 0.7403514 -3.036371e-18)
(3.118634 -0.629535 1.478066e-18)
(5.576005 -0.8103094 3.78409e-21)
(7.91568 -0.1604411 1.044113e-18)
(13.00659 0.2669465 0)
(16.94201 0.5718085 2.317246e-19)
(17.87026 0.9412994 1.993184e-18)
(18.12914 1.475243 2.1256e-18)
(18.13982 2.107372 2.186619e-18)
(18.02651 2.769943 -6.878499e-20)
(17.83446 3.437895 4.526935e-18)
(17.58021 4.102128 -3.456411e-20)
(17.27775 4.757914 0)
(16.92278 5.388555 8.596535e-18)
(16.51366 5.994969 0)
(16.05731 6.569132 -6.099488e-20)
(15.54987 7.09908 6.114806e-20)
(14.98754 7.581587 7.321895e-18)
(14.37788 8.010282 -5.118296e-20)
(13.72801 8.3852 6.361791e-18)
(13.04619 8.701754 -5.871965e-18)
(12.33549 8.957564 0)
(11.6062 9.161038 3.420116e-20)
(10.86534 9.30775 -4.184819e-18)
(10.10876 9.384872 -6.974606e-18)
(9.341196 9.393978 0)
(8.574937 9.345202 -2.233456e-18)
(7.819099 9.240078 -9.637368e-21)
(7.074506 9.071278 9.041494e-19)
(6.342289 8.837775 -4.683502e-22)
(5.628985 8.545583 4.740472e-22)
(4.939063 8.19155 -1.003191e-18)
(4.276064 7.779584 1.638589e-18)
(3.650571 7.314671 0)
(3.063654 6.802103 0)
(2.520283 6.245846 -1.863923e-20)
(2.024826 5.647705 0)
(1.580155 5.009248 0)
(1.188123 4.333984 0)
(0.8535613 3.632915 -2.656124e-18)
(0.5750481 2.916539 2.129519e-20)
(0.3627177 2.178707 1.194342e-20)
(0.2068775 1.433811 -5.860127e-21)
(0.1143577 0.7058293 -7.931644e-19)
(0.09064761 -0.02376084 3.193328e-21)
(0.138678 -0.8341463 -7.799362e-19)
(0.2345721 -1.676201 1.476252e-18)
(0.4023116 -2.479553 1.121914e-20)
(0.6343234 -3.242649 -2.625736e-18)
(0.9253702 -3.974226 -3.827156e-20)
(1.274944 -4.675717 2.245109e-18)
(1.679251 -5.341816 -1.981256e-18)
(2.138874 -5.972736 0)
(2.646579 -6.568545 -5.663846e-18)
(3.201068 -7.115254 -1.510255e-20)
(3.799511 -7.615988 1.600429e-18)
(4.436184 -8.073962 9.406094e-19)
(5.108631 -8.475935 0)
(5.815355 -8.824772 0)
(6.547447 -9.124964 0)
(7.297792 -9.359244 1.71367e-20)
(8.061147 -9.523883 -1.701619e-20)
(8.837073 -9.629931 3.230845e-18)
(9.620166 -9.675809 5.690714e-21)
(10.40649 -9.657631 -4.693224e-18)
(11.19045 -9.580395 -7.718589e-20)
(11.96164 -9.439289 1.197729e-17)
(12.71191 -9.231365 6.632484e-18)
(13.43691 -8.959614 -5.387106e-20)
(14.13939 -8.630621 7.697362e-18)
(14.81455 -8.249133 6.279065e-20)
(15.45429 -7.810672 -7.118124e-20)
(16.05119 -7.32089 7.086515e-20)
(16.60167 -6.782416 7.793872e-20)
(17.10553 -6.201746 1.023476e-17)
(17.55869 -5.583563 -8.069222e-20)
(17.94736 -4.929559 0)
(18.27541 -4.246199 0)
(18.57013 -3.548859 0)
(18.81555 -2.847466 0)
(18.99193 -2.151271 2.204317e-20)
(19.07989 -1.463235 -2.193676e-20)
(19.02668 -0.8541965 1.348008e-18)
(18.62496 -0.4120338 5.128074e-21)
(16.24913 -0.1172449 0)
(10.78886 0.1220771 -1.371978e-18)
(1.146777 -0.2251922 3.300844e-18)
(-4.95575 -0.9037275 -4.113195e-18)
(-0.4648034 0.09797771 5.920021e-20)
(0.5361209 0.4597346 -6.638449e-18)
(1.6137 0.7801334 4.266911e-20)
(2.723434 1.356247 0)
(5.984481 2.712259 5.167129e-18)
(5.78194 1.804201 -1.001964e-17)
(-6.841089 -4.428707 -1.088686e-17)
(-10.25644 -5.643309 9.091945e-21)
(-9.311491 -4.905981 -2.150066e-19)
(-7.317426 -4.01774 9.661778e-20)
(-5.187125 -3.090888 0)
(-3.663028 -2.434014 6.192272e-18)
(-2.584357 -1.820572 5.238488e-18)
(-1.492636 -0.9479551 8.005798e-21)
(0.05442373 0.4581246 -3.250757e-18)
(1.959561 2.225818 5.214681e-18)
(2.823002 3.00814 2.440632e-18)
(1.489323 1.512063 -2.519654e-21)
(0.09106819 -0.01619583 -2.999175e-18)
(-0.1214913 -0.1329461 -2.701666e-20)
(-0.0943953 -0.04883858 -4.527184e-18)
(0.03331599 0.2136329 4.457805e-20)
(0.1845113 0.5143656 8.905194e-21)
(0.7307356 1.439409 -5.18494e-20)
(0.3350743 0.3815669 0)
(-0.9555714 -3.074695 0)
(-1.528892 -4.912243 -6.395207e-18)
(-1.701667 -5.838254 0)
(-1.711109 -6.697326 -6.801411e-18)
(-1.639864 -7.630686 3.452505e-18)
(-1.473207 -8.303027 -2.665849e-20)
(-1.219001 -8.383863 2.671137e-20)
(-0.9219323 -7.841469 1.645385e-18)
(-0.6126253 -7.077979 -7.751582e-19)
(-0.3093448 -6.271752 -3.360809e-19)
(-0.08679147 -4.949438 2.446762e-19)
(0.04705307 -4.022404 -4.156198e-19)
(0.1260869 -3.139123 9.696316e-21)
(0.1035172 -2.242551 -5.697137e-19)
(0.05912637 -1.34111 0)
(0.005742531 -0.6586328 -1.619872e-18)
(-0.02050141 -0.1903493 -1.057692e-20)
(-0.03986328 0.04799561 6.494264e-19)
(-0.0795849 0.1064599 1.122354e-18)
(0.05323058 -0.03423637 9.60754e-19)
(0.5123094 -0.8158015 8.419536e-19)
(0.8634858 -1.396548 -6.603166e-21)
(1.067269 -1.776845 0)
(1.142335 -1.821164 0)
(1.132438 -1.656322 7.418297e-19)
(1.480694 -2.012626 6.061307e-19)
(2.122735 -2.709226 7.505756e-19)
(1.463956 -1.985835 1.355006e-20)
(-0.002631572 -0.6896587 0)
(-1.738887 0.8921323 1.420764e-18)
(-3.324112 2.442666 2.172396e-18)
(-4.41889 3.512302 -2.858216e-18)
(-4.631926 3.930304 0)
(-4.03547 3.9128 1.125701e-18)
(-0.7410712 1.670778 0)
(2.982783 -1.811787 2.128447e-18)
(2.274941 -1.899263 0)
(1.770814 -1.288851 1.664888e-19)
(1.8361 -0.9796805 -1.636142e-18)
(1.448631 -0.9124241 0)
(-0.4110954 -0.5873915 0)
(-3.01001 0.1787662 1.558871e-20)
(-4.393324 1.317672 -5.962211e-18)
(-6.183178 2.659197 4.663487e-18)
(-0.8262892 1.278801 4.685395e-18)
(8.803799 -0.9127968 -1.05549e-18)
(13.79046 -1.05468 1.449641e-18)
(15.82519 -0.2687427 -7.613122e-19)
(17.55156 0.4896059 0)
(17.90455 0.8590881 0)
(17.59398 1.30364 -1.648687e-18)
(17.6117 1.943658 -1.781405e-18)
(17.57859 2.630575 -3.572005e-18)
(17.48714 3.320768 3.588939e-18)
(17.33006 4.013105 8.547026e-20)
(17.1111 4.67937 -5.705676e-20)
(16.82652 5.318546 0)
(16.4699 5.920468 0)
(16.05674 6.492446 6.738997e-18)
(15.59916 7.035171 -6.509209e-18)
(15.09307 7.53152 0)
(14.53478 7.979657 0)
(13.93254 8.372816 8.392082e-20)
(13.29174 8.714074 -5.30416e-18)
(12.622 8.996535 0)
(11.9266 9.217256 -4.242379e-18)
(11.21357 9.388201 -3.781396e-18)
(10.49185 9.503391 -3.257201e-18)
(9.758234 9.548319 2.80055e-18)
(9.013587 9.527887 -3.178047e-20)
(8.271287 9.452799 1.774167e-18)
(7.540121 9.323849 0)
(6.822709 9.132006 -7.368177e-19)
(6.119227 8.877234 1.164503e-21)
(5.433255 8.567466 8.187594e-21)
(4.776159 8.194745 -8.931406e-19)
(4.142633 7.768643 0)
(3.545955 7.292009 -1.898049e-18)
(2.986244 6.770606 -2.005072e-20)
(2.47051 6.207412 2.819423e-18)
(1.999982 5.605215 1.624479e-18)
(1.578787 4.964631 -1.819964e-18)
(1.207401 4.289333 -2.002433e-18)
(0.8902639 3.589721 2.160953e-18)
(0.6245728 2.876916 -2.308982e-18)
(0.4263777 2.142617 -1.182365e-18)
(0.2757101 1.403029 2.490784e-18)
(0.1846451 0.6816886 1.297504e-18)
(0.1648835 -0.04034015 2.622632e-21)
(0.2227331 -0.8352687 6.451264e-19)
(0.3115757 -1.663459 -9.627111e-21)
(0.4695263 -2.455251 0)
(0.6882015 -3.210442 -1.642776e-20)
(0.9613489 -3.937301 -1.398268e-20)
(1.290883 -4.635979 -1.777191e-18)
(1.671265 -5.301576 3.254175e-18)
(2.108419 -5.932947 -1.417859e-18)
(2.588773 -6.532896 2.297689e-18)
(3.113773 -7.086113 1.628685e-20)
(3.684597 -7.594737 0)
(4.290975 -8.064552 8.194791e-19)
(4.932665 -8.480492 -5.04861e-22)
(5.610505 -8.844608 2.906739e-19)
(6.313053 -9.163926 0)
(7.033272 -9.420005 1.45317e-18)
(7.769803 -9.60706 0)
(8.519582 -9.73856 -5.183862e-20)
(9.276468 -9.812887 3.171364e-18)
(10.04063 -9.823001 0)
(10.80194 -9.778145 -4.357304e-18)
(11.55266 -9.671301 -4.912863e-18)
(12.28483 -9.498747 -5.43699e-18)
(12.9938 -9.26288 0)
(13.6842 -8.968664 -1.286056e-17)
(14.34926 -8.62354 1.031006e-19)
(14.98171 -8.220674 0)
(15.57397 -7.76712 0)
(16.12257 -7.263811 0)
(16.62817 -6.716146 8.296807e-18)
(17.08312 -6.134603 -8.603796e-18)
(17.4791 -5.515123 0)
(17.81111 -4.85962 0)
(18.07843 -4.1778 4.554279e-18)
(18.28586 -3.471412 3.634392e-20)
(18.42324 -2.748234 0)
(18.48862 -2.024718 0)
(18.49427 -1.322749 -2.249604e-18)
(18.66567 -0.7443554 2.631169e-19)
(18.94674 -0.361693 0)
(17.65619 -0.07871559 9.443085e-19)
(10.70869 -0.07878737 5.648882e-20)
(4.331127 0.2348667 1.66589e-20)
(5.9905 1.658719 -4.938535e-20)
(7.622464 2.356624 4.710862e-18)
(8.104302 2.625151 3.676107e-18)
(7.844477 2.937716 5.23265e-20)
(7.076049 3.022846 3.376782e-20)
(3.430552 0.1106152 3.803392e-18)
(-6.730223 -5.176346 8.49902e-18)
(-7.809378 -4.672933 0)
(-7.714181 -3.905296 1.207893e-17)
(-5.874546 -2.865287 0)
(-4.015167 -2.089968 -8.698483e-20)
(-2.866577 -1.723926 -5.080383e-18)
(-2.103057 -1.312186 6.200856e-20)
(-1.453958 -0.7135906 -6.16566e-20)
(-0.3847157 0.377649 2.642875e-18)
(1.420802 1.964697 -2.117429e-18)
(2.76671 2.903017 -2.014748e-18)
(1.622357 1.371482 -2.074335e-18)
(0.2813641 0.0127292 -2.420153e-18)
(-0.2704952 -0.4199566 0)
(-0.5628303 -0.7810997 -3.204422e-22)
(-0.6875754 -0.9224201 0)
(-0.6298262 -0.8298019 -4.959103e-18)
(-0.1665725 -0.4947958 5.417653e-18)
(-0.4615861 -2.064198 0)
(-1.389752 -4.779825 0)
(-1.569204 -5.396941 1.037049e-17)
(-1.574215 -5.852731 -2.704159e-18)
(-1.541392 -6.599955 5.586628e-18)
(-1.44738 -7.317137 -2.230231e-20)
(-1.258494 -7.681452 2.23063e-20)
(-0.9990229 -7.563922 0)
(-0.7273864 -7.142427 -1.361055e-18)
(-0.4954145 -6.564548 1.253231e-18)
(-0.2704549 -5.827706 2.811846e-19)
(-0.22241 -4.791059 -4.019261e-19)
(-0.09018227 -3.86314 -9.663097e-21)
(-0.007043373 -2.939162 9.85955e-21)
(-0.04918638 -2.004086 -1.307966e-20)
(-0.08757227 -1.07261 1.34562e-20)
(-0.1302556 -0.3634696 6.691201e-19)
(-0.1480583 0.1265831 -8.699215e-21)
(-0.1526938 0.3489075 -5.300035e-19)
(-0.1647985 0.4010352 1.547081e-20)
(0.06647077 0.1309355 -7.730497e-19)
(0.5582265 -0.7153541 -1.225161e-20)
(0.8677654 -1.242602 0)
(1.09234 -1.753461 0)
(1.147208 -1.848749 -7.756005e-19)
(1.042437 -1.521011 -6.237539e-19)
(1.129472 -1.433297 -9.976489e-19)
(1.715555 -2.216344 -6.297398e-19)
(0.9810488 -1.711092 0)
(-0.639389 -0.4176175 0)
(-2.169442 0.9179547 -2.311076e-18)
(-3.504626 2.310205 -3.557905e-18)
(-4.357826 3.328672 3.569542e-20)
(-4.368591 3.770496 -6.189243e-20)
(-3.492766 3.825838 -1.88092e-18)
(-1.374509 2.683694 5.055367e-19)
(1.982795 -0.8242215 -1.719962e-18)
(2.995641 -2.24465 -1.267895e-18)
(3.867789 -2.269092 -1.295297e-19)
(4.431435 -2.128484 6.526179e-19)
(4.169549 -2.185851 0)
(2.653153 -2.055528 -6.593407e-20)
(0.6212837 -1.308173 -6.005112e-18)
(-0.8687093 0.1392549 5.621723e-20)
(-1.8293 1.947781 1.002659e-19)
(2.528687 1.436661 -1.795426e-18)
(13.7957 -0.8291351 -7.452888e-19)
(17.07492 -1.123127 -3.147486e-20)
(17.72084 -0.4690526 -5.86334e-19)
(17.75013 0.3041477 -2.860057e-19)
(17.39121 0.5868618 -2.389901e-21)
(17.50034 0.9429645 0)
(17.67324 1.510825 -2.249748e-20)
(17.72875 2.14162 1.500505e-18)
(17.67992 2.802977 -5.928321e-18)
(17.54604 3.483972 4.615526e-20)
(17.33927 4.149522 -2.972242e-18)
(17.0555 4.799922 -8.978183e-20)
(16.70465 5.410849 -5.636869e-18)
(16.29425 5.997953 -1.085479e-20)
(15.8383 6.561632 5.369743e-18)
(15.33514 7.076277 -5.037911e-18)
(14.77886 7.546077 0)
(14.17787 7.960363 6.771793e-20)
(13.53635 8.325131 -6.813474e-20)
(12.86361 8.633051 0)
(12.16325 8.880182 3.495143e-18)
(11.44414 9.077246 7.241231e-20)
(10.71507 9.218452 2.722675e-18)
(9.974071 9.288163 -2.236175e-18)
(9.223429 9.289022 -1.810875e-18)
(8.471431 9.236712 -1.433635e-18)
(7.731361 9.128916 -9.603298e-19)
(7.005453 8.956463 5.150726e-21)
(6.292248 8.720227 -5.2024e-21)
(5.595943 8.428499 0)
(4.928586 8.072361 7.261936e-19)
(4.284301 7.661746 -2.121273e-20)
(3.677786 7.198801 1.580465e-18)
(3.108706 6.689662 1.929813e-18)
(2.586022 6.136781 -2.290908e-18)
(2.108513 5.544001 -1.333135e-18)
(1.681142 4.911855 -4.243115e-21)
(1.30401 4.244285 1.642411e-18)
(0.9840698 3.550825 2.839805e-20)
(0.7137691 2.844155 1.849841e-18)
(0.5157789 2.113625 1.555621e-20)
(0.3629064 1.376723 -1.040614e-18)
(0.2692272 0.6588082 -5.286761e-19)
(0.2527673 -0.06005698 -6.51483e-23)
(0.3226407 -0.8380123 5.114959e-19)
(0.4079768 -1.652036 7.882021e-21)
(0.5630349 -2.433301 -9.466227e-19)
(0.7827096 -3.180104 1.781411e-18)
(1.057813 -3.89842 0)
(1.390396 -4.58768 -3.446801e-21)
(1.774081 -5.243204 -1.338593e-18)
(2.217322 -5.863814 1.194631e-18)
(2.702259 -6.453421 -1.978807e-18)
(3.236589 -6.993237 2.095808e-20)
(3.818353 -7.487771 -2.075567e-20)
(4.431044 -7.945152 -6.734281e-19)
(5.082601 -8.345157 0)
(5.774728 -8.690487 -2.457491e-19)
(6.485044 -8.994257 2.174832e-20)
(7.214117 -9.231923 -6.143547e-20)
(7.961252 -9.398367 -1.584321e-18)
(8.720009 -9.509456 -2.159242e-18)
(9.485142 -9.562157 -1.729316e-20)
(10.25707 -9.549353 3.006572e-18)
(11.02704 -9.479408 -5.083822e-20)
(11.78392 -9.3481 -3.915167e-18)
(12.52172 -9.149259 0)
(13.23729 -8.884624 4.751522e-18)
(13.93149 -8.564166 5.223228e-18)
(14.59667 -8.196234 5.416826e-18)
(15.2285 -7.76972 -5.76511e-18)
(15.81854 -7.294301 6.177455e-18)
(16.36443 -6.769149 0)
(16.86688 -6.200312 -1.358208e-17)
(17.31781 -5.602488 1.420284e-17)
(17.70879 -4.966368 -1.685053e-19)
(18.03507 -4.300623 -3.664858e-18)
(18.29921 -3.605881 -3.735277e-18)
(18.4918 -2.903618 0)
(18.60311 -2.200678 1.929194e-18)
(18.61657 -1.513675 -1.911963e-18)
(18.52219 -0.8845117 9.361775e-19)
(18.3472 -0.398919 -2.276642e-19)
(18.46376 -0.1379231 -4.211758e-19)
(19.33334 -0.07335166 1.2004e-20)
(17.56371 0.06871433 -1.654807e-18)
(14.79089 1.156365 4.582613e-20)
(14.51874 2.950332 0)
(14.31322 3.818165 0)
(13.64639 4.018598 -7.973167e-20)
(12.46455 4.069836 8.297389e-20)
(9.363453 3.323317 0)
(2.5129 -1.195673 0)
(-4.778623 -5.091809 0)
(-5.981847 -3.851435 1.163541e-17)
(-6.078444 -2.752548 -2.035148e-17)
(-4.317768 -1.533355 7.221525e-18)
(-2.315011 -0.7054533 -5.183451e-18)
(-1.46838 -0.6118843 -1.410144e-19)
(-1.100478 -0.4440143 3.724562e-18)
(-0.9696404 -0.1568609 3.02426e-18)
(-0.5513435 0.5148095 3.058371e-20)
(0.7784273 1.653432 -4.589699e-21)
(2.319892 2.409383 -2.717986e-20)
(1.753802 1.208288 -2.781086e-20)
(0.6550175 0.2068434 2.020431e-18)
(-0.3486314 -0.719463 0)
(-0.9724334 -1.566263 2.991383e-18)
(-1.370519 -2.13434 -3.477619e-18)
(-1.506442 -2.542147 3.952591e-18)
(-1.202865 -2.95028 0)
(-1.093654 -4.040198 0)
(-1.421952 -5.160828 -6.440473e-20)
(-1.436998 -5.071193 -4.311869e-18)
(-1.443038 -5.516903 2.313588e-18)
(-1.364773 -6.068326 -2.318569e-18)
(-1.266555 -6.548782 0)
(-1.152562 -6.813874 0)
(-1.015438 -6.81924 0)
(-0.8362421 -6.621537 -1.108383e-18)
(-0.6168888 -6.225642 -5.348174e-19)
(-0.39815 -5.610475 -4.631898e-19)
(-0.3339448 -4.751716 1.647304e-19)
(-0.2126317 -3.839512 0)
(-0.1332552 -2.906694 -4.643054e-19)
(-0.2176467 -1.943331 0)
(-0.232033 -0.9512093 -6.381236e-19)
(-0.2613154 -0.1894433 0)
(-0.2605586 0.3464265 0)
(-0.2394548 0.5730591 -4.288101e-19)
(-0.2120881 0.6297563 -7.601146e-19)
(0.06743891 0.384378 6.411834e-19)
(0.5728556 -0.501694 -5.625778e-19)
(0.9024756 -1.105778 5.879052e-19)
(1.137995 -1.718603 0)
(1.169173 -1.874252 1.285228e-18)
(0.9779 -1.501226 5.155728e-19)
(0.6451556 -0.7287305 4.303321e-19)
(0.8312292 -1.05527 -1.457819e-20)
(0.1993996 -1.054641 -2.324261e-20)
(-1.401834 -0.008844332 -7.376164e-19)
(-2.642313 0.9912291 1.923846e-18)
(-3.709153 2.192087 1.463704e-18)
(-4.331548 3.178263 5.994806e-20)
(-4.069882 3.648743 1.856103e-18)
(-2.895155 3.659919 8.125642e-19)
(-1.135344 3.078671 -4.107914e-19)
(1.559771 -0.0230775 0)
(4.038221 -2.531666 -3.175083e-20)
(5.923391 -3.092158 0)
(6.878223 -3.138452 4.881805e-19)
(6.856774 -3.398004 9.897536e-19)
(5.899437 -3.545244 2.138494e-18)
(4.598088 -2.961561 -1.48669e-19)
(3.147134 -1.276412 1.05597e-19)
(2.839972 1.09039 -6.39478e-18)
(8.037218 1.460327 0)
(16.5566 -0.4434067 -6.07477e-19)
(16.94986 -0.9502253 -8.816021e-19)
(17.16917 -0.4252786 9.729269e-19)
(17.15488 0.3597254 2.293313e-19)
(17.07088 0.7908492 0)
(17.2625 1.282311 5.477484e-19)
(17.38752 1.899703 0)
(17.42574 2.553668 0)
(17.36731 3.211436 2.474416e-18)
(17.23179 3.879878 -3.779729e-20)
(17.02675 4.523824 4.676414e-20)
(16.74746 5.149345 -2.347836e-18)
(16.4028 5.729252 4.734218e-18)
(15.99866 6.28533 -4.515485e-18)
(15.5521 6.819083 -4.342385e-18)
(15.06477 7.292997 2.085326e-19)
(14.52226 7.729142 -1.256912e-19)
(13.93858 8.108024 -1.097944e-19)
(13.31376 8.44282 -3.140457e-18)
(12.66026 8.722367 -3.168542e-18)
(11.97987 8.94151 -8.198953e-20)
(11.27849 9.116884 2.589598e-18)
(10.57174 9.236203 0)
(9.854597 9.284378 1.84132e-18)
(9.122177 9.270451 1.490671e-18)
(8.389301 9.205413 1.086635e-18)
(7.670536 9.086427 7.901134e-19)
(6.964878 8.905461 0)
(6.272102 8.661098 0)
(5.592837 8.366177 -3.034442e-19)
(4.945194 8.006105 0)
(4.315008 7.595841 0)
(3.72419 7.133935 1.364419e-18)
(3.171423 6.626434 -2.959544e-20)
(2.658232 6.078367 -1.345012e-20)
(2.188345 5.490221 -3.620488e-20)
(1.769037 4.862643 2.496712e-18)
(1.400495 4.199483 0)
(1.090059 3.510216 0)
(0.8161687 2.812145 1.565133e-18)
(0.6229763 2.085766 7.814769e-19)
(0.468179 1.350628 8.390019e-19)
(0.3712992 0.6357852 -4.327205e-19)
(0.3582953 -0.08244135 0)
(0.4445567 -0.8386205 -3.920138e-22)
(0.5270287 -1.638141 2.505944e-20)
(0.6695747 -2.409821 7.50874e-19)
(0.8814983 -3.146426 -1.460156e-18)
(1.151138 -3.854026 -4.085586e-20)
(1.478582 -4.533663 1.240528e-18)
(1.856613 -5.180694 3.636737e-20)
(2.293959 -5.794369 1.928112e-18)
(2.764847 -6.380537 -1.412185e-20)
(3.285438 -6.916848 -1.328509e-18)
(3.857884 -7.408971 3.468631e-20)
(4.455636 -7.867549 0)
(5.086324 -8.270758 2.387581e-19)
(5.763987 -8.618917 0)
(6.459801 -8.928018 0)
(7.166498 -9.175699 -9.449859e-19)
(7.893884 -9.351784 2.607796e-18)
(8.635573 -9.47359 5.883719e-20)
(9.380048 -9.540859 -1.134309e-19)
(10.13184 -9.544015 -2.469304e-18)
(10.88129 -9.494187 -2.791123e-18)
(11.61798 -9.384672 3.331806e-18)
(12.33439 -9.211669 -3.611613e-18)
(13.02834 -8.975862 -7.535058e-20)
(13.70544 -8.68214 0)
(14.35294 -8.34595 -4.689061e-18)
(14.96933 -7.950693 9.87834e-18)
(15.54491 -7.510051 -5.254924e-18)
(16.07733 -7.020695 0)
(16.56998 -6.48725 9.336839e-20)
(17.01214 -5.925469 -5.691011e-18)
(17.39685 -5.321517 -9.093329e-20)
(17.72003 -4.685147 1.443744e-19)
(17.9808 -4.015571 -9.536045e-20)
(18.17491 -3.328732 0)
(18.28889 -2.642245 -3.07672e-18)
(18.31411 -1.95094 1.488471e-18)
(18.24595 -1.287434 7.391595e-19)
(18.12403 -0.7078235 -1.149418e-20)
(17.96093 -0.2650831 3.459151e-19)
(18.61418 -0.08902727 6.486366e-19)
(19.42124 0.2654975 0)
(19.33699 1.776385 1.662419e-18)
(18.64708 3.711229 -9.597309e-20)
(17.38741 4.528822 2.80612e-18)
(16.03136 4.592137 0)
(14.71047 4.416355 0)
(11.37074 3.193147 0)
(3.212641 -1.997592 6.683742e-20)
(-2.037417 -4.506925 6.300714e-18)
(-3.96979 -2.966571 -1.043864e-17)
(-4.181087 -1.428266 8.946547e-18)
(-2.786393 -0.1669384 -1.191836e-17)
(-0.6639209 0.6739059 4.402126e-18)
(0.3535496 0.7651506 0)
(0.3621151 0.683725 -3.105996e-18)
(-0.007475633 0.6757844 -2.48257e-18)
(-0.3133698 0.8916459 1.875749e-18)
(0.3301038 1.472866 -5.061445e-20)
(1.799306 1.871476 -4.449504e-20)
(1.906443 1.133662 4.167031e-20)
(1.02156 0.3351672 0)
(-0.3107955 -1.020046 -2.02008e-18)
(-1.152757 -2.145477 8.170138e-20)
(-1.7217 -2.900885 5.595499e-18)
(-1.989316 -3.581992 -3.331867e-18)
(-1.737449 -4.239707 2.075807e-19)
(-1.342994 -4.761678 -3.382986e-18)
(-1.290133 -4.881506 0)
(-1.320953 -4.860224 -3.586626e-18)
(-1.316177 -5.354937 1.911945e-18)
(-1.21704 -5.758621 -1.195094e-19)
(-1.110849 -6.092484 2.085157e-18)
(-1.007672 -6.323241 -9.288824e-20)
(-0.899099 -6.440762 3.123906e-20)
(-0.7889987 -6.384031 9.320665e-19)
(-0.6511556 -6.081029 -6.301156e-21)
(-0.4800772 -5.528397 6.430134e-21)
(-0.4728449 -4.81162 7.722354e-21)
(-0.3612179 -3.908881 2.201073e-19)
(-0.2776095 -2.972181 3.791768e-19)
(-0.3863011 -1.979882 -3.068455e-19)
(-0.3878502 -0.90011 5.219174e-19)
(-0.3991651 -0.07923544 0)
(-0.3680696 0.5084322 3.715695e-19)
(-0.3122848 0.7430683 3.746236e-19)
(-0.2529597 0.7999783 6.214559e-19)
(0.07540455 0.6579206 0)
(0.5970992 -0.1949539 0)
(0.9705545 -0.9529843 -4.817935e-19)
(1.181471 -1.640206 -1.640554e-20)
(1.159341 -1.875797 -5.140404e-19)
(0.9186041 -1.658438 -4.222488e-19)
(0.2915217 -0.5465253 -3.303965e-19)
(-0.3754875 0.5006762 4.023497e-19)
(-0.8194484 0.07585704 -5.135272e-19)
(-2.078856 0.416613 5.750216e-19)
(-3.082602 1.036308 -7.743413e-19)
(-3.948569 2.102132 0)
(-4.392242 3.118719 0)
(-3.840701 3.650017 -1.574172e-18)
(-2.331979 3.567602 0)
(-0.4138906 3.124866 2.059001e-20)
(1.83372 0.4937221 8.692212e-21)
(5.35625 -2.669872 8.400585e-19)
(7.764819 -3.627203 1.567843e-20)
(8.928121 -3.899092 5.384908e-22)
(9.214967 -4.404823 -7.980655e-19)
(9.006754 -4.869398 4.832764e-21)
(8.833001 -4.570373 1.752936e-18)
(8.381706 -2.609613 -9.222462e-20)
(8.948904 0.3563388 2.531352e-18)
(13.48919 1.36622 -5.007045e-20)
(17.22291 -0.06772369 1.982404e-18)
(16.17117 -0.8081762 1.982891e-20)
(16.8436 -0.3792757 -1.034521e-20)
(16.99727 0.2661835 -3.931432e-19)
(17.09543 0.6338034 -3.237948e-21)
(17.28754 1.062483 -4.520609e-19)
(17.41835 1.613918 -2.964143e-20)
(17.4628 2.22473 -9.244887e-19)
(17.40464 2.853417 1.924265e-18)
(17.26704 3.520242 -1.92989e-18)
(17.06651 4.153729 3.746027e-18)
(16.789 4.794754 2.054879e-18)
(16.44624 5.390108 0)
(16.04049 5.965215 0)
(15.59397 6.52103 3.521472e-18)
(15.10705 7.014695 3.358317e-18)
(14.56456 7.469086 0)
(13.98345 7.859833 -8.802667e-20)
(13.35859 8.208986 2.848187e-18)
(12.70228 8.50781 2.524603e-18)
(12.02286 8.738745 2.194736e-18)
(11.32738 8.91972 -5.756911e-20)
(10.62255 9.051487 -1.632158e-18)
(9.902895 9.115596 4.034971e-20)
(9.175282 9.107587 -4.0734e-20)
(8.450809 9.046254 -9.158814e-19)
(7.735053 8.936735 5.912971e-19)
(7.025889 8.771009 0)
(6.34132 8.531058 0)
(5.664789 8.246315 5.161299e-19)
(5.026122 7.892297 -8.553576e-21)
(4.400506 7.490836 -8.192833e-21)
(3.825066 7.033502 -1.052074e-18)
(3.280537 6.533289 -2.641753e-18)
(2.76072 6.001789 1.476492e-18)
(2.293552 5.425309 -1.764984e-18)
(1.878876 4.807538 -9.766166e-19)
(1.518896 4.151571 -3.332408e-20)
(1.216088 3.465152 0)
(0.935682 2.779003 -1.221633e-18)
(0.75515 2.059849 -4.100939e-20)
(0.5951686 1.325775 -6.975118e-19)
(0.4952315 0.6145613 3.707526e-19)
(0.4864537 -0.1054767 -1.893455e-23)
(0.5878897 -0.8365279 -3.637175e-19)
(0.6590289 -1.625157 3.104022e-20)
(0.7959079 -2.383725 -6.544727e-19)
(0.9989945 -3.103168 1.196585e-18)
(1.262612 -3.796992 -1.149814e-18)
(1.586105 -4.466457 2.827694e-21)
(1.960353 -5.103655 9.413702e-19)
(2.402228 -5.706556 -1.535157e-18)
(2.864064 -6.287344 1.314456e-18)
(3.373525 -6.818374 9.947846e-19)
(3.946768 -7.301945 8.576569e-21)
(4.552223 -7.748317 9.011498e-21)
(5.175079 -8.14496 -1.849411e-19)
(5.835736 -8.494747 -7.332216e-20)
(6.531536 -8.795654 1.771621e-20)
(7.236965 -9.033579 6.834742e-19)
(7.956092 -9.203784 -2.095021e-18)
(8.689675 -9.322201 1.346959e-18)
(9.43896 -9.372159 -5.593626e-20)
(10.18784 -9.365676 -1.988306e-18)
(10.92938 -9.312297 4.594894e-18)
(11.666 -9.189826 8.479275e-20)
(12.37915 -9.006857 2.801486e-18)
(13.07298 -8.755536 -3.265559e-18)
(13.75168 -8.445482 1.013077e-19)
(14.39768 -8.096775 -3.708705e-18)
(15.01419 -7.683483 -3.791986e-18)
(15.58843 -7.22773 1.307596e-19)
(16.12159 -6.716199 -4.366304e-18)
(16.61429 -6.161807 4.510501e-18)
(17.05565 -5.581601 0)
(17.43798 -4.961059 0)
(17.75708 -4.305551 2.45684e-18)
(18.01279 -3.633654 2.460913e-18)