/*--------------------------------*- C++ -*----------------------------------*\
| =========                 |                                                 |
| \\      /  F ield         | OpenFOAM: The Open Source CFD Toolbox           |
|  \\    /   O peration     | Version:  2406                                  |
|   \\  /    A nd           | Website:  www.openfoam.com                      |
|    \\/     M anipulation  |                                                 |
\*---------------------------------------------------------------------------*/
FoamFile
{
    version     2.0;
    format      ascii;
    arch        "LSB;label=32;scalar=64";
    class       volVectorField;
    location    "0.16";
    object      U;
}
// * * * * * * * * * * * * * * * * * * * * * * * * * * * * * * * * * * * * * //

dimensions      [0 1 -1 0 0 0 0];

internalField   nonuniform List<vector> 
15536
(
(-0.05663469 0.8343104 3.552183e-23)
(-0.1262184 1.854096 2.748216e-19)
(-0.2747672 2.800317 4.644507e-19)
(-0.5076036 3.747076 3.470417e-19)
(-0.8333188 4.785214 2.366293e-21)
(-1.277958 5.969433 4.590805e-21)
(-1.844012 7.264937 1.065857e-20)
(-2.524463 8.575948 -1.034858e-20)
(-3.248224 9.709818 5.564541e-18)
(-3.950724 10.4873 7.215198e-18)
(-4.558469 10.8953 0)
(-4.991783 10.84681 0)
(-5.033166 10.10098 -7.050241e-20)
(-4.27055 8.04689 1.802549e-17)
(-2.140113 3.849193 8.504424e-18)
(0.2903629 -0.3613249 -1.587832e-17)
(1.470954 -1.73206 7.040942e-18)
(2.962983 -3.314651 3.119611e-20)
(3.595029 -3.880101 -4.189673e-20)
(3.944279 -3.906799 1.0832e-20)
(3.759652 -3.540595 0)
(1.305977 -1.323178 -1.03448e-18)
(-1.409192 0.9504833 0)
(-2.874394 2.047134 2.565882e-18)
(-4.107775 2.744128 -2.369457e-20)
(-6.051062 3.697206 -6.669364e-20)
(-8.759106 4.948285 6.306446e-20)
(-11.2037 6.051553 -1.644736e-17)
(-8.097256 4.437201 -1.680811e-17)
(0.6220965 0.08284061 0)
(3.886439 -1.740253 -3.897933e-20)
(-2.412145 0.4424116 -5.634471e-18)
(-3.367476 0.843477 7.015036e-18)
(-4.090771 0.8607246 0)
(0.2693257 -0.004441013 -7.057999e-18)
(6.608065 -0.7137482 -2.715133e-20)
(10.32236 -0.7636692 3.425013e-18)
(12.38221 -0.4669798 -1.736746e-18)
(13.56374 0.0191689 1.7469e-21)
(14.35114 0.6128595 -4.46738e-19)
(14.90236 1.253602 1.798145e-18)
(15.28802 1.920367 -2.805412e-20)
(15.54313 2.594946 2.790515e-20)
(15.67533 3.266835 0)
(15.69884 3.929281 -6.854684e-18)
(15.61154 4.5685 -6.757381e-18)
(15.39727 5.175387 0)
(15.12653 5.75825 -1.271526e-17)
(14.78938 6.309001 1.233053e-17)
(14.41332 6.832912 1.184623e-17)
(13.98511 7.314485 4.287237e-20)
(13.4982 7.749349 -1.066276e-17)
(12.95967 8.131856 0)
(12.3788 8.463804 0)
(11.76536 8.74127 8.521888e-18)
(11.11666 8.956025 7.787005e-18)
(10.4519 9.119633 5.145644e-20)
(9.778025 9.230503 6.095174e-18)
(9.082114 9.270023 1.065389e-17)
(8.37779 9.247358 4.49927e-18)
(7.673453 9.165888 3.616278e-18)
(6.983237 9.035874 -2.531082e-20)
(6.304167 8.848016 0)
(5.633777 8.596021 1.09919e-18)
(4.985437 8.297355 0)
(4.356213 7.937691 5.853793e-19)
(3.754164 7.524132 -2.877371e-20)
(3.189354 7.067663 -2.869949e-21)
(2.660981 6.566048 9.849094e-21)
(2.173186 6.023663 -3.585688e-18)
(1.731306 5.448666 -1.765408e-20)
(1.335775 4.838267 2.442535e-18)
(0.9880316 4.194225 2.707519e-18)
(0.6932522 3.53212 0)
(0.4508633 2.856697 0)
(0.2639115 2.164172 3.328295e-18)
(0.1294098 1.466622 -2.59734e-22)
(0.05043316 0.7916263 9.086421e-19)
(0.02553932 0.1199222 1.679247e-21)
(0.05483033 -0.640439 -7.024439e-21)
(0.1327665 -1.441306 -1.739529e-18)
(0.2706384 -2.209968 0)
(0.4658956 -2.942938 3.135786e-18)
(0.7148315 -3.644803 0)
(1.015929 -4.316174 -2.645619e-18)
(1.366684 -4.9555 2.334949e-18)
(1.766131 -5.561319 1.72167e-20)
(2.210645 -6.132279 3.445052e-18)
(2.696961 -6.659256 9.247915e-21)
(3.220547 -7.14007 -2.021695e-18)
(3.778514 -7.57644 -1.239793e-18)
(4.368436 -7.963185 6.275785e-21)
(4.988855 -8.303648 4.09807e-19)
(5.630475 -8.59341 -1.254709e-18)
(6.288344 -8.828724 1.966026e-20)
(6.952694 -8.99732 6.667756e-21)
(7.629461 -9.114332 -3.769591e-18)
(8.314762 -9.180015 0)
(9.000747 -9.186674 1.075551e-17)
(9.69085 -9.145634 6.126414e-18)
(10.36572 -9.042369 1.088896e-19)
(11.02224 -8.879209 -7.814364e-18)
(11.65653 -8.658817 0)
(12.26753 -8.384692 0)
(12.85496 -8.063792 0)
(13.4095 -7.693739 0)
(13.92056 -7.275492 1.118129e-17)
(14.38435 -6.812234 1.183897e-17)
(14.80176 -6.308276 2.988178e-20)
(15.16811 -5.771158 -1.28098e-17)
(15.46185 -5.194581 -6.565982e-18)
(15.69747 -4.59224 -6.817741e-18)
(15.8252 -3.960706 5.345615e-20)
(15.8162 -3.300435 7.028163e-18)
(15.67315 -2.622634 3.640635e-18)
(15.39954 -1.94045 -2.81956e-20)
(14.97088 -1.265261 -7.024329e-21)
(14.36376 -0.616167 4.594322e-19)
(13.51705 -0.01960768 -8.869223e-19)
(12.25761 0.4629672 -2.035599e-20)
(10.07566 0.7478477 1.376666e-20)
(6.199637 0.6751704 3.408799e-18)
(-0.2518204 -0.07520448 2.818642e-20)
(-4.141115 -0.8785129 0)
(-3.30432 -0.8228126 -7.11486e-18)
(-2.309504 -0.4126079 -5.838189e-18)
(4.030646 1.7848 4.797952e-21)
(0.4657526 -0.1620525 1.126464e-17)
(-8.178306 -4.473246 -1.700849e-17)
(-11.15196 -6.023625 0)
(-8.741448 -4.943898 0)
(-6.120775 -3.763674 -6.165289e-18)
(-4.271407 -2.87882 0)
(-3.126077 -2.255171 1.933149e-20)
(-1.820173 -1.308001 -1.897978e-18)
(0.5270026 0.660842 2.849534e-19)
(3.42151 3.319932 -2.763439e-21)
(5.283955 5.27218 -8.845823e-19)
(5.244447 5.532057 -4.397941e-20)
(3.831053 4.288937 9.483108e-18)
(2.155582 2.618874 6.161596e-18)
(0.9464955 1.28436 8.20605e-18)
(-2.029482 -3.771004 9.672501e-18)
(-4.790101 -9.101707 0)
(-5.883976 -11.82787 -8.202777e-20)
(-5.775682 -12.46154 -1.061147e-17)
(-5.016124 -11.85934 0)
(-4.133464 -10.86672 7.166768e-18)
(-3.207161 -9.444637 -3.689797e-20)
(-2.346242 -7.849675 1.388244e-20)
(-1.630655 -6.328532 2.738407e-19)
(-1.094158 -5.077897 3.837012e-21)
(-0.7143844 -4.083204 0)
(-0.4366403 -3.198389 -4.526947e-19)
(-0.2364573 -2.294529 -3.92671e-21)
(-0.1057811 -1.302168 -1.186754e-21)
(-0.05165726 -0.2280708 1.254398e-21)
(-0.1477417 0.6371108 1.262662e-19)
(-0.2267711 1.636534 -2.274601e-19)
(-0.3923319 2.571353 0)
(-0.6486813 3.478342 -2.888011e-19)
(-0.998616 4.466002 0)
(-1.477396 5.595895 2.544162e-19)
(-2.081177 6.858867 8.59779e-21)
(-2.797343 8.12456 -8.351141e-21)
(-3.552705 9.253152 -4.521085e-18)
(-4.304725 10.04909 -5.878145e-18)
(-4.95387 10.49451 0)
(-5.484849 10.59399 5.878467e-20)
(-5.922256 10.59804 -1.150191e-21)
(-6.231899 10.75004 -6.87743e-18)
(-5.290311 9.085539 -1.236944e-17)
(-2.363974 4.219378 5.760281e-18)
(1.458296 -1.398049 -5.411907e-18)
(2.739903 -2.856664 -3.863514e-20)
(3.193857 -3.436177 0)
(4.302522 -4.358048 0)
(4.031041 -4.164927 0)
(1.45394 -1.920043 -7.801996e-19)
(-0.572233 0.002501041 1.184581e-20)
(-1.456552 0.8363913 -1.213119e-20)
(-2.186649 1.18653 3.221391e-20)
(-3.700802 1.773971 -2.992301e-20)
(-6.408298 3.02457 0)
(-8.091443 3.971946 0)
(-9.527767 5.212843 2.572223e-17)
(-3.128566 2.130778 5.517166e-20)
(1.696142 -0.7719371 -6.585221e-20)
(1.661098 -0.9805773 4.682875e-18)
(2.89308 -0.8750659 5.73168e-18)
(5.955396 -1.062358 -4.178902e-20)
(11.78902 -1.572035 -4.640824e-18)
(16.87664 -1.986151 2.283326e-18)
(18.58018 -1.844336 9.183366e-22)
(19.19383 -1.389951 1.247517e-18)
(19.46614 -0.7668733 0)
(19.5937 -0.0595418 3.401354e-19)
(19.61775 0.672184 2.744171e-18)
(19.56032 1.410536 2.786715e-18)
(19.42366 2.148501 2.772867e-18)
(19.21574 2.880548 -8.536851e-20)
(18.95553 3.611195 5.516487e-18)
(18.64617 4.326096 -4.176867e-20)
(18.30149 5.023438 0)
(17.88426 5.681766 1.013677e-17)
(17.41326 6.309374 0)
(16.90067 6.903064 -7.117848e-20)
(16.33897 7.449413 7.139718e-20)
(15.72385 7.944933 8.515315e-18)
(15.06215 8.382667 -5.958899e-20)
(14.36119 8.762601 7.416451e-18)
(13.62865 9.081583 -6.856428e-18)
(12.86799 9.336195 0)
(12.09014 9.535484 4.069013e-20)
(11.3025 9.675112 -5.000905e-18)
(10.50071 9.742127 -8.487634e-18)
(9.689982 9.738494 0)
(8.883231 9.67533 -2.903538e-18)
(8.089999 9.554746 -1.444395e-20)
(7.31113 9.369625 1.508743e-18)
(6.54766 9.119383 3.888693e-21)
(5.805977 8.810777 -3.936582e-21)
(5.090852 8.440316 -4.75015e-19)
(4.405316 8.012276 1.127301e-18)
(3.76004 7.53221 0)
(3.15579 7.005844 0)
(2.597319 6.436887 -1.908481e-20)
(2.088534 5.826956 0)
(1.632226 5.177708 0)
(1.230039 4.493052 0)
(0.8865098 3.78463 -2.437248e-18)
(0.6002259 3.062276 1.961288e-20)
(0.3807536 2.319598 1.123387e-20)
(0.2183467 1.57184 -5.485339e-21)
(0.1202068 0.8431003 -7.463357e-19)
(0.09027903 0.1149171 3.034515e-21)
(0.133509 -0.6991736 -7.451347e-19)
(0.226153 -1.552097 1.416834e-18)
(0.3906561 -2.37195 1.079173e-20)
(0.6213298 -3.154085 -2.541587e-18)
(0.912465 -3.904346 -3.719184e-20)
(1.263354 -4.623291 2.191352e-18)
(1.66974 -5.305038 -1.942701e-18)
(2.132146 -5.949316 0)
(2.64274 -6.555975 -5.626729e-18)
(3.199881 -7.110753 -1.529451e-20)
(3.800411 -7.616773 1.64021e-18)
(4.43847 -8.077579 1.012045e-18)
(5.111751 -8.480808 0)
(5.818916 -8.830071 0)
(6.551212 -9.129726 0)
(7.301595 -9.363333 1.53975e-20)
(8.065585 -9.528216 -1.529357e-20)
(8.843321 -9.635628 2.957e-18)
(9.629817 -9.684035 5.409191e-21)
(10.4219 -9.66992 -4.351143e-18)
(11.21453 -9.598514 -7.521011e-20)
(11.99788 -9.464706 1.118464e-17)
(12.76425 -9.265456 6.210971e-18)
(13.50929 -9.003249 -5.052785e-20)
(14.23568 -8.683926 7.249387e-18)
(14.93771 -8.313615 5.922242e-20)
(15.60862 -7.884618 -6.753545e-20)
(16.24019 -7.402736 6.720678e-20)
(16.82802 -6.870024 7.435011e-20)
(17.37245 -6.292448 9.777332e-18)
(17.86773 -5.675731 -7.714879e-20)
(18.30374 -5.021074 0)
(18.66988 -4.328253 0)
(18.99905 -3.61304 0)
(19.28448 -2.887322 0)
(19.51044 -2.154178 2.171913e-20)
(19.66477 -1.415343 -2.167647e-20)
(19.73943 -0.6804789 1.368914e-18)
(19.72113 0.05315648 5.344753e-21)
(19.58993 0.7581027 0)
(19.29568 1.372773 -1.294233e-18)
(18.61341 1.813551 2.434039e-18)
(16.71293 1.933676 -2.290666e-18)
(11.33423 1.495742 3.81125e-20)
(5.601702 1.018616 -5.6562e-18)
(2.744783 0.8630796 5.380501e-20)
(1.628985 0.9749561 0)
(1.886991 0.8306355 7.06488e-18)
(-3.232776 -2.186433 -1.709088e-17)
(-9.515284 -5.190785 -1.294215e-17)
(-7.996101 -3.912328 -2.063665e-20)
(-6.321545 -2.972169 -1.443448e-19)
(-3.791866 -1.850567 5.765901e-20)
(-2.379714 -1.315864 0)
(-1.687307 -1.017273 2.654263e-18)
(-0.821897 -0.260299 1.534595e-18)
(0.9283511 1.447275 9.497656e-21)
(3.445409 3.900012 9.120768e-19)
(5.53222 5.923647 7.043725e-19)
(5.815875 6.215478 2.469225e-18)
(4.424124 4.755458 -3.498874e-21)
(1.934765 1.972544 -4.791769e-18)
(-2.385931 -4.431666 -4.075188e-20)
(-5.733358 -10.00751 -6.778586e-18)
(-7.143074 -12.45338 6.417445e-20)
(-6.851212 -12.29548 -4.808964e-20)
(-6.190951 -11.89166 -1.403488e-20)
(-5.458432 -11.45943 0)
(-4.491693 -10.39421 0)
(-3.512976 -9.001227 -3.743037e-18)
(-2.613497 -7.484745 0)
(-1.866352 -6.072537 -4.377902e-19)
(-1.294284 -4.927769 -2.469954e-19)
(-0.8816229 -3.988836 5.066982e-21)
(-0.5739196 -3.130315 -5.143741e-21)
(-0.3563595 -2.253255 -4.473877e-19)
(-0.2113519 -1.301516 2.498658e-19)
(-0.1475022 -0.2793868 1.257225e-19)
(-0.2339449 0.3182875 -1.021429e-19)
(-0.2878009 1.19485 1.863345e-19)
(-0.3974382 1.947037 -4.389308e-21)
(-0.5979489 2.677871 2.442499e-19)
(-0.892767 3.558597 0)
(-1.330389 4.643686 -2.013707e-19)
(-1.876088 5.896672 -1.415341e-20)
(-2.526924 7.179184 1.200725e-18)
(-3.16279 8.365647 3.75789e-18)
(-3.801037 9.226404 4.895851e-18)
(-4.31986 9.746103 5.809888e-18)
(-4.733265 9.868726 -4.742247e-20)
(-4.966801 9.559583 0)
(-5.200755 9.430739 0)
(-5.566301 9.996056 4.867898e-18)
(-4.18076 7.763631 4.359427e-18)
(0.2169228 1.036745 4.26234e-18)
(1.941418 -1.716015 6.475314e-20)
(2.292638 -2.286768 0)
(3.516065 -3.406179 7.18577e-20)
(3.446101 -3.834672 -9.482542e-19)
(1.822802 -2.585761 6.21249e-19)
(1.060049 -1.414555 0)
(0.9466119 -0.9026935 1.775497e-18)
(0.6736103 -0.791939 0)
(-0.9341489 -0.2089117 -4.078906e-18)
(-3.521976 1.121305 0)
(-5.053982 2.455335 -1.242357e-17)
(-6.308786 4.015076 -2.189361e-17)
(-3.494665 2.783362 0)
(4.468067 -1.362296 0)
(10.40355 -3.161797 -2.891737e-20)
(12.78085 -2.99069 -3.917989e-18)
(15.47005 -2.659265 3.736374e-18)
(18.02371 -2.305894 6.944101e-18)
(18.98353 -2.037759 -1.797787e-18)
(18.76108 -1.581137 1.957773e-18)
(18.84289 -0.9513449 -1.054866e-18)
(18.94874 -0.2290399 0)
(19.02494 0.5262173 0)
(19.04311 1.289149 -2.283892e-18)
(19.00029 2.056835 -2.336186e-18)
(18.88711 2.809354 -4.530188e-18)
(18.70695 3.543161 4.454828e-18)
(18.4735 4.265649 1.040735e-19)
(18.18313 4.955963 -6.883779e-20)
(17.82385 5.621834 0)
(17.40249 6.245494 0)
(16.92827 6.838783 7.921235e-18)
(16.41492 7.398958 -7.619309e-18)
(15.85628 7.90797 0)
(15.24672 8.366174 0)
(14.59412 8.765482 9.777404e-20)
(13.90367 9.109257 -6.181938e-18)
(13.18484 9.391546 0)
(12.44136 9.608619 -4.995241e-18)
(11.68151 9.773408 -4.487869e-18)
(10.91476 9.879769 -3.90987e-18)
(10.13773 9.912964 3.412698e-18)
(9.351516 9.878578 -4.061429e-20)
(8.57014 9.788196 2.331754e-18)
(7.802833 9.643161 0)
(7.052345 9.434507 -1.230666e-18)
(6.31879 9.162578 -5.998492e-21)
(5.605659 8.836006 8.550439e-21)
(4.924283 8.446697 -4.531003e-19)
(4.26896 8.004525 0)
(3.653113 7.512813 -1.490691e-18)
(3.07651 6.977743 -1.700568e-20)
(2.546217 6.401824 2.428956e-18)
(2.06272 5.78772 1.434168e-18)
(1.630186 5.13597 -1.633834e-18)
(1.248799 4.450599 -1.820277e-18)
(0.9225983 3.742656 1.983218e-18)
(0.6492603 3.022445 -2.13596e-18)
(0.4439988 2.281447 -1.101191e-18)
(0.2867484 1.536589 2.333228e-18)
(0.1906076 0.8116009 1.221426e-18)
(0.1645054 0.08878596 2.481352e-21)
(0.2186714 -0.7113164 6.164299e-19)
(0.3062468 -1.550939 -9.21732e-21)
(0.4620282 -2.359654 0)
(0.6801805 -3.133775 -1.592757e-20)
(0.9538224 -3.878756 -1.367522e-20)
(1.284758 -4.593997 -1.734175e-18)
(1.666896 -5.274233 3.190516e-18)
(2.106377 -5.917886 -1.397703e-18)
(2.58898 -6.527682 2.28233e-18)
(3.115917 -7.088097 1.625868e-20)
(3.688071 -7.601286 0)
(4.295219 -8.073287 8.762025e-19)
(4.937309 -8.489896 1.012939e-21)
(5.615231 -8.853976 1.798861e-19)
(6.317266 -9.172654 0)
(7.037365 -9.427576 1.287104e-18)
(7.774473 -9.614365 0)
(8.526037 -9.746691 -5.033108e-20)
(9.286288 -9.82298 2.920434e-18)
(10.05617 -9.836546 0)
(10.82597 -9.797029 -4.053142e-18)
(11.58859 -9.697006 -4.585731e-18)
(12.3364 -9.532854 -5.090521e-18)
(13.06466 -9.306607 0)
(13.77835 -9.022429 -1.210625e-17)
(14.46946 -8.689042 9.718662e-20)
(15.13192 -8.296248 0)
(15.75747 -7.851759 0)
(16.34182 -7.356027 0)
(16.88616 -6.813886 7.914708e-18)
(17.38355 -6.233145 -8.231263e-18)
(17.82313 -5.613082 0)
(18.20169 -4.95545 0)
(18.51565 -4.268452 4.402339e-18)
(18.76929 -3.555754 3.529362e-20)
(18.95977 -2.821439 0)
(19.0825 -2.066823 0)
(19.13746 -1.30041 -2.28393e-18)
(19.1267 -0.5303048 2.795682e-19)
(19.05929 0.2300601 0)
(18.96502 0.9524744 1.044635e-18)
(18.90233 1.57759 2.850822e-20)
(19.11225 2.022997 8.891265e-21)
(17.97247 2.286688 -2.764731e-20)
(15.31811 2.650695 3.874294e-18)
(12.68912 2.999607 3.940925e-18)
(10.34332 3.169672 6.023511e-20)
(4.466275 1.353073 5.055516e-20)
(-3.506453 -2.803646 6.819336e-18)
(-6.208373 -3.951974 1.110053e-17)
(-4.981171 -2.402688 0)
(-3.332838 -1.016655 7.70606e-18)
(-0.8410848 0.1981611 0)
(0.6762446 0.7678277 -3.971522e-20)
(0.845466 0.8167422 -2.162808e-18)
(0.9872534 1.288161 8.585698e-21)
(1.718804 2.443896 -7.959924e-21)
(3.140759 4.03246 -7.376345e-19)
(4.809192 5.351035 -2.867742e-19)
(4.994967 5.115237 -2.055246e-18)
(3.748022 3.471796 -3.116358e-18)
(-0.1789149 -1.906992 -3.620319e-18)
(-4.8148 -8.984392 0)
(-6.314753 -11.46664 -3.00804e-20)
(-6.30942 -11.51817 0)
(-6.068923 -11.58343 -7.470446e-18)
(-5.693385 -11.60673 7.267077e-18)
(-5.043788 -10.93954 0)
(-4.201649 -9.734244 0)
(-3.279365 -8.185014 6.144654e-18)
(-2.408753 -6.54415 -7.593925e-19)
(-1.683983 -5.087003 3.500031e-19)
(-1.140526 -4.009093 2.606249e-21)
(-0.7864112 -3.203541 -2.665407e-21)
(-0.5430546 -2.508711 0)
(-0.3911929 -1.826821 3.666194e-19)
(-0.2910348 -1.116262 -4.01293e-19)
(-0.2414898 -0.347516 -1.045061e-19)
(-0.3045073 0.02854249 1.680293e-19)
(-0.3395411 0.7697103 4.488643e-21)
(-0.406833 1.312483 -4.449308e-21)
(-0.6047315 1.94743 4.750797e-21)
(-0.9065035 2.829272 -4.651797e-21)
(-1.363373 3.956153 8.155878e-20)
(-1.912202 5.250504 -1.157868e-20)
(-2.57579 6.607636 -1.004224e-18)
(-3.196119 7.873259 3.920262e-20)
(-3.847909 8.788347 -3.9286e-18)
(-4.384212 9.339379 -9.406137e-20)
(-4.7855 9.448583 0)
(-5.00902 9.212226 0)
(-4.866916 8.538976 -4.896718e-18)
(-4.946834 8.989599 -4.211299e-18)
(-4.685829 9.2249 -6.925741e-18)
(-1.462631 4.376272 -3.205849e-18)
(0.5725577 0.4439403 0)
(1.146685 -0.8658103 0)
(2.586027 -2.222544 -8.852303e-20)
(2.769539 -3.272413 1.633981e-18)
(2.489349 -3.306978 5.983542e-22)
(2.911522 -2.856508 -1.596385e-20)
(3.313751 -2.589192 -2.785646e-18)
(3.121253 -2.589469 -1.983379e-18)
(1.672118 -2.200263 3.294013e-18)
(-0.3798154 -1.038661 6.464924e-18)
(-1.815595 0.6012608 1.053527e-17)
(-1.598119 2.138304 9.967127e-18)
(-0.6476911 2.233947 0)
(9.968745 -2.374125 -6.72862e-20)
(15.91394 -4.361549 -4.944175e-18)
(17.49154 -4.127496 3.576574e-20)
(18.62509 -3.367518 -1.863904e-20)
(18.80699 -2.583405 -2.862054e-18)
(18.44327 -2.193706 -1.468603e-18)
(18.48575 -1.857564 -4.247233e-20)
(18.77947 -1.327716 -8.537472e-19)
(18.99727 -0.6866301 -4.388053e-19)
(19.14069 0.0124507 -3.521429e-21)
(19.20092 0.7377292 0)
(19.1858 1.480472 -2.903026e-20)
(19.09376 2.216096 1.903898e-18)
(18.92604 2.943535 -7.364583e-18)
(18.69821 3.675106 5.598942e-20)
(18.41193 4.377085 -3.571186e-18)
(18.05918 5.057508 -1.064879e-19)
(17.64378 5.695589 -6.668236e-18)
(17.17312 6.307884 -2.095669e-21)
(16.66213 6.89236 6.284623e-18)
(16.10659 7.422742 -5.889981e-18)
(15.49893 7.905101 0)
(14.84731 8.328056 7.905621e-20)
(14.15553 8.698372 -7.957695e-20)
(13.43367 9.007966 0)
(12.685 9.253228 4.114923e-18)
(11.91876 9.445887 7.543367e-20)
(11.14443 9.579865 3.268189e-18)
(10.35989 9.639201 -2.744253e-18)
(9.567552 9.627349 -2.289259e-18)
(8.776245 9.561009 -1.884991e-18)
(7.999873 9.438277 -1.38734e-18)
(7.240717 9.250091 1.129515e-20)
(6.497102 8.997817 -1.141133e-20)
(5.773253 8.690406 0)
(5.081384 8.318609 3.702949e-19)
(4.415009 7.892877 -1.594495e-20)
(3.789021 7.415807 1.240609e-18)
(3.202683 6.894057 1.609878e-18)
(2.665235 6.329522 -1.97884e-18)
(2.174487 5.725965 -1.177071e-18)
(1.735431 5.08363 -4.395368e-21)
(1.347809 4.406548 1.49318e-18)
(1.018129 3.704726 2.618078e-20)
(0.7397707 2.989849 1.711573e-18)
(0.5342652 2.251176 1.453745e-20)
(0.3744143 1.506803 -9.750403e-19)
(0.2758362 0.7819976 -4.978542e-19)
(0.2526187 0.059332 -6.180043e-23)
(0.3197059 -0.7244158 4.886946e-19)
(0.4055564 -1.550552 7.545439e-21)
(0.5588898 -2.349094 -9.121264e-19)
(0.7781803 -3.114061 1.723504e-18)
(1.053652 -3.849069 0)
(1.387484 -4.553212 -3.225201e-21)
(1.772642 -5.221803 -1.312268e-18)
(2.218037 -5.8533 1.177882e-18)
(2.705039 -6.451692 -1.964625e-18)
(3.241208 -6.997941 2.11997e-20)
(3.824306 -7.49653 -2.100488e-20)
(4.437985 -7.955723 -7.201131e-19)
(5.09027 -8.35614 0)
(5.782664 -8.701333 -1.543324e-19)
(6.492791 -9.004204 1.823696e-20)
(7.222231 -9.240275 -5.820845e-20)
(7.970161 -9.406207 -1.428254e-18)
(8.730796 -9.51788 -1.973728e-18)
(9.499365 -9.572252 -1.902421e-20)
(10.27704 -9.562616 2.779869e-18)
(11.05542 -9.497797 -4.713095e-20)
(11.82411 -9.373045 -3.648501e-18)
(12.5774 -9.182399 0)
(13.31206 -8.927095 4.454959e-18)
(14.0293 -8.616215 4.914591e-18)
(14.72139 -8.257424 5.107379e-18)
(15.38366 -7.839104 -5.450599e-18)
(16.00715 -7.371237 5.856422e-18)
(16.58889 -6.851927 0)
(17.12965 -6.286226 -1.294853e-17)
(17.62258 -5.686185 1.357913e-17)
(18.05719 -5.04723 -1.614722e-19)
(18.42913 -4.373696 -3.522547e-18)
(18.73971 -3.67397 -3.605286e-18)
(18.98826 -2.952027 0)
(19.1665 -2.220281 1.887521e-18)
(19.26927 -1.481366 -1.889989e-18)
(19.29214 -0.7430151 9.449079e-19)
(19.2329 -0.0154991 -2.382402e-19)
(19.09027 0.6829084 -4.589315e-19)
(18.87293 1.318719 1.371231e-20)
(18.57945 1.841744 -1.644974e-18)
(18.58243 2.173824 1.117485e-20)
(18.94602 2.586975 0)
(18.69453 3.395836 0)
(17.51529 4.159819 -8.372371e-20)
(15.89798 4.377023 8.685049e-20)
(9.856561 2.333735 0)
(-0.660992 -2.252685 0)
(-1.486105 -2.066872 0)
(-1.784789 -0.5643358 1.08706e-17)
(-0.2274325 1.130479 -1.288162e-17)
(1.754514 2.173603 3.534529e-18)
(3.196171 2.614717 -2.214481e-18)
(3.404396 2.642252 -5.305727e-20)
(3.034056 2.880885 1.003867e-18)
(2.769034 3.497468 -1.152763e-19)
(2.906583 4.099924 -3.22732e-21)
(3.909936 4.576476 1.880123e-20)
(3.917878 3.681526 -1.508909e-20)
(2.185167 0.6382204 -4.320166e-20)
(-2.298638 -6.136553 2.768397e-18)
(-5.409645 -10.60714 0)
(-5.733286 -10.63204 4.541074e-18)
(-5.995905 -10.80316 -5.58995e-18)
(-6.168629 -11.33524 6.157294e-18)
(-5.822287 -11.2995 0)
(-5.165438 -10.64897 0)
(-4.33684 -9.40051 -4.926814e-20)
(-3.404303 -7.750523 -2.481888e-18)
(-2.490644 -5.95549 6.518482e-19)
(-1.697747 -4.325914 -1.420232e-19)
(-1.092852 -3.136034 0)
(-0.7344082 -2.339282 0)
(-0.5147876 -1.765792 0)
(-0.4024797 -1.258136 2.997955e-19)
(-0.3375751 -0.8160065 1.709656e-19)
(-0.3126924 -0.4015623 1.718143e-19)
(-0.3611673 -0.1849038 -6.923009e-20)
(-0.4050116 0.4630701 0)
(-0.4421469 0.8904711 2.186599e-19)
(-0.6410012 1.507413 0)
(-0.9630924 2.390579 1.697059e-19)
(-1.458883 3.548007 0)
(-2.030147 4.896537 0)
(-2.713308 6.351745 -7.924623e-19)
(-3.30105 7.694211 -2.517334e-18)
(-3.906268 8.649901 3.278325e-18)
(-4.345741 9.25623 -3.909897e-18)
(-4.626776 9.399432 4.272809e-18)
(-4.755694 9.186993 0)
(-4.663658 8.506348 8.143861e-18)
(-4.393231 8.127201 3.575431e-18)
(-4.372209 9.196649 2.97291e-18)
(-2.732489 7.051805 -8.590304e-20)
(-1.306705 3.59168 -5.285722e-20)
(-0.3909114 1.301141 -1.141525e-18)
(1.670102 -0.8829721 1.197788e-20)
(2.279383 -2.640798 -7.155231e-19)
(3.384588 -3.952623 3.649596e-22)
(4.795914 -4.17019 4.47102e-19)
(5.621004 -4.173515 1.109982e-18)
(5.606162 -4.361039 1.553865e-18)
(4.561717 -4.329323 0)
(3.210845 -3.48042 1.318515e-20)
(2.107397 -1.723293 0)
(1.993411 0.4787438 7.956925e-18)
(4.833222 0.9336572 4.152925e-18)
(14.68097 -2.969992 2.908471e-18)
(17.34941 -4.438274 -1.158499e-19)
(17.73631 -4.188794 6.653371e-20)
(18.28249 -3.338607 -4.806498e-18)
(18.10319 -2.467309 0)
(18.00542 -1.977531 -1.192978e-18)
(18.24101 -1.523669 -1.366825e-18)
(18.49988 -0.9236201 1.40688e-18)
(18.69794 -0.2416726 3.444948e-19)
(18.82463 0.4810896 0)
(18.8763 1.211788 7.488472e-19)
(18.85716 1.946727 0)
(18.76284 2.671863 0)
(18.59481 3.377154 3.07547e-18)
(18.36873 4.090943 -4.654105e-20)
(18.08513 4.767801 5.010106e-20)
(17.73565 5.418296 -2.801542e-18)
(17.32761 6.021695 5.599599e-18)
(16.86448 6.599612 -5.314765e-18)
(16.36392 7.152198 -5.099425e-18)
(15.82506 7.640645 2.346205e-19)
(15.23199 8.088459 -1.469923e-19)
(14.59891 8.474163 -1.283805e-19)
(13.92489 8.812965 -3.680984e-18)
(13.22304 9.093288 -3.726681e-18)
(12.49508 9.309721 -9.725756e-20)
(11.7473 9.479987 3.081463e-18)
(10.99617 9.591312 0)
(10.23612 9.628659 2.259535e-18)
(9.462406 9.601817 1.884368e-18)
(8.69065 9.522613 1.455088e-18)
(7.936105 9.388603 1.141418e-18)
(7.197556 9.191993 0)
(6.474787 8.931634 0)
(5.768278 8.621279 -2.447834e-23)
(5.09648 8.245715 0)
(4.444431 7.82056 0)
(3.834392 7.344711 1.08238e-18)
(3.264663 6.824841 -2.072452e-20)
(2.737047 6.265556 -1.381457e-20)
(2.254263 5.667487 -3.228643e-20)
(1.823791 5.030985 2.243231e-18)
(1.445385 4.35975 0)
(1.12553 3.663327 0)
(0.8435952 2.957183 1.448577e-18)
(0.6427502 2.221715 7.282426e-19)
(0.4809409 1.477693 7.863441e-19)
(0.3793867 0.7531453 -4.075861e-19)
(0.3589452 0.02724514 0)
(0.4425736 -0.7367407 -3.898319e-22)
(0.5272661 -1.549943 2.408768e-20)
(0.669297 -2.338389 7.23448e-19)
(0.8812647 -3.090705 -1.412521e-18)
(1.150907 -3.812368 -3.976205e-20)
(1.4792 -4.504816 1.210116e-18)
(1.858208 -5.163589 3.556407e-20)
(2.297415 -5.787446 1.900322e-18)
(2.770036 -6.38231 -1.358084e-20)
(3.292176 -6.925307 -1.332669e-18)
(3.865662 -7.42199 3.507634e-20)
(4.464208 -7.882872 0)
(5.095586 -8.286801 2.929759e-19)
(5.773397 -8.635016 0)
(6.46861 -8.943362 0)
(7.175598 -9.189246 -8.337003e-19)
(7.903791 -9.364629 2.34792e-18)
(8.647499 -9.486707 5.387688e-20)
(9.395689 -9.555195 -1.070007e-19)
(10.15391 -9.5608 -2.282751e-18)
(10.91245 -9.515343 -2.588514e-18)
(11.66182 -9.411335 3.104536e-18)
(12.39469 -9.245316 -3.372253e-18)
(13.10865 -9.017514 -7.392193e-20)
(13.80983 -8.731788 0)
(14.48458 -8.404215 -4.420281e-18)
(15.13159 -8.016704 9.332543e-18)
(15.74074 -7.583115 -4.97989e-18)
(16.30893 -7.09904 0)
(16.84008 -6.567658 9.328311e-20)
(17.32272 -6.008426 -5.436436e-18)
(17.74985 -5.403781 -8.693266e-20)
(18.11851 -4.762778 1.412058e-19)
(18.42769 -4.086448 -9.167424e-20)
(18.67269 -3.390699 0)
(18.84955 -2.680402 -3.008046e-18)
(18.95354 -1.952065 1.471656e-18)
(18.97995 -1.22306 7.415292e-19)
(18.92852 -0.4833813 -1.179357e-20)
(18.80246 0.242531 3.692269e-19)
(18.60324 0.9212772 7.023368e-19)
(18.3376 1.518399 0)
(18.11041 1.968032 1.267201e-18)
(18.23771 2.480639 -7.600455e-20)
(18.40469 3.381198 2.491615e-18)
(17.81247 4.23011 0)
(17.40016 4.459796 0)
(14.57706 2.929942 0)
(4.75918 -0.9606475 8.569748e-20)
(2.058159 -0.4277835 8.109451e-18)
(2.132434 1.758187 -9.004534e-18)
(3.313338 3.548997 5.207352e-18)
(4.648525 4.27979 -5.345674e-18)
(5.690634 4.407757 1.754987e-18)
(5.796844 4.306722 0)
(5.061716 4.333037 -7.998199e-19)
(3.949188 4.447363 1.004438e-19)
(2.822107 4.082489 -5.813735e-19)
(2.964805 3.551748 7.179244e-21)
(2.32091 1.263827 -5.708702e-20)
(0.02896429 -3.389642 4.969924e-20)
(-3.413456 -8.859465 0)
(-4.913556 -10.29551 -3.037063e-18)
(-5.177596 -9.867272 1.304483e-19)
(-5.757757 -10.71546 9.163906e-18)
(-5.940556 -11.2286 -5.248729e-18)
(-5.744804 -11.1502 2.980917e-19)
(-5.249931 -10.47398 -4.300131e-18)
(-4.511044 -9.202943 0)
(-3.627284 -7.515046 -2.031411e-18)
(-2.700723 -5.646486 5.119752e-19)
(-1.832218 -3.898962 -9.509669e-21)
(-1.128675 -2.588548 -1.582409e-19)
(-0.7190099 -1.716628 1.337956e-20)
(-0.4954105 -1.197611 -5.976187e-21)
(-0.4019639 -0.7677391 -2.534676e-19)
(-0.350285 -0.4783712 2.181746e-21)
(-0.3457011 -0.4144814 -2.273137e-21)
(-0.4304601 -0.307662 -3.424472e-21)
(-0.491601 0.268985 -1.015533e-19)
(-0.5185014 0.635466 -1.806383e-19)
(-0.7206612 1.162976 1.368827e-19)
(-1.083826 2.019918 -1.394491e-19)
(-1.643758 3.22953 0)
(-2.269039 4.671112 2.852765e-19)
(-2.9861 6.236578 6.752055e-19)
(-3.526341 7.616712 2.05709e-18)
(-4.070056 8.56806 0)
(-4.390011 9.187925 0)
(-4.647726 9.308514 -3.524211e-18)
(-4.690346 9.073976 -1.07579e-19)
(-4.596654 8.502146 -3.246212e-18)
(-4.187488 7.785352 -3.053741e-18)
(-3.843807 8.532651 -2.57641e-18)
(-3.222788 8.27995 2.186235e-18)
(-2.636843 6.021807 -1.770806e-18)
(-1.68293 3.493882 8.610467e-19)
(0.8099978 0.6803745 2.352918e-20)
(2.128295 -1.96202 0)
(4.469266 -4.429872 0)
(6.56362 -5.204496 -3.627845e-19)
(7.668637 -5.492465 0)
(7.901314 -5.9387 -5.288104e-20)
(7.451673 -6.363714 -4.187609e-20)
(7.08195 -5.975531 -3.577802e-18)
(6.773725 -4.180359 -1.679938e-19)
(7.259717 -1.39099 -1.025193e-19)
(11.45823 -0.6629693 -3.107461e-18)
(17.15333 -3.043925 1.502928e-19)
(16.72023 -4.061873 1.572158e-18)
(17.12783 -3.961379 -6.084182e-20)
(17.7519 -3.229038 2.113839e-18)
(17.83898 -2.521344 -6.179053e-20)
(17.99894 -2.107187 4.087644e-18)
(18.25536 -1.706013 3.337527e-20)
(18.51402 -1.176668 -1.05375e-20)
(18.71479 -0.5529371 -5.78267e-19)
(18.84493 0.1265111 -4.651548e-21)
(18.89793 0.8287753 -6.172708e-19)
(18.8785 1.55725 -3.834495e-20)
(18.78691 2.275914 -1.178866e-18)
(18.61869 2.980041 2.399476e-18)
(18.39303 3.703731 -2.363627e-18)
(18.11831 4.378515 4.514055e-18)
(17.7728 5.051593 2.452621e-18)
(17.36642 5.670533 0)
(16.90206 6.267389 0)
(16.4023 6.841581 4.134993e-18)
(15.86437 7.349509 3.932984e-18)
(15.27153 7.815794 0)
(14.64152 8.21327 -1.032122e-19)
(13.96748 8.566818 3.338103e-18)
(13.26273 8.867115 2.969446e-18)
(12.53609 9.095258 2.607025e-18)
(11.79483 9.270696 -6.929112e-20)
(11.04587 9.394552 -1.983913e-18)
(10.28303 9.448374 5.064477e-20)
(9.514373 9.427308 -5.114597e-20)
(8.751492 9.351488 -1.227904e-18)
(7.999968 9.22701 8.869693e-19)
(7.257383 9.046204 0)
(6.543008 8.790199 0)
(5.839133 8.490334 2.6039e-20)
(5.176494 8.120992 -8.903017e-21)
(4.529034 7.704922 -8.502856e-21)
(3.934789 7.233636 -8.348402e-19)
(3.373276 6.721014 -2.212554e-18)
(2.838311 6.17834 1.277211e-18)
(2.357937 5.591859 -1.563186e-18)
(1.932214 4.965531 -8.778143e-19)
(1.563387 4.302611 -3.015228e-20)
(1.252308 3.611199 0)
(0.9639691 2.918805 -1.130685e-18)
(0.776141 2.190249 -3.808007e-20)
(0.6092165 1.446739 -6.538881e-19)
(0.5050072 0.7241908 3.492681e-19)
(0.4885918 -0.007451808 7.310148e-24)
(0.5880614 -0.7507667 -3.474016e-19)
(0.6630658 -1.554806 2.978266e-20)
(0.8003726 -2.327399 -6.302331e-19)
(1.003702 -3.058847 1.157164e-18)
(1.266957 -3.764318 -1.116642e-18)
(1.591131 -4.445534 2.630081e-21)
(1.96605 -5.094246 9.223293e-19)
(2.40998 -5.707522 -1.512741e-18)
(2.873869 -6.297601 1.304947e-18)
(3.385366 -6.835739 9.975779e-19)
(3.959837 -7.324149 8.1569e-21)
(4.565963 -7.77266 8.566607e-21)
(5.189629 -8.169259 -2.282815e-19)
(5.850708 -8.518111 -1.526915e-20)
(6.545617 -8.817532 1.514394e-20)
(7.251593 -9.052635 5.965153e-19)
(7.971926 -9.221349 -1.880132e-18)
(8.707963 -9.339245 1.223207e-18)
(9.461248 -9.389804 -5.448e-20)
(10.21702 -9.385148 -1.832387e-18)
(10.968 -9.335544 4.257404e-18)
(11.71746 -9.21798 7.900048e-20)
(12.44695 -9.041693 2.615525e-18)
(13.16039 -8.798278 -3.057676e-18)
(13.8627 -8.496122 9.49177e-20)
(14.53526 -8.156212 -3.488744e-18)
(15.18192 -7.750294 -3.580226e-18)
(15.78895 -7.301866 1.239281e-19)
(16.35704 -6.795777 -4.140153e-18)
(16.88761 -6.243749 4.29211e-18)
(17.3688 -5.665626 0)
(17.79321 -5.042802 0)
(18.15621 -4.382376 2.357703e-18)
(18.45977 -3.691686 2.365425e-18)
(18.70285 -2.992142 0)
(18.87802 -2.281037 1.288083e-18)
(18.98188 -1.558033 1.186523e-18)
(19.00825 -0.8424366 -6.210743e-19)
(18.95454 -0.1316244 1.451804e-19)
(18.82668 0.5491605 2.979772e-19)
(18.62464 1.167936 -5.789714e-19)
(18.36011 1.694275 0)