/*--------------------------------*- C++ -*----------------------------------*\
| =========                 |                                                 |
| \\      /  F ield         | OpenFOAM: The Open Source CFD Toolbox           |
|  \\    /   O peration     | Version:  2406                                  |
|   \\  /    A nd           | Website:  www.openfoam.com                      |
|    \\/     M anipulation  |                                                 |
\*---------------------------------------------------------------------------*/
FoamFile
{
    version     2.0;
    format      ascii;
    arch        "LSB;label=32;scalar=64";
    class       volScalarField;
    location    "0.56";
    object      p;
}
// * * * * * * * * * * * * * * * * * * * * * * * * * * * * * * * * * * * * * //

dimensions      [0 2 -2 0 0 0 0];

internalField   nonuniform List<scalar> 
4529
(
-2.580453e-06
-2.463999e-06
-1.264625e-06
-5.985009e-06
-2.725722e-06
-8.644565e-06
-1.590902e-06
-3.679343e-06
-2.779255e-06
-1.394832e-06
1.400031e-06
-1.515348e-06
-3.603771e-07
-1.239075e-06
-1.007866e-06
-3.056376e-07
-3.091976e-06
-1.322618e-06
2.245684e-07
-2.581797e-06
-2.666902e-07
-1.039684e-06
-9.173856e-07
-1.8112e-06
-1.987445e-07
-2.360598e-06
-5.308408e-06
-3.927357e-06
-4.351715e-06
-5.069749e-06
-6.111944e-07
-1.167185e-06
-7.487727e-07
-3.720016e-07
2.146925e-07
-2.06345e-06
-1.729638e-06
-2.591809e-06
-5.389432e-06
-1.469079e-06
-7.211297e-07
-6.772119e-07
-1.606777e-06
-3.771531e-07
-5.924677e-08
-5.245163e-07
-1.19721e-06
-2.061377e-06
2.362082e-07
-2.508466e-06
-6.786065e-06
-1.647774e-06
-8.04248e-06
-6.848329e-07
-3.805463e-06
-3.19472e-06
-2.502713e-06
2.386115e-06
-7.520958e-06
-8.853966e-06
-3.955492e-06
-3.185004e-07
-9.074447e-07
-8.988358e-06
-1.737938e-06
-7.514256e-09
-2.393289e-06
-1.006581e-06
-1.621507e-06
1.702251e-06
-1.844846e-06
-2.20103e-06
-4.195177e-06
-6.377304e-07
-9.725729e-06
-6.346995e-06
-1.236091e-06
9.241562e-07
-8.303378e-06
-2.512784e-06
-4.089565e-06
-1.786274e-06
4.016834e-07
-2.220637e-06
-2.202314e-06
-6.710531e-07
-1.126848e-07
1.079535e-07
-3.312363e-07
-3.162002e-06
-8.616537e-06
-7.501891e-07
2.684803e-07
-1.442806e-06
-9.814724e-07
-1.670192e-06
-6.355501e-06
-4.770619e-06
-6.86379e-06
-3.485332e-06
-1.140801e-06
-5.812386e-06
-2.221647e-06
-4.484152e-06
-1.242e-06
-2.318399e-07
-7.796225e-06
-9.887315e-08
7.963434e-07
-1.23612e-06
-1.694945e-07
-1.17664e-06
-5.259644e-06
-4.999793e-06
-4.300963e-06
-9.08379e-07
-1.971982e-06
-3.588348e-06
-1.582546e-06
-7.318108e-07
-3.649158e-06
-2.129368e-06
-1.741237e-06
-2.300254e-06
-9.288397e-07
-2.86786e-06
-3.615939e-06
-5.184934e-08
-5.769622e-07
-5.274414e-06
-1.778432e-06
-4.563665e-06
-9.726777e-06
-1.029936e-06
-1.237102e-06
1.521394e-07
2.622439e-07
-4.231679e-07
-1.969327e-06
-2.73022e-06
-3.975674e-06
-3.075701e-06
-1.232292e-06
-3.930806e-06
-5.750251e-06
-3.371331e-06
-1.27444e-06
-3.642772e-06
-3.235585e-06
-1.826025e-06
-1.934882e-06
-4.495081e-06
-4.230191e-06
-8.104007e-07
-5.27837e-06
-7.563256e-07
-6.31423e-07
-3.749321e-06
-1.469701e-06
-1.192303e-06
3.219043e-08
-5.217848e-07
-6.359281e-06
-5.041179e-06
-2.086243e-07
-1.709085e-07
-3.681485e-07
-2.778632e-06
-4.716447e-06
-2.354913e-06
-7.303065e-06
-1.646357e-06
-1.007173e-05
-1.005043e-07
-1.228301e-06
-3.635834e-06
-2.686642e-06
-9.39728e-06
-1.011205e-05
-1.679648e-07
2.329674e-08
-3.061568e-06
-1.763378e-06
-1.961893e-06
1.246043e-06
-1.073255e-05
-2.791375e-06
-8.714704e-07
-5.654491e-06
-1.077672e-06
-2.407235e-06
-8.092302e-06
8.844579e-07
-4.848268e-06
-1.753182e-06
-2.322957e-07
1.203958e-07
-5.421837e-06
1.027655e-06
-2.220954e-07
-1.393466e-06
6.057355e-07
-1.59161e-06
-8.024494e-06
-8.872551e-07
-2.117256e-06
-6.575073e-06
-2.511362e-06
-3.191143e-06
-8.926673e-06
-4.131582e-07
-3.192328e-06
-1.522309e-06
-5.458217e-06
-2.696114e-06
-3.123593e-06
-2.143299e-06
-1.180375e-06
-2.281246e-06
4.95717e-06
-3.146925e-06
-3.963448e-07
-2.773003e-06
-8.110497e-07
-1.756445e-06
4.060832e-07
-7.837549e-07
-2.752963e-06
-7.554913e-06
-9.39963e-07
-6.010649e-06
-8.404078e-06
-1.269841e-05
-9.03008e-07
-3.14069e-06
-3.722869e-06
-3.076401e-06
-5.312955e-06
-5.716066e-08
-1.57953e-06
-2.81999e-06
-1.572695e-07
-5.564556e-07
-6.58069e-06
1.279587e-06
-3.725509e-06
-8.725192e-06
-1.030855e-06
-1.99585e-06
-5.097236e-08
-6.638252e-06
6.837704e-07
-3.231319e-06
2.741105e-06
-9.167751e-07
-1.976305e-06
-4.60237e-06
-7.293466e-06
-5.606077e-06
-1.125567e-06
8.581655e-07
-7.024399e-07
-1.033586e-06
-1.560561e-06
-1.360207e-06
-6.086405e-06
-1.629126e-06
-5.798018e-06
-3.152514e-06
-5.360539e-07
-2.417262e-06
-5.341282e-07
-1.910108e-06
-5.560213e-06
-7.471374e-06
-3.785996e-07
-4.665939e-07
-2.256447e-07
-6.03641e-06
-1.292577e-05
-1.549626e-06
-1.560962e-06
-1.911807e-07
-4.063959e-06
-5.508259e-08
-1.46537e-06
-2.552875e-06
-4.454273e-07
-3.091263e-06
-1.341881e-06
-5.663955e-06
-1.202584e-06
-1.267151e-06
-1.513919e-06
-2.437523e-06
-1.286722e-06
-1.049154e-06
-3.437648e-06
-1.285658e-06
-2.319461e-06
-1.044091e-06
-1.606642e-06
-2.995433e-06
2.319837e-06
-2.383379e-06
-3.427866e-06
-5.479948e-06
-9.223121e-07
-3.650872e-06
-1.439237e-06
-1.056613e-06
-2.284272e-06
2.329143e-07
-1.54776e-06
-4.04881e-06
-2.269367e-06
-1.599462e-06
-1.196439e-06
-8.431683e-06
5.44009e-07
-1.49442e-06
7.554239e-07
-2.255201e-06
-3.959558e-06
-1.816481e-06
-3.384858e-06
-4.544082e-06
-4.742243e-07
-8.319134e-07
-5.822771e-07
-2.107858e-07
-6.708062e-07
-4.640248e-07
-5.138325e-07
-8.332411e-07
-4.962479e-06
-4.194016e-06
-3.262041e-06
-3.727791e-07
-8.292559e-07
-8.937011e-07
-4.774847e-06
1.212781e-06
-5.332384e-06
-5.715019e-06
2.128293e-07
-1.783503e-06
-6.930321e-06
-5.037279e-06
-1.408554e-06
-1.349556e-06
1.550123e-06
-1.438513e-06
-1.510259e-06
-8.171082e-07
-3.433082e-06
-4.810057e-06
2.979501e-06
-1.788554e-06
-7.678153e-07
-6.102644e-07
-1.867144e-06
-2.680403e-06
-8.575061e-07
-4.973834e-07
-6.772583e-07
-7.036348e-07
-2.879411e-06
-1.66437e-06
-3.622638e-06
-4.006359e-07
-9.178166e-07
-2.596245e-06
4.565254e-07
-1.802815e-06
-2.655755e-07
6.435953e-07
-7.200491e-06
-9.89459e-06
-2.555508e-06
-1.055544e-06
-4.389466e-07
3.555667e-07
-3.405118e-07
-1.891544e-06
-3.256446e-07
-5.746492e-06
1.149449e-06
-2.899846e-06
-1.312551e-07
-7.311449e-06
-1.466858e-07
2.823227e-06
-2.329265e-06
-2.607982e-06
-2.353895e-06
-2.612219e-06
-3.74292e-06
-3.376744e-06
-3.416637e-06
-1.74402e-06
5.527287e-07
-6.805426e-06
-6.346489e-06
-6.623143e-06
-1.277626e-06
-6.686497e-06
-1.536741e-07
1.683214e-08
-1.725837e-06
-2.804424e-06
-1.154376e-06
-5.166817e-06
-2.148621e-06
-5.909424e-07
-1.25953e-06
-7.279035e-07
-2.939121e-06
-6.438133e-07
2.512095e-07
-7.57453e-06
-3.26174e-06
-7.407231e-06
-4.200434e-06
-1.011824e-05
-8.17179e-06
-6.564993e-06
-3.426002e-06
-3.056815e-06
-2.348066e-06
-5.626376e-07
-1.166027e-06
-9.862653e-06
-7.933715e-06
5.43821e-07
-1.207714e-06
3.931012e-07
-4.047037e-08
-2.552417e-06
-1.831245e-07
-3.076488e-06
-6.766954e-07
-6.880469e-06
-1.52845e-06
-1.464525e-06
-1.513014e-06
-1.49907e-08
-1.538763e-06
-1.333227e-06
-2.452917e-06
-3.881109e-06
-2.732957e-06
-2.437627e-06
-1.596271e-06
-1.429235e-06
-6.194677e-06
-9.778605e-07
-5.536796e-06
-1.737739e-06
-1.103718e-06
-6.237683e-07
-2.360243e-06
-1.305674e-06
8.642987e-07
-5.613044e-06
-3.724302e-06
-6.929593e-07
-6.060371e-07
-6.482399e-07
-4.262641e-07
-5.063434e-07
7.313258e-07
-2.249696e-06
-1.482897e-06
-4.492829e-06
-1.545606e-07
-4.757117e-06
-1.291238e-06
-1.480942e-07
-1.002771e-06
-1.553999e-07
-2.712337e-06
-3.562544e-06
-5.004872e-07
-2.21688e-06
-8.565699e-08
-2.871696e-06
7.562646e-09
-1.980124e-06
-4.595044e-06
-1.274023e-05
-2.173742e-06
-2.146525e-06
-3.758244e-07
-1.277733e-06
-2.818997e-06
-2.625571e-06
-3.414795e-06
-1.611848e-06
-4.819724e-06
-2.577617e-06
-6.633027e-07
-3.319776e-06
-5.27119e-06
-1.875333e-06
-7.801242e-07
-4.004471e-07
-3.895398e-07
-3.413952e-07
-5.953623e-07
-3.922571e-07
-7.878816e-07
-3.544511e-06
7.807027e-07
-9.305609e-07
-4.432114e-06
-1.258004e-06
-2.695348e-06
-5.347848e-07
-1.565179e-06
-1.172049e-06
-3.571811e-07
-2.456763e-06
-9.304508e-07
-1.154891e-06
-1.666301e-08
-1.019066e-06
-2.227799e-06
4.911716e-08
-6.840187e-08
-1.622802e-06
-9.410348e-07
-8.293585e-07
-9.769832e-07
-4.148769e-07
-4.687699e-06
-7.361519e-08
8.723393e-08
-1.486098e-07
1.139768e-06
-1.127529e-05
-6.294108e-07
1.096777e-06
-7.217879e-07
-3.788215e-06
-3.013876e-07
-1.521492e-06
-3.153701e-06
-1.336937e-06
1.149412e-06
-2.50193e-06
-1.691822e-06
-1.986353e-06
-2.293695e-06
-1.469864e-06
-2.48381e-06
-5.488817e-06
-5.270869e-06
7.01234e-07
-3.996263e-06
-4.44259e-07
-1.143845e-06
-4.086312e-06
-7.509162e-06
-4.078253e-06
-4.292662e-07
-1.145245e-06
-4.890558e-06
-3.761092e-06
-6.956666e-06
-1.510211e-06
6.41894e-07
-1.842592e-07
-4.08852e-06
-2.092556e-06
-2.491334e-06
-2.252208e-06
-4.396827e-06
-4.282946e-07
-8.011442e-08
-2.722967e-06
-4.526997e-06
-2.99243e-06
-1.292578e-06
-1.334684e-06
-3.426772e-06
-1.594564e-06
-4.282979e-06
-1.487082e-06
-1.281539e-06
-1.273645e-07
-3.967497e-06
-1.85791e-06
3.298778e-06
-3.919048e-06
-1.009627e-06
-2.364837e-06
-2.165844e-06
5.865822e-09
5.562982e-07
-2.098102e-07
-1.597243e-06
-4.583652e-07
-1.242094e-06
-9.535398e-07
-4.335058e-07
-2.594567e-07
-1.709078e-06
-5.096833e-07
-2.487142e-06
-6.779567e-06
-1.914553e-06
-2.329682e-06
-1.102663e-06
-1.887005e-06
2.325266e-06
3.075692e-07
-1.80448e-07
-6.2285e-06
-1.199672e-06
-9.871272e-07
-4.329462e-06
-4.552208e-06
-1.075826e-06
-4.985907e-06
-4.33538e-07
-4.199594e-08
-1.402096e-06
-4.450155e-06
-1.097757e-06
-4.21395e-06
-6.932117e-06
-7.02926e-06
-1.005324e-06
-6.34855e-07
-3.674954e-08
6.227787e-07
-1.060757e-06
-2.087495e-06
-1.599073e-06
-9.386713e-07
-6.074036e-08
4.105282e-07
2.540051e-06
-3.177466e-06
-2.79592e-07
-2.882937e-06
-4.072877e-06
-6.092136e-07
-2.119933e-06
7.601002e-09
-4.666682e-06
-4.626578e-06
-6.943009e-06
-1.345197e-06
-2.277403e-06
-4.133199e-07
-5.938421e-06
-8.800986e-07
-9.974084e-06
-1.702571e-06
-2.408009e-06
-5.574316e-06
-1.19955e-06
-5.174153e-06
-3.336793e-06
-2.612587e-06
-1.502e-06
-1.021469e-05
-1.600642e-06
-1.947248e-06
3.05809e-07
-1.531789e-06
-1.922171e-07
-4.23415e-06
-1.115294e-06
-1.12082e-06
2.169629e-07
-3.242583e-06
-1.595036e-06
-1.219439e-06
-1.378293e-06
-1.574427e-06
-1.486602e-06
1.086408e-07
-8.251648e-07
7.365241e-07
-2.526766e-06
-1.472569e-06
-7.166311e-06
-3.04943e-06
-2.740079e-06
-3.87186e-06
-4.039419e-06
-6.309129e-07
-1.113699e-06
-9.155863e-07
-4.802748e-06
-5.963869e-06
-6.009481e-07
-7.361579e-07
-5.916785e-07
-1.01119e-05
-1.006864e-06
-2.996707e-07
1.353152e-06
-2.614909e-06
-1.77184e-06
-1.55977e-06
-8.102417e-06
-7.253148e-06
-2.454046e-06
-7.410124e-06
-1.070621e-06
-1.891999e-06
-5.928802e-06
-1.220333e-06
-1.873491e-06
-2.833401e-06
-1.752015e-06
-5.985638e-06
-1.319023e-06
-2.83771e-06
-1.567213e-06
-7.011057e-07
-4.240683e-06
6.687406e-07
-5.970836e-08
2.239018e-06
-1.818059e-06
-1.731763e-06
-3.250709e-06
-1.981728e-06
-1.504303e-06
-3.2922e-06
-2.893789e-06
-1.608939e-06
-6.307515e-06
-2.835387e-06
-7.251945e-06
-4.516214e-07
-6.411782e-06
-6.672302e-06
-8.66834e-06
-6.060478e-06
-2.121487e-06
-1.122828e-06
-1.529225e-06
-1.392026e-06
-9.549691e-06
-1.364174e-06
-2.190206e-06
-7.063015e-06
-2.602178e-06
-5.848124e-06
-2.681334e-06
-8.73335e-07
-1.110122e-05
-8.61868e-06
-9.628992e-06
-5.603677e-06
-4.346194e-06
-5.825752e-07
-7.906629e-06
-1.474406e-06
-5.576501e-06
-7.253971e-06
-1.836901e-06
-5.165037e-06
-5.49953e-06
-3.879157e-06
-6.226986e-06
-7.872379e-06
-3.294017e-06
-2.075327e-06
-1.075171e-06
-4.793336e-07
-3.642518e-07
-3.82322e-06
-4.629659e-06
-1.042584e-05
-2.854073e-06
-7.249164e-07
-1.561986e-06
-7.335018e-07
-1.203762e-06
-6.792269e-06
-3.50088e-06
-1.466671e-06
-1.441992e-06
-2.853165e-06
-1.617382e-06
-4.861264e-06
-7.885938e-09
-1.696385e-06
-6.017535e-07
-1.345584e-06
-7.93116e-06
-2.280169e-06
-2.38907e-06
-8.082477e-08
-1.275621e-06
-5.918204e-06
-1.049427e-05
-3.337313e-06
-2.179004e-06
-1.272642e-06
-1.843964e-06
-1.462639e-06
-7.977407e-08
-7.111061e-07
-1.073275e-06
-4.553061e-07
-1.177235e-06
-1.313659e-06
-2.312491e-06
-1.481324e-06
-1.59335e-06
-3.914616e-06
-5.42244e-07
-7.777913e-07
-5.934232e-06
-1.225538e-05
-8.582494e-08
4.864598e-07
-2.285151e-06
-1.230942e-06
-1.042722e-06
-7.826245e-07
-3.461521e-06
-3.54816e-07
-1.106502e-06
-3.294482e-06
-3.343855e-06
-2.04276e-06
4.016874e-08
2.864382e-07
-3.594986e-06
-4.221761e-07
-3.907317e-06
-2.466715e-06
-4.753861e-06
-2.764696e-06
-6.45608e-06
-3.717057e-06
-7.850206e-06
-7.68748e-06
-3.923952e-06
-5.242934e-06
-1.824029e-06
-5.167512e-08
3.573666e-07
-1.336647e-06
-1.748725e-06
-1.734744e-06
-2.786636e-06
-1.178808e-06
-1.333674e-06
-1.314154e-06
-1.474708e-06
-4.457025e-06
-2.909195e-06
-3.945844e-07
-1.707828e-06
-1.074041e-06
-1.567969e-06
-8.02068e-06
-5.538547e-06
-5.003314e-06
-6.872933e-06
-6.228719e-06
-3.894312e-06
-2.856998e-06
-8.595516e-06
-3.281547e-06
-6.92266e-06
6.415084e-07
-7.365036e-06
-9.548614e-07
-2.573742e-06
-5.845452e-07
-5.864962e-06
-9.284779e-07
-3.938369e-06
-6.056062e-06
-9.218902e-06
-3.605843e-06
-2.801081e-06
-2.04854e-06
-1.059244e-06
-1.425392e-06
-4.578587e-07
-4.056037e-06
-4.185097e-06
-2.378196e-06
-7.44665e-06
-8.205826e-06
-7.252847e-06
-6.093538e-06
-9.471877e-06
-6.712611e-07
-1.325261e-06
-2.527877e-07
-2.049844e-07
-2.315512e-06
-1.985914e-06
-2.874517e-06
-2.302009e-06
-5.670539e-06
-4.548605e-06
-4.180309e-06
-5.885432e-06
-5.198425e-06
-3.138289e-06
-4.003073e-06
-5.991321e-06
-4.379945e-06
-6.068041e-08
-1.54947e-07
-5.367411e-06
-7.396387e-06
-9.401833e-06
-7.262507e-06
-2.274226e-06
-2.412469e-06
-9.172062e-06
-9.859571e-06
-1.017647e-05
-2.205433e-06
-3.852995e-07
-5.3075e-06
-5.749833e-06
-1.057133e-06
-1.426168e-06
-1.106225e-06
-4.134999e-06
-7.539012e-06
-5.223263e-06
-5.414706e-06
-5.037634e-06
-5.417526e-06
-6.732535e-06
-5.965175e-06
-2.869431e-07
-6.029174e-06
-6.651361e-06
7.215246e-07
-4.629743e-06
-3.546839e-06
-3.701368e-06
-6.334277e-06
-3.113599e-06
-1.488775e-06
-5.825736e-06
-8.897576e-06
-8.630716e-07
-4.100859e-07
-8.498891e-06
9.056109e-07
-5.585808e-06
-1.250413e-06
-2.526985e-06
-5.121631e-06
-1.926536e-06
-4.037401e-07
-3.646584e-07
-6.062257e-06
-3.05017e-06
-4.971625e-06
-7.097854e-06
-3.869197e-06
-4.23363e-06
-4.471203e-06
-5.720654e-06
-1.733423e-06
-2.45453e-06
-2.815462e-06
-1.899396e-06
-4.276755e-06
-1.035996e-05
-9.010059e-06
-3.538099e-06
-1.119658e-06
-8.747239e-06
4.574183e-07
-7.615965e-06
-2.421052e-06
1.31902e-06
-3.654222e-07
-3.739702e-06
-9.094845e-06
-7.243459e-07
-5.29867e-07
-1.126078e-06
-6.530165e-06
-1.079109e-05
-1.364498e-06
-1.834489e-06
2.164503e-06
-2.536539e-06
-2.245952e-06
1.150614e-06
-1.705917e-06
2.66663e-07
-5.486552e-06
-2.24438e-06
-4.644028e-06
-8.707647e-07
-1.160523e-06
-4.514093e-06
-1.083604e-05
-7.069695e-07
-8.383783e-06
-5.696811e-06
-5.483971e-06
-3.220625e-06
-8.613684e-07
-6.07492e-06
-1.728279e-06
-2.242894e-06
-2.100757e-06
-2.143119e-06
9.218657e-07
-1.045822e-05
-1.034427e-05
-8.282549e-06
-1.201785e-05
-1.04968e-05
-1.051994e-05
-1.280271e-05
-4.242307e-06
-7.911259e-06
-8.115729e-08
-6.411789e-08
-8.866963e-08
-7.997542e-08
-4.063117e-06
-2.726115e-06
-6.121752e-06
-1.462595e-06
-1.134327e-06
-1.275346e-06
-2.143809e-06
-1.378826e-06
-6.703028e-07
-5.647362e-07
-6.579669e-07
-4.47687e-07
-6.141916e-07
-5.952258e-07
-5.310248e-06
-2.54095e-06
-1.294838e-06
-8.377764e-07
1.356786e-06
-1.004514e-06
-2.660884e-07
-2.158151e-06
-6.45795e-06
-2.077776e-06
-7.418451e-06
-9.301301e-06
-6.537525e-06
-2.887363e-06
-2.002117e-06
-5.627623e-06
-3.551222e-06
-7.424313e-06
-3.389939e-06
-7.97814e-07
9.842041e-07
-2.918865e-06
-4.576934e-06
-7.741413e-07
-8.858242e-07
1.636945e-07
-2.161087e-06
-8.288547e-07
-9.29566e-07
-1.15166e-06
-5.02817e-07
-3.86994e-07
-7.740597e-07
-1.114148e-07
-1.710889e-06
-7.101702e-08
-6.329822e-07
-6.994932e-07
-1.190985e-07
-1.996938e-07
-1.431895e-07
-3.145988e-06
-2.006258e-06
-2.746714e-06
-7.33274e-06
-9.585937e-06
-6.60396e-06
-1.181486e-06
-9.835234e-06
-6.508528e-06
-8.513616e-06
-1.116954e-06
-1.335185e-06
-5.126471e-06
5.517868e-07
-4.048291e-07
-2.07035e-06
-1.542508e-06
-1.545173e-06
-2.562495e-06
-1.816474e-06
-2.630829e-06
-1.642281e-07
-3.651877e-06
5.436113e-07
-7.793027e-07
-7.573637e-07
-1.384146e-06
-1.374755e-06
-1.647032e-06
-7.136575e-06
-2.272182e-06
-2.917219e-06
-3.946075e-06
-4.547099e-06
-5.017308e-06
-5.967294e-06
-9.581111e-06
-9.585066e-06
-9.39039e-07
-9.634622e-06
-2.438602e-07
2.081116e-08
-1.383603e-07
-3.274666e-07
-2.204021e-07
1.823772e-07
-6.839357e-06
-6.608644e-06
-1.960828e-06
-3.655196e-06
-3.229134e-06
-5.558152e-06
-1.939525e-06
-2.050306e-06
-2.059594e-06
-6.39674e-06
-6.861702e-07
-9.967009e-06
-3.374886e-06
-1.661941e-06
-4.50837e-07
-1.85157e-06
-2.810375e-06
-5.981424e-07
-6.281574e-07
-3.67142e-06
-1.423542e-06
-1.949421e-06
-2.556851e-06
-2.277057e-06
-1.732735e-06
-4.577443e-08
-2.939328e-06
-2.963186e-06
-2.380205e-06
-1.454667e-06
-2.729071e-06
-2.826205e-06
-1.478101e-06
-5.810262e-07
-5.513455e-06
-8.190777e-07
-5.92493e-06
-2.763588e-06
-3.941025e-06
-3.807707e-06
-1.048627e-06
-2.097274e-06
-2.165832e-06
-7.094927e-06
-1.442862e-06
-6.437963e-07
-1.201861e-06
-6.082583e-06
-1.357246e-06
-1.570128e-06
-4.144462e-07
-9.313864e-07
-1.761029e-06
-1.661819e-06
4.347982e-07
-6.528101e-06
-9.123854e-06
-6.996835e-06
-1.552046e-06
5.470917e-07
5.035479e-07
-1.100616e-06
-7.886945e-07
-1.287424e-06
-8.86628e-07
-2.288042e-06
-1.779255e-06
-2.258009e-06
-4.567815e-06
-4.8653e-06
-2.682213e-06
-2.523888e-06
-3.228038e-06
-1.185229e-06
-1.903922e-06
-2.341352e-06
-7.068403e-06
-4.722329e-06
-4.313445e-06
1.798004e-07
9.084522e-07
-6.949607e-07
-4.515658e-06
-6.226164e-06
-1.301979e-06
-8.540256e-07
-1.964347e-06
-1.480007e-06
-5.836615e-07
-1.129047e-06
-9.476898e-07
-3.442434e-07
-1.276789e-06
-6.992093e-07
-9.086723e-07
-2.116016e-06
-1.150578e-06
-5.453449e-06
-2.562392e-06
-1.664488e-06
-2.751417e-06
4.293321e-08
-8.591917e-07
-6.342127e-07
-1.02503e-06
-5.590428e-06
-6.542308e-06
-1.26833e-06
-7.969975e-07
-1.302956e-06
-1.256976e-07
-1.885493e-06
-1.966235e-07
-3.79733e-06
-3.015165e-06
-3.539563e-06
-1.066145e-05
-6.896254e-06
-1.230973e-06
-4.895147e-06
-7.560594e-06
-7.537739e-06
-8.952791e-07
-5.485237e-07
-1.209184e-06
-3.673832e-07
-2.84295e-06
-5.338637e-07
-3.138068e-09
-1.836871e-06
-1.049422e-05
-7.127761e-07
-4.464129e-07
-1.504261e-06
-1.163677e-06
-2.240122e-06
-9.441006e-07
-4.376767e-06
-6.454825e-06
-1.541758e-06
-4.883142e-06
-6.490042e-07
-4.50344e-07
-9.603937e-07
-8.935613e-06
-1.629879e-06
-2.335822e-06
-1.019175e-06
-2.31462e-06
1.861662e-06
-2.339133e-06
-4.979001e-06
-5.408912e-07
-2.472335e-06
-1.939616e-06
-7.974707e-08
-4.777534e-07
-2.927091e-07
-1.124889e-06
-6.445876e-07
-3.626067e-07
-5.653359e-07
-8.56634e-06
-7.687961e-07
-4.833705e-07
-1.47257e-07
-7.4406e-07
-1.365648e-06
-6.215113e-07
-6.065523e-07
-3.90147e-07
-1.021199e-06
-7.247015e-07
-1.066154e-07
-8.850767e-07
-2.301483e-06
-5.943681e-07
-9.837475e-07
-5.02065e-07
-1.289577e-06
-1.050587e-06
-1.09451e-06
-1.18618e-06
8.810178e-08
-1.159984e-06
-4.654241e-06
9.071894e-07
7.075303e-07
-2.202741e-06
-4.439418e-06
-3.168637e-06
-4.549209e-06
-1.518907e-06
-7.387585e-06
-2.442635e-06
-6.768801e-07
5.514271e-07
-1.996481e-07
-6.522678e-07
-1.728376e-07
-1.703451e-06
-8.017543e-07
-4.07851e-06
-3.560523e-06
-9.356535e-06
-3.846307e-06
-3.224194e-06
-3.407769e-06
-2.238772e-06
-3.729556e-06
-3.354108e-06
-4.450817e-06
-3.483542e-06
-2.826839e-06
1.135715e-10
-6.888246e-06
-5.555484e-06
-3.107596e-06
1.929148e-07
-6.401919e-06
7.885127e-08
-1.589698e-06
1.06488e-07
-6.341467e-06
-5.270061e-06
-6.392336e-06
-9.451182e-06
-9.29302e-06
-3.327918e-06
-1.270134e-06
-1.438876e-06
-1.470902e-06
-1.292831e-06
-2.943126e-06
-4.856393e-07
-7.868657e-06
-1.990175e-06
-9.970219e-07
-2.562248e-07
6.313256e-07
-5.821116e-06
-7.724465e-06
-5.247286e-06
-5.352972e-06
-4.999551e-06
-5.370942e-06
-3.023374e-06
-1.912089e-06
-4.16929e-06
-4.094926e-08
-5.162371e-07
-1.311215e-06
-5.999355e-06
-5.335271e-06
-6.077228e-06
-5.593787e-06
-3.333516e-06
-5.640477e-06
-7.464822e-06
-7.560813e-06
-6.387539e-06
-4.639649e-06
-1.857346e-06
-5.10764e-06
-8.598188e-07
-9.233528e-06
-2.143474e-07
-4.594624e-07
-5.448867e-06
-7.958199e-07
-7.812744e-08
7.817613e-07
-2.131033e-06
2.016286e-06
1.495094e-06
-2.466884e-06
-5.547345e-06
-9.104908e-06
1.644937e-07
-2.773647e-07
-4.0846e-07
-5.055508e-07
-6.42263e-06
-5.956782e-06
-6.267523e-06
-6.154047e-07
-2.804917e-07
-6.36926e-06
-9.338564e-06
-9.475905e-06
-4.281194e-06
-3.51178e-06
-6.828104e-06
-8.248423e-06
-2.062817e-06
-3.205054e-06
-4.47634e-06
-3.02534e-06
-2.653356e-06
-8.95368e-07
-1.030117e-05
-6.086226e-08
-1.337932e-06
8.133504e-07
-3.030609e-07
-2.331525e-06
-6.512824e-08
-4.053249e-06
-2.727716e-07
-7.220516e-06
-1.38122e-06
-2.914966e-06
1.880786e-07
-2.283986e-06
-1.522045e-07
-7.59329e-07
-1.885552e-06
-2.577359e-06
-1.534342e-06
-1.507473e-06
-1.978265e-06
-1.169457e-06
-1.25396e-06
-2.175886e-06
-7.536167e-06
-3.098408e-06
-2.095991e-06
-4.148689e-06
5.859633e-07
6.530403e-07
-5.958904e-06
-2.34504e-07
-4.334022e-06
-2.338398e-06
-1.827021e-06
-8.319179e-07
-1.409987e-06
1.606013e-06
-4.39065e-07
-2.749535e-07
-5.794895e-06
3.353718e-06
-1.075457e-06
-4.029578e-06
-1.338506e-06
-1.388197e-06
-9.275843e-07
-1.022348e-06
-1.864901e-06
-1.244503e-06
-1.081697e-06
2.748429e-06
-1.802947e-07
-1.725664e-07
-1.68878e-06
-2.30266e-06
-3.194254e-06
-1.1474e-06
-1.853514e-06
-6.166272e-07
-1.657372e-07
1.411089e-07
-6.054725e-07
-1.204292e-06
1.383292e-06
8.417773e-07
-1.192242e-06
1.328876e-07
-1.326499e-07
-1.151329e-06
-1.341559e-06
-2.407364e-06
-1.200949e-06
-1.314925e-06
-1.314897e-06
-5.706952e-06
-7.365323e-07
-9.837426e-07
5.658257e-07
7.489207e-07
-6.347623e-06
-1.604962e-06
-2.112792e-06
8.010038e-08
-2.046881e-07
-9.442591e-06
-3.466095e-06
-4.705684e-06
-5.492128e-06
-1.037315e-06
-1.472401e-06
-2.262666e-07
-1.563718e-06
-1.075402e-05
5.074315e-07
-5.37991e-06
8.824153e-07
-5.321276e-07
-1.718154e-06
-1.628986e-06
-4.643745e-07
-5.088146e-07
-3.248063e-06
-8.278711e-07
-9.599056e-09
-6.130774e-08
-6.639293e-06
-8.619422e-06
-3.655347e-07
-5.536517e-08
-2.754493e-06
-8.125824e-07
-3.553454e-07
-4.2084e-06
-1.101172e-05
-6.780366e-07
-3.91663e-07
-2.631398e-06
-5.729868e-06
-6.379278e-06
-4.763272e-06
-7.199136e-07
-8.243166e-07
-3.027303e-06
-2.037278e-06
-6.462392e-07
-7.147795e-07
-3.866887e-07
-7.6851e-07
1.276223e-07
8.945379e-07
8.227469e-07
-2.048363e-07
-3.084685e-06
-4.988403e-06
-4.040336e-06
-3.650552e-06
9.379909e-07
-7.725322e-06
-2.048025e-06
-2.112392e-06
-2.406542e-06
-1.76626e-06
-1.996592e-06
-1.711784e-06
-5.684273e-06
-6.810784e-06
-2.104947e-07
-5.140477e-06
4.198658e-07
-2.403659e-06
7.012861e-09
-1.075424e-06
-8.947425e-06
-8.494863e-06
-1.430593e-07
-2.512382e-06
-3.521929e-06
-4.503776e-06
-1.084196e-07
-6.225276e-07
-2.68687e-06
-1.998703e-06
-1.754614e-06
2.072467e-06
2.507563e-06
-9.571635e-08
-1.831701e-07
-4.969133e-06
-5.572926e-07
-1.185006e-06
-1.610047e-06
-5.225534e-06
-6.264922e-06
-1.010979e-06
-1.221566e-07
-1.602919e-06
-1.200744e-06
1.09543e-07
-4.535804e-06
-3.433079e-07
-5.475749e-07
-9.378886e-06
-9.255273e-07
1.333181e-06
3.181806e-06
-1.601092e-06
-1.788251e-06
-1.302145e-07
3.861853e-08
-1.110323e-06
-2.969055e-07
6.631975e-07
1.995612e-07
-2.554015e-07
-1.370011e-06
-1.44435e-06
2.87862e-06
1.281366e-06
-2.603475e-06
-7.751801e-07
1.103495e-06
-5.782938e-06
-1.717639e-06
-2.298823e-06
-2.3848e-06
-6.619003e-07
-1.148184e-06
-1.853614e-06
-3.106645e-06
-2.274135e-06
-2.547331e-06
-3.631083e-06
-2.807277e-06
-3.086927e-06
-5.617124e-06
-1.059366e-06
-2.587054e-06
-2.856039e-06
-3.344493e-06
-3.469856e-06
-3.260025e-06
-2.436535e-06
-3.141133e-06
-2.65883e-06
-2.525458e-06
-2.02698e-06
-1.004743e-07
-1.724153e-06
-2.263087e-06
-4.386493e-06
-4.627001e-06
-2.396137e-06
1.347697e-07
-4.400351e-06
-5.281993e-06
1.111863e-07
-9.979329e-07
-5.829681e-06
-1.167405e-06
-4.108158e-06
-2.712628e-06
-2.420336e-06
-2.436484e-06
-2.537115e-06
-1.504505e-06
-2.786801e-06
-2.713568e-06
-3.825208e-06
-2.508884e-06
-2.593829e-06
-4.351059e-06
-5.177838e-07
-1.425203e-07
-1.555991e-07
1.195017e-06
3.045374e-07
-1.07892e-06
-1.014188e-06
-4.372645e-07
-1.226762e-06
-1.668035e-06
-6.630241e-08
-6.021728e-06
-5.327324e-06
-2.598454e-06
-1.767994e-06
-1.437314e-06
-9.019038e-07
3.56039e-07
3.324733e-07
-9.863214e-07
-1.458513e-06
-1.279409e-06
-4.808781e-06
-3.957429e-06
-1.657943e-06
-2.24212e-06
-1.10498e-06
-3.812639e-06
-1.356098e-08
-3.28666e-06
-2.394933e-06
-4.866403e-06
-2.122809e-06
1.095394e-07
-3.384918e-06
-2.39884e-07
-1.856825e-06
-1.688175e-06
-1.577185e-06
-7.743661e-08
-3.569145e-06
-8.019285e-06
-5.974993e-07
-1.080236e-07
-1.535321e-07
3.285923e-07
-3.066885e-07
-1.539516e-06
-1.354723e-06
-1.674455e-06
-7.586449e-07
-4.233633e-06
-5.660346e-07
-2.990114e-07
-2.198896e-06
-4.542487e-06
-9.391689e-07
-2.127114e-06
-1.737224e-06
3.106305e-06
-7.899272e-06
-7.350523e-06
-9.894709e-07
-1.20559e-06
-3.260959e-06
-8.740561e-07
-5.688995e-06
-1.88149e-06
-3.187092e-06
-1.944394e-06
-1.576537e-06
-1.496739e-06
-1.769304e-06
-1.299318e-06
-2.001608e-06
-3.914835e-06
-2.25695e-06
-2.633791e-06
-6.80277e-07
-2.164058e-08
-9.313307e-06
-5.470194e-06
-5.401064e-06
-1.885809e-07
-2.389977e-06
-6.580967e-08
1.113605e-06
1.16124e-06
-1.528717e-06
-5.754121e-07
-1.628855e-06
-2.948009e-06
-5.407876e-07
5.135498e-07
-8.083829e-06
-7.116733e-06
-9.467121e-07
-6.826994e-07
-8.138384e-07
-5.574793e-06
-5.537021e-06
-7.217893e-06
-6.25297e-07
-6.392855e-07
-9.78274e-06
1.159135e-06
-4.993887e-06
-3.082884e-06
3.414231e-08
-1.462437e-06
-1.117813e-06
-7.130137e-07
-2.550627e-06
-2.775319e-06
-1.077512e-07
-2.387245e-06
-1.696182e-06
2.948286e-07
-1.066431e-05
-6.786417e-06
-3.06554e-06
-1.562957e-06
-1.70868e-06
-6.073725e-07
-1.491847e-06
-3.02586e-06
-1.804973e-06
-2.244846e-06
-1.896589e-06
2.10678e-07
-3.155303e-07
-8.018605e-06
-7.404142e-06
6.487415e-07
-2.860683e-07
-4.640372e-07
-7.000026e-07
-4.556476e-07
-3.598374e-06
-4.356264e-07
-1.060757e-06
-1.297491e-06
-1.603297e-06
3.236964e-06
-1.381831e-06
-3.124958e-08
-6.407755e-07
-2.0395e-06
-5.011488e-06
-1.563668e-06
-1.173793e-06
-1.287414e-06
-2.035031e-06
-1.988095e-06
-3.68831e-06
-6.581852e-06
-2.8289e-06
-8.241559e-06
-8.927587e-06
-2.559584e-07
-1.908359e-06
-9.593499e-07
-9.723817e-06
-2.026468e-06
-9.04428e-06
-3.776876e-07
-6.312201e-07
-3.613941e-07
8.037273e-08
-1.059233e-06
-1.771521e-06
-5.684962e-07
-4.233336e-07
-2.285129e-06
-2.507016e-06
-2.507733e-06
-1.067251e-06
-1.525775e-07
-8.756366e-06
-6.686099e-07
-1.697925e-07
-4.435311e-06
-4.497556e-06
-4.536128e-06
-2.984842e-06
-5.653708e-07
-1.321513e-06
-4.944215e-07
-4.142407e-06
-6.167362e-06
-1.272386e-06
-6.942568e-06
-6.081378e-06
-6.381615e-06
-6.950587e-06
-1.610869e-06
-7.061137e-06
-2.907393e-07
-4.246713e-06
-4.278453e-06
-4.437938e-06
-9.253423e-06
-4.665211e-06
-2.746851e-06
-3.220637e-06
-3.755189e-06
-7.241982e-06
-5.559934e-07
-2.596873e-06
-1.552618e-06
-5.039606e-07
-9.26164e-06
-1.116795e-05
-9.672419e-06
-2.654802e-06
-7.920162e-06
-9.951542e-06
-1.080945e-05
-1.030039e-06
-2.05072e-06
-1.412061e-06
-3.451107e-06
-2.790877e-06
-5.26629e-06
-3.741793e-06
-4.857175e-08
-7.461731e-06
-1.971121e-06
7.349165e-08
5.072138e-07
-1.986511e-06
-2.750266e-07
-5.036559e-06
-3.580348e-07
-1.19634e-06
-1.303329e-06
-6.094825e-07
-2.502665e-06
3.237151e-07
-1.733292e-06
-9.84489e-06
-5.082021e-06
-7.689574e-06
-8.58365e-06
-7.608462e-06
-1.027238e-06
-7.678124e-06
-4.780359e-06
-4.006192e-06
-1.885954e-06
-1.683633e-06
-1.465684e-06
-2.371634e-06
-5.818645e-07
-3.715832e-06
-4.456109e-06
-7.95117e-06
-6.606355e-06
-4.913292e-06
-4.822863e-06
1.791846e-07
-9.715968e-07
-1.538608e-06
1.405009e-06
-3.371098e-06
-3.618998e-06
-3.524969e-06
-1.1597e-06
-5.100264e-07
-5.15575e-06
-3.235122e-06
-2.144483e-07
-4.427241e-06
-2.131032e-06
-2.003119e-06
-2.167743e-06
-3.413748e-06
-6.354368e-06
-9.141746e-07
-1.252102e-06
-1.167818e-07
-9.283059e-08
-6.101172e-07
-6.317214e-07
-6.4163e-07
-4.154889e-07
-7.101708e-07
-9.672809e-07
-1.547229e-06
-4.315498e-06
-7.27552e-06
-4.04404e-07
-1.528909e-06
-8.781346e-07
-9.598815e-07
-1.458241e-06
7.697908e-07
-4.600311e-07
-9.11525e-07
-1.816255e-06
-1.777373e-06
-1.647818e-06
-2.700726e-06
-4.530114e-07
-4.890263e-07
-2.823694e-08
-6.604434e-08
-4.897112e-09
-6.6078e-06
-1.271895e-06
-5.329662e-07
-3.627621e-07
-7.852813e-07
-2.770933e-06
-3.178549e-06
-8.602016e-07
-6.918846e-07
6.535087e-07
2.701354e-08
-7.14342e-07
9.618703e-07
-5.850362e-06
-8.100692e-06
-5.109715e-07
-2.408339e-06
-1.545217e-06
-2.016928e-06
-1.469881e-07
-1.127664e-06
-1.107617e-06
-3.590124e-06
-4.649881e-06
-4.453399e-06
-1.768851e-06
-1.104289e-06
-9.919673e-06
-3.310117e-06
-6.480016e-06
3.309924e-07
-2.675045e-06
-2.970591e-06
-2.72585e-07
-3.740663e-07
-9.019866e-07
-1.035017e-06
-1.582502e-06
-2.728887e-07
-1.522628e-06
-2.450927e-06
-2.130655e-06
-3.271494e-06
-1.289061e-06
-1.163385e-06
-1.406954e-06
-9.97848e-07
2.235327e-06
9.626769e-07
-1.661606e-06
-1.485465e-06
-7.930261e-07
-1.963068e-06
-1.559175e-06
-3.609969e-06
-3.068196e-06
-1.719914e-06
-2.369679e-06
-3.104492e-06
-2.411656e-06
-7.620647e-06
-8.136876e-06
-5.296768e-06
-5.046557e-06
-1.51775e-06
-1.48598e-06
8.353031e-08
-1.07004e-05
-9.796995e-06
-1.001848e-05
-4.166089e-06
5.11548e-07
-6.48857e-07
-7.189743e-07
2.254388e-07
3.953937e-07
-7.727324e-07
7.045211e-07
-2.352719e-06
-2.240451e-06
-1.532217e-06
-1.453874e-06
-1.090997e-06
-1.213166e-06
-1.06403e-06
-7.958599e-07
-1.856729e-06
-2.295815e-06
-2.475971e-06
-1.013356e-06
-9.947281e-07
-1.59806e-06
-1.571446e-06
2.510684e-07
-5.183302e-06
-5.575322e-06
-5.346002e-06
-5.961507e-06
-5.719038e-06
-6.496048e-06
-7.254229e-06
-6.091037e-06
-5.482561e-06
-7.176038e-06
-9.320253e-06
-9.749137e-07
-2.007666e-06
-1.865751e-06
-6.351004e-06
-3.061092e-06
-2.255023e-06