/*--------------------------------*- C++ -*----------------------------------*\
| =========                 |                                                 |
| \\      /  F ield         | OpenFOAM: The Open Source CFD Toolbox           |
|  \\    /   O peration     | Version:  2406                                  |
|   \\  /    A nd           | Website:  www.openfoam.com                      |
|    \\/     M anipulation  |                                                 |
\*---------------------------------------------------------------------------*/
FoamFile
{
    version     2.0;
    format      ascii;
    arch        "LSB;label=32;scalar=64";
    class       volScalarField;
    location    "1.62";
    object      p;
}
// * * * * * * * * * * * * * * * * * * * * * * * * * * * * * * * * * * * * * //

dimensions      [0 2 -2 0 0 0 0];

internalField   nonuniform List<scalar> 
15536
(
-59.59318
-60.58082
-59.54133
-56.97711
-53.25963
-48.89468
-44.12481
-39.07215
-34.02287
-28.93806
-23.85465
-19.9214
-16.23473
-12.38209
-8.053521
-3.58827
0.280044
3.381468
5.732319
7.239579
8.633915
9.386142
9.860028
8.86244
4.16158
-3.925547
-17.99621
-40.4948
-75.85347
-82.51593
-43.6409
5.079047
-1.336727
-17.39106
-32.35041
-57.57342
-91.32447
-97.87763
-72.34039
-60.7937
-65.2082
-69.83292
-74.80975
-78.10896
-79.97662
-80.49347
-79.95692
-78.36831
-76.18822
-73.58308
-70.26941
-66.3431
-61.79026
-56.83863
-51.44653
-45.6834
-39.85441
-33.89727
-27.60438
-21.1442
-14.77709
-8.522537
-2.294981
3.851333
9.788962
15.59297
21.10799
26.31501
31.11125
35.4886
39.40949
42.87135
45.8437
48.25801
50.06431
51.36253
52.01842
52.09382
51.62322
50.64562
48.94305
46.58363
43.63264
40.09824
36.00597
31.37276
26.26966
20.6053
14.55086
8.144308
1.228184
-5.993319
-13.45924
-21.37466
-29.43601
-37.42969
-45.60318
-53.93888
-62.23347
-70.58179
-78.81216
-86.72824
-94.28879
-101.5952
-108.781
-115.5121
-121.77
-127.5076
-132.7498
-137.5769
-141.6801
-144.9766
-147.5345
-149.3395
-150.2678
-150.0256
-148.3836
-144.9292
-139.8323
-134.8719
-135.6356
-145.3787
-152.3273
-139.6252
-109.744
-76.56077
-71.33458
-143.8967
-197.3229
-174.5486
-116.2719
-76.54978
-59.76848
-51.90079
-41.584
-29.18683
-26.51794
-30.01765
-36.79078
-53.71182
-66.3615
-68.29111
-62.89555
-52.3739
-41.77921
-37.67724
-36.21753
-35.45529
-34.79244
-30.63532
-30.65881
-36.83746
-35.78594
-31.77197
-38.19084
-48.41345
-55.72756
-59.29151
-60.24318
-59.22068
-56.68906
-53.01239
-48.67972
-43.93771
-38.91248
-33.85927
-28.75687
-23.64422
-19.70296
-16.05492
-12.24707
-7.970957
-3.548992
0.2910216
3.382024
5.736597
7.251093
8.65123
9.420271
9.896865
8.865016
4.131398
-3.941145
-17.96179
-40.40021
-75.80749
-82.68319
-43.80683
5.197149
-1.501747
-17.52556
-32.41352
-57.59969
-91.29546
-97.81968
-72.15637
-60.75342
-65.04742
-69.41076
-74.09984
-77.136
-78.84127
-79.28949
-78.7277
-77.12697
-74.94401
-72.35562
-69.06691
-65.17398
-60.65812
-55.75085
-50.41047
-44.70171
-38.92823
-33.03142
-26.80411
-20.40645
-14.10262
-7.912144
-1.745356
4.339042
10.21641
15.96045
21.41748
26.57146
31.31927
35.65147
39.53236
42.95936
45.90162
48.29319
50.08081
51.36648
52.0164
52.09035
51.62216
50.65083
48.96048
46.62182
43.6976
40.19557
36.14144
31.55257
26.49854
20.88908
14.89661
8.551486
1.702586
-5.444015
-12.83938
-20.68364
-28.66297
-36.57646
-44.67173
-52.92517
-61.13813
-69.4061
-77.55792
-85.396
-92.88253
-100.1243
-107.2505
-113.9211
-120.1268
-125.8158
-131.0174
-135.8142
-139.8912
-143.175
-145.7406
-147.5662
-148.5365
-148.3689
-146.8885
-143.7597
-139.0711
-134.5814
-135.6296
-145.2631
-152.3695
-139.8853
-109.9308
-76.78445
-71.1641
-144.0195
-197.5163
-174.3992
-116.0313
-76.34142
-59.63156
-51.89494
-41.67724
-29.27723
-26.51645
-29.94317
-36.78876
-53.69642
-66.33367
-68.20665
-62.87143
-52.39348
-41.81409
-37.69152
-36.21376
-35.46989
-34.81884
-30.70827
-30.72885
-36.84413
-35.70432
-31.7391
-38.16504
-48.31443
-55.5309
-59.14246
-60.11277
-59.05475
-56.48741
-52.77416
-48.40384
-43.64192
-38.57949
-33.48732
-28.48844
-23.46931
-19.58054
-15.95473
-12.17578
-7.931623
-3.537815
0.2854373
3.374811
5.742892
7.248146
8.64914
9.452429
9.921148
8.836098
4.053923
-3.978769
-17.94562
-40.4224
-76.22389
-83.71998
-45.05479
5.300918
-1.470582
-17.54981
-32.44854
-57.75663
-91.75976
-98.11052
-72.48972
-60.81614
-64.80423
-68.95376
-73.36542
-76.28458
-78.04123
-78.53964
-78.01375
-76.43488
-74.26586
-71.70141
-68.42304
-64.5509
-60.05524
-55.17618
-49.86941
-44.17413
-38.42581
-32.56673
-26.36352
-19.99382
-13.71988
-7.565883
-1.434361
4.623687
10.46413
16.18136
21.60683
26.73198
31.45244
35.75885
39.61442
43.01872
45.94044
48.31752
50.08866
51.36446
52.00884
52.08135
51.61643
50.65146
48.96993
46.64744
43.74165
40.26119
36.23225
31.67056
26.64765
21.06507
15.10706
8.797903
1.979763
-5.128013
-12.48181
-20.29165
-28.23193
-36.09931
-44.15869
-52.37704
-60.54288
-68.78652
-76.90135
-84.70822
-92.16494
-99.35933
-106.4524
-113.0865
-119.2673
-124.9292
-130.1054
-134.8849
-138.9349
-142.1905
-144.725
-146.5216
-147.4576
-147.245
-145.6731
-142.5823
-138.2228
-134.1883
-135.3802
-145.0969
-152.209
-139.5055
-109.8093
-76.61885
-70.95352
-145.2603
-198.9049
-174.9166
-116.0602
-76.14453
-59.49445
-51.93966
-41.89386
-29.50642
-26.53624
-29.98682
-37.03356
-53.9419
-66.46564
-68.25371
-62.94609
-52.47466
-41.90487
-37.72874
-36.28283
-35.56837
-34.68627
-30.61919
-30.84514
-36.96115
-35.7425
-31.89992
-38.47091
-48.4219
-55.42422
-58.80067
-59.63616
-58.58896
-56.05672
-52.35922
-48.00634
-43.28998
-38.24551
-33.13639
-28.1967
-23.18598
-19.35259
-15.7893
-12.07862
-7.904611
-3.554461
0.2515991
3.34692
5.721307
7.201502
8.618827
9.503564
9.99268
8.803761
3.952755
-4.006657
-17.94138
-40.5689
-77.14368
-85.58242
-47.50466
5.102954
-1.069956
-17.31771
-32.39456
-57.68619
-91.20204
-97.66001
-73.24368
-61.34788
-64.55487
-68.29548
-72.32489
-74.98533
-76.56989
-76.93738
-76.40126
-74.83007
-72.6779
-70.15381
-66.93329
-63.12878
-58.69931
-53.88739
-48.65659
-43.0395
-37.36315
-31.58547
-25.47437
-19.17695
-12.97629
-6.901528
-0.8486783
5.14082
10.90589
16.55935
21.92091
26.99193
31.65888
35.91588
39.72862
43.09685
45.98682
48.34309
50.09115
51.35497
51.99296
52.06407
51.60359
50.64589
48.97337
46.67409
43.79476
40.34643
36.3575
31.84289
26.87618
21.34579
15.45853
9.218587
2.467854
-4.550248
-11.82174
-19.55965
-27.39554
-35.16542
-43.13817
-51.25279
-59.31685
-67.46324
-75.47848
-83.17601
-90.52475
-97.63815
-104.6488
-111.1848
-117.2848
-122.8591
-127.9691
-132.6982
-136.6974
-139.9061
-142.4095
-144.2114
-145.1788
-145.0414
-143.7211
-140.899
-137.0073
-133.5446
-134.6534
-143.4426
-149.4478
-137.2704
-108.9336
-76.11789
-71.3048
-147.5185
-201.0395
-175.8729
-116.3009
-75.96442
-59.33885
-51.96535
-42.13245
-29.74419
-26.32867
-30.06987
-37.61373
-54.38517
-66.72765
-68.42041
-63.15953
-52.64228
-42.05435
-37.79738
-36.37854
-35.68391
-34.3633
-30.2629
-31.00034
-37.21147
-35.9592
-32.47382
-39.15429
-48.58235
-55.23956
-58.57722
-59.39841
-58.23535
-55.66028
-51.93773
-47.57131
-42.87589
-37.83634
-32.69219
-27.88454
-22.86938
-19.10799
-15.61067
-11.98487
-7.906175
-3.609394
0.1770075
3.289104
5.65171
7.091511
8.565218
9.614774
10.15843
8.809067
3.859474
-3.989746
-17.92961
-40.86148
-78.79007
-88.36751
-50.98462
4.256928
-0.3839649
-16.94535
-32.19336
-56.78202
-87.90478
-94.13067
-73.00447
-62.13108
-64.31227
-67.58589
-71.31564
-73.79046
-75.38426
-75.82904
-75.31848
-73.75056
-71.54705
-69.06157
-65.82326
-62.04085
-57.6148
-52.84026
-47.66438
-42.06629
-36.43254
-30.72931
-24.67538
-18.42129
-12.278
-6.277875
-0.29124
5.648772
11.3399
16.94154
22.24263
27.25888
31.86825
36.07898
39.84763
43.17712
46.02764
48.36033
50.08233
51.33183
51.96354
52.0337
51.57917
50.62729
48.96067
46.6939
43.84948
40.43733
36.49076
32.02273
27.11385
21.63268
15.82211
9.644883
2.944444
-3.978113
-11.16866
-18.86688
-26.61228
-34.28721
-42.19948
-50.24394
-58.2115
-66.30739
-74.26026
-81.89117
-89.18056
-96.22975
-103.2077
-109.6813
-115.7578
-121.2942
-126.3742
-131.1255
-135.0711
-138.2844
-140.8117
-142.619
-143.5856
-143.406
-141.9899
-139.2694
-135.7238
-132.7176
-133.5484
-140.4883
-144.7183
-133.179
-107.7888
-76.49963
-73.80055
-150.0755
-203.4113
-177.1929
-116.7059
-75.91682
-59.19321
-51.89969
-42.22696
-29.80556
-25.66059
-29.95933
-38.40223
-54.96821
-67.23128
-68.80867
-63.58368
-52.93822
-42.2808
-37.92681
-36.53399
-35.83086
-33.9596
-29.6886
-31.12619
-37.53942
-36.36135
-33.59479
-40.12867
-48.84007
-55.1646
-58.30259
-58.97784
-57.78984
-55.21843
-51.46759
-47.08194
-42.40208
-37.36215
-32.12642
-27.50933
-22.4589
-18.81101
-15.41331
-11.90971
-7.955134
-3.724429
0.02508923
3.157571
5.52002
6.90974
8.492621
9.833004
10.48899
8.890711
3.824573
-3.885489
-17.89893
-41.55055
-81.25751
-92.1976
-55.41177
1.981366
-0.4812642
-16.95381
-32.02788
-55.0975
-81.98022
-87.51899
-71.22629
-62.53483
-63.82241
-66.59171
-69.92437
-72.05446
-73.49659
-73.70379
-73.21044
-71.68446
-69.53023
-67.17009
-64.01631
-60.34316
-55.99565
-51.29949
-46.21923
-40.69209
-35.15722
-29.5702
-23.60072
-17.42458
-11.38341
-5.478436
0.4160898
6.285885
11.87188
17.40763
22.62426
27.55736
32.10341
36.26737
39.98078
43.26159
46.05856
48.37102
50.05893
51.2864
51.91275
51.98201
51.53461
50.58774
48.92797
46.69847
43.90268
40.53841
36.64344
32.23216
27.38672
21.95625
16.25816
10.16992
3.510584
-3.29644
-10.33999
-17.97847
-25.61615
-33.14435
-40.94552
-48.89412
-56.73147
-64.71532
-72.55219
-80.06272
-87.21443
-94.15121
-101.0507
-107.3805
-113.3668
-118.7777
-123.7593
-128.4219
-132.2764
-135.3821
-137.7378
-139.5601
-140.5675
-140.5358
-139.3985
-136.965
-133.9201
-131.4447
-132.0552
-137.2804
-139.9578
-129.4971
-107.2425
-79.11272
-79.15812
-152.8353
-205.0885
-178.3342
-117.3238
-76.10592
-59.12713
-51.74247
-42.05004
-29.45856
-24.44397
-29.49346
-39.28445
-55.71422
-68.13398
-69.50861
-64.27172
-53.49607
-42.72958
-38.16751
-36.75704
-36.06915
-33.52743
-28.94019
-31.0238
-37.6627
-36.86238
-35.17452
-41.31036
-49.17395
-55.10724
-58.12532
-58.65176
-57.37609
-54.75413
-50.94644
-46.51707
-41.83989
-36.86387
-31.46632
-27.12826
-21.97111
-18.43194
-15.21441
-11.88166
-8.084022
-3.956897
-0.2861471
2.871395
5.271643
6.653256
8.414261
10.17207
11.04497
9.076865
3.953679
-3.619936
-18.00982
-43.12354
-84.22146
-96.67568
-60.33036
-2.566342
-1.98056
-17.63565
-32.24307
-53.21212
-75.85686
-80.70488
-68.89476
-62.45839
-63.1847
-65.55273
-68.58315
-70.38552
-71.81438
-72.1368
-71.62392
-70.00585
-67.71785
-65.43416
-62.24422
-58.6596
-54.32466
-49.64273
-44.67825
-39.25923
-33.78351
-28.25467
-22.4133
-16.3599
-10.39528
-4.535203
1.194202
6.997968
12.45584
17.92733
23.0275
27.8765
32.41468
36.4787
40.10785
43.32177
46.06525
48.39942
50.01564
51.21686
51.83386
51.89836
51.45924
50.53973
48.90334
46.66318
43.90194
40.60233
36.77823
32.46514
27.7044
22.29903
16.72217
10.77955
4.20956
-2.551507
-9.479341
-16.9404
-24.4853
-31.91029
-39.57389
-47.3333
-55.12667
-63.02537
-70.67634
-78.11272
-85.10929
-91.9436
-98.81079
-104.9999
-110.961
-116.2526
-121.2157
-125.9387
-129.7043
-132.8405
-135.4257
-137.2537
-138.2635
-138.1105
-136.9886
-134.6981
-132.064
-129.9844
-130.311
-134.0575
-135.3789
-125.8932
-106.8982
-83.61088
-86.27519
-154.8992
-204.4709
-178.1796
-117.5937
-76.77108
-59.30095
-51.45726
-41.42503
-28.671
-22.63895
-28.76736
-40.25542
-56.71527
-69.6351
-70.48564
-65.32658
-54.59532
-43.72441
-38.54952
-37.07622
-36.42718
-33.06964
-27.99515
-30.5035
-37.22454
-37.43884
-37.04691
-42.65938
-49.67476
-55.18406
-58.05927
-58.42399
-56.92303
-54.19099
-50.4349
-45.95389
-41.26623
-36.51933
-30.65319
-26.75263
-21.36128
-17.92987
-15.06448
-11.89611
-8.377389
-4.437052
-0.8407027
2.422434
4.789499
6.300333
8.324208
10.63728
11.8271
9.589414
4.322611
-3.026145
-18.5255
-44.46503
-86.89899
-101.5593
-65.86271
-8.94564
-5.200402
-19.00292
-32.32276
-50.9965
-70.04055
-74.72535
-66.49964
-61.84054
-62.19112
-64.053
-66.81269
-68.01678
-69.36582
-69.32155
-68.95783
-67.59057
-65.15739
-63.04387
-59.97366
-56.54966
-52.18572
-47.57402
-42.93775
-37.66869
-31.97522
-26.61187
-21.13524
-15.23538
-9.116278
-3.373411
1.982958
7.812294
13.06617
18.51438
23.39077
28.31066
32.84957
36.67916
40.20048
43.32342
46.04124
48.40915
49.90937
51.12917
51.72343
51.7785
51.35618
50.49599
48.85558
46.59092
43.80838
40.58873
36.85076
32.66323
28.11066
22.68904
17.19753
11.42861
5.211088
-1.489389
-8.696685
-15.8278
-22.9754
-30.5596
-38.14352
-45.40508
-53.02675
-61.25538
-68.39185
-75.83658
-82.63549
-89.26592
-96.12853
-102.0247
-108.0303
-113.0244
-117.8237
-122.5991
-126.172
-129.1884
-131.4131
-133.214
-134.3311
-134.3763
-133.4937
-131.473
-129.4781
-127.8761
-128.0279
-130.5207
-130.5638
-122.1191
-106.4185
-88.68064
-93.3053
-153.9584
-197.6889
-172.6618
-115.9762
-77.79888
-60.42218
-51.55182
-40.52314
-27.86956
-21.40542
-28.19462
-41.46708
-58.11163
-71.90245
-71.82608
-67.417
-56.19131
-45.08132
-39.14867
-37.94544
-36.98389
-32.45245
-26.77051
-29.50804
-36.41958
-38.23749
-39.10924
-44.12405
-50.38997
-55.42433
0.5843259
0.06028952
-22.89718
-24.76969
13.24401
-22.23
1.505155
1.213162
13.98142
-3.571558
-1.706447
2.374556
-2.058353
-0.328893
-0.1160562
3.775515
-1.993342
-5.680592
0.4360716
1.130998
-103.0168
-0.4015882
2.975686
-3.807768
1.359766
-1.016199
3.711455
-3.043619
-10.85185
-0.4262725
1.738532
-7.784217
-1.073992
-1.736746
0.4457227
-7.966998
-0.5954128
-0.09160586
-0.01193608
-9.43696
-28.86146
1.615618
-0.2003924
1.967764
36.46987
1.283387
0.02508627
1.774507
-3.561206
-3.091218
2.71043
0.341048
-10.96096
0.3403427
0.06169309
26.2822
-10.72504
0.8197034
-18.51708
-28.67474
-3.005226
0.002414099
-6.932268
0.4621623
-4.919819
-1.705353
-18.737
-0.106096
-10.64196
-0.6513152
-1.59449
0.002326417
-16.55466
-42.52666
21.79437
-0.2539067
3.877679
-5.144128
-1.848409
0.4154174
-28.93896
0.07717453
3.642114
0.1273239
-16.74118
0.7040466
-0.09601557
1.353079
-35.17594
-0.5006916
-23.93062
20.27197
3.999057
0.1110321
1.097987
2.756309
-1.0889
5.0669
-28.56906
1.252884
1.456929
1.229731
0.5422316
-105.6676
-0.04173441
-8.533954
-0.003730415
0.6890553
-0.01917585
-4.214718
1.998034
-1.210168
-1.722532
7.028708
-11.85806
0.001893111
0.06351689
-0.639373
17.6943
0.3319236
3.776341
0.2519856
-1.755441
-0.1285114
-0.1458156
-2.698148
-1.113084
-10.59719
1.766925
-0.5527213
0.153728
2.690637
0.489645
-0.3337197
-2.137335
-40.74782
0.1074981
9.987607
1.538959
0.08393589
-16.40109
-0.6042275
-80.02151
0.2169847
-0.01375773
-13.61653
0.8119375
-53.1893
-0.2602988
-1.434161
-1.837072
-9.698573
-62.01115
-3.191994
-9.417171
-50.7003
-0.4787862
0.2290391
0.4167425
-45.57864
0.5732769
-45.27932
-11.37761
1.268347
-5.589763
-15.66432
-29.90951
1.429247
-19.56183
-0.09259365
1.542745
-10.82999
0.7896479
-18.04161
-10.77845
2.097768
3.212848
1.161917
-30.32633
-0.3052458
16.982
2.590413
-0.8661947
0.1778505
1.872802
-58.12555
-0.5766166
-0.2733419
-11.47902
0.7514385
-0.7490614
1.220204
-14.92695
-4.495933
-0.002131069
0.4632142
-0.9649624
-0.9684272
-9.92453
-43.79701
1.128559
-0.2521347
0.4283124
-39.91692
1.649489
-5.954045
-11.53979
-12.66185
-13.72051
0.02335873
0.1095283
1.785835
2.717953
-31.58677
0.3811868
0.1315993
-17.01484
1.201414
-0.3310498
0.4268534
1.434664
0.7873056
3.400608
1.763905
-5.887782
-1.3046
-0.4812765
7.678331
-0.451649
21.22244
-3.911194
-16.84447
5.722228
-0.05872224
-97.04887
-0.2567115
29.88104
-16.06309
1.996739
-1.258428
-0.4746339
1.010147
-0.08050461
-5.030893
0.9580116
-15.08567
0.03053695
-28.07702
0.08433664
-0.8872847
-44.44061
0.1375653
1.838332
1.169857
3.181867
-37.44427
0.1611546
0.2458285
-27.77495
-8.080393
2.050796
0.06923272
-3.763747
1.159939
-1.377543
2.96451
0.3875684
-0.2295819
-9.19445
-34.96773
0.2313518
0.4692916
13.03834
-2.37664
1.886663
3.813053
2.233351
-12.23992
-59.16471
-0.2249234
-1.807077
0.03328064
-15.71423
1.81556
-0.9609745
0.328974
33.86513
-0.930742
2.513273
-0.2672636
3.271413
-0.06105165
0.9321493
1.300036
-25.31336
0.02644772
-19.18146
-0.007212673
2.016527
-1.3463
-54.83563
-2.380473
-0.1307242
7.588715
-1.699208
-0.0826628
-0.283908
0.009886058
-4.927759
1.213224
-8.461136
2.659689
-0.8798998
1.595404
-1.463161
-18.09521
35.00464
-82.91086
-27.4173
-48.53018
-2.217377
-0.009371483
2.149182
-0.02645526
0.03419279
-0.03551164
-0.5488806
0.01233078
0.5438125
-3.973428
17.4554
-0.00124697
-12.02014
-74.22782
-4.811891
2.669211
-4.336709
-0.003544389
-8.213191
0.3162004
-30.91618
-4.465516
-0.4504834
0.5836633
-19.16394
3.431862
-5.94328
-0.9914474
-16.29509
0.01974232
-0.2977156
-0.08661675
14.65968
0.3684808
-2.881693
-46.05878
-64.968
-0.05266125
0.4582465
-3.102429
2.181132
-11.04445
-0.407189
2.430092
1.171773
2.66353
2.577425
-0.1984982
1.363307
2.008812
-5.928405
14.05755
-49.2338
-0.03509326
2.542929
0.3443239
0.767866
3.383553
1.627855
2.07523
-1.107275
2.204728
-0.04504302
-4.439277
-0.01774441
1.874795
2.129267
35.85561
2.181987
-0.1897878
2.717035
0.06619113
1.419085
-42.28001
-0.03396212
-2.376149
-0.1537922
-54.57609
0.0520517
0.3453842
2.366809
1.095336
-39.07231
-0.6362093
-0.1633759
0.5371909
-23.5802
-62.01476
3.019021
2.35756
0.4921784
0.3117508
-0.1457387
1.284397
2.394826
-1.987581
0.6752439
-12.99354
0.3228638
-5.821857
0.4011944
-0.2529927
5.234614
-0.8448353
-1.052758
-36.00954
0.2792103
2.215711
-52.11809
-12.41142
-27.97466
1.592178
1.394555
0.4758208
1.696275
-11.6633
-0.2824262
-9.441016
-0.2490372
1.176741
-0.6146868
-0.1805157
-7.494211
-0.07031606
-7.905922
0.04352431
-0.009727479
0.02434735
0.7450313
-1.307357
1.247583
-54.56952
2.150322
-1.726106
-0.9996692
-0.09429863
0.001594939
5.271596
0.1117322
-27.3539
0.2693715
-25.05786
1.459527
-1.631903
-24.47398
-0.6375813
24.61879
-0.1010279
4.901004
-3.595878
-15.85683
-3.187383
0.4771413
8.33276
-0.5517856
0.0230673
-2.518186
-20.95093
-0.03192937
0.05483121
-12.79378
1.455002
-0.002025849
0.4010249
1.449071
-1.778866
0.01379884
17.29287
0.01874299
2.672465
-3.337869
-32.46949
0.3410006
0.0009279808
-27.1289
1.19543
0.4360137
3.734143
-3.531678
3.877855
1.96175
0.6322964
0.06476392
-8.286601
1.805342
0.1369396
1.190046
1.511714
-5.396124
0.9621915
-34.59222
7.061489
19.68069
-4.373068
-4.253022
1.298508
-22.93471
-0.8185902
-0.0478856
0.4296249
1.265183
-0.2836549
-11.01296
-0.1199583
1.920763
-2.337374
-0.1907021
2.631572
0.2044801
0.1629655
-34.78453
2.854255
-36.0769
0.1297382
4.336615
4.184735
3.228809
0.1118456
-0.6683835
0.3458578
4.000775
-0.08457089
-0.8749813
1.443027
-27.00393
3.054229
3.40615
-0.1616278
0.01809484
7.10333
0.6854694
2.43677
2.340667
-6.441681
3.814357
-0.1341353
2.102736
-30.51781
16.54256
2.218635
0.1047323
-5.423713
0.2647165
-1.110856
0.1316194
0.2091366
1.616391
12.3328
34.28491
-0.5737752
0.255049
8.313673
-1.217834
-74.66752
0.4646164
3.171982
1.599037
3.679524
-1.703464
-2.967147
-23.86592
-2.492623
6.346758
-0.04830411
1.362245
-30.18266
2.427989
0.5277992
-97.33037
-7.115773
-2.819557
0.1724982
-3.099119
0.00610182
0.1472418
0.1567561
1.283842
-33.27971
0.3864559
-0.1412906
0.1310618
-5.917423
0.007820913
-0.2314756
1.144383
-6.345464
-3.190992
0.6405174
-10.74284
0.9016105
4.174559
-0.6256241
-5.706502
0.4225213
9.495743
-16.68222
-1.548446
3.607971
5.05178
4.99815
-1.690342
-0.2878904
1.07569
-0.3110403
1.683065
18.43443
2.366632
-0.556324
-1.047196
-4.823478
-4.686812
2.115306
-20.64599
2.864152
-55.97842
-13.13584
-18.12626
1.1922
-2.132138
-0.3160948
0.222386
-0.06295818
0.8821346
4.311468
-1.522049
-0.4335915
1.896016
-50.20492
-5.638878
26.2415
4.923524
-19.56878
-0.7353329
-23.14146
7.013056
-5.465692
-4.628296
0.6415793
2.357374
6.152017
1.385661
2.470763
-0.6210661
1.654109
-1.788964
0.0750322
0.5266126
3.846053
-0.2218261
-0.3237202
0.3663573
0.7408722
-104.5293
-16.15995
0.4736734
8.490002
-38.65392
0.03121813
-1.146281
3.166134
13.52376
6.275384
2.037415
0.2486966
-0.02734595
-0.03322327
-0.8718012
-5.451491
2.968628
0.3431965
-11.24467
0.002865243
-53.62069
-0.8058904
-6.508649
2.223975
-52.80467
1.241958
1.293026
1.575618
-1.676846
-16.58136
6.547777
-1.064523
3.563192
-1.081159
2.804803
0.4462236
-10.74444
1.0566
-0.001164926
-0.4854812
3.933856
0.2987395
1.611087
-0.7571705
2.214688
-62.23109
-1.479171
-1.131759
1.820239
0.1834717
-0.7447014
0.3050967
-1.271405
1.104212
0.6255156
-34.53638
0.05935424
0.2891625
1.895017
1.392864
0.833987
0.5865837
-1.763046
-0.118184
0.4527081
5.197005
-10.52865
1.933101
-0.05559429
-4.74509e-06
0.7776765
-0.1528368
0.4830269
-0.6745426
-63.53809
3.211626
2.000188
11.64252
-0.01732127
-2.23215
-13.42655
0.2371382
0.03168177
-1.430022
2.815848
-3.654387
-7.693389
-9.611717
-7.573421
0.5175038
2.753071
11.81044
0.3339267
1.576767
-66.36185
1.465863
1.258406
0.5302831
-15.66288
24.16159
-7.616407
0.7646957
3.006139
2.063905
-0.6569442
0.1156097
-4.653999
-0.8860136
-10.82591
-3.447515
0.3569918
4.360842
2.215647
1.716271
0.8921532
-0.1478102
-1.205226
-0.8047464
-2.202387
-25.75813
31.46859
-0.1526329
0.2306601
0.08339884
0.6310971
0.0860729
-0.383668
-74.11679
-0.0344677
-65.8893
-3.804042
-1.773028
-0.4348403
0.3597364
2.277529
-0.3633699
1.081454
0.6867278
0.2800264
1.26047
-34.69157
2.285868
-2.902533
1.996867
-0.4539008
-2.460394
3.164269
-11.43824
-6.330234
17.89507
1.622242
0.4516422
-1.173871
-1.297961
1.353422
1.124262
-0.1020038
1.140559
-0.05724161
1.017697
8.205419
-47.23949
-12.49033
-0.00524385
-4.224191
-1.774279
0.2519222
0.3506168
-0.6012198
1.540759
-31.07598
4.277976
2.686128
3.87624
4.035459
-1.925016
-0.5722616
28.63821
0.02374066
-4.882588
-0.1545033
-39.27895
3.030821
0.2088817
-0.1875456
1.417777
31.40919
-1.546783
-0.1227931
2.291375
0.6630861
-1.007327
1.70686
0.4495246
0.4144505
-8.057372
-21.97232
0.4809822
0.4298069
-5.597463
0.07352119
0.02116478
0.6945838
-18.48774
5.682073
27.51104
-0.002567939
1.180914
-2.105596
0.01138026
0.05482438
13.97609
-3.52897
0.4238836
0.02026374
-1.709566
1.259987
0.3717443
-0.7678875
-1.664151
0.9935213
-13.9077
3.70212
-14.63666
0.06922692
-4.960552
-0.7312364
10.25465
0.0290398
-0.01817374
-32.13758
6.491236
-30.54871
7.711277
1.1133
0.4968706
-4.715496
31.34438
1.36529
-0.1350389
-2.139038
-51.50692
-0.1438181
0.1111987
5.753837
-0.3668174
-0.9752813
-7.38541
0.2598099
1.53887
-11.89532
-3.770745
0.07250405
4.542577
-8.073381
-32.17435
3.617223
-55.90293
0.571256
-1.965708
-7.768733
0.5469977
-3.479925
-44.47663
-0.01257765
0.4220738
-6.083637
1.68251
0.04495367
11.47474
-46.203
-1.385133
19.85622
-0.5351779
0.001482736
5.4816
12.65183
-11.17596
0.07605491
-0.3041713
1.902851
-0.5988512
-0.2617208
1.126128
1.465257
0.9359288
1.239181
-80.77685
-94.45387
1.502161
-2.575858
3.107562
0.1093014
1.160108
3.049853
0.4317728
0.2809206
1.460227
1.181827
0.1977497
10.69801
0.3440395
-24.40984
-0.4406668
0.005730575
-19.8788
0.7255592
0.1152878
0.7331591
-40.98646
-9.961302
-5.326873
2.132342
-3.299996
-18.43095
37.20095
48.86889
0.5117778
-0.3541519
-21.88751
7.381033
0.7374986
0.04884027
9.480219
-45.47863
0.7541502
-0.04871711
-2.383779
2.329472
0.8072676
-6.083545
-4.978367
-11.09747
-70.85883
-4.639948
2.375342
1.70893
1.483675
2.631057
-61.05379
0.7160948
0.2779469
0.27447
2.066499
-30.25651
-1.093411
-15.04501
-7.167878
0.7941675
-1.227309
-0.852454
0.7021092
-0.6863345
0.9696995
0.08764743
-41.63309
-0.6956373
-81.68981
-51.83731
-1.737044
-2.280475
-66.5257
-108.2322
2.525271
-7.165772
-2.214204
0.468637
2.551667
-4.477513
0.2059787
0.691958
-0.6152848
-4.64133
0.524697
-3.760851
-0.9802217
-1.661208
1.369787
0.2780456
0.2162989
1.986819
1.152678
0.3246464
1.214333
-25.16399
1.090745
0.4104626
4.456222
0.04244655
2.742334
-5.542911
0.05348866
0.8474956
-5.504133
-9.518038
-0.3015779
0.382132
0.05304324
-0.5969007
-40.13967
-17.81241
-9.081075
-42.42905
23.08207
-3.391694
2.127675
-9.866217
-31.07282
0.1437899
3.469739
-80.63684
2.036411
-0.8621492
3.518151
1.547252
8.559964
1.534319
2.880599
-12.97787
-1.946224
-30.05388
2.224742
-1.164903
33.17603
-18.49513
-11.66673
0.2594957
2.896707
-2.268734
8.256227
-1.311537
6.912709
1.048764
-18.45898
-0.7245447
-15.1269
-5.289626
0.4273139
-8.219202
1.526854
-105.1867
8.922639
2.954504
22.32383
-1.061703
27.70072
-0.6983954
-5.815721
-0.4689982
-0.2284834
12.9076
-0.4780185
10.92804
-1.089673
0.5818967
-0.03738179
0.245004
5.462338
-2.899185
-12.42146
0.1719557
-14.57986
-2.979244
12.91389
-8.414495
1.030932
-43.75026
-6.294195
1.187596
-43.27582
36.56159
-3.000481
-0.4190684
-50.73288
-17.48235
0.01562983
0.5108007
-2.632738
-7.962359
-100.2668
2.964696
-0.5191775
-1.492473
1.22161
0.452012
-1.391865
3.013512
13.20248
4.639208
-0.2749109
0.7494102
0.5419336
2.667852
-0.2261814
-0.5343462
1.390389
1.36987
-28.24423
0.01212868
-0.796761
0.3715258
-4.180658
-8.140819
1.270723
-0.004759586
2.385159
0.6914504
-0.5780421
-18.67911
0.4564944
-0.4130433
-93.52217
20.25065
-5.083466
0.8792124
4.326653
-3.577932
0.1427187
-0.3977617
0.04530149
-1.11551
-0.7325702
-6.804587
0.6826449
-23.74605
2.139247
1.17901
-1.727179
0.8506717
-2.662736
-1.008981
2.81442
-4.243553
3.678432
-27.66936
0.2202779
-0.1700954
-2.672943
0.001994378
-0.5233381
14.33154
2.589731
0.05143911
-0.2503992
-0.6567436
0.3921807
-0.342995
1.973742
-31.88028
-0.2543249
-0.02520208
-1.012274
-43.18198
-5.351688
-45.45561
-0.8553749
-1.165858
-0.9880716
-1.021578
3.662983
-42.64549
-7.45106
0.279054
0.4137633
-3.970048
-0.4843145
3.806774
2.780151
0.4519081
2.194096
-0.3998345
0.6098309
-51.08562
0.8435425
3.147839
-0.6919014
0.6105522
-2.951141
-0.73802
-2.676641
0.1704045
-3.648972
-1.437074
-8.072669
5.463575
1.089173
-19.57456
0.3619052
-6.498766
-3.549014
-11.91257
1.181762
1.147727
0.06539525
-27.16009
-49.51503
-56.22794
-0.9569473
-21.7714
2.22544
-14.14869
-6.053242
1.641373
16.55599
1.828924
-41.04602
-89.51835
0.7346317
1.44721
-4.522281
1.19389
1.487967
0.8246911
-0.7112054
-0.07193682
0.73708
-24.33856
-2.326877
-2.417138
1.451976
4.707484
-3.1142
0.0291512
-1.159949
-0.5755362
-1.065573
-28.34797
1.341943
3.605669
2.314629
-0.2333314
-34.8652
-1.02628
-1.670659
-13.18444
-21.44347
-0.09940479
-32.4754
2.110437
-3.068959
-8.85153
-0.1263955
14.02208
-71.34318
-7.009214
-2.046935
-1.858514
23.14045
-5.929438
0.3805087
1.22125
0.9454636
-0.1480819
-24.11335
-41.5543
-27.54776
7.230898
5.378679
-0.3096329
-74.48776
-59.65538
-88.43369
2.384522
-1.959013
0.77982
-2.851954
0.211438
-0.1284779
0.5277926
-0.168794
0.3414536
-1.165759
0.06371224
0.424711
-36.48862
0.5520417
2.475773
-2.080746
-7.009343
19.92155
0.07486498
-10.94788
-46.53049
-4.819768
1.4231
-11.52413
-1.551591
-19.65333
-82.36291
-0.2511619
-16.64446
0.1946005
-33.42169
-9.003831
-0.5533283
1.545684
-21.98204
0.08307537
14.36199
0.3721076
0.1085331
3.003181
-0.3093648
-0.312357
0.3551882
-0.4511642
1.149009
1.32406
-56.83531
0.02925899
0.1912764
-19.51331
-0.1641313
-0.1529895
-28.84588
1.995583
-25.70045
1.526082
2.726419
17.43781
-0.1629276
0.005900232
10.50426
1.037188
-60.29931
-0.6356622
0.09252003
-0.01318601
0.5184284
-4.261276
-0.03768626
2.68455
-7.504138
0.2406809
-1.263512
-0.4588148
27.63061
0.7567924
-5.240954
-1.716781
-1.558485
-0.7619382
-95.63099
-0.9054813
0.5147761
4.04819
2.249933
1.773064
-69.36211
-82.57647
-68.29976
-0.0003988959
2.437467
-13.40269
2.333236
-1.603254
-0.8132741
-0.3115841
1.953303
-47.40573
-2.493561
-35.99459
-1.153552
5.475592
0.2886839
-2.474257
8.850946
-0.6077305
1.441177
1.319911
-0.3310572
-2.481147
12.84949
1.064369
1.921388
-0.219877
-0.03190282
0.129421
2.270234
2.420397
-2.654459
-4.799601
-16.41604
2.5719
-0.1264129
-27.74351
2.602705
0.001894215
-10.692
-7.951772
0.556798
0.4766454
-40.38124
0.001684605
1.78425
-87.00532
25.86607
-0.2913545
0.4773892
0.9873761
-42.77627
-0.3417677
2.798913
-4.847983
-5.217861
-1.819504
-0.5490718
1.091582
-20.68575
-2.593221
21.4218
38.8536
0.2939195
-52.7938
-23.15799
2.208141
-0.1809246
-0.02848234
34.67534
-79.02117
-0.4956142
8.453621
-0.7653127
0.4148729
-18.19313
-0.6045608
-0.5172512
-1.296277
-2.325519
-22.53762
0.3949492
2.327094
-16.24517
-11.01868
-19.68107
-5.647332
0.1279542
-94.44237
23.48241
-28.54566
-1.236594
-1.906423
0.7187918
0.4098848
3.413758
32.2031
-3.888453
0.02434149
-0.4965203
1.324466
0.0666942
-30.71619
1.174924
-0.04783331
0.4714593
0.3097048
19.37459
2.82176
-4.34954
-7.330752
0.004650848
-5.156222
18.28846
2.610423
3.098882
-59.84225
-6.620642
0.5645837
0.1600692
5.171838
-17.9528
-54.43181
7.844599
-0.2074004
-2.397461
1.67767
-0.2333255
-22.61837
-4.758241
-4.345427
3.826232
0.03400492
0.4246448
0.6416428
-75.55997
-26.17799
-2.798811
3.942045
0.03580362
-0.3655827
-1.048012
0.4622365
-0.07666389
-2.644912
-57.45623
1.682114
-5.012651
-4.17291
-39.14869
2.80341
2.678496
-16.45425
3.038559
7.503452
2.13613
34.8888
-0.2207593
0.1094864
1.421828
1.394354
2.830656
-11.73803
-21.44727
16.14582
-0.1389854
0.05489127
0.2368794
0.5098189
0.1514183
-0.7349962
0.457153
1.07582
-1.358196
-1.36171
0.03944654
2.484297
12.12175
7.066027
0.4711942
-1.663787
-4.233135
-3.588371
-1.624881
-12.4304
16.52175
-58.69821
-99.18855
0.5438156
1.867273
-92.69301
43.87364
-108.2111
2.746715
0.0663774
4.86721
-9.615826
10.64688
-32.76591
0.05155135
4.368557
-1.395293
1.477399
0.5169303
-0.037206
-2.509199
-58.07327
4.844025
0.6477595
-2.981433
1.028051
-65.75469
8.425252
-17.3363
2.141449
16.65502
-10.30054
-0.3515799
-0.6736076
-1.461103
-49.57026
0.4471936
3.138844
35.62185
1.769329
1.126477
0.4691839
30.53914
11.55734
-9.45379
2.651812
1.770424
0.3657108
-0.3362179
-49.36979
0.3673598
-104.9517
0.1173171
-2.247095
44.99747
3.774961
-0.3681559
-2.372573
1.897091
1.218037
2.807691
-44.20936
40.23487
0.981846
-2.573455
46.02308
-0.2734283
-0.1907786
-0.2025794
-31.453
1.581949
-0.007824403
-8.296309
-2.210436
-4.113774
-50.39954
-0.3096625
-0.1512827
0.166452
0.9298137
22.32871
2.585815
0.07538356
1.183374
-0.3712427
-1.355377
-1.438228
-1.265987
0.5799045
-1.0793
-5.828791
-6.871893
-85.34941
1.852704
-11.01524
-29.26209
-3.511242
9.167205
-1.260436
0.4430096
3.804422
-42.76202
-25.81804
27.29084
-28.04519
-0.0208316
2.364362
-17.77176
-38.0686
-2.294018
-2.294846
1.363561
-49.5468
4.571744