/*--------------------------------*- C++ -*----------------------------------*\
| =========                 |                                                 |
| \\      /  F ield         | OpenFOAM: The Open Source CFD Toolbox           |
|  \\    /   O peration     | Version:  2406                                  |
|   \\  /    A nd           | Website:  www.openfoam.com                      |
|    \\/     M anipulation  |                                                 |
\*---------------------------------------------------------------------------*/
FoamFile
{
    version     2.0;
    format      ascii;
    arch        "LSB;label=32;scalar=64";
    class       surfaceScalarField;
    location    "1.62";
    object      phi;
}
// * * * * * * * * * * * * * * * * * * * * * * * * * * * * * * * * * * * * * //

dimensions      [0 3 -1 0 0 0 0];

oriented        oriented;

internalField   nonuniform List<scalar> 
23794
(
-0.007217622
0.006831763
0.0003858598
-0.007187494
-3.012813e-05
-0.006946898
-0.0002405963
-0.006585534
-0.0003613642
-0.006134948
-0.000450586
-0.005656234
-0.0004787135
-0.005184681
-0.0004715535
-0.004747074
-0.0004376067
-0.00468097
-6.610408e-05
-0.005268518
0.0005875484
-0.005840868
0.0005723491
-0.005875227
3.435939e-05
-0.005331666
-0.0005435605
-0.004639294
-0.0006923726
-0.003809849
-0.000829445
-0.002809212
-0.001000636
-0.001791571
-0.001017642
-0.0008864655
-0.0009051051
-0.0004317058
-0.0004547596
-0.001071553
0.0006398467
-0.002003511
0.0009319588
-0.00253285
0.0005293385
-0.002361575
-0.0001712749
-0.001006909
-0.001354666
0.0009245472
-0.001931456
0.00300831
-0.002083763
0.005418627
-0.002410316
0.008692272
-0.003273645
0.009466841
-0.0007745688
0.004917584
0.004549256
-0.003311148
0.008228733
-0.004824338
0.00151319
-0.001276656
-0.003547682
0.002018051
-0.003294707
0.004796905
-0.002778854
0.007980377
-0.003183472
0.007891242
8.913539e-05
0.003616223
0.004275018
0.0007999306
0.002816293
-0.001333332
0.002133262
-0.005495876
0.004162545
-0.009142386
0.00364651
-0.01118924
0.002046858
-0.01226106
0.001071811
-0.01289854
0.0006374886
-0.01323479
0.0003362488
-0.01341588
0.0001810857
-0.0134983
8.241993e-05
-0.01348955
-8.744076e-06
-0.01344309
-4.646398e-05
-0.01333584
-0.0001072498
-0.01318204
-0.0001537974
-0.01296795
-0.0002140955
-0.01272589
-0.0002420602
-0.01246227
-0.000263617
-0.01214381
-0.0003184561
-0.01180236
-0.0003414585
-0.0114491
-0.0003532598
-0.01103322
-0.0004158793
-0.01059272
-0.0004404959
-0.01012559
-0.0004671318
-0.009649051
-0.0004765377
-0.009150355
-0.0004986963
-0.008603795
-0.0005465599
-0.008061659
-0.0005421357
-0.007478634
-0.0005830247
-0.00687845
-0.0006001846
-0.006269186
-0.0006092637
-0.005649702
-0.0006194838
-0.005001453
-0.0006482496
-0.004349125
-0.0006523272
-0.003686881
-0.0006622449
-0.00300903
-0.0006778506
-0.002322841
-0.0006861894
-0.001658916
-0.0006639247
-0.0009451428
-0.0007137732
-0.0002620683
-0.0006830745
0.0003917581
-0.0006538264
0.00102049
-0.0006287316
0.001748488
-0.0007279979
0.002473886
-0.0007253988
0.003193635
-0.0007197484
0.003900374
-0.0007067395
0.00459013
-0.000689756
0.005279366
-0.0006892358
0.005946224
-0.0006668585
0.00662393
-0.000677706
0.00728141
-0.0006574793
0.007903708
-0.0006222986
0.008530112
-0.0006264037
0.009144076
-0.0006139641
0.009735633
-0.0005915565
0.01032543
-0.000589802
0.01090195
-0.0005765171
0.01142326
-0.0005213123
0.01194251
-0.0005192482
0.01244788
-0.0005053649
0.01291207
-0.0004641933
0.01337912
-0.0004670492
0.01379364
-0.0004145191
0.01418207
-0.0003884343
0.01453251
-0.0003504395
0.01484131
-0.0003087945
0.01514838
-0.0003070729
0.01541989
-0.0002715073
0.01565411
-0.0002342207
0.01584789
-0.0001937818
0.01600213
-0.0001542408
0.01613039
-0.0001282596
0.01619799
-6.759935e-05
0.0162528
-5.481309e-05
0.01624192
1.087768e-05
0.01606896
0.0001729658
0.01576677
0.0003021932
0.01534337
0.0004233982
0.01473966
0.0006037063
0.01376379
0.0009758665
0.0119763
0.001787492
0.008481551
0.003494752
0.003110745
0.005370806
-0.001705231
0.004815975
-0.004450206
0.002744976
-0.005724254
0.001274047
-0.004577696
-0.001146557
-0.000246188
-0.004331508
0.004355704
-0.004601892
0.002708685
0.001647019
-0.006963179
0.009671863
-0.01264746
0.005684285
-0.01145429
-0.001193171
-0.007896779
-0.003557514
-0.00525224
-0.002644539
-0.003862838
-0.001389402
-0.002871384
-0.0009914531
-0.000631237
-0.002240147
0.002598889
-0.003230126
0.004036943
-0.001438055
0.002700139
0.001336805
-0.0005508181
0.003250957
-0.003770761
0.003219943
-0.005242576
0.001471815
-0.004837953
-0.000404623
-0.003549665
-0.001288288
-0.001942293
-0.001607372
0.0002103504
-0.002152643
0.00192576
-0.001715409
0.00171405
0.0002117099
-0.0008194477
0.002533498
-0.00189433
0.001074882
0.0004876589
-0.002381989
0.002881034
-0.002393375
0.003260087
-0.0003790529
0.002654903
0.0006051835
0.0006046387
0.002050265
-0.00288411
0.003488748
-0.005613072
0.002728962
0.001218691
-0.01003056
0.00994083
0.0004755875
-0.009962684
-9.800158e-05
-0.009792754
-0.0004105261
-0.009580099
-0.0005740192
-0.009411768
-0.0006189176
-0.009389491
-0.0005009907
-0.009493215
-0.0003678293
-0.009514421
-0.0004164007
-0.009383865
-0.0001966601
-0.00909066
0.0002943434
-0.008353799
-0.0001645111
-0.007500169
-0.0008192711
-0.00668584
-0.001357889
-0.005803252
-0.001574961
-0.004677457
-0.001955239
-0.003399866
-0.002278228
-0.002195604
-0.002221904
-0.001270111
-0.001830598
-0.0009056099
-0.0008192605
-0.001901271
0.001635508
-0.003398069
0.002428757
-0.004068452
0.001199721
-0.003186266
-0.001053461
-0.0009258692
-0.003615063
0.001399563
-0.004256888
0.003645511
-0.004329711
0.006264533
-0.005029339
0.00990506
-0.006914172
0.01162312
-0.00249263
0.008542857
0.00762952
-0.00170194
0.01847353
-0.006609514
0.006420764
-0.003644253
-0.006512943
-0.001538665
-0.005400295
0.0005061324
-0.004823652
0.003137271
-0.005814611
0.005441676
-0.002215269
0.004083439
0.005633255
-0.002971407
0.009871138
-0.01138706
0.01054891
-0.01667036
0.009445844
-0.01887498
0.005851139
-0.01945602
0.002627892
-0.01960403
0.00121982
-0.01962034
0.0006537988
-0.01949931
0.0002152246
-0.01934496
2.673738e-05
-0.0191797
-8.284665e-05
-0.01897911
-0.0002093331
-0.01876099
-0.0002645829
-0.01847773
-0.0003905092
-0.01814988
-0.0004816459
-0.01775758
-0.0006063985
-0.01733645
-0.0006631874
-0.0168991
-0.0007009643
-0.01640284
-0.0008147177
-0.01587942
-0.0008648779
-0.01534765
-0.0008850307
-0.01474429
-0.001019247
-0.01411725
-0.001067536
-0.01345952
-0.001124862
-0.01279079
-0.001145263
-0.01210137
-0.001188113
-0.01135555
-0.001292387
-0.01061669
-0.00128099
-0.009834779
-0.001364938
-0.009030889
-0.001404075
-0.008219678
-0.001420475
-0.007400399
-0.001438762
-0.006545975
-0.001502674
-0.00568604
-0.001512262
-0.004816554
-0.001531731
-0.003929865
-0.00156454
-0.003036257
-0.001579797
-0.002164651
-0.001535531
-0.001241785
-0.00163664
-0.0003520756
-0.001572783
0.0005040671
-0.001509969
0.001333811
-0.001458476
0.002272334
-0.00166652
0.003212788
-0.001665853
0.00414735
-0.00165431
0.005065766
-0.001625155
0.005967431
-0.001591422
0.00687051
-0.001592315
0.00774796
-0.001544308
0.008638608
-0.001568354
0.009506667
-0.001525538
0.01033166
-0.001447294
0.01116424
-0.001458982
0.01198689
-0.001436619
0.01278135
-0.001386013
0.01357434
-0.001382791
0.01435654
-0.001358714
0.0150738
-0.001238571
0.01579306
-0.001238508
0.01649687
-0.001209182
0.01715481
-0.001122125
0.01781812
-0.001130367
0.01841966
-0.001016053
0.01899954
-0.0009683155
0.01953667
-0.000887566
0.02002803
-0.0008001582
0.0205245
-0.0008035451
0.02098299
-0.0007299938
0.0214004
-0.0006516302
0.02177644
-0.0005698272
0.02211155
-0.0004893459
0.02242125
-0.0004379577
0.02267074
-0.0003170985
0.02291755
-0.0003016223
0.02313835
-0.0002099148
0.02327211
3.920327e-05
0.02336693
0.0002073757
0.02343833
0.0003519944
0.02347186
0.0005701765
0.02339253
0.001055199
0.02304358
0.00213644
0.02150793
0.0050304
0.01680381
0.01007493
0.00883119
0.01278859
0.001510669
0.0100655
-0.0003501285
0.003134845
0.001449365
-0.002946051
0.002847472
-0.005729615
0.004827464
-0.006581884
-0.0004600227
0.006934506
-0.01103987
0.02025171
-0.01417645
0.008820862
-0.0116533
-0.003716321
-0.007947155
-0.007263656
-0.005324539
-0.005267155
-0.004022401
-0.00269154
-0.003136626
-0.001877228
-0.0009396539
-0.00443712
0.003096092
-0.007265872
0.005591856
-0.003933818
0.002509531
0.004419129
-0.00291344
0.008673928
-0.006011455
0.006317959
-0.006663947
0.002124306
-0.005852306
-0.001216264
-0.004274737
-0.002865856
-0.002280623
-0.003601487
0.0003037147
-0.004736981
0.002445906
-0.0038576
0.003398684
-0.0007410689
0.00116865
0.004763532
5.337344e-05
0.002190158
0.002562733
-0.004891348
0.00477109
-0.004601732
0.005260387
-0.0008683499
0.003345435
0.002520135
-0.002288258
0.007683958
-0.007641754
0.008842245
-0.009523552
0.004610759
0.001635969
-0.01265455
0.01226833
0.0008618032
-0.01281498
6.242869e-05
-0.01284798
-0.0003775253
-0.01281976
-0.0006022396
-0.0127406
-0.0006980781
-0.01262693
-0.000614659
-0.0124307
-0.0005640595
-0.01200781
-0.0008392937
-0.01138131
-0.0008231537
-0.01067846
-0.0004085087
-0.009793634
-0.001049339
-0.009018319
-0.001594587
-0.00810836
-0.002267848
-0.006989443
-0.002693878
-0.005578977
-0.003365706
-0.003920935
-0.00393627
-0.00226683
-0.003876009
-0.0009204547
-0.003176973
-0.0005915457
-0.001148169
-0.001848449
0.002892411
-0.003486339
0.004066647
-0.004132175
0.001845557
-0.002939636
-0.002245999
-0.0004371352
-0.006117564
0.001758873
-0.006452896
0.003831322
-0.00640216
0.006565643
-0.00776366
0.01078459
-0.01113312
0.01237217
-0.00408021
0.01006604
0.009935656
0.0003487546
0.02819081
-0.007265215
0.01403473
-0.007996506
-0.005781652
-0.008413379
-0.004983422
-0.007440425
-0.005796606
-0.00448808
-0.008766956
-0.0004751397
-0.006228209
-0.00230517
0.007463286
-0.01261902
0.02018499
-0.02087244
0.01880233
-0.02292467
0.01149807
-0.02291607
0.005842536
-0.02291554
0.002627362
-0.02303279
0.001337078
-0.02311867
0.0007396772
-0.02305941
0.0001559632
-0.02294433
-8.833988e-05
-0.02278955
-0.0002376278
-0.02256609
-0.0004327937
-0.02231528
-0.000515396
-0.02198649
-0.0007192959
-0.02160508
-0.0008630567
-0.02114588
-0.0010656
-0.02065168
-0.001157388
-0.02013925
-0.001213396
-0.01955376
-0.001400205
-0.01893586
-0.001482781
-0.01830934
-0.00151155
-0.01759455
-0.00173404
-0.01685164
-0.001810437
-0.01607168
-0.001904823
-0.01527829
-0.001938653
-0.01446015
-0.002006251
-0.01357204
-0.0021805
-0.0126935
-0.002159532
-0.01176105
-0.002297389
-0.01080244
-0.002362679
-0.009834306
-0.002388613
-0.008856008
-0.00241706
-0.007835199
-0.002523482
-0.006807479
-0.002539983
-0.005767337
-0.002571873
-0.004707022
-0.002624854
-0.003637348
-0.002649471
-0.002591446
-0.002581433
-0.001487595
-0.002740491
-0.0004219598
-0.002638418
0.0006059874
-0.002537916
0.001609589
-0.002462078
0.002733734
-0.002790665
0.0038609
-0.002793019
0.004980453
-0.002773863
0.006079019
-0.002723722
0.007157037
-0.002669439
0.008235937
-0.002671215
0.009282841
-0.002591213
0.01034514
-0.002630655
0.01137879
-0.00255919
0.01236035
-0.00242885
0.01335078
-0.002449413
0.01432798
-0.002413821
0.01527074
-0.002328764
0.01621198
-0.00232404
0.01713952
-0.002286252
0.01798823
-0.002087274
0.01884001
-0.002090295
0.01967238
-0.00204155
0.0204482
-0.001897949
0.02123257
-0.001914732
0.02194016
-0.001723647
0.02262285
-0.001651008
0.02325303
-0.00151774
0.02382623
-0.001373359
0.02440726
-0.00138458
0.02494061
-0.001263342
0.02542556
-0.001136574
0.02585967
-0.001003941
0.02624459
-0.0008742668
0.02659952
-0.0007928907
0.0268805
-0.0005980754
0.0271612
-0.0005823194
0.02738785
-0.0004365666
0.02747209
-4.503603e-05
0.02749353
0.0001859388
0.02748505
0.0003604684
0.02744655
0.0006086752
0.02736334
0.001138412
0.02735335
0.002146426
0.02764894
0.004734816
0.02705456
0.01066931
0.02319458
0.01664857
0.01786875
0.01539133
0.01477686
0.006226735
0.01363725
-0.00180644
0.01082828
-0.002920649
0.006268842
-0.002022447
-0.002298444
0.01550179
-0.01072
0.02867327
-0.01263128
0.01073214
-0.01021113
-0.006136466
-0.00581636
-0.01165843
-0.003289525
-0.00779399
-0.002522572
-0.003458494
-0.002193041
-0.002206759
-0.0007366106
-0.00589355
0.002951855
-0.01095434
0.00517916
-0.006161123
0.0007472483
0.008851041
-0.004781748
0.01420292
-0.007052545
0.008588755
-0.00779
0.002861761
-0.006889083
-0.002117181
-0.004985244
-0.004769695
-0.002566094
-0.006020637
0.0005715428
-0.007874617
0.00281551
-0.006101568
0.004454489
-0.002380048
0.004207295
0.005010726
0.003113181
0.003284273
0.004657313
-0.006435481
0.006581381
-0.006525799
0.006391526
-0.0006784958
0.001632313
0.007279348
-0.00637769
0.01569396
-0.01063011
0.01309467
-0.0116258
0.005606452
0.002278499
-0.01566045
0.01515619
0.00136607
-0.01585998
0.0002619568
-0.01587923
-0.0003582773
-0.01575601
-0.0007254534
-0.01549963
-0.0009544658
-0.01516419
-0.0009500907
-0.01477207
-0.0009561886
-0.01422517
-0.001386187
-0.01354972
-0.001498609
-0.0129124
-0.001045828
-0.01201417
-0.001947569
-0.01113585
-0.002472909
-0.01005631
-0.003347381
-0.00873602
-0.004014171
-0.007045913
-0.005055812
-0.005014705
-0.005967478
-0.002888414
-0.006002299
-0.0008404831
-0.005224904
0.000222299
-0.002210952
-0.0009081706
0.004022881
-0.002759127
0.005917604
-0.003495155
0.002581585
-0.002367591
-0.003373564
-4.82074e-05
-0.008436947
0.001705359
-0.008206463
0.003517273
-0.008214075
0.006499198
-0.01074558
0.01148243
-0.01611635
0.01327924
-0.00587702
0.01105473
0.01216016
0.001613607
0.03763194
-0.008386166
0.02403451
-0.01376413
-0.0004036844
-0.01688393
-0.001863624
-0.01717865
-0.005501892
-0.01543221
-0.01051339
-0.01405909
-0.007601325
-0.01736125
0.01076545
-0.02411668
0.02694041
-0.02747985
0.02216551
-0.0271982
0.01121642
-0.02722738
0.005871719
-0.02759838
0.00299836
-0.02786081
0.001599505
-0.02800311
0.0008819834
-0.02791635
6.920383e-05
-0.0277532
-0.0002514982
-0.02754155
-0.0004492728
-0.02724972
-0.0007246294
-0.02692835
-0.0008367566
-0.02651605
-0.001131598
-0.02604289
-0.001336222
-0.0254776
-0.001630882
-0.02487121
-0.001763782
-0.02424441
-0.001840199
-0.0235321
-0.002112515
-0.02278115
-0.002233732
-0.02202056
-0.002272137
-0.02115745
-0.002597152
-0.02025903
-0.002708856
-0.01931726
-0.002846588
-0.01836072
-0.002895199
-0.01737604
-0.00299093
-0.01630632
-0.003250216
-0.01525088
-0.003214978
-0.01412956
-0.003418708
-0.01297866
-0.003513574
-0.01181553
-0.00355175
-0.0106407
-0.003591886
-0.009415103
-0.003749079
-0.00818126
-0.003773826
-0.006932203
-0.00382093
-0.005661357
-0.0038957
-0.004377245
-0.003933584
-0.003120847
-0.003837831
-0.001794012
-0.004067326
-0.0005124462
-0.003919984
0.0007263459
-0.003776708
0.001943898
-0.00367963
0.003296636
-0.004143404
0.004650404
-0.004146786
0.005997256
-0.004120715
0.007316512
-0.004042978
0.008609212
-0.003962139
0.009901257
-0.00396326
0.01115369
-0.003843643
0.0124266
-0.003903566
0.0136625
-0.003795096
0.01483938
-0.003605724
0.01602839
-0.003638425
0.01719992
-0.003585347
0.01833405
-0.003462899
0.01946868
-0.003458664
0.0205839
-0.003401474
0.02160873
-0.003112106
0.02263825
-0.003119815
0.0236435
-0.0030468
0.02458353
-0.002837983
0.02553455
-0.002865745
0.02639463
-0.002583729
0.02722493
-0.002481312
0.02799356
-0.002286366
0.02869759
-0.002077393
0.02941078
-0.002097772
0.03006685
-0.001919405
0.03066803
-0.001737753
0.03120731
-0.001543223
0.03169114
-0.001358104
0.03214105
-0.001242798
0.03250361
-0.0009606362
0.03286692
-0.0009456261
0.03316993
-0.0007395832
0.0333028
-0.0001779016
0.03334772
0.0001410163
0.03334006
0.0003681296
0.03327147
0.0006772617
0.03306624
0.00134365
0.03273483
0.00247783
0.03262728
0.00484237
0.03335049
0.009946094
0.03367985
0.01631922
0.03251762
0.01655355
0.0306832
0.008061158
0.02837383
0.0005029323
0.02315323
0.002299951
0.01225793
0.00887285
-0.001169807
0.02892953
-0.00815906
0.03566252
-0.009829615
0.01240269
-0.007239304
-0.008726776
-0.002180533
-0.0167172
0.0009092647
-0.01088379
0.001201066
-0.003750295
0.0004816322
-0.001487325
0.0004007296
-0.005812647
0.002523127
-0.01307673
0.003351975
-0.006989971
-0.00152208
0.01372509
-0.006077098
0.01875794
-0.008182791
0.01069445
-0.009283839
0.003962808
-0.008183989
-0.00321703
-0.005871931
-0.007081754
-0.002922519
-0.008970049
0.0008264801
-0.01162362
0.003638919
-0.008914007
0.005605549
-0.004346678
0.006289346
0.00432693
0.005621617
0.003952001
0.006399435
-0.007213298
0.007695506
-0.007821871
0.005405071
0.001611939
-0.002556801
0.01524122
-0.01048533
0.02362249
-0.01309616
0.0157055
-0.01416127
0.006671564
0.003273411
-0.01886662
0.01834555
0.001887138
-0.01903527
0.0004306009
-0.01895889
-0.000434655
-0.01873911
-0.0009452295
-0.01839267
-0.001300905
-0.01800678
-0.001335985
-0.01762496
-0.001338005
-0.01710756
-0.001903586
-0.01638848
-0.002217691
-0.01572234
-0.001711965
-0.01465618
-0.003013732
-0.01362485
-0.003504241
-0.01235785
-0.004614383
-0.01080431
-0.005567705
-0.008804952
-0.007055174
-0.006376825
-0.008395606
-0.003801674
-0.00857745
-0.00121781
-0.007808769
0.0008927373
-0.004321499
0.0005162536
0.004399365
-0.001453184
0.007887041
-0.002647873
0.003776274
-0.001889617
-0.00413182
-2.741722e-05
-0.01029915
0.001067303
-0.009301183
0.002642486
-0.009789257
0.005886264
-0.01398936
0.01163731
-0.0218674
0.01375666
-0.007996371
0.01106788
0.01484894
0.001655131
0.04704468
-0.01079071
0.03648035
-0.02053441
0.009340015
-0.02582171
0.003423677
-0.02786126
-0.003462348
-0.02891804
-0.009456605
-0.03045528
-0.006064093
-0.03245497
0.01276514
-0.03334494
0.02783038
-0.03250079
0.02132136
-0.03199363
0.01070926
-0.03243189
0.006309983
-0.03287184
0.003438308
-0.03316927
0.00189694
-0.03335502
0.001067733
-0.03328645
6.259601e-07
-0.0331188
-0.0004191433
-0.03289227
-0.0006757996
-0.03255298
-0.001063923
-0.03219407
-0.001195662
-0.03171027
-0.001615398
-0.03115907
-0.001887426
-0.03049015
-0.002299798
-0.02977272
-0.002481219
-0.02903395
-0.002578962
-0.02818509
-0.002961377
-0.02729034
-0.003128483
-0.02638736
-0.003175121
-0.02535804
-0.003626473
-0.0242834
-0.003783489
-0.02315757
-0.003972426
-0.02201603
-0.004036733
-0.02084048
-0.004166483
-0.0195569
-0.004533796
-0.01829745
-0.004474424
-0.01695302
-0.004763145
-0.01557668
-0.004889915
-0.01418389
-0.004944538
-0.01277918
-0.004996596
-0.01131037
-0.005217885
-0.009831283
-0.005252914
-0.008330927
-0.005321286
-0.006808159
-0.005418469
-0.005267904
-0.005473839
-0.003763381
-0.005342354
-0.002167546
-0.005663161
-0.0006229954
-0.005464534
0.0008709377
-0.005270641
0.002346716
-0.005155408
0.003976984
-0.005773671
0.005603432
-0.005773234
0.007224783
-0.005742066
0.008803979
-0.005622174
0.01034599
-0.00550415
0.01188686
-0.005504135
0.01337964
-0.005336422
0.01490303
-0.005426954
0.01637612
-0.005268184
0.01778624
-0.005015846
0.01921376
-0.005065948
0.020612
-0.004983584
0.02197139
-0.00482229
0.02333671
-0.004823979
0.0246686
-0.004733369
0.02589504
-0.004338544
0.02712959
-0.004354359
0.02833097
-0.004248183
0.02945066
-0.003957678
0.03058995
-0.004005037
0.03161371
-0.003607486
0.03260148
-0.003469081
0.03351393
-0.003198816
0.03434533
-0.002908788
0.03519113
-0.002943578
0.03596055
-0.002688826
0.03666958
-0.002446776
0.03729686
-0.002170507
0.03785771
-0.001918952
0.03838179
-0.001766881
0.03878593
-0.001364772
0.03920072
-0.001360417
0.03953609
-0.001074957
0.03966222
-0.0003040328
0.03968567
0.0001175754
0.03964448
0.0004093113
0.03953193
0.0007898187
0.03928639
0.001589182
0.03894042
0.002823806
0.03858263
0.005200156
0.0389424
0.009586324
0.04030453
0.01495709
0.04126766
0.01559042
0.04043666
0.008892159
0.03811967
0.002819924
0.0335572
0.006862424
0.02095208
0.02147797
0.00538166
0.04449995
-0.002418634
0.04346281
-0.00391029
0.01389435
-0.000703068
-0.011934
0.00389105
-0.02131132
0.007223836
-0.01421657
0.007383895
-0.003910354
0.005264456
0.0006321139
0.002996024
-0.003544215
0.002270812
-0.01235152
0.0009586096
-0.005677769
-0.003481013
0.01816472
-0.007065446
0.02234238
-0.0095918
0.0132208
-0.01106791
0.005438916
-0.009786068
-0.00449887
-0.007067444
-0.009800377
-0.003503509
-0.01253398
0.001032211
-0.01615934
0.004668414
-0.01255021
0.006963124
-0.006641388
0.007629882
0.003660171
0.006943559
0.004638324
0.007299958
-0.007569697
0.00707389
-0.007595802
0.001443268
0.007242561
-0.008411276
0.02509576
-0.01428372
0.02949493
-0.01579518
0.01721697
-0.01727636
0.008152746
0.004342601
-0.02249021
0.02200291
0.00237444
-0.02256146
0.0005018433
-0.02240064
-0.0005954699
-0.02211665
-0.001229218
-0.02173052
-0.001687034
-0.02134577
-0.001720742
-0.02099272
-0.001691056
-0.02048309
-0.00241321
-0.0196092
-0.003091577
-0.01888069
-0.002440475
-0.017569
-0.004325429
-0.01636393
-0.004709305
-0.01487541
-0.006102905
-0.0130612
-0.00738192
-0.01073596
-0.009380415
-0.007857781
-0.01127378
-0.004742714
-0.01169252
-0.001589511
-0.01096197
0.001244557
-0.007155567
0.001750167
0.003893754
3.748766e-05
0.009599721
-0.0018153
0.005629062
-0.001702272
-0.004244848
-0.0005392604
-0.01146216
-0.0004232453
-0.009417198
0.0009769603
-0.01118946
0.004177806
-0.01719021
0.01048317
-0.02817276
0.01270856
-0.01022176
0.009129905
0.0184276
-4.814261e-05
0.05622273
-0.01449694
0.05092915
-0.02672283
0.0215659
-0.03261816
0.00931901
-0.03573605
-0.0003444551
-0.03875515
-0.006437508
-0.04196746
-0.002851786
-0.04274766
0.01354534
-0.0403514
0.02543412
-0.03847575
0.01944572
-0.03865106
0.01088456
-0.03919769
0.006856615
-0.0396968
0.003937418
-0.04000871
0.002208852
-0.04021433
0.001273351
-0.04006724
-0.0001464653
-0.03984217
-0.0006442108
-0.03955207
-0.0009659008
-0.03912203
-0.001493969
-0.03868792
-0.001629766
-0.0380938
-0.002209516
-0.03742691
-0.002554316
-0.03661438
-0.003112332
-0.03574374
-0.003351856
-0.03485521
-0.003467499
-0.03382814
-0.003988444
-0.03274936
-0.004207264
-0.03166762
-0.004256854
-0.0304298
-0.004864297
-0.02913334
-0.00507995
-0.0277815
-0.005324265
-0.02641102
-0.005407209
-0.02500356
-0.005573944
-0.02345634
-0.006081021
-0.0219532
-0.005977559
-0.0203365
-0.006379847
-0.01868654
-0.006539879
-0.01701706
-0.006614014
-0.0153376
-0.006676054
-0.01358119
-0.006974302
-0.0118156
-0.007018501
-0.01001533
-0.007121556
-0.008192187
-0.007241609
-0.006337194
-0.007328832
-0.004542191
-0.007137357
-0.002627209
-0.007578143
-0.0007584243
-0.007333319
0.001045869
-0.007074935
0.002834362
-0.006943901
0.004804356
-0.007743665
0.006763165
-0.007732043
0.008703585
-0.007682486
0.01057923
-0.007497819
0.01241059
-0.007335513
0.01424668
-0.00734022
0.01602956
-0.007119298
0.01786247
-0.007259868
0.01962141
-0.007027125
0.0213193
-0.006713732
0.02304465
-0.006791302
0.02471736
-0.006656291
0.02634928
-0.006454213
0.02800563
-0.006480334
0.02960138
-0.00632912
0.03107196
-0.00580912
0.03255992
-0.005842321
0.03400501
-0.005693271
0.03534643
-0.005299094
0.03672109
-0.005379697
0.03795363
-0.004840032
0.03914347
-0.004658918
0.04024078
-0.004296125
0.04124602
-0.003914033
0.04227443
-0.003971985
0.04320035
-0.003614743
0.0440687
-0.003315132
0.04482878
-0.002930579
0.04551824
-0.002608421
0.04616488
-0.002413513
0.04667025
-0.001870148
0.04718744
-0.00187761
0.04760027
-0.001487785
0.04779513
-0.0004988939
0.04785325
5.945996e-05
0.04784841
0.0004141471
0.04776281
0.000875425
0.0474921
0.00185989
0.04711782
0.003198085
0.04669516
0.005622822
0.04661669
0.00966479
0.04734547
0.01422831
0.04809171
0.01484418
0.04724241
0.009741465
0.04472638
0.005335952
0.04185423
0.009734567
0.03220288
0.03112933
0.01755338
0.05914944
0.008215657
0.05280054
0.005473754
0.01663625
0.008367559
-0.0148278
0.01319856
-0.02614232
0.01597899
-0.016997
0.01590148
-0.003832839
0.01278372
0.003749874
0.007983769
0.001255731
0.003271504
-0.007639257
-0.0005241883
-0.001882077
-0.004501646
0.02214217
-0.007859425
0.02570016
-0.01116046
0.01652183
-0.01313052
0.007408986
-0.01173254
-0.005896854
-0.008714337
-0.01281858
-0.004423217
-0.0168251
0.001180127
-0.02176268
0.005755608
-0.01712569
0.008739512
-0.009625293
0.009056375
0.003343309
0.0079126
0.005782099
0.00737769
-0.007034787
0.003333617
-0.003551729
-0.005963981
0.01654016
-0.01483089
0.03396268
-0.0180287
0.03269273
-0.01917847
0.01836674
-0.02095211
0.009926387
0.005393405
-0.0267131
0.02632456
0.002762973
-0.0266296
0.0004183453
-0.02630545
-0.0009196157
-0.02590745
-0.001627226
-0.02544902
-0.002145461
-0.02502216
-0.002147598
-0.02460964
-0.002103576
-0.02406665
-0.0029562
-0.02287579
-0.004282438
-0.02208559
-0.003230675
-0.02042896
-0.005982058
-0.01906546
-0.006072808
-0.01737938
-0.007788983
-0.01529461
-0.009466696
-0.01267299
-0.01200203
-0.009394924
-0.01455184
-0.005688925
-0.01539852
-0.001801678
-0.01484922
0.001496275
-0.01045352
0.002459585
0.002930445
0.001074387
0.01098492
-0.001241153
0.007944602
-0.001931361
-0.003554641
-0.001876439
-0.01151708
-0.003216035
-0.008077602
-0.002683294
-0.0117222
0.0004964204
-0.02036992
0.006750991
-0.03442733
0.008658333
-0.0121291
0.003860791
0.02322514
-0.006080632
0.06616415
-0.02022665
0.06507516
-0.03278818
0.03412744
-0.03830094
0.01483177
-0.04189893
0.003253537
-0.0457626
-0.002573846
-0.04961574
0.001001358
-0.05020701
0.01413662
-0.04760232
0.02282943
-0.04620622
0.01804961
-0.04657029
0.01124864
-0.04699193
0.00727825
-0.04755528
0.004500763
-0.04787367
0.002527246
-0.04813305
0.001532729
-0.04800291
-0.0002766011
-0.0477488
-0.0008983233
-0.04740858
-0.001306122
-0.04686737
-0.002035176
-0.04638185
-0.002115292
-0.04565533
-0.002936033
-0.04487171
-0.003337934
-0.043898
-0.004086048
-0.04284828
-0.004401569
-0.04179446
-0.004521318
-0.04056713
-0.005215778
-0.03927271
-0.005501684
-0.0379743
-0.005555266
-0.03649932
-0.006339276
-0.03494637
-0.006632903
-0.0333274
-0.006943226
-0.03166619
-0.007068429
-0.03000372
-0.007236412
-0.02812891
-0.007955829
-0.02634022
-0.007766248
-0.02438925
-0.008330818
-0.02241487
-0.008514262
-0.0204196
-0.008609279
-0.01837704
-0.008718615
-0.01629039
-0.009060955
-0.01418922
-0.009119666
-0.0120351
-0.009275678
-0.009876801
-0.009399911
-0.00761269
-0.009592943
-0.0054908
-0.009259247
-0.003193875
-0.009875069
-0.0009261711
-0.009601022
0.001262042
-0.009263148
0.003428844
-0.009110703
0.005813336
-0.01012816
0.008174997
-0.0100937
0.01045377
-0.009961261
0.01267304
-0.00971709
0.01486409
-0.009526561
0.01705656
-0.009532689
0.01919405
-0.00925679
0.02142203
-0.009487849
0.02353098
-0.009136076
0.02556824
-0.008750992
0.0276425
-0.008865562
0.02966377
-0.00867756
0.03162629
-0.008416732
0.03360651
-0.008460554
0.03552351
-0.008246122
0.03728141
-0.007567015
0.03906319
-0.007624101
0.04077487
-0.007404948
0.0423963
-0.006920534
0.04404616
-0.007029551
0.04551163
-0.006305498
0.04694942
-0.006096712
0.04824486
-0.005591562
0.04944778
-0.005116958
0.05068486
-0.005209061
0.05177174
-0.004701627
0.05282182
-0.004365208
0.05370608
-0.003814844
0.05453038
-0.003432723
0.05530787
-0.003191
0.05588181
-0.002444089
0.0564973
-0.002493103
0.05700827
-0.001998751
0.05720533
-0.000695954
0.05726096
3.826189e-06
0.05720597
0.000469139
0.05708825
0.0009931473
0.05676607
0.002182066
0.05639039
0.003573773
0.05602727
0.005985936
0.05598012
0.009711937
0.05643319
0.01377524
0.05665997
0.0146174
0.05550042
0.01090101
0.05228087
0.008555506
0.04992778
0.01208765
0.04545355
0.03560356
0.03521232
0.06939067
0.02529839
0.06271446
0.02112653
0.02080811
0.02362419
-0.01732546
0.02656818
-0.0290863
0.02763961
-0.01806844
0.02687403
-0.003067257
0.02303073
0.007593174
0.01604
0.00824646
0.006955913
0.001444829
7.615514e-05
0.00499768
-0.004076719
0.02629505
-0.008407174
0.03003061
-0.01287642
0.02099107
-0.01573691
0.01026948
-0.01410005
-0.007533712
-0.01086561
-0.01605302
-0.005668576
-0.02202214
0.001369585
-0.02880084
0.007036716
-0.02279282
0.01104696
-0.01363554
0.01097236
0.003417908
0.008911757
0.007842705
0.005923692
-0.004046722
-0.003068373
0.005440335
-0.01453656
0.02800835
-0.02084888
0.04027499
-0.0221296
0.03397345
-0.02347192
0.01970906
-0.02527593
0.01173039
0.006442044
-0.03180424
0.03161521
0.002952003
-0.03145798
7.20875e-05
-0.03073056
-0.001647041
-0.02996074
-0.002397048
-0.02925523
-0.002850971
-0.02860356
-0.002799262
-0.02787626
-0.002830878
-0.02729212
-0.003540336
-0.02543244
-0.00614212
-0.02462352
-0.004039602
-0.0224434
-0.008162178
-0.02102472
-0.007491482
-0.0194749
-0.009338808
-0.01713873
-0.01180286
-0.0142478
-0.01489296
-0.0107413
-0.01805835
-0.006564385
-0.01957543
-0.001807778
-0.01960583
0.001892282
-0.01415358
0.002855618
0.001967109
0.001421463
0.01241907
-0.001074784
0.01044085
-0.003231548
-0.001397878
-0.00523399
-0.009514636
-0.008303448
-0.005008145
-0.008720313
-0.01130534
-0.006923843
-0.02216639
-0.001315351
-0.04003582
-0.0007017849
-0.01274267
-0.005084381
0.02760774
-0.01549655
0.07657632
-0.02912357
0.07870218
-0.0402852
0.04528907
-0.04522679
0.01977336
-0.04942124
0.007447984
-0.05368565
0.001690568
-0.05770293
0.005018631
-0.05870292
0.01513661
-0.0568434
0.02096991
-0.05589216
0.01709837
-0.05620653
0.01156301
-0.05657423
0.007645949
-0.05727359
0.005200119
-0.05749755
0.00275121
-0.05783943
0.001874609
-0.05757536
-0.0005406771
-0.05726895
-0.00120473
-0.05692225
-0.001652821
-0.05620971
-0.002747718
-0.05566137
-0.002663628
-0.05477643
-0.003820979
-0.05386127
-0.004253087
-0.05267428
-0.005273044
-0.05138534
-0.005690506
-0.05014309
-0.005763564
-0.04869907
-0.006659804
-0.04708912
-0.007111629
-0.04553699
-0.007107399
-0.04379231
-0.008083957
-0.04194726
-0.00847795
-0.03997437
-0.008916122
-0.03795975
-0.009083046
-0.03605526
-0.009140904
-0.03372264
-0.01028844
-0.03162538
-0.009863513
-0.02921157
-0.01074463
-0.02689719
-0.01082864
-0.02451463
-0.01099184
-0.02202637
-0.01120688
-0.01955951
-0.01152781
-0.01701928
-0.0116599
-0.01442174
-0.01187322
-0.01190182
-0.01191984
-0.009151801
-0.01234296
-0.006670154
-0.01174089
-0.00388094
-0.01266428
-0.001144738
-0.01233722
0.001527817
-0.0119357
0.004173842
-0.01175673
0.007081651
-0.01303597
0.009810634
-0.01282269
0.0124634
-0.01261402
0.01513293
-0.01238663
0.01780892
-0.01220255
0.02045447
-0.01217824
0.02299155