/*--------------------------------*- C++ -*----------------------------------*\
| =========                 |                                                 |
| \\      /  F ield         | OpenFOAM: The Open Source CFD Toolbox           |
|  \\    /   O peration     | Version:  2406                                  |
|   \\  /    A nd           | Website:  www.openfoam.com                      |
|    \\/     M anipulation  |                                                 |
\*---------------------------------------------------------------------------*/
FoamFile
{
    version     2.0;
    format      ascii;
    arch        "LSB;label=32;scalar=64";
    class       volScalarField;
    location    "2.4";
    object      p;
}
// * * * * * * * * * * * * * * * * * * * * * * * * * * * * * * * * * * * * * //

dimensions      [0 2 -2 0 0 0 0];

internalField   nonuniform List<scalar> 
217010
(
-212.6839
-136.8542
-141.1168
-142.4689
-144.0681
-141.4228
-138.3472
-133.0366
-136.3936
-139.3339
-141.7334
-139.6179
-137.9599
-137.0184
-135.0598
-134.8245
-135.0322
-133.3032
-130.4519
-129.4727
-131.1663
-135.4081
-140.582
-145.0987
-147.8416
-147.1894
-146.0299
-150.4266
-141.7147
-135.7434
-152.0396
-154.451
-147.9924
-163.1835
-183.8326
-195.1609
-197.3141
-192.7714
-183.8381
-171.2371
-154.8333
-135.3034
-112.7423
-91.10622
-73.67619
-59.00391
-50.25796
-46.31246
-47.93931
-47.80548
-77.198
-65.78857
-69.98797
-67.53089
-63.08071
-57.41185
-52.79692
-49.79468
-46.24194
-46.26294
-47.11559
-46.52806
-44.96614
-44.3975
-44.43032
-45.96275
-48.28412
-50.82205
-57.30906
-67.93305
-79.29597
-87.03119
-80.65161
-68.90034
-58.913
-58.12437
-72.87201
-96.30472
-116.3293
-113.1295
-94.85195
-86.75574
-88.4151
-90.86538
-92.40581
-93.94633
-96.38263
-99.17812
-101.9226
-104.3569
-106.4909
-108.1846
-109.433
-110.3683
-111.0356
-111.6123
-112.1674
-112.8895
-114.3764
-116.2863
-116.7276
-114.0468
-109.536
-105.8631
-104.1213
-103.1075
-101.7542
-99.68072
-96.64674
-92.99408
-89.31218
-85.8347
-82.4356
-79.48041
-76.78928
-74.27114
-72.13744
-70.24361
-68.37271
-66.54723
-64.80239
-63.05123
-61.29614
-59.62162
-58.06031
-56.55222
-55.06448
-53.61851
-52.23953
-50.88438
-49.58266
-48.33973
-47.16713
-46.16032
-45.45113
-44.96847
-44.91365
-45.36183
-45.96601
-46.71406
-47.6541
-48.79741
-50.02438
-51.08419
-51.78182
-51.97505
-51.58128
-50.42434
-48.82017
-45.2439
-44.51694
-39.47159
-36.74444
-38.74127
-38.37488
-35.25725
-30.66396
-26.56368
-23.16517
-20.85167
-19.80715
-20.02089
-21.73335
-25.73867
-32.08275
-41.20331
-57.33574
-75.24127
-94.16351
-112.4806
-129.3921
-145.5055
-160.3642
-170.7902
-173.5536
-166.8358
-150.3961
-125.6788
-103.4421
-95.67935
-92.89584
-95.96926
-109.3375
-112.3201
-107.8703
-100.8051
-86.44029
-74.39886
-74.80357
-89.17887
-100.8509
-105.3741
-103.0354
-98.23485
-95.49034
-95.7651
-96.39176
-99.10882
-92.84422
-151.3003
-74.2116
-64.72087
-52.97699
-46.08356
-40.15042
-35.24341
-31.00152
-27.15752
-23.81257
-20.76937
-18.00193
-15.4678
-13.07943
-10.82279
-8.708488
-6.747993
-4.911895
-3.147473
-1.459959
0.1534783
1.697381
3.16253
4.550974
5.915099
7.249712
8.553545
9.802825
10.98504
12.12683
13.25217
14.36486
15.45649
16.49629
17.50663
18.5099
19.49416
20.46819
21.42949
22.39345
23.31812
24.26005
25.15919
26.05125
26.93013
27.80549
28.66515
29.50947
30.35647
31.21911
32.08001
32.92177
33.74933
34.57519
35.42641
36.29104
37.14452
38.00054
38.86688
39.73701
40.62125
41.5092
42.3939
43.31415
44.31482
45.34664
46.37891
47.43264
48.48327
49.59873
51.00664
53.25081
48.6373
47.47863
46.50368
45.20236
43.89993
42.73473
41.62486
40.55812
39.57822
38.64167
37.65605
36.64524
35.65754
34.71544
33.7933
32.86696
31.92537
30.98185
30.06256
29.14948
28.21728
27.28108
26.35277
25.40647
24.46306
23.49987
22.49699
21.50455
20.53015
19.54509
18.52903
17.46115
16.42655
15.34531
14.2339
13.11571
11.98555
10.80821
9.607229
8.399408
7.158634
5.846711
4.469078
3.083637
1.698493
0.2533574
-1.268502
-2.845102
-4.501117
-6.231851
-8.021215
-9.88451
-11.78645
-13.8258
-16.01204
-18.29697
-20.73699
-23.30617
-26.09026
-29.11991
-32.3604
-35.85919
-39.78337
-44.17816
-49.18743
-54.7801
-61.29549
-69.35149
-78.77461
-94.80421
-108.6557
48.97418
47.6396
46.64541
45.36655
44.0534
42.87043
41.74858
40.6711
39.6807
38.73873
37.75131
36.73699
35.74301
34.79454
33.86794
32.93845
31.99395
31.04658
30.12347
29.20727
28.27251
27.33359
26.40267
25.45384
24.50849
23.54332
22.53854
21.54347
20.56635
19.5793
18.56185
17.49112
16.45626
15.37225
14.25869
13.13876
12.00698
10.82772
9.625105
8.415538
7.173229
5.859158
4.479347
3.092086
1.705382
0.2578773
-1.266001
-2.844405
-4.503012
-6.236809
-8.029443
-9.896187
-11.80044
-13.84547
-16.03695
-18.32682
-20.77392
-23.34893
-26.14301
-29.18342
-32.43385
-35.94556
-39.88695
-44.29937
-49.34721
-54.97269
-61.5393
-69.65681
-79.27201
-95.2692
-111.1027
-76.07608
-65.07731
-53.34801
-46.31193
-40.33653
-35.3906
-31.12557
-27.25024
-23.8922
-20.83849
-18.05976
-15.51775
-13.12245
-10.85896
-8.738007
-6.771837
-4.932122
-3.163971
-1.472752
0.1439223
1.690694
3.158942
4.549202
5.914986
7.251423
8.557154
9.808532
10.99226
12.13556
13.26249
14.37683
15.47015
16.51156
17.52321
18.52816
19.51392
20.48974
21.45298
22.41951
23.34475
24.28901
25.18967
26.08356
26.96449
27.84164
28.70316
29.54962
30.39927
31.26449
32.12756
32.97115
33.80117
34.6305
35.48534
36.35322
37.2097
38.06932
38.93953
39.81398
40.70233
41.59429
42.48515
43.41482
44.42469
45.46328
46.50201
47.56174
48.61985
49.76476
51.24444
53.17141
-44.38791
-39.83728
-36.70827
-38.79672
-38.78806
-35.84247
-31.21911
-26.92287
-23.41163
-20.99233
-19.85313
-19.991
-21.60162
-25.49264
-31.72596
-40.67012
-56.61727
-74.475
-93.42517
-111.8195
-128.8259
-145.0222
-159.9785
-170.6144
-173.6351
-167.1404
-150.9286
-126.1731
-103.6705
-95.72819
-92.93053
-96.01704
-109.3551
-112.3729
-107.9548
-100.929
-86.49699
-74.48046
-74.95142
-89.41057
-101.0708
-105.4974
-103.0309
-98.144
-95.44045
-95.79174
-96.46303
-99.10689
-94.31171
-140.6387
-74.31417
-66.36685
-69.92473
-68.04434
-63.72055
-57.98446
-53.1879
-50.14181
-46.41744
-46.24491
-47.13212
-46.6277
-45.05105
-44.42101
-44.38424
-45.81912
-48.09971
-50.55846
-56.85556
-67.3437
-78.81602
-87.09425
-81.2141
-69.68698
-59.31782
-58.14875
-72.37183
-95.59245
-116.2385
-113.5393
-95.31607
-86.80051
-88.42101
-90.84057
-92.35704
-93.88451
-96.32873
-99.13791
-101.8949
-104.3347
-106.4761
-108.1776
-109.4294
-110.3681
-111.0366
-111.6146
-112.1716
-112.8883
-114.3743
-116.2899
-116.7273
-114.0437
-109.52
-105.8394
-104.1043
-103.0985
-101.7358
-99.6464
-96.59692
-92.932
-89.24443
-85.77337
-82.36978
-79.41066
-76.71689
-74.21206
-72.07353
-70.18369
-68.3113
-66.48303
-64.73564
-62.98208
-61.22603
-59.55172
-57.99006
-56.47998
-54.9902
-53.54284
-52.16241
-50.80586
-49.50399
-48.26253
-47.09632
-46.10275
-45.41201
-44.95541
-44.93009
-45.40584
-46.02709
-46.79338
-47.75625
-48.92091
-50.15382
-51.19732
-51.85261
-51.97693
-51.50703
-50.26619
-48.4394
-44.93401
-197.2788
-138.9591
-141.2636
-142.4874
-144.1801
-141.5752
-138.4931
-133.1001
-136.3785
-139.3193
-141.775
-139.6564
-137.9848
-137.0395
-135.0635
-134.8184
-135.0416
-133.3112
-130.4565
-129.488
-131.2026
-135.4818
-140.6724
-145.2023
-147.9679
-147.2952
-146.1054
-150.4135
-141.7153
-136.0515
-152.5532
-154.4599
-148.2398
-164.1654
-184.7828
-195.5484
-197.191
-192.1995
-182.9259
-170.0251
-153.3114
-133.517
-110.8419
-89.36967
-72.19248
-57.94395
-49.69702
-46.25617
-48.02995
-49.25523
-181.3857
-139.7416
-141.5234
-142.4265
-144.2932
-141.8317
-138.7086
-133.2311
-136.4143
-139.3713
-141.916
-139.7931
-138.0766
-137.08
-135.068
-134.8101
-135.0705
-133.3446
-130.4826
-129.5284
-131.2696
-135.6026
-140.7921
-145.2843
-148.1348
-147.6546
-146.4918
-150.481
-141.7556
-136.6286
-153.2496
-154.5881
-148.9925
-166.2298
-186.4683
-196.282
-197.5814
-192.4062
-182.9792
-169.9239
-152.9314
-132.9085
-110.0254
-88.46467
-71.45794
-57.33748
-49.36743
-46.26651
-48.21204
-49.72555
-72.38841
-66.24672
-69.83792
-68.10381
-63.98521
-58.33318
-53.44868
-50.34123
-46.47739
-46.24468
-47.12922
-46.69784
-45.0885
-44.43128
-44.33819
-45.75597
-48.05647
-50.43379
-56.59699
-67.06579
-78.67267
-87.70274
-82.53682
-70.6065
-59.75246
-58.40115
-72.2246
-95.39579
-116.7801
-114.3952
-95.30676
-86.64913
-88.40741
-90.80245
-92.39066
-93.96134
-96.42899
-99.23205
-101.9578
-104.3627
-106.491
-108.1908
-109.437
-110.3752
-111.0404
-111.6181
-112.1808
-112.8922
-114.3799
-116.3082
-116.7609
-114.0682
-109.5276
-105.831
-104.1069
-103.1016
-101.7314
-99.65565
-96.62204
-92.95026
-89.24539
-85.76729
-82.35946
-79.40346
-76.71262
-74.20341
-72.06281
-70.16992
-68.29426
-66.46276
-64.71715
-62.96343
-61.20372
-59.52634
-57.96486
-56.45436
-54.96347
-53.51398
-52.13477
-50.77721
-49.4751
-48.23368
-47.06827
-46.07632
-45.39644
-44.95205
-44.94898
-45.4395
-46.07117
-46.8418
-47.81389
-48.98275
-50.20387
-51.21853
-51.84137
-51.9661
-51.4469
-50.15753
-48.28633
-44.81715
-44.30559
-40.29327
-37.01607
-39.07976
-39.16117
-36.07618
-31.45509
-27.16304
-23.60925
-21.12346
-19.92238
-20.00677
-21.5405
-25.35798
-31.52495
-40.35429
-56.26859
-74.09936
-93.15446
-111.6119
-128.659
-144.9182
-160.0437
-170.8233
-173.9904
-167.6904
-152.0147
-127.569
-104.3391
-95.84228
-93.01571
-96.12666
-109.3953
-112.4875
-108.3369
-101.3448
-86.73601
-74.72828
-75.23812
-89.76347
-101.3346
-105.6478
-103.0966
-98.10321
-95.40146
-95.77832
-96.46042
-99.14313
-94.84131
-129.1121
-75.98407
-65.31237
-53.51655
-46.4264
-40.42388
-35.45752
-31.17565
-27.30508
-23.92337
-20.86743
-18.08332
-15.5386
-13.14165
-10.87483
-8.751004
-6.7815
-4.942127
-3.172345
-1.479603
0.1386085
1.686171
3.156758
4.546642
5.913264
7.250946
8.557938
9.811247
10.99495
12.13805
13.26531
14.38026
15.47532
16.51735
17.52779
18.53368
19.51962
20.49725
21.46109
22.42575
23.35394
24.29522
25.19756
26.09252
26.97326
27.85111
28.71312
29.55931
30.40856
31.27531
32.14021
32.98366
33.81365
34.64193
35.49783
36.36838
37.22509
38.08438
38.95666
39.83142
40.72069
41.61402
42.50596
43.43582
44.45188
45.49565
46.53336
47.59519
48.6524
49.82048
51.36268
53.05648
49.11415
47.70254
46.68272
45.40582
44.09261
42.90629
41.77631
40.69177
39.70158
38.76346
37.77359
36.75688
35.75924
34.81029
33.88358
32.9549
32.00883
31.05932
30.13704
29.22133
28.28498
27.34571
26.41535
25.46439
24.52114
23.55554
22.54714
21.55197
20.5755
19.58859
18.56794
17.50102
16.46345
15.38247
14.26631
13.14584
12.01408
10.83252
9.629664
8.420817
7.179167
5.863076
4.480898
3.093406
1.707809
0.2586423
-1.266057
-2.84486
-4.505973
-6.241498
-8.035892
-9.904204
-11.80689
-13.85594
-16.04986
-18.34014
-20.79201
-23.36672
-26.16725
-29.2121
-32.46531
-35.98177
-39.9308
-44.37192
-49.41412
-55.06281
-61.65596
-69.81785
-79.50399
-95.57229
-110.7977
49.32157
47.87502
46.80907
45.55713
44.2553
43.05631
41.91201
40.81969
39.82271
38.8779
37.8834
36.86401
35.86177
34.90663
33.97478
33.04134
32.09189
31.13786
30.21233
29.29177
28.35145
27.40951
26.47628
25.52148
24.5772
23.60855
22.59559
21.60017
20.62077
19.63172
18.60764
17.5452
16.49518
15.41715
14.29643
13.17466
12.04181
10.85582
9.651962
8.442126
7.199635
5.879034
4.493155
3.104765
1.71962
0.2663469
-1.26029
-2.840287
-4.506006
-6.244193
-8.041562
-9.913659
-11.81464
-13.87277
-16.07216
-18.36453
-20.82667
-23.40262
-26.21674
-29.27222
-32.53304
-36.06064
-40.03474
-44.48719
-49.55212
-55.2398
-61.88211
-70.09341
-79.93885
-95.83955
-110.992
-76.20454
-65.52269
-53.84175
-46.62801
-40.59919
-35.59271
-31.28276
-27.39383
-24.00151
-20.93276
-18.13642
-15.58534
-13.18242
-10.90791
-8.77759
-6.80068
-4.960003
-3.185892
-1.489436
0.1322083
1.681774
3.157048
4.546276
5.914653
7.254823
8.564085
9.821359
11.00618
12.15009
13.2782
14.3946
15.49303
16.53778
17.54752
18.55581
19.54284
20.52412
21.49017
22.45249
23.3937
24.33031
25.23432
26.13185
27.01505
27.89458
28.75961
29.60827
30.46033
31.32957
32.19759
33.04342
33.87688
34.70886
35.56752
36.4427
37.30288
38.16607
39.04225
39.92161
40.8146
41.71283
42.61176
43.54824
44.57106
45.6224
46.66263
47.72305
48.77888
49.97029
51.51231
52.87566
-44.16935
-40.91078
-37.96106
-39.99219
-39.94338
-36.89884
-32.09196
-27.63537
-23.95568
-21.34977
-20.0437
-20.05749
-21.48603
-25.19921
-31.27396
-39.93866
-55.74331
-73.42753
-92.52162
-111.0287
-128.1615
-144.5361
-159.8289
-170.8011
-174.0991
-168.3255
-153.383
-129.8288
-105.9638
-96.14957
-93.04088
-96.07979
-109.1741
-112.5449
-109.0256
-102.0211
-87.16274
-75.21189
-75.76764
-90.35252
-101.8063
-105.9554
-103.2742
-98.09821
-95.29341
-95.75412
-96.50254
-99.12872
-96.28082
-120.76
-71.25157
-66.66586
-69.83623
-68.72353
-64.67002
-58.95959
-53.89173
-50.7148
-46.67894
-46.30274
-47.2117
-46.85888
-45.17369
-44.45819
-44.27808
-45.55612
-47.84287
-50.26245
-56.25221
-66.62253
-78.34625
-88.23011
-84.52898
-71.50519
-59.75894
-58.48167
-71.7776
-94.87911
-117.1718
-115.3831
-95.35403
-86.41628
-88.31922
-90.76072
-92.5375
-94.22505
-96.65919
-99.38731
-102.0448
-104.3958
-106.5079
-108.2084
-109.4471
-110.3854
-111.0454
-111.6217
-112.1937
-112.8973
-114.3936
-116.3516
-116.8433
-114.1346
-109.5449
-105.7944
-104.0737
-103.0819
-101.6992
-99.64036
-96.62039
-92.92756
-89.17585
-85.71068
-82.29788
-79.33855
-76.65761
-74.15192
-71.99681
-70.11603
-68.23765
-66.3979
-64.65144
-62.89882
-61.13719
-59.45662
-57.89514
-56.38397
-54.89156
-53.43819
-52.05947
-50.70136
-49.40059
-48.16374
-47.00853
-46.02917
-45.37567
-44.9559
-44.98268
-45.49856
-46.15109
-46.93736
-47.93273
-49.12448
-50.35187
-51.35632
-51.95962
-51.9882
-51.38826
-50.02789
-47.94631
-44.51621
-170.765
-141.7614
-141.5623
-142.0819
-144.3836
-142.2667
-139.0856
-133.4695
-136.4855
-139.4446
-142.1169
-140.0516
-138.2792
-137.1397
-135.0628
-134.8009
-135.1338
-133.4148
-130.5406
-129.6073
-131.3973
-135.8325
-141.015
-145.4541
-148.4114
-148.2752
-147.215
-150.0193
-141.1743
-137.3926
-154.3625
-155.1041
-151.1028
-169.3479
-188.4001
-196.8804
-197.2891
-191.6265
-181.9397
-168.6829
-151.4264
-131.2554
-108.3717
-86.91569
-70.24849
-56.49992
-48.97998
-46.35511
-48.4931
-51.13395
-163.3685
-143.7057
-141.3105
-141.2902
-144.3975
-142.9146
-139.6875
-133.8955
-136.6146
-139.5412
-142.3538
-140.3915
-138.6141
-137.1648
-135.0156
-134.7982
-135.2613
-133.5495
-130.6527
-129.7654
-131.6515
-136.2357
-141.3777
-145.7122
-148.7507
-149.0696
-147.9701
-148.8498
-139.5623
-137.9901
-155.4409
-156.1573
-155.1572
-173.4469
-190.7367
-197.955
-198.0666
-191.8211
-181.643
-168.0584
-150.3536
-129.9442
-106.8663
-85.3946
-69.06089
-55.70427
-48.6861
-46.57918
-48.95406
-52.08805
-69.92018
-66.73325
-69.79878
-69.04508
-65.36486
-59.69889
-54.42368
-51.13532
-46.95143
-46.44243
-47.29471
-47.04196
-45.27091
-44.50142
-44.21337
-45.39214
-47.58786
-50.02268
-55.85716
-66.16233
-78.09679
-89.32966
-87.18873
-72.27509
-59.04521
-58.13287
-70.97541
-94.12695
-117.3382
-116.4268
-95.82824
-86.47475
-88.33206
-90.88774
-92.81983
-94.58847
-96.92862
-99.55882
-102.1482
-104.4367
-106.5331
-108.2396
-109.4662
-110.4069
-111.0582
-111.6314
-112.2204
-112.9102
-114.4214
-116.4296
-117.0046
-114.2901
-109.6292
-105.7887
-104.0807
-103.1168
-101.7183
-99.68531
-96.6676
-92.96255
-89.15669
-85.71189
-82.26932
-79.3093
-76.64396
-74.13249
-71.95956
-70.08731
-68.20501
-66.35511
-64.60982
-62.8555
-61.08654
-59.40013
-57.84081
-56.32899
-54.8339
-53.37458
-51.99923
-50.63842
-49.33767
-48.1047
-46.9591
-45.98661
-45.36187
-44.96873
-45.03111
-45.57599
-46.2488
-47.04811
-48.06815
-49.27866
-50.49575
-51.45279
-51.9696
-51.97321
-51.30774
-49.85545
-47.57839
-44.4133
-44.23106
-41.80705
-39.55109
-41.42162
-40.93409
-37.72166
-32.84342
-28.24682
-24.42232
-21.6709
-20.23532
-20.18069
-21.48777
-25.08748
-31.07986
-39.53834
-55.25388
-72.82563
-92.01654
-110.5772
-127.8165
-144.3242
-159.8877
-171.1744
-174.9285
-169.3378
-155.1622
-132.8419
-108.9142
-96.88484
-93.03186
-95.66521
-108.3377
-112.4345
-109.8966
-102.9872
-87.86055
-76.01407
-76.62393
-91.28568
-102.5293
-106.4305
-103.5556
-98.10747
-95.11026
-95.69003
-96.56439
-99.08744
-97.75801
-114.8958
-76.34537
-65.61964
-54.11963
-46.80755
-40.76092
-35.71705
-31.38525
-27.48336
-24.06429
-20.99145
-18.18407
-15.62866
-13.2226
-10.94152
-8.804347
-6.818012
-4.979458
-3.202411
-1.502889
0.1222486
1.67351
3.155262
4.541579
5.911316
7.253363
8.564214
9.826725
11.01145
12.15392
13.28269
14.40075
15.50354
16.54996
17.5565
18.56776
19.55495
20.53982
21.50576
22.46479
23.40567
24.34716
25.25218
26.15143
27.03439
27.91526
28.78214
29.63097
30.4823
31.35406
32.22597
33.07192
33.90626
34.73766
35.59894
36.4802
37.34093
38.20403
39.08577
39.96748
40.86317
41.76498
42.66852
43.60858
44.64636
45.70893
46.74364
47.8052
48.87128
50.09581
51.60711
52.61286
49.49246
48.02148
46.89585
45.6515
44.35969
43.15656
41.99196
40.88121
39.88013
38.94106
37.9409
36.91657
35.90502
34.94736
34.01414
33.08115
32.12828
31.16929
30.24535
29.32512
28.38137
27.43827
26.50593
25.54563
24.60582
23.63568
22.6153
21.61987
20.63999
19.65174
18.62503
17.55827
16.50942
15.43588
14.3101
13.18816
12.0556
10.86488
9.662071
8.453845
7.212115
5.885555
4.494875
3.108066
1.725953
0.2672454
-1.26042
-2.83993
-4.511777
-6.252707
-8.052802
-9.928174
-11.8223
-13.8935
-16.09877
-18.39104
-20.86446
-23.43538
-26.26655
-29.33182
-32.59528
-36.12876
-40.1243
-44.60653
-49.6835
-55.40469
-62.09192
-70.34952
-80.31272
-95.95697
-110.966
49.62743
48.18903
47.01487
45.78128
44.51427
43.32085
42.14028
41.0186
40.01782
39.08057
38.0719
37.04751
36.02795
35.06347
34.12459
33.19028
32.23216
31.26304
30.33682
29.41213
28.46216
27.51652
26.58349
25.61424
24.67887
23.70639
22.67526
21.68149
20.69836
19.70806
18.67368
17.62207
16.55825
15.48388
14.35156
13.22954
12.09374
10.89115
9.68731
8.481502
7.2449
5.909199
4.506169
3.119645
1.745915
0.2783487
-1.25225
-2.828715
-4.509317
-6.255775
-8.063719
-9.945726
-11.82251
-13.91076
-16.12275
-18.41867
-20.91039
-23.46756
-26.32536
-29.40536
-32.67578
-36.20897
-40.23208
-44.75073
-49.84083
-55.59783
-62.33645
-70.62681
-80.68245
-95.93616
-110.9065
-76.50033
-65.62542
-54.3946
-46.99365
-40.95648
-35.86966
-31.51082
-27.58944
-24.14253
-21.06973
-18.24363
-15.68087
-13.27373
-10.98103
-8.831278
-6.833042
-5.00395
-3.22263
-1.517029
0.115352
1.669334
3.159582
4.54025
5.912665
7.257012
8.573119
9.845083
11.02676
12.16846
13.30216
14.4223
15.52817
16.57718
17.57992
18.59662
19.58328
20.57313
21.53949
22.5023
23.46239
24.39356
25.29788
26.20092
27.08644
27.97107
28.84148
29.69004
30.54387
31.42261
32.3019
33.1472
33.98434
34.81718
35.68157
36.57184
37.43424
38.30118
39.18994
40.07246
40.97024
41.87786
42.78899
43.72895
44.77415
45.84448
46.86767
47.93013
49.00096
50.2201
51.62285
52.24933
-44.33694
-43.06114
-41.77307
-43.5097
-42.49941
-39.07277
-33.89323
-29.08568
-25.09551
-22.14913
-20.54172
-20.4216
-21.56485
-25.03505
-30.94482
-39.23821
-54.75423
-72.20338
-91.55537
-110.1141
-127.4507
-144.1399
-160.0438
-171.6833
-175.6579
-170.6366
-157.3876
-136.5003
-113.0722
-98.63213
-93.25615
-94.93
-107.4845
-112.3204
-110.9081
-104.3398
-89.0933
-77.34631
-77.93847
-92.81057
-103.6384
-107.1508
-103.9722
-98.12945
-94.81889
-95.55059
-96.66781
-98.96136
-98.62095
-109.3978
-68.45044
-66.89553
-69.86049
-69.67948
-66.25274
-60.67246
-55.15448
-51.71336
-47.35721
-46.72045
-47.36227
-47.21521
-45.34339
-44.56572
-44.13742
-45.21072
-47.22476
-49.58439
-55.28435
-65.62245
-77.7701
-90.38513
-90.37223
-73.33885
-57.97689
-57.44377
-70.02747
-92.90103
-116.8662
-117.2944
-97.1481
-87.33666
-88.88094
-91.28125
-93.17295
-94.97912
-97.22161
-99.7571
-102.2798
-104.4894
-106.5704
-108.2911
-109.4947
-110.4404
-111.0785
-111.6411
-112.2582
-112.9231
-114.4559
-116.5332
-117.2588
-114.5668
-109.8213
-105.8222
-104.1135
-103.1959
-101.7636
-99.75474
-96.72103
-92.96646
-89.0839
-85.68935
-82.22431
-79.27665
-76.62671
-74.0968
-71.90239
-70.04616
-68.15961
-66.29805
-64.55184
-62.79406
-61.01907
-59.32771
-57.77103
-56.25496
-54.75677
-53.29113
-51.92155
-50.55627
-49.26064
-48.03759
-46.90539
-45.93707
-45.3564
-44.99706
-45.10474
-45.67992
-46.38515
-47.19855
-48.25363
-49.4932
-50.69767
-51.61794
-52.11158
-52.02841
-51.25134
-49.68709
-47.19797
-44.33203
-155.7148
-144.3929
-140.6671
-140.2893
-144.3498
-143.8181
-140.6791
-134.6345
-136.8882
-139.6699
-142.5814
-140.7549
-139.0547
-137.0979
-134.8983
-134.8282
-135.4942
-133.7858
-130.887
-130.1293
-132.1332
-136.789
-141.8574
-146.0703
-149.2449
-150.0231
-148.6454
-147.2832
-137.1846
-138.0079
-155.8635
-157.9216
-160.8311
-178.1131
-193.1977
-198.8659
-197.7699
-191.3171
-180.7837
-167.0695
-148.9495
-128.3514
-105.0198
-83.63864
-67.75809
-54.99466
-48.54007
-46.95157
-49.56941
-53.39427
-147.2805
-143.4237
-139.733
-139.1004
-144.1189
-144.8282
-142.2034
-135.6653
-137.3471
-139.8826
-142.7612
-141.1083
-139.5225
-136.9808
-134.8112
-134.968
-135.9005
-134.1899
-131.3634
-130.8594
-132.8328
-137.3912
-142.4572
-146.5177
-149.9783
-151.1991
-149.4266
-145.6935
-134.5887
-137.4279
-155.1411
-160.7223
-167.4264
-183.0782
-196.3035
-200.5291
-199.037
-191.2062
-180.0398
-166.0259
-147.0625
-125.8774
-102.4332
-81.54747
-66.36249
-54.49205
-48.61506
-47.43668
-50.43426
-54.75533
-67.45571
-67.21233
-70.00214
-70.39273
-67.36878
-62.0302
-56.23822
-52.55922
-47.98277
-47.23611
-47.48861
-47.30047
-45.31651
-44.62498
-44.06227
-45.0787
-46.79914
-49.02265
-54.45078
-64.90484
-77.11576
-91.33115
-93.69704
-75.0513
-57.65397
-57.16895
-69.26024
-90.75611
-114.3288
-116.5757
-99.18191
-89.31195
-89.95458
-91.84445
-93.58637
-95.41734
-97.57504
-99.99866
-102.4508
-104.5715
-106.6364
-108.3757
-109.5382
-110.4942
-111.1119
-111.6446
-112.3247
-112.9558
-114.5018
-116.6306
-117.5829
-114.9814
-110.2047
-105.9907
-104.262
-103.3832
-101.8427
-99.86697
-96.82451
-93.05904
-89.01988
-85.71039
-82.25822
-79.27007
-76.60753
-74.07101
-71.85704
-70.0083
-68.14242
-66.25219
-64.486
-62.73515
-60.96318
-59.25788
-57.69243
-56.17441
-54.68216
-53.20774
-51.83355
-50.4674
-49.17606
-47.96186
-46.83596
-45.88226
-45.38156
-45.07325
-45.23343
-45.83302
-46.61365
-47.44328
-48.53644
-49.80769
-50.97208
-51.81753
-52.22634
-52.06398
-51.18773
-49.51363
-46.80959
-44.16545
-44.19876
-44.7529
-44.76176
-46.42458
-44.59995
-40.91253
-35.3418
-30.31466
-26.13014
-22.91729
-21.06882
-20.8813
-21.79956
-25.02962
-30.7691
-39.26324
-54.23981
-71.16374
-90.85053
-109.553
-126.9046
-144.0083
-160.4959
-172.544
-177.0271
-172.5333
-160.4047
-140.8668
-118.2913
-102.0586
-94.17468
-94.09428
-106.8577
-112.5472
-112.143
-106.1552
-90.87354
-79.61738
-80.28383
-95.34248
-105.3861
-108.1974
-104.531
-98.17117
-94.33059
-95.3141
-96.76853
-98.78373
-98.57144
-103.68
-76.49897
-65.45664
-54.61826
-47.15365
-41.1832
-36.02573
-31.62409
-27.69398
-24.23729
-21.16056
-18.29336
-15.73675
-13.33586
-11.01743
-8.857875
-6.860658
-5.045885
-3.243618
-1.528382
0.1145913
1.66343
3.15719
4.534965
5.908188
7.254921
8.585666
9.855182
11.03
12.17962
13.31433
14.42304
15.53131
16.59725
17.59247
18.61493
19.59872
20.59687
21.5663
22.53062
23.47877
24.41343
25.32146
26.23313
27.11998
28.00371
28.87249
29.72645
30.58621
31.46399
32.34097
33.1849
34.0307
34.86485
35.73176
36.63077
37.49833
38.36525
39.25507
40.1412
41.05027
41.96576
42.88682
43.82141
44.88287
45.98067
46.99595
48.06396
49.12265
50.28953
51.52225
51.77951
49.68079
48.34492
47.15125
45.9235
44.66853
43.47878
42.26113
41.11574
40.11435
39.18482
38.14957
37.12339
36.09824
35.13854
34.18786
33.25083
32.29358
31.32226
30.40122
29.46958
28.51129
27.56514
26.63242
25.65099
24.72439
23.74108
22.70029
21.71157
20.73079
19.74633
18.69893
17.61952
16.57886
15.50078
14.36281
13.25582
12.12693
10.91111
9.704259
8.490431
7.26258
5.929974
4.515839
3.115154
1.754215
0.2842659
-1.255947
-2.828705
-4.510284
-6.255964
-8.074908
-9.983986
-11.83769
-13.94615
-16.14402
-18.44542
-20.97439
-23.49762
-26.39253
-29.47054
-32.7681
-36.30231
-40.34474
-44.89304
-49.99662
-55.7933
-62.58815
-70.89181
-80.98225
-95.65019
-110.417
49.5948
48.42371
47.29249
46.1108
44.90743
43.77207
42.49316
41.29345
40.31295
39.43014
38.38969
37.32176
36.24516
35.2978
34.37122
33.41004
32.41156
31.42047
30.53033
29.5967
28.61735
27.67905
26.75337
25.73458
24.8803
23.84909
22.77675
21.80272
20.78907
19.83699
18.77585
17.73804
16.70414
15.58227
14.38244
13.28151
12.16387
10.95244
9.774188
8.547004
7.267632
5.936916
4.571718
3.156069
1.759632
0.3135867
-1.227987
-2.850691
-4.528723
-6.252314
-8.030956
-9.9663
-11.84408
-14.03421
-16.18504
-18.44538
-21.07462
-23.5368
-26.53373
-29.52465
-32.84019
-36.49785
-40.5605
-45.12568
-50.2382
-56.08679
-62.98009
-71.31126
-81.43527
-95.22132
-109.9157
-76.24764
-65.27305
-55.00785
-47.43774
-41.56333
-36.17095
-31.78588
-27.89149
-24.41956
-21.24256
-18.32886
-15.84134
-13.41577
-11.04875
-8.92545
-6.928555
-5.058791
-3.222094
-1.535344
0.1083498
1.624035
3.13335
4.554609
5.886313
7.267406
8.608609
9.830463
11.05897
12.22029
13.32064
14.41846
15.5869
16.69002
17.62274
18.66095
19.63962
20.65656
21.62288
22.57833
23.51896
24.48568
25.4104
26.3136
27.19568
28.06573
28.96173
29.83573
30.66927
31.52695
32.44503
33.32212
34.15567
34.98659
35.83697
36.76583
37.65603
38.47617
39.4048
40.32305
41.21504
42.12605
43.0527
43.97584
45.08224
46.23404
47.1805
48.20721
49.20075
50.28045
51.34001
51.25242
-43.8877
-46.62108
-48.3629
-50.41509
-47.72164
-43.64821
-37.577
-32.36848
-27.629
-24.08795
-21.87194
-21.5716
-22.35718
-25.06663
-30.66118
-39.63626
-53.87811
-69.37896
-89.40027
-108.674
-126.0132
-143.8359
-161.5791
-174.0583
-179.0428
-175.0697
-164.2045
-145.9771
-124.7803
-107.5022
-96.5311
-94.32937
-108.0843
-113.6419
-113.39
-107.8596
-91.87198
-82.86905
-84.98654
-98.93195
-108.1149
-109.8634
-105.3715
-98.21203
-93.44958
-95.59743
-96.8139
-98.15367
-97.38361
-98.15568
-67.02904
-67.18149
-70.25821
-71.28558
-68.8171
-63.9019
-57.64013
-53.62299
-48.96644
-48.16834
-47.89298
-47.45798
-45.10304
-44.65521
-43.94416
-44.86867
-46.32861
-48.44429
-53.49987
-63.68269
-76.04706
-91.59584
-96.79967
-77.77937
-59.07242
-57.93678
-68.96782
-87.59513
-108.3786
-112.7662
-100.2516
-91.54858
-91.16544
-92.47707
-94.05406
-95.87228
-98.0103
-100.2248
-102.6758
-104.7384
-106.6939
-108.491
-109.6331
-110.5894
-111.1814
-111.6413
-112.5058
-113.034
-114.5607
-116.6629
-117.9
-115.478
-110.794
-106.3107
-104.5475
-103.6932
-101.9046
-99.99897
-96.95148
-93.2854
-88.85334
-85.86264
-82.36429
-79.14012
-76.5093
-74.07649
-71.7715
-69.94704
-68.14613
-66.13748
-64.35374
-62.67717
-60.91629
-59.1319
-57.55078
-56.06026
-54.60961
-53.07971
-51.69611
-50.36233
-49.07914
-47.8664
-46.75148
-45.8735
-45.47483
-45.23761
-45.45233
-46.12534
-46.95407
-47.82955
-48.9729
-50.24982
-51.35683
-52.08232
-52.37012
-52.13981
-51.13579
-49.30274
-46.38593
-43.45254
-139.3571
-140.2857
-138.8775
-139.2629
-144.6441
-146.727
-143.8905
-136.3824
-137.3148
-140.1416
-142.9114
-141.4257
-139.9472
-137.023
-134.8443
-135.2933
-136.5645
-134.8246
-132.0848
-131.8056
-133.5519
-138.7872
-143.6143
-147.2726
-150.9038
-152.6812
-150.5087
-144.5813
-131.5771
-136.389
-154.97
-165.0086
-174.731
-188.2284
-200.0584
-201.847
-198.5046
-190.6187
-179.1551
-164.7341
-144.7137
-122.402
-99.57834
-79.45995
-65.0664
-54.0647
-49.10252
-48.14199
-51.61215
-56.3348
-0.2972937
-0.07114112
2.382755
4.035942
-21.27685
-1.688083
-5.786161
3.433165
2.519265
-1.574202
2.793932
-65.83601
-0.1007848
7.320264
7.670268
3.868563
7.03489
0.4311194
4.333008
1.804748
3.239674
4.387078
-17.68808
4.126453
-0.8509646
4.340289
4.111078
2.840309
3.703578
-0.9956894
3.39848
0.04524195
-9.746723
-0.1401169
4.914228
-0.9456437
-5.143008
5.646601
-3.388766
4.639086
5.9426
-0.09344446
-1.632345
-21.05252
0.7327162
-152.1934
-0.6181274
-0.115704
-0.3746458
6.313477
1.308454
-3.532986
1.125446
-7.192066
4.672287
-1.281854
1.786867
2.915067
0.6906462
-0.08458898
-33.2295
4.319262
-1.888727
-7.781588
6.558685
-14.89806
-1.511998
3.320334
2.642157
2.061556
-28.76077
-3.025367
5.177844
2.529443
3.795046
4.15044
3.330864
3.290374
-0.5441592
4.589982
-5.265913
3.450036
-5.282321
-1.800394
-24.21138
-21.69381
6.773359
-17.585
-0.9531692
0.7529532
5.153808
5.630743
4.323129
2.998361
-5.755129
1.054455
4.292051
4.417185
-121.3403
-0.5041986
-2.738441
-6.687886
7.892468
-16.60766
0.9369177
3.929543
0.9104349
4.738352
4.97922
3.521395
-1.638085
-96.78189
-21.39849
2.170759
3.540803
0.8510614
-1.669436
-17.32925
4.661836
2.530107
0.1564733
3.038963
-1.11519
-10.30955
3.646073
1.014805
-0.3028016
-74.45112
-166.4788
-1.766309
9.637306
6.200622
4.0042
4.053609
5.228619
-1.242639
1.411176
-36.31125
0.3769257
5.674023
4.046254
6.477212
3.981484
1.48118
-0.2514315
-11.047
4.932893
-0.06889738
-4.136307
-17.28341
-44.88544
-190.6624
-0.9294305
3.761435
9.119619
3.489275
-12.45657
6.464303
0.4903055
2.277605
6.968707
3.745104
1.330597
-8.94617
5.90415
-0.7259879
0.07203281
5.116769
0.3130259
2.257526
-46.69783
-9.34029
-20.79457
1.666007
-0.6333861
0.3133001
-0.3166642
0.5193333
-1.89453
-8.40292
-3.441377
4.227359
0.08934014
2.474482
0.6706801
1.237512
4.82953
4.636946
5.354501
-0.7364455
1.614221
-4.599032
3.667516
-223.2147
-8.660775
0.2574134
1.47875
0.6418359
2.72367
0.385341
-38.84293
0.6863615
0.8144955
8.48747
0.5151324
2.408004
3.106039
3.466878
0.8616582
0.6663698
-2.59705
-0.732822
6.193353
4.608103
-2.286493
-3.209745
1.156723
-1.544367
3.182116
-17.18619
1.747101
1.387787
3.68633
-101.8461
18.42251
-35.13432
3.703718
-0.6031399
0.1668732
0.8888728
-15.133
2.279316
0.6768174
4.663084
-33.3261
-16.32787
3.415586
4.180256
-59.11198
-18.05849
1.055523
-12.77873
-5.544697
0.0003696322
-26.38672
-0.9586893
3.136683
1.093868
3.149689
4.154936
4.148902
-173.6383
6.589711
1.549063
-0.006830604
6.235946
0.8029546
3.098123
1.619496
1.462062
3.013354
-6.415448
2.727784
-35.70476
4.996524
2.882184
-34.22834
-88.02868
3.798696
0.8122433
4.9337
-23.04475
-1.425246
-1.960792
5.953646
-122.6655
4.623348
-10.9276
-6.255448
-19.22071
0.7580852
0.186833
0.132321
0.6444045
5.838279
-14.21952
1.315939
5.108841
5.525632
2.882891
-71.59158
9.38918