/*--------------------------------*- C++ -*----------------------------------*\
| =========                 |                                                 |
| \\      /  F ield         | OpenFOAM: The Open Source CFD Toolbox           |
|  \\    /   O peration     | Version:  2406                                  |
|   \\  /    A nd           | Website:  www.openfoam.com                      |
|    \\/     M anipulation  |                                                 |
\*---------------------------------------------------------------------------*/
FoamFile
{
    version     2.0;
    format      ascii;
    arch        "LSB;label=32;scalar=64";
    class       volScalarField;
    location    "0.22";
    object      p;
}
// * * * * * * * * * * * * * * * * * * * * * * * * * * * * * * * * * * * * * //

dimensions      [0 2 -2 0 0 0 0];

internalField   nonuniform List<scalar> 
4562
(
4.342865e-10
-2.027852e-09
-1.3079e-09
-2.476646e-08
2.407977e-06
-1.466706e-08
-1.046625e-06
-3.970727e-07
-2.934018e-07
-2.230551e-08
-9.660798e-07
1.424086e-07
-4.342733e-07
-6.733469e-08
2.536029e-06
7.287816e-08
-7.03933e-07
2.777459e-07
-1.222895e-06
1.50656e-08
-2.376525e-06
-1.915284e-07
-8.269724e-07
5.927508e-09
9.791836e-09
-3.486087e-07
-4.013597e-07
-2.429615e-07
-1.911255e-06
2.878554e-07
-9.771863e-08
1.550136e-08
-5.90983e-08
-7.735711e-07
4.257691e-07
4.082089e-07
-1.917599e-06
-1.827554e-07
2.314393e-08
1.774212e-07
-6.132666e-07
1.373758e-08
-6.620024e-07
-4.379827e-08
-1.278007e-08
-5.845543e-07
1.398933e-08
1.784845e-08
-5.958215e-08
1.408151e-07
-6.313656e-08
-1.045836e-07
5.687107e-07
-9.030942e-07
8.309556e-08
1.143785e-06
-9.025108e-07
-1.440586e-06
-8.789922e-07
2.179133e-06
-2.695679e-08
-1.465185e-06
-6.010988e-07
1.316901e-07
-4.910656e-07
1.129704e-07
-2.656527e-07
-1.843721e-07
5.1965e-09
-1.456198e-07
-1.245799e-06
-1.809803e-07
6.46348e-07
-2.783607e-07
-6.071506e-07
9.703254e-07
-8.251761e-09
-2.249632e-07
-1.603417e-07
2.889628e-06
3.935078e-06
8.875317e-07
-1.006732e-06
-8.77522e-08
-8.515616e-07
-6.834877e-08
1.803269e-08
-1.804347e-07
-3.768793e-07
-2.503586e-07
-1.811701e-07
-6.080745e-09
-2.686602e-07
-3.684292e-08
-2.293486e-07
-5.935297e-07
6.770957e-09
-2.31418e-07
-1.794002e-06
-9.586182e-07
-3.160018e-08
-1.276144e-06
-8.499633e-08
-2.183436e-06
-6.038278e-08
-9.414177e-07
-3.669067e-07
-8.443319e-09
-6.063296e-08
1.282308e-07
-4.39171e-07
5.789427e-09
-2.187839e-08
-1.19888e-06
5.882497e-08
2.214194e-08
2.634041e-06
-3.887344e-07
-1.603819e-06
-2.76935e-07
5.023837e-07
-4.290898e-07
-6.138961e-08
-3.811591e-08
-6.935074e-07
-5.721763e-08
-1.877607e-07
-4.883564e-08
-1.094232e-07
7.746388e-08
2.091549e-07
-7.485568e-08
-6.954676e-07
7.232655e-09
-3.318715e-08
8.80377e-07
-1.196419e-06
-9.70166e-08
9.016894e-07
-1.71549e-09
-7.894176e-07
9.452188e-07
5.134483e-08
6.47528e-07
-4.004551e-07
-6.237623e-08
-7.415346e-07
-9.955906e-08
9.660184e-08
7.147833e-07
-4.608714e-08
-1.299187e-06
-1.004777e-07
2.019997e-07
-4.27156e-08
5.080976e-07
-1.070081e-07
-8.923799e-08
-1.648438e-08
-5.009478e-08
-4.493787e-07
1.173943e-06
2.466398e-07
-1.718524e-08
-1.687227e-07
1.953695e-06
6.389151e-08
2.97374e-08
-1.043676e-06
5.167641e-07
-2.036025e-06
1.231038e-07
5.030214e-08
5.457435e-10
-7.482268e-07
-2.11071e-08
-3.126566e-08
-7.590578e-08
-4.391753e-07
-2.201456e-07
5.63592e-09
-7.576879e-07
-7.866499e-07
3.174692e-06
-1.756381e-07
-6.914921e-08
-9.045794e-07
3.370919e-08
-1.383598e-07
-1.406352e-07
-1.603456e-06
-5.08738e-07
3.569815e-07
5.302839e-09
-3.526539e-07
-2.192412e-07
-9.425068e-07
-8.601295e-07
5.150582e-07
-1.774401e-08
-9.119804e-08
-4.935034e-07
8.29364e-09
-1.461105e-07
-1.194573e-06
-3.631993e-09
1.067584e-06
7.629253e-07
4.656169e-07
-3.286412e-07
1.335613e-08
-8.876367e-07
-6.317841e-08
2.772203e-08
3.797606e-07
9.004167e-07
-3.528425e-08
-5.495489e-09
-6.34934e-08
2.869441e-07
-2.041921e-08
-9.025854e-07
4.486682e-07
8.191655e-08
-1.068355e-06
-7.362009e-07
-8.662316e-07
-8.698109e-07
-4.008557e-07
-5.327946e-07
-7.70874e-09
-6.851585e-07
2.662766e-07
-5.800473e-07
-1.994303e-07
-1.183709e-06
-9.165302e-07
-6.474564e-08
3.658833e-07
-3.803113e-07
-4.321762e-07
-2.68021e-07
-2.892782e-07
-1.84991e-07
3.729476e-08
1.669829e-06
-2.476643e-07
-1.134516e-06
-2.887475e-08
-4.295968e-08
-3.63357e-08
-1.263906e-07
-6.215107e-08
-7.562695e-08
7.638428e-08
7.331571e-08
-9.972779e-09
-6.824521e-07
-4.441319e-07
-1.426191e-06
-5.718582e-07
-2.28626e-07
2.397889e-07
1.216217e-09
6.510187e-07
-6.422901e-08
1.079163e-08
1.406774e-07
2.087898e-08
-1.538577e-09
-1.666662e-08
-1.223907e-07
-3.772863e-07
8.398208e-07
1.444383e-06
-1.986836e-08
1.517939e-08
-2.214398e-08
1.032757e-07
1.757793e-06
-2.793917e-07
3.544613e-09
-3.98323e-07
-2.618613e-07
-9.746333e-07
7.962278e-08
7.539303e-08
-6.427182e-08
-4.565433e-08
-1.241754e-06
-2.579594e-07
-7.917423e-08
-8.512078e-07
-1.341608e-07
-6.466339e-08
-9.619122e-07
-6.85121e-07
-6.183597e-08
-1.629102e-06
1.205069e-06
1.406333e-07
-2.084988e-07
3.947943e-08
2.738231e-07
8.033504e-07
-1.552769e-06
-1.866311e-06
4.494833e-08
-4.754731e-07
-5.394843e-07
-2.963952e-07
3.956509e-07
2.102994e-07
-1.64287e-06
-2.984851e-07
9.338838e-08
-3.348462e-08
1.172362e-08
3.216303e-07
-4.47037e-08
-7.551544e-08
2.849845e-06
-2.499925e-08
-7.281153e-08
-1.737634e-06
-3.774809e-07
-1.007225e-06
-4.835224e-07
-1.241789e-07
-8.015089e-07
5.982563e-08
2.476702e-07
1.108173e-09
1.086306e-07
-1.350196e-06
-1.373491e-06
-2.436876e-08
-5.408688e-07
9.413537e-08
-4.904528e-07
-3.002924e-09
2.294162e-07
-5.021906e-07
-1.435897e-07
-6.958926e-08
-1.159889e-09
4.27216e-09
-4.416148e-07
-1.142909e-06
-2.421968e-07
8.759691e-08
-2.356128e-07
-4.927838e-09
-1.435346e-07
-5.592725e-09
-3.242271e-07
-1.282211e-07
-8.27913e-08
-5.555761e-07
-1.134087e-07
-1.239094e-07
-2.758568e-08
1.474172e-08
2.271495e-07
-1.761482e-07
-4.830637e-07
-3.09379e-07
-4.646486e-07
-3.734741e-07
-2.29316e-07
-6.27094e-07
-7.090323e-07
-6.375973e-07
-1.287753e-06
7.710353e-08
-1.201035e-08
-8.25531e-07
-2.193405e-06
-1.60595e-07
-1.210052e-07
-4.149109e-08
4.124056e-08
-7.485722e-07
-3.51633e-09
1.85247e-07
-1.262455e-06
-1.019477e-06
-5.986108e-09
-9.719249e-08
-2.144267e-07
-1.756337e-07
-1.833886e-07
-3.481516e-09
1.174402e-07
1.844026e-06
1.376272e-06
-9.783889e-07
-1.529809e-06
-4.163508e-08
-1.023699e-06
-8.55996e-07
-2.967821e-06
-7.851748e-07
6.836092e-08
2.407524e-06
5.233511e-08
-2.395713e-06
-1.442427e-06
-2.345087e-06
-5.362275e-08
-1.482183e-07
-3.170542e-08
-9.395804e-09
-2.609665e-07
-1.296432e-07
-1.28677e-08
-8.843706e-07
-8.242767e-08
-1.133255e-08
-1.266846e-07
-1.646311e-07
-2.280383e-07
-7.440026e-07
-6.029963e-07
3.832372e-08
-1.090936e-07
8.533166e-09
-5.986548e-07
-5.13635e-07
-2.432397e-07
-1.871881e-07
-4.292073e-07
-8.803463e-07
-5.173703e-07
-4.741754e-07
2.423344e-07
3.319293e-08
-8.269467e-08
-1.170981e-06
-6.397774e-07
-2.276569e-08
1.487017e-08
-1.366039e-06
-6.194112e-07
2.112883e-06
-7.716263e-08
-2.228768e-07
1.487798e-08
-3.20784e-07
-7.670748e-08
-4.432052e-07
1.403116e-08
-2.652881e-07
2.308333e-07
1.511562e-08
-1.269635e-07
3.319186e-07
-7.057578e-07
-2.629361e-06
2.095555e-07
1.299402e-06
-5.103804e-08
-2.58146e-07
-1.308817e-06
-1.409364e-06
-4.6089e-08
2.00733e-09
-5.340511e-08
4.28066e-07
-4.151807e-07
-1.277075e-07
-2.711872e-06
-2.430641e-07
-1.571138e-07
1.691265e-06
-4.105397e-07
-2.013753e-07
-4.195931e-07
-5.43955e-07
-4.096072e-07
-2.874712e-08
-6.129352e-07
-4.032833e-07
2.439721e-06
1.573805e-08
7.962605e-07
5.696008e-07
-3.041948e-07
-4.319508e-07
4.625322e-08
6.169292e-09
-7.977442e-10
-5.66079e-08
-4.540287e-07
-1.352883e-06
8.8592e-08
-1.449743e-07
-2.249476e-08
1.02873e-07
1.942955e-07
3.221901e-07
5.819116e-07
8.986256e-08
-5.05216e-07
-8.347866e-07
-7.135806e-07
8.064135e-07
-4.749686e-07
2.564144e-07
3.313487e-07
4.682608e-07
-2.812117e-08
6.588661e-09
2.380723e-07
-2.400767e-07
2.315537e-07
1.585174e-06
-2.052821e-07
1.360432e-06
1.157263e-07
2.259728e-08
-1.022172e-06
2.122673e-07
-7.342711e-07
8.304137e-08
-5.546266e-07
-4.200537e-08
4.463766e-07
3.438956e-08
-8.885148e-07
-1.27624e-06
-1.801069e-06
-5.205482e-07
-8.807129e-07
-1.752424e-08
-4.996444e-07
-3.948184e-07
1.445187e-07
-4.993672e-07
-2.817874e-07
1.818646e-06
-3.014872e-07
-3.574089e-07
-4.1229e-08
1.067682e-07
-2.447647e-07
-7.312861e-07
-6.119095e-07
-6.409123e-07
-1.217339e-06
-1.056045e-06
-1.288255e-06
-5.646122e-07
-9.926171e-07
-3.180245e-07
-1.086855e-06
-2.551011e-07
3.317538e-08
5.530738e-07
1.731355e-07
-5.617547e-07
-1.639636e-09
-2.273507e-07
-1.637377e-09
-2.883288e-09
1.471324e-09
-1.094353e-07
-1.997603e-07
-1.850493e-07
1.496703e-07
9.008976e-07
-8.670011e-07
-4.58257e-08
-9.931507e-07
1.659103e-07
4.366666e-08
-1.340908e-08
7.839121e-09
-1.479334e-07
-1.569958e-07
-2.128242e-07
-4.410355e-07
-3.023917e-08
-2.416429e-07
-5.907003e-07
-2.31418e-08
-1.476136e-08
-6.97177e-07
-4.190696e-08
-5.147069e-07
-1.152628e-06
3.403879e-06
-1.224065e-06
-1.198027e-06
-1.629983e-06
-1.258858e-06
-2.833245e-07
8.652377e-09
-3.102323e-07
-2.681256e-08
-1.172971e-06
-1.563219e-06
-2.109979e-07
-1.562852e-07
4.584203e-07
-7.040808e-07
-4.656901e-07
-4.612154e-09
-2.395041e-09
7.619724e-07
-2.225094e-07
8.748066e-08
1.278573e-06
1.654423e-06
-4.519607e-08
-2.230237e-06
-4.610107e-07
1.261331e-06
-1.966369e-07
1.098692e-07
1.668393e-07
-2.405504e-09
2.28822e-08
3.199096e-08
-6.895403e-09
1.763757e-07
-1.522097e-08
1.346451e-08
2.327145e-07
-7.221061e-07
-8.077934e-07
-1.768517e-06
-3.347196e-08
-5.391064e-07
-1.996232e-07
-1.33157e-06
1.262802e-07
-7.292945e-07
-7.233793e-07
-1.201943e-06
-1.121863e-08
4.303996e-08
-1.076874e-06
-1.250866e-06
1.234473e-07
3.91796e-08
-2.156107e-07
-5.85165e-08
-7.974621e-08
-2.967628e-08
-7.284682e-07
-7.977495e-07
-7.939983e-07
-8.164628e-07
-2.028829e-07
-2.317236e-07
-3.682107e-07
-4.757154e-08
-4.749088e-08
-2.162647e-08
-9.481305e-07
-2.022732e-08
-1.10562e-08
3.600781e-09
2.94127e-08
7.656976e-08
1.031513e-07
3.077272e-09
2.943223e-06
-1.471686e-07
-1.062595e-06
-1.758957e-08
1.35486e-08
1.28968e-07
-3.142026e-07
-1.141014e-06
1.975412e-08
-2.705592e-09
1.250041e-06
1.129594e-06
-1.212134e-07
-1.127163e-07
2.588177e-08
-6.982653e-08
-2.116254e-08
-1.779917e-08
2.275698e-07
-3.147332e-07
-1.552447e-08
-7.188671e-08
-9.84269e-08
-1.028473e-07
1.305809e-08
6.816767e-07
-7.517415e-07
7.671322e-08
2.369262e-07
-3.898791e-07
6.480135e-09
8.684007e-07
-1.186042e-06
1.221613e-07
1.515334e-07
7.490577e-09
-1.336972e-08
-3.052593e-07
-1.064072e-08
1.181286e-07
-4.848894e-09
8.8871e-08
-2.111049e-06
-1.387543e-06
-1.022629e-06
-3.174386e-07
-6.051892e-07
-1.644948e-07
-2.649538e-06
5.44762e-09
1.845283e-07
2.700985e-07
-4.820433e-07
-3.61672e-07
-4.572066e-07
-1.685277e-06
2.843349e-07
1.584006e-08
2.990368e-07
-1.325039e-07
8.863099e-07
2.130539e-06
8.336654e-07
4.699469e-09
-3.174543e-07
-6.462903e-08
-1.094183e-06
3.170633e-06
-1.282999e-06
-1.909953e-08
7.09039e-07
7.354645e-07
2.414086e-06
-3.188239e-08
-6.589346e-07
-1.3686e-09
-7.585163e-08
1.073643e-06
-1.211843e-06
6.034282e-07
-1.776929e-07
1.360288e-06
3.359266e-08
1.138063e-06
-2.536612e-07
-3.593781e-07
8.148862e-08
5.82387e-08
-2.914915e-07
-4.948457e-07
-2.832668e-08
-2.00186e-07
2.013306e-08
-2.563477e-07
-5.212709e-07
-4.505389e-07
-4.249807e-07
7.193422e-08
-1.013562e-06
7.261912e-08
-7.53194e-07
3.171158e-08
1.266964e-06
-6.55453e-07
-1.029384e-07
-1.106639e-08
-5.440334e-07
-2.498043e-07
-1.407123e-07
-3.768895e-07
-6.101565e-07
-1.279798e-06
1.072049e-06
9.39646e-07
-9.340935e-07
-2.379326e-09
7.601137e-08
6.381617e-08
-8.721349e-08
-2.499275e-07
-2.891479e-08
1.013148e-07
-2.065741e-08
-1.584533e-06
-2.783814e-09
1.423309e-09
-6.81509e-08
4.845022e-09
-1.619425e-07
8.474274e-07
9.299423e-07
1.058924e-07
-2.951441e-07
6.690771e-07
-3.621837e-07
-2.224223e-07
-5.18571e-07
-4.807399e-08
-2.752982e-08
-1.20563e-06
-7.183277e-08
-1.228656e-06
-1.160386e-06
-1.306428e-07
1.199567e-07
-1.397041e-07
-4.112224e-07
-8.227543e-07
9.400466e-08
8.910951e-08
-1.99758e-07
-5.473801e-07
-1.397099e-07
7.709721e-07
-1.590382e-07
3.782075e-07
-3.479475e-07
-2.685142e-07
-5.32714e-07
-5.834988e-07
-1.178515e-06
-6.675818e-07
1.430244e-09
-1.017542e-07
3.210236e-08
3.995968e-07
1.680826e-06
-3.368141e-07
-4.631652e-07
-2.121817e-07
6.492721e-08
-8.171608e-10
-2.838249e-07
-1.350804e-07
-1.502657e-07
-1.316843e-06
-6.585816e-07
-2.374456e-07
-7.72428e-08
5.767992e-08
3.581876e-07
1.998086e-07
-1.4445e-06
-5.022961e-07
2.314084e-07
3.006666e-07
1.093956e-06
-1.782291e-07
-3.367147e-08
2.505844e-06
-1.07031e-08
-1.24494e-08
-1.280317e-06
2.974532e-09
-7.165602e-07
-3.839882e-08
4.386659e-07
-6.869291e-09
3.649413e-07
-1.184985e-06
2.58648e-09
1.921604e-07
6.333042e-08
1.933517e-07
-5.497296e-07
-7.198949e-07
5.868267e-08
-8.602984e-07
-2.000537e-07
1.360172e-07
-3.316723e-07
9.951229e-08
-1.613946e-07
1.19583e-06
-2.819674e-07
-7.698071e-07
-1.29553e-08
-5.63812e-07
-1.082699e-06
-6.700278e-07
-1.391121e-06
1.450668e-08
-5.252181e-07
-3.178115e-07
-4.658138e-07
-2.782251e-08
1.384494e-07
-3.688496e-07
-5.656796e-07
-8.139867e-07
-1.267252e-08
1.613897e-07
-1.463246e-06
-1.186248e-07
-6.146505e-07
-3.856388e-07
-3.510718e-07
5.494835e-07
6.253676e-08
-1.184885e-08
-9.539186e-08
-1.034791e-06
-2.199054e-07
-2.540194e-07
-2.644823e-07
-2.787392e-07
-2.313868e-07
-2.54261e-07
-2.702272e-07
-2.628756e-07
-5.889729e-07
-2.108211e-07
6.00938e-10
-3.116736e-07
-2.304127e-07
-3.307105e-07
-3.079329e-07
6.887329e-07
4.152826e-07
9.08107e-08
-4.006421e-07
-1.123904e-07
1.152844e-08
-4.588465e-07
-2.136385e-07
-6.342883e-07
-5.746344e-07
1.61806e-06
-6.585665e-09
-5.662495e-08
5.537701e-08
-1.594753e-06
-1.727586e-06
-1.65971e-06
-1.911254e-06
6.95657e-07
1.670079e-07
1.788854e-07
1.098099e-08
5.15861e-09
-2.247513e-07
-1.008245e-06
-8.026071e-08
-1.551648e-06
-7.074843e-07
-1.770875e-06
-2.561846e-07
-1.075609e-07
4.499003e-07
1.300902e-06
-6.416082e-07
-1.448841e-06
-1.924188e-08
-4.645603e-08
-6.791779e-08
-1.294566e-06
1.86255e-06
4.5939e-07
-4.522124e-08
4.374326e-07
-2.309785e-06
-1.542346e-06
1.527142e-06
-5.094871e-07
-1.952898e-08
1.497287e-06
-2.219623e-08
5.828751e-07
-9.75273e-07
-1.068731e-06
-8.032075e-07
1.645774e-08
-1.413634e-07
-3.01653e-07
-3.352215e-07
-2.214126e-07
-1.832549e-07
-2.504193e-07
4.257734e-09
-1.75761e-06
-1.707114e-06
-2.277411e-06
-1.621199e-07
-9.314264e-08
-6.376306e-08
4.41458e-08
-1.911405e-07
-9.442234e-07
1.704158e-07
-1.371787e-07
-1.086505e-06
-1.021159e-06
-1.149211e-06
-1.431685e-07
-1.791193e-07
-2.848558e-07
-1.20787e-06
9.505153e-07
-3.333927e-07
3.059588e-07
-4.014331e-07
-3.664611e-07
-6.199836e-07
-4.182374e-09
1.00589e-06
2.119892e-08
3.887959e-08
-1.188461e-06
-1.385041e-08
2.547967e-08
1.674063e-07
7.480625e-08
2.438034e-07
8.691013e-08
-3.303077e-07
-4.7518e-07
-5.642211e-07
-2.456032e-07
-8.492502e-07
4.603531e-08
1.952168e-07
1.702693e-08
1.262174e-07
-3.791043e-09
-1.368135e-07
-1.684317e-09
-1.126651e-06
-1.210016e-06
-3.021474e-07
-1.858044e-08
-1.240787e-08
-2.276855e-06
-2.310338e-06
-1.536089e-06
-1.448282e-06
-1.799154e-07
-1.323962e-07
-1.339016e-07
-1.721397e-07
-1.079378e-07
-8.468571e-08
-1.014008e-07
-5.184643e-08
-3.152328e-07
-2.115788e-06
6.877013e-07
-7.543727e-09
-7.64782e-09
1.467057e-08
-7.437627e-08
-1.304758e-07
5.7157e-07
-1.219978e-07
2.013926e-07
-5.081119e-07
-1.633713e-08
2.291694e-08
-1.950944e-08
-1.029026e-06
-1.04944e-07
2.923004e-06
4.272804e-08
4.33586e-08
6.488995e-08
-1.444282e-06
-1.573854e-06
-1.303211e-06
-1.313534e-06
-8.677626e-07
-5.873296e-08
3.422448e-07
-1.988431e-06
-1.871567e-06
-1.895779e-06
8.383316e-09
-4.898063e-09
-4.363462e-08
-1.615887e-07
-1.745488e-07
-6.735082e-07
9.026979e-10
-1.369243e-06
-1.575144e-06
-6.927824e-07
-8.234027e-07
-3.765278e-08
-1.769972e-08
-1.191458e-07
-9.082973e-07
2.332897e-07
-5.985697e-07
2.403379e-07
5.185192e-08
-3.072158e-08
5.715123e-09
1.902094e-06
-3.969429e-08
-1.357484e-08
2.700056e-07
1.91175e-07
-2.372921e-06
2.886452e-09
-2.73955e-08
2.599576e-07
3.477458e-07
4.180974e-07
-4.497523e-07
-2.178728e-07
2.797164e-07
-1.872112e-07
-1.336889e-07
-6.137007e-07
1.024153e-07
-2.507819e-06
-2.939736e-06
-2.111609e-08
-3.170021e-09
9.948806e-09
-3.241842e-07
3.864696e-08
2.423761e-08
-8.884201e-09
-9.652149e-07
2.866382e-09
7.105574e-08
3.474233e-08
2.308322e-09
-2.26599e-07
-1.790342e-07
-6.564207e-08
-9.956841e-08
-4.847232e-08
1.268036e-08
-1.336394e-09
7.832424e-09
-2.383036e-07
1.600457e-07
1.867997e-07
-1.894209e-08
2.804118e-06
-9.666837e-08
-8.245593e-07
-1.075795e-06
-4.941894e-07
6.219877e-09
9.460796e-08
2.708079e-06
2.639862e-06
-8.375537e-07
8.440529e-07
2.471902e-07
-3.631479e-07
2.218231e-07
-7.528477e-08
-1.527587e-08
3.482245e-07
2.035104e-08
-1.774562e-07
-1.03131e-07
-8.650569e-08
8.194445e-08
-1.008381e-06
-2.837773e-08
-1.048883e-06
1.220845e-06
1.118361e-08
-3.867174e-07
1.921282e-08
-3.338009e-07
-3.171857e-07
-2.28345e-07
-2.501518e-07
-4.514824e-07
-4.202249e-08
-3.545165e-07
-3.625976e-07
-3.406755e-07
5.755716e-09
-1.45604e-08
7.473524e-08
-9.30387e-09
-7.272902e-09
-8.327306e-07
-8.068907e-07
-6.319125e-07
1.031506e-07
9.759424e-08
-3.096134e-07
4.80618e-08
-9.50167e-07
-9.074471e-07
-8.773303e-07
-1.28687e-06
2.373734e-08
6.148428e-08
-8.267645e-08
-1.107933e-06
2.638873e-07
5.001449e-07
-2.386549e-07
-4.799336e-07
4.241964e-07
5.785005e-07
5.251049e-07
-5.361397e-07
-5.104864e-07
-1.308933e-07
-8.117723e-07
3.613953e-07
3.297721e-07
6.357969e-07
5.449773e-07
-2.977001e-07
1.034892e-07
-5.744381e-07
-5.312125e-07
-5.671616e-07
-8.298709e-07
-2.270115e-07
-9.260374e-07
-1.838762e-08
-7.000323e-07
7.577001e-07
1.250125e-07
-1.257231e-06
-1.506831e-06
3.263693e-07
-1.331423e-07
-2.09827e-07
-7.620282e-08
-9.8011e-08
-4.222674e-08
1.779204e-09
-7.640723e-09
-1.517302e-07
-1.509756e-07
-8.910908e-08
-3.866194e-07
-3.693139e-07
-4.163457e-07
2.758132e-07
3.82757e-07
5.684093e-07
-9.709616e-07
-1.050981e-06
1.801074e-06
1.739695e-06
1.814527e-06
1.723472e-06
1.477941e-06
2.544887e-08
2.919803e-08
6.384589e-07
-3.658734e-08
1.58281e-06
-2.550741e-07
-2.745582e-07
-2.309039e-07
-2.396799e-07
2.300405e-06
1.649211e-09
-5.209547e-08
-7.118585e-08
9.392339e-08
2.022093e-07
-3.509868e-07
-2.914722e-07
2.807038e-07
-2.307185e-07
-3.536943e-07
-1.809302e-08
-8.82094e-09
8.025193e-09
-1.107728e-07
1.332419e-06
-1.496791e-06
-1.188886e-06
2.865094e-07
-1.838891e-07
1.144056e-07
6.945725e-07
5.688974e-07
9.781257e-07
-7.408718e-07
-1.069348e-06
3.427399e-07
8.335719e-09
-1.420847e-07
-1.676443e-07
-2.2539e-07
4.121758e-06
-1.057585e-06
-8.571904e-07
-5.169595e-09
8.415967e-07
1.104414e-06
-2.158216e-06
1.523867e-08
1.304288e-07
-3.825807e-08
-8.472632e-07
-1.122127e-07
1.996301e-08
-5.746938e-07
-8.433898e-07
1.846128e-06
-2.293082e-06
-1.742631e-08
-8.243239e-08
-1.206744e-07
-1.752629e-07
-1.985437e-07
-2.111315e-07
-1.498373e-07
-9.638781e-08
-1.345641e-07
-1.44666e-07
-7.353339e-08
-6.693519e-07
-7.853202e-07
-6.983661e-07
-2.659499e-07
-8.862605e-09
-1.085009e-08
-1.642731e-08
-2.606551e-08
-4.803891e-08
-3.913337e-08
-2.256527e-09
-4.838891e-08
-2.881688e-08
3.552679e-07
3.108944e-07
-6.106678e-09
-2.838229e-08
1.472222e-07
1.584663e-07
2.639828e-08
4.196943e-07
1.788637e-08
-2.904208e-07
-7.741609e-09
-1.485813e-06
1.711057e-07
-3.070695e-07
-9.555406e-07
1.291367e-07
1.410032e-08
2.032213e-08
-4.878045e-07
-5.880182e-07
-5.26589e-07
-4.561827e-07
-6.699211e-07
-5.575239e-07
-4.952174e-07
-4.235037e-07
-4.703309e-07
-7.024547e-07
-4.991418e-07
-4.928252e-07
-6.411072e-07
-7.466778e-07
-6.97963e-07
-6.170856e-07
-1.211163e-06
-1.252013e-06
6.78457e-07
3.099014e-08
-4.006752e-08
9.319113e-09
1.635263e-09
1.299222e-07
-8.035041e-07
-5.761292e-07
-5.487381e-07
-5.212762e-07
3.537099e-08
2.589011e-08
2.212335e-08
3.539211e-07
-1.717058e-07
-5.247093e-07
-2.11999e-07
-1.233216e-07
1.190769e-06
-1.929702e-07
1.036029e-07
8.561001e-08
4.848029e-07
4.469604e-07
8.646423e-07
2.559358e-07
-1.628846e-09
-1.380651e-08
-4.444106e-09
-7.371763e-08
5.185728e-08
-3.248097e-07
-2.500284e-07
1.196494e-07
-2.592656e-07
-9.669317e-08
-4.320525e-07
-1.774309e-07
-2.015418e-07
-4.378757e-07
-3.502136e-07
-2.987202e-07
4.530453e-07
2.140298e-08
5.970966e-08
7.058483e-08
6.551921e-07
4.723411e-07
-3.803773e-07
1.279002e-08
-1.805221e-07
-9.368474e-08
-4.592627e-08
-3.835261e-08
-2.892915e-07
7.417425e-08
-1.015648e-06
-1.602378e-07
-1.73951e-07
-6.742972e-07
-7.876435e-08
6.336011e-08
-1.658562e-06
-1.345456e-06
1.756389e-06
-1.168614e-08
3.737247e-07
5.145351e-07
-1.49517e-07
-9.457e-08
-1.72985e-07
-1.440488e-07
-1.589622e-07
-2.081872e-08
-2.069169e-07
-4.845799e-07
-8.684666e-07
-3.042987e-07
6.631545e-07
3.985117e-07
-7.864189e-07
-6.703966e-07
-8.056666e-07
-7.758539e-07
-1.151738e-06
-1.125674e-06
-1.457502e-06
-1.468557e-07
-2.444949e-07
-2.70445e-07
-2.973517e-07
-2.944084e-07
-3.832035e-07
-3.405236e-07
-2.91902e-07
2.721312e-07
-8.568734e-07
-1.481943e-07
-2.671145e-07
-2.64859e-06
-3.539097e-08
-2.293637e-07
-9.273502e-08
2.632626e-07
-1.253032e-08
-5.614422e-09
-6.579681e-07
-7.033121e-07
-6.352444e-07
-3.135047e-09
1.26462e-08
-8.491285e-08
-1.443209e-07
2.446792e-07
-3.85951e-08
-2.590801e-10
8.502049e-09
1.422516e-06
2.509614e-07
1.466246e-07
-2.108386e-07
-1.750077e-07
-9.655178e-08
5.729515e-08
-1.27215e-08
-3.58715e-07
-3.553018e-07
-1.247577e-07
-1.112518e-07
-2.243393e-06
-4.762731e-07
-5.731654e-07
3.30661e-07
3.788846e-07
6.620647e-07
4.885676e-08
-2.070856e-06
9.234639e-07
-1.041883e-08
-5.829291e-07
-6.209548e-07
-5.242293e-07
-4.067271e-07
-4.641605e-07
-2.078636e-08
-1.341253e-06
-1.09396e-06
-2.229845e-07
1.033315e-06
8.967062e-07
-1.666952e-06
-1.638975e-06
-8.88882e-08
1.520515e-09
-9.196976e-08
-9.206339e-08
-6.368709e-08
8.223796e-08
-4.005567e-07
-1.003271e-06
1.739808e-08
2.101534e-09
-3.015677e-08
9.430295e-08
1.18857e-08
-9.792832e-08
-1.223596e-07
3.671736e-07
3.787533e-07
-3.092348e-07
-7.846485e-10
-2.132757e-07
-2.082964e-07
-2.788284e-07
-1.148265e-06
9.770621e-08
1.433727e-08
-1.253667e-07
-1.005068e-07
-6.139529e-09
8.250148e-08
1.472502e-07
-8.385656e-07
-1.5856e-06
-6.524975e-08
-1.201544e-06
-5.163911e-09
2.560729e-09
-1.748705e-08
-8.090645e-07
-3.306379e-08
-5.223335e-08
-5.568978e-08
-3.680342e-07
-1.230792e-07
-9.680849e-09
-1.314309e-07
-2.005007e-07
-9.522391e-07
-1.032959e-07
-4.535982e-08
-2.094173e-08
-2.582385e-06
-3.838816e-07
-4.046131e-07
-3.816178e-07
-4.535426e-07
-2.044568e-07
-1.941025e-07
-2.079161e-06
-1.1837e-06
-1.124856e-06
-8.452701e-07
-2.652442e-08
-1.062472e-08
-1.397242e-06
1.56795e-09
5.36363e-08
-2.739547e-07
-2.358309e-07
4.770153e-09
7.148088e-08
6.334785e-08
5.769814e-08
6.716733e-07
-1.533435e-07
-8.657848e-09
3.860137e-09
1.564683e-09
-7.473346e-07
-1.966277e-07
-1.635161e-07
-7.690638e-07
-1.337053e-06
-1.379434e-06
-1.867133e-06
-7.141306e-07
6.685574e-09
-1.384372e-08
5.057779e-08
-1.593606e-08
-1.698616e-07
5.148212e-07
-5.586923e-07
-1.933974e-08
-2.816214e-08
-1.133443e-06
-1.289865e-06
-4.296599e-07
-4.118065e-07
-7.946823e-07
-6.128341e-07
-5.666341e-07
-5.766519e-07
-5.475503e-07
-6.811427e-07
-7.334788e-07
-5.143327e-07
-5.648526e-07
-5.484404e-07
-5.489997e-07
-5.159114e-07
-5.303614e-07
-5.462315e-07
-4.615851e-07
-5.852342e-07
-6.04425e-07
-6.220325e-07
-6.747674e-07
-7.373346e-07
-8.124545e-07
-4.679361e-07
-5.040987e-07
-5.654535e-07
-5.908131e-07
-6.272277e-07
-5.35147e-07
-4.657705e-07
-6.759621e-07
-6.953092e-07
-5.557785e-07
-5.410738e-07
-7.588249e-08
-2.132771e-07
4.821113e-08
-5.917042e-08
-6.312135e-08
-6.759288e-07
-2.57374e-08
-2.246098e-09
-1.507991e-07
3.187036e-07
1.405195e-07
2.456229e-06
2.168279e-06
-3.494299e-07
-1.101486e-06
-1.11994e-06
-2.992757e-07
2.143276e-07
-9.683978e-07
-1.556345e-06
1.298553e-08
-8.89671e-08
-2.201259e-06
-1.792415e-06
-2.986263e-08
-3.850188e-07
-5.706117e-07
2.971698e-08
2.891261e-07
1.957576e-06
1.085896e-08
-6.315302e-07
-6.433407e-07
-4.154056e-09
-3.23037e-07
-1.916758e-07
2.483612e-08
5.281833e-09
-6.034629e-07
4.307827e-08
6.610298e-09
-1.026963e-08
-4.735944e-08
-1.607485e-06
-1.747486e-06
1.36988e-06
1.727705e-06
-1.687102e-06
-1.799392e-06
-1.389217e-06
-1.024956e-06
1.270724e-09
-2.520494e-08
-2.230727e-07
-1.399393e-06
-1.758021e-07
-7.880586e-07
-1.077565e-06
-1.722069e-07
-4.250046e-07
-3.623828e-07
-1.007922e-06
1.429391e-08
2.94046e-07
-1.087538e-06
4.810688e-07
8.017615e-07
-1.777992e-08
-3.716395e-07
-5.44939e-07
3.789489e-09
1.358855e-07
5.616634e-09
1.429603e-06
1.088554e-06
7.796863e-08
6.310287e-11
-4.56814e-07
-1.138371e-06
-1.000756e-06
-1.253077e-08
-1.15432e-07
-1.227841e-07
-1.51677e-07
2.682601e-07
-1.068398e-07
-5.808466e-08
-1.404787e-06
-2.337764e-09
-5.062798e-07
-5.844671e-07
-5.898076e-07
-5.182618e-07
-5.529331e-07
-4.883387e-07
2.563652e-07
-5.364252e-07
-5.876799e-08
-1.298368e-08
-2.618367e-08
-1.15974e-07
-4.846167e-08
-7.075494e-07
-6.793586e-07
-3.361115e-08
-4.481211e-07
-3.619287e-07
3.664027e-07
-1.379325e-06
1.700529e-07
3.490141e-07
-1.442174e-07
-2.435039e-07
-3.2596e-07
7.566821e-07
9.220865e-08
-5.54109e-07
2.06984e-06
-8.067509e-07
-1.09915e-06
1.039445e-07
-7.217233e-07
-8.172823e-08
-8.628005e-07
-7.055527e-07
3.95641e-08
-1.27253e-06
-1.076568e-08
-1.255007e-08
-2.27448e-08
5.43356e-09
2.965708e-07
3.275916e-07
9.956916e-08
-6.795728e-07
-7.744095e-07
1.282747e-06
-5.261438e-08
4.991386e-08
-4.252731e-07
2.838726e-07
-1.931422e-08
4.694858e-08
1.484134e-07
-8.852908e-07
-1.593244e-08
1.572073e-08
1.769793e-07
-5.836931e-07
-2.103373e-07
-6.469162e-07
3.680972e-08
7.206646e-08
3.387178e-07
-1.237295e-06
-1.475553e-06
-1.056123e-06
-6.036701e-07
2.210099e-08
-5.869727e-07
-4.29056e-07
-4.429842e-07
-3.165207e-07
-2.082861e-07
-1.972666e-06
-2.065181e-06
-2.214192e-07
2.17252e-07
-1.864775e-06
-1.495153e-06
-2.084514e-06
-2.721896e-06
-5.541354e-08
-1.839335e-06
-7.623989e-08
-1.001696e-07
-1.00352e-07
-7.668218e-08
-5.41087e-08
-1.375704e-07
-1.343559e-07
1.324371e-06
-6.571392e-07
-4.047575e-07
-3.978069e-07
-3.50414e-07
-3.815745e-07
-6.167773e-09
-7.831621e-08
-6.9538e-09
-1.483428e-07
-1.319449e-07
8.127185e-07
-3.345262e-07
-2.443413e-07
-5.312234e-08
-1.004475e-06
-2.524967e-07
-3.933751e-07
-2.045857e-07
-2.705545e-07
-2.621797e-07
1.484317e-06
-3.280494e-08
3.64595e-07
7.549677e-07
2.61721e-07
2.241859e-07
-2.784095e-06
-1.028439e-06
8.593646e-07
5.770365e-07
1.835272e-07
1.00636e-07
-1.356172e-06
-9.201959e-08
-4.000452e-08
-6.800296e-08
-4.759775e-08
-6.116678e-08
-7.621127e-07
-7.636706e-07
5.600998e-09
1.29333e-06
1.084177e-06
-1.741952e-07
-8.236279e-07
2.073884e-08
-2.205592e-07
-1.724417e-08
-9.634518e-11
-1.306596e-06
4.193949e-08
-2.134735e-06
5.658898e-07
-2.299191e-06
-2.127249e-06
-2.991036e-07
-3.73759e-07
-1.270003e-06
2.809897e-08
6.511463e-08
-1.180024e-06
-1.443227e-06
-9.469437e-07
-2.768575e-07
9.95046e-08
-8.960735e-08
-3.326961e-09
-1.241767e-06
6.982405e-09
-9.931189e-07
-3.115475e-07
-3.73666e-07
-9.384988e-07
-1.238767e-06
2.516116e-07
1.276184e-07
-4.019995e-08
8.865339e-10
-4.678818e-08
-3.339144e-08
-1.558971e-06
1.395373e-07
-3.274175e-07
-6.896351e-07
1.363221e-08
2.578074e-07
3.199129e-07
-1.428485e-07
-1.985786e-06
-7.817521e-07
-2.84133e-07
-2.805529e-07
5.853421e-08
3.530323e-08
9.105062e-09
-3.885828e-07
-9.094186e-08
3.442436e-07
1.227609e-06
-2.237813e-07
-5.344901e-07
-9.890144e-07
-8.756984e-08
-5.556214e-08
-4.81875e-07
9.567059e-09
-3.045354e-08
8.405366e-09
3.192984e-08
-7.051654e-09
-7.404785e-07
-3.666993e-07
4.084218e-07
-7.07373e-07
-5.257886e-07
1.44735e-07
-1.157538e-06
-7.710004e-07
-2.938283e-07
7.998733e-07
-1.315489e-07
-1.339785e-07
-3.792817e-07
-1.787698e-07
-5.254328e-07
4.048864e-07
-2.303793e-07
-2.255259e-07
-8.11128e-07
-9.850454e-08
-8.117175e-08
-1.319149e-07
-1.185159e-07
2.769827e-07
1.636091e-07
-8.100663e-07
-1.078224e-06
1.996768e-08
-1.838199e-06
-1.685333e-06
-2.47093e-06
-2.930427e-06
-4.968089e-07
4.474243e-07
-1.769007e-07
-1.984378e-07
4.568128e-08
-1.125873e-07
2.170776e-06
-4.090262e-08
-5.561739e-08
-6.197674e-08
-9.037542e-08
-5.897752e-08
-4.372114e-07
6.015411e-07
1.019234e-07
-5.976342e-07
-3.252481e-07
-3.56909e-07
-2.85598e-07
-2.157451e-07
-2.641959e-07
4.080852e-07
4.068965e-07
-1.301251e-07
-3.065664e-07
5.379374e-07
-1.015623e-06
-1.093353e-06
-9.661668e-07
3.870844e-07
-1.862908e-06
-1.73708e-07
-9.646011e-08
-3.473409e-07
-4.261858e-07
6.136859e-08
8.607246e-09
-1.661799e-07
-2.049773e-07
-1.178443e-09
-6.883065e-09
-1.234647e-07
4.862856e-09
-5.514523e-08
2.826813e-07
2.734042e-07
-7.455735e-07
-9.011118e-08
-4.743234e-08
-1.401397e-07
1.529906e-07
-1.232749e-06
-1.143926e-06
-1.248204e-06
-9.011625e-07
-1.276017e-06
-1.239928e-06
-1.254699e-06
-1.274566e-06
1.055854e-08
-1.081364e-07
-5.157682e-07
-7.906546e-07
-8.087331e-07
-7.508789e-07
-6.873941e-09
-7.684184e-08
-1.599973e-07
-1.383926e-07
-1.201145e-07
-1.594264e-07
-1.134535e-07
-1.329243e-07
-1.94673e-07
-1.566001e-07
1.280891e-08
6.677374e-09
1.505507e-10
1.358917e-06
1.999518e-07
-2.902899e-07
-2.870344e-07
-6.503592e-07
-1.104564e-06
-2.222858e-07
-2.023836e-07
-4.394235e-07
-8.453663e-08
-1.27839e-07
-2.833322e-07
3.280723e-08
5.298147e-08
9.909178e-09
-8.724905e-09
8.02043e-08
6.761236e-07
-1.120168e-08
-9.417284e-08
-9.650571e-08
2.61847e-07
3.185805e-07
-1.669514e-07
-1.31994e-07
1.613913e-08
4.058085e-07
-2.747975e-08
-4.480226e-08
3.12049e-07
-8.56908e-07
-8.66706e-07
-2.434639e-07
-2.415506e-07
-2.058322e-07
-1.27045e-06
-4.878277e-07
1.619176e-07
1.942478e-06
-8.9945e-08
-9.023909e-08
-1.169072e-07
-1.323554e-06
-1.308569e-08
-5.895756e-08
3.526757e-07
-1.297865e-06
1.437884e-08
-2.291727e-07
-3.529226e-07
-2.272701e-08
-6.971203e-07
1.74671e-08
1.966249e-08
-2.619039e-07
-7.243772e-07
-1.266615e-07
-1.153245e-07
-1.154577e-06
1.288687e-07
-1.317482e-07
-1.541233e-07
1.077461e-06
-5.595652e-09
7.871576e-09
-1.754169e-07
-3.442872e-08
-6.012182e-08
-6.254675e-08
9.723799e-08
-1.320488e-07
-7.119189e-07
-3.628769e-07
3.985562e-07
-5.650273e-08
-3.450212e-08
-3.535535e-08
-2.440021e-08
-1.633317e-08
8.528265e-08
7.609835e-08
-5.064693e-08
-6.305095e-07