/*--------------------------------*- C++ -*----------------------------------*\
| =========                 |                                                 |
| \\      /  F ield         | OpenFOAM: The Open Source CFD Toolbox           |
|  \\    /   O peration     | Version:  2406                                  |
|   \\  /    A nd           | Website:  www.openfoam.com                      |
|    \\/     M anipulation  |                                                 |
\*---------------------------------------------------------------------------*/
FoamFile
{
    version     2.0;
    format      ascii;
    arch        "LSB;label=32;scalar=64";
    class       surfaceScalarField;
    location    "0.22";
    object      phi;
}
// * * * * * * * * * * * * * * * * * * * * * * * * * * * * * * * * * * * * * //

dimensions      [0 3 -1 0 0 0 0];

oriented        oriented;

internalField   nonuniform List<scalar> 
6770
(
5.040171e-11
-1.755303e-09
1.704902e-09
-1.466496e-09
3.359679e-10
1.130528e-09
-1.470592e-09
1.373361e-09
9.723088e-11
1.687392e-09
-1.015811e-09
-6.715811e-10
7.545414e-09
-6.790682e-09
-7.547314e-10
6.201467e-10
8.568836e-10
-1.47703e-09
-1.12298e-09
1.629888e-09
-5.069082e-10
-1.268922e-09
1.226079e-09
4.284276e-11
-8.814463e-10
-8.254818e-10
1.706928e-09
-1.179637e-09
1.227505e-09
-4.786829e-11
2.492622e-10
-1.290788e-09
1.041525e-09
7.314629e-10
-1.668899e-09
9.37436e-10
1.370655e-09
-1.401694e-09
3.103837e-11
1.111045e-09
-1.644634e-09
5.335895e-10
-2.087603e-10
1.790874e-09
1.824471e-09
-4.897297e-09
3.072827e-09
4.469804e-10
1.365665e-09
-1.812646e-09
-2.322594e-09
5.716028e-10
1.750991e-09
-1.313784e-09
9.823778e-10
3.314058e-10
-6.388891e-10
-1.169479e-09
1.808368e-09
-7.544761e-10
-1.089405e-09
1.843882e-09
5.467105e-10
-1.508438e-09
9.617273e-10
8.778451e-10
-1.803174e-09
9.253288e-10
1.515422e-09
-1.115784e-09
-3.996378e-10
-1.198102e-09
8.976732e-10
3.004289e-10
-1.306638e-09
-3.315035e-10
1.638142e-09
1.211091e-09
4.10594e-10
-1.621685e-09
7.722351e-10
9.658127e-10
-1.738048e-09
-1.585362e-09
8.599939e-10
1.335632e-10
-1.037355e-09
9.037914e-10
3.485653e-10
-1.395383e-09
1.046817e-09
1.887183e-09
-1.549634e-09
-3.375489e-10
1.48774e-09
-2.701614e-10
-1.217579e-09
-1.88327e-10
1.704436e-09
-1.51611e-09
-2.077108e-09
2.004919e-09
7.218911e-11
-6.558086e-09
5.016544e-09
1.541542e-09
8.629254e-10
-1.713698e-09
8.507726e-10
-2.042107e-09
1.40829e-09
6.338173e-10
-1.008373e-09
2.169225e-09
-1.160852e-09
3.088406e-09
-2.678283e-09
-4.101231e-10
1.596904e-09
-1.509908e-09
-8.699575e-11
1.737681e-09
-7.548302e-10
-9.828508e-10
-1.982522e-09
1.636056e-09
3.46466e-10
-1.591465e-09
1.005866e-09
5.855993e-10
-1.2718e-09
8.63778e-10
4.08022e-10
-1.985506e-09
1.637496e-09
3.4801e-10
-1.219056e-09
8.244654e-10
3.945903e-10
-7.893746e-10
-8.264287e-10
1.615803e-09
-5.585844e-10
-1.435073e-09
1.993658e-09
-1.590164e-09
-5.330038e-10
2.123168e-09
5.675701e-10
9.419785e-10
-1.509549e-09
-1.184562e-09
3.305802e-10
8.539819e-10
-5.879927e-09
2.660677e-10
5.613859e-09
-1.180281e-09
-4.499663e-10
1.630247e-09
1.603507e-09
7.808645e-10
-2.384371e-09
-1.470197e-09
1.009051e-09
4.611462e-10
1.488378e-09
-2.870211e-10
-1.201356e-09
-1.586871e-09
1.160582e-09
4.262882e-10
3.806505e-10
1.430683e-09
-1.811334e-09
-5.100448e-10
-2.316448e-09
2.826492e-09
-1.503793e-09
1.441769e-09
6.202427e-11
-1.175905e-09
3.254326e-10
8.504726e-10
3.977154e-10
1.293865e-09
-1.69158e-09
-3.32618e-10
-1.441093e-09
1.773711e-09
-1.663141e-09
1.856471e-09
-1.68563e-09
1.016432e-09
6.691977e-10
2.461239e-11
-1.746524e-09
1.721912e-09
1.036116e-09
-1.750996e-09
7.1488e-10
-2.458407e-11
-1.459927e-09
1.484511e-09
-1.486941e-09
9.432377e-10
5.437036e-10
-6.49528e-10
-1.004647e-09
1.654175e-09
2.189767e-09
-9.543859e-10
-1.235381e-09
1.167302e-09
6.289167e-10
-1.796219e-09
-9.158144e-10
-8.293766e-10
1.745191e-09
-3.904383e-10
1.905129e-09
-1.514691e-09
5.391826e-10
1.833801e-09
-2.372984e-09
-1.066027e-09
1.570179e-09
-5.041525e-10
-1.698822e-09
3.78823e-10
1.319999e-09
1.861035e-09
-4.556546e-10
-1.40538e-09
-2.136033e-10
3.345859e-09
-3.132256e-09
-4.672278e-09
8.136646e-09
-3.464368e-09
-1.273248e-09
-3.14822e-09
4.421468e-09
-2.046104e-09
1.438528e-09
6.075759e-10
-5.805068e-10
1.79694e-09
-1.216433e-09
-1.705005e-09
1.516678e-09
-1.077758e-09
-7.164203e-10
1.794178e-09
7.117499e-10
1.289292e-09
-2.001041e-09
-1.414097e-09
5.839241e-10
8.301724e-10
-1.572369e-10
-1.21271e-09
1.369947e-09
-1.716194e-09
3.754264e-10
1.340768e-09
-9.399572e-10
-1.130579e-09
2.070537e-09
7.251894e-10
-1.626302e-09
9.011125e-10
-1.207041e-09
-4.500034e-10
1.657045e-09
1.517752e-09
-3.200101e-10
-1.197741e-09
9.950489e-10
5.53366e-10
-1.548415e-09
1.1865e-09
-3.69511e-10
-8.169886e-10
8.070466e-10
-1.667332e-09
8.602854e-10
-1.286266e-09
1.172143e-09
1.141224e-10
6.854918e-10
-1.544674e-09
9.821485e-10
8.22755e-10
-1.804903e-09
-6.402511e-10
1.524142e-09
-8.83891e-10
-9.963426e-10
1.729945e-09
-7.336028e-10
1.649895e-09
-3.988096e-10
-1.251085e-09
-1.784357e-09
1.124517e-09
6.598398e-10
1.551619e-09
-1.233279e-09
-3.183397e-10
1.217081e-09
-1.022971e-09
-1.9411e-10
-1.341588e-09
1.217847e-09
1.237407e-10
2.088834e-09
-1.533299e-09
-5.555356e-10
9.774974e-10
-1.407922e-09
4.304245e-10
6.177848e-09
-9.618574e-10
-5.21599e-09
1.757825e-09
-4.454133e-10
-1.312412e-09
1.586331e-09
-5.142403e-10
-1.072091e-09
-8.861254e-10
1.455603e-09
-5.694772e-10
1.68419e-09
-1.260565e-09
-4.236251e-10
1.015431e-09
9.229374e-10
-1.938368e-09
1.044138e-09
6.93543e-10
-1.730917e-10
-4.438814e-09
4.611906e-09
-2.579565e-11
-1.374026e-09
1.399822e-09
-1.539096e-09
5.247554e-10
1.014341e-09
-1.304358e-09
1.084639e-09
2.197191e-10
9.311315e-10
1.682831e-09
-2.613962e-09
-7.024183e-10
1.728932e-09
-1.026514e-09
-1.546628e-09
1.68202e-09
-1.353911e-10
1.822341e-09
-1.248478e-09
-5.738632e-10
8.129391e-10
1.05532e-09
-1.868259e-09
-3.777207e-10
1.7044e-09
-1.326679e-09
5.817369e-10
-1.916874e-09
1.335137e-09
-1.265381e-09
1.63431e-09
-3.689282e-10
1.95072e-09
-9.556713e-10
-1.950071e-09
1.452763e-09
4.973087e-10
1.015574e-09
8.643188e-10
-1.879893e-09
-7.919291e-10
-5.178726e-10
1.309802e-09
1.539842e-09
-3.227609e-10
-5.506691e-10
-8.219325e-10
1.372602e-09
1.563261e-09
-4.536419e-10
-1.109619e-09
2.000992e-09
-9.699676e-10
-1.031024e-09
1.228336e-09
5.003192e-10
-1.728655e-09
-1.661934e-09
1.419854e-09
2.420801e-10
4.438466e-09
8.898277e-10
-5.328293e-09
1.53056e-09
-1.444905e-09
-8.565516e-11
-1.588935e-09
9.697516e-10
6.191833e-10
1.192985e-09
-4.928674e-09
3.735688e-09
-1.552775e-09
3.126222e-10
1.240153e-09
1.150761e-09
7.884423e-10
9.142296e-10
6.992743e-10
-1.613504e-09
1.703339e-09
-1.43016e-09
-2.731795e-10
7.113734e-10
-1.365242e-09
6.538687e-10
5.692661e-10
-1.371666e-09
8.023998e-10
1.840744e-09
-1.487657e-09
-3.530867e-10
-7.668042e-09
1.788116e-09
2.179983e-10
1.076849e-09
-1.294848e-09
-1.157034e-09
7.531775e-10
4.038566e-10
6.060943e-10
9.698493e-10
-1.575944e-09
7.309367e-10
8.864027e-10
-1.617339e-09
1.54503e-09
-9.689435e-10
-5.760866e-10
-6.352058e-11
2.641006e-09
-2.577486e-09
-1.699321e-09
9.077527e-10
7.915681e-10
-8.923829e-10
1.8795e-09
-9.871169e-10
1.512622e-09
4.165152e-10
-1.929137e-09
-1.578546e-09
-2.839623e-10
1.862509e-09
1.140173e-09
-1.784532e-09
6.443591e-10
-1.884399e-09
2.423581e-09
1.218729e-09
-1.023606e-09
-1.951227e-10
4.4649e-10
-1.532241e-09
1.085751e-09
-2.468724e-10
1.53224e-09
-1.285367e-09
-1.719731e-09
2.495341e-10
-1.552773e-09
2.657759e-10
1.286997e-09
3.659218e-10
-1.744138e-09
1.378216e-09
-1.722854e-09
7.048507e-10
1.018003e-09
-6.191097e-10
2.430991e-09
-1.811881e-09
-1.951062e-09
1.196586e-09
1.419705e-09
-3.256901e-11
-1.387136e-09
7.910103e-10
7.89629e-10
-1.580639e-09
2.793808e-10
-1.626836e-09
1.347455e-09
-8.325184e-10
1.825259e-09
-9.927405e-10
-5.105601e-10
2.023182e-09
1.206015e-09
-1.58274e-09
3.767257e-10
9.091017e-11
-1.637539e-09
-1.880452e-11
1.310259e-09
-1.291454e-09
-1.478279e-09
6.810377e-10
7.97241e-10
1.364463e-09
-1.589748e-09
2.252842e-10
1.813492e-10
-1.646786e-09
1.465437e-09
-9.521315e-10
1.663505e-09
2.767209e-09
-1.366151e-09
6.894913e-10
6.7666e-10
2.057203e-10
8.287814e-10
-1.034502e-09
1.117745e-09
-1.498252e-09
3.805071e-10
3.969323e-10
1.278188e-09
-1.67512e-09
-1.241112e-09
1.904979e-09
-6.638676e-10
1.016921e-09
-1.178404e-09
1.614823e-10
1.501675e-09
-5.250786e-10
-9.765962e-10
1.156324e-09
5.094665e-10
-1.665791e-09
-1.672786e-09
1.145977e-09
5.268091e-10
3.525876e-10
-1.32936e-09
9.767722e-10
-1.644212e-09
1.027036e-09
6.171759e-10
-2.695446e-10
-1.208734e-09
-1.805095e-09
1.311581e-09
4.935139e-10
-7.771145e-10
1.759263e-09
-1.72837e-09
1.109261e-09
1.072351e-09
7.130703e-10
-1.785421e-09
6.453979e-10
-2.035463e-09
1.390065e-09
-8.11559e-10
-1.067256e-09
1.878815e-09
-1.628632e-09
5.094673e-10
1.119165e-09
1.514009e-10
-1.17394e-09
1.022539e-09
1.00315e-09
1.777028e-10
-1.180853e-09
-1.894132e-10
1.554447e-09
-1.365034e-09
1.584803e-09
-1.359598e-09
-2.252048e-10
2.000729e-09
-9.285733e-10
-1.072156e-09
3.098904e-10
1.371213e-09
-1.681103e-09
8.799776e-10
8.892904e-10
-1.769268e-09
-1.116008e-09
-5.551398e-10
1.671148e-09
5.249767e-10
-1.302325e-09
7.773481e-10
1.7665e-09
-7.267859e-10
-1.039714e-09
9.736914e-10
4.934834e-10
-1.467175e-09
1.943008e-10
9.686685e-10
-1.162969e-09
1.374154e-09
6.26575e-10
-4.758637e-10
-1.226464e-09
1.702328e-09
-1.292112e-09
-2.593593e-10
1.551472e-09
1.536364e-09
-5.140122e-10
-1.022352e-09
8.346604e-10
-1.93338e-09
1.09872e-09
-1.397422e-09
3.441605e-10
1.053262e-09
1.11611e-09
-1.639583e-09
5.234731e-10
4.994217e-12
-1.861918e-09
1.856924e-09
3.126855e-09
-1.523348e-09
1.410331e-09
-1.17705e-09
-2.332811e-10
-1.590018e-09
9.930061e-10
5.970115e-10
-9.300373e-10
1.133967e-09
-2.039299e-10
1.46951e-10
-1.370863e-09
1.223912e-09
9.094517e-10
-1.777114e-09
8.676624e-10
-1.558218e-09
-5.315537e-10
2.089772e-09
-1.320999e-09
-1.454974e-10
-1.735714e-09
9.71999e-10
7.63715e-10
8.26128e-10
9.884664e-10
-1.814594e-09
1.438769e-09
-2.153603e-09
7.148342e-10
-1.062145e-09
1.604868e-09
-5.427237e-10
1.754969e-09
-5.266328e-10
-1.776952e-09
2.93035e-10
1.483917e-09
-1.078927e-09
1.941165e-09
-8.622377e-10
-8.03166e-10
-1.077577e-09
1.880743e-09
-1.248234e-09
2.220283e-09
-9.720482e-10
-1.791998e-09
1.994988e-09
-1.222753e-09
-1.218722e-09
1.733805e-09
-5.150823e-10
-1.225411e-09
3.659065e-10
8.595049e-10
1.820246e-09
-1.324684e-09
-4.955618e-10
2.032743e-09
-1.573167e-09
-4.595757e-10
1.743165e-09
-6.159092e-10
-1.127255e-09
-1.237745e-09
-4.091561e-10
1.646901e-09
1.155351e-09
3.810134e-10
1.529381e-09
2.371184e-10
1.579791e-09
-9.280751e-10
-6.517159e-10
8.543944e-10
-1.852826e-09
9.984315e-10
1.482838e-09
5.907182e-11
-1.54191e-09
-8.870875e-10
-5.693209e-10
1.456408e-09
1.424022e-09
-1.048847e-09
-3.751751e-10
-1.228497e-09
-4.848116e-10
1.713309e-09
1.960475e-10
-1.222305e-09
1.026258e-09
-1.667931e-09
1.707393e-09
-3.946257e-11
-1.093011e-09
-6.989863e-10
-9.133171e-10
-3.632103e-10
1.276527e-09
-1.952652e-09
8.773226e-10
1.075329e-09
1.873348e-09
-1.439339e-09
-4.340087e-10
1.037585e-09
9.498174e-10
-1.987403e-09
-1.653038e-09
3.691473e-10
1.283891e-09
1.745261e-09
-2.874151e-10
-1.457846e-09
6.771352e-10
1.267446e-09
-1.416943e-09
1.494969e-10
-1.44062e-09
-3.338704e-10
1.77449e-09
1.209814e-09
9.108962e-10
-2.12071e-09
-2.107834e-09
9.48295e-10
1.159539e-09
-8.080508e-10
1.599638e-09
-7.91587e-10
8.235924e-10
-1.133443e-09
3.098509e-10
-1.955336e-10
-1.496795e-09
1.692329e-09
-4.764946e-09
3.491698e-09
1.836918e-09
-5.11523e-09
3.278312e-09
-1.731357e-09
1.276892e-09
4.54465e-10
-1.745654e-09
1.487335e-09
2.58319e-10
1.394774e-09
-2.651394e-11
-1.36826e-09
-1.710147e-09
1.395211e-09
3.149362e-10
-2.918819e-09
-9.64249e-11
3.015244e-09
-5.171808e-10
1.929919e-09
-1.412739e-09
1.356748e-09
-2.368667e-09
1.011919e-09
-4.277286e-12
1.392272e-09
-1.387995e-09
-1.364848e-09
-4.800336e-10
1.844882e-09
-1.509993e-09
1.79547e-09
-2.854762e-10
2.348136e-09
-1.251077e-09
-1.097059e-09
-1.61456e-09
4.494209e-10
1.165139e-09
-1.584168e-09
8.926752e-10
6.914931e-10
2.904999e-10
1.45199e-09
-1.742489e-09
-1.652504e-09
1.002976e-09
1.390693e-09
1.065847e-10
-1.497277e-09
1.565656e-09
-8.124703e-10
-7.531852e-10
-1.713678e-10
1.200504e-09
-1.029136e-09
-7.477655e-10
-1.044401e-09
1.792166e-09
-1.860858e-09
6.909593e-10
1.169899e-09
1.257047e-09
3.970876e-11
-1.296755e-09
1.08802e-09
1.23275e-09
-2.32077e-09
1.11002e-09
1.124326e-09
-1.375583e-09
2.512569e-10
2.649428e-09
-7.207327e-09
4.5579e-09
1.830192e-09
5.705617e-11
-1.887248e-09
-1.477813e-09
9.547358e-10
5.230773e-10
1.671425e-09
-8.246356e-10
-8.467897e-10
1.022859e-09
-1.187671e-09
1.648113e-10
-4.97231e-09
-2.695732e-09
-6.246029e-10
1.486515e-09
-8.619118e-10
1.733014e-09
-8.70089e-10
-1.816957e-09
-9.572357e-11
1.912681e-09
1.703233e-10
1.480952e-09
-1.651276e-09
1.068193e-09
-1.566339e-10
-9.115589e-10
-8.790549e-10
-5.270433e-10
1.406098e-09
-1.602322e-09
-1.352364e-09
2.954685e-09
-1.039263e-09
-8.822092e-10
1.921472e-09
9.92255e-10
-1.68358e-09
6.913246e-10
-1.212368e-11
-1.302234e-09
1.314358e-09
-5.159742e-10
-1.177917e-09
1.693891e-09
-6.752988e-10
1.796413e-09
-1.121114e-09
1.641552e-09
-2.649925e-09
1.597546e-09
-1.779772e-09
1.82226e-10
1.397426e-09
-2.150737e-09
7.533111e-10
7.826139e-10
2.550889e-10
-1.037703e-09
2.119363e-09
6.478455e-10
-3.55181e-10
-1.622109e-09
1.97729e-09
2.616238e-10
-1.784125e-09
1.522501e-09
-7.724186e-10
-8.141898e-10
1.586608e-09
1.600596e-09
-1.626392e-09
-2.883022e-10
1.476043e-09
-1.187741e-09
4.426027e-11
-1.505728e-09
1.461468e-09
-1.200588e-09
-4.987323e-10
-8.397966e-10
1.091995e-09
-2.521985e-10
1.546407e-09
-1.894859e-09
3.484523e-10
2.746836e-09
-2.725555e-09
-2.128188e-11
1.479621e-09
-1.124028e-09
-3.555932e-10
-1.505952e-09
1.12638e-09
3.795716e-10
1.738347e-09
-1.23771e-09
3.951179e-10
1.343229e-09
1.09551e-09
-1.547638e-09
4.521278e-10
1.01332e-09
-1.167744e-09
1.544248e-10
-6.70199e-10
8.512812e-10
8.896083e-10
-1.740889e-09
1.02475e-09
-1.175296e-09
1.505461e-10
-1.357721e-09
1.579101e-09
-2.213795e-10
1.440549e-09
-2.84225e-10
-1.860327e-09
7.973363e-10
1.06299e-09
1.937456e-09
-2.363745e-10
-1.701082e-09
-1.616293e-12
1.233303e-09
-1.231686e-09
-1.433546e-10
1.308931e-09
-1.165577e-09
-1.503082e-09
-8.153177e-11
1.584614e-09
-1.408598e-09
1.526111e-09
-1.175137e-10
-1.412115e-09
1.04244e-09
3.696756e-10
1.178814e-09
-1.023586e-09
-1.55228e-10
1.926454e-09
-1.587914e-09
-3.385397e-10
-1.389812e-09
1.877975e-10
1.202015e-09
1.838632e-09
-1.169416e-09
-6.692158e-10
-8.992029e-10
-1.964827e-09
2.660051e-10
-6.108866e-10
-1.071439e-09
1.682325e-09
-8.456559e-10
1.082188e-09
-2.365324e-10
1.636455e-09
-1.987249e-09
3.507944e-10
-1.231735e-09
2.139487e-09
1.745336e-09
-9.537675e-10
-1.233864e-09
-3.963165e-10
1.630181e-09
-3.448717e-10
-9.269282e-10
8.012581e-10
2.440505e-09
-3.241763e-09
-1.111863e-09
1.6936e-09
2.128715e-09
-1.511746e-09
-6.169691e-10
8.902566e-10
8.653254e-10
-1.755582e-09
1.784668e-09
-1.420395e-10
-1.642628e-09
-6.802369e-11
-1.34282e-09
1.410844e-09
-1.054433e-09
-5.682703e-10
1.622704e-09
9.946831e-11
1.627809e-09
-1.727277e-09
-1.471562e-09
1.827355e-09
-3.557936e-10
1.116066e-09
6.01508e-10
-1.717574e-09
-5.10276e-10
1.321425e-09
-8.111492e-10
-1.795705e-09
1.531686e-09
2.640191e-10
-1.222667e-09
1.287802e-09
-6.513461e-11
-4.683303e-10
-7.727171e-10
1.241047e-09
2.026034e-09
-1.322865e-09
-7.031692e-10
-5.006091e-10
-7.362703e-10
1.236879e-09
-2.761113e-11
1.113346e-09
-1.085735e-09
1.356816e-09
-1.440352e-09
8.353618e-11
1.446196e-09
2.272777e-10
-1.673474e-09
5.036742e-10
7.418693e-10
-1.245544e-09
-4.872504e-10
-8.518217e-10
1.339072e-09
-8.649866e-10
1.58263e-09
-7.176432e-10
1.353566e-09
-1.670666e-10
-6.628435e-10
2.076158e-09
-1.413314e-09
8.069338e-10
6.66133e-10
-1.473067e-09
1.86893e-09
-1.003158e-09
-8.657722e-10
-4.343558e-10
-1.223271e-09
1.657627e-09
-8.860462e-10
1.575527e-09
-6.894804e-10
2.397141e-09
-6.365262e-10
-1.760615e-09
1.882026e-09
-1.134905e-09
-7.471206e-10
1.434143e-09
3.337839e-10
-1.767927e-09
-3.08409e-09
-2.330713e-09
5.414803e-09
1.785528e-09
-5.166758e-09
3.38123e-09
-1.27678e-09
-5.001714e-10
1.667899e-09
1.024396e-09
-1.482827e-09
4.584303e-10
1.332737e-09
-1.340744e-09
8.007016e-12
-8.608757e-10
-1.091776e-09
1.65949e-09
-8.142289e-10
-1.724093e-09
2.525309e-10
-9.597604e-10
-4.781216e-10
1.437882e-09
9.102725e-10
1.409223e-09
-2.319496e-09
8.594072e-10
4.40735e-10
-1.300142e-09
1.774906e-09
-5.391752e-10
6.702302e-10
-5.210168e-10
1.503197e-09
-9.821797e-10
4.338635e-10
-1.699245e-09
4.346786e-11
1.488889e-09
-1.532357e-09
-9.593629e-11
1.468983e-09
-1.373046e-09
-6.559493e-09
1.789526e-09
4.769966e-09
-1.218308e-09
1.436645e-09
-2.183374e-10
-1.471714e-09
1.431855e-09
3.985901e-11
1.591461e-09
-5.72315e-10
-1.019146e-09
-1.840515e-09
1.439053e-09
4.01462e-10
7.123657e-10
-1.81945e-09
1.107084e-09
-1.373657e-09
-8.65317e-10
-6.216243e-10
4.222076e-10
-8.818998e-10
4.596922e-10
1.391364e-09
-1.691861e-10
-1.222178e-09
-1.585944e-09
1.413448e-09
1.515794e-09
2.137959e-10
-1.72959e-09
-7.452517e-11
-1.540762e-09
1.26911e-09
-1.627463e-09
3.583526e-10
-1.342174e-13
1.545164e-09
-1.637472e-09
-3.48034e-10
-1.794561e-09
-3.53253e-10
2.147814e-09
-1.297915e-09
-1.142009e-10
-9.923863e-10
-1.049721e-09
2.873325e-11
1.522408e-09
-1.551141e-09
1.288623e-09
-1.756954e-09
-1.635728e-09
-3.262764e-10
1.962004e-09
1.890232e-09
-9.232903e-10
-9.669421e-10
-3.403221e-10
-4.609521e-09
4.949843e-09
1.375492e-09
-1.18696e-09
-1.885328e-10
-4.934701e-10
-1.227619e-09
1.721089e-09
-1.598994e-09
1.736688e-09
-1.376938e-10
-9.105967e-10
-5.776447e-10
1.488241e-09
-1.654574e-09
1.94223e-10
1.460352e-09
1.454801e-09
-1.405576e-09
-4.922533e-11
6.879093e-10
-1.684252e-09
3.963666e-10
-1.840114e-09
1.443747e-09
1.587475e-09
1.302382e-10
-1.717713e-09
1.756428e-09
-7.440879e-11
8.451501e-10
-2.179928e-09
1.334778e-09
-1.304126e-09
1.358669e-09
-5.454286e-11
-7.778191e-10
1.657797e-09
1.180075e-09
4.698193e-10
1.486338e-09
-1.39395e-10
-1.346943e-09
-4.919823e-09
5.406091e-10
4.379214e-09
-1.096124e-09
1.64949e-09
1.8193e-10
-1.790194e-09
1.608264e-09
4.947084e-11
1.40533e-09
-1.109856e-09
-6.886236e-10
1.798479e-09
5.331258e-10
1.283354e-09
1.76834e-09
-1.305621e-09
-4.627191e-10
1.944987e-09
-9.194433e-10
-1.025544e-09
-2.118379e-09
-1.881815e-10
2.30656e-09
-1.009022e-09
-4.065495e-10
1.415571e-09
1.525404e-09
-1.685873e-10
-4.632434e-10
1.619783e-09
-1.156539e-09
8.124489e-10
9.494864e-10
-1.761935e-09
1.191753e-09
-1.74363e-09
5.518773e-10
1.126853e-09
4.331859e-10
-1.560039e-09
-1.404256e-09
8.914012e-10
5.128552e-10
1.158446e-09
1.370893e-09
3.261023e-12
-1.732177e-09
6.900986e-10
1.042079e-09
6.735755e-10
-2.083733e-09
1.410157e-09
4.9996e-10
-1.589365e-09
5.415453e-10
8.498185e-10
3.298325e-10
-1.77066e-09
7.025773e-10
-2.779298e-09
2.076721e-09
-1.44205e-09
-1.153664e-09
-4.190129e-10
1.572677e-09
-7.381738e-11
1.444473e-09
2.357471e-10
1.40287e-09
-1.638618e-09
-1.286955e-09
-4.955034e-10
1.782458e-09
-1.891912e-11
1.271799e-09
-1.25288e-09
1.296562e-09
-8.056595e-10
-4.909029e-10
1.876982e-09
-1.745837e-09
-1.311455e-10
3.438645e-09
3.047663e-10
-3.743412e-09
-1.674841e-09
-2.752305e-10
-3.1685e-09
2.506243e-09
6.622565e-10
-1.603742e-09
1.951996e-10
1.408543e-09
1.342729e-09
-1.805973e-09
-1.273199e-09
9.649137e-11
-1.576419e-09
1.479928e-09
1.497525e-09
-1.62834e-09
1.30815e-10
1.492598e-09
-3.903512e-10
-1.102247e-09
1.336399e-09
-1.435379e-09
9.897927e-11
-1.247347e-09
-4.205838e-10
3.483607e-10
-1.357218e-09
1.008857e-09
5.536126e-10
-1.705074e-09
1.151461e-09
-2.732005e-10
1.53307e-09
-1.259869e-09
-8.186743e-11
1.287882e-09
1.436018e-09
-4.195861e-10
-1.058822e-09
1.165032e-09
-1.062101e-10
-1.275239e-09
1.016061e-09
2.591779e-10
-1.516371e-09
5.088635e-10
1.007508e-09
-1.025831e-09
1.176625e-09
-1.507932e-10
-1.072953e-09
-1.457693e-10
1.52009e-09
-4.023447e-10
-1.130842e-09
1.640309e-09
1.520557e-09
-3.488339e-10
-1.171723e-09
-9.779003e-10
-6.878905e-10
-2.339389e-10
1.1621e-09
-9.28161e-10
-1.027674e-09
-8.19739e-10
1.847413e-09
-1.182579e-09
1.032025e-09
1.505538e-10
-1.496186e-10
1.174368e-09
-1.522405e-09
8.393614e-10
6.830438e-10
1.554145e-09
-1.390529e-09
-1.636152e-10
4.02114e-10
1.04185e-09
-1.443964e-09
5.172373e-10
-1.925225e-09
1.407988e-09
-4.291318e-09
6.128235e-09
-8.133076e-10
1.904754e-09
-1.091446e-09
-3.117603e-09
1.233204e-09
-2.210226e-09
1.086166e-09
1.12406e-09
-8.562717e-10
3.462277e-09
-2.606005e-09
4.540501e-10
8.747246e-10
-1.328775e-09
1.768261e-09
-8.114027e-10
1.76022e-09
-9.488177e-10
1.84088e-09
-1.287267e-09
-1.305415e-09
-3.152099e-10
1.620625e-09
-1.570735e-09
2.005831e-09
-4.350953e-10
5.188098e-09
-3.700788e-10
-4.818019e-09
-1.841209e-09
2.425201e-11
2.029912e-09
-1.057654e-09
-2.010935e-09
1.254722e-09
-8.014445e-10
-8.08436e-10
1.609881e-09
1.988981e-09
-1.865084e-09
-1.238968e-10
1.516331e-09
-5.685994e-10
-9.477311e-10
1.80165e-10
1.214609e-09
1.462565e-09
1.571501e-10
-1.619715e-09
1.06693e-09
4.063789e-10
-1.473309e-09
-8.852486e-10
-9.104565e-10
4.104518e-10
-1.595339e-09
1.184888e-09
-5.747811e-10
1.731219e-09
-1.156438e-09
-1.998598e-09
-2.900123e-09
4.898721e-09
-1.657341e-09
8.030805e-10
8.542606e-10
-1.58208e-09
8.042613e-10
-6.571149e-10
1.739334e-09
-1.082219e-09
-6.079442e-10
3.680652e-09
-3.072708e-09
-1.535623e-09
-5.179778e-10
2.053601e-09
1.983119e-09
2.214784e-09
-7.760151e-10
-8.286467e-10
1.641586e-09
-7.225935e-10
1.852077e-09
-1.129484e-09
9.394477e-10
3.932894e-10
1.280038e-09
3.747783e-10
-1.654817e-09
1.338075e-09
3.749868e-10
-1.713062e-09
-1.342867e-09
1.635902e-09
1.553669e-09
5.361036e-10
-2.089773e-09
8.177432e-10
-1.813949e-09
9.962063e-10
-1.834178e-09
1.268664e-09
5.655138e-10
-1.172289e-09
-1.312953e-09
2.485242e-09
1.774578e-09
-2.366374e-09
5.917967e-10
4.434003e-10
-1.772402e-09
1.329001e-09
2.19125e-09
-8.790816e-10
-1.312168e-09
-5.338625e-10
-1.374221e-09
1.908084e-09
-4.500146e-10
-9.51679e-10
-8.648659e-10
-7.526175e-10
-1.004322e-09
-1.058815e-10
1.110204e-09
-9.595631e-10
1.402963e-09
-1.15933e-09
-7.996714e-10
1.959002e-09
1.24981e-09
-4.636634e-10
-1.144052e-09
1.607716e-09
1.702277e-09
-2.681339e-10
-9.235172e-11
-9.1667e-10
-3.486631e-10
-1.222072e-09
2.036014e-10
-1.759753e-09
1.556152e-09
-1.043887e-09
-7.661206e-10
1.810008e-09
8.03574e-09
-8.03574e-09
-2.289493e-10
1.402278e-09
-1.173329e-09
-6.632412e-10
1.385756e-09
-7.225152e-10
2.911031e-10
-1.773052e-09
1.481949e-09
-1.038526e-09
-8.783484e-10
1.608436e-09
-5.756068e-10
-1.032829e-09
-1.181374e-09
-2.564527e-10
1.437827e-09
4.708703e-10
1.704458e-09
-1.293672e-09
-4.107859e-10
-1.032817e-09
1.598911e-09
-1.615498e-09
4.939333e-10
1.121565e-09
1.146286e-09
7.323129e-10
-1.878599e-09
-1.03844e-09
1.550786e-09
-5.123465e-10
-1.089802e-09
2.205868e-09
1.868272e-09
-1.451757e-09
-1.461912e-09
1.443108e-09
-4.247812e-10
-7.446883e-10
1.16947e-09
-6.87908e-09
1.64517e-09
5.23391e-09
9.549252e-10
6.224098e-10
-1.577335e-09
8.08858e-10
-1.255418e-09
4.465597e-10
-1.806871e-09
9.305417e-10
8.763294e-10
8.022266e-10
-1.378361e-09
5.761349e-10
-1.484655e-09
5.37067e-10
9.475879e-10
1.149931e-11
1.539966e-09
-1.551465e-09
-1.041627e-09
2.182812e-09
-1.141185e-09
4.70593e-10
9.453758e-10
6.983034e-11
-1.015206e-09
-4.447207e-10
1.344819e-09
-9.000986e-10
-9.43437e-10
1.365645e-09
-9.43503e-10
2.029341e-09
-1.085838e-09
8.044331e-09
-6.378499e-09
-1.665832e-09
-1.11894e-09
-1.034663e-09
-4.763222e-10
-1.620659e-09
2.096981e-09
-7.525046e-10
-8.737973e-10
-1.37401e-09
1.011788e-10
1.272831e-09
1.801659e-09
-1.1827e-09
-6.189597e-10
1.335258e-09
-1.420809e-09
8.555131e-11
1.508126e-09
-1.236466e-09
1.680063e-09
-4.435968e-10
7.962768e-10
-1.542401e-09
3.175561e-10
1.224845e-09
-1.754381e-09
9.190217e-10
8.353598e-10
1.381479e-09
-5.06384e-09
4.905819e-09
1.580207e-10
-1.454574e-09
1.809243e-09
-1.512383e-09
-2.968604e-10
6.683658e-10
1.063282e-09
-1.731648e-09
1.406267e-09
-1.498927e-09
9.266038e-11
-1.644497e-09
8.038525e-10
8.406445e-10
1.493261e-09
-3.422253e-10
-1.151036e-09
-1.600202e-10
-1.122168e-09
1.282189e-09
-3.062226e-09
6.921448e-09
-3.859222e-09
2.239743e-09
2.151322e-09
-4.391065e-09
-2.046674e-09
8.743851e-10
1.025772e-09
9.288862e-10
-1.954659e-09
-1.500627e-09
1.212325e-09
-1.866954e-09
5.849176e-10
1.282036e-09
1.795434e-09
-8.101561e-10
-9.852777e-10
-1.041737e-09
1.07709e-09
-3.535329e-11
-1.714863e-09
2.622644e-10
-1.089842e-09
1.378563e-09
-2.88721e-10
1.807332e-09
-8.041819e-10
1.464318e-09
2.379587e-10
-1.644236e-09
-3.968252e-10
2.041061e-09
5.7629e-10
-1.574353e-09
9.980627e-10
9.464859e-10
1.028808e-09
-1.975293e-09
-1.680432e-09
4.146975e-11
1.638962e-09
7.524757e-10
-2.310879e-09
1.558403e-09
8.176204e-10
6.840544e-10
1.289886e-09
-3.135945e-10
-9.762919e-10
1.982186e-09
-1.729422e-10
-3.287944e-10
1.374551e-09
-1.045757e-09
-1.691582e-09
1.153543e-09
-1.828842e-09
4.034472e-10
1.352981e-09
-1.812751e-09
1.405546e-09
4.072048e-10
-1.867546e-09
2.233101e-10
1.425678e-09
2.644072e-10
-1.690085e-09
1.486895e-09
3.411166e-10
-1.828012e-09
-2.015601e-09
1.618776e-09
4.115777e-10
-2.008072e-09
1.596495e-09
-8.026877e-10
-6.819672e-10
-1.200044e-09
1.042807e-09
-1.108974e-09
-3.760278e-10
1.485002e-09
-1.399059e-09
1.802507e-09
-1.760701e-09
7.305002e-10
1.0302e-09
-9.778003e-10
1.431108e-09
-4.533077e-10
-1.125882e-09
-4.330519e-10
1.558934e-09
-1.228062e-10
1.582106e-09
-1.4593e-09
-1.300788e-09
1.274151e-09
4.655257e-10
-1.739677e-09
-1.585325e-09
1.600691e-09
-1.5366e-11
-5.030923e-10
2.613411e-09
-2.110319e-09
1.835849e-09
-6.930659e-10
-1.142783e-09
3.937211e-09
-4.150815e-09
-1.726811e-09
1.649455e-09
7.735612e-11
1.982873e-09
-1.036536e-09
-9.463368e-10
-1.186561e-09
9.97148e-10
2.02749e-10
1.351698e-09
-4.07882e-09
3.470876e-09
-1.687954e-09
1.336284e-09
3.516694e-10
1.429235e-09
-4.897872e-10
-1.060198e-09
-1.184007e-09
2.244205e-09
-1.161178e-09
1.849573e-09
-6.883951e-10
-2.61678e-09
5.330734e-10
2.083706e-09
1.299997e-09
-2.025808e-09
7.258113e-10
6.043132e-10
8.423732e-10
-1.446686e-09
-7.479397e-10
-4.311151e-10
1.179055e-09
3.593271e-10
1.191395e-09
-1.550722e-09
1.122451e-09
-1.552269e-09
4.298179e-10
-3.683565e-10
-1.286218e-09
1.918656e-09
-2.107186e-12
-1.916549e-09
-1.920057e-09
4.166817e-10
1.270167e-09
-1.686848e-09
1.51812e-09
-1.148973e-09
-1.280521e-09
-2.709108e-10
1.551432e-09
7.559307e-10
8.097248e-10
3.408031e-10
-1.613668e-09
1.272865e-09
-1.728149e-09
6.121408e-10
1.351947e-09
-1.434012e-09
8.206544e-11
1.799334e-09
-7.593839e-10
-1.03995e-09
-1.335111e-09
3.839482e-10
9.51163e-10
-1.759876e-09
9.907529e-10
7.691235e-10
1.36389e-09
-1.559423e-09
-1.511157e-09
9.235623e-10
5.875947e-10
-1.636521e-10
2.048815e-09
-1.885163e-09
-8.115809e-10
1.766506e-09
1.314806e-09
-5.833429e-10
8.816921e-10
-1.87143e-09
9.897378e-10
-6.494979e-10
-4.189488e-10
1.068447e-09
-1.450722e-09
9.644445e-10
4.862778e-10
-7.680506e-10
-1.028172e-09
1.89195e-09
-6.365724e-10
1.557452e-09
-9.208799e-10
1.307799e-09
1.897254e-10
1.226024e-09
6.148556e-10
-7.147509e-10
-9.989471e-10
-6.136406e-10
1.44155e-09
-8.279096e-10
-6.882931e-10
1.418975e-09
-7.306823e-10
9.355468e-10
-1.851361e-09
-4.5723e-11
1.113916e-09
-5.073569e-10
1.894398e-09
-1.387041e-09
-1.168248e-09
4.842733e-10
-8.89056e-10
1.481721e-09
-5.926654e-10
-1.001657e-09
1.732593e-09
-1.962718e-09
1.694584e-09
1.31388e-09
-1.811849e-09
4.979696e-10
1.472264e-09
-1.534861e-09
6.259692e-11
1.356251e-09
1.300864e-10
-8.179821e-10
-7.211142e-10
-1.335663e-09
5.324967e-10
4.16121e-10
1.07714e-09
-5.4766e-10
-1.415058e-09
1.532982e-09
-1.761932e-09
-1.154553e-09
1.201861e-09
-4.730878e-11
4.01778e-09
-3.304083e-09
-7.136978e-10
-1.630667e-09
1.221802e-09
4.088644e-10
1.304417e-09
-1.475915e-09
1.714981e-10
-1.25751e-09
-4.304436e-10
-1.41623e-09
2.903488e-10
1.887097e-09
-1.32051e-09
-5.665863e-10
3.522071e-09
7.881884e-10
-4.310259e-09
1.072552e-09
5.177497e-11
5.84467e-10
-1.555846e-09
-5.338447e-10
1.072418e-09
-1.098961e-09
4.537606e-09
-1.275182e-09
-5.37569e-10
-2.236277e-09
3.4958e-10
1.886697e-09
-1.271753e-09
2.674303e-10
-1.281196e-09
1.372106e-09
1.422282e-09
7.895849e-10
-2.211867e-09
-3.481761e-10
4.187752e-10
1.936657e-09
-2.355432e-09
-7.447205e-10
-7.939777e-10
-2.536255e-09
3.330233e-09
-1.255963e-09
1.006266e-09
2.49697e-10
-1.821566e-09
6.605804e-10
1.160985e-09
2.075413e-10
-1.866614e-09
6.183792e-10
4.988967e-10
1.298358e-09
-1.797255e-09
1.428985e-09
-1.032053e-09
-8.581772e-10
-9.760006e-10
-6.063721e-10
1.017395e-09
-4.110232e-10
1.990013e-09
-1.155386e-09
-1.068209e-09
2.223595e-09
-1.57714e-09
-1.74432e-10
1.751572e-09
-1.34759e-09
3.827575e-10
9.648326e-10
1.988068e-09
-1.639978e-09
-3.4809e-10
1.262443e-09
6.277895e-10
1.725557e-09
-6.584084e-10
-1.067149e-09
1.022644e-09
-2.205935e-09
1.183291e-09
8.02592e-10
-5.780155e-10
-1.036544e-09
1.862468e-09
-1.326583e-09
-5.35885e-10
-1.71201e-10
1.39644e-09
-1.225239e-09
-5.543012e-09
8.19244e-09
-6.456211e-10
1.227823e-09
-5.82202e-10
-1.325703e-09
5.106648e-11
1.274636e-09
-1.154523e-09
1.445022e-09
1.746079e-09
-1.341868e-09
-4.042114e-10
-1.829152e-09
1.026464e-09
-1.927224e-09
8.482969e-10
-9.197e-10
-1.053297e-09
1.886116e-09
-8.328198e-10
-1.119557e-09
1.953115e-09
-8.335577e-10
5.72799e-09
-4.535004e-09
2.57977e-09
6.048955e-10
-1.582696e-09
-6.699286e-10
-9.473163e-10
1.397759e-09
-1.298123e-09
-9.96361e-11
1.230843e-09
-3.888985e-10
-8.419447e-10
9.153867e-10
9.535432e-10
-2.737654e-11
1.582395e-09
-1.555018e-09
-8.597875e-10
1.025514e-09
-1.657261e-10
1.557191e-09
-1.305396e-09
-2.517955e-10
4.680788e-10
-1.437022e-09
-1.225117e-09
1.443214e-09
-2.180964e-10
1.111265e-09
-1.480253e-09
1.372422e-09
1.078314e-10
9.640088e-11
1.373829e-09
-1.47023e-09
1.27681e-09
-1.777419e-09
3.82441e-09
-3.094227e-10
-3.514988e-09
-2.251641e-09
-9.168587e-10
-1.449382e-09
-5.656998e-11
-7.673549e-10
-1.126754e-09
1.894109e-09
1.048313e-09
-1.352813e-09
3.045004e-10
-1.325951e-09
2.937692e-10
1.032182e-09
-2.273796e-10
-1.594618e-09
1.821998e-09
-1.782274e-09
1.642879e-09
8.599709e-10
1.081194e-09
7.360366e-10
1.143463e-09
6.551455e-11