/*--------------------------------*- C++ -*----------------------------------*\
| =========                 |                                                 |
| \\      /  F ield         | OpenFOAM: The Open Source CFD Toolbox           |
|  \\    /   O peration     | Version:  2406                                  |
|   \\  /    A nd           | Website:  www.openfoam.com                      |
|    \\/     M anipulation  |                                                 |
\*---------------------------------------------------------------------------*/
FoamFile
{
    version     2.0;
    format      ascii;
    arch        "LSB;label=32;scalar=64";
    class       volVectorField;
    location    "0.86";
    object      U;
}
// * * * * * * * * * * * * * * * * * * * * * * * * * * * * * * * * * * * * * //

dimensions      [0 1 -1 0 0 0 0];

internalField   nonuniform List<vector> 
15536
(
(0.1538307 -4.677211 -4.06715e-22)
(0.282184 -4.040767 -6.338881e-19)
(0.3504545 -3.310597 -1.150113e-18)
(0.3511969 -2.510381 -1.043264e-18)
(0.2834345 -1.662144 -1.543803e-20)
(0.1765554 -0.8742918 7.558773e-21)
(0.1792658 -0.6263817 1.370348e-20)
(0.3747596 -1.192725 -1.350296e-20)
(0.6235866 -1.642687 3.392657e-18)
(1.241269 -2.839145 3.462885e-18)
(1.418737 -3.15084 0)
(0.507636 -1.280695 0)
(-0.5688958 0.8715629 -1.591639e-20)
(-1.407276 2.281972 4.421508e-18)
(-2.12977 3.276369 2.723159e-18)
(-2.661957 3.833904 -6.222545e-18)
(-2.722888 3.751222 2.92108e-18)
(-1.669691 2.295274 1.083377e-20)
(0.5256347 -0.4191243 -1.144674e-20)
(1.670934 -1.692545 3.900901e-22)
(2.112347 -1.933513 0)
(3.240913 -2.6299 -1.115354e-18)
(3.3558 -2.603952 0)
(1.295784 -1.047006 -1.336599e-18)
(-0.9433127 0.5143884 6.38436e-21)
(-2.642674 1.551205 -1.448944e-20)
(-4.504545 2.465554 1.391827e-20)
(-7.177705 3.592304 -5.785166e-18)
(-10.02119 4.6665 -1.144935e-17)
(-11.74024 5.231339 0)
(-6.678095 3.147788 -3.716263e-20)
(4.838188 -1.280511 -2.633669e-18)
(6.215479 -2.076934 1.246867e-18)
(-1.279503 -0.09304852 0)
(-4.712026 0.6252837 -4.500357e-18)
(-7.466574 1.192609 -2.700456e-20)
(-6.944196 1.170355 3.68811e-18)
(-3.804696 0.5313538 -1.659804e-18)
(-0.1264266 0.03751152 1.468528e-21)
(5.721175 0.3739139 -3.582411e-19)
(10.27152 0.9712585 1.438523e-18)
(12.57745 1.615823 -2.358517e-20)
(13.73609 2.288841 2.319323e-20)
(14.37027 2.993859 0)
(14.71415 3.691321 -6.012988e-18)
(14.85758 4.361565 -6.003779e-18)
(14.81655 4.992823 0)
(14.65386 5.588749 -1.153427e-17)
(14.3912 6.147903 1.127849e-17)
(14.07885 6.68296 1.091201e-17)
(13.70707 7.177718 3.985097e-20)
(13.27108 7.627522 -9.93014e-18)
(12.77942 8.026997 0)
(12.24184 8.377989 0)
(11.66762 8.676884 8.032637e-18)
(11.05475 8.915319 7.363457e-18)
(10.42262 9.103883 4.880406e-20)
(9.777896 9.240867 5.779841e-18)
(9.107677 9.307149 1.01029e-17)
(8.425276 9.311168 4.257571e-18)
(7.738994 9.255798 3.39865e-18)
(7.062862 9.150591 -2.36884e-20)
(6.393914 8.985526 0)
(5.729927 8.753525 9.176439e-19)
(5.085004 8.471569 0)
(4.455132 8.126007 7.812295e-19)
(3.849408 7.723385 -3.103696e-20)
(3.278676 7.27419 -2.944908e-21)
(2.742426 6.775766 1.079617e-20)
(2.245262 6.232502 -3.86603e-18)
(1.793315 5.653122 -1.890469e-20)
(1.387362 5.034832 2.61221e-18)
(1.029234 4.379496 2.889971e-18)
(0.7246024 3.702946 0)
(0.4732195 3.010713 0)
(0.2785062 2.299443 3.541783e-18)
(0.1376194 1.577297 -2.855057e-22)
(0.05411453 0.8626805 9.662046e-19)
(0.02878021 0.1269287 1.785999e-21)
(0.05822697 -0.6880757 -7.446691e-21)
(0.1366604 -1.503571 -1.841957e-18)
(0.2756379 -2.262953 0)
(0.4711673 -2.982705 3.314763e-18)
(0.7201702 -3.675456 0)
(1.021622 -4.341927 -2.795531e-18)
(1.373423 -4.980339 2.468357e-18)
(1.774951 -5.589067 1.820417e-20)
(2.222799 -6.165927 3.648822e-18)
(2.713727 -6.700723 9.835348e-21)
(3.24335 -7.190846 -2.153668e-18)
(3.808796 -7.637673 -1.331564e-18)
(4.407215 -8.034769 6.814254e-21)
(5.036636 -8.384386 4.039244e-19)
(5.687406 -8.68209 -1.29273e-18)
(6.353946 -8.923387 2.04813e-20)
(7.025345 -9.094588 7.00533e-21)
(7.706913 -9.210751 -3.937159e-18)
(8.394258 -9.272276 0)
(9.078427 -9.271067 1.123598e-17)
(9.762054 -9.218413 6.394766e-18)
(10.42495 -9.100001 1.123249e-19)
(11.06343 -8.918548 -8.129412e-18)
(11.67361 -8.677546 0)
(12.25434 -8.381312 0)
(12.8046 -8.038414 0)
(13.31563 -7.646888 0)
(13.77751 -7.207945 1.147823e-17)
(14.18714 -6.725663 1.211322e-17)
(14.54481 -6.204969 2.790053e-20)
(14.84466 -5.653356 -1.301061e-17)
(15.0709 -5.069528 -6.643212e-18)
(15.19532 -4.452757 -6.862688e-18)
(15.1713 -3.801114 5.372945e-20)
(14.96046 -3.119574 7.009719e-18)
(14.50181 -2.419495 3.608685e-18)
(13.62413 -1.734718 -2.793593e-20)
(11.7928 -1.088144 -6.78688e-21)
(7.983228 -0.4748678 4.574037e-19)
(1.825271 -0.02583085 -9.654141e-19)
(-2.764305 -0.2437421 -2.529445e-20)
(-4.724819 -0.7692875 1.672904e-20)
(-5.23982 -0.8802795 4.214468e-18)
(-3.294461 -0.4035069 3.05384e-20)
(0.0512923 0.3593848 0)
(6.424215 2.057409 -3.882011e-18)
(3.063878 0.651711 -5.737995e-18)
(-7.40599 -3.391081 -1.536044e-20)
(-11.39909 -5.022769 2.063966e-17)
(-9.494516 -4.398217 -1.564901e-17)
(-6.853321 -3.463859 0)
(-4.788002 -2.690618 0)
(-3.763616 -2.344399 -7.721095e-18)
(-3.084131 -2.081038 0)
(-2.056863 -1.441318 4.144405e-20)
(-0.4060695 -0.2211218 -4.634077e-18)
(1.529802 1.343241 -3.397676e-18)
(2.373704 2.16268 2.432224e-20)
(1.957993 1.909607 -6.387711e-18)
(1.11518 1.136139 -6.066514e-20)
(0.04448668 -0.09225135 9.734966e-18)
(-0.805779 -1.186967 5.835977e-18)
(-1.247406 -1.845417 6.463646e-18)
(-1.366645 -2.115444 6.808656e-18)
(-1.130483 -1.864822 0)
(-0.6498519 -1.073399 -2.609274e-20)
(-0.08306279 -0.04211918 -6.96258e-18)
(0.3797385 0.9002008 0)
(0.490281 1.234847 7.269328e-18)
(0.06738384 0.1849589 -5.687544e-20)
(-0.4791932 -1.803692 2.778911e-20)
(-0.8793093 -4.051373 3.601382e-18)
(-1.04563 -5.727422 4.874227e-21)
(-0.9818295 -6.374924 0)
(-0.7505606 -6.283535 1.762773e-18)
(-0.4887362 -6.001447 1.366146e-20)
(-0.2417253 -5.662868 3.057653e-21)
(-0.02440992 -5.213022 -3.608424e-21)
(-0.03270242 -4.577986 -2.912399e-19)
(0.115781 -3.939138 5.250629e-19)
(0.2061079 -3.227391 0)
(0.2318195 -2.456459 8.622044e-19)
(0.1862634 -1.620855 0)
(0.09571248 -0.780146 3.08881e-18)
(0.1863988 -0.4913037 1.126237e-20)
(0.6295026 -1.759831 -1.092509e-20)
(1.101148 -2.829593 -2.724203e-18)
(1.57093 -3.652999 -2.799172e-18)
(1.338243 -3.20756 0)
(0.3375254 -1.419643 1.104463e-20)
(-0.7139364 0.7802627 1.468798e-21)
(-1.568694 2.242755 -1.779499e-18)
(-2.344161 3.31953 -4.489557e-18)
(-2.892404 3.896168 2.531074e-18)
(-3.173723 4.148427 -2.319883e-18)
(-2.936748 3.896499 -1.518926e-20)
(-1.127551 1.779272 0)
(1.132343 -0.8671269 0)
(3.219715 -2.826015 0)
(4.4709 -3.738085 -9.069719e-19)
(3.301247 -2.89423 -8.672646e-21)
(0.9314304 -1.17182 8.713322e-21)
(-0.9103352 0.2389163 2.230161e-21)
(-2.299955 1.14066 -2.198256e-21)
(-3.999539 1.878031 0)
(-6.41199 2.731001 0)
(-9.165366 3.780697 1.863139e-17)
(-10.62439 4.473222 9.54344e-20)
(-10.04011 4.837823 -8.576027e-20)
(1.759296 0.3332634 1.993415e-18)
(5.728855 -2.057203 1.033816e-18)
(1.266871 -0.9302668 -2.258617e-20)
(0.0931478 -0.3924268 -3.889392e-18)
(-0.8908744 -0.1639012 2.918517e-18)
(-5.094848 0.5648799 -3.390083e-22)
(-0.2076495 0.3695325 1.240629e-18)
(9.91856 0.3925207 0)
(15.87844 0.768401 2.391835e-19)
(18.12469 1.118675 2.040726e-18)
(18.58632 1.581915 2.208046e-18)
(18.66805 2.189477 2.293651e-18)
(18.58105 2.864878 -7.25306e-20)
(18.40302 3.549567 4.791456e-18)
(18.15497 4.232895 -3.665466e-20)
(17.85333 4.910667 0)
(17.497 5.564036 9.182656e-18)
(17.08883 6.196032 0)
(16.63126 6.796559 -6.566195e-20)
(16.11979 7.352327 6.581259e-20)
(15.55088 7.859528 7.923605e-18)
(14.93188 8.312183 -5.581134e-20)
(14.2701 8.710103 6.957024e-18)
(13.57357 9.048682 -6.458714e-18)
(12.84672 9.323773 0)
(12.09943 9.545363 3.852127e-20)
(11.33891 9.708515 -4.739947e-18)
(10.5609 9.799718 -8.037367e-18)
(9.770158 9.820622 0)
(8.979507 9.781603 -2.727932e-18)
(8.198416 9.684127 -1.321906e-20)
(7.427747 9.520423 1.35426e-18)
(6.66875 9.289362 2.713859e-21)
(5.928561 8.996826 -2.746607e-21)
(5.211413 8.639802 -6.337204e-19)
(4.521011 8.222366 1.298309e-18)
(3.868558 7.749525 0)
(3.255261 7.226654 0)
(2.686221 6.657586 -2.057111e-20)
(2.1661 6.044138 0)
(1.698027 5.388104 0)
(1.284022 4.693525 0)
(0.9292369 3.972063 -2.59663e-18)
(0.6324258 3.234508 2.088829e-20)
(0.4035252 2.474542 1.198805e-20)
(0.2332346 1.703174 -5.863433e-21)
(0.1292987 0.9355754 -7.926355e-19)
(0.09939202 0.1445664 3.218997e-21)
(0.1391076 -0.7204477 -7.905889e-19)
(0.2287781 -1.589256 1.500902e-18)
(0.3935102 -2.401559 1.142615e-20)
(0.6236119 -3.171963 -2.687723e-18)
(0.9139119 -3.914243 -3.931733e-20)
(1.264482 -4.629012 2.316118e-18)
(1.671443 -5.310269 -2.053658e-18)
(2.135521 -5.9577 0)
(2.649164 -6.570483 -5.959044e-18)
(3.210785 -7.133271 -1.625562e-20)
(3.8174 -7.64873 1.747189e-18)
(4.463044 -8.120181 1.086786e-18)
(5.14502 -8.534027 0)
(5.861575 -8.892874 0)
(6.603652 -9.201079 0)
(7.363429 -9.441487 1.604774e-20)
(8.135589 -9.610186 -1.593712e-20)
(8.919574 -9.718384 3.090105e-18)
(9.709817 -9.764712 5.650972e-21)
(10.50223 -9.745393 -4.545771e-18)
(11.29092 -9.665563 -7.67998e-20)
(12.06533 -9.520472 1.165944e-17)
(12.8172 -9.307424 6.463865e-18)
(13.54212 -9.029709 -5.252976e-20)
(14.24287 -8.693964 7.510096e-18)
(14.91467 -8.304794 6.127334e-20)
(15.54899 -7.858547 -6.940751e-20)
(16.1385 -7.360963 6.911828e-20)
(16.67962 -6.814931 7.588731e-20)
(17.17201 -6.227024 9.963677e-18)
(17.61199 -5.601799 -7.85132e-20)
(17.98375 -4.9416 0)
(18.30356 -4.257395 0)
(18.58773 -3.562229 0)
(18.81994 -2.868684 0)
(18.97803 -2.182376 2.10838e-20)
(19.02944 -1.533741 -2.092221e-20)
(18.87002 -1.024351 1.267755e-18)
(17.62127 -0.6654572 4.84716e-21)
(13.01407 -0.3061751 0)
(5.856435 0.0008436921 -1.540616e-18)
(0.03739754 0.0660652 3.721796e-18)
(0.4533482 0.3207812 -3.753347e-18)
(2.281918 0.8074203 4.007063e-20)
(2.873671 1.187938 -4.228634e-18)
(5.942867 1.916591 4.654868e-20)
(-0.3974218 -1.087134 0)
(-10.00593 -4.686151 1.445774e-17)
(-9.840883 -4.067964 -3.492857e-17)
(-8.474885 -3.451832 -1.25868e-17)
(-6.172377 -2.696766 -2.662919e-20)
(-4.444017 -2.221276 -1.162995e-19)
(-3.555629 -2.056186 5.339675e-20)
(-2.981513 -1.873723 0)
(-2.14633 -1.299824 4.949188e-18)
(-0.7800504 -0.1874874 3.641287e-18)
(1.297979 1.492267 4.793796e-21)
(2.920752 2.824056 -2.438633e-18)
(2.705688 2.577825 5.13282e-18)
(1.219466 1.066313 3.012018e-18)
(-0.1512005 -0.4654793 3.565842e-21)
(-0.7555685 -1.155801 -4.7422e-18)
(-1.029905 -1.508433 -3.971649e-20)
(-1.228604 -1.844746 -5.670323e-18)
(-1.239864 -1.941864 4.414316e-20)
(-0.9388042 -1.406324 1.351997e-21)
(-0.5231163 -0.6986049 -4.581849e-20)
(-0.1189646 -0.01235825 0)
(-0.1206347 -0.4552892 0)
(-0.8767564 -3.216898 -5.53403e-18)
(-1.46624 -5.730449 0)
(-1.659181 -6.894867 -5.581611e-18)
(-1.549394 -6.879757 2.908359e-18)
(-1.29364 -6.446975 -2.301476e-20)
(-1.02461 -6.232053 2.302778e-20)
(-0.7454837 -6.029022 1.422513e-18)
(-0.4753869 -5.626996 -6.839979e-19)
(-0.2329965 -5.136563 -3.072187e-19)
(-0.01968804 -4.406025 2.357654e-19)
(0.09199046 -3.787046 -4.287686e-19)
(0.1547768 -3.119701 1.152226e-20)
(0.1616485 -2.399821 -7.192474e-19)
(0.1037023 -1.604385 0)
(0.03003469 -0.7693548 -2.53678e-18)
(0.2202693 -0.3229495 -1.852112e-20)
(0.7055795 -1.58317 1.120078e-18)
(1.257182 -3.003891 2.224554e-18)
(1.622081 -3.653821 2.307854e-18)
(1.21766 -3.183162 1.926173e-18)
(0.06575772 -1.467276 -1.166665e-20)
(-0.8595462 0.620024 0)
(-1.666931 2.109038 0)
(-2.39034 3.229065 1.795511e-18)
(-2.905253 3.93216 2.095797e-18)
(-2.998234 4.042781 1.965676e-18)
(-2.845031 3.984023 2.494065e-20)
(-2.013678 3.151825 0)
(0.06137087 0.7130032 -4.006244e-19)
(3.098449 -2.390584 -7.307926e-19)
(4.151999 -3.441133 7.546964e-19)
(2.625495 -2.614066 0)
(0.6862158 -1.313039 -8.203561e-19)
(-0.4388626 -0.2708573 0)
(-1.383513 0.4241257 -6.492216e-19)
(-2.757647 0.9615836 0)
(-4.954386 1.646004 -3.883063e-18)
(-7.575849 2.829491 -1.54376e-17)
(-8.659983 3.775613 0)
(-8.898779 5.031251 0)
(-1.335281 2.08283 2.050788e-20)
(4.812986 -1.585789 -8.814823e-19)
(6.395796 -2.103153 1.660263e-18)
(6.829523 -1.801555 5.822904e-18)
(6.343708 -1.461775 -2.166841e-18)
(5.168194 -0.2054933 2.353205e-18)
(10.08276 0.5374485 -8.664918e-19)
(16.9117 0.8815029 0)
(18.42359 1.136797 0)
(18.15857 1.461731 -1.673344e-18)
(18.07347 2.031083 -1.849373e-18)
(18.06263 2.721398 -3.748886e-18)
(17.98749 3.430529 3.789438e-18)
(17.84696 4.144118 9.057584e-20)
(17.63852 4.836725 -6.059089e-20)
(17.36284 5.500923 0)
(17.01153 6.12765 0)
(16.59988 6.724441 7.226917e-18)
(16.14131 7.291471 -7.001219e-18)
(15.63203 7.810766 0)
(15.06712 8.282453 0)
(14.45566 8.697988 9.157347e-20)
(13.80322 9.060455 -5.801766e-18)
(13.11926 9.363318 0)
(12.40821 9.601857 -4.711845e-18)
(11.67775 9.789146 -4.241433e-18)
(10.93714 9.919025 -3.699134e-18)
(10.18303 9.976214 3.230997e-18)
(9.416207 9.96575 -3.821409e-20)
(8.65069 9.898654 2.182455e-18)
(7.895567 9.775647 0)
(7.153551 9.587215 -1.104803e-18)
(6.42477 9.333346 -4.049696e-21)
(5.712984 9.022196 8.596638e-21)
(5.030264 8.645307 -5.890065e-19)
(4.371234 8.212536 0)
(3.749469 7.72702 -1.647491e-18)
(3.165356 7.194552 -1.839952e-20)
(2.626068 6.617973 2.61773e-18)
(2.132866 6.000228 1.537812e-18)
(1.690248 5.342108 -1.746478e-18)
(1.298733 4.64788 -1.941788e-18)
(0.9630276 3.928659 2.112516e-18)
(0.6807026 3.195841 -2.272811e-18)
(0.4676201 2.441053 -1.170412e-18)
(0.3044581 1.677337 2.477502e-18)
(0.2044504 0.9191651 1.29603e-18)
(0.1804125 0.1391568 2.633235e-21)
(0.2264413 -0.7060103 6.539875e-19)
(0.3060755 -1.560802 -9.779209e-21)
(0.460317 -2.362892 0)
(0.6773148 -3.127399 -1.684739e-20)
(0.9500729 -3.867052 -1.445685e-20)
(1.281118 -4.580885 -1.833089e-18)
(1.664562 -5.26331 3.373075e-18)
(2.106465 -5.912685 -1.478118e-18)
(2.59276 -6.530972 2.416813e-18)
(3.124705 -7.101444 1.722487e-20)
(3.703453 -7.625791 0)
(4.318406 -8.109987 9.379937e-19)
(4.969126 -8.538618 1.320994e-21)
(5.656255 -8.913508 1.734502e-19)
(6.3679 -9.241784 0)
(7.0969 -9.504706 1.339523e-18)
(7.841684 -9.696452 0)
(8.599016 -9.830728 -5.154258e-20)
(9.362591 -9.906115 3.054042e-18)
(10.13243 -9.915693 0)
(10.89814 -9.868833 -4.232297e-18)
(11.65184 -9.758524 -4.781946e-18)
(12.38548 -9.581281 -5.298975e-18)
(13.09436 -9.339736 0)
(13.78301 -9.038991 -1.254704e-17)
(14.44479 -8.686339 1.00608e-19)
(15.07207 -8.275762 0)
(15.65731 -7.814254 0)
(16.19705 -7.302858 0)
(16.69156 -6.747694 8.075373e-18)
(17.13306 -6.159633 -8.364676e-18)
(17.51409 -5.533598 0)
(17.82756 -4.872706 0)
(18.0778 -4.183929 4.399119e-18)
(18.26702 -3.472202 3.505757e-20)
(18.38475 -2.753743 0)
(18.44109 -2.039275 0)
(18.51597 -1.399748 -2.105997e-18)
(18.98529 -0.9716397 2.434064e-19)
(18.5392 -0.6232661 0)
(15.2808 -0.09469185 1.029676e-18)
(11.40467 0.6015153 3.569934e-20)
(10.2624 1.621453 2.137102e-20)
(9.944091 2.206851 -3.678812e-20)
(8.358751 2.349168 3.285773e-18)
(5.494878 1.449386 2.583532e-18)
(-2.318126 -2.414092 4.262351e-20)
(-7.713735 -4.343968 9.683991e-20)
(-7.268902 -3.075102 1.509382e-17)
(-6.031168 -2.108621 1.066554e-17)
(-3.90593 -1.333144 0)
(-2.690856 -1.154621 5.964816e-18)
(-2.29692 -1.26516 0)
(-2.041624 -1.190096 -7.156909e-20)
(-1.642218 -0.7912175 -4.026738e-18)
(-0.8894334 -0.008136328 4.082918e-20)
(0.6682402 1.255554 -4.054813e-20)
(2.380954 2.42199 2.037764e-18)
(2.493513 2.205408 -2.102958e-18)
(1.148649 0.7067602 -2.439834e-18)
(-0.05792378 -0.5786731 -3.268188e-18)
(-0.5762184 -1.069797 -3.900638e-18)
(-0.7507072 -1.235997 0)
(-0.9038158 -1.467549 -2.896089e-21)
(-1.13747 -1.792752 0)
(-1.178964 -1.7426 -4.559965e-18)
(-1.044902 -1.678356 4.589653e-18)
(-0.9058018 -1.953253 0)
(-0.9588936 -3.227412 0)
(-1.450133 -5.558048 8.587944e-18)
(-1.636466 -6.641313 -2.188124e-18)
(-1.482607 -6.435877 4.651214e-18)
(-1.257126 -6.130468 -1.914448e-20)
(-1.051968 -6.146775 1.928666e-20)
(-0.8294827 -6.141466 0)
(-0.5992103 -5.901349 -1.166932e-18)
(-0.3827456 -5.486728 1.101531e-18)
(-0.1806627 -4.973341 2.565345e-19)
(-0.1211353 -4.364982 -3.873334e-19)
(-0.002537493 -3.760385 -1.042493e-20)
(0.06441575 -3.099876 1.051811e-20)
(0.06467805 -2.371395 -1.736387e-20)
(-0.00151844 -1.564403 1.765823e-20)
(-0.05541004 -0.7441626 1.041014e-18)
(0.2619658 -0.2499708 -1.529564e-20)
(0.7302724 -1.111558 -9.142154e-19)
(1.339147 -2.874441 2.813931e-20)
(1.629859 -3.590431 -1.889483e-18)
(1.023171 -3.108287 -1.152151e-20)
(-0.277291 -1.444298 0)
(-1.039592 0.4513658 0)
(-1.798513 1.962189 -1.195607e-18)
(-2.493459 3.14011 -1.502138e-18)
(-2.964656 3.898635 -3.452931e-18)
(-3.038551 4.079347 -1.620775e-18)
(-2.644647 3.831428 0)
(-2.096697 3.554386 0)
(-0.6408591 1.999974 6.145383e-19)
(2.527625 -1.395413 1.180368e-18)
(3.282775 -2.672935 -1.137389e-20)
(1.798621 -2.225109 2.233897e-20)
(0.6179263 -1.498652 1.317362e-18)
(0.3518446 -0.9171919 1.202264e-19)
(-0.1606841 -0.4461979 5.583649e-19)
(-1.265255 -0.09745379 1.499824e-18)
(-3.517511 0.4867428 3.071168e-18)
(-5.972486 1.73614 6.537228e-18)
(-6.959869 2.982166 0)
(-6.183983 4.600997 -7.469515e-20)
(-1.956299 3.097469 -2.488953e-18)
(6.189059 -1.320264 1.78892e-20)
(11.64631 -2.845 -1.276784e-21)
(13.38319 -2.794278 -2.201064e-18)
(14.42017 -2.319302 -1.510541e-18)
(14.98332 -0.7372133 -7.403125e-20)
(17.06109 0.5958593 -6.409564e-19)
(18.69933 0.9525833 -2.852083e-19)
(17.94696 0.9180323 -2.418526e-21)
(17.88561 1.117731 0)
(18.10355 1.605424 -2.351569e-20)
(18.2054 2.224106 1.575533e-18)
(18.19111 2.892325 -6.260202e-18)
(18.07909 3.595241 4.897715e-20)
(17.88702 4.281145 -3.164104e-18)
(17.61137 4.957155 -9.593155e-20)
(17.26497 5.593807 -6.031938e-18)
(16.85619 6.204973 -8.456792e-21)
(16.3992 6.793609 5.775733e-18)
(15.89269 7.331467 -5.440828e-18)
(15.3296 7.825413 0)
(14.71944 8.262861 7.395123e-20)
(14.06638 8.649421 -7.439053e-20)
(13.37977 8.977685 0)
(12.66312 9.244144 3.882133e-18)
(11.92604 9.458947 7.641035e-20)
(11.17735 9.616293 3.092604e-18)
(10.415 9.699779 -2.590025e-18)
(9.641531 9.711798 -2.152614e-18)
(8.865417 9.668737 -1.764404e-18)
(8.100482 9.568049 -1.274478e-18)
(7.349088 9.400029 9.663383e-21)
(6.609764 9.165536 -9.758933e-21)
(5.886968 8.873026 0)
(5.192976 8.513441 4.80337e-19)
(4.522126 8.096785 -1.787789e-20)
(3.889502 7.625443 1.371407e-18)
(3.294972 7.105672 1.750054e-18)
(2.747819 6.539754 -2.132463e-18)
(2.24684 5.931718 -1.262131e-18)
(1.797262 5.282351 -4.834457e-21)
(1.399233 4.596248 1.592838e-18)
(1.060168 3.883712 2.786898e-20)
(0.7729118 3.157874 1.821114e-18)
(0.5598425 2.408337 1.544074e-20)
(0.3950951 1.649917 -1.035037e-18)
(0.2941557 0.8990739 -5.279592e-19)
(0.2754848 0.1282446 -6.552218e-23)
(0.3300968 -0.6943894 5.184908e-19)
(0.4032836 -1.535417 8.008302e-21)
(0.5537117 -2.329256 -9.660339e-19)
(0.7717462 -3.088039 1.823852e-18)
(1.046588 -3.821607 0)
(1.381052 -4.528121 -3.236273e-21)
(1.768195 -5.202203 -1.387253e-18)
(2.216578 -5.842158 1.245597e-18)
(2.7077 -6.451038 -2.078701e-18)
(3.249216 -7.008602 2.250159e-20)
(3.839207 -7.519027 -2.22846e-20)
(4.460677 -7.990793 -7.707741e-19)
(5.121503 -8.403296 0)
(5.823229 -8.759052 -1.493739e-19)
(6.543002 -9.07131 1.881339e-20)
(7.281229 -9.31528 -5.971436e-20)
(8.03694 -9.485889 -1.492208e-18)
(8.803521 -9.599231 -2.063323e-18)
(9.575636 -9.652431 -1.859328e-20)
(10.35351 -9.638524 2.908034e-18)
(11.12815 -9.565979 -4.927539e-20)
(11.88826 -9.430626 -3.808163e-18)
(12.62778 -9.226515 0)
(13.34351 -8.955662 4.631931e-18)
(14.03614 -8.62836 5.095673e-18)
(14.69791 -8.25313 5.283238e-18)
(15.32452 -7.819016 -5.621722e-18)
(15.90752 -7.335766 6.020983e-18)
(16.44462 -6.802889 0)
(16.93621 -6.227179 -1.321929e-17)
(17.37383 -5.62403 1.380787e-17)
(17.74982 -4.982785 -1.636319e-19)
(18.05957 -4.311207 -3.552717e-18)
(18.30364 -3.614044 -3.608597e-18)
(18.47325 -2.915379 0)
(18.55266 -2.22061 1.85081e-18)
(18.53313 -1.564972 -1.823041e-18)
(18.3917 -1.005632 8.824366e-19)
(18.40101 -0.6749986 -2.116444e-19)
(19.06385 -0.4788501 -4.005146e-19)
(19.10342 0.01833611 1.237967e-20)
(18.15801 1.066791 -1.848064e-18)
(17.21966 2.401744 4.695638e-20)
(16.02541 3.058609 0)
(13.92141 3.061636 0)
(7.5234 1.236508 -7.58683e-20)
(-1.59436 -2.942263 6.865418e-20)
(-4.210005 -3.482209 0)
(-4.797098 -1.912178 0)
(-3.561656 -0.6112353 0)
(-1.374478 0.2682915 6.333034e-18)
(0.1137506 0.4980994 -1.026749e-17)
(-0.06921737 0.09071862 4.769687e-18)
(-0.3014091 0.003952982 -4.237699e-18)
(-0.4393747 0.1469977 -1.076933e-19)
(-0.4401191 0.5251515 2.521255e-18)
(0.2475929 1.164625 1.849516e-18)
(1.644694 1.880911 2.700914e-20)
(2.079035 1.62425 2.934936e-21)
(1.146393 0.3950594 -2.902502e-20)
(0.01693845 -0.7261443 -4.564686e-20)
(-0.6068376 -1.206574 3.298171e-18)
(-0.7614546 -1.258466 0)
(-0.7881581 -1.326483 3.894694e-18)
(-1.021351 -1.690586 -3.939493e-18)
(-1.326932 -2.075133 3.769247e-18)
(-1.427536 -2.600388 0)
(-1.416618 -3.475996 0)
(-1.355549 -4.739899 -5.627269e-20)
(-1.460434 -5.882921 -3.512384e-18)
(-1.444441 -5.872951 1.894365e-18)
(-1.38277 -5.685802 -1.957578e-18)
(-1.326944 -5.895608 0)
(-1.187213 -6.093749 0)
(-0.9670839 -6.076668 0)
(-0.7271257 -5.842593 -9.431055e-19)
(-0.5015895 -5.429396 -4.674093e-19)
(-0.2907437 -4.920605 -4.215624e-19)
(-0.1941538 -4.303775 1.590544e-19)
(-0.08727717 -3.717501 0)
(-0.0376523 -3.06933 -5.221502e-19)
(-0.06332502 -2.331242 0)
(-0.1311028 -1.494973 -8.868622e-19)
(-0.1619174 -0.6735974 0)
(0.2888696 -0.2073307 0)
(0.7762016 -0.6117292 -7.412867e-19)
(1.437001 -2.624939 -1.488704e-18)
(1.627869 -3.49157 1.584393e-18)
(0.7923987 -2.980143 -1.292839e-18)
(-0.6616985 -1.352358 7.909882e-19)
(-1.272582 0.3375025 0)
(-2.007777 1.863621 1.961289e-18)
(-2.659636 3.094014 1.225593e-18)
(-3.057853 3.902711 1.461671e-18)
(-3.051165 4.173424 -4.348205e-20)
(-2.55646 3.859219 -2.038838e-20)
(-1.877419 3.570906 -3.605814e-19)
(-0.8159342 2.76275 -4.371766e-19)
(1.911325 -0.2567626 -4.733399e-19)
(2.403882 -1.818369 -1.935063e-20)
(1.151228 -1.866974 -6.512806e-19)
(0.8175532 -1.735745 -5.446884e-19)
(1.369261 -1.603644 -9.821402e-20)
(1.210704 -1.366263 0)
(0.1745119 -1.174968 -9.345115e-21)
(-1.929096 -0.7930983 0)
(-3.945662 0.3984537 5.489823e-18)
(-4.5389 2.013865 8.885837e-18)
(-3.040938 3.888763 6.490601e-18)
(-0.542696 3.476175 -1.519338e-19)
(8.474726 -0.9402829 2.541142e-20)
(14.43034 -2.955131 -2.06116e-18)
(16.11224 -3.205804 0)
(17.7813 -2.785227 -1.086992e-18)
(18.71187 -1.131664 -1.305536e-18)
(18.79596 0.4397616 1.046541e-18)
(18.05653 0.9283916 2.283861e-19)
(17.45631 1.031722 0)
(17.65962 1.424397 5.6578e-19)
(17.81684 1.996593 0)
(17.89215 2.650919 0)
(17.8609 3.32426 2.613596e-18)
(17.74578 4.013828 -3.999819e-20)
(17.55512 4.679446 4.838341e-20)
(17.28449 5.329525 -2.507292e-18)
(16.94444 5.935322 5.066862e-18)
(16.54202 6.514959 -4.845718e-18)
(16.09421 7.07307 -4.677113e-18)
(15.60334 7.570223 2.224258e-19)
(15.05466 8.028233 -1.360614e-19)
(14.46232 8.428436 -1.200188e-19)
(13.82644 8.783619 -3.444203e-18)
(13.15988 9.081867 -3.498152e-18)
(12.46447 9.318013 -9.169324e-20)
(11.74606 9.509413 2.908733e-18)
(11.02087 9.643166 0)
(10.2839 9.703191 2.132852e-18)
(9.52974 9.699014 1.772109e-18)
(8.773855 9.641959 1.353006e-18)
(8.031396 9.528936 1.048643e-18)
(7.301492 9.351312 0)
(6.583707 9.107741 0)
(5.878885 8.811277 -8.954728e-20)
(5.205763 8.446898 0)
(4.549899 8.02987 0)
(3.933873 7.558827 1.19424e-18)
(3.356659 7.039857 -2.30138e-20)
(2.81984 6.47789 -1.491161e-20)
(2.327056 5.87365 -3.456062e-20)
(1.886059 5.22799 2.398088e-18)
(1.497045 4.54548 0)
(1.167828 3.83645 0)
(0.8771324 3.118718 1.541574e-18)
(0.6691784 2.373508 7.740398e-19)
(0.5038283 1.618644 8.346954e-19)
(0.4017126 0.8749091 -4.32078e-19)
(0.3888821 0.1128435 0)
(0.4562739 -0.6820289 -4.435894e-22)
(0.5233901 -1.509599 2.553255e-20)
(0.6605762 -2.296418 7.66416e-19)
(0.8714398 -3.047703 -1.495032e-18)
(1.141412 -3.773114 -4.204759e-20)
(1.471528 -4.472046 1.279092e-18)
(1.853778 -5.13896 3.757573e-20)
(2.296771 -5.772642 2.008122e-18)
(2.773856 -6.378305 -1.363951e-20)
(3.301396 -6.932311 -1.411169e-18)
(3.88189 -7.440118 3.718323e-20)
(4.488097 -7.912885 0)
(5.127504 -8.328477 3.16943e-19)
(5.814226 -8.687019 0)
(6.518883 -9.004696 0)
(7.233931 -9.258972 -8.682557e-19)
(7.969105 -9.439578 2.454083e-18)
(8.717882 -9.564047 5.638121e-20)
(9.468524 -9.632396 -1.106933e-19)
(10.22554 -9.635074 -2.388286e-18)
(10.97887 -9.58347 -2.707363e-18)
(11.71801 -9.470829 3.240914e-18)
(12.4354 -9.293591 -3.516503e-18)
(13.12877 -9.052786 -7.478089e-20)
(13.80364 -8.753376 0)
(14.44731 -8.410835 -4.573641e-18)
(15.05811 -8.008962 9.632038e-18)
(15.62635 -7.561565 -5.122232e-18)
(16.14965 -7.06569 0)
(16.63138 -6.526021 9.215584e-20)
(17.06075 -5.957489 -5.532926e-18)
(17.4305 -5.347738 -8.836582e-20)
(17.73675 -4.704114 1.407229e-19)
(17.9783 -4.030733 -9.228229e-20)
(18.14944 -3.345773 0)
(18.2365 -2.658758 -2.951658e-18)
(18.23394 -1.981024 1.419282e-18)
(18.1559 -1.357622 7.002342e-19)
(18.03748 -0.8589293 -1.079715e-20)
(18.32086 -0.4817926 3.306127e-19)
(19.02206 0.1329679 6.689673e-19)
(19.31214 1.30741 0)
(18.71315 2.617606 1.50725e-18)
(17.4563 3.216345 -7.081837e-20)
(16.32292 3.04118 1.998637e-18)
(10.51199 0.9713421 0)
(1.084366 -2.900063 0)
(-0.552683 -2.45541 0)
(-1.641688 -0.5816875 1.596499e-19)
(-0.7263927 1.047096 7.69112e-18)
(0.9433213 1.820087 -5.28004e-18)
(2.566934 2.006467 4.127905e-18)
(2.928501 1.791512 -7.284388e-18)
(2.256423 1.575606 3.398192e-18)
(1.419657 1.43192 0)
(0.6472459 1.400043 -2.055523e-18)
(0.2896132 1.346617 -1.497238e-18)
(1.144778 1.530227 1.400655e-18)
(1.774557 1.181465 -4.319701e-20)
(1.160406 0.1053498 -5.877485e-20)
(0.03101851 -0.9699521 6.005313e-20)
(-0.6580979 -1.404208 0)
(-0.8252522 -1.377517 -3.060536e-18)
(-0.7380241 -1.32589 1.010517e-19)
(-0.8623104 -1.636689 6.379647e-18)
(-1.315941 -2.223506 -3.240398e-18)
(-1.519046 -3.022952 1.946654e-19)
(-1.50178 -3.98917 -3.13015e-18)
(-1.313007 -4.858443 0)
(-1.20563 -5.224782 -2.937928e-18)
(-1.210982 -5.178034 1.590055e-18)
(-1.237809 -5.513148 -1.011163e-19)
(-1.186904 -5.912405 1.770763e-18)
(-1.070512 -6.079623 -7.873191e-20)
(-0.9162027 -6.022373 2.586692e-20)
(-0.7296481 -5.770872 7.887611e-19)
(-0.5453084 -5.353408 -5.587145e-21)
(-0.3528809 -4.847364 5.897116e-21)
(-0.2860003 -4.267411 7.737242e-21)
(-0.1843261 -3.690627 2.285758e-19)
(-0.1530512 -3.05617 4.279871e-19)
(-0.2059335 -2.322675 -3.89818e-19)
(-0.2893976 -1.458404 7.261704e-19)
(-0.3003693 -0.5735771 0)
(0.2967084 -0.1460091 6.568506e-19)
(0.8733437 -0.2207552 6.467379e-19)
(1.562988 -2.286721 1.214157e-18)
(1.626113 -3.366818 0)
(0.5437111 -2.882146 0)
(-1.088984 -1.218373 -6.433603e-19)
(-1.561008 0.3137837 -2.320931e-20)
(-2.318893 1.854217 -7.799135e-19)
(-2.92289 3.132544 -1.030563e-18)
(-3.208113 3.974176 -1.192404e-18)
(-3.080604 4.284558 1.136648e-18)
(-2.520336 3.993543 -7.818328e-19)
(-1.645568 3.575291 2.938039e-19)
(-0.6758707 3.171708 1.657519e-19)
(1.482435 0.7341266 0)
(1.817048 -1.157099 0)
(0.9039481 -1.708999 5.595439e-19)
(1.326504 -2.036198 0)
(2.529488 -2.280142 -4.078406e-21)
(2.600623 -2.261725 -1.661858e-20)
(1.705589 -2.298831 -8.795383e-19)
(0.1149256 -2.299882 -4.836522e-20)
(-1.287266 -1.195511 6.221709e-20)
(-1.456761 0.8553134 -7.819035e-18)
(0.3286474 3.098563 1.527212e-19)
(2.373601 3.504646 8.880632e-19)
(10.99371 -0.3809203 -1.824153e-20)
(15.16064 -2.478743 8.55774e-19)
(15.98117 -2.918941 -3.529962e-20)
(17.72205 -2.62119 3.790863e-18)
(18.60479 -1.222008 2.935375e-20)
(18.29254 0.2225665 -1.275806e-20)
(17.58284 0.7521749 -4.082929e-19)
(17.49738 0.8999632 -3.381877e-21)
(17.69831 1.233521 -4.677309e-19)
(17.85633 1.724146 -3.108214e-20)
(17.93933 2.322075 -9.737517e-19)
(17.9108 2.954684 2.0356e-18)
(17.79381 3.636231 -2.047638e-18)
(17.60502 4.293392 3.992364e-18)
(17.33585 4.954811 2.194285e-18)
(16.99812 5.573968 0)
(16.59364 6.174262 0)
(16.14562 6.755687 3.793158e-18)
(15.65486 7.273827 3.630134e-18)
(15.10562 7.752105 0)
(14.51541 8.165564 -9.632199e-20)
(13.87918 8.536146 3.123464e-18)
(13.2092 8.855122 2.787733e-18)
(12.51399 9.104617 2.448273e-18)
(11.80106 9.30264 -6.526363e-20)
(11.07735 9.449951 -1.866616e-18)
(10.33737 9.526983 4.754588e-20)
(9.58775 9.529414 -4.799039e-20)
(8.840115 9.476663 -1.141497e-18)
(8.100453 9.373806 8.051364e-19)
(7.366707 9.212142 0)
(6.657082 8.973406 0)
(5.954855 8.687639 1.724123e-19)
(5.290704 8.329711 -9.012643e-21)
(4.639469 7.921819 -8.661715e-21)
(4.03917 7.455543 -9.209227e-19)
(3.470149 6.944164 -2.404039e-18)
(2.926051 6.399021 1.376005e-18)
(2.435769 5.806222 -1.675952e-18)
(1.999461 5.169774 -9.382478e-19)
(1.619448 4.493372 -3.219951e-20)
(1.297917 3.785993 0)
(0.999627 3.079136 -1.203235e-18)
(0.8041881 2.34009 -4.044815e-20)
(0.6342963 1.586851 -6.940835e-19)
(0.5307546 0.8499523 3.70236e-19)
(0.5249394 0.09455503 1.276698e-25)
(0.6042661 -0.6690792 -3.687584e-19)
(0.6569696 -1.486771 3.159822e-20)
(0.788969 -2.262607 -6.67892e-19)
(0.9919072 -2.999728 1.224826e-18)
(1.256411 -3.714206 -1.180737e-18)
(1.58295 -4.404572 2.778159e-21)
(1.961295 -5.062153 9.743148e-19)
(2.408845 -5.684866 -1.598539e-18)
(2.876463 -6.284926 1.380083e-18)
(3.392375 -6.833397 1.056377e-18)
(3.973469 -7.332231 8.566974e-21)
(4.58717 -7.792419 9.010423e-21)
(5.218256 -8.20131 -2.471283e-19)
(5.887432 -8.561473 -1.014171e-20)
(6.591842 -8.870785 1.57456e-20)
(7.305404 -9.115163 6.229314e-19)
(8.032108 -9.289763 -1.967259e-18)
(8.772687 -9.410694 1.281797e-18)
(9.528215 -9.461482 -5.564828e-20)
(10.28233 -9.454364 -1.920166e-18)
(11.02788 -9.398966 4.455402e-18)
(11.76719 -9.273011 8.246913e-20)
(12.48168 -9.085307 2.727878e-18)
(13.17543 -8.828295 -3.182457e-18)
(13.85235 -8.511911 9.874263e-20)
(14.495 -8.156083 -3.614935e-18)
(15.10637 -7.735455 -3.697038e-18)
(15.67383 -7.271863 1.273306e-19)
(16.19846 -6.752616 -4.25069e-18)
(16.68055 -6.191002 4.389017e-18)
(17.10949 -5.603364 0)
(17.47712 -4.976684 0)
(17.77945 -4.317284 2.381241e-18)
(18.0176 -3.644311 2.379546e-18)
(18.19006 -2.966113 0)
(18.27923 -2.299246 1.264027e-18)