/*--------------------------------*- C++ -*----------------------------------*\
| =========                 |                                                 |
| \\      /  F ield         | OpenFOAM: The Open Source CFD Toolbox           |
|  \\    /   O peration     | Version:  2406                                  |
|   \\  /    A nd           | Website:  www.openfoam.com                      |
|    \\/     M anipulation  |                                                 |
\*---------------------------------------------------------------------------*/
FoamFile
{
    version     2.0;
    format      ascii;
    arch        "LSB;label=32;scalar=64";
    class       volScalarField;
    location    "0.08";
    object      p;
}
// * * * * * * * * * * * * * * * * * * * * * * * * * * * * * * * * * * * * * //

dimensions      [0 2 -2 0 0 0 0];

internalField   nonuniform List<scalar> 
4529
(
-4.451515e-07
-3.461795e-06
-2.738716e-06
-7.208054e-06
-4.661057e-06
-7.045895e-06
-2.4532e-06
-3.552679e-06
-4.067639e-06
-2.103753e-06
3.599026e-06
-1.015299e-06
-7.134503e-07
-9.312252e-07
-1.918574e-06
-1.050825e-06
-4.471915e-06
-1.55828e-06
4.40741e-07
-2.777136e-06
-6.931312e-08
-1.713967e-06
-1.636399e-06
-2.722049e-06
-9.426406e-08
-2.84897e-06
-3.800105e-06
-5.194056e-06
-4.669772e-06
-5.834671e-06
-8.602751e-08
-1.717098e-06
-1.032228e-06
4.559746e-07
3.505674e-06
-3.405114e-06
-2.637579e-06
-1.590926e-06
-5.552034e-06
1.080903e-06
-1.741762e-06
-9.650762e-07
-2.034947e-06
1.190069e-07
1.74962e-07
1.87318e-06
-2.020091e-06
-3.254095e-06
4.510316e-07
-3.901696e-06
-9.349816e-06
-2.313709e-06
-1.004253e-05
8.956751e-07
-3.889746e-06
-4.151524e-06
-3.808646e-06
4.953037e-06
-8.120687e-06
-9.32048e-06
-3.762947e-06
1.579063e-06
-6.888423e-07
-9.441663e-06
-2.619268e-06
8.048721e-07
-1.303873e-06
-1.614726e-06
-2.627162e-06
5.388865e-06
-2.505452e-06
-3.574321e-06
-5.691932e-06
-9.401132e-07
-1.0555e-05
-6.542175e-06
1.559533e-06
2.427447e-06
-8.127831e-06
-3.702966e-06
-5.214947e-06
-2.2297e-06
7.866348e-07
-2.1366e-06
-3.571765e-06
-1.117285e-06
2.892733e-07
1.487814e-06
2.00653e-06
-9.728148e-07
-9.898037e-06
-1.196756e-06
7.006949e-07
-2.172043e-06
-1.427537e-06
-8.271639e-07
-7.417183e-06
-3.955384e-06
-5.178861e-06
-3.479438e-06
-1.067765e-06
-5.640625e-06
-3.242521e-06
-3.685359e-06
-1.766461e-06
1.825748e-06
-5.488455e-06
2.28141e-06
1.638851e-06
-1.156932e-07
-2.938307e-07
-1.878451e-06
-6.427277e-06
-5.328293e-06
-5.924116e-06
-1.57199e-06
-2.037477e-06
-3.827748e-06
-2.345902e-06
-5.576105e-07
-3.260918e-06
-2.67257e-06
4.421908e-08
-1.517732e-06
-1.652371e-06
-4.588146e-06
-3.521464e-06
1.091837e-06
-1.944311e-06
-6.015116e-06
-2.542029e-06
-4.481808e-06
-1.049698e-05
3.591525e-07
1.122464e-06
6.908574e-07
9.75444e-07
-1.134558e-07
-1.102297e-06
-3.119375e-06
-3.097816e-06
-2.18279e-06
-1.15232e-06
-4.516467e-06
-7.286467e-06
-3.854e-06
3.140491e-07
-5.814698e-06
-3.088825e-06
-2.552385e-06
-3.036107e-06
-5.057417e-06
-4.106002e-06
-1.021497e-06
-5.207678e-06
-7.618115e-07
2.291841e-07
-3.908454e-06
-1.392476e-06
-2.740387e-06
3.739268e-06
-3.556999e-07
-5.928317e-06
-3.05333e-06
-1.110729e-08
2.684995e-07
1.049788e-08
-2.98329e-06
-2.545714e-06
-2.793507e-06
-7.495879e-06
-2.105871e-06
-1.063158e-05
7.591958e-07
1.620424e-06
-4.209165e-06
-1.770965e-06
-8.948218e-06
-1.09647e-05
3.602902e-06
8.039022e-07
-3.263558e-06
-2.548849e-06
-2.252921e-06
5.614733e-06
-1.10079e-05
-3.191667e-06
-5.901769e-07
-6.181105e-06
-6.070372e-07
-3.825992e-06
-9.349945e-06
1.420664e-06
-4.669367e-06
-2.745831e-06
2.273034e-06
4.725718e-07
-7.484909e-06
4.914192e-06
7.933958e-09
-2.118718e-06
2.679993e-06
-1.931962e-06
-9.119619e-06
-1.476928e-06
-3.23515e-06
-6.401369e-06
-3.337828e-06
-4.195699e-06
-9.506231e-06
5.570344e-07
-4.417042e-06
-1.872327e-07
-4.646738e-06
-3.023616e-06
-3.458871e-06
-2.269171e-06
-1.440362e-06
-3.248184e-06
9.47238e-06
-3.471841e-06
-5.32899e-07
-2.605937e-06
-4.126628e-07
-9.067176e-07
3.125169e-06
-1.503928e-06
-3.731698e-06
-6.722264e-06
-9.035203e-07
-5.059015e-06
-9.363332e-06
-8.680873e-06
-2.486712e-07
-4.242903e-06
-3.946566e-06
-1.75722e-06
-5.094617e-06
4.880293e-07
-3.109563e-06
-4.074328e-06
3.732697e-07
-9.516157e-07
-8.057189e-06
3.026997e-06
-4.394023e-06
-8.081588e-06
-1.699262e-06
-1.690014e-06
8.57643e-07
-4.022388e-06
1.621176e-06
-5.347491e-06
5.707534e-06
3.102624e-06
-5.687467e-07
-5.447046e-06
-8.426021e-06
-6.301791e-06
-1.91035e-06
2.12477e-06
-1.060215e-06
-1.869844e-06
-9.215891e-07
-2.585574e-06
-6.893715e-06
-2.643977e-06
-2.533024e-06
-3.739527e-06
-1.236763e-06
-2.815364e-06
-4.562875e-07
2.931621e-07
-2.681233e-06
-8.52512e-06
-1.889358e-07
-9.363292e-08
2.251564e-07
-6.214579e-06
-8.939065e-06
-1.195445e-06
-2.049335e-06
4.102089e-07
-3.849174e-06
1.635908e-07
-2.685922e-06
-3.023745e-06
3.157869e-09
-3.985952e-06
-2.038108e-06
-4.438045e-06
5.180699e-07
-5.900067e-07
-2.673006e-06
-3.542256e-06
5.729679e-08
-2.063185e-06
-3.504964e-06
-1.177029e-06
-2.13416e-06
-2.220831e-06
-2.67949e-06
-3.9994e-06
5.369103e-06
-1.234313e-06
-3.952628e-06
-3.827335e-06
-1.840342e-06
-4.372247e-06
-1.204869e-06
-1.318498e-06
-2.59926e-06
1.302679e-06
-2.688291e-06
-2.582404e-06
-1.021134e-06
-2.354031e-06
-1.971484e-06
-8.582949e-06
2.548169e-06
4.573255e-08
3.465275e-06
-3.349593e-06
-5.124436e-06
-1.209717e-06
-4.081783e-06
-3.290865e-06
-2.411653e-07
-7.989094e-07
-1.478668e-07
-1.44815e-07
-5.062868e-07
-6.73001e-07
-2.225331e-06
1.356959e-06
-6.291151e-06
-5.523494e-06
-3.728687e-06
-5.06252e-07
-1.402259e-06
-1.634776e-06
-3.678526e-06
4.822376e-06
-5.597255e-06
-4.819079e-06
2.357899e-06
-2.995291e-06
-6.674069e-06
-5.837046e-06
-1.860444e-06
-1.685247e-06
3.144437e-06
-2.032652e-06
-2.180028e-06
1.635187e-06
-4.533076e-06
-5.542361e-06
6.226827e-06
-2.589671e-06
-2.114262e-06
-7.938384e-07
1.50547e-06
-3.427332e-06
-9.074464e-07
-5.944818e-07
3.81918e-07
1.498365e-07
-4.31032e-06
-2.46016e-06
-9.143351e-07
4.455609e-07
-9.277889e-07
-2.474917e-06
1.593977e-06
-2.326201e-06
-4.099314e-07
1.510705e-06
-8.141219e-06
-1.054488e-05
-2.481054e-06
-1.462603e-06
1.191587e-06
9.280867e-07
1.661301e-07
1.960011e-06
8.015808e-08
-4.865678e-06
5.143113e-06
-4.343297e-06
1.24685e-07
-8.413794e-06
2.771051e-06
6.695226e-06
-3.234919e-06
1.970181e-09
-3.333033e-06
-3.069024e-06
-3.475381e-06
-3.181974e-06
-4.323752e-06
-2.299513e-06
2.976615e-06
-8.145789e-06
-7.609247e-06
-7.92282e-06
-1.254548e-06
-7.527185e-06
-8.379532e-07
3.08419e-06
-2.756001e-06
-4.171835e-06
-1.725214e-06
-6.058583e-06
-2.4078e-06
7.258083e-07
-1.011922e-06
-1.19229e-06
-3.917982e-06
-2.496945e-07
1.677257e-06
-8.174471e-06
-2.224275e-06
-8.402932e-06
-4.837382e-06
-9.580692e-06
-9.5444e-06
-5.268093e-06
-2.892316e-06
8.437703e-07
-3.39542e-06
-6.886987e-07
2.08342e-06
-9.819231e-06
-9.167797e-06
2.005889e-06
-1.669276e-06
1.073858e-06
4.344503e-07
-4.339115e-06
1.056766e-06
-9.836866e-07
-2.755964e-07
-4.824368e-06
-2.51206e-06
-2.145414e-06
-2.022974e-06
1.903693e-06
-2.275377e-06
-2.174897e-06
-3.627884e-06
-5.02142e-06
-2.539606e-06
-3.447936e-06
-1.469891e-06
-1.152219e-06
-4.094129e-06
-1.514211e-06
-4.559397e-06
1.151811e-06
-1.079026e-06
1.263322e-06
-6.615863e-07
-2.33078e-06
4.837643e-06
-4.086592e-06
-4.756882e-06
-1.233808e-06
-1.054324e-06
1.766088e-07
-5.147691e-07
4.608929e-07
4.054493e-06
-3.599143e-06
-2.414039e-06
-6.329148e-06
8.788455e-08
-5.142917e-06
-2.027273e-06
6.081436e-07
-1.53883e-06
3.761545e-06
8.599316e-07
3.930857e-07
-4.414388e-07
-2.271876e-06
2.706844e-06
-3.94942e-06
1.134399e-06
-2.628055e-06
-4.236675e-06
-1.245814e-05
-3.11437e-06
-3.444867e-06
-4.858002e-07
-2.232925e-06
-4.134745e-06
-4.238728e-06
-4.939157e-06
-2.642581e-06
-5.638851e-06
-3.756998e-06
-7.975575e-07
-3.103554e-06
-1.107599e-06
3.554058e-07
-1.140852e-06
-2.895901e-07
-3.789115e-07
-7.593606e-07
-8.692927e-07
-4.73987e-07
-3.303501e-07
-4.013688e-06
2.214908e-06
-2.266096e-06
-4.343761e-06
-1.419673e-06
1.506643e-07
2.66105e-06
1.741214e-06
-1.855762e-06
4.973085e-07
-2.576856e-06
-1.873658e-06
-1.807584e-06
-2.203445e-07
-7.991176e-07
-3.537182e-06
1.478036e-06
3.996256e-07
-1.807035e-06
-7.728728e-07
-8.971829e-07
-1.175622e-06
-5.159212e-07
-5.427965e-06
7.464526e-07
4.270581e-07
3.993968e-07
4.001354e-06
-9.477904e-06
-6.700423e-07
5.270071e-06
-6.435602e-07
-3.832149e-06
6.179027e-08
-2.395283e-06
-4.269667e-06
-1.680795e-06
4.169345e-06
-3.588312e-06
-2.354445e-06
-2.839367e-06
-3.403672e-06
-5.027795e-07
-1.302709e-06
-6.840284e-06
-4.778818e-06
3.208361e-06
-3.037244e-06
1.512268e-06
-1.749926e-06
-3.728591e-06
-7.364746e-06
-5.900825e-06
-1.597854e-06
-1.892656e-06
-5.33291e-06
-4.568339e-06
-6.039225e-06
2.454922e-08
1.906189e-06
1.106344e-06
-2.674414e-06
-3.236877e-06
-3.543808e-06
-3.415328e-06
-4.067106e-06
3.813138e-08
1.638566e-07
-2.988779e-06
-3.950301e-06
-2.734064e-06
-7.637519e-07
-1.849381e-06
-3.930887e-06
-4.972363e-07
-1.949375e-06
-3.134722e-06
2.483036e-06
3.655555e-06
-2.415699e-06
-6.756613e-07
6.500127e-06
-4.26418e-06
-2.326834e-06
-3.589701e-06
-3.328434e-06
3.352749e-06
3.149274e-06
-3.476934e-07
-3.098939e-06
1.453891e-06
8.187646e-07
1.021268e-06
1.106375e-06
1.225074e-06
-1.344233e-06
1.571462e-06
-2.61708e-06
-7.627236e-06
-1.747255e-06
-1.66152e-06
-1.154504e-06
-1.339451e-07
4.847057e-06
8.905416e-07
4.06468e-07
-7.85008e-06
-5.102875e-07
-3.374868e-07
-5.421152e-06
-5.918632e-06
1.406754e-06
-3.810644e-06
-5.587507e-07
1.912538e-06
-1.931635e-06
-2.314386e-06
-2.214759e-06
-4.776663e-06
-6.877357e-06
-6.247424e-06
-1.88739e-06
-1.27079e-06
1.58268e-06
1.042196e-06
-1.569131e-06
-2.920059e-06
-1.30494e-06
-1.362288e-06
-2.542624e-07
3.905778e-06
6.306156e-06
-2.622725e-06
-2.955655e-07
-3.624424e-06
-5.221123e-06
6.712467e-08
-1.278963e-06
6.358971e-07
-5.562156e-06
-2.169084e-06
-5.947647e-06
-1.826776e-06
-2.443821e-06
3.099447e-07
-6.726747e-06
-1.123168e-06
-1.143331e-05
-1.604595e-06
-3.0793e-06
-6.827525e-06
-1.799571e-06
-2.343715e-06
-4.655253e-06
-3.528886e-06
-2.380578e-06
-1.043586e-05
-2.788085e-06
-2.947819e-06
4.366943e-06
-2.130513e-06
-3.198347e-08
-3.115107e-06
-2.448063e-06
-1.945953e-06
2.44992e-06
-4.101776e-06
-2.180411e-06
-1.526041e-06
-2.042257e-06
-2.655099e-06
-2.927608e-06
2.728681e-06
2.014766e-06
2.192912e-06
-1.887518e-06
-1.761215e-06
-5.303856e-06
-4.130645e-06
-2.77672e-06
-4.81286e-06
-4.58021e-06
-1.207778e-06
2.338384e-06
-9.959753e-07
-6.226914e-06
-7.049714e-06
-1.177423e-06
-1.168426e-06
-1.356768e-06
-1.092385e-05
-1.660166e-06
5.179996e-07
4.599807e-06
-3.183853e-06
-2.762821e-06
-2.460309e-06
-7.814946e-06
-6.697512e-06
-3.241276e-06
-4.541379e-06
-1.732807e-06
-2.538332e-06
-4.764429e-06
-2.01239e-06
-2.658139e-06
-3.267081e-06
-2.526945e-06
-6.779628e-06
-2.190301e-06
-3.360854e-06
-1.1367e-06
-7.426107e-07
-4.896581e-06
5.085117e-06
2.151405e-06
5.892162e-06
-2.346308e-06
-2.432387e-06
3.26865e-07
-2.351274e-06
-1.371297e-06
-4.225105e-06
-3.104535e-06
-2.939793e-06
-7.998421e-06
-1.139621e-06
-6.896045e-06
8.671966e-08
-7.591927e-06
-7.797082e-06
-7.859442e-06
-5.067287e-06
-2.393295e-06
-1.948296e-06
-2.02976e-06
-2.136306e-06
-1.095358e-05
-2.378993e-06
-2.976731e-06
-7.542271e-06
-2.832214e-06
-6.010695e-06
-4.301893e-06
-1.845616e-06
-1.161049e-05
-8.858135e-06
-9.83904e-06
-5.531711e-06
-6.003662e-06
2.656e-06
-9.278256e-06
-8.697279e-08
-6.501983e-06
-6.528008e-06
-2.317833e-06
-6.39401e-06
-3.007049e-06
-8.371912e-07
-5.468976e-06
-8.490312e-06
-1.258328e-06
-2.987385e-06
-1.588154e-06
9.387738e-07
-1.242841e-06
-4.856616e-06
-4.83801e-06
-1.130983e-05
-4.829555e-06
-1.629269e-06
-1.962383e-06
-1.504702e-06
-2.080752e-06
-6.945818e-06
-2.089648e-06
-2.532139e-06
-6.194179e-07
-3.160294e-06
-1.111493e-06
-6.436609e-06
-1.612307e-07
-2.254103e-06
-1.671905e-06
-1.638474e-06
-8.803431e-06
-3.092581e-06
-3.121311e-06
3.13946e-06
-1.740588e-06
-7.491974e-06
-9.575659e-06
-3.394648e-06
-2.941131e-06
-1.81608e-06
-3.175268e-06
-1.578678e-06
2.302723e-07
-1.856814e-06
-2.078831e-06
-4.418333e-07
-2.082431e-06
-2.141302e-06
-2.835092e-06
-2.419478e-06
-1.479822e-06
-3.217396e-06
-3.198744e-07
-1.605559e-06
-7.774467e-06
-1.14777e-05
2.195533e-07
1.582531e-06
-1.030422e-07
-2.281651e-06
-6.760374e-07
-2.400628e-07
1.372935e-07
3.349107e-07
-5.567529e-07
-1.723684e-06
-1.868759e-06
-9.93051e-07
7.215816e-07
6.013082e-07
-4.971525e-06
7.467839e-08
-2.463934e-06
-2.190972e-06
-5.880256e-06
-3.099322e-06
-7.681553e-06
-5.408457e-06
-8.865916e-06
-8.237803e-06
-6.034656e-06
-5.462374e-06
1.060382e-06
1.328137e-06
1.972216e-06
-2.457339e-06
-2.773841e-06
-1.71974e-06
-1.701931e-06
-1.920072e-06
-2.068303e-06
-2.17938e-06
-2.476201e-06
-3.307982e-06
-2.683549e-06
-5.517332e-07
-2.999942e-06
-2.814552e-07
-3.667356e-07
-7.849467e-06
-4.341392e-06
-4.41226e-06
-7.59909e-06
-6.603668e-06
-1.047943e-06
-2.986069e-06
-9.1641e-06
-4.632257e-06
-5.486821e-06
1.074889e-06
-9.327616e-06
4.005831e-07
-1.896191e-06
2.030401e-06
-4.996684e-06
-1.694203e-06
-5.026889e-06
-6.963619e-06
-1.084397e-05
-4.306848e-06
-3.742559e-06
-3.57622e-06
-1.070858e-06
-1.37283e-06
-6.986189e-07
-4.486822e-06
-4.597016e-06
-3.661937e-06
-7.887894e-06
-6.253381e-06
-6.544776e-06
-4.796475e-06
-9.905689e-06
-1.113002e-06
-2.193252e-06
-5.796541e-07
4.510938e-07
-1.425664e-06
-1.098156e-06
-4.192937e-06
-3.617922e-06
-7.033837e-06
-5.868884e-06
-5.533321e-06
-7.143302e-06
-5.696064e-06
-5.195631e-06
-5.356298e-06
-6.55052e-06
-5.608723e-06
1.805935e-07
1.140037e-07
-6.535137e-06
-6.70461e-06
-1.016145e-05
-7.934407e-06
-3.986003e-06
-4.226979e-06
-8.494203e-06
-8.898797e-06
-9.893029e-06
-3.175007e-06
7.825747e-07
-4.494097e-06
-4.588614e-06
-1.429416e-06
-1.431093e-06
-1.979454e-06
-7.131442e-06
-8.390757e-06
-6.397017e-06
-6.587277e-06
-6.851347e-06
-6.85579e-06
-8.414422e-06
-7.357574e-06
4.625877e-07
-6.027069e-06
-6.304696e-06
1.805578e-06
-5.297468e-06
-4.004285e-06
-4.25272e-06
-7.523806e-06
-3.092746e-06
5.220897e-07
-4.486103e-06
-9.161134e-06
-1.155384e-06
1.882016e-07
-9.183457e-06
2.346131e-06
-5.663793e-06
-1.631167e-06
-2.946663e-06
-5.59476e-06
-2.551689e-06
-8.341186e-07
-5.038561e-07
-6.513309e-06
-5.386037e-06
-6.19292e-06
-7.576071e-06
-5.0203e-06
-5.299057e-06
-6.10431e-06
-7.103229e-06
-5.854352e-07
-1.018028e-06
-8.035711e-07
-2.569513e-06
-5.555663e-06
-9.554801e-06
-9.337898e-06
-5.092917e-07
-7.765333e-07
-7.617754e-06
3.337582e-06
-7.080683e-06
-2.142396e-06
5.46736e-06
-2.176818e-07
-4.100186e-06
-9.465605e-06
-1.43231e-07
-7.097326e-08
-1.375181e-06
-5.51647e-06
-8.724352e-06
-3.144226e-06
1.536255e-06
5.206538e-06
1.644327e-07
7.160867e-07
3.70068e-06
-2.965094e-06
1.074484e-06
-3.759512e-06
-2.589117e-06
-4.209644e-06
-1.218688e-06
-1.24675e-06
-4.575718e-06
-1.030059e-05
-8.940685e-08
-9.601583e-06
-6.320625e-06
-6.405763e-06
-2.947502e-06
-1.425615e-06
-3.981257e-06
-2.872064e-06
-3.155994e-06
-3.208925e-06
-3.109319e-06
3.299218e-06
-1.051893e-05
-1.103405e-05
-8.324788e-06
-1.176306e-05
-1.053599e-05
-1.13875e-05
-1.222557e-05
-2.439693e-06
-7.997605e-06
9.544125e-07
1.704373e-06
-3.482008e-07
2.267506e-07
-4.588349e-06
-3.882838e-06
-5.843247e-06
-2.817185e-06
-2.185185e-06
-1.913589e-06
-3.889742e-07
-2.288159e-06
-9.944453e-07
8.627752e-07
2.77793e-07
1.211929e-06
1.110295e-06
1.114386e-06
-2.899285e-06
-1.641386e-06
3.176292e-07
7.855781e-07
3.633239e-06
-2.085254e-06
-3.94423e-07
-3.111387e-06
-7.432755e-06
1.765791e-06
-7.578639e-06
-9.439142e-06
-7.902981e-06
-2.806993e-06
-2.607317e-06
-5.159722e-06
-4.184429e-06
-8.181928e-06
-5.086225e-06
-1.314596e-06
3.78859e-06
-3.379642e-06
-3.461716e-06
-1.359544e-06
-1.862024e-06
1.659675e-06
1.457745e-06
-1.7529e-06
-1.712872e-06
-1.662142e-06
-4.752661e-07
2.174052e-07
-2.877951e-07
-7.115143e-09
-1.389052e-06
1.932351e-07
-2.660002e-07
-2.388202e-07
5.573575e-08
5.124959e-08
1.050183e-07
-3.099767e-06
-2.577689e-06
-2.982565e-06
-8.192581e-06
-7.492025e-06
-4.980725e-06
-1.935957e-06
-9.5395e-06
-7.446119e-06
-8.744836e-06
-1.372398e-06
-1.969381e-06
-4.062518e-06
1.638214e-06
-2.733061e-07
-2.544457e-06
-2.675062e-06
-6.314155e-07
-2.254864e-06
-2.767351e-06
-3.347986e-06
-8.265301e-08
-3.488358e-06
1.365516e-06
-9.269464e-07
-8.07674e-07
-1.624279e-06
-2.09517e-06
-1.712199e-06
-3.561988e-06
-2.547282e-07
-5.627328e-07
-1.417786e-06
-2.565896e-06
-2.517193e-06
-3.204318e-06
-1.096035e-05
-1.122528e-05
-1.467135e-06
-1.006199e-05
1.95577e-07
3.551771e-07
2.729977e-07
-4.543628e-08
3.032989e-07
4.942409e-07
-8.350587e-06
-8.003267e-06
1.928605e-06
-4.53709e-06
-4.666692e-06
-6.803995e-06
-2.492103e-06
-2.659039e-06
-2.514452e-06
-6.04703e-06
-1.622171e-07
-9.378664e-06
-5.049365e-06
-2.238777e-06
-1.54836e-07
-2.820295e-06
-2.72325e-06
-8.425388e-07
-1.096082e-06
-2.842902e-06
-1.37791e-06
-2.180491e-06
-3.105824e-06
-2.695e-06
-2.740404e-06
3.786915e-07
-2.841439e-06
-2.868016e-06
-2.57387e-06
-1.633478e-06
-3.313318e-06
-3.584087e-06
-2.204834e-06
-1.260568e-06
-4.20826e-06
-1.013992e-06
-5.435845e-06
-2.846716e-06
-4.648166e-06
-4.294389e-06
-5.301099e-07
-2.534562e-06
-3.140026e-06
-5.09259e-06
-2.405655e-06
1.791508e-06
-2.017282e-06
-7.299467e-06
-2.671224e-06
-2.567397e-06
-1.33415e-07
1.912586e-06
-2.33519e-06
-2.27731e-06
1.831013e-06
-5.729818e-06
-8.311624e-06
-7.183942e-06
-2.011084e-06
1.217237e-06
1.206877e-06
-1.492095e-06
-9.371989e-07
-1.959217e-06
-3.072163e-07
-2.695681e-06
1.349537e-06
-2.569106e-06
-4.183253e-06
-4.340631e-06
-5.346977e-07
-3.316418e-06
-3.335938e-06
5.15612e-08
-2.645036e-06
-2.93879e-06
-5.433373e-06
-4.525225e-06
-4.268252e-06
3.926571e-07
3.215738e-06
3.927396e-07
-5.723568e-06
-5.999896e-06
-1.098509e-06
-6.767816e-08
-2.21661e-06
1.083546e-06
-1.624789e-06
-1.785565e-06
7.288609e-07
1.266388e-06
-2.695869e-07
3.841803e-07
-5.535389e-07
-2.193887e-06
-1.923065e-06
-4.989646e-06
-3.941733e-07
-5.933415e-07
-3.775616e-06
3.060628e-07
-1.119676e-06
-9.950358e-07
-1.404459e-06
-4.012614e-06
-5.851973e-06
-2.388433e-06
-2.004985e-06
-2.06606e-06
1.676472e-07
-2.401416e-06
1.282452e-06
-4.812685e-06
-2.164979e-06
-1.587211e-06
-8.958554e-06
-8.203299e-06
-1.728221e-06
-5.139855e-06
-7.026969e-06
-8.730691e-06
-1.168021e-06
-1.351414e-06
-2.148637e-06
-5.705249e-07
-4.051133e-06
-7.472305e-07
1.015675e-06
-2.933916e-06
-7.860075e-06
-1.195544e-06
1.053037e-06
-1.534622e-06
-1.404767e-06
-3.052999e-06
-9.075836e-07
-6.293497e-06
-7.529558e-06
-3.08231e-06
-5.487057e-06
6.319258e-07
3.094664e-06
-7.958626e-07
-1.042965e-05
-1.625524e-06
-1.994948e-06
-5.918666e-07
-1.512634e-06
5.568422e-06
-3.45299e-06
-5.230723e-06
-3.375214e-07
-3.122688e-06
-3.066732e-06
2.681524e-06
2.53109e-06
-4.155246e-08
-2.450046e-06
1.08292e-06
4.319408e-07
-2.19842e-06
-7.495627e-06
-3.907592e-07
-4.005063e-07
-7.772226e-07
-8.127961e-07
-1.016284e-06
-7.503811e-07
-9.774599e-07
-5.37402e-07
-6.850468e-07
-8.731694e-07
-5.86602e-07
-3.124025e-07
-3.491442e-06
-4.929772e-07
1.181771e-06
1.486443e-06
2.281192e-06
3.292247e-07
7.01293e-07
6.333605e-07
1.234596e-06
5.657315e-07
-6.501761e-06
2.698612e-06
2.131297e-06
-1.36669e-06
-5.97259e-06
-4.254105e-06
-5.545202e-06
-1.675334e-06
-7.197589e-06
-2.056355e-08
-1.029281e-06
2.682848e-06
1.740006e-07
-7.102744e-08
-7.896384e-07
-2.566764e-06
-1.460787e-06
-3.518054e-06
-3.363155e-06
-9.752573e-06
-4.038451e-06
-4.30204e-06
-4.914377e-06
-4.742457e-06
-5.251056e-06
-5.594672e-06
-4.219452e-06
-4.128772e-06
-3.602072e-06
5.55108e-07
-4.55701e-06
-3.8524e-06
-2.319386e-06
8.151097e-07
-5.141539e-06
1.67857e-06
-2.34163e-06
-2.44654e-07
-5.613355e-06
-5.036452e-06
-6.156819e-06
-9.182325e-06
-9.196085e-06
-3.542296e-06
-1.598819e-06
-1.58481e-06
-2.366785e-06
-2.289465e-06
-3.545561e-06
5.513078e-07
-8.127095e-06
-2.978606e-06
1.104777e-06
-3.688467e-07
4.544518e-06
-5.709545e-06
-6.087499e-06
-3.789365e-06
-6.311189e-06
-6.178325e-06
-3.508029e-06
-3.560385e-06
4.729359e-07
-4.486337e-06
3.912325e-06
3.127087e-06
2.304802e-06
-4.642791e-06
-5.772911e-06
-7.425182e-06
-6.625683e-06
-4.435075e-06
-5.667061e-06
-6.970044e-06
-6.702217e-06
-5.206234e-06
-5.041822e-06
-1.772137e-06
-5.842823e-06
-1.611566e-06
-8.916358e-06
2.279851e-06
-1.088886e-07
-5.478691e-06
6.521354e-07
8.009003e-07
4.292764e-06
-2.376209e-06
4.967217e-06
3.920521e-06
-2.86599e-06
-4.784173e-06
-8.67285e-06
1.321529e-06
9.271517e-07
9.146741e-07
-6.598107e-07
-6.332123e-06
-6.443921e-06
-4.807808e-06
-2.641107e-07
-8.733546e-08
-8.30053e-06
-1.025006e-05
-9.894331e-06
-4.592947e-06
-3.590715e-06
-5.954531e-06
-7.145724e-06
-1.970868e-06
-3.091313e-06
-3.277168e-06
-4.242234e-06
-4.059756e-06
-1.053612e-06
-9.65119e-06
2.354444e-07
-2.517609e-06
2.746768e-06
-9.63068e-08
-3.90339e-06
1.995821e-06
-3.84786e-06
6.094904e-07
-8.073586e-06
-1.866749e-06
-4.839715e-06
1.477192e-06
-3.67663e-07
6.210673e-07
-3.078167e-07
-4.815946e-07
-3.799725e-06
-2.059489e-06
-2.947705e-06
-2.20109e-06
-1.786461e-06
-1.886489e-06
-2.523416e-06
-7.824784e-06
-2.9342e-06
2.304097e-08
-3.823225e-06
1.643848e-06
1.511657e-06
-3.898171e-06
-2.693801e-08
-4.656462e-06
-2.529298e-06
-2.909437e-06
-1.77966e-06
-2.592726e-06
4.056689e-06
-5.160826e-07
8.950007e-07
-5.448797e-06
6.80204e-06
-7.634227e-07
-1.16678e-06
-7.796506e-07
-7.031229e-07
-7.058496e-07
-9.44777e-07
-2.067991e-06
-9.176307e-07
-9.095541e-07
6.829357e-06
2.36806e-07
1.273743e-07
-1.36411e-06
-3.464068e-06
-4.20679e-06
-1.902075e-06
-1.380401e-06
5.163152e-07
5.918536e-07
9.231672e-07
-1.800194e-06
-1.791465e-06
5.69918e-06
5.013095e-06
1.042642e-06
6.773215e-07
-8.201248e-07
-2.054354e-06
-2.130994e-06
-3.010848e-06
-2.798641e-06
1.119192e-06
5.938959e-07
-7.2151e-06
-1.476882e-06
-1.37872e-06
1.361619e-06
1.344541e-06
-5.65933e-06
-2.756211e-06
-3.014484e-06
1.041252e-06
8.059585e-07
-1.022003e-05
-4.925318e-06
-5.272964e-06
-4.598576e-06
-1.036309e-06
-1.25743e-06
-3.735442e-08
-1.517781e-06
-1.121012e-05
1.391009e-06
-6.44964e-06
3.486196e-06
-1.164598e-06
-1.572596e-06
-3.000797e-06
-3.030668e-07
-6.444919e-07
-5.009529e-06
-1.337982e-06
1.260476e-06
1.484548e-06
-4.339283e-06
-9.654764e-06
6.80463e-07
-3.823951e-07
-4.300915e-06
5.447258e-08
-2.802469e-07
-5.700255e-06
-1.011779e-05
4.138286e-07
1.367309e-06
-3.40784e-06
-4.727199e-06
-6.360404e-06
-5.975241e-06
-4.13904e-07
-3.662805e-07
-4.3024e-06
-2.77912e-06
1.3081e-07
2.445925e-07
4.674152e-07
1.300863e-07
8.303447e-07
3.978387e-06
3.779168e-06
-4.294994e-07
-1.245033e-06
-2.155225e-06
-1.516423e-06
-4.553143e-06
4.606678e-06
-7.372991e-06
-2.776216e-06
-3.060614e-06
-3.536462e-06
1.910495e-06
-2.922662e-06
-2.673996e-06
-6.60812e-06
-6.828697e-06
2.082692e-07
-6.220806e-06
4.012929e-06
5.028029e-07
-1.879643e-07
-1.034855e-06
-1.01042e-05
-9.596025e-06
-1.335554e-07
-2.081942e-06
-3.167425e-06
-3.912302e-06
1.731366e-06
-7.023453e-07
-3.448991e-06
-3.168577e-06
-2.356716e-06
5.264253e-06
5.873208e-06
8.897407e-08
-1.351971e-08
-5.151473e-06
-3.69951e-08
-1.881549e-06
-2.045528e-06
-5.839506e-06
-7.918603e-06
-6.65556e-07
-1.690953e-07
-2.136278e-06
-2.085609e-06
4.006122e-07
-5.934245e-06
2.549451e-07
-7.610736e-07
-7.070991e-06
-2.143328e-06
4.185338e-06
7.054729e-06
-1.858247e-06
-1.333062e-06
6.099207e-07
7.449846e-07
-1.352541e-06
3.701601e-06
4.714086e-06
1.235869e-06
1.039605e-06
-5.906127e-07
-2.787135e-07
6.212324e-06
3.34166e-06
-3.376273e-06
1.680577e-06
2.232335e-06
-3.839856e-06
-2.380927e-06
-3.439715e-06
-3.291176e-06
-1.885531e-06
-1.295806e-06
-3.060316e-06
-4.014077e-06
-3.338626e-06
-3.567341e-06
-4.588753e-06
-3.92553e-06
-4.327712e-06
-6.174989e-06
-3.183507e-06
-3.881574e-06
-3.936995e-06
-4.662532e-06
-4.59112e-06
-5.011024e-06
-3.572407e-06
-4.246356e-06
-4.269486e-06
-2.999888e-06
-2.700303e-06
-1.470536e-07
-2.698881e-06
-2.626902e-06
-5.677231e-06
-5.616946e-06
1.547276e-06
2.317633e-06
-3.745166e-06
-6.226837e-06
5.536198e-07
-1.651203e-06
-4.168417e-06
-2.072722e-06
-2.043519e-06
-3.877269e-06
-3.250356e-06
-3.422292e-06
-3.751805e-06
-9.294702e-07
-4.118777e-06
-4.075193e-06
-4.843356e-06
-3.643577e-06
-3.083488e-06
-3.610333e-06
-4.963924e-07
4.345073e-07
2.885843e-07
2.766534e-06
8.573874e-07
-1.74692e-06
-1.728833e-06
2.869675e-07
-4.876148e-07
-2.49848e-06
2.083627e-07
-7.178243e-06
-3.032081e-06
-3.525354e-06
1.352626e-06
6.605786e-07
2.174068e-06
1.641709e-06
1.68811e-06
-2.199808e-06
-2.238615e-06
-2.304248e-06
-6.40014e-06
-3.277387e-06
-2.836476e-06
-3.188577e-06
-1.657194e-06
-4.62057e-07
3.750721e-06
-1.167133e-07
3.768211e-07
-3.655285e-06
-2.273298e-06
8.249412e-07
-2.759953e-06
-4.236959e-07
-2.038496e-06
-2.489825e-06
-2.397585e-06
1.908619e-07
-2.512994e-06
-8.898486e-06
2.405443e-06
3.241778e-06
3.006259e-06
2.372407e-06
3.097765e-07
-2.52375e-06
3.321352e-09
-1.676125e-06
-9.616397e-07
-4.105038e-06
7.864589e-07
7.828317e-07
-1.383311e-06
-3.061555e-06
-1.141372e-06
-2.750587e-06
-2.627181e-06
6.383117e-06
-8.702386e-06
-8.255337e-06
-1.835457e-06
-1.968196e-06
-3.580586e-06
-1.92309e-06
-4.191701e-06
-3.054582e-06
-4.555748e-06
1.138093e-07
-1.683679e-06
-1.121145e-06
-1.597879e-06
-1.482376e-06
-2.890972e-06
-4.138952e-06
-1.689846e-06
-1.860433e-06
-5.564379e-07
5.058909e-07
-8.978857e-06
-6.750765e-06
-6.714535e-06
4.009145e-07
-3.356027e-06
3.948574e-07
2.4136e-06
2.951451e-06
-2.049604e-06
-9.191095e-07
-2.195869e-06
-2.678176e-06
-7.049986e-07
1.945245e-06
-7.21433e-06
-6.005375e-06
-8.14054e-07
-8.600591e-07
-1.319202e-06
-5.870062e-06
-5.019395e-06
-7.273631e-06
6.116182e-07
9.471078e-07
-1.072329e-05
3.046936e-06
-4.587689e-06
-3.297242e-06
3.471704e-07
-2.189949e-06
-1.193242e-06
-1.026004e-06
-3.694369e-06
-4.144064e-06
1.660191e-06
-2.189774e-06
-2.170839e-06
2.776404e-06
-9.055347e-06
-6.21224e-06
-4.473757e-06
-2.329489e-06
-2.478149e-06
-1.782337e-06
-1.569865e-06
-3.809022e-06
-2.689884e-06
-2.585641e-06
-2.251276e-06
5.427123e-07
6.846153e-07
-9.094692e-06
-8.603164e-06
4.745487e-06
-5.91306e-07
-8.021556e-07
3.008293e-08
2.39225e-07
-4.575409e-06
-2.556155e-07
-7.17963e-07
-1.828969e-06
-2.023287e-06
7.269928e-06
-2.217116e-06
2.564367e-06
1.932632e-06
-2.67298e-06
-5.946381e-06
3.427707e-08
-8.971494e-08
-2.263938e-06
-2.289222e-06
-3.376033e-06
-4.720235e-06
-7.464077e-06
-3.072654e-06
-9.593167e-06
-9.788414e-06
-1.313658e-07
-2.845632e-06
-1.554691e-06
-1.022612e-05
-3.678268e-06
-1.037798e-05
-2.091735e-07
-2.150415e-06
1.595904e-06
1.954146e-06
8.229206e-07
9.381492e-07
2.745912e-06
9.005234e-07
-4.909277e-06
-3.001964e-06
-2.938485e-06
8.45519e-07
1.969018e-06
-9.865354e-06
1.244427e-07
1.295404e-07
-3.34043e-06
-3.554394e-06
-5.063581e-06
-4.559662e-06
-1.394531e-06
-3.146206e-07
-8.24082e-07
-5.025334e-06
-6.937279e-06
-2.05979e-06
-7.192829e-06
-7.15168e-06
-6.814666e-06
-6.977208e-06
2.254551e-06
-4.978511e-06
-2.720433e-07
-4.525398e-06
-4.837428e-06
-4.544311e-06
-9.133862e-06
-1.839555e-06
-2.676068e-06
-3.714947e-06
-3.771621e-06
-6.007273e-06
1.143124e-07
-5.050407e-07
-1.994848e-06
-3.941393e-07
-9.877923e-06
-1.148808e-05
-1.051976e-05
-2.796695e-06
-7.763899e-06
-1.016845e-05
-1.084161e-05
-1.739894e-06
-2.483446e-06
-2.427295e-06
-3.253673e-06
-3.009893e-06
-5.538792e-06
-4.94048e-06
3.328235e-06
-9.470285e-06
-3.261021e-06
3.370819e-06
2.981767e-06
-2.877934e-06
1.010382e-07
-5.685437e-06
5.07468e-07
-1.661721e-06
-1.744851e-06
-3.875806e-07
-2.920892e-06
1.280123e-06
-2.849767e-06
-9.296312e-06
-4.392022e-06
-7.735764e-06
-9.423715e-06
-8.613545e-06
-1.32559e-06
-8.451663e-06
-6.058473e-06
-5.585259e-06
-2.918123e-06
-2.479114e-06
-2.415712e-06
-9.97603e-07
-4.353715e-07
-4.10421e-06
-2.37757e-06
-8.445461e-06
-6.075242e-06
-5.368816e-06
-5.381536e-06
5.593513e-07
-9.560943e-07
-1.407275e-06
5.086038e-06
-3.310813e-06
-4.787445e-06
-4.912798e-06
-5.761215e-07
-8.049727e-07
-6.237936e-06
-3.657293e-06
-6.580722e-07
-5.140186e-06
-4.703332e-06
-3.948401e-06
-3.856268e-06
-4.415246e-06
-7.11817e-06
-1.611487e-06
-1.997398e-06
1.975507e-06
1.855319e-06
3.411749e-09
6.691535e-08
-1.349388e-07
-3.713024e-07
1.969296e-09
5.626351e-07
-2.427202e-06
-4.347752e-06
-5.779736e-06
-5.728186e-07
-1.814761e-06
-1.493908e-06
-1.545827e-06
-2.322663e-06
1.809998e-06
-9.759661e-07
-1.563405e-06
-2.902688e-06
-2.214305e-06
-2.21903e-06
-3.838778e-07
-7.531645e-07
-6.904692e-07
1.266878e-06
1.330119e-06
1.465567e-06
-8.813506e-06
-1.544891e-06
7.133254e-07
1.037583e-06
-8.526817e-07
-1.842065e-06
-2.448885e-06
-1.53363e-06
-1.394814e-06
2.748676e-06
2.952707e-06
-1.147115e-06
3.807339e-06
-6.987323e-06
-7.811572e-06
-1.012358e-07
-3.306091e-06
-6.636359e-07
-1.861023e-06
9.153328e-07
-3.344261e-07
-1.814377e-06
-3.069412e-06
-5.507193e-06
-5.572531e-06
-7.045322e-07
-6.190738e-07
-8.540771e-06
-2.000185e-06
-6.532171e-06
6.852355e-07
-4.052255e-06
-3.610021e-06
1.118977e-07
2.679147e-07
-1.816362e-06
-1.648237e-06
-1.643455e-06
3.744281e-07
-2.670857e-06
-3.330227e-06
-3.027899e-06
-3.056107e-06
-1.982994e-06
-3.065597e-06
-1.857733e-06
-2.058686e-06
4.730361e-06
5.324991e-06
-2.575493e-06
1.291685e-06
9.633442e-07
-1.719246e-06
-1.761452e-06
-3.770218e-06
-9.790607e-07
-2.965453e-06
9.348135e-07
2.829145e-07
-3.505649e-06
-9.175148e-06
-8.621477e-06
-6.64199e-06
-5.963966e-06
-2.231096e-06
-2.241861e-06
6.601248e-07
-1.042025e-05
-1.088196e-05
-1.084979e-05
-4.384864e-06
1.385167e-06
-1.252334e-06
-1.182684e-06
7.100056e-07
2.90786e-06
-1.231807e-06
2.723814e-06
-2.311039e-06
-1.808022e-06
-2.924065e-06
-2.240015e-06
-2.428513e-06
-7.163968e-07
-6.010551e-07
-8.60623e-08
-2.813988e-07
-1.079748e-06
-1.321e-06
1.405061e-06
1.556237e-06
-2.709174e-06
-2.322971e-06
2.382302e-06
-4.846242e-06
-6.773062e-06
-6.787146e-06
-6.797273e-06
-6.968062e-06
-7.230777e-06
-8.381371e-06
-7.296421e-06
-6.632732e-06
-8.552962e-06
-9.380768e-06
1.798073e-06
-3.060931e-06
-2.898199e-06
-6.021224e-06
-1.696152e-06
-1.199276e-06
-1.207367e-06
-9.480108e-07
1.109502e-07
2.644486e-07
-7.950248e-07
5.946254e-07
-1.976151e-06
-9.956044e-07
4.189849e-07
-9.45612e-06
-9.751967e-06
-2.407068e-06
-3.105132e-06
-3.233266e-06
-2.298047e-06
-1.08172e-06
-7.590133e-06
-6.254197e-06
-5.983651e-06
-5.870503e-06
5.721395e-07