/*--------------------------------*- C++ -*----------------------------------*\
| =========                 |                                                 |
| \\      /  F ield         | OpenFOAM: The Open Source CFD Toolbox           |
|  \\    /   O peration     | Version:  2406                                  |
|   \\  /    A nd           | Website:  www.openfoam.com                      |
|    \\/     M anipulation  |                                                 |
\*---------------------------------------------------------------------------*/
FoamFile
{
    version     2.0;
    format      ascii;
    arch        "LSB;label=32;scalar=64";
    class       surfaceScalarField;
    location    "0.58";
    object      phi;
}
// * * * * * * * * * * * * * * * * * * * * * * * * * * * * * * * * * * * * * //

dimensions      [0 3 -1 0 0 0 0];

oriented        oriented;

internalField   nonuniform List<scalar> 
6770
(
1.083056e-10
-1.797438e-09
1.689133e-09
-1.46794e-09
3.432915e-10
1.124648e-09
-1.484926e-09
1.357188e-09
1.277374e-10
1.684375e-09
-1.005516e-09
-6.78859e-10
7.871447e-09
-7.148673e-09
-7.22774e-10
6.279068e-10
8.498099e-10
-1.477717e-09
-1.11231e-09
1.558941e-09
-4.466309e-10
-1.262403e-09
1.203031e-09
5.937188e-11
-8.834963e-10
-8.057661e-10
1.689262e-09
-1.182746e-09
1.220688e-09
-3.794219e-11
1.736163e-10
-1.251934e-09
1.078318e-09
7.693641e-10
-1.685137e-09
9.157731e-10
1.328093e-09
-1.397211e-09
6.911786e-11
1.09702e-09
-1.65129e-09
5.542699e-10
-2.416887e-10
1.909629e-09
1.816522e-09
-4.920197e-09
3.103675e-09
4.537809e-10
1.324898e-09
-1.778679e-09
-2.322026e-09
5.271205e-10
1.794906e-09
-1.244735e-09
9.636098e-10
2.811254e-10
-6.74108e-10
-1.145109e-09
1.819217e-09
-8.295454e-10
-1.004204e-09
1.83375e-09
5.715657e-10
-1.50677e-09
9.352045e-10
9.253244e-10
-1.784574e-09
8.5925e-10
1.514018e-09
-1.122718e-09
-3.912996e-10
-1.194837e-09
9.044336e-10
2.904039e-10
-1.339937e-09
-2.642258e-10
1.604163e-09
1.20982e-09
3.864814e-10
-1.596302e-09
7.937433e-10
9.394617e-10
-1.733205e-09
-1.530409e-09
7.514302e-10
1.99029e-10
-1.085616e-09
8.865872e-10
2.999258e-10
-1.381062e-09
1.081137e-09
1.88655e-09
-1.557627e-09
-3.289236e-10
1.494463e-09
-2.961752e-10
-1.198288e-09
-2.36299e-10
1.686772e-09
-1.450473e-09
-2.137104e-09
2.00885e-09
1.282544e-10
-6.650514e-09
5.050624e-09
1.59989e-09
7.622332e-10
-1.679815e-09
9.175819e-10
-2.029741e-09
1.386722e-09
6.430189e-10
-9.975951e-10
2.169714e-09
-1.172119e-09
3.125954e-09
-2.672688e-09
-4.532661e-10
1.572392e-09
-1.469455e-09
-1.029372e-10
1.733332e-09
-7.466243e-10
-9.867074e-10
-1.919598e-09
1.620682e-09
2.989153e-10
-1.587035e-09
1.015004e-09
5.720312e-10
-1.271396e-09
8.568534e-10
4.145423e-10
-1.930178e-09
1.625941e-09
3.042374e-10
-1.221746e-09
8.165941e-10
4.051515e-10
-7.937085e-10
-8.186599e-10
1.612368e-09
-5.464836e-10
-1.438151e-09
1.984634e-09
-1.567256e-09
-6.060663e-10
2.173322e-09
5.766594e-10
9.280651e-10
-1.504725e-09
-1.204178e-09
3.691359e-10
8.350417e-10
-5.947346e-09
2.142131e-10
5.733133e-09
-1.182327e-09
-3.817115e-10
1.564038e-09
1.62621e-09
7.62964e-10
-2.389174e-09
-1.572277e-09
1.053771e-09
5.185054e-10
1.42387e-09
-2.312719e-10
-1.192598e-09
-1.507822e-09
1.148367e-09
3.594553e-10
3.294691e-10
1.427225e-09
-1.756694e-09
-5.009226e-10
-2.473762e-09
2.974684e-09
-1.513105e-09
1.431725e-09
8.138072e-11
-1.151425e-09
2.400388e-10
9.11386e-10
3.48326e-10
1.300397e-09
-1.648723e-09
-3.816108e-10
-1.431722e-09
1.813333e-09
-1.641581e-09
1.81366e-09
-1.756244e-09
9.98814e-10
7.5743e-10
-1.318549e-11
-1.723979e-09
1.737165e-09
1.005673e-09
-1.767772e-09
7.620992e-10
-8.737805e-11
-1.440212e-09
1.52759e-09
-1.48787e-09
9.233629e-10
5.64507e-10
-5.614754e-10
-1.015874e-09
1.57735e-09
2.17831e-09
-9.361774e-10
-1.242133e-09
1.258193e-09
5.897455e-10
-1.847939e-09
-8.94434e-10
-8.366404e-10
1.731074e-09
-3.465159e-10
1.853128e-09
-1.506613e-09
4.713217e-10
1.965029e-09
-2.43635e-09
-1.11141e-09
1.564602e-09
-4.531915e-10
-1.69345e-09
3.960756e-10
1.297374e-09
1.859351e-09
-3.977206e-10
-1.46163e-09
-1.665944e-10
3.527831e-09
-3.361236e-09
-4.912146e-09
8.602605e-09
-3.690459e-09
-1.223663e-09
-3.325236e-09
4.548899e-09
-2.102623e-09
1.423478e-09
6.791457e-10
-5.955469e-10
1.795273e-09
-1.199726e-09
-1.675192e-09
1.438893e-09
-1.079228e-09
-7.060344e-10
1.785262e-09
7.186003e-10
1.285539e-09
-2.004139e-09
-1.409182e-09
5.980181e-10
8.111638e-10
-1.352758e-10
-1.207595e-09
1.342871e-09
-1.69948e-09
3.434745e-10
1.356006e-09
-9.482439e-10
-1.108368e-09
2.056612e-09
7.325471e-10
-1.627528e-09
8.949813e-10
-1.179988e-09
-4.75172e-10
1.65516e-09
1.52603e-09
-3.458899e-10
-1.18014e-09
9.290867e-10
6.396813e-10
-1.568768e-09
1.189457e-09
-3.131963e-10
-8.762604e-10
8.003516e-10
-1.668e-09
8.676484e-10
-1.279101e-09
1.156276e-09
1.228244e-10
5.813933e-10
-1.461838e-09
9.065439e-10
8.406792e-10
-1.747223e-09
-6.095967e-10
1.534613e-09
-9.250162e-10
-1.053243e-09
1.693307e-09
-6.400638e-10
1.651995e-09
-4.137427e-10
-1.238252e-09
-1.774629e-09
1.054384e-09
7.202448e-10
1.548159e-09
-1.272245e-09
-2.759134e-10
1.153327e-09
-1.04759e-09
-1.057372e-10
-1.332743e-09
1.19132e-09
1.414227e-10
2.103292e-09
-1.520607e-09
-5.826853e-10
9.867841e-10
-1.399666e-09
4.128821e-10
6.199785e-09
-9.371292e-10
-5.262656e-09
1.727402e-09
-3.877519e-10
-1.33965e-09
1.602977e-09
-4.760556e-10
-1.126921e-09
-9.258902e-10
1.460562e-09
-5.34672e-10
1.604342e-09
-1.23982e-09
-3.645222e-10
9.997537e-10
1.020783e-09
-2.020536e-09
1.047157e-09
6.861747e-10
-2.671585e-10
-4.645842e-09
4.913001e-09
-5.748866e-11
-1.342619e-09
1.400108e-09
-1.487695e-09
4.243587e-10
1.063337e-09
-1.28043e-09
1.094533e-09
1.858965e-10
1.018343e-09
1.655206e-09
-2.673549e-09
-6.785584e-10
1.702665e-09
-1.024106e-09
-1.534913e-09
1.681254e-09
-1.463409e-10
1.816805e-09
-1.260873e-09
-5.559326e-10
7.481786e-10
1.081122e-09
-1.829301e-09
-4.008626e-10
1.714888e-09
-1.314025e-09
5.995572e-10
-1.912098e-09
1.312541e-09
-1.250383e-09
1.637939e-09
-3.875563e-10
1.963397e-09
-1.03431e-09
-2.017207e-09
1.4381e-09
5.791072e-10
1.064849e-09
8.347983e-10
-1.899647e-09
-7.967884e-10
-5.069737e-10
1.303762e-09
1.5635e-09
-4.101732e-10
-5.574909e-10
-8.150276e-10
1.372519e-09
1.560621e-09
-4.112891e-10
-1.149332e-09
2.105137e-09
-1.058495e-09
-1.046642e-09
1.234182e-09
4.229874e-10
-1.657169e-09
-1.668989e-09
1.409067e-09
2.599216e-10
4.584195e-09
8.624292e-10
-5.446624e-09
1.528562e-09
-1.450636e-09
-7.792597e-11
-1.63367e-09
9.280553e-10
7.056149e-10
1.111121e-09
-5.031964e-09
3.920843e-09
-1.55108e-09
3.013317e-10
1.249749e-09
1.238725e-09
7.909537e-10
9.685709e-10
6.220286e-10
-1.5906e-09
1.713102e-09
-1.407e-09
-3.061018e-10
7.488304e-10
-1.339269e-09
5.90439e-10
5.79084e-10
-1.367334e-09
7.882496e-10
1.872961e-09
-1.460798e-09
-4.121627e-10
-7.849924e-09
1.902578e-09
2.266932e-10
1.069469e-09
-1.296162e-09
-1.144926e-09
6.808971e-10
4.640286e-10
6.278223e-10
9.507991e-10
-1.578621e-09
7.724505e-10
8.689584e-10
-1.641409e-09
1.54198e-09
-9.593251e-10
-5.826548e-10
8.1069e-12
2.645054e-09
-2.653161e-09
-1.688721e-09
9.139238e-10
7.747976e-10
-9.703022e-10
1.960095e-09
-9.897924e-10
1.484988e-09
4.625997e-10
-1.947588e-09
-1.585491e-09
-2.71457e-10
1.856948e-09
1.171252e-09
-1.753984e-09
5.827317e-10
-2.059596e-09
2.530917e-09
1.270296e-09
-1.001964e-09
-2.683322e-10
4.402742e-10
-1.526008e-09
1.085734e-09
-2.338595e-10
1.516516e-09
-1.282656e-09
-1.813846e-09
2.415693e-10
-1.572129e-09
2.88764e-10
1.283365e-09
3.751647e-10
-1.750608e-09
1.375443e-09
-1.663183e-09
6.190664e-10
1.044117e-09
-5.724684e-10
2.468755e-09
-1.896286e-09
-1.947874e-09
1.118328e-09
1.419321e-09
-9.044931e-12
-1.410276e-09
8.91365e-10
7.598446e-10
-1.65121e-09
3.045668e-10
-1.637696e-09
1.33313e-09
-7.396054e-10
1.813655e-09
-1.074049e-09
-5.470302e-10
2.032018e-09
1.206105e-09
-1.575019e-09
3.68914e-10
1.011258e-10
-1.636038e-09
2.646751e-11
1.276353e-09
-1.302821e-09
-1.463716e-09
6.622517e-10
8.01464e-10
1.361523e-09
-1.593132e-09
2.31609e-10
1.311931e-10
-1.586574e-09
1.45538e-09
-8.770942e-10
1.625925e-09
2.939061e-09
-1.406143e-09
7.684234e-10
6.377194e-10
2.403844e-10
8.119876e-10
-1.052372e-09
1.044666e-09
-1.530993e-09
4.863264e-10
3.511963e-10
1.323858e-09
-1.675055e-09
-1.244707e-09
1.891426e-09
-6.467198e-10
9.780617e-10
-1.212894e-09
2.348325e-10
1.512593e-09
-6.282742e-10
-8.843191e-10
1.113117e-09
5.965827e-10
-1.7097e-09
-1.699489e-09
1.118761e-09
5.807281e-10
3.700575e-10
-1.338423e-09
9.683653e-10
-1.676637e-09
9.82171e-10
6.944662e-10
-2.552885e-10
-1.208427e-09
-1.735715e-09
1.288637e-09
4.470785e-10
-8.064138e-10
1.712958e-09
-1.761705e-09
1.189237e-09
1.080136e-09
7.048814e-10
-1.785017e-09
6.313857e-10
-2.025986e-09
1.3946e-09
-7.456094e-10
-1.115386e-09
1.860995e-09
-1.624869e-09
4.758254e-10
1.149044e-09
2.249858e-10
-1.202949e-09
9.779632e-10
1.040389e-09
9.399664e-11
-1.134386e-09
-1.738017e-10
1.550619e-09
-1.376817e-09
1.682975e-09
-1.387953e-09
-2.950223e-10
2.107441e-09
-1.02166e-09
-1.085781e-09
3.574736e-10
1.378546e-09
-1.73602e-09
8.867532e-10
8.637629e-10
-1.750516e-09
-1.123413e-09
-5.473191e-10
1.670732e-09
4.686997e-10
-1.319955e-09
8.512557e-10
1.757321e-09
-7.156477e-10
-1.041673e-09
9.850832e-10
4.790767e-10
-1.46416e-09
2.589844e-10
9.478832e-10
-1.206868e-09
1.404761e-09
7.026803e-10
-4.945329e-10
-1.213871e-09
1.708404e-09
-1.286941e-09
-2.658801e-10
1.552821e-09
1.527249e-09
-4.622071e-10
-1.065042e-09
8.321999e-10
-2.007142e-09
1.174942e-09
-1.403077e-09
3.580136e-10
1.045064e-09
1.108253e-09
-1.6986e-09
5.90347e-10
-6.401446e-11
-1.874129e-09
1.938144e-09
3.136918e-09
-1.510708e-09
1.401899e-09
-1.115502e-09
-2.863968e-10
-1.552972e-09
9.227527e-10
6.302194e-10
-8.75429e-10
1.160942e-09
-2.855129e-10
2.01783e-10
-1.371743e-09
1.16996e-09
8.741351e-10
-1.836507e-09
9.623721e-10
-1.514264e-09
-5.410164e-10
2.05528e-09
-1.314697e-09
-1.532433e-10
-1.690123e-09
9.906211e-10
6.995016e-10
7.993872e-10
1.041264e-09
-1.840651e-09
1.486465e-09
-2.123954e-09
6.374887e-10
-1.059979e-09
1.591466e-09
-5.314866e-10
1.691121e-09
-4.569389e-10
-1.705919e-09
2.355649e-10
1.470354e-09
-1.074905e-09
2.02193e-09
-9.470253e-10
-7.833167e-10
-1.130501e-09
1.913818e-09
-1.245597e-09
2.19045e-09
-9.448529e-10
-1.764877e-09
1.981897e-09
-1.188154e-09
-1.172802e-09
1.781012e-09
-6.082092e-10
-1.20901e-09
3.233617e-10
8.85648e-10
1.83982e-09
-1.305613e-09
-5.342077e-10
2.144588e-09
-1.700453e-09
-4.44135e-10
1.733893e-09
-6.315987e-10
-1.102294e-09
-1.291508e-09
-3.274427e-10
1.618951e-09
1.193523e-09
3.337261e-10
1.53014e-09
2.271816e-10
1.576335e-09
-9.309268e-10
-6.454084e-10
8.338996e-10
-1.852341e-09
1.018441e-09
1.493387e-09
3.928643e-11
-1.532673e-09
-8.750236e-10
-5.807023e-10
1.455726e-09
1.429936e-09
-1.066843e-09
-3.630933e-10
-1.215664e-09
-5.129243e-10
1.728589e-09
2.074606e-10
-1.226727e-09
1.019267e-09
-1.645589e-09
1.650966e-09
-5.376794e-12
-1.064141e-09
-7.007362e-10
-1.000147e-09
-2.685195e-10
1.268667e-09
-1.983367e-09
8.191634e-10
1.164204e-09
1.857509e-09
-1.439395e-09
-4.181143e-10
1.087707e-09
9.236745e-10
-2.011381e-09
-1.662456e-09
3.932061e-10
1.26925e-09
1.844834e-09
-3.636098e-10
-1.481224e-09
6.347308e-10
1.263508e-09
-1.41895e-09
1.554426e-10
-1.430963e-09
-3.850776e-10
1.816041e-09
1.222018e-09
8.974204e-10
-2.119439e-09
-2.108004e-09
9.557009e-10
1.152303e-09
-7.997868e-10
1.596746e-09
-7.96959e-10
8.357851e-10
-1.126437e-09
2.906522e-10
-2.421864e-10
-1.454598e-09
1.696785e-09
-4.862677e-09
3.639015e-09
1.778594e-09
-5.276915e-09
3.498322e-09
-1.726448e-09
1.279408e-09
4.470403e-10
-1.743793e-09
1.494682e-09
2.491104e-10
1.396449e-09
-3.588178e-11
-1.360567e-09
-1.732818e-09
1.392663e-09
3.401556e-10
-3.143746e-09
-1.508831e-11
3.158834e-09
-4.648145e-10
1.909895e-09
-1.44508e-09
1.365686e-09
-2.368036e-09
1.00235e-09
2.024577e-11
1.365513e-09
-1.385758e-09
-1.33008e-09
-5.045081e-10
1.834588e-09
-1.571099e-09
1.787537e-09
-2.164381e-10
2.360827e-09
-1.236183e-09
-1.124643e-09
-1.623255e-09
4.627563e-10
1.160499e-09
-1.580961e-09
9.013362e-10
6.796246e-10
2.780213e-10
1.456973e-09
-1.734994e-09
-1.576259e-09
1.014784e-09
1.420646e-09
4.613121e-11
-1.466777e-09
1.564989e-09
-7.909337e-10
-7.740548e-10
-9.984239e-11
1.16854e-09
-1.068698e-09
-8.467803e-10
-9.888019e-10
1.835582e-09
-1.861285e-09
7.04064e-10
1.157221e-09
1.275015e-09
-2.571834e-11
-1.249296e-09
1.031128e-09
1.294219e-09
-2.325348e-09
1.0936e-09
1.171018e-09
-1.325138e-09
1.541202e-10
2.655345e-09
-7.420703e-09
4.765358e-09
1.863564e-09
1.840593e-11
-1.88197e-09
-1.472152e-09
9.837097e-10
4.884418e-10
1.695279e-09
-7.900949e-10
-9.051843e-10
1.003974e-09
-1.234991e-09
2.310171e-10
-5.046059e-09
-2.803865e-09
-5.288241e-10
1.4938e-09
-9.64976e-10
1.7087e-09
-9.464673e-10
-1.8259e-09
-8.174167e-11
1.907642e-09
2.140595e-10
1.441099e-09
-1.655158e-09
1.070635e-09
-2.076527e-10
-8.629825e-10
-8.588672e-10
-5.323274e-10
1.391195e-09
-1.696374e-09
-1.31421e-09
3.010584e-09
-1.03601e-09
-9.710911e-10
2.007101e-09
1.004069e-09
-1.597027e-09
5.929582e-10
3.77891e-11
-1.322608e-09
1.284819e-09
-5.572544e-10
-1.156937e-09
1.714192e-09
-6.808601e-10
1.794203e-09
-1.113343e-09
1.650242e-09
-2.647837e-09
1.609455e-09
-1.85902e-09
2.495643e-10
1.397665e-09
-2.141248e-09
7.435823e-10
7.842129e-10
2.463394e-10
-1.030552e-09
2.228608e-09
7.104527e-10
-3.649598e-10
-1.614149e-09
1.979109e-09
2.73972e-10
-1.785896e-09
1.511924e-09
-6.922254e-10
-8.957995e-10
1.588025e-09
1.571622e-09
-1.62911e-09
-3.740104e-10
1.473438e-09
-1.099427e-09
1.129568e-10
-1.540729e-09
1.427772e-09
-1.181435e-09
-5.072862e-10
-8.81955e-10
1.073717e-09
-1.917619e-10
1.539165e-09
-1.912075e-09
3.729097e-10
2.755536e-09
-2.780475e-09
2.493886e-11
1.492298e-09
-1.106522e-09
-3.857766e-10
-1.527287e-09
1.115808e-09
4.114782e-10
1.643419e-09
-1.229164e-09
3.236399e-10
1.319779e-09
1.088136e-09
-1.547727e-09
4.595915e-10
9.519756e-10
-1.184459e-09
2.32483e-10
-7.564902e-10
8.144078e-10
9.826565e-10
-1.797064e-09
9.840244e-10
-1.206863e-09
2.228386e-10
-1.429992e-09
1.587889e-09
-1.578966e-10
1.476963e-09
-3.638463e-10
-1.867476e-09
8.317305e-10
1.035746e-09
1.931867e-09
-2.426426e-10
-1.689225e-09
-9.346586e-12
1.238333e-09
-1.228986e-09
-1.375538e-10
1.305541e-09
-1.167987e-09
-1.508913e-09
-3.480735e-11
1.54372e-09
-1.447427e-09
1.466268e-09
-1.884147e-11
-1.404489e-09
1.025995e-09
3.784943e-10
1.215835e-09
-9.912227e-10
-2.246125e-10
1.910075e-09
-1.614906e-09
-2.951698e-10
-1.392104e-09
1.978832e-10
1.19422e-09
1.826596e-09
-1.151778e-09
-6.748186e-10
-8.919708e-10
-1.938724e-09
2.452743e-10
-6.244846e-10
-1.051348e-09
1.675832e-09
-8.677512e-10
1.078094e-09
-2.103433e-10
1.621935e-09
-1.935773e-09
3.138373e-10
-1.214919e-09
2.128843e-09
1.731522e-09
-9.567245e-10
-1.238452e-09
-3.870623e-10
1.625514e-09
-3.381335e-10
-9.332622e-10
8.602629e-10
2.435351e-09
-3.295614e-09
-1.090069e-09
1.689626e-09
2.077047e-09
-1.50503e-09
-5.72017e-10
8.940971e-10
8.448837e-10
-1.738981e-09
1.742126e-09
-9.742215e-11
-1.644704e-09
-9.539041e-11
-1.314525e-09
1.409916e-09
-1.032588e-09
-5.85614e-10
1.618202e-09
6.828599e-11
1.606115e-09
-1.674401e-09
-1.454514e-09
1.769583e-09
-3.150695e-10
1.114898e-09
5.571047e-10
-1.672003e-09
-4.349753e-10
1.332719e-09
-8.977437e-10
-1.859117e-09
1.524918e-09
3.341987e-10
-1.224145e-09
1.283328e-09
-5.918303e-11
-4.262701e-10
-7.766766e-10
1.202947e-09
2.013296e-09
-1.225123e-09
-7.881733e-10
-5.334914e-10
-7.121585e-10
1.24565e-09
1.717455e-12
1.093592e-09
-1.09531e-09
1.34671e-09
-1.446275e-09
9.956515e-11
1.434079e-09
2.927395e-10
-1.726819e-09
5.876931e-10
6.861982e-10
-1.273891e-09
-4.803888e-10
-8.57718e-10
1.338107e-09
-9.304619e-10
1.602947e-09
-6.724848e-10
1.28563e-09
-9.617372e-11
-7.501704e-10
2.111132e-09
-1.360962e-09
7.997642e-10
6.71253e-10
-1.471017e-09
1.861667e-09
-9.841638e-10
-8.775029e-10
-4.53165e-10
-1.200102e-09
1.653267e-09
-8.671657e-10
1.573161e-09
-7.059953e-10
2.385693e-09
-6.506494e-10
-1.735043e-09
1.877778e-09
-1.126151e-09
-7.516267e-10
1.436719e-09
4.011674e-10
-1.837886e-09
-3.117008e-09
-2.522789e-09
5.639796e-09
1.765387e-09
-5.353287e-09
3.587899e-09
-1.264309e-09
-4.416105e-10
1.576157e-09
1.031306e-09
-1.480006e-09
4.486999e-10
1.272858e-09
-1.308852e-09
3.599357e-11
-9.545271e-10
-1.02884e-09
1.633114e-09
-8.660054e-10
-1.667296e-09
2.127824e-10
-9.954882e-10
-4.437468e-10
1.439235e-09
9.258079e-10
1.52797e-09
-2.453777e-09
8.427604e-10
4.875036e-10
-1.330264e-09
1.795829e-09
-6.082914e-10
5.800926e-10
-6.086269e-10
1.498448e-09
-8.898211e-10
4.505859e-10
-1.700969e-09
9.989178e-11
1.462862e-09
-1.562754e-09
-1.236873e-10
1.47967e-09
-1.355983e-09
-6.584e-09
1.784609e-09
4.799391e-09
-1.246961e-09
1.410166e-09
-1.632051e-10
-1.457417e-09
1.468068e-09
-1.065081e-11
1.592478e-09
-5.807255e-10
-1.011752e-09
-1.777597e-09
1.417441e-09
3.601562e-10
6.900846e-10
-1.81675e-09
1.126666e-09
-1.357889e-09
-8.405116e-10
-6.473583e-10
4.083115e-10
-8.773415e-10
4.6903e-10
1.378182e-09
-1.577086e-10
-1.220473e-09
-1.558556e-09
1.362044e-09
1.510647e-09
1.700877e-10
-1.680735e-09
-6.901357e-11
-1.543537e-09
1.306271e-09
-1.617858e-09
3.115874e-10
-8.880089e-12
1.55086e-09
-1.62593e-09
-3.042478e-10
-1.77716e-09
-3.22524e-10
2.099684e-09
-1.275943e-09
-1.285463e-10
-9.736611e-10
-1.056079e-09
7.385897e-11
1.473931e-09
-1.54779e-09
1.274964e-09
-1.701235e-09
-1.61909e-09
-3.01413e-10
1.920503e-09
1.8597e-09
-8.939179e-10
-9.657818e-10
-3.035342e-10
-4.670185e-09
4.973719e-09
1.383162e-09
-1.18277e-09
-2.003917e-10
-5.07893e-10
-1.21457e-09
1.722463e-09
-1.510595e-09
1.709484e-09
-1.988883e-10
-8.506018e-10
-6.114668e-10
1.462069e-09
-1.666371e-09
2.233564e-10
1.443015e-09
1.450863e-09
-1.415735e-09
-3.512785e-11
5.773081e-10
-1.630551e-09
3.217761e-10
-1.795619e-09
1.473843e-09
1.672305e-09
1.593599e-10
-1.831665e-09
1.746509e-09
-6.525539e-11
8.156683e-10
-2.239688e-09
1.42402e-09
-1.309774e-09
1.35691e-09
-4.713578e-11
-7.560267e-10
1.64278e-09
1.167386e-09
4.846091e-10
1.445033e-09
-8.886357e-11
-1.35617e-09
-4.942229e-09
5.538721e-10
4.388357e-09
-1.029868e-09
1.669549e-09
2.460301e-10
-1.863862e-09
1.617832e-09
3.597152e-11
1.414891e-09
-1.093988e-09
-6.940108e-10
1.787998e-09
5.20661e-10
1.373604e-09
1.723495e-09
-1.312076e-09
-4.114191e-10
1.908774e-09
-8.093405e-10
-1.099433e-09
-2.157961e-09
-1.374022e-10
2.295363e-09
-1.044102e-09
-4.695276e-10
1.51363e-09
1.52654e-09
-1.798296e-10
-4.357596e-10
1.600082e-09
-1.164322e-09
7.109681e-10
9.674479e-10
-1.678416e-09
1.184183e-09
-1.65735e-09
4.731673e-10
1.127916e-09
4.23645e-10
-1.551561e-09
-1.404963e-09
8.860486e-10
5.189149e-10
1.143406e-09
1.458582e-09
-5.382157e-11
-1.706102e-09
6.652515e-10
1.040851e-09
6.897025e-10
-2.078363e-09
1.38866e-09
5.67037e-10
-1.571241e-09
5.285083e-10
8.496733e-10
3.192171e-10
-1.757451e-09
6.493282e-10
-2.876759e-09
2.227431e-09
-1.43801e-09
-1.127411e-09
-4.494381e-10
1.576849e-09
-1.178348e-10
1.445928e-09
1.830812e-10
1.412742e-09
-1.595823e-09
-1.313595e-09
-4.406898e-10
1.754285e-09
-5.48781e-11
1.292665e-09
-1.237787e-09
1.292818e-09
-8.748032e-10
-4.180144e-10
1.842111e-09
-1.77462e-09
-6.749072e-11
3.697767e-09
2.278214e-10
-3.925588e-09
-1.666839e-09
-3.503682e-10
-3.275428e-09
2.507179e-09
7.682496e-10
-1.663731e-09
2.629527e-10
1.400779e-09
1.3456e-09
-1.78136e-09
-1.242157e-09
1.249777e-10
-1.591559e-09
1.466582e-09
1.4934e-09
-1.631324e-09
1.379241e-10
1.492415e-09
-3.972954e-10
-1.09512e-09
1.350125e-09
-1.416449e-09
6.632364e-11
-1.263451e-09
-3.821379e-10
2.549965e-10
-1.354443e-09
1.099447e-09
5.864694e-10
-1.721923e-09
1.135453e-09
-2.186854e-10
1.51675e-09
-1.298064e-09
-7.33925e-11
1.279498e-09
1.493895e-09
-4.950811e-10
-1.042044e-09
1.212596e-09
-1.705524e-10
-1.324023e-09
1.003743e-09
3.202804e-10
-1.591911e-09
5.760909e-10
1.01582e-09
-9.9022e-10
1.210613e-09
-2.203933e-10
-1.101236e-09
-7.156662e-11
1.537815e-09
-4.931483e-10
-1.078803e-09
1.675385e-09
1.612629e-09
-4.235773e-10
-1.189052e-09
-9.298195e-10
-7.798803e-10
-2.9902e-10
1.214474e-09
-9.154535e-10
-1.033851e-09
-8.959109e-10
1.929762e-09
-1.226093e-09
1.009235e-09
2.168584e-10
-2.204839e-10
1.204508e-09
-1.596418e-09
8.161315e-10
7.80286e-10
1.632738e-09
-1.401139e-09
-2.315989e-10
3.852769e-10
1.044754e-09
-1.430031e-09
5.809363e-10
-1.989161e-09
1.408225e-09
-4.550275e-09
6.328868e-09
-7.954139e-10
1.891903e-09
-1.096489e-09
-3.254271e-09
1.194675e-09
-2.223916e-09
1.114613e-09
1.109303e-09
-8.454953e-10
3.463192e-09
-2.617697e-09
5.427842e-10
8.044672e-10
-1.347251e-09
1.849007e-09
-7.475148e-10
1.734144e-09
-9.86629e-10
1.859026e-09
-1.272557e-09
-1.309088e-09
-2.773159e-10
1.586404e-09
-1.593317e-09
2.089914e-09
-4.965965e-10
5.277433e-09
-4.274003e-10
-4.850033e-09
-1.832714e-09
6.813352e-12
1.969545e-09
-1.046974e-09
-1.926314e-09
1.178337e-09
-8.845924e-10
-7.145047e-10
1.599097e-09
1.941614e-09
-1.844493e-09
-9.712137e-11
1.521935e-09
-6.567162e-10
-8.652184e-10
1.8805e-10
1.208399e-09
1.490569e-09
8.270453e-11
-1.573273e-09
1.036662e-09
4.275749e-10
-1.464237e-09
-9.776723e-10
-8.814447e-10
4.836347e-10
-1.623781e-09
1.140146e-09
-5.029198e-10
1.719627e-09
-1.216707e-09
-2.017456e-09
-3.130501e-09
5.147957e-09
-1.640462e-09
8.107393e-10
8.297226e-10
-1.562474e-09
8.064474e-10
-6.442362e-10
1.735031e-09
-1.090795e-09
-6.348207e-10
3.705557e-09
-3.070736e-09
-1.506238e-09
-5.344371e-10
2.040675e-09
1.940487e-09
2.177034e-09
-6.905696e-10
-8.588025e-10
1.606981e-09
-6.541016e-10
1.771478e-09
-1.117376e-09
9.207782e-10
3.5208e-10
1.261482e-09
3.140686e-10
-1.57555e-09
1.290483e-09
4.112025e-10
-1.701685e-09
-1.327669e-09
1.563234e-09
1.567176e-09
4.893166e-10
-2.056492e-09
7.24298e-10
-1.770681e-09
1.046383e-09
-1.815482e-09
1.270716e-09
5.447664e-10
-1.166006e-09
-1.324219e-09
2.490225e-09
1.776539e-09
-2.464752e-09
6.882126e-10
4.838242e-10
-1.808401e-09
1.324577e-09
2.162372e-09
-8.109486e-10
-1.351424e-09
-5.700408e-10
-1.352433e-09
1.922474e-09
-4.044105e-10
-9.928003e-10
-8.579572e-10
-7.591289e-10
-1.008528e-09
-9.816467e-11
1.106693e-09
-9.323598e-10
1.416184e-09
-1.144754e-09
-8.056084e-10
1.950363e-09
1.230066e-09
-4.830924e-10
-1.122717e-09
1.60581e-09
1.765035e-09
-3.283155e-10
-5.200073e-11
-9.921016e-10
-3.110047e-10
-1.282313e-09
2.17056e-10
-1.76378e-09
1.546724e-09
-1.059825e-09
-6.952823e-10
1.755107e-09
8.107621e-09
-8.107621e-09
-1.750287e-10
1.40874e-09
-1.233711e-09
-7.331101e-10
1.410287e-09
-6.771765e-10
3.527188e-10
-1.811807e-09
1.459089e-09
-1.054462e-09
-8.576367e-10
1.597007e-09
-5.496297e-10
-1.047377e-09
-1.214508e-09
-1.992443e-10
1.413752e-09
4.138069e-10
1.70003e-09
-1.299297e-09
-4.007337e-10
-1.031256e-09
1.581966e-09
-1.571232e-09
4.055148e-10
1.165717e-09
1.152957e-09
7.22842e-10
-1.875799e-09
-1.044386e-09
1.548801e-09
-5.044142e-10
-1.049214e-09
2.164112e-09
1.887769e-09
-1.42517e-09
-1.424193e-09
1.45066e-09
-3.374223e-10
-7.963392e-10
1.133762e-09
-7.288861e-09
1.798701e-09
5.49016e-09
9.848569e-10
5.316675e-10
-1.516524e-09
8.853797e-10
-1.251484e-09
3.661043e-10
-1.832404e-09
1.004812e-09
8.275925e-10
7.547653e-10
-1.385054e-09
6.302885e-10
-1.536082e-09
6.238895e-10
9.121928e-10
2.930344e-11
1.533099e-09
-1.562402e-09
-1.112838e-09
2.185554e-09
-1.072716e-09
4.615784e-10
9.687717e-10
1.064632e-11
-9.79418e-10
-3.489347e-10
1.296592e-09
-9.476569e-10
-9.43236e-10
1.351548e-09
-8.824303e-10
2.054796e-09
-1.172366e-09
8.150012e-09
-6.505439e-09
-1.644573e-09
-1.168718e-09
-9.552359e-10
-4.34664e-10
-1.623687e-09
2.058351e-09
-7.609604e-10
-8.66568e-10
-1.367109e-09
8.681441e-11
1.280295e-09
1.865571e-09
-1.278796e-09
-5.867746e-10
1.343737e-09
-1.405229e-09
6.149236e-11
1.49135e-09
-1.342643e-09
1.771363e-09
-4.287199e-10
8.019444e-10
-1.549077e-09
2.858044e-10
1.263273e-09
-1.726844e-09
9.829702e-10
7.438735e-10
1.401421e-09
-5.263709e-09
5.002239e-09
2.614696e-10
-1.433193e-09
1.831001e-09
-1.508348e-09
-3.226525e-10
7.10691e-10
1.046438e-09
-1.757129e-09
1.399493e-09
-1.502148e-09
1.026547e-10
-1.646109e-09
8.123655e-10
8.337436e-10
1.491555e-09
-3.268886e-10
-1.164666e-09
-1.78365e-10
-1.11138e-09
1.289745e-09
-3.120844e-09
6.983811e-09
-3.862967e-09
2.252672e-09
2.142545e-09
-4.395216e-09
-2.048214e-09
8.822079e-10
1.010164e-09
9.854163e-10
-1.99558e-09
-1.538823e-09
1.164813e-09
-1.810907e-09
5.258945e-10
1.285013e-09
1.783313e-09
-7.130399e-10
-1.070273e-09
-1.034299e-09
1.080059e-09
-4.576044e-11
-1.671589e-09
2.392678e-10
-1.069417e-09
1.37832e-09
-3.089038e-10
1.765054e-09
-7.246645e-10
1.456845e-09
3.081897e-10
-1.640147e-09
-3.464683e-10
1.986615e-09
6.771342e-10
-1.615901e-09
9.387663e-10
1.05966e-09
9.293076e-10
-1.988967e-09
-1.672734e-09
3.05116e-11
1.642222e-09
7.706303e-10
-2.318702e-09
1.548071e-09
7.439407e-10
7.686526e-10
1.321167e-09
-3.95201e-10
-9.259658e-10
1.986396e-09
-1.553955e-10
-3.062702e-10
1.373564e-09
-1.067294e-09
-1.712666e-09
1.141227e-09
-1.822087e-09
3.932447e-10
1.353264e-09
-1.804077e-09
1.404682e-09
3.993954e-10
-1.812201e-09
1.720541e-10
1.40773e-09
2.273908e-10
-1.635121e-09
1.482732e-09
2.8343e-10
-1.766162e-09
-1.95312e-09
1.606652e-09
3.64087e-10
-1.981951e-09
1.617864e-09
-7.642754e-10
-7.718069e-10
-1.176955e-09
1.041679e-09
-1.094484e-09
-3.904613e-10
1.484946e-09
-1.403456e-09
1.796701e-09
-1.776509e-09
7.729872e-10
1.003522e-09
-1.0108e-09
1.388133e-09
-3.773329e-10
-1.101298e-09
-4.859192e-10
1.587218e-09
-1.153684e-10
1.577467e-09
-1.462098e-09
-1.307653e-09
1.258038e-09
4.95401e-10
-1.753439e-09
-1.583195e-09
1.619365e-09
-3.617027e-11
-5.28206e-10
2.628432e-09
-2.100226e-09
1.836e-09
-6.86839e-10
-1.14916e-09
4.206742e-09
-4.373336e-09
-1.709055e-09
1.644618e-09
6.443669e-11
1.912533e-09
-9.534317e-10
-9.591013e-10
-1.183005e-09
1.009203e-09
1.877097e-10
1.362909e-09
-4.110748e-09
3.475928e-09
-1.661742e-09
1.378483e-09
2.832591e-10
1.371106e-09
-4.503278e-10
-1.052017e-09
-1.188346e-09
2.240362e-09
-1.152374e-09
1.845725e-09
-6.933507e-10
-2.744489e-09
6.468502e-10
2.097639e-09
1.311291e-09
-2.133886e-09
8.225951e-10
5.864372e-10
8.518348e-10
-1.438272e-09
-7.50477e-10
-4.192895e-10
1.169766e-09
3.903597e-10
1.176164e-09
-1.566524e-09
1.178048e-09
-1.558613e-09
3.805647e-10
-3.97732e-10
-1.268639e-09
1.922769e-09
-1.261936e-11
-1.910149e-09
-2.004153e-09
3.861016e-10
1.276064e-09
-1.662165e-09
1.526986e-09
-1.13378e-09
-1.255784e-09
-2.987029e-10
1.554487e-09
7.779269e-10
7.870616e-10
3.243002e-10
-1.60434e-09
1.280039e-09
-1.727713e-09
6.043e-10
1.39068e-09
-1.53476e-09
1.440802e-10
1.792467e-09
-6.907254e-10
-1.101741e-09
-1.379397e-09
4.525303e-10
9.268668e-10
-1.786229e-09
9.612729e-10
8.249561e-10
1.316013e-09
-1.558199e-09
-1.510626e-09
9.171695e-10
5.934561e-10
-1.025549e-10
2.107276e-09
-2.004721e-09
-7.101922e-10
1.695049e-09
1.326564e-09
-5.571998e-10
9.229799e-10
-1.887266e-09
9.642864e-10
-6.442207e-10
-4.244954e-10
1.068716e-09
-1.447926e-09
9.69137e-10
4.787891e-10
-7.766991e-10
-1.033629e-09
1.890483e-09
-6.60022e-10
1.57005e-09
-9.100284e-10
1.310027e-09
1.833726e-10
1.205952e-09
6.530742e-10
-7.875681e-10
-8.92247e-10
-5.124903e-10
1.44312e-09
-9.306299e-10
-6.164134e-10
1.432487e-09
-8.160735e-10
9.38505e-10
-1.832939e-09
-3.917873e-12
1.074553e-09
-4.912117e-10
1.883533e-09
-1.392322e-09
-1.133409e-09
3.819622e-10
-8.831877e-10
1.48254e-09
-5.99352e-10
-9.857562e-10
1.758207e-09
-2.029101e-09
1.700785e-09
1.317601e-09
-1.774193e-09
4.565922e-10
1.431642e-09
-1.534588e-09
1.029455e-10
1.361033e-09
8.40006e-11
-7.111054e-10
-7.765899e-10
-1.367637e-09
5.843207e-10
4.070205e-10
1.084535e-09
-6.176266e-10
-1.411474e-09
1.585797e-09
-1.760825e-09
-1.190325e-09
1.293191e-09
-1.028657e-10
4.217662e-09
-3.535247e-09
-6.824157e-10
-1.686247e-09
1.312869e-09
3.733783e-10
1.298999e-09
-1.47777e-09
1.787703e-10
-1.305824e-09
-3.559179e-10
-1.45936e-09
3.580613e-10
1.818376e-09
-1.32875e-09
-4.896258e-10
3.69057e-09
8.901902e-10
-4.58076e-09
1.031047e-09
1.399705e-10
5.755941e-10
-1.548495e-09
-4.61864e-10
1.083477e-09
-1.073917e-09
4.771684e-09
-1.275184e-09
-5.288936e-10
-2.172907e-09
3.095389e-10
1.863369e-09
-1.270016e-09
2.61488e-10
-1.270515e-09
1.37164e-09
1.439968e-09
8.778937e-10
-2.317861e-09
-2.59546e-10
3.420586e-10
2.052839e-09
-2.394898e-09
-7.505925e-10
-7.650598e-10
-2.691462e-09
3.456522e-09
-1.255093e-09
1.015046e-09
2.400467e-10
-1.917272e-09
6.383199e-10
1.278952e-09
2.276545e-10
-1.839711e-09
5.941142e-10
5.208906e-10
1.289774e-09
-1.810665e-09
1.429406e-09
-1.07821e-09
-8.649052e-10
-9.505768e-10
-5.629859e-10
1.005318e-09
-4.423323e-10
1.980276e-09
-1.159874e-09
-1.048373e-09
2.208247e-09
-1.585195e-09
-1.658732e-10
1.751068e-09
-1.334095e-09
3.703784e-10
9.637165e-10
1.939694e-09
-1.635078e-09
-3.046154e-10
1.259403e-09
6.002965e-10
1.700744e-09
-6.675736e-10
-1.03317e-09
1.035638e-09
-2.211275e-09
1.175638e-09
7.302065e-10
-5.931795e-10
-1.030076e-09
1.856646e-09
-1.26755e-09
-5.890965e-10
-1.585661e-10
1.392803e-09
-1.234237e-09
-5.775794e-09
8.431139e-09
-7.092296e-10
1.23165e-09
-5.224206e-10
-1.334345e-09
6.719679e-11
1.267148e-09
-1.163505e-09
1.441526e-09
1.719778e-09
-1.411277e-09
-3.085009e-10
-1.892722e-09
1.128447e-09
-2.002741e-09
9.278362e-10
-1.018587e-09
-1.009365e-09
1.9373e-09
-9.279351e-10
-1.062637e-09
2.0114e-09
-9.487631e-10
5.870703e-09
-4.759582e-09
2.545466e-09
5.335911e-10
-1.544391e-09
-6.761385e-10
-9.404468e-10
1.444052e-09
-1.288359e-09
-1.556928e-10
1.23453e-09
-3.62785e-10
-8.717449e-10
8.954616e-10
9.662051e-10
-8.108519e-11
1.610509e-09
-1.529424e-09
-8.432067e-10
1.037141e-09
-1.939338e-10
1.607686e-09
-1.300547e-09
-3.071387e-10
4.771531e-10
-1.436478e-09
-1.209901e-09
1.477188e-09
-2.672868e-10
1.094566e-09
-1.49238e-09
1.354022e-09
1.383586e-10
1.250411e-10
1.358524e-09
-1.483565e-09
1.251858e-09
-1.78535e-09
3.903122e-09
-2.118357e-10
-3.691286e-09
-2.401828e-09
-8.735999e-10
-1.44781e-09
-7.947622e-11
-8.438705e-10
-1.064001e-09
1.907871e-09
1.068621e-09
-1.442714e-09
3.740934e-10
-1.328272e-09
3.425718e-10
9.856998e-10
-1.85754e-10
-1.624282e-09
1.810036e-09
-1.734559e-09
1.645695e-09
9.457397e-10
1.07619e-09
8.069087e-10
1.153186e-09
2.61921e-11
1.57815e-09
-7.496471e-11