/*--------------------------------*- C++ -*----------------------------------*\
| =========                 |                                                 |
| \\      /  F ield         | OpenFOAM: The Open Source CFD Toolbox           |
|  \\    /   O peration     | Version:  2406                                  |
|   \\  /    A nd           | Website:  www.openfoam.com                      |
|    \\/     M anipulation  |                                                 |
\*---------------------------------------------------------------------------*/
FoamFile
{
    version     2.0;
    format      ascii;
    arch        "LSB;label=32;scalar=64";
    class       surfaceScalarField;
    location    "2.7";
    object      phi;
}
// * * * * * * * * * * * * * * * * * * * * * * * * * * * * * * * * * * * * * //

dimensions      [0 3 -1 0 0 0 0];

oriented        oriented;

internalField   nonuniform List<scalar> 
326221
(
-0.002697858
-0.006874031
0.009571889
-0.002027945
-0.0006699132
0.001400191
-0.003428136
0.001378406
2.17847e-05
-0.0009575982
0.002336005
-0.0009875037
2.990552e-05
-9.87174e-05
-0.0008887863
-1.202837e-05
-8.668903e-05
0.0001809672
-0.0001929956
0.0005383389
-0.0003573717
0.0008167904
-0.0002784515
0.0008179825
-1.192147e-06
0.0005756721
0.0002423105
0.0002731541
0.000302518
3.094296e-05
0.0002422111
-0.0003947788
0.0004257217
-0.001055917
0.0006611382
-0.001335799
0.0002798825
-0.0006555132
-0.0006802863
0.0007510383
-0.001406552
0.002164792
-0.001413753
0.002817358
-0.0006525663
0.001666229
0.001151129
0.0004674796
0.00119875
0.0006697041
-0.0002022245
0.0006206479
4.905621e-05
0.001074071
-0.0004534232
0.001951964
-0.000877893
0.0007028697
0.001249094
-0.002116357
0.002819226
-0.004517331
0.002400974
-0.005498745
0.0009814142
-0.005561562
6.281754e-05
-0.005229963
-0.0003315996
-0.004853736
-0.000376227
-0.004416142
-0.0004375933
-0.003806573
-0.0006095696
-0.00299916
-0.0008074134
-0.002188563
-0.0008105968
-0.001621705
-0.0005668577
-0.000859541
-0.0007621641
-0.000222759
-0.000636782
0.0003125407
-0.0005352997
0.0008724472
-0.0005599065
0.001413328
-0.0005408806
0.002059381
-0.0006460532
0.002699916
-0.0006405346
0.003421139
-0.0007212233
0.004241152
-0.0008200135
0.004488553
-0.0002474
-0.002530413
0.007018966
-0.001131714
-0.001398699
0.0008009004
-0.001932615
0.001210839
-0.0004099381
0.001263176
-5.233714e-05
0.001402475
-0.0001392998
0.001753423
-0.0003509479
0.002041678
-0.0002882551
0.001948006
9.367237e-05
0.001655127
0.0002928787
0.001572208
8.291903e-05
0.001815583
-0.000243375
0.002170033
-0.0003544493
0.002385261
-0.0002152289
0.002380367
4.894657e-06
0.002201196
0.0001791707
0.001949907
0.0002512893
0.001639165
0.0003107415
0.001156103
0.0004830622
0.0003238675
0.0008322355
-0.0008441344
0.001168002
-0.002125648
0.001281514
-0.003278626
0.001152978
-0.004219765
0.0009411392
-0.004962988
0.0007432225
-0.005520824
0.0005578366
-0.005899512
0.0003786878
-0.006109937
0.0002104252
-0.006183313
7.337557e-05
-0.006163427
-1.988631e-05
-0.006079533
-8.389358e-05
-0.0059583
-0.0001212329
-0.005792155
-0.0001661452
-0.005491497
-0.0003006581
-0.005275625
-0.0002158715
-0.00501129
-0.0002643354
-0.004738153
-0.0002731372
-0.004441211
-0.0002969419
-0.004139419
-0.0003017917
-0.003867503
-0.0002719159
-0.003558589
-0.0003089141
-0.003250011
-0.0003085778
-0.002944989
-0.0003050221
-0.002594951
-0.000350038
-0.002260935
-0.000334016
-0.001953086
-0.0003078489
-0.001651397
-0.000301689
-0.001423483
-0.000227914
-0.00120435
-0.0002191337
-0.0010587
-0.00014565
-0.000951618
-0.0001070816
-0.0008656638
-8.59542e-05
-0.000717377
-0.0001482868
-0.0005661124
-0.0001512645
-0.0004250592
-0.0001410532
-0.0004547912
2.973198e-05
-0.0008019216
0.0003471304
-0.0009906853
0.0001887637
-0.0006724492
-0.0003182361
-0.0003179856
-0.0003544636
-0.0001501117
-0.0001678739
-0.0001187461
-3.136561e-05
-0.0001351523
1.640624e-05
-0.0001034493
-3.170297e-05
-1.057893e-05
-9.28704e-05
0.0001690337
-0.0001796126
0.0005259695
-0.0003569358
0.0008647556
-0.0003387861
0.0005275983
0.0003371574
-0.0006421492
0.001169747
-0.001579578
0.0009374292
-0.001570965
-8.613598e-06
-0.001099092
-0.0004718728
-0.0006479629
-0.000451129
-0.0003919253
-0.0002560376
-0.0002499419
-0.0001419834
-0.0001449432
-0.0001049987
-2.308618e-05
-0.0001218571
0.0001058168
-0.000128903
0.0002408522
-0.0001350353
0.0004049862
-0.0001641341
0.0006208725
-0.0002158863
0.0008598403
-0.0002389678
0.001050454
-0.0001906139
0.001131024
-8.05694e-05
0.001062228
6.87961e-05
0.0008415902
0.0002206373
0.0003241179
0.0005174723
-0.0003418076
0.0006659255
-0.0008358896
0.000494082
-0.001005858
0.0001699686
-0.0007716315
-0.0002342267
-0.0004279204
-0.0003437112
-2.4109e-05
-0.0004038114
0.0003970071
-0.0004211161
0.0008697798
-0.0004727728
0.001291077
-0.0004212972
0.001680587
-0.0003895104
0.001986162
-0.0003055743
0.002069639
-8.347729e-05
-0.0008840003
0.002953639
0.0002236681
-0.001107668
0.001413276
-0.001189608
0.00013695
0.001276326
-0.002242166
0.002379116
-0.003345181
0.001103015
-0.002871047
-0.0004741339
-0.00188023
-0.0009908174
-4.479136e-05
-0.001835438
0.001067924
-0.001112715
0.001515025
-0.0004471015
0.001979292
-0.0004642672
0.002411498
-0.0004322061
0.002896512
-0.000485014
0.003239687
-0.0003431749
0.002684486
0.000555201
0.00147448
0.001210006
0.0005158965
0.0009585834
-0.000438253
0.0009541495
-0.001421484
0.0009832306
-0.00170256
0.000281076
-0.001948234
0.0002456745
-0.002084033
0.0001357986
-0.002025473
-5.855936e-05
-0.001760463
-0.0002650099
-0.001591356
-0.0001691079
-0.001189738
-0.0004016172
-5.606978e-05
-0.001133669
0.0007865421
-0.0008426119
0.0005064373
0.0002801047
-0.0003712612
0.0008776985
-0.002117182
0.00174592
-0.003874236
0.001757054
-0.00370547
-0.0001687658
-0.002569285
-0.001136185
-0.0007414586
-0.001827827
0.0009095804
-0.001651039
0.002113558
-0.001203978
0.002786165
-0.0006726065
0.002584976
0.0002011886
0.00126034
0.001324636
-0.0002652965
0.001525637
-0.0009352757
0.0006699792
-0.0008180564
-0.0001172193
-0.000811074
-6.982443e-06
2.071911e-05
-0.0008317931
0.0008420548
-0.0008213357
0.001714789
-0.0008727341
0.002090673
-0.000375884
-0.004395744
0.006486417
-0.004775984
0.0003802404
-0.004283472
-0.0004925125
-0.004050899
-0.0002325728
-0.003822302
-0.0002285971
-0.003643509
-0.0001787929
-0.003477487
-0.0001660216
-0.003331895
-0.0001455921
-0.003119258
-0.0002126376
-0.003016261
-0.0001029965
-0.002929502
-8.675905e-05
-0.00284881
-8.069221e-05
-0.002776728
-7.208135e-05
-0.00270561
-7.111883e-05
-0.002637638
-6.797147e-05
-0.002572723
-6.491561e-05
-0.002514029
-5.869342e-05
-0.002458746
-5.52832e-05
-0.002405263
-5.348263e-05
-0.002352467
-5.279643e-05
-0.002303495
-4.897193e-05
-0.002255694
-4.78009e-05
-0.002210142
-4.555185e-05
-0.002168927
-4.121539e-05
-0.002126969
-4.195745e-05
-0.00208422
-4.274917e-05
-0.00204075
-4.34702e-05
-0.002001144
-3.960603e-05
-0.00196415
-3.69939e-05
-0.001930279
-3.387125e-05
-0.001895074
-3.520446e-05
-0.001859905
-3.516967e-05
-0.001821653
-3.825172e-05
-0.001787644
-3.400919e-05
-0.001756671
-3.097271e-05
-0.001724008
-3.266349e-05
-0.001690645
-3.336228e-05
-0.001656057
-3.458863e-05
-0.001624236
-3.182073e-05
-0.00159366
-3.057609e-05
-0.001619574
2.591419e-05
-0.001600665
-1.890896e-05
-0.001577991
-2.267421e-05
-0.001554577
-2.341431e-05
-0.001533601
-2.097553e-05
-0.00151165
-2.195098e-05
-0.001491207
-2.044279e-05
-0.001471749
-1.945819e-05
-0.001453073
-1.867563e-05
-0.001431121
-2.195239e-05
-0.001408626
-2.249468e-05
-0.001388544
-2.008241e-05
-0.001370287
-1.825679e-05
-0.001353943
-1.634421e-05
-0.001333835
-2.010808e-05
-0.001309984
-2.385117e-05
-0.001286858
-2.312539e-05
-0.00126583
-2.10284e-05
-0.001241874
-2.395562e-05
-0.001220348
-2.152668e-05
-0.001199066
-2.128189e-05
-0.001178058
-2.100801e-05
-0.001157385
-2.067307e-05
-0.001133029
-2.435582e-05
-0.001090484
-4.254436e-05
-0.001042344
-4.814035e-05
-0.001019736
-2.260778e-05
-0.0010258
6.063588e-06
-0.001028431
2.630686e-06
-0.0009355914
-9.283922e-05
-0.0007208627
-0.0002147287
-8.468973e-05
-0.000636173
0.0006220113
-0.000706701
0.0009118602
-0.000289849
0.001159988
-0.000248128
0.00133657
-0.0001765816
0.001469422
-0.0001328525
0.001578952
-0.0001095295
0.001653014
-7.4062e-05
0.001688872
-3.585832e-05
0.001707659
-1.878685e-05
0.001731104
-2.344486e-05
0.001750019
-1.891474e-05
0.001764209
-1.41903e-05
0.001770471
-6.26204e-06
0.001775927
-5.455825e-06
0.001781975
-6.048414e-06
0.001792899
-1.092368e-05
0.001803805
-1.090592e-05
0.001811761
-7.956155e-06
0.001821213
-9.452405e-06
0.001834986
-1.377236e-05
0.001848196
-1.321044e-05
0.001861363
-1.316635e-05
0.001878594
-1.723177e-05
0.001893399
-1.480506e-05
0.00191348
-2.008078e-05
0.001938564
-2.508435e-05
0.001958888
-2.032338e-05
0.001975967
-1.707877e-05
0.001995738
-1.977153e-05
0.0020185
-2.276184e-05
0.002034333
-1.583282e-05
0.001998875
3.545744e-05
0.00202759
-2.871477e-05
0.00206468
-3.709018e-05
0.002102754
-3.807381e-05
0.002141746
-3.899215e-05
0.002183833
-4.208641e-05
0.002224205
-4.037279e-05
0.002261656
-3.745028e-05
0.002302172
-4.051596e-05
0.00234823
-4.60586e-05
0.002398661
-5.043078e-05
0.002443176
-4.451469e-05
0.002486084
-4.290839e-05
0.002532653
-4.656925e-05
0.002582851
-5.019749e-05
0.002634269
-5.141803e-05
0.002691836
-5.756732e-05
0.002752058
-6.022136e-05
0.002813009
-6.095122e-05
0.002876055
-6.30458e-05
0.002935792
-5.973723e-05
0.003006643
-7.085073e-05
0.003081487
-7.484475e-05
0.003159936
-7.844877e-05
0.0032443
-8.436372e-05
0.003331661
-8.736127e-05
0.003428872
-9.72104e-05
0.003535805
-0.0001069336
0.003646175
-0.0001103694
0.003766182
-0.0001200079
0.003903683
-0.0001375006
0.004063037
-0.0001593542
0.004358687
-0.0002956501
0.004587565
-0.0002288776
0.004849915
-0.0002623498
0.005145486
-0.0002955709
0.005536843
-0.0003913573
0.005909077
-0.0003722339
0.006974083
-0.001065006
0.0001000515
0.0008124102
0.0001089599
-0.001628071
0.001231683
-0.0007091221
0.001579412
-0.0005958568
0.001872139
-0.0004693085
0.002111069
-0.0003717825
0.002323745
-0.0003222059
0.002504883
-0.0002551991
0.002649886
-0.0001808622
0.002772031
-0.0001409316
0.002889655
-0.0001410685
0.002994938
-0.0001241977
0.00309065
-0.0001099024
0.003173537
-8.914893e-05
0.003250539
-8.245825e-05
0.003321417
-7.692597e-05
0.003392203
-8.170989e-05
0.003459511
-7.821365e-05
0.00352253
-7.097553e-05
0.003583179
-7.010164e-05
0.003644812
-7.540515e-05
0.003704197
-7.259509e-05
0.00376155
-7.051964e-05
0.003820993
-7.667523e-05
0.003876802
-7.061362e-05
0.003935497
-7.87759e-05
0.003996533
-8.61206e-05
0.004055335
-7.912508e-05
0.004110419
-7.216227e-05
0.004167875
-7.722799e-05
0.004225735
-8.062137e-05
0.004282513
-7.261082e-05
0.004248569
6.940091e-05
0.00431713
-9.727552e-05
0.004389814
-0.0001097748
0.004462966
-0.0001112253
0.004536765
-0.0001127912
0.004612288
-0.0001176096
0.004687657
-0.0001157412
0.004760092
-0.0001098861
0.004835556
-0.0001159798
0.004913169
-0.0001236712
0.004996017
-0.0001332795
0.005073867
-0.000122364
0.005152253
-0.0001212945
0.005232174
-0.0001264904
0.005315667
-0.0001336907
0.005399575
-0.0001353259
0.00548873
-0.0001467219
0.005580615
-0.0001521067
0.005673412
-0.000153748
0.005769601
-0.0001592346
0.005862616
-0.0001527529
0.005965665
-0.0001738994
0.006070459
-0.0001796389
0.006180543
-0.0001885323
0.00629425
-0.0001980714
0.006412556
-0.000205667
0.006537885
-0.0002225395
0.00667285
-0.0002418988
0.006810776
-0.0002482947
0.00695836
-0.0002675925
0.007120766
-0.0002999059
0.007302973
-0.0003415619
0.007686219
-0.0006788963
0.007934269
-0.0004769275
0.008222392
-0.0005504725
0.008540902
-0.0006140807
0.008963494
-0.000813949
0.009353626
-0.0007623667
0.01046557
-0.002176949
0.009938162
0.0006274592
-0.008140643
0.007054577
0.001466306
-0.007501677
-0.001131478
-0.007294305
-0.0004399451
-0.007031387
-0.0004915148
-0.006831198
-0.0003789819
-0.006639135
-0.0003580849
-0.006471613
-0.0003131138
-0.00617605
-0.0005082013
-0.006051199
-0.0002278466
-0.005940089
-0.0001978694
-0.005833428
-0.000187353
-0.005734442
-0.0001710679
-0.005635672
-0.0001698887
-0.005540924
-0.0001627197
-0.005447437
-0.000158402
-0.005360209
-0.0001459218
-0.005273896
-0.0001415965
-0.005190906
-0.0001364725
-0.005107194
-0.0001365086
-0.005027681
-0.0001284841
-0.004948144
-0.0001273387
-0.004871027
-0.0001226682
-0.004796617
-0.0001156251
-0.00472196
-0.0001166152
-0.004647517
-0.0001171914
-0.004572296
-0.0001186913
-0.00450061
-0.0001112925
-0.004429377
-0.000108227
-0.004361155
-0.000102093
-0.004290291
-0.0001060684
-0.004221021
-0.0001044398
-0.004148247
-0.000111026
-0.004079231
-0.0001030249
-0.004010773
-9.943015e-05
-0.003941362
-0.0001020754
-0.00387084
-0.0001038835
-0.003799579
-0.00010585
-0.003730291
-0.0001011087
-0.003661699
-9.916788e-05
-0.003686584
5.079941e-05
-0.003630292
-7.520117e-05
-0.003572456
-8.050995e-05
-0.003513241
-8.26293e-05
-0.003456565
-7.765224e-05
-0.003397769
-8.074669e-05
-0.003340446
-7.776547e-05
-0.003282296
-7.760877e-05
-0.003224503
-7.646885e-05
-0.003163433
-8.302155e-05
-0.003101914
-8.401441e-05
-0.003041029
-8.096748e-05
-0.002979756
-7.952906e-05
-0.002918433
-7.766711e-05
-0.002852629
-8.591273e-05
-0.002784069
-9.241062e-05
-0.002715064
-9.213112e-05
-0.002647927
-8.816493e-05
-0.002577961
-9.392173e-05
-0.002510842
-8.864537e-05
-0.002442931
-8.919359e-05
-0.002374533
-8.940599e-05
-0.002303739
-9.146624e-05
-0.002227421
-0.0001006745
-0.002133602
-0.0001363632
-0.002030445
-0.0001512969
-0.00192829
-0.0001247628
-0.001809992
-0.0001122348
-0.001647523
-0.0001598383
-0.001390878
-0.0003494846
-0.000991914
-0.0006136923
-0.001519127
-0.0003017945
-0.002776014
0.006031448
0.0007674014
-0.002176864
0.001599655
-0.002021862
-0.0009386084
0.00381459
-0.004104003
0.005544511
-0.004466307
0.001465319
-0.003471801
-0.00146864
-0.002325863
-0.002136755
-0.0002674826
-0.003893819
0.0008753784
-0.002255576
0.001541377
-0.001113101
0.002284436
-0.001207326
0.002910888
-0.001058658
0.003329204
-0.0009033304
0.004038703
-0.001052674
0.004628841
-3.493649e-05
0.003644491
0.002194356
0.001478463
0.003124612
-0.0004609136
0.002893526
-0.001565936
0.002088253
-0.001909361
0.0006245012
-0.002537413
0.000873727
-0.003135274
0.0007336588
-0.003325187
0.0001313536
-0.002995435
-0.0005947621
-0.002591854
-0.0005726889
-0.001946146
-0.001047325
-0.0005207369
-0.002559078
0.0004776073
-0.001840956
0.0002556383
0.0005020737
-0.001941061
0.003074398
-0.004929606
0.004734465
-0.00587681
0.002704258
-0.004622008
-0.001423567
-0.003152649
-0.002605545
-0.0009368684
-0.004043607
0.001132677
-0.003720585
0.002680335
-0.002751636
0.003618773
-0.001611044
0.003912171
-9.220989e-05
0.003056162
0.002180645
0.0008783917
0.003703407
-0.0008374029
0.002385774
-0.001080853
0.0001262309
-0.000952209
-0.0001356265
1.183442e-05
-0.001795837
0.001084741
-0.001894242
0.00221596
-0.002003953
0.001073057
0.0007670194
0.01461405
-0.002036523
-0.004722834
0.01377832
-0.001468213
-0.001967009
-0.0004639838
-0.002936844
2.255498e-05
-0.0008964769
0.0004586996
-0.0004884818
0.0008249416
-0.0005055417
0.001345031
-0.0008710374
0.002031419
-0.0009746426
0.002591166
-0.0004660754
0.002781058
0.0001029875
0.002723698
0.0001402786
0.002678413
-0.0001980902
0.002725987
-0.0004020231
0.002763572
-0.0002528136
0.00268231
8.615612e-05
0.00235308
0.0005084011
0.001590172
0.001014197
0.0002115312
0.001689382
-0.001670701
0.002365294
-0.003712867
0.002874402
-0.005596666
0.003051801
-0.007066044
0.002750892
-0.00804707
0.002134004
-0.008629779
0.001523848
-0.008942219
0.001055662
-0.009070306
0.0006859237
-0.009073157
0.0003815387
-0.008997048
0.000134316
-0.008880429
-4.324336e-05
-0.008738341
-0.0001619743
-0.008548886
-0.0002733483
-0.008318662
-0.0003514575
-0.008049494
-0.0004353134
-0.007585756
-0.0007643956
-0.007242241
-0.0005593866
-0.006855206
-0.0006513702
-0.006460191
-0.0006681524
-0.006044292
-0.0007128412
-0.00562357
-0.000722513
-0.005232963
-0.0006625237
-0.00479577
-0.0007461066
-0.004348847
-0.0007555015
-0.003898261
-0.000755608
-0.003395552
-0.0008527472
-0.002911165
-0.0008184029
-0.002457579
-0.0007614346
-0.002007025
-0.0007522432
-0.001626661
-0.0006082776
-0.001219162
-0.0006266328
-0.0008564043
-0.0005084076
-0.0005363161
-0.0004271698
-0.0003046039
-0.0003176664
-9.902264e-05
-0.0003538681
1.145587e-05
-0.000261743
-0.0002883618
0.0001587645
-0.0008407784
0.0005821485
-0.001023185
0.0005295375
-0.0005327192
-0.0003017025
0.0001786679
-0.001029623
0.000570961
-0.0007467568
0.0007852789
-0.0003821918
0.0008239792
-7.006593e-05
0.000799241
4.114448e-05
0.0008194326
-5.189453e-05
0.0009005716
-0.0001740095
0.001005681
-0.0002847223
0.00125963
-0.0006108844
0.00139131
-0.0004704663
0.0003401048
0.001388363
-0.001249652
0.002759504
-0.00188495
0.001572727
-0.001543793
-0.0003497708
-0.0008970473
-0.001118618
-0.000326187
-0.001021989
-3.365627e-05
-0.0005485683
0.0001428259
-0.0003184656
0.0002705105
-0.0002326833
0.0004236944
-0.0002750409
0.0005713505
-0.0002765591
0.0007358715
-0.0002995564
0.0009441766
-0.0003724391
0.001229208
-0.000500918
0.001611477
-0.0006212363
0.002006647
-0.000585784
0.00215157
-0.0002254923
0.001757667
0.0004626993
0.000933849
0.001044455
-6.343998e-05
0.001514761
-0.0008422477
0.001444733
-0.001200961
0.0008527949
-0.0011777
0.0001467081
-0.0007504906
-0.0006614361
-0.0002389315
-0.0008552703
0.0003025851
-0.000945328
0.000899092
-0.001017623
0.001533645
-0.001107325
0.002138073
-0.001025725
0.002815877
-0.001067315
0.003238581
-0.000728278
0.000379089
-0.0007679834
0.02027804
-0.002835077
0.001397181
2.083809e-05
-0.006284051
7.613531e-05
-3.351252e-05
-0.001865125
0.004277265
-0.00151407
-0.00032115
-0.0003092696
-0.002093586
-0.0001571967
-0.0002387619
0.0001430612
-0.0004932535
0.0006326273
-0.0008469378
0.001047878
-0.0006937019
0.001218461
-0.0001717756
0.001114613
0.0003461586
0.0007523132
0.0006648179
0.0002328025
0.0007617218
-0.0006769788
0.001335503
-0.001685191
0.001669351
-0.001899636
0.0004943268
-0.0008971212
-0.001682801
0.0009396566
-0.003243329
0.002610023
-0.00308412
0.004021665
-0.002064209
0.003664105
0.001508689
0.002151927
0.002710928
0.001772058
0.0001776448
0.001545742
0.0002753719
0.002096887
-0.001004568
0.001996534
-0.0007775399
-0.00175239
0.004998018
-0.00590907
0.006975906
-0.007439511
0.003931415
-0.007478225
0.001020128
-0.007186181
-0.0002292269
-0.006684411
-0.0008333696
-0.006107842
-0.0009527958
-0.005451407
-0.001094028
-0.004600737
-0.00146024
-0.003557062
-0.001851087
-0.002540598
-0.001827061
-0.001769679
-0.001337777
-0.0008004883
-0.001731355
-2.008345e-05
-0.001417187
0.0006843203
-0.001239703
0.001393733
-0.001269319
0.002082412
-0.00122956
0.002878393
-0.001442034
0.00364679
-0.001408931
0.004559907
-0.001634341
0.005192476
-0.001452583
0.0002222414
0.001570612
-0.0123654
0.03107282
-0.002973072
0.005940864
-0.001702945
-0.007554179
-0.001562684
-0.0001737731
-0.002811941
0.005526522
-0.001995686
-0.001137406
-0.0005976629
-0.003491609
-0.0003097525
-0.0005266723
1.266649e-05
-0.0008156725
0.0005793157
-0.001413587
0.001089175
-0.001203561
0.001326702
-0.000409302
0.001307498
0.0003653623
0.000981981
0.0009903348
0.0002779375
0.001465765
-0.001006131
0.002619571
-0.002269252
0.002932472
-0.002407316
0.0006323906
-0.001173054
-0.002917062
0.001030235
-0.005446619
0.003047235
-0.00510112
0.004775035
-0.003792008
0.005260046
0.001023678
0.004498834
0.00347214
0.003883658
0.0007928205
0.003069368
0.001089662
0.002643923
-0.0005791229
0.0001156031
0.00175078
-0.005091628
0.01020525
-0.008257159
0.01014144
-0.008756835
0.004431091
-0.008759766
0.00102306
-0.00849017
-0.0004988234
-0.007875031
-0.001448508
-0.007196478
-0.001631349
-0.006397338
-0.001893168
-0.005338373
-0.002519205
-0.0040619
-0.003127561
-0.002844487
-0.003044474
-0.001874593
-0.00230767
-0.0006817381
-0.00292421
0.0002707786
-0.002369704
0.001104037
-0.002072961
0.001971784
-0.002137067
0.002831349
-0.002089126
0.003820151
-0.002430836
0.004819318
-0.002408098
0.005903521
-0.002718544
0.006662077
-0.002211139
0.005476741
0.001407578
-0.001675951
0.02093101
-0.002180389
-0.001462571
-0.001206143
-0.00391109
-0.0007986734
-0.001303946
-0.0004105457
-0.0008766094
-7.081483e-05
-0.0008452726
0.000419609
-0.001361461
0.001221464
-0.001776498
0.002061438
-0.001306049
0.002583349
-0.0004189237
0.002575275
0.0001483525
0.002129813
0.0002473723
0.001605521
0.0001222692
0.001174169
0.0001785379
0.000639655
0.0006206702
-0.0003575453
0.001505601
-0.001997527
0.002654178
-0.004143509
0.003835364
-0.006344009
0.004565794
-0.00815113
0.004681524
-0.009393723
0.004294394
-0.01012556
0.003482725
-0.01051825
0.002526694
-0.01073284
0.001738442
-0.01085821
0.001181033
-0.01091898
0.0007466916
-0.01092017
0.0003827267
-0.01085451
6.865695e-05
-0.01073111
-0.0001666385
-0.01055742
-0.0003356655
-0.01032213
-0.0005086411
-0.01003983
-0.0006337604
-0.009710479
-0.0007646604
-0.009147866
-0.001327008
-0.008724299
-0.0009829541
-0.008250464
-0.001125205
-0.007768264
-0.001150353
-0.007263853
-0.001217252
-0.006752356
-0.001234009
-0.00627955
-0.00113533
-0.005752665
-0.001272992
-0.005212642
-0.001295524
-0.004669258
-0.001298991
-0.004062109
-0.001459896
-0.003472941
-0.001407571
-0.002920291
-0.001314084
-0.002370396
-0.001302139
-0.00190313
-0.001075543
-0.001396421
-0.001133341
-0.0009209775
-0.0009838514
-0.0004654108
-0.0008827365
-8.680967e-05
-0.0006962675
0.0002586854
-0.0006993632
0.0005437904
-0.000546848
0.0005309601
0.0001715947
-0.0001620947
0.001275203
-0.0002665108
0.0006339536
0.0005627649
-0.001130978
0.0012671
-0.001733958
0.001745391
-0.001225048
0.002046531
-0.0006833319
0.002218717
-0.0002422518
0.00232294
-6.307885e-05
0.00239278
-0.0001217341
0.00242798
-0.00020921
0.002369155
-0.0002258967
0.002248455
-0.0004901849
0.001773436
4.552934e-06
0.0001698513
0.002991947
-0.001330835
0.00426019
-0.001774227
0.002016119
-0.001364887
-0.0007591101
-0.0005202141
-0.001963292
0.0002783534
-0.001820557
0.0007614507
-0.001031666
0.0009735942
-0.000530609
0.001062468
-0.000321557
0.001152684
-0.000365257
0.001230507
-0.0003543819
0.001330532
-0.0003995818
0.001488568
-0.0005304745
0.001742759
-0.000755109
0.002131043
-0.001009521
0.002589131
-0.001043871
0.002740604
-0.0003769654
0.002060359
0.001142943
0.0008294834
0.002275331
-0.0003337975
0.002678042
-0.001172842
0.002283778
-0.001521868
0.001201821
-0.001479114
0.0001039547
-0.0009314973
-0.001209053
-0.0003145131
-0.001472254
0.0003481162
-0.001607957
0.001081485
-0.001750992
0.001859748
-0.001885589
0.00263089
-0.001796867
0.003406886
-0.001843311
0.003988267
-0.001309659
0.003426308
0.0009410479
0.0001826705
0.009275086
0.001179932
-0.003174126
0.001527317
-0.002369247
-0.002110725
0.007452632
-0.00518906
0.008622846
-0.005133165
0.001409424
-0.00393848
-0.002663324
-0.002494573
-0.003580662
-0.0001399959
-0.006248396
0.001269518
-0.00366509
0.002147973
-0.001991555
0.003103353
-0.002162705
0.003900112
-0.001855418
0.004320756
-0.001323974
0.004752986
-0.001484904
0.005602454
-0.0008844043
0.005243715
0.002553094
0.002647104
0.005721223
-0.0001610201
0.00570165
-0.001560585
0.003487818
-0.001814482
0.0008783977
-0.002432141
0.001491386
-0.003414356
0.001715874
-0.004066172
0.0007831695
-0.003953823
-0.0007071108
-0.003614561
-0.0009119511
-0.002959656
-0.00170223
-0.001380623
-0.00413811
-0.0002364736
-0.002985106
-0.0007984122
0.001064012
-0.003995896
0.006271882
-0.007000829
0.007739398
-0.00697408
0.00267751
-0.005262721
-0.003134927
-0.00352986
-0.004338405
-0.0009398792
-0.006633588
0.001441551
-0.006102015
0.003297497
-0.004607581
0.004394757
-0.002708305
0.004750415
-0.0004478676
0.00428638
0.002644679
0.002440734
0.005549053
0.0001093132
0.004717195
-0.0009370511
0.001172595
-0.0009736898
-9.898785e-05
-2.572769e-06
-0.002766954
0.001458938
-0.003355753
0.002548633
-0.003093649
-0.0004985941
0.003814247
-0.009168666
0.02328412
-0.01027576
0.002573401
-0.009615487
-0.001791753
-0.0093625
-0.0006929324
-0.009073322
-0.0007806925
-0.008853579
-0.0005987251
-0.008644357
-0.0005673069
-0.008466401
-0.0004910695
-0.008123876
-0.0008507264
-0.007989181
-0.0003625417
-0.007865548
-0.0003215026
-0.007746172
-0.0003067291
-0.00763442
-0.0002828194
-0.007522077
-0.0002822322
-0.00741409
-0.0002707063
-0.007306382
-0.0002661097
-0.007205027
-0.0002472768
-0.007103381
-0.0002432426
-0.007005456
-0.0002343976
-0.006905849
-0.0002361158
-0.006810652
-0.0002236807
-0.006714609
-0.0002233819
-0.006620795
-0.0002164819
-0.006529264
-0.0002071562
-0.006437212
-0.0002086672
-0.006345696
-0.0002087081
-0.00625293
-0.000211457
-0.006163712
-0.0002005111
-0.006073736
-0.0001982025
-0.00598688
-0.0001889495
-0.005896295
-0.0001966533
-0.005808136
-0.0001925986
-0.005715552
-0.0002036103
-0.005626858
-0.0001917183
-0.005537655
-0.0001886336
-0.005447271
-0.0001924586
-0.005355567
-0.0001955878
-0.005262682
-0.0001987347
-0.005170791
-0.0001930004
-0.00507772
-0.0001922392
-0.005103228
7.630749e-05
-0.005021645
-0.0001567842
-0.004943732
-0.0001584227
-0.00486327
-0.0001630913
-0.004785944
-0.000154978
-0.004705608
-0.0001610831
-0.004627083
-0.0001562905
-0.004547072
-0.0001576194
-0.004467629
-0.0001559121
-0.004384546
-0.0001661037
-0.004301331
-0.0001672301
-0.004218679
-0.0001636193
-0.004135099
-0.0001631094
-0.004051282
-0.0001614836
-0.003962484
-0.000174711
-0.003870853
-0.0001840412
-0.003777878
-0.0001851058
-0.003685485
-0.0001805587
-0.003586913
-0.0001924935
-0.00348847
-0.0001870883
-0.003384927
-0.0001927365
-0.003277654
-0.0001966792
-0.003165107
-0.0002040128
-0.003046537
-0.0002192452
-0.002909796
-0.0002731036
-0.002764213
-0.0002968801
-0.002616453
-0.0002725234
-0.002438599
-0.0002900883
-0.002202968
-0.0003954689
-0.001853065
-0.0006993882
-0.001240867
-0.00122589
-0.0001378511
-0.002622143
0.001026219
-0.002792141
0.001650056
-0.001332959
0.002046144
-0.0009919448
0.002375536
-0.0007987011
0.00264561
-0.0006418557
0.002888974
-0.0005655705
0.003099523
-0.0004657479
0.003270187
-0.0003515267
0.003415472
-0.000286216
0.003560155
-0.0002857514
0.003693391
-0.0002574341
0.003819222
-0.0002357331
0.003931449
-0.0002013764
0.004038715
-0.0001897241
0.004139539
-0.0001777497
0.004241219
-0.0001833897
0.004339534
-0.0001765295
0.00443291
-0.0001643512
0.004523617
-0.000160809
0.004615403
-0.0001671907
0.004704558
-0.0001617506
0.004790898
-0.0001568589
0.004879878
-0.0001656552
0.004963636
-0.0001543716
0.005050113
-0.0001652528
0.005138778
-0.0001747864
0.005224987
-0.0001653336
0.005306887
-0.0001540621
0.005391206
-0.0001615467
0.005474441
-0.000163857
0.005563753
-0.0001619222
0.005540444
9.270926e-05
0.005638465
-0.0001952958
0.005738017
-0.0002093272
0.005835991
-0.0002091992
0.005933895
-0.0002106955
0.006033035
-0.0002167491
0.006132055
-0.0002147618
0.006227479
-0.00020531
0.006325736
-0.0002142369
0.006424803
-0.0002227376
0.006529705
-0.0002381819
0.00662898
-0.0002216386
0.006729188
-0.0002215028
0.006830261
-0.000227564
0.00693484
-0.0002382689
0.00703905
-0.0002395366
0.007148475
-0.0002561467
0.007260387
-0.0002640181
0.007372933
-0.0002662943
0.007489649
-0.000275951
0.007601988
-0.0002650916
0.007725153
-0.000297064
0.007848813
-0.0003032991
0.00797823
-0.0003179493
0.008110957
-0.0003307984
0.008248195
-0.0003429055
0.008392318
-0.0003666624
0.008546424
-0.000396005
0.00870333
-0.0004052002
0.00887022
-0.0004344823
0.009053183
-0.0004828696
0.009254811
-0.0005431897
0.009694843
-0.001118928
0.009965693
-0.0007477781
0.01028655
-0.0008713262
0.01064775
-0.0009752832
0.01112577
-0.001291968
0.01163829
-0.001274889
0.01275459
-0.003293247
0.00101665
0.001098337
0.0001750882
-0.004065566
0.001898815
-0.002133437
0.002382763
-0.001475893
0.00277056
-0.001186498
0.003086352
-0.0009576485
0.003368251
-0.0008474695
0.003611919
-0.0007094158
0.003812205
-0.0005518121
0.00398505
-0.000459061
0.00415937
-0.0004600716
0.004322351
-0.0004204148
0.004479191
-0.000392574
0.004622015
-0.0003442004
0.004759554
-0.0003272629
0.004890243
-0.0003084382
0.005021391
-0.0003145378
0.005148996
-0.0003041349
0.0052698
-0.0002851545
0.005387504
-0.0002785129
0.005505649
-0.0002853361
0.005620441
-0.0002765425
0.005731471
-0.0002678892
0.00584548
-0.0002796642
0.00595256
-0.0002614516
0.006062593
-0.000275286
0.006175185
-0.0002873783
0.006283842
-0.0002739898
0.006387905
-0.0002581254
0.006493972
-0.0002676142
0.006598651
-0.0002685354
0.00671079
-0.0002740616
0.006689148
0.0001143513
0.006808313
-0.0003144611
0.006931918
-0.0003329316
0.007051928
-0.0003292092
0.007171808
-0.0003305759
0.007293115
-0.0003380562
0.007413742
-0.0003353884
0.007530107
-0.0003216754
0.007649425
-0.0003335542
0.007769705
-0.0003430177
0.007896633
-0.0003651102
0.008016682
-0.0003416872
0.008137729
-0.0003425499
0.008259988
-0.0003498227
0.008385875
-0.0003641566
0.008511235
-0.0003648968
0.008642929
-0.0003878408
0.008777153
-0.0003982412
0.008912219
-0.0004013605
0.009052324
-0.0004160568
0.009186529
-0.0003992958
0.009334542
-0.0004450775
0.009482103
-0.0004508603
0.009636387
-0.0004722332
0.009795078
-0.0004894896
0.00995791
-0.0005057374
0.01013003
-0.0005387844
0.01031306
-0.0005790375
0.01049926
-0.0005913988
0.01069745
-0.0006326724
0.01091504
-0.0007004599
0.0113882
-0.00101635
0.01168118
-0.001411905
0.01200182
-0.00106842
0.01238532
-0.001254824
0.01282936
-0.001419327
0.01340229
-0.001864899
0.01411129
-0.001983889
0.01517763
-0.004359579
0.01517078
0.001023492
-0.01234898
0.01142225
0.003500133
-0.01175161
-0.002389122
-0.01139839
-0.001046148
-0.01106215
-0.001116936
-0.0108004
-0.0008604742
-0.01055682
-0.0008108931
-0.01035349
-0.0006943949
-0.01015696
-0.001047256
-0.009793479
-0.0007260233
-0.009651155
-0.0004638269
-0.009513544
-0.0004443393
-0.009384901
-0.0004114625
-0.009255277
-0.000411856
-0.009130521
-0.0003954631
-0.009005954
-0.0003906764
-0.00888836
-0.0003648713
-0.008770425
-0.000361177
-0.008656621
-0.0003482022
-0.008540637
-0.0003520989
-0.008429705
-0.0003346135
-0.00831779
-0.0003352967
-0.008207982
-0.0003262893
-0.008101059