/*--------------------------------*- C++ -*----------------------------------*\
| =========                 |                                                 |
| \\      /  F ield         | OpenFOAM: The Open Source CFD Toolbox           |
|  \\    /   O peration     | Version:  2406                                  |
|   \\  /    A nd           | Website:  www.openfoam.com                      |
|    \\/     M anipulation  |                                                 |
\*---------------------------------------------------------------------------*/
FoamFile
{
    version     2.0;
    format      ascii;
    arch        "LSB;label=32;scalar=64";
    class       volScalarField;
    location    "0.42";
    object      p;
}
// * * * * * * * * * * * * * * * * * * * * * * * * * * * * * * * * * * * * * //

dimensions      [0 2 -2 0 0 0 0];

internalField   nonuniform List<scalar> 
4536
(
-1.954718e-05
2.762331e-05
-2.74239e-06
-1.769795e-05
4.113826e-05
4.351511e-05
2.820337e-05
2.616891e-05
-1.205086e-06
3.455893e-05
-7.528789e-06
-3.632513e-07
-9.900408e-06
3.488883e-05
2.850568e-05
1.519352e-05
3.25103e-05
-3.698338e-06
3.885977e-05
4.317289e-05
2.476609e-05
2.531707e-05
2.478506e-06
2.60359e-05
4.178361e-07
4.652027e-05
2.36188e-05
2.616062e-05
-1.600962e-05
6.435118e-06
1.630097e-05
-2.742566e-07
3.455414e-05
1.273329e-05
1.746688e-05
3.493569e-05
2.920996e-05
3.041249e-05
2.71867e-05
-6.39493e-06
2.145606e-05
1.153169e-05
2.849521e-05
4.444327e-05
-9.700583e-06
-2.09395e-05
2.652099e-05
1.481678e-05
-4.612208e-06
3.52799e-05
2.351518e-05
4.009502e-05
2.326332e-05
-3.195651e-06
4.790485e-05
3.560991e-05
3.971793e-05
1.795396e-05
-2.203421e-05
-3.389723e-06
4.100215e-05
2.254699e-05
-6.284581e-06
3.054826e-05
1.968526e-05
7.297065e-06
2.818462e-05
9.584269e-06
2.214059e-05
6.674468e-06
2.012732e-05
3.622018e-05
2.635252e-06
-1.281259e-05
2.497362e-05
-3.111619e-07
8.70687e-06
2.977221e-05
-1.906178e-05
-8.833932e-06
1.885424e-05
5.560974e-05
7.83652e-05
-1.124009e-05
3.734021e-05
2.112142e-05
2.161417e-05
2.103806e-05
1.880402e-05
3.895532e-05
2.86559e-05
3.899069e-05
3.716804e-05
1.368291e-05
2.550635e-05
3.157071e-05
1.756898e-06
2.816767e-05
-2.106182e-05
6.959485e-06
-2.010189e-05
2.388047e-06
1.375229e-05
3.334857e-05
-1.142338e-05
-4.347379e-06
1.722644e-05
-4.055968e-06
2.184541e-05
1.398567e-05
6.561194e-05
3.186109e-05
2.481522e-05
3.798992e-05
2.974569e-05
2.641846e-06
-1.289117e-05
2.286057e-05
3.261365e-05
1.089891e-05
3.871944e-06
1.217265e-05
1.456545e-06
-9.0325e-06
1.023711e-05
4.557466e-05
3.365248e-05
1.80094e-05
7.010965e-06
3.654926e-05
-1.121941e-05
-1.150143e-06
4.417832e-05
2.309417e-05
4.911355e-05
2.477881e-05
-1.254032e-05
5.785505e-06
2.629917e-05
1.42568e-05
3.266295e-05
-1.017342e-05
1.192817e-05
3.445139e-05
2.401676e-05
-2.522677e-06
8.605716e-06
2.753131e-05
2.812276e-05
4.76656e-05
2.530075e-05
2.971208e-05
-5.376162e-06
1.725423e-05
4.063067e-05
3.860386e-05
3.959795e-05
1.291533e-05
3.086219e-05
1.210986e-07
3.684402e-06
2.975478e-05
2.330319e-06
3.378918e-05
4.777821e-05
2.886891e-05
8.942001e-06
2.191893e-05
1.60879e-07
4.524807e-05
3.895077e-05
3.076088e-05
1.664455e-05
7.373886e-05
2.063697e-05
4.030858e-05
4.544571e-06
2.49593e-05
2.912519e-05
1.911203e-05
1.566918e-05
2.605609e-05
6.2742e-05
3.657582e-05
4.266006e-05
5.411499e-05
1.810784e-06
2.031773e-05
6.359944e-06
2.15433e-05
-8.431112e-07
-1.568509e-05
7.466809e-07
-6.768466e-06
7.200166e-07
4.780976e-05
4.735224e-05
4.002061e-05
4.086725e-05
3.228096e-05
2.390992e-05
2.169356e-05
2.627191e-05
2.625714e-05
2.683892e-05
2.61297e-05
2.129549e-05
-9.534854e-06
2.775369e-05
3.556125e-05
-9.715086e-06
2.053319e-05
1.150421e-05
4.61582e-05
1.739927e-05
2.569263e-05
-5.732142e-06
-4.38921e-06
3.236674e-05
3.439604e-05
9.537715e-06
2.012081e-05
5.161427e-07
-3.507764e-06
8.625611e-07
2.05302e-05
2.284949e-05
-1.126866e-05
2.497474e-05
-7.2667e-06
1.716807e-05
-4.860652e-06
8.313475e-06
4.045567e-05
4.676101e-06
4.20552e-05
6.731656e-05
3.531632e-05
2.474092e-05
1.189047e-05
-1.651919e-06
3.954711e-05
1.357724e-05
1.781518e-05
4.150164e-05
7.079852e-06
5.65873e-06
2.095572e-05
2.804216e-05
1.102429e-05
-2.585431e-06
3.761412e-05
5.5301e-05
6.181767e-05
3.85895e-05
1.937802e-05
4.456803e-06
2.054013e-05
1.529458e-06
1.412152e-06
2.752907e-05
2.521608e-05
3.817853e-05
-1.249946e-05
6.694319e-05
2.795787e-06
1.227494e-05
1.330636e-05
4.248542e-05
3.432743e-05
-2.041943e-06
1.3306e-05
-1.618065e-05
3.724785e-05
2.535068e-05
9.03931e-06
9.030664e-06
9.96681e-06
3.703247e-05
4.415069e-05
1.781906e-05
3.093757e-05
5.261472e-05
2.891351e-05
-9.363652e-06
1.006224e-05
1.551717e-05
5.031957e-05
3.282423e-05
2.318721e-06
-3.055215e-06
-2.369827e-06
5.86656e-06
2.797234e-05
2.737261e-05
2.480795e-05
6.503425e-06
1.168143e-05
2.965184e-05
2.643495e-05
9.204194e-06
8.352931e-06
1.109437e-05
-4.803088e-06
-1.085208e-05
-1.285626e-05
-1.69876e-05
3.913369e-06
8.290556e-06
3.518039e-05
2.226114e-05
4.832707e-05
4.424471e-05
1.750077e-05
-9.556618e-06
2.413064e-05
3.145748e-05
3.64622e-05
2.574138e-05
2.439688e-05
2.459245e-05
2.546581e-05
2.488313e-05
2.31156e-05
3.847326e-05
4.834235e-05
1.470804e-05
2.714436e-05
2.718491e-05
1.200743e-05
4.905851e-06
1.200404e-05
1.157185e-06
3.132887e-06
-1.328491e-05
5.935054e-06
2.721942e-05
3.52695e-05
3.023386e-05
3.145792e-05
7.020937e-06
4.149924e-05
1.198832e-05
-1.470957e-05
1.796452e-05
4.88864e-05
2.599937e-05
1.499677e-05
2.764444e-05
2.354263e-05
4.028839e-05
1.817144e-05
-5.872841e-07
2.082938e-05
3.525191e-05
3.73886e-05
3.806276e-05
5.087225e-05
2.28849e-05
5.364866e-05
2.832834e-06
2.426294e-05
5.818718e-05
3.360162e-05
2.370547e-05
5.642986e-05
1.352144e-05
-1.733327e-05
7.04101e-06
5.375142e-06
4.324738e-05
2.920599e-05
7.146742e-06
3.367044e-05
2.38733e-05
-8.957845e-06
7.955123e-06
4.070345e-05
7.20493e-06
-2.805251e-06
3.791497e-05
3.14475e-05
2.77236e-05
2.521749e-05
1.172931e-05
2.591045e-06
3.171196e-06
3.878854e-05
5.31803e-05
6.889429e-05
3.698656e-05
7.620375e-06
-1.881252e-06
3.108324e-05
6.518903e-06
4.859072e-07
4.096937e-05
2.774004e-05
2.281458e-05
-1.240848e-05
4.121895e-05
-1.916904e-05
4.034464e-05
4.264721e-05
2.179378e-05
3.787476e-05
3.937875e-05
-4.035661e-06
3.19428e-06
2.367063e-05
-1.932592e-06
2.978462e-05
4.291106e-05
4.262363e-05
-7.978486e-06
3.108263e-06
1.317306e-05
1.794002e-05
1.567353e-05
-8.512172e-06
-7.556674e-06
4.006394e-06
3.295301e-05
7.515098e-06
2.768774e-05
2.599572e-05
1.876669e-05
1.867075e-05
2.368938e-05
2.403336e-05
3.702197e-05
1.156e-05
6.706809e-06
-6.495847e-06
-1.010424e-06
-5.751228e-06
3.076308e-05
4.810718e-05
-6.34494e-06
3.298848e-05
3.265502e-05
4.938675e-05
-1.610057e-05
2.23642e-05
2.66476e-05
4.444193e-05
-2.297961e-05
-9.571806e-06
-3.311802e-06
3.742775e-05
2.838364e-05
3.861068e-05
2.458578e-05
-1.143128e-05
3.306983e-05
3.886858e-05
4.644487e-05
2.930353e-05
3.679001e-05
3.461096e-05
5.877818e-06
1.580373e-05
1.552718e-05
3.211848e-05
2.557269e-05
3.828451e-05
3.40681e-05
3.180377e-05
4.086845e-05
3.827536e-05
2.952034e-05
3.958322e-05
4.042203e-05
3.831347e-07
1.925071e-05
3.492642e-05
5.432325e-05
3.421823e-05
-9.43534e-07
9.088747e-06
4.497905e-05
3.145693e-05
-9.621608e-06
-8.43758e-06
1.462151e-05
1.820061e-05
4.76846e-05
7.613046e-07
6.75595e-08
2.955335e-05
-7.737077e-06
1.9919e-05
3.540457e-05
4.119035e-05
2.314019e-05
2.327621e-05
2.592455e-06
1.95497e-05
3.996165e-05
1.128548e-05
2.539991e-05
-1.263938e-05
3.260688e-05
2.642362e-05
3.43024e-06
1.539322e-05
5.271623e-05
-1.106772e-05
2.391476e-05
6.118109e-06
2.495146e-06
2.363923e-05
1.30997e-05
2.274881e-05
1.920925e-05
3.941971e-05
3.928663e-05
3.826449e-05
2.672176e-05
4.564661e-05
5.184036e-05
2.19816e-05
2.720885e-07
7.239277e-06
4.292234e-06
1.896649e-06
5.494719e-06
2.973213e-05
4.350129e-05
9.142209e-06
1.126485e-05
2.862392e-05
3.40277e-05
4.090122e-05
1.981034e-05
2.638667e-05
4.368409e-05
2.810995e-05
3.728415e-05
3.654706e-05
9.040832e-06
1.974606e-05
2.67881e-05
1.400036e-05
2.515897e-05
3.107937e-05
2.438503e-05
2.605716e-06
1.026275e-05
3.00572e-05
2.866949e-05
1.785515e-05
2.358108e-05
-3.308093e-07
-3.061783e-08
-9.094597e-06
2.350756e-05
-6.597597e-07
5.415589e-05
4.174057e-05
4.331592e-05
4.462499e-05
4.46332e-05
2.003678e-05
3.694765e-05
2.149965e-05
3.685642e-05
-3.291903e-06
2.74944e-05
-7.825187e-06
2.699213e-05
2.765787e-05
2.773598e-05
3.366244e-05
3.257317e-05
3.700838e-05
1.224502e-05
-2.697902e-05
2.326738e-05
2.480283e-05
-2.842892e-05
4.513601e-05
1.275672e-05
-7.498135e-06
2.840176e-05
2.439062e-05
3.085564e-05
3.534279e-05
2.587739e-05
1.63691e-05
2.680841e-05
8.256201e-06
4.956891e-06
2.261129e-05
-2.090239e-05
5.875379e-05
6.062346e-05
2.251571e-05
-1.188981e-05
2.523629e-05
3.057878e-05
2.38572e-05
3.747129e-05
3.62928e-06
2.236941e-05
1.767862e-05
3.807216e-05
3.546567e-05
1.527203e-05
4.178386e-05
3.896057e-05
2.852385e-05
2.855128e-05
-1.155124e-05
-4.96127e-07
5.944103e-05
1.896646e-05
-2.003527e-05
7.97646e-06
2.019111e-05
1.881565e-05
-4.303959e-06
2.074954e-05
2.706431e-06
1.111191e-05
1.45586e-05
2.63301e-05
3.658551e-05
5.394606e-05
4.772796e-05
2.227847e-05
2.584845e-05
2.541338e-05
-5.075824e-09
2.741039e-05
2.704298e-05
-1.066667e-05
-2.788711e-06
3.782055e-05
3.111501e-05
-3.874352e-06
8.948042e-06
-8.358513e-06
5.018026e-05
1.130957e-05
4.795461e-05
1.961453e-05
1.832616e-05
-5.010275e-06
-4.23043e-07
2.911373e-06
3.572289e-05
2.829467e-05
-1.053836e-05
-1.307356e-05
-1.16938e-05
1.745215e-05
1.743183e-05
2.409584e-05
2.270864e-05
2.367307e-05
-8.181014e-06
-1.079156e-05
3.298636e-05
9.852032e-06
1.456739e-05
-9.439314e-06
1.637257e-06
1.415977e-05
3.939221e-05
-1.46065e-06
2.680923e-05
6.26511e-06
4.62002e-06
1.047532e-05
-1.916721e-05
1.411102e-06
-2.566719e-06
2.611424e-06
5.164451e-06
2.462581e-05
2.763625e-05
2.483955e-05
3.122299e-05
3.318749e-06
2.376341e-05
3.600142e-05
7.045807e-06
7.022412e-06
5.765086e-06
-5.78735e-06
8.566802e-06
1.784824e-05
6.102046e-06
7.349565e-06
1.424139e-05
2.16856e-05
3.013998e-05
2.32382e-05
2.287875e-05
-2.819591e-06
1.245223e-05
4.313228e-05
3.961162e-05
3.616348e-05
4.1445e-05
1.099565e-05
-1.304464e-05
5.221126e-05
3.308693e-05
2.483862e-05
3.698791e-06
1.774774e-05
4.077722e-05
4.278683e-05
7.934511e-06
-7.623317e-07
-8.119403e-07
-2.480738e-05
4.065022e-05
3.227784e-05
2.64892e-05
2.987516e-05
3.689955e-05
-1.998055e-05
-2.937606e-06
2.621593e-05
1.075668e-05
1.294708e-05
-1.42344e-05
1.836675e-05
2.030846e-05
-5.377405e-06
1.19703e-05
4.902752e-06
-4.70759e-06
1.143557e-05
5.678449e-05
1.151104e-05
4.381935e-05
7.527828e-06
5.371574e-05
-1.52446e-06
-1.751422e-06
-2.62281e-05
2.500057e-05
1.570547e-05
3.830025e-05
-9.657178e-06
2.606832e-06
2.685014e-06
3.593642e-05
-8.446786e-06
2.152745e-05
1.74397e-06
2.519818e-05
1.828601e-05
2.115442e-05
1.753268e-05
-1.637706e-05
3.911026e-05
1.979589e-05
3.337086e-05
1.558806e-05
-4.456828e-06
-6.862539e-07
3.162215e-05
3.503303e-05
3.747774e-05
1.843342e-05
-6.821989e-06
4.639576e-05
1.07347e-05
4.216679e-05
2.293755e-05
3.552852e-05
4.120434e-05
3.271937e-05
-1.252698e-05
4.421634e-05
2.941569e-05
3.247896e-05
1.55696e-05
-1.908211e-06
3.45655e-05
1.99009e-05
1.543394e-06
4.284113e-05
2.094611e-05
7.261248e-05
3.732106e-05
3.146296e-05
3.434487e-05
3.852959e-05
4.304025e-05
4.387155e-05
3.691654e-05
3.950433e-05
2.475675e-05
3.81773e-05
2.575287e-05
2.62704e-05
3.986429e-05
3.319415e-05
1.499687e-05
-1.323281e-05
2.206038e-05
3.649868e-05
-1.445651e-05
2.034188e-06
1.68143e-05
2.438015e-05
2.851077e-05
4.184236e-05
1.951585e-05
-5.350774e-06
5.018281e-05
3.42459e-05
1.537779e-05
3.565574e-06
-9.175524e-06
3.555353e-05
2.625997e-06
2.789689e-05
2.466573e-05
2.623315e-05
3.17915e-05
5.101071e-05
-1.031755e-06
1.667844e-06
-1.955194e-05
-1.442746e-05
2.13108e-05
2.479359e-05
8.611923e-06
8.276724e-06
5.489726e-06
-1.314051e-06
2.234586e-05
3.339442e-05
2.58551e-05
2.601307e-05
-1.492871e-05
3.189038e-05
1.620878e-05
-3.991909e-06
8.176801e-06
5.19441e-05
5.774308e-06
7.147208e-06
3.543281e-05
3.050286e-06
1.323708e-05
3.206894e-05
4.556189e-05
4.939856e-05
4.201104e-05
4.279351e-05
4.555557e-05
1.955594e-05
3.675937e-06
2.145371e-05
-1.417183e-05
3.945549e-05
2.693382e-05
1.449219e-06
5.578418e-05
-1.693481e-05
4.930865e-06
1.672943e-05
2.167802e-05
2.368449e-05
2.05691e-05
2.060002e-05
2.673133e-05
2.74387e-05
3.597975e-05
-5.345922e-06
-5.270187e-06
-2.897972e-06
6.290085e-06
-4.994767e-06
3.968283e-07
2.665236e-05
7.178134e-06
1.434174e-05
-2.081213e-06
-1.056572e-07
1.73793e-06
2.571709e-05
3.064867e-05
3.173661e-05
3.069213e-05
3.010615e-05
1.453004e-05
1.652881e-05
-6.842672e-06
-7.232383e-06
2.522557e-05
2.333568e-05
2.362948e-05
2.195988e-05
1.807573e-05
-3.489929e-06
-8.550253e-06
-2.77623e-06
-9.483311e-07
3.293008e-05
3.380357e-05
2.071654e-05
-6.403074e-06
3.269591e-05
3.021747e-05
2.210962e-05
1.757877e-05
2.790201e-05
2.882342e-05
-1.157979e-06
-9.20362e-06
-1.007126e-05
-1.183944e-05
-6.510655e-06
3.647314e-05
-4.485937e-06
-1.106729e-05
-1.448351e-05
4.824263e-05
-9.368614e-06
-1.106808e-05
4.360903e-06
2.724525e-05
2.327228e-05
-5.453438e-06
-1.298549e-05
-6.573238e-06
-9.317231e-07
3.021503e-05
3.077449e-05
2.445815e-05
3.210961e-05
5.438504e-06
3.899581e-06
9.85299e-06
2.713415e-05
4.753103e-05
2.502474e-05
2.653372e-05
2.956572e-05
4.739691e-05
4.313004e-05
3.985088e-05
2.260301e-06
3.831262e-05
4.492588e-05
3.461565e-05
5.349112e-06
2.231203e-05
3.871012e-05
2.265041e-05
3.192537e-05
6.079575e-07
-9.45293e-07
2.31584e-05
2.446461e-05
3.826194e-05
2.187798e-05
1.862918e-05
1.637775e-05
2.198067e-05
1.764973e-06
3.453221e-05
2.49424e-05
4.079218e-05
2.684056e-05
3.888613e-05
2.556607e-06
3.095942e-05
1.277641e-05
4.073192e-05
4.366234e-05
4.913033e-05
4.713879e-05
4.63406e-05
3.035816e-05
2.902064e-05
5.536687e-06
2.636988e-05
-8.849915e-06
1.821695e-05
1.931523e-05
2.968423e-05
2.583635e-05
1.434553e-05
3.298182e-05
-7.205743e-06
-1.014238e-05
2.658985e-05
2.645751e-05
3.710908e-05
1.853709e-05
2.957283e-06
-1.952213e-05
4.004426e-05
3.818576e-05
3.851031e-05
4.179771e-06
4.92675e-05
-1.107399e-06
2.817105e-06
1.269966e-05
1.021651e-05
1.133949e-05
3.373871e-05
-1.826425e-06
-5.325042e-06
-3.50221e-06
1.472422e-05
-9.830914e-06
3.895325e-05
-1.766242e-06
-1.191825e-05
6.469456e-06
4.33484e-05
3.648584e-05
3.011969e-05
1.752078e-05
3.062123e-05
3.058815e-05
1.436693e-05
3.68753e-05
1.794894e-05
4.772107e-05
2.158968e-05
2.386054e-05
2.287535e-05
2.526343e-06
3.635896e-05
3.605588e-05
3.596786e-05
1.022962e-06
3.497792e-07
-1.509288e-05
3.919754e-05
3.066072e-05
4.029212e-05
4.060905e-05
2.427278e-05
2.232511e-05
1.268972e-05
4.818501e-05
3.910988e-05
2.648549e-05
1.868242e-05
-1.848373e-05
2.485281e-05
4.127004e-05
-2.615945e-05
3.055269e-05
2.407299e-06
4.623785e-06
2.976297e-05
3.186833e-06
2.763641e-05
2.349701e-05
2.818127e-05
1.605119e-05
3.549026e-05
1.141349e-05
5.276477e-05
5.778517e-05
2.955228e-05
3.079485e-05
4.030997e-05
3.124009e-05
4.127084e-05
2.617615e-05
2.477886e-05
3.599365e-05
4.888308e-05
4.932531e-05
4.763276e-06
-3.308939e-06
-1.415828e-05
-1.485446e-05
2.940463e-05
3.727602e-05
3.833895e-05
2.729256e-05
3.676278e-05
5.729058e-05
2.202076e-05
-2.835455e-06
3.956544e-06
-2.254814e-05
1.954939e-05
2.017863e-05
2.892212e-05
8.669258e-06
2.81137e-05
5.8269e-05
4.02796e-05
2.259386e-05
7.428444e-06
1.76893e-06
-8.710393e-06
3.605174e-05
-2.240238e-05
7.521465e-06
2.852209e-05
2.912934e-05
-1.618724e-05
-8.843597e-06
1.411248e-05
-1.827692e-05
3.737114e-05
-1.204262e-05
3.001764e-05
2.399237e-05
2.20915e-05
3.354759e-05
3.488424e-05
2.663305e-05
2.713481e-05
1.943549e-05
1.606004e-05
6.924348e-05
9.082846e-05
1.686612e-05
1.754818e-05
1.28063e-05
2.317827e-05
1.863557e-05
-2.188737e-06
3.457567e-05
-1.803031e-06
6.314708e-06
7.830718e-06
3.582581e-05
2.5595e-05
-1.142751e-05
4.140729e-05
3.140679e-05
6.224812e-06
7.806459e-06
1.107281e-05
-1.32382e-05
3.481598e-05
1.021891e-05
7.73768e-06
-7.804235e-06
-8.506221e-06
3.560737e-05
3.223667e-05
-6.351727e-06
-8.915287e-06
9.125993e-06
9.443798e-06
3.63296e-05
2.593102e-05
2.519845e-05
2.664957e-05
2.550574e-05
4.093415e-06
-4.073619e-06
4.202932e-05
4.132739e-05
4.301075e-05
3.347962e-05
2.75397e-05
2.667714e-05
2.089703e-06
-5.74552e-06
4.948321e-06
3.759195e-06
9.581814e-07
2.256741e-07
4.559094e-05
5.144376e-05
3.161097e-05
3.108569e-05
4.387147e-06
4.384345e-06
5.404887e-06
1.464403e-05
6.264735e-06
3.7395e-05
-4.143922e-06
1.574072e-05
1.663937e-05
-2.848588e-06
8.401182e-08
3.389051e-05
-9.778382e-06
2.4588e-05
1.591318e-05
2.39963e-05
-1.09154e-05
1.458595e-05
1.842354e-05
2.075202e-05
-9.585673e-06
-1.381451e-05
-9.390181e-06
1.59546e-05
-7.22069e-06
1.682847e-05
2.091423e-05
-1.558799e-05
2.719463e-05
-5.03637e-06
-6.108209e-06
4.174089e-05
-1.432628e-05
2.275175e-05
2.415223e-05
2.396552e-05
3.743387e-05
3.859439e-05
4.250798e-05
4.387782e-05
2.953141e-05
-4.6836e-06
2.933435e-05
3.603855e-07
1.010303e-06
-9.559065e-07
6.571413e-05
-1.56556e-05
3.682934e-05
3.27364e-05
-3.593885e-06
4.546511e-05
5.873987e-05
1.66e-05
2.052203e-05
1.369424e-05
6.129918e-05
2.47966e-05
2.618242e-05
2.371637e-05
3.222722e-05
3.266912e-05
-3.495355e-06
3.839157e-05
3.924479e-06
7.154543e-06
3.920147e-05
9.444411e-06
5.362779e-06
4.8203e-06
3.560007e-05
2.215221e-05
-1.546219e-05
3.893314e-06
1.748221e-05
8.460266e-06
-1.490534e-05
2.4466e-05
3.407913e-05
-1.037989e-05
2.542566e-05
3.451266e-05
3.856479e-05
3.644436e-05
3.134984e-05
4.32076e-05
3.832485e-05
3.890384e-05
5.189808e-05
2.016781e-05
1.351814e-05
2.9123e-05
2.406087e-05
2.69455e-05
3.852923e-05
5.03076e-05
5.269128e-05
-5.992092e-06
3.389307e-05
2.407307e-06
2.463734e-05
4.28223e-05
1.892058e-05
2.551095e-05
2.8437e-05
3.27317e-05
3.386582e-05
2.179312e-05
-9.937324e-06
3.92877e-05
2.677399e-05
3.151352e-05
1.180105e-06
-2.963157e-06
2.325536e-07
2.882667e-06
2.934123e-05
4.866015e-08
-1.326599e-05
2.280567e-05
2.311811e-05
2.004434e-05
2.123447e-05
2.471326e-05
-7.970499e-06
2.675995e-05
2.750823e-05
6.587401e-06
-7.386856e-07
4.025082e-05
4.271731e-05
3.943087e-05
3.966079e-05
3.948222e-05
1.700857e-05
3.055332e-06
2.479168e-05
2.118697e-05
-1.259955e-05
5.737876e-06
5.953166e-06
1.267918e-05
2.386147e-05
1.243082e-05
1.299255e-05
3.976236e-05
3.298569e-05
3.286723e-05
3.880511e-05
3.758003e-05
3.321565e-05
3.875008e-05
3.061088e-05
3.763528e-05
3.938894e-05
1.927135e-05
3.871085e-05
2.823736e-05
3.273769e-05
3.66252e-05
3.347624e-05
-8.85245e-06
9.485979e-06
1.436699e-05
-1.135796e-06
6.994583e-05
6.503956e-05
1.86957e-05
-1.907596e-05
2.821787e-05
5.047803e-05
3.902037e-06
2.993857e-05
2.970043e-05
7.538761e-06
9.058196e-06
2.625629e-05
1.758617e-05
2.969826e-05
2.876094e-05
2.235523e-05
5.302034e-06
9.052252e-06
2.462993e-05
2.690479e-05
2.604779e-06
2.837332e-05
1.078274e-05
3.339854e-05
4.628977e-05
9.108071e-06
2.283464e-05
4.051487e-05
3.178473e-06
2.023136e-05
1.978083e-06
1.217154e-05
2.538735e-05
2.862492e-05
3.590364e-05
1.491331e-05
-1.677277e-05
3.218436e-06
-1.366221e-05
2.384673e-05
1.652232e-05
1.311928e-05
1.434938e-05
4.16957e-05
1.91882e-05
3.922341e-05
2.036005e-05
1.226965e-05
-2.875143e-06
5.307456e-08
4.337816e-05
5.86105e-05
6.782906e-05
2.244059e-05
-7.534118e-06
2.621972e-05
2.714167e-05
1.985161e-05
2.950055e-05
2.922266e-05
-2.686147e-05
3.049342e-05
-1.104555e-05
2.582711e-05
-8.716061e-06
2.355511e-05
2.289823e-06
-7.887474e-06
3.835548e-05
3.671503e-06
7.340825e-06
3.619409e-05
2.263105e-05
3.978585e-06
2.731189e-05
2.634396e-05
3.751133e-05
1.194136e-05
1.06994e-05
1.017051e-05
1.127845e-05
4.4717e-05
4.30047e-05
3.51289e-05
3.712105e-05
3.496254e-05
3.565745e-05
3.455446e-05
2.695831e-05
7.436739e-05
2.877564e-05
1.100729e-05
2.770162e-05
2.758228e-05
-4.904369e-06
-2.02306e-05
4.443992e-06
1.616474e-06
2.302629e-05
5.193506e-05
1.331305e-05
2.501802e-05
4.341377e-05
7.896019e-06
6.090285e-06
-1.054795e-05
2.728496e-05
2.513532e-05
2.404723e-05
2.78699e-05
3.574168e-05
3.693886e-05
6.152834e-05
3.851297e-05
2.188817e-05
4.247084e-05
4.165403e-05
3.259358e-05
3.582226e-05
2.040955e-05
-4.787915e-06
-9.480253e-06
5.718809e-06
6.70351e-05
1.653501e-05
-3.720768e-06
-1.257998e-05
-1.269641e-06
1.846901e-05
1.313752e-05
2.465887e-05
2.763351e-05
-1.129052e-05
6.044442e-05
5.738488e-05
2.673526e-05
5.781733e-06
6.293845e-05
3.659828e-05
3.698344e-05
9.625495e-06
2.131992e-06
2.873693e-05
2.936816e-05
3.158396e-05
-1.644122e-05
-1.122271e-05
3.754958e-05
3.78436e-05
2.066042e-07
3.668908e-05
2.080331e-05
-1.889249e-05
-2.360171e-05
-1.471611e-05
3.219014e-05
-1.19728e-06
-1.422941e-05
-1.514692e-05
3.095415e-05
2.575216e-05
5.921206e-05
1.194226e-05
4.309899e-05
2.535705e-05
1.740982e-05
-6.00869e-06
-3.382134e-07
1.219577e-05
1.555634e-06
2.993091e-05
2.928769e-05
7.644428e-06
1.118768e-05
2.210232e-05
8.099683e-06
4.587151e-05
3.184754e-06
2.867075e-05
3.201629e-05
2.787972e-05
1.506498e-05
-1.095712e-05
-6.347428e-06
3.178472e-05
2.359022e-05
2.309935e-05
2.646213e-05
5.059393e-06
3.353361e-05
-1.024328e-05
1.256969e-05
6.023096e-05
1.654932e-05
5.30173e-05
-5.718409e-06
2.129327e-07
3.303404e-05
-1.676827e-05
-4.89433e-06
5.073888e-06
1.879001e-05
1.980385e-05
4.273239e-05
4.525846e-05
4.348139e-05
4.206709e-05
4.392549e-05
4.230625e-05
4.426492e-05
4.007652e-05
4.306726e-05
-1.294588e-05
-1.376594e-05
-6.135053e-06
-4.250459e-06
4.069321e-05
4.051114e-05
3.99722e-05
4.140965e-05
4.183612e-05
4.099478e-05
-3.314946e-06
-3.794259e-06
-2.534962e-06
-1.068841e-05
-1.25602e-05
2.658348e-05
6.807159e-06
3.471134e-05
-1.457531e-06
-2.546341e-05
5.087731e-05
-7.423671e-06
-7.171578e-06
-1.78863e-05
3.158848e-05
7.290113e-06
8.139374e-06
-4.260564e-06
-2.878415e-06
2.265609e-05
1.959309e-05
1.081502e-05
5.521508e-05
4.568997e-05
2.337081e-05
2.081595e-05
-2.434591e-06
1.422862e-05
2.238953e-05
2.304993e-05
-4.146535e-06
1.313867e-06
3.679082e-05
5.161129e-06
6.20591e-06
-2.042978e-05
4.820527e-09
-8.967352e-06
9.091137e-06
9.399421e-06
3.179414e-05
3.010596e-05
2.259473e-05
2.268129e-05
1.859108e-05
-5.536652e-06
-7.391249e-06
-4.436384e-06
2.810816e-05
2.876168e-05
2.863906e-05
-1.55761e-05
-1.695394e-06
-1.187704e-06
1.665918e-05
1.104568e-05
5.047678e-05
1.573316e-05
1.443063e-05
1.714015e-05
3.320688e-05
4.06194e-05
4.545172e-05
2.725575e-06
4.571535e-05
2.512395e-05
3.746007e-05
2.463392e-05
1.5589e-05
5.160123e-06
2.573437e-05
4.124958e-05
7.980111e-06
6.462695e-05
6.444497e-05
2.756942e-05
2.801982e-05
3.351695e-05
3.775563e-05
1.572619e-06
2.705612e-06
4.002997e-06
2.393453e-05
3.944458e-05
3.643931e-05
3.50633e-05
-8.140341e-06
9.075275e-07
1.327606e-06
6.539436e-06
7.625026e-07
3.197877e-05
3.2827e-05
2.645781e-05
2.664993e-05
3.99408e-06
4.463288e-06
-2.307079e-06
1.272501e-05
1.342943e-05
6.1494e-06
3.529844e-05
-1.466485e-06
-1.174581e-06
2.268232e-05
2.238897e-05
2.768913e-05
2.189206e-05
2.217347e-05
2.565825e-05
2.60276e-05
2.838125e-05
2.232054e-05
1.978568e-05
2.936496e-05
3.981372e-05
3.465873e-05
2.616754e-05
4.341817e-06
2.856094e-05
2.985193e-06
4.346469e-06
1.269788e-05
2.578473e-05
2.378858e-05
2.492895e-05
2.524087e-05
2.319542e-05
3.432327e-05
9.041398e-06
3.150683e-05
3.965783e-05
-1.943074e-05
2.361451e-05
2.316432e-05
2.271578e-05
1.658546e-05
1.643763e-05
-1.580554e-05
2.238047e-05
-8.152427e-06
2.456736e-05
-8.827221e-07
2.744526e-05
1.921563e-05
3.946268e-05
3.922789e-05
2.991996e-05
-2.567264e-07
-1.330331e-06
1.394214e-05
7.019516e-06
1.850852e-05
2.532433e-05
3.334896e-05
3.325991e-05
3.264696e-05
4.850252e-06
1.102451e-05
-9.546701e-06
3.870093e-05
3.886171e-05
2.746597e-05
2.580848e-05
8.278997e-06
-6.885996e-07
1.038329e-05
1.210059e-05
2.962075e-05
-3.456009e-05
3.052818e-05
3.051028e-05
4.776426e-05
4.764586e-05
3.31186e-05
-1.620181e-06
2.571192e-07
-1.039139e-05
1.890566e-05
1.889851e-05
3.184846e-05
5.384711e-05
-4.175312e-06
2.352269e-05
4.403602e-06
3.260638e-05
9.491506e-08
2.885198e-08
1.625359e-05
2.074637e-05
4.275431e-05
2.722366e-05
-2.135161e-05
-2.078252e-05
4.030041e-05
6.145421e-05
2.707958e-05
-2.087319e-05
-1.595688e-05
3.254527e-05
3.623214e-05
3.404886e-05
3.242608e-05
3.718186e-05
3.646918e-05
3.769039e-05
3.748172e-05
3.45831e-05
3.437733e-05
2.22892e-05
2.546905e-05
2.437666e-05
2.313162e-05
3.673107e-05
3.386334e-05
3.490242e-05
1.451633e-07
3.596303e-05
2.681759e-05
2.116618e-05
2.121909e-05
2.424399e-05
2.308997e-05
8.561243e-07
-8.841782e-06
1.56031e-05
4.06373e-05
3.773282e-05
-1.335506e-05
3.721618e-05
3.691106e-05
3.911402e-05
3.644144e-05
-2.535194e-06
4.2365e-05
-5.292056e-07
1.795388e-06
3.406106e-05
4.014e-05
3.822403e-05
3.844908e-05
3.709262e-05
2.201901e-05
4.971244e-05
6.195751e-05
9.566831e-06
1.046829e-05
5.753164e-06
1.679271e-05
1.917042e-05
1.961708e-05
4.872286e-05
2.190156e-05
7.514043e-07
2.627805e-05
2.87371e-05
1.140557e-05
3.309162e-05
3.374993e-05
3.69009e-05
3.273551e-06
2.81973e-05
2.73522e-05
-4.114083e-06
5.591821e-06
2.324117e-05
2.403426e-05
-4.759791e-08
6.404305e-05
1.087256e-05
1.073813e-05
9.838977e-06
1.070118e-05
4.908119e-05
5.422914e-05
4.482972e-05
2.33875e-05
-3.955905e-06
2.524954e-05
-1.215883e-05
-1.318577e-05
1.411384e-07
3.910095e-05
2.536261e-05
-5.264175e-06
2.394583e-05
2.567784e-05
-2.857238e-08
9.056092e-06
-1.110766e-05
-9.291075e-06
3.219792e-05
3.130841e-06
3.747872e-06
2.298864e-05
2.576256e-05
1.013038e-05
4.702055e-05
3.241012e-05
3.299673e-05
6.427968e-05
5.399633e-05
2.189695e-05
1.649737e-05
-1.303063e-05
2.792877e-05
3.596247e-05
3.593498e-05
-2.198581e-05
2.668564e-06
3.164629e-05
3.136633e-05
-4.308634e-06
-2.856699e-06
6.723412e-05
2.046306e-05
1.954591e-05
1.285307e-05
-7.38621e-07
1.443732e-05
-1.489591e-05
8.96718e-07
2.67695e-05
2.352136e-05
5.320815e-06
2.078301e-05
2.722241e-06
2.806275e-06
4.390976e-05
4.343524e-05
2.34466e-05
3.588206e-05
3.606016e-05
2.376564e-05
1.888453e-05
2.454092e-05
2.426498e-05
-5.561329e-07
2.767135e-05
3.114392e-05
4.322996e-05
3.279632e-05
1.141736e-05
1.122739e-05
3.780952e-05
3.592827e-05
-3.260402e-06
-3.853834e-06
2.43328e-06
1.290971e-05
1.04859e-05
1.495932e-05
1.614014e-05
5.644728e-05
2.802407e-05
-2.042168e-05
1.854014e-05
1.674587e-05
1.683111e-05
-9.193405e-07
2.244348e-05
1.609001e-05
4.415372e-05
4.249309e-05
6.24128e-06
1.319093e-05
1.419602e-05
4.324492e-05
3.567917e-05
3.397128e-05
3.377476e-05
-1.379652e-05
3.830451e-05
4.043101e-05
1.823884e-05
2.910936e-05
2.834355e-05
3.680334e-05
3.606553e-05
2.196915e-05
4.232147e-05
4.234531e-05
4.609255e-05
4.242023e-05
4.396196e-05
4.363047e-05
3.760933e-05
4.793824e-05
2.798654e-05
-4.435068e-06
3.873964e-05
-3.591185e-06
-5.352178e-06
2.659132e-05
2.349268e-05
9.982605e-06
9.756806e-06
1.085155e-06
3.438853e-06
4.06272e-05
-6.340611e-06
2.157683e-05
-8.840502e-06
5.307577e-07
3.718308e-05
-5.568582e-06
2.610411e-05
2.64933e-05
3.471278e-05
8.492276e-06
2.894513e-05
3.576279e-05
7.752842e-06
3.257229e-05
2.459167e-05
1.374325e-05
-1.648817e-05
-1.562355e-05
2.561212e-05
2.563307e-05
4.523754e-05
2.675327e-06
4.78806e-05
6.173948e-05
1.272363e-05
3.354217e-05
3.381953e-05
4.698633e-05
1.643842e-05
1.978878e-05
4.678478e-05
4.617206e-05
2.863569e-05
7.167635e-06
5.455039e-06
8.600302e-07
7.970245e-07
6.810944e-06
3.25767e-06
9.464067e-06
-1.448202e-05
2.020171e-06
1.685518e-06
3.929063e-05
6.343714e-06
4.519e-06
-3.829977e-06
-2.312125e-05
1.698377e-05
5.869276e-06
3.886197e-05
2.530354e-05
2.376471e-05
2.318931e-05
4.642934e-05
6.510166e-06
6.217245e-05
1.541245e-05
2.550095e-05
3.836153e-05
3.205939e-05
-1.838783e-06
2.070659e-05
-6.777588e-06
2.560924e-05
3.981177e-05
1.148209e-05
1.180923e-05
-5.123167e-06
2.545175e-05
3.104308e-05
-7.54771e-06
2.389269e-05
2.308811e-05
5.637098e-06
5.901273e-06
6.9219e-06
2.395214e-05
2.392384e-05
3.034285e-05
4.695617e-05
4.738502e-05
2.920093e-05
-7.254987e-06
3.666947e-05
2.109966e-05
2.039661e-05
3.354263e-05
3.342798e-05
1.021694e-05
4.171517e-06
-6.513346e-06
-6.152965e-06
-3.826644e-06
2.422222e-05
2.532704e-05
3.604376e-06
3.504478e-05
3.554902e-05
3.067574e-05
3.58789e-05
3.464883e-05
3.767447e-05
3.59231e-05
2.289758e-05
3.189939e-05
3.110334e-05
4.410479e-05
5.17344e-05
5.630734e-05
2.839072e-05
-6.586018e-07
-9.215888e-07
5.688932e-05
7.442231e-06
7.147911e-06
-8.334073e-06
3.04919e-05
6.329078e-05
3.72862e-05
3.721734e-05
5.335548e-07
3.325663e-05
3.461794e-05
-1.469771e-06
-6.90632e-06
3.162884e-05
1.923484e-05
3.598717e-05
2.405694e-05
2.367119e-05
4.599892e-06
2.882049e-05
3.587711e-05
3.491245e-05
-1.591345e-05
-1.176285e-05
8.91021e-06
8.637187e-06
3.885271e-05
3.88095e-05
9.246251e-06
4.287144e-05
1.089497e-05
1.010339e-05
1.14242e-05
1.08271e-05
-1.403157e-05
1.685439e-05
2.570553e-05
5.515689e-05
5.32259e-05
2.764197e-05
2.724066e-05
4.038438e-06
5.55187e-06
4.928962e-05
4.95466e-05
-8.873631e-06
3.573664e-05
2.681477e-05
2.611536e-05
2.684152e-05
2.711451e-05
-5.57188e-06
-1.476405e-06
4.708135e-06
7.348798e-06
-1.00462e-05
-7.215303e-06
-1.295993e-05
1.708935e-05
1.45255e-05
1.018057e-05
1.80807e-05
3.737148e-05
3.796627e-05
2.319798e-05
8.93397e-06
4.543849e-05
3.89201e-05
4.762081e-05
1.911932e-05
3.530882e-06
3.376302e-06
5.003309e-05
4.88291e-05
2.423562e-05
2.448632e-05
3.269078e-05
-1.9321e-05
-1.851382e-05
3.563274e-05
3.65396e-05
5.145128e-05
3.043865e-05
3.067538e-05
5.942643e-05
5.915031e-05
5.706638e-05
5.801221e-05
7.207665e-05
-2.148887e-05
2.015701e-05
1.801002e-05
2.976407e-06
-5.043354e-06
-1.152069e-06
1.922365e-06
-7.641113e-06
2.929922e-05
2.740264e-05
-1.476045e-05
5.650766e-06
3.512145e-05
3.076274e-05
1.335452e-05
8.816031e-06
3.274376e-05
-2.652121e-06
3.041524e-05
-1.316725e-05
-1.196738e-05
8.415737e-06
-3.591585e-06
2.546642e-05
-9.316854e-06
-1.370421e-05
8.096231e-06
-6.0208e-06
-5.634277e-06
1.757418e-06
5.672847e-07
-2.97488e-07
-2.919335e-06
1.210896e-05
1.300445e-05
2.271928e-05
4.23017e-07
2.197672e-07
6.614939e-06
3.790764e-05
3.982538e-05
4.015973e-05
3.948475e-05
1.341994e-05
1.363689e-05
7.748958e-06
6.280776e-06
-3.909718e-06
-5.219467e-06
-8.012448e-06
-6.253975e-06
-6.403729e-06
-7.299122e-06
2.060385e-05
2.390505e-05
2.441586e-05
2.2965e-05
2.276274e-05