/*--------------------------------*- C++ -*----------------------------------*\
| =========                 |                                                 |
| \\      /  F ield         | OpenFOAM: The Open Source CFD Toolbox           |
|  \\    /   O peration     | Version:  2406                                  |
|   \\  /    A nd           | Website:  www.openfoam.com                      |
|    \\/     M anipulation  |                                                 |
\*---------------------------------------------------------------------------*/
FoamFile
{
    version     2.0;
    format      ascii;
    arch        "LSB;label=32;scalar=64";
    class       volVectorField;
    location    "0.18";
    object      U;
}
// * * * * * * * * * * * * * * * * * * * * * * * * * * * * * * * * * * * * * //

dimensions      [0 1 -1 0 0 0 0];

internalField   nonuniform List<vector> 
4541
(
(0.01003201 -6.530503e-05 1.257963e-23)
(0.01044216 -0.0003634425 -3.761983e-24)
(0.01109666 -0.00107079 0)
(0.01142505 -0.00111048 0)
(0.01026875 -0.0004690162 -3.485907e-24)
(0.009573804 -0.0007758407 0)
(0.0101994 -0.0005844065 1.113308e-23)
(0.01021888 -0.0004695396 -2.735481e-23)
(0.009436702 -0.0004956833 1.596618e-23)
(0.0108553 0.0001663759 5.350044e-24)
(0.009535917 -0.0009090191 1.838087e-23)
(0.01031306 -0.0007983672 -1.090089e-23)
(0.01072942 -0.0002625343 8.29045e-24)
(0.01000423 -0.000380781 2.090745e-24)
(0.01136308 -0.001280705 0)
(0.01093003 0.0005665338 5.762814e-27)
(0.01027623 0.001083808 1.5175e-24)
(0.009811441 0.001121727 -1.012599e-24)
(0.01028208 0.001393895 -5.56547e-24)
(0.01088789 -0.001742136 4.470962e-24)
(0.01128572 0.0002855035 0)
(0.01040949 -0.0005870061 -1.287807e-23)
(0.01062319 0.0004617457 0)
(0.008652003 -0.0005532837 4.656795e-23)
(0.01065384 -0.001257583 0)
(0.01020468 -0.0004985962 8.602153e-24)
(0.01002188 -0.0004501894 -5.209124e-24)
(0.01016913 -0.0004036833 5.204639e-24)
(0.00945046 -0.00033903 5.821817e-24)
(0.01078499 -0.0003226573 0)
(0.01005969 -0.0003624965 -2.275351e-23)
(0.01000735 -0.0004044036 -2.470272e-24)
(0.01076437 0.0001324556 -2.317697e-24)
(0.009736009 -0.0004733866 -9.333364e-24)
(0.01063349 -0.0007747421 0)
(0.01048204 -6.982432e-05 0)
(0.01101765 -0.000988305 0)
(0.01103816 -0.0005018116 -1.670424e-24)
(0.009961435 -0.0003954753 -4.078451e-23)
(0.009606319 0.001373174 2.908215e-24)
(0.01051739 -7.866081e-05 0)
(0.009307425 -0.0003730091 -1.197579e-23)
(0.01053846 -0.0003084294 -2.836365e-24)
(0.01057381 0.000124742 -6.40413e-25)
(0.01077328 -0.0002044591 7.940943e-24)
(0.01086108 0.0001513362 -5.937766e-24)
(0.01097113 -0.0004439323 7.474205e-24)
(0.009508063 0.001911169 0)
(0.01091942 -0.001407998 0)
(0.01010439 -0.0005142971 5.831924e-26)
(0.009942949 -0.0007050829 0)
(0.01046651 0.0002303311 0)
(0.01017003 0.0006914217 3.678441e-25)
(0.01005714 -0.000516898 3.293362e-24)
(0.01051023 0.0009035557 -4.301583e-25)
(0.00995725 -0.001129216 2.410751e-23)
(0.0100194 -0.0001448292 7.283889e-24)
(0.009722124 -0.0001475911 2.556306e-24)
(0.0112843 0.0008167936 2.144087e-24)
(0.01060901 -0.000664543 5.407429e-24)
(0.009953876 -0.0004907536 0)
(0.01060523 -0.0004985541 0)
(0.01071573 0.001428401 0)
(0.007213318 -0.001842182 -1.011913e-23)
(0.009433439 -0.001073999 5.532533e-23)
(0.01022005 -0.002276439 -1.037976e-23)
(0.009864991 -0.0004721417 -1.048455e-23)
(0.0108053 -0.0001241167 1.421291e-23)
(0.01052301 0.0003616796 -1.321077e-24)
(0.01068858 0.001232955 0)
(0.01076117 0.001202483 1.7806e-24)
(0.01130096 0.0005322249 -1.635853e-25)
(0.01015015 -0.0005327907 0)
(0.0113143 5.401953e-05 1.688835e-24)
(0.009629899 -0.0003511022 2.887573e-23)
(0.01144635 4.384904e-05 1.806273e-24)
(0.01002568 0.0007905028 -1.127561e-24)
(0.009330834 0.001574 -4.928133e-25)
(0.0114427 -0.0008428086 3.486567e-24)
(0.00985113 -0.0002073817 -2.196482e-23)
(0.01119092 0.000993389 0)
(0.01139274 -0.001133938 -3.928581e-24)
(0.009857265 -0.0006612107 1.818375e-25)
(0.01102842 -0.0001491282 6.160525e-24)
(0.01002577 -0.0002400432 0)
(0.01052578 -0.0008439206 8.675039e-24)
(0.01066013 -0.0006493934 0)
(0.01094395 0.0008553431 1.274264e-23)
(0.01048706 0.001237138 -1.749808e-24)
(0.01103022 0.0005646979 0)
(0.01007225 -0.0001157332 -1.383697e-23)
(0.01048218 0.001450699 -8.580078e-24)
(0.009464556 0.001311388 0)
(0.01020468 0.001046168 0)
(0.01013176 -0.0007545468 2.187229e-23)
(0.009291845 0.001686299 4.724193e-24)
(0.01057748 -0.001362187 8.027742e-24)
(0.01050765 -0.0003396596 -6.108077e-24)
(0.0103529 -0.0004563528 -2.113726e-23)
(0.01034767 -0.0007058352 -5.075066e-24)
(0.01018431 -0.001013024 1.235756e-23)
(0.01040453 -8.802474e-05 0)
(0.009731466 -0.0004308219 -9.172596e-24)
(0.01162915 0.0001260649 -8.513551e-26)
(0.01048162 9.438589e-05 5.550394e-24)
(0.01000126 -0.001016469 -4.247279e-23)
(0.009435601 0.001198647 3.176408e-24)
(0.01060982 -0.0001245348 -1.757587e-23)
(0.01066314 -0.0004625761 -7.559204e-24)
(0.01118561 -0.0002380348 -3.264747e-24)
(0.01031779 -0.0004022449 4.846895e-24)
(0.009985301 -0.0001519807 -2.55437e-23)
(0.01071243 0.0001389479 0)
(0.01041591 0.0003611902 -7.819791e-25)
(0.009869458 -0.0003779052 5.745208e-26)
(0.01002041 -0.001342965 -1.921595e-23)
(0.01007354 -0.0006593942 0)
(0.0104291 0.001134918 0)
(0.009990281 -0.0006299728 2.687493e-23)
(0.009288714 -0.0005342175 2.21024e-23)
(0.01048077 0.0001474393 4.381883e-24)
(0.01049531 0.0003412096 0)
(0.009811661 -0.002092016 -1.928294e-23)
(0.01151269 0.0004698103 5.236325e-25)
(0.01033463 0.0007546327 5.699715e-25)
(0.01062536 -0.0004231914 0)
(0.008524838 -0.00165457 0)
(0.008159637 -0.002158885 2.855511e-23)
(0.01041632 -0.0004192911 -1.803824e-24)
(0.009397309 -0.001025951 4.109344e-25)
(0.009621563 -0.0005054351 1.102389e-23)
(0.01044017 -0.0009268055 7.995199e-24)
(0.01009084 -0.0005548722 2.614728e-23)
(0.0106622 -0.000412232 -8.834816e-24)
(0.01085703 -0.001876734 -2.866493e-24)
(0.007281227 -0.001246668 0)
(0.01091627 0.0001563101 4.022506e-24)
(0.01016528 -0.0004720007 -6.544331e-26)
(0.0100698 -0.001711081 8.900941e-24)
(0.01084321 -0.0001987884 -4.627635e-24)
(0.01011514 -0.0005069266 9.57681e-24)
(0.01014136 0.001194618 1.510155e-24)
(0.009432413 -0.0006775075 -1.688553e-23)
(0.01010859 0.0007002976 -8.050549e-25)
(0.01072663 -0.0005731491 -5.718904e-24)
(0.009363036 -0.001637292 4.630698e-24)
(0.009262568 -0.0006997285 -1.436074e-23)
(0.009976067 -0.000330888 0)
(0.01157135 -0.0001052252 0)
(0.009813809 -0.0003607575 -6.13296e-24)
(0.01031417 0.0005457754 -1.093613e-26)
(0.01147366 -0.0009593887 -6.598495e-24)
(0.010093 -0.0007973995 0)
(0.01074007 -0.001205683 1.832492e-25)
(0.01025435 -0.0004848126 -7.883079e-24)
(0.009493262 -0.0004949952 0)
(0.009483119 -0.0007767902 9.049578e-24)
(0.009849863 0.001595257 -7.356939e-24)
(0.009996531 -2.35346e-05 -1.593093e-23)
(0.01104003 -0.0003635819 5.543023e-24)
(0.01006276 -0.000678526 -1.978762e-23)
(0.01033671 -0.000649056 -1.157956e-24)
(0.009135822 -0.00111801 -1.600651e-25)
(0.01053341 0.001419362 7.093262e-24)
(0.01086945 5.621427e-05 5.0835e-24)
(0.01063876 0.0004093467 0)
(0.00951321 -0.001366942 0)
(0.01071468 -0.0008687636 1.002119e-23)
(0.01020384 -0.002354685 1.240963e-23)
(0.009809192 -0.0003045893 -2.481376e-23)
(0.009755382 -0.0003097421 -1.404172e-23)
(0.01037896 0.0004556491 0)
(0.01103106 0.001179694 0)
(0.01044789 0.0004797299 -3.01485e-25)
(0.01028126 0.0006991703 0)
(0.0108184 -0.000331746 -6.311388e-24)
(0.009263575 0.001194276 0)
(0.01025488 -0.0007160424 7.399675e-24)
(0.01090718 -0.001186061 -5.991051e-24)
(0.009623931 -0.0004024688 9.750393e-24)
(0.01069844 0.0009082026 -9.570329e-25)
(0.007844909 -0.00226795 -1.908247e-23)
(0.01107582 8.855038e-05 2.579802e-24)
(0.01020816 -0.0003950867 1.893787e-23)
(0.0106716 -0.001631985 0)
(0.01072934 0.0004114155 -8.389457e-25)
(0.01064778 -0.000125485 6.235605e-24)
(0.009863803 -0.0005100945 -3.698574e-23)
(0.01080443 8.331541e-05 0)
(0.009727203 -0.0003614231 6.136826e-24)
(0.01050537 -0.0007688934 0)
(0.01160309 -0.0005090996 0)
(0.01044205 0.0003888977 3.987527e-25)
(0.01129216 0.0003170778 -4.62272e-25)
(0.01066919 0.001086961 -2.002953e-24)
(0.01077391 -9.383023e-05 0)
(0.01015338 -0.0008452908 -1.100318e-23)
(0.009605908 0.00170745 -3.262651e-24)
(0.009275856 0.001633735 -5.910201e-24)
(0.01024952 0.0007465239 -6.938614e-25)
(0.01122049 -0.0001784813 -1.996036e-25)
(0.007952473 -0.001046078 -1.216747e-25)
(0.01023852 -0.0006118148 -1.120416e-23)
(0.01077968 0.0006148949 0)
(0.01053582 0.0001251418 4.621504e-24)
(0.01051918 0.0005755584 0)
(0.01096774 -0.001222266 -4.214488e-24)
(0.01050508 0.0009379264 0)
(0.01019106 -0.000931457 0)
(0.01084373 -0.0005203998 -4.178267e-24)
(0.01004595 -0.0004172424 0)
(0.01080932 0.001353973 0)
(0.01070704 -0.0005330215 0)
(0.01053764 -0.001866075 -1.004162e-23)
(0.008853489 -0.0008783069 2.54677e-23)
(0.01040831 -0.0008300288 0)
(0.01106478 0.000613114 8.265008e-25)
(0.01052978 -0.0004017268 0)
(0.008303441 -0.001774847 -2.762563e-23)
(0.009068645 -0.001637195 -1.686805e-24)
(0.006555519 -0.001078943 5.891007e-23)
(0.01100349 0.0004581871 -7.795814e-25)
(0.00973945 -0.0005171025 -2.571745e-23)
(0.01008722 -0.00103841 -8.400405e-24)
(0.01104399 0.0001895713 1.072059e-23)
(0.009998096 -0.0004377902 0)
(0.01111721 0.0004874148 5.956923e-25)
(0.01086941 0.0004385083 8.720551e-25)
(0.0102256 0.0008898009 0)
(0.009888837 -0.0002312095 0)
(0.01034911 -0.0006109959 -9.740316e-26)
(0.01019521 -0.0003470592 7.430511e-24)
(0.01073664 0.000365608 1.700472e-24)
(0.009664386 -0.0004762633 2.11791e-23)
(0.008054396 -0.002438606 0)
(0.009688758 0.001867249 0)
(0.01125627 -0.001375977 3.396908e-24)
(0.0106721 -0.0001888999 2.198574e-24)
(0.009999996 -0.0002961275 -1.73257e-23)
(0.0098907 -0.0005292755 -2.476533e-23)
(0.01018246 -0.0003397784 2.387032e-23)
(0.01022822 0.0006202283 3.100835e-25)
(0.01063486 -0.002014685 -8.179767e-24)
(0.00978284 -0.0005790098 0)
(0.009838727 -0.0007332566 0)
(0.01018801 -0.000386508 2.416224e-23)
(0.01032543 -0.0005543692 1.772322e-23)
(0.01056014 -0.0005529407 2.764463e-24)
(0.01102249 0.001178185 1.682372e-24)
(0.01020809 -0.0002946415 -1.265622e-23)
(0.01000674 -0.0004425427 0)
(0.00924944 -0.0007997634 5.846153e-24)
(0.0105843 0.0007084569 -2.768423e-26)
(0.01076211 0.0002947299 0)
(0.009621962 -0.001167319 0)
(0.01024433 -0.0001909675 0)
(0.009713159 -0.0005189791 1.859493e-23)
(0.01029323 0.0005784533 -2.268009e-26)
(0.01007518 0.0007062215 1.071337e-24)
(0.01074967 0.0006423772 1.310964e-25)
(0.009676322 -0.0004076034 -2.797229e-23)
(0.01025464 -0.0005868507 -5.280295e-24)
(0.01069223 0.0002547974 3.753663e-24)
(0.007947003 -0.001460634 0)
(0.01015825 -0.000524323 1.2977e-23)
(0.01059229 0.0005637799 3.862431e-24)
(0.01015329 -0.0004118791 9.858667e-25)
(0.009563209 0.001837072 0)
(0.01087671 -5.755288e-05 4.275381e-24)
(0.01038683 0.001354859 -3.543131e-24)
(0.01097574 0.001029062 -1.117799e-23)
(0.01072472 -0.000379334 -1.140896e-23)
(0.009471139 -0.0005466338 1.335557e-23)
(0.009920678 -0.0005871514 -1.187915e-23)
(0.01080927 0.000324747 5.121191e-24)
(0.01071337 0.0005062983 -1.179499e-24)
(0.008894399 -0.002649323 -1.419395e-23)
(0.01000645 0.0009895058 3.759187e-24)
(0.01095453 -0.001079644 1.352157e-23)
(0.01065714 -0.001064106 -1.17929e-23)
(0.01020786 -0.001401625 1.950225e-23)
(0.01032146 0.001190049 0)
(0.01009959 -0.0001141648 1.312915e-23)
(0.01094278 -0.0004916537 0)
(0.01040655 0.000674959 -2.740576e-25)
(0.01163315 -0.0001267156 3.112346e-24)
(0.01046592 -8.591174e-05 7.176999e-24)
(0.009984586 0.001233707 3.402115e-24)
(0.01102844 0.001066938 0)
(0.009553373 0.001479476 3.9664e-24)
(0.01012861 -0.0005910841 7.788856e-24)
(0.01016476 -0.0004818168 1.070875e-23)
(0.00951497 -0.0008200731 0)
(0.009895733 0.00161229 8.116412e-24)
(0.01043041 0.001479836 2.406866e-24)
(0.01015904 -0.0004510228 8.301696e-24)
(0.0100108 -0.001074213 -2.063124e-23)
(0.01011682 -0.0003375275 5.168843e-24)
(0.009898765 0.001292617 0)
(0.01076935 -4.154411e-05 -2.674495e-24)
(0.01063479 0.0008182335 -6.293567e-25)
(0.009815294 -0.0009552673 -2.7343e-23)
(0.01024464 -0.000378884 0)
(0.01115495 -0.0004098736 -1.306211e-23)
(0.01080901 -0.0001814283 1.618131e-23)
(0.00892028 -0.0005853805 6.707572e-26)
(0.009151333 -0.0006058857 2.376149e-23)
(0.00993593 0.001210874 -3.070437e-24)
(0.01027497 0.0006184654 1.560051e-26)
(0.01048143 0.0008599815 1.456484e-24)
(0.0108013 -0.0004850294 -9.017385e-25)
(0.01079334 0.0001227037 2.336319e-24)
(0.009978022 -0.0003019555 -1.275055e-23)
(0.0109118 0.0002950072 0)
(0.009353027 -0.002255319 3.08241e-23)
(0.009887985 -0.0001721975 0)
(0.01033575 0.00066283 0)
(0.009320134 -0.0004101089 0)
(0.01059939 0.0004538921 0)
(0.007338512 -0.0005840037 0)
(0.01114624 7.421442e-05 0)
(0.01038303 -0.001010391 -1.21053e-24)
(0.01070574 0.0003002882 2.711733e-24)
(0.01044697 -0.0004004477 -1.894138e-23)
(0.009825147 -0.001698982 -2.465023e-23)
(0.01007883 -0.0004925058 7.736793e-24)
(0.01055672 -2.80701e-05 -1.825475e-25)
(0.01036781 -0.0006411363 1.152607e-23)
(0.01035214 -0.0004810139 3.733899e-26)
(0.009824322 -0.0007713986 1.553651e-23)
(0.01029666 -0.0003542881 -1.613e-24)
(0.01078054 0.0006767525 -5.065237e-25)
(0.01090114 0.0007758522 0)
(0.01017923 -0.0006479253 -1.457167e-23)
(0.01026326 -0.0005713343 3.552695e-24)
(0.01038232 -0.001510695 1.175236e-23)
(0.009558107 -0.001599526 0)
(0.009763648 -0.001593582 -2.712561e-23)
(0.01084665 0.0003897231 1.967935e-24)
(0.01068059 9.444683e-05 0)
(0.01023515 -0.0006266594 0)
(0.009923069 -0.002333331 0)
(0.009764815 -0.0006586216 7.45517e-24)
(0.01021591 -0.0003149778 0)
(0.007631545 -0.001498299 -1.68862e-23)
(0.01125433 -0.0008303042 -3.689827e-24)
(0.01068825 0.0001882107 7.053645e-24)
(0.01062091 -0.0008150338 1.132015e-23)
(0.01042655 0.0006254875 -1.522906e-25)
(0.01085092 -0.001234268 9.094835e-25)
(0.01082603 0.0007506915 1.398605e-25)
(0.01092094 -2.481163e-05 -4.582927e-24)
(0.01135358 0.0007431919 0)
(0.01002771 -0.0004991806 -1.734948e-23)
(0.01083144 0.001017722 6.318311e-25)
(0.01037536 -0.0004840497 0)
(0.009852631 0.001013108 0)
(0.01039875 0.0009013527 0)
(0.01007866 -0.0003768725 -9.192083e-24)
(0.01062449 0.0004825952 3.24688e-25)
(0.0111992 0.0002354885 -2.890989e-25)
(0.01163554 -0.0005027002 0)
(0.01112054 -0.0003161997 3.878912e-24)
(0.01008386 -0.000333176 5.82547e-24)
(0.0115965 0.0001720541 -1.63753e-24)
(0.009872981 0.001668605 -8.798905e-25)
(0.01123397 -0.001461438 -8.686554e-24)
(0.01001368 -0.000530472 1.578887e-23)
(0.01039876 -0.0001465049 -5.530638e-24)
(0.01087664 0.0009069738 0)
(0.01061761 0.000983342 1.860858e-24)
(0.007351172 -0.001711357 -1.56777e-23)
(0.01067963 -0.0001483386 -9.614951e-25)
(0.01061886 0.001375029 -3.633107e-24)
(0.01060117 -0.0005698215 0)
(0.01044404 -0.001756071 0)
(0.01038413 -0.0006219893 -1.090985e-25)
(0.01018405 -0.0008016179 1.322172e-23)
(0.01127989 -0.0002856565 -8.911119e-25)
(0.01048074 -0.0009287949 1.688033e-23)
(0.009918155 -0.0005215635 0)
(0.0111421 0.001053491 -3.159447e-24)
(0.009635398 0.001279742 4.328988e-24)
(0.01055747 0.0003520518 -1.277314e-24)
(0.01096491 0.001227075 -6.882637e-24)
(0.008332282 -0.002692295 1.693525e-23)
(0.01020654 0.0007113615 0)
(0.01103899 -0.0005448699 3.754841e-25)
(0.009746991 -0.0007624151 -1.950218e-23)
(0.009881721 -0.0004854193 1.988266e-23)
(0.01129733 -0.0001293152 3.128456e-24)
(0.01145153 -0.0002561512 -6.223421e-25)
(0.009355885 0.001228226 0)
(0.009775581 -0.0002348849 -3.731206e-23)
(0.01031498 -0.0004273629 1.052688e-23)
(0.009708804 -0.0006687605 4.010703e-24)
(0.009802274 -0.0004577744 2.983469e-26)
(0.01051101 0.001155516 2.240338e-24)
(0.01070171 -0.0001436344 -1.351429e-23)
(0.01030103 -0.0003777819 0)
(0.01112379 -0.0001727207 -2.231436e-24)
(0.01149206 -0.0004478316 -1.568305e-24)
(0.01009268 -0.0006620301 0)
(0.01022899 -0.00106757 8.989812e-24)
(0.009548743 -0.0004281833 -1.709259e-23)
(0.01130189 0.0008747482 -2.264786e-25)
(0.01106638 0.001126736 9.096579e-24)
(0.01100683 -0.0001689986 -3.319421e-24)
(0.0110185 0.0007424643 0)
(0.01043294 -0.0003819544 9.350624e-24)
(0.01094287 -0.0002577482 3.350641e-24)
(0.01000242 0.001478094 0)
(0.01058859 -0.0004399974 0)
(0.00948173 -0.001959128 0)
(0.009741696 -0.0009465819 1.633321e-23)
(0.01085196 -0.0002338561 1.432124e-23)
(0.01065893 0.0002970836 4.087162e-24)
(0.01134076 -0.0002602175 4.729292e-24)
(0.01165368 -9.734534e-05 2.334569e-24)
(0.0113392 -0.0009915507 -7.744979e-24)
(0.00889608 -0.001266041 0)
(0.008427721 -0.0009140927 -3.964275e-23)
(0.01046511 0.000290356 2.846519e-24)
(0.009690367 -0.0002302186 2.335176e-23)
(0.009913156 -0.0008711852 -1.800026e-23)
(0.01153664 -0.0007281451 -2.357568e-24)
(0.01151143 -0.000936202 5.445367e-24)
(0.01153826 -0.0005857045 8.167591e-24)
(0.01004416 -0.0006104836 1.498128e-23)
(0.009623748 -0.002550656 0)
(0.0108334 0.000320393 -2.516149e-24)
(0.009654783 -0.0009060028 0)
(0.01102772 -0.001562541 0)
(0.01034486 0.0006226185 -6.091368e-26)
(0.01053239 7.008966e-05 -3.677573e-25)
(0.01001367 -0.0006554727 -7.67744e-24)
(0.01164958 -1.147152e-05 -1.454161e-24)
(0.009036121 -0.001196542 -6.563173e-24)
(0.01061069 -0.0006176523 -9.501094e-24)
(0.01064221 -0.0003306204 3.992327e-24)
(0.01041229 0.001103771 1.835848e-24)
(0.009714419 -0.0003030583 2.526688e-23)
(0.01070395 -0.001124179 1.861903e-23)
(0.01044443 0.0003173675 -1.39231e-23)
(0.01031482 -0.0007127781 4.860105e-24)
(0.0104735 -0.001631001 1.096424e-23)
(0.01075526 -0.0001777445 1.82242e-23)
(0.008580732 -0.001976153 0)
(0.01009726 -0.0004947777 -1.844238e-23)
(0.01047013 8.39007e-06 0)
(0.01119349 -0.0001390515 -3.130434e-24)
(0.0101242 -0.0004184397 0)
(0.01002841 0.0008719435 0)
(0.01099776 0.0006846543 7.636108e-27)
(0.01068689 0.0003205728 0)
(0.009985986 -0.0004096547 3.078452e-23)
(0.01001485 -0.001133422 0)
(0.01037544 -0.000695084 0)
(0.009711688 -0.001055038 -1.704869e-23)
(0.00996974 -0.000893647 2.030262e-23)
(0.01084998 0.001203466 2.794603e-24)
(0.01097097 0.0004585536 -8.706365e-25)
(0.01018779 -0.001124621 1.143722e-23)
(0.01053895 0.0009407675 0)
(0.01111074 -0.0008695954 4.816755e-24)
(0.01047272 0.001201811 -2.558455e-24)
(0.01127589 0.0007233789 -5.017922e-25)
(0.01076408 -0.0005991253 -1.860036e-23)
(0.01008413 -0.001402478 -1.281666e-24)
(0.01070962 -0.001564442 0)
(0.01094386 -1.137352e-05 5.643187e-24)
(0.01124003 0.0003835047 -4.261585e-25)
(0.01147138 7.156214e-05 0)
(0.009066412 -0.0005140435 -3.214583e-23)
(0.01038689 -0.0003863488 0)
(0.0109574 0.0005271792 0)
(0.009890372 0.001822898 -8.70098e-24)
(0.01013685 -0.0005283583 5.339477e-24)
(0.01005014 -5.461144e-05 -2.077772e-23)
(0.01012808 -0.0002679761 0)
(0.01047401 0.0003064642 0)
(0.009349979 0.001769223 4.670748e-25)
(0.01027188 -0.0005004464 6.526337e-24)
(0.008965872 -0.002793795 1.14368e-23)
(0.01107816 3.078786e-05 2.156773e-24)
(0.009699867 -0.0005397329 1.82499e-23)
(0.009974645 -0.0006405701 -1.787398e-23)
(0.0103933 -0.001085456 -1.389875e-23)
(0.009817268 -0.0001430388 -1.434406e-23)
(0.00972443 -9.508203e-05 -3.641854e-26)
(0.01014843 -0.0001955864 0)
(0.01087312 0.0003333649 0)
(0.01117617 -0.0003286914 -1.112811e-25)
(0.01063808 0.0001232346 -4.891708e-24)
(0.01044113 -0.0003149928 -1.418816e-23)
(0.008164804 -0.0005359734 1.339302e-23)
(0.01004907 -0.0003061244 9.187395e-24)
(0.009732546 -0.0003929855 0)
(0.01138232 -0.000994699 1.245345e-23)
(0.01060391 -0.0003562557 0)
(0.01044704 -0.001533713 1.30726e-23)
(0.01022335 -0.0003523046 1.091419e-23)
(0.01007513 -0.0003933897 1.743441e-23)
(0.008975536 -0.0004541846 1.253189e-23)
(0.01043151 0.0004787441 -1.212195e-25)
(0.01032787 -0.0003387508 9.451832e-24)
(0.009849457 -0.001180498 -2.762579e-23)
(0.01099351 -0.0008408426 -3.123711e-24)
(0.01003988 -0.0002918357 -3.891268e-25)
(0.01083752 -0.001879713 0)
(0.0107943 0.001257352 -2.818651e-24)
(0.01095425 0.0001027605 -1.839216e-24)
(0.01037484 0.0005717535 -2.620623e-25)
(0.01051546 -0.001300916 9.267405e-24)
(0.01040694 -0.001132829 0)
(0.01105636 0.000993147 0)
(0.01053882 0.0003441678 0)
(0.01010819 -0.0004153952 3.065833e-23)
(0.01042807 0.0004094937 -1.264549e-24)
(0.009639892 -0.002606882 -2.534912e-23)
(0.01006208 -0.0005060134 0)
(0.01126816 0.0005306451 0)
(0.009290607 -0.001879644 0)
(0.009187682 -0.002612852 0)
(0.01004302 -0.001499196 -3.588071e-23)
(0.009806557 -0.001866975 0)
(0.009853709 -0.001244819 6.274155e-24)
(0.01011316 -0.0002177566 5.69321e-24)
(0.01013039 -0.0004572026 1.026077e-23)
(0.01022114 -0.0005730267 1.030376e-23)
(0.01048201 -0.001180481 -1.621945e-23)
(0.006283735 -0.001236973 3.533935e-23)
(0.01060657 -0.0007518664 3.136601e-25)
(0.0106949 -8.580697e-06 0)
(0.01060512 0.0003781368 0)
(0.009973954 -0.0005804058 0)
(0.01074447 -4.541613e-07 1.110927e-24)
(0.0103943 -0.0008908077 5.871413e-24)
(0.01016336 -0.0004301846 -1.406633e-23)
(0.008453823 -0.0008180732 2.666952e-23)
(0.01053334 0.0003258598 -4.344114e-24)
(0.01058825 -0.0004756658 0)
(0.01052911 -0.001114083 0)
(0.009442914 -0.0005863775 -2.485318e-23)
(0.008547953 -0.000788222 -2.495838e-23)
(0.009995037 -0.0003309057 -8.721265e-24)
(0.0110443 0.0009859134 1.556484e-24)
(0.01009092 -0.0002878088 6.14459e-24)
(0.006747655 -0.002460625 -6.52411e-23)
(0.00893085 -0.002431002 -3.202387e-23)
(0.01060628 -0.0003011433 -6.577375e-24)
(0.01015285 -0.0003721206 4.316572e-24)
(0.01062155 -0.0005664239 6.70402e-24)
(0.009678118 -0.0001650085 -4.219011e-23)
(0.01052934 0.0002156066 -5.099635e-24)
(0.009990122 -0.0002557633 1.071138e-23)
(0.009441927 -0.002665036 -2.101555e-23)
(0.01055833 0.0004927772 -1.30724e-24)
(0.01065767 -0.0003040435 -7.702751e-24)
(0.009748722 -0.0007820038 1.829858e-23)
(0.01113534 -0.0002824487 -7.601406e-24)
(0.009991444 -0.000788176 0)
(0.0108417 -0.0008633115 -7.249751e-24)
(0.008767177 -0.0006276649 0)
(0.0103927 -0.0004616645 0)
(0.009909888 0.00149932 0)
(0.01156128 0.0001678923 3.261744e-25)
(0.01145586 0.0006279362 0)
(0.0106344 -0.0003840858 -2.835144e-24)
(0.01116962 0.001004735 2.702303e-24)
(0.01089969 0.0009153597 -6.515397e-25)
(0.01121856 0.0004338409 1.989483e-24)
(0.008576205 -0.002380407 -3.300759e-24)
(0.01020259 -0.0004868582 -1.493095e-23)
(0.01070259 0.0004772837 -7.551534e-26)
(0.01039886 0.0007193047 0)
(0.01043625 0.0005586852 0)
(0.01039906 0.000650141 1.310524e-25)
(0.01046232 0.0006504389 -1.746946e-25)
(0.01082029 -0.0002612559 0)
(0.01107166 -0.0004770746 6.421718e-24)
(0.01000975 -0.0001456302 -1.080521e-23)
(0.01079561 0.0001588512 8.617443e-25)
(0.01080538 0.0001327963 0)
(0.01011846 -0.0004002762 6.271497e-24)
(0.01083932 0.0001971327 0)
(0.01035562 0.00111183 -1.717134e-24)
(0.009171546 -0.000737059 0)
(0.01042916 -0.0003436967 1.202281e-23)
(0.01004607 -0.0005576003 1.399143e-24)
(0.01004643 -0.0004545073 1.52016e-24)
(0.01001078 0.0007643509 2.231625e-24)
(0.01024973 0.0006342565 7.821888e-26)
(0.01022261 -0.001226891 7.492702e-26)
(0.009967687 -0.00132355 4.436085e-23)
(0.01107261 -0.00161892 -7.733679e-24)
(0.01042409 0.0001381187 -1.864677e-24)
(0.009405749 -0.0007204476 3.233108e-23)
(0.0110345 -0.0002394325 -8.657256e-24)
(0.01003299 -0.000304294 1.210861e-23)
(0.01003872 -0.0003359437 -1.25845e-23)
(0.01063339 0.0003436784 2.503936e-24)
(0.01046574 -0.0001558544 9.594803e-24)
(0.01027753 0.000761217 7.745553e-25)
(0.0100805 0.0007557666 0)
(0.01042993 0.0001937023 -9.514344e-25)
(0.01084493 -0.0006945986 0)
(0.0103438 -0.0004926795 1.202163e-23)
(0.01012522 -0.0006832214 -9.123137e-24)
(0.01004847 0.0009770547 0)
(0.009808601 -0.0005452596 2.182746e-23)
(0.01005443 -0.0004643356 0)
(0.01062008 0.001053078 -4.876504e-24)
(0.01069086 0.0003008221 -1.274477e-24)
(0.01017177 -0.0005907274 0)
(0.01018547 -0.0004808764 -2.456174e-23)
(0.01004201 -0.0009203928 0)
(0.01043907 0.0003447608 -1.293441e-24)
(0.01160562 -0.0002493302 4.085287e-25)
(0.009750963 -0.000554081 0)
(0.009189764 -0.0007957056 6.813966e-25)
(0.01120571 0.0007929184 0)
(0.01000872 -0.0004876596 2.962497e-24)
(0.009701329 -0.0004966398 -2.905701e-23)
(0.009883638 -0.0004504521 0)
(0.01047677 0.0002701259 -2.435084e-24)
(0.009520861 0.001220208 -3.094101e-24)
(0.008740085 -0.000390822 1.367952e-23)
(0.009897468 -0.0003474817 -1.542277e-23)
(0.009580163 -0.0005417453 2.670467e-23)
(0.01031853 0.0005893287 4.557605e-26)
(0.0104707 0.0007705436 0)
(0.01064621 -0.0002772496 2.648374e-24)
(0.009219097 -0.002477249 1.076249e-23)
(0.0106742 0.0002655816 -2.499606e-24)
(0.01085334 -0.0006605626 0)
(0.01002912 0.001586725 -8.935155e-24)
(0.01066528 -0.000529893 1.517653e-23)
(0.01069687 0.0003787485 3.592109e-25)
(0.01026161 -0.0007927334 -8.685137e-24)
(0.01076303 0.001351459 3.661017e-24)
(0.009949683 -0.00038428 1.15294e-23)
(0.01001598 -0.0007675652 0)
(0.01049298 0.0003774111 2.270084e-24)
(0.01105608 0.0005260976 -1.234877e-24)
(0.01031986 -0.0005187696 0)
(0.01025491 -0.000509923 1.763175e-23)
(0.009591488 -0.0004550597 -3.117525e-23)
(0.009709867 -0.0004329327 -4.832051e-26)
(0.01039925 -0.0005194653 -4.378433e-25)
(0.01059698 0.0005747537 7.481597e-25)
(0.01108233 -0.0007058597 2.236093e-24)
(0.01064939 0.001057243 0)
(0.01025414 -0.0001221786 0)
(0.01055954 0.0002459028 -3.979879e-24)
(0.01016553 -0.0002568705 -1.205606e-23)
(0.009625782 -0.0002140616 -3.043138e-23)
(0.01109758 0.0006649518 2.667846e-26)
(0.009998209 -0.000690796 0)
(0.01041087 -0.0002040764 0)
(0.01132793 0.0006031609 -2.931915e-25)
(0.01159835 -0.0006597063 4.22936e-24)
(0.01015088 0.0008824429 -1.358445e-24)
(0.01111117 -0.0005313292 -4.93452e-25)
(0.009936733 -0.0003990518 0)
(0.01000044 -2.882227e-05 0)
(0.01134462 0.0003452582 0)
(0.01143223 0.000174137 4.669395e-25)
(0.009769472 -0.000261755 3.270456e-23)
(0.00968609 -0.0002542672 -4.231842e-23)
(0.01041571 -0.0006462921 -3.250431e-23)
(0.01145821 -0.0003139842 5.596211e-24)
(0.0106132 -2.142769e-05 -4.154248e-24)
(0.0106695 0.0001185236 3.127179e-24)
(0.01051002 4.618194e-05 -6.858374e-24)
(0.01084647 -0.0001646593 1.265812e-23)
(0.01119648 3.231661e-07 -5.839928e-24)
(0.01102324 -6.569408e-05 6.04873e-24)
(0.009894723 -0.000109906 0)
(0.009521656 -0.0002548439 -1.844493e-23)
(0.01082974 0.0002765888 -3.246023e-24)
(0.00988889 -0.000369354 1.491683e-23)
(0.01069066 0.001268313 0)
(0.01045373 0.0004212635 0)
(0.01000281 -0.0004720739 1.1142e-23)
(0.009976106 -0.0004488851 8.501278e-26)
(0.01006879 -0.0001758129 -2.135558e-23)
(0.009893301 -0.000603026 1.878624e-23)
(0.01017463 -0.0006894949 3.240331e-23)
(0.009642702 -0.000712614 1.784666e-23)
(0.009645774 -0.0006745362 -4.805189e-23)
(0.01037817 0.001616145 -9.515736e-25)
(0.01011404 0.001587065 8.939974e-24)
(0.01007305 0.0008313496 1.459871e-24)
(0.01068834 0.001190345 0)
(0.01042825 0.0009518438 0)
(0.01055311 0.0005306942 9.080825e-25)
(0.01063372 0.0006080893 1.159452e-24)
(0.0102575 0.001040951 -1.387226e-24)
(0.009943311 -0.0007307748 8.300265e-24)
(0.01015337 -0.0004016829 -4.423197e-24)
(0.01009342 -0.0003855408 -1.474669e-26)
(0.01007017 -0.0004111503 1.037019e-23)
(0.01124434 7.351208e-05 1.387868e-24)
(0.0104806 0.0008896375 3.311044e-25)
(0.01046892 -0.001067138 0)
(0.01039386 -0.0005510743 8.777655e-26)
(0.01037218 -0.000531992 3.15623e-24)
(0.009919037 -0.0003744622 0)
(0.0107026 -0.0002708975 0)
(0.01079074 -7.951601e-05 0)
(0.01017222 -0.0005268758 1.214907e-23)
(0.01006329 0.0009432149 1.012827e-24)
(0.009768335 -0.0007480471 0)
(0.01022177 0.0008560792 0)
(0.01035214 0.0009206484 1.40185e-24)
(0.01085366 -0.0005441782 -5.969942e-27)
(0.01023164 -0.0002296091 0)
(0.009119719 -0.00135803 -3.118836e-23)
(0.009958936 -0.000693735 0)
(0.01039676 0.0001345176 -1.847268e-25)
(0.01079103 0.0002681745 -2.687183e-24)
(0.01078483 0.0002285183 0)
(0.01112076 0.0002585497 -1.156371e-24)
(0.01068819 0.0003593145 -3.923658e-25)
(0.01051998 0.0003998799 2.965816e-24)
(0.01055757 0.0004522527 0)
(0.01038888 -0.0003271337 -8.334149e-24)
(0.01091688 0.0004929326 1.392067e-24)
(0.01094818 0.0002515582 0)
(0.009863706 -0.0004001227 -1.840632e-23)
(0.01002368 -0.0005551242 1.391485e-23)
(0.009992929 -0.0003701197 -2.283944e-24)
(0.01118728 -0.0007774274 0)
(0.01108285 -0.001021351 -1.097546e-23)
(0.01098383 -5.71022e-06 -3.903963e-24)
(0.01101105 -1.754303e-05 3.78594e-24)
(0.0106544 -0.0004452337 1.308809e-23)
(0.01074847 -0.000571429 4.57983e-24)
(0.01007316 -0.0005807808 -1.306825e-23)
(0.00760211 -0.0009123973 0)
(0.01051357 -0.0005583522 -7.249081e-24)
(0.01049098 -0.0006038851 6.735016e-25)
(0.01034971 -0.0005091752 -9.534788e-24)
(0.01048426 -0.0005220998 1.658948e-23)
(0.01042894 0.0003981958 -8.030483e-25)
(0.0103762 -0.0006615103 -6.908976e-24)
(0.01044526 -0.0008336094 0)
(0.01035029 -0.001061293 0)
(0.01022494 0.0007616377 1.502972e-24)
(0.01025201 0.0006603649 0)
(0.01019464 0.001013021 0)
(0.01003765 -0.0002552615 -1.066677e-23)
(0.01037284 0.0004762717 0)
(0.01031514 0.0005246801 -3.157317e-25)
(0.01130083 -0.001320825 0)
(0.01117485 -0.001292334 9.971848e-24)
(0.01063117 -0.00054672 -7.115403e-24)
(0.01087835 -0.0008621164 -6.81736e-25)
(0.01080731 -0.001550663 1.228518e-23)
(0.01100264 -0.001637847 8.399942e-24)
(0.0107595 -0.001921589 -9.773571e-24)
(0.01038698 0.0005358152 -8.15697e-25)
(0.009910658 -0.0001555269 0)
(0.009801117 -0.0002174786 1.580367e-23)
(0.007796601 -0.0003326568 -6.238599e-24)
(0.01103273 0.0006081549 -1.13593e-24)
(0.0101319 -0.0004684556 -1.044157e-23)
(0.01083532 0.0006517852 0)
(0.01087955 0.0008313905 0)
(0.009683106 -0.0009331515 0)
(0.0101317 -0.0003307551 1.724338e-23)
(0.008235821 -0.001419056 0)
(0.01051269 0.0004770609 0)
(0.01022372 -0.002033223 2.956036e-23)
(0.01102331 0.000566975 -7.32311e-24)
(0.01046956 -0.0005064538 -2.187127e-23)
(0.01053035 4.556134e-06 -1.452025e-24)
(0.01092621 -0.0005522831 0)
(0.01038639 0.001180519 0)
(0.01121746 0.0008842152 2.892811e-24)
(0.01038604 -0.0008556356 0)
(0.0100359 -0.0005792094 2.009355e-23)
(0.009977496 -0.0005437029 0)
(0.01103159 -0.0004249013 -1.816932e-24)
(0.009572887 -0.001246975 -2.08455e-24)
(0.01132767 0.0003021191 0)
(0.01005577 -0.0002499993 -3.32484e-23)
(0.00998639 -0.0007294445 0)
(0.01117248 -0.00132928 -1.199088e-24)