/*--------------------------------*- C++ -*----------------------------------*\
| =========                 |                                                 |
| \\      /  F ield         | OpenFOAM: The Open Source CFD Toolbox           |
|  \\    /   O peration     | Version:  2406                                  |
|   \\  /    A nd           | Website:  www.openfoam.com                      |
|    \\/     M anipulation  |                                                 |
\*---------------------------------------------------------------------------*/
FoamFile
{
    version     2.0;
    format      ascii;
    arch        "LSB;label=32;scalar=64";
    class       volVectorField;
    location    "0.12";
    object      U;
}
// * * * * * * * * * * * * * * * * * * * * * * * * * * * * * * * * * * * * * //

dimensions      [0 1 -1 0 0 0 0];

internalField   nonuniform List<vector> 
4536
(
(0.009984615 -0.001935724 -9.309576e-24)
(0.01009213 0.0004422845 0)
(0.01044227 -0.0005948704 2.722574e-26)
(0.009339043 -0.001830982 -4.80535e-24)
(0.009513397 -3.182277e-05 -3.048505e-23)
(0.009314091 -0.0002423158 2.113052e-23)
(0.01007913 0.0004120682 -9.480954e-24)
(0.0101428 0.0003884578 -1.75334e-23)
(0.01149312 -0.0002480795 1.848354e-24)
(0.009830759 0.000495177 5.264472e-24)
(0.01079192 -0.0009980157 0)
(0.01060028 -0.0004693654 0)
(0.01031101 -0.001269999 -1.653962e-24)
(0.009849876 0.0003193506 0)
(0.01008835 0.0005106583 -1.957496e-23)
(0.01049615 0.0001871982 1.837844e-23)
(0.009999839 0.000797805 1.203968e-23)
(0.01043169 -0.0007134913 0)
(0.009637836 -0.0001501818 -3.852011e-24)
(0.00927952 0.00241391 1.271317e-23)
(0.01013651 0.0002716098 9.619924e-24)
(0.01017932 0.0003795782 1.485688e-23)
(0.01072187 -0.0002543729 -2.301662e-25)
(0.01030038 0.0007945268 -7.498766e-24)
(0.01094688 -0.0003402693 0)
(0.009050185 0.0002692706 0)
(0.01026331 0.0003711829 6.87874e-24)
(0.01009989 0.0003298265 -7.32501e-26)
(0.009175988 -0.001306141 0)
(0.01050459 -0.0001106535 -9.629516e-24)
(0.01084029 0.0006053794 0)
(0.01039917 -0.0004049955 -1.841915e-24)
(0.009829986 0.0006030451 4.504204e-23)
(0.0105637 0.0001157921 7.118686e-24)
(0.01036786 0.0001573908 4.267583e-24)
(0.009828387 0.0004224253 0)
(0.0100231 0.000363212 -6.739951e-24)
(0.009996049 0.0001498154 0)
(0.01009001 0.000364414 7.831555e-24)
(0.01173312 -0.0001224482 7.073717e-25)
(0.01053241 0.0006908599 5.328645e-24)
(0.01076564 0.0001690007 4.450871e-26)
(0.01004743 0.0003638939 0)
(0.009192242 0.001013315 2.449354e-23)
(0.01161702 -0.0001346739 3.614924e-24)
(0.01002261 -0.001966512 -5.655209e-24)
(0.01029122 0.0007284475 0)
(0.01069846 0.000342804 0)
(0.01042564 -0.0008473771 0)
(0.00981123 0.000711068 -2.096274e-23)
(0.01052812 0.002229572 0)
(0.009472076 0.0005954711 2.623302e-23)
(0.01029361 0.0004195542 1.120352e-23)
(0.01081375 -0.0006574169 5.010892e-25)
(0.00894551 -7.233189e-05 0)
(0.009844178 0.0002948648 0)
(0.009501726 0.0004360186 4.411101e-23)
(0.0106528 0.0005145335 0)
(0.01082251 -0.001353385 0)
(0.01029973 -0.0006695555 4.452865e-25)
(0.00952819 0.001886548 -4.107144e-24)
(0.01060538 0.000753867 6.502778e-24)
(0.01059109 -0.000894379 0)
(0.01006218 0.0008527325 2.944107e-23)
(0.01040273 0.0003172819 2.384466e-23)
(0.01072102 -5.397816e-05 -6.45767e-24)
(0.0100991 0.0004727733 -7.654039e-24)
(0.01077008 7.857484e-05 6.313306e-24)
(0.01006188 5.222936e-05 -5.082284e-24)
(0.01077941 -8.924649e-05 -2.284572e-25)
(0.01052791 0.000528292 0)
(0.009783235 0.0005408739 3.671343e-23)
(0.01077318 -0.0002835637 0)
(0.01033449 -0.001453036 0)
(0.01002037 0.0001059278 8.525355e-24)
(0.01088247 -0.0004521339 0)
(0.01119758 0.0003137616 0)
(0.01007941 0.0006288958 0)
(0.01027479 -0.001743281 0)
(0.01133493 -0.0008455972 -4.179611e-25)
(0.01064919 0.0006031404 0)
(0.008108585 -5.765713e-05 0)
(0.006457372 0.002216658 4.450458e-23)
(0.01046865 -0.00130922 3.4261e-24)
(0.00967333 0.000886087 0)
(0.01052235 0.0005919133 -1.668521e-23)
(0.01038139 0.0004114391 0)
(0.0102978 0.0002622318 -1.86082e-23)
(0.01054601 0.0004332922 0)
(0.009612015 0.002441748 1.465774e-23)
(0.0100768 0.0004819731 8.992008e-24)
(0.009623388 0.0002202434 -2.332605e-23)
(0.009725854 0.0004191092 0)
(0.0110267 0.0006275068 2.529842e-24)
(0.01024865 0.0005472295 1.413511e-23)
(0.009969698 0.0003102085 -1.06512e-23)
(0.01100645 -0.0002798065 -3.34964e-24)
(0.01010782 0.0005255193 2.414607e-23)
(0.01016621 -0.001926275 -7.719022e-24)
(0.01046673 -7.765635e-05 2.358347e-24)
(0.009174313 -0.001829716 0)
(0.01052187 -0.0002804892 1.527981e-24)
(0.01054186 0.0001452212 0)
(0.00996202 0.0001925438 2.052608e-24)
(0.01048684 -0.001363278 -6.895635e-24)
(0.01051884 -0.00076377 0)
(0.01056437 0.0003576967 -9.599271e-24)
(0.01022037 -0.0007221544 0)
(0.01068223 0.0009712385 0)
(0.01124363 0.001460037 0)
(0.0071848 0.001435669 -3.989277e-23)
(0.01001255 0.0007689356 -8.289702e-24)
(0.01019495 0.0003383817 1.890439e-23)
(0.009700191 0.0004963775 0)
(0.01002794 0.0004305512 3.06197e-24)
(0.01076352 -0.000311763 8.504194e-25)
(0.009791298 -0.001278166 4.086195e-24)
(0.01026233 0.0003374462 1.176397e-23)
(0.009931054 0.0004126231 0)
(0.01064409 6.656607e-05 1.08729e-25)
(0.01072026 -0.000189667 8.466229e-25)
(0.01051274 5.989573e-05 -8.996642e-24)
(0.01053626 -0.0003598436 3.838098e-24)
(0.0116477 9.506189e-05 0)
(0.01148896 0.001247718 1.28842e-24)
(0.008646413 0.002636938 -2.281163e-23)
(0.009911654 0.0002831841 -1.473008e-23)
(0.01041685 0.0002529597 -1.005066e-23)
(0.01136285 0.0003664733 7.085684e-24)
(0.009771858 0.0003217208 0)
(0.00972861 -0.001188091 0)
(0.01079838 -0.0005311248 1.569387e-24)
(0.009245191 0.0005495915 0)
(0.01021821 0.0003148275 1.923147e-23)
(0.008867015 0.0006069373 7.981539e-25)
(0.01015413 0.0003044138 1.207869e-24)
(0.01025165 -0.001398664 0)
(0.01102642 -7.155942e-05 1.906158e-24)
(0.01009563 0.0003257363 0)
(0.01055607 0.0001830891 -5.450315e-24)
(0.009975023 0.000186975 0)
(0.01146768 -0.0007635525 0)
(0.01067931 0.0001529036 0)
(0.009830412 0.0004751407 -1.761736e-23)
(0.01017835 0.0002969608 8.56221e-26)
(0.01029761 -0.0006343392 -3.5613e-25)
(0.01153203 0.0009177466 -1.966768e-24)
(0.01045539 0.001732225 3.463186e-24)
(0.01011355 0.0005127632 -1.503957e-23)
(0.008986592 4.182387e-05 -3.600062e-23)
(0.01020238 0.0004069146 0)
(0.01001262 0.0003580016 2.257561e-23)
(0.01131348 -0.0006891103 5.390993e-27)
(0.01043534 0.000192599 0)
(0.009497178 8.254145e-05 3.557782e-23)
(0.009525705 0.0004845327 6.873653e-24)
(0.009620703 5.724904e-05 1.846131e-23)
(0.01119092 0.0006984074 1.579582e-23)
(0.01001765 0.0006330788 -2.031555e-24)
(0.01070396 -0.0004505067 1.565763e-24)
(0.01128163 -7.644999e-08 0)
(0.009998695 0.0001818848 5.926802e-25)
(0.01074111 -0.000316991 0)
(0.009874805 0.000353339 -3.645004e-23)
(0.007804248 0.003069246 3.450475e-23)
(0.01001685 0.0002637075 -2.817239e-23)
(0.01072348 3.07626e-05 -4.473048e-24)
(0.01029243 0.0003105502 0)
(0.01046911 -0.0003972096 -7.081288e-25)
(0.009310559 0.002217856 -3.857117e-23)
(0.009650435 -1.924644e-06 -3.607776e-23)
(0.009975447 0.0003606834 0)
(0.01036897 0.0001255342 -1.304912e-23)
(0.006316778 0.001905834 5.611471e-23)
(0.01048246 0.0005248053 -3.566508e-25)
(0.009547254 -5.073338e-05 -9.61133e-24)
(0.01118727 2.07149e-06 -3.846659e-24)
(0.01016661 0.0003569852 -2.161834e-24)
(0.01028871 0.001255503 0)
(0.0104343 0.0003099614 0)
(0.01057957 0.0002753455 -3.751752e-24)
(0.01010569 0.0003113431 -5.970277e-24)
(0.007807064 0.0004907447 0)
(0.009842369 8.014576e-05 1.510376e-23)
(0.009365251 -0.00017513 -1.783699e-23)
(0.008390124 0.0004471351 -3.158589e-23)
(0.01052222 -0.0003593883 2.943794e-26)
(0.01049038 0.0004984828 -1.807006e-23)
(0.01108958 4.581625e-05 -4.037162e-24)
(0.01039081 0.000422736 0)
(0.01082407 -0.0005431993 -1.522032e-24)
(0.009243223 -0.001366322 -3.86594e-24)
(0.01101076 -0.0003675165 0)
(0.009962504 -0.0008358792 5.286834e-25)
(0.01043534 -0.000393059 -1.907047e-24)
(0.008901848 0.001187112 -2.822784e-23)
(0.00914827 0.001687245 0)
(0.009578784 0.001324221 2.273109e-23)
(0.009502895 0.001119802 0)
(0.009927887 0.0004408803 -6.861609e-24)
(0.01074872 0.001204464 -4.744255e-24)
(0.01055776 0.0007446979 -5.116956e-24)
(0.01012405 0.0003600437 7.819338e-24)
(0.01014975 0.0004049847 0)
(0.01001132 0.0001390238 0)
(0.01037493 0.0009105823 0)
(0.01060321 0.0006699744 1.553797e-23)
(0.01042691 -0.001201493 -4.558967e-24)
(0.01017241 0.0005814925 0)
(0.009159973 0.00285992 -9.955997e-24)
(0.01023018 -0.001162272 3.621614e-24)
(0.01019338 0.0001324658 0)
(0.0111691 0.0006062606 -1.053211e-23)
(0.009016496 0.0005892775 0)
(0.01048607 0.0002691482 0)
(0.0101213 0.0003146446 -2.319183e-23)
(0.01064301 -0.0008635701 4.905131e-25)
(0.01157018 -0.000430565 2.464137e-26)
(0.009926448 0.0003991319 0)
(0.009865985 0.0006552773 6.198648e-24)
(0.01128102 0.0005271724 -7.824443e-24)
(0.01040345 0.0003519234 -8.905336e-24)
(0.01162349 0.0001365915 1.00255e-25)
(0.01114519 -0.0006003298 5.347609e-25)
(0.01085221 -0.0003692947 1.807515e-25)
(0.01046183 0.0004001242 1.398638e-23)
(0.01041637 0.0005766373 2.29885e-23)
(0.01000203 -0.001364059 -7.407384e-24)
(0.01034689 0.0008372983 5.754794e-24)
(0.01045942 -0.0009417688 0)
(0.01063154 0.000440619 -7.153493e-24)
(0.01056039 -0.0008748763 0)
(0.01062475 -3.617471e-05 0)
(0.00958362 0.0009084382 2.224307e-23)
(0.01157586 0.0005048706 4.925676e-24)
(0.009405546 0.0007893983 0)
(0.007364842 2.715466e-05 -5.141034e-23)
(0.009847633 0.0005529822 -1.051607e-23)
(0.01020875 0.0003771131 -5.855099e-24)
(0.01088667 0.000303415 6.200993e-24)
(0.01066788 -0.0005526056 -6.961169e-25)
(0.009576153 0.0003672365 -2.348974e-23)
(0.01052909 0.0001096095 7.97511e-24)
(0.01053363 0.0003661201 -1.574315e-23)
(0.00949061 -3.507666e-05 6.159935e-25)
(0.01037693 -3.613117e-05 1.55432e-24)
(0.01055194 -0.000150732 -3.451699e-24)
(0.01015175 9.195808e-05 1.792223e-24)
(0.01007968 0.0003794064 -1.411334e-23)
(0.01048227 2.440662e-05 1.034182e-24)
(0.01158811 -0.0002126272 1.061364e-24)
(0.009692401 0.0003086467 -3.402826e-23)
(0.008218719 0.000650177 -3.877948e-23)
(0.007852633 0.0019227 0)
(0.009597149 0.0003865848 -1.945105e-23)
(0.01104499 0.001509945 -1.349225e-23)
(0.01086447 -0.0001591153 -4.732796e-24)
(0.0107824 0.001248569 0)
(0.01050512 -0.0003259173 -3.153849e-24)
(0.01061352 -0.0003847355 -1.875899e-24)
(0.01007025 0.0003450486 -2.724231e-23)
(0.01022327 0.0004742581 2.35801e-23)
(0.00966579 0.0002686212 7.58909e-25)
(0.009466773 -0.001187249 5.852708e-24)
(0.0069627 0.001572323 -4.464637e-23)
(0.01072731 -0.0002363375 5.992974e-24)
(0.01039717 1.652929e-05 -7.969471e-24)
(0.01089432 0.0004020126 1.15822e-23)
(0.009379979 0.0005279338 -1.510739e-25)
(0.009862199 0.0006973066 -1.21328e-25)
(0.0104223 -0.0005757908 -2.636999e-25)
(0.01059567 0.0001592348 -8.640863e-24)
(0.009604879 -0.001670407 3.392183e-24)
(0.009707767 0.0006708706 -1.060511e-23)
(0.01015711 0.0003469359 -4.788666e-24)
(0.01039892 -1.913067e-05 -1.037222e-24)
(0.0113695 0.0005832173 -1.931227e-24)
(0.01056707 5.478316e-06 8.237448e-24)
(0.009762452 0.0001882723 3.073335e-23)
(0.009258809 1.63477e-05 -2.52591e-23)
(0.01088138 0.0008592692 1.151484e-23)
(0.01013595 0.001143884 3.048933e-24)
(0.008764326 0.0009091895 2.105183e-23)
(0.01001806 0.0003148925 2.055136e-23)
(0.009859928 -0.0009721307 0)
(0.01126757 0.0005981214 8.291845e-24)
(0.01080421 0.0004918458 -1.016101e-23)
(0.00876513 0.001443301 3.661193e-24)
(0.009939979 0.0002959518 7.808605e-24)
(0.01053126 -0.0003276648 -3.58123e-24)
(0.01088255 -0.0006449898 0)
(0.01153988 -0.0002826545 -1.083421e-24)
(0.01157542 0.001047538 -1.235117e-23)
(0.01017106 0.0006178487 3.808803e-23)
(0.01030349 0.0008898445 0)
(0.01031605 0.0006774618 2.003403e-23)
(0.01072116 -6.95308e-05 -1.019026e-23)
(0.01069442 0.0001504691 9.017669e-24)
(0.01014641 0.0007236131 1.454048e-23)
(0.01010862 0.0003268669 -6.721399e-24)
(0.01067666 5.930576e-05 4.601316e-25)
(0.01068947 -2.899266e-05 0)
(0.01095796 0.0003173455 6.393826e-24)
(0.0107264 -0.0008530434 2.196538e-25)
(0.009499201 -0.001027281 5.612323e-24)
(0.009481026 -0.00129606 -8.198544e-25)
(0.009381322 -0.001719123 1.9692e-24)
(0.01044297 -0.0002007396 2.908433e-24)
(0.01108504 0.0002400648 0)
(0.009763741 0.0005797328 1.872575e-23)
(0.01031884 0.0003847631 0)
(0.008956905 0.0003438257 2.516402e-23)
(0.009211933 -8.155719e-05 -6.262822e-23)
(0.01049695 0.0002916781 2.830955e-23)
(0.01143852 -7.017434e-06 6.449157e-26)
(0.01024884 0.0003963907 -2.186108e-23)
(0.01011359 0.0008261918 9.329793e-24)
(0.00981633 0.0001252079 -1.212074e-23)
(0.01024407 0.0005314079 1.107688e-23)
(0.01025682 0.000467625 1.358557e-23)
(0.01011547 0.0002360746 0)
(0.01023513 0.0004795203 1.109009e-23)
(0.01021761 0.0004027179 1.142862e-23)
(0.01028094 0.0003827854 -1.52671e-23)
(0.009675628 0.0006184518 0)
(0.008940689 0.0005611688 -7.669795e-25)
(0.01079423 0.0004041668 2.740405e-24)
(0.01012644 0.0004437854 1.885369e-23)
(0.01008723 0.0003293439 -2.128864e-23)
(0.01080009 0.0002662359 4.63535e-24)
(0.01074393 -0.0001658078 0)
(0.01077975 0.0002143839 -1.176002e-23)
(0.01055981 -0.0003762942 0)
(0.01091522 -0.0002461149 -2.526218e-24)
(0.00946939 -0.001487978 4.246971e-24)
(0.01061348 -0.0001562405 -3.430536e-24)
(0.0104008 0.001212127 -9.593833e-24)
(0.009830215 0.001029562 1.777185e-23)
(0.01020723 0.001202264 3.736594e-23)
(0.010037 0.0009794071 2.742138e-23)
(0.01086531 -1.694427e-05 0)
(0.009426107 0.00123746 1.927349e-23)
(0.0109485 0.0003586277 -6.659949e-24)
(0.01131174 -0.001099368 0)
(0.01078174 0.0007381659 0)
(0.008803945 0.0007581365 -2.18986e-23)
(0.01015633 0.0003627602 0)
(0.01057033 0.0002138577 2.277025e-23)
(0.01014619 0.0006363809 5.226139e-24)
(0.01067154 0.001496547 1.00199e-23)
(0.00958794 0.0002637379 4.943893e-23)
(0.01039571 0.0002217472 0)
(0.01102565 -0.0004121997 -1.754884e-24)
(0.01028283 0.0002273698 1.183025e-23)
(0.009938377 0.0001040303 4.033057e-23)
(0.009748395 0.0003474261 6.39214e-24)
(0.009666702 0.0003885391 -2.431824e-23)
(0.009007183 0.001657774 -2.825563e-23)
(0.01030121 0.0004278609 0)
(0.008518348 -0.0001812397 -2.381444e-23)
(0.01053241 -0.000309305 -3.76546e-24)
(0.01017265 0.0002852508 2.395404e-23)
(0.008231194 0.0003985313 -2.709784e-23)
(0.0100138 0.00143437 4.838594e-24)
(0.01019973 0.0003148668 -3.702064e-23)
(0.007096639 0.002948248 2.203105e-23)
(0.01085668 0.0004033659 -1.297134e-23)
(0.01048083 -0.001775092 -8.640447e-25)
(0.0103976 -5.146199e-05 -7.084191e-24)
(0.01039897 -0.0001067065 -2.957286e-24)
(0.009261339 8.35835e-05 -2.692821e-24)
(0.01002929 0.0004420009 -3.059197e-23)
(0.01124318 0.0002202351 0)
(0.0100747 0.001991565 0)
(0.01017141 0.0002636232 -1.525755e-23)
(0.01063438 -0.001138679 0)
(0.01104227 0.001671303 -4.063245e-24)
(0.009497114 0.0006640596 -2.122208e-23)
(0.01069444 -5.903091e-05 -1.347719e-23)
(0.01170231 -0.0001661808 -1.664563e-24)
(0.009733734 0.0005799113 4.321785e-23)
(0.009983168 0.0005394376 0)
(0.01019433 0.0008317946 -1.724903e-23)
(0.0102155 0.000441104 2.139794e-23)
(0.01072535 0.0001613953 3.903292e-24)
(0.01160862 0.0003149014 3.861757e-24)
(0.01125541 -5.309833e-05 0)
(0.009662451 0.0001070735 4.681511e-23)
(0.008451133 0.002216652 -5.213296e-23)
(0.00727085 0.001066957 -4.330253e-23)
(0.009730727 0.0003197372 0)
(0.01059451 -7.793736e-05 5.818597e-25)
(0.01115173 -0.0004933673 -7.167728e-25)
(0.009966905 0.000444619 -1.009365e-23)
(0.01097285 3.409571e-05 5.429481e-24)
(0.01063088 -0.0004143448 -2.516527e-24)
(0.009489248 0.0002598634 5.129868e-24)
(0.01044276 0.00186598 0)
(0.01074791 0.001942596 3.07698e-24)
(0.01152038 -0.0002809173 -2.651457e-24)
(0.009472214 5.275657e-05 -2.138851e-24)
(0.009334984 -0.001937921 4.285909e-24)
(0.009559251 0.0002278256 -8.308617e-24)
(0.00934388 9.448178e-05 -1.693927e-23)
(0.01030724 0.0003488377 0)
(0.009694887 0.0001523996 1.64562e-23)
(0.009631767 0.0001347957 -1.745437e-23)
(0.01111496 -0.0006617689 -8.951223e-25)
(0.01058636 -0.0002541979 -1.529649e-24)
(0.01011617 0.0001866822 2.954252e-23)
(0.01058999 -0.0006388493 -9.029474e-25)
(0.00999492 0.0003515591 1.907009e-23)
(0.009361229 0.0002457426 -2.038721e-23)
(0.009396038 -4.705614e-05 -4.973897e-23)
(0.0111623 -0.0009479687 -1.506339e-24)
(0.01043676 -0.0002218318 -3.953925e-24)
(0.01109938 0.0007076724 9.866302e-24)
(0.01099603 0.001218293 7.67306e-24)
(0.01060407 0.0002919378 1.147749e-23)
(0.01001932 -0.001005679 3.113204e-24)
(0.01062879 -0.001040403 0)
(0.01146308 0.001234062 0)
(0.009949927 0.000249238 -1.336472e-23)
(0.01085379 3.070347e-05 6.590934e-24)
(0.01019139 0.0007564258 -9.077923e-24)
(0.01033395 0.0007008528 -8.388928e-24)
(0.01064341 0.0005726309 -9.824181e-24)
(0.01083604 0.0007784865 0)
(0.01038804 0.0006106416 -7.634187e-24)
(0.01045152 0.0007383073 -7.504617e-24)
(0.009758779 0.0002611608 3.492553e-23)
(0.01144948 0.001116297 1.099529e-23)
(0.01051261 -9.228893e-05 3.968676e-25)
(0.01038824 -0.0008037072 0)
(0.01110016 -0.0003748161 5.002913e-25)
(0.01137086 -0.0006685003 -8.33482e-26)
(0.009989508 0.0004330781 -1.66053e-23)
(0.008914511 0.0002189865 4.034529e-23)
(0.01029864 -0.0009023236 -1.415017e-24)
(0.00990645 0.0004091956 -3.073832e-23)
(0.009922891 0.000470064 1.668896e-23)
(0.008866286 0.0004426664 -1.783012e-25)
(0.0110225 -0.001416649 -1.178312e-23)
(0.01027419 0.0002963421 0)
(0.01038588 0.0009913503 -1.868113e-23)
(0.009331829 0.0009727201 -1.913394e-23)
(0.01015909 -0.001947032 4.096469e-24)
(0.01161107 -0.0005863306 1.519754e-24)
(0.01068273 -0.0007565981 2.449016e-25)
(0.009766042 9.386407e-05 3.973551e-23)
(0.01031749 0.001173775 1.91912e-23)
(0.008389885 0.002978488 0)
(0.01015509 0.0002798823 1.382222e-23)
(0.009398554 -0.001076818 -5.290215e-24)
(0.009909704 0.0005844055 1.238656e-25)
(0.00965917 0.00147268 3.628192e-23)
(0.009138956 -0.000163527 5.479877e-23)
(0.01002188 0.0003406191 0)
(0.009852238 3.268474e-05 -3.087574e-23)
(0.009934029 0.0001816648 -2.119323e-23)
(0.01053824 -0.0001318074 -5.633707e-24)
(0.01072289 0.0004214366 0)
(0.01075131 0.0004274682 -5.530267e-24)
(0.009969167 0.0006283795 0)
(0.0101224 0.0003043875 0)
(0.009519227 0.002666923 0)
(0.009885401 0.0003246766 0)
(0.01003878 0.0008860998 1.729773e-23)
(0.009544519 -0.0001853699 -2.224461e-23)
(0.009654225 0.0002918318 0)
(0.01011326 0.0006568209 1.460616e-23)
(0.009533649 0.0004154773 0)
(0.008798204 0.00288699 1.597057e-23)
(0.01058288 -0.0004016135 0)
(0.01060305 0.0005293184 -9.092301e-24)
(0.00984772 0.0003611866 0)
(0.008449463 -8.159929e-05 2.794894e-23)
(0.009858281 0.0004359428 -1.832005e-23)
(0.01139511 -0.0002667908 0)
(0.010587 -3.366701e-05 -3.368996e-24)
(0.009264565 0.0003564515 -2.845277e-23)
(0.009983451 0.0002125006 0)
(0.01107168 -0.001119795 2.228719e-25)
(0.01053529 -0.00112174 0)
(0.01051537 0.0001779026 -1.141689e-23)
(0.01043827 0.0002820154 -3.715943e-24)
(0.009011713 -0.0001312828 0)
(0.01052607 -0.0004374784 2.243088e-25)
(0.01171741 0.000328283 3.860901e-24)
(0.01000993 0.000372064 -3.084153e-23)
(0.01019746 -0.001069311 0)
(0.01043218 0.000370105 0)
(0.009956161 7.862574e-05 2.907571e-23)
(0.009449963 0.0003644413 0)
(0.01084694 0.001780808 -4.839286e-25)
(0.0102759 0.0003717315 -7.580926e-24)
(0.01057589 -0.0002897101 -6.293115e-24)
(0.01030412 0.0001937294 0)
(0.009579909 -0.0001088666 -2.140537e-23)
(0.01115903 0.0004905041 -1.418923e-23)
(0.01017773 0.0003872877 -1.004958e-23)
(0.01140223 -0.0009946277 0)
(0.00993781 0.0006611405 -6.955895e-24)
(0.0101342 0.0003937149 0)
(0.01131322 0.001326737 0)
(0.01070866 0.0003614043 0)
(0.008495817 0.0008657325 2.564956e-23)
(0.01102152 -0.00137277 -1.534555e-23)
(0.01018767 0.0002997293 0)
(0.0105675 -0.0001161761 -3.573797e-24)
(0.01059471 -0.0003220793 2.836611e-24)
(0.01056595 0.00102551 9.21484e-24)
(0.01067133 0.0001694831 -1.035058e-23)
(0.01017102 0.0002065823 0)
(0.01068523 0.0006089711 -1.243759e-23)
(0.009606582 -1.502242e-05 2.094373e-23)
(0.009586507 9.027232e-05 -1.359513e-23)
(0.009704389 0.0002004314 -1.850274e-23)
(0.0100743 0.0003143825 -9.086196e-24)
(0.009087482 -8.897576e-05 3.953757e-23)
(0.008435184 0.0001140766 1.495692e-23)
(0.01015581 0.0001147182 8.890739e-24)
(0.01094181 -0.0004159138 0)
(0.01156802 0.0009661368 0)
(0.01059679 -0.0002002507 -8.243575e-24)
(0.01049227 -0.0003319225 1.920111e-24)
(0.01137609 0.0002366296 5.509497e-24)
(0.01003991 0.0004964262 -2.625708e-23)
(0.009227517 0.000199064 -1.689799e-23)
(0.0108741 9.925752e-05 0)
(0.01063895 0.0001048214 -1.770746e-24)
(0.01005697 0.0003695131 0)
(0.01001531 0.001484468 -1.016357e-23)
(0.009563073 0.001808914 -1.026067e-24)
(0.01096251 0.001798612 -2.499486e-23)
(0.01040191 0.002113086 -1.125978e-24)
(0.009257713 0.00132178 4.664714e-29)
(0.01013322 0.0005355656 9.706925e-24)
(0.009824827 0.001996472 7.223403e-24)
(0.009866593 0.001184949 9.529939e-24)
(0.01080184 8.133068e-05 4.926675e-24)
(0.01046273 0.0004277156 0)
(0.01014768 0.0005145635 2.317692e-23)
(0.01077124 0.0002994587 0)
(0.01023656 0.0004951323 0)
(0.01016836 0.001071125 0)
(0.0101084 0.0002205512 0)
(0.01092352 -0.000193116 -2.752654e-24)
(0.01086592 0.0001825143 3.181961e-24)
(0.01002141 0.0004462413 0)
(0.01036436 0.001421012 1.067159e-23)
(0.01076451 0.0006214812 5.810645e-24)
(0.01023349 0.0003446222 7.044051e-24)
(0.01057148 -0.0004566356 -2.051257e-24)
(0.01076069 -0.0004397563 -3.159792e-24)
(0.01097793 -0.001085574 -1.707686e-24)
(0.01017124 0.0002423489 0)
(0.01047953 -0.0005004393 -3.150869e-25)
(0.008626521 0.000240657 6.007879e-23)
(0.009436241 0.0001760491 -5.377123e-23)
(0.00937901 0.0001185117 7.005079e-23)
(0.009190075 0.0005208664 2.318901e-23)
(0.009227788 0.0002372251 0)
(0.01038913 0.0003420199 0)
(0.009763966 0.0003453344 0)
(0.01044988 0.0004805296 0)
(0.009857966 0.00013996 0)
(0.01077942 -0.0006871221 0)
(0.0101134 0.0004154898 2.643395e-23)
(0.00998291 -0.0009391166 1.765214e-24)
(0.01008872 0.0003414327 0)
(0.01009074 0.0003838047 7.824369e-24)
(0.01034838 0.001494392 0)
(0.009941072 0.0007004923 1.225806e-23)
(0.00996255 0.0008385758 -4.261297e-23)
(0.009696659 0.000788481 0)
(0.01120834 0.0006408284 -4.608913e-24)
(0.009989725 -0.001959242 5.994979e-24)
(0.01034372 0.0005557613 1.085002e-23)
(0.01017078 0.0003045012 -1.10541e-23)
(0.009719523 -0.002076692 3.513426e-24)
(0.009154453 0.0006223879 0)
(0.01064487 0.000175868 0)
(0.01050551 -0.000998991 0)
(0.01000908 0.0002148964 2.173112e-23)
(0.01008959 0.0001867341 5.491375e-25)
(0.009967294 0.0005478367 0)
(0.009833885 0.0007725836 0)
(0.01014131 0.000331155 1.348807e-23)
(0.01054282 0.0003023545 7.40686e-26)
(0.01015466 0.0004651627 0)
(0.01132594 0.0004170069 -7.921621e-24)
(0.01071698 -0.0001323295 -9.680497e-24)
(0.01025065 0.0003025847 -1.203774e-23)
(0.01099763 -0.001010395 0)
(0.008012257 0.002179959 0)
(0.007652664 0.002355564 -3.114643e-23)
(0.01044326 0.0005661469 -2.878019e-23)
(0.009657356 -0.001025589 3.374656e-24)
(0.01047132 0.001011183 -1.38799e-23)
(0.01025256 0.001331389 -8.623984e-24)
(0.01073099 0.001310089 -1.341749e-23)
(0.009795159 0.001655077 -8.349533e-24)
(0.01055075 -0.0002116864 -2.563404e-24)
(0.01033602 0.0004411015 6.036359e-24)
(0.01061179 0.0004038677 2.89643e-24)
(0.00964449 0.0006251486 -9.159155e-24)
(0.009804741 0.0008272141 -2.383722e-23)
(0.01091352 0.0005907391 0)
(0.009494406 0.0008345304 1.87117e-23)
(0.009574324 0.0006193584 -3.856354e-23)
(0.01006855 0.0004085988 1.566045e-23)
(0.01004662 0.0003818815 -8.384095e-24)
(0.01107459 -0.001234576 0)
(0.01100299 -0.0004598213 0)
(0.007902695 0.001264324 7.051119e-23)
(0.01036745 0.0002304759 0)
(0.01111396 -0.001010852 0)
(0.01059357 -1.37473e-05 -3.658233e-24)
(0.01042008 0.0003786067 0)
(0.01023681 1.302089e-05 -1.232913e-23)
(0.01052309 -0.000729045 3.248855e-25)
(0.01083072 0.001120537 2.506824e-23)
(0.01095937 -0.0002333929 -6.46287e-24)
(0.01053342 5.1386e-05 1.186991e-23)
(0.01041036 7.734506e-05 0)
(0.01024201 0.0006130554 1.174857e-25)
(0.00979236 0.0002288654 -2.389148e-23)
(0.008211282 0.0007588015 0)
(0.008926829 0.0008662022 2.783911e-23)
(0.01031081 0.0003725368 -6.703519e-24)
(0.0100933 0.0002800029 1.537291e-23)
(0.0101161 0.0002885746 -2.298759e-23)
(0.01067359 -0.0004407828 -3.003837e-24)
(0.01007664 0.0003519144 -1.274881e-23)
(0.01009909 0.0003685229 0)
(0.01111699 -0.001131317 2.301762e-24)
(0.01167119 -0.0001430464 0)
(0.009726817 0.0002764974 -3.812186e-24)
(0.01009736 0.0009494058 -2.152497e-23)
(0.01077378 -0.0007317994 0)
(0.01048201 -3.415681e-05 0)
(0.01041657 -0.001056509 0)
(0.008460747 0.0001946868 -2.961523e-23)
(0.01118901 0.0005331381 1.510928e-23)
(0.00893614 0.0001569457 -3.657383e-23)
(0.01036108 0.0002635798 -2.6909e-25)
(0.01051101 0.0003568015 -6.424388e-24)
(0.01024971 -0.0007690382 6.222444e-25)
(0.01171169 0.0002345255 -3.907704e-24)
(0.01087516 -0.0002181545 -5.762833e-24)
(0.009873422 0.0001151962 0)
(0.01012192 0.0005646642 -1.030588e-23)
(0.009467518 -0.001079031 8.278461e-26)
(0.009390941 -0.001302122 7.916069e-25)
(0.009590983 -0.001074761 -2.863139e-24)
(0.01045996 0.0002635132 -1.196669e-23)
(0.01087888 0.0007812546 -9.996898e-24)
(0.01034286 0.0005771224 1.418528e-23)
(0.01079668 0.001372092 -1.674307e-23)
(0.01066853 0.00129565 -5.267206e-24)
(0.009812908 -0.0009435212 0)
(0.009784841 -0.001348437 0)
(0.009903282 0.0004509955 -2.096989e-23)
(0.01099453 0.000258523 0)
(0.01089694 0.0005339934 0)
(0.009926517 -0.001239524 2.245676e-24)
(0.01063613 -0.0003432766 -1.124601e-24)
(0.01057503 0.0001945063 -1.9055e-23)
(0.009612096 -0.0001452599 0)
(0.01046368 -0.0004710482 -6.910796e-25)
(0.01006282 0.0002844087 1.361253e-23)
(0.01117354 0.0001009631 0)
(0.01125148 5.307186e-05 4.19433e-24)
(0.01092787 0.0002520945 3.280661e-24)
(0.009438035 -0.001772368 -2.318412e-24)
(0.01054988 -0.0003431642 -2.367328e-24)
(0.01065124 -0.0006368768 -4.68713e-25)
(0.01109743 0.001345098 -2.842465e-24)
(0.01044161 -0.0001201238 -5.015092e-24)
(0.009426808 0.00268457 7.645557e-24)
(0.01002467 0.0002201553 5.272505e-24)
(0.01000128 2.734886e-05 2.529903e-23)
(0.009972212 0.0004208951 -2.866626e-23)
(0.01044828 -0.0002355646 2.815154e-24)
(0.01063935 0.001202658 1.085859e-24)
(0.00967175 0.002671705 -2.649494e-23)
(0.01068801 -8.676385e-05 -9.843808e-24)
(0.01067003 -8.535449e-05 1.16041e-23)
(0.01088674 -7.089484e-05 0)
(0.01103225 -0.0007368638 1.651409e-25)
(0.01142011 0.000610508 -5.654002e-24)
(0.01113897 0.001455264 -2.466588e-23)
(0.01129881 0.0002970066 1.681838e-24)
(0.01120157 0.0002568089 0)
(0.01064829 0.0002394715 0)
(0.01051616 0.000625047 0)
(0.01002213 0.0004552254 -2.117914e-23)
(0.01036569 0.0005245204 -1.048591e-23)
(0.01034107 0.0004728817 0)
(0.01037496 -0.000596165 0)
(0.01090711 0.0003669388 -7.577595e-24)
(0.009152346 0.002072477 0)
(0.009558908 -0.0001320977 5.534105e-23)
(0.009772065 0.0003849732 -5.072454e-24)
(0.009421088 0.0003875648 0)
(0.01109205 0.0003385263 0)
(0.009868396 -0.00161262 -9.023472e-24)
(0.008717225 0.001718351 0)
(0.009254012 0.002825491 -1.782949e-23)
(0.01050851 0.001048742 1.378701e-23)
(0.01040268 -0.0001693344 -2.313547e-24)
(0.01066357 0.0005476093 2.171662e-23)
(0.009456356 -0.0002164313 8.992724e-24)
(0.009448498 -2.320516e-05 -2.815993e-23)
(0.01077713 6.920955e-06 -3.970244e-24)
(0.01074113 -0.0004993527 -7.99294e-25)
(0.01051945 -0.0005048111 -1.09135e-24)
(0.0101936 -0.001919452 5.745436e-24)
(0.009513078 0.0001455964 0)
(0.009936982 0.0005010274 0)
(0.01015668 0.0004507207 0)
(0.01002613 0.0004769658 -1.054545e-23)
(0.009781632 0.0001998141 0)
(0.01069287 -0.001665537 6.171736e-24)
(0.01172773 -6.886997e-05 2.967949e-24)
(0.01011466 0.0003481974 -1.76761e-23)
(0.01072164 0.0001092311 0)
(0.01061205 0.0001257641 -1.270143e-23)
(0.009930455 -0.001444691 0)
(0.01026756 7.933931e-05 -1.518151e-23)
(0.01094063 0.001872254 0)
(0.01019411 -0.0007884322 2.844847e-24)
(0.01065531 0.0001644093 0)
(0.01044921 -0.0001578589 -6.616539e-25)
(0.01041766 -0.0008945277 -5.183211e-25)
(0.01055634 6.655631e-05 7.555428e-24)
(0.008328932 -9.745957e-05 0)
(0.01078415 0.0001850878 1.756912e-23)
(0.009291078 0.0004671922 -1.987155e-23)
(0.01033375 -5.735781e-06 -5.108846e-24)
(0.008502797 0.001180729 9.10376e-24)
(0.01158072 -0.0001159195 0)
(0.01129482 -0.0004215829 1.954029e-24)
(0.01026429 -0.001736133 5.08913e-24)
(0.01028636 0.0005181742 1.524309e-23)
(0.010669 0.0003713229 0)
(0.009615538 0.0005674707 -3.537929e-23)
(0.01127105 -0.001083065 5.257097e-24)
(0.01059286 -0.0002846201 3.041062e-24)
(0.01069569 -0.000260221 -3.067925e-24)
(0.009794443 0.0002565409 -2.333923e-23)
(0.01132927 0.0003829889 3.710304e-25)
(0.01030148 0.0003017251 0)
(0.01135931 -5.732148e-05 2.839441e-24)
(0.01016288 0.0003302044 -7.334543e-24)
(0.01048583 0.0003804122 -3.460238e-24)
(0.01040546 0.0004190813 -1.554191e-23)
(0.01059941 0.000426809 0)
(0.01124421 -0.0004533918 -1.61124e-24)
(0.009635702 -4.745809e-05 0)
(0.01070975 0.0007636253 2.098789e-24)
(0.009895037 0.0004829015 -1.440606e-23)
(0.01058884 0.0002904076 -1.583858e-23)
(0.01027182 -0.0007119711 1.074507e-24)
(0.01051794 -0.0004790121 1.482628e-24)
(0.009953429 0.0003783598 3.096598e-24)
(0.009919838 0.0001500938 3.563656e-23)
(0.009788928 8.57195e-05 -1.789953e-23)
(0.01057472 0.0004580319 0)
(0.01023139 -0.0008964171 1.361897e-24)
(0.009027038 -1.616871e-06 1.007483e-23)
(0.01067067 8.822944e-05 1.032445e-23)
(0.009484435 0.0005481946 1.526228e-23)
(0.01003389 7.151312e-05 1.045996e-23)
(0.009786358 0.0004629548 1.291415e-23)
(0.009363322 0.0007509276 -1.331133e-23)
(0.009909547 0.0005491973 -5.454235e-24)
(0.009244199 -0.00106157 -5.299508e-24)
(0.009344113 0.001966249 -9.433994e-24)
(0.01000093 4.198855e-05 -1.605943e-23)
(0.009939619 0.0006052107 -4.597402e-24)
(0.01087158 0.0006935767 3.067253e-24)
(0.01039655 -0.0005779151 0)
(0.009949751 0.0001607062 -1.750526e-23)
(0.01062848 0.0007210985 6.934175e-24)
(0.01102888 -0.0003180036 2.8312e-24)
(0.009105231 0.002689469 6.591456e-23)
(0.01039809 0.0003950337 -1.854782e-23)
(0.006358611 0.00077835 -5.119043e-24)
(0.009690951 0.0002626028 -1.986423e-23)
(0.009990157 0.0001698624 2.218353e-23)
(0.009858442 0.001054516 0)