/*--------------------------------*- C++ -*----------------------------------*\
| =========                 |                                                 |
| \\      /  F ield         | OpenFOAM: The Open Source CFD Toolbox           |
|  \\    /   O peration     | Version:  2406                                  |
|   \\  /    A nd           | Website:  www.openfoam.com                      |
|    \\/     M anipulation  |                                                 |
\*---------------------------------------------------------------------------*/
FoamFile
{
    version     2.0;
    format      ascii;
    arch        "LSB;label=32;scalar=64";
    class       volScalarField;
    location    "0.12";
    object      p;
}
// * * * * * * * * * * * * * * * * * * * * * * * * * * * * * * * * * * * * * //

dimensions      [0 2 -2 0 0 0 0];

internalField   nonuniform List<scalar> 
217010
(
-179.4185
-109.8352
-118.06
-120.0788
-119.4254
-115.9071
-111.2466
-105.3719
-108.6232
-125.6584
-133.9358
-128.8737
-123.2882
-125.5791
-136.6535
-153.6409
-169.762
-175.7641
-170.2341
-155.6645
-135.0819
-108.1669
-79.82186
-65.49772
-68.19156
-80.54249
-91.11828
-100.7798
-103.5496
-94.10105
-86.33854
-85.02216
-84.3057
-93.5409
-121.2146
-150.5031
-172.717
-184.3256
-182.3548
-167.0966
-145.0924
-122.5335
-100.2966
-79.3288
-60.74754
-43.57467
-31.19112
-22.88531
-19.42717
-14.71639
-26.32891
-21.0873
-20.6139
-19.38418
-22.58204
-26.46125
-29.496
-29.30027
-28.03518
-28.1038
-28.82692
-28.58871
-26.41844
-24.62257
-25.13636
-26.17159
-27.09925
-28.95021
-29.55555
-27.24607
-25.76403
-26.2673
-26.88763
-27.40436
-28.03113
-28.62091
-29.10855
-29.48728
-29.76561
-29.96311
-30.09322
-30.16084
-30.17304
-30.1338
-30.0547
-29.93474
-29.78399
-29.60382
-29.40438
-29.19794
-28.98578
-28.78418
-28.60036
-28.43487
-28.28957
-28.16037
-28.04897
-27.95517
-27.8808
-27.80369
-27.72168
-27.64724
-27.60555
-27.58726
-27.57948
-27.59244
-27.63253
-27.69893
-27.78138
-27.87185
-27.96168
-28.05298
-28.13097
-28.19721
-28.24978
-28.27564
-28.26216
-28.22178
-28.13092
-27.981
-27.77177
-27.49419
-27.1331
-26.67036
-26.10485
-25.43609
-24.70014
-24.19563
-24.47776
-24.80448
-23.7671
-22.36858
-24.36796
-26.00049
-25.8815
-24.19675
-21.83531
-21.6621
-23.27339
-23.53048
-21.7392
-21.63451
-23.81453
-24.66614
-23.00337
-19.7631
-18.04933
-19.35561
-20.76304
-23.37914
-16.23071
-21.70188
-27.2514
-38.90304
-52.70035
-66.68369
-82.61042
-101.4007
-122.1394
-142.8386
-160.0495
-171.0503
-172.2013
-161.7497
-139.5559
-113.6206
-100.7406
-105.0242
-110.1489
-114.2984
-121.5594
-122.9267
-117.0456
-113.3954
-103.0503
-91.47797
-99.51893
-126.2694
-152.2254
-169.1906
-176.3373
-172.2513
-156.6426
-135.411
-123.7579
-125.6367
-137.8134
-142.9313
-139.1757
-128.3377
-109.4997
-103.2799
-110.693
-113.7471
-111.7471
-110.9071
-110.038
-112.6129
-106.7978
-171.3609
-85.20392
-75.1317
-62.19203
-54.66517
-48.15346
-42.77281
-38.12664
-33.9144
-30.24331
-26.91228
-23.88727
-21.12018
-18.5102
-16.04388
-13.73518
-11.59716
-9.596023
-7.67138
-5.832914
-4.076423
-2.397442
-0.8071389
0.6983754
2.180064
3.629078
5.043609
6.390135
7.666486
8.899644
10.11136
11.30629
12.47789
13.59453
14.67668
15.7503
16.80232
17.84336
18.87078
19.90049
20.88574
21.88858
22.84882
23.8017
24.73952
25.67177
26.58786
27.48965
28.39401
29.31425
30.23139
31.12774
32.0077
32.88462
33.78736
34.70346
35.60663
36.51036
37.42433
38.34203
39.27295
40.20419
41.1282
42.09186
43.1499
44.24527
45.31786
46.37653
47.47345
48.82247
50.55771
52.58851
52.29443
50.36048
48.78623
47.46715
46.31454
45.21151
44.08448
42.99989
42.02897
41.11481
40.15184
39.1637
38.20208
37.29
36.40118
35.51117
34.60912
33.70794
32.83274
31.96616
31.08364
30.19924
29.32435
28.43416
27.54832
26.6443
25.70501
24.77787
23.87066
22.95544
22.0114
21.01885
20.05875
19.05648
18.02889
16.99647
15.95427
14.8687
13.76268
12.65272
11.51634
10.32005
9.061039
7.79136
6.530126
5.220797
3.83813
2.409772
0.9161975
-0.643641
-2.256079
-3.934892
-5.641161
-7.468206
-9.425744
-11.46614
-13.64359
-15.93153
-18.40569
-21.09145
-23.95433
-27.04084
-30.49874
-34.34567
-38.72121
-43.57412
-49.19299
-56.10406
-64.05728
-77.6846
-88.17584
52.32647
50.63182
48.98353
47.6271
46.45516
45.34384
44.21004
43.11384
42.13016
41.20957
40.24473
39.253
38.28485
37.36615
36.47271
35.57945
34.67442
33.76938
32.89037
32.02069
31.13564
30.24857
29.37114
28.4785
27.59081
26.6849
25.74367
24.81402
23.90424
22.98708
22.04177
21.04662
20.08611
19.0813
18.0517
17.01763
15.97393
14.88655
13.77901
12.6674
11.5296
10.3314
9.070316
7.798916
6.536375
5.224894
3.840278
2.410367
0.9144918
-0.6481266
-2.263535
-3.945478
-5.653678
-7.48587
-9.448065
-11.49276
-13.67661
-15.96959
-18.45263
-21.14778
-24.01913
-27.11703
-30.5897
-34.45161
-38.861
-43.7412
-49.40334
-56.36466
-64.4814
-78.05399
-90.28767
-87.24868
-75.50911
-62.59996
-54.91421
-48.35713
-42.93381
-38.26168
-34.01562
-30.33028
-26.98759
-23.95021
-21.17459
-18.55706
-16.08318
-13.7672
-11.62297
-9.617964
-7.689207
-5.846686
-4.086656
-2.40455
-0.8108477
0.6965298
2.18004
3.630985
5.0477
6.396418
7.674327
8.909112
10.12253
11.31924
12.49261
13.61096
14.69445
15.76987
16.82349
17.86644
18.89598
19.92815
20.91433
21.91953
22.88142
23.83614
24.7762
25.71038
26.62848
27.5326
28.43976
29.36272
30.2821
31.18033
32.06284
32.94336
33.84988
34.76941
35.6757
36.5832
37.50128
38.42351
39.35855
40.29374
41.22432
42.19855
43.26687
44.36825
45.44434
46.51112
47.6333
49.03367
50.84337
52.60375
-16.2822
-21.09675
-26.30627
-37.53908
-51.25145
-65.2144
-81.01806
-99.68728
-120.4211
-141.2928
-158.8678
-170.4515
-172.4132
-162.6948
-141.0361
-114.7757
-100.9255
-104.8383
-110.0178
-114.2135
-121.4878
-122.9735
-117.2437
-113.6976
-103.3771
-91.65544
-99.44241
-126.0802
-152.0727
-169.1245
-176.4061
-172.4936
-156.908
-135.4802
-123.7265
-125.6794
-137.8988
-143.0054
-139.2135
-128.2348
-109.4894
-103.3631
-110.8435
-113.8071
-111.7335
-110.9057
-110.0847
-112.6717
-108.4986
-159.15
-25.29324
-21.52258
-20.72458
-19.30706
-22.217
-26.0687
-29.35978
-29.37324
-28.09133
-28.0626
-28.8181
-28.72778
-26.5838
-24.65779
-25.08173
-26.12481
-27.02983
-28.87343
-29.62952
-27.37446
-25.78714
-26.24896
-26.8559
-27.3706
-28.00026
-28.59629
-29.09058
-29.47495
-29.75749
-29.95807
-30.09078
-30.16055
-30.17414
-30.13573
-30.05764
-29.93835
-29.788
-29.60799
-29.40828
-29.20165
-28.98902
-28.78678
-28.60245
-28.43647
-28.29083
-28.16133
-28.04967
-27.95563
-27.88113
-27.80397
-27.72186
-27.64737
-27.60572
-27.58745
-27.5797
-27.59288
-27.63327
-27.69999
-27.78272
-27.87337
-27.96334
-28.05482
-28.13265
-28.1989
-28.25124
-28.27626
-28.26208
-28.22077
-28.12793
-27.97566
-27.76387
-27.48294
-27.11734
-26.64892
-26.07657
-25.39929
-24.66337
-24.18344
-24.48767
-24.78658
-23.71237
-22.40842
-24.50823
-26.09483
-25.83652
-24.07028
-21.78521
-21.73389
-23.38096
-23.48444
-21.62432
-21.74099
-23.97501
-24.64065
-22.7398
-19.5255
-18.0584
-19.52905
-21.08569
-22.87478
-166.1456
-111.6174
-118.2402
-120.1321
-119.6251
-116.0967
-111.3928
-105.4474
-108.5854
-125.5805
-134.0346
-128.9055
-123.2536
-125.5334
-136.6636
-153.8218
-170.0009
-175.907
-170.2543
-155.5964
-134.94
-108.0168
-79.78608
-65.58572
-68.38465
-80.87981
-91.41945
-100.9264
-103.4322
-93.9325
-86.23449
-85.02269
-84.52655
-94.54275
-122.8187
-151.9576
-173.537
-184.4518
-181.5449
-165.6443
-143.3423
-120.6905
-98.44037
-77.52837
-59.05477
-42.14826
-30.16569
-22.27724
-18.93684
-15.04538
-152.3778
-112.4728
-118.4284
-120.2115
-120.0901
-116.315
-111.5866
-105.6137
-108.6848
-125.7782
-134.3072
-128.8547
-123.0494
-125.5354
-137.057
-154.5953
-170.572
-176.2205
-170.4751
-155.745
-135.0191
-108.0991
-79.97727
-65.92026
-68.72916
-81.29698
-91.9122
-101.2014
-103.5603
-93.89198
-86.25976
-85.08338
-84.76728
-95.93737
-125.2845
-153.9807
-174.8248
-185.2689
-182.0002
-165.4295
-142.7105
-119.9032
-97.60587
-76.62342
-58.22534
-41.34028
-29.54793
-21.93113
-18.72862
-15.20461
-24.41864
-21.68095
-20.87784
-19.30098
-22.04428
-25.96845
-29.44001
-29.56101
-28.16845
-28.04014
-28.78737
-28.7509
-26.68914
-24.67977
-25.03246
-26.0861
-27.02172
-28.94086
-29.75494
-27.3767
-25.77863
-26.23243
-26.84908
-27.37371
-28.0029
-28.59557
-29.08809
-29.47273
-29.75583
-29.9568
-30.09031
-30.16084
-30.1747
-30.13758
-30.05914
-29.94006
-29.79004
-29.61035
-29.41055
-29.20419
-28.99146
-28.78885
-28.60432
-28.43806
-28.29229
-28.16262
-28.05079
-27.95641
-27.88184
-27.8047
-27.72245
-27.64784
-27.6063
-27.58804
-27.58021
-27.59368
-27.63434
-27.70124
-27.78404
-27.87467
-27.96457
-28.05632
-28.13378
-28.20017
-28.25238
-28.27673
-28.26245
-28.2204
-28.12703
-27.97391
-27.76158
-27.48004
-27.11388
-26.64593
-26.07596
-25.39943
-24.66326
-24.18831
-24.50619
-24.80441
-23.71643
-22.45837
-24.56646
-26.21409
-25.92944
-24.07862
-21.78918
-21.82754
-23.44708
-23.43274
-21.59406
-21.82727
-24.22922
-24.74796
-22.68536
-19.40938
-18.1184
-19.731
-21.20184
-22.5157
-16.35726
-20.77992
-25.81641
-36.86757
-50.59521
-64.52364
-80.28486
-98.91545
-119.7411
-140.8615
-158.7834
-170.872
-173.1198
-164.195
-143.4165
-116.5022
-101.2103
-104.661
-110.0011
-114.2692
-121.5356
-123.1083
-117.6626
-114.1154
-103.8532
-92.07235
-99.56041
-126.1554
-152.1921
-169.3202
-176.7166
-172.9967
-157.7067
-136.0472
-123.8234
-125.5854
-137.697
-143.1348
-139.4273
-128.4345
-109.6452
-103.561
-111.0367
-113.8992
-111.7547
-110.8477
-110.0297
-112.7859
-109.1247
-145.9338
-87.22319
-75.76542
-62.78961
-55.04153
-48.45482
-43.00857
-38.31765
-34.07641
-30.36545
-27.02002
-23.97652
-21.19803
-18.57864
-16.10101
-13.78186
-11.63396
-9.629394
-7.698732
-5.854522
-4.092834
-2.409824
-0.8134653
0.693357
2.177933
3.630071
5.048506
6.399007
7.676765
8.911617
10.12546
11.32279
12.49776
13.61694
14.69926
15.77573
16.82957
17.87443
18.90477
19.93493
20.92338
21.9259
22.88979
23.8457
24.78556
25.7204
26.63882
27.54278
28.44958
29.37416
30.29528
31.19333
32.07582
32.95534
33.86305
34.78533
35.69187
36.59885
37.51899
38.44136
39.37718
40.31358
41.24503
42.21947
43.29466
44.40104
45.47465
46.54274
47.66905
49.09751
50.95724
52.5581
52.29267
50.73372
49.04556
47.66336
46.48831
45.37819
44.23814
43.13419
42.15032
41.2339
40.26672
39.27267
38.30091
37.38177
36.48818
35.59566
34.68905
33.78188
32.90358
32.0343
31.14769
30.26025
29.38332
28.48868
27.603
26.69652
25.75194
24.82213
23.91296
22.99599
22.04763
21.05586
20.09295
19.09083
18.05886
17.02431
15.98069
14.89111
13.78328
12.67217
11.53501
10.33526
9.071782
7.799835
6.538635
5.225682
3.839955
2.409863
0.9118076
-0.6524451
-2.269489
-3.952951
-5.659483
-7.495451
-9.459795
-11.50463
-13.69291
-15.98537
-18.47422
-21.17309
-24.04652
-27.14866
-30.62773
-34.5154
-38.91828
-43.81845
-49.5027
-56.50022
-64.67559
-78.29822
-90.15029
52.22082
50.89648
49.24091
47.83023
46.63878
45.52256
44.37574
43.26451
42.27108
41.34612
40.37405
39.37712
38.40032
37.47448
36.57537
35.67792
34.76775
33.85604
32.97444
32.10042
31.20988
30.31978
29.44008
28.54172
27.65509
26.74559
25.79666
24.86646
23.95466
23.0357
22.0841
21.09679
20.12192
19.12253
18.08645
17.05069
16.00612
14.91232
13.8035
12.69131
11.55347
10.35
9.08267
7.809468
6.549305
5.232647
3.844533
2.413716
0.9116135
-0.6551743
-2.274952
-3.961994
-5.666513
-7.51093
-9.48015
-11.52646
-13.72425
-16.01738
-18.51855
-21.22657
-24.10606
-27.21814
-30.71915
-34.61715
-39.03769
-43.97201
-49.69784
-56.7352
-65.04785
-78.51187
-90.37803
-87.46414
-75.99769
-63.15112
-55.26339
-48.6479
-43.15678
-38.43498
-34.17383
-30.45152
-27.09128
-24.03427
-21.24896
-18.62305
-16.13696
-13.81074
-11.65468
-9.648852
-7.713366
-5.86517
-4.099813
-2.41464
-0.8131318
0.6927497
2.179572
3.634044
5.055586
6.409874
7.688586
8.924507
10.13939
11.33831
12.51659
13.63875
14.72031
15.79943
16.85445
17.90321
18.93589
19.96343
20.96645
21.9634
22.92914
23.88787
24.83047
25.76717
26.6888
27.59551
28.50535
29.43261
30.35696
31.25748
32.14358
33.02692
33.93753
34.86476
35.77498
36.68612
37.61041
38.53774
39.47732
40.41886
41.35806
42.34049
43.42326
44.53622
45.61193
46.68763
47.8381
49.30469
51.13128
52.46702
-16.48097
-20.33461
-25.01555
-35.65129
-49.22994
-63.10385
-78.76902
-97.30495
-118.158
-139.4542
-157.6797
-170.1992
-173.3595
-165.7561
-146.3835
-119.3822
-101.9401
-104.5273
-110.0799
-114.4456
-121.3519
-123.0005
-118.3168
-114.7604
-104.5942
-92.78294
-99.95202
-126.5079
-152.4955
-169.6555
-177.1364
-173.6884
-158.957
-137.4467
-124.3209
-125.5441
-137.6183
-143.3453
-139.6723
-128.7213
-110.0077
-103.9425
-111.4172
-114.0956
-111.7911
-110.7342
-109.9249
-112.8405
-110.7766
-136.6723
-23.81418
-22.00911
-21.1048
-19.33884
-21.80902
-25.69016
-29.50568
-29.88606
-28.33002
-28.0454
-28.78494
-28.99555
-26.88909
-24.71844
-24.9564
-26.01754
-26.99185
-28.97042
-29.93325
-27.42686
-25.75282
-26.18524
-26.83919
-27.38945
-28.01177
-28.59392
-29.08256
-29.46825
-29.75307
-29.95532
-30.09092
-30.16331
-30.17765
-30.14171
-30.0639
-29.94512
-29.79552
-29.61608
-29.41555
-29.20929
-28.99614
-28.79264
-28.60768
-28.44091
-28.29493
-28.16496
-28.05287
-27.9579
-27.88322
-27.80617
-27.72373
-27.64895
-27.60759
-27.58935
-27.58134
-27.59528
-27.63635
-27.70359
-27.78662
-27.87738
-27.96722
-28.05956
-28.13649
-28.2033
-28.25555
-28.27904
-28.26426
-28.22145
-28.12664
-27.97119
-27.75766
-27.47425
-27.10635
-26.63865
-26.07507
-25.40952
-24.6904
-24.2235
-24.53858
-24.81443
-23.70813
-22.46405
-24.58532
-26.37896
-26.06225
-24.08217
-21.8258
-21.96217
-23.58698
-23.4004
-21.57128
-22.05789
-24.59346
-24.82252
-22.49801
-19.26513
-18.24035
-20.02763
-21.51861
-22.31014
-142.9526
-114.3004
-117.9467
-119.7845
-120.8501
-116.761
-111.9117
-105.922
-108.9653
-126.0445
-134.6403
-128.8201
-122.9387
-125.7029
-138.1879
-155.9347
-171.3865
-176.6742
-170.8427
-156.0234
-135.2292
-108.4095
-80.48951
-66.55878
-69.29283
-81.95649
-92.68954
-101.5047
-103.2978
-93.68898
-86.29255
-85.0577
-85.43495
-98.49206
-128.6434
-156.219
-176.0426
-185.2912
-181.3012
-164.2643
-141.1773
-118.2222
-95.92044
-74.9736
-56.7312
-40.07918
-28.65031
-21.45502
-18.38126
-15.48449
-136.2644
-115.8846
-116.8347
-118.8198
-121.83
-117.4171
-112.45
-106.4969
-109.5812
-126.46
-135.1145
-128.9283
-123.107
-126.3434
-140.1392
-157.7997
-172.5747
-177.5001
-171.5381
-156.5752
-135.7025
-109.1139
-81.46788
-67.54291
-70.05598
-82.83752
-93.70388
-101.6989
-102.366
-93.1893
-86.2534
-85.26179
-87.07987
-102.9108
-133.0569
-159.0717
-177.9152
-186.7788
-181.5824
-163.5325
-139.8855
-116.7547
-94.36222
-73.34948
-55.23027
-38.75415
-27.74672
-21.0024
-18.11881
-15.83682
-23.26006
-22.2942
-21.4506
-19.48019
-21.64247
-25.49211
-29.72412
-30.41366
-28.67687
-28.0818
-28.75246
-29.19383
-27.15226
-24.81458
-24.87869
-25.9312
-26.94402
-29.06234
-30.20293
-27.53658
-25.74554
-26.15498
-26.8485
-27.42149
-28.02872
-28.59564
-29.07858
-29.46502
-29.75128
-29.95368
-30.09145
-30.16606
-30.18103
-30.14661
-30.06895
-29.95049
-29.80161
-29.62283
-29.42139
-29.21612
-29.00251
-28.79776
-28.61263
-28.44514
-28.29902
-28.16872
-28.05633
-27.96063
-27.8857
-27.80883
-27.72617
-27.65109
-27.61006
-27.59183
-27.58351
-27.59817
-27.63982
-27.70736
-27.79047
-27.88123
-27.97088
-28.06404
-28.13986
-28.20744
-28.2596
-28.28179
-28.26663
-28.22329
-28.12653
-27.96875
-27.75418
-27.46939
-27.10008
-26.63331
-26.07865
-25.43252
-24.75456
-24.3128
-24.58819
-24.79549
-23.65263
-22.37635
-24.46726
-26.6191
-26.24773
-24.15539
-21.90445
-22.14114
-23.73422
-23.35848
-21.6186
-22.55364
-25.11431
-24.98555
-22.37556
-19.19087
-18.4736
-20.45209
-21.79
-22.10555
-16.72452
-19.94481
-24.25752
-34.44596
-47.95863
-61.78976
-77.32481
-95.76205
-116.7271
-138.3652
-157.1143
-170.6015
-174.5969
-167.8897
-150.1443
-123.7972
-104.046
-104.6645
-110.2939
-114.7508
-120.665
-122.3428
-119.0249
-115.6223
-105.5531
-93.86029
-100.7472
-127.3551
-153.1911
-170.3411
-177.9519
-174.7967
-160.7136
-139.746
-125.6473
-125.838
-137.8655
-143.7862
-139.963
-129.2091
-110.7172
-104.5986
-112.0688
-114.4262
-111.8095
-110.5303
-109.7575
-112.8317
-112.4656
-130.4739
-87.67802
-76.1044
-63.4645
-55.46259
-48.82812
-43.29462
-38.54855
-34.27264
-30.52181
-27.1565
-24.08709
-21.29727
-18.6679
-16.17438
-13.84055
-11.67411
-9.670927
-7.731944
-5.880362
-4.11123
-2.424159
-0.8155068
0.6867138
2.175666
3.631457
5.055973
6.415234
7.69344
8.928325
10.14425
11.34504
12.52733
13.65156
14.7298
15.81219
16.86735
17.91985
18.95239
19.97607
20.97874
21.98109
22.948
23.90851
24.85089
25.7889
26.71212
27.61923
28.52827
29.45824
30.38638
31.28702
32.17406
33.05684
33.97022
34.90373
35.81448
36.72525
37.65528
38.58482
39.52679
40.47164
41.41545
42.40195
43.50092
44.62416
45.69225
46.77332
47.9505
49.46215
51.24424
52.31312
52.09236
51.00265
49.38809
47.94228
46.73081
45.61585
44.45667
43.32743
42.32774
41.4079
40.43043
39.42884
38.44289
37.51448
36.61394
35.71689
34.80335
33.88671
33.0064
32.13258
31.23873
30.34745
29.46851
28.56495
27.68262
26.77145
25.81559
24.88519
23.97294
23.05472
22.10056
21.10914
20.13529
19.13994
18.09929
17.06328
16.01912
14.92072
13.81283
12.70182
11.5648
10.3566
9.084137
7.811627
6.555257
5.233651
3.843515
2.413746
0.9062231
-0.6633035
-2.285694
-3.976092
-5.673608
-7.530258
-9.504752
-11.55052
-13.75901
-16.04696
-18.56375
-21.27999
-24.16086
-27.27841
-30.79825
-34.72237
-39.15125
-44.11477
-49.87833
-56.95276
-65.36882
-78.5942
-90.46987
51.89324
51.05585
49.55492
48.11006
46.87982
45.76785
44.60179
43.46577
42.4643
41.54407
40.55745
39.55558
38.56134
37.62567
36.71887
35.82006
34.90119
33.97469
33.09192
32.21362
31.31366
30.41983
29.54015
28.6281
27.75001
26.83615
25.87044
24.94132
24.02644
23.10643
22.14505
21.16755
20.17975
19.18357
18.13727
17.1012
16.05431
14.94461
13.83571
12.72631
11.59417
10.37888
9.093843
7.820279
6.573192
5.243528
3.848898
2.422984
0.9077458
-0.6670488
-2.296683
-3.994066
-5.674742
-7.54742
-9.527566
-11.57598
-13.8019
-16.07634
-18.61766
-21.34605
-24.23196
-27.35007
-30.89409
-34.84977
-39.28856
-44.28328
-50.09061
-57.19124
-65.69125
-78.57023
-90.54178
-87.94135
-76.11912
-63.77564
-55.66937
-49.0462
-43.46344
-38.68708
-34.38933
-30.60873
-27.24283
-24.15212
-21.3549
-18.72451
-16.21778
-13.8702
-11.69092
-9.698739
-7.754386
-5.896021
-4.118996
-2.429041
-0.8110115
0.6841682
2.177224
3.63409
5.066646
6.434674
7.708748
8.943852
10.16534
11.3681
12.55254
13.68047
14.75483
15.84313
16.89773
17.95559
18.98891
20.01695
21.04
22.03032
22.9972
23.96198
24.90742
25.84952
26.77606
27.68341
28.59534
29.53291
30.46847
31.36838
32.25838
33.14269
34.05943
35.00234
35.9151
36.82992
37.76709
38.69748
39.64159
40.59279
41.54535
42.53307
43.64061
44.7708
45.82858
46.92374
48.12805
49.63517
51.2942
52.08664
-17.07278
-19.61101
-23.43964
-33.06247
-46.37362
-60.16947
-75.57344
-93.87325
-114.9804
-137.0098
-156.2994
-170.7586
-175.3563
-170.3143
-154.5418
-129.5974
-108.3511
-105.7276
-110.8936
-115.23
-119.4121
-121.06
-119.5929
-116.7491
-106.9674
-95.62872
-102.1374
-128.9234
-154.49
-171.5552
-179.2991
-176.4947
-163.1108
-143.0048
-128.3184
-126.7523
-138.6518
-144.5215
-140.3356
-130.0429
-111.9097
-105.6352
-113.1346
-114.9267
-111.793
-110.197
-109.5544
-112.6914
-113.3818
-124.6073
-22.70156
-22.581
-21.91622
-19.76306
-21.53872
-25.26685
-30.01644
-31.17444
-29.3438
-28.21779
-28.76326
-29.44447
-27.498
-24.99495
-24.82991
-25.82785
-26.84864
-29.08898
-30.52209
-27.75428
-25.83896
-26.1968
-26.89288
-27.46532
-28.05202
-28.60158
-29.07694
-29.46392
-29.75214
-29.95597
-30.09549
-30.17247
-30.18777
-30.15475
-30.0776
-29.95903
-29.81063
-29.63247
-29.42998
-29.22622
-29.01092
-28.80474
-28.61981
-28.45121
-28.30525
-28.17449
-28.06163
-27.96498
-27.88984
-27.81337
-27.73046
-27.65444
-27.61422
-27.59588
-27.58727
-27.60294
-27.64526
-27.71334
-27.79627
-27.88681
-27.97626
-28.07108
-28.14488
-28.21424
-28.26661
-28.28707
-28.27111
-28.22799
-28.12905
-27.9689
-27.75417
-27.46632
-27.0952
-26.62988
-26.08797
-25.46581
-24.84269
-24.4417
-24.63326
-24.68265
-23.48109
-22.221
-24.40888
-26.95655
-26.47584
-24.25578
-21.99523
-22.40037
-23.8986
-23.29653
-21.84975
-23.38065
-25.80226
-25.15188
-22.28668
-19.23588
-18.86585
-20.99554
-22.20049
-21.92142
-129.4856
-116.4867
-115.3625
-117.8106
-123.0622
-118.3184
-113.2896
-107.4974
-110.5812
-127.0593
-135.733
-129.2605
-123.7561
-127.9158
-142.967
-160.2917
-174.2867
-178.7854
-172.6813
-157.53
-136.6429
-110.4563
-82.97342
-69.05982
-71.25731
-84.07524
-94.89442
-101.8169
-101.0813
-92.4062
-86.17591
-85.91101
-90.49325
-108.9743
-138.3184
-162.4189
-180.0004
-187.4284
-181.7264
-162.716
-138.4
-114.9883
-92.471
-71.39713
-53.45802
-37.28766
-26.76941
-20.54504
-17.91403
-16.24705
-122.2044
-115.889
-114.037
-117.0939
-124.4189
-119.5612
-114.2667
-108.8326
-111.5236
-127.8407
-136.2182
-129.8341
-125.1559
-130.6927
-146.7975
-163.5756
-176.6908
-180.7069
-174.4933
-159.2058
-138.5649
-112.9226
-85.22944
-71.67235
-73.35449
-86.019
-96.44497
-102.0797
-99.74267
-91.66004
-86.70163
-87.58655
-96.20171
-116.3029
-144.4631
-166.6675
-182.9345
-189.4754
-182.4525
-162.1309
-136.6194
-112.309
-89.86179
-68.93346
-51.32968
-35.72347
-25.59929
-19.98646
-17.77639
-16.74608
-22.21857
-22.88916
-22.51459
-20.27946
-21.54771
-25.03087
-30.35365
-32.17593
-30.44763
-28.59296
-28.84873
-29.70828
-27.95904
-25.24798
-24.86713
-25.72036
-26.64517
-29.00976
-30.81079
-28.13542
-26.1096
-26.35074
-26.97535
-27.52181
-28.08558
-28.61592
-29.08079
-29.46777
-29.75923
-29.96049
-30.10132
-30.18167
-30.19703
-30.1652
-30.08863
-29.96973
-29.82195
-29.64573
-29.44349
-29.23832
-29.02187
-28.81618
-28.62915
-28.46025
-28.3154
-28.18443
-28.07185
-27.97101
-27.89635
-27.82089
-27.737
-27.65938
-27.62058
-27.60204
-27.59283
-27.61035
-27.65269
-27.72269
-27.80558
-27.89557
-27.98377
-28.08202
-28.15198
-28.22405
-28.27723
-28.2958
-28.27853
-28.23547
-28.13312
-27.97003
-27.75525
-27.46754
-27.09543
-26.63072
-26.10466
-25.51134
-24.94498
-24.57643
-24.65528
-24.49902
-23.23893
-22.04573
-24.50006
-27.36547
-26.69777
-24.22154
-22.06216
-22.77031
-24.15334
-23.19215
-22.37255
-24.53898
-26.67486
-25.36445
-22.27985
-19.44811
-19.4906
-21.66652
-22.6949
-21.85443
-17.63198
-19.39401
-22.60208
-31.51292
-44.30268
-57.90147
-73.4807
-91.71067
-112.9703
-135.4742
-155.3996
-171.2814
-177.5232
-173.7819
-159.8724
-136.5425
-114.9623
-108.6817
-112.243
-116.0107
-118.073
-119.5842
-120.0781
-118.3237
-109.2327
-98.76313
-104.5382
-131.4188
-156.5418
-173.4953
-181.3813
-179.0084
-166.3413
-147.4453
-132.643
-128.4994
-140.2024
-145.5241
-140.9693
-131.042
-113.4471
-107.3164
-114.8497
-115.6234
-111.6832
-109.5881
-109.2846
-112.4602
-113.2372
-118.3756
-88.05064
-75.95314
-64.03708
-55.85169
-49.30292
-43.63696
-38.81294
-34.50623
-30.71596
-27.3437
-24.2064
-21.41785
-18.79424
-16.25827
-13.9005
-11.72254
-9.745992
-7.77746
-5.908997
-4.120566
-2.436936
-0.8142384
0.6765653
2.172345
3.629556
5.08206
6.444327
7.71051
8.955992
10.1782
11.36865
12.55485
13.70274
14.76803
15.86251
16.91401
17.98074
19.01757
20.04763
21.05532
22.05029
23.02231
23.99606
24.94302
25.88394
26.80787
27.72192
28.63981
29.57641
30.50885
31.40768
32.30676
33.19237
34.11156
35.06355
35.98233
36.89591
37.83405
38.76886
39.72416
40.68326
41.64636
42.6283
43.75226
44.90837
45.9613
47.08349
48.29944
49.76295
51.25888
51.77981
51.60409
51.01967
49.70093
48.29231
47.03626
45.91457
44.7192
43.56521
42.5612
41.64638
40.63311
39.6298
38.63002
37.69874
36.78052
35.87883
34.96028
34.03152
33.15376
32.26877
31.36069
30.46638
29.58689
28.66324
27.79431
26.86883
25.89438
24.9694
24.05696
23.14267
22.16899
21.16663
20.19928
19.19891
18.1477
17.12535
16.08534
14.96282
13.85135
12.73367
11.60988
10.39962
9.102272
7.814041
6.581223
5.249339
3.843084
2.422273
0.9062053
-0.6683398
-2.307521
-4.030722
-5.689293
-7.582051
-9.548534
-11.60095
-13.86245
-16.1045
-18.68078
-21.40528
-24.31372
-27.4353
-30.99544
-34.97563
-39.42482
-44.45336
-50.30833
-57.41817
-65.95387
-78.33526
-90.26644
51.23412
50.86012
49.78947
48.50151
47.28028
46.19279
44.93949
43.74003
42.75796
41.88742
40.86661
39.82156
38.77141
37.85136
36.95515
36.03015
35.07149
34.12291
33.27397
32.3872
31.45879
30.57135
29.6987
28.73945
27.93883
26.96848
25.96355
25.05247
24.10939
23.22601
22.23916
21.27364
20.31378
19.27344
18.16534
17.14834
16.11978
15.00002
13.91494
12.78311
11.6128
10.40869
9.151142
7.846993
6.586297
5.275394
3.863533
2.400492
0.8875162
-0.667961
-2.271384
-4.019007
-5.695985
-7.666244
-9.589342
-11.60187
-13.95761
-16.14097
-18.81246
-21.45617
-24.37533
-27.61269
-31.18936
-35.18195
-39.63791
-44.7103
-50.64967
-57.78229
-66.35777
-78.0219
-90.14536
-87.88944
-75.78635
-64.48857
-56.17425
-49.72947
-43.79548
-38.99382
-34.72738
-30.92078
-27.43217
-24.24604
-21.5357
-18.88356
-16.29339
-13.97667
-11.79802
-9.760265
-7.755809
-5.918154
-4.129086
-2.482452
-0.8396982
0.6955471
2.147608
3.641402
5.108401
6.415088
7.740623
8.999251
10.18465
11.36402
12.61389
13.80168
14.79961
15.9121
16.95814
18.04522
19.07833
20.09911
21.09955
22.12718
23.1178
24.08304
25.02515
25.95164
26.90376
27.83991
28.73004
29.64582
30.62158
31.55513
32.44135
33.3237
34.22493
35.20959
36.15116
37.01471
37.99535
38.96314
39.89923
40.8539
41.82418
42.79483
43.96748
45.18225
46.17437
47.2774
48.44022
49.82314
51.14806
51.4018
-18.34765
-19.38215
-22.0031
-29.99236
-41.97052
-54.89738
-70.87021
-89.21378
-110.427
-133.6044
-154.2576
-171.3455
-178.431
-177.7758
-166.5931
-145.0059
-123.794
-114.9407
-114.0426
-117.3942
-117.1301
-118.3428
-120.6079
-120.1833
-111.6506
-103.4487
-108.373
-135.1467
-159.4005
-176.4976
-184.4081
-182.7286
-170.7062
-152.7403
-138.7612
-131.6105
-142.0164
-146.8798
-141.5404
-130.9509
-114.6246
-110.3474
-117.5475
-116.5561
-111.5356
-109.2121
-108.8332
-111.6617
-111.8444
-112.3779
-21.93754
-22.89062
-23.15515
-21.20008
-21.90412
-25.06213
-30.69757
-33.33355
-32.0385
-29.47426
-29.0782
-29.88462
-28.46418
-25.48019
-24.82604
-25.56884
-26.21529
-28.71614
-30.79827
-28.57664
-26.59769
-26.59434
-27.08171
-27.5838
-28.12397
-28.6346
-29.08426
-29.47348
-29.75977
-29.9644
-30.10984
-30.19822
-30.21324
-30.18307
-30.10814
-29.99066
-29.84068
-29.67255
-29.46543
-29.24952
-29.04729
-28.84017
-28.64385
-28.47624
-28.33176
-28.2007
-28.0931
-27.98297
-27.90671
-27.83177
-27.74534
-27.67002
-27.63049
-27.61308
-27.60034
-27.623
-27.66612
-27.73813
-27.82249
-27.91005
-27.99501
-28.09861
-28.16358
-28.23844
-28.29237
-28.31037
-28.29293
-28.25123
-28.13999
-27.97757
-27.75495
-27.46389
-27.09684
-26.64565
-26.1308
-25.5539
-25.04314
-24.69888
-24.66661
-24.32806
-23.0923
-22.14702
-24.9879
-27.87111
-26.76457
-23.94966
-22.11392
-22.85363
-23.82678
-23.06186
-23.41942
-26.05291
-27.71067
-25.69605
-22.45776
-19.82126
-20.46907
-22.62836
-23.31096
-21.99602
-115.4636
-113.8186
-113.4585
-117.6781
-126.4993
-120.9721
-115.1475
-109.8135
-111.7003
-127.7274
-137.0709
-130.3536
-127.4179
-134.7534
-151.9914
-167.6967
-179.9414
-183.6422
-177.2518
-161.9989
-141.7541
-116.553
-89.4451
-75.53469
-75.86964
-88.43871
-98.55025
-102.8704
-98.67365
-91.21193
-88.22934
-91.28351
-104.1487
-125.1789
-151.833
-172.0709
-186.9384
-191.999
-184.0632
-162.0936
-134.321
-108.5435
-86.53914
-66.24731
-49.03906
-34.03253
-24.43321
-19.44177
-17.75174
-17.35939
-0.03542957
0.01502631
-1.442671
1.842499
0.209262
-0.08120496
0.01704809
1.666139
-0.06471658
0.03341432
0.4490191
0.2357293
0.009966753
3.199562
0.02042393
2.244557
4.5943
-4.074299
1.479745
3.147917
-0.1734286
1.434894
0.01922185
1.393908
-0.005501537
2.208586
1.291814
0.6081637
1.511492
-0.1502305
-1.643843
-0.2655202
2.081974
-0.02161208
2.071829
0.04097476
0.02360297
3.180034
0.0009144473
2.302653
3.144717
0.01769432
0.4175762
0.2076357
0.1181798
2.724886
-0.007779198
0.004148447
0.01626208
3.409618
-1.011365
0.02529205
-0.4899488
-0.01908412
2.157809
0.02733632
-1.458979
-2.091153
-4.892143
-0.002679632
0.05124114
0.9616476
-0.06678604
0.2082593
3.686462
-0.001123319
-0.07608659
0.7308666
7.352336
-0.2228482
0.352627
0.03100155
2.32603
0.5854235
0.8982225
0.8415809
0.6373342
0.2441476
0.006136764
0.9159038
0.1321793
-0.3146494
0.1048278
-0.07649793
0.08211542
0.01478826
5.110795
0.02318403
-0.1729871
-0.4260281
3.461498
3.88647
2.387842
0.7262752
0.155476
-0.5295763
2.479826
1.720185
-77.42212
0.1556503
-0.1036194
4.179592
3.999255
0.08764534
-1.242324
1.806962
0.04081229
2.293977
0.01621121
1.750722
0.04225486
20.2942
0.01645431
-0.1951143
-0.9325052
0.00751726
-0.05976917
-28.00028
-0.9457531
0.2012207
-0.2632279
-0.3360963
-0.1413202
0.02977882
1.446926
-0.04829347
0.009681433
0.03612118
0.790918
0.02930051
8.162194
4.159664
1.866388
-0.07981869
0.02723483
-0.01591172
-1.331227
7.208238
-2.68629
3.092726
1.876954
3.640216
2.007519
-3.411974
-0.009358557
0.1091258
1.903261
-0.2382253
-0.03144697
2.71416
0.3863156
0.0460716
-0.1408842
1.679279
5.30228
1.500919
0.004174853
-0.1073917
0.00287295
-0.2624788
0.3502605
1.758869
-0.995221
0.01182467
4.038769
-0.009632099
-0.05680265
3.170078
-0.04146844
0.6046206
0.05029373
0.1105793
0.017911
-0.741331
-0.2144308
-0.003903665
-0.2189825
-0.05336017
-0.02725579
0.9900454
-0.04824658
2.30828
-3.143184
-0.003011573
-0.3005676
-1.505168
2.590233
2.412935
4.046446
0.02320765
-1.805685
0.02273883
-0.1010549
0.02003603
2.666472
-0.2394456
-0.1132118
0.1959499
-2.25685
-0.2506486
2.250198
-0.1699501
-0.2723209
5.381409
-0.1897215
-0.143534
0.005263834
-1.461419
-4.398551
0.002950244
0.007432159
0.382051
0.01282408
2.250489
0.004755671
0.01498116
-0.1889596
-0.1195748
0.9296301
0.3775748
-2.158154
-1.837652
1.509077
0.04528967
16.39308
0.7585192
0.8686061
0.02820924
-1.519135
-2.753722
0.003617526
0.01042311
-0.2400271
2.238462
0.4868646
1.714859
1.246649
1.363337
1.369461
0.02530718
-1.181256
0.108294
0.007857604
-0.03396495
0.06680262
0.3827241
-0.4175725
-0.5569539
-1.205439
1.399117
1.443353
-125.4776
4.436499
-0.4487953
0.003967473
2.512453
-0.07874912
0.87853
-0.1623874
-0.6253104
1.177848
0.1418315
0.3455633
0.2205776
2.46138
0.3406926
0.04145784
0.2482305
1.603287
0.08499842
-0.2274204
0.01522934
-0.1009997
0.003284031