/*--------------------------------*- C++ -*----------------------------------*\
| =========                 |                                                 |
| \\      /  F ield         | OpenFOAM: The Open Source CFD Toolbox           |
|  \\    /   O peration     | Version:  2406                                  |
|   \\  /    A nd           | Website:  www.openfoam.com                      |
|    \\/     M anipulation  |                                                 |
\*---------------------------------------------------------------------------*/
FoamFile
{
    version     2.0;
    format      ascii;
    arch        "LSB;label=32;scalar=64";
    class       surfaceScalarField;
    location    "0.38";
    object      phi;
}
// * * * * * * * * * * * * * * * * * * * * * * * * * * * * * * * * * * * * * //

dimensions      [0 3 -1 0 0 0 0];

oriented        oriented;

internalField   nonuniform List<scalar> 
23794
(
-0.003821287
0.00557243
-0.001751144
-0.001928916
-0.001892371
0.0001511506
-0.002080067
0.001859576
-0.001708425
0.003575506
-0.001715931
0.004939874
-0.001364368
0.005978109
-0.001038234
0.006181553
-0.0002034441
0.004285429
0.001896124
0.0008099463
0.003475482
-0.001036263
0.001846209
-0.001507251
0.0004709887
-0.002792289
0.001285038
-0.002933562
0.0001412727
-0.00168676
-0.001246802
-0.001005692
-0.0006810682
-0.001408878
0.0004031862
-0.00217461
0.0007657319
-0.001442494
-0.0007321163
0.0008966529
-0.002339147
0.003411286
-0.002514633
0.005444752
-0.002033466
0.00647204
-0.001027288
0.005124202
0.001347838
0.001363139
0.003761063
-0.002356662
0.0037198
-0.003106986
0.0007503246
-0.0007114393
-0.002395547
0.001526214
-0.002237653
0.002623713
-0.001097499
0.003975286
-0.001351573
0.006671914
-0.002696627
0.01006723
-0.00339532
0.00913144
0.0009357935
0.002448409
0.006683031
-0.001803174
0.004251583
-0.0005835705
-0.001219603
0.0003374774
-0.0009210478
-0.003235214
0.003572691
-0.007776112
0.004540899
-0.01078145
0.003005339
-0.01240599
0.001624541
-0.01333225
0.0009262625
-0.01391354
0.0005812888
-0.01430502
0.0003914804
-0.01448608
0.0001810517
-0.01455323
6.715325e-05
-0.01455099
-2.236327e-06
-0.01448987
-6.111837e-05
-0.01441136
-7.851361e-05
-0.01427301
-0.0001383466
-0.01409276
-0.0001802514
-0.01385423
-0.0002385326
-0.01359088
-0.0002633489
-0.01330918
-0.0002816988
-0.01297335
-0.0003358322
-0.01261678
-0.0003565666
-0.01225109
-0.0003656888
-0.01182138
-0.0004297132
-0.0113678
-0.0004535799
-0.01088803
-0.0004797735
-0.01040038
-0.0004876466
-0.009890077
-0.0005103043
-0.009329966
-0.0005601108
-0.008775303
-0.0005546628
-0.008178329
-0.0005969742
-0.007562537
-0.0006157925
-0.006938747
-0.0006237897
-0.006304835
-0.0006339125
-0.005639157
-0.0006656772
-0.004969921
-0.0006692368
-0.00429096
-0.0006789602
-0.003596598
-0.0006943625
-0.002899555
-0.0006970429
-0.002222595
-0.0006769606
-0.001505386
-0.0007172087
-0.0008141536
-0.0006912323
-0.0001617681
-0.0006523855
0.0004851607
-0.0006469289
0.001261807
-0.0007766462
0.002016622
-0.0007548154
0.002750473
-0.0007338504
0.003466316
-0.0007158434
0.004160235
-0.0006939193
0.004849587
-0.0006893512
0.005514667
-0.0006650798
0.006188557
-0.0006738907
0.006840347
-0.0006517893
0.00745567
-0.0006153235
0.008073133
-0.000617463
0.008676397
-0.0006032638
0.009255962
-0.0005795651
0.009831483
-0.0005755214
0.01039211
-0.0005606237
0.01089772
-0.0005056148
0.01139924
-0.0005015215
0.01188554
-0.000486296
0.01233059
-0.0004450476
0.01277674
-0.0004461536
0.01317064
-0.0003938952
0.01353773
-0.0003670991
0.01386657
-0.0003288373
0.01415355
-0.0002869787
0.01443671
-0.0002831597
0.01468345
-0.0002467441
0.01489182
-0.0002083645
0.01505846
-0.000166641
0.01518375
-0.0001252859
0.01527883
-9.508186e-05
0.0153136
-3.476979e-05
0.01531689
-3.293251e-06
0.01522433
9.255877e-05
0.01495011
0.0002742273
0.01450517
0.00044494
0.01384604
0.0006591283
0.01278075
0.001065286
0.0108096
0.001971154
0.007186175
0.003623422
0.002133222
0.005052953
-0.0001081819
0.002241404
0.001465894
-0.001574076
-7.798737e-05
0.001543881
-0.006177839
0.006099851
-0.01006185
0.003884008
-0.008173292
-0.001888555
-0.00469176
-0.003481532
-0.002671892
-0.002019869
-0.001684518
-0.0009873739
0.0002574192
-0.001941937
0.003219378
-0.002961959
0.003866954
-0.0006475761
-0.001174977
0.005041931
-0.004993386
0.003818409
-0.006739856
0.00174647
-0.00656217
-0.0001776858
-0.005536134
-0.001026036
-0.003560852
-0.001975282
-0.0009277577
-0.002633094
0.001593566
-0.002521323
0.003598252
-0.002004686
0.004890917
-0.001292665
0.005109683
-0.0002187661
0.003980847
0.001128836
0.002060244
0.001920602
0.0008261731
0.001234071
0.001348915
-0.0005227421
0.002059901
-0.000710986
0.002070279
-1.037743e-05
0.002411
-0.0003407208
0.0006918942
0.001719105
-0.003833795
0.00452569
-0.007741613
0.003907818
-0.009153635
0.001412022
-0.009063329
-9.030657e-05
-0.008278466
-0.0007848626
-0.007051598
-0.001226868
-0.001479168
-0.004732437
0.00689828
-0.003916987
-0.002389817
-0.004234991
0.0001642825
-0.004634166
0.002314797
-0.003858939
0.004430035
-0.003831169
0.006199753
-0.003134086
0.007441809
-0.002280291
0.008376624
-0.001138259
0.00809596
0.002176789
0.004351247
0.007220195
-0.0004874303
0.006684887
-0.002727156
0.002710715
-0.003717915
0.002275796
-0.003642088
6.544575e-05
-0.002910823
-0.001978066
-0.003222643
-0.0003692484
-0.004022746
0.001203289
-0.003783727
0.0005267128
-0.001770031
-0.002745812
0.001224474
-0.005333651
0.004147926
-0.005438085
0.006578562
-0.004464102
0.007989562
-0.002438288
0.007441336
0.001896064
0.004169491
0.007032908
-0.00143005
0.009319342
-0.004437647
0.003757921
-0.002256167
-0.004577026
-0.0004670229
-0.004026797
0.0001956746
-0.001760197
0.001116901
-0.0022728
0.003947439
-0.005527165
0.007486984
-0.006934865
0.008905862
-0.0004830846
0.00501264
0.01057625
-0.001210748
0.01047497
-0.00616855
0.003738199
-0.01123973
0.004150134
-0.0158795
0.008212459
-0.01938742
0.008048818
-0.02068453
0.004302446
-0.02101265
0.001952666
-0.02109851
0.001012117
-0.02108641
0.0005691899
-0.02102682
0.0003318938
-0.02085717
1.140302e-05
-0.02066907
-0.000120948
-0.02047667
-0.0001946385
-0.02023953
-0.0002982554
-0.01998356
-0.0003344876
-0.01966683
-0.0004550692
-0.01930888
-0.0005382064
-0.01888827
-0.0006591424
-0.01844169
-0.0007099331
-0.0179825
-0.000740882
-0.01746494
-0.0008533898
-0.01692234
-0.0008991734
-0.01637446
-0.0009135633
-0.01575314
-0.001051037
-0.01510899
-0.001097728
-0.01443462
-0.001154149
-0.01375061
-0.001171656
-0.01304625
-0.001214664
-0.01228235
-0.00132401
-0.0115268
-0.001310215
-0.01072693
-0.001396843
-0.009903017
-0.001439703
-0.009073116
-0.001453691
-0.008235621
-0.001471407
-0.007359429
-0.001541869
-0.00647818
-0.001550486
-0.005588012
-0.001569128
-0.004680867
-0.001601507
-0.003773075
-0.001604835
-0.00288615
-0.001563885
-0.001957851
-0.001645508
-0.001059168
-0.001589915
-0.0002036613
-0.001507893
0.0006453535
-0.001495944
0.001642022
-0.001773314
0.002618182
-0.001730976
0.003571253
-0.001686921
0.004501354
-0.001645944
0.005408515
-0.001601081
0.006312085
-0.001592921
0.007187723
-0.001540718
0.008073836
-0.001560004
0.008935276
-0.001513229
0.009752379
-0.001432426
0.01057451
-0.001439596
0.01138448
-0.001413235
0.01216477
-0.001359851
0.01294124
-0.001351993
0.01370482
-0.001324201
0.01440373
-0.001204531
0.0151021
-0.001199891
0.0157835
-0.001167689
0.01641883
-0.001080379
0.0170575
-0.001084823
0.01763482
-0.0009712157
0.01818947
-0.0009217465
0.01870122
-0.0008405955
0.01916701
-0.0007527669
0.01963546
-0.0007516043
0.02006525
-0.0006765354
0.02045306
-0.0005961792
0.02079853
-0.000512113
0.02110136
-0.000428112
0.02137607
-0.000369796
0.0215871
-0.0002457941
0.02179949
-0.0002156892
0.0219929
-0.0001008489
0.0220989
0.0001682318
0.02215415
0.0003896857
0.0221646
0.0006486817
0.02207001
0.001159872
0.02162606
0.002415107
0.01977195
0.005477528
0.01576778
0.009057132
0.01045063
0.007558552
0.005036966
0.003839586
-0.001160551
0.007741398
-0.007209518
0.01214882
-0.008262679
0.004937169
-0.004802547
-0.005348686
-0.001244891
-0.007039188
0.0005634458
-0.003828206
0.001105757
-0.001529685
0.002223132
-0.003059312
0.005135687
-0.005874513
0.00422427
0.000263841
-0.003140372
0.01240657
-0.007153264
0.007831302
-0.008327542
0.002920747
-0.007804776
-0.0007004518
-0.00657218
-0.002258632
-0.004169088
-0.004378373
-0.00103066
-0.005771522
0.001991842
-0.005543825
0.004591381
-0.004604225
0.00660369
-0.003304974
0.007817
-0.001432075
0.007735332
0.001210504
0.006050287
0.003605647
0.003816888
0.003467471
0.00303346
0.0002606856
0.003050388
-0.000727914
0.003248645
-0.0002086343
0.002496202
0.0004117225
-0.003104536
0.007319843
-0.00969046
0.01111161
-0.01201781
0.006235165
-0.0118789
0.00127311
-0.01133749
-0.0006317125
-0.01031939
-0.001802966
-0.008750606
-0.002795647
-0.003331494
-0.005692203
0.008256968
-0.006481752
-0.002910675
-0.007016518
0.0001276108
-0.007672452
0.002743267
-0.006474595
0.00528512
-0.006373021
0.00739656
-0.005245526
0.008968773
-0.003852503
0.009851461
-0.002020947
0.01024231
0.001785937
0.007947834
0.009514672
0.001796067
0.01283665
-0.002868031
0.007374813
-0.004502481
0.003910247
-0.004460161
2.312522e-05
-0.003869481
-0.002568745
-0.004736004
0.0004972737
-0.005515338
0.001982624
-0.004476253
-0.0005123726
-0.001855354
-0.005366712
0.001453426
-0.008642431
0.004743389
-0.008728048
0.007535784
-0.007256498
0.00911007
-0.004012574
0.008398824
0.00260731
0.005535422
0.00989631
-0.0001311283
0.01498589
-0.004980834
0.008607627
-0.004787562
-0.004770298
-0.004709818
-0.004104542
-0.005144934
-0.001325081
-0.004046232
-0.003371502
-0.0007452622
-0.008828135
0.002914259
-0.01059439
0.005180567
-0.002749393
0.002763781
0.01299304
-0.006538999
0.01977775
-0.01671723
0.01391643
-0.02250213
0.009935027
-0.02450617
0.01021651
-0.02481827
0.008360914
-0.02463011
0.004114286
-0.02466497
0.001987526
-0.02476036
0.001107509
-0.0248222
0.0006310323
-0.02484217
0.0003518636
-0.02471439
-0.0001163829
-0.0245342
-0.0003011369
-0.02432184
-0.0004070008
-0.02404907
-0.0005710194
-0.02375789
-0.0006256699
-0.02339074
-0.0008222179
-0.0229757
-0.0009532471
-0.02248416
-0.001150685
-0.02196144
-0.001232655
-0.02142461
-0.001277713
-0.020815
-0.001462991
-0.0201754
-0.001538778
-0.01953103
-0.001557933
-0.01879576
-0.001786311
-0.01803334
-0.001860145
-0.01723431
-0.001953181
-0.01642343
-0.001982539
-0.01558813
-0.002049958
-0.01467924
-0.002232904
-0.01378151
-0.002207942
-0.01282809
-0.002350265
-0.01184602
-0.002421774
-0.01085595
-0.002443758
-0.009856248
-0.002471109
-0.008809477
-0.00258864
-0.007756143
-0.002603819
-0.006690893
-0.002634378
-0.005605314
-0.002687086
-0.004517271
-0.002692878
-0.003451918
-0.002629238
-0.0023381
-0.002759326
-0.001257466
-0.002670549
-0.0002256581
-0.0025397
0.0007976743
-0.002519276
0.001983959
-0.002959599
0.003149146
-0.002896163
0.004287971
-0.002825746
0.005398437
-0.00275641
0.006481734
-0.002684378
0.007560387
-0.002671574
0.008604755
-0.002585086
0.009661528
-0.002616777
0.0106876
-0.002539302
0.01166038
-0.002405203
0.0126391
-0.002418319
0.01360207
-0.002376209
0.01452907
-0.002286845
0.01545161
-0.002274534
0.01635785
-0.002230445
0.0171857
-0.002032373
0.0180135
-0.002027699
0.0188201
-0.001974288
0.01957002
-0.001830293
0.02032592
-0.001840727
0.0210057
-0.001650998
0.02165934
-0.001575386
0.02226041
-0.00144166
0.02280447
-0.001296825
0.02335319
-0.001300332
0.02385366
-0.001176999
0.0243047
-0.001047221
0.0247039
-0.0009113085
0.02505216
-0.000776379
0.02536638
-0.0006840123
0.02560596
-0.0004853778
0.0258379
-0.0004476269
0.02601193
-0.0002748745
0.02605198
0.0001281788
0.02602332
0.0004183483
0.02596196
0.0007100383
0.02588855
0.001233278
0.02594072
0.002362942
0.02616102
0.005257222
0.025624
0.009594157
0.02257717
0.01060538
0.0141816
0.01223515
0.002614884
0.01930811
-0.003247415
0.01801112
-0.002268279
0.003958034
0.0008787367
-0.008495702
0.004784385
-0.01094484
0.00674923
-0.005793051
0.006655836
-0.001436291
0.006165731
-0.002569207
0.006919176
-0.006627958
0.003607263
0.003575754
-0.004108502
0.02012234
-0.007479999
0.0112028
-0.009183893
0.004624642
-0.008702701
-0.001181643
-0.007287009
-0.003674325
-0.004457549
-0.007207833
-0.0008641372
-0.009364934
0.002504192
-0.008912154
0.005393031
-0.007493063
0.007714811
-0.005626754
0.00924376
-0.002961025
0.009660665
0.0007935987
0.008651081
0.004615231
0.006429855
0.005688697
0.004928215
0.001762326
0.004398664
-0.0001983629
0.003923631
0.0002663987
0.0001070069
0.004228347
-0.008182581
0.01560943
-0.01330904
0.01623807
-0.01407985
0.00700598
-0.01405846
0.001251715
-0.01358154
-0.001108628
-0.01232485
-0.003059654
-0.01045813
-0.004662377
-0.005532652
-0.006846085
0.009885686
-0.009521353
-0.003557418
-0.01030518
7.195917e-05
-0.01130183
0.003280181
-0.009682818
0.006345966
-0.009438806
0.008878499
-0.007778059
0.01080617
-0.005780171
0.01177607
-0.002990849
0.01222172
0.001340289
0.01120512
0.01053127
0.005264293
0.01877748
-0.001973728
0.01461283
-0.005235344
0.007171863
-0.005240136
2.791678e-05
-0.004459466
-0.003349415
-0.005565307
0.001603115
-0.006401588
0.002818905
-0.004931439
-0.001982522
-0.001985852
-0.008312298
0.001603326
-0.01223161
0.00527692
-0.01240164
0.008502543
-0.01048212
0.01033516
-0.00584519
0.009237927
0.003704542
0.005939312
0.01319492
0.0002186469
0.02070656
-0.00603913
0.0148654
-0.008612879
-0.002196549
-0.01052237
-0.002195053
-0.0116609
-0.0001865442
-0.01085878
-0.004173623
-0.007790235
-0.01189668
-0.003677359
-0.01470726
-0.00123718
-0.005189572
-0.004478162
0.01623402
-0.01600457
0.03130416
-0.02655308
0.02446495
-0.02962945
0.0130114
-0.02964272
0.01022978
-0.02931282
0.008031011
-0.02945857
0.004260035
-0.02977802
0.002306978
-0.02998988
0.001319367
-0.03008486
0.000726014
-0.03010457
0.0003715678
-0.0299244
-0.0002965487
-0.02967978
-0.0005457558
-0.02939987
-0.0006869155
-0.02904849
-0.0009223963
-0.02867752
-0.0009966425
-0.02821887
-0.001280869
-0.0277044
-0.001467713
-0.02709929
-0.001755798
-0.02645742
-0.001874523
-0.02580024
-0.001934888
-0.02505806
-0.00220517
-0.0242801
-0.002316742
-0.02349708
-0.002340955
-0.02260876
-0.002674625
-0.02168613
-0.002782778
-0.02072074
-0.002918572
-0.01974261
-0.002960673
-0.01873659
-0.003055976
-0.01764116
-0.003328336
-0.01656197
-0.003287123
-0.01541486
-0.003497376
-0.01423517
-0.003601468
-0.01304501
-0.003633916
-0.01184409
-0.003672025
-0.01058702
-0.003845716
-0.009322155
-0.003868683
-0.008042603
-0.00391393
-0.006740354
-0.003989336
-0.005432278
-0.004000954
-0.004150904
-0.003910612
-0.002809178
-0.004101052
-0.001503938
-0.003975789
-0.0002515728
-0.003792066
0.0009874038
-0.003758253
0.00240352
-0.004375716
0.003795984
-0.004288626
0.005161232
-0.004190994
0.006490965
-0.004086143
0.007787252
-0.003980666
0.009077623
-0.003961944
0.01032681
-0.00383427
0.01159363
-0.003883602
0.01282152
-0.003767194
0.01398893
-0.003572609
0.01516497
-0.003594363
0.01632047
-0.003531701
0.01743638
-0.003402758
0.01854898
-0.003387134
0.01963917
-0.003320634
0.02063918
-0.003032382
0.02163999
-0.003028515
0.02261435
-0.002948642
0.02352313
-0.002739078
0.02443975
-0.002757343
0.0252661
-0.002477353
0.02606118
-0.002370461
0.02679442
-0.002174906
0.02746286
-0.001965266
0.0281367
-0.001974172
0.02875283
-0.00179313
0.02931272
-0.001607109
0.02980954
-0.001408128
0.0302489
-0.001215735
0.03065041
-0.001085528
0.03096222
-0.000797183
0.03126812
-0.0007535244
0.03150728
-0.0005140364
0.03157469
6.076408e-05
0.03154111
0.000451935
0.03143011
0.0008210341
0.03122315
0.001440236
0.03090389
0.002682205
0.03092322
0.005237889
0.03136114
0.009156242
0.03094265
0.01102388
0.02511239
0.01806541
0.0125054
0.0319151
0.003846984
0.02666953
0.004644004
0.003161014
0.008991188
-0.01284289
0.01299615
-0.0149498
0.01463435
-0.00743125
0.01402299
-0.0008249336
0.01183993
-0.0003861414
0.009521428
-0.00430946
0.00340345
0.009693731
-0.004458709
0.0279845
-0.007481359
0.01422545
-0.009850248
0.006993532
-0.009297833
-0.001734058
-0.007655551
-0.005316606
-0.00430032
-0.01056306
-0.0002084022
-0.01345685
0.003457968
-0.01257852
0.006455712
-0.01049081
0.008857994
-0.008029037
0.01050243
-0.004605462
0.0110198
0.0002762264
0.0102918
0.005343238
0.008221087
0.007759407
0.006580333
0.00340308
0.005928765
0.0004532057
0.003479832
0.002715331
-0.004281615
0.01198979
-0.01305325
0.02438107
-0.01612753
0.01931235
-0.01660106
0.007479517
-0.01690082
0.001551472
-0.01625641
-0.001753036
-0.01476168
-0.004554391
-0.01251029
-0.006913762
-0.008157255
-0.008209696
0.01182349
-0.01313515
-0.004343139
-0.01417174
-6.935357e-06
-0.01563803
0.003947203
-0.01363696
0.007633634
-0.01312524
0.01066544
-0.01080986
0.01297311
-0.008087843
0.01424641
-0.004264152
0.01457523
0.001011474
0.01433613
0.01077036
0.009763459
0.02335016
0.0006635612
0.02371273
-0.005093733
0.01292916
-0.00574805
0.0006822339
-0.004659483
-0.004437982
-0.005805444
0.002749076
-0.006888539
0.003901999
-0.005178853
-0.003692207
-0.002085929
-0.01140522
0.001705347
-0.01602289
0.00583238
-0.01652867
0.009619882
-0.01426962
0.01172817
-0.007953477
0.01014042
0.005292294
0.005791828
0.01754351
-0.0001885682
0.02668695
-0.008267862
0.0229447
-0.01397317
0.00350876
-0.01793854
0.001770317
-0.01992419
0.001799105
-0.01989795
-0.004199867
-0.01777035
-0.01402428
-0.01385826
-0.01861935
-0.01197965
-0.007068182
-0.0175348
0.02178917
-0.028006
0.04177536
-0.03407781
0.03053676
-0.03459087
0.01352445
-0.03464209
0.010281
-0.03471477
0.008103688
-0.03506993
0.004615194
-0.03542874
0.002665797
-0.03568644
0.001577065
-0.03581495
0.0008545178
-0.0358752
0.0004318234
-0.03568328
-0.0004884712
-0.03541895
-0.0008100826
-0.03510936
-0.0009965031
-0.03469922
-0.001332537
-0.03428286
-0.001413011
-0.03374407
-0.001819658
-0.03314467
-0.002067106
-0.03242898
-0.002471491
-0.03167
-0.002633505
-0.030896
-0.002708889
-0.03001208
-0.003089086
-0.02908569
-0.003243133
-0.02815692
-0.003269723
-0.02709813
-0.00373342
-0.02599507
-0.00388584
-0.02484146
-0.004072181
-0.02367498
-0.004127152
-0.02247469
-0.004256267
-0.02116071
-0.004642318
-0.0198734
-0.004574425
-0.01849843
-0.004872348
-0.01708778
-0.005012115
-0.01566234
-0.005059361
-0.01422606
-0.005108302
-0.01271891
-0.005352866
-0.01120241
-0.005385182
-0.009665703
-0.00545064
-0.008105216
-0.005549822
-0.006534654
-0.005571516
-0.004997152
-0.005448114
-0.003380513
-0.005717692
-0.001802589
-0.005553713
-0.0002799019
-0.005314753
0.001220523
-0.005258678
0.002911839
-0.006067032
0.004575376
-0.005952162
0.006211334
-0.005826953
0.007798138
-0.005672947
0.009343176
-0.005525704
0.01088384
-0.005502613
0.01237588
-0.005326302
0.01389513
-0.005402855
0.01536158
-0.005233646
0.01676248
-0.004973506
0.01817613
-0.005008012
0.01955652
-0.004912093
0.02089485
-0.004741089
0.02223413
-0.004726415
0.0235366
-0.0046231
0.02473354
-0.004229321
0.0259337
-0.00422868
0.02709815
-0.004113092
0.0281806
-0.003821524
0.02927866
-0.003855404
0.03026211
-0.003460803
0.03120789
-0.003316242
0.03207818
-0.003045196
0.03286722
-0.002754309
0.03366608
-0.002773023
0.03438812
-0.002515171
0.0350478
-0.002266791
0.03562471
-0.001985044
0.03613277
-0.00172379
0.03659875
-0.001551508
0.03694246
-0.001140896
0.03728843
-0.001099493
0.03754335
-0.0007689594
0.03759708
7.040732e-06
0.0375228
0.0005262115
0.03736956
0.0009742699
0.03713296
0.001676843
0.03675098
0.003064183
0.03651159
0.005477275
0.03647523
0.009192604
0.03666026
0.01083885
0.0351122
0.01961348
0.02736545
0.03966185
0.01907133
0.03496366
0.01749848
0.004733863
0.02110068
-0.01644509
0.02376638
-0.01761549
0.02438858
-0.008053454
0.02304608
0.0005175709
0.01927711
0.003382824
0.0134926
0.001475055
0.004498975
0.01868735
-0.003938375
0.03642185
-0.007181479
0.01746855
-0.01022592
0.01003798
-0.009537893
-0.002422088
-0.007667197
-0.007187302
-0.003657363
-0.0145729
0.001116865
-0.01823108
0.004990592
-0.01645225
0.007870407
-0.01337062
0.01003801
-0.01019664
0.01159693
-0.006164383
0.01211682
-0.000243662
0.01147367
0.005986391
0.009508268
0.009724807
0.008153658
0.00475769
0.007233264
0.0013736
0.001445049
0.008503546
-0.009891184
0.02332603
-0.01749701
0.03198689
-0.01919011
0.02100544
-0.01999086
0.008280272
-0.02036392
0.001924531
-0.01952682
-0.002590134
-0.01771424
-0.006366976
-0.01497595
-0.009652053
-0.01130971
-0.009816518
0.01415126
-0.01746988
-0.005280419
-0.01870784
-8.892415e-05
-0.02082953
0.004764031
-0.01848991
0.009169922
-0.01753113
0.01277328
-0.01441322
0.01553576
-0.01085032
0.01719524
-0.005923635
0.01751519
0.0006915298
0.01762404
0.01066151
0.01498234
0.02599186
0.006265208
0.03242986
-0.002189617
0.02138398
-0.005133021
0.003625638
-0.004350413
-0.00522059
-0.005440583
0.003839246
-0.006856218
0.005317634
-0.005123436
-0.005424989
-0.002105204
-0.01442345
0.001838024
-0.01996611
0.006506176
-0.02119683
0.01103235
-0.0187958
0.01344755
-0.01036868
0.01113114
0.007608698
0.005238639
0.02343602
-0.001992809
0.0339184
-0.0119544
0.03290629
-0.02066247
0.01221683
-0.02636799
0.007475836
-0.0293167
0.004747819
-0.03063354
-0.002883027
-0.03067631
-0.01398151
-0.02977869
-0.01951697
-0.03063456
-0.00621231
-0.03549429
0.0266489
-0.04016363
0.0464447
-0.04070628
0.03107941
-0.04076865
0.01358681
-0.04158814
0.01110049
-0.04193042
0.008445967
-0.04239072
0.005075497
-0.04278482
0.003059896
-0.04307963
0.001871871
-0.04318071
0.0009555922
-0.04321886
0.0004699791
-0.0429478
-0.0007595277
-0.04261726
-0.001140626
-0.04222682
-0.001386939
-0.04170679
-0.001852574
-0.04120434
-0.001915456
-0.04054226
-0.002481744
-0.03981676
-0.002792598
-0.03894712
-0.00334114
-0.03802567
-0.003554949
-0.03709439
-0.003640168
-0.03602457
-0.004158911
-0.03490714
-0.004360565
-0.0337945
-0.00438236
-0.0325211
-0.005006816
-0.03119005
-0.005216891
-0.02980462
-0.005457616
-0.02840435
-0.005527418
-0.02696737
-0.005693249
-0.0253835
-0.006226188
-0.02384742
-0.006110503
-0.02219446
-0.006525313
-0.02050404
-0.006702532
-0.01879612
-0.006767279
-0.01707919
-0.00682523
-0.01527555
-0.007156506
-0.01346381
-0.00719693
-0.01161892
-0.007295522
-0.009750349
-0.007418396
-0.007859142
-0.007462723
-0.006020449
-0.007286807
-0.004076457
-0.007661683
-0.002164526
-0.007465644
-0.0003114754
-0.007167804
0.001506508
-0.007076661
0.003529554
-0.008090079
0.005520812
-0.00794342
0.007469025
-0.007775166
0.009353189
-0.007557111
0.01119336
-0.00736587
0.01303565
-0.00734491
0.01482252
-0.007113169
0.01665314
-0.007233475
0.01840624
-0.006986742
0.0200933
-0.00666057
0.0218015
-0.006716208
0.02345243
-0.006563023
0.02505854
-0.006347203
0.02668239
-0.006350261
0.02824228
-0.006182997
0.02967676
-0.005663802
0.03112262
-0.005674531
0.03252273
-0.005513202
0.03381897
-0.005117773
0.03514355
-0.005179984
0.03632717
-0.004644418
0.03746618
-0.00445525
0.03851259
-0.004091607
0.03946656
-0.003708278
0.04043786
-0.00374433
0.04130677
-0.003384079
0.04211508
-0.003075102
0.04281455
-0.002684507
0.04343988
-0.002349123
0.04401548
-0.00212711
0.04444911
-0.001574526
0.04488117
-0.001531553
0.04520693
-0.001094721
0.04531239
-9.841978e-05
0.04527307
0.0005655384
0.04511974
0.0011276
0.04487026
0.001926314
0.04443589
0.003498556
0.04407417
0.005838999
0.04367475
0.00959202
0.04299629
0.01151731
0.0437129
0.01889687
0.04337958
0.03999517
0.0400227
0.03832054
0.03724215
0.007514408
0.03668475
-0.01588768
0.0362481
-0.01717885
0.03502323
-0.006828579
0.03265537
0.002885426
0.02770213
0.008336062
0.01887009
0.0103071
0.007310006
0.03024744
-0.002058191
0.04579004
-0.006213692
0.02162405
-0.01021258
0.01403686
-0.009559142
-0.003075523
-0.007568179
-0.009178265
-0.002653015
-0.01948806
0.002964057
-0.02384815
0.007150691
-0.02063889
0.009749329
-0.01596926
0.01134934
-0.01179665
0.0125368
-0.00735184
0.0129763
-0.0006831615
0.01240376
0.006558927
0.01055835
0.01157022
0.009662157
0.005653882
0.007118597
0.00391716
-0.003181125
0.01880327
-0.01625643
0.03640133
-0.02187179
0.03760226
-0.02306458
0.02219823
-0.02433413
0.009549825
-0.02460128
0.002191685
-0.02355503
-0.003636385
-0.02134292
-0.008579093
-0.01797867
-0.0130163
-0.01513712
-0.01172779
0.01699645
-0.02273854
-0.006363912
-0.02407172
-0.0001511318
-0.02704231
0.005742022
-0.02438307
0.01096948
-0.02275859
0.01523789
-0.01868163
0.01859131
-0.01420374
0.02067894
-0.008011264
0.02121557
0.0001549005
0.02135391
0.01052317
0.02048964
0.02685613
0.01413936
0.03878014
0.004512406
0.03101094
-0.001633768
0.009771811
-0.003170954
-0.003683403
-0.004543737
0.005212029
-0.006227282
0.007001179
-0.004764813
-0.006887458
-0.002045073
-0.01714319
0.002021515
-0.0240327
0.007287196
-0.02646251
0.01280693
-0.02431553
0.01559704
-0.01315879
0.01212142
0.01108432
0.004089001
0.03146844
-0.005256263
0.04326367
-0.01716443
0.04481445
-0.02788587
0.02293827
-0.03466685
0.01425681
-0.03853075
0.008611725
-0.04147511
6.133354e-05
-0.04425612
-0.0112005
-0.04734688
-0.01642621
-0.0510547
-0.002504494
-0.05312602
0.02872022
-0.0508778
0.04419649
-0.04824368
0.02844529
-0.04902975
0.01437288
-0.04994316
0.0120139
-0.05028394
0.008786755
-0.05076876
0.005560311
-0.05117463
0.003465768
-0.05155584
0.002253088
-0.05164395
0.001043702
-0.05177677
0.0006027901
-0.05143525
-0.00110104
-0.05105361
-0.001522271
-0.05060188
-0.001838663
-0.0499573
-0.00249716
-0.04939251
-0.002480247
-0.04858465
-0.003289605
-0.04773243
-0.003644811
-0.0466905
-0.004383069
-0.04557966
-0.004665794
-0.04447542
-0.004744407
-0.04319754
-0.005436787
-0.04185674
-0.005701372
-0.04052183
-0.005717267
-0.03900487
-0.006523776
-0.037411
-0.00681076
-0.03575199
-0.007116626
-0.03405538
-0.007224033
-0.03235921
-0.007389414
-0.0304402
-0.008145196
-0.02861313
-0.007937579
-0.02661836
-0.008520083
-0.02459621
-0.008724683
-0.02255551
-0.008807981
-0.02047047
-0.008910262
-0.01832896
-0.009298015
-0.01617233
-0.009353566
-0.01396383
-0.009504018
-0.01174805
-0.009634182
-0.009438587
-0.009772183
-0.007262571
-0.009462823
-0.004925503
-0.009998751
-0.002603391
-0.009787757
-0.0003464243
-0.00942477
0.001858633
-0.009281719
0.004281197
-0.01051264
0.006666383
-0.01032861
0.008950367
-0.01005915
0.01119255
-0.009799292
0.01340424
-0.009577562
0.01560935
-0.009550021
0.01775291
-0.009256731
0.01997708
-0.009457644
0.02207878
-0.009088443
0.02410063
-0.008682422
0.02615279
-0.008768359
0.02814682
-0.008557061
0.03007729
-0.008277665
0.03201742
-0.008290398
0.03389087
-0.008056449
0.03560474
-0.007377667
0.03733577
-0.007405561
0.03899402
-0.007171453
0.04056066
-0.006684416
0.04215029
-0.006769612
0.04355756
-0.00605169
0.04493383
-0.005831512
0.04616913
-0.005326914
0.04731059
-0.004849733
0.04847885
-0.004912595
0.04949846
-0.004403691
0.05047576
-0.004052395
0.05128914
-0.003497894
0.05203675
-0.003096732
0.0527297
-0.002820056
0.05321923
-0.002064057
0.05373718
-0.002049505
0.05413668
-0.001494212
0.05422383
-0.0001855784
0.05413885
0.0006505199
0.0539433
0.001323154
0.05365931
0.0022103
0.05320122
0.003956649
0.0528338
0.006206415
0.0525475
0.00987832
0.05142266
0.01264215
0.05212535
0.01819417
0.05656575
0.03555477
0.05823307
0.03665322
0.05530808
0.0104394
0.05102076
-0.01160037
0.04773067
-0.01388876
0.044687
-0.003784916
0.04138408
0.006188354
0.03595291
0.01376723
0.02547253
0.02078747
0.01213411
0.04358586
0.001773105
0.05615105
-0.004116778
0.02751394
-0.009477671
0.01939775
-0.009468044
-0.00308515
-0.007611679
-0.01103463
-0.001234423
-0.02586532
0.005294035
-0.03037661
0.00983916
-0.02518401
0.01215545
-0.01828555
0.01306282
-0.01270402
0.01366741
-0.007956433
0.01380877
-0.0008245214
0.01312025
0.007247454
0.01136318
0.01332729
0.01064902
0.006368035
0.004506143
0.01006004
-0.01026794
0.03357736
-0.02299815
0.04913154
-0.02675127
0.04135538
-0.02817731
0.02362426
-0.02975224
0.01112476
-0.02988794
0.002327389
-0.02854682
-0.00497751
-0.02587174
-0.01125417
-0.02167046
-0.01721758
-0.01981114
-0.01405541
0.02057749
-0.02926062
-0.007536075
-0.03059106
-0.0002110894
-0.03436729
0.006857985
-0.03145214
0.01306269
-0.02896329
0.01817661
-0.02379555
0.02229117
-0.0183183
0.02492643
-0.01064653
0.02578667
-0.000705333
0.02594102
0.01036882
0.02616471
0.02663244
0.02319144
0.04175341
0.01472805
0.03947433
0.004878021
0.01962184
-0.0007240831
0.001918701
-0.003454129
0.007942075
-0.005112093
0.008659143
-0.004381534
-0.007618017
-0.00209754
-0.01942719
0.002094236
-0.02822448
0.007948368
-0.03231664
0.01469295
-0.03106011
0.01782757
-0.01629341
0.01317266
0.01573922
0.003221169
0.04141993
-0.009691861
0.05617669
-0.02445429
0.05957688
-0.03533996
0.03382394
-0.04219003
0.02110689
-0.04672912
0.01315081
-0.05106373
0.004395947
-0.05587169
-0.006392539
-0.06143941
-0.01085849
-0.06658732
0.002643419
-0.06663387
0.02876676
-0.06098087
0.03854348
-0.05803012
0.02549455
-0.05938655
0.01572931
-0.06008461
0.01271196
-0.06056887
0.00927101
-0.06113279
0.006124238
-0.06150761
0.003840585
-0.06201322
0.002758693
-0.06200556
0.001036043
-0.06209865
0.0006958777
-0.06172585
-0.001473838
-0.06124385
-0.00200427
-0.06075808
-0.002324432
-0.05990426
-0.003350985
-0.05926732
-0.003117184
-0.05828356
-0.004273359
-0.05728758
-0.004640794
-0.056017
-0.005653647
-0.05465295
-0.006029847
-0.0533516
-0.00604576
-0.05184911
-0.006939274
-0.05017776
-0.007372726
-0.04858373
-0.007311289
-0.046791
-0.008316513
-0.0448984
-0.008703357
-0.04287233
-0.009142695
-0.04081674
-0.009279622
-0.0388782
-0.009327952
-0.03648952
-0.01053388
-0.0343492
-0.0100779
-0.03188089
-0.01098839
-0.02951526
-0.01109031
-0.02707166
-0.01125158
-0.02453265
-0.01144927
-0.02200803
-0.01182264
-0.01940063
-0.01196097
-0.01674366
-0.01216099
-0.01415111
-0.01222673
-0.01133612
-0.01258717
-0.008800102
-0.01199884
-0.00594796
-0.01285089
-0.003145443
-0.01259027
-0.0003925267
-0.01217769
0.002305822
-0.01198007
0.005235028
-0.01344185
0.007981983
-0.01307556
0.01065471
-0.01273188
0.01337171
-0.01251628
0.01607104
-0.01227689
0.01872882
-0.01220781
0.02127073
-0.01179863
0.02401076
-0.01219768
0.02651197
-0.01158965
0.02894641
-0.01111687
0.03138472
-0.01120667
0.03378928
-0.01096162
0.03613732
-0.01062571
0.03838791
-0.01054098
0.04062175