/*--------------------------------*- C++ -*----------------------------------*\
| =========                 |                                                 |
| \\      /  F ield         | OpenFOAM: The Open Source CFD Toolbox           |
|  \\    /   O peration     | Version:  2406                                  |
|   \\  /    A nd           | Website:  www.openfoam.com                      |
|    \\/     M anipulation  |                                                 |
\*---------------------------------------------------------------------------*/
FoamFile
{
    version     2.0;
    format      ascii;
    arch        "LSB;label=32;scalar=64";
    class       volVectorField;
    location    "0.38";
    object      U;
}
// * * * * * * * * * * * * * * * * * * * * * * * * * * * * * * * * * * * * * //

dimensions      [0 1 -1 0 0 0 0];

internalField   nonuniform List<vector> 
15536
(
(0.0847875 -4.831817 -2.484292e-22)
(0.1194973 -2.926335 4.377545e-20)
(-0.003212087 -0.8703877 2.728001e-19)
(-0.213087 1.059328 2.865824e-19)
(-0.5391735 2.747333 2.995509e-21)
(-0.9489712 4.284514 7.891853e-22)
(-1.391298 5.435578 3.196992e-21)
(-1.825758 6.282221 -3.169781e-21)
(-1.811937 5.858623 1.200211e-18)
(-0.870422 2.777082 8.33306e-19)
(0.4077645 -0.8777789 0)
(0.5706017 -1.109122 0)
(1.224872 -2.02995 -7.117846e-21)
(1.663725 -2.707591 1.714739e-18)
(1.191891 -1.932855 6.720802e-20)
(0.6947769 -1.089635 2.506027e-19)
(0.6319477 -0.8330546 1.88583e-19)
(1.339707 -1.475229 4.04812e-21)
(1.562452 -1.658365 -1.07556e-20)
(0.2118861 -0.3095423 6.70553e-21)
(-1.677286 1.429472 0)
(-3.455503 2.906627 4.249079e-18)
(-4.815631 3.86764 0)
(-5.186119 4.005186 6.363046e-18)
(-3.214654 2.500346 -4.273417e-20)
(0.542669 -0.100205 -8.521232e-23)
(3.311439 -1.816902 8.643237e-23)
(2.302607 -1.300186 4.128978e-19)
(-0.6064949 0.1587823 -1.855098e-18)
(-2.26885 0.8719076 0)
(-3.333491 1.180818 -2.065005e-20)
(-5.106436 1.590628 -2.95676e-18)
(-7.834147 2.146415 4.989533e-18)
(-10.40912 2.701695 0)
(-7.155373 1.937814 -7.631962e-18)
(0.486403 0.1576696 -1.850143e-20)
(2.926777 -0.5403782 2.309512e-18)
(-1.036866 -0.2541134 -1.471891e-18)
(0.1131951 -0.04865761 1.453275e-21)
(6.122873 0.3470871 -3.464093e-19)
(10.05903 0.9175281 1.376867e-18)
(12.13255 1.536257 -2.224417e-20)
(13.20559 2.179484 2.189904e-20)
(13.79676 2.851892 0)
(14.11266 3.516765 -5.613387e-18)
(14.23797 4.155222 -5.589125e-18)
(14.18724 4.755838 0)
(14.01991 5.322207 -1.068901e-17)
(13.75943 5.853894 1.042672e-17)
(13.45504 6.363537 1.006611e-17)
(13.09388 6.833784 3.663591e-20)
(12.67156 7.260657 -9.118967e-18)
(12.19637 7.639276 0)
(11.67755 7.971247 0)
(11.12429 8.252931 7.313988e-18)
(10.53474 8.476135 6.679418e-18)
(9.927083 8.651464 4.397066e-20)
(9.307826 8.777232 5.191775e-18)
(8.6643 8.834914 9.01e-18)
(8.009158 8.832341 3.759438e-18)
(7.350596 8.772563 2.955737e-18)
(6.701906 8.664496 -2.03955e-20)
(6.060104 8.4983 0)
(5.422881 8.267368 6.368317e-19)
(4.80333 7.988032 0)
(4.199523 7.645821 9.437805e-19)
(3.619392 7.247407 -2.832919e-20)
(3.073104 6.802992 -2.719685e-21)
(2.56047 6.310334 1.087652e-20)
(2.086196 5.773926 -3.798494e-18)
(1.656052 5.201981 -1.832134e-20)
(1.270993 4.591999 2.521661e-18)
(0.9328222 3.94547 2.771704e-18)
(0.6470105 3.277544 0)
(0.4133961 2.594165 0)
(0.2357152 1.891519 3.344731e-18)
(0.1108331 1.181675 -1.594836e-22)
(0.04222669 0.4993628 9.032003e-19)
(0.02405093 -0.1551739 1.655876e-21)
(0.06116541 -0.8865631 -6.808126e-21)
(0.1474893 -1.666721 -1.681698e-18)
(0.2934022 -2.42676 0)
(0.4962491 -3.154008 2.990342e-18)
(0.7522732 -3.849237 0)
(1.059696 -4.512603 -2.4774e-18)
(1.416135 -5.143066 2.159025e-18)
(1.820419 -5.739186 1.580176e-20)
(2.269043 -6.299909 3.064166e-18)
(2.758864 -6.816689 7.705609e-21)
(3.285337 -7.287561 -1.624682e-18)
(3.845615 -7.714181 -8.374782e-19)
(4.437103 -8.090993 3.166278e-21)
(5.058016 -8.420895 8.149485e-19)
(5.698326 -8.70004 -1.658207e-18)
(6.353732 -8.923737 2.276351e-20)
(7.013666 -9.079254 6.647229e-21)
(7.683484 -9.181708 -4.160584e-18)
(8.358875 -9.231282 0)
(9.031177 -9.220125 1.149229e-17)
(9.703038 -9.159266 6.476923e-18)
(10.35476 -9.034583 1.113435e-19)
(10.98301 -8.848898 -8.121327e-18)
(11.58414 -8.605594 0)
(12.15712 -8.308849 0)
(12.70098 -7.966825 0)
(13.20705 -7.577448 0)
(13.66542 -7.14175 1.128292e-17)
(14.07293 -6.663586 1.188451e-17)
(14.42996 -6.147771 2.679638e-20)
(14.73003 -5.601179 -1.272441e-17)
(14.95914 -5.023135 -6.488211e-18)
(15.09128 -4.413406 -6.693778e-18)
(15.08004 -3.769751 5.236829e-20)
(14.89294 -3.097738 6.820463e-18)
(14.49284 -2.408832 3.508031e-18)
(13.77959 -1.723557 -2.711863e-20)
(12.46474 -1.093922 -6.553065e-21)
(9.907126 -0.5258691 4.335277e-19)
(5.023617 -0.09053954 -8.755728e-19)
(-1.23471 0.1022774 -2.208789e-20)
(1.049681 0.4566969 1.470464e-20)
(3.125185 0.4741644 3.144521e-18)
(-3.815008 -1.183971 2.768485e-20)
(-9.522197 -2.663645 0)
(-8.823777 -2.524305 -8.057301e-18)
(-6.087901 -1.875302 -5.576366e-18)
(-3.543219 -1.231205 2.201382e-21)
(-2.311277 -0.8961377 7.753079e-18)
(-1.245488 -0.4505123 -6.706023e-18)
(1.891169 1.127477 0)
(4.695064 2.662729 0)
(1.409733 0.5546595 -4.634447e-18)
(-3.35193 -2.602804 0)
(-5.03555 -3.940247 8.453926e-20)
(-5.44451 -4.437436 -1.112764e-17)
(-4.716216 -4.10455 -9.90784e-18)
(-3.452627 -3.157348 4.926252e-20)
(-1.691978 -1.564235 -1.052639e-17)
(0.1610041 0.3006563 -6.437873e-20)
(1.714521 2.073873 6.61732e-18)
(2.779895 3.520594 3.220488e-18)
(3.225208 4.372939 3.374837e-18)
(2.851662 4.096964 3.409568e-18)
(1.815712 2.781859 0)
(0.5490295 0.9521132 -1.486294e-20)
(0.2570836 0.6948937 -2.913885e-18)
(0.6918265 1.667609 0)
(0.8494571 2.068807 2.917721e-18)
(0.8019865 2.231544 -2.247287e-20)
(0.8491177 2.707676 1.134206e-20)
(-0.1721072 -1.530322 1.932514e-18)
(-1.102302 -6.728292 4.319303e-21)
(-1.342649 -9.139604 0)
(-1.138014 -9.50533 1.36002e-18)
(-0.7528429 -8.920631 9.934121e-21)
(-0.3833502 -7.89647 1.352502e-21)
(-0.0898382 -6.500222 -1.982709e-21)
(-0.1354055 -4.981783 -3.892256e-20)
(-0.06214276 -3.036954 -3.46626e-20)
(-0.178744 -0.9366989 0)
(-0.3748296 1.063592 -2.314178e-19)
(-0.7411262 2.807784 0)
(-1.183035 4.385367 -1.71278e-19)
(-1.690091 5.679566 2.538572e-21)
(-2.096383 6.330483 -2.522769e-21)
(-2.434338 7.198138 -9.480464e-19)
(-1.976579 6.091946 -6.320813e-19)
(-0.244901 1.356976 0)
(1.044233 -1.914434 4.020969e-21)
(1.581844 -2.601197 1.832638e-21)
(1.607544 -2.690956 -7.095793e-19)
(1.264265 -2.186528 -1.08578e-19)
(1.43353 -2.089716 -1.028071e-19)
(2.081058 -2.542477 -1.474347e-19)
(2.450571 -2.802844 -1.906975e-21)
(1.612446 -1.984675 0)
(-0.09017089 -0.3630914 0)
(-1.8886 1.307394 0)
(-3.629303 2.772 3.421782e-18)
(-4.977756 3.752639 3.907879e-20)
(-5.501664 4.127709 -3.900294e-20)
(-4.715704 3.65463 1.680876e-20)
(-1.372367 1.429822 -1.722205e-20)
(3.595138 -1.85542 0)
(3.080379 -1.947438 0)
(0.7383466 -0.6851667 2.98095e-18)
(-0.09459848 -0.141681 2.555597e-20)
(-0.4565563 -0.02202368 -2.541717e-20)
(-1.886228 0.2226025 2.554762e-18)
(-4.531982 0.7581207 4.249661e-18)
(-6.326314 1.405179 -5.137512e-20)
(-7.979583 2.187754 -5.94188e-18)
(-2.183666 0.9382463 1.980748e-18)
(4.281904 -0.4501778 5.66477e-22)
(7.823138 -0.4036912 1.023592e-18)
(11.25002 0.196448 0)
(15.76229 0.6651401 2.354818e-19)
(17.51161 1.049557 1.973545e-18)
(17.89055 1.523477 2.102998e-18)
(17.93933 2.113826 2.166266e-18)
(17.83803 2.762557 -6.817069e-20)
(17.65468 3.418727 4.484106e-18)
(17.40737 4.073196 -3.425361e-20)
(17.11022 4.721089 0)
(16.76222 5.345155 8.520766e-18)
(16.36404 5.947704 0)
(15.91753 6.518539 -6.058599e-20)
(15.42034 7.045983 6.072468e-20)
(14.8682 7.526758 7.283886e-18)
(14.26879 7.954607 -5.111137e-20)
(13.62905 8.329339 6.361706e-18)
(12.95692 8.646482 -5.886497e-18)
(12.25553 8.903465 0)
(11.5351 9.108696 3.473943e-20)
(10.80254 9.257563 -4.261762e-18)
(10.05355 9.336876 -7.173622e-18)
(9.292629 9.348172 0)
(8.532225 9.301491 -2.374751e-18)
(7.781343 9.198069 -1.099072e-20)
(7.040765 9.03013 1.089379e-18)
(6.311511 8.796699 1.174701e-21)
(5.599952 8.503899 -1.188445e-21)
(4.911416 8.147712 -7.662671e-19)
(4.249084 7.73202 1.384672e-18)
(3.623743 7.261779 0)
(3.036695 6.742414 0)
(2.493206 6.177712 -1.748802e-20)
(1.997672 5.569513 0)
(1.553329 4.919551 0)
(1.162232 4.23134 0)
(0.829366 3.51629 -2.477717e-18)
(0.5534258 2.785226 1.988011e-20)
(0.3451333 2.03144 1.110896e-20)
(0.1939988 1.270418 -5.424665e-21)
(0.1079844 0.5336199 -7.420984e-19)
(0.08615303 -0.1778911 2.975737e-21)
(0.1410285 -0.9629154 -7.244736e-19)
(0.2453073 -1.795133 1.369781e-18)
(0.4198967 -2.605949 1.040169e-20)
(0.6596185 -3.381852 -2.423644e-18)
(0.9591997 -4.12502 -3.517379e-20)
(1.317557 -4.835694 2.051929e-18)
(1.730686 -5.508256 -1.797646e-18)
(2.198835 -6.142664 0)
(2.714419 -6.738943 -5.007582e-18)
(3.275871 -7.283334 -1.279407e-20)
(3.880089 -7.779294 1.318806e-18)
(4.521191 -8.230351 6.853538e-19)
(5.196747 -8.623733 0)
(5.905175 -8.962779 0)
(6.637303 -9.252111 0)
(7.386361 -9.47464 1.790363e-20)
(8.147231 -9.627411 -1.778831e-20)
(8.919456 -9.721654 3.272132e-18)
(9.697669 -9.755821 5.354022e-21)
(10.47801 -9.726227 -4.650514e-18)
(11.25473 -9.637954 -7.50551e-20)
(12.01769 -9.486195 1.172073e-17)
(12.75897 -9.268469 6.460364e-18)
(13.47445 -8.987919 -5.237511e-20)
(14.16681 -8.650989 7.443286e-18)
(14.83133 -8.262103 6.062858e-20)
(15.45974 -7.81736 -6.831145e-20)
(16.04466 -7.322275 6.803146e-20)
(16.58256 -6.779484 7.440717e-20)
(17.07284 -6.195498 9.760966e-18)
(17.51212 -5.574708 -7.68623e-20)
(17.88363 -4.918633 0)
(18.20207 -4.237748 0)
(18.48542 -3.544992 0)
(18.71746 -2.85123 0)
(18.87528 -2.162607 2.056655e-20)
(18.93604 -1.483005 -2.046859e-20)
(18.82267 -0.8912973 1.249911e-18)
(18.28583 -0.4520154 4.763223e-21)
(15.65357 -0.122418 0)
(11.01138 0.290553 -1.300323e-18)
(7.478642 0.770481 2.617581e-18)
(2.618887 0.07322628 -2.402322e-18)
(-5.462221 -1.788125 5.610471e-20)
(-7.548611 -2.032619 -8.262802e-18)
(-4.680225 -0.9201373 4.907051e-20)
(-2.30802 -0.2472404 0)
(-0.1603248 0.2202836 7.261803e-18)
(0.4981222 0.3575296 -1.311253e-17)
(0.8572587 0.6879387 -5.312749e-18)
(2.814007 1.909974 -1.224909e-20)
(5.521121 3.174051 -4.513386e-20)
(0.3352731 -0.5793827 2.080685e-20)
(-4.484385 -3.510679 0)
(-5.478126 -4.153769 8.603105e-18)
(-5.483849 -4.239814 9.033392e-18)
(-4.799195 -3.935146 1.178327e-20)
(-3.546014 -2.951124 -6.043992e-18)
(-1.807881 -1.328157 8.398897e-18)
(0.01589167 0.5168058 3.110252e-18)
(1.592551 2.3232 3.371557e-21)
(2.814088 3.964735 -2.571629e-18)
(3.581009 5.195223 -2.068674e-20)
(3.887622 5.789646 -2.695675e-18)
(3.442352 5.300454 1.910423e-20)
(2.169735 3.550504 -9.880633e-21)
(1.103339 2.274422 -1.171888e-20)
(0.9198906 2.220192 0)
(0.955372 2.447626 0)
(1.052168 3.13368 -2.29765e-18)
(0.6227467 0.9602729 0)
(-1.076124 -6.48023 -2.823137e-18)
(-1.919219 -10.15554 1.879642e-18)
(-1.877865 -10.15084 -1.725068e-20)
(-1.55338 -9.832482 1.750809e-20)
(-1.134765 -9.247621 9.5076e-19)
(-0.7128023 -8.138583 -3.560824e-19)
(-0.3578703 -6.695443 -1.043385e-19)
(-0.3081052 -4.968245 3.117272e-20)
(-0.2612821 -3.067959 2.813982e-20)
(-0.3911095 -1.007755 -2.79208e-21)
(-0.5521327 1.003883 1.900249e-19)
(-0.9077326 2.743632 0)
(-1.302892 4.336775 1.402309e-19)
(-1.720055 5.607136 -4.116624e-21)
(-2.075675 6.41869 3.570433e-19)
(-2.2223 6.827894 7.882936e-19)
(-2.157778 7.201288 5.022945e-19)
(-0.9348516 3.990908 1.80464e-19)
(0.9724488 -1.163147 -1.42403e-21)
(1.689449 -2.583108 0)
(1.632663 -2.696845 0)
(1.282424 -2.277772 4.249738e-20)
(1.724312 -2.405675 -1.054429e-19)
(2.598375 -3.122512 1.042278e-19)
(2.518377 -2.961078 3.075567e-21)
(1.305652 -1.89478 0)
(-0.316975 -0.4749108 7.30213e-19)
(-1.971351 1.062691 1.585609e-18)
(-3.591522 2.47772 -2.775185e-18)
(-4.80634 3.493083 0)
(-5.095371 3.952726 4.311076e-18)
(-4.281826 3.658018 0)
(-2.022375 2.310439 -7.199651e-19)
(2.807944 -1.070145 0)
(3.545024 -2.265387 2.666757e-19)
(2.954506 -1.738796 -2.359245e-18)
(3.173693 -1.432154 0)
(2.999798 -1.325016 0)
(1.536543 -1.105345 3.676217e-21)
(-0.6860495 -0.5488365 -3.610257e-18)
(-2.383579 0.4611049 5.858768e-18)
(-4.27158 1.729597 1.035242e-17)
(-0.6908669 1.191234 -1.503831e-18)
(10.01951 -0.38917 1.257955e-18)
(14.98862 -0.3230598 -7.428228e-19)
(16.93045 0.3942681 0)
(17.80489 0.9495109 0)
(17.52297 1.360016 -1.62173e-18)
(17.42244 1.936425 -1.760614e-18)
(17.39085 2.604699 -3.538773e-18)
(17.30243 3.28534 3.558991e-18)
(17.15558 3.969656 8.469928e-20)
(16.94528 4.632639 -5.657006e-20)
(16.67072 5.268212 0)
(16.32365 5.86729 0)
(15.91991 6.436865 6.688811e-18)
(15.47178 6.977941 -6.46535e-18)
(14.97527 7.473211 0)
(14.42654 7.921076 0)
(13.83394 8.31471 8.383892e-20)
(13.20276 8.656861 -5.303839e-18)
(12.54219 8.940909 0)
(11.85557 9.163806 -4.27754e-18)
(11.151 9.33733 -3.833302e-18)
(10.43722 9.45545 -3.32473e-18)
(9.710851 9.503281 2.882866e-18)
(8.972619 9.48568 -3.351902e-20)
(8.236 9.413307 1.896925e-18)
(7.509679 9.286674 0)
(6.796254 9.096279 -8.883114e-19)
(6.095851 8.842109 -1.560291e-21)
(5.412339 8.531879 7.991584e-21)
(4.756714 8.157642 -6.924544e-19)
(4.12404 7.728488 0)
(3.527695 7.247251 -1.673931e-18)
(2.967873 6.719891 -1.818611e-20)
(2.452038 6.149091 2.571925e-18)
(1.981347 5.537704 1.495205e-18)
(1.56026 4.886462 -1.685334e-18)
(1.189411 4.198975 -1.862264e-18)
(0.8733627 3.485929 2.015594e-18)
(0.6093876 2.758632 -2.157522e-18)
(0.4142052 2.00801 -1.106149e-18)
(0.2663292 1.250783 2.331291e-18)
(0.1789741 0.5171374 1.214134e-18)
(0.1575148 -0.1934988 2.448335e-21)
(0.2236033 -0.9696431 5.996215e-19)
(0.3227825 -1.791345 -8.94127e-21)
(0.4881271 -2.591899 0)
(0.7143865 -3.35994 -1.513287e-20)
(0.9956219 -4.09789 -1.273994e-20)
(1.333188 -4.805102 -1.625232e-18)
(1.721438 -5.476493 2.953349e-18)
(2.166131 -6.110686 -1.274621e-18)
(2.653345 -6.710495 2.03287e-18)
(3.184278 -7.260902 1.427099e-20)
(3.759972 -7.764335 0)
(4.370039 -8.226875 6.112444e-19)
(5.014225 -8.633936 -3.173714e-21)
(5.69325 -8.988045 4.505179e-19)
(6.395623 -9.296216 0)
(7.114444 -9.540296 1.551357e-18)
(7.848422 -9.715298 0)
(8.59454 -9.8348 -5.084656e-20)
(9.346746 -9.897117 3.173884e-18)
(10.10513 -9.895566 0)
(10.85951 -9.839347 -4.289557e-18)
(11.60242 -9.721376 -4.808969e-18)
(12.3261 -9.538458 -5.297074e-18)
(13.02611 -9.293067 0)
(13.70684 -8.990236 -1.243768e-17)
(14.36176 -8.63694 9.956795e-20)
(14.98341 -8.226972 0)
(15.56423 -7.767138 0)
(16.10079 -7.258325 0)
(16.59342 -6.706015 7.91202e-18)
(17.03403 -6.12145 -8.182897e-18)
(17.415 -5.499441 0)
(17.72972 -4.842617 0)
(17.98148 -4.158517 4.288287e-18)
(18.17408 -3.451279 3.416796e-20)
(18.29501 -2.73318 0)
(18.35179 -2.012613 0)
(18.35415 -1.318942 -2.082102e-18)
(18.57321 -0.7587096 2.429492e-19)
(18.69981 -0.3184075 0)
(17.54647 0.3139349 9.277727e-19)
(14.94491 0.8711432 3.050207e-20)
(6.516966 -0.01187468 -9.33051e-21)
(-3.465027 -1.761991 -3.468601e-20)
(-1.901901 -0.8955987 7.43292e-18)
(-0.3696998 0.4718239 5.913822e-18)
(1.900635 1.386458 7.464316e-20)
(3.743606 1.78039 4.075653e-20)
(4.30215 1.889359 5.017801e-18)
(4.013446 2.100877 4.19572e-18)
(4.158205 2.724266 0)
(5.106799 2.751872 1.624965e-18)
(-0.5430574 -1.766468 0)
(-3.526129 -3.259282 -9.48714e-20)
(-4.825393 -3.901596 -7.035601e-18)
(-5.057536 -3.928136 1.117058e-19)
(-4.510556 -3.573977 -1.104633e-19)
(-3.378373 -2.520278 4.963547e-18)
(-1.740192 -0.8947448 -3.391381e-18)
(-0.03832741 0.8183149 -2.50216e-18)
(1.434327 2.449179 -2.16628e-18)
(2.605463 3.918192 -2.069968e-18)
(3.447773 5.082759 0)
(3.865285 5.714865 7.929749e-21)
(3.814399 5.718357 0)
(2.979408 4.667021 -1.914409e-18)
(1.742124 3.32139 1.887854e-18)
(1.181786 2.731438 0)
(1.136573 2.881958 0)
(1.054181 2.615566 3.772326e-18)
(0.07461878 -2.78852 -9.02835e-19)
(-1.278671 -9.039476 2.187183e-18)
(-1.661856 -9.960905 -1.288633e-20)
(-1.620871 -9.871094 1.361401e-20)
(-1.377367 -9.831537 0)
(-1.070666 -9.173453 -7.747871e-19)
(-0.7586173 -8.074655 5.656006e-19)
(-0.4729201 -6.648194 8.5625e-20)
(-0.5227084 -4.94814 -5.094199e-20)
(-0.4892378 -3.097983 1.385214e-21)
(-0.6325956 -1.089469 -1.420388e-21)
(-0.7656123 0.9512618 4.152566e-21)
(-1.118186 2.693675 -4.040037e-21)
(-1.478286 4.289943 -5.685569e-20)
(-1.854878 5.54821 -3.333692e-21)
(-2.193 6.414776 -2.964441e-19)
(-2.247304 6.658372 9.723747e-21)
(-2.042667 7.231318 -4.541459e-19)
(-1.283996 5.916881 2.740901e-20)
(0.605948 0.6296266 0)
(1.77163 -2.414999 0)
(1.56854 -2.627145 -5.120115e-19)
(1.198636 -2.245066 -2.485404e-20)
(1.687364 -2.224775 1.89435e-19)
(2.629769 -3.091384 -8.814868e-20)
(2.238279 -2.816201 0)
(0.9657353 -1.864436 0)
(-0.5201637 -0.6514652 -1.200497e-18)
(-2.005815 0.7358848 -2.595921e-18)
(-3.512561 2.112019 4.338725e-20)
(-4.597111 3.165568 -9.713427e-20)
(-4.74288 3.76674 -7.146775e-18)
(-3.612473 3.506069 -2.392344e-18)
(-1.543608 2.555677 5.794053e-19)
(2.271161 -0.2572664 -5.78201e-19)
(4.375314 -2.56437 -2.249931e-19)
(5.311378 -2.714107 9.607661e-19)
(6.096418 -2.572956 0)
(6.116354 -2.551198 -4.308925e-20)
(5.037184 -2.504072 -3.179599e-18)
(3.421874 -2.039338 1.306603e-20)
(1.698789 -0.8297559 7.334954e-20)
(0.04645529 1.007208 -4.360673e-18)
(4.212668 1.262722 -1.141295e-18)
(14.91437 -0.1274875 -1.6801e-21)
(17.37403 -0.2879567 -5.629054e-19)
(17.53664 0.2330922 -2.941844e-19)
(17.35245 0.7096618 -2.397752e-21)
(17.27226 1.028776 0)
(17.45131 1.535736 -2.230453e-20)
(17.52144 2.14034 1.487741e-18)
(17.48915 2.783301 -5.881604e-18)
(17.36748 3.456782 4.577239e-20)
(17.17165 4.113924 -2.950559e-18)
(16.8976 4.759123 -8.911181e-20)
(16.55639 5.365459 -5.596769e-18)
(16.15563 5.948675 -6.638028e-21)
(15.70931 6.509645 5.333977e-18)
(15.21595 7.022137 -5.014002e-18)
(14.66939 7.490897 0)
(14.07817 7.90512 6.772048e-20)
(13.44628 8.270568 -6.811821e-20)
(12.78286 8.57964 0)
(12.09146 8.828562 3.524578e-18)
(11.38096 9.027946 6.919453e-20)
(10.65989 9.171974 2.779659e-18)
(9.926211 9.244527 -2.310124e-18)
(9.182104 9.248198 -1.899414e-18)
(8.435873 9.198656 -1.53346e-18)
(7.700667 9.093356 -1.076276e-18)
(6.978792 8.922567 7.228562e-21)
(6.268565 8.687373 -7.298428e-21)
(5.57463 8.395734 0)
(4.908959 8.038502 5.63797e-19)
(4.265739 7.62541 -1.843216e-20)
(3.659808 7.158532 1.393685e-18)
(3.090883 6.644249 1.738495e-18)
(2.568535 6.084654 -2.090892e-18)
(2.091238 5.483768 -1.227086e-18)
(1.664372 4.842171 -3.896188e-21)
(1.28815 4.163711 1.527404e-18)
(0.9695785 3.458148 2.651391e-20)
(0.7011902 2.738169 1.728347e-18)
(0.5065278 1.992036 1.455537e-20)
(0.3561073 1.23746 -9.738434e-19)
(0.2651976 0.5050637 -4.946868e-19)
(0.2431305 -0.210064 -6.080875e-23)
(0.3222185 -0.9772323 4.756789e-19)
(0.4205831 -1.788011 7.322062e-21)
(0.5845054 -2.578575 -8.768465e-19)
(0.8124302 -3.337474 1.64508e-18)
(1.096021 -4.065632 0)
(1.436793 -4.761941 -3.573364e-21)
(1.828412 -5.421674 -1.215365e-18)
(2.279243 -6.043509 1.07376e-18)
(2.771117 -6.631511 -1.755157e-18)
(3.311535 -7.167243 1.785078e-20)
(3.898257 -7.655517 -1.769066e-20)
(4.514799 -8.104669 -5.024459e-19)
(5.169119 -8.494944 0)
(5.86247 -8.829669 -3.769409e-19)
(6.5725 -9.121845 2.504484e-20)
(7.300337 -9.34698 -6.230148e-20)
(8.044925 -9.501045 -1.640646e-18)
(8.799897 -9.599922 -2.189819e-18)
(9.560367 -9.640351 -1.623255e-20)
(10.32641 -9.615763 2.982673e-18)
(11.08932 -9.534399 -5.024669e-20)
(11.83826 -9.391968 -3.8338e-18)
(12.56741 -9.182867 0)
(13.27385 -8.90896 4.611757e-18)
(13.95817 -8.580289 5.052302e-18)
(14.61283 -8.204911 5.222605e-18)
(15.23355 -7.771991 -5.541851e-18)
(15.8119 -7.291026 5.92192e-18)
(16.34555 -6.761232 0)
(16.83502 -6.18888 -1.295285e-17)
(17.27161 -5.58967 1.350848e-17)
(17.6475 -4.952611 -1.598997e-19)
(17.95796 -4.285775 -3.466018e-18)
(18.20448 -3.592274 -3.517699e-18)
(18.37798 -2.89621 0)
(18.46691 -2.19765 1.802708e-18)
(18.45718 -1.523152 -1.778589e-18)
(18.33951 -0.9032586 8.672242e-19)
(18.17373 -0.4328226 -2.102627e-19)
(18.37436 -0.08541075 -3.92243e-19)
(18.46515 0.4710265 1.176725e-20)
(18.3652 0.7995394 -1.37272e-18)
(12.29019 -0.1327821 -2.573869e-20)
(1.617791 -1.291342 0)
(1.997179 0.3966339 0)
(4.347893 2.198515 -1.189188e-19)
(6.180415 3.104753 1.127765e-19)
(7.463291 3.297648 0)
(7.784235 3.288236 0)
(7.069288 3.37357 0)
(5.924549 3.520781 2.162638e-18)
(4.775482 2.129601 -2.547984e-18)
(-0.5917948 -2.527608 2.347149e-18)
(-2.488173 -2.86034 -4.363813e-18)
(-4.165423 -3.600097 -1.76468e-19)
(-4.517508 -3.439899 6.330848e-18)
(-4.079339 -3.044905 5.645643e-18)
(-3.063571 -1.907624 5.332227e-20)
(-1.52918 -0.263801 -1.650316e-20)
(0.03686588 1.304128 -3.783896e-20)
(1.337133 2.69793 -2.712818e-20)
(2.347465 3.911158 1.744808e-18)
(3.116863 4.889291 0)
(3.58431 5.409771 1.865867e-18)
(3.686245 5.407214 -1.713339e-18)
(3.194274 4.745181 1.542703e-18)
(2.024761 3.61268 0)
(1.367527 3.03109 0)
(1.384082 3.230042 -2.452023e-20)
(0.8471612 0.57905 -1.447439e-18)
(-0.2254199 -6.037226 7.023549e-19)
(-1.11889 -9.656958 -8.913686e-19)
(-1.571075 -9.482565 0)
(-1.742276 -9.880167 0)
(-1.51587 -9.741747 0)
(-1.211129 -9.107408 -6.2096e-19)
(-0.9269363 -8.008105 -2.389665e-19)
(-0.662445 -6.596898 -1.395181e-19)
(-0.7715459 -4.911562 2.08563e-20)
(-0.7516673 -3.11503 0)
(-0.9111407 -1.178509 1.048607e-19)
(-1.025982 0.9071477 0)
(-1.367265 2.644757 1.768966e-19)
(-1.680743 4.230847 0)
(-2.005623 5.489747 0)
(-2.251851 6.359666 -2.383608e-19)
(-2.286921 6.723813 -5.665891e-19)
(-1.911492 7.007673 3.820695e-19)
(-1.335416 7.025093 -1.372466e-19)
(0.1545672 2.993057 1.567947e-19)
(1.662137 -1.596174 0)
(1.378486 -2.308585 8.729375e-19)
(1.020514 -2.12402 2.055689e-20)
(1.465698 -1.760987 -8.551147e-20)
(2.454682 -2.757167 4.634622e-22)
(1.852869 -2.547397 -7.45434e-21)
(0.5954777 -1.801547 -2.737766e-19)
(-0.7163165 -0.8601619 1.011367e-18)
(-2.045342 0.3725472 1.067874e-18)
(-3.468434 1.729011 7.193985e-20)
(-4.428738 2.845746 2.713053e-18)
(-4.353417 3.616649 2.996612e-18)
(-2.993149 3.432459 1.969435e-18)
(-0.5955238 2.503547 0)
(2.329063 0.3444048 2.845101e-20)
(5.567065 -2.804552 0)
(7.52366 -3.455388 7.14267e-19)
(8.688038 -3.496824 1.350955e-18)
(8.96416 -3.647363 1.81667e-18)
(8.474919 -3.828999 -9.07562e-20)
(7.662555 -3.55945 5.277472e-20)
(6.330964 -2.105657 -7.202998e-18)
(5.552715 0.3343148 0)
(10.52651 1.302573 -8.782038e-19)
(17.27904 0.2662475 -7.269729e-19)
(16.90929 -0.1607682 9.271404e-19)
(16.89801 0.2902902 2.351305e-19)
(16.93408 0.8559133 0)
(17.03595 1.315845 5.449495e-19)
(17.18095 1.901123 0)
(17.22543 2.536779 0)
(17.18018 3.18471 2.455335e-18)
(17.05594 3.846614 -3.750906e-20)
(16.86147 4.485312 4.448361e-20)
(16.59136 5.107684 -2.332181e-18)
(16.2558 5.684416 4.700137e-18)
(15.86074 6.237505 -4.485242e-18)
(15.42324 6.769383 -4.320128e-18)
(14.9452 7.241825 2.040904e-19)
(14.41205 7.677004 -1.252288e-19)
(13.83779 8.055875 -1.098991e-19)
(13.22238 8.391242 -3.149405e-18)
(12.57809 8.671713 -3.188268e-18)
(11.90657 8.892354 -8.307059e-20)
(11.21365 9.069848 2.629029e-18)
(10.51486 9.191705 0)
(9.805322 9.242144 1.902356e-18)
(9.079558 9.230643 1.563688e-18)
(8.352592 9.168039 1.173006e-18)
(7.638985 9.051194 8.855969e-19)
(6.937905 8.87139 0)
(6.248525 8.62774 0)
(5.57205 8.332723 -1.763665e-19)
(4.926464 7.971519 0)
(4.297752 7.558878 0)
(3.707906 7.093308 1.206612e-18)
(3.155661 6.581171 -2.564957e-20)
(2.643189 6.027131 -1.260614e-20)
(2.17376 5.431931 -3.34421e-20)
(1.755243 4.796266 2.311986e-18)
(1.387974 4.123851 0)
(1.079291 3.424373 0)
(0.807281 2.715186 1.461975e-18)
(0.6176416 1.975074 7.307738e-19)
(0.4646158 1.223658 7.849533e-19)
(0.3696416 0.4939974 -4.048267e-19)
(0.3472448 -0.2274197 0)
(0.4432911 -0.9816239 -3.305144e-22)
(0.5414308 -1.780889 2.323939e-20)
(0.6939347 -2.562124 6.95548e-19)
(0.9139603 -3.309767 -1.348528e-18)
(1.1915 -4.025528 -3.748137e-20)
(1.5262 -4.710411 1.135353e-18)
(1.910984 -5.360155 3.318335e-20)
(2.35478 -5.974007 1.736466e-18)
(2.831522 -6.558061 -1.434143e-20)
(3.357205 -7.090152 -1.154864e-18)
(3.93355 -7.576164 2.965998e-20)
(4.534031 -8.026915 0)
(5.166629 -8.420887 1.14702e-19)
(5.844824 -8.758964 0)
(6.539444 -9.057184 0)
(7.244242 -9.292978 -1.012435e-18)
(7.968639 -9.457324 2.703035e-18)
(8.706095 -9.567602 5.930183e-20)
(9.445347 -9.623449 -1.127031e-19)
(10.19112 -9.615433 -2.450472e-18)
(10.93316 -9.555036 -2.750487e-18)
(11.66167 -9.435147 3.26282e-18)
(12.36931 -9.252587 -3.520654e-18)
(13.054 -9.008226 -7.300349e-20)
(13.7212 -8.706825 0)
(14.35837 -8.363438 -4.521104e-18)
(14.96383 -7.962061 9.49672e-18)
(15.5279 -7.516181 -5.038265e-18)
(16.04824 -7.022503 0)
(16.52807 -6.485921 8.981506e-20)
(16.95658 -5.920972 -5.413107e-18)
(17.32643 -5.315144 -8.639064e-20)
(17.63363 -4.67609 1.37194e-19)
(17.87728 -4.006681 -9.000496e-20)
(18.05276 -3.322366 0)
(18.14609 -2.637052 -2.874328e-18)
(18.14986 -1.949855 1.38433e-18)
(18.06851 -1.290394 6.843292e-19)
(17.89998 -0.7111352 -1.063324e-20)
(17.87944 -0.2248714 3.20933e-19)
(17.68298 0.3955094 6.209014e-19)
(18.48713 0.5628806 0)
(16.78695 -0.3453083 9.585554e-19)
(9.515029 -0.6502933 -1.039325e-19)
(8.082399 1.612722 4.63954e-18)
(9.518295 3.888617 0)
(10.31351 4.691364 0)
(10.75473 4.613042 0)
(10.71993 4.422907 4.435037e-20)
(9.75342 4.332802 2.567536e-18)
(7.869946 4.133005 -1.855579e-18)
(4.949606 1.560685 1.02623e-18)
(0.1423091 -2.815095 -3.850621e-18)
(-1.527085 -2.486578 3.706251e-18)
(-3.424904 -3.308094 0)
(-3.867029 -2.883788 -5.275728e-18)
(-3.571339 -2.443947 -4.610683e-18)
(-2.686417 -1.205031 3.490233e-18)
(-1.253524 0.4741967 -8.841311e-20)
(0.2116361 1.91193 -4.858099e-20)
(1.325635 3.02972 4.829312e-20)
(2.115018 3.896014 0)
(2.742484 4.569649 -1.491211e-18)
(3.240614 4.943462 4.750272e-20)
(3.436737 4.887897 2.809765e-18)
(3.162352 4.369919 -1.310561e-18)
(2.116105 3.532099 7.879233e-20)
(1.499821 3.201742 -1.349952e-18)
(1.603858 3.033147 0)
(0.6542064 -2.224862 -1.124525e-18)
(-0.2025801 -8.08202 5.972184e-19)
(-0.8844329 -9.466926 -4.903656e-20)
(-1.484473 -9.454514 1.163295e-18)
(-1.657711 -9.904491 -5.696854e-20)
(-1.538308 -9.707046 1.93736e-20)
(-1.322512 -9.055764 5.163115e-19)
(-1.111623 -7.946842 -2.340626e-21)
(-0.8800503 -6.537535 2.168198e-21)
(-1.063606 -4.865483 3.859996e-22)
(-1.066222 -3.113586 -9.817859e-21)
(-1.25958 -1.274587 -8.51807e-20)
(-1.351392 0.8687571 8.869022e-20)
(-1.656854 2.582587 -1.439965e-19)
(-1.91293 4.147309 0)
(-2.172881 5.400566 9.071371e-20)
(-2.340934 6.27318 2.04608e-19)
(-2.331873 6.766503 4.684927e-19)
(-1.869626 6.873385 0)
(-1.244025 7.469859 0)
(-0.2037801 5.291677 -1.21943e-19)
(1.179196 0.5152123 -1.136214e-20)
(0.9308525 -1.382225 -3.594319e-19)
(0.7184655 -1.845242 -7.482787e-21)
(1.164237 -1.189789 1.076748e-19)
(2.152275 -2.217347 3.898703e-20)
(1.364765 -2.184234 -1.443266e-19)
(0.2005363 -1.730428 2.143768e-19)
(-0.930418 -1.060885 -4.118839e-19)
(-2.144573 -0.01281966 0)
(-3.511837 1.333158 0)
(-4.344197 2.554196 -2.289946e-18)
(-3.984884 3.525924 0)
(-2.354806 3.458466 -3.422547e-20)
(0.4575485 2.403631 3.053515e-20)
(2.980998 0.7475879 3.31788e-19)
(6.873928 -2.851745 8.115798e-21)
(9.260888 -3.862033 -2.061443e-20)
(10.59758 -4.094705 -1.068587e-18)
(11.16521 -4.401349 1.225254e-20)
(11.39836 -4.8071 9.792242e-19)
(11.84156 -4.815314 -6.519549e-20)
(12.15298 -3.252174 2.856423e-18)
(12.50967 -0.2713367 -7.555195e-20)
(15.53653 1.249249 2.758216e-18)
(17.48923 0.4922042 2.109157e-20)
(16.24947 -0.1348618 -3.48371e-21)
(16.76123 0.2674256 -4.007199e-19)
(16.91034 0.7329539 -3.258438e-21)
(17.06731 1.120512 -4.504069e-19)
(17.21234 1.637762 -2.947369e-20)
(17.2659 2.222542 -9.198176e-19)
(17.22219 2.834966 1.913524e-18)
(17.09552 3.490692 -1.917798e-18)
(16.90438 4.116526 3.723029e-18)
(16.63611 4.75198 2.041061e-18)
(16.30272 5.343372 0)
(15.90591 5.915622 0)
(15.46829 6.469554 3.503224e-18)
(14.99053 6.961827 3.345052e-18)
(14.45706 7.41572 0)
(13.88499 7.806863 -8.821265e-20)
(13.26928 8.156733 2.85606e-18)
(12.62182 8.456653 2.540484e-18)
(11.9507 8.689498 2.222734e-18)
(11.26319 8.872809 -5.882318e-20)
(10.56605 9.007153 -1.676695e-18)
(9.853635 9.073569 4.217303e-20)
(9.132255 9.067988 -4.255907e-20)
(8.413383 9.009016 -9.893063e-19)
(7.702611 8.901508 6.75933e-19)
(6.997838 8.736741 0)
(6.316486 8.497291 0)
(5.642741 8.212182 3.093426e-19)
(5.006207 7.856745 -8.371034e-21)
(4.382228 7.452633 -8.033439e-21)
(3.808196 6.9913 -9.305211e-19)
(3.264709 6.48625 -2.382051e-18)
(2.745801 5.948963 1.348015e-18)
(2.279397 5.365825 -1.625296e-18)
(1.865826 4.740779 -9.04417e-19)
(1.507558 4.076888 -3.092131e-20)
(1.207186 3.382026 0)
(0.9291804 2.687193 -1.141099e-18)
(0.7531704 1.956751 -3.839814e-20)
(0.594876 1.208537 -6.525194e-19)
(0.4966636 0.4836116 3.467869e-19)
(0.4754251 -0.2446981 -2.270261e-23)
(0.587325 -0.9826476 -3.383741e-19)
(0.6761693 -1.773667 2.880709e-20)
(0.8226481 -2.541874 -6.064035e-19)
(1.033283 -3.270457 1.1055e-18)
(1.304138 -3.969969 -1.058207e-18)
(1.634239 -4.642784 2.776587e-21)
(2.01486 -5.281645 8.564895e-19)
(2.462877 -5.884389 -1.383083e-18)
(2.93037 -6.463036 1.16707e-18)
(3.444832 -6.989805 8.652444e-19)
(4.02181 -7.467363 8.273176e-21)
(4.629826 -7.906019 8.660982e-21)
(5.254745 -8.293235 -8.646084e-20)
(5.916416 -8.632582 -1.614332e-19)
(6.611052 -8.922577 1.973222e-20)
(7.31489 -9.148296 7.379651e-19)
(8.031511 -9.306431 -2.175969e-18)
(8.761361 -9.412904 1.371141e-18)
(9.50565 -9.451312 -5.476604e-20)
(10.24878 -9.433423 -1.97478e-18)
(10.98355 -9.368773 4.529251e-18)
(11.71238 -9.235365 8.283358e-20)
(12.41727 -9.04207 2.730702e-18)
(13.10244 -8.781296 -3.169988e-18)
(13.77149 -8.463033 9.818503e-20)
(14.40744 -8.106424 -3.57539e-18)
(15.01318 -7.686538 -3.64528e-18)
(15.57617 -7.224693 1.251366e-19)
(16.09744 -6.708154 -4.173697e-18)
(16.57725 -6.150038 4.301001e-18)
(17.005 -5.566313 0)
(17.3724 -4.943907 0)
(17.67527 -4.288674 2.323083e-18)
(17.91463 -3.618971 2.318553e-18)
(18.08996 -2.94351 0)
(18.18506 -2.271937 1.230637e-18)
(18.18626 -1.618204 1.120017e-18)
(18.09903 -1.019959 -5.738379e-19)
(17.92496 -0.5099891 1.316757e-19)
(17.83708 -0.1196555 2.650191e-19)
(17.47043 0.4142788 -5.202024e-19)
(17.62733 0.4778184 0)
(18.62136 -0.4075611 5.998782e-20)