/*--------------------------------*- C++ -*----------------------------------*\
| =========                 |                                                 |
| \\      /  F ield         | OpenFOAM: The Open Source CFD Toolbox           |
|  \\    /   O peration     | Version:  2406                                  |
|   \\  /    A nd           | Website:  www.openfoam.com                      |
|    \\/     M anipulation  |                                                 |
\*---------------------------------------------------------------------------*/
FoamFile
{
    version     2.0;
    format      ascii;
    arch        "LSB;label=32;scalar=64";
    class       volScalarField;
    location    "0.76";
    object      p;
}
// * * * * * * * * * * * * * * * * * * * * * * * * * * * * * * * * * * * * * //

dimensions      [0 2 -2 0 0 0 0];

internalField   nonuniform List<scalar> 
217010
(
-88.73752
-46.8508
-54.79078
-56.5655
-52.28588
-48.12736
-48.34252
-47.68676
-47.52987
-47.35885
-47.29988
-47.19657
-46.99732
-46.73913
-46.59123
-46.54474
-46.38135
-46.14323
-45.95553
-45.79953
-45.62385
-45.46851
-45.28348
-45.07168
-44.83905
-44.72867
-44.82923
-44.57415
-43.85781
-43.05264
-42.47517
-42.21957
-42.13811
-42.28133
-42.78599
-43.611
-44.41622
-45.12169
-45.61813
-45.75273
-45.48908
-44.79573
-43.73685
-42.27812
-41.03708
-40.50406
-40.56119
-39.18602
-35.05172
-33.60217
-32.74444
-39.03986
-40.48954
-37.14312
-32.83078
-32.28565
-32.95834
-33.43467
-33.89716
-34.29922
-34.60904
-34.76471
-34.72597
-34.52273
-34.19223
-33.69049
-32.98204
-32.0912
-31.06931
-29.90465
-28.59705
-27.1482
-25.59528
-23.9555
-22.22503
-20.39808
-18.48171
-16.50638
-14.52641
-12.56615
-10.6445
-8.740749
-6.822564
-4.934876
-3.102859
-1.342626
0.3390257
1.938428
3.364168
4.649208
5.837768
6.880852
7.753992
8.452068
9.016393
9.455058
9.79935
9.847947
9.733308
9.422414
8.811976
7.832845
6.590377
5.111883
3.474683
1.643614
-0.3446503
-2.42838
-4.615497
-6.910171
-9.279587
-11.70568
-14.15328
-16.66051
-19.17137
-21.65192
-24.20134
-26.80035
-29.24545
-31.63915
-33.98187
-36.2213
-38.38834
-40.47947
-42.42944
-44.20376
-45.84422
-47.38907
-48.76375
-49.93334
-50.91695
-51.7218
-52.2959
-52.65473
-52.82421
-52.77147
-52.51834
-52.10139
-51.505
-50.71006
-49.6602
-48.42935
-47.93464
-48.62877
-48.36631
-44.73992
-39.04717
-36.83742
-40.38233
-47.24817
-46.78429
-51.4648
-50.32937
-49.5966
-48.85546
-45.51832
-40.16023
-34.12976
-29.64692
-27.64586
-27.59129
-28.7084
-33.1482
-38.21606
-42.64409
-45.45747
-46.56685
-46.26006
-45.19098
-44.39133
-43.53636
-42.66343
-43.61227
-46.365
-47.20405
-44.82961
-40.74655
-38.48286
-37.83119
-37.50359
-37.32
-37.38022
-36.39489
-36.20426
-37.40769
-37.75618
-37.13962
-36.33414
-35.94879
-36.15828
-36.252
-36.34732
-36.40953
-36.46937
-36.55063
-36.66646
-36.22118
-38.88459
-35.73681
-71.29927
-27.01204
-24.26821
-18.35616
-15.02788
-11.96635
-9.393374
-7.111205
-4.980572
-3.123947
-1.381389
0.2270581
1.721655
3.151203
4.516987
5.8111
7.02535
8.178612
9.299846
10.3815
11.42444
12.43288
13.39899
14.32341
15.23914
16.14054
17.0284
17.88336
18.70143
19.4974
20.28643
21.07145
21.84762
22.59122
23.31721
24.04234
24.75711
25.46854
26.17591
26.889
27.57049
28.27908
28.95271
29.62513
30.28978
30.95373
31.60848
32.25587
32.90763
33.57327
34.23878
34.89285
35.53811
36.18443
36.85224
37.53229
38.20637
38.883
39.57058
40.26415
40.96986
41.67806
42.3853
43.1285
43.94408
44.78069
45.5974
46.42952
47.33771
48.39761
49.57278
50.92795
52.0051
50.17059
48.79967
47.71931
46.74091
45.7695
44.77654
43.82864
42.98151
42.18368
41.3441
40.48321
39.64577
38.85255
38.0813
37.31068
36.53146
35.75486
35.00271
34.26059
33.50787
32.75627
32.01588
31.26667
30.52418
29.77254
28.99604
28.23179
27.48719
26.73977
25.97535
25.17485
24.40991
23.61797
22.80921
22.00131
21.1918
20.35631
19.51035
18.66673
17.80988
16.91485
15.98194
15.05104
14.1309
13.1825
12.19313
11.18092
10.13157
9.046486
7.936947
6.795739
5.646331
4.431537
3.146164
1.820937
0.4294161
-1.015366
-2.554304
-4.203712
-5.939287
-7.775145
-9.794179
-11.98672
-14.46613
-17.15139
-20.19031
-23.86303
-27.92135
-34.94115
-39.00158
52.00488
50.40538
48.96497
47.8497
46.85931
45.88356
44.88477
43.92634
43.06819
42.26494
41.42378
40.55982
39.71675
38.91781
38.14249
37.36897
36.58707
35.80709
35.05159
34.30667
33.55167
32.79766
32.05493
31.30349
30.55924
29.80593
29.02741
28.26118
27.51445
26.76533
25.99933
25.19644
24.43192
23.63712
22.82681
22.01754
21.20674
20.36982
19.52262
18.67764
17.81962
16.92306
15.9886
15.05644
14.13522
13.18523
12.1945
11.18117
10.13013
9.043073
7.931566
6.788341
5.637738
4.419633
3.131307
1.803462
0.40823
-1.039481
-2.583518
-4.238438
-5.978599
-7.820222
-9.846309
-12.04682
-14.5458
-17.24315
-20.30366
-23.99933
-28.14078
-35.1049
-40.16618
-28.03412
-24.3994
-18.54338
-15.14224
-12.06373
-9.471895
-7.180256
-5.031454
-3.168278
-1.421391
0.1930939
1.691759
3.125119
4.494814
5.792814
7.010338
8.165642
9.289157
10.37315
11.41808
12.42834
13.39648
14.32206
15.23895
16.14153
17.03074
17.88713
18.70626
19.50332
20.2935
21.07972
21.85712
22.60195
23.32891
24.05531
24.77123
25.48402
26.19287
26.90838
27.58956
28.30025
28.97522
29.64927
30.3154
30.9808
31.63709
32.28623
32.94008
33.60776
34.27505
34.93069
35.578
36.2271
36.89782
37.58055
38.25713
38.93674
39.62763
40.32481
41.03385
41.74546
42.45829
43.2098
44.03275
44.8737
45.69518
46.53784
47.46293
48.54535
49.76442
50.99359
-46.62155
-51.25155
-50.42468
-49.73425
-49.16582
-46.04541
-40.70977
-34.57433
-29.89171
-27.72006
-27.57093
-28.56897
-32.89043
-37.945
-42.43384
-45.35484
-46.57019
-46.30754
-45.2397
-44.42505
-43.56852
-42.65644
-43.55757
-46.34992
-47.25382
-44.91027
-40.79696
-38.50179
-37.83813
-37.50861
-37.325
-37.38363
-36.39707
-36.20287
-37.41876
-37.76981
-37.14478
-36.33388
-35.94887
-36.16005
-36.25379
-36.34928
-36.41134
-36.47156
-36.55397
-36.66065
-36.26838
-38.86888
-36.58855
-65.64437
-32.55668
-38.50518
-40.55045
-37.59711
-33.11831
-32.27493
-32.87881
-33.37424
-33.85153
-34.26657
-34.59113
-34.76488
-34.74055
-34.54737
-34.22768
-33.73933
-33.04351
-32.16199
-31.14794
-29.99051
-28.68804
-27.24175
-25.68812
-24.04756
-22.31673
-20.48879
-18.57039
-16.59075
-14.60516
-12.63863
-10.71123
-8.803991
-6.880547
-4.984433
-3.14826
-1.382686
0.3034754
1.909299
3.340769
4.629399
5.822119
6.86914
7.745574
8.445957
9.012005
9.452287
9.797586
9.846579
9.732834
9.422194
8.810866
7.829705
6.585389
5.10371
3.463915
1.628285
-0.3641728
-2.451872
-4.644038
-6.944163
-9.31896
-11.7504
-14.20291
-16.71693
-19.2321
-21.71546
-24.26993
-26.88264
-29.32811
-31.72628
-34.07081
-36.31198
-38.48236
-40.57655
-42.52637
-44.2978
-45.93606
-47.47694
-48.84403
-50.00533
-50.98117
-51.77625
-52.33738
-52.68448
-52.84177
-52.77456
-52.50339
-52.06519
-51.44354
-50.6173
-49.53602
-48.3249
-47.92158
-48.61573
-48.10222
-44.24836
-38.71003
-36.90403
-41.12847
-47.23295
-82.15173
-47.71631
-54.58653
-56.6946
-52.47661
-48.18196
-48.34512
-47.69581
-47.53259
-47.36041
-47.30112
-47.1987
-46.99953
-46.73993
-46.59196
-46.54571
-46.3816
-46.14265
-45.95517
-45.79945
-45.62358
-45.46889
-45.28278
-45.06836
-44.83473
-44.72727
-44.82804
-44.56457
-43.83627
-43.03004
-42.45653
-42.20977
-42.13722
-42.29483
-42.81817
-43.65411
-44.45946
-45.15795
-45.63359
-45.74375
-45.44517
-44.71504
-43.61119
-42.13245
-40.9306
-40.4617
-40.46409
-38.83094
-34.70747
-33.56363
-74.44559
-48.05532
-54.27828
-56.82189
-52.66847
-48.24194
-48.34616
-47.70422
-47.53573
-47.36131
-47.30261
-47.20087
-47.00034
-46.73986
-46.59284
-46.54794
-46.38228
-46.14154
-45.95507
-45.80048
-45.62428
-45.47156
-45.28704
-45.07177
-44.83879
-44.73191
-44.83337
-44.56426
-43.82873
-43.01734
-42.44893
-42.20808
-42.13972
-42.30298
-42.82898
-43.67917
-44.48769
-45.18903
-45.66032
-45.75766
-45.453
-44.70507
-43.59404
-42.0971
-40.92646
-40.48746
-40.45454
-38.7804
-34.55146
-33.5196
-32.40892
-38.35263
-40.70589
-37.90358
-33.20095
-32.28262
-32.87282
-33.38448
-33.86654
-34.27157
-34.58726
-34.76721
-34.75201
-34.55909
-34.2414
-33.75943
-33.06811
-32.18179
-31.16365
-30.00651
-28.70848
-27.26302
-25.71152
-24.07317
-22.34451
-20.51881
-18.60231
-16.62259
-14.63623
-12.66833
-10.7392
-8.832624
-6.906976
-5.011931
-3.171189
-1.403405
0.2827223
1.890975
3.325329
4.614917
5.80989
6.859322
7.737886
8.439109
9.005814
9.447963
9.79398
9.842404
9.730294
9.420193
8.807441
7.823226
6.578017
5.093412
3.453311
1.613933
-0.3803797
-2.469147
-4.663808
-6.966049
-9.342316
-11.77542
-14.22876
-16.74581
-19.26009
-21.74342
-24.31039
-26.91346
-29.35904
-31.75895
-34.10215
-36.34149
-38.51237
-40.60457
-42.5487
-44.3169
-45.9575
-47.50207
-48.87374
-50.0338
-51.01092
-51.80544
-52.36112
-52.70783
-52.86525
-52.79253
-52.5182
-52.07608
-51.4423
-50.60291
-49.51733
-48.34234
-47.99043
-48.67414
-48.11061
-44.07742
-38.3727
-36.86418
-41.46812
-47.26236
-46.49992
-51.16828
-50.5803
-49.93581
-49.40375
-46.22909
-41.02759
-34.91227
-30.11796
-27.81331
-27.57855
-28.49455
-32.77556
-37.84449
-42.41507
-45.40555
-46.63922
-46.45077
-45.37587
-44.47569
-43.57357
-42.6312
-43.49931
-46.35768
-47.32277
-44.99892
-40.86028
-38.52814
-37.85142
-37.52077
-37.34034
-37.39002
-36.3811
-36.19668
-37.45483
-37.8138
-37.16406
-36.34055
-35.9507
-36.16214
-36.25588
-36.35202
-36.41393
-36.4739
-36.55724
-36.65167
-36.27931
-38.89292
-36.91223
-58.83456
-28.12409
-24.49795
-18.62371
-15.19783
-12.10835
-9.506724
-7.206838
-5.063175
-3.18465
-1.437715
0.1795386
1.679436
3.113506
4.4852
5.784825
7.004373
8.159133
9.283752
10.36871
11.41458
12.42528
13.39502
14.32021
15.23773
16.14104
17.03129
17.88898
18.70808
19.50511
20.29546
21.0821
21.86082
22.60628
23.33229
24.05938
24.77548
25.48977
26.19908
26.9131
27.5984
28.30489
28.98136
29.65637
30.32255
30.98854
31.64515
32.29424
32.94785
33.61688
34.28554
34.94119
35.58854
36.23688
36.90857
37.59344
38.27051
38.94978
39.64233
40.33977
41.0495
41.76212
42.47551
43.22685
44.0551
44.89995
45.72006
46.56462
47.49184
48.59213
49.84049
50.9991
51.95845
50.50451
49.02507
47.88492
46.89218
45.9178
44.9134
43.9478
43.08872
42.28852
41.44524
40.5791
39.73263
38.93297
38.15733
37.38424
36.6008
35.81874
35.06366
34.31899
33.56254
32.80813
32.06583
31.31258
30.56988
29.81605
29.03465
28.26818
27.52193
26.77268
26.00429
25.20564
24.43733
23.64485
22.83261
22.02285
21.21202
20.37334
19.52588
18.68144
17.82395
16.92592
15.98961
15.0573
14.13704
13.18591
12.19453
11.18103
10.12835
9.04015
7.927628
6.783651
5.634225
4.413741
3.123928
1.796089
0.3983228
-1.048948
-2.596387
-4.253537
-5.994688
-7.837929
-9.866874
-12.08387
-14.57683
-17.28422
-20.35548
-24.06798
-28.23616
-35.21909
-40.17393
51.86987
50.65198
49.19049
48.01712
47.01343
46.03817
45.02844
44.05559
43.18858
42.382
41.53465
40.6661
39.81546
39.01062
38.23052
37.45331
36.66677
35.88099
35.12324
34.3745
33.61464
32.85788
32.11305
31.35653
30.61272
29.85629
29.07103
28.3042
27.55567
26.80461
26.03331
25.23609
24.46037
23.66982
22.85396
22.0431
21.23139
20.38941
19.54117
18.69594
17.83787
16.93654
15.99739
15.0645
14.1448
13.19078
12.19792
11.18381
10.12814
9.038151
7.923731
6.777595
5.62948
4.403537
3.110354
1.781662
0.3782571
-1.069313
-2.623986
-4.286823
-6.031358
-7.879067
-9.919175
-12.14358
-14.64327
-17.36897
-20.46101
-24.19085
-28.43022
-35.31476
-40.29958
-28.29266
-24.58596
-18.79084
-15.29924
-12.20086
-9.579176
-7.264274
-5.11469
-3.228147
-1.475687
0.1482545
1.651298
3.088558
4.464862
5.768238
6.992347
8.147415
9.274944
10.36228
11.4103
12.42222
13.39522
14.31978
15.23865
16.14342
17.03553
17.89593
18.71576
19.51347
20.30432
21.09205
21.87329
22.62101
23.34631
24.07524
24.79221
25.50951
26.22055
26.93246
27.62631
28.33045
29.00862
29.68568
30.35379
31.02117
31.68027
32.33138
32.98705
33.65807
34.3293
34.98708
35.63727
36.28849
36.96242
37.65121
38.33127
39.01386
39.70981
40.41143
41.12444
41.84171
42.5617
43.31919
44.15277
45.00316
45.82812
46.68152
47.61802
48.73134
49.96658
50.98673
-46.36747
-50.86415
-50.80467
-50.33101
-49.84967
-46.8423
-41.63195
-35.44029
-30.44514
-27.95312
-27.6098
-28.42389
-32.62502
-37.65051
-42.26759
-45.29599
-46.68863
-46.62812
-45.60217
-44.59769
-43.58511
-42.59575
-43.42467
-46.39535
-47.4543
-45.15446
-40.96014
-38.56867
-37.87311
-37.53802
-37.362
-37.40803
-36.34841
-36.19828
-37.53309
-37.88759
-37.19497
-36.35575
-35.95567
-36.16554
-36.25913
-36.35657
-36.41895
-36.47852
-36.55988
-36.63377
-36.30118
-38.91816
-37.75912
-53.41917
-32.19979
-37.89409
-40.76321
-38.33285
-33.57974
-32.38638
-32.91194
-33.42389
-33.90229
-34.29394
-34.59947
-34.78668
-34.7863
-34.59836
-34.28815
-33.8207
-33.14634
-32.28175
-31.2742
-30.12593
-28.83054
-27.38185
-25.82459
-24.18293
-22.45209
-20.62309
-18.70231
-16.71466
-14.72154
-12.74694
-10.81105
-8.902068
-6.967855
-5.06623
-3.220836
-1.446346
0.2421494
1.85746
3.29862
4.589968
5.788797
6.843235
7.725615
8.428161
8.995693
9.440494
9.787119
9.833901
9.724872
9.415794
8.801089
7.812049
6.566239
5.076974
3.437226
1.591344
-0.4063499
-2.497537
-4.698052
-7.006329
-9.38726
-11.82546
-14.28279
-16.80923
-19.32617
-21.81258
-24.39209
-26.99848
-29.44808
-31.85775
-34.20402
-36.44464
-38.62219
-40.72108
-42.66842
-44.43603
-46.07896
-47.62976
-48.98654
-50.12865
-51.09516
-51.87987
-52.42135
-52.76357
-52.91816
-52.83759
-52.56467
-52.12394
-51.48241
-50.64293
-49.5743
-48.46147
-48.13663
-48.67349
-47.69629
-43.37189
-37.92752
-36.89712
-41.92181
-47.13427
-68.49839
-48.91355
-53.81759
-57.02475
-53.02009
-48.33153
-48.34532
-47.71579
-47.54009
-47.36211
-47.30498
-47.20553
-47.00261
-46.74009
-46.59424
-46.55126
-46.38359
-46.14
-45.95552
-45.80288
-45.62601
-45.47619
-45.29229
-45.08122
-44.85787
-44.74813
-44.84071
-44.56075
-43.81035
-42.99221
-42.4295
-42.20268
-42.13382
-42.30256
-42.84751
-43.71753
-44.52653
-45.22276
-45.68127
-45.75184
-45.4032
-44.62101
-43.44983
-41.96656
-40.87915
-40.49229
-40.31908
-38.42709
-34.25984
-33.38521
-64.37363
-49.77659
-53.37148
-57.36995
-53.52122
-48.47028
-48.33835
-47.72893
-47.54504
-47.36221
-47.30812
-47.21156
-47.00655
-46.74103
-46.59614
-46.55514
-46.38571
-46.1385
-45.95735
-45.80755
-45.62978
-45.48492
-45.29977
-45.0935
-44.89102
-44.77687
-44.84449
-44.55244
-43.78835
-42.96548
-42.41406
-42.19513
-42.12469
-42.3068
-42.87795
-43.77423
-44.59696
-45.28333
-45.7341
-45.77567
-45.40343
-44.5795
-43.38848
-41.8985
-40.84957
-40.46711
-40.12579
-38.02204
-33.89872
-33.08572
-31.88593
-37.27339
-40.62103
-38.79285
-34.22862
-32.69378
-33.01813
-33.47854
-33.94181
-34.31562
-34.60549
-34.7975
-34.81291
-34.62544
-34.31903
-33.86284
-33.19088
-32.30659
-31.30078
-30.16309
-28.884
-27.44583
-25.89338
-24.25566
-22.52945
-20.70381
-18.78617
-16.79583
-14.79948
-12.82023
-10.87759
-8.971011
-7.031433
-5.124612
-3.273529
-1.492554
0.1948433
1.818155
3.267569
4.556351
5.761817
6.823119
7.708013
8.412365
8.980024
9.42778
9.775762
9.819051
9.715051
9.407396
8.789725
7.793357
6.547115
5.050719
3.413181
1.558482
-0.4425613
-2.53416
-4.739855
-7.054809
-9.441639
-11.88343
-14.34114
-16.87923
-19.39248
-21.87493
-24.47767
-27.08614
-29.5294
-31.94763
-34.28931
-36.52487
-38.70785
-40.80729
-42.74408
-44.49993
-46.14018
-47.68502
-49.02442
-50.16315
-51.14589
-51.9365
-52.46661
-52.81012
-52.96491
-52.87527
-52.60561
-52.166
-51.51858
-50.69609
-49.67843
-48.67018
-48.34184
-48.55985
-47.1752
-42.78748
-37.51762
-36.99032
-42.49157
-46.92139
-46.12577
-50.40694
-51.04109
-50.86352
-50.33921
-47.41627
-42.36982
-36.12631
-30.89396
-28.16886
-27.69121
-28.40221
-32.52568
-37.49427
-42.21204
-45.34977
-46.83104
-46.86582
-45.91393
-44.83818
-43.68591
-42.60469
-43.36791
-46.46048
-47.64676
-45.38164
-41.10804
-38.62123
-37.90097
-37.55919
-37.38808
-37.44666
-36.33874
-36.23681
-37.66412
-37.99536
-37.24627
-36.38588
-35.96389
-36.17281
-36.26405
-36.36354
-36.42646
-36.48521
-36.576
-36.61181
-36.34718
-38.97142
-38.6312
-49.75875
-28.49053
-24.61133
-18.93669
-15.38877
-12.28611
-9.645563
-7.319184
-5.166456
-3.26281
-1.509909
0.1202239
1.625006
3.06363
4.443949
5.751275
6.981214
8.134215
9.263892
10.35318
11.4033
12.41615
13.39364
14.3159
15.236
16.14152
17.03526
17.89915
18.71874
19.51571
20.30702
21.09595
21.88023
22.62957
23.3523
24.08347
24.80053
25.52067
26.23158
26.94071
27.63901
28.34269
29.02182
29.70036
30.36854
31.03709
31.69752
32.34889
33.00407
33.6775
34.35171
35.00975
35.66064
36.31154
36.98769
37.68119
38.36205
39.04453
39.74495
40.44833
41.1631
41.88305
42.60662
43.36698
44.21265
45.07121
45.89288
46.75267
47.7022
48.83729
50.05531
50.93802
51.72327
50.75299
49.32615
48.11579
47.09525
46.12404
45.10557
44.11748
43.24389
42.44042
41.58842
40.71584
39.85672
39.04862
38.26673
37.48945
36.6996
35.90897
35.15179
34.40289
33.64005
32.88204
32.13769
31.37665
30.63593
29.87831
29.08692
28.31983
27.57086
26.81999
26.04642
25.24869
24.47128
23.68359
22.86376
22.05262
21.24102
20.39552
19.54791
18.70372
17.84632
16.94081
15.99796
15.06615
14.14889
13.19111
12.19728
11.18378
10.12417
9.03233
7.916203
6.768306
5.624734
4.390952
3.094152
1.766003
0.3565375
-1.087702
-2.651401
-4.319411
-6.064504
-7.913691
-9.963391
-12.20484
-14.7057
-17.44688
-20.5575
-24.30337
-28.59762
-35.33692
-40.38861
51.50246
50.80339
49.4768
48.25494
47.2142
46.24771
45.22421
44.22949
43.35426
42.55154
41.6915
40.81912
39.95377
39.14065
38.3535
37.57496
36.78108
35.98255
35.22341
34.47058
33.70256
32.94233
32.19724
31.42904
30.69121
29.93155
29.13161
28.36558
27.61436
26.8616
26.08189
25.29154
24.50659
23.71822
22.89328
22.08192
21.26785
20.41367
19.56506
18.72228
17.86858
16.95679
16.00489
15.07318
14.16199
13.19817
12.2019
11.19073
10.12538
9.029765
7.908739
6.757108
5.624527
4.380334
3.079226
1.74944
0.3297448
-1.106369
-2.684507
-4.360629
-6.108574
-7.956005
-10.01877
-12.28041
-14.7837
-17.54122
-20.67417
-24.43086
-28.77086
-35.31709
-40.5133
-28.76767
-24.6082
-19.08896
-15.48592
-12.39244
-9.728596
-7.388793
-5.228379
-3.307285
-1.556439
0.08495269
1.592936
3.031754
4.419537
5.734235
6.971517
8.117578
9.250529
10.34379
11.39854
12.41293
13.3964
14.31453
15.23707
16.1433
17.04184
17.91173
18.72902
19.52615
20.32089
21.11097
21.8972
22.64954
23.36916
24.10443
24.82111
25.54543
26.25694
26.9689
27.67838
28.37648
29.05588
29.73772
30.40817
31.07965
31.74229
32.39412
33.05159
33.73072
34.40996
35.06781
35.72131
36.37351
37.05259
37.75308
38.43637
39.12224
39.82806
40.53286
41.25024
41.97605
42.70674
43.46728
44.31932
45.18525
46.00247
46.87129
47.826
48.95038
50.11044
50.84501
-45.78222
-49.67679
-51.21706
-51.5442
-51.04176
-48.23535
-43.31808
-37.03276
-31.53715
-28.5215
-27.86774
-28.46787
-32.51576
-37.36887
-42.19094
-45.38218
-46.97123
-47.15033
-46.30105
-45.20412
-43.96375
-42.7442
-43.40755
-46.56089
-47.90819
-45.68639
-41.29406
-38.68362
-37.92983
-37.58139
-37.40867
-37.50798
-36.37564
-36.35046
-37.85838
-38.14402
-37.33338
-36.44108
-35.97792
-36.18798
-36.27134
-36.37446
-36.43731
-36.49535
-36.56803
-36.56065
-36.48278
-39.07218
-39.214
-46.83557
-31.41176
-36.28887
-39.86898
-38.89432
-34.94156
-33.17472
-33.19741
-33.55857
-34.00221
-34.35972
-34.63171
-34.82969
-34.8714
-34.68681
-34.38745
-33.95384
-33.33234
-32.46626
-31.45853
-30.31486
-29.03716
-27.59421
-26.03424
-24.39123
-22.66285
-20.83445
-18.91583
-16.91432
-14.90689
-12.91863
-10.96527
-9.066645
-7.117841
-5.199403
-3.340575
-1.5492
0.1341
1.769367
3.225396
4.508237
5.729332
6.797788
7.683209
8.388008
8.954338
9.406399
9.757201
9.793612
9.697557
9.392727
8.7694
7.764429
6.517972
5.011126
3.37729
1.508932
-0.495827
-2.588319
-4.795549
-7.114325
-9.511846
-11.9638
-14.41797
-16.97792
-19.49026
-21.95766
-24.58834
-27.20958
-29.64285
-32.08106
-34.42228
-36.65162
-38.847
-40.95973
-42.89297
-44.63827
-46.28639
-47.85136
-49.1855
-50.32664
-51.30897
-52.05432
-52.55774
-52.89842
-53.04824
-52.94132
-52.67414
-52.22906
-51.56963
-50.77132
-49.80921
-48.89967
-48.52592
-48.36458
-46.63655
-42.39058
-37.55093
-37.53421
-43.21547
-46.68168
-60.8057
-50.36194
-53.09643
-57.90063
-54.16192
-48.65555
-48.33713
-47.75145
-47.55024
-47.35998
-47.31142
-47.21957
-47.01021
-46.74418
-46.59837
-46.56062
-46.38881
-46.1376
-45.96155
-45.81645
-45.63709
-45.49872
-45.31026
-45.10752
-44.92976
-44.80864
-44.82901
-44.51832
-43.74636
-42.92235
-42.38904
-42.18571
-42.11494
-42.31367
-42.91175
-43.84605
-44.66415
-45.34981
-45.79586
-45.7989
-45.38757
-44.52332
-43.27702
-41.74515
-40.83107
-40.36867
-39.61689
-37.37331
-33.43992
-32.47521
-57.28044
-50.60276
-53.21157
-58.51021
-55.09514
-48.7805
-48.31435
-47.80661
-47.56312
-47.3525
-47.31442
-47.23158
-47.02804
-46.75329
-46.60158
-46.56822
-46.39104
-46.13855
-45.97029
-45.83431
-45.64897
-45.51517
-45.3191
-45.11605
-44.96877
-44.83731
-44.79863
-44.47095
-43.7037
-42.88595
-42.36392
-42.17324
-42.10929
-42.3369
-42.96446
-43.9543
-44.77869
-45.44987
-45.88989
-45.84097
-45.39109
-44.47184
-43.15919
-41.60746
-40.82285
-40.2348
-39.39777
-36.89105
-33.01945
-31.61873
-30.86739
-35.07663
-38.44905
-38.39149
-35.4703
-33.70495
-33.44245
-33.6735
-34.08878
-34.42281
-34.66375
-34.8535
-34.92839
-34.73908
-34.43853
-34.01709
-33.37974
-32.52593
-31.53997
-30.4114
-29.15598
-27.71984
-26.15626
-24.51496
-22.79712
-20.97183
-19.05626
-17.03859
-15.02253
-13.03458
-11.07409
-9.191939
-7.218504
-5.287411
-3.428653
-1.624676
0.04942513
1.702883
3.151154
4.45538
5.685889
6.747533
7.650396
8.347171
8.911531
9.375975
9.722728
9.749666
9.667598
9.370035
8.737499
7.721665
6.478926
4.958576
3.336477
1.441031
-0.5545819
-2.667547
-4.883866
-7.199084
-9.589576
-12.07141
-14.51829
-17.0887
-19.6235
-22.09015
-24.71028
-27.35051
-29.77501
-32.22742
-34.57347
-36.79678
-38.98783
-41.10797
-43.04595
-44.77704
-46.41127
-47.98162
-49.29224
-50.40952
-51.37343
-52.12706
-52.63679
-52.98682
-53.13146
-53.00268
-52.7529
-52.30535
-51.63406
-50.87967
-49.97332
-49.12762
-48.66526
-48.14873
-46.18517
-42.3369
-38.35865
-38.76658
-44.21858
-46.88104
-45.85469
-48.632
-51.2788
-52.32596
-51.90695
-49.26558
-44.51838
-38.26462
-32.47554
-29.09992
-28.2011
-28.65134
-32.67333
-37.35918
-42.2633
-45.50458
-47.26439
-47.56392
-46.80473
-45.70347
-44.44681
-43.14337
-43.63511
-46.72424
-48.20325
-46.06398
-41.45768
-38.75966
-37.95423
-37.60162
-37.4139
-37.57
-36.48412
-36.56987
-38.1311
-38.34815
-37.45705
-36.52658
-36.01206
-36.21379
-36.27635
-36.39323
-36.46104
-36.51344
-36.64352
-36.44671
-36.5135
-39.16417
-39.40564
-44.09169
-29.03631
-24.53055
-19.21619
-15.56847
-12.51543
-9.811755
-7.452557
-5.289528
-3.362506
-1.611419
0.05479675
1.557559
2.992326
4.396557
5.715995
6.952378
8.088527
9.235837
10.33554
11.39714
12.40715
13.39359
14.30954
15.23309
16.14009
17.05023
17.91666
18.72965
19.53329
20.32808
21.10941
21.89802
22.66455
23.3769
24.11663
24.83116
25.56231
26.27596
26.98868
27.69247
28.39031
29.07339
29.76167
30.43319
31.10362
31.76524
32.42277
33.08357
33.76176
34.43931
35.09815
35.75799
36.41106
37.09178
37.79898
38.48838
39.17203
39.8791
40.58862
41.31422
42.04624
42.78476
43.53965
44.40512
45.29497
46.11114
46.9965
47.94571
49.03741
50.12005
50.69188
51.19244
50.76642
49.61008
48.41169
47.34877
46.37914
45.33328
44.32265
43.44515
42.64706
41.76437
40.8887
40.01695
39.20765
38.41134
37.62879
36.83356
36.03266
35.27804
34.51915
33.7437
32.98269
32.23751
31.4592
30.72836
29.95945
29.15121
28.38891
27.6392
26.89062
26.10144
25.29459
24.52065
23.73037
22.90065
22.10001
21.29089
20.42734
19.57626
18.7275
17.87995
16.97049
16.01017
15.06893
14.16673
13.20101
12.19793
11.18985
10.12377
9.028269
7.900113
6.732224
5.614367
4.358027
3.064834
1.73289
0.2920498
-1.124379
-2.722447
-4.398331
-6.159351
-8.005205
-10.07641
-12.35366
-14.8597
-17.63429
-20.79134
-24.54924
-28.90971
-35.19118
-40.55817
50.81944
50.6125
49.68937
48.58921
47.54997
46.61154
45.52141
44.47077
43.6086
42.84901
41.96084
41.05188
40.1352
39.33476
38.55716
37.75747
36.92749
36.10839
35.37777
34.61806
33.82556
33.06953
32.33056
31.52224
30.84554
30.04295
29.20621
28.45748
27.68133
26.9567
26.15738
25.37815
24.60858
23.78913
22.91332
22.11677
21.31514
20.45533
19.62315
18.76536
17.88223
16.97428
16.04541
15.09508
14.16969
13.21852
12.21432
11.17482
10.11081
9.028882
7.924686
6.741804
5.609493
4.304044
3.037971
1.731189
0.2338725
-1.148228
-2.801236
-4.431291
-6.199077
-8.107974
-10.18823
-12.47404
-14.98095
-17.7774
-20.97771
-24.74412
-29.12853
-35.02756
-40.54866
-29.24079
-24.495
-19.43472
-15.71815
-12.72037
-9.888571
-7.545974
-5.403928
-3.467917
-1.658956
0.03294628
1.492644
2.942618
4.377235
5.671555
6.908621
8.080275
9.248249
10.33055
11.39246
12.37847
13.37748
14.32282
15.21633
16.14952
17.06476
17.89713
18.75107
19.561
20.33149
21.10511
21.93877
22.73125
23.39666
24.14973
24.86023
25.60626
26.31646
27.0224
27.72187
28.4453
29.13893
29.82221
30.48985
31.15041
31.83428
32.50544
33.14617
33.81016
34.52165
35.20395
35.85449
36.50556
37.17361
37.90722
38.61245
39.2599
40.00106
40.73468
41.44665
42.17624
42.92089
43.66667
44.57222
45.51007
46.27726
47.14278
48.04211
49.08654
50.08018
50.4657
-44.83392
-47.41697
-51.0883
-53.14898
-53.03228
-50.61042
-46.11169
-40.09557
-33.758
-29.92156
-28.70902
-28.96512
-32.98369
-37.55323
-42.49455
-45.68003
-47.67868
-48.12236
-47.48787
-46.38037
-45.18751
-43.92494
-44.09295
-46.93087
-48.49985
-46.4125
-41.58161
-38.80919
-37.94876
-37.60044
-37.44088
-37.6507
-36.64699
-36.9232
-38.46169
-38.56289
-37.56712
-36.63072
-36.10551
-36.25072
-36.27188
-36.42179
-36.5076
-36.53718
-36.53956
-36.55914
-35.85309
-38.67178
-38.96297
-41.55728
-30.30813
-33.71721
-36.96243
-37.6499
-35.78849
-34.2067
-33.74555
-33.82648
-34.20977
-34.50903
-34.72989
-34.8967
-35.04041
-34.8554
-34.55093
-34.16252
-33.63148
-32.72589
-31.73215
-30.606
-29.3777
-27.94732
-26.38482
-24.75026
-23.03892
-21.2002
-19.28249
-17.25441
-15.24787
-13.2581
-11.27573
-9.365897
-7.345097
-5.433566
-3.577376
-1.772499
-0.08926402
1.563486
3.027216
4.417517
5.593551
6.640856
7.592517
8.282163
8.850504
9.343028
9.663813
9.687257
9.623881
9.335479
8.703215
7.639589
6.426164
4.870644
3.302582
1.346272
-0.6109297
-2.757825
-5.054887
-7.368404
-9.700651
-12.18801
-14.69264
-17.18039
-19.73243
-22.35637
-24.97785
-27.53076
-30.01935
-32.44727
-34.76595
-37.07109
-39.24975
-41.32209
-43.23524
-45.02643
-46.66917
-48.2161
-49.47583
-50.64041
-51.58732
-52.32737
-52.78664
-53.15616
-53.28278
-53.10548
-52.87184
-52.42002
-51.72874
-51.00504
-50.14488
-49.32859
-48.75064
-47.91588
-45.79191
-42.46403
-39.59074
-40.54902
-45.29217
-47.4177
-54.09457
-50.31172
-53.85423
-59.40647
-56.71193
-48.4989
-48.09556
-47.84782
-47.58733
-47.33214
-47.31812
-47.25134
-47.04258
-46.77772
-46.60516
-46.5756
-46.40175
-46.1399
-45.98963
-45.86684
-45.6702
-45.54867
-45.32892
-45.12153
-44.99012
-44.86477
-44.78597
-44.45787
-43.66789
-42.85118
-42.34198
-42.17151
-42.11535
-42.40796
-43.06326
-44.11019
-44.97787
-45.58398
-46.02886
-45.90625
-45.39893
-44.3539
-42.93109
-41.35547
-40.74031
-40.06715
-38.60967
-35.93117
-32.29891
-30.59055
-0.02878145
-0.004937801
-4.995388
2.105687
0.8788197
-0.2609035
0.04101108
1.760728
-0.6782867
0.09491772
1.710779
0.9818566
-0.01224914
12.40826
0.0834277
2.721386
6.511131
-16.53806
2.002946
13.86898
-0.8117428
1.991607
0.05545932
1.778021
-0.07494125
2.648379
1.67832
-0.1027158
1.509135
-0.5186642
0.6970408
-0.8924718
-90.34836
-0.08378458
2.951133
0.1305036
0.06837351
4.39875
0.01588809
2.944021
4.616657
-0.005335451
1.54091
0.8374432
0.4750572
7.21758
-0.009864025
-0.004657526
0.0008587373
5.122385
-3.740113
-0.01759265
-1.632475
-0.03333542
2.845267
0.08280143
-3.797201
-1.101023
-11.0661
-0.00218206
0.2111882
1.565384
-0.1788898
0.8505879
5.530346
0.0410776
-0.1548479
2.918811
14.70108
-1.141661
1.414454
0.06330449
3.371834
-0.00879755
1.109667
1.304969
0.5769178
0.01663353
-0.01158927
1.912364
0.5030967
-0.3570692
0.4486513
-0.1736291
0.3286772
0.07247534
6.873339
0.05593049
-0.5414916
-1.37163
4.544754
5.179786
2.916962
0.1361632
0.6220785
-1.971281
3.097796
2.279785
-107.6481
0.6220065
-0.2258299
22.71045
8.150461
0.363376
-3.510217
1.98578
0.06799907
3.021705
-0.1540729
1.914197
0.07236677
-109.013
0.04601908
-1.183159
-3.614059
0.02207926
-0.2092331
-15.20127
-7.852348
-0.8141633
-0.8539069
-1.424936
-0.487867
0.1096814
1.410423
-0.2389377
0.005746466
0.1281041
2.511925
0.06131942
10.78896
5.663087
2.048243
-0.4656775
0.08612683
-0.01705141
-4.108558
-133.1262
-15.69036
4.351638
2.109663
5.412599
2.325296
-6.539058
-0.07350078
0.4206682
2.864441
-0.7856373
0.02296432
4.970809
1.587325
0.1954837
-0.5431822
1.797535
10.43408
1.454088
0.05517384
-0.9601821
0.005187784
-1.059669
1.216
1.906638
-3.060505
0.02812997
5.41276
-0.05376707
-0.2036664
4.156121
-0.3037097
0.09630424
0.1974441
0.4394198
0.04554715
-4.689864
-0.6257447
0.002871277
-0.7156749
-0.1468781
-0.2142154
3.734509
-0.1448852
2.796215
-9.406946
-1.131511
-1.047617
-4.477645
3.409368
3.025998
5.412179
-0.1415481
-4.74516
0.07614236
0.08249793
0.08748844
13.43569
-0.8725076
-0.8111849
0.761503
-12.71667
-0.9010395
6.174063
-0.5851793
-0.9905642
8.391504
-0.6212085
-1.369221
0.02602513
-6.429798
-10.28721
0.01568987
0.03548386
1.624652
0.04279835
2.879658
0.02826663
0.04697575
-1.032443
-0.3607596
0.5249932
1.633837
-7.299434
-5.641299
1.494426
0.1890374
20.76413
3.230065
0.9681352
0.08768685
-3.593501
-11.84868
0.05141786
-0.5421318
-8.838833
2.909158
2.247798
5.834929
1.025048
1.813182
4.093058
0.1156415
-3.372091
0.4004744
0.04430869
-0.1384361
0.2652238
1.447584
-1.602131
-2.120161
-1.192888
1.813508
1.814393
-78.76509
6.090479
-1.438758
0.03829914
15.23199
-0.4253565
0.4136348
-0.8816242
-1.871199
0.9574781
0.5774993
-0.4746424
0.8820663
3.346112
0.01885255
0.1530037
1.036215
1.674099
0.3641018
-1.132217
0.07301427
-0.376787
0.0450627
5.421747
3.38505
2.882202
0.1347142
2.864371
0.1191393
-1.128307
-44.83506
2.315314
-0.4443368
5.683338
0.0399562
-3.116738
3.426016
3.933565
-0.08632049
1.658461
0.05106087
-46.28593
2.39677
4.415393
4.334331
-0.01547719
14.87257
1.906532
-0.9040475
-0.9627314
3.937405
-0.9727721
10.5576
-2.295802
-0.03918344
-2.814662
2.31688
0.1017435