/*--------------------------------*- C++ -*----------------------------------*\
| =========                 |                                                 |
| \\      /  F ield         | OpenFOAM: The Open Source CFD Toolbox           |
|  \\    /   O peration     | Version:  2406                                  |
|   \\  /    A nd           | Website:  www.openfoam.com                      |
|    \\/     M anipulation  |                                                 |
\*---------------------------------------------------------------------------*/
FoamFile
{
    version     2.0;
    format      ascii;
    arch        "LSB;label=32;scalar=64";
    class       surfaceScalarField;
    location    "1.02";
    object      phi;
}
// * * * * * * * * * * * * * * * * * * * * * * * * * * * * * * * * * * * * * //

dimensions      [0 3 -1 0 0 0 0];

oriented        oriented;

internalField   nonuniform List<scalar> 
326221
(
-0.00213481
-0.004630236
0.006765046
-0.0009365404
-0.00119827
0.0002021201
-0.001138661
-0.001277657
0.001479777
-0.001192227
-8.542992e-05
-0.0004884871
-0.0007037395
-0.0004287095
-5.977766e-05
-0.0001581236
-0.0002705858
9.582242e-05
-0.000253946
0.0002134813
-0.0001176589
0.0001621316
5.134963e-05
6.530546e-05
9.682618e-05
7.420063e-05
-8.895175e-06
0.000185909
-0.0001117083
0.0002579715
-7.206257e-05
0.0002877167
-2.974515e-05
0.0003405956
-5.287887e-05
0.0004516884
-0.0001110928
0.0006647299
-0.0002130415
0.0008198529
-0.0001551231
0.000493358
0.000326495
-0.0001022905
0.0005956485
-0.0002348732
0.0001325827
-0.0002391067
4.23345e-06
-0.000340789
0.0001016823
0.000242332
-0.0005831209
0.0007765879
-0.0005342559
0.0006518205
0.0001247673
0.0002787453
0.0003730752
0.0001987817
7.99636e-05
0.000490527
-0.0002917453
0.0005631922
-7.266527e-05
0.000388912
0.0001742803
-0.0001072824
0.0004961944
-0.001156687
0.001049405
-0.002103153
0.0009464663
-0.00252342
0.0004202672
-0.00254027
1.684995e-05
-0.002384221
-0.0001560495
-0.002182112
-0.0002021085
-0.001957171
-0.0002249413
-0.001698818
-0.0002583536
-0.001274486
-0.0004243321
-0.0001558492
-0.001118636
0.0008214154
-0.0009772647
0.001568743
-0.0007473279
0.00204405
-0.0004753063
0.002276209
-0.0002321589
0.001468448
0.0008077608
-6.477218e-05
0.00153322
-0.002278828
0.002214056
-0.002028862
-0.0002499656
-0.001436303
-0.0005925599
-0.000652555
-0.0007837475
-2.66985e-05
-0.0006258565
0.0003514954
-0.0003781938
0.0007225782
-0.0003710829
0.001437794
-0.000715216
0.002511505
-0.00107371
0.002968116
-0.000456611
0.001250404
0.001717711
-0.001152724
0.002403128
-0.001081656
-7.106781e-05
0.000300525
-0.001382181
0.00141739
-0.001116865
0.00185052
-0.0004331307
0.001499995
0.0003505259
0.0009132239
0.0005867706
0.0006601892
0.0002530347
0.0004957189
0.0001644703
0.0001583474
0.0003373715
-0.000297467
0.0004558144
-0.0007527952
0.0004553282
-0.001150619
0.0003978237
-0.001484865
0.0003342459
-0.001764757
0.0002798925
-0.002004759
0.0002400016
-0.002211659
0.0002069004
-0.002390809
0.0001791499
-0.002550392
0.0001595831
-0.00269311
0.0001427177
-0.002813921
0.0001208111
-0.002910747
9.682646e-05
-0.002913184
2.436717e-06
-0.002992653
7.946946e-05
-0.00308278
9.012659e-05
-0.003162102
7.932161e-05
-0.003228016
6.591416e-05
-0.003287417
5.940113e-05
-0.003334041
4.662384e-05
-0.003363917
2.9876e-05
-0.003389037
2.512031e-05
-0.003405686
1.664873e-05
-0.003410889
5.203232e-06
-0.003406292
-4.596646e-06
-0.003393729
-1.256341e-05
-0.003380173
-1.355591e-05
-0.003360593
-1.958046e-05
-0.003333611
-2.698162e-05
-0.003298526
-3.50853e-05
-0.003255972
-4.255346e-05
-0.003208851
-4.712115e-05
-0.003156463
-5.238839e-05
-0.003101557
-5.490585e-05
-0.00303511
-6.644704e-05
-0.00296435
-7.076029e-05
-0.002891007
-7.334216e-05
-0.002809769
-8.123831e-05
-0.002719263
-9.050639e-05
-0.002621475
-9.77879e-05
-0.002527119
-9.435626e-05
-0.002429488
-9.763072e-05
-0.002333189
-9.629848e-05
-0.002241786
-9.140352e-05
-0.002147942
-9.384415e-05
-0.002054959
-9.298236e-05
-0.002012995
-4.196474e-05
-0.001924658
-8.833612e-05
-0.00183326
-9.139824e-05
-0.001740672
-9.258862e-05
-0.001645208
-9.546346e-05
-0.001544597
-0.0001006107
-0.001434151
-0.0001104464
-0.001317146
-0.000117005
-0.001200146
-0.0001170004
-0.001082626
-0.0001175194
-0.000959802
-0.0001228244
-0.0008289183
-0.0001308837
-0.0007094925
-0.0001194258
-0.0005781117
-0.0001313807
-0.0004496853
-0.0001284265
-0.0003305415
-0.0001191438
-0.0001893087
-0.0001412328
-7.278897e-05
-0.0001165197
4.817025e-05
-0.0001209592
0.0001672194
-0.0001190491
0.0002843324
-0.000117113
0.000399614
-0.0001152817
0.0005089321
-0.0001093181
0.0006101865
-0.0001012543
0.000700625
-9.043849e-05
0.0007790444
-7.841944e-05
0.0008441222
-6.50778e-05
0.0008934814
-4.935918e-05
0.000921611
-2.812962e-05
0.0009213592
2.518418e-07
0.0008611285
6.02307e-05
0.00073921
0.0001219185
0.0004486896
0.0002905204
0.0001342615
0.000314428
-0.0008588781
0.0009931396
-0.0001938997
-0.0006649783
0.0002309742
-0.0004248739
0.0001805823
5.039187e-05
-1.753468e-06
0.0001823358
-0.0008298271
0.0008280736
-0.001979755
0.001149928
-0.002361235
0.0003814806
-0.002103153
-0.0002580823
-0.001595515
-0.0005076381
-0.0009743249
-0.0006211902
-0.0001817956
-0.0007925292
0.00076338
-0.0009451756
0.001442952
-0.0006795718
0.001763363
-0.0003204115
0.001895151
-0.0001317874
0.001897268
-2.117252e-06
0.001853531
4.37368e-05
0.001781877
7.165421e-05
0.001614711
0.0001671663
0.00122591
0.0003888004
0.0005804781
0.0006454322
4.707676e-05
0.0005334013
9.743016e-05
-5.03534e-05
0.0002023486
-0.0001049185
-0.0002672101
0.0004695587
-0.000853109
0.0005858989
-0.00082042
-3.268907e-05
-0.0003711841
-0.0004492359
2.692418e-05
-0.0003981083
0.0002590915
-0.0002321673
0.0002905061
-3.141468e-05
7.773359e-05
0.0002127725
-0.0001593949
0.0002371285
-0.0002360465
7.665157e-05
-0.0002797336
4.368711e-05
-0.000142235
-0.0001374986
-5.502801e-05
-8.720702e-05
-6.939265e-05
1.436464e-05
-8.519292e-05
1.580026e-05
1.167845e-05
-9.687137e-05
6.41959e-05
-5.251745e-05
-9.176702e-05
0.0001559629
-1.893872e-05
-7.282829e-05
0.0002328706
-0.0002518093
6.642809e-05
0.0001664425
-0.0001990165
0.0002654446
0.0008829266
-0.001081943
0.001535997
-0.0006530701
-0.002868895
0.004404892
-0.003089168
0.0002202722
-0.002785261
-0.0003039067
-0.002636994
-0.0001482672
-0.002499605
-0.0001373887
-0.002393222
-0.000106383
-0.002295233
-9.798855e-05
-0.002209736
-8.549758e-05
-0.002072024
-0.0001377114
-0.00201178
-6.02446e-05
-0.001965778
-4.600165e-05
-0.001923521
-4.225748e-05
-0.001886887
-3.663326e-05
-0.001850558
-3.632917e-05
-0.001815342
-3.521623e-05
-0.001781211
-3.413124e-05
-0.001751452
-2.975913e-05
-0.001724284
-2.716808e-05
-0.001697692
-2.6592e-05
-0.001670594
-2.709791e-05
-0.001645489
-2.510448e-05
-0.00162088
-2.460952e-05
-0.001598129
-2.27511e-05
-0.001578772
-1.935693e-05
-0.001557824
-2.094735e-05
-0.001535567
-2.225758e-05
-0.001511977
-2.359003e-05
-0.00149011
-2.186654e-05
-0.00147107
-1.90399e-05
-0.001454542
-1.652799e-05
-0.001436212
-1.833079e-05
-0.00141712
-1.909123e-05
-0.001395399
-2.17209e-05
-0.001377315
-1.808402e-05
-0.001361276
-1.603893e-05
-0.001343175
-1.810176e-05
-0.001324011
-1.916407e-05
-0.001303214
-2.079702e-05
-0.001284483
-1.873085e-05
-0.001266687
-1.779588e-05
-0.001293065
2.637865e-05
-0.00128586
-7.205141e-06
-0.001273797
-1.206317e-05
-0.001261043
-1.27543e-05
-0.00125009
-1.095327e-05
-0.001238136
-1.195393e-05
-0.001227378
-1.075757e-05
-0.001217787
-9.590955e-06
-0.001208305
-9.481886e-06
-0.001195331
-1.297462e-05
-0.001181143
-1.418784e-05
-0.001169387
-1.175563e-05
-0.001159419
-9.968174e-06
-0.001151155
-8.263944e-06
-0.001138669
-1.248555e-05
-0.00112186
-1.6809e-05
-0.001106165
-1.569598e-05
-0.001091365
-1.479943e-05
-0.001073026
-1.833945e-05
-0.001055463
-1.75626e-05
-0.001035675
-1.978768e-05
-0.001013479
-2.219648e-05
-0.0009908089
-2.266996e-05
-0.0009683531
-2.245579e-05
-0.0009338938
-3.44593e-05
-0.0008966887
-3.720515e-05
-0.0008760323
-2.065636e-05
-0.0008580334
-1.799887e-05
-0.0008338005
-2.423293e-05
-0.0005448195
-0.000288981
0.0005603494
-0.001105169
0.001757829
-0.00119748
0.0001991336
0.001558695
-0.0004162679
0.0006154014
-0.0003515686
-6.469927e-05
1.235604e-05
-0.0003639247
0.0004289312
-0.0004165752
0.0007534061
-0.0003244749
0.0009644459
-0.0002110398
0.00109397
-0.0001295237
0.001177446
-8.347665e-05
0.001245326
-6.787936e-05
0.001301108
-5.578197e-05
0.001345969
-4.486186e-05
0.001379014
-3.304425e-05
0.001407111
-2.809698e-05
0.001431731
-2.461994e-05
0.001456611
-2.488035e-05
0.001479656
-2.304555e-05
0.001498316
-1.865985e-05
0.00151552
-1.720324e-05
0.001535228
-1.97089e-05
0.001553374
-1.814549e-05
0.001569785
-1.641103e-05
0.001588768
-1.898315e-05
0.001604904
-1.613551e-05
0.001624333
-1.942924e-05
0.001646797
-2.246396e-05
0.001666166
-1.936868e-05
0.001681987
-1.582127e-05
0.001699277
-1.728992e-05
0.001718364
-1.908731e-05
0.001731822
-1.345836e-05
0.001695187
3.663581e-05
0.001720421
-2.523455e-05
0.001751643
-3.122183e-05
0.001782859
-3.12162e-05
0.001814054
-3.119472e-05
0.001847095
-3.304113e-05
0.001878199
-3.11043e-05
0.001906208
-2.800862e-05
0.001936405
-3.019725e-05
0.001970342
-3.393705e-05
0.002007182
-3.683987e-05
0.002038453
-3.127119e-05
0.002068154
-2.970061e-05
0.002099914
-3.176003e-05
0.002134128
-3.421406e-05
0.002168891
-3.476279e-05
0.002208038
-3.914697e-05
0.002248483
-4.044515e-05
0.00228863
-4.014736e-05
0.002329666
-4.103624e-05
0.002367449
-3.778292e-05
0.002412987
-4.553749e-05
0.002460378
-4.739106e-05
0.002509756
-4.937781e-05
0.002562422
-5.266666e-05
0.002616733
-5.431089e-05
0.002676849
-6.011615e-05
0.002743012
-6.6163e-05
0.00280993
-6.691719e-05
0.002882569
-7.263949e-05
0.002965949
-8.337962e-05
0.003066603
-0.0001006547
0.003273842
-0.0002072387
0.00341662
-0.0001427775
0.00357863
-0.00016201
0.003759145
-0.0001805156
0.003990834
-0.0002316887
0.004221067
-0.0002302331
0.004785164
-0.0005640972
0.0001549283
0.0004390837
-0.001868456
0.002988068
-0.0002682468
0.001322732
-2.404009e-05
-0.000308906
0.0004943692
-0.0008823339
0.001015985
-0.0009381906
0.001422534
-0.0007310244
0.001727203
-0.0005157082
0.001956677
-0.0003589979
0.002136303
-0.0002631031
0.002292168
-0.0002237444
0.002428683
-0.0001922967
0.002550143
-0.0001663219
0.00265614
-0.0001390412
0.002753876
-0.0001258327
0.002843389
-0.0001141329
0.00292965
-0.0001111414
0.003010779
-0.0001041746
0.003086273
-9.415359e-05
0.003157236
-8.816646e-05
0.003227654
-9.012735e-05
0.003294762
-8.525323e-05
0.003358393
-8.004227e-05
0.003422535
-8.312534e-05
0.003482405
-7.600524e-05
0.003543541
-8.056473e-05
0.003604942
-8.386568e-05
0.003664519
-7.894526e-05
0.003719695
-7.099763e-05
0.003775901
-7.349521e-05
0.003831553
-7.473952e-05
0.00388449
-6.639565e-05
0.003849456
7.167001e-05
0.003913032
-8.881057e-05
0.003979504
-9.76943e-05
0.004045793
-9.750456e-05
0.004111826
-9.722795e-05
0.004178283
-9.949792e-05
0.004243899
-9.672078e-05
0.004306077
-9.018663e-05
0.00437022
-9.434028e-05
0.004434903
-9.861962e-05
0.004503119
-0.0001050562
0.004566162
-9.431357e-05
0.004629243
-9.278235e-05
0.004692252
-9.476885e-05
0.004757435
-9.939709e-05
0.00482214
-9.94672e-05
0.004890229
-0.0001072361
0.004959507
-0.0001097238
0.005028477
-0.000109117
0.005099215
-0.0001117743
0.005166557
-0.000105125
0.005240603
-0.0001195833
0.005314319
-0.0001211076
0.005391434
-0.0001264928
0.005469456
-0.0001306878
0.005550396
-0.0001352513
0.005634445
-0.0001441651
0.005724345
-0.0001560627
0.005814355
-0.0001569274
0.005909975
-0.0001682601
0.006013578
-0.0001869823
0.006132029
-0.0002191057
0.006418945
-0.0004941545
0.006580222
-0.0003040545
0.006764822
-0.0003466099
0.006963624
-0.000379318
0.00722422
-0.0004922846
0.007443023
-0.0004490357
0.00808433
-0.001205405
0.007217166
0.001022092
-0.005772469
0.004867085
0.001125656
-0.005391705
-0.0006846714
-0.005259316
-0.0002806562
-0.005094364
-0.0003023409
-0.004969722
-0.0002310249
-0.004850014
-0.0002176956
-0.004745683
-0.0001898293
-0.004542969
-0.0003404248
-0.004467779
-0.0001354351
-0.004404271
-0.0001095099
-0.004343122
-0.0001034059
-0.004286865
-9.289029e-05
-0.004230295
-9.289987e-05
-0.004175813
-8.969781e-05
-0.004121231
-8.87129e-05
-0.004070954
-8.003663e-05
-0.004021008
-7.711356e-05
-0.003972922
-7.467879e-05
-0.003923383
-7.663689e-05
-0.003876303
-7.218387e-05
-0.003828717
-7.219531e-05
-0.003782823
-6.864596e-05
-0.003738684
-6.349514e-05
-0.003693453
-6.617828e-05
-0.003647856
-6.785507e-05
-0.003601074
-7.03721e-05
-0.003556058
-6.688259e-05
-0.003511629
-6.346832e-05
-0.003469283
-5.887449e-05
-0.003424105
-6.350875e-05
-0.003379575
-6.362129e-05
-0.003331975
-6.932063e-05
-0.003287212
-6.284703e-05
-0.003242187
-6.106439e-05
-0.003195682
-6.460669e-05
-0.003147733
-6.711241e-05
-0.003098539
-6.9991e-05
-0.003050579
-6.669119e-05
-0.003002669
-6.570594e-05
-0.003029488
5.319732e-05
-0.002990194
-4.64992e-05
-0.002948125
-5.413194e-05
-0.002904352
-5.652667e-05
-0.002861822
-5.348398e-05
-0.002816612
-5.716398e-05
-0.002771739
-5.563027e-05
-0.00272538
-5.595011e-05
-0.002678014
-5.684756e-05
-0.002626606
-6.4383e-05
-0.002573491
-6.730218e-05
-0.002520082
-6.516485e-05
-0.002465103
-6.494733e-05
-0.002408597
-6.477e-05
-0.002346122
-7.496018e-05
-0.002278779
-8.415211e-05
-0.002209048
-8.542702e-05
-0.002136712
-8.713548e-05
-0.002057204
-9.784798e-05
-0.00197446
-0.0001003063
-0.001883887
-0.0001103606
-0.001785262
-0.0001208214
-0.001677858
-0.0001300738
-0.001561131
-0.0001391833
-0.001421317
-0.0001742733
-0.001262535
-0.0001959869
-0.001094329
-0.0001888622
-0.0008985322
-0.0002137959
-0.0006689553
-0.0002538098
-0.0002900262
-0.0006679101
0.0006748604
-0.002070055
-0.002391076
-0.0008735929
-0.0005688139
0.002435546
-0.0002076235
-0.001330948
0.0002983032
-0.0009308006
0.0002772264
7.146867e-05
-0.0007628821
0.001222444
-0.002462886
0.002528078
-0.003398129
0.002085171
-0.00326666
0.0002500116
-0.002788128
-0.0007366143
-0.002136309
-0.001159457
-0.001333319
-0.00142418
-0.0003627265
-0.001763122
0.0008259525
-0.002133855
0.001765763
-0.001619382
0.002283666
-0.0008383147
0.002559324
-0.0004074456
0.002669374
-0.0001121671
0.00271119
1.920847e-06
0.002729853
5.299095e-05
0.002719115
0.000177904
0.002585765
0.000522151
0.002063057
0.00116814
0.001155701
0.001440757
0.0004650958
0.0006402523
-2.021835e-05
0.0003803957
-0.0006657155
0.001115056
-0.001182533
0.001102716
-0.0009509685
-0.0002642533
-0.0003205398
-0.001079665
0.0003022653
-0.001020913
0.0006234641
-0.0005533661
0.0005344567
5.759275e-05
3.890228e-05
0.0007083269
-0.0003356957
0.0006117265
-0.0003827818
0.0001237377
-0.0003733987
3.430404e-05
-0.0001289311
-0.0003819662
5.560561e-05
-0.0002717437
7.148252e-05
-1.512273e-06
2.653578e-05
6.074701e-05
0.0001226893
-0.0001930249
8.096335e-05
-1.079148e-05
-0.0001624372
0.0003993634
1.751649e-05
-0.000252782
0.00041492
-0.0006492128
0.0004765735
0.000104789
0.0005628632
0.0001791549
0.00150825
-0.00202733
0.0009407211
-8.554142e-05
0.0102127
-0.002772902
-0.0003451817
0.00533214
-0.002949254
-7.361385e-05
-0.002560724
-0.0009810896
-0.001659003
-0.001685468
-0.000885334
-0.001399526
-0.0005334999
-0.0007300279
-0.00017058
-0.0007340028
0.000515151
-0.001400947
0.001699256
-0.002257816
0.002883997
-0.001641352
0.002254344
0.002347365
-0.0002063108
0.004863782
-0.001381986
0.001104608
-0.0006803108
-0.002083856
-0.0001589573
-0.001638218
0.0005624555
-0.001154544
0.00112769
-0.0002147084
0.0006590353
0.001055425
-0.0007365895
0.00164866
-0.002094116
0.001521997
-0.003165076
0.001408331
-0.004031169
0.001321908
-0.004701676
0.001125836
-0.005198969
0.0008951162
-0.005564504
0.0006997807
-0.005836529
0.0005519182
-0.006043912
0.0004473845
-0.006203075
0.0003660627
-0.006324412
0.0003004874
-0.006417856
0.0002530269
-0.006488944
0.0002138053
-0.006537763
0.0001696305
-0.006566639
0.0001257026
-0.0064514
-0.0001128022
-0.006474632
0.0001027013
-0.006494499
0.0001099931
-0.006501799
8.662179e-05
-0.006495893
6.00082e-05
-0.006481839
4.534743e-05
-0.006455935
2.072013e-05
-0.00641641
-9.64989e-06
-0.006371557
-1.973243e-05
-0.006318367
-3.654056e-05
-0.006255907
-5.725742e-05
-0.006184658
-7.584514e-05
-0.006104111
-9.311094e-05
-0.006019597
-9.807002e-05
-0.005927054
-0.0001121227
-0.005826059
-0.0001279775
-0.005716476
-0.0001446676
-0.005598833
-0.0001601962
-0.00547559
-0.000170365
-0.005345959
-0.0001820194
-0.005212674
-0.000188191
-0.005068174
-0.0002109469
-0.004919071
-0.000219863
-0.004766767
-0.0002256464
-0.004607394
-0.0002406112
-0.004441018
-0.0002568826
-0.004269938
-0.000268867
-0.004103891
-0.0002604041
-0.003936744
-0.0002647772
-0.003772825
-0.0002602173
-0.003614185
-0.0002500438
-0.003452571
-0.0002554586
-0.003289652
-0.0002559005
-0.003198482
-0.0001331354
-0.003041095
-0.0002457231
-0.00287915
-0.000253343
-0.002713446
-0.0002582928
-0.002541667
-0.000267242
-0.00236148
-0.0002807977
-0.002169617
-0.0003023098
-0.001971376
-0.0003152455
-0.001774389
-0.0003139878
-0.001577901
-0.000314007
-0.001375642
-0.0003250839
-0.001165005
-0.00034152
-0.0009661958
-0.0003182354
-0.0007544899
-0.0003430867
-0.000548669
-0.0003342473
-0.0003517518
-0.0003160609
-0.0001307625
-0.0003622221
6.242582e-05
-0.0003097081
0.000259809
-0.0003183424
0.0004528011
-0.0003120412
0.0006430621
-0.000307374
0.0008299792
-0.0003021988
0.001010669
-0.0002900079
0.00118315
-0.0002737358
0.00134525
-0.000252538
0.001495729
-0.0002288985
0.001633195
-0.0002025434
0.001755433
-0.0001715973
0.001858156
-0.0001308533
0.001938306
-7.989772e-05
0.001977347
2.118976e-05
0.001959333
0.0001399325
0.001516807
0.0007330466
0.001262421
-0.0009619913
0.0149442
-0.002119419
-4.084174e-05
-0.001464308
-0.001793772
-0.002118065
0.002133533
-0.001653775
-0.0005497196
-0.0008334673
-0.001524047
-0.0006732871
-0.0002199578
-0.0002647296
-0.0006791434
9.661381e-05
-0.0006152894
0.0003149619
-0.0003360069
0.0003328487
3.346281e-05
0.000178606
0.0002510689
6.825271e-05
0.0001014581
0.0001853039
-0.0002287595
0.0003314204
-0.0002181791
0.0004048575
-0.0001031822
0.0005019437
-0.0001499652
0.0006670235
-0.0002761726
0.0009435603
-0.0004895783
0.001247259
-0.0004588218
0.001055785
0.000517969
0.000208061
0.001443373
-0.0004573821
0.0007980258
-0.0006888196
0.0002356709
-0.0005349056
-5.223167e-05
0.0003660301
-0.001484057
0.001009883
-0.001178109
0.001045688
8.896277e-05
0.0007734714
0.0006452916
0.0007319316
0.0001215034
0.0009734373
-0.000533251
0.0009536292
-5.285716e-05
7.15211e-05
0.001056388
-0.001791198
0.002358913
-0.003352632
0.002610839
-0.003867559
0.001461393
-0.003774238
0.0003269464
-0.003525032
-0.0002323562
-0.003226386
-0.000454695
-0.00288327
-0.0005452244
-0.002513765
-0.0005944464
-0.002088851
-0.0006832679
-0.001418992
-0.001094191
-6.564598e-05
-0.002471982
0.001095435
-0.002138346
0.001980991
-0.001632884
0.002572082
-0.001066398
0.002992666
-0.0006527426
0.002582093
0.001218334
0.003770131
0.0007454538
-0.009320797
0.02351955
-0.002428567
0.003133179
-0.002427349
-0.001794989
-0.002790981
0.002497165
-0.002047574
-0.001293126
-0.001071573
-0.002500049
-0.0008351924
-0.0004563382
-0.0003680115
-0.001146324
6.056751e-05
-0.001043868
0.0003318165
-0.0006072559
0.0004046368
-3.935749e-05
0.0002636104
0.0003920953
8.876037e-05
0.0002763081
0.0001767849
-0.000316784
0.000335093
-0.0003764872
0.0004124928
-0.0001805821
0.0005325035
-0.0002699758
0.0007429648
-0.0004866339
0.001074301
-0.0008209141
0.001425941
-0.0008104619
0.001374686
0.0005692234
0.0005338147
0.002284244
-0.0005440839
0.001875924
-0.0009929698
0.0006845568
-0.0005999304
-0.0004452711
0.0004849121
-0.002568899
0.001132275
-0.001825472
0.001181521
3.9717e-05
0.001013149
0.0008136636
0.001118783
1.586949e-05
0.001290061
-0.0007045287
0.000560521
0.0006766825
-0.001547596
0.003164505
-0.003870559
0.004681876
-0.004852173
0.003592453
-0.0048392
0.001448421
-0.004651109
0.0001388547
-0.00437772
-0.0005057452
-0.003996966
-0.0008354487
-0.003571496
-0.0009706941
-0.003119819
-0.001046124
-0.002579606
-0.001223481
-0.001657281
-0.002016516
3.720206e-05
-0.004166466
0.001474296
-0.00357544
0.002556664
-0.002715251
0.003301829
-0.001811563
0.003702642
-0.001053555
0.00323173
0.001689246
0.0006668916
0.00633497
-0.003096483
0.009095514
-0.003702648
0.0005325512
-0.00350431
-0.001179428
-0.002790934
-0.002398844
-0.002148678
-0.002041782
-0.001922586
-0.0009561203
-0.001608294
-0.001048294
-0.0007006843
-0.002308557
0.0006846679
-0.003643168
0.001945
-0.002901684
0.002030479
0.002261886
0.0002928902
0.006601371
-0.001883835
0.003281333
-0.002810398
-0.001157293
-0.003043128
-0.001405488
-0.002566233
-0.001631439
-0.002398169
-0.000382772
-0.00322057
0.001877826
-0.004825915
0.003254004
-0.006215832
0.002911914
-0.007106384
0.002298883
-0.007662827
0.00187835
-0.008009165
0.001472174
-0.008224664
0.001110615
-0.008360244
0.0008353613
-0.008445442
0.0006371162
-0.008498674
0.0005006156
-0.008529003
0.0003963921
-0.008542057
0.0003135416
-0.008543483
0.0002544526
-0.008536356
0.0002066788
-0.008521281
0.0001545546
-0.008503219
0.0001076408
-0.008321941
-0.0002940797
-0.008310404
9.116379e-05
-0.008287038
8.662706e-05
-0.008255634
5.521833e-05
-0.008213883
1.82568e-05
-0.008167118
-1.417663e-06
-0.008110861
-3.553712e-05
-0.008041557
-7.895341e-05
-0.007967444
-9.384576e-05
-0.007883559
-0.0001204249
-0.007788656
-0.000152161
-0.007683917
-0.0001805835
-0.007568734
-0.0002082939
-0.007449568
-0.0002172368
-0.007321539
-0.0002401517
-0.007184606
-0.00026491
-0.007038714
-0.00029056
-0.006884235
-0.0003146749
-0.006724149
-0.0003304514
-0.006556852
-0.0003493161
-0.006386269
-0.0003587738
-0.006203094
-0.0003941223
-0.006015362
-0.0004075946
-0.005824545
-0.0004164639
-0.005626125
-0.0004390309
-0.005420887
-0.0004621205
-0.005210999
-0.0004787548
-0.00500826
-0.0004631438
-0.004804738
-0.0004682983
-0.00460542
-0.0004595354
-0.004412391
-0.0004430728
-0.004215275
-0.0004525748
-0.00401493
-0.000456246
-0.003901793
-0.0002462717
-0.003705526
-0.0004419901
-0.003506335
-0.0004525339
-0.003302622
-0.0004620062
-0.003091353
-0.0004785108
-0.002869663
-0.0005024879
-0.002633755
-0.0005382177
-0.002390472
-0.0005585283
-0.002149037
-0.0005554236
-0.001907598
-0.0005554454
-0.001659299
-0.0005733829
-0.001401271
-0.0005995485
-0.00115797
-0.0005615359
-0.0008979388
-0.000603118
-0.0006460028
-0.0005861832
-0.0004032068
-0.0005588569
-0.000131289
-0.00063414
0.0001079818
-0.0005489788
0.0003531605
-0.0005635211
0.0005931479
-0.0005520286
0.0008309949
-0.000545221
0.001065312
-0.0005365159
0.001292244
-0.0005169396
0.001510514
-0.0004920063
0.001717457
-0.0004594806
0.001911593
-0.000423035
0.002091248
-0.0003821982
0.002253928
-0.0003342776
0.002394831
-0.0002717563
0.002512182
-0.0001972482
0.002584185
-5.081366e-05
0.00262524
9.887769e-05
0.002226361
0.001131926
0.0009888826
0.002499899
-0.0007535728
0.004178002
-0.0001899649
-0.001894556
0.0003592766
-0.001480042
-4.032182e-05
0.0004710671
-0.001941503
0.003123626
-0.003790558
0.004377132
-0.004285461
0.002580074
-0.004032972
-2.4778e-06
-0.003527016
-0.001242571
-0.002717719
-0.001968754
-0.00174783
-0.002394069
-0.0005905445
-0.002920407
0.00085508
-0.003579479
0.002066397
-0.002830699
0.002755375
-0.001527292
0.003120781
-0.0007728521
0.003262771
-0.0002541567
0.003319705
-5.501359e-05
0.00334498
2.771587e-05
0.003334355
0.000188529
0.003322548
0.000533958
0.003153097
0.001337591
0.002440242
0.002153612
0.001279663
0.001800831
8.966009e-05
0.001570399
-0.0007761584
0.001980874
-0.001252917
0.001579474
-0.0009965366
-0.0005206334
-0.0002752098
-0.001800991
0.0004815532
-0.001777676
0.0008670049
-0.0009388178
0.00064923
0.0002753676
-1.445097e-05
0.001372008
-0.0003914078
0.0009886833
-0.0004011064
0.0001334363
-0.0003919015
2.509916e-05
-0.0001185102
-0.0006553575
0.0001314206
-0.0005216745
0.0002286572
-9.874894e-05
0.0001890125
0.0001003917
0.0002234835
-0.0002274959
7.192678e-05
0.0001407653
-0.0001665411
0.0006378313
0.0001180528
-0.0005373759
0.0005492027
-0.001080363
0.0007198065
-6.58148e-05
0.001149293
-0.0002503313
0.001856763
-0.0027348
-0.0002376164
0.002008838
-0.006552658
0.01652774
-0.007528822
0.002101819
-0.007119902
-0.001093591
-0.006974856
-0.0004257018
-0.006793546
-0.000483651
-0.006658196
-0.0003663751
-0.006527471
-0.000348421
-0.00641647
-0.0003008299
-0.006177929
-0.0005789663
-0.0060963
-0.0002170634
-0.006021
-0.0001848106
-0.005947606
-0.0001767996
-0.005878468
-0.0001620281
-0.005808156
-0.0001632123
-0.005740069
-0.0001577845
-0.005670886
-0.0001578959
-0.005605783
-0.0001451393
-0.005539701
-0.0001431955
-0.00547571
-0.0001386698
-0.005409445
-0.0001429018
-0.005345741
-0.0001358882
-0.005280692
-0.0001372444
-0.005217003
-0.0001323345
-0.00515446
-0.0001260385
-0.005090583
-0.0001300557
-0.005026655
-0.0001317827
-0.004961238
-0.0001357893
-0.004897417
-0.0001307029
-0.004833
-0.000127886
-0.00477045
-0.0001214245
-0.004704146
-0.0001298125
-0.004639174
-0.0001285929
-0.004570295
-0.0001382003
-0.004504136
-0.0001290055
-0.004436588
-0.0001286121
-0.004367316
-0.0001338788
-0.004296419
-0.0001380094
-0.00422378
-0.0001426298
-0.004151085
-0.000139387
-0.004076145
-0.0001406455
-0.004091022
6.807447e-05
-0.004021666
-0.0001158559
-0.003955694
-0.0001201038
-0.003886466
-0.0001257544
-0.003818726
-0.0001212239
-0.003747268
-0.0001286219
-0.003676021
-0.0001268771
-0.003602416
-0.000129555
-0.003527575
-0.0001316888
-0.003448071
-0.0001438868
-0.003366664
-0.0001487097
-0.003284457
-0.0001473722
-0.003199662
-0.0001497415
-0.00311273
-0.0001517021
-0.003018977
-0.0001687135
-0.002919817
-0.0001833124
-0.002817913
-0.0001873304
-0.002712549
-0.0001924997
-0.002598262
-0.0002121345
-0.00248017
-0.0002183986
-0.002352387
-0.0002381434
-0.002214985
-0.0002582235
-0.0020661
-0.0002789592
-0.001904455
-0.0003008283
-0.001712077
-0.0003666509
-0.001493513
-0.0004145515
-0.0012568
-0.000425575
-0.0009637254
-0.0005068704
-0.0005889152
-0.0006286201
-9.195129e-05
-0.001164874
0.000937958
-0.003099965
0.002287674
-0.003740792
0.001289807
0.003985935
0.0005021507
0.002110389
0.0006004036
-0.0004071589
0.001222772
-0.001504703
0.001810376
-0.001525794
0.002262623
-0.001183272
0.002603049
-0.0008561342
0.002859801
-0.00061575
0.003060649
-0.0004639508
0.003237106
-0.0004002019
0.00339449
-0.0003496799
0.003537929
-0.0003097614
0.003665449
-0.0002665609
0.003785189
-0.0002455727
0.0038964
-0.0002253436
0.004005148
-0.0002198903
0.004109169
-0.000208195
0.004207739
-0.0001927239
0.004301607
-0.0001820344
0.004395328
-0.0001838479
0.00448583
-0.0001757559
0.004572567
-0.0001667788
0.004660429
-0.0001709878
0.004743112
-0.0001586881
0.004827195
-0.0001646475
0.004911223
-0.0001678939
0.004993835
-0.0001615574
0.005071567
-0.0001487297
0.005150735
-0.0001526629
0.005228114
-0.0001521185
0.005308924
-0.0001472058
0.00527675
0.0001038438
0.005366648
-0.0001787078
0.005457361
-0.0001884072
0.005546383
-0.0001865273
0.005634557
-0.0001854016
0.005722587
-0.0001875281
0.005809922
-0.0001840557
0.005893149
-0.0001734134
0.005978261
-0.0001794524
0.006062435
-0.0001827938
0.006150717
-0.0001933382
0.006233168
-0.000176764
0.006316177
-0.0001757917
0.00639824
-0.0001768323
0.006482396
-0.0001835532
0.006565231
-0.0001823013
0.00665122
-0.0001932254
0.00673807
-0.0001965736
0.006824233
-0.0001952803
0.006912734
-0.0002002758
0.006996723
-0.0001891133
0.007087736
-0.0002105962
0.007176933
-0.0002103048
0.007269872
-0.0002194322
0.007362747
-0.0002235622
0.007458419
-0.0002309238
0.007556186
-0.0002419319
0.007659651
-0.0002595275
0.007762445
-0.0002597219
0.007870391
-0.0002762059
0.007986168
-0.0003027595
0.008113051
-0.0003459886
0.008445138
-0.0008262417
0.008615047
-0.0004739629
0.008814237
-0.0005457998
0.009030691
-0.0005957727
0.009317638
-0.0007792314
0.009581207
-0.0007126046
0.01023526
-0.001859463
0.00193656
0.002463253
-0.002757622
0.004280304
0.002061809
0.002511833
0.001961155
-0.000306505
0.002344029
-0.001887576
0.00282437
-0.002006135
0.003239461
-0.001598363
0.003567371
-0.001184044
0.003824882
-0.0008732608
0.004033505
-0.000672574
0.00422319
-0.0005898877
0.004395873
-0.0005223623
0.00455624
-0.0004701285
0.004700985
-0.0004113056
0.004838491
-0.0003830794
0.004967354
-0.0003542061
0.005093844
-0.0003463802
0.00521592
-0.0003302718
0.005331849
-0.0003086521
0.005442992
-0.0002931782
0.005553955
-0.0002948102
0.005661364
-0.0002831654
0.005764494
-0.0002699088
0.005869289
-0.0002757831
0.005967692
-0.0002570906
0.006067923
-0.0002648789
0.006168149
-0.0002681198
0.006266483
-0.0002598909
0.006359638
-0.0002418846
0.00645423
-0.0002472554
0.006546739
-0.0002446271
0.006644905
-0.0002453717
0.006603826
0.0001449221
0.006710066
-0.0002849472
0.006819092
-0.0002974333
0.006924916
-0.0002923519
0.007029686
-0.0002901717
0.00713422
-0.000292062
0.007237658
-0.0002874938
0.00733627
-0.0002720246
0.007436879
-0.0002800616
0.007536158
-0.0002820726
0.007640169
-0.0002973495
0.007737205
-0.0002738006
0.00783503
-0.0002736164
0.007931753
-0.0002735546
0.008030606
-0.0002824063
0.008127788
-0.0002794832
0.008228746
-0.000294184
0.008330413
-0.0002982402
0.00843134
-0.0002962077
0.008535192
-0.000304128
0.008633196
-0.0002871175
0.008740063
-0.0003174625
0.008843871
-0.0003141131
0.00895204
-0.0003276011
0.00906025
-0.0003317721
0.009170899
-0.000341573
0.009284443
-0.000355476
0.009403939
-0.0003790234
0.009522344
-0.0003781269
0.009646532
-0.0004003936
0.009780101
-0.0004363289
0.01013251
-0.0006983935
0.01031651
-0.001010243
0.01050932
-0.0006667752
0.01073961
-0.0007760888
0.01099793
-0.0008540894
0.01133326
-0.001114569
0.01169812
-0.001077464
0.01229451
-0.002455848
0.01156743
0.002663636
-0.00906451
0.008242461
0.002923869
-0.008684697
-0.001473405
-0.008482572
-0.0006278271
-0.008271229
-0.000694994
-0.008109698
-0.0005279061
-0.007956801
-0.0005013176
-0.007829706
-0.0004279253
-0.007705304
-0.0007033683
-0.007451789
-0.0004705785
-0.007362309
-0.0002742902
-0.007274461
-0.0002646471
-0.00719137
-0.0002451193
-0.007106604
-0.000247978
-0.007024192
-0.0002401967
-0.006940305