/*--------------------------------*- C++ -*----------------------------------*\
| =========                 |                                                 |
| \\      /  F ield         | OpenFOAM: The Open Source CFD Toolbox           |
|  \\    /   O peration     | Version:  2406                                  |
|   \\  /    A nd           | Website:  www.openfoam.com                      |
|    \\/     M anipulation  |                                                 |
\*---------------------------------------------------------------------------*/
FoamFile
{
    version     2.0;
    format      ascii;
    arch        "LSB;label=32;scalar=64";
    class       volScalarField;
    location    "0.44";
    object      p;
}
// * * * * * * * * * * * * * * * * * * * * * * * * * * * * * * * * * * * * * //

dimensions      [0 2 -2 0 0 0 0];

internalField   nonuniform List<scalar> 
4529
(
-1.967831e-06
-2.30508e-06
-1.323258e-06
-5.468697e-06
-2.571799e-06
-7.838745e-06
-1.515194e-06
-2.879053e-06
-2.630007e-06
-1.318348e-06
1.752329e-06
-1.184512e-06
-3.451512e-07
-9.584433e-07
-1.031663e-06
-3.81412e-07
-2.825177e-06
-1.173537e-06
2.789791e-07
-2.230961e-06
-1.686362e-07
-1.019469e-06
-9.578897e-07
-1.7552e-06
-1.408861e-07
-2.169442e-06
-4.573356e-06
-3.616679e-06
-3.867802e-06
-4.706465e-06
-3.936968e-07
-1.147112e-06
-7.088411e-07
-1.289484e-07
7.371266e-07
-1.914801e-06
-1.674758e-06
-2.083223e-06
-4.842979e-06
-7.925812e-07
-8.202726e-07
-6.506626e-07
-1.512353e-06
-2.107345e-07
3.432476e-08
4.945114e-08
-1.211361e-06
-1.985782e-06
2.719457e-07
-2.398451e-06
-6.036192e-06
-1.551701e-06
-7.286176e-06
-2.783516e-07
-3.343063e-06
-2.972919e-06
-2.385978e-06
2.751889e-06
-6.933317e-06
-8.203704e-06
-3.375164e-06
1.212321e-07
-7.576152e-07
-8.276948e-06
-1.680021e-06
3.131067e-07
-1.843303e-06
-1.007536e-06
-1.606134e-06
2.271263e-06
-1.759342e-06
-2.127884e-06
-3.878171e-06
-6.135269e-07
-9.070907e-06
-5.779455e-06
-4.98689e-07
1.187649e-06
-7.632771e-06
-2.378188e-06
-3.806142e-06
-1.671918e-06
4.798048e-07
-1.9601e-06
-2.039818e-06
-6.384735e-07
-4.897703e-09
4.366138e-07
1.383724e-07
-2.455458e-06
-7.93748e-06
-7.556015e-07
3.584918e-07
-1.386751e-06
-9.570348e-07
-1.270644e-06
-5.866355e-06
-4.209723e-06
-6.093241e-06
-3.113612e-06
-9.80536e-07
-5.292691e-06
-2.125259e-06
-3.868107e-06
-1.199594e-06
3.304357e-07
-7.045742e-06
4.326567e-07
1.027219e-06
-7.851699e-07
-1.638326e-07
-1.177643e-06
-4.773704e-06
-4.492029e-06
-3.965736e-06
-9.268949e-07
-1.695189e-06
-3.143989e-06
-1.475708e-06
-5.557441e-07
-3.052878e-06
-1.983854e-06
-1.114243e-06
-1.839327e-06
-9.589445e-07
-2.621776e-06
-3.205167e-06
2.158257e-07
-7.291528e-07
-4.751095e-06
-1.690642e-06
-3.954904e-06
-9.032764e-06
-4.998542e-07
-6.472977e-07
3.186477e-07
4.637665e-07
-2.886913e-07
-1.536944e-06
-2.43224e-06
-3.497438e-06
-2.583459e-06
-1.062545e-06
-3.602419e-06
-5.285665e-06
-2.957313e-06
-8.879722e-07
-3.346691e-06
-2.825593e-06
-1.724447e-06
-1.8834e-06
-4.113991e-06
-3.755426e-06
-7.497164e-07
-4.694371e-06
-6.184589e-07
-3.453627e-07
-3.194422e-06
-1.266263e-06
-1.272035e-06
7.821522e-07
-4.087322e-07
-5.717009e-06
-4.280976e-06
-1.255833e-07
-4.602767e-08
-2.145451e-07
-2.398366e-06
-3.930141e-06
-2.144389e-06
-6.608869e-06
-1.549767e-06
-9.359439e-06
1.218859e-07
-5.264023e-07
-3.230692e-06
-2.277826e-06
-8.634485e-06
-9.407057e-06
6.052493e-07
2.333887e-07
-2.744544e-06
-1.711552e-06
-1.810105e-06
1.933275e-06
-1.000597e-05
-2.385284e-06
-6.810174e-07
-5.25865e-06
-8.389048e-07
-2.053358e-06
-7.490208e-06
1.04711e-06
-4.296105e-06
-1.63399e-06
3.047623e-07
2.364715e-07
-4.910499e-06
1.655336e-06
-1.244725e-07
-1.352823e-06
1.005874e-06
-1.484524e-06
-7.410625e-06
-8.958075e-07
-2.011685e-06
-5.971952e-06
-2.332355e-06
-2.914357e-06
-8.217807e-06
-1.40503e-07
-2.993402e-06
-1.054323e-06
-4.841111e-06
-2.396903e-06
-2.766217e-06
-1.855394e-06
-1.035321e-06
-2.165344e-06
5.444276e-06
-2.807557e-06
-3.583959e-07
-2.409875e-06
-5.96913e-07
-1.368077e-06
9.365899e-07
-8.29523e-07
-2.592571e-06
-6.817156e-06
-8.2101e-07
-5.313559e-06
-7.766839e-06
-1.170154e-05
-6.124346e-07
-2.910701e-06
-3.378974e-06
-2.424674e-06
-4.68248e-06
1.004413e-07
-1.611905e-06
-2.636821e-06
-4.540589e-09
-5.222888e-07
-6.025616e-06
1.572313e-06
-3.3456e-06
-7.925567e-06
-9.743234e-07
-1.62525e-06
1.661053e-07
-5.856664e-06
8.617801e-07
-2.965491e-06
3.146025e-06
-1.912858e-07
-1.484626e-06
-4.2566e-06
-6.619667e-06
-5.10789e-06
-1.070758e-06
1.072208e-06
-6.942228e-07
-1.063071e-06
-1.227821e-06
-1.394993e-06
-5.511908e-06
-1.597289e-06
-4.992961e-06
-2.891916e-06
-5.731939e-07
-2.138483e-06
-4.586882e-07
-1.296651e-06
-4.65965e-06
-6.807254e-06
-2.893278e-07
-3.154787e-07
-7.056482e-08
-5.499824e-06
-1.197453e-05
-1.235929e-06
-1.467781e-06
3.135871e-08
-3.537715e-06
2.240893e-08
-1.48468e-06
-2.2739e-06
-2.691644e-07
-2.849189e-06
-1.180955e-06
-5.016175e-06
-7.36819e-07
-8.764979e-07
-1.531895e-06
-2.326538e-06
-8.489417e-07
-1.107794e-06
-3.125817e-06
-1.106153e-06
-1.904962e-06
-1.125325e-06
-1.591056e-06
-2.76498e-06
2.823503e-06
-1.843137e-06
-3.065993e-06
-4.696684e-06
-9.532158e-07
-3.317785e-06
-1.146802e-06
-8.867781e-07
-2.070976e-06
4.449215e-07
-1.516745e-06
-3.427889e-06
-1.691777e-06
-1.545205e-06
-1.181831e-06
-7.785621e-06
9.81729e-07
-1.012828e-06
1.251748e-06
-2.14867e-06
-3.654312e-06
-1.461546e-06
-3.137198e-06
-3.921764e-06
-3.581336e-07
-7.256489e-07
-4.230514e-07
-1.410524e-07
-5.542027e-07
-4.502614e-07
-7.342609e-07
-3.591406e-07
-4.578927e-06
-3.831822e-06
-2.912805e-06
-3.458186e-07
-8.285811e-07
-9.284262e-07
-4.182382e-06
1.836098e-06
-4.779017e-06
-5.018205e-06
6.722794e-07
-1.759095e-06
-6.257899e-06
-4.602709e-06
-1.34785e-06
-1.229055e-06
1.871793e-06
-1.388028e-06
-1.459326e-06
-3.393366e-07
-3.192617e-06
-4.311485e-06
3.41411e-06
-1.699331e-06
-9.108396e-07
-5.648903e-07
-1.063539e-06
-2.528472e-06
-7.384063e-07
-3.441419e-07
-3.806974e-07
-3.632522e-07
-2.724433e-06
-1.543193e-06
-2.819256e-06
-1.134324e-07
-7.712713e-07
-2.336806e-06
6.874603e-07
-1.629098e-06
-2.614184e-07
7.866522e-07
-6.63577e-06
-9.255893e-06
-2.222343e-06
-9.222237e-07
-2.834097e-08
4.949543e-07
-1.478807e-07
-1.018274e-06
-1.668602e-07
-5.066209e-06
1.755596e-06
-2.729025e-06
-4.901407e-08
-6.747783e-06
4.537705e-07
3.381011e-06
-2.156976e-06
-1.885331e-06
-2.203511e-06
-2.393502e-06
-3.327219e-06
-3.007738e-06
-3.147243e-06
-1.571391e-06
1.063098e-06
-6.264324e-06
-5.813683e-06
-6.08981e-06
-1.083595e-06
-6.148307e-06
-2.335857e-07
6.646927e-07
-1.68876e-06
-2.65004e-06
-1.092252e-06
-4.704259e-06
-1.971496e-06
-2.615122e-07
-1.071457e-06
-6.680732e-07
-2.720349e-06
-4.462896e-07
5.997543e-07
-6.950069e-06
-2.708681e-06
-6.787899e-06
-3.698499e-06
-9.38062e-06
-7.53796e-06
-5.79613e-06
-2.901935e-06
-2.145103e-06
-2.133211e-06
-5.148653e-07
-4.415316e-07
-9.164074e-06
-7.311829e-06
9.344014e-07
-1.158745e-06
5.730818e-07
1.122553e-07
-2.418329e-06
1.294417e-07
-2.299956e-06
-4.760322e-07
-6.077899e-06
-1.505178e-06
-1.372133e-06
-1.391575e-06
4.075218e-07
-1.455111e-06
-1.307528e-06
-2.313054e-06
-3.346252e-06
-2.338428e-06
-2.200545e-06
-1.359434e-06
-1.139316e-06
-5.40753e-06
-9.695312e-07
-4.875248e-06
-1.011399e-06
-9.406864e-07
-1.108949e-07
-1.717036e-06
-1.330461e-06
1.527807e-06
-4.897009e-06
-3.434613e-06
-7.117423e-07
-4.589142e-07
-2.592412e-07
-3.794934e-07
-2.271623e-07
1.37415e-06
-1.994273e-06
-1.467285e-06
-4.125449e-06
-6.879946e-08
-4.317009e-06
-1.28766e-06
7.651156e-08
-9.734724e-07
5.667116e-07
-1.867187e-06
-2.781586e-06
-4.227153e-07
-2.012215e-06
5.095491e-07
-2.667933e-06
2.676368e-07
-1.781467e-06
-4.022108e-06
-1.197021e-05
-2.081009e-06
-2.081531e-06
-3.507658e-07
-1.24959e-06
-2.649949e-06
-2.494316e-06
-3.198357e-06
-1.570865e-06
-4.411933e-06
-2.435099e-06
-6.076823e-07
-2.880677e-06
-4.270253e-06
-1.273697e-06
-7.588451e-07
-3.341349e-07
-3.265541e-07
-3.688445e-07
-5.415803e-07
-3.51352e-07
-6.030011e-07
-3.284144e-06
1.039575e-06
-1.006679e-06
-3.918848e-06
-1.159194e-06
-2.015894e-06
9.77277e-08
-9.336936e-07
-1.16944e-06
-1.287227e-07
-2.154445e-06
-9.938904e-07
-1.152477e-06
-3.763555e-08
-7.674569e-07
-2.149709e-06
4.41062e-07
4.989086e-08
-1.416224e-06
-7.731109e-07
-6.833976e-07
-7.854695e-07
-3.514639e-07
-4.303994e-06
1.241903e-07
1.873485e-07
7.629798e-09
1.724794e-06
-1.045418e-05
-5.447971e-07
1.765476e-06
-5.988547e-07
-3.387048e-06
-1.739836e-07
-1.437548e-06
-2.880263e-06
-1.088114e-06
1.798597e-06
-2.37651e-06
-1.603621e-06
-1.831195e-06
-2.195202e-06
-1.064732e-06
-1.955258e-06
-4.963595e-06
-4.647226e-06
1.247824e-06
-3.381852e-06
2.357691e-08
-1.11845e-06
-3.599915e-06
-6.795149e-06
-3.753773e-06
-5.985465e-07
-1.156787e-06
-4.364863e-06
-3.494194e-06
-6.233708e-06
-9.7618e-07
8.731321e-07
1.3894e-07
-3.439819e-06
-1.92804e-06
-2.357586e-06
-2.154493e-06
-3.748641e-06
-2.725659e-07
-3.763088e-09
-2.399781e-06
-3.927695e-06
-2.604021e-06
-9.924665e-07
-1.292435e-06
-3.084013e-06
-1.146217e-06
-3.525034e-06
-1.51417e-06
-5.908233e-07
5.522656e-07
-3.356197e-06
-1.395796e-06
3.757617e-06
-3.51085e-06
-1.114276e-06
-2.118168e-06
-2.086511e-06
5.92196e-07
1.044345e-06
-2.063519e-07
-1.62282e-06
3.738452e-08
-6.777621e-07
-5.224146e-07
4.409958e-09
8.478849e-08
-1.376443e-06
-5.582667e-10
-2.147045e-06
-6.214042e-06
-1.595136e-06
-1.899884e-06
-9.701255e-07
-1.336047e-06
2.712342e-06
4.179889e-07
2.2119e-08
-5.689756e-06
-8.981155e-07
-6.502814e-07
-3.919228e-06
-4.142999e-06
-4.363869e-07
-4.310495e-06
-4.052649e-07
3.285584e-07
-1.346846e-06
-3.714715e-06
-1.118381e-06
-3.806285e-06
-6.323848e-06
-6.279974e-06
-1.054261e-06
-6.580571e-07
3.444623e-07
6.836311e-07
-1.014239e-06
-1.944018e-06
-1.365006e-06
-8.869398e-07
-7.639478e-08
1.034323e-06
3.172441e-06
-2.706922e-06
-2.27407e-07
-2.640159e-06
-3.795906e-06
-3.542948e-07
-1.656805e-06
1.446365e-07
-4.2445e-06
-3.889789e-06
-6.256184e-06
-1.248426e-06
-1.971555e-06
-1.986275e-07
-5.388052e-06
-8.277855e-07
-9.252281e-06
-1.486807e-06
-2.100974e-06
-5.119215e-06
-1.174786e-06
-4.350506e-06
-3.125241e-06
-2.411621e-06
-1.491306e-06
-9.559602e-06
-1.604553e-06
-1.897145e-06
1.000042e-06
-1.432446e-06
-1.276999e-07
-3.566747e-06
-1.114169e-06
-1.148773e-06
7.401401e-07
-2.884878e-06
-1.533502e-06
-1.118298e-06
-1.352029e-06
-1.565886e-06
-1.512232e-06
6.609395e-07
-1.324203e-07
1.081648e-06
-2.03355e-06
-1.183524e-06
-6.413986e-06
-2.863669e-06
-2.386472e-06
-3.518027e-06
-3.634448e-06
-6.356318e-07
-4.088512e-07
-8.07967e-07
-4.302845e-06
-5.411149e-06
-6.363279e-07
-7.188557e-07
-6.10157e-07
-9.414967e-06
-1.022973e-06
-6.997479e-08
1.945621e-06
-2.358726e-06
-1.710586e-06
-1.538729e-06
-7.346108e-06
-6.564958e-06
-2.020044e-06
-6.524657e-06
-1.025933e-06
-1.763593e-06
-5.191401e-06
-1.112526e-06
-1.684419e-06
-2.570815e-06
-1.628724e-06
-5.561268e-06
-1.152523e-06
-2.529864e-06
-1.288178e-06
-6.192363e-07
-3.844646e-06
1.361797e-06
4.174861e-07
2.813979e-06
-1.667611e-06
-1.613651e-06
-2.407941e-06
-1.765971e-06
-1.165681e-06
-3.000036e-06
-2.620724e-06
-1.539922e-06
-5.741804e-06
-2.230017e-06
-6.554145e-06
-1.801736e-07
-5.824177e-06
-6.11262e-06
-8.021739e-06
-5.335023e-06
-1.876805e-06
-1.152077e-06
-1.449711e-06
-1.346816e-06
-8.835997e-06
-1.386781e-06
-2.065278e-06
-6.460583e-06
-2.305408e-06
-5.224669e-06
-2.499307e-06
-9.579715e-07
-1.043185e-05
-7.897829e-06
-8.923032e-06
-5.093367e-06
-3.924602e-06
4.527293e-08
-7.217346e-06
-9.658803e-07
-5.099409e-06
-6.598295e-06
-1.724867e-06
-4.758813e-06
-4.77356e-06
-3.128161e-06
-5.633454e-06
-7.270716e-06
-2.607369e-06
-1.989577e-06
-1.040605e-06
-1.501262e-07
-4.632216e-07
-3.534878e-06
-4.198784e-06
-9.734578e-06
-2.667142e-06
-8.128467e-07
-1.470916e-06
-7.975707e-07
-1.218999e-06
-6.157136e-06
-2.848929e-06
-1.432971e-06
-9.681462e-07
-2.516421e-06
-1.255768e-06
-4.415222e-06
1.126652e-08
-1.60999e-06
-7.320775e-07
-1.256765e-06
-7.28062e-06
-2.161407e-06
-2.203877e-06
4.56652e-07
-1.206311e-06
-5.397898e-06
-9.625616e-06
-2.961217e-06
-2.072712e-06
-1.209211e-06
-1.796726e-06
-1.260759e-06
1.999098e-08
-8.473707e-07
-1.130269e-06
-3.917534e-07
-1.208507e-06
-1.321832e-06
-2.152055e-06
-1.469191e-06
-1.327988e-06
-3.306595e-06
-3.975243e-07
-8.509955e-07
-5.404334e-06
-1.144918e-05
1.2112e-08
6.822432e-07
-1.672036e-06
-1.26632e-06
-8.097244e-07
-5.258312e-07
-2.677394e-06
-1.177213e-07
-8.407371e-07
-2.613593e-06
-2.74235e-06
-1.59314e-06
1.895914e-07
3.421906e-07
-3.329213e-06
-2.309612e-07
-3.209161e-06
-2.12461e-06
-4.352305e-06
-2.455594e-06
-5.945138e-06
-3.450483e-06
-7.271514e-06
-7.045942e-06
-3.615505e-06
-4.739373e-06
-1.106777e-06
3.811951e-07
7.697085e-07
-1.340061e-06
-1.697554e-06
-1.302502e-06
-2.249481e-06
-1.190061e-06
-1.320788e-06
-1.307278e-06
-1.485672e-06
-3.866655e-06
-2.323454e-06
-3.771464e-07
-1.683826e-06
-7.005254e-07
-1.117651e-06
-7.309263e-06
-4.81422e-06
-4.381532e-06
-6.247143e-06
-5.662035e-06
-3.128273e-06
-2.551509e-06
-7.895488e-06
-3.078477e-06
-6.077351e-06
7.0002e-07
-6.705457e-06
-5.149062e-07
-2.029016e-06
5.502858e-08
-5.246682e-06
-9.784282e-07
-3.650662e-06
-5.469869e-06
-8.488501e-06
-3.310362e-06
-2.626668e-06
-1.951623e-06
-9.317352e-07
-1.243684e-06
-4.24671e-07
-3.650978e-06
-3.794793e-06
-2.248873e-06
-6.800289e-06
-7.407908e-06
-6.497633e-06
-5.364357e-06
-8.775879e-06
-6.528569e-07
-1.330416e-06
-2.42084e-07
-9.258007e-09
-1.838081e-06
-1.530577e-06
-2.55844e-06
-2.039844e-06
-5.213559e-06
-4.215534e-06
-3.840492e-06
-5.419276e-06
-4.787872e-06
-2.924733e-06
-3.71502e-06
-5.546384e-06
-4.04718e-06
1.499521e-08
-6.201175e-08
-4.922116e-06
-6.719215e-06
-8.684451e-06
-6.665417e-06
-2.145968e-06
-2.281369e-06
-8.369899e-06
-9.062319e-06
-9.402662e-06
-2.087239e-06
-8.509094e-08
-4.631705e-06
-5.051496e-06
-9.457537e-07
-1.219004e-06
-1.001767e-06
-3.533362e-06
-6.845169e-06
-4.814061e-06
-4.94759e-06
-4.619502e-06
-4.965666e-06
-6.159171e-06
-5.471076e-06
-7.929654e-08
-5.411296e-06
-6.015822e-06
9.761911e-07
-4.207819e-06
-3.174629e-06
-3.334637e-06
-5.796427e-06
-2.737885e-06
-8.670548e-07
-5.100219e-06
-8.201417e-06
-8.185951e-07
-2.173147e-07
-7.856503e-06
1.14489e-06
-5.16677e-06
-1.190783e-06
-2.320594e-06
-4.641011e-06
-1.805211e-06
-4.320688e-07
-3.464865e-07
-5.591201e-06
-2.822316e-06
-4.568189e-06
-6.593211e-06
-3.599383e-06
-3.937961e-06
-4.077771e-06
-5.26174e-06
-1.247774e-06
-1.92763e-06
-2.166204e-06
-1.817141e-06
-3.928668e-06
-9.603546e-06
-8.276192e-06
-2.820219e-06
-9.367585e-07
-7.993308e-06
1.083446e-06
-6.901576e-06
-2.073286e-06
2.008109e-06
-2.807293e-07
-3.410005e-06
-8.358036e-06
-4.813286e-07
-3.353474e-07
-1.043243e-06
-5.850006e-06
-9.950809e-06
-1.431116e-06
-1.1645e-06
2.602056e-06
-1.954309e-06
-1.51931e-06
1.564085e-06
-1.601364e-06
4.352157e-07
-4.848902e-06
-2.050207e-06
-4.203783e-06
-8.131453e-07
-1.044963e-06
-4.066478e-06
-1.006225e-05
-4.906334e-07
-7.775261e-06
-5.189794e-06
-5.017421e-06
-2.758739e-06
-8.722735e-07
-5.353593e-06
-1.712693e-06
-2.087503e-06
-2.018197e-06
-2.053146e-06
1.35396e-06
-9.750129e-06
-9.632439e-06
-7.625347e-06
-1.119766e-05
-9.765923e-06
-9.769496e-06
-1.203477e-05
-3.521505e-06
-7.218688e-06
1.637431e-07
3.498435e-07
-1.162247e-07
6.740475e-08
-3.701533e-06
-2.550013e-06
-5.458882e-06
-1.419367e-06
-1.174497e-06
-1.239492e-06
-1.530771e-06
-1.381199e-06
-6.482527e-07
-1.915686e-07
-3.443547e-07
-3.902891e-08
-2.073492e-07
-1.936757e-07
-4.448924e-06
-2.025848e-06
-7.84804e-07
-3.685339e-07
1.702253e-06
-1.039985e-06
-2.345628e-07
-1.978628e-06
-5.936886e-06
-1.340604e-06
-6.75608e-06
-8.576156e-06
-6.031838e-06
-2.542598e-06
-1.896312e-06
-5.010988e-06
-3.212896e-06
-6.769585e-06
-3.163473e-06
-7.314006e-07
1.500715e-06
-2.710321e-06
-3.853057e-06
-7.941869e-07
-9.571224e-07
5.516793e-07
-1.455547e-06
-9.122809e-07
-9.789804e-07
-1.068406e-06
-3.996409e-07
-1.573491e-07
-5.440213e-07
-6.388338e-08
-1.40326e-06
7.147997e-09
-4.184144e-07
-4.842198e-07
-2.69216e-08
-1.103653e-07
-6.369817e-08
-2.767765e-06
-1.796895e-06
-2.277188e-06
-6.718303e-06
-8.745404e-06
-5.814277e-06
-1.162532e-06
-9.254213e-06
-5.909941e-06
-7.798672e-06
-9.813965e-07
-1.30044e-06
-4.496151e-06
7.557644e-07
-3.143388e-07
-1.931362e-06
-1.515103e-06
-1.133172e-06
-2.123223e-06
-1.757318e-06
-2.452384e-06
-1.002169e-07
-3.33125e-06
6.76429e-07
-6.745001e-07
-6.523151e-07
-1.277458e-06
-1.353218e-06
-1.438395e-06
-6.221161e-06
-1.660682e-06
-2.225912e-06
-3.15857e-06
-3.80153e-06
-4.207816e-06
-5.044982e-06
-8.865423e-06
-8.837779e-06
-9.272737e-07
-8.999029e-06
-1.089703e-07
1.171719e-07
-2.898243e-08
-2.172937e-07
-4.844955e-08
2.753057e-07
-6.254565e-06
-6.069339e-06
-1.233282e-06
-3.378377e-06
-2.991664e-06
-5.113452e-06
-1.7075e-06
-1.881856e-06
-1.89469e-06
-5.823387e-06
-4.723946e-07
-9.224012e-06
-2.979076e-06
-1.575707e-06
-3.314032e-07
-1.798461e-06
-2.378649e-06
-5.790946e-07
-6.483713e-07
-3.118305e-06
-1.204895e-06
-1.75031e-06
-2.28624e-06
-2.086405e-06
-1.624254e-06
1.282892e-07
-2.590181e-06
-2.526462e-06
-2.032339e-06
-1.298515e-06
-2.482211e-06
-2.60566e-06
-1.386112e-06
-6.329438e-07
-4.855265e-06
-7.345866e-07
-5.322246e-06
-2.441214e-06
-3.567176e-06
-3.3524e-06
-7.590787e-07
-1.931694e-06
-2.069274e-06
-6.291688e-06
-1.431279e-06
-9.58167e-08
-1.214665e-06
-5.499763e-06
-1.397428e-06
-1.551434e-06
-3.056056e-07
-3.673333e-07
-1.635248e-06
-1.524719e-06
7.860206e-07
-5.841595e-06
-8.36564e-06
-6.380298e-06
-1.379775e-06
6.848143e-07
6.368267e-07
-1.031425e-06
-7.221693e-07
-1.265441e-06
-6.110789e-07
-2.118712e-06
-9.944828e-07
-2.080015e-06
-3.993275e-06
-4.330056e-06
-2.025625e-06
-2.342671e-06
-2.830316e-06
-8.415306e-07
-1.734651e-06
-2.162107e-06
-6.280827e-06
-4.129802e-06
-3.779631e-06
2.398672e-07
1.331325e-06
-3.765988e-07
-4.106324e-06
-5.563414e-06
-9.929952e-07
-5.529653e-07
-1.760182e-06
-8.276265e-07
-7.181833e-07
-1.121955e-06
-4.608308e-07
1.015424e-07
-9.604446e-07
-4.005647e-07
-7.066783e-07
-1.911863e-06
-1.17029e-06
-4.909206e-06
-1.920295e-06
-1.175557e-06
-2.565248e-06
1.119117e-07
-8.046952e-07
-6.222536e-07
-9.766911e-07
-4.81641e-06
-5.935501e-06
-1.247267e-06
-9.014383e-07
-1.271697e-06
-2.962381e-08
-1.76736e-06
1.459255e-07
-3.440168e-06
-2.529991e-06
-2.863769e-06
-9.870408e-06
-6.352081e-06
-1.028957e-06
-4.450308e-06
-6.9677e-06
-6.93477e-06
-8.311145e-07
-5.913797e-07
-1.231557e-06
-3.568706e-07
-2.687468e-06
-5.128907e-07
2.277692e-07
-1.749611e-06
-9.571986e-06
-6.911861e-07
-2.460836e-08
-1.291904e-06
-1.025609e-06
-1.980459e-06
-7.843785e-07
-4.026142e-06
-5.965456e-06
-1.573082e-06
-4.529468e-06
-2.911275e-07
3.382993e-07
-7.49832e-07
-8.224185e-06
-1.368275e-06
-1.967451e-06
-7.48934e-07
-1.863559e-06
2.530618e-06
-2.23927e-06
-4.492929e-06
-4.383557e-07
-2.241458e-06
-1.870669e-06
4.718258e-07
1.28996e-07
-1.940763e-07
-1.140721e-06
-1.429101e-07
-1.559671e-07
-7.551715e-07
-7.812377e-06
-5.919409e-07
-3.934916e-07
-2.415702e-07
-6.59416e-07
-1.162627e-06
-5.656281e-07
-5.848071e-07
-3.510791e-07
-8.351671e-07
-6.582089e-07
-1.513255e-07
-6.802666e-07
-2.208879e-06
-4.899906e-07
-4.126609e-07
3.019787e-08
-6.210551e-07
-6.007604e-07
-6.291774e-07
-6.903208e-07
6.428957e-07
-6.804108e-07
-4.208488e-06
1.223575e-06
9.907622e-07
-1.719416e-06
-4.080085e-06
-2.966207e-06
-4.229508e-06
-1.239443e-06
-6.660434e-06
-1.801973e-06
-6.620721e-07
1.116743e-06
-5.250524e-08
-4.419256e-07
-2.452764e-07
-1.635164e-06
-8.434504e-07
-3.563208e-06
-3.140436e-06
-8.712995e-06
-3.47793e-06
-2.999858e-06
-3.107123e-06
-2.126437e-06
-3.46489e-06
-3.101756e-06
-4.009928e-06
-3.197702e-06
-2.617949e-06
1.42175e-07
-6.050621e-06
-4.814702e-06
-2.595934e-06
3.347253e-07
-5.727116e-06
4.7646e-07
-1.538422e-06
8.876866e-08
-5.607792e-06
-4.688837e-06
-5.74047e-06
-8.71026e-06
-8.569232e-06
-2.952688e-06
-1.15743e-06
-1.300819e-06
-1.445717e-06
-1.308774e-06
-2.65656e-06
-1.686684e-07
-7.141618e-06
-1.932076e-06
-5.211934e-07
-2.455347e-07
1.19426e-06
-5.302964e-06
-6.946379e-06
-4.529814e-06
-4.943072e-06
-4.598624e-06
-4.576912e-06
-2.806917e-06
-1.323808e-06
-3.80516e-06
6.550078e-07
1.518488e-07
-4.815125e-07
-5.327069e-06
-4.773074e-06
-5.550807e-06
-5.11609e-06
-2.999453e-06
-5.000285e-06
-6.751293e-06
-6.905642e-06
-5.662352e-06
-4.138697e-06
-1.642357e-06
-4.712108e-06
-8.733233e-07
-8.543782e-06
3.095417e-07
-3.081328e-07
-4.859669e-06
-4.134426e-07
1.863727e-07
1.441646e-06
-1.903573e-06
2.47391e-06
1.864787e-06
-2.256373e-06
-4.984082e-06
-8.344496e-06
4.885841e-07
8.180866e-08
-5.446663e-08
-4.718097e-07
-5.740039e-06
-5.277124e-06
-5.558069e-06
-4.463407e-07
-1.334772e-07
-5.786343e-06
-8.635276e-06
-8.822343e-06
-3.808493e-06
-3.112074e-06
-6.102562e-06
-7.550339e-06
-1.774958e-06
-2.657307e-06
-3.928274e-06
-2.844416e-06
-2.522418e-06
-7.886069e-07
-9.539404e-06
2.200226e-08
-1.367072e-06
1.165588e-06
-2.086914e-07
-2.226062e-06
3.608628e-07
-3.491445e-06
-4.357579e-08
-6.692313e-06
-1.246789e-06
-2.727309e-06
5.257763e-07
-1.687002e-06
1.886726e-08
-5.823751e-07
-1.403694e-06
-2.460739e-06
-1.436691e-06
-1.53376e-06
-1.7729e-06
-1.122484e-06
-1.175606e-06
-1.989635e-06
-6.871949e-06
-2.729975e-06
-1.503967e-06
-3.691891e-06
7.682725e-07
7.885473e-07
-5.233225e-06
-1.223787e-07
-3.91662e-06
-2.140868e-06
-1.788794e-06
-9.182113e-07
-1.332255e-06
2.021071e-06
-3.987087e-07
3.650237e-08
-5.153361e-06
3.837638e-06
-8.524831e-07
-3.176308e-06
-1.043163e-06
-1.047145e-06
-7.562582e-07
-8.15645e-07
-1.616852e-06
-9.964983e-07
-8.723965e-07
3.386577e-06
-5.17437e-08
-7.763401e-08
-1.428765e-06
-2.205273e-06
-2.885571e-06
-1.154563e-06
-1.562994e-06
-2.875459e-07
1.079636e-07
3.683652e-07
-7.532906e-07
-1.187208e-06
2.116391e-06
1.565089e-06
-6.017918e-07
3.100955e-07
-1.971189e-07
-1.177811e-06
-1.340908e-06
-2.251028e-06
-1.279968e-06
-6.959892e-07
-8.2398e-07
-5.240377e-06
-7.772606e-07
-9.348712e-07
7.249533e-07
8.928108e-07
-5.653979e-06
-1.546791e-06
-2.028336e-06
3.613469e-07
8.133756e-08
-8.680014e-06
-3.164841e-06
-4.342753e-06
-4.858326e-06
-8.988391e-07
-1.263713e-06
-1.374008e-07
-1.328668e-06
-1.010404e-05
6.599392e-07
-4.924357e-06
1.383942e-06
-5.808948e-07
-1.368009e-06
-1.551083e-06
-3.79797e-07
-4.776225e-07
-3.008504e-06
-8.373276e-07
3.26647e-07
2.92877e-07
-5.81393e-06
-7.967249e-06
-8.633738e-08
-1.138567e-07
-2.60414e-06
-4.986324e-07
-2.849007e-07
-3.804606e-06
-1.023447e-05
-3.138481e-07
6.15775e-08
-2.274941e-06
-5.095231e-06
-5.722697e-06
-4.361026e-06
-5.674718e-07
-6.090845e-07
-2.800566e-06
-1.936276e-06
-3.645129e-07
-4.019811e-07
-7.128645e-09
-4.960176e-07
3.768159e-07
1.429454e-06
1.313361e-06
-1.607318e-07
-2.423264e-06
-4.194796e-06
-3.29498e-06
-3.276102e-06
1.553034e-06
-7.033072e-06
-1.914061e-06
-2.013893e-06
-2.286685e-06
-1.057341e-06
-1.897467e-06
-1.66367e-06
-5.097584e-06
-6.154403e-06
-6.416817e-08
-4.704023e-06
1.034372e-06
-1.716438e-06
-1.159979e-08
-9.195862e-07
-8.3183e-06
-7.868692e-06
-1.087326e-07
-2.189499e-06
-2.895153e-06
-3.9574e-06
2.722551e-07
-4.852666e-07
-2.460173e-06
-1.863058e-06
-1.662339e-06
2.662914e-06
3.050356e-06
-3.422899e-08
-1.128404e-07
-4.436304e-06
-3.683263e-07
-1.187848e-06
-1.518033e-06
-4.671672e-06
-5.703028e-06
-7.530709e-07
-1.042971e-07
-1.492718e-06
-1.225081e-06
1.77504e-07
-4.172308e-06
-4.257737e-08
-5.130765e-07
-8.52621e-06
-9.977109e-07
1.811234e-06
3.7665e-06
-1.42642e-06
-1.461912e-06
5.511307e-08
2.127789e-07
-1.000354e-06
4.338931e-07
1.356461e-06
4.391328e-07
1.074856e-07
-9.879534e-07
-9.648092e-07
3.407103e-06
1.620126e-06
-2.356439e-06
-2.347011e-07
1.269767e-06
-5.081419e-06
-1.648282e-06
-2.164924e-06
-2.239588e-06
-7.28898e-07
-1.043212e-06
-1.805956e-06
-2.685033e-06
-2.126561e-06
-2.384965e-06
-3.349902e-06
-2.635064e-06
-2.903553e-06
-5.166906e-06
-1.17101e-06
-2.453023e-06
-2.658337e-06
-3.097405e-06
-3.15195e-06
-3.042029e-06
-2.302377e-06
-2.907976e-06
-2.499151e-06
-2.345745e-06
-1.899978e-06
-6.047166e-08
-1.667443e-06
-2.085088e-06
-4.047318e-06
-4.152077e-06
-1.60238e-06
6.040663e-07
-3.732708e-06
-4.881395e-06
2.181016e-07
-1.01344e-06
-5.162248e-06
-1.19262e-06
-3.377314e-06
-2.574284e-06
-2.265271e-06
-2.315911e-06
-2.419616e-06
-1.215944e-06
-2.645342e-06
-2.57912e-06
-3.541651e-06
-2.39198e-06
-2.414714e-06
-3.719684e-06
-4.401361e-07
1.581465e-08
-3.196891e-08
1.472465e-06
4.089338e-07
-1.087636e-06
-1.04653e-06
-2.314281e-07
-8.911464e-07
-1.615421e-06
1.836915e-08
-5.527758e-06
-4.498671e-06
-2.379454e-06
-1.03846e-06
-7.558828e-07
-1.479355e-07
6.063022e-07
6.35892e-07
-1.081143e-06
-1.431199e-06
-1.307494e-06
-4.425771e-06
-3.335894e-06
-1.632822e-06
-2.114365e-06
-1.082066e-06
-3.064109e-06
6.619204e-07
-2.563529e-06
-1.640859e-06
-4.161848e-06
-1.90011e-06
2.593554e-07
-2.825049e-06
-2.419186e-07
-1.686149e-06
-1.636939e-06
-1.542291e-06
1.165288e-08
-2.966296e-06
-7.446848e-06
5.476222e-08
5.113676e-07
4.851575e-07
7.699768e-07
-1.194091e-07
-1.529856e-06
-8.583207e-07
-1.453214e-06
-6.974994e-07
-3.708901e-06
-1.9865e-07
6.037707e-08
-1.779543e-06
-3.869238e-06
-8.661067e-07
-1.944287e-06
-1.692424e-06
3.532484e-06
-7.310444e-06
-6.753701e-06
-1.041216e-06
-1.214992e-06
-2.872532e-06
-9.452171e-07
-4.972309e-06
-1.849567e-06
-2.789429e-06
-1.36649e-06
-1.399508e-06
-1.259603e-06
-1.450387e-06
-1.189449e-06
-1.923392e-06
-3.49788e-06
-1.821717e-06
-2.113784e-06
-5.686886e-07
1.168916e-07
-8.75574e-06
-5.02574e-06
-4.912889e-06
1.460925e-09
-2.275374e-06
1.120847e-07
1.316565e-06
1.459246e-06
-1.407072e-06
-5.800975e-07
-1.552208e-06
-2.579762e-06
-5.095347e-07
7.890671e-07
-7.358121e-06
-6.347233e-06
-7.75202e-07
-6.071936e-07
-8.202193e-07
-5.023722e-06
-4.89373e-06
-6.654957e-06
-2.042962e-07
-2.565746e-07
-9.113539e-06
1.496378e-06
-4.344881e-06
-2.723677e-06
1.174923e-07
-1.387632e-06
-9.891659e-07
-6.719228e-07
-2.427387e-06
-2.565832e-06
3.306487e-07
-2.058629e-06
-1.409001e-06
8.652137e-07
-9.846538e-06
-6.071126e-06
-2.871146e-06
-1.470053e-06
-1.661235e-06
-7.4113e-07
-1.317887e-06
-2.484595e-06
-1.687188e-06
-2.002035e-06
-1.714384e-06
3.046272e-07
-6.628936e-08
-7.33273e-06
-6.810419e-06
1.315142e-06
-2.573325e-07
-4.330459e-07
-4.213699e-07
-2.090348e-07
-3.280834e-06
-3.20683e-07
-7.860496e-07
-1.237721e-06
-1.492951e-06
3.739188e-06
-1.37587e-06
5.021854e-07
-4.575621e-08
-1.88761e-06
-4.551923e-06
-1.048574e-06
-7.51834e-07
-1.233516e-06
-1.825104e-06
-1.930152e-06
-3.390603e-06
-6.045302e-06
-2.576235e-06
-7.546911e-06
-8.257264e-06
-1.968955e-07
-1.810117e-06
-9.657861e-07
-8.993097e-06
-1.97341e-06
-8.340101e-06
-2.730481e-07
-8.093374e-07
1.177482e-07
6.688219e-07
-5.454252e-07
-1.028655e-06
1.235377e-07
-5.360328e-08
-2.030373e-06
-2.232181e-06
-2.214324e-06
-5.752268e-07
3.313503e-07
-8.148425e-06
-3.683586e-07
-6.805602e-08
-3.748245e-06
-3.800383e-06
-4.193697e-06
-2.807663e-06
-6.346613e-07
-8.869666e-07
-5.02974e-07
-3.737949e-06
-5.589978e-06
-1.27274e-06
-6.309755e-06
-5.348766e-06
-5.799534e-06
-6.322172e-06
-8.910443e-07
-6.236567e-06
-1.764522e-07
-3.74383e-06
-3.798288e-06
-3.904752e-06
-8.615952e-06
-3.936039e-06
-2.346901e-06
-2.853342e-06
-3.288912e-06
-6.523625e-06
-3.338881e-07
-1.948472e-06
-1.387957e-06
-3.98053e-07
-8.575033e-06
-1.048731e-05
-8.974963e-06
-2.336696e-06
-7.213165e-06
-9.199982e-06
-1.006702e-05
-1.050095e-06
-1.902034e-06
-1.412401e-06
-3.044388e-06
-2.401083e-06
-4.81831e-06
-3.347112e-06
5.855266e-07
-6.777978e-06
-1.795167e-06
7.252704e-07
1.023109e-06
-1.883754e-06
-1.203555e-07
-4.565527e-06
-9.346603e-08
-1.12311e-06
-1.227124e-06
-4.943954e-07
-2.246979e-06
5.198269e-07
-1.699767e-06
-9.164112e-06
-4.511992e-06
-7.043738e-06
-7.989283e-06
-7.062914e-06
-9.460725e-07
-7.033949e-06
-4.358354e-06
-3.675172e-06
-1.836114e-06
-1.624481e-06
-1.450965e-06
-1.840311e-06
-4.815375e-07
-3.342592e-06
-3.702321e-06
-7.443378e-06
-5.910338e-06
-4.552073e-06
-4.476744e-06
2.77643e-07
-8.162626e-07
-1.311372e-06
1.978318e-06
-2.986251e-06
-3.371233e-06
-3.264114e-06
-8.32209e-07
-5.15321e-07
-4.728172e-06
-2.839413e-06
-2.769333e-07
-4.093436e-06
-1.96586e-06
-1.939506e-06
-2.098764e-06
-3.14627e-06
-5.789164e-06
-9.379678e-07
-1.239946e-06
4.019317e-07
3.635385e-07
-3.783146e-07
-3.756014e-07
-4.216231e-07
-2.644653e-07
-4.614554e-07
-5.130181e-07
-1.487303e-06
-3.915806e-06
-6.548242e-06
-3.866807e-07
-1.41721e-06
-8.994724e-07
-9.668098e-07
-1.445469e-06
9.395451e-07
-5.086028e-07
-9.377596e-07
-1.738965e-06
-1.637599e-06
-1.565294e-06
-2.027638e-06
-4.586025e-07
-4.751977e-07
2.748777e-07
2.859221e-07
3.855143e-07
-5.961714e-06
-1.138925e-06
-1.995565e-07
-3.865737e-08
-7.065107e-07
-2.228285e-06
-2.598424e-06
-8.696954e-07
-7.101944e-07
1.212088e-06
6.121439e-07
-7.11189e-07
1.557977e-06
-5.311529e-06
-7.427003e-06
-3.503278e-07
-2.204677e-06
-1.089802e-06
-1.668623e-06
1.05224e-07
-7.604171e-07
-1.121512e-06
-2.962842e-06
-4.255657e-06
-4.015202e-06
-1.40889e-06
-7.906214e-07
-9.112767e-06
-2.716108e-06
-5.850285e-06
3.967284e-07
-2.49642e-06
-2.758832e-06
-1.505896e-07
-1.724123e-07
-9.410175e-07
-1.023504e-06
-1.388295e-06
-3.946607e-08
-1.523943e-06
-2.334005e-06
-2.037751e-06
-2.938868e-06
-1.269538e-06
-1.238639e-06
-1.336744e-06
-1.072928e-06
2.623558e-06
1.600088e-06
-1.631978e-06
-8.077367e-07
-3.165838e-07
-1.640353e-06
-1.316571e-06
-3.251575e-06
-2.464663e-06
-1.697e-06
-1.713638e-06
-2.2415e-06
-2.247473e-06
-7.013723e-06
-7.590892e-06
-4.859459e-06
-4.665429e-06
-1.442576e-06
-1.421587e-06
2.894632e-07
-9.928973e-06
-9.08656e-06
-9.308199e-06
-3.69875e-06
6.771365e-07
-6.671229e-07
-7.230835e-07
3.623764e-07
8.640244e-07
-7.698065e-07
1.144873e-06
-1.989854e-06
-1.758152e-06
-1.425876e-06
-1.435437e-06
-1.166493e-06
-9.692733e-07
-8.140665e-07
-5.167852e-07
-1.279963e-06
-1.717912e-06
-1.937133e-06
-3.9961e-07
-3.019149e-07
-1.580444e-06
-1.532564e-06
7.126459e-07
-4.621918e-06
-5.089661e-06
-4.871899e-06
-5.507778e-06
-5.226822e-06
-5.976048e-06
-6.715779e-06
-5.610855e-06
-5.042883e-06
-6.554416e-06
-8.721386e-06
-3.124587e-07
-1.920111e-06
-1.809335e-06
-5.675795e-06
-2.480096e-06
-1.719481e-06
-9.583113e-07
-9.566225e-07
-2.027533e-07
-1.005988e-07
-1.281934e-06
-6.204449e-07