/*--------------------------------*- C++ -*----------------------------------*\
| =========                 |                                                 |
| \\      /  F ield         | OpenFOAM: The Open Source CFD Toolbox           |
|  \\    /   O peration     | Version:  2406                                  |
|   \\  /    A nd           | Website:  www.openfoam.com                      |
|    \\/     M anipulation  |                                                 |
\*---------------------------------------------------------------------------*/
FoamFile
{
    version     2.0;
    format      ascii;
    arch        "LSB;label=32;scalar=64";
    class       volScalarField;
    location    "3.22";
    object      p;
}
// * * * * * * * * * * * * * * * * * * * * * * * * * * * * * * * * * * * * * //

dimensions      [0 2 -2 0 0 0 0];

internalField   nonuniform List<scalar> 
15536
(
-7.738839
-6.760014
-4.470217
-4.736908
-11.28623
-13.86356
-15.74269
-17.7174
-17.45073
-13.3967
-5.914827
-4.999613
-7.918082
-13.90032
-18.68376
-21.45338
-25.64233
-34.40053
-44.28107
-55.11375
-64.56086
-60.98705
-39.27676
-10.19676
11.53531
7.803435
-12.66322
-28.29193
-37.04996
-49.96458
-86.03872
-142.2255
-161.1549
-111.6338
-76.24441
-97.21912
-109.9638
-108.3986
-111.633
-117.76
-122.566
-125.6561
-126.9806
-127.0369
-126.4078
-124.8147
-122.3617
-118.9089
-115.0168
-110.8343
-105.9536
-100.4858
-94.37874
-87.90448
-80.99727
-73.73082
-66.47699
-59.14035
-51.43547
-43.55726
-35.82826
-28.26015
-20.72231
-13.26851
-6.044442
1.05391
7.854347
14.32481
20.36052
25.9706
31.11361
35.7937
39.96789
43.55939
46.53576
49.00785
50.86911
52.1827
52.9314
52.901
52.22368
51.00889
49.22776
46.85433
43.9267
40.46162
36.51168
32.00595
27.09271
21.82268
16.06607
9.984704
3.647149
-3.096297
-9.997597
-16.86594
-23.88919
-31.04951
-38.17074
-45.33323
-52.38399
-59.14308
-65.5658
-71.72369
-77.72382
-83.28594
-88.37687
-92.95297
-97.01422
-100.6034
-103.4739
-105.5312
-106.758
-107.0931
-106.1734
-103.5357
-99.66624
-97.62414
-102.5666
-111.1082
-109.3742
-92.01724
-67.91902
-48.21342
-67.5111
-130.5289
-150.3361
-115.6569
-72.20218
-48.7538
-38.8123
-32.67508
-25.89779
-21.68827
-21.73758
-24.84015
-29.97639
-36.0957
-40.75818
-43.21745
-44.46683
-44.98633
-44.5053
-43.21045
-41.25247
-39.59277
-38.80371
-38.02032
-36.02578
-32.8459
-28.64823
-23.79111
-18.99697
-15.08007
-12.37175
-10.72016
-9.274134
-7.739248
-6.771451
-4.496377
-4.752935
-11.30872
-13.90389
-15.78656
-17.74951
-17.46376
-13.41744
-5.942766
-5.016101
-7.915086
-13.86583
-18.62938
-21.39385
-25.60447
-34.39168
-44.29444
-55.10642
-64.47745
-60.94612
-39.30999
-10.2126
11.63482
7.640939
-12.78237
-28.35033
-36.99395
-49.83224
-85.92785
-142.2042
-161.2667
-111.4477
-76.19034
-97.11079
-109.9803
-108.2957
-111.1143
-116.8358
-121.294
-124.1682
-125.3878
-125.3828
-124.7247
-123.1187
-120.6732
-117.2363
-113.3654
-109.2215
-104.3828
-98.96562
-92.91154
-86.49613
-79.65608
-72.45915
-65.275
-58.01347
-50.3897
-42.58787
-34.93582
-27.44564
-19.98487
-12.6058
-5.452367
1.575252
8.304289
14.709
20.684
26.23576
31.32612
35.95923
40.09128
43.64832
46.5945
49.04249
50.88548
52.18496
52.92733
52.89664
52.22358
51.01874
49.25248
46.89962
43.99831
40.56523
36.65237
32.1891
27.32508
22.1053
16.40374
10.38455
4.108935
-2.570743
-9.405231
-16.20727
-23.16405
-30.25476
-37.30681
-44.40161
-51.38635
-58.0802
-64.44175
-70.54633
-76.49673
-82.01148
-87.0636
-91.60463
-95.63842
-99.21224
-102.0771
-104.1455
-105.3988
-105.8049
-105.0616
-102.7307
-99.20867
-97.52932
-102.5447
-111.048
-109.5076
-92.2179
-68.0197
-48.22907
-67.55454
-130.6597
-150.3983
-115.5713
-72.08117
-48.66879
-38.79019
-32.71236
-25.93387
-21.68075
-21.67012
-24.79616
-29.96444
-36.10228
-40.76755
-43.22514
-44.47436
-44.99361
-44.50937
-43.21302
-41.25
-39.58276
-38.78655
-38.0038
-36.00433
-32.82441
-28.63768
-23.79172
-19.00284
-15.08434
-12.36661
-10.70456
-9.257446
-7.762168
-6.715838
-4.428608
-4.685146
-11.4067
-14.06156
-15.84535
-17.74712
-17.49112
-13.51931
-6.026846
-5.060598
-7.939719
-13.86611
-18.60314
-21.33502
-25.53642
-34.37891
-44.38938
-55.24331
-64.61092
-61.13899
-39.78239
-10.68114
11.78364
7.532323
-12.86839
-28.38674
-36.99088
-49.84074
-86.11134
-142.7362
-162.0668
-111.7587
-76.29525
-96.21179
-108.7293
-107.7282
-110.4792
-115.8182
-120.1282
-123.0541
-124.3577
-124.3752
-123.7563
-122.1788
-119.7684
-116.3499
-112.4946
-108.3835
-103.5601
-98.17222
-92.14206
-85.76579
-78.97192
-71.79216
-64.63891
-57.42463
-49.82875
-42.05986
-34.4425
-26.99511
-19.57511
-12.22702
-5.119442
1.876036
8.568591
14.93893
20.88116
26.40286
31.46209
36.06693
40.17324
43.71
46.63291
49.06468
50.89372
52.17994
52.91575
52.8856
52.21764
51.02204
49.26698
46.92914
44.04679
40.63521
36.7474
32.30667
27.47189
22.2828
16.60803
10.6223
4.381601
-2.269941
-9.07045
-15.83181
-22.75626
-29.81575
-36.82738
-43.89982
-50.85307
-57.51979
-63.85615
-69.92399
-75.85251
-81.33258
-86.36382
-90.88408
-94.89926
-98.4592
-101.3007
-103.3388
-104.5641
-104.9319
-104.1172
-101.9034
-98.72255
-97.30185
-102.2922
-110.8947
-109.3261
-91.99783
-67.85383
-47.91474
-67.81652
-131.8356
-151.1988
-115.8587
-72.03212
-48.56217
-38.76283
-32.7941
-26.01877
-21.67493
-21.62255
-24.7695
-29.9833
-36.1416
-40.80321
-43.25776
-44.49423
-45.00945
-44.52406
-43.23054
-41.25783
-39.58247
-38.78306
-38.00347
-36.00089
-32.82062
-28.64151
-23.80481
-19.02105
-15.09979
-12.37372
-10.70199
-9.278435
-7.784453
-6.613734
-4.248193
-4.553974
-11.58341
-14.35999
-15.90266
-17.59765
-17.49024
-13.72876
-6.189787
-5.144073
-8.00316
-13.90026
-18.57259
-21.25032
-25.42772
-34.30082
-44.53079
-55.5914
-65.005
-61.58145
-40.68976
-11.79287
12.05073
7.754985
-12.6928
-28.2545
-36.97901
-49.97615
-86.45209
-143.287
-162.929
-112.9971
-77.36532
-95.22533
-106.6233
-106.6313
-109.5253
-114.3916
-118.4001
-121.11
-122.2524
-122.1936
-121.5763
-119.9971
-117.6429
-114.2626
-110.4369
-106.3912
-101.6521
-96.35273
-90.40666
-84.11271
-77.41223
-70.32932
-63.26408
-56.14889
-48.66697
-40.98568
-33.45741
-26.10651
-18.78168
-11.51659
-4.499595
2.416581
9.030212
15.33307
21.20725
26.66532
31.66801
36.22446
40.28771
43.79186
46.67838
49.087
50.89671
52.16494
52.89313
52.86429
52.20207
51.01939
49.27912
46.96164
44.10667
40.72843
36.88246
32.48167
27.70226
22.56927
16.94952
11.03698
4.865054
-1.724518
-8.437432
-15.11564
-21.96674
-28.93902
-35.86359
-42.85475
-49.72336
-56.29795
-62.5437
-68.5416
-74.39795
-79.79688
-84.76284
-89.21197
-93.17505
-96.70502
-99.51058
-101.5272
-102.77
-103.2506
-102.6554
-100.7137
-97.99103
-96.81737
-101.3002
-108.9721
-106.9582
-90.80287
-67.33943
-47.6592
-68.7207
-133.7787
-152.4807
-116.5151
-72.05029
-48.43573
-38.69538
-32.85043
-26.13044
-21.61339
-21.47294
-24.73518
-30.03141
-36.22447
-40.88736
-43.33289
-44.5453
-45.05101
-44.55481
-43.26813
-41.28179
-39.60054
-38.79935
-38.0216
-36.00765
-32.83267
-28.66252
-23.83545
-19.05548
-15.12846
-12.38955
-10.70208
-9.281671
-7.811549
-6.510973
-4.029298
-4.396444
-11.89675
-14.80767
-15.98943
-17.38138
-17.48473
-14.0687
-6.458042
-5.303131
-8.122456
-14.00366
-18.55834
-21.11053
-25.20143
-34.00535
-44.5862
-56.2115
-65.80498
-62.4494
-42.04127
-13.48298
12.28381
8.461782
-12.05663
-27.81815
-37.03728
-50.36548
-86.7695
-143.3461
-162.7289
-114.7943
-80.28867
-95.03319
-104.5725
-105.3828
-108.4357
-112.9669
-116.7795
-119.4792
-120.7594
-120.6716
-120.0703
-118.4739
-116.1453
-112.7707
-108.9124
-104.9367
-100.1938
-94.9385
-89.00875
-82.76891
-76.14138
-69.08384
-62.07204
-55.04946
-47.63649
-40.00589
-32.54503
-25.28429
-18.03926
-10.83224
-3.903063
2.951683
9.494216
15.73127
21.53446
26.93518
31.88209
36.38925
40.4019
43.8712
46.71838
49.1008
50.88819
52.13398
52.85327
52.82548
52.17036
51.0072
49.28649
46.99229
44.16772
40.8237
37.02194
32.66075
27.94416
22.86487
17.28797
11.45545
5.353961
-1.199214
-7.835497
-14.43179
-21.22935
-28.14037
-34.98136
-41.92793
-48.74299
-55.26043
-61.45635
-67.4015
-73.23406
-78.58598
-83.53735
-87.96372
-91.91369
-95.47614
-98.25009
-100.2774
-101.5173
-101.9449
-101.3342
-99.53881
-97.14897
-96.12255
-99.74835
-105.7552
-103.4534
-88.80763
-67.16243
-48.41502
-70.92099
-135.9754
-154.0798
-117.5511
-72.20299
-48.31452
-38.56683
-32.8342
-26.17727
-21.45322
-21.18301
-24.65903
-30.11994
-36.36314
-41.05371
-43.4762
-44.63602
-45.1177
-44.59934
-43.32843
-41.3293
-39.64989
-38.85425
-38.07669
-36.04958
-32.87683
-28.71356
-23.89604
-19.11746
-15.177
-12.41967
-10.7174
-9.299689
-7.847216
-6.432188
-3.85948
-4.319602
-12.43437
-15.45009
-16.14297
-17.13207
-17.54756
-14.5938
-6.982116
-5.634854
-8.286771
-14.1951
-18.57899
-20.88421
-24.75206
-33.37514
-44.44742
-57.17011
-67.15733
-63.91303
-43.92706
-15.8917
12.11634
9.505404
-10.91934
-27.14186
-37.26818
-51.00564
-86.10264
-140.1242
-158.8574
-115.3374
-84.24609
-95.24887
-102.5572
-103.9067
-106.8936
-110.9958
-114.457
-116.9382
-118.0451
-117.7407
-117.1787
-115.6782
-113.4871
-110.1647
-106.3412
-102.5299
-97.87978
-92.76109
-86.92848
-80.78556
-74.27793
-67.3088
-60.41847
-53.54014
-46.23159
-38.69445
-31.35652
-24.21215
-17.07949
-9.956807
-3.154974
3.618502
10.05763
16.1917
21.91569
27.25771
32.1333
36.57499
40.51589
43.95285
46.7519
49.09796
50.86229
52.07927
52.78754
52.76045
52.11945
50.97534
49.28067
47.01595
44.22915
40.92856
37.17434
32.85364
28.22675
23.2214
17.67836
11.9411
5.963674
-0.5368452
-7.084585
-13.5553
-20.25706
-27.08713
-33.81672
-40.66838
-47.38612
-53.80209
-59.8832
-65.73354
-71.50069
-76.7323
-81.6077
-85.93048
-89.79466
-93.27279
-95.97489
-97.90297
-99.13744
-99.77712
-99.3858
-97.88926
-95.93001
-95.09662
-97.952
-102.4806
-99.97381
-87.03341
-67.91163
-51.30948
-74.72467
-137.8609
-155.4633
-118.457
-72.71287
-48.32325
-38.40493
-32.66999
-26.04448
-21.14305
-20.72832
-24.52278
-30.25224
-36.60867
-41.34455
-43.71511
-44.79418
-45.23481
-44.65876
-43.4151
-41.40933
-39.74465
-38.97523
-38.18878
-36.13726
-32.96382
-28.805
-23.99856
-19.22029
-15.25904
-12.47266
-10.7594
-9.328675
-7.918882
-6.406305
-3.826886
-4.471774
-13.2305
-16.25179
-16.37505
-16.95734
-17.73707
-15.46494
-8.076471
-6.311266
-8.580268
-14.49064
-18.64494
-20.52413
-24.00082
-32.44837
-44.08522
-58.50582
-69.18234
-66.14328
-46.40278
-19.10857
10.71071
10.26398
-10.00469
-26.53636
-37.79049
-51.67869
-83.6112
-130.9781
-147.7834
-112.6962
-87.43499
-95.10769
-100.5415
-102.342
-105.2313
-109.0165
-112.2131
-114.6069
-115.8329
-115.5047
-115.0933
-113.2784
-111.1272
-107.8054
-103.9059
-100.2266
-95.56505
-90.58011
-84.77345
-78.65258
-72.29497
-65.463
-58.64264
-51.83625
-44.68535
-37.2961
-30.04625
-22.95537
-16.02214
-8.976284
-2.328446
4.365783
10.66033
16.69409
22.40551
27.62823
32.39738
36.74949
40.62265
44.08003
46.77737
49.07758
50.81831
51.99476
52.68939
52.67208
52.05073
50.89401
49.22213
46.99719
44.2623
41.03868
37.34897
33.0487
28.51623
23.63462
18.16896
12.46833
6.590245
0.2444938
-6.231089
-12.60844
-19.19191
-25.86024
-32.55144
-39.32701
-45.88767
-52.23985
-58.1909
-63.95421
-69.69641
-74.81401
-79.67402
-83.91244
-87.77663
-91.3312
-93.999
-96.02624
-97.38331
-97.89367
-97.53906
-96.22631
-94.6092
-93.87096
-96.03416
-99.27569
-96.56451
-85.24267
-69.27595
-56.21835
-79.17337
-138.7437
-155.8377
-118.5659
-73.20925
-48.57099
-38.29154
-32.31578
-25.61012
-20.61824
-20.11723
-24.3409
-30.46554
-37.026
-41.81642
-44.09166
-45.04485
-45.4411
-44.7512
-43.5253
-41.52336
-39.90594
-39.1966
-38.38612
-36.27823
-33.08891
-28.93861
-24.14736
-19.37463
-15.4142
-12.59609
-10.8419
-9.391653
-8.045237
-6.464577
-4.058999
-5.003462
-14.36232
-17.34909
-16.63832
-16.82319
-18.01294
-16.74394
-9.74687
-7.393508
-9.751655
-15.14972
-18.81927
-20.01052
-22.91338
-31.18277
-43.6585
-60.13162
-72.12305
-69.29825
-49.67622
-23.34158
7.069038
9.938535
-9.972464
-26.11848
-38.20715
-51.97798
-79.99109
-118.4677
-132.8067
-107.9201
-89.12614
-94.23549
-98.35258
-100.3111
-102.8929
-106.3079
-109.0971
-111.1809
-112.5452
-111.6377
-111.2326
-109.793
-107.7718
-104.7351
-100.5471
-97.11963
-92.6183
-87.84725
-82.00653
-75.97899
-70.03978
-63.39542
-56.29196
-49.70058
-43.00268
-35.79483
-28.33865
-21.40136
-14.92616
-7.845702
-1.442166
5.220029
11.24492
17.38962
23.08491
28.00551
32.63447
36.86861
40.7416
44.2425
46.74673
49.05503
50.74909
51.87434
52.55809
52.56899
51.92543
50.76509
49.09466
46.91918
44.2406
41.10391
37.57653
33.26236
28.79699
24.07316
18.88879
13.22069
7.124129
1.070611
-5.095239
-11.59206
-18.10294
-24.3429
-30.90361
-37.94456
-44.07312
-50.43119
-56.21831
-61.80854
-67.55002
-72.42607
-77.32365
-81.32423
-85.0606
-88.64947
-91.162
-93.03888
-94.1474
-95.09821
-94.98928
-93.95452
-92.71448
-92.08845
-93.79454
-95.86908
-92.9919
-83.26397
-70.612
-62.19706
-83.01731
-136.0308
-152.3085
-115.3532
-72.99218
-48.99907
-38.51514
-31.91193
-25.18569
-20.06044
-19.39016
-24.14023
-30.79028
-37.67569
-42.56199
-44.78024
-45.43432
-45.6887
-44.88525
-43.72681
-41.7267
-40.16364
-39.54973
-38.68143
-36.4525
-33.27074
-29.16643
-24.38532
-19.61199
-15.68483
-12.84001
-10.93204
-9.478888
3.566655
2.948383
-42.47767
4.591688
11.32423
4.183222
3.708272
1.692903
8.690306
1.185005
-1.521108
1.589577
2.036919
2.269277
2.668673
3.510632
1.035688
-0.04388199
2.225981
1.246679
-40.17022
-0.3358925
2.856439
1.056874
3.174689
2.866712
0.2314181
1.371969
-2.898339
1.763593
2.525343
-23.353
1.767697
1.315547
3.943878
-1.451755
3.54181
0.3900757
4.525595
-2.430476
-16.38674
3.686606
2.878793
5.354018
28.91629
3.053618
0.4888036
3.10053
-9.928109
1.465122
2.480402
2.242465
-26.6395
2.84475
2.585292
18.28348
2.639376
2.943421
-8.536977
-10.14716
1.405605
0.4167768
3.252408
2.775561
10.64708
3.255181
-36.41914
0.3509861
4.145572
0.193234
2.048123
2.954355
-13.60603
-52.08217
23.48784
0.8838401
5.460667
0.3182691
-13.51569
2.912302
-10.05713
2.006635
4.191426
5.028627
-5.013482
3.181796
2.239419
1.101499
-14.33294
4.221884
-9.2939
25.87047
-1.418215
5.95226
3.237774
1.834126
-14.02224
7.470226
-52.01491
3.328906
1.944247
1.201241
3.942495
-73.94374
0.09729918
-20.02122
-0.008843527
2.966094
-4.948789
-5.565882
1.172533
3.433702
4.734577
8.784746
-26.38347
-0.04837974
4.98459
1.300382
25.152
2.733939
3.330545
2.227513
1.975912
0.7476282
0.7187605
13.58179
2.499695
-37.25546
3.486046
2.800809
1.460291
1.032297
3.507583
2.773104
2.298527
-29.39489
0.8813449
5.167749
2.102987
4.601638
-40.59551
2.643652
-55.11161
3.037322
0.2839755
-15.96887
0.7416945
-33.12249
0.7066937
2.131485
1.317511
-22.01718
-13.74532
-11.16573
-7.723098
-53.14086
1.72214
4.539696
3.165422
-31.85048
3.146887
-35.63508
-1.524431
-0.08790867
3.913459
-8.527993
-17.40296
3.48829
-37.60398
0.6338397
3.562045
-19.97191
2.417986
-43.13644
-2.24483
-7.900038
3.016953
3.226748
12.08144
2.195635
15.89548
1.314554
1.354511
2.579613
5.950479
-38.95305
2.501405
0.9111564
-16.67653
2.510634
2.387996
1.962098
-2.744973
1.002134
0.1354896
2.938241
-1.833027
2.638145
0.5010654
-28.00114
0.9588806
-4.574633
3.259229
8.911581
3.630364
1.97139
-3.887311
0.5618173
-5.34556
0.6910397
2.892766
3.696786
0.3533773
-10.37932
4.246085
-10.28943
-7.082102
1.371717
12.27394
2.404258
3.209121
2.580952
3.844551
-0.02072659
0.2241388
-1.28041
3.237664
9.257162
4.752126
17.57012
-6.09544
-2.994324
2.925197
0.3852886
-74.15807
2.054354
22.62835
-6.042875
3.92144
2.543847
2.688887
2.441979
0.5091164
-12.97349
2.131984
-14.27861
3.160811
-50.9945
5.385607
2.825806
-27.7999
2.983417
0.7264664
1.37883
4.117962
-21.72017
3.223201
2.295754
-64.00247
-0.07350396
-7.564081
1.996047
-7.527281
3.690066
2.076924
3.123597
2.951332
0.6247186
-8.978906
-21.21722
3.912316
3.319333
13.45315
1.894533
3.155076
4.227472
2.470426
-30.45362
-19.24623
2.513941
3.326858
2.944002
-14.2696
2.772448
3.403531
2.965936
39.78537
2.363796
2.820642
0.4380803
1.478763
0.3778951
3.095674
3.192201
-45.98129
3.763888
12.1819
0.220827
3.547071
2.411372
-36.27364
-1.414456
3.666717
-16.91881
2.206107
0.2510749
0.4493885
2.977123
-0.01235476
1.773577
-1.839414
0.1306827
1.032938
3.644122
2.147559
-8.614624
35.03689
-50.31105
-16.61518
-81.41942
1.953906
1.598968
0.2714441
1.452245
2.627223
3.803397
1.662102
-5.727563
2.863265
5.785722
20.06147
2.246267
-4.212098
-21.1895
3.801119
2.603131
3.656929
0.7284296
-0.08507795
4.376575
-54.93782
4.776659
3.086465
0.8722712
-9.314153
6.196444
-9.299221
2.300926
-7.229628
5.231374
4.905166
1.220204
13.44975
3.436944
2.41185
-10.27933
-43.99967
0.9209757
2.661388
3.132206
2.983796
-1.632824
1.600989
3.337188
1.451839
2.856087
2.305243
2.81064
2.303317
2.189706
-0.1074098
12.66545
-32.12736
2.710405
2.924142
3.086864
3.158091
3.022159
3.70332
1.636735
3.335336
2.455996
0.2081244
-17.07563
0.1825807
3.247406
3.223778
41.74186
3.341672
0.5591132
1.396854
2.717448
4.249831
-45.26816
0.21832
1.708215
3.111762
-4.213405
3.110728
2.716543
3.066422
1.13044
-24.03722
2.505526
0.6490247
1.655878
-43.76379
-41.19501
2.443962
3.415057
3.150666
1.991182
0.6896425
1.744518
2.877514
1.871313
4.316256
-8.636314
3.450903
-7.312705
1.221418
0.8332109
4.542983
1.318042
2.28904
-21.47038
4.161975
1.658477
-42.24113
-7.496289
-57.72672
3.160623
3.84321
3.025536
3.485751
3.437382
0.6502107
-2.398445
0.8660118
1.275294
-2.452791
0.6377573
0.5456266
2.349656
-1.385449
2.921884
1.063403
3.269873
4.665948
2.122128
1.624709
-20.395
3.667014
-12.28672
2.48376
0.8667145
2.535205
5.590665
2.897324
-13.63541
3.000761
-45.62821
0.4211511
2.751961
2.625921
0.7564673
29.46171
2.319588
4.019556
1.104566
-6.541501
1.709684
2.6659
8.539886
1.743699
-14.86446
-3.770058
-41.12305
0.7901422
2.684772
-7.490776
3.915063
3.092409
2.71144
3.706299
3.222071
3.599606
16.99307
0.6033225
2.179011
-6.565654
-19.47916
-1.192188
1.1183
-14.64634
2.286454
3.054683
5.281409
3.772493
4.845867
2.504003
2.833262
7.403091
-1.663746
3.837702
2.866632
1.602675
3.708239
-3.870235
-6.685964
-18.89224
2.273751
10.51925
0.8585836
3.876175
2.981018
1.860334
0.5351797
0.7210158
2.624123
2.392045
1.809639
2.553378
0.8229798
3.28121
2.086471
0.8543945
0.1621694
4.192034
5.226921
-21.07393
-2.941214
-20.16738
2.600982
5.201786
5.86693
4.748796
5.838542
3.130134
2.139562
6.105597
2.989017
2.738458
3.495298
-58.13379
3.56342
5.314989
0.6411211
1.210347
9.692634
2.995453
11.00679
2.291667
-0.2565087
-15.51216
0.6441199
1.070011
-8.804485
16.6215
-10.47814
6.802381
-14.89583
2.8808
2.231914
3.276198
2.95958
1.959431
4.664583
28.23548
1.823327
2.803814
3.660957
5.098066
-51.29535
3.812753
3.84439
3.351028
3.418199
3.079159
-16.4088
-0.9952448
-10.40024
6.755742
0.1724751
0.3911753
-17.36043
3.564231
4.083362
-67.8925
-0.8841057
1.846546
-19.66319
1.60848
-7.666701
2.921288
4.673638
2.323103
-63.89928
2.877063
2.968489
2.863979
3.862336
4.692389
0.6193823
3.513888
-20.16838
-9.668016
2.863169
-23.74676
3.662827
6.342431
0.8144328
-19.11079
2.993027
9.426678
4.792352
2.012371
-1.058364
-24.57133
4.532777
6.514763
0.001354952
2.082158
4.592181
3.362059
18.75187
4.019187
2.117545
1.440904
0.5605724
4.668264
-37.26203
-10.37704
-5.193278
-36.81675
-4.794154
2.228116
1.609133
1.937456
2.925125
2.836147
2.346404
3.501198
0.7943645
-2.389585
3.072038
3.127605
-43.64481
2.242255
26.15082
4.9426
-39.19604
4.018757
-9.204342
8.294773
0.08170174
-23.77755
3.671936
1.884738
-16.51995
0.6411647
0.7347853
2.644815
3.391377
-22.96844
0.796508
-1.174355
2.409243
3.373808
-3.344711
2.983448
3.546554
-71.0538
-1.993262
3.013227
2.531458
-3.281585
3.396421
2.404765
9.832633
15.68194
15.04502
3.417227
1.370488
2.919568
2.945181
2.250786
0.2065496
3.895795
3.119991
-26.58341
3.665764
-24.59857
-11.10932
4.165705
3.270388
-37.465
3.591615
1.640911
0.4591403
2.569198
-4.36228
-4.865718
-4.242664
5.690455
-3.80099
2.460825
2.691781
-23.77862
2.952166
3.077238
2.704929
3.11376
2.431167
-4.13383
2.365361
1.978305
-38.44677
1.949169
4.688509
3.545586
3.945834
2.248228
2.771141
-0.2649844
1.42194
2.842457
-20.22874
2.937239
2.854952
1.414198
1.697866
2.626814
2.800364
1.893076
3.710905
1.792024
4.35151
-24.08417
1.262581
0.2690345
4.500363
3.366654
2.320797
5.660967
0.6569782
-42.78349
3.461538
1.609949
7.591302
3.478835
-16.34533
-0.5246082
-1.635488
2.460238
-72.38149
3.24649
-10.69564
-18.74787
-2.311947
-1.219886
-0.1793691
2.795621
15.06902
3.654431
3.55275
-7.92028
3.727003
2.179758
2.611185
-4.787531
23.14616
-12.50396
2.796873
3.116134
1.270893
1.780153
6.747072
-5.49194
3.051953
3.11248
1.468887
3.003869
-2.008363
7.724031
1.970606
3.124567
0.6916578
3.460877
2.136608
1.758515
-18.35393
31.56395
0.8278647
4.242604
2.798646
2.847756
6.225398
1.147643
-21.72431
2.636595
-51.7227
-8.605366
2.095138
2.237065
3.813542
-8.471574
2.750499
3.181537
3.409611
2.940708
-10.94707
-60.28887
2.796882
1.511282
-0.034091
1.328841
1.664008
2.941423
-28.81881
-0.2774629
14.89362
2.327672
2.754722
2.234512
2.077536
3.730515
0.3908486
0.5807978
1.049084
-7.498979
3.049755
9.87534
-35.80095
3.506581
3.108448
-14.68188
2.541146
2.617055
3.056443
-0.7927253
0.2408006
0.8558253
3.574842
2.536571
2.75669
4.688187
2.054174
2.823539
33.59534
2.437198
0.6441262
3.31639
-73.43956
1.67851
2.898706
3.22171
1.938243
35.19265
2.167457
3.119735
2.793559
2.991453
3.857053
2.266433
2.793575
2.85916
-22.43828
-11.53629
3.064129
-1.353984
-27.45966
7.525696
3.105287
3.238088
-7.854958
6.094352
32.97534
3.319454
2.067511
1.914798
1.535597
1.912501
9.416132
1.132947
2.689573
5.418578
2.011936
1.82547
4.16055
-7.359792
-7.117337
-5.7021
-29.10231
3.980279
-0.3756231
5.03246
-3.846076
-3.193281
1.485029
-13.51216
0.860947
-3.694544
12.5263
-12.31034
5.846534
3.248051
2.911071
-11.83696
25.54059
2.509426
0.402429
-3.360091
-42.26471
0.4562579
5.478151
3.259051
2.914839
2.405057
-28.94329
-3.187139
3.594037
-5.903675
-10.11284
2.825423
-17.96668
-21.23808
-55.60238
3.797684
-37.14615
3.642093
2.118678
-18.52855
2.85962
1.286699
-27.57127
0.02180124
3.471838
-0.6419327
2.276601
6.530535
-16.1153
-27.3398
2.803567
15.85446
2.789195
-2.171159
-17.21945
22.66682
-23.91361
1.418026
2.648936
3.796835
3.420635
4.547029
3.497413
3.817844
2.963415
0.6112686
-55.34107
-69.03686
3.495691
1.164113
3.734556
5.958517
1.851889
4.030908
2.937718
3.390513
2.257141
2.238243
3.047618
-1.804161
2.883771
-5.89686
2.976313
2.963626
-45.12241
3.252276
2.533096
-1.098386
-25.01112
-0.6378829
0.1507009
3.735369
-14.04267
-39.26961
33.49709
47.71295
3.809674
1.482042
-7.860501
6.654479
3.224709
7.46203
13.1709
-29.12177
3.474177
2.919215
1.720629
3.587152
2.90256
5.455881
1.61473
-24.74486
-47.71263
-3.674721
2.754603
3.272617
3.663056
2.961573
-52.00934
3.442407
2.82748
2.922611
0.5555788
-2.633193
3.089895
-37.55278
-22.90693
3.252601
3.483115
-5.393129
3.650063
3.073315
3.362146
4.109608
-99.19348
2.710611
-68.76629
-30.38279
2.297746
1.871523
-48.16716
-62.29816
1.032284
3.06268
3.382503
2.56305
0.1946647
-8.020656
4.850471
2.850684
2.522518
0.5483268
3.105336
1.017515
2.433715
-2.549896
1.487311
3.282446
3.337136
0.7686841
0.3330178
2.873202
2.028033
-4.50311
1.350326
4.219264
4.701021
0.4569313
2.237664
4.394383
2.637849
2.603737
-27.05396
-21.69693
0.6140133
2.779834
6.796143
1.070692
-25.10034
-8.297863
-17.09551
-27.04561
24.96375
1.277736
4.820701
-5.481912
-17.45975
1.950539
4.817688
-92.29499
2.714169
2.916933
-3.99189
3.761182
5.840881
1.2958
2.999103
-28.55206
-20.59103
-16.46006
2.523041
12.56272
38.422
-8.767226
-3.965332
2.819339
3.059338
2.978392
9.293955
3.523024
9.136793
0.3019494
-2.644329
-8.07561
-7.358871
0.1746765
2.685239
-22.01054
2.240269
-56.80576
9.14676
3.174327
11.95849
3.131685
32.41233
2.14481
-5.651162
0.6040851
0.3521222
16.86437
-7.881766
-94.81303
1.897422
3.57542
2.518963
2.703559
1.657958
-9.66572
-0.528496
4.691756
-33.19272
0.3563784
22.44498
-2.528636
3.920396
-39.55592
-15.92434
-3.244249
-17.26185
40.84892
3.013511
3.143318
-33.30775
1.378667
5.342078
-0.3561738
2.048017
-21.44397
-68.38749
-1.072189
2.888387
2.214487
3.38554
2.883202
-3.251999
2.252224
4.396107
4.063655
0.7513932
3.661432
3.146643
-2.253031
-8.35342
-3.872751
2.006998
2.079621
-50.11771
3.185469
2.705223
3.421872
1.953452
-32.81495
3.414626
5.639818
2.654614
3.867167
0.2772115
-8.501981
2.670326
3.235406
-47.70407
30.32032
0.4232556
3.333262
4.262006
1.120896
2.910908
2.587376
5.450272
2.409515
-1.240229
17.07281
2.303942
-11.68997
3.522572
0.4398951
3.393906
3.438573
1.7141
2.523989
-0.9712206
-10.45953
-35.48458
-32.82946
4.679921
0.4883111
1.868958
2.98789
2.629926
-15.71523
2.165902
2.501511
0.6641129
-8.38481
3.307045
0.7216077
4.334598
-59.65559
0.625062
4.960212
1.787636
-73.68435
3.950643
-29.24114
2.443116
1.750331
2.13677
2.247849
3.589379
-24.85354
-45.91804
3.47183
3.141214
14.56091
-2.827102
3.793502
3.710523
4.121492
0.4996779
0.8393924
2.512811
-9.992221
1.051927
0.1451825
2.593521
3.222198
1.564006
2.596875
3.54588
2.860131
-10.23725
2.368935
-3.025333
11.9614
3.331432
-9.337521
2.683349
-6.687114
1.15899
-25.74265
1.527827
0.5082705
0.8898783
-14.18849
-38.59275
-41.62666
1.78251
-41.66135
2.229339
1.129231
-0.2448117
1.35911
17.67724
3.40533
-37.37527
-62.65553
4.100118
3.696527
0.8165323
3.661879
3.728863
4.095144
2.753654
3.249819
3.916456
-10.66211
2.02038
3.542689
3.78171
3.03474
1.422897
2.824273
4.292955
3.256157
2.813143
-7.180608
1.004326
3.182964
1.231182
0.5983541
-25.3932
-6.661458
-2.53512
-13.75022
-1.370746
2.672348
-16.09825
-4.609422
4.180665
-1.727197
0.3872375
12.01537
-48.76946
-17.466
2.13154
2.059932
17.98228
0.3367243
2.895152
2.725971
-0.7756125
0.6931529
-47.7664
-26.36425
-15.72293
14.72475
10.87447
0.607324
-46.74633
-40.02021
-61.42832
3.678726
-4.243209
0.3971989
2.548909
4.358118
0.4711376
3.344352
0.6778964
2.852205
3.436364
2.94376
3.14012
-21.99619
3.168754
1.650959
2.025774
-18.82838
21.10313
4.580333
-5.879481
-29.43776
-12.19082
11.8916
3.48369
-6.370938
-9.781842
-56.55619
0.8400074
-20.9915
3.008013
-57.36003
-24.56865
4.521419
3.623107
11.97761
2.925912
15.80238
2.332582
5.636477
3.647119
0.8082513
-0.7323519
4.516321
2.340733
1.875162
3.337786
-36.35021
5.728042
2.841415
-5.329342
2.954041
2.963079
-8.861312
-6.251195
-46.65364
0.8595626
2.590624
27.83238
0.5403251
2.933235
-11.5627
0.1139605
-52.47621
2.773558
5.653188
2.785404
2.787624
-34.20753
2.03823
3.137348
6.057082
3.422596
2.707851
0.6584919
18.41427
4.201385
-19.97953
9.122046
-7.950563
2.150862
-67.42317
2.52963
2.798955
4.161057
3.47822
2.774586
-47.32883
-44.13744
-29.89603
0.06708
0.4823688
-45.45131
2.496929
-15.68004
2.766701
3.104281
-8.648148
-30.75585
0.7167131
-70.01993
2.487041
-3.854252
2.789786
-16.37586
11.34575
2.06716
1.114743
3.377787
-0.1816802
1.65554
18.26414
0.9318092
-16.07387
2.110357
2.114733
4.52589
3.367419
1.958072
1.72229
-9.676259
-1.306971
2.243836
0.3692214
-58.7534
3.154072
3.730975
-2.378272
-1.400679
2.643606
2.656219
-0.8340669
0.9931713
3.439757
-60.72823
28.77019
-6.263522
4.37672
3.77116
-26.99667
0.7997438
2.137173
0.9630803
3.816464
2.043603
2.661544
1.938953
-27.33165
1.683543
22.36137
33.12593
3.464366
-1.648575
0.3435631
3.265254
2.978327
0.8385387
33.84996
-46.00615
0.2190507
1.520558
3.076524
-0.5999161
3.787424
-1.133196
4.657915
2.77013
3.635902
-44.21146
2.826753
2.76942
-4.131163
20.16216
-9.561603
-0.02731467
2.214751
-66.26911
32.76903
-63.56889
2.227475
-8.63213
-3.118763
3.209481
2.977783
33.59918
-3.678759
2.201806
-4.762692
1.317902
7.090616
12.59804
3.299475
0.6976568
3.063698
2.811621
21.07512
2.481372
-4.018302
-0.3664122
2.346963
-1.135847
21.64429
4.583841
9.358396
-18.55347
-33.66091
3.401697
3.320096
-14.76086
-11.32933
-35.08682
-3.418472
4.524165
3.179455
1.530648
-2.76887
-9.070455
6.821933
-7.515887
-8.90837
4.00313
2.763691
-0.3622203
-51.48516
-14.3017
1.837406
4.536831
1.429832
0.7487688
3.278919
2.807569
2.843924
2.175657
-54.7479
-1.014489
0.3563851
0.8184683
-37.97901
2.713024
2.998576
-7.021139
5.129813
2.136257
2.637887
37.96399
0.6016574
2.570074
2.066619
2.371605
-35.2657
-26.02333
-40.39117
14.49636
3.175709
2.906981
2.83328
2.897014
3.56675
2.758055
3.885914
3.247039
2.433495
2.477924
6.561292
1.534766
13.50612
9.934016
4.452709
-3.426428
0.8757721
1.172869
-0.4077793
-8.039378
5.360177
-37.98722
-52.49069
2.695153
3.441346
-64.61564
43.05946
-76.22526
2.742888
3.263364
5.686138
-3.967755
9.983018
-19.32597
7.66612
5.135594
2.097704
4.625487
2.757504
4.732021
1.958694
-100.7651
1.994442
2.6812
1.43931
3.170973
-45.42586
-9.203089
-9.934984
2.636075
15.97526
1.739496
3.127339
3.069474
2.557141
-54.25228
2.83863
4.763438
29.48945
3.423061
3.121348
3.172942
25.11835
2.001795
2.008287
4.44261
-3.556154
2.744124
0.9924743
-82.09776
3.788979
-66.31914
3.03165
0.8718778
46.93494
-0.2149776
1.061102
3.492609
4.87653
3.311954
3.207865
-74.01318
45.45227
4.25743
-3.066723
46.98023
0.3306036
0.6749478
0.5435708
-17.93499
2.014326
3.986541
-1.070971
3.497347
-11.57459
-46.39135
2.790927
2.827622
4.966045
3.139429
15.96935
1.897699
2.665797
3.104679
2.183553
2.202343
2.107603
2.091717
3.272122
2.85627
3.119757
-24.71938
-82.65492
-35.43205
-28.17969
-25.9382
1.567632
-2.990864
2.557993
2.824392
5.236847
-43.2893
-5.435338
28.69316
-13.92171
2.974938
2.545149
2.951571
-10.74678
-12.11988
0.9847543
3.783964
-83.91584
2.935853
1.806839
0.7112202
3.191341
2.891044
4.717744
2.701744
3.05071
0.3739226
3.065678
4.329372
2.142939
2.273681
0.5327321
1.843212
-28.69603
-8.809077
2.353475
4.236475
3.702899
-0.879903
-33.42602
3.653639
2.59346
0.6001923
2.146229
9.154899
17.01155
4.610767
0.4968647
2.862983
-13.12944
-66.48763
-53.00168
0.964795
-10.43935
-8.241746
-33.57187
10.29065
1.440965
-4.752154
1.699102
-16.25717
-13.21515
2.54287
-7.806525
-3.064382
0.861861
29.63283
2.497056
-10.74092
2.391269
1.960676
1.852113
-3.395687
2.713034
3.18581
18.39877
4.941007
-7.479504
-9.025917
1.165378
5.087367
8.609993
0.667976
-12.0485
1.830455
39.32605
-0.6665192
8.563047
1.606697
-6.33583
2.544972
2.558879
6.849452
18.29554
3.257226
3.334396
3.205495
2.673564
-29.76096
-2.530667
-8.939894
-19.39682
0.8079107
-0.7973341
39.44539
-66.43168
2.891819
2.160301
2.860423
3.087482
-14.49301
2.554549
1.398805
3.910448
4.578625
6.376131
9.078492
-10.35062
-6.848273