/*--------------------------------*- C++ -*----------------------------------*\
| =========                 |                                                 |
| \\      /  F ield         | OpenFOAM: The Open Source CFD Toolbox           |
|  \\    /   O peration     | Version:  2406                                  |
|   \\  /    A nd           | Website:  www.openfoam.com                      |
|    \\/     M anipulation  |                                                 |
\*---------------------------------------------------------------------------*/
FoamFile
{
    version     2.0;
    format      ascii;
    arch        "LSB;label=32;scalar=64";
    class       surfaceScalarField;
    location    "3.22";
    object      phi;
}
// * * * * * * * * * * * * * * * * * * * * * * * * * * * * * * * * * * * * * //

dimensions      [0 3 -1 0 0 0 0];

oriented        oriented;

internalField   nonuniform List<scalar> 
23794
(
-0.0001693198
-0.001656548
0.001825868
-0.0008071166
0.0006377968
0.00128743
-0.002094546
0.002219675
-0.0009322453
-0.0001973434
0.002417018
-0.00102326
0.000825917
0.0004137371
-0.001436998
0.0008724955
-0.0004587584
-0.0008201359
0.001692631
-0.002097756
0.001277621
-0.0002982156
-0.001799541
0.001673291
-0.001971507
0.003196119
-0.001522828
0.003677339
-0.0004812193
0.002756368
0.0009209706
0.001567936
0.001188432
0.001374433
0.0001935031
0.001798011
-0.0004235776
0.003383898
-0.001585888
0.005413573
-0.002029674
0.006082134
-0.0006685617
0.004619964
0.00146217
0.000774159
0.003845805
-0.003899252
0.004673411
-0.004316814
0.0004175618
-0.0005242106
-0.003792604
0.002522799
-0.00304701
0.00358774
-0.001064941
0.004574917
-0.0009871767
0.006903057
-0.00232814
0.01055115
-0.003648091
0.01105609
-0.0005049474
0.004941778
0.006114316
-0.001141809
0.006083587
-0.001295349
0.0001535403
0.001507361
-0.00280271
-0.0004429698
0.001950331
-0.006047802
0.005604833
-0.01023429
0.004186485
-0.01255839
0.002324098
-0.01380473
0.001246349
-0.01456927
0.0007645381
-0.01508709
0.0005178224
-0.01544516
0.0003580635
-0.01568938
0.0002442244
-0.01575083
6.144842e-05
-0.01573167
-1.916497e-05
-0.01567367
-5.799662e-05
-0.01557142
-0.0001022505
-0.01545551
-0.0001159091
-0.01528211
-0.0001733983
-0.01506964
-0.0002124678
-0.01479969
-0.000269959
-0.01450766
-0.0002920247
-0.01420032
-0.0003073367
-0.01383951
-0.0003608098
-0.01346035
-0.0003791677
-0.01307511
-0.0003852385
-0.01262582
-0.0004492875
-0.01215492
-0.0004709
-0.01165967
-0.0004952505
-0.01115949
-0.0005001834
-0.01063961
-0.0005198753
-0.01007011
-0.0005695008
-0.009509897
-0.0005602131
-0.008909477
-0.0006004204
-0.008291737
-0.0006177399
-0.007670572
-0.0006211649
-0.007041898
-0.000628674
-0.006381719
-0.0006601795
-0.00572087
-0.0006608488
-0.005053474
-0.0006673964
-0.004373723
-0.0006797507
-0.00369702
-0.0006767031
-0.003033987
-0.0006630333
-0.002328859
-0.0007051278
-0.001626959
-0.0007019002
-0.0009076547
-0.0007193042
-0.0001181006
-0.0007895541
0.000624314
-0.0007424147
0.001305949
-0.0006816352
0.001988911
-0.000682962
0.002670005
-0.0006810937
0.00333869
-0.0006686849
0.004009859
-0.0006711688
0.004663527
-0.0006536686
0.005329253
-0.0006657259
0.005975095
-0.0006458416
0.006587775
-0.0006126803
0.007203918
-0.0006161425
0.007806608
-0.0006026907
0.008386683
-0.0005800744
0.008962909
-0.0005762264
0.009523718
-0.0005608085
0.01003125
-0.0005075297
0.01053282
-0.0005015748
0.01101829
-0.0004854727
0.01146237
-0.0004440759
0.01190597
-0.0004435973
0.01229833
-0.0003923591
0.01266211
-0.0003637812
0.01298656
-0.0003244526
0.0132679
-0.0002813423
0.01354237
-0.0002744661
0.01377876
-0.0002363896
0.01397465
-0.0001958911
0.01412722
-0.0001525727
0.0142353
-0.000108078
0.01431066
-7.536293e-05
0.01431655
-5.88409e-06
0.01426879
4.775302e-05
0.01410366
0.0001651321
0.01372849
0.0003751716
0.01309391
0.0006345834
0.01198515
0.001108753
0.009782813
0.002202342
0.005704686
0.004078127
0.0006782976
0.005026388
-0.002775795
0.003454092
-0.004447086
0.001671291
-0.004420508
-2.657728e-05
-0.002266744
-0.002153764
0.001846605
-0.004113349
0.004862476
-0.003015872
-0.0007421475
0.005604624
-0.008661709
0.007919562
-0.01079518
0.002133469
-0.008243325
-0.002551853
-0.005053268
-0.003190057
-0.003033037
-0.002020231
-0.001809155
-0.001223882
-0.0003532822
-0.001455873
0.001564719
-0.001918002
0.002866193
-0.001301474
0.002699506
0.0001666875
0.0018337
0.0008658057
0.0008498634
0.0009838367
-1.288965e-05
0.000862753
-0.0003867129
0.0003738233
-0.0001499478
-0.0002367651
0.0001288218
-0.0002787696
0.0001601573
-3.133558e-05
-6.928611e-05
0.0002294435
-0.0005127925
0.0004435064
-0.00090715
0.0003943574
-0.001190578
0.0002834277
-0.001721217
0.0005306389
-0.002280277
0.0005590602
-0.002408914
0.000128637
-0.002141654
-0.0002672594
-0.001691356
-0.0004502983
-0.001010548
-0.0006808083
-0.0001078842
-0.0009026633
0.0008450176
-0.0009529017
0.001708848
-0.0008638301
0.00221905
-0.0005102027
0.0005625025
0.002207187
-0.00346973
0.003088411
0.000605981
0.002239003
0.001369292
-0.002857857
0.001365691
-0.0009286442
-0.001699845
0.005482555
-0.002501154
0.001627226
-0.000923825
-0.003014327
-0.0001968688
-0.001185715
-0.001902069
0.003397832
-0.002883145
0.002258696
-0.0002226346
-0.004460051
0.002053992
-0.004248133
0.003878617
-0.003347453
0.004946428
-0.00154903
0.004906769
0.0009606292
0.003464501
0.0026307
0.001748059
0.001909945
0.001864324
-0.000539842
0.004547521
-0.004269085
0.007268694
-0.004750848
0.008364818
-0.001764686
0.007501247
0.002325741
0.00362427
0.007722782
-0.003632117
0.0119298
-0.005903002
0.002688447
-0.001818048
-0.007877557
0.0005455483
-0.005410606
0.001205822
-0.001725215
0.001714361
-0.001495715
0.003824294
-0.004438074
0.007613716
-0.007437512
0.0104585
-0.003349728
0.007645653
0.00892716
0.0008663042
0.01286294
-0.004490935
0.005510779
-0.009212263
0.001918618
-0.0144938
0.007231867
-0.01926594
0.01037697
-0.0218425
0.00676305
-0.02253279
0.00301439
-0.02272768
0.00144124
-0.02276153
0.0007983865
-0.02272619
0.0004824826
-0.02264951
0.0002813845
-0.02254762
0.0001423327
-0.02234096
-0.0001452126
-0.02211971
-0.000240415
-0.02188204
-0.0002956673
-0.02159821
-0.0003860846
-0.02130183
-0.0004122904
-0.02094576
-0.0005294678
-0.02055128
-0.0006069475
-0.02009455
-0.0007266825
-0.01961462
-0.0007719606
-0.01912558
-0.0007963685
-0.01857887
-0.0009075229
-0.01800952
-0.0009485166
-0.01743857
-0.0009561903
-0.01679398
-0.001093882
-0.01612924
-0.001135636
-0.01543642
-0.001188073
-0.01473732
-0.001199285
-0.01402152
-0.001235669
-0.01324664
-0.001344388
-0.01248458
-0.001322266
-0.01168058
-0.001404427
-0.01085451
-0.001443809
-0.01002797
-0.001447702
-0.009197409
-0.001459236
-0.008328465
-0.001529124
-0.007457854
-0.001531459
-0.006582501
-0.00154275
-0.005693441
-0.00156881
-0.004810021
-0.001560123
-0.0039414
-0.001531654
-0.003026835
-0.001619693
-0.002111572
-0.001617163
-0.0011754
-0.001655476
-0.0001629139
-0.00180204
0.0007955976
-0.001700926
0.001687364
-0.001573401
0.002577647
-0.001573246
0.003464811
-0.001568258
0.004340362
-0.001544235
0.005220091
-0.001550898
0.00607994
-0.001513518
0.006953805
-0.001539591
0.007806067
-0.001498104
0.008618383
-0.001424996
0.009436827
-0.001434586
0.01024377
-0.001409631
0.01102265
-0.001358953
0.01179747
-0.001351054
0.01255948
-0.001322813
0.01325887
-0.001206917
0.01395522
-0.001197933
0.01463379
-0.001164036
0.01526614
-0.001076429
0.01589996
-0.00107742
0.01647385
-0.000966243
0.01702279
-0.0009127187
0.0175279
-0.0008295707
0.01798581
-0.0007392439
0.01844263
-0.0007312908
0.01885937
-0.0006531259
0.01923203
-0.0005685544
0.01956067
-0.0004812142
0.01984434
-0.0003917428
0.02009498
-0.0003260079
0.02028529
-0.0001961884
0.02048219
-0.0001491536
0.02065682
-9.496821e-06
0.02074079
0.0002912
0.02075746
0.000617918
0.02067107
0.001195145
0.02015
0.002723408
0.01774791
0.006480212
0.01205977
0.01071453
0.004909237
0.01060463
0.000556383
0.006024144
0.0008116884
-0.0002818826
0.002340608
-0.003682684
0.003829204
-0.005601945
0.003691424
-0.002878092
-0.004073778
0.01336983
-0.0111362
0.01498198
-0.01133081
0.002328081
-0.008374008
-0.005508658
-0.004951114
-0.00661295
-0.002949138
-0.004022208
-0.001795678
-0.002377342
-0.0003959409
-0.00285561
0.001855612
-0.004169555
0.003862118
-0.00330798
0.00373554
0.0002932663
0.002231916
0.00236943
0.0008381127
0.00237764
1.339502e-06
0.001699526
-0.0001097321
0.0004848949
0.0004587037
-0.0008052009
0.001163978
-0.0009840437
0.001387516
-0.0002548739
0.001018183
0.0005987768
0.0001931069
0.001268582
-0.0007330981
0.001320562
-0.001636988
0.001187317
-0.002562139
0.00145579
-0.003147405
0.001144327
-0.003158842
0.0001400734
-0.002749541
-0.0006765607
-0.002115309
-0.00108453
-0.001216589
-0.001579528
-6.138333e-05
-0.002057869
0.001166732
-0.002181017
0.002253152
-0.001950251
0.003152277
-0.001409327
0.0002450492
0.004278945
-0.004402913
0.003212378
0.002697591
0.003820357
0.001600701
-0.001760967
-0.0003068097
0.0009788666
-0.003351368
0.008527113
-0.003832788
0.002108645
-0.002781152
-0.004065963
-0.00254917
-0.001417696
-0.003662241
0.004510902
-0.003577976
0.002174432
-0.0001774021
-0.007860625
0.002565295
-0.00699083
0.004743441
-0.005525599
0.005873209
-0.002678799
0.006109302
0.0007245365
0.005088153
0.003651849
0.002909368
0.00408873
0.002908039
-0.0005385135
0.006409583
-0.007770629
0.009583939
-0.007925204
0.01070364
-0.002884383
0.009474087
0.003555291
0.006070769
0.0111261
-0.001661411
0.01966198
-0.006256324
0.00728336
-0.004211998
-0.009921884
-0.003586571
-0.006036033
-0.004324805
-0.0009869806
-0.004175167
-0.001645354
-0.001557723
-0.007055518
0.002556038
-0.01155127
0.005782054
-0.006575744
0.0046992
0.01001001
-0.002979038
0.02054117
-0.01441453
0.01694627
-0.02247898
0.009983071
-0.02570701
0.0104599
-0.026687
0.01135695
-0.0265819
0.006657953
-0.02649477
0.002927259
-0.02659427
0.001540738
-0.02667165
0.0008757746
-0.02671629
0.0005271221
-0.02671352
0.000278607
-0.02667555
0.0001043674
-0.02647797
-0.0003427909
-0.02623363
-0.0004847616
-0.02596385
-0.0005654393
-0.02563914
-0.0007108035
-0.02530135
-0.0007500804
-0.02488898
-0.0009418298
-0.02443184
-0.001064094
-0.02389831
-0.001260205
-0.0233366
-0.001333676
-0.02276521
-0.001367756
-0.02212139
-0.001551341
-0.02145029
-0.001619625
-0.02077885
-0.001627623
-0.02001593
-0.001856803
-0.01922895
-0.001922618
-0.0184078
-0.002009227
-0.01757872
-0.00202836
-0.01672953
-0.002084856
-0.01580698
-0.002266943
-0.0149014
-0.002227839
-0.01394292
-0.002362916
-0.01295803
-0.002428695
-0.01197188
-0.00243385
-0.01098059
-0.002450529
-0.009942757
-0.002566956
-0.008902917
-0.002571299
-0.007856762
-0.002588906
-0.006794979
-0.002630592
-0.005739364
-0.002615738
-0.004702141
-0.002568878
-0.003612251
-0.002709582
-0.0025208
-0.002708615
-0.001405596
-0.00277068
-0.0002072472
-0.003000389
0.0009324375
-0.002840611
0.002002583
-0.002643547
0.003071433
-0.002642095
0.004136058
-0.002632883
0.005186359
-0.002594537
0.006240136
-0.002604674
0.00726894
-0.002542321
0.008313933
-0.002584584
0.009331837
-0.002516007
0.01030148
-0.002394635
0.01127796
-0.002411075
0.01223941
-0.00237108
0.01316671
-0.002286252
0.01408932
-0.002273663
0.0149954
-0.002228888
0.01582535
-0.002036871
0.01665215
-0.002024732
0.01745685
-0.001968735
0.01820482
-0.001824399
0.01895633
-0.001828929
0.01963375
-0.001643666
0.02028215
-0.001561122
0.02087704
-0.001424457
0.02141367
-0.001275873
0.02195093
-0.00126856
0.02243722
-0.001139413
0.02287247
-0.001003805
0.02325392
-0.0008626621
0.02358154
-0.0007193597
0.023871
-0.0006154716
0.02408436
-0.0004095516
0.02428252
-0.0003473116
0.02441903
-0.0001460063
0.02442581
0.0002844204
0.02436413
0.0006796001
0.02428845
0.001270821
0.02442899
0.002582875
0.0246227
0.006286504
0.02299811
0.01233912
0.01873347
0.01486926
0.01500713
0.009750487
0.01346688
0.001258365
0.01215595
-0.002371752
0.008750342
-0.002196337
0.002905483
0.002966767
-0.005413012
0.02168832
-0.01071171
0.02028069
-0.01059074
0.00220711
-0.007167957
-0.008931444
-0.003315122
-0.01046579
-0.001465181
-0.005872149
-0.0007697885
-0.003072735
-2.603575e-05
-0.003599362
0.001721737
-0.005917327
0.003646644
-0.005232888
0.003498055
0.0004418556
0.001969859
0.003897626
0.0005171287
0.00383037
-0.0004840493
0.002700704
-0.0007278131
0.0007286588
2.707109e-05
-0.001560085
0.001118422
-0.002075395
0.001831663
-0.0009681146
0.001739845
0.0006905951
0.0008502979
0.002158129
-0.0003368987
0.002507759
-0.00172561
0.002576029
-0.003127963
0.002858143
-0.00395107
0.001967433
-0.00388395
7.29531e-05
-0.00329504
-0.00126547
-0.002518082
-0.001861489
-0.001425576
-0.002672034
-3.793402e-05
-0.003445511
0.001422864
-0.003641815
0.002764914
-0.0032923
0.003696877
-0.002341291
-0.0004609864
0.005755238
-0.005349777
0.002806917
0.004443229
0.005132365
0.001823767
0.0008584945
-0.001598167
0.004400801
-0.00472421
0.01165316
-0.004879385
0.002263821
-0.004314145
-0.004631202
-0.004844788
-0.0008870532
-0.005373547
0.005039661
-0.00421021
0.001011094
-6.202371e-05
-0.01200881
0.003432981
-0.01048583
0.006058877
-0.008151495
0.007214962
-0.003834884
0.007332457
0.0006070409
0.006704514
0.004279792
0.005008282
0.005784962
0.005117994
-0.0006482253
0.00884459
-0.01149722
0.01218637
-0.01126699
0.01325559
-0.003953596
0.01153518
0.0052757
0.008062769
0.01459851
0.0002325123
0.02749224
-0.006504328
0.0140202
-0.007937394
-0.008488819
-0.009784729
-0.004188698
-0.01161783
0.0008461216
-0.01183188
-0.00143131
-0.009373514
-0.009513879
-0.004851697
-0.01607309
-0.001515816
-0.009911625
-0.001785113
0.01027931
-0.01250615
0.03126221
-0.02578187
0.03022199
-0.03154478
0.01574597
-0.0322291
0.01114422
-0.03172433
0.01085218
-0.03155595
0.006489575
-0.03190645
0.003277755
-0.03218658
0.001820872
-0.03234381
0.001033
-0.0324078
0.0005911171
-0.03239102
0.0002618283
-0.03232392
3.726632e-05
-0.03205401
-0.0006126992
-0.03173478
-0.0008039899
-0.03138564
-0.0009145822
-0.0309704
-0.001126042
-0.03054351
-0.001176969
-0.03002975
-0.001455591
-0.02946379
-0.001630059
-0.02880726
-0.001916733
-0.02811743
-0.00202351
-0.02741747
-0.002067716
-0.02663299
-0.00233582
-0.02581588
-0.002436734
-0.02499887
-0.00244463
-0.02407602
-0.002779651
-0.02312221
-0.00287643
-0.02212852
-0.003002921
-0.02112666
-0.003030217
-0.0201019
-0.003109621
-0.01898774
-0.003381099
-0.01789632
-0.003319254
-0.01674027
-0.003518965
-0.01555418
-0.003614793
-0.01436552
-0.003622511
-0.01317156
-0.003644488
-0.01192225
-0.00381626
-0.0106709
-0.003822655
-0.009411999
-0.003847803
-0.008136738
-0.003905854
-0.006867548
-0.003884928
-0.005624167
-0.003812259
-0.004319146
-0.004014604
-0.003013887
-0.004013874
-0.001685148
-0.004099419
-0.0002665558
-0.004418982
0.001091698
-0.004198865
0.002382903
-0.003934752
0.003674367
-0.003933559
0.004956818
-0.003915334
0.006219813
-0.003857532
0.007485377
-0.003870238
0.008719973
-0.003776917
0.00997545
-0.003840061
0.0111955
-0.003736061
0.01235992
-0.00355905
0.01353352
-0.003584677
0.01468726
-0.003524823
0.01580311
-0.0034021
0.01691498
-0.00338553
0.0180044
-0.003318308
0.01900598
-0.003038454
0.02000484
-0.003023585
0.02097611
-0.002940005
0.02188141
-0.002729699
0.02279185
-0.002739373
0.02361403
-0.002465849
0.0244016
-0.002348684
0.02512606
-0.002148925
0.02578387
-0.00193368
0.02644212
-0.001926809
0.02703983
-0.001737119
0.02757934
-0.001543323
0.02805344
-0.001336758
0.02846646
-0.001132381
0.02883678
-0.0009857888
0.0291157
-0.0006884771
0.02938099
-0.0006125945
0.02957059
-0.0003356053
0.02958871
0.0002662909
0.02948261
0.0007857089
0.02926902
0.001484408
0.02900366
0.002848232
0.02927542
0.00601475
0.03003563
0.01157891
0.02979106
0.01511383
0.02839577
0.01114578
0.02664552
0.003008611
0.02405895
0.000214819
0.01730249
0.004560122
0.005895781
0.01437348
-0.003918269
0.03150237
-0.00852067
0.02488309
-0.008872234
0.002558674
-0.0048939
-0.01290978
-0.0006348595
-0.01472483
0.001734453
-0.008241461
0.001800902
-0.003139184
0.001356308
-0.003154768
0.002010989
-0.006572008
0.003212684
-0.006434583
0.003023638
0.0006309013
0.001676205
0.005245059
6.778285e-05
0.005438792
-0.001279284
0.004047771
-0.001640712
0.001090087
-0.0007486889
-0.002452109
0.0006219404
-0.003446024
0.001723461
-0.002069635
0.001959849
0.0004542068
0.001131809
0.002986169
-0.0001683838
0.003807952
-0.001970313
0.004377958
-0.003899194
0.004787024
-0.004840066
0.002908306
-0.004547649
-0.000219464
-0.003815341
-0.001997778
-0.002926099
-0.00275073
-0.001619124
-0.003979009
4.93019e-05
-0.005113936
0.001818515
-0.005411028
0.003436476
-0.00491026
0.004561014
-0.003465829
-0.00124975
0.007073817
-0.006571327
0.002304426
0.005953198
0.006252985
0.002203768
0.004607925
-0.002590972
0.009195541
-0.005911416
0.0149736
-0.005806368
0.002158772
-0.005322787
-0.005114784
-0.006345609
0.0001357691
-0.006665841
0.005359893
-0.004815178
-0.0008395692
0.0002734768
-0.01709747
0.004635313
-0.01484767
0.007853926
-0.01137011
0.009121452
-0.00510241
0.0089199
0.0008085936
0.008451078
0.004748614
0.007868246
0.006367794
0.008418566
-0.001198545
0.01179847
-0.01487712
0.01490116
-0.01436969
0.01567025
-0.004722679
0.01341278
0.007533165
0.009451926
0.01855936
0.001442677
0.03550148
-0.007534947
0.02299782
-0.01321205
-0.002811714
-0.01795536
0.0005546142
-0.02090877
0.003799529
-0.02179032
-0.0005497576
-0.02022788
-0.01107632
-0.01630806
-0.01999292
-0.01247016
-0.01374952
-0.01590411
0.01371326
-0.02677973
0.04213783
-0.0356111
0.03905336
-0.03737803
0.0175129
-0.03748316
0.01124935
-0.03732111
0.01069013
-0.03748114
0.006649608
-0.03793412
0.003730734
-0.0382451
0.002131851
-0.03844383
0.001231729
-0.03856149
0.0007087741
-0.03856341
0.0002637458
-0.03852019
-5.950418e-06
-0.03822317
-0.0009097167
-0.03786787
-0.001159294
-0.03747584
-0.001306607
-0.03699109
-0.001610795
-0.03650864
-0.001659415
-0.03590488
-0.002059353
-0.03524509
-0.002289848
-0.03446874
-0.002693083
-0.03365323
-0.002839018
-0.03282914
-0.002891813
-0.03189527
-0.003269685
-0.03092274
-0.003409267
-0.02995412
-0.003413252
-0.0288545
-0.003879267
-0.02771433
-0.004016607
-0.02652694
-0.004190311
-0.02533204
-0.004225118
-0.02410914
-0.004332519
-0.02277195
-0.004718288
-0.02146898
-0.004622224
-0.0200816
-0.004906345
-0.0186608
-0.005035587
-0.01723395
-0.005049369
-0.01580197
-0.005076463
-0.01429947
-0.005318761
-0.01279437
-0.005327757
-0.01127751
-0.005364663
-0.009744751
-0.005438611
-0.008216685
-0.005412995
-0.006724882
-0.005304061
-0.005158974
-0.005580512
-0.003596924
-0.005575925
-0.002016832
-0.00567951
-0.0003419484
-0.006093865
0.001277013
-0.005817827
0.002839346
-0.005497085
0.00440122
-0.005495433
0.005942889
-0.005457003
0.007458337
-0.00537298
0.008976742
-0.005388643
0.01045556
-0.005255736
0.01196259
-0.005347087
0.01342039
-0.005193863
0.01481768
-0.00495634
0.01622852
-0.004995524
0.01760732
-0.004903616
0.01894569
-0.004740469
0.02028437
-0.004724209
0.02158697
-0.004620915
0.02278641
-0.004237892
0.02398483
-0.004222005
0.02514632
-0.004101491
0.02622529
-0.003808673
0.02731646
-0.003830541
0.02829587
-0.003445264
0.0292335
-0.003286309
0.0300944
-0.003009824
0.03087199
-0.002711274
0.03165352
-0.002708334
0.03235509
-0.002438696
0.03299155
-0.00217978
0.03354289
-0.001888103
0.03402088
-0.00161037
0.03445119
-0.001416095
0.03475735
-0.0009946346
0.03505521
-0.0009104581
0.03525325
-0.0005336448
0.03524432
0.0002752189
0.03509872
0.0009313078
0.03486222
0.00172091
0.03454003
0.003170421
0.03443051
0.00612427
0.03525732
0.01075211
0.03645076
0.01392039
0.03648039
0.01111614
0.03491393
0.004575073
0.03255914
0.002569608
0.02611294
0.01100633
0.01223692
0.0282495
0.0003574955
0.04338179
-0.003608311
0.02884889
-0.004462888
0.003413252
-8.162828e-05
-0.01729104
0.00412621
-0.01893266
0.006408555
-0.01052381
0.006132975
-0.002863603
0.004488587
-0.001510381
0.003368274
-0.005451695
0.003282533
-0.006348842
0.002894294
0.00101914
0.001510822
0.006628531
-0.0004959854
0.007445599
-0.002263067
0.005814853
-0.002631318
0.001458338
-0.001505041
-0.003578385
2.520081e-05
-0.004976265
0.001347042
-0.003391476
0.001855689
-5.444033e-05
0.001107164
0.003734693
-0.0003067652
0.005221882
-0.002530434
0.006601627
-0.004901111
0.007157701
-0.005771833
0.003779028
-0.005288795
-0.0007025015
-0.004489996
-0.002796577
-0.003433356
-0.003807371
-0.001835183
-0.005577181
0.0002162658
-0.007165386
0.00238174
-0.007576502
0.004332724
-0.006861244
0.005746571
-0.004879676
-0.002074505
0.008692384
-0.008313082
0.001925124
0.007575806
0.007369562
0.002911395
0.009272336
-0.003230905
0.01533784
-0.006998527
0.01874122
-0.006753534
0.001913778
-0.006190573
-0.005677744
-0.007461515
0.001406712
-0.007884638
0.005783016
-0.005681848
-0.003042359
0.0006236427
-0.02340296
0.006168489
-0.02039252
0.01023145
-0.01543307
0.01166641
-0.006537369
0.01101192
0.001463081
0.01037316
0.005387371
0.01070806
0.006032897
0.01183087
-0.00232136
0.01493971
-0.01798596
0.01764236
-0.01707233
0.01778027
-0.004860593
0.01463405
0.01067938
0.009888985
0.02330443
0.001512893
0.04387758
-0.01004405
0.03455477
-0.02015871
0.00730294
-0.02736639
0.007762295
-0.03136037
0.007793514
-0.0333446
0.001434466
-0.03375759
-0.01066333
-0.03300597
-0.02074453
-0.03279454
-0.01396096
-0.03708195
0.01800068
-0.04261151
0.04766739
-0.04392375
0.0403656
-0.04370628
0.01729543
-0.04470776
0.01225083
-0.04498171
0.01096408
-0.04534519
0.007013086
-0.04586359
0.004249142
-0.04620718
0.002475436
-0.04641009
0.001434637
-0.04651964
0.0008183273
-0.0464633
0.0002074096
-0.04638474
-8.451678e-05
-0.0460031
-0.001291358
-0.04556311
-0.001599276
-0.04507194
-0.001797778
-0.04446059
-0.002222143
-0.04388061
-0.002239395
-0.04313918
-0.002800787
-0.04234157
-0.003087458
-0.04139901
-0.003635647
-0.04040951
-0.003828519
-0.0394185
-0.00388282
-0.0382888
-0.004399385
-0.0371162
-0.004581863
-0.0359562
-0.004573252
-0.03463431
-0.005201156
-0.03325885
-0.005392073
-0.03183326
-0.005615897
-0.03039907
-0.005659309
-0.0289353
-0.005796286
-0.02732324
-0.006330348
-0.02576815
-0.006177321
-0.02409959
-0.006574898
-0.02239563
-0.006739552
-0.02068419
-0.006760804
-0.01896857
-0.006792083
-0.01716441
-0.007122928
-0.01535885
-0.007133316
-0.01352891
-0.007194603
-0.01168457
-0.007282943
-0.009835266
-0.007262304
-0.008044307
-0.007095021
-0.006162758
-0.007462061
-0.004286811
-0.007451871
-0.002410112
-0.007556209
-0.0004347478
-0.00806923
0.001496018
-0.007748593
0.003395186
-0.007396253
0.005275698
-0.007375945
0.007125251
-0.007306556
0.00894235
-0.007190079
0.01076129
-0.007207581
0.0125309
-0.007025346
0.01434354
-0.007159727
0.01608594
-0.006936262
0.01776756
-0.006637967
0.01947127
-0.006699233
0.02112033
-0.006552669
0.02272649
-0.006346637
0.02434865
-0.006346362
0.02590898
-0.006181245
0.0273454
-0.005674318
0.02878823
-0.00566483
0.03018392
-0.005497185
0.03147482
-0.005099573
0.03279012
-0.005145839
0.03396819
-0.004623331
0.03509653
-0.00441465
0.03613109
-0.004044387
0.03707016
-0.003650341
0.03801968
-0.003657851
0.03886303
-0.003282053
0.03964214
-0.002958884
0.04031019
-0.00255616
0.040898
-0.002198175
0.0414291
-0.001947199
0.04181626
-0.001381793
0.04218688
-0.001281075
0.04245429
-0.0008010554
0.04249869
0.0002308218
0.0423575
0.001072491
0.04210581
0.001972603
0.04178217
0.003494058
0.04151
0.006396447
0.04183116
0.01043095
0.0425907
0.01316084
0.04254106
0.01116578
0.04078225
0.006333886
0.03869775
0.004654103
0.03464704
0.01505704
0.02233554
0.040561
0.01034307
0.05537426
0.004460098
0.03473187
0.003460813
0.004412537
0.007164396
-0.02099462
0.01118176
-0.02295003
0.01303198
-0.01237402
0.01247391
-0.002305534
0.00972631
0.00123722
0.006454171
-0.002179556
0.004387263
-0.004281934
0.003278918
0.002127484
0.001463742
0.008443708
-0.001179346
0.01008869
-0.003314694
0.007950201
-0.003614692
0.001758336
-0.002150835
-0.005042243
-0.0004207603
-0.00670634
0.001010122
-0.004822358
0.001732529
-0.0007768472
0.0009980031
0.004469219
-0.0006866404
0.006906525
-0.003454651
0.009369637
-0.006113854
0.009816905
-0.006777458
0.004442632
-0.006181796
-0.001298164
-0.005323778
-0.003654594
-0.003996133
-0.005135016
-0.001968052
-0.007605263
0.0005998795
-0.009733317
0.003268893
-0.01024552
0.005661509
-0.00925386
0.007388786
-0.006606954
-0.002998801
0.01098198
-0.01081334
0.00175648
0.00973399
0.008617551
0.004428245
0.01457808
-0.003040405
0.02280649
-0.007258204
0.02295902
-0.00710557
0.001761144
-0.007021902
-0.005761412
-0.008507315
0.002892125
-0.008950211
0.006225911
-0.006674006
-0.005318564
0.0008859213
-0.03096288
0.0080084
-0.027515
0.01323882
-0.02066348
0.01489496
-0.008193516
0.01369014
0.002667902
0.01248991
0.006587599
0.01318626
0.005336555
0.01487297
-0.004008078
0.01813239
-0.02124538
0.02051116
-0.0194511
0.01976001
-0.004109442
0.0150496
0.0153898
0.008987599
0.02936643
-5.82324e-05
0.05292341
-0.0144321
0.04892863
-0.02792741
0.02079825
-0.03661209
0.01644698
-0.04135013
0.01253155
-0.0446064
0.004690738
-0.04735794
-0.00791179
-0.05043363
-0.01766884
-0.05435927
-0.01003533
-0.0577319
0.02137331
-0.05625709
0.04619258
-0.05227334
0.03638185
-0.05227387
0.01729596
-0.05370039
0.01367735
-0.0539348
0.01119849
-0.05431223
0.007390517
-0.05484628
0.004783189
-0.05522751
0.002856666
-0.05546972
0.001676842
-0.0556581
0.001006711
-0.05558217
0.0001314788
-0.05556814
-9.854306e-05
-0.0550658
-0.001793703
-0.05456413
-0.002100948
-0.05399582
-0.002366087
-0.05324398
-0.002973979
-0.05258816
-0.002895221
-0.05168628
-0.003702657
-0.05074984
-0.004023901
-0.04962136
-0.004764125
-0.04842915
-0.005020733
-0.04725507
-0.005056896
-0.04590685
-0.005747614
-0.04450069
-0.005988021
-0.04311003
-0.005963911
-0.04153688
-0.0067743
-0.03989126
-0.007037697
-0.03818571
-0.007321446
-0.03644955
-0.007395472
-0.03472426
-0.00752157
-0.03277268
-0.008281937
-0.0309248
-0.008025198
-0.02891216
-0.008587535
-0.02687477
-0.008776944
-0.02483027
-0.008805308
-0.02274805
-0.008874301
-0.02060354
-0.009267439
-0.01844899
-0.009287858
-0.01624967
-0.009393924
-0.0140488
-0.009483818
-0.0117741
-0.009537004
-0.00964023
-0.009228889
-0.007371606
-0.009730685
-0.005104518
-0.009718959
-0.002876427
-0.009784301
-0.0005437135
-0.01040194
0.001761263
-0.01005357
0.004075414
-0.009710404
0.006312546
-0.009613076
0.008537634
-0.009531644
0.01072196
-0.009374406
0.01289083
-0.009376447
0.01500858
-0.009143097
0.01720871
-0.00935986
0.01930082
-0.009028366
0.02131511
-0.008652263
0.02336182
-0.00874594
0.02535604
-0.00854689
0.02728656
-0.008277157
0.02922268
-0.008282482
0.0310982
-0.008056763
0.03281295
-0.00738907
0.03454097
-0.007392844
0.0361938
-0.007150022
0.03775442
-0.006660192
0.03933368
-0.006725098
0.04073621
-0.006025857
0.04210035
-0.005778794
0.04332332
-0.005267358
0.04444768
-0.004774696
0.04559114
-0.00480131
0.0465817
-0.004272618
0.04752502
-0.0039022
0.04830336
-0.003334497
0.04900714
-0.002901964
0.04964858
-0.002588631
0.05008646
-0.001819675
0.05053943
-0.001734045
0.05085637
-0.001117992
0.05085435
0.0002328403
0.05068824
0.001238593
0.05040125
0.002259597
0.05009432
0.003800988
0.04987077
0.006620002
0.05012471
0.010177
0.05051242
0.01277314
0.05006186
0.01161634
0.04795124
0.008444506
0.04530513
0.007300214
0.04343725
0.01692493
0.03609136
0.04790689
0.02542144
0.06604418
0.01794817
0.04220514
0.01577783
0.006582873
0.01916363
-0.02438043
0.02142812
-0.02521451
0.02201657
-0.01296248
0.02088712
-0.001176083
0.01726311
0.004861231
0.01186714
0.003216416
0.007082204
0.0005030009
0.004286689
0.004922999
0.001496506
0.01123389
-0.001953352
0.01353855
-0.00451923
0.01051608
-0.004865119
0.002104224
-0.003041753
-0.006865609
-0.0009503244
-0.008797768
0.0007555828
-0.006528265
0.001749298
-0.001770563
0.0008950121
0.005323505
-0.001309201
0.009110738
-0.004787637
0.01284807
-0.007598331
0.0126276
-0.007981705
0.004826005
-0.007235156
-0.002044712
-0.006196307
-0.004693443
-0.004503269
-0.006828054
-0.00189249
-0.01021604
0.001321905
-0.01294771
0.004635587
-0.0135592
0.0075964
-0.01221467
0.009684954
-0.008695508
-0.004127182
0.0142367
-0.01414296
0.001662744
0.01268751
0.01016674
0.006334043
0.02093155
-0.002475086
0.03161562
-0.00594329
0.02642722
-0.006152989
0.001970843
-0.007456822
-0.004457579
-0.009120478
0.004555781
-0.009304378
0.006409811
-0.007333232
-0.007289709
0.001113223
-0.03940934
0.0102272
-0.03662897
0.01668085
-0.02711714
0.01869349
-0.01020616
0.01688536
0.004476038
0.01485367
0.008619288
0.0154466
0.004743629
0.01766698
-0.006228466
0.02119109
-0.02476949
0.02350628
-0.02176629
0.022041
-0.002644156
0.0155486
0.02188219
0.00814906
0.03676597
-0.003826354
0.06489882
-0.02119097
0.06629325
-0.03599768
0.03560496
-0.04488119
0.02533049
-0.04999679
0.01764715
-0.05441036
0.009104308
-0.05875124
-0.003570912
-0.06414374
-0.01227635
-0.07027606
-0.003903001
-0.07267962
0.02377687
-0.06772749
0.04124046
-0.06257441
0.03122877
-0.06336423
0.01808578
-0.06462314
0.01493625
-0.06493748
0.01151283
-0.06539541
0.00784845
-0.06599917
0.005386944
-0.06642123
0.003278729
-0.06660408
0.001859693
-0.06689414
0.001296775
-0.06667438
-8.828332e-05
-0.06662531
-0.000147617
-0.06609243
-0.002326585
-0.0654514
-0.002741973
-0.06483118
-0.002986305
-0.063836
-0.003969162
-0.06309737
-0.003633857
-0.0619987
-0.004801327
-0.06090363
-0.00511897
-0.05952777
-0.006139981
-0.05806411
-0.00648439
-0.05668013
-0.006440875
-0.05509507
-0.007332678
-0.05334098
-0.007742113
-0.05168171
-0.007623178
-0.04982321
-0.0086328
-0.0478698
-0.008991107
-0.04578518
-0.009406066
-0.04368413
-0.009496525
-0.04171625
-0.009489444
-0.03928861
-0.01070958
-0.03712733
-0.01018648
-0.03463925
-0.01107561
-0.03226164
-0.01115455
-0.02980931
-0.01125765
-0.02727717
-0.01140644
-0.02475346
-0.01179115
-0.02214676
-0.01189456
-0.01950251
-0.01203818
-0.01691578
-0.01207054
-0.01411864
-0.01233414
-0.01161813
-0.0117294
-0.00882689
-0.01252193
-0.006091609
-0.01245424
-0.003436574
-0.01243934
-0.0006616227
-0.01317689
0.002135612
-0.0128508
0.004854409
-0.0124292
0.007511378
-0.01227005
0.01021152
-0.01223178
0.01285273
-0.01201562
0.01545924
-0.01198296
0.01797532
-0.01165917
0.02068889