/*--------------------------------*- C++ -*----------------------------------*\
| =========                 |                                                 |
| \\      /  F ield         | OpenFOAM: The Open Source CFD Toolbox           |
|  \\    /   O peration     | Version:  2406                                  |
|   \\  /    A nd           | Website:  www.openfoam.com                      |
|    \\/     M anipulation  |                                                 |
\*---------------------------------------------------------------------------*/
FoamFile
{
    version     2.0;
    format      ascii;
    arch        "LSB;label=32;scalar=64";
    class       volVectorField;
    location    "3.22";
    object      U;
}
// * * * * * * * * * * * * * * * * * * * * * * * * * * * * * * * * * * * * * //

dimensions      [0 1 -1 0 0 0 0];

internalField   nonuniform List<vector> 
15536
(
(0.09124673 1.066615 1.57368e-24)
(0.0516909 -1.474497 -1.172742e-19)
(-0.1637685 0.03305199 -1.509791e-19)
(-0.4648702 2.721275 -1.578691e-19)
(-0.1089605 1.237271 -5.418767e-21)
(0.3780792 -1.437883 2.138969e-21)
(0.04902335 -0.4259165 8.966875e-21)
(-0.3282074 1.092099 -9.024411e-21)
(-0.08560166 0.5149434 2.383496e-18)
(0.8729799 -1.974318 1.817965e-18)
(0.6021037 -1.493137 0)
(-0.4621826 0.7539606 0)
(-1.233301 2.174939 -1.130543e-20)
(-1.903545 3.237543 3.661738e-18)
(-1.949547 3.177385 2.420665e-18)
(-1.243431 1.870079 -5.742449e-18)
(-0.7658788 0.9444635 3.534114e-18)
(-0.9119528 1.059202 4.201246e-20)
(-1.659474 1.794624 -9.193965e-20)
(-3.140906 3.135952 4.930155e-20)
(-4.380445 4.161365 0)
(-4.460949 4.072834 7.620759e-18)
(-2.713424 2.511457 0)
(1.409539 -0.7230649 1.305896e-18)
(4.713662 -3.116806 6.854984e-22)
(2.534039 -1.771079 -2.458454e-21)
(-1.326311 0.5569936 2.534227e-21)
(-3.086408 1.520454 -3.708475e-18)
(-4.02817 1.859443 -4.784207e-18)
(-5.390618 2.209445 0)
(-8.029938 2.919787 -5.181585e-20)
(-10.84989 3.70608 -8.035352e-18)
(-9.423408 3.217547 9.160505e-18)
(-2.033216 0.8934551 0)
(3.629382 -0.8053979 -5.241078e-18)
(0.1765656 -0.4451008 -2.716484e-20)
(-2.937554 0.0845706 3.783095e-18)
(3.44313 -0.05620584 -1.707454e-18)
(9.136329 0.1352622 1.637254e-21)
(12.14997 0.5905223 -4.138791e-19)
(13.73148 1.170981 1.687812e-18)
(14.60847 1.834981 -2.684629e-20)
(15.13227 2.528166 2.661453e-20)
(15.42473 3.219712 0)
(15.55194 3.899434 -6.670647e-18)
(15.5338 4.553283 -6.613056e-18)
(15.36569 5.170846 0)
(15.11429 5.758418 -1.257047e-17)
(14.79583 6.316649 1.22457e-17)
(14.4353 6.848552 1.181677e-17)
(14.02175 7.33919 4.305704e-20)
(13.54913 7.784446 -1.073238e-17)
(13.02548 8.179229 0)
(12.45997 8.525659 0)
(11.8619 8.820324 8.722714e-18)
(11.22885 9.054875 8.027848e-18)
(10.57981 9.240779 5.376724e-20)
(9.92125 9.376443 6.40359e-18)
(9.239569 9.442591 1.133733e-17)
(8.547843 9.44795 4.86935e-18)
(7.854201 9.395667 4.009597e-18)
(7.172521 9.295586 -2.846638e-20)
(6.499425 9.137614 0)
(5.832284 8.914599 1.533642e-18)
(5.18518 8.643661 0)
(4.554016 8.310866 1.519827e-19)
(3.946336 7.923665 -2.949624e-20)
(3.37363 7.492178 -2.943535e-21)
(2.835025 7.013786 8.236487e-21)
(2.334672 6.49241 -3.205908e-18)
(1.878676 5.937054 -1.631159e-20)
(1.467617 5.345233 2.274773e-18)
(1.103078 4.719111 2.555305e-18)
(0.79049 4.074274 0)
(0.5292802 3.413534 0)
(0.322043 2.731076 3.227205e-18)
(0.166683 2.02684 -4.565293e-22)
(0.0679614 1.2999 8.95373e-19)
(0.02928516 0.5246984 1.670777e-21)
(0.03900244 -0.2647244 -7.133258e-21)
(0.09786823 -0.9871606 -1.779195e-18)
(0.2119582 -1.67708 0)
(0.3802304 -2.358615 3.277055e-18)
(0.601012 -3.028265 0)
(0.8730392 -3.677313 -2.845691e-18)
(1.193879 -4.30061 2.563716e-18)
(1.563222 -4.896424 1.913857e-20)
(1.977494 -5.46197 4.021052e-18)
(2.433255 -5.986542 1.184771e-20)
(2.926638 -6.468091 -2.711261e-18)
(3.454913 -6.908429 -1.984727e-18)
(4.015274 -7.301379 1.222806e-20)
(4.605813 -7.649014 -4.346449e-19)
(5.218879 -7.946031 -3.646083e-19)
(5.847376 -8.188526 1.223898e-20)
(6.480312 -8.364756 6.279015e-21)
(7.123063 -8.488435 -2.755138e-18)
(7.771297 -8.559475 0)
(8.416843 -8.570621 8.573759e-18)
(9.062041 -8.532418 4.999514e-18)
(9.687653 -8.431404 9.318494e-20)
(10.2897 -8.269786 -6.568333e-18)
(10.86408 -8.050711 0)
(11.40954 -7.778603 0)
(11.92536 -7.460849 0)
(12.40243 -7.096016 0)
(12.83066 -6.685628 9.602063e-18)
(13.20661 -6.23369 1.016316e-17)
(13.52914 -5.744339 2.589566e-20)
(13.79521 -5.226824 -1.094994e-17)
(13.97085 -4.67297 -5.589694e-18)
(14.03051 -4.085374 -5.770024e-18)
(13.92638 -3.461811 4.515737e-20)
(13.59869 -2.806873 5.865086e-18)
(12.92836 -2.143473 3.004038e-18)
(11.56527 -1.498551 -2.325721e-20)
(8.646245 -0.8378816 -5.680126e-21)
(3.374886 -0.2030619 3.949559e-19)
(-2.143624 -0.07236239 -8.441978e-19)
(-4.20336 -0.4962796 -2.078787e-20)
(-5.115772 -0.6814662 1.400269e-20)
(-3.440893 -0.3567863 2.976744e-18)
(-0.7312666 0.1826106 2.032494e-20)
(5.383616 1.546951 0)
(3.557966 0.7386022 -4.177894e-18)
(-6.024124 -2.519888 -7.792962e-18)
(-10.28078 -4.092723 -3.252004e-21)
(-8.810467 -3.656052 1.333063e-17)
(-6.106055 -2.735618 -8.71582e-18)
(-3.731303 -1.846838 0)
(-2.250726 -1.220393 0)
(-1.077453 -0.5953384 -4.437241e-18)
(0.4541727 0.3816923 0)
(2.079987 1.533012 2.256362e-20)
(2.497388 1.92582 -2.917179e-18)
(1.770695 1.453982 -3.326327e-18)
(0.9859585 0.8429893 3.520749e-20)
(0.2847847 0.2070069 -1.002906e-17)
(-0.2139047 -0.2829484 -8.794454e-20)
(-0.2105312 -0.2443254 1.215671e-17)
(0.01639865 0.04860254 6.234339e-18)
(0.1034874 0.1703689 6.333241e-18)
(0.06395263 0.09632063 6.233235e-18)
(-0.1182382 -0.230357 0)
(-0.3444476 -0.6544413 -2.2087e-20)
(-0.4557988 -0.9388729 -5.427964e-18)
(-0.5845028 -1.390825 0)
(-0.7609667 -2.031949 5.157221e-18)
(-0.8155066 -2.381172 -3.758716e-20)
(-0.6900429 -2.261063 1.804442e-20)
(-0.5117556 -1.922959 1.941941e-18)
(-0.3230686 -1.378649 -1.90535e-23)
(-0.1303017 -0.5766572 0)
(0.03185134 0.3692357 5.181203e-19)
(0.1242276 1.30145 3.645567e-21)
(0.1513679 2.087916 6.574253e-22)
(0.1411289 2.423724 -7.210956e-22)
(0.1393009 2.908524 -5.260192e-20)
(0.08126683 0.7551351 9.485887e-20)
(-0.277186 0.4508409 0)
(-0.391194 2.023589 1.335952e-19)
(0.330607 -0.04696912 0)
(0.6502582 -2.461971 1.550743e-18)
(0.1880451 -1.516803 7.187451e-21)
(-0.03941485 -0.263085 -7.465278e-21)
(0.2243306 -0.0789808 -1.934133e-18)
(1.268886 -2.756849 -1.476253e-18)
(0.3253389 -1.3438 0)
(-0.6234711 0.6894695 5.515942e-21)
(-1.406107 2.157412 3.713024e-21)
(-2.023843 3.186952 -1.486554e-18)
(-2.474818 3.888191 -3.968543e-18)
(-2.230426 3.380197 2.256621e-18)
(-1.253798 1.729058 -2.78405e-18)
(-0.4755248 0.4792279 -2.655122e-20)
(-1.938437 1.779685 0)
(-3.758284 3.415863 0)
(-5.039957 4.540383 0)
(-5.336521 4.735336 6.122847e-18)
(-4.364167 4.013535 1.895418e-20)
(-0.2613794 0.9819706 -1.873432e-20)
(5.356192 -3.517716 -7.864874e-21)
(2.834457 -2.384061 7.521926e-21)
(-0.05106299 -0.4505334 0)
(-0.9899117 0.3070153 0)
(-1.341986 0.4498368 8.287792e-18)
(-2.066948 0.5072469 5.649951e-20)
(-4.440477 1.073708 -5.228335e-20)
(-6.590074 1.835137 7.001841e-18)
(-9.310602 3.113077 7.410403e-18)
(-4.779866 1.899514 -3.441126e-20)
(2.760079 -0.3550267 -4.006586e-18)
(6.562021 -1.106215 2.47631e-18)
(9.6153 -0.6044799 1.001285e-21)
(14.71986 -0.3595028 1.09413e-18)
(18.34841 -0.1745638 0)
(19.18489 0.2081206 3.01901e-19)
(19.43228 0.7814297 2.522556e-18)
(19.46142 1.46788 2.617516e-18)
(19.37299 2.181597 2.642193e-18)
(19.19489 2.897699 -8.213524e-20)
(18.95504 3.62054 5.352984e-18)
(18.66137 4.332332 -4.069844e-20)
(18.32929 5.031136 0)
(17.93425 5.697692 1.001521e-17)
(17.47959 6.333481 0)
(16.98285 6.936311 -7.111185e-20)
(16.43613 7.493146 7.131122e-20)
(15.83583 8.000867 8.565561e-18)
(15.18918 8.453057 -6.041588e-20)
(14.50314 8.85009 7.539695e-18)
(13.78586 9.187582 -7.013908e-18)
(13.04076 9.462634 0)
(12.27811 9.684817 4.250708e-20)
(11.5049 9.849556 -5.250914e-18)
(10.71639 9.943253 -9.031291e-18)
(9.917049 9.967822 0)
(9.119559 9.934059 -3.217727e-18)
(8.333198 9.843627 -1.705101e-20)
(7.558488 9.688734 1.850247e-18)
(6.796286 9.468386 6.602349e-21)
(6.053563 9.188513 -6.680294e-21)
(5.334629 8.845815 -1.232851e-19)
(4.642094 8.444975 7.799064e-19)
(3.987273 7.991004 0)
(3.371159 7.48926 0)
(2.798414 6.943265 -2.205381e-20)
(2.273464 6.354918 0)
(1.799304 5.726271 0)
(1.377615 5.061682 0)
(1.013163 4.372113 -2.325257e-18)
(0.7048082 3.665788 1.878411e-20)
(0.4607261 2.934345 1.130278e-20)
(0.2731793 2.179806 -5.527946e-21)
(0.151691 1.399164 -7.341552e-19)
(0.1046836 0.5694393 3.02895e-21)
(0.1092145 -0.2718327 -7.554291e-19)
(0.1742883 -1.049959 1.452181e-18)
(0.3101334 -1.793317 1.111646e-20)
(0.5084758 -2.52537 -2.659691e-18)
(0.7662537 -3.244224 -3.942666e-20)
(1.083068 -3.941322 2.359745e-18)
(1.454725 -4.608124 -2.131958e-18)
(1.882294 -5.243482 0)
(2.358182 -5.846073 -6.566517e-18)
(2.880603 -6.400657 -1.949664e-20)
(3.446948 -6.909532 2.200068e-18)
(4.051492 -7.376334 1.617976e-18)
(4.691618 -7.788471 0)
(5.365625 -8.147993 0)
(6.065692 -8.458267 0)
(6.783049 -8.704117 9.460974e-21)
(7.512397 -8.88188 -9.399084e-21)
(8.253629 -9.001599 2.149879e-18)
(9.001306 -9.061784 5.085676e-21)
(9.751623 -9.058995 -3.469475e-18)
(10.49902 -8.9983 -6.677658e-20)
(11.23318 -8.875074 9.288694e-18)
(11.946 -8.686547 5.219188e-18)
(12.63292 -8.435769 -4.267344e-20)
(13.29622 -8.129042 6.181793e-18)
(13.93058 -7.772236 5.063462e-20)
(14.52897 -7.359729 -5.796403e-20)
(15.08363 -6.897561 5.773552e-20)
(15.5904 -6.38869 6.375727e-20)
(16.04904 -5.839794 8.383247e-18)
(16.45252 -5.254395 -6.608868e-20)
(16.79721 -4.640417 0)
(17.09468 -4.005393 0)
(17.34981 -3.363768 0)
(17.5465 -2.727708 0)
(17.65329 -2.10731 1.733165e-20)
(17.5961 -1.585175 -1.712073e-20)
(16.90976 -1.20294 1.022697e-18)
(13.58236 -0.7865711 4.057855e-21)
(6.968891 -0.2969089 0)
(0.9577217 0.03362547 -1.489829e-18)
(-0.2712393 0.1611888 3.193159e-18)
(1.939769 0.6277604 -2.511563e-18)
(2.444328 0.9453388 2.3401e-20)
(5.009637 1.483472 -2.599196e-18)
(0.786597 -0.5536522 1.455906e-20)
(-8.588131 -3.689358 0)
(-9.044337 -3.41807 1.444168e-17)
(-7.663032 -2.758856 -2.191899e-17)
(-5.15344 -1.904809 -6.942297e-18)
(-3.13699 -1.295938 -1.366877e-20)
(-1.921415 -0.8808671 -6.81282e-20)
(-1.006258 -0.3806915 3.091784e-20)
(0.2312567 0.483033 0)
(2.055164 1.75399 2.331575e-18)
(2.954102 2.342766 2.355664e-18)
(1.991715 1.559175 -3.525853e-21)
(0.9146086 0.6816623 -3.317882e-18)
(0.2181663 0.0824622 8.248995e-18)
(-0.1033563 -0.1637537 4.74222e-18)
(0.02560384 0.07340203 2.196326e-21)
(0.4320658 0.6009642 -5.040012e-18)
(0.7126806 0.9773368 -3.998588e-20)
(0.6612613 0.9313242 -5.058413e-18)
(0.3583275 0.4724975 3.774023e-20)
(-0.04465469 -0.2107969 -1.374318e-21)
(-0.396156 -0.9069091 -3.517373e-20)
(-0.7147397 -1.766676 0)
(-0.9135304 -2.441121 0)
(-0.9232892 -2.610868 -4.000581e-18)
(-0.7951346 -2.429778 0)
(-0.5988879 -2.007563 -3.191168e-18)
(-0.4079868 -1.397166 1.338267e-18)
(-0.2223353 -0.5293085 -7.562283e-21)
(-0.0673921 0.4745991 7.516961e-21)
(0.02326434 1.488043 3.456174e-19)
(0.03404707 2.268373 -1.507648e-19)
(0.07001944 3.080618 -6.257004e-20)
(0.1963166 3.444418 4.24762e-20)
(0.1155148 2.541888 -7.468776e-20)
(-0.345259 1.566621 1.623119e-21)
(-0.1403587 0.8708179 -1.130326e-19)
(0.8277637 -1.44359 0)
(0.7816613 -2.841606 -1.274396e-18)
(0.3140716 -2.284946 -1.158632e-20)
(0.4646865 -1.819268 8.194443e-19)
(0.9366335 -1.644133 1.543919e-18)
(1.39347 -2.973258 1.20804e-18)
(0.07592438 -1.372027 5.357556e-19)
(-0.8221887 0.6706256 -3.820272e-21)
(-1.567664 2.142154 0)
(-2.107986 3.208015 0)
(-2.367901 3.739592 1.611909e-18)
(-2.414721 3.798981 1.832618e-18)
(-1.64001 2.477361 2.240629e-18)
(-0.66052 0.7064812 4.345052e-20)
(-2.576298 2.081851 0)
(-4.404765 3.733359 4.451174e-18)
(-5.488931 4.8798 5.309222e-18)
(-5.520831 5.072351 -5.004432e-18)
(-4.375759 4.407232 0)
(-1.628968 2.665568 8.456427e-19)
(4.252443 -2.46635 0)
(3.018142 -2.751767 6.156035e-19)
(2.163019 -1.779547 0)
(2.357046 -1.334013 -2.566502e-18)
(2.638642 -1.336717 -6.570453e-18)
(1.791485 -1.231991 0)
(-0.3315142 -0.7032803 0)
(-2.497276 0.3839351 2.315615e-20)
(-4.214805 1.951871 -6.561229e-18)
(-3.384062 2.029715 4.213103e-18)
(7.158151 -0.5335747 5.761431e-18)
(14.82984 -1.598956 -1.743893e-18)
(17.33693 -0.9876422 1.783432e-18)
(18.93182 -0.3101911 -8.599212e-19)
(19.10031 0.0983218 0)
(18.81767 0.6241309 0)
(18.85629 1.317237 -2.099417e-18)
(18.85279 2.059173 -2.196103e-18)
(18.78851 2.804074 -4.318668e-18)
(18.6453 3.541868 4.288559e-18)
(18.4416 4.26896 1.011172e-19)
(18.17659 4.965165 -6.71375e-20)
(17.84129 5.637054 0)
(17.4392 6.267173 0)
(16.9823 6.867139 7.861401e-18)
(16.48397 7.436955 -7.595743e-18)
(15.93938 7.957253 0)
(15.34359 8.428118 0)
(14.70483 8.842344 9.916605e-20)
(14.02815 9.203532 -6.287003e-18)
(13.32335 9.504873 0)
(12.59394 9.74286 -5.15065e-18)
(11.84787 9.930558 -4.667893e-18)
(11.09424 10.06187 -4.109614e-18)
(10.32924 10.12137 3.63445e-18)
(9.553282 10.11442 -4.451672e-20)
(8.780352 10.05241 2.591188e-18)
(8.019349 9.936243 0)
(7.272707 9.756318 -1.510613e-18)
(6.540128 9.512791 -1.044466e-20)
(5.825064 9.213982 8.587443e-21)
(5.139297 8.851475 -1.647516e-19)
(4.47766 8.434835 0)
(3.853022 7.967745 -1.217847e-18)
(3.265813 7.455906 -1.501317e-20)
(2.722781 6.901842 2.175822e-18)
(2.224765 6.308721 1.316903e-18)
(1.776374 5.67756 -1.525346e-18)
(1.377821 5.013051 -1.720958e-18)
(1.033393 4.325817 1.892939e-18)
(0.7416185 3.62462 -2.056449e-18)
(0.5160512 2.899464 -1.067596e-18)
(0.339817 2.154495 2.277256e-18)
(0.2279978 1.385944 1.200337e-18)
(0.1893502 0.569971 2.46159e-21)
(0.1881699 -0.2545924 6.256081e-19)
(0.2461619 -1.02465 -9.429737e-21)
(0.3780516 -1.762415 0)
(0.5686363 -2.490767 -1.677143e-20)
(0.8133465 -3.206995 -1.482826e-20)
(1.114125 -3.902 -1.865573e-18)
(1.465271 -4.568266 3.500892e-18)
(1.87312 -5.203686 -1.570326e-18)
(2.324171 -5.809667 2.660751e-18)
(2.819468 -6.369687 1.937851e-20)
(3.360184 -6.885176 0)
(3.936298 -7.362296 1.36229e-18)
(4.547436 -7.786726 9.407626e-21)
(5.194032 -8.159889 -3.752528e-19)
(5.864406 -8.488588 0)
(6.552026 -8.755036 6.839514e-19)
(7.255645 -8.953281 0)
(7.97194 -9.096298 -4.437694e-20)
(8.694674 -9.182702 2.237045e-18)
(9.42389 -9.206002 0)
(10.14977 -9.175342 -3.306272e-18)
(10.86454 -9.083936 -3.806558e-18)
(11.56032 -8.928257 -4.277678e-18)
(12.23231 -8.710718 0)
(12.88459 -8.436238 -1.03219e-17)
(13.50998 -8.112835 8.307512e-20)
(14.10213 -7.732627 0)
(14.65328 -7.303062 0)
(15.15962 -6.825465 0)
(15.62086 -6.305147 6.785071e-18)
(16.02874 -5.753489 -7.035979e-18)
(16.37642 -5.165285 0)
(16.65398 -4.544757 0)
(16.87176 -3.894914 3.681286e-18)
(17.02528 -3.232756 2.926275e-20)
(17.12091 -2.568994 0)
(17.16973 -1.944083 0)
(17.51031 -1.503783 -1.666423e-18)
(17.55731 -1.21098 1.962963e-19)
(15.11346 -0.7031402 0)
(11.30019 0.04151364 9.832321e-19)
(9.856962 1.007757 2.524569e-20)
(9.461905 1.67422 6.719789e-21)
(8.157992 1.909504 -2.523684e-20)
(5.244921 1.2715 2.072501e-18)
(-1.159375 -1.716999 2.424755e-18)
(-6.960567 -3.637539 5.57755e-20)
(-6.893335 -2.728945 8.663201e-20)
(-5.788975 -1.757546 9.077919e-18)
(-3.41948 -0.8271857 5.805337e-18)
(-1.580745 -0.3590707 0)
(-0.8494635 -0.2019951 3.57617e-18)
(-0.4845888 0.04227512 0)
(0.08479193 0.5795413 -3.325919e-20)
(1.451537 1.498634 -1.881661e-18)
(2.350434 1.844146 3.316222e-20)
(1.594751 1.060056 -3.246685e-20)
(0.730315 0.3496598 2.748863e-18)
(0.05658669 -0.1912581 -3.385797e-18)
(-0.3370127 -0.4399107 -3.892504e-18)
(-0.3013253 -0.2103615 -4.167455e-18)
(0.1476231 0.3915815 -4.121709e-18)
(0.6293137 0.9659068 0)
(0.8276551 1.163584 -2.052237e-21)
(0.6475338 0.8153403 0)
(0.2429127 0.1351715 -3.870817e-18)
(-0.1789007 -0.6759113 3.685195e-18)
(-0.6038542 -1.753527 0)
(-0.8898135 -2.566773 0)
(-0.9482727 -2.729383 6.616513e-18)
(-0.8178551 -2.415115 -1.490803e-18)
(-0.6420685 -1.983474 2.622593e-18)
(-0.472059 -1.356643 -7.711382e-21)
(-0.3069936 -0.4869296 7.759116e-21)
(-0.1549396 0.5148013 0)
(-0.04806126 1.500157 -2.803982e-19)
(0.007352772 2.348135 2.4148e-19)
(0.07237239 2.854068 5.283164e-20)
(0.1604107 3.411341 -7.06664e-20)
(0.1622907 3.294733 -1.523867e-21)
(-0.2610287 2.260365 1.613779e-21)
(0.1975583 0.09048614 -4.785378e-21)
(1.199874 -2.174974 4.372879e-21)
(0.8142689 -2.872439 5.286856e-19)
(0.3288213 -2.54541 -9.476892e-21)
(0.7396053 -2.642406 -6.709683e-19)
(1.416784 -2.785487 1.972565e-20)
(1.312954 -2.922954 -1.025068e-18)
(-0.2004031 -1.453491 3.861208e-21)
(-1.103393 0.7225332 0)
(-1.842575 2.253027 0)
(-2.284162 3.324146 -1.003362e-18)
(-2.367763 3.704645 -1.355339e-18)
(-2.354762 3.823611 -3.012477e-18)
(-1.923466 3.098975 -1.8111e-18)
(-1.370216 1.529214 0)
(-3.338711 2.489114 0)
(-4.950512 3.908588 -7.187946e-18)
(-5.755977 5.000009 -8.715902e-18)
(-5.581861 5.255611 5.361074e-20)
(-4.178006 4.592077 -7.696081e-20)
(-1.937885 3.659756 -1.39971e-18)
(2.945611 -1.014297 8.133057e-19)
(3.599105 -3.085024 -5.120055e-19)
(4.647975 -3.066771 8.688338e-19)
(5.663373 -2.89209 1.933925e-18)
(6.198784 -2.978311 2.588171e-18)
(5.537433 -3.007363 0)
(3.977344 -2.668533 -1.14805e-19)
(2.090776 -1.461029 -1.002499e-17)
(0.3065646 0.5735012 9.342508e-20)
(1.223513 1.609759 1.054188e-19)
(13.03859 -0.6578193 -2.038033e-18)
(18.48379 -1.71455 -1.258339e-18)
(18.87144 -1.235371 -4.887167e-20)
(18.89808 -0.528263 -7.072871e-19)
(18.58582 -0.1902799 -3.748265e-19)
(18.74152 0.2258333 -3.116977e-21)
(18.92981 0.8359214 0)
(19.01026 1.520109 -2.747307e-20)
(18.98742 2.236597 1.814332e-18)
(18.86939 2.953048 -7.088108e-18)
(18.67874 3.680925 5.455774e-20)
(18.41906 4.388275 -3.492609e-18)
(18.08899 5.071975 -1.049597e-19)
(17.69292 5.715957 -6.587757e-18)
(17.2393 6.333987 -3.49734e-21)
(16.74314 6.927409 6.265203e-18)
(16.20194 7.468282 -5.897643e-18)
(15.60845 7.962661 0)
(14.97121 8.399591 8.017753e-20)
(14.29413 8.785602 -8.06847e-20)
(13.58663 9.113376 0)
(12.85209 9.379262 4.243471e-18)
(12.09974 9.594469 7.758513e-20)
(11.33829 9.753244 3.436079e-18)
(10.5653 9.838994 -2.925798e-18)
(9.782923 9.85441 -2.485421e-18)
(8.999496 9.816363 -2.095736e-18)
(8.228698 9.722446 -1.60621e-18)
(7.472651 9.562822 1.485592e-20)
(6.72948 9.338509 -1.500093e-20)
(6.003553 9.057957 0)
(5.306485 8.712419 1.370743e-19)
(4.632764 8.311689 -1.245238e-20)
(3.996921 7.858584 1.013327e-18)
(3.398717 7.35941 1.40128e-18)
(2.847191 6.816083 -1.781329e-18)
(2.340811 6.232844 -1.08132e-18)
(1.884655 5.610749 -5.571027e-21)
(1.478622 4.954848 1.412457e-18)
(1.129865 4.275143 2.513603e-20)
(0.8329085 3.582279 1.648726e-18)
(0.6069418 2.864956 1.415848e-20)
(0.4300802 2.129303 -9.516849e-19)
(0.3204677 1.373068 -4.889755e-19)
(0.2891075 0.5714767 -6.147301e-23)
(0.2818547 -0.2335017 4.963318e-19)
(0.3349503 -0.9986659 7.727193e-21)
(0.4655478 -1.734758 -9.45131e-19)
(0.6575947 -2.460319 1.803841e-18)
(0.9038027 -3.171359 0)
(1.207103 -3.85938 -2.164482e-21)
(1.560809 -4.517517 -1.439051e-18)
(1.973754 -5.143704 1.324489e-18)
(2.428191 -5.74046 -2.278749e-18)
(2.931128 -6.288095 2.677313e-20)
(3.481308 -6.79033 -2.652703e-20)
(4.062564 -7.255812 -1.119519e-18)
(4.682213 -7.665346 0)
(5.341652 -8.020889 3.024693e-19)
(6.019455 -8.33461 3.543522e-21)
(6.715665 -8.583335 -4.472717e-20)
(7.429376 -8.762016 -9.24244e-19)
(8.154 -8.88596 -1.427167e-18)
(8.884206 -8.952328 -2.09694e-20)
(9.620653 -8.954242 2.20365e-18)
(10.35446 -8.900351 -3.791803e-20)
(11.07487 -8.786278 -3.021698e-18)
(11.77581 -8.606248 0)
(12.45387 -8.36213 3.771167e-18)
(13.10965 -8.06341 4.190421e-18)
(13.73579 -7.717848 4.370366e-18)
(14.32756 -7.315775 -4.676347e-18)
(14.87662 -6.866703 5.029558e-18)
(15.3803 -6.37017 0)
(15.83865 -5.832102 -1.110501e-17)
(16.24288 -5.268484 1.161295e-17)
(16.58545 -4.669843 -1.376299e-19)
(16.86143 -4.041758 -2.985715e-18)
(17.06865 -3.395471 -3.019783e-18)
(17.19677 -2.746993 0)
(17.22869 -2.127558 1.529435e-18)
(17.14999 -1.569594 -1.488104e-18)
(17.04972 -1.195487 7.039371e-19)
(17.54938 -1.05131 -1.688199e-19)
(17.86384 -0.6996914 -3.419133e-19)
(17.12863 0.2015667 1.128315e-20)
(16.26986 1.498231 -1.612499e-18)
(15.14878 2.276034 2.382117e-20)
(13.38159 2.407852 0)
(7.825392 1.181331 0)
(-0.7137565 -2.297567 -9.211188e-20)
(-3.983637 -3.108059 9.582801e-20)
(-4.831008 -1.914017 0)
(-3.758381 -0.5936942 0)
(-1.671977 0.3237728 0)
(0.2395767 0.7303231 3.508701e-18)
(0.8316622 0.749373 -5.862091e-18)
(0.6578689 0.7469797 2.515051e-18)
(0.4148786 0.9126942 -1.884626e-18)
(0.973554 1.29408 -5.182882e-20)
(1.668989 1.274188 1.629587e-18)
(1.28214 0.634035 1.856896e-18)
(0.6051612 0.07131074 3.904768e-20)
(-0.1430572 -0.5186599 6.497928e-21)
(-0.6145028 -0.7818823 -4.703233e-20)
(-0.6278979 -0.5031259 -5.296535e-20)
(-0.2050146 0.08486285 3.473609e-18)
(0.3499034 0.6870749 0)
(0.7229322 1.015839 3.458574e-18)
(0.7098808 0.7943463 -3.312314e-18)
(0.3806453 0.1873178 3.174382e-18)
(0.0007394547 -0.5934536 0)
(-0.4910336 -1.823075 0)
(-0.8736938 -2.708738 -4.301122e-20)
(-0.9579964 -2.685389 -2.730203e-18)
(-0.8399532 -2.288134 1.267621e-18)
(-0.6891901 -1.901864 -1.078932e-18)
(-0.5509968 -1.280575 0)
(-0.413705 -0.4115233 0)
(-0.2727453 0.5905689 0)
(-0.1639975 1.581048 -2.26365e-19)
(-0.08207707 2.415018 -1.023055e-19)
(-0.02596145 2.921266 -8.691854e-20)
(0.1322678 3.362402 2.943723e-20)
(0.2331977 3.481961 0)
(-0.05944892 2.671888 -6.107317e-20)
(0.5609994 -0.2590133 0)
(1.49519 -2.405497 -3.428047e-19)
(0.8099449 -2.803274 0)
(0.2804029 -2.517629 0)
(0.8197339 -2.76491 -5.354445e-19)
(1.542982 -3.14331 -1.041664e-18)
(1.145927 -2.827006 8.636405e-19)
(-0.5400117 -1.490207 -3.581383e-19)
(-1.443739 0.7688754 3.141483e-19)
(-2.174851 2.397946 0)
(-2.496822 3.493631 1.649632e-18)
(-2.45543 3.83727 1.116559e-18)
(-2.273382 3.771399 1.281936e-18)
(-2.108976 3.498033 -4.193215e-20)
(-2.242274 2.590144 -7.477948e-20)
(-4.058753 2.921471 -2.325964e-18)
(-5.324222 3.93846 5.90985e-18)
(-5.761386 4.893947 3.607693e-18)
(-5.316285 5.213515 9.00038e-20)
(-3.807054 4.638699 2.15818e-18)
(-1.494799 4.098393 6.081013e-19)
(2.169879 0.2627591 -6.413438e-19)
(4.615746 -3.37803 0)
(7.096401 -4.136872 -4.850196e-20)
(8.690998 -4.20895 0)
(9.396923 -4.408597 1.973445e-18)
(9.137118 -4.670676 2.546416e-18)
(8.365367 -4.635311 4.345573e-18)
(7.098524 -3.387161 -1.807429e-19)
(5.554644 -0.7363104 1.270067e-19)
(8.73477 0.8523697 -4.841518e-18)
(17.2784 -0.5274937 0)
(18.5417 -1.483473 -1.000694e-18)
(18.16172 -1.145412 -1.205507e-18)
(18.30676 -0.4094764 1.190542e-18)
(18.26871 0.06736989 2.972022e-19)
(18.48051 0.6149502 0)
(18.62238 1.276116 6.905202e-19)
(18.68546 1.98389 0)
(18.65524 2.69585 0)
(18.53457 3.394444 2.961231e-18)
(18.34242 4.109388 -4.507129e-20)
(18.087 4.788873 5.002946e-20)
(17.76031 5.443937 -2.753656e-18)
(17.37062 6.053938 5.532625e-18)
(16.92356 6.639328 -5.273899e-18)
(16.43723 7.201091 -5.082414e-18)
(15.91209 7.700166 2.360095e-19)
(15.33233 8.160387 -1.475269e-19)
(14.71255 8.561048 -1.302335e-19)
(14.05217 8.916489 -3.744486e-18)
(13.36411 9.215129 -3.815322e-18)
(12.64999 9.451825 -1.007803e-19)
(11.91559 9.644444 3.2064e-18)
(11.17703 9.780209 0)
(10.4289 9.842833 2.409472e-18)
(9.665206 9.842318 2.046229e-18)
(8.901409 9.790394 1.62399e-18)
(8.152569 9.684104 1.321749e-18)
(7.417635 9.514603 0)
(6.695523 9.280879 0)
(5.98703 8.99593 1.879725e-19)
(5.310467 8.64491 0)
(4.651448 8.242885 0)
(4.031907 7.789 8.983885e-19)
(3.451034 7.289328 -1.265047e-20)
(2.910313 6.748468 -1.62547e-20)
(2.412353 6.167908 -3.000205e-20)
(1.965064 5.548688 2.099733e-18)
(1.568315 4.895953 0)
(1.229599 4.219902 0)
(0.9308 3.535399 1.397678e-18)
(0.7111375 2.824573 7.074488e-19)
(0.5367849 2.097739 7.680534e-19)
(0.4301408 1.355629 -4.00189e-19)
(0.4070553 0.5705885 0)
(0.3962506 -0.2088413 -3.958338e-22)
(0.4439118 -0.9716446 2.487167e-20)
(0.566256 -1.707615 7.500719e-19)
(0.7547702 -2.428362 -1.478669e-18)
(0.9979635 -3.132251 -4.240516e-20)
(1.298153 -3.81282 1.30022e-18)
(1.647989 -4.463075 3.854693e-20)
(2.056264 -5.081811 2.127627e-18)
(2.49776 -5.674017 -1.046858e-20)
(2.987731 -6.217141 -1.616187e-18)
(3.529499 -6.715936 4.404011e-20)
(4.09707 -7.181463 0)
(4.697155 -7.59308 6.332741e-19)
(5.342994 -7.950543 0)
(6.007064 -8.268706 0)
(6.681616 -8.526697 -4.303121e-19)
(7.376094 -8.714346 1.510657e-18)
(8.084074 -8.848272 3.993854e-20)
(8.79427 -8.928212 -8.685502e-20)
(9.511261 -8.944995 -1.808723e-18)
(10.22532 -8.909924 -2.100372e-18)
(10.92617 -8.816422 2.571799e-18)
(11.60641 -8.660904 -2.825323e-18)
(12.26352 -8.44427 -6.548819e-20)
(12.90263 -8.171127 0)
(13.51126 -7.856611 -3.783177e-18)
(14.08762 -7.485318 8.006388e-18)
(14.6224 -7.070165 -4.277652e-18)
(15.11282 -6.608556 0)
(15.5615 -6.105156 8.102589e-20)
(15.958 -5.573857 -4.650885e-18)
(16.29472 -5.003947 -7.429438e-20)
(16.56748 -4.399446 1.20112e-19)
(16.77257 -3.769569 -7.723319e-20)
(16.90392 -3.134882 0)
(16.94893 -2.502452 -2.438306e-18)
(16.91458 -1.903478 1.159091e-18)
(16.80008 -1.405124 5.651309e-19)
(16.91536 -1.065761 -8.649942e-21)
(17.54514 -0.6090453 2.803119e-19)
(17.97181 0.3747786 5.921376e-19)
(17.61084 1.634648 0)
(16.4571 2.358713 1.107961e-18)
(15.44939 2.320664 -4.370457e-20)
(10.78889 0.8881634 1.208307e-18)
(1.586652 -2.476585 0)
(-0.4941982 -2.318741 0)
(-2.134619 -1.021725 0)
(-1.237249 0.819086 8.328691e-20)
(0.3653495 1.630376 3.943183e-18)
(2.000253 1.835021 -2.884814e-18)
(2.654908 1.746723 2.429749e-18)
(2.24692 1.604069 -4.016312e-18)
(1.28708 1.462662 1.573138e-18)
(0.8854896 1.28073 0)
(1.291674 0.9414675 -1.351273e-18)
(1.16038 0.3963897 -1.511635e-18)
(0.524606 -0.1863192 1.926272e-18)
(-0.3097221 -0.8562424 -6.475911e-20)
(-0.8283353 -1.056321 -8.437076e-20)
(-0.8683458 -0.6671901 8.304654e-20)
(-0.4743836 -0.09169458 0)
(0.0526688 0.4255867 -2.887438e-18)
(0.5179291 0.7552811 8.881802e-20)
(0.6718649 0.6118822 5.38761e-18)
(0.4362867 0.0711166 -2.682681e-18)
(0.1272991 -0.6786326 1.542634e-19)
(-0.3923449 -2.005605 -2.426222e-18)
(-0.829145 -2.789203 0)
(-0.9428049 -2.555531 -2.255848e-18)
(-0.8835636 -2.211661 1.042042e-18)
(-0.7504659 -1.835782 -5.521362e-20)
(-0.6509143 -1.214922 7.884081e-19)
(-0.5391256 -0.3198654 -2.912902e-20)
(-0.4019124 0.6964855 8.217706e-21)
(-0.2809031 1.694287 1.875877e-19)
(-0.1665383 2.508216 -1.183571e-21)
(-0.05723791 3.07176 1.110704e-21)
(0.08794717 3.461652 1.39391e-21)
(0.3120032 3.512491 3.749332e-20)
(0.224697 2.970615 4.877885e-20)
(0.9631311 -0.2738536 -5.291717e-20)
(1.722062 -2.377237 2.808986e-19)
(0.7251695 -2.687739 0)
(0.1958673 -2.421571 3.768889e-19)
(0.8922789 -2.639054 4.683897e-19)
(1.561567 -3.113742 8.62816e-19)
(0.9811762 -2.83282 0)
(-0.9469694 -1.623534 0)
(-1.861477 0.7563251 -2.537633e-19)
(-2.523369 2.542738 -1.633176e-20)
(-2.73127 3.708597 -6.603236e-19)
(-2.555886 4.046617 -9.16295e-19)
(-2.223557 3.759377 -9.994228e-19)
(-2.211037 3.637356 1.167841e-18)
(-2.84236 3.203011 -1.566827e-18)
(-4.54648 3.114417 1.82587e-18)
(-5.511935 3.817139 -2.376673e-18)
(-5.552092 4.643434 0)
(-4.738946 4.976145 0)
(-3.091419 4.485932 -1.855667e-18)
(-0.5975815 4.16511 0)
(2.189155 1.160429 1.413145e-20)
(5.98146 -3.498916 -1.686334e-20)
(9.168605 -4.740924 -4.858719e-19)
(10.95763 -5.049976 -2.518384e-20)
(11.80656 -5.406727 1.54697e-20)
(12.06053 -5.921374 -2.034203e-18)
(12.44793 -6.235612 -5.659003e-20)
(12.99682 -5.160535 2.778559e-18)
(13.30391 -2.178092 -8.336521e-20)
(15.67839 0.07542038 1.984547e-18)
(18.83695 -0.3925328 -5.066223e-20)
(17.64957 -1.324636 3.439855e-18)
(17.87862 -1.114306 2.91095e-20)
(18.19532 -0.5049169 -7.151376e-21)
(18.2951 -0.1205214 -5.071793e-19)
(18.50898 0.3591584 -4.156467e-21)
(18.6559 0.9501525 -5.692622e-19)
(18.72309 1.613928 -3.62674e-20)
(18.69359 2.305257 -1.122126e-18)
(18.56966 2.999581 2.310936e-18)
(18.3781 3.714533 -2.296814e-18)
(18.12953 4.390937 4.412949e-18)
(17.80599 5.068627 2.410271e-18)
(17.41849 5.69413 0)
(16.97032 6.298675 0)
(16.48468 6.883124 4.121418e-18)
(15.96064 7.402259 3.938174e-18)
(15.38136 7.881364 0)
(14.76471 8.294417 -1.046855e-19)
(14.10458 8.665011 3.395521e-18)
(13.41363 8.984298 3.040599e-18)
(12.70033 9.234055 2.690206e-18)
(11.97189 9.433154 -7.252603e-20)
(11.23507 9.582649 -2.089562e-18)
(10.48389 9.66266 5.454595e-20)
(9.72474 9.66896 -5.506139e-20)
(8.969118 9.621555 -1.371239e-18)
(8.222859 9.525698 1.034837e-18)
(7.483701 9.372378 0)
(6.769298 9.143614 0)
(6.062933 8.869321 -2.751939e-19)
(5.394632 8.5247 -9.010585e-21)
(4.73973 8.131418 -8.6645e-21)
(4.135054 7.681817 -6.930179e-19)
(3.561277 7.189079 -1.938751e-18)
(3.011989 6.663645 1.152721e-18)
(2.515484 6.092731 -1.444987e-18)
(2.072472 5.480849 -8.222334e-19)
(1.685106 4.832458 -2.844651e-20)
(1.353951 4.157652 0)
(1.04669 3.483868 -1.091316e-18)
(0.8391849 2.780024 -3.659871e-20)
(0.6632196 2.060464 -6.390358e-19)
(0.5595302 1.334322 3.429784e-19)
(0.5459709 0.5669621 3.38991e-23)
(0.5329955 -0.1822091 -3.533606e-19)
(0.5679022 -0.9473583 3.069043e-20)
(0.6903302 -1.679697 -6.532409e-19)
(0.8741868 -2.39054 1.210384e-18)
(1.112952 -3.085133 -1.181365e-18)
(1.409134 -3.756514 2.29069e-21)
(1.753703 -4.396012 1.006792e-18)
(2.165394 -5.002668 -1.692934e-18)
(2.597424 -5.588859 1.511322e-18)
(3.076138 -6.1267 1.20881e-18)
(3.618561 -6.616745 7.497932e-21)
(4.192824 -7.070296 7.934983e-21)
(4.784289 -7.476032 -4.993055e-19)
(5.413066 -7.8354 2.75677e-19)
(6.076844 -8.145524 5.196578e-21)
(6.749329 -8.394472 2.849181e-19)
(7.43538 -8.576512 -1.191771e-18)
(8.135204 -8.707234 8.637772e-19)
(8.849676 -8.770486 -4.794032e-20)
(9.563355 -8.778295 -1.442854e-18)
(10.26954 -8.740025 3.449687e-18)
(10.97007 -8.634372 6.571199e-20)
(11.64701 -8.469583 2.192381e-18)
(12.30391 -8.238377 -2.586722e-18)
(12.94451 -7.94985 8.056685e-20)
(13.55188 -7.623324 -2.982358e-18)
(14.12872 -7.234432 -3.071531e-18)
(14.6628 -6.80405 1.063268e-19)
(15.15449 -6.320605 -3.553701e-18)
(15.60356 -5.796284 3.681714e-18)
(15.99983 -5.246614 0)
(16.33445 -4.660344 0)
(16.60361 -4.044634 1.999071e-18)
(16.80837 -3.421642 1.986921e-18)
(16.94229 -2.80193 0)
(16.98651 -2.205302 1.044095e-18)
(16.9443 -1.662225 9.421785e-19)