/*--------------------------------*- C++ -*----------------------------------*\
| =========                 |                                                 |
| \\      /  F ield         | OpenFOAM: The Open Source CFD Toolbox           |
|  \\    /   O peration     | Version:  2406                                  |
|   \\  /    A nd           | Website:  www.openfoam.com                      |
|    \\/     M anipulation  |                                                 |
\*---------------------------------------------------------------------------*/
FoamFile
{
    version     2.0;
    format      ascii;
    arch        "LSB;label=32;scalar=64";
    class       volScalarField;
    location    "0.42";
    object      p;
}
// * * * * * * * * * * * * * * * * * * * * * * * * * * * * * * * * * * * * * //

dimensions      [0 2 -2 0 0 0 0];

internalField   nonuniform List<scalar> 
4529
(
-1.866483e-06
-2.295797e-06
-1.350373e-06
-5.400658e-06
-2.574625e-06
-7.696021e-06
-1.516581e-06
-2.750609e-06
-2.624722e-06
-1.318397e-06
1.812749e-06
-1.139852e-06
-3.503135e-07
-9.225469e-07
-1.04657e-06
-4.01355e-07
-2.802815e-06
-1.158713e-06
2.846414e-07
-2.186809e-06
-1.561074e-07
-1.025984e-06
-9.706248e-07
-1.758712e-06
-1.346772e-07
-2.150631e-06
-4.446505e-06
-3.587855e-06
-3.797025e-06
-4.660623e-06
-3.634281e-07
-1.150239e-06
-7.079401e-07
-9.258292e-08
8.329775e-07
-1.909304e-06
-1.678626e-06
-2.007027e-06
-4.76177e-06
-6.755354e-07
-8.454152e-07
-6.511772e-07
-1.504277e-06
-1.869997e-07
4.487118e-08
1.465924e-07
-1.222537e-06
-1.990926e-06
2.766873e-07
-2.400619e-06
-5.930932e-06
-1.547991e-06
-7.174669e-06
-2.131263e-07
-3.280652e-06
-2.953237e-06
-2.386271e-06
2.814114e-06
-6.838562e-06
-8.101436e-06
-3.290048e-06
1.928947e-07
-7.368123e-07
-8.161002e-06
-1.683205e-06
3.559663e-07
-1.758837e-06
-1.014477e-06
-1.615925e-06
2.373814e-06
-1.755066e-06
-2.136181e-06
-3.848013e-06
-6.151907e-07
-8.969667e-06
-5.696245e-06
-3.729418e-07
1.230504e-06
-7.520984e-06
-2.374038e-06
-3.777762e-06
-1.661544e-06
4.899483e-07
-1.925243e-06
-2.03583e-06
-6.422136e-07
1.080772e-08
4.934456e-07
2.196879e-07
-2.33545e-06
-7.834752e-06
-7.610104e-07
3.710449e-07
-1.388986e-06
-9.58939e-07
-1.212606e-06
-5.801121e-06
-4.125152e-06
-5.960494e-06
-3.062195e-06
-9.612834e-07
-5.219522e-06
-2.124747e-06
-3.772799e-06
-1.199863e-06
4.190392e-07
-6.914085e-06
5.226439e-07
1.048763e-06
-7.187542e-07
-1.656826e-07
-1.185495e-06
-4.71165e-06
-4.421275e-06
-3.934698e-06
-9.368652e-07
-1.659957e-06
-3.084927e-06
-1.472692e-06
-5.359883e-07
-2.958483e-06
-1.970744e-06
-1.013996e-06
-1.771179e-06
-9.70856e-07
-2.609284e-06
-3.149195e-06
2.595794e-07
-7.661678e-07
-4.678216e-06
-1.689334e-06
-3.861666e-06
-8.923342e-06
-4.50329e-07
-5.472043e-07
3.398025e-07
4.923583e-07
-2.707469e-07
-1.473322e-06
-2.397932e-06
-3.423657e-06
-2.509717e-06
-1.041001e-06
-3.564513e-06
-5.229302e-06
-2.901782e-06
-8.221105e-07
-3.327418e-06
-2.769677e-06
-1.719622e-06
-1.889747e-06
-4.067761e-06
-3.685568e-06
-7.455368e-07
-4.599841e-06
-6.048e-07
-3.038875e-07
-3.111935e-06
-1.242033e-06
-1.302793e-06
9.156788e-07
-3.94021e-07
-5.616716e-06
-4.151201e-06
-1.153208e-07
-2.776737e-08
-1.938451e-07
-2.349558e-06
-3.790809e-06
-2.122368e-06
-6.502563e-06
-1.542241e-06
-9.243648e-06
1.554924e-07
-4.055423e-07
-3.179718e-06
-2.215694e-06
-8.505222e-06
-9.293297e-06
7.457864e-07
2.638086e-07
-2.704909e-06
-1.713052e-06
-1.792189e-06
2.061892e-06
-9.882246e-06
-2.333919e-06
-6.577604e-07
-5.204561e-06
-8.053001e-07
-2.017238e-06
-7.403433e-06
1.061745e-06
-4.215264e-06
-1.631611e-06
3.983523e-07
2.501403e-07
-4.849743e-06
1.76831e-06
-1.123299e-07
-1.356783e-06
1.072853e-06
-1.473771e-06
-7.320594e-06
-9.038674e-07
-2.011522e-06
-5.878431e-06
-2.319352e-06
-2.886792e-06
-8.104239e-06
-1.003962e-07
-2.979667e-06
-9.856529e-07
-4.746407e-06
-2.359681e-06
-2.721278e-06
-1.821794e-06
-1.023298e-06
-2.161596e-06
5.540941e-06
-2.764904e-06
-3.573656e-07
-2.360648e-06
-5.684821e-07
-1.311758e-06
1.027498e-06
-8.436187e-07
-2.581449e-06
-6.693103e-06
-8.064175e-07
-5.197212e-06
-7.67436e-06
-1.150426e-05
-5.71832e-07
-2.892028e-06
-3.334694e-06
-2.318712e-06
-4.582175e-06
1.232484e-07
-1.635335e-06
-2.626531e-06
1.740315e-08
-5.260831e-07
-5.950561e-06
1.619369e-06
-3.299866e-06
-7.787206e-06
-9.776065e-07
-1.575899e-06
1.996492e-07
-5.720884e-06
8.886634e-07
-2.951291e-06
3.218846e-06
-5.727355e-08
-1.407135e-06
-4.214425e-06
-6.516471e-06
-5.038571e-06
-1.075626e-06
1.107214e-06
-6.97288e-07
-1.076903e-06
-1.178746e-06
-1.414906e-06
-5.431631e-06
-1.605911e-06
-4.847922e-06
-2.863364e-06
-5.874618e-07
-2.107121e-06
-4.496244e-07
-1.19399e-06
-4.491923e-06
-6.697929e-06
-2.781655e-07
-2.953687e-07
-4.962759e-08
-5.420508e-06
-1.178929e-05
-1.194346e-06
-1.461632e-06
6.103041e-08
-3.458491e-06
3.20578e-08
-1.502545e-06
-2.243687e-06
-2.452002e-07
-2.828378e-06
-1.168831e-06
-4.90469e-06
-6.587689e-07
-8.218775e-07
-1.548291e-06
-2.325024e-06
-7.84144e-07
-1.127463e-06
-3.087349e-06
-1.083867e-06
-1.849153e-06
-1.150127e-06
-1.602345e-06
-2.744163e-06
2.908517e-06
-1.760122e-06
-3.0223e-06
-4.558471e-06
-9.694493e-07
-3.279153e-06
-1.108259e-06
-8.725224e-07
-2.047052e-06
4.782423e-07
-1.527185e-06
-3.32246e-06
-1.602643e-06
-1.546814e-06
-1.190052e-06
-7.675875e-06
1.051321e-06
-9.389102e-07
1.337764e-06
-2.147525e-06
-3.623971e-06
-1.412183e-06
-3.109964e-06
-3.820043e-06
-3.423836e-07
-7.118279e-07
-3.995707e-07
-1.34684e-07
-5.382739e-07
-4.518674e-07
-7.846676e-07
-2.799006e-07
-4.534787e-06
-3.793534e-06
-2.87123e-06
-3.450718e-07
-8.358165e-07
-9.414733e-07
-4.088756e-06
1.947754e-06
-4.696298e-06
-4.903983e-06
7.479688e-07
-1.770824e-06
-6.146819e-06
-4.546871e-06
-1.343983e-06
-1.219062e-06
1.918051e-06
-1.387947e-06
-1.460274e-06
-2.540381e-07
-3.172374e-06
-4.244584e-06
3.492672e-06
-1.698647e-06
-9.458153e-07
-5.624535e-07
-9.173535e-07
-2.515537e-06
-7.262436e-07
-3.302918e-07
-3.343581e-07
-3.161716e-07
-2.71996e-06
-1.538983e-06
-2.675191e-06
-7.215241e-08
-7.553196e-07
-2.302809e-06
7.257555e-07
-1.614294e-06
-2.629823e-07
8.09875e-07
-6.556076e-06
-9.156163e-06
-2.179348e-06
-9.137107e-07
3.768423e-08
5.138455e-07
-1.229564e-07
-8.586929e-07
-1.458915e-07
-4.944269e-06
1.868413e-06
-2.722845e-06
-3.785252e-08
-6.668286e-06
5.569568e-07
3.48242e-06
-2.145724e-06
-1.75979e-06
-2.197114e-06
-2.369782e-06
-3.269736e-06
-2.955104e-06
-3.120591e-06
-1.557709e-06
1.147276e-06
-6.191418e-06
-5.74205e-06
-6.018034e-06
-1.060699e-06
-6.069422e-06
-2.539582e-07
7.764431e-07
-1.696519e-06
-2.645034e-06
-1.09295e-06
-4.644149e-06
-1.949666e-06
-2.087249e-07
-1.044759e-06
-6.685974e-07
-2.702992e-06
-4.201728e-07
6.525062e-07
-6.853218e-06
-2.617338e-06
-6.697674e-06
-3.629285e-06
-9.250927e-06
-7.443958e-06
-5.660963e-06
-2.824123e-06
-1.976027e-06
-2.11104e-06
-5.114217e-07
-3.157504e-07
-9.04655e-06
-7.221131e-06
9.914522e-07
-1.15757e-06
5.986547e-07
1.317063e-07
-2.422434e-06
1.794883e-07
-2.161421e-06
-4.494394e-07
-5.936022e-06
-1.514489e-06
-1.370255e-06
-1.383863e-06
4.772654e-07
-1.45472e-06
-1.31532e-06
-2.308411e-06
-3.276787e-06
-2.284514e-06
-2.182321e-06
-1.330238e-06
-1.102118e-06
-5.266319e-06
-9.745527e-07
-4.770186e-06
-8.845787e-07
-9.219491e-07
-2.847238e-08
-1.613371e-06
-1.345961e-06
1.646913e-06
-4.780916e-06
-3.405648e-06
-7.209006e-07
-4.49152e-07
-2.068159e-07
-3.76328e-07
-1.851893e-07
1.486379e-06
-1.946832e-06
-1.476495e-06
-4.090337e-06
-5.76817e-08
-4.257888e-06
-1.294998e-06
1.076817e-07
-9.770592e-07
6.991819e-07
-1.710244e-06
-2.638431e-06
-4.138734e-07
-1.984052e-06
6.161512e-07
-2.652613e-06
3.073596e-07
-1.764399e-06
-3.934892e-06
-1.183413e-05
-2.079327e-06
-2.088632e-06
-3.495799e-07
-1.25941e-06
-2.64242e-06
-2.495889e-06
-3.185941e-06
-1.579174e-06
-4.3589e-06
-2.429698e-06
-6.034598e-07
-2.820549e-06
-4.085762e-06
-1.169592e-06
-7.603099e-07
-3.266354e-07
-3.202e-07
-3.784485e-07
-5.402798e-07
-3.484554e-07
-5.75584e-07
-3.251501e-06
1.081317e-06
-1.03463e-06
-3.854895e-06
-1.147339e-06
-1.897797e-06
2.123307e-07
-8.19696e-07
-1.176702e-06
-9.336117e-08
-2.11783e-06
-1.013153e-06
-1.159115e-06
-4.417834e-08
-7.356784e-07
-2.15558e-06
4.997514e-07
6.715323e-08
-1.392759e-06
-7.520412e-07
-6.690315e-07
-7.64305e-07
-3.461917e-07
-4.256283e-06
1.546827e-07
1.997575e-07
2.942713e-08
1.82104e-06
-1.030532e-05
-5.363139e-07
1.889704e-06
-5.854044e-07
-3.330912e-06
-1.564007e-07
-1.438679e-06
-2.855137e-06
-1.063208e-06
1.906352e-06
-2.372173e-06
-1.602144e-06
-1.82273e-06
-2.195386e-06
-1.004577e-06
-1.874431e-06
-4.886259e-06
-4.546426e-06
1.337467e-06
-3.280871e-06
1.016948e-07
-1.122836e-06
-3.529118e-06
-6.678647e-06
-3.725761e-06
-6.338538e-07
-1.166599e-06
-4.288687e-06
-3.464843e-06
-6.110813e-06
-8.949459e-07
9.093667e-07
1.896121e-07
-3.336364e-06
-1.916723e-06
-2.351932e-06
-2.155828e-06
-3.611209e-06
-2.50018e-07
6.425588e-09
-2.360904e-06
-3.833964e-06
-2.550063e-06
-9.51048e-07
-1.291831e-06
-3.040852e-06
-1.079314e-06
-3.39116e-06
-1.540399e-06
-4.652503e-07
6.765414e-07
-3.248221e-06
-1.324737e-06
3.837195e-06
-3.457871e-06
-1.144035e-06
-2.100308e-06
-2.089833e-06
6.988853e-07
1.127408e-06
-2.08283e-07
-1.645481e-06
1.172051e-07
-5.845759e-07
-4.460616e-07
7.333136e-08
1.41662e-07
-1.331845e-06
8.211725e-08
-2.105593e-06
-6.133166e-06
-1.554185e-06
-1.838821e-06
-9.553609e-07
-1.247232e-06
2.776204e-06
4.350852e-07
4.930983e-08
-5.621162e-06
-8.550514e-07
-6.035569e-07
-3.869856e-06
-4.100131e-06
-3.279046e-07
-4.198075e-06
-4.037699e-07
3.910654e-07
-1.345274e-06
-3.577315e-06
-1.136309e-06
-3.754607e-06
-6.230967e-06
-6.153812e-06
-1.070647e-06
-6.700235e-07
4.057951e-07
6.918862e-07
-1.015041e-06
-1.935479e-06
-1.332696e-06
-8.866206e-07
-8.184812e-08
1.145847e-06
3.283112e-06
-2.63897e-06
-2.228834e-07
-2.61523e-06
-3.768808e-06
-3.182429e-07
-1.588085e-06
1.65727e-07
-4.195867e-06
-3.763396e-06
-6.145055e-06
-1.243126e-06
-1.934848e-06
-1.665604e-07
-5.312465e-06
-8.237738e-07
-9.139964e-06
-1.458611e-06
-2.068264e-06
-5.062834e-06
-1.17821e-06
-4.203186e-06
-3.110826e-06
-2.396154e-06
-1.499687e-06
-9.454438e-06
-1.61961e-06
-1.901971e-06
1.127571e-06
-1.428193e-06
-1.193078e-07
-3.457458e-06
-1.132979e-06
-1.161574e-06
8.238971e-07
-2.845286e-06
-1.531164e-06
-1.110064e-06
-1.355314e-06
-1.577931e-06
-1.534302e-06
7.538764e-07
-1.672265e-08
1.133552e-06
-1.9624e-06
-1.15062e-06
-6.285055e-06
-2.850626e-06
-2.341132e-06
-3.478264e-06
-3.581949e-06
-6.448002e-07
-2.844164e-07
-7.973082e-07
-4.238249e-06
-5.337452e-06
-6.481392e-07
-7.228867e-07
-6.238981e-07
-9.303571e-06
-1.031974e-06
-3.456184e-08
2.049752e-06
-2.331579e-06
-1.715405e-06
-1.546335e-06
-7.218063e-06
-6.445966e-06
-1.962822e-06
-6.368999e-06
-1.029717e-06
-1.755751e-06
-5.066874e-06
-1.110501e-06
-1.670432e-06
-2.540505e-06
-1.622817e-06
-5.505935e-06
-1.144338e-06
-2.495828e-06
-1.253611e-06
-6.101311e-07
-3.796013e-06
1.492685e-06
4.977115e-07
2.916653e-06
-1.655292e-06
-1.607639e-06
-2.251891e-06
-1.743605e-06
-1.12088e-06
-2.97103e-06
-2.586544e-06
-1.549046e-06
-5.66644e-06
-2.132475e-06
-6.438147e-06
-1.438845e-07
-5.740112e-06
-6.03425e-06
-7.90769e-06
-5.208284e-06
-1.849566e-06
-1.164504e-06
-1.445246e-06
-1.350459e-06
-8.726089e-06
-1.401542e-06
-2.056005e-06
-6.373517e-06
-2.269902e-06
-5.127625e-06
-2.493532e-06
-9.797705e-07
-1.032018e-05
-7.779957e-06
-8.806111e-06
-5.017643e-06
-3.877557e-06
1.57743e-07
-7.115506e-06
-8.88109e-07
-5.034576e-06
-6.490856e-06
-1.715195e-06
-4.709866e-06
-4.644102e-06
-2.992578e-06
-5.539758e-06
-7.180936e-06
-2.490615e-06
-1.988779e-06
-1.042761e-06
-9.574423e-08
-4.876651e-07
-3.505725e-06
-4.139825e-06
-9.624188e-06
-2.663228e-06
-8.345082e-07
-1.462719e-06
-8.145387e-07
-1.231386e-06
-6.058805e-06
-2.742966e-06
-1.443117e-06
-9.007896e-07
-2.475133e-06
-1.205587e-06
-4.362166e-06
7.89752e-09
-1.604676e-06
-7.609493e-07
-1.248136e-06
-7.181207e-06
-2.154768e-06
-2.188992e-06
5.560144e-07
-1.203385e-06
-5.334811e-06
-9.47061e-06
-2.911186e-06
-2.066679e-06
-1.208169e-06
-1.808238e-06
-1.239344e-06
3.3466e-08
-8.777372e-07
-1.149458e-06
-3.848956e-07
-1.222899e-06
-1.331871e-06
-2.135785e-06
-1.478834e-06
-1.295422e-06
-3.208573e-06
-3.800898e-07
-8.691936e-07
-5.331933e-06
-1.130309e-05
2.488832e-08
7.144603e-07
-1.572916e-06
-1.283734e-06
-7.793331e-07
-4.912409e-07
-2.53177e-06
-8.515626e-08
-8.039724e-07
-2.50231e-06
-2.646762e-06
-1.52522e-06
2.130834e-07
3.502034e-07
-3.307607e-06
-2.048047e-07
-3.09549e-06
-2.077919e-06
-4.303185e-06
-2.418578e-06
-5.877186e-06
-3.431141e-06
-7.188645e-06
-6.947029e-06
-3.594255e-06
-4.662812e-06
-9.771065e-07
4.459999e-07
8.3151e-07
-1.35534e-06
-1.703789e-06
-1.241752e-06
-2.166197e-06
-1.199375e-06
-1.327146e-06
-1.316957e-06
-1.498517e-06
-3.772718e-06
-2.229514e-06
-3.775629e-07
-1.69723e-06
-6.462733e-07
-1.049849e-06
-7.192347e-06
-4.693662e-06
-4.284476e-06
-6.153808e-06
-5.57795e-06
-2.990177e-06
-2.510039e-06
-7.783805e-06
-3.065767e-06
-5.9366e-06
7.080823e-07
-6.613297e-06
-4.43873e-07
-1.94887e-06
1.644507e-07
-5.147292e-06
-9.92729e-07
-3.621601e-06
-5.380658e-06
-8.377725e-06
-3.276372e-06
-2.617864e-06
-1.959103e-06
-9.160272e-07
-1.220917e-06
-4.252807e-07
-3.597041e-06
-3.743879e-06
-2.247574e-06
-6.694748e-06
-7.264171e-06
-6.371106e-06
-5.240199e-06
-8.663348e-06
-6.573314e-07
-1.34101e-06
-2.481119e-07
1.841726e-08
-1.767812e-06
-1.463575e-06
-2.521832e-06
-2.018005e-06
-5.157223e-06
-4.181545e-06
-3.804685e-06
-5.359668e-06
-4.732818e-06
-2.918748e-06
-3.68862e-06
-5.484518e-06
-4.012406e-06
2.491989e-08
-4.940756e-08
-4.866407e-06
-6.60427e-06
-8.569233e-06
-6.57623e-06
-2.150193e-06
-2.28631e-06
-8.231894e-06
-8.924245e-06
-9.268427e-06
-2.083584e-06
-3.621499e-08
-4.521792e-06
-4.934889e-06
-9.384482e-07
-1.196962e-06
-1.00112e-06
-3.453176e-06
-6.737463e-06
-4.765022e-06
-4.889018e-06
-4.574714e-06
-4.911157e-06
-6.082985e-06
-5.407839e-06
-4.742827e-08
-5.316398e-06
-5.913551e-06
1.016985e-06
-4.14781e-06
-3.128428e-06
-3.289615e-06
-5.723077e-06
-2.687898e-06
-7.668812e-07
-4.977488e-06
-8.08895e-06
-8.165171e-07
-1.892634e-07
-7.757684e-06
1.184658e-06
-5.105423e-06
-1.186661e-06
-2.298893e-06
-4.573903e-06
-1.797074e-06
-4.4058e-07
-3.466229e-07
-5.525591e-06
-2.817463e-06
-4.520535e-06
-6.519591e-06
-3.573629e-06
-3.906983e-06
-4.035892e-06
-5.205229e-06
-1.174267e-06
-1.844598e-06
-2.058522e-06
-1.812992e-06
-3.886438e-06
-9.478706e-06
-8.155528e-06
-2.689948e-06
-9.089396e-07
-7.86881e-06
1.189049e-06
-6.784085e-06
-2.027492e-06
2.133404e-06
-2.700439e-07
-3.374016e-06
-8.2356e-06
-4.475301e-07
-3.096281e-07
-1.035839e-06
-5.735936e-06
-9.801663e-06
-1.463632e-06
-1.042153e-06
2.680681e-06
-1.851611e-06
-1.392259e-06
1.635722e-06
-1.604371e-06
4.611523e-07
-4.744964e-06
-2.028845e-06
-4.136708e-06
-8.11834e-07
-1.031349e-06
-3.976244e-06
-9.927108e-06
-4.588524e-07
-7.687595e-06
-5.113942e-06
-4.956954e-06
-2.694125e-06
-8.801786e-07
-5.223713e-06
-1.724498e-06
-2.077727e-06
-2.021341e-06
-2.052963e-06
1.428536e-06
-9.630554e-06
-9.515657e-06
-7.517891e-06
-1.105304e-05
-9.638726e-06
-9.647619e-06
-1.189652e-05
-3.399317e-06
-7.102901e-06
2.016391e-07
4.172613e-07
-1.234395e-07
8.499817e-08
-3.655676e-06
-2.540853e-06
-5.351569e-06
-1.432275e-06
-1.192906e-06
-1.242758e-06
-1.431648e-06
-1.392067e-06
-6.503515e-07
-1.331444e-07
-2.968946e-07
2.664906e-08
-1.422879e-07
-1.269597e-07
-4.301614e-06
-1.945689e-06
-7.01085e-07
-2.933664e-07
1.761592e-06
-1.058854e-06
-2.346572e-07
-1.969081e-06
-5.86493e-06
-1.205676e-06
-6.650515e-06
-8.453659e-06
-5.965747e-06
-2.496131e-06
-1.888468e-06
-4.916526e-06
-3.17376e-06
-6.670241e-06
-3.151248e-06
-7.319777e-07
1.589635e-06
-2.685833e-06
-3.727666e-06
-8.037797e-07
-9.779932e-07
6.116382e-07
-1.328667e-06
-9.33297e-07
-9.936992e-07
-1.065568e-06
-3.895567e-07
-1.258752e-07
-5.123904e-07
-5.835025e-08
-1.362103e-06
1.769827e-08
-3.912647e-07
-4.551521e-07
-1.691253e-08
-9.839141e-08
-5.300417e-08
-2.71669e-06
-1.778093e-06
-2.21383e-06
-6.627283e-06
-8.593005e-06
-5.674408e-06
-1.170075e-06
-9.160092e-06
-5.820036e-06
-7.682222e-06
-9.710976e-07
-1.303255e-06
-4.395904e-06
7.882394e-07
-3.036149e-07
-1.91766e-06
-1.526554e-06
-1.07347e-06
-2.062412e-06
-1.761e-06
-2.435775e-06
-9.406816e-08
-3.286563e-06
6.984173e-07
-6.657462e-07
-6.412434e-07
-1.266261e-06
-1.358387e-06
-1.414937e-06
-6.050955e-06
-1.555464e-06
-2.106226e-06
-3.016891e-06
-3.668587e-06
-4.062294e-06
-4.886203e-06
-8.754824e-06
-8.722217e-06
-9.322805e-07
-8.898662e-06
-9.003512e-08
1.299363e-07
-1.245694e-08
-2.021426e-07
-2.505971e-08
2.861557e-07
-6.17461e-06
-5.997484e-06
-1.098286e-06
-3.34958e-06
-2.975215e-06
-5.05867e-06
-1.68582e-06
-1.868128e-06
-1.879559e-06
-5.731294e-06
-4.429931e-07
-9.097052e-06
-2.933571e-06
-1.571209e-06
-3.145836e-07
-1.802895e-06
-2.31955e-06
-5.79635e-07
-6.563114e-07
-3.034021e-06
-1.181248e-06
-1.72814e-06
-2.256763e-06
-2.065925e-06
-1.623456e-06
1.496257e-07
-2.54337e-06
-2.466738e-06
-1.988522e-06
-1.281871e-06
-2.456926e-06
-2.58624e-06
-1.38485e-06
-6.481016e-07
-4.751006e-06
-7.281221e-07
-5.226216e-06
-2.400806e-06
-3.521833e-06
-3.292599e-06
-7.206055e-07
-1.914835e-06
-2.068067e-06
-6.154074e-06
-1.445236e-06
-5.206082e-09
-1.225768e-06
-5.419392e-06
-1.419394e-06
-1.561033e-06
-2.904389e-07
-2.660875e-07
-1.626692e-06
-1.516272e-06
8.400525e-07
-5.726644e-06
-8.242718e-06
-6.278736e-06
-1.365354e-06
7.041252e-07
6.57041e-07
-1.028413e-06
-7.166365e-07
-1.2705e-06
-5.732294e-07
-2.099566e-06
-8.558251e-07
-2.058483e-06
-3.908465e-06
-4.246344e-06
-1.914852e-06
-2.32661e-06
-2.778144e-06
-7.86357e-07
-1.722153e-06
-2.145643e-06
-6.140178e-06
-4.044273e-06
-3.701386e-06
2.459592e-07
1.401018e-06
-3.281077e-07
-4.058786e-06
-5.454886e-06
-9.543113e-07
-5.09815e-07
-1.738033e-06
-7.163053e-07
-7.471056e-07
-1.128706e-06
-3.920844e-07
1.70356e-07
-9.105232e-07
-3.515328e-07
-6.815339e-07
-1.885125e-06
-1.181074e-06
-4.828629e-06
-1.814183e-06
-1.098703e-06
-2.551532e-06
1.21032e-07
-8.016287e-07
-6.256795e-07
-9.750782e-07
-4.687201e-06
-5.839218e-06
-1.26043e-06
-9.304075e-07
-1.277591e-06
-1.681118e-08
-1.758477e-06
2.029376e-07
-3.399314e-06
-2.457643e-06
-2.748858e-06
-9.729055e-06
-6.27807e-06
-1.010803e-06
-4.387989e-06
-6.87105e-06
-6.846624e-06
-8.276756e-07
-6.087754e-07
-1.245797e-06
-3.588238e-07
-2.680235e-06
-5.128893e-07
2.632251e-07
-1.752975e-06
-9.4004e-06
-6.959592e-07
4.119391e-08
-1.268569e-06
-1.013805e-06
-1.955862e-06
-7.666607e-07
-3.994322e-06
-5.90023e-06
-1.59718e-06
-4.483905e-06
-2.341628e-07
4.810938e-07
-7.256331e-07
-8.115619e-06
-1.337518e-06
-1.917025e-06
-7.129006e-07
-1.798572e-06
2.648713e-06
-2.239006e-06
-4.427593e-06
-4.245487e-07
-2.218306e-06
-1.876013e-06
5.673691e-07
2.33987e-07
-1.809444e-07
-1.161889e-06
-6.412998e-08
-1.229819e-07
-8.009335e-07
-7.671418e-06
-5.680168e-07
-3.823474e-07
-2.615822e-07
-6.509413e-07
-1.132178e-06
-5.61325e-07
-5.880361e-07
-3.497278e-07
-8.084498e-07
-6.530415e-07
-1.658305e-07
-6.4808e-07
-2.210219e-06
-4.775061e-07
-3.19574e-07
1.168537e-07
-4.992408e-07
-5.350425e-07
-5.519251e-07
-6.088335e-07
7.225107e-07
-6.041726e-07
-4.159654e-06
1.275992e-06
1.035495e-06
-1.647449e-06
-4.043456e-06
-2.952182e-06
-4.193235e-06
-1.207891e-06
-6.543045e-06
-1.692867e-06
-6.644883e-07
1.206809e-06
-3.417746e-08
-4.109013e-07
-2.621703e-07
-1.63731e-06
-8.557329e-07
-3.487733e-06
-3.082217e-06
-8.608568e-06
-3.428287e-06
-2.980896e-06
-3.080914e-06
-2.142251e-06
-3.443716e-06
-3.090448e-06
-3.943701e-06
-3.163687e-06
-2.601497e-06
1.623993e-07
-5.934636e-06
-4.685618e-06
-2.519098e-06
3.559465e-07
-5.611753e-06
5.3813e-07
-1.540754e-06
7.878148e-08
-5.4866e-06
-4.60062e-06
-5.636662e-06
-8.586541e-06
-8.445345e-06
-2.902953e-06
-1.148699e-06
-1.28497e-06
-1.453455e-06
-1.323201e-06
-2.62515e-06
-1.225864e-07
-7.029471e-06
-1.936143e-06
-4.411831e-07
-2.466099e-07
1.304097e-06
-5.222085e-06
-6.814603e-06
-4.40736e-06
-4.892585e-06
-4.549847e-06
-4.43269e-06
-2.782019e-06
-1.225085e-06
-3.758063e-06
7.834409e-07
2.72922e-07
-3.301224e-07
-5.2173e-06
-4.692537e-06
-5.481807e-06
-5.053766e-06
-2.961711e-06
-4.895417e-06
-6.630807e-06
-6.798494e-06
-5.539714e-06
-4.072884e-06
-1.613546e-06
-4.661183e-06
-8.854255e-07
-8.417956e-06
3.966055e-07
-2.878319e-07
-4.769972e-06
-3.519769e-07
2.237614e-07
1.558059e-06
-1.877634e-06
2.553256e-06
1.929556e-06
-2.233056e-06
-4.896471e-06
-8.210587e-06
5.376209e-07
1.34267e-07
-4.008872e-10
-4.703657e-07
-5.629895e-06
-5.17938e-06
-5.436784e-06
-4.237904e-07
-1.179336e-07
-5.711121e-06
-8.524078e-06
-8.725945e-06
-3.738444e-06
-3.058591e-06
-5.981586e-06
-7.430491e-06
-1.738074e-06
-2.576708e-06
-3.843349e-06
-2.833588e-06
-2.521891e-06
-7.791898e-07
-9.408818e-06
3.360578e-08
-1.385944e-06
1.223913e-06
-1.958307e-07
-2.232604e-06
4.312813e-07
-3.406604e-06
-9.026322e-09
-6.617359e-06
-1.237864e-06
-2.723685e-06
5.834411e-07
-1.588935e-06
4.671937e-08
-5.563164e-07
-1.328798e-06
-2.45928e-06
-1.430984e-06
-1.555863e-06
-1.749608e-06
-1.124608e-06
-1.175015e-06
-1.96916e-06
-6.767424e-06
-2.68018e-06
-1.403346e-06
-3.62457e-06
7.983288e-07
8.110687e-07
-5.110856e-06
-1.096009e-07
-3.859608e-06
-2.115459e-06
-1.796967e-06
-9.399084e-07
-1.338754e-06
2.092056e-06
-3.954032e-07
8.390937e-08
-5.055588e-06
3.923908e-06
-8.24017e-07
-3.027612e-06
-1.001449e-06
-1.000488e-06
-7.341651e-07
-7.895876e-07
-1.58904e-06
-9.659124e-07
-8.476528e-07
3.501929e-06
-3.397899e-08
-6.437685e-08
-1.39289e-06
-2.206971e-06
-2.85405e-06
-1.164367e-06
-1.521347e-06
-2.375613e-07
1.450972e-07
4.017241e-07
-7.864492e-07
-1.190919e-06
2.250993e-06
1.697334e-06
-5.03071e-07
3.325868e-07
-2.170471e-07
-1.192024e-06
-1.349274e-06
-2.236251e-06
-1.311674e-06
-5.918947e-07
-7.416447e-07
-5.183206e-06
-7.917344e-07
-9.340488e-07
7.482106e-07
9.082191e-07
-5.539579e-06
-1.554637e-06
-2.028444e-06
4.002347e-07
1.236369e-07
-8.559382e-06
-3.139626e-06
-4.297446e-06
-4.752957e-06
-8.826497e-07
-1.235717e-06
-1.265726e-07
-1.29999e-06
-9.998223e-06
6.847122e-07
-4.866027e-06
1.46941e-06
-5.954982e-07
-1.322842e-06
-1.558673e-06
-3.68706e-07
-4.756009e-07
-2.993908e-06
-8.439885e-07
3.775843e-07
3.496759e-07
-5.660517e-06
-7.868939e-06
-4.256456e-08
-1.259406e-07
-2.602329e-06
-4.531759e-07
-2.773146e-07
-3.758237e-06
-1.00954e-05
-2.592197e-07
1.350412e-07
-2.231469e-06
-4.995116e-06
-5.613495e-06
-4.31456e-06
-5.476083e-07
-5.797059e-07
-2.783878e-06
-1.931414e-06
-3.226793e-07
-3.547158e-07
4.271161e-08
-4.524104e-07
4.097872e-07
1.522803e-06
1.39848e-06
-1.609402e-07
-2.310928e-06
-4.055715e-06
-3.163547e-06
-3.223718e-06
1.664254e-06
-6.916569e-06
-1.90574e-06
-2.012434e-06
-2.284199e-06
-9.232558e-07
-1.896291e-06
-1.669207e-06
-5.016687e-06
-6.050698e-06
-4.491059e-08
-4.649772e-06
1.146076e-06
-1.595941e-06
-1.751766e-08
-9.006584e-07
-8.224928e-06
-7.775382e-06
-1.058647e-07
-2.143186e-06
-2.801746e-06
-3.874966e-06
3.360511e-07
-4.736498e-07
-2.443486e-06
-1.858618e-06
-1.657024e-06
2.761929e-06
3.145612e-06
-2.612611e-08
-1.040625e-07
-4.366785e-06
-3.411634e-07
-1.195489e-06
-1.510176e-06
-4.592203e-06
-5.628601e-06
-7.195546e-07
-1.03707e-07
-1.485842e-06
-1.238415e-06
1.869808e-07
-4.133309e-06
-3.017376e-09
-5.123531e-07
-8.372574e-06
-1.023273e-06
1.895247e-06
3.870313e-06
-1.409052e-06
-1.416999e-06
8.297157e-08
2.383957e-07
-9.90615e-07
5.687717e-07
1.483353e-06
4.768128e-07
1.625004e-07
-9.330055e-07
-8.945387e-07
3.497847e-06
1.677302e-06
-2.331561e-06
-1.411977e-07
1.297225e-06
-4.960183e-06
-1.646187e-06
-2.163545e-06
-2.23308e-06
-7.549699e-07
-1.032322e-06
-1.814839e-06
-2.633035e-06
-2.120593e-06
-2.375105e-06
-3.32132e-06
-2.624795e-06
-2.892225e-06
-5.105905e-06
-1.21455e-06
-2.450308e-06
-2.64198e-06
-3.078241e-06
-3.118956e-06
-3.029875e-06
-2.297818e-06
-2.888448e-06
-2.496288e-06
-2.327242e-06
-1.892012e-06
-5.982972e-08
-1.672225e-06
-2.065812e-06
-4.012256e-06
-4.092427e-06
-1.456885e-06
6.828062e-07
-3.627719e-06
-4.831149e-06
2.328486e-07
-1.022386e-06
-5.046582e-06
-1.206435e-06
-3.250817e-06
-2.568953e-06
-2.25506e-06
-2.310445e-06
-2.418267e-06
-1.174314e-06
-2.641696e-06
-2.577287e-06
-3.512681e-06
-2.389516e-06
-2.394568e-06
-3.621973e-06
-4.316971e-07
3.86201e-08
-1.386926e-08
1.51691e-06
4.249447e-07
-1.096016e-06
-1.058191e-06
-1.984846e-07
-8.438462e-07
-1.618535e-06
2.939884e-08
-5.463642e-06
-4.351071e-06
-2.360373e-06
-9.113599e-07
-6.429797e-07
-1.945337e-08
6.470655e-07
6.834493e-07
-1.108152e-06
-1.436539e-06
-1.323438e-06
-4.384618e-06
-3.235712e-06
-1.644471e-06
-2.108954e-06
-1.085495e-06
-2.929204e-06
7.823586e-07
-2.434845e-06
-1.507886e-06
-4.045895e-06
-1.87361e-06
2.829492e-07
-2.737847e-06
-2.45071e-07
-1.665766e-06
-1.639443e-06
-1.547304e-06
2.296061e-08
-2.867793e-06
-7.362946e-06
1.710036e-07
6.227904e-07
5.978456e-07
8.441006e-07
-9.212186e-08
-1.540389e-06
-7.831325e-07
-1.427331e-06
-6.930491e-07
-3.634188e-06
-1.332609e-07
1.162924e-07
-1.718365e-06
-3.758196e-06
-8.60111e-07
-1.929807e-06
-1.696678e-06
3.610795e-06
-7.222375e-06
-6.668976e-06
-1.057329e-06
-1.224618e-06
-2.821667e-06
-9.679286e-07
-4.856395e-06
-1.859536e-06
-2.739576e-06
-1.281693e-06
-1.379542e-06
-1.248958e-06
-1.409706e-06
-1.177818e-06
-1.923001e-06
-3.441881e-06
-1.760151e-06
-2.037143e-06
-5.541224e-07
1.370666e-07
-8.663545e-06
-4.970921e-06
-4.850217e-06
2.673194e-08
-2.27088e-06
1.334409e-07
1.350758e-06
1.509267e-06
-1.399104e-06
-5.845241e-07
-1.548385e-06
-2.528666e-06
-5.07738e-07
8.335234e-07
-7.234667e-06
-6.215483e-06
-7.552062e-07
-6.015386e-07
-8.267488e-07
-4.940754e-06
-4.789981e-06
-6.57047e-06
-1.409183e-07
-1.93503e-07
-9.008453e-06
1.551353e-06
-4.241923e-06
-2.678165e-06
1.286668e-07
-1.388254e-06
-9.748897e-07
-6.715855e-07
-2.424056e-06
-2.556247e-06
4.363106e-07
-2.014433e-06
-1.377364e-06
9.591186e-07
-9.697961e-06
-5.951006e-06
-2.860945e-06
-1.468634e-06
-1.663164e-06
-7.729135e-07
-1.298087e-06
-2.410134e-06
-1.683529e-06
-1.975187e-06
-1.696004e-06
3.159484e-07
-2.694473e-08
-7.227611e-06
-6.726437e-06
1.438291e-06
-2.609375e-07
-4.355755e-07
-3.819641e-07
-1.73745e-07
-3.247718e-06
-3.057453e-07
-7.499925e-07
-1.236617e-06
-1.483996e-06
3.83442e-06
-1.384552e-06
5.946495e-07
5.31931e-08
-1.876107e-06
-4.492419e-06
-9.70126e-07
-6.889056e-07
-1.240594e-06
-1.801689e-06
-1.940035e-06
-3.360115e-06
-5.965076e-06
-2.543714e-06
-7.442432e-06
-8.153494e-06
-1.901217e-07
-1.809415e-06
-9.733275e-07
-8.873208e-06
-1.987459e-06
-8.235011e-06
-2.598455e-07
-8.51605e-07
1.965685e-07
7.611734e-07
-4.627933e-07
-9.045387e-07
2.460106e-07
4.002996e-09
-2.018947e-06
-2.202186e-06
-2.181904e-06
-4.931262e-07
4.10353e-07
-8.059569e-06
-3.262202e-07
-5.422007e-08
-3.635045e-06
-3.68661e-06
-4.148635e-06
-2.80161e-06
-6.548958e-07
-8.236927e-07
-5.079338e-07
-3.686099e-06
-5.503353e-06
-1.281625e-06
-6.21733e-06
-5.262067e-06
-5.709212e-06
-6.222742e-06
-7.599005e-07
-6.089572e-06
-1.669423e-07
-3.674473e-06
-3.731938e-06
-3.830524e-06
-8.510462e-06
-3.804442e-06
-2.293126e-06
-2.809212e-06
-3.225032e-06
-6.401251e-06
-3.011347e-07
-1.84007e-06
-1.373775e-06
-3.866245e-07
-8.465851e-06
-1.037166e-05
-8.864299e-06
-2.297509e-06
-7.098189e-06
-9.073709e-06
-9.93859e-06
-1.060443e-06
-1.886889e-06
-1.42496e-06
-2.986825e-06
-2.34989e-06
-4.762855e-06
-3.302273e-06
6.994115e-07
-6.680687e-06
-1.787013e-06
8.416739e-07
1.10921e-06
-1.881581e-06
-1.00719e-07
-4.503061e-06
-5.275361e-08
-1.12074e-06
-1.222965e-06
-4.784801e-07
-2.218318e-06
5.505792e-07
-1.709186e-06
-9.044091e-06
-4.419963e-06
-6.937317e-06
-7.90104e-06
-6.986304e-06
-9.405785e-07
-6.936822e-06
-4.309267e-06
-3.643678e-06
-1.841715e-06
-1.623442e-06
-1.459826e-06
-1.7546e-06
-4.687208e-07
-3.29598e-06
-3.570377e-06
-7.367366e-06
-5.799548e-06
-4.502406e-06
-4.431415e-06
2.905964e-07
-8.011871e-07
-1.283482e-06
2.082733e-06
-2.93433e-06
-3.349782e-06
-3.243338e-06
-7.884601e-07
-5.191519e-07
-4.674534e-06
-2.788253e-06
-2.898765e-07
-4.05206e-06
-1.972884e-06
-1.956729e-06
-2.112288e-06
-3.121076e-06
-5.707382e-06
-9.491361e-07
-1.247313e-06
4.843515e-07
4.379322e-07
-3.447806e-07
-3.392615e-07
-3.910912e-07
-2.491812e-07
-4.258833e-07
-4.426474e-07
-1.491141e-06
-3.857924e-06
-6.429854e-06
-3.871557e-07
-1.405382e-06
-9.089073e-07
-9.740314e-07
-1.453682e-06
9.674349e-07
-5.204288e-07
-9.480229e-07
-1.743228e-06
-1.625274e-06
-1.56134e-06
-1.910652e-06
-4.632847e-07
-4.757069e-07
3.248648e-07
3.445618e-07
4.463687e-07
-5.867599e-06
-1.127227e-06
-1.469711e-07
1.46718e-08
-6.979191e-07
-2.145491e-06
-2.509795e-06
-8.804419e-07
-7.223256e-07
1.299368e-06
7.121236e-07
-7.162994e-07
1.658975e-06
-5.239066e-06
-7.313548e-06
-3.277466e-07
-2.190989e-06
-1.024911e-06
-1.6236e-06
1.446226e-07
-7.106269e-07
-1.130692e-06
-2.872315e-06
-4.18921e-06
-3.981168e-06
-1.355558e-06
-7.503594e-07
-8.966668e-06
-2.622062e-06
-5.752626e-06
4.058175e-07
-2.489301e-06
-2.737913e-06
-1.321737e-07
-1.433674e-07
-9.582335e-07
-1.029263e-06
-1.365854e-06
-6.765604e-09
-1.538418e-06
-2.327596e-06
-2.035376e-06
-2.891917e-06
-1.274932e-06
-1.274676e-06
-1.332386e-06
-1.095157e-06
2.689217e-06
1.721202e-06
-1.638535e-06
-6.934719e-07
-2.410369e-07
-1.598327e-06
-1.290214e-06
-3.20914e-06
-2.363058e-06
-1.709683e-06
-1.593462e-06
-2.083311e-06
-2.240345e-06
-6.929276e-06
-7.50953e-06
-4.80646e-06
-4.618555e-06
-1.442283e-06
-1.423196e-06
3.17287e-07
-9.794954e-06
-8.974069e-06
-9.194766e-06
-3.633915e-06
7.029927e-07
-6.779945e-07
-7.289159e-07
3.798756e-07
9.457102e-07
-7.75394e-07
1.214085e-06
-1.941822e-06
-1.689535e-06
-1.43035e-06
-1.441722e-06
-1.193663e-06
-9.356638e-07
-7.807171e-07
-4.772394e-07
-1.189686e-06
-1.627558e-06
-1.85293e-06
-2.959534e-07
-1.853806e-07
-1.591992e-06
-1.535646e-06
7.888225e-07
-4.536287e-06
-5.027298e-06
-4.813403e-06
-5.447116e-06
-5.164408e-06
-5.904061e-06
-6.641589e-06
-5.5489e-06
-4.987911e-06
-6.466759e-06
-8.629671e-06
-1.986961e-07
-1.921829e-06
-1.814417e-06
-5.566257e-06
-2.38803e-06
-1.637232e-06
-9.319081e-07
-9.24112e-07
-1.747236e-07
-7.324615e-08
-1.187451e-06
-5.474528e-07
-2.583607e-06
-1.739293e-06