/*--------------------------------*- C++ -*----------------------------------*\
| =========                 |                                                 |
| \\      /  F ield         | OpenFOAM: The Open Source CFD Toolbox           |
|  \\    /   O peration     | Version:  2406                                  |
|   \\  /    A nd           | Website:  www.openfoam.com                      |
|    \\/     M anipulation  |                                                 |
\*---------------------------------------------------------------------------*/
FoamFile
{
    version     2.0;
    format      ascii;
    arch        "LSB;label=32;scalar=64";
    class       volVectorField;
    location    "0.42";
    object      U;
}
// * * * * * * * * * * * * * * * * * * * * * * * * * * * * * * * * * * * * * //

dimensions      [0 1 -1 0 0 0 0];

internalField   nonuniform List<vector> 
4529
(
(0.01043732 -0.0009628187 0)
(0.009169316 -0.0003631677 1.084871e-24)
(0.009313321 0.0001496451 -1.007035e-24)
(0.008219205 -0.000578164 -2.839927e-24)
(0.008778999 0.0002849581 1.376649e-24)
(0.00894266 0.001289241 0)
(0.00949686 0.0005241141 0)
(0.009472676 0.00116708 -1.741012e-25)
(0.00896166 -9.973673e-05 -1.033333e-24)
(0.009578853 -0.0004967201 6.036565e-26)
(0.01055168 -0.0001815735 -1.62268e-25)
(0.01002169 -0.0007661158 -4.877216e-25)
(0.00991441 -0.0004429439 2.925847e-25)
(0.01001027 -0.0007340022 -4.634224e-25)
(0.009566854 -0.0002799846 0)
(0.00980689 -0.0003889885 3.129685e-25)
(0.008972242 -0.0006982982 0)
(0.00976622 -0.0005904412 5.147661e-25)
(0.01012506 -0.0003115488 0)
(0.009607141 -0.0009060628 -6.22051e-26)
(0.01003807 -0.0003481626 -3.44434e-30)
(0.009662949 -0.0004354944 8.864867e-25)
(0.009621419 -9.219466e-05 -2.652307e-25)
(0.009366532 -0.000314931 0)
(0.01002363 -0.0003110078 1.455407e-26)
(0.009395935 -0.0005046826 -2.022639e-26)
(0.009841274 0.001307002 -3.7783e-25)
(0.008768801 0.000653294 -8.689928e-25)
(0.009152579 0.001017835 1.179392e-24)
(0.008530654 0.0001465674 -1.254759e-24)
(0.0101203 -0.0005531932 1.541106e-25)
(0.009608408 9.838162e-05 3.602679e-25)
(0.009810783 -0.0003145131 0)
(0.01021289 -0.0004945219 0)
(0.01089537 -0.0005638233 0)
(0.009225356 0.0005881118 1.614426e-24)
(0.009384405 -0.0002961502 -3.422817e-25)
(0.009989969 -0.0009073049 0)
(0.008841096 -0.0008856564 -2.257784e-24)
(0.01068552 -0.0008700394 6.04018e-25)
(0.009591379 -0.0001746582 -2.387359e-26)
(0.009819225 -0.0002835578 -3.298115e-25)
(0.009538083 -0.000156364 -5.75207e-25)
(0.01011339 -0.0004284058 0)
(0.01010271 -0.0003917376 9.638809e-27)
(0.01066804 -0.0007065622 -2.112792e-25)
(0.009521861 6.824609e-05 0)
(0.009209075 -0.0003110952 0)
(0.01011807 -0.0002735025 -6.054609e-27)
(0.009001064 0.0001139616 -1.233326e-24)
(0.007453134 -0.0002748497 5.363289e-24)
(0.009498261 -0.0003936749 -3.014817e-25)
(0.00739273 0.000379311 0)
(0.01043437 -0.0006858661 2.525919e-26)
(0.009402825 -0.00104492 2.106057e-25)
(0.008970842 -0.0002745355 -8.53043e-25)
(0.00902676 -9.48933e-05 0)
(0.01064955 -0.0001061492 1.824891e-24)
(0.00822198 0.0009836167 5.855035e-24)
(0.007979008 -0.0009444972 -4.186155e-24)
(0.009366678 0.0009482531 9.917061e-25)
(0.01053851 -0.0006298204 0)
(0.00990473 -0.0003107251 -2.738769e-25)
(0.007964836 -0.00103456 0)
(0.009395936 0.0003204286 0)
(0.01036092 -0.000660166 5.774582e-27)
(0.01014947 -0.00100873 7.695013e-25)
(0.009648047 -0.0002423088 3.050738e-25)
(0.009360415 7.346927e-05 0)
(0.01101737 -0.0004151758 0)
(0.009403423 -1.412173e-05 1.918117e-24)
(0.009104898 -0.0002645771 1.147806e-24)
(0.008507799 -0.0001187855 -9.994045e-25)
(0.009830526 -0.0003064354 -4.180952e-25)
(0.00744901 0.0003329785 -1.604947e-24)
(0.008628642 -0.0009333556 -3.127809e-24)
(0.01078396 -0.0008235605 4.128238e-25)
(0.01042649 -0.0002345328 0)
(0.008549117 -0.001261307 3.807117e-24)
(0.009071629 0.0002058423 2.693934e-25)
(0.008664094 -9.110801e-05 2.003478e-24)
(0.009495479 0.0001928778 6.682277e-25)
(0.01020945 -0.000366766 -5.023637e-26)
(0.00960188 -0.0004926049 -1.673323e-25)
(0.009211779 -0.0006831813 -7.22975e-25)
(0.009819863 -0.0004439357 8.84206e-25)
(0.01010777 -0.0003130848 0)
(0.0104171 -0.0005030752 0)
(0.01065364 -0.0006469717 0)
(0.01041088 -0.001072926 1.14548e-24)
(0.00757739 -0.0005807491 1.98164e-24)
(0.009752553 -0.000239904 0)
(0.01018219 -0.000322586 -4.209948e-26)
(0.009523339 0.000346576 -2.180626e-25)
(0.009694851 -0.0002190458 0)
(0.01009699 -0.0007906272 -5.295709e-25)
(0.008124011 -0.0002919624 -2.94778e-24)
(0.009559591 -0.001140153 -2.206008e-25)
(0.009467343 0.001299858 6.737189e-24)
(0.009314873 -0.0006843592 -1.000508e-24)
(0.009832916 -0.0003874518 0)
(0.008724242 -0.0006084269 -1.341633e-25)
(0.009227498 0.0003423867 9.795061e-25)
(0.009590206 -0.001122851 -2.100096e-25)
(0.009631112 -0.0003423482 -4.760312e-25)
(0.01068745 -0.0007316689 -3.979909e-26)
(0.009750729 -0.001381805 4.128312e-24)
(0.01074519 -0.0006895327 3.68011e-26)
(0.01040011 -0.0004773862 -7.890674e-25)
(0.01026745 -0.0007833972 6.868931e-26)
(0.009970475 -0.0002916697 4.171785e-26)
(0.009580096 0.0002408318 2.958947e-25)
(0.008449387 0.0006814386 0)
(0.00886559 0.0008434187 5.674558e-24)
(0.008449269 -0.000213883 0)
(0.009662777 -0.0002818038 -5.040929e-25)
(0.01000433 -0.001110447 -1.643925e-24)
(0.009357789 0.0009729996 1.463873e-24)
(0.009503393 -0.0004660146 -4.697156e-25)
(0.009988139 -0.0005029435 0)
(0.0097622 -0.001217042 0)
(0.009386104 0.0002737226 -9.561393e-26)
(0.01049092 -0.0009348194 0)
(0.01007542 -0.0009915091 -1.018642e-24)
(0.009644156 -0.0002969358 2.671004e-25)
(0.008921 -0.0007054629 0)
(0.009463134 0.0009574894 0)
(0.01035489 -0.0005319368 -1.090253e-25)
(0.009545495 -0.0003012417 0)
(0.008782707 -0.001037583 -2.309165e-24)
(0.00943329 0.0003843836 4.489098e-26)
(0.00941965 0.001262921 4.024884e-24)
(0.007527896 -0.000627233 -4.904545e-24)
(0.01041954 -0.0008375957 1.753807e-25)
(0.0106855 -0.0008452333 0)
(0.01025524 -0.0005112935 -1.544599e-25)
(0.01029578 -0.0004945341 0)
(0.01006102 -0.000429776 -4.25495e-26)
(0.01006932 -0.0008546724 0)
(0.009424459 -0.0007530407 0)
(0.009791485 -0.001114783 1.602447e-24)
(0.009846545 -0.0009282616 -2.53098e-24)
(0.009862301 -0.0005376639 -3.954714e-25)
(0.009088686 -0.0008392566 -2.197722e-24)
(0.008095277 3.127066e-05 2.955841e-25)
(0.00946104 0.001127843 1.596698e-24)
(0.01050624 -0.000908797 -7.904321e-25)
(0.008435437 0.0001562465 1.259706e-24)
(0.009500444 0.0008377706 0)
(0.009451477 -0.0004604161 4.319675e-25)
(0.009245929 -6.864767e-05 4.585873e-25)
(0.008899775 0.0007563458 -5.40307e-25)
(0.009298747 -0.00095508 1.497814e-24)
(0.009824919 -0.0003486882 3.321031e-25)
(0.009360409 0.00133162 4.79999e-24)
(0.009950452 -0.0005370196 -3.576033e-25)
(0.01023148 -0.0006134316 0)
(0.009463568 -0.001165964 0)
(0.009833533 -0.0006044835 -6.318429e-25)
(0.009312087 0.0001722347 1.041218e-24)
(0.01102887 -0.0006092455 0)
(0.009989915 -0.0003820323 2.285854e-25)
(0.009011875 -0.001170839 -1.387546e-25)
(0.01000364 -0.001231252 1.176876e-24)
(0.01004878 -0.0003342553 5.406728e-26)
(0.01010685 -0.0003217271 0)
(0.01008281 -0.0004204305 2.257618e-26)
(0.009505043 -0.0008292818 0)
(0.01018989 -0.001236793 0)
(0.00943596 0.0005692595 -1.362077e-24)
(0.008436657 0.001036121 0)
(0.009522511 0.0001734996 0)
(0.007634297 -0.0008808022 3.096442e-24)
(0.01023472 -0.0004151711 2.142373e-27)
(0.01084486 -0.0008290225 0)
(0.009178576 0.0008889179 -8.003139e-25)
(0.01001154 -0.000989732 -1.703266e-24)
(0.008331353 -0.001228642 -3.858289e-24)
(0.007452051 -0.0007245549 -2.670007e-25)
(0.01108211 -0.0006416698 0)
(0.01024871 -0.0004381308 -1.901542e-25)
(0.009307117 -0.0005466142 0)
(0.009386869 4.535796e-05 1.690831e-24)
(0.009482157 1.052877e-05 9.653778e-25)
(0.01112354 -0.0004238553 -5.761915e-25)
(0.007711856 -0.001096038 -3.544815e-24)
(0.009555009 -0.001040764 -1.181095e-24)
(0.009984921 -0.0004886138 -3.984512e-25)
(0.008454909 -4.125904e-05 5.864261e-25)
(0.009999765 -0.0005331801 0)
(0.0092728 0.0009970831 4.142805e-25)
(0.007681718 -0.0003839935 0)
(0.01035494 -0.0004630588 0)
(0.009377436 0.001210246 -7.924715e-26)
(0.009415821 -0.0005664903 0)
(0.01069947 -0.0006562554 4.789703e-26)
(0.01016787 -0.0004148152 0)
(0.008005949 -0.0002837387 0)
(0.01109274 -0.0004762121 1.311462e-24)
(0.01005789 -0.0003510191 -8.638613e-28)
(0.009529431 0.0003106839 7.251366e-25)
(0.01060795 -0.0004806968 5.042167e-25)
(0.009561963 3.882807e-05 -2.01855e-25)
(0.007703942 0.0002644155 0)
(0.009690621 -0.0002864923 0)
(0.009231794 -0.0003920829 -1.047323e-24)
(0.008798453 -0.001078701 0)
(0.009208409 -0.0003642992 0)
(0.009016341 0.0005544518 0)
(0.00787061 -0.0009251832 3.811204e-24)
(0.01026109 -0.000535872 -3.187036e-27)
(0.008905522 0.0003684319 3.127882e-25)
(0.01021134 -0.0006887919 0)
(0.009250035 -0.001031528 2.329725e-24)
(0.009450164 -0.0007603102 1.456417e-24)
(0.009345481 0.0007760575 0)
(0.009646844 -0.0007228893 0)
(0.00975353 -0.0004636706 -1.031125e-24)
(0.009216454 0.0002842773 0)
(0.01085821 -1.229659e-05 -2.563738e-24)
(0.009346201 -0.000779152 -1.097499e-24)
(0.009938474 -0.0003578553 5.842144e-26)
(0.009603327 -0.0007817072 -7.527271e-25)
(0.01005013 -0.0005579979 -1.553465e-27)
(0.01010824 -0.0008248356 -1.412924e-24)
(0.01075713 -0.0005460536 -6.185148e-26)
(0.009671596 -0.000246794 -8.918258e-25)
(0.009071506 -0.0001360475 -4.907535e-25)
(0.008961267 -0.001293104 3.149411e-24)
(0.009845525 -0.0002878481 7.930575e-25)
(0.00948564 0.001343292 0)
(0.007778524 0.0006650522 5.324249e-24)
(0.009017422 -0.001453806 0)
(0.01014165 -0.0006567122 -2.044962e-25)
(0.008983987 -0.0004951337 -7.519718e-25)
(0.009319686 0.0009210469 1.391678e-24)
(0.01016729 -0.00113312 1.615606e-25)
(0.00914668 -0.001125481 -2.082485e-24)
(0.0101702 -0.0004035789 3.7899e-26)
(0.009215607 0.0001840638 5.301962e-25)
(0.008987703 0.000347931 0)
(0.01014646 -0.0003853296 0)
(0.009856059 -0.0004322278 5.374071e-25)
(0.007967096 -0.0004921079 2.844388e-24)
(0.01052672 -0.0002849745 7.404868e-26)
(0.009255081 -0.001063216 -2.757323e-25)
(0.008609349 -0.001330452 3.342794e-24)
(0.009681389 -0.0004900288 0)
(0.009889659 -0.0008484311 -4.686446e-25)
(0.01023454 -0.0003667574 0)
(0.009947998 -0.001279933 -2.745585e-25)
(0.01034749 -0.0003477356 0)
(0.008581662 -0.0003413698 -1.93636e-24)
(0.01068773 -2.362582e-05 0)
(0.01105746 -0.0006703119 3.749154e-26)
(0.01022846 -0.0008603706 4.462535e-25)
(0.008616675 -2.396606e-05 0)
(0.007957758 0.0007619964 -1.418312e-24)
(0.008484783 -0.0005962977 0)
(0.009627299 -0.0005058796 4.823635e-25)
(0.01036974 -0.0001981065 0)
(0.009788691 -0.0002510482 -3.247361e-25)
(0.009576751 -0.0002500645 -4.809573e-25)
(0.00997194 -0.0006335341 3.813364e-25)
(0.009368831 0.0001906005 0)
(0.008485691 0.0009242184 3.055196e-24)
(0.009373482 -0.0002728853 3.760628e-25)
(0.01036736 -0.001198564 -5.628642e-26)
(0.009119331 -0.00039354 8.794814e-25)
(0.009770638 -0.000414719 2.685884e-25)
(0.009453815 -0.0006522726 0)
(0.009988013 -0.0004311927 -2.632644e-25)
(0.01056024 -0.0009175937 0)
(0.01027829 -0.001253233 -2.555972e-24)
(0.008044992 0.0009287471 9.620012e-25)
(0.0100201 -0.0003508324 -1.187415e-25)
(0.01006289 -0.0004064097 0)
(0.01013624 -0.0004426667 1.086475e-26)
(0.008637464 -0.0008088453 4.897024e-25)
(0.009039537 -0.001440633 0)
(0.009981366 -0.0007899533 3.736454e-25)
(0.009549001 0.0002693154 5.071036e-25)
(0.0102262 -0.0005584154 -6.175264e-28)
(0.009586959 -0.00120859 0)
(0.01008613 -0.0003492085 5.828452e-27)
(0.009338293 0.0001406168 -6.477908e-25)
(0.009433342 0.0007350045 0)
(0.01008945 -0.0004346189 -1.212159e-25)
(0.009092442 -0.0005840724 0)
(0.009703114 -0.0007719206 -5.17282e-25)
(0.009845321 -0.001367186 0)
(0.01053865 -0.0008883606 8.06902e-25)
(0.01018547 -0.0008562315 6.198712e-25)
(0.009342681 -0.0001124886 5.554089e-25)
(0.009117719 0.0001615525 2.857924e-26)
(0.01035839 -0.0008109047 3.62103e-25)
(0.009503942 7.764042e-05 0)
(0.009494026 -0.000987368 0)
(0.009824788 -0.0004312925 -8.366267e-26)
(0.009805343 -0.0009272148 -1.651045e-24)
(0.009457448 -4.228557e-05 -2.994329e-25)
(0.009352931 -0.0002035302 0)
(0.009052581 0.0004878759 8.716423e-25)
(0.0108763 -0.00035375 0)
(0.01015693 -0.0009834297 -7.450999e-25)
(0.009240824 0.0008544872 3.139625e-24)
(0.009832272 -0.001313091 0)
(0.009604163 -0.0003741919 6.676045e-25)
(0.009013107 -0.0006306899 0)
(0.009878295 -0.0006048975 4.238396e-26)
(0.009794524 -0.0005296838 0)
(0.009473307 0.0005081574 0)
(0.01031997 -0.0003758907 -1.941289e-25)
(0.0093979 -0.0004634213 0)
(0.01012168 -0.001230463 0)
(0.01023078 -0.0009940123 0)
(0.009469956 0.0003207244 8.041032e-25)
(0.009562184 0.0002984476 0)
(0.008320036 0.0011968 -1.61754e-24)
(0.010636 -0.0005446808 3.782074e-25)
(0.01032128 -0.0007605992 0)
(0.01075905 -0.0004964063 -9.676963e-25)
(0.009183049 0.0002830867 0)
(0.00874414 -0.000496668 1.081296e-24)
(0.01003063 -0.0008275952 -1.231744e-24)
(0.008992777 -0.000167772 -2.444797e-24)
(0.009896236 0.001226444 1.697927e-24)
(0.009995531 -0.0002972977 2.887957e-25)
(0.009895547 -0.0004038739 2.919373e-25)
(0.01002927 -0.0003289213 1.739961e-25)
(0.01002986 -0.0003787954 3.706005e-26)
(0.009949677 -0.0003465904 0)
(0.009891998 -0.0002971721 0)
(0.009433754 -2.024286e-05 -2.853338e-26)
(0.01057135 -0.0006779178 0)
(0.008404635 0.0003859038 0)
(0.008657352 0.0005993948 -8.326395e-26)
(0.00923025 0.0007202718 0)
(0.00992384 -0.0002792987 2.430175e-25)
(0.009721762 -0.0003511107 4.215413e-25)
(0.009636836 -0.0002327384 0)
(0.009592885 -0.001082358 -2.320476e-24)
(0.01103434 -0.0004879995 -1.775348e-24)
(0.008954809 0.001074682 -8.258409e-26)
(0.009436165 -0.001268309 0)
(0.01060961 -0.0005423002 -1.373637e-26)
(0.009274888 0.0002837736 0)
(0.008751892 0.001135209 6.106315e-26)
(0.008629537 0.0006441309 -1.870066e-24)
(0.009573724 3.654399e-05 1.660518e-25)
(0.009690569 -0.000461268 -1.479052e-25)
(0.010626 -0.0004457059 4.082154e-25)
(0.009540906 0.0002053038 4.007272e-25)
(0.009504967 0.0002384036 -7.503538e-25)
(0.01069453 -0.0007523702 -3.173293e-26)
(0.008898567 -0.000453393 1.505107e-24)
(0.008990434 0.00113871 -3.932934e-25)
(0.01074774 -9.935821e-05 1.318686e-24)
(0.009424798 -0.0004194152 0)
(0.00948854 -0.0001935795 -1.288604e-24)
(0.009867435 -0.0003138334 -3.984973e-25)
(0.01091074 -0.0008647496 5.98062e-25)
(0.009161956 -0.0001133814 0)
(0.009895324 -0.0004812869 3.428308e-25)
(0.01004095 -0.0006751929 -1.718661e-25)
(0.01022057 -0.0005196864 0)
(0.01022802 -0.0006496176 -2.136849e-25)
(0.008884739 -1.124021e-05 1.067177e-24)
(0.009504826 0.0005732359 6.985513e-25)
(0.01054299 -0.001106647 2.563869e-24)
(0.01025041 -0.0005834819 0)
(0.009913255 -0.0005468225 -3.805086e-25)
(0.009710592 -0.0008757958 0)
(0.01039458 -0.0004402625 1.856943e-25)
(0.009593084 -0.0006684575 3.826852e-25)
(0.009937338 -0.00024565 -1.212788e-25)
(0.0102784 -0.000191827 0)
(0.00796959 -0.0003798736 3.40864e-24)
(0.007444673 -0.0001624652 -1.62053e-24)
(0.009734557 -0.0009506928 -5.180579e-25)
(0.009793134 -0.0006107722 5.001372e-25)
(0.01046451 -0.0006423361 -1.077281e-27)
(0.01022486 -0.0003434236 -2.160551e-25)
(0.01013581 -0.0004648622 8.142044e-26)
(0.01095832 -0.0008093182 2.211003e-25)
(0.01010463 -0.0004372855 6.259655e-26)
(0.009592701 -0.001393187 -1.743377e-24)
(0.01103145 -0.0004379051 0)
(0.008875242 0.0001042177 -1.270773e-24)
(0.01006648 -0.0002947594 0)
(0.007930137 0.0004915825 1.068058e-25)
(0.01082789 -0.0006410441 7.949254e-26)
(0.0109443 -0.0002584719 2.2943e-24)
(0.009265486 0.0004863467 0)
(0.01066464 -0.001002551 0)
(0.009255217 0.0005441516 1.219173e-24)
(0.009370929 0.0005871312 5.694981e-25)
(0.009406284 0.0008344542 -9.075259e-25)
(0.009344391 0.0005294631 0)
(0.008980422 0.000518497 0)
(0.009588214 0.0006497203 0)
(0.01072326 -0.0005515295 -1.058222e-25)
(0.007918047 0.0002660968 0)
(0.008077372 0.000436197 0)
(0.007964564 0.0002260128 -2.668765e-24)
(0.009854529 -0.0005777006 -2.464296e-25)
(0.008159112 0.0005653302 -2.0576e-24)
(0.009849261 -0.0003515571 -1.583335e-26)
(0.01086828 -0.0006288518 0)
(0.009342783 -0.0002667026 -7.343009e-25)
(0.008925433 -3.443652e-05 1.070861e-24)
(0.00965835 -0.0004165356 -5.692982e-25)
(0.008556534 0.0006404599 1.843939e-24)
(0.009444323 7.703456e-06 -7.385714e-25)
(0.01027152 -0.0004725595 -6.78747e-26)
(0.009846317 -0.0003692417 0)
(0.009822851 -0.000523134 5.260538e-25)
(0.009077386 -0.0004904195 -1.141894e-24)
(0.01007477 -0.0005375813 3.463405e-25)
(0.01045966 -0.0005317868 7.778479e-27)
(0.008290227 -0.0010668 -2.3681e-24)
(0.01018393 -0.001211007 0)
(0.007998752 -0.0007120173 3.619728e-24)
(0.00902302 0.0009508616 0)
(0.00824085 -0.001263188 -4.824338e-24)
(0.007572348 -0.0002352258 -1.071735e-24)
(0.009369498 0.001297235 0)
(0.009737677 -0.001060364 1.40952e-24)
(0.0109 -0.0009141264 -2.737052e-25)
(0.009276243 -0.0006689786 -3.793572e-25)
(0.0098988 -0.0003367609 1.993299e-25)
(0.01086308 -0.0007538124 2.725193e-26)
(0.008094426 -0.001180865 -3.792053e-24)
(0.007701858 0.0003931444 3.6933e-24)
(0.01053115 -0.0005593695 -3.962075e-25)
(0.009654187 -0.0003215126 -6.955126e-25)
(0.01029346 -0.0004537436 -1.953895e-25)
(0.01017451 -0.0004340314 -3.268231e-26)
(0.008892205 -0.0003819465 0)
(0.01035808 -0.0005437294 -1.568507e-26)
(0.01042346 -0.001129924 -1.622297e-25)
(0.01008303 -0.000565046 2.217394e-25)
(0.009712469 -0.001345985 0)
(0.009414401 -0.0003006437 0)
(0.009558948 0.0004641463 -4.151058e-26)
(0.009594336 0.0004512065 0)
(0.0105507 -0.000574684 5.905791e-25)
(0.009512661 0.000423206 -2.190105e-25)
(0.009511506 0.0003163237 -4.56202e-25)
(0.009153252 0.0004984148 0)
(0.00901629 -0.00110962 -1.583652e-24)
(0.009675704 -0.0008626486 1.677037e-24)
(0.009324412 -0.0008202971 6.538998e-25)
(0.009852511 -0.000688644 3.269684e-25)
(0.009970954 -0.0007577805 -8.70986e-25)
(0.009919277 -0.001338583 -2.017509e-24)
(0.009670228 -0.0002146275 0)
(0.009399345 -0.00116129 2.851535e-24)
(0.01077804 -0.0008806869 -4.138373e-25)
(0.009867056 -0.0005098044 9.465273e-25)
(0.01057578 -0.0007506581 4.706081e-26)
(0.01038139 -0.001008879 1.000374e-25)
(0.009434307 4.609552e-05 0)
(0.01110356 -0.0004850478 0)
(0.009504523 0.00109197 2.591132e-25)
(0.008841827 0.0004728577 -4.631282e-25)
(0.009744001 -0.0002592372 0)
(0.009928407 -0.0007078864 2.165651e-25)
(0.01028281 -0.000731969 2.90534e-25)
(0.009926581 -0.0002955387 8.873954e-26)
(0.01022563 -0.0005063807 0)
(0.01103765 -0.0005814484 9.138513e-25)
(0.009184537 0.0006218231 0)
(0.00942156 -0.0001447583 0)
(0.008320598 -0.000139033 0)
(0.01005823 -0.0002886037 0)
(0.008782063 0.00050702 6.342299e-26)
(0.009523718 -7.974113e-05 -4.568008e-25)
(0.01024464 -0.0005018535 -2.554069e-26)
(0.009676507 -0.0002913168 -6.432288e-26)
(0.01108975 -0.000613619 -4.378332e-25)
(0.01086808 -0.0009306367 2.266507e-25)
(0.01084316 -0.0009173373 0)
(0.009951923 -0.00030827 2.186574e-25)
(0.009514024 -0.0002893375 0)
(0.01084351 -0.0007006364 0)
(0.009044739 0.0004210543 0)
(0.01031693 -0.0004320812 -5.254718e-26)
(0.00952828 -0.0007183377 7.109434e-25)
(0.009382415 0.001105566 0)
(0.007597426 -0.001185266 6.588458e-25)
(0.009232364 -1.939316e-05 -5.68643e-25)
(0.009129602 0.0001037238 0)
(0.009924426 -0.0002555926 2.296387e-25)
(0.00954126 0.000519896 5.251034e-25)
(0.008962505 0.0003091444 1.089029e-24)
(0.008893238 3.134897e-05 3.369182e-24)
(0.008716255 0.0001401978 2.263225e-24)
(0.009409912 0.0004479883 -6.842088e-25)
(0.008635587 0.0005055156 -1.342339e-24)
(0.009065477 0.0002658367 0)
(0.009860684 -0.0002756493 -2.422447e-25)
(0.009459659 -0.0007809203 -1.08876e-24)
(0.01068426 -0.001065621 0)
(0.01066926 -0.0009699658 0)
(0.009791259 -0.0003482838 1.882898e-25)
(0.009988568 -0.0003099564 0)
(0.009960215 -0.0003044182 -1.959953e-25)
(0.009863328 -0.0002959649 -1.855144e-26)
(0.009881253 -0.0004446505 -4.107479e-25)
(0.009942399 -0.0003210483 -1.992221e-25)
(0.01000674 -0.0003769912 -1.690909e-25)
(0.009020836 -0.0001558804 -1.421293e-24)
(0.01041956 -0.0002933391 -5.264407e-25)
(0.00946522 -0.0002983464 -7.02553e-25)
(0.009203845 -0.0009149781 -6.255295e-25)
(0.009727785 -0.0003232077 4.613794e-25)
(0.01059548 -0.000932116 0)
(0.01091635 -0.0007180482 0)
(0.01085503 -0.0007902992 3.444288e-25)
(0.009568682 7.537889e-05 0)
(0.01021751 -0.0004805404 0)
(0.009562184 0.0007164901 0)
(0.009553371 6.611956e-05 0)
(0.009579288 1.896224e-05 0)
(0.009992857 -0.0003301698 2.208483e-26)
(0.01008583 -0.0008097682 6.651338e-25)
(0.009107975 -0.0001791921 0)
(0.01047072 -0.0005958621 0)
(0.01012543 -0.0002926635 -3.56037e-26)
(0.009739368 -0.0006615624 -9.171222e-25)
(0.01000182 -0.0006408996 5.671167e-25)
(0.009929638 -0.0005739516 -1.069186e-25)
(0.009874784 -0.0006265562 -5.34584e-25)
(0.009962414 -0.000441594 -2.393159e-25)
(0.008728343 0.0006082238 6.731158e-25)
(0.01020121 -0.0003306768 0)
(0.01014548 -0.0003747 1.789926e-26)
(0.01016038 -0.0003990243 2.465873e-26)
(0.01092506 -0.0005356047 0)
(0.008589845 -0.001381378 -1.448042e-25)
(0.009920217 -0.0003944466 5.666661e-26)
(0.01115893 -0.0004602498 -5.250783e-25)
(0.009951656 -0.0004516646 -2.3634e-25)
(0.009302268 0.0008415489 7.874553e-25)
(0.01007628 -0.0003616633 -5.416898e-26)
(0.009507679 -0.0005401099 -3.990876e-25)
(0.008998516 0.000589713 0)
(0.00980201 -0.0007633828 -3.691661e-25)
(0.01094487 -0.0005434571 0)
(0.009110261 0.0002166317 3.787465e-26)
(0.009479914 0.000356391 0)
(0.009384437 -0.0005363271 0)
(0.009158805 -0.0002215128 8.006643e-25)
(0.01019341 -0.0008152484 3.293422e-25)
(0.01010151 -0.0009427298 0)
(0.008635845 0.001181464 3.201038e-24)
(0.00930613 0.001169238 -2.295804e-24)
(0.01081696 -0.0005956415 -5.864176e-25)
(0.009751266 -0.001095051 0)
(0.01053735 -0.0006515765 3.067854e-27)
(0.009620974 -0.0002736894 -9.326784e-25)
(0.009395713 -0.0009186882 4.188747e-25)
(0.008601158 -0.001182933 1.020253e-25)
(0.008440075 0.0002058581 3.878111e-24)
(0.009617774 -0.0001295244 6.750848e-25)
(0.009556035 -1.942354e-05 -3.400396e-25)
(0.009048061 0.00112678 0)
(0.008858974 0.0001733713 -2.15612e-24)
(0.009296088 0.00138632 -3.998985e-24)
(0.01032041 -0.0007782424 0)
(0.01039747 -0.0003455969 -7.77793e-25)
(0.01037898 -0.0005544103 3.060096e-26)
(0.009856708 -0.00105599 1.262751e-25)
(0.009254717 -0.0005002336 -3.483983e-26)
(0.009128099 0.0002494005 -1.253738e-24)
(0.009178855 0.0003703886 -1.234206e-25)
(0.009640337 0.001317804 4.777835e-24)
(0.0100923 -0.0004121777 3.985447e-26)
(0.01006937 -0.0002775726 0)
(0.00953106 0.0008777919 0)
(0.009563239 -0.001185808 0)
(0.009601531 -0.0008233343 0)
(0.01004783 -0.0007070572 3.465016e-25)
(0.009591565 -0.0002319334 -6.829414e-25)
(0.009181029 0.0007160361 -3.292215e-25)
(0.01013619 -0.000717705 0)
(0.01034346 -0.00118497 -1.380698e-24)
(0.009196394 0.0001389698 -1.120109e-24)
(0.01096041 -0.0007168858 -1.445379e-25)
(0.01098768 -0.0005965722 0)
(0.01014689 -0.001172938 -1.161643e-24)
(0.01027978 -0.0009491527 -6.15534e-25)
(0.01080839 -0.0001709643 1.720069e-24)
(0.009145529 -0.0008083479 1.685628e-24)
(0.009425187 -8.187931e-05 -4.513804e-25)
(0.009229274 -0.0007422691 -1.630813e-24)
(0.009163594 2.850587e-05 1.08922e-24)
(0.01089069 -0.0005870862 -7.712122e-25)
(0.01071917 -0.0005027662 0)
(0.009950772 -0.0002494531 0)
(0.009210749 -1.123819e-06 -5.466884e-25)
(0.01060772 -0.0007382578 0)
(0.01057917 -0.0008405614 -2.869279e-25)
(0.01051408 -0.0007380331 -1.446961e-25)
(0.01048968 -0.0007082129 -8.704695e-26)
(0.01033992 -0.000433046 0)
(0.00994966 -0.0007953907 -7.308382e-25)
(0.01061388 -0.0007046121 0)
(0.009574193 0.0007790248 -1.189742e-25)
(0.008257397 -0.0008511186 1.908517e-24)
(0.009844793 -0.0008081154 1.232714e-24)
(0.009902625 -0.0008239057 0)
(0.009849946 -0.0005112412 -5.588205e-25)
(0.01037996 -0.0008787845 -5.970302e-25)
(0.0107407 -0.0002911733 -1.081047e-24)
(0.01018884 -0.0002140386 6.074494e-26)
(0.01019579 -0.000498105 0)
(0.00793847 -0.00012736 3.759144e-24)
(0.01010655 -0.0006895302 -2.948329e-25)
(0.01017794 -0.0007615382 0)
(0.008778828 -0.0008068045 0)
(0.008589157 -0.0007120787 1.520755e-24)
(0.01071199 -0.0008190178 -8.874307e-26)
(0.009774722 -0.00127824 5.253179e-25)
(0.009910473 -0.0002644585 -1.917264e-25)
(0.01051211 -0.0005026175 0)
(0.00956276 -0.000175915 1.311717e-24)
(0.01032462 -0.001252169 0)
(0.009499734 -0.0003692904 5.15604e-25)
(0.008990605 0.0008051385 0)
(0.008559025 -0.000933277 6.081765e-24)
(0.009062269 -0.001305964 -2.392713e-25)
(0.009567097 0.0002124485 -1.520392e-25)
(0.009751679 -0.00035378 3.888151e-26)
(0.01047816 -0.0005634609 2.29057e-25)
(0.01021986 -0.0002642791 5.149109e-25)
(0.009703779 -0.0004301717 -8.312443e-25)
(0.009385278 0.0005705377 -8.968567e-25)
(0.009840379 -0.0005463115 0)
(0.009759924 -0.0004354889 1.293144e-25)
(0.009970227 -0.0002673349 0)
(0.01098131 -0.000565505 -1.039191e-25)
(0.01106613 -0.0003619531 2.087691e-24)
(0.009716432 -0.0009287255 0)
(0.009992369 -0.0003651464 2.683574e-25)
(0.009245949 0.0006926353 8.274005e-26)
(0.008658876 -3.87586e-05 -1.669297e-24)
(0.01018863 -0.0006146217 0)
(0.01012387 -0.0009751462 -6.21337e-25)
(0.01017695 -0.0003035286 8.067077e-26)
(0.008678705 -0.00061685 1.024815e-24)
(0.01025961 -0.001172425 -2.215358e-24)
(0.009310265 0.001350142 -2.208189e-24)
(0.009644392 -0.0004484914 0)
(0.009648237 -0.0008217095 0)
(0.01015882 -0.0004347558 0)
(0.00842251 0.0007325056 0)
(0.009780513 -0.0002708756 -2.447791e-25)
(0.007157974 -0.0001899967 -1.185217e-24)
(0.009710436 -0.0003999112 -6.19971e-25)
(0.009427526 0.0007955548 -5.53201e-25)
(0.008258328 -0.0003418673 -5.26934e-24)
(0.009603558 -0.0002541368 0)
(0.01031454 -0.001206246 1.050774e-24)
(0.008803212 -0.0001582994 1.309249e-24)
(0.009210335 -0.0005681221 1.116399e-24)
(0.009426833 6.635114e-05 1.893359e-25)
(0.007634321 0.0007112854 -1.038754e-25)
(0.009306956 -1.968977e-05 -3.634172e-25)
(0.009274389 -5.929218e-05 -3.873501e-25)
(0.01109854 -0.000537902 9.55615e-26)
(0.009580338 0.0005051666 -4.364019e-25)
(0.010031 -0.0002842703 0)
(0.009879381 -0.001215239 0)
(0.009520653 0.0006689659 -8.210555e-25)
(0.009538968 2.630678e-05 -7.393649e-25)
(0.01069885 -0.0006193912 -1.132189e-25)
(0.009150799 0.000819499 -1.672337e-25)
(0.009488787 -3.032005e-05 -4.981699e-25)
(0.009723586 -0.0004370721 -4.671444e-25)
(0.009526605 0.0001308374 0)
(0.009348523 -8.686908e-05 -5.452928e-25)
(0.009262265 -0.0001169395 3.969552e-25)
(0.01085238 -0.0006750711 0)
(0.0108077 -0.0007447131 -5.434044e-27)
(0.01056395 -0.000559739 -1.633421e-25)
(0.009910443 -0.0009475661 -5.743162e-25)
(0.00986135 -0.0008943406 9.718927e-25)
(0.009509726 0.001318892 -3.047781e-24)
(0.00896787 0.0002430353 2.192935e-24)
(0.009571084 0.000825844 0)
(0.008995235 0.0008728268 -1.958058e-25)
(0.009046623 0.0008149517 -1.643256e-24)
(0.009789299 -0.0004315924 -7.104293e-26)
(0.01087532 -0.0007146127 0)
(0.009862012 -0.0004446502 -2.694202e-25)
(0.008560222 0.0008866234 -3.106799e-24)
(0.008347659 -0.0008152202 3.460517e-24)
(0.009756602 -0.0002625066 -3.207472e-25)
(0.009774503 -0.0003207114 -8.514972e-27)
(0.009758218 -0.0004811089 5.958885e-25)
(0.007417935 -0.0005916832 0)
(0.009616542 -5.89929e-05 0)
(0.01019899 -0.0004437635 0)
(0.01093053 -0.0004767356 -3.977163e-25)
(0.009392589 0.000741249 5.363762e-25)
(0.009382869 -0.0004423609 8.021481e-25)
(0.00940598 6.71762e-05 -1.790199e-25)
(0.008729855 0.001379528 0)
(0.009096252 0.001392298 1.475831e-25)
(0.009516348 0.001059841 -2.222705e-25)
(0.009587624 0.001161745 -3.895701e-24)
(0.009693523 -0.0005479142 1.141563e-25)
(0.009510291 0.0006090463 0)
(0.009509074 -0.001303293 2.858301e-24)
(0.00964205 -0.000636049 5.773867e-25)
(0.009499101 -0.0007044568 1.2686e-24)
(0.009338135 -0.0006476547 6.959745e-26)
(0.0094918 -0.0005793255 1.308943e-24)
(0.008287077 0.0001004028 -2.373425e-24)
(0.009635569 -0.0007440492 6.79996e-25)
(0.009319551 -0.0007154809 0)
(0.009934043 -0.0006533923 -1.092117e-24)
(0.009901131 -0.0003838661 0)
(0.008827567 0.0005108836 0)
(0.01112356 -0.0004699369 1.417823e-25)
(0.01058475 -0.000560479 2.375449e-25)
(0.01098101 -0.0003584491 0)
(0.009549541 -0.0005730479 1.283695e-24)
(0.009515384 -0.0005639256 0)
(0.01081388 -0.0009720988 1.076587e-24)
(0.009561215 -0.000597072 -1.483174e-24)
(0.01005123 -0.0009804815 0)
(0.009009487 -0.0005561367 1.333243e-24)
(0.009406944 -0.0006796477 1.36353e-24)
(0.009362704 -0.0006148593 -1.417518e-24)
(0.00805807 0.00075926 1.39471e-24)
(0.01026964 -0.001020391 0)
(0.0088874 -0.001305579 -3.144884e-24)
(0.01024659 -0.0007314377 -1.569009e-25)
(0.008239121 -0.0008944842 -5.20436e-24)
(0.008130606 -0.0006965624 1.428082e-24)
(0.008418995 -0.0009745457 0)
(0.009536449 -0.001390632 -2.337294e-24)
(0.009637981 -0.0007800241 1.138704e-24)
(0.009544266 0.0001371762 0)
(0.009539185 0.000174713 0)
(0.009544434 -0.0004039371 2.821857e-25)
(0.0072424 1.545563e-05 -2.128595e-24)
(0.009429354 0.0001659338 5.727072e-25)
(0.009352657 -0.0005072237 5.051408e-25)
(0.008225428 0.0006625169 1.824346e-24)
(0.009538248 0.0008075085 0)
(0.008926806 0.001176487 -1.58139e-25)
(0.008955809 -0.0005566828 1.382701e-24)
(0.009560092 -7.401262e-05 0)
(0.007586285 -0.00102982 -1.17773e-24)
(0.008080687 -0.001004913 -4.121761e-24)
(0.007961998 -0.001079462 0)
(0.008970179 0.0009948532 6.901173e-25)
(0.008630301 0.0008927443 1.646236e-24)
(0.01090869 -0.0007010546 1.746384e-25)
(0.007694024 0.0005840021 -2.61196e-24)
(0.01034007 -0.0008448191 0)
(0.008476186 -0.0007284264 -2.100582e-24)
(0.00885145 0.001118303 -2.698115e-24)
(0.009481636 -0.0002715306 6.120395e-25)
(0.008408609 0.0004849303 0)
(0.01022261 -0.001265759 2.493814e-24)
(0.01060428 -0.001078033 -1.201784e-24)
(0.009036425 -0.001021232 -6.515905e-25)
(0.007906488 -0.0003515965 -2.490372e-24)
(0.01035959 -0.0010985 4.197882e-26)
(0.009288799 -0.0002768895 -6.65495e-26)
(0.009662066 -0.0002681084 5.580618e-25)
(0.01031701 -0.0004764337 -1.194341e-25)
(0.009736235 -0.0003010323 -4.5557e-25)
(0.00882208 -0.0004742297 0)
(0.008907899 -0.000600173 -2.631551e-24)
(0.007373467 -0.0006393038 0)
(0.008814643 -0.0006194464 1.712317e-24)
(0.009618927 -0.0001192572 -6.042823e-25)