/*--------------------------------*- C++ -*----------------------------------*\
| =========                 |                                                 |
| \\      /  F ield         | OpenFOAM: The Open Source CFD Toolbox           |
|  \\    /   O peration     | Version:  2406                                  |
|   \\  /    A nd           | Website:  www.openfoam.com                      |
|    \\/     M anipulation  |                                                 |
\*---------------------------------------------------------------------------*/
FoamFile
{
    version     2.0;
    format      ascii;
    arch        "LSB;label=32;scalar=64";
    class       surfaceScalarField;
    location    "0.38";
    object      phi;
}
// * * * * * * * * * * * * * * * * * * * * * * * * * * * * * * * * * * * * * //

dimensions      [0 3 -1 0 0 0 0];

oriented        oriented;

internalField   nonuniform List<scalar> 
7340
(
2.580479e-14
-4.199024e-14
1.618546e-14
1.826304e-14
7.54175e-15
1.707218e-14
1.190855e-15
1.54798e-14
1.592388e-15
1.540182e-14
7.797458e-17
1.435684e-14
1.044984e-15
1.430307e-14
5.377023e-17
1.382877e-14
4.742978e-16
1.314437e-14
6.84398e-16
1.317277e-14
-2.839488e-17
1.285335e-14
3.194188e-16
1.24512e-14
4.021521e-16
1.200258e-14
4.48618e-16
1.265684e-14
-6.542649e-16
1.27216e-14
-6.475271e-17
1.258982e-14
1.317709e-16
1.246226e-14
1.275625e-16
1.270269e-14
-2.404248e-16
1.324454e-14
-5.418553e-16
1.321549e-14
2.905154e-17
1.373073e-14
-5.152378e-16
1.462985e-14
-8.991265e-16
1.437667e-14
2.531752e-16
1.564313e-14
-1.266474e-15
2.659823e-14
-1.095511e-14
2.187039e-15
2.44112e-14
8.821524e-16
1.304892e-15
1.802171e-15
-9.200217e-16
1.082803e-15
7.193702e-16
9.126429e-16
1.701607e-16
6.805494e-16
2.320929e-16
4.341845e-16
2.463644e-16
2.79231e-16
1.54953e-16
3.254479e-16
-4.621736e-17
2.1529e-16
1.101578e-16
1.466384e-16
6.865157e-17
1.208599e-16
2.57784e-17
9.562313e-17
2.523674e-17
4.56916e-17
4.993153e-17
3.210624e-17
1.358541e-17
2.620294e-17
5.903353e-18
1.701289e-17
9.190082e-18
9.141735e-18
7.87116e-18
-1.012868e-17
1.927044e-17
-2.181477e-17
1.168613e-17
-1.981511e-17
-1.999627e-18
-3.160295e-17
1.178788e-17
-2.642604e-17
-5.176885e-18
-1.823234e-17
-8.193667e-18
-8.479918e-18
-9.752396e-18
1.477156e-18
-9.957047e-18
9.331722e-18
-7.854543e-18
1.356423e-17
-4.232496e-18
1.723945e-17
-3.675208e-18
1.517223e-17
2.067189e-18
2.063845e-17
-5.466266e-18
-2.793365e-18
2.343174e-17
-1.61293e-17
1.333585e-17
-2.57657e-17
9.636305e-18
-6.69543e-17
4.118853e-17
-6.030017e-17
-6.654231e-18
-5.454973e-17
-5.750607e-18
-6.699282e-17
1.244283e-17
-1.300376e-16
6.304442e-17
-1.939822e-16
6.394399e-17
-2.867952e-16
9.281242e-17
-3.857837e-16
9.898789e-17
-6.47502e-16
2.617178e-16
-8.083473e-16
1.608448e-16
-1.107126e-15
2.987778e-16
-1.569582e-15
4.624567e-16
-1.247368e-15
-3.222157e-16
-1.626278e-15
3.789168e-16
-2.662597e-14
2.499969e-14
-1.606697e-14
-1.0559e-14
-1.461041e-14
-1.456569e-15
-1.453729e-14
-7.312321e-17
-1.377798e-14
-7.593155e-16
-1.300415e-14
-7.738347e-16
-1.29073e-14
-9.684956e-17
-1.269943e-14
-2.078685e-16
-1.268997e-14
-9.463626e-18
-1.22382e-14
-4.517753e-16
-1.235825e-14
1.200534e-16
-1.25146e-14
1.563526e-16
-1.227422e-14
-2.403782e-16
-1.27772e-14
5.029732e-16
-1.287587e-14
9.867729e-17
-1.317066e-14
2.947812e-16
-1.334384e-14
1.731873e-16
-1.401105e-14
6.672066e-16
-1.446825e-14
4.571995e-16
-1.491727e-14
4.490174e-16
-1.479028e-14
-1.269906e-16
-1.53476e-14
5.573214e-16
-1.741049e-14
2.062895e-15
-1.911309e-14
1.702601e-15
-2.52488e-14
6.135705e-15
-4.15314e-14
1.62826e-14
-2.611081e-14
-1.542059e-14
-1.808837e-14
-8.022443e-15
-1.732792e-14
-7.604542e-16
-1.534043e-14
-1.987484e-15
-1.439912e-14
-9.41317e-16
-1.40772e-14
-3.21915e-16
-1.385505e-14
-2.221506e-16
-1.302013e-14
-8.349168e-16
-1.278103e-14
-2.391044e-16
-1.279537e-14
1.433658e-17
-1.207624e-14
-7.191258e-16
-1.149588e-14
-5.803619e-16
-1.129962e-14
-1.962557e-16
-1.163407e-14
3.344485e-16
-1.122099e-14
-4.130844e-16
-1.069938e-14
-5.216069e-16
-1.064669e-14
-5.269548e-17
-1.046288e-14
-1.838054e-16
-1.033328e-14
-1.296029e-16
-1.05269e-14
1.936256e-16
-1.05442e-14
1.729656e-17
-1.05181e-14
-2.609997e-17
-1.076587e-14
2.477771e-16
-1.049609e-14
-2.69785e-16
-1.042668e-14
-6.940524e-17
-1.033982e-14
-8.686559e-17
-1.031458e-14
-2.524029e-17
-1.053829e-14
2.237105e-16
-1.076313e-14
2.248411e-16
-1.079624e-14
3.310891e-17
-1.096567e-14
1.694395e-16
-1.104103e-14
7.535893e-17
-1.159547e-14
5.544385e-16
-1.272141e-14
1.125946e-15
-1.276366e-16
-1.259378e-14
1.26404e-14
-1.276804e-14
1.151701e-14
1.123393e-15
1.096448e-14
5.525245e-16
1.090019e-14
6.429181e-17
1.073216e-14
1.680385e-16
1.070364e-14
2.852075e-17
1.050277e-14
2.008666e-16
1.028768e-14
2.150947e-16
1.032457e-14
-3.689044e-17
1.042784e-14
-1.032745e-16
1.051867e-14
-9.082626e-17
1.080815e-14
-2.894874e-16
1.057324e-14
2.349162e-16
1.06293e-14
-5.606315e-17
1.063879e-14
-9.486403e-18
1.046014e-14
1.786499e-16
1.061853e-14
-1.583943e-16
1.076607e-14
-1.475356e-16
1.078232e-14
-1.624715e-17
1.127397e-14
-4.91658e-16
1.166799e-14
-3.9402e-16
1.13291e-14
3.388949e-16
1.153048e-14
-2.013855e-16
1.211484e-14
-5.843545e-16
1.282869e-14
-7.138542e-16
1.280261e-14
2.60818e-17
1.302284e-14
-2.202256e-16
1.380553e-14
-7.826918e-16
1.395408e-14
-1.485545e-16
1.423684e-14
-2.827528e-16
1.504967e-14
-8.128356e-16
1.736192e-14
-2.312247e-15
1.865353e-14
-1.291609e-15
2.532104e-14
-6.667511e-15
-1.666921e-14
4.40723e-14
4.285989e-16
-5.726893e-14
4.428144e-14
9.142505e-16
4.21663e-14
2.667669e-15
4.184534e-14
3.852534e-16
4.132066e-14
6.927167e-16
4.114397e-14
2.05214e-16
4.050105e-14
8.437818e-16
3.963189e-14
1.084256e-15
3.972125e-14
-1.262456e-16
4.010391e-14
-4.859346e-16
4.048478e-14
-4.716989e-16
4.149261e-14
-1.297317e-15
4.078392e-14
9.436024e-16
4.082126e-14
-9.340467e-17
4.101909e-14
-2.07314e-16
4.022979e-14
9.679524e-16
4.082921e-14
-7.578182e-16
4.145887e-14
-7.771905e-16
4.15479e-14
-1.05275e-16
4.330952e-14
-2.253284e-15
4.472863e-14
-1.813127e-15
4.373184e-14
1.335687e-15
4.447992e-14
-9.494717e-16
4.664776e-14
-2.752189e-15
4.916909e-14
-3.235184e-15
4.940021e-14
-2.050391e-16
5.028337e-14
-1.10339e-15
5.315172e-14
-3.651038e-15
5.390625e-14
-9.030862e-16
5.502706e-14
-1.403563e-15
5.837981e-14
-4.165581e-15
6.751706e-14
-1.14495e-14
7.259885e-14
-6.3734e-15
1.007402e-13
-3.480882e-14
1.508129e-13
-6.674198e-14
-1.032314e-13
1.486287e-13
-6.081794e-14
-7.098833e-14
-4.026547e-14
-6.738431e-14
-4.364471e-15
-6.082832e-14
-8.543474e-15
-5.576116e-14
-6.008481e-15
-5.435866e-14
-1.724416e-15
-5.334285e-14
-1.23796e-15
-5.027798e-14
-3.89978e-15
-4.932143e-14
-1.195661e-15
-4.904414e-14
-2.629463e-16
-4.65035e-14
-3.25977e-15
-4.434898e-14
-2.734884e-15
-4.361808e-14
-9.271546e-16
-4.459671e-14
1.313084e-15
-4.310509e-14
-1.904705e-15
-4.123203e-14
-2.394668e-15
-4.100129e-14
-2.834343e-16
-4.025082e-14
-9.342782e-16
-3.974427e-14
-6.361569e-16
-4.059995e-14
1.049311e-15
-4.05038e-14
-7.885293e-17
-4.057528e-14
4.537571e-17
-4.133682e-14
1.009321e-15
-4.040392e-14
-1.202687e-15
-4.010426e-14
-3.690632e-16
-3.978366e-14
-4.074716e-16
-3.973678e-14
-7.211923e-17
-4.064661e-14
1.133543e-15
-4.137207e-14
9.502987e-16
-4.156804e-14
2.290869e-16
-4.210083e-14
7.02223e-16
-4.246524e-14
4.397695e-16
-4.458439e-14
2.673591e-15
-4.450541e-14
1.046966e-15
-5.667058e-14
-7.065845e-14
9.015785e-14
-3.005841e-14
-5.710851e-14
-1.500652e-14
-5.686711e-14
-3.145259e-16
-5.367504e-14
-3.951387e-15
-5.07364e-14
-3.712474e-15
-4.990884e-14
-9.244124e-16
-4.92534e-14
-8.633029e-16
-4.902913e-14
-2.337423e-16
-4.746592e-14
-2.014983e-15
-4.771177e-14
3.659065e-16
-4.825704e-14
7.016226e-16
-4.743569e-14
-1.061725e-15
-4.913094e-14
2.198219e-15
-4.975084e-14
7.185746e-16
-5.078072e-14
1.324669e-15
-5.158775e-14
9.802103e-16
-5.391407e-14
2.993533e-15
-5.585788e-14
2.401007e-15
-5.746852e-14
2.059661e-15
-5.733623e-14
-2.592847e-16
-5.960475e-14
2.825839e-15
-6.758173e-14
1.003988e-14
-7.429262e-14
8.413487e-15
-1.001581e-13
3.200115e-14
6.475324e-14
2.257304e-14
-9.028942e-14
9.212757e-14
5.01237e-15
1.886557e-14
7.59401e-15
-3.501665e-15
4.946176e-15
3.367206e-15
3.958873e-15
1.157464e-15
2.967092e-15
1.223874e-15
1.98034e-15
1.233115e-15
1.331139e-15
8.041538e-16
1.368198e-15
-8.3276e-17
9.800411e-16
4.983144e-16
6.793422e-16
3.693505e-16
5.623118e-16
1.428088e-16
4.399638e-16
1.475847e-16
2.504582e-16
2.394371e-16
1.794429e-16
8.460083e-17
1.450617e-16
4.028456e-17
1.031594e-16
5.109243e-17
6.48411e-17
4.618953e-17
-1.17298e-17
9.584138e-17
-5.894336e-17
5.889975e-17
-6.200979e-17
1.066849e-18
-1.040959e-16
5.387403e-17
-9.423806e-17
-1.503465e-17
-6.672676e-17
-3.570491e-17
-3.529188e-17
-4.118722e-17
-1.094158e-18
-4.415471e-17
2.330889e-17
-3.225753e-17
3.575198e-17
-1.667554e-17
4.312575e-17
-1.104895e-17
3.366528e-17
1.152767e-17
4.118871e-17
-1.298971e-17
-4.609997e-17
1.107204e-16
-1.063769e-16
7.361272e-17
-1.641325e-16
6.739188e-17
-3.134689e-16
1.905249e-16
-3.103274e-16
-9.795776e-18
-3.057736e-16
-1.030447e-17
-3.848486e-16
9.151766e-17
-6.344941e-16
3.126896e-16
-9.271367e-16
3.565863e-16
-1.304021e-15
4.696966e-16
-1.816073e-15
6.110395e-16
-2.794685e-15
1.24033e-15
-3.632072e-15
9.982316e-16
-4.888628e-15
1.555333e-15
-7.007354e-15
2.581183e-15
-5.865622e-15
-1.46395e-15
-2.080828e-14
1.532157e-14
9.434927e-14
1.021457e-13
6.485265e-14
7.173453e-14
3.795296e-14
6.781434e-14
5.111051e-15
6.02449e-14
9.161827e-15
5.933814e-14
9.847284e-16
5.569964e-14
4.683485e-15
5.50566e-14
6.968096e-16
5.331711e-14
2.213788e-15
5.078935e-14
3.212159e-15
5.066283e-14
9.812942e-17
4.960857e-14
1.37368e-15
4.798208e-14
2.028635e-15
4.65545e-14
1.876207e-15
4.882501e-14
-2.924781e-15
4.913917e-14
-3.789143e-16
4.858147e-14
6.894762e-16
4.819828e-14
5.107523e-16
4.929375e-14
-1.335892e-15
5.118482e-14
-2.432934e-15
5.148875e-14
-2.748704e-16
5.352655e-14
-2.553044e-15
5.708575e-14
-4.458328e-15
5.622636e-14
1.11256e-15
6.909002e-14
-1.413013e-14
-3.215451e-14
2.274759e-13
-3.169854e-13
1.543622e-13
1.617686e-13
1.036602e-13
1.505949e-13
1.628477e-14
1.337376e-13
2.601917e-14
1.308055e-13
3.916786e-15
1.23149e-13
1.233997e-14
1.211654e-13
2.680463e-15
1.173764e-13
6.002797e-15
1.119491e-13
8.639476e-15
1.113828e-13
6.644076e-16
1.092482e-13
3.508285e-15
1.057102e-13
5.566613e-15
1.029546e-13
4.631778e-15
1.077044e-13
-7.674536e-15
1.083873e-13
-1.061863e-15
1.071384e-13
1.938442e-15
1.065271e-13
1.122002e-15
1.092308e-13
-4.039556e-15
1.132736e-13
-6.475766e-15
1.145137e-13
-1.514971e-15
1.194569e-13
-7.496218e-15
1.27131e-13
-1.213242e-14
1.27554e-13
6.895631e-16
1.601898e-13
-4.676597e-14
1.833276e-13
-5.529232e-14
6.769408e-14
2.077611e-13
1.700551e-14
6.955414e-14
1.811586e-14
-4.612022e-15
1.246887e-14
9.014193e-15
9.665322e-15
3.961017e-15
7.266116e-15
3.62308e-15
5.001325e-15
3.497906e-15
3.432861e-15
2.372617e-15
3.297531e-15
5.205376e-17
2.457034e-15
1.338811e-15
1.744488e-15
1.081897e-15
1.439874e-15
4.474225e-16
1.13089e-15
4.565685e-16
7.053291e-16
6.649986e-16
5.174524e-16
2.724777e-16
4.161446e-16
1.415924e-16
3.082009e-16
1.590362e-16
2.089198e-16
1.454706e-16
3.407812e-17
2.706832e-16
-7.754769e-17
1.705256e-16
-1.008377e-16
2.435691e-17
-1.942876e-16
1.47324e-16
-1.888327e-16
-2.048946e-17
-1.400745e-16
-8.4463e-17
-8.268434e-17
-9.857726e-17
-1.779478e-17
-1.090442e-16
2.437428e-17
-7.44265e-17
4.142883e-17
-3.373002e-17
4.578188e-17
-1.540193e-17
1.640185e-17
4.090772e-17
1.188647e-17
-8.474321e-18
-1.810126e-16
3.036194e-16
-3.33518e-16
2.26118e-16
-4.940091e-16
2.27883e-16
-8.19662e-16
5.161778e-16
-8.4715e-16
1.769211e-17
-8.808438e-16
2.338932e-17
-1.107495e-15
3.181686e-16
-1.690504e-15
8.956984e-16
-2.40768e-15
1.073762e-15
-3.317565e-15
1.379581e-15
-4.637913e-15
1.931388e-15
-6.849879e-15
3.452295e-15
-9.001186e-15
3.149538e-15
-1.221466e-14
4.768808e-15
-1.712121e-14
7.487729e-15
-1.824549e-14
-3.396679e-16
-6.419982e-14
6.12759e-14
-1.827301e-13
2.128796e-13
-1.634207e-13
-4.936779e-14
-1.295507e-13
-4.887659e-14
-1.268273e-13
-3.037898e-15
-1.197951e-13
-1.09836e-14
-1.129725e-13
-1.053509e-14
-1.104891e-13
-3.407798e-15
-1.090442e-13
-2.308221e-15
-1.083766e-13
-9.01276e-16
-1.050646e-13
-5.326991e-15
-1.052587e-13
5.600214e-16
-1.063478e-13
1.790655e-15
-1.045905e-13
-2.818977e-15
-1.080265e-13
5.634227e-15
-1.096541e-13
2.346135e-15
-1.118905e-13
3.561037e-15
-1.137459e-13
2.835657e-15
-1.185854e-13
7.832993e-15
-1.230403e-13
6.855902e-15
-1.265764e-13
5.595799e-15
-1.26795e-13
-4.069764e-17
-1.324571e-13
8.487917e-15
-1.530727e-13
3.065555e-14
-1.66551e-13
2.189175e-14
-2.232396e-13
8.868976e-14
-3.119726e-13
1.534863e-13
-2.295793e-13
-1.432113e-13
-1.599723e-13
-1.098725e-13
-1.493681e-13
-1.496873e-14
-1.349741e-13
-2.293746e-14
-1.232208e-13
-1.776174e-14
-1.197958e-13
-5.149446e-15
-1.173278e-13
-3.70595e-15
-1.10783e-13
-1.044455e-14
-1.085532e-13
-3.425431e-15
-1.074558e-13
-1.360351e-15
-1.021541e-13
-8.561455e-15
-9.765335e-14
-7.235688e-15
-9.600922e-14
-2.571284e-15
-9.769096e-14
2.994825e-15
-9.451725e-14
-5.07841e-15
-9.066604e-14
-6.245877e-15
-9.013764e-14
-8.118364e-16
-8.83986e-14
-2.673316e-15
-8.731594e-14
-1.71882e-15
-8.931949e-14
3.052863e-15
-8.894324e-14
-4.551031e-16
-8.927908e-14
3.812121e-16
-9.074311e-14
2.473354e-15
-8.878967e-14
-3.156126e-15
-8.812019e-14
-1.03854e-15
-8.745058e-14
-1.077085e-15
-8.748338e-14
-3.93227e-17
-8.953805e-14
3.188213e-15
-9.0988e-14
2.400253e-15
-9.145477e-14
6.958573e-16
-9.249068e-14
1.738136e-15
-9.345035e-14
1.399443e-15
-9.708502e-14
6.308253e-15
-8.880108e-14
-7.236966e-15
-8.657475e-16
-1.446059e-13
8.771473e-14
-1.458494e-13
9.63848e-14
-7.755821e-15
9.278461e-14
6.267863e-15
9.192052e-14
1.249339e-15
9.090905e-14
1.704187e-15
9.048293e-14
6.313407e-16
8.920269e-14
2.124018e-15
8.724669e-14
3.040261e-15
8.730549e-14
-1.850447e-16
8.810819e-14
-1.288641e-15
8.89538e-14
-1.317302e-15
9.107186e-14
-3.415378e-15
8.972701e-14
2.288446e-15
8.961936e-14
1.424868e-17
9.021893e-14
-8.068806e-16
8.836946e-14
2.817424e-15
8.963613e-14
-2.024497e-15
9.113326e-14
-2.274321e-15
9.135457e-14
-3.26581e-16
9.496534e-14
-5.864051e-15
9.79824e-14
-4.830192e-15
9.625867e-14
3.059422e-15
9.793594e-14
-2.626741e-15
1.024628e-13
-7.279057e-15
1.077233e-13
-8.495687e-15
1.087182e-13
-1.199954e-15
1.107847e-13
-3.169877e-15
1.169136e-13
-9.77997e-15
1.188274e-13
-2.81685e-15
1.215722e-13
-4.148346e-15
1.323798e-13
-1.49732e-14
1.497244e-13
-2.879412e-14
1.628032e-13
-1.945212e-14
2.248504e-13
-9.685606e-14
-1.58877e-13
1.45485e-13
1.530184e-15
-2.928646e-13
1.752371e-13
-3.750792e-14
1.724361e-13
9.068877e-15
1.708101e-13
2.875352e-15
1.691469e-13
3.367362e-15
1.684335e-13
1.344723e-15
1.662059e-13
4.351626e-15
1.625256e-13
6.7206e-15
1.623356e-13
4.97324e-18
1.637427e-13
-2.695799e-15
1.652788e-13
-2.853316e-15
1.691735e-13
-7.310151e-15
1.668886e-13
4.573397e-15
1.66496e-13
4.067997e-16
1.677754e-13
-2.086269e-15
1.642183e-13
6.374528e-15
1.664396e-13
-4.245759e-15
1.69437e-13
-5.27176e-15
1.698685e-13
-7.580266e-16
1.760624e-13
-1.205795e-14
1.815844e-13
-1.03522e-14
1.791392e-13
5.504583e-15
1.824151e-13
-5.902592e-15
1.902776e-13
-1.514158e-14
1.997151e-13
-1.793316e-14
2.023192e-13
-3.804119e-15
2.06478e-13
-7.328686e-15
2.176798e-13
-2.098175e-14
2.216129e-13
-6.749972e-15
2.274117e-13
-9.947091e-15
2.49368e-13
-3.692955e-14
2.8088e-13
-6.030614e-14
3.107276e-13
-4.92997e-14
4.200092e-13
-2.061377e-13
5.68364e-13
-3.072318e-13
-4.278502e-13
5.591397e-13
-2.745008e-13
-3.063911e-13
-2.313316e-13
-2.801121e-13
-4.124771e-14
-2.532979e-13
-4.975174e-14
-2.302625e-13
-4.079708e-14
-2.2338e-13
-1.203198e-14
-2.1843e-13
-8.655977e-15
-2.064948e-13
-2.237976e-14
-2.02029e-13
-7.891241e-15
-1.992332e-13
-4.156106e-15
-1.897205e-13
-1.807411e-14
-1.81901e-13
-1.505523e-14
-1.786782e-13
-5.794141e-15
-1.810414e-13
5.358107e-15
-1.752351e-13
-1.088476e-14
-1.685997e-13
-1.28813e-14
-1.676138e-13
-1.797667e-15
-1.641964e-13
-6.090739e-15
-1.622963e-13
-3.618902e-15
-1.661468e-13
6.9033e-15
-1.652854e-13
-1.316497e-15
-1.660823e-13
1.178148e-15
-1.685903e-13
4.981315e-15
-1.650035e-13
-6.74289e-15
-1.637901e-13
-2.251938e-15
-1.626224e-13
-2.24484e-15
-1.629824e-13
3.207585e-16
-1.668579e-13
7.063657e-15
-1.693857e-13
4.928058e-15
-1.701655e-13
1.475672e-15
-1.718902e-13
3.462864e-15
-1.736955e-13
3.204736e-15
-1.766487e-13
9.261457e-15
-1.476309e-13
-3.625479e-14
-2.907066e-13
-3.077373e-13
3.228256e-13
-6.445608e-14
-2.514632e-13
-1.051506e-13
-2.397373e-13
-1.47638e-14
-2.270791e-13
-2.364183e-14
-2.131456e-13
-2.44686e-14
-2.074185e-13
-9.134929e-15
-2.043753e-13
-5.351389e-15
-2.030226e-13
-2.254004e-15
-1.968452e-13
-1.150439e-14
-1.966038e-13
3.186842e-16
-1.984201e-13
3.60689e-15
-1.950601e-13
-6.178933e-15
-2.011039e-13
1.167803e-14
-2.044137e-13
5.655928e-15
-2.087318e-13
7.879077e-15
-2.12108e-13
6.211945e-15
-2.208014e-13
1.652635e-14
-2.292511e-13
1.530564e-14
-2.361005e-13
1.244514e-14
-2.372864e-13
1.145196e-15
-2.494836e-13
2.068519e-14
-2.876471e-13
6.8819e-14
-3.17578e-13
5.182266e-14
-4.165278e-13
1.876395e-13
2.960982e-13
1.481722e-13
-3.243074e-13
3.838963e-13
4.784324e-14
1.698831e-13
3.758944e-14
5.641778e-15
2.679361e-14
1.981002e-14
2.022473e-14
1.052989e-14
1.520211e-14
8.645697e-15
1.073903e-14
7.960989e-15
7.475869e-15
5.635777e-15
6.840795e-15
6.871277e-16
5.214967e-15
2.96464e-15
3.80215e-15
2.494714e-15
3.123243e-15
1.12633e-15
2.473927e-15
1.105884e-15
1.64284e-15
1.496085e-15
1.233899e-15
6.814188e-16
9.887352e-16
3.867567e-16
7.50901e-16
3.968705e-16
5.359168e-16
3.60455e-16
1.938114e-16
6.127887e-16
-3.424821e-17
3.985854e-16
-1.05422e-16
9.553081e-17
-2.909645e-16
3.328666e-16
-3.096476e-16
-1.80618e-18
-2.472935e-16
-1.468169e-16
-1.642198e-16
-1.816509e-16
-6.704518e-17
-2.062186e-16
-1.223285e-17
-1.292387e-16
-5.06244e-18
-4.09003e-17
-1.967567e-17
-7.88589e-19
-9.915988e-17
1.20392e-16
-1.432786e-16
3.564444e-17
-5.139471e-16
6.742879e-16
-8.426477e-16
5.548186e-16
-1.201676e-15
5.869113e-16
-1.824466e-15
1.138967e-15
-1.936995e-15
1.302209e-16
-2.102226e-15
1.886205e-16
-2.624291e-15
8.402334e-16
-3.809805e-15
2.081212e-15
-5.285545e-15
2.549501e-15
-7.209817e-15
3.303853e-15
-1.000621e-14
4.727784e-15
-1.441578e-14
7.861864e-15
-1.898769e-14
7.721448e-15
-2.626853e-14
1.204965e-14
-3.594711e-14
1.716631e-14
-4.939829e-14
1.31115e-14
-1.421585e-13
1.540361e-13
3.935467e-13
4.242438e-13
2.984823e-13
3.097741e-13
2.181299e-13
2.827877e-13
4.32712e-14
2.511291e-13
5.767775e-14
2.443489e-13
1.069701e-14
2.302657e-13
2.642316e-14
2.257907e-13
7.15541e-15
2.186485e-13
1.314502e-14
2.086889e-13
1.859906e-14
2.072868e-13
2.066529e-15
2.035045e-13
7.290631e-15
1.972136e-13
1.185745e-14
1.925987e-13
9.246687e-15
2.012412e-13
-1.631699e-14
2.023302e-13
-2.150914e-15
2.00039e-13
4.229716e-15
1.993797e-13
1.781279e-15
2.049698e-13
-9.629707e-15
2.125922e-13
-1.40981e-14
2.157946e-13
-4.717444e-15
2.263177e-13
-1.801931e-14
2.4007e-13
-2.588474e-14
2.475708e-13
-6.811232e-15
3.022781e-13
-1.014732e-13
-7.732168e-14
7.265837e-13
-9.402087e-13
5.121074e-13
5.479104e-13
3.968032e-13
4.907736e-13
1.00408e-13
4.355479e-13
1.129034e-13
4.218218e-13
2.442315e-14
3.975373e-13
5.070762e-14
3.885736e-13
1.611907e-14
3.759964e-13
2.572224e-14
3.590125e-13
3.558302e-14
3.561306e-13
4.948433e-15
3.499596e-13
1.346163e-14
3.397889e-13
2.202809e-14
3.327241e-13
1.631152e-14
3.473664e-13
-3.095935e-14
3.488138e-13
-3.598277e-15
3.449708e-13
8.07271e-15
3.447823e-13
1.969819e-15
3.555779e-13
-2.042535e-14
3.691049e-13
-2.762509e-14
3.763632e-13
-1.197572e-14
3.970072e-13
-3.866336e-14
4.205161e-13
-4.939362e-14
4.432107e-13
-2.950581e-14
5.167054e-13
-1.749679e-13
5.318528e-13
-9.246917e-14
2.831174e-13
6.326318e-13
1.147589e-13
3.382416e-13
7.52679e-14
4.513278e-14
5.373918e-14
4.133874e-14
3.973342e-14
2.453566e-14
2.972149e-14
1.865763e-14
2.145366e-14
1.622881e-14
1.512844e-14
1.1961e-14
1.330022e-14
2.515345e-15
1.029217e-14
5.972694e-15
7.684774e-15
5.10211e-15
6.292302e-15
2.518802e-15
5.025145e-15
2.373041e-15
3.497709e-15
3.023522e-15
2.680342e-15
1.498785e-15
2.1434e-15
9.236999e-16
1.656358e-15
8.839118e-16
1.226315e-15
7.904984e-16
5.992988e-16
1.239805e-15
1.639705e-16
8.339138e-16
-9.30094e-18
2.688025e-16
-3.591873e-16
6.827532e-16
-4.466252e-16
8.5632e-17
-3.983519e-16
-1.9509e-16
-3.03129e-16
-2.768735e-16
-1.845746e-16
-3.247729e-16
-1.38215e-16
-1.75598e-16
-1.77833e-16
-1.28213e-18
-2.47562e-16
6.894054e-17
-4.393079e-16
3.121379e-16
-5.797406e-16
1.760772e-16
-1.249858e-15
1.344405e-15
-1.909354e-15
1.214315e-15
-2.642744e-15
1.320301e-15
-3.766941e-15
2.263164e-15
-4.082046e-15
4.453255e-16
-4.577964e-15
6.845377e-16
-5.671997e-15
1.934266e-15
-7.937871e-15
4.347086e-15
-1.077389e-14
5.385518e-15
-1.459612e-14
7.126082e-15
-2.007878e-14
1.021044e-14
-2.838105e-14
1.616413e-14
-3.755456e-14
1.689496e-14
-5.285735e-14
2.735244e-14
-7.260852e-14
3.691748e-14
-1.164016e-13
5.690461e-14
-2.735677e-13
3.112022e-13
-5.289616e-13
6.489406e-13
-5.248715e-13
-6.854621e-14
-4.502868e-13
-1.797353e-13
-4.202868e-13
-4.476384e-14
-3.986914e-13
-4.523723e-14
-3.722486e-13
-5.091138e-14
-3.601525e-13
-2.123105e-14
-3.539941e-13
-1.150976e-14
-3.515676e-13
-4.680516e-15
-3.407711e-13
-2.230095e-14
-3.39173e-13
-1.279344e-15
-3.419089e-13
6.342735e-15
-3.357927e-13
-1.229509e-14
-3.456933e-13
2.15786e-14
-3.517545e-13
1.171714e-14
-3.595649e-13
1.568952e-14
-3.65086e-13
1.173302e-14
-3.795575e-13
3.099785e-14
-3.942862e-13
3.00343e-14
-4.068129e-13
2.497188e-14
-4.101561e-13
4.488392e-15
-4.340703e-13
4.459938e-14
-4.99131e-13
1.338797e-13
-5.592606e-13
1.119522e-13
-7.136126e-13
3.419915e-13
-9.25081e-13
5.075666e-13
-7.324052e-13
-4.671765e-13
-5.421629e-13
-4.215738e-13
-4.85639e-13
-9.777171e-14
-4.390118e-13
-9.637891e-14
-3.972599e-13
-8.254896e-14
-3.845477e-13
-2.474421e-14
-3.754556e-13
-1.774803e-14
-3.552651e-13
-4.257031e-14
-3.469286e-13
-1.622774e-14
-3.408814e-13
-1.020332e-14
-3.250068e-13
-3.394869e-14
-3.126691e-13
-2.73929e-14
-3.068043e-13
-1.165896e-14
-3.095225e-13
8.076369e-15
-2.99651e-13
-2.075626e-14
-2.892666e-13
-2.326573e-14
-2.875965e-13
-3.467799e-15
-2.813856e-13
-1.230162e-14
-2.783844e-13
-6.620093e-15
-2.851459e-13
1.36648e-14
-2.834369e-13
-3.025496e-15
-2.850615e-13
2.802724e-15
-2.890899e-13
9.009755e-15
-2.829045e-13
-1.292832e-14
-2.808885e-13
-4.267917e-15
-2.790755e-13
-4.057886e-15
-2.802811e-13
1.526391e-15
-2.870219e-13
1.380441e-14
-2.910623e-13
8.968481e-15
-2.920567e-13
2.470053e-15
-2.945665e-13
5.972691e-15
-2.967015e-13
5.339793e-15
-2.921171e-13
4.67698e-15
-2.218277e-13
-1.065441e-13
-2.509527e-15
-5.100248e-13
2.18031e-13
-5.134052e-13
2.894805e-13
-1.089574e-13
2.944773e-13
4.072174e-15
2.926714e-13
4.681197e-15
2.903e-13
5.738782e-15
2.893996e-13
2.245139e-15
2.858495e-13
7.901729e-15
2.794608e-13
1.310927e-14
2.785482e-13
9.175866e-16
2.807556e-13
-4.90324e-15
2.833159e-13
-5.413545e-15
2.90035e-13
-1.402928e-14
2.863877e-13
8.220661e-15
2.8542e-13
1.374526e-15
2.878534e-13
-4.519632e-15
2.816066e-13
1.262127e-14
2.851332e-13
-7.772364e-15
2.906644e-13
-1.080297e-14
2.91418e-13
-1.511582e-15
3.010537e-13
-2.169369e-14
3.104517e-13
-1.975021e-14
3.075873e-13
8.369066e-15
3.135279e-13
-1.184322e-14
3.259298e-13
-2.754347e-14
3.416774e-13
-3.368078e-14
3.473939e-13
-9.52064e-15
3.55201e-13
-1.513581e-14
3.742115e-13
-3.999218e-14
3.81564e-13
-1.410248e-14
3.92641e-13
-2.102417e-14
4.336319e-13
-7.792041e-14
4.868454e-13
-1.135196e-13
5.482108e-13
-1.106651e-13
7.204058e-13
-3.783327e-13
-5.270347e-13
3.041858e-13
3.911764e-15
-8.215027e-13
4.477467e-13
-2.525183e-13
4.76563e-13
-2.474419e-14
4.778122e-13
3.43203e-15
4.752765e-13
8.274548e-15
4.747271e-13
2.794528e-15
4.695949e-13
1.303389e-14
4.589272e-13
2.377697e-14
4.563222e-13
3.522599e-15
4.594205e-13
-8.001553e-15
4.635123e-13
-9.505297e-15
4.747926e-13
-2.530963e-14
4.692265e-13
1.378673e-14
4.67018e-13
3.58309e-15
4.714485e-13
-8.950108e-15
4.610289e-13
2.304081e-14
4.662256e-13
-1.296904e-14
4.759873e-13
-2.05647e-14
4.772141e-13
-2.738321e-15
4.911667e-13
-3.564629e-14
5.06523e-13
-3.510658e-14
5.041786e-13
1.071346e-14
5.144419e-13
-2.210649e-14
5.327486e-13
-4.58502e-14
5.580316e-13
-5.896379e-14
5.694315e-13
-2.092053e-14
5.835939e-13
-2.929815e-14
6.145761e-13
-7.097443e-14
6.275443e-13
-2.707068e-14
6.476761e-13
-4.115595e-14
7.206905e-13
-1.509347e-13
8.073653e-13
-2.001944e-13
9.23083e-13
-2.263828e-13
1.175216e-12
-6.30466e-13
1.480276e-12
-8.320939e-13
-1.19257e-12
1.457393e-12
-7.319993e-13
-9.153145e-13
-6.988293e-13
-8.058763e-13
-2.072098e-13
-7.27294e-13
-1.749613e-13
-6.548174e-13
-1.550256e-13
-6.323678e-13
-4.719384e-14
-6.165316e-13
-3.358414e-14
-5.837566e-13
-7.534534e-14
-5.687334e-13
-3.125092e-14
-5.567856e-13
-2.215111e-14
-5.312978e-13
-5.943652e-14
-5.130805e-13
-4.561019e-14
-5.029167e-13
-2.182278e-14
-5.050148e-13
1.017452e-14
-4.889104e-13
-3.686067e-14
-4.737477e-13
-3.842842e-14
-4.710802e-13
-6.135359e-15
-4.602591e-13
-2.312273e-14
-4.558896e-13
-1.098959e-14
-4.671813e-13
2.495657e-14
-4.639522e-13
-6.254671e-15
-4.671683e-13
6.018876e-15
-4.73351e-13
1.519239e-14
-4.629568e-13
-2.33225e-14
-4.597398e-13
-7.48489e-15
-4.572562e-13
-6.541474e-15
-4.60344e-13
4.614129e-15
-4.716156e-13
2.507601e-14
-4.775086e-13
1.486149e-14
-4.78174e-13
3.135467e-15
-4.810031e-13
8.8018e-15
-4.803651e-13
4.701838e-15
-4.524146e-13
-2.327352e-14
-3.104713e-13
-2.484874e-13
-8.165844e-13
-8.427801e-13
8.253077e-13
-5.107383e-14
-7.654161e-13
-2.570993e-13
-7.069716e-13
-1.032084e-13
-6.710311e-13
-8.117777e-14
-6.233508e-13
-9.859162e-14
-5.985441e-13
-4.603777e-14
-5.864824e-13
-2.357145e-14
-5.823131e-13
-8.849865e-15
-5.643009e-13
-4.031309e-14
-5.591284e-13
-6.451844e-15
-5.630064e-13
1.022071e-14
-5.521328e-13
-2.316872e-14
-5.676952e-13
3.714099e-14
-5.782183e-13
2.224025e-14
-5.917224e-13
2.919361e-14
-6.002342e-13
2.024488e-14
-6.23158e-13
5.392162e-14
-6.477448e-13
5.46211e-14
-6.70004e-13
4.723109e-14
-6.7763e-13
1.211438e-14
-7.219996e-13
8.896898e-14
-8.283717e-13
2.402518e-13
-9.395399e-13
2.231204e-13
-1.162832e-12
5.652837e-13
8.021273e-13
4.993917e-13
-8.298155e-13
9.630557e-13
2.456686e-13
5.919646e-13
1.492584e-13
1.41543e-13
1.044459e-13
8.615128e-14
7.593072e-14
5.305081e-14
5.62288e-14
3.835955e-14
4.127382e-14
3.118379e-14
2.949992e-14
2.37349e-14
2.504929e-14
6.965974e-15
1.958389e-14
1.14381e-14
1.490409e-14
9.781907e-15
1.219142e-14
5.231473e-15
9.802306e-15
4.762154e-15
7.071347e-15
5.754481e-15
5.510721e-15
3.059412e-15
4.403263e-15
2.031159e-15
3.445827e-15
1.841347e-15
2.621336e-15
1.614991e-15
1.504904e-15
2.356237e-15
7.036175e-16
1.635201e-15
3.253379e-16
6.470824e-16
-3.171205e-16
1.325212e-15
-5.676901e-16
3.362019e-16
-6.03113e-16
-1.596667e-16
-5.389528e-16
-3.410334e-16
-4.385932e-16
-4.251321e-16
-4.560924e-16
-1.580984e-16
-6.257288e-16
1.683546e-16
-8.254865e-16
2.686985e-16
-1.253228e-15
7.398794e-16
-1.599931e-15
5.227803e-16
-2.778128e-15
2.522602e-15
-4.053027e-15
2.489214e-15
-5.485496e-15
2.75277e-15
-7.458383e-15
4.236051e-15
-8.218022e-15
1.204965e-15
-9.445576e-15
1.912092e-15
-1.16242e-14
4.112892e-15
-1.582597e-14
8.548854e-15
-2.112294e-14
1.068248e-14
-2.846674e-14
1.446988e-14
-3.887246e-14
2.061616e-14
-5.406785e-14
3.135952e-14
-7.227071e-14
3.509782e-14
-1.031044e-13
5.81861e-14
-1.451325e-13
7.894563e-14
-2.470838e-13
1.588558e-13
-4.849618e-13
5.490801e-13
9.892866e-13
1.183682e-12
8.08701e-13
9.246877e-13
6.557975e-13
8.149062e-13
2.101895e-13
7.220125e-13
2.057972e-13
6.962921e-13
5.01435e-14
6.558663e-13
9.113343e-14
6.389237e-13
3.306169e-14
6.176179e-13
4.702806e-14
5.897137e-13
6.348714e-14
5.843288e-13
1.033338e-14
5.749759e-13
2.281455e-14
5.593744e-13
3.76296e-14
5.494089e-13
2.627696e-14
5.731221e-13
-5.467257e-14
5.746864e-13
-5.162549e-15
5.685245e-13
1.423465e-14
5.700699e-13
4.24397e-16
5.904541e-13
-4.080955e-14
6.135963e-13
-5.076731e-14
6.291586e-13
-2.753796e-14
6.673996e-13
-7.69044e-14
7.068827e-13
-8.887675e-14
7.527958e-13
-7.541888e-14
8.319455e-13
-2.541176e-13
-9.033919e-14
1.866859e-12
-2.252289e-12
1.194131e-12
1.511851e-12
1.010806e-12
1.31711e-12
4.049301e-13
1.163254e-12
3.59653e-13
1.118837e-12
9.456112e-14
1.051601e-12
1.583693e-13
1.020727e-12
6.393537e-14
9.864078e-13
8.13476e-14
9.404145e-13
1.094805e-13
9.310796e-13
1.966821e-14
9.17935e-13
3.595921e-14
8.95528e-13
6.003658e-14
8.816607e-13
4.014426e-14
9.200239e-13
-9.303572e-14
9.203407e-13
-5.479362e-15
9.106931e-13
2.38822e-14
9.167807e-13
-5.663191e-15
9.548699e-13
-7.889872e-14
9.945917e-13
-9.048919e-14
1.02536e-12
-5.830597e-14
1.094983e-12
-1.465274e-13
1.157854e-12
-1.517476e-13
1.229139e-12
-1.467043e-13
1.288055e-12
-3.130337e-13
1.247167e-12
-4.945107e-14
8.368459e-13
1.373377e-12
4.823166e-13
9.464938e-13
2.931939e-13
3.306657e-13
2.007455e-13
1.785998e-13
1.436253e-13
1.10171e-13
1.047718e-13
7.721298e-14
7.79367e-14
5.801894e-14
5.631808e-14
4.535352e-14
4.649243e-14
1.679162e-14
3.654352e-14
2.1387e-14
2.821017e-14
1.811526e-14
2.31088e-14
1.033284e-14
1.867681e-14
9.194148e-15
1.383742e-14
1.059387e-14
1.094065e-14
5.956182e-15
8.739722e-15
4.232092e-15
6.902117e-15
3.678952e-15
5.363186e-15
3.153923e-15
3.394066e-15
4.325358e-15
1.943534e-15
3.085734e-15
1.178903e-15
1.411714e-15
8.815798e-18
2.4953e-15
-5.958078e-16
9.40826e-16
-8.679205e-16
1.124467e-16
-9.412411e-16
-2.677119e-16
-9.552811e-16
-4.110917e-16
-1.164598e-15
5.121908e-17
-1.637282e-15
6.410401e-16
-2.122068e-15
7.53485e-16
-3.022627e-15
1.640439e-15
-3.777767e-15
1.277921e-15
-5.832096e-15
4.576932e-15
-8.242673e-15
4.899791e-15
-1.097394e-14
5.484039e-15
-1.441871e-14
7.680818e-15
-1.608193e-14
2.868183e-15
-1.882824e-14
4.658404e-15
-2.302659e-14
8.311239e-15
-3.073001e-14
1.625227e-14
-4.052525e-14
2.047772e-14
-5.438893e-14
2.833357e-14
-7.383479e-14
4.006201e-14
-1.014903e-13
5.901499e-14
-1.375826e-13
7.119021e-14
-1.987324e-13
1.193359e-13
-2.866243e-13
1.668375e-13
-4.839024e-13
3.56134e-13
-8.162352e-13
8.81413e-13
-1.242554e-12
1.415605e-12