/*--------------------------------*- C++ -*----------------------------------*\
| =========                 |                                                 |
| \\      /  F ield         | OpenFOAM: The Open Source CFD Toolbox           |
|  \\    /   O peration     | Version:  2406                                  |
|   \\  /    A nd           | Website:  www.openfoam.com                      |
|    \\/     M anipulation  |                                                 |
\*---------------------------------------------------------------------------*/
FoamFile
{
    version     2.0;
    format      ascii;
    arch        "LSB;label=32;scalar=64";
    class       surfaceScalarField;
    location    "0.4";
    object      phi;
}
// * * * * * * * * * * * * * * * * * * * * * * * * * * * * * * * * * * * * * //

dimensions      [0 3 -1 0 0 0 0];

oriented        oriented;

internalField   nonuniform List<scalar> 
6770
(
7.55386e-11
-1.772565e-09
1.697027e-09
-1.467004e-09
3.388226e-10
1.128181e-09
-1.476081e-09
1.366438e-09
1.096429e-10
1.686148e-09
-1.011725e-09
-6.744234e-10
7.692631e-09
-6.960094e-09
-7.325373e-10
6.231817e-10
8.539715e-10
-1.477153e-09
-1.119523e-09
1.600249e-09
-4.807251e-10
-1.266247e-09
1.216829e-09
4.941775e-11
-8.821906e-10
-8.177539e-10
1.699945e-09
-1.180818e-09
1.224767e-09
-4.394954e-11
2.117442e-10
-1.272845e-09
1.061101e-09
7.471041e-10
-1.674903e-09
9.277991e-10
1.352662e-09
-1.399569e-09
4.690715e-11
1.105183e-09
-1.647031e-09
5.418482e-10
-2.396987e-10
1.86113e-09
1.821407e-09
-4.906242e-09
3.084835e-09
4.497659e-10
1.349519e-09
-1.799285e-09
-2.321065e-09
5.522948e-10
1.76877e-09
-1.284915e-09
9.759071e-10
3.090079e-10
-6.532428e-10
-1.159021e-09
1.812264e-09
-8.22008e-10
-1.02997e-09
1.851978e-09
5.566068e-10
-1.507561e-09
9.509544e-10
9.016818e-10
-1.796435e-09
8.94753e-10
1.514683e-09
-1.118396e-09
-3.962874e-10
-1.196635e-09
9.00261e-10
2.963744e-10
-1.320968e-09
-3.016381e-10
1.622606e-09
1.210525e-09
4.010596e-10
-1.611584e-09
7.807771e-10
9.550932e-10
-1.73587e-09
-1.563393e-09
7.986463e-10
1.738788e-10
-1.063211e-09
8.893318e-10
3.275441e-10
-1.388548e-09
1.061004e-09
1.886652e-09
-1.55259e-09
-3.340621e-10
1.490231e-09
-2.80589e-10
-1.209642e-09
-2.092735e-10
1.697858e-09
-1.488585e-09
-2.102037e-09
2.004221e-09
9.781554e-11
-6.595852e-09
5.029875e-09
1.565978e-09
8.029525e-10
-1.704671e-09
9.017182e-10
-2.037182e-09
1.399796e-09
6.373863e-10
-1.003907e-09
2.169034e-09
-1.165127e-09
3.102981e-09
-2.67506e-09
-4.279205e-10
1.587267e-09
-1.493953e-09
-9.331379e-11
1.735959e-09
-7.516235e-10
-9.843351e-10
-1.957174e-09
1.630081e-09
3.270925e-10
-1.589623e-09
1.009438e-09
5.801845e-10
-1.271502e-09
8.609472e-10
4.105552e-10
-1.963314e-09
1.632941e-09
3.303726e-10
-1.219981e-09
8.212161e-10
3.987644e-10
-7.910499e-10
-8.233925e-10
1.614442e-09
-5.538169e-10
-1.436258e-09
1.990075e-09
-1.577743e-09
-5.665588e-10
2.144302e-09
5.711391e-10
9.36464e-10
-1.507603e-09
-1.192419e-09
3.468497e-10
8.455688e-10
-5.906913e-09
2.431527e-10
5.66376e-09
-1.182525e-09
-4.199662e-10
1.602491e-09
1.612352e-09
7.7348e-10
-2.385832e-09
-1.536522e-09
1.030335e-09
5.061872e-10
1.461384e-09
-2.627472e-10
-1.198636e-09
-1.55274e-09
1.15763e-09
3.951095e-10
3.590136e-10
1.430009e-09
-1.789023e-09
-4.955745e-10
-2.404207e-09
2.899781e-09
-1.50734e-09
1.43758e-09
6.976024e-11
-1.166803e-09
2.771828e-10
8.896205e-10
3.770538e-10
1.296712e-09
-1.673766e-09
-3.538701e-10
-1.435895e-09
1.789765e-09
-1.654639e-09
1.839623e-09
-1.727629e-09
9.983039e-10
7.293253e-10
8.894545e-12
-1.736703e-09
1.727809e-09
1.022455e-09
-1.757764e-09
7.353087e-10
-5.349758e-11
-1.44935e-09
1.502848e-09
-1.487081e-09
9.350879e-10
5.519934e-10
-6.079334e-10
-1.012634e-09
1.620568e-09
2.185152e-09
-9.471757e-10
-1.237976e-09
1.211763e-09
6.065157e-10
-1.818279e-09
-9.074164e-10
-8.321624e-10
1.739579e-09
-3.724667e-10
1.884067e-09
-1.5116e-09
4.978594e-10
1.899904e-09
-2.397764e-09
-1.084812e-09
1.567043e-09
-4.822313e-10
-1.696579e-09
3.855975e-10
1.310981e-09
1.858896e-09
-4.286912e-10
-1.430205e-09
-1.705948e-10
3.431341e-09
-3.260746e-09
-4.78019e-09
8.365199e-09
-3.585009e-09
-1.248204e-09
-3.226241e-09
4.474445e-09
-2.090962e-09
1.425916e-09
6.650454e-10
-5.864367e-10
1.796172e-09
-1.209735e-09
-1.693069e-09
1.483795e-09
-1.078315e-09
-7.123391e-10
1.790654e-09
7.143457e-10
1.287602e-09
-2.001948e-09
-1.411964e-09
5.894884e-10
8.224761e-10
-1.48555e-10
-1.210603e-09
1.359158e-09
-1.708768e-09
3.620516e-10
1.346716e-09
-9.431709e-10
-1.121803e-09
2.064974e-09
7.279457e-10
-1.626553e-09
8.986075e-10
-1.196132e-09
-4.600064e-10
1.656139e-09
1.520844e-09
-3.304023e-10
-1.190441e-09
9.598059e-10
5.979373e-10
-1.557743e-09
1.189584e-09
-3.397456e-10
-8.498382e-10
8.043006e-10
-1.667351e-09
8.630508e-10
-1.283408e-09
1.165898e-09
1.175092e-10
6.315045e-10
-1.506899e-09
9.491047e-10
8.316416e-10
-1.780746e-09
-6.276426e-10
1.528083e-09
-9.004405e-10
-1.030779e-09
1.716961e-09
-6.861822e-10
1.650604e-09
-4.047217e-10
-1.245882e-09
-1.792011e-09
1.074226e-09
7.177841e-10
1.549519e-09
-1.249229e-09
-3.002898e-10
1.181233e-09
-1.037557e-09
-1.43676e-10
-1.337992e-09
1.207264e-09
1.307281e-10
2.094259e-09
-1.527783e-09
-5.664757e-10
9.811173e-10
-1.404519e-09
4.23402e-10
6.185986e-09
-9.517331e-10
-5.234253e-09
1.744265e-09
-4.201153e-10
-1.324149e-09
1.592186e-09
-4.936031e-10
-1.098582e-09
-9.025012e-10
1.457092e-09
-5.545904e-10
1.651e-09
-1.253383e-09
-3.976167e-10
9.979107e-10
9.910762e-10
-1.988987e-09
1.045293e-09
6.906652e-10
-2.344063e-10
-4.52992e-09
4.764326e-09
-3.851966e-11
-1.361287e-09
1.399807e-09
-1.517604e-09
4.687675e-10
1.048836e-09
-1.294348e-09
1.08847e-09
2.058776e-10
9.702682e-10
1.667673e-09
-2.637941e-09
-6.930547e-10
1.718573e-09
-1.025519e-09
-1.541998e-09
1.681689e-09
-1.396907e-10
1.820028e-09
-1.253319e-09
-5.667093e-10
7.848721e-10
1.066845e-09
-1.851717e-09
-3.869574e-10
1.70839e-09
-1.321432e-09
5.887625e-10
-1.914808e-09
1.326046e-09
-1.259267e-09
1.635599e-09
-3.763313e-10
1.955397e-09
-9.955911e-10
-1.980054e-09
1.444405e-09
5.356493e-10
1.03608e-09
8.510845e-10
-1.887165e-09
-7.93824e-10
-5.135708e-10
1.307395e-09
1.55361e-09
-3.723777e-10
-5.533033e-10
-8.192103e-10
1.372514e-09
1.561439e-09
-4.354942e-10
-1.125945e-09
2.061407e-09
-1.031165e-09
-1.030242e-09
1.233499e-09
4.644957e-10
-1.697995e-09
-1.66459e-09
1.415436e-09
2.49154e-10
4.500593e-09
8.767775e-10
-5.377371e-09
1.529668e-09
-1.447064e-09
-8.26035e-11
-1.619423e-09
9.372884e-10
6.821346e-10
1.151044e-09
-4.968386e-09
3.817342e-09
-1.551826e-09
3.080264e-10
1.2438e-09
1.216558e-09
7.776129e-10
9.390228e-10
6.633359e-10
-1.602359e-09
1.706957e-09
-1.420449e-09
-2.865084e-10
7.287335e-10
-1.354557e-09
6.258231e-10
5.731155e-10
-1.369885e-09
7.967691e-10
1.853466e-09
-1.474537e-09
-3.789292e-10
-7.744247e-09
1.837334e-09
2.214375e-10
1.073851e-09
-1.295289e-09
-1.153819e-09
7.145325e-10
4.392862e-10
6.14755e-10
9.620038e-10
-1.576759e-09
7.480928e-10
8.78599e-10
-1.626692e-09
1.543687e-09
-9.650344e-10
-5.786528e-10
-3.074409e-11
2.639648e-09
-2.608904e-09
-1.695113e-09
9.10146e-10
7.84967e-10
-9.504699e-10
1.931252e-09
-9.807824e-10
1.500696e-09
4.354242e-10
-1.93612e-09
-1.581247e-09
-2.790277e-10
1.860274e-09
1.153447e-09
-1.770699e-09
6.172518e-10
-1.974912e-09
2.472772e-09
1.246801e-09
-1.004701e-09
-2.421e-10
4.440595e-10
-1.529785e-09
1.085726e-09
-2.417395e-10
1.525984e-09
-1.284245e-09
-1.772553e-09
2.360313e-10
-1.560303e-09
2.750324e-10
1.285271e-09
3.695602e-10
-1.746502e-09
1.376942e-09
-1.696665e-09
6.646789e-10
1.031986e-09
-5.958548e-10
2.444962e-09
-1.849107e-09
-1.963034e-09
1.141026e-09
1.419089e-09
-2.284367e-11
-1.396245e-09
8.44173e-10
7.722185e-10
-1.616392e-09
2.895379e-10
-1.630902e-09
1.341364e-09
-7.820951e-10
1.81927e-09
-1.037175e-09
-5.254862e-10
2.026182e-09
1.206034e-09
-1.579698e-09
3.736639e-10
9.491791e-11
-1.636916e-09
5.50046e-13
1.295662e-09
-1.296212e-09
-1.472499e-09
6.736448e-10
7.98854e-10
1.363199e-09
-1.59097e-09
2.277712e-10
1.601502e-10
-1.621723e-09
1.461572e-09
-9.191771e-10
1.647911e-09
2.860008e-09
-1.385956e-09
7.306188e-10
6.553377e-10
2.200219e-10
8.215497e-10
-1.041572e-09
1.074272e-09
-1.519993e-09
4.457217e-10
3.77017e-10
1.297076e-09
-1.674093e-09
-1.24247e-09
1.899609e-09
-6.571391e-10
9.897486e-10
-1.197377e-09
2.076284e-10
1.512102e-09
-5.930162e-10
-9.190858e-10
1.126355e-09
5.661975e-10
-1.692553e-09
-1.682859e-09
1.131768e-09
5.510902e-10
3.595651e-10
-1.332798e-09
9.732333e-10
-1.660664e-09
1.001939e-09
6.587245e-10
-2.639491e-10
-1.20855e-09
-1.777056e-09
1.302873e-09
4.741832e-10
-7.909683e-10
1.740073e-09
-1.741408e-09
1.145553e-09
1.075392e-09
7.098099e-10
-1.785202e-09
6.398377e-10
-2.031637e-09
1.391799e-09
-7.825203e-10
-1.088598e-09
1.871119e-09
-1.62625e-09
4.950009e-10
1.131249e-09
1.939375e-10
-1.188656e-09
9.947185e-10
1.026317e-09
1.327769e-10
-1.159094e-09
-1.831021e-10
1.552661e-09
-1.369558e-09
1.63867e-09
-1.367992e-09
-2.706784e-10
2.064501e-09
-9.931996e-10
-1.071301e-09
3.313082e-10
1.372984e-09
-1.704293e-09
8.825769e-10
8.792277e-10
-1.761805e-09
-1.118808e-09
-5.519646e-10
1.670772e-09
4.941618e-10
-1.315074e-09
8.209123e-10
1.762876e-09
-7.224104e-10
-1.040466e-09
9.781163e-10
4.876214e-10
-1.465738e-09
2.33098e-10
9.522558e-10
-1.185354e-09
1.384212e-09
6.802883e-10
-4.832638e-10
-1.221341e-09
1.704605e-09
-1.290055e-09
-2.619002e-10
1.551955e-09
1.53161e-09
-4.914257e-10
-1.040184e-09
8.230982e-10
-1.978827e-09
1.155729e-09
-1.399534e-09
3.49657e-10
1.049877e-09
1.103821e-09
-1.685532e-09
5.817113e-10
-2.913961e-11
-1.864417e-09
1.893556e-09
3.130311e-09
-1.517959e-09
1.407622e-09
-1.148576e-09
-2.590463e-10
-1.574423e-09
9.627477e-10
6.116753e-10
-9.013666e-10
1.14957e-09
-2.482039e-10
1.736665e-10
-1.372126e-09
1.19846e-09
8.807853e-10
-1.815499e-09
9.347141e-10
-1.540771e-09
-5.352952e-10
2.076066e-09
-1.318475e-09
-1.48529e-10
-1.716286e-09
9.805761e-10
7.357101e-10
8.140345e-10
1.010552e-09
-1.824587e-09
1.46076e-09
-2.140559e-09
6.797989e-10
-1.061252e-09
1.599567e-09
-5.383146e-10
1.728115e-09
-4.946158e-10
-1.747647e-09
2.6817e-10
1.479477e-09
-1.068885e-09
1.99253e-09
-9.236442e-10
-7.932792e-10
-1.100441e-09
1.89372e-09
-1.247129e-09
2.208516e-09
-9.613871e-10
-1.781306e-09
1.989509e-09
-1.208732e-09
-1.191616e-09
1.758166e-09
-5.665491e-10
-1.21831e-09
3.482807e-10
8.700297e-10
1.827698e-09
-1.316224e-09
-5.114739e-10
2.09236e-09
-1.652457e-09
-4.399033e-10
1.739378e-09
-6.220654e-10
-1.117312e-09
-1.268462e-09
-3.674417e-10
1.635904e-09
1.171079e-09
3.605313e-10
1.529655e-09
2.332212e-10
1.578358e-09
-9.291507e-10
-6.492069e-10
8.460455e-10
-1.852371e-09
1.006326e-09
1.486891e-09
5.114651e-11
-1.538037e-09
-8.822653e-10
-5.737976e-10
1.456063e-09
1.426151e-09
-1.055918e-09
-3.702334e-10
-1.222889e-09
-4.962169e-10
1.719106e-09
2.005747e-10
-1.223965e-09
1.023391e-09
-1.658849e-09
1.684201e-09
-2.535206e-11
-1.081664e-09
-6.996419e-10
-9.696131e-10
-3.075047e-10
1.277118e-09
-1.973607e-09
8.398505e-10
1.133757e-09
1.867063e-09
-1.439284e-09
-4.277789e-10
1.058461e-09
9.379315e-10
-1.996393e-09
-1.656537e-09
3.788044e-10
1.277732e-09
1.794936e-09
-3.300677e-10
-1.464868e-09
6.589383e-10
1.265803e-09
-1.417613e-09
1.518099e-10
-1.435196e-09
-3.56259e-10
1.791455e-09
1.214508e-09
9.053111e-10
-2.119819e-09
-2.107578e-09
9.510436e-10
1.156534e-09
-8.048058e-10
1.598485e-09
-7.936788e-10
8.283689e-10
-1.130525e-09
3.021565e-10
-2.147244e-10
-1.479272e-09
1.693996e-09
-4.803247e-09
3.555043e-09
1.798196e-09
-5.18077e-09
3.382573e-09
-1.729383e-09
1.277848e-09
4.51535e-10
-1.7447e-09
1.490093e-09
2.546075e-10
1.395358e-09
-3.023334e-11
-1.365125e-09
-1.718948e-09
1.393706e-09
3.252419e-10
-3.042873e-09
-3.986476e-11
3.082738e-09
-4.949235e-10
1.920929e-09
-1.426006e-09
1.360012e-09
-2.368027e-09
1.008014e-09
5.508469e-12
1.381498e-09
-1.387007e-09
-1.350768e-09
-4.897844e-10
1.840553e-09
-1.556253e-09
1.791516e-09
-2.352623e-10
2.352766e-09
-1.244721e-09
-1.108046e-09
-1.617778e-09
4.547187e-10
1.163059e-09
-1.582824e-09
8.960668e-10
6.867576e-10
2.855087e-10
1.453866e-09
-1.739374e-09
-1.619351e-09
1.011417e-09
1.403458e-09
7.945201e-11
-1.48291e-09
1.565159e-09
-8.036866e-10
-7.614727e-10
-1.364076e-10
1.185863e-09
-1.049456e-09
-8.009156e-10
-1.012751e-09
1.813666e-09
-1.860938e-09
6.961114e-10
1.164827e-09
1.267777e-09
6.549123e-12
-1.274327e-09
1.059748e-09
1.264948e-09
-2.324697e-09
1.103274e-09
1.159134e-09
-1.352636e-09
1.935017e-10
2.64812e-09
-7.297337e-09
4.649217e-09
1.843392e-09
4.093016e-11
-1.884322e-09
-1.475258e-09
9.663508e-10
5.089069e-10
1.680893e-09
-8.084133e-10
-8.724801e-10
1.00497e-09
-1.213684e-09
2.08714e-10
-5.001894e-09
-2.742354e-09
-5.670208e-10
1.497404e-09
-9.303829e-10
1.728754e-09
-9.258019e-10
-1.820247e-09
-9.008469e-11
1.910331e-09
1.887481e-10
1.464043e-09
-1.652791e-09
1.069301e-09
-1.784322e-10
-8.908687e-10
-8.711331e-10
-5.290721e-10
1.400205e-09
-1.642763e-09
-1.33395e-09
2.976713e-09
-1.028576e-09
-9.449502e-10
1.973526e-09
1.002611e-09
-1.644488e-09
6.418771e-10
9.143971e-12
-1.310655e-09
1.301511e-09
-5.330572e-10
-1.168605e-09
1.701662e-09
-6.774731e-10
1.795521e-09
-1.118048e-09
1.644728e-09
-2.648635e-09
1.600499e-09
-1.816454e-09
2.159548e-10
1.397492e-09
-2.146987e-09
7.494949e-10
7.832253e-10
2.516548e-10
-1.03488e-09
2.166789e-09
6.932187e-10
-3.590411e-10
-1.618841e-09
1.977882e-09
2.664965e-10
-1.784746e-09
1.518249e-09
-7.236142e-10
-8.721176e-10
1.595732e-09
1.588795e-09
-1.627314e-09
-3.306057e-10
1.476471e-09
-1.145865e-09
7.68825e-11
-1.522627e-09
1.445745e-09
-1.19304e-09
-5.020732e-10
-8.642588e-10
1.084296e-09
-2.20037e-10
1.543088e-09
-1.901423e-09
3.583355e-10
2.749386e-09
-2.747609e-09
-1.777474e-12
1.48442e-09
-1.116544e-09
-3.678765e-10
-1.514277e-09
1.121695e-09
3.925819e-10
1.6971e-09
-1.237627e-09
3.613176e-10
1.335782e-09
1.092452e-09
-1.547504e-09
4.550516e-10
9.768681e-10
-1.177281e-09
2.004125e-10
-7.297185e-10
8.207402e-10
9.580992e-10
-1.778839e-09
9.989068e-10
-1.191049e-09
1.921423e-10
-1.392562e-09
1.57969e-09
-1.871276e-10
1.46204e-09
-3.356845e-10
-1.862835e-09
8.113139e-10
1.051521e-09
1.93524e-09
-2.388294e-10
-1.696411e-09
-4.674373e-12
1.235223e-09
-1.230549e-09
-1.410893e-10
1.307571e-09
-1.166482e-09
-1.505375e-09
-6.199317e-11
1.567368e-09
-1.433206e-09
1.499439e-09
-6.623356e-11
-1.409042e-09
1.035931e-09
3.731104e-10
1.197715e-09
-1.000454e-09
-1.972618e-10
1.919039e-09
-1.598731e-09
-3.203079e-10
-1.390528e-09
1.918124e-10
1.198716e-09
1.833861e-09
-1.162476e-09
-6.713853e-10
-8.962802e-10
-1.954372e-09
2.577928e-10
-6.162237e-10
-1.06346e-09
1.679683e-09
-8.544302e-10
1.080376e-09
-2.259463e-10
1.63071e-09
-1.966778e-09
3.360673e-10
-1.225111e-09
2.135257e-09
1.739868e-09
-9.549012e-10
-1.235625e-09
-3.926436e-10
1.628268e-09
-3.421682e-10
-9.293343e-10
8.25625e-10
2.437441e-09
-3.263066e-09
-1.103132e-09
1.691895e-09
2.108032e-09
-1.509029e-09
-5.990027e-10
8.916984e-10
8.572955e-10
-1.748994e-09
1.767352e-09
-1.239169e-10
-1.643435e-09
-7.900858e-11
-1.331353e-09
1.410361e-09
-1.045679e-09
-5.75106e-10
1.620785e-09
8.697573e-11
1.619294e-09
-1.70627e-09
-1.465067e-09
1.804238e-09
-3.391712e-10
1.115803e-09
5.836497e-10
-1.699452e-09
-4.678531e-10
1.331488e-09
-8.636346e-10
-1.825817e-09
1.525998e-09
2.99819e-10
-1.223105e-09
1.285901e-09
-6.279586e-11
-4.508781e-10
-7.748045e-10
1.225683e-09
2.031373e-09
-1.256756e-09
-7.746171e-10
-5.139489e-10
-7.262522e-10
1.240201e-09
-1.574356e-11
1.105152e-09
-1.089408e-09
1.352624e-09
-1.442556e-09
8.993241e-11
1.439688e-09
2.56328e-10
-1.696016e-09
5.483465e-10
7.132636e-10
-1.26161e-09
-4.844758e-10
-8.540432e-10
1.338519e-09
-8.94798e-10
1.590173e-09
-6.953752e-10
1.319217e-09
-1.296327e-10
-7.226223e-10
2.101734e-09
-1.379112e-09
8.040571e-10
6.680589e-10
-1.472116e-09
1.865909e-09
-9.95541e-10
-8.703678e-10
-4.417669e-10
-1.21402e-09
1.655787e-09
-8.784794e-10
1.574459e-09
-6.959801e-10
2.392504e-09
-6.420671e-10
-1.750437e-09
1.880343e-09
-1.131475e-09
-7.488686e-10
1.433447e-09
3.66231e-10
-1.799678e-09
-3.084955e-09
-2.428447e-09
5.513401e-09
1.768425e-09
-5.24671e-09
3.478285e-09
-1.272786e-09
-4.748605e-10
1.626373e-09
1.027091e-09
-1.481651e-09
4.5456e-10
1.308292e-09
-1.328719e-09
2.042774e-11
-9.229085e-10
-1.050699e-09
1.656516e-09
-8.697577e-10
-1.701273e-09
2.36206e-10
-9.744185e-10
-4.633033e-10
1.437722e-09
9.047658e-10
1.483579e-09
-2.388344e-09
8.510941e-10
4.616348e-10
-1.312729e-09
1.801327e-09
-6.045139e-10
6.275114e-10
-5.952223e-10
1.514274e-09
-9.190516e-10
4.404925e-10
-1.69976e-09
6.858591e-11
1.476444e-09
-1.54503e-09
-1.071568e-10
1.473038e-09
-1.365881e-09
-6.569486e-09
1.788128e-09
4.781358e-09
-1.230239e-09
1.424682e-09
-1.944435e-10
-1.464457e-09
1.447365e-09
1.709195e-11
1.591755e-09
-5.756129e-10
-1.016142e-09
-1.815191e-09
1.430856e-09
3.843345e-10
7.033435e-10
-1.818134e-09
1.11479e-09
-1.366999e-09
-8.551755e-10
-6.319058e-10
4.167126e-10
-8.800556e-10
4.633429e-10
1.386152e-09
-1.647045e-10
-1.221447e-09
-1.575332e-09
1.392818e-09
1.513812e-09
1.958535e-10
-1.709666e-09
-7.23798e-11
-1.541813e-09
1.284027e-09
-1.623062e-09
3.390345e-10
-3.617439e-12
1.547305e-09
-1.632967e-09
-3.303467e-10
-1.787659e-09
-3.411128e-10
2.128772e-09
-1.289217e-09
-1.198251e-10
-9.850201e-10
-1.052162e-09
4.700937e-11
1.502677e-09
-1.549686e-09
1.283623e-09
-1.734501e-09
-1.629149e-09
-3.16483e-10
1.945632e-09
1.878144e-09
-9.116965e-10
-9.664473e-10
-3.249186e-10
-4.633657e-09
4.958575e-09
1.37835e-09
-1.185097e-09
-1.932537e-10
-4.991618e-10
-1.222374e-09
1.721536e-09
-1.560711e-09
1.728085e-09
-1.673741e-10
-8.844938e-10
-5.924833e-10
1.476977e-09
-1.658992e-09
2.060384e-10
1.452953e-09
1.453015e-09
-1.40945e-09
-4.35651e-11
6.310712e-10
-1.66185e-09
3.592617e-10
-1.817646e-09
1.458384e-09
1.629675e-09
1.563141e-10
-1.785989e-09
1.752505e-09
-7.081615e-11
8.194883e-10
-2.221934e-09
1.402445e-09
-1.306289e-09
1.35791e-09
-5.162103e-11
-7.692391e-10
1.651816e-09
1.17494e-09
4.756633e-10
1.469332e-09
-1.186016e-10
-1.35073e-09
-4.92814e-09
5.456269e-10
4.382513e-09
-1.060856e-09
1.658793e-09
2.143996e-10
-1.8246e-09
1.6102e-09
4.404619e-11
1.408969e-09
-1.103611e-09
-6.907112e-10
1.794322e-09
5.136415e-10
1.351794e-09
1.750193e-09
-1.308721e-09
-4.414722e-10
1.940477e-09
-8.433384e-10
-1.097138e-09
-2.13405e-09
-1.665622e-10
2.300613e-09
-1.024441e-09
-4.484381e-10
1.472879e-09
1.525689e-09
-1.730653e-10
-4.523222e-10
1.61185e-09
-1.159528e-09
7.639274e-10
9.612455e-10
-1.725173e-09
1.191422e-09
-1.706215e-09
5.147928e-10
1.127255e-09
4.294371e-10
-1.556692e-09
-1.404497e-09
8.892808e-10
5.152166e-10
1.152335e-09
1.424971e-09
-4.075817e-11
-1.721861e-09
6.80324e-10
1.041537e-09
6.799166e-10
-2.081467e-09
1.401551e-09
5.605761e-10
-1.590547e-09
5.364344e-10
8.497172e-10
3.256747e-10
-1.76543e-09
6.658791e-10
-2.818878e-09
2.152999e-09
-1.440296e-09
-1.14269e-09
-4.313925e-10
1.574083e-09
-9.214686e-11
1.444809e-09
2.131325e-10
1.407158e-09
-1.62029e-09
-1.298312e-09
-4.716978e-10
1.77001e-09
-3.398211e-11
1.28002e-09
-1.246038e-09
1.294228e-09
-8.430794e-10
-4.511483e-10
1.861692e-09
-1.758314e-09
-1.033776e-10
3.579297e-09
2.457365e-10
-3.825034e-09
-1.669243e-09
-3.108113e-10
-3.21444e-09
2.500277e-09
7.141629e-10
-1.630908e-09
2.315058e-10
1.399402e-09
1.343762e-09
-1.796084e-09
-1.260738e-09
1.081028e-10
-1.582202e-09
1.474099e-09
1.49577e-09
-1.629358e-09
1.335883e-10
1.492459e-09
-3.930426e-10
-1.099417e-09
1.341657e-09
-1.42717e-09
8.551289e-11
-1.254222e-09
-4.046261e-10
2.900037e-10
-1.360956e-09
1.070952e-09
5.670712e-10
-1.711417e-09
1.144346e-09
-2.495113e-10
1.525313e-09
-1.275801e-09
-7.85533e-11
1.284587e-09
1.469369e-09
-4.710653e-10
-1.043659e-09
1.190459e-09
-1.467996e-10
-1.299921e-09
1.003899e-09
2.96022e-10
-1.553456e-09
5.441966e-10
1.00926e-09
-1.002082e-09
1.193359e-09
-1.912761e-10
-1.087841e-09
-1.037759e-10
1.531871e-09
-4.575998e-10
-1.09592e-09
1.662117e-09
1.571175e-09
-3.961286e-10
-1.175046e-09
-9.442183e-10
-7.483345e-10
-2.786098e-10
1.192045e-09
-9.134348e-10
-1.022144e-09
-8.75389e-10
1.897533e-09
-1.204014e-09
1.014465e-09
1.895489e-10
-1.902109e-10
1.189118e-09
-1.560131e-09
8.250482e-10
7.350827e-10
1.595324e-09
-1.393962e-09
-2.013617e-10
3.955038e-10
1.042927e-09
-1.438431e-09
5.483756e-10
-1.954365e-09
1.405989e-09
-4.413736e-09
6.211933e-09
-8.062751e-10
1.899639e-09
-1.093364e-09
-3.179972e-09
1.205059e-09
-2.215233e-09
1.097533e-09
1.1177e-09
-8.518487e-10
3.462016e-09
-2.610167e-09
5.049451e-10
8.36192e-10
-1.341137e-09
1.806585e-09
-7.808409e-10
1.748041e-09
-9.672005e-10
1.847738e-09
-1.280667e-09
-1.307181e-09
-2.99363e-10
1.606544e-09
-1.582002e-09
2.065934e-09
-4.839327e-10
5.224513e-09
-3.948665e-10
-4.829647e-09
-1.837462e-09
1.721566e-11
2.005884e-09
-1.053647e-09
-1.976724e-09
1.222872e-09
-8.595783e-10
-7.520053e-10
1.611584e-09
1.970262e-09
-1.856957e-09
-1.133049e-10
1.521212e-09
-6.179002e-10
-9.033122e-10
1.832827e-10
1.212075e-09
1.474758e-09
1.239403e-10
-1.598698e-09
1.054463e-09
4.149632e-10
-1.469427e-09
-9.318653e-10
-8.939514e-10
4.468614e-10
-1.609688e-09
1.162826e-09
-5.412e-10
1.724954e-09
-1.183754e-09
-1.99801e-09
-3.015633e-09
5.013642e-09
-1.650622e-09
8.060293e-10
8.445932e-10
-1.574307e-09
8.050676e-10
-6.519308e-10
1.737471e-09
-1.08554e-09
-6.187168e-10
3.690013e-09
-3.071296e-09
-1.523919e-09
-5.244439e-10
2.048363e-09
1.966338e-09
2.198266e-09
-7.375058e-10
-8.419581e-10
1.62683e-09
-6.929722e-10
1.819036e-09
-1.126064e-09
9.325504e-10
3.757413e-10
1.274335e-09
3.471579e-10
-1.621493e-09
1.317559e-09
3.903812e-10
-1.70794e-09
-1.337501e-09
1.605671e-09
1.558968e-09
5.16367e-10
-2.075335e-09
7.722128e-10
-1.795483e-09
1.02327e-09
-1.826767e-09
1.269392e-09
5.573744e-10
-1.169601e-09
-1.317186e-09
2.486787e-09
1.771431e-09
-2.411946e-09
6.405148e-10
4.6063e-10
-1.786826e-09
1.326196e-09
2.178429e-09
-8.489712e-10
-1.329458e-09
-5.486793e-10
-1.364709e-09
1.913388e-09
-4.308113e-10
-9.68758e-10
-8.620935e-10
-7.550663e-10
-1.005902e-09
-1.028289e-10
1.108731e-09
-9.471555e-10
1.407785e-09
-1.153569e-09
-8.019884e-10
1.955557e-09
1.241981e-09
-4.713272e-10
-1.135518e-09
1.606845e-09
1.7303e-09
-2.968538e-10
-6.115704e-11
-9.632843e-10
-3.14931e-10
-1.267071e-09
2.089259e-10
-1.761241e-09
1.552316e-09
-1.05253e-09
-7.344454e-10
1.786975e-09
8.067098e-09
-8.067098e-09
-2.024308e-10
1.404051e-09
-1.20162e-09
-6.949521e-10
1.395788e-09
-7.00836e-10
3.178556e-10
-1.788812e-09
1.470956e-09
-1.044771e-09
-8.700378e-10
1.603695e-09
-5.651692e-10
-1.038526e-09
-1.195154e-09
-2.317487e-10
1.426903e-09
4.459523e-10
1.702627e-09
-1.295836e-09
-4.067902e-10
-1.032148e-09
1.592224e-09
-1.594379e-09
4.524203e-10
1.141959e-09
1.148891e-09
7.285734e-10
-1.877464e-09
-1.040715e-09
1.549893e-09
-5.091783e-10
-1.073607e-09
2.18941e-09
1.875744e-09
-1.440319e-09
-1.445719e-09
1.446269e-09
-3.801652e-10
-7.729335e-10
1.153099e-09
-7.082094e-09
1.733275e-09
5.348818e-09
9.722606e-10
5.782066e-10
-1.550467e-09
8.556212e-10
-1.2573e-09
4.016792e-10
-1.834425e-09
9.965572e-10
8.378679e-10
7.699603e-10
-1.385179e-09
6.152191e-10
-1.515392e-09
5.950181e-10
9.203742e-10
1.867734e-11
1.536926e-09
-1.555604e-09
-1.074753e-09
2.182543e-09
-1.107791e-09
4.670018e-10
9.618323e-10
3.677532e-11
-9.986077e-10
-3.919124e-10
1.322927e-09
-9.310151e-10
-9.433047e-10
1.360017e-09
-9.127124e-10
2.040553e-09
-1.127841e-09
8.088704e-09
-6.432645e-09
-1.656058e-09
-1.142156e-09
-9.98403e-10
-4.595932e-10
-1.621827e-09
2.08142e-09
-7.55684e-10
-8.708692e-10
-1.371072e-09
9.540929e-11
1.275663e-09
1.829631e-09
-1.229014e-09
-6.006163e-10
1.338506e-09
-1.414474e-09
7.596836e-11
1.499596e-09
-1.302682e-09
1.728884e-09
-4.262013e-10
7.896776e-10
-1.544632e-09
3.039892e-10
1.240643e-09
-1.75173e-09
9.768937e-10
7.748359e-10
1.389994e-09
-5.150998e-09
4.940573e-09
2.104249e-10
-1.444666e-09
1.817684e-09
-1.510355e-09
-3.07329e-10
6.859259e-10
1.055598e-09
-1.741524e-09
1.403436e-09
-1.500059e-09
9.662294e-11
-1.644977e-09
8.071715e-10
8.378051e-10
1.492366e-09
-3.360304e-10
-1.156336e-09
-1.674455e-10
-1.11754e-09
1.284985e-09
-3.086277e-09
6.946563e-09
-3.860286e-09
2.244304e-09
2.147621e-09
-4.391926e-09
-2.046943e-09
8.773418e-10
1.017456e-09
9.537612e-10
-1.971217e-09
-1.520986e-09
1.19038e-09
-1.844239e-09
5.601372e-10
1.284102e-09
1.797505e-09
-7.529424e-10
-1.044563e-09
-1.038731e-09
1.078212e-09
-3.948106e-11
-1.697822e-09
2.532009e-10
-1.081631e-09
1.378348e-09
-2.967174e-10
1.789902e-09
-7.635847e-10
1.458873e-09
2.714274e-10
-1.643158e-09
-3.757544e-10
2.018913e-09
6.407294e-10
-1.602888e-09
9.621587e-10
1.025041e-09
9.643601e-10
-1.989402e-09
-1.677085e-09
3.706018e-11
1.640025e-09
7.596616e-10
-2.313582e-09
1.55392e-09
7.726335e-10
7.394685e-10
1.31208e-09
-3.648293e-10
-9.472503e-10
1.983436e-09
-1.657517e-10
-3.195307e-10
1.373823e-09
-1.054292e-09
-1.699873e-09
1.148687e-09
-1.82616e-09
3.994348e-10
1.35307e-09
-1.809332e-09
1.405184e-09
4.041489e-10
-1.844871e-09
2.017129e-10
1.418873e-09
2.490848e-10
-1.667958e-09
1.485858e-09
3.16582e-10
-1.80244e-09
-1.990146e-09
1.614392e-09
3.921403e-10
-1.996998e-09
1.604857e-09
-7.729749e-10
-7.424173e-10
-1.190848e-09
1.042293e-09
-1.103149e-09
-3.817393e-10
1.484888e-09
-1.400764e-09
1.800199e-09
-1.766713e-09
7.476969e-10
1.019017e-09
-9.944825e-10
1.412511e-09
-4.180287e-10
-1.113972e-09
-4.566354e-10
1.570607e-09
-1.198883e-10
1.580111e-09
-1.460223e-09
-1.303277e-09
1.267157e-09
4.776604e-10
-1.744817e-09
-1.584101e-09
1.60793e-09
-2.382906e-11
-5.131762e-10
2.618951e-09
-2.105775e-09
1.835754e-09
-6.905385e-10
-1.145215e-09
4.082912e-09
-4.253507e-09
-1.719753e-09
1.647492e-09
7.226052e-11
1.953498e-09
-1.000161e-09
-9.533371e-10
-1.184949e-09
1.001847e-09
1.966607e-10
1.356e-09
-4.091046e-09
3.47233e-09
-1.675469e-09
1.354777e-09
3.206916e-10
1.405728e-09
-4.73178e-10
-1.056997e-09
-1.185677e-09
2.242674e-09
-1.15773e-09
1.848047e-09
-6.903163e-10
-2.678088e-09
6.003027e-10
2.077785e-09
1.298424e-09
-2.081144e-09
7.827196e-10
5.971519e-10
8.460671e-10
-1.443219e-09
-7.489117e-10
-4.264766e-10
1.175388e-09
3.719308e-10
1.184845e-09
-1.556775e-09
1.147508e-09
-1.554066e-09
4.065574e-10
-3.802698e-10
-1.278722e-09
1.920227e-09
-6.260292e-12
-1.913967e-09
-1.972614e-09
4.044683e-10
1.272398e-09
-1.676867e-09
1.52144e-09
-1.142636e-09
-1.270355e-09
-2.820722e-10
1.552427e-09
7.646583e-10
8.005009e-10
3.34197e-10
-1.609807e-09
1.27561e-09
-1.727746e-09
6.089388e-10
1.368992e-09
-1.488108e-09
1.191164e-10
1.798531e-09
-7.241119e-10
-1.07442e-09
-1.354534e-09
4.159966e-10
9.385374e-10
-1.769986e-09
9.759373e-10
7.940487e-10
1.344007e-09
-1.558732e-09
-1.510876e-09
9.210278e-10
5.898477e-10
-1.250136e-10
2.074208e-09
-1.949194e-09
-7.627649e-10
1.735025e-09
1.319127e-09
-5.720226e-10
8.987402e-10
-1.87711e-09
9.783694e-10
-6.474218e-10
-4.211033e-10
1.068525e-09
-1.449541e-09
9.66253e-10
4.832878e-10
-7.713947e-10
-1.030208e-09
1.891155e-09
-6.460399e-10
1.562173e-09
-9.16133e-10
1.308548e-09
1.872217e-10
1.217267e-09
6.304706e-10
-7.693441e-10
-9.353265e-10
-5.539222e-10
1.44868e-09
-8.947581e-10
-6.370858e-10
1.429038e-09
-7.919526e-10
9.366422e-10
-1.844059e-09
-2.798116e-11
1.097282e-09
-5.009441e-10
1.88998e-09
-1.389036e-09
-1.158194e-09
4.130497e-10
-8.867417e-10
1.482014e-09
-5.952724e-10
-9.944628e-10
1.742556e-09
-1.991998e-09
1.695144e-09
1.315263e-09
-1.796257e-09
4.80994e-10
1.455211e-09
-1.534519e-09
7.930812e-11
1.358153e-09
1.11179e-10
-7.590727e-10
-7.585309e-10
-1.348764e-09
5.554847e-10
4.12412e-10
1.079954e-09
-5.8084e-10
-1.411158e-09
1.557413e-09
-1.759844e-09
-1.170598e-09
1.257297e-09
-8.669889e-11
4.112151e-09
-3.430735e-09
-6.814165e-10
-1.654987e-09
1.266015e-09
3.889722e-10
1.302132e-09
-1.476454e-09
1.74322e-10
-1.279063e-09
-3.964054e-10
-1.434861e-09
3.208893e-10
1.858664e-09
-1.327013e-09
-5.316505e-10
3.595248e-09
8.528422e-10
-4.44809e-09
1.053412e-09
1.057221e-10
5.809943e-10
-1.552945e-09
-5.013008e-10
1.068207e-09
-1.069278e-09
4.648575e-09
-1.275161e-09
-5.341712e-10
-2.211016e-09
3.334873e-10
1.877529e-09
-1.270962e-09
2.650605e-10
-1.276978e-09
1.371896e-09
1.425578e-09
8.378572e-10
-2.263435e-09
-2.981975e-10
3.8003e-10
1.989752e-09
-2.369782e-09
-7.469732e-10
-7.752912e-10
-2.610487e-09
3.385778e-09
-1.255401e-09
1.009635e-09
2.457668e-10
-1.869698e-09
6.428355e-10
1.226863e-09
2.154586e-10
-1.855997e-09
6.08868e-10
5.077207e-10
1.294584e-09
-1.802304e-09
1.428328e-09
-1.051311e-09
-8.607564e-10
-9.660105e-10
-5.882812e-10
1.012363e-09
-4.240818e-10
1.986178e-09
-1.15709e-09
-1.060396e-09
2.217485e-09
-1.580135e-09
-1.709943e-10
1.75113e-09
-1.342252e-09
3.779061e-10
9.643458e-10
1.968622e-09
-1.638014e-09
-3.306089e-10
1.26119e-09
6.169534e-10
1.715654e-09
-6.620111e-10
-1.053642e-09
1.027693e-09
-2.207685e-09
1.179992e-09
7.709728e-10
-5.840344e-10
-1.033744e-09
1.861296e-09
-1.300573e-09
-5.60723e-10
-1.661064e-10
1.394758e-09
-1.228651e-09
-5.646478e-09
8.294598e-09
-6.777394e-10
1.230328e-09
-5.525885e-10
-1.329044e-09
5.741532e-11
1.271629e-09
-1.158003e-09
1.443512e-09
1.732548e-09
-1.379213e-09
-3.53335e-10
-1.868682e-09
1.095707e-09
-1.976435e-09
9.075493e-10
-9.878972e-10
-1.021682e-09
1.91885e-09
-8.971684e-10
-1.084482e-09
2.001317e-09
-9.168352e-10
5.785998e-09
-4.634954e-09
2.559757e-09
5.718782e-10
-1.566361e-09
-6.722793e-10
-9.445623e-10
1.417365e-09
-1.292417e-09
-1.249486e-10
1.231845e-09
-3.777403e-10
-8.541044e-10
9.074055e-10
9.585034e-10
-5.091506e-11
1.594037e-09
-1.543122e-09
-8.527823e-10
1.03001e-09
-1.772278e-10
1.578552e-09
-1.30203e-09
-2.76522e-10
4.716538e-10
-1.436688e-09
-1.213279e-09
1.475763e-09
-2.624847e-10
1.10415e-09
-1.484884e-09
1.364734e-09
1.201491e-10
1.080214e-10
1.367303e-09
-1.475324e-09
1.266306e-09
-1.780255e-09
3.854966e-09
-2.613927e-10
-3.593573e-09
-2.322629e-09
-8.918106e-10
-1.448273e-09
-6.600388e-11
-8.051325e-10
-1.094352e-09
1.899484e-09
1.054879e-09
-1.407478e-09
3.525997e-10
-1.326703e-09
3.143696e-10
1.012333e-09
-2.097895e-10
-1.606598e-09
1.816387e-09
-1.762648e-09
1.644046e-09
9.217501e-10
1.07078e-09
7.892163e-10