/*--------------------------------*- C++ -*----------------------------------*\
| =========                 |                                                 |
| \\      /  F ield         | OpenFOAM: The Open Source CFD Toolbox           |
|  \\    /   O peration     | Version:  2406                                  |
|   \\  /    A nd           | Website:  www.openfoam.com                      |
|    \\/     M anipulation  |                                                 |
\*---------------------------------------------------------------------------*/
FoamFile
{
    version     2.0;
    format      ascii;
    arch        "LSB;label=32;scalar=64";
    class       volVectorField;
    location    "0.4";
    object      U;
}
// * * * * * * * * * * * * * * * * * * * * * * * * * * * * * * * * * * * * * //

dimensions      [0 1 -1 0 0 0 0];

internalField   nonuniform List<vector> 
4562
(
(0.01003786 0.0002611732 -4.467733e-26)
(0.009994358 2.998621e-05 0)
(0.01001496 0.0001230954 0)
(0.009991566 3.5684e-05 2.039726e-26)
(0.01047447 0.0001304091 0)
(0.0100038 5.545823e-05 -8.044017e-27)
(0.009737206 0.0002307787 2.888074e-26)
(0.009895253 0.0001216367 -1.026352e-26)
(0.009911455 5.109119e-05 -1.066752e-25)
(0.009991966 3.879699e-05 1.519044e-26)
(0.009854043 0.0004731789 -3.818146e-25)
(0.01005675 0.000182664 3.317611e-26)
(0.009931563 0.000217027 0)
(0.009991741 0.0001213249 0)
(0.01086876 0.0005180121 1.496422e-24)
(0.01003873 2.560235e-05 -2.590532e-27)
(0.009815992 8.3554e-05 1.580914e-25)
(0.01009762 0.000132955 -6.669129e-26)
(0.009641761 0.0001917566 4.109531e-25)
(0.01002619 0.0001490443 0)
(0.009983005 0.001116332 1.748423e-24)
(0.009958022 0.0001287572 0)
(0.009808941 0.0004001091 0)
(0.0100102 3.63066e-05 -2.921022e-27)
(0.01001188 5.387239e-05 0)
(0.009965693 0.0003094704 1.56507e-25)
(0.009889289 9.592025e-05 0)
(0.009940617 0.0001404005 -1.865923e-25)
(0.009630713 0.0007640998 0)
(0.01035496 0.0006517035 0)
(0.01001114 0.0002460802 3.991406e-26)
(0.01001519 4.081569e-05 6.583918e-28)
(0.009995695 0.0001019767 4.042262e-26)
(0.009786973 0.0002305571 2.719569e-25)
(0.01015969 0.0002791576 1.839161e-25)
(0.01009614 6.131486e-05 -2.849793e-26)
(0.009729788 0.0008699563 -7.309111e-25)
(0.009941691 5.281375e-05 0)
(0.01002224 3.561736e-05 6.023966e-27)
(0.01005712 9.759443e-05 1.848073e-26)
(0.00983583 7.068381e-05 0)
(0.009977537 2.209311e-05 -1.232929e-27)
(0.009820676 0.0001403347 -2.529567e-25)
(0.009987732 5.695051e-05 -2.062578e-26)
(0.01000799 3.485943e-05 1.855971e-26)
(0.00984573 0.0001300338 -5.37965e-25)
(0.01000913 5.389324e-05 0)
(0.009982236 2.369541e-05 0)
(0.00997566 4.15398e-05 0)
(0.01009432 0.0003564301 -2.189795e-26)
(0.009976679 5.045608e-05 0)
(0.009995836 0.0002397496 2.108789e-26)
(0.01014582 6.944001e-05 2.206239e-25)
(0.009747418 0.0002517442 0)
(0.01003169 5.637868e-05 -3.669292e-26)
(0.01076883 0.0006670242 0)
(0.009756643 0.0002328286 1.753167e-25)
(0.009666898 0.0003271113 7.743907e-25)
(0.009784392 0.0001999605 -6.912781e-25)
(0.01068659 0.0005215063 0)
(0.01000094 7.683068e-05 1.685401e-27)
(0.009765951 0.0006814956 -5.148411e-25)
(0.00986295 0.0002115586 -2.568149e-25)
(0.0100701 0.0002595249 -5.22393e-26)
(0.009857661 6.470157e-05 3.163397e-26)
(0.01043946 0.0007878613 2.467793e-25)
(0.009961347 0.0002049199 -1.346619e-25)
(0.009966905 0.0002930444 3.748826e-26)
(0.01009014 0.0003367555 0)
(0.009978631 0.00012368 0)
(0.00969896 0.0003774846 0)
(0.009950893 7.327985e-05 -6.206856e-26)
(0.01027937 0.0004315491 0)
(0.009914038 6.080919e-05 -5.219214e-26)
(0.009835935 0.0001615366 2.004177e-25)
(0.01040211 0.0004478147 1.289529e-25)
(0.01002858 0.0002217887 2.767517e-26)
(0.009924777 9.544178e-05 -1.408849e-25)
(0.01004076 0.0003514224 0)
(0.0107328 0.0003468764 7.238694e-25)
(0.01068033 0.0001254057 2.057371e-24)
(0.01022971 0.0002008487 -1.872545e-25)
(0.01030517 0.0009893639 4.166457e-25)
(0.009978371 7.312829e-05 0)
(0.009795917 0.0002386777 0)
(0.009967515 3.583163e-05 -1.835543e-26)
(0.01001696 3.295902e-05 5.405782e-28)
(0.009960652 0.0001171032 -6.741329e-26)
(0.009908961 0.000102573 0)
(0.009972021 0.0001993467 -7.857572e-26)
(0.009949736 6.760041e-05 0)
(0.01001115 2.623056e-05 0)
(0.009924221 0.0001262909 -5.866049e-26)
(0.01000015 0.0001067121 -2.043301e-26)
(0.01008036 0.0005277759 0)
(0.009907267 0.0005778032 0)
(0.01001402 3.019244e-05 0)
(0.00993311 4.525531e-05 1.318704e-26)
(0.009615398 0.0005383552 0)
(0.009768842 0.0002814628 3.032573e-26)
(0.009986704 0.0001447814 2.906588e-26)
(0.00967861 0.0005198712 2.817548e-25)
(0.009986119 7.569217e-05 6.95341e-26)
(0.010041 0.001146598 0)
(0.01000481 0.0002209322 2.213783e-26)
(0.01002951 0.0006626041 0)
(0.009904823 0.0001081419 -7.680217e-26)
(0.009995881 0.0001393685 0)
(0.009991653 6.977733e-05 1.205917e-26)
(0.01004485 3.944807e-05 0)
(0.009929134 0.0002930955 1.025911e-25)
(0.01016334 0.000481218 -2.838018e-26)
(0.01001068 0.0002103343 -2.414982e-26)
(0.009679425 0.0002026524 0)
(0.01045954 0.0008161459 0)
(0.00997838 2.166409e-05 2.65196e-26)
(0.01061377 0.0003306798 -8.420943e-25)
(0.009913763 0.0001410287 1.782905e-25)
(0.009682089 0.0006709648 -4.022538e-25)
(0.009952493 0.0001693121 -2.009703e-25)
(0.01018309 0.0002814008 -3.895272e-25)
(0.009880127 6.405888e-05 1.585529e-25)
(0.009969326 4.270788e-05 -1.317036e-26)
(0.009988824 6.335082e-05 -1.636597e-27)
(0.00985683 0.0002766171 2.17393e-25)
(0.009991565 9.78901e-05 -4.31781e-26)
(0.009962384 9.642035e-05 -4.176559e-26)
(0.009994061 7.803545e-05 8.349488e-27)
(0.01009117 0.0005156029 -4.863312e-26)
(0.0100776 0.0003885912 2.467191e-26)
(0.01007481 0.0002081407 -2.448431e-27)
(0.009972416 4.868866e-05 -2.099222e-26)
(0.01003395 0.0006492407 -1.001889e-25)
(0.009995212 2.672607e-05 -4.016676e-27)
(0.01001654 0.000220441 -1.305193e-26)
(0.01066828 0.0007193853 -5.01458e-26)
(0.009716128 0.0003402623 0)
(0.009968875 9.656252e-05 -5.711279e-26)
(0.01021377 0.000107502 0)
(0.01000038 3.427703e-05 -3.000501e-28)
(0.01031319 0.0009017545 0)
(0.01027022 0.0002412135 -1.746367e-25)
(0.01002129 5.764532e-05 -1.668376e-26)
(0.01071335 0.0007941903 1.909592e-25)
(0.009975134 0.0003745563 0)
(0.009998326 0.0001304202 0)
(0.009808344 0.0003028432 0)
(0.009966843 7.140561e-05 -1.568613e-26)
(0.01008564 0.0002636751 -4.411798e-26)
(0.01015973 8.948776e-05 -4.602242e-25)
(0.009992331 5.521013e-05 0)
(0.009821221 0.0006509372 0)
(0.009985343 0.0001226485 0)
(0.01006875 0.0001578159 6.36885e-26)
(0.01000019 5.321483e-05 0)
(0.01016793 0.000258553 1.30321e-25)
(0.009957764 4.983319e-05 0)
(0.01057129 0.0008559351 9.822738e-25)
(0.01001227 0.0001678132 -2.360357e-26)
(0.009978712 4.655031e-05 -3.160278e-26)
(0.009949886 0.0002917846 -4.352459e-25)
(0.01040179 0.0004260367 -1.894302e-25)
(0.01038536 0.0006934775 0)
(0.00997507 2.435811e-05 -1.327399e-26)
(0.009961304 6.57806e-05 -6.002323e-26)
(0.01078858 0.0006539561 1.444032e-25)
(0.01002007 9.285347e-05 -9.435588e-27)
(0.01001027 4.295332e-05 -1.030768e-26)
(0.009783382 0.000391782 -2.376556e-25)
(0.01019476 0.0003194316 1.036162e-25)
(0.01004793 0.001108557 -3.292578e-24)
(0.01004184 0.0001223184 -1.318611e-27)
(0.01016685 0.0005512036 2.465656e-25)
(0.01001368 0.0001079939 0)
(0.01001023 0.0005950882 -3.493826e-25)
(0.01001566 0.0001627738 2.151591e-26)
(0.009975613 3.019192e-05 -3.677345e-28)
(0.009967341 4.374839e-05 3.765726e-26)
(0.009909296 0.0002563016 8.841636e-27)
(0.009935821 6.521512e-05 0)
(0.01000108 3.86692e-05 0)
(0.009831253 0.0002166004 3.96915e-25)
(0.009801221 0.0002937071 3.549461e-25)
(0.01086556 0.000487086 -1.109247e-25)
(0.01010505 0.0005409338 0)
(0.01000171 0.0001824993 -1.152655e-26)
(0.01004595 0.00075298 -5.271151e-25)
(0.01004202 0.0002386051 -1.733594e-26)
(0.009945599 4.821666e-05 -7.667833e-27)
(0.01027365 0.0007279623 0)
(0.01001993 0.0008349265 0)
(0.01023121 0.0007963522 8.252553e-25)
(0.01016819 0.0002959998 0)
(0.01000491 9.491e-05 -1.865952e-27)
(0.0100882 0.0005794511 0)
(0.009933616 6.687545e-05 -1.39841e-25)
(0.009738094 0.0001353248 1.61722e-25)
(0.009781026 0.0002828182 3.80939e-25)
(0.01018821 0.0003311421 -1.864965e-26)
(0.00998759 4.34945e-05 6.793487e-27)
(0.009969083 6.48172e-05 3.721537e-26)
(0.009891527 0.0003009296 0)
(0.0100324 0.000204755 0)
(0.01020222 0.0006403147 3.109812e-25)
(0.009781683 0.0005759558 -2.558463e-25)
(0.01001094 8.417038e-05 0)
(0.01052532 0.000605322 -1.676171e-25)
(0.01061692 0.0007413912 3.090682e-26)
(0.01013465 0.0002970805 2.499589e-25)
(0.009904642 7.877022e-05 1.0939e-25)
(0.01001115 3.855403e-05 -1.396952e-27)
(0.00990531 0.0006585253 0)
(0.009970101 3.491838e-05 -1.819523e-26)
(0.01001591 5.938198e-05 -4.953041e-27)
(0.01033619 0.0006345535 0)
(0.01059396 0.0007425645 4.403899e-27)
(0.0099908 7.431591e-05 0)
(0.009991306 2.873566e-05 -7.22071e-28)
(0.01002945 0.0002460167 0)
(0.01061771 0.0008597507 1.67463e-25)
(0.009997469 7.419028e-05 -1.763654e-26)
(0.01048062 0.0009872911 2.034608e-24)
(0.01019424 0.0003916531 0)
(0.01002877 5.591388e-05 1.80258e-26)
(0.009836192 0.0004134304 0)
(0.009838336 0.0002659938 -7.693633e-26)
(0.009944649 0.0005906211 -1.698132e-25)
(0.009888547 0.0004372584 7.334838e-26)
(0.01036133 0.0008656224 0)
(0.00986829 0.0001004585 0)
(0.009994692 3.10573e-05 -4.857621e-28)
(0.009840544 0.000285069 1.609974e-25)
(0.01009505 0.0001939479 7.615671e-26)
(0.009891341 0.0003461336 2.965068e-25)
(0.009938957 4.451917e-05 5.320137e-26)
(0.009710278 0.0003260811 0)
(0.009738473 0.0002051129 -1.578286e-25)
(0.01049945 0.0008503103 -5.474881e-26)
(0.0101248 0.000287453 0)
(0.009893789 5.781428e-05 0)
(0.009875872 6.178199e-05 -2.972674e-25)
(0.009936615 0.0001371913 -1.174502e-25)
(0.01013218 0.0006073739 0)
(0.009982833 0.0001775993 1.030707e-25)
(0.01003358 0.0001636432 -4.57096e-27)
(0.01069776 0.0005969341 -1.765298e-25)
(0.00993543 9.695619e-05 5.263411e-26)
(0.009791423 0.0005126635 -3.07178e-25)
(0.0100291 0.0002384772 -6.175623e-27)
(0.009971362 3.369383e-05 -2.860176e-27)
(0.009996206 3.309264e-05 1.417617e-26)
(0.009974619 0.0001182598 -1.076659e-25)
(0.009986583 9.532202e-05 2.068666e-26)
(0.009976183 6.939958e-05 2.384324e-26)
(0.01002152 7.467625e-05 3.892788e-26)
(0.01003255 0.0001140336 -1.621509e-26)
(0.009998002 5.636945e-05 0)
(0.009852169 0.0001884875 -6.753083e-25)
(0.009871721 6.425857e-05 1.627638e-25)
(0.009808905 0.0007370312 -6.311337e-25)
(0.01013325 0.0008132139 -3.906172e-25)
(0.009928488 5.862356e-05 4.801471e-27)
(0.01008545 0.00020143 5.938374e-26)
(0.01000838 0.0001043331 5.475626e-28)
(0.01037351 0.0005048182 -3.71984e-26)
(0.01001621 0.000212849 2.141629e-26)
(0.01000309 2.915713e-05 0)
(0.0100733 0.0002734258 2.894506e-26)
(0.01002326 5.436335e-05 -1.011296e-27)
(0.01001482 2.845192e-05 9.37309e-27)
(0.009982058 2.967846e-05 0)
(0.009959595 0.0001115566 4.840147e-26)
(0.009907531 0.0001914714 1.015347e-25)
(0.01022706 0.000226142 -2.032985e-25)
(0.01040043 0.0002702421 1.103808e-26)
(0.009989205 3.3637e-05 0)
(0.01000973 4.856221e-05 -2.189995e-29)
(0.00999421 5.110987e-05 -1.696189e-26)
(0.01003157 0.0001402268 6.329322e-26)
(0.01059336 0.0004818054 -2.6947e-25)
(0.009959326 0.0002354416 1.011468e-25)
(0.01001743 2.796499e-05 5.776598e-27)
(0.009899667 0.0001287733 0)
(0.009941834 0.0001304985 -5.23723e-26)
(0.01019606 0.0009439124 4.156975e-25)
(0.01003554 8.124382e-05 -6.465285e-27)
(0.01001928 7.792481e-05 6.3697e-26)
(0.009986953 5.350108e-05 3.084323e-26)
(0.009993751 6.251298e-05 3.822305e-26)
(0.00968195 0.0003731473 0)
(0.009991068 0.000325 0)
(0.009985217 0.0001153362 0)
(0.009865712 0.0004465194 -1.293098e-25)
(0.01012839 0.0005756811 0)
(0.009977977 6.328394e-05 -2.880615e-26)
(0.009853948 0.0004952336 3.270806e-25)
(0.009920812 0.0005073947 3.054535e-25)
(0.009994676 9.823224e-05 4.590392e-26)
(0.009735355 0.0007462152 1.600625e-25)
(0.01028365 0.0001491994 -1.522872e-25)
(0.01005335 0.0001270359 5.510495e-26)
(0.009943813 0.0001646011 4.462609e-26)
(0.01005137 0.0003182478 -8.705594e-27)
(0.01041275 0.0007237545 0)
(0.01017767 8.931896e-05 5.98956e-26)
(0.009854974 0.0007998795 -4.682096e-25)
(0.009765077 0.0008543377 9.756549e-25)
(0.01001867 6.816433e-05 0)
(0.00990457 0.0002330506 0)
(0.009876628 0.0002474289 1.85132e-25)
(0.009915041 5.527945e-05 -1.564366e-25)
(0.01014982 0.0002179529 -7.031206e-26)
(0.0105367 0.0008059887 0)
(0.009648834 0.0004867124 8.328092e-25)
(0.009938068 0.000253034 -1.760946e-25)
(0.01004948 0.0001616887 -1.74936e-26)
(0.009976116 3.636359e-05 2.347219e-26)
(0.01002073 3.641833e-05 0)
(0.01018877 0.0004320371 4.47105e-27)
(0.009968952 2.89256e-05 1.055798e-26)
(0.009965503 3.812229e-05 3.208048e-26)
(0.01084326 0.000488599 -1.833552e-24)
(0.009997814 4.722813e-05 -5.495882e-28)
(0.009980622 5.939303e-05 0)
(0.009868795 0.0008706812 0)
(0.009918983 0.000143577 -2.586747e-27)
(0.009828824 0.0004359512 0)
(0.009921236 0.0004084673 -2.346116e-25)
(0.00995649 5.219687e-05 1.160519e-26)
(0.009850841 0.0005820893 4.19734e-25)
(0.0100244 0.0001074306 2.012578e-26)
(0.01008104 0.0001053447 0)
(0.01001699 0.0001354638 -6.389653e-27)
(0.01003252 0.0001260385 -5.14329e-26)
(0.009622213 0.0003351859 5.500271e-25)
(0.009637754 0.0003262523 -8.754058e-25)
(0.01000768 4.377676e-05 -6.986692e-29)
(0.01010373 0.0006928629 4.988593e-25)
(0.01046435 0.0007931889 0)
(0.01037402 0.0009011137 0)
(0.01022292 0.0006262901 -2.261456e-25)
(0.01024444 0.000470318 0)
(0.01023783 0.0007785248 -5.729116e-25)
(0.009959466 0.0001879452 -6.129466e-26)
(0.00997434 3.397212e-05 0)
(0.009997286 3.92763e-05 -1.512647e-27)
(0.009991691 2.689887e-05 -4.01999e-27)
(0.009908429 0.0002197815 -3.556633e-26)
(0.009723396 0.0004927935 1.064669e-25)
(0.009928572 7.439524e-05 0)
(0.01029879 0.0006590013 2.204124e-25)
(0.009970029 0.0002154504 -1.049337e-25)
(0.010014 5.664002e-05 5.397716e-28)
(0.009949686 4.65858e-05 8.879915e-26)
(0.01001011 2.61993e-05 0)
(0.009924718 9.957949e-05 7.849378e-26)
(0.009961952 7.256997e-05 0)
(0.009968597 0.0001333232 0)
(0.009850477 0.0001046639 -1.480051e-25)
(0.00995663 4.761758e-05 -3.853298e-27)
(0.009959932 5.027574e-05 0)
(0.009992141 4.136297e-05 0)
(0.0100081 3.611011e-05 7.902465e-28)
(0.01006923 0.0001071918 2.310073e-26)
(0.009959134 9.41375e-05 8.390586e-26)
(0.009872209 0.0001240362 3.962353e-25)
(0.009902744 6.091097e-05 0)
(0.009879988 0.0001616742 1.23999e-25)
(0.009904661 0.0001412331 1.286279e-26)
(0.009944547 0.0001045379 -5.277259e-26)
(0.009823317 9.649327e-05 0)
(0.00979018 0.0001222169 6.197595e-25)
(0.009811414 0.0001083933 5.845921e-25)
(0.009870093 0.0006879581 0)
(0.01013406 0.0004897714 1.774936e-26)
(0.01000873 2.98868e-05 0)
(0.009774569 0.0001595575 0)
(0.009984429 0.001071279 0)
(0.009964447 0.0001704505 0)
(0.009980285 0.000136109 0)
(0.010001 7.206419e-05 3.78446e-26)
(0.01005926 0.0002985941 0)
(0.009928739 0.0005537057 0)
(0.01001137 3.46307e-05 -4.418877e-27)
(0.0101307 0.0003546443 -3.606597e-26)
(0.00990235 0.0005639196 2.159432e-25)
(0.01014399 0.0008700973 -1.695232e-24)
(0.01000667 2.732795e-05 2.271534e-27)
(0.009977015 8.175414e-05 8.985085e-27)
(0.009946717 9.375626e-05 4.605374e-26)
(0.00995525 9.948317e-05 2.492363e-27)
(0.009957563 7.648026e-05 -1.082518e-26)
(0.009981207 2.601802e-05 0)
(0.01012711 0.0004100353 -9.661703e-27)
(0.01048037 0.000236201 1.321424e-24)
(0.01036647 0.0003276696 6.664386e-25)
(0.009726178 0.0002105122 -5.67968e-25)
(0.009638697 0.0004659881 7.16024e-25)
(0.009986251 5.056475e-05 2.239974e-26)
(0.009674968 0.0001422464 1.068023e-25)
(0.01014639 0.0008308274 -8.066371e-27)
(0.009962489 0.001190654 2.047881e-24)
(0.009787416 0.000131296 -4.759936e-25)
(0.01004694 0.000200416 1.827768e-26)
(0.01076319 0.0004938914 0)
(0.01006897 0.0003263533 0)
(0.01025945 0.001118109 0)
(0.009625816 0.0003550689 5.598846e-25)
(0.009893363 0.001095101 0)
(0.009991992 8.001503e-05 0)
(0.01001493 0.000312176 0)
(0.01000477 0.0001109144 0)
(0.01003007 1.470238e-05 0)
(0.009978246 0.0002698563 9.431164e-27)
(0.01000822 0.0003293279 -9.528849e-27)
(0.009999209 4.44112e-05 0)
(0.009757559 0.000139793 -3.909692e-27)
(0.009982628 0.0001050044 3.422674e-26)
(0.01000996 0.0001077776 6.547931e-27)
(0.009978815 0.0001275764 -5.026129e-26)
(0.009948021 7.759624e-05 0)
(0.009926422 4.798116e-05 -1.061359e-26)
(0.009773823 0.0001182809 0)
(0.00985071 0.0001709172 -1.633518e-26)
(0.009987784 2.460619e-05 6.544644e-26)
(0.009989725 0.0001685487 -2.921493e-26)
(0.01000054 5.171787e-05 -5.459539e-30)
(0.009837893 0.000133439 7.621173e-26)
(0.009861471 8.820879e-05 -6.338199e-26)
(0.009927757 7.700536e-05 0)
(0.009939896 5.547158e-05 0)
(0.009894009 0.000160291 0)
(0.009766062 0.0001553488 -9.553747e-26)
(0.009858959 7.642212e-05 0)
(0.00987526 8.429472e-05 0)
(0.01006814 6.87074e-05 6.94416e-26)
(0.01001736 4.779714e-05 7.757068e-27)
(0.009980823 6.924336e-05 1.313847e-26)
(0.009655042 0.0003043386 0)
(0.009883533 0.0002834821 8.485133e-26)
(0.01000906 0.0001268112 0)
(0.01001108 6.888095e-05 -6.529261e-27)
(0.009694596 0.0005325105 0)
(0.009992843 0.0004718016 1.585741e-25)
(0.01082076 0.0005697064 0)
(0.00996916 4.08596e-05 2.9483e-27)
(0.0103772 0.0009360957 0)
(0.009995841 3.587235e-05 0)
(0.009903295 7.542364e-05 -1.268915e-25)
(0.009985766 7.299504e-05 1.576727e-26)
(0.009881955 0.0001863726 0)
(0.01002924 2.038467e-05 0)
(0.01006227 0.0005257784 -2.638823e-26)
(0.01017583 0.0004571016 -4.46789e-26)
(0.01001192 6.653648e-05 -3.150883e-27)
(0.00995295 4.512489e-05 -4.221931e-26)
(0.01067392 0.0008420809 -1.407523e-25)
(0.009811489 0.0001736736 -5.557804e-26)
(0.009792762 0.001121411 9.843299e-25)
(0.01008232 0.0001500397 7.195651e-26)
(0.01059375 0.0006339935 -4.099342e-25)
(0.01000214 7.060316e-05 -5.148936e-26)
(0.009927265 0.000107678 9.87244e-26)
(0.009679376 0.0004046363 -5.228097e-25)
(0.009658464 0.0003524531 0)
(0.009977265 3.410214e-05 0)
(0.009989752 3.089955e-05 1.010198e-26)
(0.009993446 7.487719e-05 3.495295e-26)
(0.01058579 0.0007245922 1.623971e-26)
(0.009892257 7.53271e-05 0)
(0.009967712 8.105509e-05 -9.997991e-26)
(0.009948087 0.001138009 0)
(0.009928728 4.687368e-05 1.190257e-25)
(0.009942274 4.019191e-05 0)
(0.01050104 0.0003729636 -6.868775e-25)
(0.009909348 0.0001437954 -1.248622e-26)
(0.00994984 0.0001776303 0)
(0.009935573 0.0002131773 0)
(0.009885899 0.0002586906 1.950781e-25)
(0.009926024 0.0002771616 1.042273e-25)
(0.01001895 0.0001935146 -4.652177e-26)
(0.0100436 0.0005890918 2.354363e-25)
(0.00991063 0.0002865247 -2.137267e-25)
(0.01065639 0.0003917997 0)
(0.01008563 0.0003965616 -1.15752e-26)
(0.01027998 0.0003546199 -2.910097e-25)
(0.01032072 0.0004592371 1.052621e-26)
(0.009923254 0.0001065319 -5.087785e-26)
(0.009895015 0.0001260484 0)
(0.0100249 0.0001149435 -1.38374e-26)
(0.01000499 2.994024e-05 1.958295e-27)
(0.009996284 2.778537e-05 2.8164e-27)
(0.01001772 0.0001436428 1.446653e-26)
(0.00984907 0.0001960629 -2.881912e-25)
(0.009917874 0.000831282 0)
(0.0100453 0.0001473135 -9.489229e-27)
(0.01000142 0.0002655624 -6.505011e-26)
(0.009975263 2.888326e-05 -3.405937e-28)
(0.0104411 0.0007691064 -2.76427e-25)
(0.01036042 0.0006763323 0)
(0.01037202 0.0006332382 2.319174e-25)
(0.01025597 0.0005104721 0)
(0.01026098 0.0006196782 -1.208922e-26)
(0.01012904 0.0006212762 1.710361e-26)
(0.01005602 0.0007358721 9.192869e-25)
(0.01019828 0.0008033501 -2.127927e-25)
(0.01048931 0.0006217758 0)
(0.01025263 0.0008083924 -2.512419e-25)
(0.01046267 0.0007418761 -6.596683e-27)
(0.01060952 0.0008095119 3.008772e-25)
(0.01033392 0.0005991248 0)
(0.01022375 0.0006142563 1.959429e-25)
(0.01018989 0.0005552753 0)
(0.01018649 0.0005910535 8.635812e-26)
(0.009925408 6.636363e-05 7.219642e-27)
(0.01014149 0.0004455051 -1.244011e-25)
(0.01040082 0.0002395473 -3.623867e-25)
(0.009934376 5.736148e-05 0)
(0.0104255 0.0004136087 0)
(0.01004066 9.556024e-05 0)
(0.01002338 3.253251e-05 -4.671857e-27)
(0.009954302 0.000655423 0)
(0.01016203 0.0004683053 1.92482e-26)
(0.0099265 0.0004283174 2.13763e-25)
(0.01004044 0.0001476753 0)
(0.009844477 0.0002076028 0)
(0.01047015 0.0009241542 -4.244843e-25)
(0.01012045 8.318334e-05 0)
(0.01002052 7.008685e-05 0)
(0.009787259 0.0001069572 0)
(0.009657434 0.0001267645 2.171309e-25)
(0.009830856 0.000844571 2.14793e-26)
(0.009849533 8.410265e-05 -1.189032e-25)
(0.009938151 0.0006196195 -3.433115e-25)
(0.009993553 4.971885e-05 -1.686807e-28)
(0.009940774 0.0003211044 0)
(0.009919489 0.0001736075 2.155088e-25)
(0.01014346 0.0004984316 -1.769269e-26)
(0.009957889 0.0004733108 -2.583168e-25)
(0.0100076 0.0003708522 1.172168e-25)
(0.01046079 0.0002926161 7.454877e-25)
(0.009912102 7.63723e-05 0)
(0.009899087 7.456923e-05 0)
(0.009998618 5.959268e-05 1.231437e-26)
(0.01004088 5.133521e-05 -3.019946e-26)
(0.009939807 9.201047e-05 3.864913e-26)
(0.009813547 7.586801e-05 -1.35085e-25)
(0.009880218 0.0003369622 -3.228334e-25)
(0.009866914 0.0002762283 -8.129516e-25)
(0.009669017 0.0001816328 0)
(0.009688008 0.0001403828 7.814452e-25)
(0.009651842 0.0002566331 -1.427576e-25)
(0.009925077 0.0002546542 -8.9374e-26)
(0.009748881 0.0002122459 2.176249e-25)
(0.009946965 0.000221804 -5.796145e-26)
(0.009795977 0.0004684483 4.391108e-25)
(0.00992168 6.224172e-05 0)
(0.01001999 3.316779e-05 1.113281e-26)
(0.01023066 0.0004478604 0)
(0.01006363 0.0002410089 8.347751e-26)
(0.009912798 0.0003045718 1.930605e-25)
(0.0100253 0.0001588414 -1.626118e-26)
(0.009931241 0.000225293 0)
(0.01000636 2.651156e-05 4.227115e-27)
(0.01000255 3.48264e-05 6.81204e-27)
(0.01005626 0.0002425926 0)
(0.009969473 5.028275e-05 1.000666e-26)
(0.009951953 7.05318e-05 7.214214e-26)
(0.00995288 9.407087e-05 -7.79429e-26)
(0.01012946 0.000396525 1.690559e-27)
(0.01060704 0.0006455302 2.340502e-26)
(0.01047266 0.0009433965 0)
(0.009985197 6.598557e-05 0)
(0.009761864 0.0003137805 9.657858e-25)
(0.01006022 4.294883e-06 -3.790644e-26)
(0.01007592 0.0004283208 1.132541e-26)
(0.01007575 0.0003505505 -9.600012e-26)
(0.01005295 0.0002655373 2.374148e-26)
(0.009961743 0.0001001055 -8.929291e-26)
(0.009968658 0.0001092722 6.632372e-26)
(0.009988095 0.0002607055 6.241584e-26)
(0.009932665 0.0002846833 -9.226824e-26)
(0.009992562 4.406035e-05 0)
(0.0099172 4.110845e-05 0)
(0.009963313 0.0003921881 0)
(0.009980971 3.835974e-05 1.016681e-26)
(0.0100006 3.634129e-05 0)
(0.009810407 0.000101143 -2.289686e-25)
(0.01000621 0.0001676084 -2.450872e-26)
(0.009900596 0.0002545134 -3.02784e-25)
(0.009823824 0.0005194117 -5.702061e-26)
(0.01065933 0.0002244387 0)
(0.009738281 0.0004451676 -1.33341e-24)
(0.00983587 0.0006777283 8.086159e-25)
(0.01022557 0.001073941 -1.183457e-24)
(0.01014583 0.0009132947 -2.463094e-24)
(0.01033642 0.0007968782 -6.858289e-25)
(0.01001531 8.548303e-05 -1.402302e-27)
(0.01004101 0.0004041937 -5.40652e-25)
(0.00999324 4.262259e-05 0)
(0.009782425 0.0006309341 1.029233e-25)
(0.009742085 0.0006380182 1.253578e-24)
(0.009950132 7.782826e-05 0)
(0.01003786 0.0004564193 -1.282268e-25)
(0.01011562 4.481294e-05 0)
(0.009887991 0.0003599084 -1.92888e-25)
(0.009879272 0.0001367614 0)
(0.01001146 2.672842e-05 -1.365823e-26)
(0.01000555 7.220568e-05 0)
(0.01027777 0.0003896264 -4.578401e-26)
(0.009935318 0.0001160596 1.646858e-26)
(0.01007884 0.0002566924 6.213453e-27)
(0.01065709 0.0006104065 7.240512e-27)
(0.01067545 0.0005937746 0)
(0.009989146 0.0002323174 0)
(0.009811534 0.001054205 1.248171e-24)
(0.009916294 0.0002777197 -1.159861e-25)
(0.01033927 0.0002832584 9.259902e-25)
(0.009993858 0.0002676618 0)
(0.0100368 8.885602e-05 0)
(0.01006442 0.0001765895 0)
(0.01000547 4.218399e-05 2.157169e-27)
(0.0100024 5.778487e-05 5.078983e-27)
(0.01001268 6.195126e-05 -2.399985e-26)
(0.01002038 0.0001021746 7.297253e-27)
(0.01006196 4.021314e-05 0)
(0.01002271 2.25884e-05 0)
(0.01001878 3.434868e-05 0)
(0.01012323 0.0003099657 2.601767e-26)
(0.009843514 0.0004384855 6.586894e-25)
(0.009771926 0.0001845389 -2.88123e-25)
(0.009796831 0.0008131326 0)
(0.009991594 5.201199e-05 -1.994209e-26)
(0.009845581 6.545023e-05 -1.843046e-25)
(0.009951121 0.000104747 -4.740231e-26)
(0.009766941 0.0005653107 0)
(0.01012018 0.0003907829 1.88155e-27)
(0.009804225 0.0001894587 -5.516307e-25)
(0.01005146 0.0007915948 -7.438955e-25)
(0.01006203 0.0008776168 7.133341e-25)
(0.01001482 6.474021e-05 1.588623e-27)
(0.01002753 6.792584e-05 0)
(0.01000556 0.0008130695 7.312388e-25)
(0.009983942 0.0007808927 2.444092e-26)
(0.01003444 8.742796e-05 -6.774627e-27)
(0.01002777 0.0001025977 0)
(0.00996923 0.0002046164 1.763312e-25)
(0.009977684 3.738716e-05 -3.801719e-26)
(0.009970519 3.981185e-05 -9.91127e-27)
(0.009972209 2.634546e-05 0)
(0.009805545 0.0001989751 3.173611e-25)
(0.009775516 0.0001437176 1.571786e-25)
(0.009797412 0.00021547 -2.745144e-25)
(0.009792359 0.0001836724 -1.855767e-26)
(0.009975219 0.0001552738 0)
(0.01035931 0.0008065041 0)
(0.009905796 0.0001000898 0)
(0.00999096 5.997926e-05 -3.585383e-27)
(0.009972739 4.006776e-05 -4.989076e-27)
(0.009994944 0.0001553221 -3.30837e-26)
(0.009797331 0.0003663063 1.323105e-25)
(0.01003771 0.0003263916 3.023357e-26)
(0.0100085 2.834416e-05 -1.008857e-26)
(0.01001509 2.943856e-05 6.852335e-27)
(0.01002671 0.000130639 0)
(0.01002706 9.364975e-05 1.338136e-28)
(0.01003422 6.74372e-05 0)
(0.01000308 4.143709e-05 0)
(0.01074139 0.0003823692 1.119065e-24)
(0.009965308 6.191298e-05 0)
(0.009742992 0.0002739767 -2.118268e-25)
(0.01000851 8.4994e-05 -2.834078e-26)
(0.01001165 8.152365e-05 -2.218796e-28)
(0.01004409 4.882713e-05 0)
(0.0099782 0.0003362798 -2.690566e-27)
(0.00968991 0.0001306937 -7.495277e-25)
(0.009984835 2.442878e-05 1.332402e-26)
(0.009982834 2.505556e-05 0)
(0.01050408 0.0004827293 -3.177083e-26)
(0.01048382 0.0005541386 2.158379e-25)
(0.009975781 8.718363e-05 6.671338e-26)
(0.009956276 3.976668e-05 -2.764579e-26)
(0.01002089 0.0001270778 2.547816e-27)
(0.01004082 0.0003736076 -7.668041e-26)
(0.01001106 0.0001310747 -2.101085e-26)
(0.009983709 4.589007e-05 2.595316e-26)
(0.01060392 0.0008329886 -7.107274e-25)
(0.00992747 0.0001192977 -1.320931e-25)
(0.01000519 0.0001039983 -2.863081e-27)
(0.009994498 0.000109071 0)
(0.009985473 0.0001112898 -4.590179e-27)
(0.00997598 9.168861e-05 -1.523989e-26)
(0.01001249 3.928943e-05 -2.83106e-28)
(0.01037859 0.0005742002 1.906302e-25)
(0.00986842 0.0005620215 -4.78806e-25)
(0.01011129 0.0003728765 -5.269728e-26)
(0.01012331 0.0003266994 -6.686184e-26)
(0.009914071 0.0001946244 -1.916176e-25)
(0.009997237 2.642232e-05 -3.927887e-27)
(0.01040848 0.0005838358 1.347995e-25)
(0.009727315 0.0004286956 -6.941114e-27)
(0.01005182 0.00018224 -5.849676e-26)
(0.01006504 0.0001884158 8.025881e-26)
(0.009990113 2.778867e-05 5.884835e-27)
(0.009995383 4.085951e-05 0)
(0.009909176 7.941039e-05 -1.028123e-25)
(0.01000899 3.439207e-05 -1.607546e-26)
(0.01003772 0.0001172352 -2.400242e-26)
(0.01000565 2.926393e-05 -5.210368e-28)
(0.01003782 0.0001430609 -2.036466e-26)
(0.009733492 0.0008938316 8.780671e-25)
(0.009827458 0.0007689496 -3.529504e-25)
(0.01021387 0.0009080639 -9.573195e-25)
(0.009909762 5.984039e-05 0)
(0.009876722 0.0002386032 -2.144882e-25)
(0.009955781 8.627824e-05 2.010949e-26)
(0.009648165 0.001074002 0)
(0.009986611 3.032103e-05 0)
(0.0100643 0.0001588461 -5.673663e-27)
(0.01014136 0.0003876248 1.204775e-25)
(0.009910601 0.0001794495 -2.035541e-25)
(0.009921984 0.0002060991 -1.107114e-26)
(0.009888208 0.0001805961 -4.695525e-26)
(0.009674602 0.0006926995 0)
(0.01012054 0.0002956584 -1.524855e-26)
(0.0100129 5.968915e-05 5.398645e-27)
(0.01015 0.0003924185 -9.063107e-26)
(0.01006344 0.0004365194 -8.538028e-26)
(0.01054034 0.0006817275 0)
(0.01065639 0.0004735311 0)
(0.01029651 0.0004126598 2.718143e-25)
(0.01001044 2.92694e-05 0)
(0.009976187 0.000348395 -1.397228e-25)
(0.01003337 0.0003357691 -2.843465e-26)
(0.009690114 0.0002874542 4.019718e-25)
(0.01068844 0.0002954625 7.290653e-25)
(0.00972271 0.0007331461 0)
(0.009970344 2.444343e-05 2.911812e-28)
(0.01019084 0.0001115845 3.679384e-25)
(0.01064214 0.0007190349 0)
(0.01061965 0.0004170048 0)
(0.00997116 2.712919e-05 -2.36288e-27)
(0.009826491 0.000111585 0)
(0.0100033 3.56675e-05 -4.24922e-27)
(0.009965667 4.286316e-05 2.590202e-27)
(0.01040817 0.0005100209 0)
(0.009820628 0.0006699674 -8.261029e-25)
(0.01023832 0.0003465722 -9.097619e-26)
(0.009931361 4.73678e-05 0)
(0.0103519 0.0003907534 1.829804e-25)
(0.01001652 7.540495e-05 0)
(0.01045715 0.0005303101 5.064132e-25)
(0.009936264 9.276708e-05 -6.362135e-26)
(0.009893447 6.256253e-05 -6.217872e-26)
(0.01002891 8.689786e-05 1.034725e-26)
(0.01004801 0.0002338324 0)
(0.00991863 6.474989e-05 4.398467e-27)
(0.009882085 0.0002100763 -2.308018e-26)
(0.009971747 2.492393e-05 3.291544e-27)
(0.009939428 6.065264e-05 5.391793e-27)
(0.01001312 4.32306e-05 0)
(0.00992757 5.358497e-05 0)
(0.009866123 0.0001362859 -2.167716e-25)
(0.009879161 8.194457e-05 0)
(0.009883697 0.0001065404 9.142309e-26)
(0.0100236 6.060786e-05 4.781228e-26)
(0.00975031 0.0002647121 5.931787e-25)
(0.01001992 7.962066e-05 -4.111487e-26)
(0.009811666 0.0003345811 -3.144839e-25)
(0.01001809 5.275937e-05 5.204236e-27)
(0.01027982 0.0001108866 0)
(0.00991993 0.0004807888 0)
(0.009957385 7.098765e-05 0)
(0.009996097 6.214404e-05 0)
(0.009990206 0.0005683864 -3.78187e-25)
(0.01035044 0.0008284804 0)
(0.0104902 0.0008747982 4.102586e-25)
(0.01037138 0.0008411269 -3.770618e-25)
(0.01025988 0.0008436931 0)
(0.01001045 0.0009366443 -1.097214e-24)
(0.01027851 0.0002132219 -1.248702e-25)
(0.01025302 0.0001919547 4.512667e-25)
(0.009804739 0.000377629 -2.245142e-25)
(0.0100044 2.659059e-05 -4.008965e-27)
(0.01009479 0.0003062455 4.143519e-26)
(0.01003187 0.0001939054 -9.151875e-28)
(0.00997758 7.869172e-05 5.8169e-26)
(0.00998645 0.0002922162 1.106226e-25)
(0.01000612 0.0001423071 -9.246919e-27)
(0.01008008 0.0003053353 -3.098089e-27)
(0.009998889 5.373407e-05 0)
(0.01032378 0.00107617 9.533186e-25)
(0.01001514 0.0001313041 -2.636947e-27)
(0.0100171 0.0001272467 -2.700184e-27)
(0.009997759 0.0001178035 0)
(0.01001408 0.0001151444 0)
(0.009969642 0.0001714219 -4.482137e-28)
(0.01025179 0.000290589 -4.607606e-25)
(0.01029674 0.0003645106 0)
(0.01003469 0.0001288629 6.228956e-26)
(0.01006076 0.0004741694 -1.725107e-25)