/*--------------------------------*- C++ -*----------------------------------*\
| =========                 |                                                 |
| \\      /  F ield         | OpenFOAM: The Open Source CFD Toolbox           |
|  \\    /   O peration     | Version:  2406                                  |
|   \\  /    A nd           | Website:  www.openfoam.com                      |
|    \\/     M anipulation  |                                                 |
\*---------------------------------------------------------------------------*/
FoamFile
{
    version     2.0;
    format      ascii;
    arch        "LSB;label=32;scalar=64";
    class       volScalarField;
    location    "1.52";
    object      p;
}
// * * * * * * * * * * * * * * * * * * * * * * * * * * * * * * * * * * * * * //

dimensions      [0 2 -2 0 0 0 0];

internalField   nonuniform List<scalar> 
217010
(
-211.8254
-138.2044
-144.5377
-144.6282
-143.9241
-140.5496
-137.487
-133.263
-134.3542
-134.4152
-133.9494
-133.7968
-134.2969
-133.3342
-131.9803
-130.8407
-128.5385
-125.6792
-123.9202
-125.4291
-131.0202
-144.8713
-157.7311
-162.3188
-159.8157
-152.9672
-140.1662
-136.0134
-145.0087
-163.7199
-189.9056
-204.2626
-205.175
-197.7885
-184.6567
-167.2219
-149.4245
-130.6874
-111.4511
-93.22518
-79.41913
-70.21336
-61.39696
-52.65017
-46.24108
-42.29126
-41.6409
-43.0415
-47.99855
-48.74558
-88.56777
-80.57624
-101.0764
-106.8262
-104.5625
-93.3709
-80.03232
-71.02915
-68.05397
-68.23117
-65.36232
-61.15079
-62.40922
-73.4329
-87.58391
-100.0199
-101.3573
-81.64927
-44.88484
-25.41308
-27.52966
-46.11454
-63.11425
-78.95692
-112.3655
-181.6031
-251.626
-233.0089
-139.262
-122.6757
-165.3874
-194.1903
-202.5003
-199.0584
-200.4874
-207.7169
-215.488
-221.6152
-225.69
-228.0617
-228.8374
-228.2554
-226.6735
-223.9721
-220.1802
-215.4888
-210.3007
-204.6392
-198.3845
-191.5949
-184.4651
-177.1662
-169.7814
-162.426
-154.8702
-147.3907
-140.0874
-132.8849
-125.6699
-118.5323
-111.7313
-105.2071
-98.97136
-93.08093
-87.30024
-81.69601
-76.52203
-71.54534
-66.77341
-62.22041
-57.86914
-53.68121
-49.63316
-45.79486
-42.1812
-38.72283
-35.389
-32.26033
-29.47054
-27.02478
-25.03411
-23.51397
-22.49806
-22.38591
-23.28781
-24.89968
-27.44354
-30.33827
-33.53779
-36.43824
-38.71947
-40.3004
-41.11331
-41.23782
-40.9917
-40.57124
-41.65233
-42.26969
-43.55658
-46.55707
-105.7572
-103.5168
-110.8023
-123.5281
-134.0978
-139.8067
-141.3666
-139.0073
-131.4439
-118.157
-99.86732
-81.26182
-71.85566
-70.35226
-69.298
-71.26369
-78.00341
-83.00897
-79.21201
-73.66675
-64.25056
-49.93483
-40.23957
-41.94274
-49.23644
-69.50271
-91.46811
-110.9843
-125.5977
-133.9157
-135.8212
-131.5381
-121.5631
-109.124
-102.0619
-97.88743
-99.36461
-104.5183
-106.4356
-98.46432
-83.60717
-79.03106
-80.4467
-81.64833
-79.25116
-78.01781
-79.98165
-82.70511
-76.53186
-131.4909
-61.26134
-52.61062
-41.93282
-35.65943
-30.24654
-25.7619
-21.88108
-18.35776
-15.28481
-12.48651
-9.938999
-7.603858
-5.399696
-3.315793
-1.362168
0.4515661
2.151714
3.786622
5.35064
6.84689
8.280077
9.641454
10.93149
12.19976
13.44178
14.65534
15.81893
16.92058
17.98435
19.03338
20.07219
21.09219
22.06301
23.00603
23.94366
24.86434
25.77612
26.67567
27.57797
28.44522
29.3263
30.16901
31.00466
31.8281
32.64922
33.45579
34.2468
35.0403
35.84931
36.65724
37.44602
38.22063
38.99289
39.78906
40.59749
41.39411
42.19436
43.00336
43.81219
44.63091
45.45238
46.27375
47.13006
48.05022
48.96334
49.85316
50.83544
51.93039
52.95192
53.45271
55.70289
40.68651
42.69417
43.26351
42.60914
41.48686
40.39686
39.39954
38.44354
37.52291
36.61758
35.67257
34.70856
33.75932
32.84746
31.95377
31.05627
30.1416
29.22409
28.32876
27.43794
26.52762
25.61269
24.70468
23.77924
22.85621
21.91537
20.93466
19.9623
19.00685
18.03892
17.04292
15.99211
14.98236
13.92073
12.82695
11.72778
10.61792
9.462512
8.282864
7.095667
5.875006
4.584175
3.229505
1.867429
0.5033382
-0.920318
-2.418369
-3.970783
-5.602443
-7.308079
-9.071677
-10.90855
-12.78515
-14.79784
-16.95501
-19.21084
-21.62048
-24.15919
-26.91076
-29.90653
-33.11313
-36.57756
-40.46632
-44.82115
-49.79323
-55.34644
-61.82264
-69.83562
-79.23535
-95.18724
-109.2335
42.40303
42.53689
43.25411
42.70455
41.61092
40.51596
39.50843
38.54516
37.61795
36.70917
35.76266
34.79527
33.84054
32.92309
32.02534
31.12501
30.20769
29.28661
28.38774
27.49409
26.58139
25.66388
24.75338
23.82546
22.90046
21.9577
20.97527
20.00044
19.04213
18.07246
17.07512
16.0216
15.01141
13.94711
12.8513
11.75039
10.63893
9.481649
8.300415
7.111526
5.889354
4.596404
3.239601
1.875753
0.5101053
-0.9158786
-2.415896
-3.970095
-5.604325
-7.312982
-9.079801
-10.92006
-12.79897
-14.81726
-16.9796
-19.24032
-21.65697
-24.20145
-26.9629
-29.96934
-33.18581
-36.66307
-40.56889
-44.94129
-49.95187
-55.53762
-62.06486
-70.13957
-79.72975
-95.64952
-111.5812
-62.94085
-52.93805
-42.27001
-35.8678
-30.41662
-25.8966
-21.99469
-18.44291
-15.35795
-12.55009
-9.992248
-7.649929
-5.43941
-3.349173
-1.389461
0.4294993
2.132983
3.771348
5.338788
6.838022
8.273846
9.638113
10.92984
12.19963
13.44335
14.65869
15.82422
16.92728
17.99245
19.04296
20.08331
21.1049
22.07723
23.02145
23.96067
24.88277
25.79623
26.69759
27.60211
28.47048
29.35341
30.1975
31.03477
31.86019
32.68298
33.4913
34.2843
35.08027
35.89171
36.70164
37.49205
38.26889
39.04434
39.8439
40.65534
41.45473
42.25831
43.07075
43.88335
44.7058
45.53112
46.35847
47.22303
48.14928
49.06619
49.96544
50.96468
52.06138
53.03881
53.57034
55.29381
-97.23529
-102.8208
-109.8431
-122.1834
-133.0877
-139.2588
-141.2535
-139.3134
-132.2263
-119.3986
-101.3273
-82.37443
-72.26279
-70.43599
-69.28212
-71.09033
-77.78602
-82.94253
-79.36458
-74.0377
-64.79965
-50.3568
-40.37854
-41.93305
-49.11618
-69.24323
-91.20128
-110.7824
-125.4703
-133.8763
-135.8957
-131.6874
-121.7356
-109.1762
-102.0915
-97.90005
-99.35922
-104.5485
-106.5097
-98.40328
-83.54002
-79.02922
-80.47463
-81.64436
-79.21401
-78.03904
-80.09057
-82.63036
-77.82844
-121.6537
-81.82929
-79.80835
-99.86866
-107.0572
-105.7154
-94.89595
-81.2096
-71.58338
-68.15142
-68.38553
-65.72244
-61.30456
-62.09429
-72.59769
-86.62212
-99.45963
-101.8824
-83.39854
-46.86027
-26.03156
-27.18119
-45.39955
-62.34781
-77.85017
-110.3663
-179.2219
-251.0587
-235.1383
-141.5283
-122.3718
-164.6585
-193.6992
-202.3869
-199.1674
-200.5296
-207.7437
-215.5039
-221.6263
-225.7046
-228.0858
-228.8734
-228.2957
-226.7183
-224.02
-220.228
-215.5248
-210.3271
-204.6581
-198.3961
-191.5967
-184.4552
-177.1465
-169.7481
-162.3837
-154.8158
-147.3245
-140.0106
-132.7977
-125.573
-118.4252
-111.6169
-105.0872
-98.84503
-92.94866
-87.16215
-81.56303
-76.36579
-71.39296
-66.61924
-62.06321
-57.70872
-53.51757
-49.46773
-45.62938
-42.01537
-38.55601
-35.22403
-32.10262
-29.32555
-26.89765
-24.92972
-23.43858
-22.46699
-22.4065
-23.37037
-25.04714
-27.65427
-30.59159
-33.81826
-36.69591
-38.93078
-40.45317
-41.17803
-41.24629
-40.9556
-40.60079
-41.74974
-42.39151
-43.79493
-48.65964
-196.2427
-140.1897
-144.8115
-144.6956
-144.1142
-140.6925
-137.6011
-133.3055
-134.3517
-134.4195
-133.9517
-133.796
-134.3059
-133.3452
-131.9885
-130.8551
-128.5519
-125.6918
-123.9279
-125.4548
-131.13
-145.1424
-158.0289
-162.4369
-159.7848
-152.8012
-139.9631
-136.0442
-145.5339
-164.673
-190.895
-204.7012
-204.9908
-197.198
-183.8092
-166.2106
-148.3114
-129.4858
-110.2273
-92.15655
-78.60433
-69.47527
-60.64344
-51.99748
-45.79126
-42.11021
-41.69002
-43.42124
-48.308
-50.51063
-180.5271
-141.155
-145.3102
-144.9127
-144.5271
-140.9123
-137.7416
-133.3716
-134.3649
-134.434
-133.9501
-133.7954
-134.3312
-133.3752
-132.0131
-130.89
-128.5891
-125.7349
-123.9524
-125.5018
-131.3131
-145.516
-158.5078
-162.7523
-159.7353
-152.7243
-139.6898
-136.009
-146.3888
-166.8324
-192.834
-205.5483
-205.3946
-197.2765
-183.7236
-165.8956
-147.939
-128.9964
-109.6566
-91.59542
-78.12921
-69.12833
-60.29531
-51.62389
-45.51638
-41.99727
-41.77952
-43.67995
-48.59131
-50.89639
-78.58663
-78.89745
-98.76988
-106.6733
-105.6713
-95.32639
-81.88189
-72.00304
-68.18386
-68.37888
-65.95535
-61.57175
-61.99679
-72.18589
-86.26774
-99.63706
-103.0389
-85.70492
-48.92969
-26.60713
-26.89937
-45.03502
-61.94298
-77.08491
-108.7854
-177.7577
-252.7351
-239.393
-143.3537
-121.6507
-163.4591
-192.9668
-202.1361
-199.6217
-201.2934
-208.2795
-215.7483
-221.7312
-225.7554
-228.125
-228.9175
-228.3356
-226.7522
-224.0614
-220.2775
-215.5682
-210.3661
-204.6982
-198.4344
-191.6289
-184.4783
-177.1663
-169.7557
-162.3931
-154.8172
-147.318
-139.9995
-132.7828
-125.554
-118.3942
-111.5819
-105.0523
-98.80367
-92.90774
-87.11569
-81.51144
-76.33673
-71.34617
-66.56891
-62.01211
-57.65603
-53.46399
-49.41149
-45.57195
-41.95868
-38.49844
-35.16439
-32.03961
-29.26746
-26.84397
-24.88413
-23.40772
-22.45622
-22.43396
-23.44559
-25.16158
-27.79185
-30.73465
-33.94177
-36.78128
-38.9743
-40.45035
-41.19453
-41.24415
-40.9421
-40.64499
-41.79674
-42.50381
-44.12772
-49.86103
-92.84681
-102.7569
-109.5764
-121.7764
-132.9947
-139.4603
-141.6315
-139.8243
-133.0526
-120.6921
-103.0161
-83.59549
-72.60534
-70.54064
-69.33674
-71.01663
-77.73016
-83.0391
-79.64664
-74.61683
-65.4214
-50.83048
-40.62669
-42.01849
-49.15331
-69.20449
-91.17228
-110.8295
-125.5783
-134.0663
-136.0727
-132.0078
-122.2716
-109.608
-102.2476
-97.84935
-99.1884
-104.5756
-106.7347
-98.56052
-83.54546
-79.05749
-80.50763
-81.66272
-79.19962
-78.08583
-80.16116
-82.5627
-78.30126
-111.0186
-62.82178
-53.15173
-42.42328
-35.97228
-30.4967
-25.95802
-22.04063
-18.4936
-15.38688
-12.57694
-10.01413
-7.669395
-5.45733
-3.363983
-1.401661
0.4203661
2.123565
3.763479
5.332339
6.832981
8.269514
9.635999
10.92742
12.19795
13.44287
14.65939
15.82668
16.92978
17.99481
19.04562
20.08653
21.10979
22.08274
23.02584
23.96596
24.88827
25.80342
26.70539
27.60837
28.47779
29.35955
30.20516
31.04344
31.86868
32.69215
33.50099
34.29372
35.08934
35.90219
36.71389
37.50421
38.28112
39.05577
39.85632
40.67033
41.46983
42.2733
43.08774
43.90053
44.72371
45.5503
46.37892
47.24362
48.17449
49.09486
49.99408
51.00077
52.09056
53.03708
53.60032
54.99462
42.97063
42.4748
43.25196
42.7624
41.65706
40.55086
39.53671
38.56836
37.6413
36.73505
35.78614
34.81667
33.85848
32.94012
32.04195
31.14207
30.22308
29.29991
28.4015
27.50802
26.59385
25.67598
24.76592
23.83602
22.91289
21.96994
20.984
20.00904
19.0514
18.08162
17.08124
16.03026
15.01914
13.95721
12.8588
11.75732
10.64583
9.486335
8.304863
7.116711
5.895159
4.60016
3.241083
1.87708
0.5124652
-0.9151571
-2.415902
-3.970506
-5.607233
-7.317583
-9.086119
-10.92788
-12.80526
-14.82751
-16.99222
-19.25337
-21.67471
-24.21889
-26.9867
-29.99756
-33.21677
-36.69872
-40.61204
-45.01313
-50.01806
-55.6269
-62.1806
-70.29975
-79.9594
-95.94622
-111.2031
44.15901
42.64313
43.23485
42.82972
41.76865
40.6676
39.64666
38.67417
37.74588
36.83777
35.88532
34.91332
33.95111
33.02837
32.12629
31.22255
30.30037
29.37333
28.47258
27.575
26.65713
25.73687
24.8243
23.89064
22.96676
22.021
21.03029
20.05531
19.09502
18.12317
17.11954
16.07435
15.04956
13.99075
12.88797
11.78527
10.67278
9.509006
8.326619
7.137626
5.915258
4.61568
3.253038
1.888283
0.524064
-0.9076148
-2.410124
-3.96593
-5.607248
-7.320205
-9.091672
-10.93708
-12.81281
-14.84402
-17.0141
-19.27732
-21.7088
-24.25419
-27.03541
-30.05683
-33.28353
-36.77645
-40.71453
-45.12729
-50.15431
-55.80207
-62.40457
-70.57314
-80.38873
-96.20805
-111.3716
-62.98355
-53.34019
-42.72047
-36.15714
-30.65781
-26.08229
-22.13936
-18.57546
-15.45928
-12.63737
-10.06329
-7.712816
-5.495197
-3.394707
-1.426496
0.402347
2.106818
3.750767
5.323057
6.826829
8.265155
9.636038
10.92692
12.19901
13.44627
14.66491
15.83577
16.93998
18.00576
19.05735
20.09955
21.12603
22.10152
23.04393
23.98629
24.90957
25.82802
26.7318
27.63287
28.51629
29.39214
30.23904
31.07975
31.90718
32.73222
33.54388
34.33889
35.13702
35.9521
36.76663
37.559
38.33903
39.11697
39.92009
40.73837
41.541
42.34786
43.16585
43.98264
44.80926
45.64043
46.47575
47.34608
48.28068
49.20687
50.11587
51.13277
52.19733
53.07175
53.61978
54.57437
-86.54627
-101.1753
-108.8515
-120.67
-131.924
-138.7385
-141.3154
-140.1663
-133.9134
-122.1398
-105.1976
-85.60905
-73.35968
-70.6793
-69.40942
-70.96886
-77.5457
-82.96986
-80.14609
-75.5903
-66.3667
-51.58386
-41.0376
-42.22333
-49.38237
-69.29839
-91.19412
-110.9126
-125.6796
-134.1709
-136.3049
-132.4479
-123.0964
-110.6015
-102.6714
-97.7912
-99.02335
-104.6261
-107.0017
-98.73397
-83.62774
-79.13655
-80.58434
-81.69223
-79.16283
-78.14242
-80.31831
-82.45568
-79.58053
-103.2909
-77.55189
-78.10222
-97.91182
-106.9552
-107.2401
-97.04958
-83.05566
-72.55745
-68.21943
-68.5292
-66.40541
-61.99209
-61.97543
-71.68365
-85.65641
-99.49955
-103.7883
-88.40782
-51.58702
-27.47595
-26.23189
-44.28785
-61.18582
-75.96273
-106.8886
-175.7058
-252.8592
-243.925
-146.1133
-121.6343
-161.6262
-191.0773
-201.3271
-200.306
-202.396
-208.972
-216.0519
-221.8776
-225.8377
-228.1935
-228.9942
-228.4014
-226.8202
-224.128
-220.3453
-215.6167
-210.4012
-204.7321
-198.4619
-191.6422
-184.4721
-177.1532
-169.7177
-162.3575
-154.7656
-147.2481
-139.9173
-132.6933
-125.4595
-118.2791
-111.4587
-104.9297
-98.66729
-92.76954
-86.97572
-81.36347
-76.16421
-71.18951
-66.40867
-61.84826
-57.48917
-53.29785
-49.24375
-45.40253
-41.79128
-38.33531
-35.00772
-31.88727
-29.13281
-26.72926
-24.79373
-23.35537
-22.44584
-22.47763
-23.55455
-25.33442
-28.02414
-31.00412
-34.24406
-37.06817
-39.23485
-40.6927
-41.28271
-41.26893
-40.95392
-40.73174
-41.89099
-42.71052
-44.55203
-51.36434
-170.2768
-143.2812
-145.2327
-144.4961
-145.0858
-141.3131
-137.969
-133.4856
-134.39
-134.4527
-133.945
-133.7941
-134.3766
-133.4361
-132.0757
-130.9707
-128.6762
-125.8208
-124.0007
-125.5863
-131.6295
-146.1192
-159.2435
-163.2544
-159.5294
-152.5979
-139.1339
-135.7527
-147.9758
-170.2546
-195.2066
-206.328
-205.1912
-196.7285
-183.024
-164.9498
-146.9318
-127.9315
-108.5894
-90.65672
-77.36027
-68.42441
-59.60225
-51.03661
-45.12551
-41.88033
-41.93926
-44.12988
-49.05338
-52.59428
-163.1749
-145.3404
-144.6368
-143.3639
-145.4735
-141.9197
-138.3487
-133.6937
-134.4372
-134.4882
-133.9366
-133.7921
-134.4495
-133.5426
-132.2073
-131.1343
-128.8503
-125.9701
-124.0857
-125.7478
-132.162
-147.0685
-160.307
-163.8455
-159.1538
-152.5646
-138.3264
-135.4297
-151.1354
-174.8851
-198.148
-207.7317
-205.7411
-196.6035
-182.6868
-164.1924
-146.1537
-127.0058
-107.5474
-89.68423
-76.55681
-67.75406
-58.91568
-50.39674
-44.71784
-41.80081
-42.20989
-44.68121
-49.73796
-54.08261
-76.54687
-77.38626
-96.71665
-106.7076
-107.6937
-98.47567
-84.39665
-73.23408
-68.15611
-68.58009
-66.98787
-62.63638
-62.15202
-71.30689
-85.17348
-99.75906
-105.7752
-91.86091
-55.37776
-29.01416
-25.20626
-43.11191
-60.33087
-75.0043
-105.0103
-173.317
-253.0911
-248.1257
-151.8348
-124.2304
-161.4563
-189.1316
-200.1253
-200.8536
-203.4518
-209.71
-216.4208
-222.0864
-225.9671
-228.3017
-229.1159
-228.5022
-226.9352
-224.2492
-220.4718
-215.7119
-210.4811
-204.8188
-198.5439
-191.7105
-184.516
-177.1972
-169.7254
-162.3769
-154.7614
-147.2187
-139.8802
-132.6555
-125.4184
-118.2058
-111.3771
-104.8508
-98.5612
-92.66944
-86.88264
-81.25776
-76.05889
-71.0765
-66.288
-61.725
-57.36576
-53.17415
-49.11228
-45.26727
-41.66087
-38.20608
-34.87794
-31.75252
-29.0172
-26.6278
-24.71411
-23.31726
-22.44953
-22.53944
-23.69722
-25.54676
-28.30271
-31.31266
-34.5568
-37.3218
-39.40452
-40.69873
-41.31359
-41.27192
-40.96696
-40.87849
-41.97511
-42.90648
-45.0624
-52.59323
-79.86873
-98.87556
-108.2531
-120.0036
-131.4245
-138.79
-141.9931
-141.0571
-135.1915
-124.0001
-108.0261
-88.89079
-74.97932
-70.99027
-69.42464
-70.91541
-77.0399
-82.60818
-80.85071
-76.98
-67.68656
-52.65058
-41.67535
-42.62325
-49.93709
-69.66423
-91.39722
-111.2074
-126.0048
-134.5529
-136.7872
-133.1364
-124.2162
-112.1129
-103.6293
-97.80017
-99.02647
-104.7862
-107.3251
-98.96659
-83.88217
-79.31448
-80.75094
-81.73682
-79.08601
-78.19273
-80.52897
-82.37988
-80.92114
-97.88018
-63.07648
-53.42343
-42.97417
-36.32229
-30.80699
-26.19691
-22.23436
-18.65831
-15.51792
-12.69203
-10.10769
-7.753376
-5.532754
-3.426084
-1.451662
0.3858729
2.088488
3.73522
5.310366
6.817336
8.257168
9.634168
10.92248
12.19573
13.44484
14.665
15.84064
16.94489
18.00939
19.06163
20.10536
21.13602
22.11313
23.05252
23.99773
24.92122
25.84314
26.74697
27.64562
28.52471
29.40846
30.25638
31.09869
31.92595
32.75231
33.56589
34.36102
35.15854
35.97604
36.79448
37.58703
38.36802
39.14563
39.95117
40.77532
41.57834
42.38549
43.20876
44.02741
44.85634
45.69096
46.53109
47.40411
48.34901
49.28388
50.1932
51.22028
52.26885
53.08257
53.59039
54.08086
45.139
42.82551
43.2019
42.88816
41.87716
40.76622
39.72318
38.7367
37.80655
36.90299
35.94536
34.96893
33.99767
33.07163
32.16798
31.2644
30.33829
29.40602
28.50645
27.60869
26.68743
25.76609
24.85417
23.91517
22.99538
22.04855
21.05021
20.07554
19.11461
18.14311
17.13651
16.08764
15.06333
14.00953
12.90164
11.79863
10.68629
9.51782
8.3365
7.14926
5.927673
4.621957
3.254674
1.891644
0.5303201
-0.9067419
-2.410059
-3.965445
-5.612863
-7.328494
-9.102634
-10.95113
-12.82018
-14.86427
-17.04009
-19.30323
-21.7458
-24.28618
-27.0842
-30.11533
-33.3446
-36.84326
-40.80253
-45.2452
-50.28363
-55.96487
-62.61195
-70.82659
-80.75687
-96.32229
-111.3316
46.16474
43.31165
43.24117
42.93669
41.99125
40.8931
39.83547
38.84213
37.91875
37.02322
36.05889
35.08323
34.10588
33.17595
32.26782
31.36378
30.43338
29.49267
28.59192
27.69004
26.76298
25.83967
24.92744
23.97992
23.0646
22.11617
21.10688
20.13449
19.17077
18.19725
17.18272
16.14939
15.11061
14.05654
12.94197
11.83902
10.72354
9.543486
8.361136
7.176463
5.959978
4.645059
3.265859
1.903308
0.5500216
-0.8956917
-2.401564
-3.954091
-5.610196
-7.331243
-9.113092
-10.96791
-12.82001
-14.88088
-17.06323
-19.33007
-21.79062
-24.31745
-27.14168
-30.18746
-33.4235
-36.92183
-40.90835
-45.3874
-50.43843
-56.15529
-62.85321
-71.10022
-81.11988
-96.29835
-111.2711
-63.18923
-53.42361
-43.22581
-36.49421
-30.98801
-26.33786
-22.351
-18.7568
-15.59114
-12.76502
-10.16326
-7.802431
-5.580715
-3.463118
-1.477276
0.3712002
2.065162
3.715981
5.296771
6.810399
8.252624
9.637623
10.92084
12.19639
13.4477
14.67281
15.857
16.95854
18.02236
19.07915
20.12464
21.1583
22.13792
23.07365
24.02395
24.94689
25.87353
26.77751
27.67943
28.57842
29.45111
30.29793
31.14384
31.9733
32.80311
33.61997
34.41474
35.21449
36.03819
36.86333
37.65483
38.43841
39.21721
40.02547
40.85806
41.66206
42.47258
43.30216
44.12094
44.95179
45.79161
46.63874
47.51005
48.45799
49.40227
50.3123
51.3421
52.34665
53.06391
53.46557
53.46386
-73.70032
-95.14763
-106.9934
-119.1569
-130.6662
-138.3126
-141.6115
-141.6997
-136.5673
-126.1603
-111.3116
-93.22263
-77.96123
-71.75573
-69.31907
-70.75745
-75.8718
-81.66919
-81.64493
-78.7444
-69.44338
-54.05632
-42.61158
-43.35035
-50.89605
-70.53573
-91.95116
-111.8001
-126.6002
-135.1909
-137.5192
-134.1346
-125.6781
-114.1199
-105.3467
-98.08265
-99.36808
-105.0622
-107.702
-99.34622
-84.33185
-79.69154
-81.1053
-81.80161
-78.9077
-78.27561
-80.81718
-82.25886
-81.76266
-92.8551
-75.27852
-76.91703
-95.70471
-107.0588
-109.6273
-100.7041
-86.17558
-74.14539
-68.04365
-68.58363
-67.75301
-63.64359
-62.65139
-71.08925
-84.87315
-100.2667
-108.0662
-96.22186
-60.40984
-31.56933
-24.0126
-41.34697
-59.24017
-74.45533
-103.3253
-170.2482
-251.5459
-251.1992
-160.8577
-130.7479
-163.0307
-187.6637
-199.0037
-201.3502
-204.5456
-210.5742
-216.9031
-222.3975
-226.1707
-228.4646
-229.302
-228.645
-227.0913
-224.4013
-220.6229
-215.8167
-210.5726
-204.919
-198.6334
-191.788
-184.547
-177.2307
-169.6919
-162.3652
-154.7169
-147.1503
-139.8194
-132.5854
-125.3299
-118.0694
-111.2307
-104.7034
-98.38393
-92.52766
-86.74219
-81.07333
-75.87636
-70.90478
-66.10229
-61.55043
-57.1869
-52.98735
-48.92133
-45.08325
-41.48751
-38.03162
-34.70987
-31.58696
-28.8806
-26.50904
-24.62502
-23.28617
-22.46201
-22.62209
-23.8909
-25.82594
-28.66698
-31.70078
-34.9601
-37.6628
-39.70245
-41.02247
-41.43497
-41.30187
-40.99266
-41.01118
-41.91505
-42.96155
-45.62686
-53.58196
-155.7138
-146.0841
-143.4825
-142.1443
-145.881
-142.8599
-139.0482
-134.0745
-134.551
-134.5221
-133.9227
-133.7898
-134.5584
-133.7164
-132.4621
-131.4469
-129.1489
-126.2412
-124.2606
-126.0472
-132.9975
-148.4867
-161.8162
-164.5033
-158.7645
-152.9952
-138.0951
-136.1269
-156.4008
-180.5702
-201.4669
-209.2561
-206.1526
-196.3241
-182.2673
-163.2863
-145.3
-125.937
-106.3526
-88.61206
-75.65704
-66.98303
-58.08148
-49.65967
-44.32795
-41.817
-42.67525
-45.42661
-50.68806
-55.82118
-147.4317
-145.0329
-141.9867
-140.8877
-146.3415
-143.7784
-140.1511
-134.6431
-134.7817
-134.5396
-133.8879
-133.7885
-134.718
-133.9785
-132.9236
-132
-129.6202
-126.6875
-124.5835
-126.515
-134.284
-150.3826
-163.8626
-165.3327
-158.5569
-154.4875
-139.4247
-139.5752
-163.6277
-187.2596
-205.4754
-211.4672
-206.9922
-196.0478
-181.9206
-162.3132
-143.947
-124.4538
-105.0303
-87.47748
-74.64307
-65.88472
-56.99312
-48.85321
-44.06399
-42.11345
-43.57444
-46.48287
-52.00973
-57.97969
-74.71945
-77.13684
-94.9365
-107.4057
-111.6582
-103.8878
-88.92806
-75.81328
-67.85032
-68.41392
-68.51997
-64.96824
-63.30972
-71.01839
-84.941
-101.0351
-111.2624
-102.0015
-66.74611
-35.50493
-23.46284
-39.74177
-58.73826
-74.63243
-101.6649
-164.6681
-245.1224
-250.8719
-171.1215
-140.3348
-165.6884
-186.6471
-198.1937
-202.0108
-205.7945
-211.6324
-217.5573
-222.8744
-226.4887
-228.7125
-229.6131
-228.8657
-227.3126
-224.6105
-220.8474
-216.0259
-210.7521
-205.0761
-198.795
-191.9465
-184.5983
-177.3134
-169.6675
-162.409
-154.7367
-147.1626
-139.8157
-132.5023
-125.2411
-117.9615
-111.0918
-104.5671
-98.28188
-92.43735
-86.59286
-80.87753
-75.72413
-70.72159
-65.93638
-61.39435
-56.97956
-52.78701
-48.74218
-44.90361
-41.28944
-37.83446
-34.54172
-31.41906
-28.71696
-26.38569
-24.53312
-23.27801
-22.49944
-22.76136
-24.17332
-26.27992
-29.18618
-32.20608
-35.48398
-38.07711
-40.04291
-41.17198
-41.5039
-41.30489
-40.99897
-41.00284
-41.59792
-42.97346
-46.36091
-54.31254
-68.59192
-89.92073
-104.6223
-117.9472
-129.8414
-138.2531
-142.6059
-143.1397
-138.5218
-128.8857
-115.134
-98.29304
-82.33565
-73.58838
-69.57245
-70.69683
-74.1479
-80.11304
-82.44073
-80.84084
-71.59689
-55.85984
-44.16703
-44.52201
-52.50727
-72.35326
-93.31108
-112.8896
-127.5429
-136.2021
-138.6459
-135.5979
-127.6007
-116.7246
-107.8784
-98.9768
-100.2504
-105.4116
-108.0075
-99.87185
-84.72697
-80.383
-81.76036
-81.90555
-78.55626
-78.52739
-81.38051
-82.10191
-81.8144
-87.65979
-63.17154
-53.26551
-43.43182
-36.64341
-31.19912
-26.4827
-22.45706
-18.85461
-15.6802
-12.85009
-10.20994
-7.855304
-5.639258
-3.497373
-1.502722
0.3447251
2.02564
3.69612
5.285754
6.809211
8.246509
9.634906
10.91577
12.19177
13.44532
14.68437
15.86598
16.96141
18.03274
19.09035
20.12507
21.1613
22.157
23.08538
24.04112
24.96132
25.8958
26.80204
27.70407
28.59557
29.471
30.32075
31.17473
32.0054
32.83428
33.65019
34.44999
35.25509
36.07756
36.90125
37.69184
38.48353
39.26361
40.07382
40.91517
41.72354
42.53417
43.36531
44.18683
45.02774
45.87484
46.73113
47.59587
48.55437
49.52741
50.43794
51.45741
52.38741
52.96876
53.17885
52.72628
47.09768
43.9968
43.37664
42.97444
42.09994
41.03595
39.94829
38.93139
38.01297
37.1295
36.14217
35.16091
34.17533
33.25148
32.33509
31.42692
30.49402
29.55139
28.65739
27.74865
26.81289
25.88933
24.97714
24.01735
23.11123
22.15216
21.13174
20.16538
19.20325
18.23547
17.2082
16.14926
15.1312
14.07392
12.95294
11.86491
10.75623
9.563567
8.3782
7.185877
5.977594
4.665388
3.275798
1.899561
0.5581749
-0.8897576
-2.404523
-3.953728
-5.610796
-7.331004
-9.12373
-11.00498
-12.83466
-14.91521
-17.08342
-19.35586
-21.85297
-24.34635
-27.20689
-30.25095
-33.51362
-37.01287
-41.01835
-45.52686
-50.59079
-56.3468
-63.10015
-71.35982
-81.41115
-96.01046
-110.7856
47.78986
44.85099
43.74841
43.12678
42.27522
41.27999
40.14757
39.07548
38.17481
37.34322
36.35728
35.34563
34.30662
33.39371
32.50166
31.57838
30.60362
29.64048
28.7767
27.8675
26.91193
25.99605
25.09191
24.09543
23.25865
22.25906
21.20212
20.25526
19.25853
18.32208
17.28185
16.26456
15.25113
14.15433
12.97166
11.8897
10.79151
9.604054
8.446534
7.242636
5.98284
4.671529
3.331189
1.941244
0.5635307
-0.8607046
-2.375547
-3.974804
-5.628358
-7.326695
-9.079586
-10.98594
-12.84051
-15.00118
-17.12241
-19.35487
-21.95038
-24.38405
-27.34462
-30.30276
-33.58256
-37.20411
-41.22953
-45.75483
-50.82709
-56.63404
-63.48452
-71.77055
-81.85251
-95.57807
-110.2872
-62.94039
-53.09846
-43.79174
-36.9078
-31.55322
-26.61832
-22.60913
-19.03917
-15.85112
-12.92836
-10.2441
-7.9542
-5.71517
-3.527335
-1.566998
0.2799958
2.011984
3.714954
5.278148
6.802223
8.208214
9.61112
10.93287
12.17009
13.45526
14.70531
15.84145
16.98701
18.06979
19.09523
20.11941
21.21202
22.24326
23.11244
24.08314
24.99841
25.9509
26.85435
27.74699
28.63006
29.5376
30.40235
31.24845
32.07434
32.89029
33.73225
34.55028
35.33058
36.13388
36.99673
37.81796
38.59776
39.37474
40.16886
41.03868
41.86729
42.63432
43.50138
44.35193
45.17668
46.01937
46.87892
47.73008
48.72445
49.7504
50.59878
51.54271
52.34772
52.78466
52.82661
52.00648
-65.11617
-83.9354
-100.9958
-116.1211
-128.393
-137.1184
-142.4155
-144.5802
-140.8181
-132.1934
-119.619
-104.5555
-88.50992
-77.4239
-70.53143
-71.75137
-72.33003
-78.02297
-83.02347
-83.30746
-74.45492
-59.03782
-47.14434
-46.34297
-55.77493
-75.00318
-95.62789
-114.7579
-128.8213
-137.6446
-140.188
-137.7043
-130.1061
-119.6867
-111.382
-100.7152
-101.6468
-105.5679
-108.3771
-99.381
-84.89433
-81.49105
-82.7296
-82.04513
-77.99008
-78.55098
-81.43266
-81.56519
-80.8961
-82.66197
-75.24797
-77.74657
-94.51343
-107.951
-114.6845
-108.8062
-93.37323
-78.80407
-68.14348
-67.27434
-68.22957
-65.48032
-63.46946
-70.79433
-84.9619
-102.8118
-115.1887
-109.0625
-74.47214
-41.72536
-24.61315
-38.52081
-57.97271
-74.55872
-99.88031
-154.9647
-228.6567
-242.427
-180.003
-150.5752
-168.5475
-186.2944
-197.8321
-202.739
-207.0559
-212.7438
-218.4248
-223.4609
-226.9072
-229.0674
-230.1069
-229.1399
-227.6135
-224.9676
-221.2731
-216.5067
-210.9219
-205.2227
-199.0533
-192.1723
-184.6059
-177.5209
-169.6659
-162.6028
-154.8281
-147.2282
-139.5966
-132.2277
-125.1495
-117.9734
-110.8399
-104.4816
-98.22907
-92.06352
-86.17305
-80.64943
-75.42602
-70.39672
-65.74019
-61.05912
-56.57257
-52.53845
-48.55162
-44.59275
-40.948
-37.5596
-34.38881
-31.17618
-28.47948
-26.25235
-24.46828
-23.32508
-22.6347
-23.04772
-24.58508
-26.99748
-29.93433
-32.98363
-36.32979
-38.72017
-40.53709
-41.51213
-41.6206
-41.30301
-40.95622
-40.84573
-41.35866
-43.09048
-46.93847
-54.66914
-139.6348
-141.7276
-140.8252
-141.0943
-147.5595
-146.1259
-141.132
-135.1737
-134.7997
-134.5373
-133.8466
-133.7503
-134.7552
-134.3048
-133.7291
-132.9469
-130.5163
-127.0324
-124.9809
-127.211
-136.472
-153.3481
-166.0453
-166.3133
-159.1375
-158.39
-143.3493
-147.3192
-173.4758
-194.7754
-210.2108
-214.2352
-208.1751
-195.3686
-181.8108
-160.9777
-141.5024
-122.3377
-103.6586
-86.06886
-73.31957
-64.17249
-55.78259
-48.1145
-44.06828
-42.87757
-45.18326
-48.02135
-54.02172
-60.83566
-0.03703601
-0.008647375
-1.266135
5.034756
1.725313
-0.2838189
0.08393862
4.360615
4.703615
0.2210316
-3.567669
2.164268
-0.01327531
11.8025
-0.1828516
5.027415
9.210219
12.09073
6.684776
-96.96246
-1.508222
6.859587
0.1510628
6.355381
-0.1059863
5.553481
6.432947
2.734049
4.404004
-0.180135
7.106835
-0.2066544
-32.7453
0.06300192
7.25716
0.3037089
0.1900863
7.675751
0.120974
6.211481
8.300971
-0.008289087
-1.181807
1.670564
-14.36396
-134.8103
0.03590514
-0.0126738
-0.01831555
8.79995
2.731079
-0.1613792
1.698489
-0.5036432
6.548692
0.2177063
5.366478
6.740056
7.291207
-0.009921064
-1.718175
7.161263
-0.2631222
1.057247
9.016326
-0.2391086
-0.208704
-9.823704
1.454191
0.1294185
2.624891
0.3643391
7.533543
2.973189
6.197716
6.95559
5.565067
5.946071
-0.03751435
7.648066
0.2172189
6.717746
-0.711172
-0.2504226
-0.3031574
-0.1060404
8.508374
0.1535202
-0.4233595
0.5299159
6.616691
7.199838
5.516987
2.903393
0.1207531
-3.872728
5.510762
6.572541
-145.076
-1.061308
-0.7197814
-124.8566
11.14706
-0.3148727
0.7984911
4.852357
-1.144273
6.495102
-3.741531
4.483781
0.2125885
-289.1185
0.124455
0.4322204
-2.414735
0.03366799
-0.2548059
-12.91197
-5.617697
2.058561
0.6683008
-1.053359
-0.2337513
-0.2770757
4.294519
-0.440035
-0.01607869
0.3452256
-4.896052
0.3158919
11.53562
7.988853
4.97596
-2.572466
-0.1875631
0.1444231
4.446715
-5.351482
15.4618
7.814251
5.052835
8.919646
5.008593
6.520916
0.06894772
0.8933829
7.43035
-1.507711
-0.10467
-18.11376
3.38973
0.2321419
-0.1296682
4.602139
12.49847
4.22986
-0.1193073
-7.695118
-0.005102778
4.416622
-6.75574
4.637588
2.812163
0.08775867
7.563946
0.1864051
-4.515783
6.60261
0.09897088
2.997105
-0.3542244
-0.4296109
0.1223239
8.705233
0.007244321
-0.003997655
0.2173435
-8.164465
-0.2907397
-26.55239
-0.936834
5.38465
-0.5209639
1.414806
1.185597
0.08747292
6.323421
6.093893
6.850911
0.1851484
5.779165
0.1994538
6.902759
0.2087481
-232.4745
0.8050651
0.129637
-0.8961022
0.2156561
0.9686535
-61.87143
-10.81606
1.57142
11.25809
-6.714572
1.041904
-0.01471149
-3.256108
7.458735
-18.07606
0.06812938
-123.2479
0.05063558
6.188313
-0.07465414
0.1742919
-20.62802
-0.3169231
3.338413
1.459987
-1.154172
6.274747
4.379657
0.1967513
21.12247
-3.778928
6.103832
0.2403343
0.7675917
12.40932
-0.3749408
4.114716
20.91841
6.378488
3.622524
-63.16761
3.875369
6.470777
-66.94964
-0.1830377
0.84851
-0.3850921
-0.09857928
0.07941848
-4.479885
-11.96876
-1.165982
-3.331971
6.808723
6.394453
6.375241
-454.9192
8.525258
2.936185
-0.06922402
12.36665
-0.09202973
3.243672
0.1489859
2.819406
3.728835
0.0342496
2.169695
1.902372
6.961059
5.002167
0.1026513
2.291631
4.586454
-9.858162
-3.691462
0.1658064
-0.26734
-0.08677562
7.64573
-147.5081
6.250738
-0.6463384
-71.7033
0.2450902
-6.386145
6.526337
-3.233227
0.09434929
7.418627
-0.2935439
0.1731643
7.23518
7.892072