/*--------------------------------*- C++ -*----------------------------------*\
| =========                 |                                                 |
| \\      /  F ield         | OpenFOAM: The Open Source CFD Toolbox           |
|  \\    /   O peration     | Version:  2406                                  |
|   \\  /    A nd           | Website:  www.openfoam.com                      |
|    \\/     M anipulation  |                                                 |
\*---------------------------------------------------------------------------*/
FoamFile
{
    version     2.0;
    format      ascii;
    arch        "LSB;label=32;scalar=64";
    class       surfaceScalarField;
    location    "1.52";
    object      phi;
}
// * * * * * * * * * * * * * * * * * * * * * * * * * * * * * * * * * * * * * //

dimensions      [0 3 -1 0 0 0 0];

oriented        oriented;

internalField   nonuniform List<scalar> 
326221
(
-0.002626104
-0.006725597
0.009351701
-0.001923829
-0.0007022754
0.001233766
-0.003157594
0.001089417
0.0001443482
-0.0008519327
0.00194135
-0.001320074
0.0004681412
-0.0008705595
-0.0004495145
-8.385582e-05
-0.0007867037
0.0002814136
-0.0003652695
0.0002141475
6.726616e-05
0.000164993
4.91545e-05
0.0002637935
-9.880054e-05
0.0001385269
0.0001252666
-0.0001902495
0.0003287764
-0.0005479413
0.0003576918
-0.0007051242
0.0001571829
-0.0003827549
-0.0003223692
0.0002152617
-0.0005980167
0.0008969687
-0.0006817069
0.001718894
-0.0008219256
0.003103809
-0.001384915
0.00362888
-0.0005250707
0.002138368
0.001490512
0.0003557318
0.001782636
0.0003604704
-4.738628e-06
0.0005907258
-0.0002302554
0.001184048
-0.0005933221
0.002120669
-0.000936621
0.0007532169
0.001367452
-0.002597754
0.00335097
-0.005490399
0.002892645
-0.006595628
0.001105229
-0.006688294
9.266516e-05
-0.006452638
-0.0002356557
-0.006108619
-0.0003440189
-0.005579345
-0.0005292742
-0.005034691
-0.0005446537
-0.004384257
-0.0006504339
-0.003642991
-0.000741266
-0.002795435
-0.0008475565
-0.001982936
-0.0008124985
-0.00158521
-0.0003977261
-0.001251273
-0.0003339372
-0.0006855976
-0.0005656752
-4.322258e-05
-0.000642375
0.0006484767
-0.0006916993
0.001317924
-0.0006694469
0.0019624
-0.0006444763
0.00260372
-0.0006413205
0.002925676
-0.0003219559
-0.0005801818
0.003505858
-0.001456125
0.0008759427
-0.00313826
0.001682135
-0.003988343
0.0008500828
-0.004182509
0.0001941665
-0.00381151
-0.0003709993
-0.003082796
-0.0007287138
-0.00231782
-0.0007649765
-0.001937592
-0.0003802272
-0.001989196
5.160383e-05
-0.001662442
-0.0003267546
-0.0004540955
-0.001208346
0.001148449
-0.001602544
0.002409024
-0.001260575
0.003459807
-0.001050783
0.004026655
-0.0005668483
0.003276698
0.0007499571
0.0008239054
0.002452793
-0.001574519
0.002398425
-0.002215466
0.0006409467
-0.0006028149
-0.001612651
0.001087838
-0.001690653
0.002015765
-0.0009279266
0.003206144
-0.001190379
0.005203615
-0.001997471
0.007221605
-0.00201799
0.005873878
0.001347728
0.0005144399
0.005359438
-0.002300386
0.002814825
1.500619e-05
-0.002315392
0.002396595
-0.002381589
0.002605605
-0.0002090099
0.001654624
0.0009509817
-0.0004150278
0.002069651
-0.002756429
0.002341401
-0.004494237
0.001737808
-0.005610168
0.001115931
-0.006338227
0.0007280591
-0.006835482
0.0004972553
-0.007191465
0.0003559829
-0.007441051
0.0002495854
-0.007600502
0.0001594514
-0.007694281
9.377855e-05
-0.007724878
3.059747e-05
-0.007703265
-2.161254e-05
-0.007643549
-5.971606e-05
-0.00756316
-8.038904e-05
-0.007463594
-9.956618e-05
-0.007340547
-0.0001230467
-0.007195525
-0.0001450226
-0.007034888
-0.000160637
-0.006865242
-0.0001696458
-0.006685184
-0.0001800577
-0.006505834
-0.0001793502
-0.006313584
-0.0001922506
-0.00611803
-0.0001955539
-0.005923193
-0.0001948366
-0.005727093
-0.0001961006
-0.005525173
-0.0002019199
-0.005316163
-0.00020901
-0.005114759
-0.0002014038
-0.004918002
-0.0001967568
-0.004721487
-0.0001965156
-0.004535603
-0.0001858837
-0.004350863
-0.0001847399
-0.004168517
-0.000182346
-0.004084497
-8.401971e-05
-0.003915603
-0.000168894
-0.003749215
-0.0001663879
-0.003585998
-0.0001632174
-0.003425079
-0.0001609186
-0.003265232
-0.000159847
-0.003101685
-0.0001635472
-0.002937195
-0.0001644899
-0.002772496
-0.0001646997
-0.002599793
-0.0001727026
-0.002410627
-0.0001891661
-0.002201689
-0.000208938
-0.001983955
-0.0002177342
-0.001742618
-0.0002413369
-0.001481413
-0.0002612051
-0.001196414
-0.0002849988
-0.0008567341
-0.0003396797
-0.0004923869
-0.0003643472
-0.0001534293
-0.0003389576
0.0002318776
-0.0003853069
0.0005608369
-0.0003289593
0.0008624279
-0.000301591
0.001056988
-0.0001945604
0.001187159
-0.0001301711
0.001246824
-5.966437e-05
0.001186448
6.037532e-05
0.0009907938
0.0001956546
0.0006623014
0.0003284924
0.0003214299
0.0003408715
8.64603e-05
0.0002349696
-4.841806e-05
0.0001348784
0.0001649251
-0.0002133431
0.001576423
-0.001411498
0.003322153
-0.001745729
0.001916768
0.001405384
0.002956229
-0.001039461
0.003758142
-0.0008019132
0.004256567
-0.0004984251
0.004503511
-0.0002469433
0.004585113
-8.160197e-05
0.004486652
9.846062e-05
0.004082347
0.0004043048
0.003262683
0.0008196648
0.001815301
0.001447382
-0.0002493956
0.002064697
-0.002015604
0.001766208
-0.002341307
0.0003257028
-0.001959526
-0.0003817804
-0.001344778
-0.0006147483
-0.0004880853
-0.0008566927
0.0001802321
-0.0006683174
0.0001390278
4.120432e-05
-0.0007278507
0.0008668785
-0.002433932
0.001706081
-0.00384181
0.001407878
-0.003312874
-0.0005289362
-0.001612133
-0.001700741
-0.0002456934
-0.001366439
0.001401868
-0.001647561
0.002566168
-0.001164301
0.003415532
-0.0008493636
0.003939003
-0.0005234705
0.004177705
-0.0002387026
0.004159424
1.828153e-05
0.003810616
0.0003488073
0.002802642
0.001007974
0.0009106407
0.001892002
-0.0009069077
0.001817548
-0.001605283
0.0006983756
-0.0008890481
-0.0007162351
-0.0003548139
-0.0005342342
-0.00126865
0.0009138362
-0.002733685
0.001465035
-0.002705048
-2.863703e-05
-0.001297161
-0.001407887
-0.0003649364
-0.0009322246
-0.0002157297
-0.0001492066
-0.000424361
0.0002086313
-5.548191e-05
-0.0003688791
0.0005571466
-0.0006126285
1.138439e-05
0.0005457622
0.001338656
-0.001327271
0.002137741
-0.0007990855
-0.005204205
0.007341946
-0.005496585
0.00029238
-0.004756451
-0.0007401337
-0.004456091
-0.0003003607
-0.0041614
-0.0002946908
-0.003938906
-0.0002224935
-0.003735926
-0.0002029802
-0.003559532
-0.0001763938
-0.003320513
-0.0002390194
-0.003198035
-0.0001224783
-0.003094959
-0.000103076
-0.003000147
-9.481188e-05
-0.002915894
-8.425253e-05
-0.002834454
-8.14406e-05
-0.002756747
-7.770703e-05
-0.002682688
-7.405845e-05
-0.002616534
-6.615449e-05
-0.002555911
-6.062272e-05
-0.002497669
-5.824245e-05
-0.002440205
-5.746371e-05
-0.002386694
-5.351085e-05
-0.002335215
-5.147906e-05
-0.002287227
-4.798763e-05
-0.002244608
-4.261918e-05
-0.00220087
-4.373806e-05
-0.002156567
-4.430347e-05
-0.002111759
-4.480735e-05
-0.002069841
-4.19182e-05
-0.002032552
-3.728896e-05
-0.001998981
-3.357095e-05
-0.001963696
-3.528482e-05
-0.001928429
-3.526748e-05
-0.001890794
-3.763489e-05
-0.001858196
-3.259788e-05
-0.001828381
-2.981546e-05
-0.001796736
-3.164442e-05
-0.001764584
-3.215215e-05
-0.00173126
-3.332396e-05
-0.001701391
-2.986883e-05
-0.001673699
-2.769231e-05
-0.001700658
2.695937e-05
-0.001685325
-1.533325e-05
-0.001664885
-2.044057e-05
-0.001644258
-2.062662e-05
-0.00162637
-1.788823e-05
-0.001607666
-1.870401e-05
-0.001590829
-1.68371e-05
-0.001575894
-1.493503e-05
-0.001561568
-1.43255e-05
-0.001543604
-1.796439e-05
-0.001524641
-1.896246e-05
-0.001509188
-1.545281e-05
-0.001496253
-1.293506e-05
-0.00148604
-1.021341e-05
-0.00147211
-1.392965e-05
-0.001454706
-1.740419e-05
-0.001439931
-1.477492e-05
-0.001426943
-1.298854e-05
-0.001411259
-1.56838e-05
-0.001398061
-1.319816e-05
-0.001383758
-1.430249e-05
-0.00136837
-1.53883e-05
-0.001353787
-1.458329e-05
-0.001338871
-1.491532e-05
-0.001308428
-3.044311e-05
-0.001271292
-3.713577e-05
-0.001241819
-2.947314e-05
-0.001195527
-4.629226e-05
-0.001097076
-9.845087e-05
-0.0007310074
-0.0003660687
0.0002945252
-0.001025533
0.001292745
-0.00099822
0.0006131992
0.000679546
0.0004522171
0.0001609822
0.0006247942
-0.0001725772
0.0009116607
-0.0002868664
0.001111258
-0.0001995974
0.001245805
-0.0001345465
0.001339924
-9.41195e-05
0.001401867
-6.19429e-05
0.001449826
-4.795902e-05
0.001500701
-5.087549e-05
0.001546299
-4.559745e-05
0.001585726
-3.942666e-05
0.001615396
-2.967e-05
0.001641654
-2.625881e-05
0.001665935
-2.428109e-05
0.001692472
-2.653665e-05
0.001716589
-2.411694e-05
0.001736343
-1.975365e-05
0.001755953
-1.960999e-05
0.001778346
-2.239319e-05
0.001798959
-2.061296e-05
0.001818517
-1.955763e-05
0.001841065
-2.25489e-05
0.001860552
-1.948624e-05
0.001884524
-2.397261e-05
0.001912452
-2.792806e-05
0.001936188
-2.373533e-05
0.001956637
-2.044916e-05
0.001979451
-2.281384e-05
0.002004773
-2.532243e-05
0.00202323
-1.845726e-05
0.001988507
3.472299e-05
0.002020858
-3.235075e-05
0.002060433
-3.957475e-05
0.002100875
-4.0442e-05
0.00214194
-4.106553e-05
0.002185757
-4.381705e-05
0.002227898
-4.214107e-05
0.002267113
-3.921447e-05
0.0023094
-4.228704e-05
0.002356414
-4.701353e-05
0.002407486
-5.10727e-05
0.002453178
-4.569189e-05
0.00249754
-4.436224e-05
0.002544938
-4.739791e-05
0.002595839
-5.09006e-05
0.002648053
-5.221373e-05
0.00270603
-5.797765e-05
0.00276648
-6.044989e-05
0.002827709
-6.122909e-05
0.002891244
-6.353473e-05
0.00295164
-6.039588e-05
0.003022536
-7.089653e-05
0.003096921
-7.43847e-05
0.003174991
-7.807032e-05
0.003258918
-8.392613e-05
0.003345886
-8.696808e-05
0.003442159
-9.627355e-05
0.003547664
-0.0001055044
0.003656546
-0.0001088828
0.003774875
-0.0001183281
0.003909807
-0.0001349329
0.004066594
-0.0001567864
0.004360279
-0.0002936855
0.004584343
-0.0002240633
0.004840237
-0.0002558944
0.00512755
-0.0002873128
0.005504757
-0.0003772073
0.005865482
-0.0003607253
0.006866967
-0.001001485
0.0001413702
0.001081072
-0.00131191
0.0009103841
0.001290503
-4.844842e-05
0.001518225
-0.000400299
0.001731634
-0.0005002759
0.001948831
-0.0004167942
0.002150213
-0.0003359281
0.002326492
-0.0002703985
0.002473817
-0.0002092682
0.002602309
-0.0001764508
0.00272818
-0.0001767471
0.002845775
-0.0001631918
0.002956519
-0.0001501716
0.003056334
-0.0001294841
0.00315103
-0.0001209552
0.003239825
-0.0001130761
0.003328116
-0.0001148278
0.003411782
-0.0001077825
0.003490543
-9.851456e-05
0.003566166
-9.523312e-05
0.003641943
-9.817023e-05
0.003714618
-9.328855e-05
0.003784551
-8.949047e-05
0.003855629
-9.362618e-05
0.003922389
-8.62463e-05
0.003991366
-9.295001e-05
0.004061312
-9.787404e-05
0.004129073
-9.149611e-05
0.004192555
-8.393101e-05
0.004257815
-8.807428e-05
0.004322883
-9.039076e-05
0.004385758
-8.133141e-05
0.004353579
6.690108e-05
0.004428867
-0.0001076378
0.004507652
-0.0001183598
0.004586661
-0.0001194513
0.00466589
-0.0001202951
0.004746237
-0.0001241631
0.004826169
-0.0001220738
0.004902821
-0.0001158665
0.004982314
-0.0001217797
0.005063006
-0.0001277056
0.005148419
-0.0001364857
0.005228823
-0.0001260958
0.005309788
-0.0001253274
0.005391517
-0.0001291267
0.005476509
-0.0001358931
0.005561725
-0.0001374292
0.005651646
-0.000147899
0.005743917
-0.0001527202
0.005836886
-0.0001541981
0.005933173
-0.0001598219
0.006026256
-0.0001534787
0.006128717
-0.0001733581
0.006232274
-0.000177942
0.006341062
-0.0001868578
0.006453062
-0.0001959262
0.00656961
-0.0002035163
0.006692448
-0.0002191114
0.006824351
-0.0002374077
0.006958914
-0.0002434451
0.007102774
-0.0002621885
0.007260376
-0.0002925348
0.007437487
-0.0003338972
0.007818785
-0.0006749839
0.008059826
-0.0004651038
0.008338906
-0.0005349744
0.008645831
-0.0005942377
0.009052216
-0.0007835931
0.009419205
-0.0007277136
0.01048422
-0.002066497
0.009816248
0.0008093392
-0.008763615
0.007971654
0.001084342
-0.007905237
-0.001598512
-0.007621222
-0.0005843758
-0.007294878
-0.0006210351
-0.007051648
-0.0004657229
-0.006823734
-0.000430894
-0.006627542
-0.0003725863
-0.006307787
-0.0005587741
-0.006164042
-0.0002662237
-0.006036894
-0.0002302241
-0.00591659
-0.0002151153
-0.005806005
-0.0001948381
-0.005697524
-0.0001899211
-0.00559402
-0.0001812106
-0.005492753
-0.0001753258
-0.005399352
-0.0001595551
-0.005308746
-0.0001512294
-0.005222112
-0.0001448761
-0.005135209
-0.0001443666
-0.00505295
-0.0001357702
-0.004971576
-0.0001328527
-0.004893682
-0.0001258817
-0.00481943
-0.0001168718
-0.004744855
-0.0001183124
-0.004670946
-0.0001182125
-0.004596736
-0.0001190179
-0.004525633
-0.0001130206
-0.004456606
-0.0001063166
-0.004391075
-9.910187e-05
-0.004322871
-0.0001034885
-0.004256499
-0.0001016395
-0.004187292
-0.0001068415
-0.004122471
-9.741883e-05
-0.004058076
-9.421106e-05
-0.003992777
-9.694328e-05
-0.003926655
-9.827361e-05
-0.003859824
-0.000100155
-0.003795178
-9.451514e-05
-0.003731113
-9.175704e-05
-0.00375758
5.342599e-05
-0.003704422
-6.849149e-05
-0.003649995
-7.48668e-05
-0.00359398
-7.664163e-05
-0.003540124
-7.174503e-05
-0.003483614
-7.521357e-05
-0.003428178
-7.227367e-05
-0.003371753
-7.135945e-05
-0.00331492
-7.115905e-05
-0.003254094
-7.878954e-05
-0.003192061
-8.099593e-05
-0.003130737
-7.677646e-05
-0.003068493
-7.517894e-05
-0.003005646
-7.306035e-05
-0.002937202
-8.237395e-05
-0.002864686
-8.992004e-05
-0.002790804
-8.865736e-05
-0.002715075
-8.87175e-05
-0.002632851
-9.790752e-05
-0.002548857
-9.719195e-05
-0.002457807
-0.0001053529
-0.002360112
-0.0001130838
-0.002255286
-0.0001194092
-0.002142127
-0.0001280743
-0.002006295
-0.0001662749
-0.001854621
-0.0001888093
-0.001695997
-0.0001880971
-0.0015045
-0.0002377896
-0.00124081
-0.0003621406
-0.0007332686
-0.0008736104
0.0002821984
-0.002041
-0.002027932
0.00206266
-0.003330374
0.002673099
0.003526182
-0.002502983
0.00474009
-0.002015821
0.005430509
-0.001188845
0.005851116
-0.0006675506
0.00610375
-0.0003342352
0.006233215
-3.100452e-05
0.00620723
0.0004302892
0.00593849
0.001088405
0.005042974
0.002342898
0.002528363
0.004579308
-0.001285095
0.005579666
-0.003563673
0.00260428
-0.003366988
-0.0005784651
-0.002401019
-0.001580717
-0.001258892
-0.00199882
-0.0003624943
-0.001564715
-0.0007435639
0.000422274
-0.002896864
0.003020179
-0.005331251
0.004140468
-0.005548549
0.001625176
-0.003846219
-0.002231265
-0.001863559
-0.003683401
-0.0002341964
-0.002995802
0.001822861
-0.003704618
0.003332657
-0.002674097
0.004465932
-0.001982638
0.005204233
-0.001261771
0.005601743
-0.0006362134
0.005733887
-0.0001138621
0.005683726
0.0003989682
0.00527662
0.00141508
0.003631339
0.003537283
0.0004803658
0.004968521
-0.001949735
0.003128477
-0.002148756
-0.0005172145
-0.002354632
-0.0003283577
-0.003419026
0.00197823
-0.003982729
0.002028738
-0.003102272
-0.0009090941
-0.00140061
-0.003109549
-0.0003709804
-0.001961854
-0.0002525863
-0.0002676008
-0.0004243879
0.0003804329
0.0001193489
-0.0009126159
0.001031138
-0.001524417
0.001283606
0.0002932943
0.002372792
-0.002416457
0.0007523916
0.0008213149
0.01606599
-0.002056539
-0.002892836
0.008455233
-0.003404029
0.002223433
-0.004587155
0.002865261
-0.004905535
0.001168463
-0.004997936
0.0002865674
-0.004837317
-0.0005316186
-0.004400156
-0.001165875
-0.003802071
-0.001363062
-0.003211719
-0.000970579
-0.00288189
-0.0002782246
-0.002320772
-0.0008878725
-0.0009451532
-0.002583965
0.000945193
-0.003492891
0.002547043
-0.002862425
0.003878236
-0.002381977
0.004831073
-0.001519685
0.004912726
0.0006683042
0.003087805
0.004277714
-0.0006919542
0.006178184
-0.003213958
0.003162951
-0.001598992
-0.003227618
0.0001371379
-0.003426783
0.001022329
-0.001813118
0.002093877
-0.002261927
0.004274857
-0.004178451
0.006716464
-0.004459598
0.007126378
0.0009378146
0.002958403
0.009527413
-0.0008507166
0.006623945
-0.001211136
-0.001954972
-0.0009338552
-0.00265887
-0.00157966
0.0004367949
-0.004166637
0.003537959
-0.007369026
0.005272041
-0.009943625
0.004915999
-0.0112761
0.003070279
-0.01187879
0.001718621
-0.01216527
0.001014541
-0.01229493
0.0006269227
-0.01233911
0.0004001579
-0.01232454
0.0002350112
-0.01226439
9.930552e-05
-0.01217768
7.069371e-06
-0.01206553
-8.155474e-05
-0.01192896
-0.0001581769
-0.0117629
-0.0002257753
-0.01157818
-0.0002651151
-0.01137684
-0.0003009016
-0.01115517
-0.00034472
-0.01091481
-0.0003853848
-0.01066138
-0.0004140655
-0.01040089
-0.0004301388
-0.01013128
-0.0004496624
-0.009863033
-0.000447599
-0.009582836
-0.0004724475
-0.009299815
-0.0004785743
-0.009016873
-0.0004777792
-0.008731987
-0.0004809862
-0.008441309
-0.0004925983
-0.008143809
-0.0005065097
-0.007852755
-0.0004924581
-0.007564748
-0.0004847637
-0.007275825
-0.0004854388
-0.006995378
-0.00046633
-0.006712859
-0.0004672595
-0.006428802
-0.0004664031
-0.006287075
-0.0002257467
-0.006026904
-0.000429065
-0.005767224
-0.0004260675
-0.005509811
-0.00042063
-0.005253109
-0.0004176214
-0.004995647
-0.000417309
-0.004732556
-0.0004266383
-0.004465618
-0.000431427
-0.004194116
-0.0004362017
-0.003910092
-0.0004567267
-0.003606014
-0.000493244
-0.003278981
-0.0005359714
-0.002938619
-0.0005580961
-0.002570098
-0.0006098578
-0.002177559
-0.0006537446
-0.001757723
-0.0007048344
-0.001283789
-0.0008136139
-0.000790963
-0.0008571731
-0.0003272331
-0.0008026875
0.0001810448
-0.0008935848
0.0006218635
-0.000769778
0.001026476
-0.0007062039
0.001304042
-0.000472126
0.00151952
-0.0003456485
0.001674258
-0.0002144026
0.001721333
1.330024e-05
0.001660836
0.0002561516
0.001432521
0.0005568068
0.0009448706
0.0008285223
0.0002104267
0.0009694135
-7.177426e-05
0.0004170793
0.0005509804
-0.0008360978
0.002005358
-0.002865876
-0.003070746
-0.0009221583
0.02009011
-0.002838594
0.00121416
0.0006129927
-0.006609181
0.0008501921
-9.285116e-05
-0.001561377
0.004352919
-0.00192798
0.0008347444
-0.001120821
-0.001256673
-0.0001379643
-0.001769561
0.0004033889
-0.0009066227
0.0004134453
5.720982e-05
0.0003506903
0.0001119095
0.0004506278
-0.0001987381
0.0003172472
0.0002586473
-0.0001932152
0.0008392387
-0.0008335201
0.0009979967
-0.001083875
0.0004075374
-0.0006276186
-0.0007786253
0.0001927948
-0.00141843
0.00108427
-0.001573182
0.002140268
-0.001877924
0.003671328
-0.002915975
0.005074474
-0.001928217
0.004454219
0.002110767
0.002023913
0.004212943
0.00124085
0.0007783237
0.001378097
-0.0003675023
0.002316738
-0.001531963
0.00234351
-0.0009633929
-0.002056661
0.005767623
-0.007118918
0.008413228
-0.008938049
0.004711776
-0.008942681
0.001109862
-0.008656479
-0.0001935372
-0.00823879
-0.0006533445
-0.007682196
-0.0009006129
-0.006930506
-0.001280964
-0.006160758
-0.001314401
-0.005270415
-0.001540778
-0.00428672
-0.001724961
-0.003222363
-0.001911913
-0.002270696
-0.001764166
-0.00176072
-0.0009077019
-0.001248275
-0.0008463822
-0.000498181
-0.001315769
0.0002776824
-0.001418238
0.001147641
-0.001561658
0.001945544
-0.00146735
0.002775302
-0.001474235
0.003374064
-0.001240083
0.0001592719
0.001299144
-0.01225601
0.03104697
-0.003111736
0.00562504
-0.0005582574
-0.00916266
-0.0001781147
-0.0004729939
-0.002321472
0.006496276
-0.002396136
0.0009094084
-0.00145708
-0.002195729
-0.0002167128
-0.003009928
0.0004541999
-0.001577535
0.0005026722
8.737472e-06
0.0004183926
0.0001961891
0.0005137418
-0.0002940873
0.0003924146
0.0003799746
-0.0002254185
0.001457072
-0.001123899
0.001896477
-0.001520758
0.0008043965
-0.0009536306
-0.001345753
7.167542e-05
-0.002443736
0.001099008
-0.002600514
0.002342922
-0.003121839
0.00411304
-0.004686093
0.005881566
-0.003696743
0.006122561
0.001869772
0.004214661
0.006120843
0.002975744
0.00201724
0.002595539
1.270265e-05
0.002831579
-0.001768003
0.000276964
0.001591222
-0.006031543
0.01207613
-0.00998914
0.01237082
-0.01056544
0.005288079
-0.01053949
0.001083908
-0.01028781
-0.0004452151
-0.009765639
-0.001175517
-0.009093629
-0.001572623
-0.008173734
-0.002200859
-0.007239078
-0.002249058
-0.0061433
-0.002636556
-0.004927475
-0.002940786
-0.003647854
-0.003191534
-0.002591397
-0.002820623
-0.002043183
-0.001455916
-0.001372478
-0.001517087
-0.0003937964
-0.002294451
0.0006102226
-0.002422257
0.001736452
-0.002687888
0.002776973
-0.002507871
0.003807855
-0.002505116
0.004451985
-0.001884213
0.003274233
0.001337024
-0.002282679
0.01401215
-0.004364145
0.0043049
-0.005638445
0.004139561
-0.006149128
0.001679146
-0.006245108
0.0003825471
-0.005872475
-0.0009042516
-0.005320095
-0.001718255
-0.004806976
-0.001876181
-0.004241272
-0.001536283
-0.003763729
-0.0007557674
-0.003028754
-0.001622847
-0.0014732
-0.00413952
0.0007322007
-0.005698291
0.002696462
-0.004826686
0.004319118
-0.004004633
0.005491507
-0.002692074
0.005674777
0.0004850344
0.004492143
0.005460347
0.0006680185
0.01000231
-0.003222168
0.007053137
-0.002718629
-0.003731157
-0.001492126
-0.004653285
-0.001068755
-0.002236489
0.000207445
-0.003538127
0.002529536
-0.006500542
0.005256605
-0.007186667
0.006425864
-0.0002314447
0.004002296
0.01195098
-0.0009849379
0.01161118
-0.005358452
0.002418542
-0.008460651
0.0004433287
-0.01014796
0.002124101
-0.01218433
0.005574332
-0.013669
0.006756715
-0.0145163
0.005763291
-0.01478496
0.003338943
-0.01489992
0.001833584
-0.01497435
0.001088971
-0.01500477
0.0006573385
-0.01500096
0.0003963456
-0.01496086
0.0001949146
-0.01488224
2.068377e-05
-0.01477622
-9.894848e-05
-0.01463449
-0.0002232853
-0.01445781
-0.0003348575
-0.01424693
-0.0004366507
-0.01401639
-0.0004956577
-0.01376788
-0.0005494147
-0.01349692
-0.0006156786
-0.01320545
-0.00067685
-0.01289961
-0.0007199091
-0.01258696
-0.0007427862
-0.01226359
-0.0007730323
-0.01194306
-0.0007681283
-0.01160847
-0.0008070464
-0.01127104
-0.0008159967
-0.01093382
-0.0008149979
-0.01059411
-0.0008206991
-0.01024783
-0.0008388823
-0.009893291
-0.0008610456
-0.009546351
-0.0008393982
-0.009202769
-0.0008283465
-0.008857226
-0.0008309814
-0.00852148
-0.0008020757
-0.008182264
-0.0008064755
-0.007839709
-0.0008089586
-0.007670819
-0.0003946359
-0.007354015
-0.0007458696
-0.007041037
-0.0007390454
-0.006730324
-0.0007313429
-0.006419715
-0.0007282307
-0.006107552
-0.0007294712
-0.005787989
-0.0007462015
-0.00546332
-0.0007560963
-0.005132131
-0.0007673906
-0.004784188
-0.0008046695
-0.004411177
-0.0008662547
-0.004009581
-0.0009375677
-0.003591198
-0.0009764797
-0.003137045
-0.00106401
-0.002651842
-0.001138948
-0.00212996
-0.001226716
-0.001542264
-0.00140131
-0.0009352061
-0.001464231
-0.0003578114
-0.001380082
0.0002698797
-0.001521276
0.0008049739
-0.001304872
0.001287098
-0.001188328
0.001611836
-0.0007968637
0.001863359
-0.0005971717
0.002033098
-0.000384142
0.002095174
-4.877534e-05
0.002038827
0.0003124982
0.001877379
0.0007182548
0.001430162
0.00127574
0.0004162995
0.001983276
9.309349e-05
0.0007402854
0.001113613
-0.001856617
0.002752324
-0.004504588
0.004095176
-0.004413598
0.003358709
0.003409566
0.004734035
-0.003878309
0.006133814
-0.0034156
0.00695393
-0.00200896
0.007389587
-0.001103208
0.007590739
-0.0005353871
0.007615531
-5.579567e-05
0.007450413
0.0005954071
0.007137598
0.00140122
0.006691204
0.002789291
0.005226609
0.006043903
0.001072755
0.00973352
-0.003341455
0.00701849
-0.004539461
0.0006195416
-0.003656492
-0.002463687
-0.002337895
-0.003317416
-0.001342152
-0.002560459
-0.002460018
0.00154014
-0.005422726
0.005982887
-0.007318285
0.006036026
-0.006439951
0.0007468416
-0.004380891
-0.004290325
-0.002179512
-0.005884781
-0.0001244599
-0.005050854
0.002355164
-0.006184242
0.00421156
-0.004530493
0.005618584
-0.003389662
0.006543201
-0.002186389
0.007044029
-0.001137041
0.007189917
-0.0002597499
0.007043461
0.0005454238
0.006712924
0.001745617
0.005789811
0.004460395
0.002927503
0.007830829
-0.0009083862
0.006964366
-0.002879402
0.001453801
-0.003794326
0.0005865668
-0.004524448
0.002708352
-0.004386658
0.001890948
-0.003164379
-0.002131374
-0.001259795
-0.005014132
-0.000103095
-0.003118555
-4.859028e-05
-0.0003221055
-0.0002555244
0.0005873669
0.000417938
-0.001586078
0.001421941
-0.00252842
0.00193424
-0.0002190048
0.002511497
-0.002993714
-0.001064069
0.004396881
-0.0101071
0.02510903
-0.01081946
0.001796702
-0.009958106
-0.002459871
-0.00959851
-0.0009439715
-0.009236672
-0.0009828736
-0.008966041
-0.000736354
-0.008715167
-0.0006817675
-0.008504061
-0.0005836923
-0.008136797
-0.0009260382
-0.0079798
-0.0004232212
-0.00783668
-0.0003733442
-0.007700573
-0.0003512216
-0.00757428
-0.000321131
-0.007449513
-0.0003146881
-0.007330162
-0.0003005617
-0.007212295
-0.0002931932
-0.007102358
-0.0002694916
-0.006994119
-0.0002594692
-0.00689013
-0.0002488649
-0.006785096
-0.0002494007
-0.006684938
-0.0002359283
-0.006584898
-0.0002328927
-0.00648801
-0.0002227694
-0.006394337
-0.0002105446
-0.006300015
-0.0002126344
-0.006206691
-0.0002115371
-0.006112741
-0.0002129676
-0.006021761
-0.0002040007
-0.005931722
-0.0001963554
-0.005845001
-0.0001858228
-0.005754565
-0.0001939249
-0.005666686
-0.0001895176
-0.005574967
-0.0001985607
-0.005487588
-0.0001847979
-0.005399442
-0.0001823573
-0.005309974
-0.000186411
-0.005219379
-0.0001888693
-0.005127328
-0.0001922051
-0.005035934
-0.0001859092
-0.004942195
-0.0001854962
-0.004957011
6.82421e-05
-0.004871134
-0.0001543686
-0.004790764
-0.0001552373
-0.004707076
-0.000160329
-0.004625877
-0.0001529444
-0.004540875
-0.0001602157
-0.004456902
-0.000156246
-0.004371101
-0.0001571609
-0.004284706
-0.0001575541
-0.004193663
-0.0001698329
-0.004101222
-0.0001734363
-0.00400909
-0.0001689083
-0.003914909
-0.0001693603
-0.003819474
-0.0001684956
-0.003717357
-0.0001844907
-0.003610379
-0.0001968977
-0.003501724
-0.0001973125
-0.003390304
-0.0002001373
-0.003270516
-0.0002176956
-0.003148544
-0.0002191637
-0.003017664
-0.0002362329
-0.00287877
-0.0002519785
-0.002730443
-0.0002677364
-0.002571325
-0.0002871919
-0.002383169
-0.0003544313
-0.002176069
-0.0003959088
-0.001960788
-0.0004033785
-0.001695625
-0.0005029527
-0.001334412
-0.0007233527
-0.0007403028
-0.00146772
0.0003406748
-0.003121977
0.001638084
-0.003325342
0.001748499
0.0007999692
0.001990577
-0.0002905258
0.002243839
-0.0006535612
0.002483641
-0.0007400775
0.002731671
-0.0006648241
0.00296731
-0.0005715672
0.003176186
-0.0004792747
0.003352742
-0.0003858244
0.00350751
-0.0003312189
0.003660368
-0.0003296049
0.003804469
-0.0003072927
0.00394245
-0.000288152
0.004068216
-0.0002552509
0.00418888
-0.0002416192
0.004302822
-0.0002270175
0.004416906
-0.0002289117
0.00452633
-0.0002172073
0.004630552
-0.0002027358
0.004731254
-0.0001959357
0.004832274
-0.00019919
0.004930021
-0.0001910352
0.00502452
-0.0001839899
0.005120714
-0.0001898202
0.005211404
-0.0001769362
0.005304304
-0.0001858505
0.005398011
-0.0001915803
0.005489751
-0.0001832361
0.005576634
-0.0001708142
0.005665559
-0.0001769996
0.005753026
-0.0001778573
0.005845081
-0.0001733863
0.005816517
9.546501e-05
0.005918952
-0.0002100733
0.006022441
-0.0002218485
0.006124354
-0.0002213643
0.006225795
-0.0002217358
0.006327811
-0.0002261792
0.006429528
-0.0002237906
0.006527269
-0.0002136079
0.00662776
-0.0002222712
0.006727996
-0.0002279406
0.006833573
-0.0002420637
0.006933461
-0.0002259828
0.007034396
-0.0002262629
0.007135308
-0.0002300383
0.007239431
-0.0002400169
0.007342945
-0.0002409424
0.007451055
-0.0002560095
0.007561228
-0.0002628936
0.007671748
-0.0002647182
0.007786311
-0.000274384
0.007896439
-0.0002636068
0.008016626
-0.0002935454
0.008136532
-0.0002978475
0.008262119
-0.0003124454
0.008390388
-0.0003241948
0.008523126
-0.0003362544
0.008661786
-0.0003577715
0.008809763
-0.0003853846
0.008960107
-0.0003937897
0.009119918
-0.0004219992
0.009294516
-0.0004671324
0.009486701
-0.0005260826
0.009921944
-0.001110227
0.0101809
-0.0007240545
0.01048753
-0.0008416095
0.0108309
-0.0009376099
0.0112863
-0.001238993
0.0117617
-0.001203106
0.01282763
-0.003132432
0.001380961
0.002167856
-0.001833986
0.0004660996
0.002605221
-0.0007278912
0.002999613
-0.001047954
0.003294568
-0.001035032
0.00355717
-0.0009274264
0.003812128
-0.0008265253
0.004046486
-0.0007136322
0.004249355
-0.0005886937
0.004428807
-0.0005106709
0.00460645
-0.0005072476
0.004773955
-0.0004747982
0.00493536
-0.0004495573
0.005083217
-0.0004031078
0.005225242
-0.000383644
0.005359501
-0.0003612764
0.00549353
-0.0003629404
0.005622649
-0.0003463268
0.005745366
-0.0003254522
0.00586431
-0.0003148801
0.005983253
-0.0003181329
0.006098419
-0.0003062016
0.006209736
-0.0002953066
0.006323292
-0.0003033765
0.006429968
-0.000283612
0.006539412
-0.0002952947
0.006649946
-0.0003021144
0.00675776
-0.0002910498
0.006860618
-0.0002736721
0.006965511
-0.0002818929
0.007068653
-0.0002809991
0.007178741
-0.0002834748
0.00714354
0.000130666
0.007262646
-0.0003291787
0.00738546
-0.0003446626
0.007504905
-0.00034081
0.007623802
-0.0003406329
0.007743463
-0.0003458396
0.007862453
-0.0003427802
0.007976874
-0.0003280291
0.008094335
-0.0003397324
0.008211479
-0.0003450849
0.008334864
-0.0003654483
0.00845151
-0.0003426292
0.00856949
-0.0003442426
0.008687692
-0.0003482403
0.008809373
-0.0003616981
0.008930362
-0.0003619313
0.00905703
-0.0003826773
0.009185897
-0.0003917604
0.00931539
-0.000394211
0.009449932
-0.0004089269
0.009578686
-0.00039236
0.009720346
-0.0004352056
0.009860792
-0.0004382934
0.010008
-0.0004596547
0.01015894
-0.0004751298
0.01031412
-0.0004914413
0.01047746
-0.0005211064
0.01065103
-0.0005589559
0.01082739
-0.0005701499
0.01101514
-0.0006097518
0.01122079
-0.0006727793
0.01168652
-0.0009918161
0.01196529
-0.001388994
0.01226943
-0.001028198
0.01263381
-0.001205986
0.0130542
-0.001358
0.0135979
-0.00178269
0.01425784
-0.001863047
0.01526487
-0.004139467
0.01505594
0.001589892
-0.01288209
0.01244668
0.002232106
-0.01207528
-0.003266674
-0.0115735
-0.001445758
-0.01114496
-0.001411405
-0.01081558
-0.001065738
-0.01051706
-0.0009802845
-0.01026902
-0.000831736
-0.01003724
-0.00115782
-0.00964493
-0.0008155298
-0.009475751
-0.0005425232
-0.009314205
-0.0005127672
-0.009164386
-0.0004709504
-0.00901617
-0.0004629044
-0.00887404
-0.0004426909
-0.00873361
-0.0004336233
-0.008601933
-0.0004011693
-0.008472463
-0.0003889393
-0.008347607
-0.0003737208
-0.008221397
-0.0003756107
-0.008100738
-0.0003565865
-0.0079803
-0.000353331
-0.007862933
-0.0003401365
-0.007749701
-0.0003237764
-0.007635415
-0.0003269206
-0.00752224
-0.0003247118
-0.007408398