/*--------------------------------*- C++ -*----------------------------------*\
| =========                 |                                                 |
| \\      /  F ield         | OpenFOAM: The Open Source CFD Toolbox           |
|  \\    /   O peration     | Version:  2406                                  |
|   \\  /    A nd           | Website:  www.openfoam.com                      |
|    \\/     M anipulation  |                                                 |
\*---------------------------------------------------------------------------*/
FoamFile
{
    version     2.0;
    format      ascii;
    arch        "LSB;label=32;scalar=64";
    class       surfaceScalarField;
    location    "0.28";
    object      phi;
}
// * * * * * * * * * * * * * * * * * * * * * * * * * * * * * * * * * * * * * //

dimensions      [0 3 -1 0 0 0 0];

oriented        oriented;

internalField   nonuniform List<scalar> 
7340
(
2.6729e-14
-4.343344e-14
1.670444e-14
1.894109e-14
7.787906e-15
1.771525e-14
1.225838e-15
1.607446e-14
1.640792e-15
1.600116e-14
7.330598e-17
1.492575e-14
1.075403e-15
1.487816e-14
4.759102e-17
1.439325e-14
4.849099e-16
1.368869e-14
7.04563e-16
1.37271e-14
-3.840713e-17
1.339985e-14
3.272433e-16
1.298796e-14
4.118917e-16
1.25282e-14
4.597646e-16
1.321978e-14
-6.915873e-16
1.329555e-14
-7.576454e-17
1.31641e-14
1.314462e-16
1.303997e-14
1.241293e-16
1.329932e-14
-2.593425e-16
1.387584e-14
-5.765248e-16
1.385534e-14
2.04976e-17
1.440609e-14
-5.507493e-16
1.536854e-14
-9.624478e-16
1.510103e-14
2.675066e-16
1.645203e-14
-1.350999e-15
2.821465e-14
-1.176262e-14
2.451206e-15
2.576345e-14
1.054071e-15
1.397135e-15
2.014489e-15
-9.60418e-16
1.243471e-15
7.710183e-16
1.054009e-15
1.894624e-16
8.01515e-16
2.524938e-16
5.326547e-16
2.688604e-16
3.605534e-16
1.721013e-16
4.068574e-16
-4.630391e-17
2.833194e-16
1.23538e-16
2.055871e-16
7.77323e-17
1.74056e-16
3.153114e-17
1.431892e-16
3.086691e-17
8.53799e-17
5.78093e-17
6.744095e-17
1.793898e-17
5.778917e-17
9.651814e-18
4.366707e-17
1.412212e-17
3.219225e-17
1.147484e-17
7.91455e-18
2.427772e-17
-8.268922e-18
1.618349e-17
-8.712166e-18
4.432648e-19
-2.51612e-17
1.644906e-17
-2.306204e-17
-2.099134e-18
-1.739249e-17
-5.669529e-18
-1.009866e-17
-7.293808e-18
-2.673688e-18
-7.424952e-18
2.252871e-18
-4.926535e-18
3.426195e-18
-1.173303e-18
4.063204e-18
-6.369832e-19
-1.537447e-18
5.600671e-18
1.615808e-18
-3.153232e-18
-2.733325e-17
2.894908e-17
-4.62015e-17
1.886827e-17
-6.033298e-17
1.413151e-17
-1.084637e-16
4.813075e-17
-1.047264e-16
-3.737263e-18
-1.022925e-16
-2.433899e-18
-1.194824e-16
1.71899e-17
-1.912877e-16
7.180536e-17
-2.641826e-16
7.289493e-17
-3.683183e-16
1.041357e-16
-4.797235e-16
1.114051e-16
-7.6646e-16
2.867365e-16
-9.42003e-16
1.755431e-16
-1.267731e-15
3.257281e-16
-1.768032e-15
5.003004e-16
-1.438129e-15
-3.299021e-16
-1.857102e-15
4.189729e-16
-2.824567e-14
2.638857e-14
-1.689872e-14
-1.134696e-14
-1.53479e-14
-1.550819e-15
-1.526384e-14
-8.40606e-17
-1.445525e-14
-8.08586e-16
-1.363319e-14
-8.22063e-16
-1.352174e-14
-1.114436e-16
-1.329601e-14
-2.257363e-16
-1.3277e-14
-1.900515e-17
-1.279587e-14
-4.811317e-16
-1.291347e-14
1.175984e-16
-1.306941e-14
1.559438e-16
-1.281036e-14
-2.590496e-16
-1.332789e-14
5.175254e-16
-1.3424e-14
9.611324e-17
-1.37229e-14
2.988977e-16
-1.38949e-14
1.720014e-16
-1.458107e-14
6.861715e-16
-1.504747e-14
4.664009e-16
-1.550839e-14
4.609187e-16
-1.53688e-14
-1.395933e-16
-1.593657e-14
5.677754e-16
-1.806801e-14
2.131432e-15
-1.981988e-14
1.751875e-15
-2.615398e-14
6.334094e-15
-4.295616e-14
1.680218e-14
-2.696832e-14
-1.598784e-14
-1.86611e-14
-8.307229e-15
-1.786849e-14
-7.926076e-16
-1.58098e-14
-2.05869e-15
-1.483273e-14
-9.770664e-16
-1.449487e-14
-3.378579e-16
-1.426199e-14
-2.328831e-16
-1.339744e-14
-8.64554e-16
-1.31466e-14
-2.508344e-16
-1.315772e-14
1.11162e-17
-1.241428e-14
-7.434355e-16
-1.181448e-14
-5.997981e-16
-1.161018e-14
-2.043071e-16
-1.195134e-14
3.411639e-16
-1.152375e-14
-4.275882e-16
-1.098553e-14
-5.382256e-16
-1.092943e-14
-5.609753e-17
-1.073911e-14
-1.903221e-16
-1.060404e-14
-1.350631e-16
-1.080116e-14
1.971175e-16
-1.081734e-14
1.617869e-17
-1.078881e-14
-2.853261e-17
-1.104166e-14
2.528501e-16
-1.07635e-14
-2.78154e-16
-1.069091e-14
-7.259562e-17
-1.060061e-14
-9.029598e-17
-1.057359e-14
-2.702165e-17
-1.080202e-14
2.284285e-16
-1.103153e-14
2.295142e-16
-1.106471e-14
3.317632e-17
-1.123771e-14
1.730013e-16
-1.131415e-14
7.643838e-17
-1.188184e-14
5.676915e-16
-1.303535e-14
1.153509e-15
-1.299369e-16
-1.290541e-14
1.295259e-14
-1.308253e-14
1.180158e-14
1.151016e-15
1.123575e-14
5.658276e-16
1.117052e-14
6.522756e-17
1.099891e-14
1.71614e-16
1.097041e-14
2.849567e-17
1.076546e-14
2.049466e-16
1.054583e-14
2.19636e-16
1.058476e-14
-3.892864e-17
1.069185e-14
-1.070937e-16
1.078639e-14
-9.453512e-17
1.108471e-14
-2.983267e-16
1.084505e-14
2.396621e-16
1.090437e-14
-5.931885e-17
1.091574e-14
-1.136977e-17
1.07341e-14
1.81634e-16
1.089886e-14
-1.647547e-16
1.105199e-14
-1.531276e-16
1.107074e-14
-1.875228e-17
1.157809e-14
-5.073477e-16
1.198598e-14
-4.078892e-16
1.164018e-14
3.457928e-16
1.184974e-14
-2.095574e-16
1.245363e-14
-6.038845e-16
1.319162e-14
-7.379943e-16
1.316845e-14
2.317352e-17
1.339975e-14
-2.313005e-16
1.421038e-14
-8.106361e-16
1.436717e-14
-1.567828e-16
1.466489e-14
-2.977205e-16
1.550912e-14
-8.44232e-16
1.79012e-14
-2.392083e-15
1.924511e-14
-1.343912e-15
2.61492e-14
-6.904086e-15
-1.728424e-14
4.516152e-14
4.363205e-16
-5.868037e-14
4.537583e-14
9.367083e-16
4.320975e-14
2.731912e-15
4.28832e-14
3.917712e-16
4.234787e-14
7.069449e-16
4.216961e-14
2.067555e-16
4.15142e-14
8.603598e-16
4.062664e-14
1.107193e-15
4.072246e-14
-1.347441e-16
4.111946e-14
-5.041012e-16
4.151543e-14
-4.904994e-16
4.255453e-14
-1.337432e-15
4.183278e-14
9.614111e-16
4.187792e-14
-1.044569e-16
4.208731e-14
-2.207577e-16
4.128401e-14
9.84931e-16
4.190742e-14
-7.881596e-16
4.256059e-14
-8.062944e-16
4.265993e-14
-1.180979e-16
4.44786e-14
-2.326016e-15
4.594807e-14
-1.877364e-15
4.493356e-14
1.360304e-15
4.57125e-14
-9.884899e-16
4.795355e-14
-2.844938e-15
5.056117e-14
-3.345618e-15
5.081324e-14
-2.289001e-16
5.174038e-14
-1.15844e-15
5.471191e-14
-3.782164e-15
5.550453e-14
-9.494047e-16
5.668444e-14
-1.47763e-15
6.016501e-14
-4.324795e-15
6.962065e-14
-1.184773e-14
7.490604e-14
-6.629294e-15
1.040501e-13
-3.604818e-14
1.559965e-13
-6.923063e-14
-1.066335e-13
1.537289e-13
-6.308326e-14
-7.324355e-14
-4.16972e-14
-6.94909e-14
-4.545258e-15
-6.269281e-14
-8.856781e-15
-5.744313e-14
-6.226744e-15
-5.59739e-14
-1.807092e-15
-5.491106e-14
-1.295722e-15
-5.173665e-14
-4.03897e-15
-5.073359e-14
-1.253886e-15
-5.043409e-14
-2.883829e-16
-4.780654e-14
-3.370986e-15
-4.557911e-14
-2.827237e-15
-4.481774e-14
-9.656708e-16
-4.581337e-14
1.336793e-15
-4.426897e-14
-1.971987e-15
-4.233546e-14
-2.47174e-15
-4.209085e-14
-3.007058e-16
-4.131384e-14
-9.673295e-16
-4.078625e-14
-6.626527e-16
-4.165811e-14
1.068977e-15
-4.15533e-14
-8.863272e-17
-4.161997e-14
3.813432e-17
-4.239592e-14
1.0288e-15
-4.143354e-14
-1.240536e-15
-4.112075e-14
-3.85379e-16
-4.078726e-14
-4.237845e-16
-4.073485e-14
-7.943322e-17
-4.166396e-14
1.157535e-15
-4.240394e-14
9.694921e-16
-4.260186e-14
2.310972e-16
-4.314527e-14
7.16414e-16
-4.351582e-14
4.469869e-16
-4.568565e-14
2.737524e-15
-4.560336e-14
1.071222e-15
-5.807246e-14
-7.444276e-14
9.564005e-14
-3.254424e-14
-6.000601e-14
-1.598757e-14
-5.972166e-14
-3.684128e-16
-5.632081e-14
-4.209438e-15
-5.319724e-14
-3.945633e-15
-5.228925e-14
-1.019428e-15
-5.157036e-14
-9.446283e-16
-5.130018e-14
-2.891846e-16
-4.963147e-14
-2.14984e-15
-4.985727e-14
3.433908e-16
-5.039778e-14
6.96458e-16
-4.950888e-14
-1.147946e-15
-5.124942e-14
2.258059e-15
-5.186893e-14
7.156217e-16
-5.291021e-14
1.340185e-15
-5.371827e-14
9.800561e-16
-5.610705e-14
3.074958e-15
-5.809408e-14
2.453428e-15
-5.974474e-14
2.111576e-15
-5.957644e-14
-3.078916e-16
-6.189091e-14
2.882242e-15
-7.012915e-14
1.036968e-14
-7.703657e-14
8.659291e-15
-1.037383e-13
3.303584e-14
6.679281e-14
2.440226e-14
-9.577466e-14
9.713585e-14
5.773473e-15
2.002592e-14
8.454446e-15
-3.641391e-15
5.612429e-15
3.613036e-15
4.531782e-15
1.270109e-15
3.454543e-15
1.329733e-15
2.379606e-15
1.343797e-15
1.661958e-15
8.897496e-16
1.68821e-15
-7.255522e-17
1.252417e-15
5.593303e-16
9.136975e-16
4.164521e-16
7.736251e-16
1.716036e-16
6.276135e-16
1.768786e-16
4.083883e-16
2.770345e-16
3.191362e-16
1.071911e-16
2.693546e-16
5.943354e-17
2.082772e-16
7.519951e-17
1.553378e-16
6.441435e-17
5.944637e-17
1.201692e-16
-4.912267e-18
8.054217e-17
-1.860329e-17
1.413433e-17
-7.795374e-17
7.579956e-17
-8.079482e-17
7.419805e-19
-6.329699e-17
-2.316731e-17
-4.173487e-17
-2.885588e-17
-1.752192e-17
-3.163786e-17
-4.718091e-18
-1.773032e-17
-4.326516e-18
-1.564839e-18
-9.173472e-18
4.210022e-18
-3.210983e-17
2.853707e-17
-3.479387e-17
-4.691511e-19
-1.427891e-16
1.369444e-16
-2.248715e-16
1.009506e-16
-3.01593e-16
9.085313e-17
-4.768489e-16
2.233866e-16
-4.865759e-16
5.98983e-18
-4.95841e-16
6.831187e-18
-5.953823e-16
1.167312e-16
-8.789769e-16
3.554e-16
-1.209342e-15
4.032602e-16
-1.630857e-15
5.256502e-16
-2.19999e-15
6.805386e-16
-3.270948e-15
1.357695e-15
-4.180177e-15
1.084772e-15
-5.546345e-15
1.691897e-15
-7.830877e-15
2.784833e-15
-6.66818e-15
-1.4926e-15
-2.25344e-14
1.62852e-14
9.949422e-14
1.057956e-13
6.690533e-14
7.439157e-14
3.919197e-14
7.03658e-14
5.251607e-15
6.25566e-14
9.449991e-15
6.164655e-14
9.833594e-16
5.790524e-14
4.816708e-15
5.727022e-14
6.826164e-16
5.549279e-14
2.262341e-15
5.289295e-14
3.304404e-15
5.27942e-14
6.033389e-17
5.171885e-14
1.402596e-15
5.005149e-14
2.079259e-15
4.859438e-14
1.916871e-15
5.099817e-14
-3.095377e-15
5.135729e-14
-4.348817e-16
5.080059e-14
6.881458e-16
5.043487e-14
4.898432e-16
5.161305e-14
-1.437519e-15
5.362908e-14
-2.592558e-15
5.398781e-14
-3.382296e-16
5.616927e-14
-2.732205e-15
5.997504e-14
-4.768222e-15
5.907552e-14
1.167024e-15
7.278828e-14
-1.506376e-14
-3.4749e-14
2.355899e-13
-3.278824e-13
1.591978e-13
1.67745e-13
1.070369e-13
1.562547e-13
1.674189e-14
1.388637e-13
2.684094e-14
1.35892e-13
3.955112e-15
1.280228e-13
1.268595e-14
1.26036e-13
2.669335e-15
1.221652e-13
6.133192e-15
1.165859e-13
8.883689e-15
1.160681e-13
5.780909e-16
1.138971e-13
3.573591e-15
1.102715e-13
5.704871e-15
1.074685e-13
4.719951e-15
1.125014e-13
-8.128343e-15
1.132832e-13
-1.21663e-15
1.120383e-13
1.933035e-15
1.114763e-13
1.051772e-15
1.143785e-13
-4.339713e-15
1.186932e-13
-6.907233e-15
1.200854e-13
-1.730387e-15
1.253758e-13
-8.022592e-15
1.335812e-13
-1.297366e-14
1.34077e-13
6.71242e-16
1.689198e-13
-4.990662e-14
1.944624e-13
-6.029157e-14
7.272179e-14
2.188765e-13
1.902437e-14
7.372334e-14
2.010054e-14
-4.717561e-15
1.403456e-14
9.679016e-15
1.098757e-14
4.317104e-15
8.385802e-15
3.931499e-15
5.922464e-15
3.807135e-15
4.195097e-15
2.617116e-15
4.019439e-15
1.031035e-16
3.07661e-15
1.502159e-15
2.276421e-15
1.216641e-15
1.918057e-15
5.299683e-16
1.554117e-15
5.40818e-16
1.063065e-15
7.680869e-16
8.326439e-16
3.376125e-16
6.954518e-16
1.966257e-16
5.445667e-16
2.260847e-16
4.11875e-16
1.971061e-16
1.943433e-16
3.377009e-16
4.488188e-17
2.300037e-16
-3.423349e-18
6.243963e-17
-1.34349e-16
2.067252e-16
-1.580368e-16
2.442994e-17
-1.321898e-16
-4.901431e-17
-9.724722e-17
-6.379837e-17
-5.489947e-17
-7.398554e-17
-3.887684e-17
-3.375287e-17
-4.905357e-17
8.611962e-18
-7.239184e-17
2.754837e-17
-1.317407e-16
8.788596e-17
-1.605824e-16
2.83726e-17
-3.986363e-16
3.749984e-16
-6.0026e-16
3.025744e-16
-8.051172e-16
2.957104e-16
-1.187443e-15
6.057127e-16
-1.245609e-15
6.415575e-17
-1.31256e-15
7.378212e-17
-1.587853e-15
3.920245e-16
-2.247628e-15
1.015175e-15
-3.05286e-15
1.208492e-15
-4.066299e-15
1.539089e-15
-5.525701e-15
2.13994e-15
-7.942084e-15
3.774077e-15
-1.027259e-14
3.41528e-15
-1.37547e-14
5.174003e-15
-1.904014e-14
8.070275e-15
-2.032152e-14
-2.112206e-16
-6.90279e-14
6.499157e-14
-1.938382e-13
2.243045e-13
-1.723292e-13
-5.405329e-14
-1.361835e-13
-5.213321e-14
-1.332164e-13
-3.335559e-15
-1.257183e-13
-1.170751e-14
-1.184656e-13
-1.119833e-14
-1.157692e-13
-3.715818e-15
-1.141811e-13
-2.532746e-15
-1.134033e-13
-1.066954e-15
-1.098637e-13
-5.689444e-15
-1.099964e-13
4.760722e-16
-1.110686e-13
1.768657e-15
-1.091644e-13
-3.05219e-15
-1.126865e-13
5.780217e-15
-1.143232e-13
2.352278e-15
-1.165831e-13
3.600131e-15
-1.184437e-13
2.840579e-15
-1.234081e-13
8.039451e-15
-1.279655e-13
7.010827e-15
-1.315872e-13
5.733277e-15
-1.317445e-13
-1.506244e-16
-1.375329e-13
8.670578e-15
-1.588349e-13
3.16717e-14
-1.726903e-13
2.251474e-14
-2.312036e-13
9.154908e-14
-3.22681e-13
1.582702e-13
-2.371657e-13
-1.485986e-13
-1.650731e-13
-1.137898e-13
-1.540467e-13
-1.557164e-14
-1.39119e-13
-2.378447e-14
-1.269436e-13
-1.840214e-14
-1.233605e-13
-5.39017e-15
-1.207806e-13
-3.875701e-15
-1.140006e-13
-1.081898e-14
-1.116644e-13
-3.590012e-15
-1.105037e-13
-1.449119e-15
-1.050192e-13
-8.855499e-15
-1.003642e-13
-7.482192e-15
-9.865162e-14
-2.678271e-15
-1.003573e-13
3.042488e-15
-9.707088e-14
-5.258432e-15
-9.309392e-14
-6.448692e-15
-9.253428e-14
-8.603525e-16
-9.073409e-14
-2.767514e-15
-8.960615e-14
-1.790597e-15
-9.164826e-14
3.111091e-15
-9.124843e-14
-4.884694e-16
-9.15784e-14
3.681066e-16
-9.306846e-14
2.518864e-15
-9.105266e-14
-3.256342e-15
-9.035403e-14
-1.084007e-15
-8.965694e-14
-1.120876e-15
-8.968103e-14
-5.534153e-17
-9.177928e-14
3.255787e-15
-9.325752e-14
2.447724e-15
-9.372938e-14
7.029639e-16
-9.478512e-14
1.772151e-15
-9.576238e-14
1.424246e-15
-9.948315e-14
6.458296e-15
-9.099127e-14
-7.420656e-15
-8.81331e-16
-1.481824e-13
8.98836e-14
-1.494453e-13
9.87674e-14
-7.947082e-15
9.508095e-14
6.41836e-15
9.420048e-14
1.272238e-15
9.316922e-14
1.738208e-15
9.273873e-14
6.372406e-16
9.143434e-14
2.164751e-15
8.943693e-14
3.104604e-15
8.950643e-14
-2.042406e-16
9.033974e-14
-1.337414e-15
9.121876e-14
-1.369517e-15
9.340314e-14
-3.521814e-15
9.203529e-14
2.329263e-15
9.193975e-14
-8.925308e-18
9.256926e-14
-8.502592e-16
9.06862e-14
2.867985e-15
9.200405e-14
-2.106007e-15
9.355634e-14
-2.358583e-15
9.380113e-14
-3.628904e-16
9.753034e-14
-6.05523e-15
1.00655e-13
-5.001983e-15
9.890563e-14
3.109639e-15
1.006521e-13
-2.734922e-15
1.053337e-13
-7.526528e-15
1.107757e-13
-8.787643e-15
1.118311e-13
-1.284293e-15
1.139984e-13
-3.325721e-15
1.20349e-13
-1.013283e-14
1.223559e-13
-2.956285e-15
1.252398e-13
-4.361583e-15
1.364358e-13
-1.552074e-14
1.544003e-13
-2.981225e-14
1.679928e-13
-2.022182e-14
2.322617e-13
-1.00317e-13
-1.648513e-13
1.49084e-13
1.557676e-15
-3.00087e-13
1.795701e-13
-3.843317e-14
1.767043e-13
9.284141e-15
1.750471e-13
2.929465e-15
1.733526e-13
3.432679e-15
1.726331e-13
1.356713e-15
1.703645e-13
4.433377e-15
1.666063e-13
6.862765e-15
1.664287e-13
-2.658274e-17
1.678906e-13
-2.799385e-15
1.694879e-13
-2.966772e-15
1.735051e-13
-7.539041e-15
1.711832e-13
4.651147e-15
1.708082e-13
3.661254e-16
1.72148e-13
-2.190082e-15
1.685256e-13
6.490427e-15
1.708384e-13
-4.418789e-15
1.739447e-13
-5.464949e-15
1.744208e-13
-8.389976e-16
1.808209e-13
-1.245533e-14
1.865402e-13
-1.072125e-14
1.84069e-13
5.580785e-15
1.874789e-13
-6.144811e-15
1.956143e-13
-1.566193e-14
2.053796e-13
-1.855286e-14
2.081187e-13
-4.023411e-15
2.12475e-13
-7.682059e-15
2.240841e-13
-2.174189e-14
2.282049e-13
-7.077106e-15
2.34285e-13
-1.04417e-14
2.57027e-13
-3.826276e-14
2.896729e-13
-6.245808e-14
3.206709e-13
-5.121984e-14
4.338906e-13
-2.135368e-13
5.879079e-13
-3.188686e-13
-4.420227e-13
5.783372e-13
-2.849131e-13
-3.16201e-13
-2.396114e-13
-2.889054e-13
-4.286725e-14
-2.610936e-13
-5.159635e-14
-2.372322e-13
-4.22635e-14
-2.300379e-13
-1.258444e-14
-2.24866e-13
-9.047675e-15
-2.124995e-13
-2.318542e-14
-2.078258e-13
-8.263728e-15
-2.048897e-13
-4.38522e-15
-1.950469e-13
-1.869828e-14
-1.869554e-13
-1.557369e-14
-1.835996e-13
-6.034146e-15
-1.859857e-13
5.428596e-15
-1.799727e-13
-1.127141e-14
-1.731178e-13
-1.330361e-14
-1.720732e-13
-1.904902e-15
-1.685365e-13
-6.304203e-15
-1.665553e-13
-3.771874e-15
-1.704804e-13
7.036229e-15
-1.695704e-13
-1.398455e-15
-1.703609e-13
1.15861e-15
-1.729114e-13
5.069399e-15
-1.692097e-13
-6.958136e-15
-1.679428e-13
-2.350835e-15
-1.667259e-13
-2.337845e-15
-1.670773e-13
2.960749e-16
-1.710349e-13
7.213399e-15
-1.736109e-13
5.023775e-15
-1.743979e-13
1.489901e-15
-1.761542e-13
3.528461e-15
-1.779929e-13
3.262988e-15
-1.810121e-13
9.477485e-15
-1.512712e-13
-3.716157e-14
-2.978959e-13
-3.247254e-13
3.424477e-13
-7.177557e-14
-2.644985e-13
-1.123601e-13
-2.51866e-13
-1.596811e-14
-2.383505e-13
-2.522295e-14
-2.235398e-13
-2.60091e-14
-2.173542e-13
-9.901432e-15
-2.140198e-13
-5.867061e-15
-2.124537e-13
-2.633052e-15
-2.058491e-13
-1.229411e-14
-2.054628e-13
8.977164e-17
-2.072351e-13
3.540981e-15
-2.035962e-13
-6.691094e-15
-2.097833e-13
1.196732e-14
-2.131196e-13
5.688528e-15
-2.174871e-13
7.967721e-15
-2.208685e-13
6.221901e-15
-2.297799e-13
1.695092e-14
-2.384264e-13
1.565731e-14
-2.454414e-13
1.274824e-14
-2.465403e-13
9.482907e-16
-2.590321e-13
2.116239e-14
-2.984608e-13
7.110041e-14
-3.292548e-13
5.330876e-14
-4.313632e-13
1.936574e-13
3.052443e-13
1.586935e-13
-3.440028e-13
4.041858e-13
5.253667e-14
1.798802e-13
4.152534e-14
6.293768e-15
2.993432e-14
2.127004e-14
2.282923e-14
1.14222e-14
1.739387e-14
9.366857e-15
1.254848e-14
8.65252e-15
8.967791e-15
6.197809e-15
8.229712e-15
8.411834e-16
6.410904e-15
3.320967e-15
4.828839e-15
2.798706e-15
4.042132e-15
1.316676e-15
3.285533e-15
1.297417e-15
2.330441e-15
1.723179e-15
1.837926e-15
8.301278e-16
1.521719e-15
5.128335e-16
1.201849e-15
5.459544e-16
9.223943e-16
4.765609e-16
5.00156e-16
7.599393e-16
2.00834e-16
5.293258e-16
8.073706e-17
1.825367e-16
-1.746636e-16
4.621261e-16
-2.495397e-16
9.930609e-17
-2.31979e-16
-6.657483e-17
-1.921044e-16
-1.036729e-16
-1.382e-16
-1.278898e-16
-1.333703e-16
-3.858245e-17
-1.786095e-16
5.385125e-17
-2.461751e-16
9.51141e-17
-3.828604e-16
2.245714e-16
-4.751539e-16
1.206662e-16
-9.299943e-16
8.29839e-16
-1.352768e-15
7.253485e-16
-1.799078e-15
7.420198e-16
-2.528433e-15
1.335068e-15
-2.702002e-15
2.377248e-16
-2.936013e-15
3.077939e-16
-3.555293e-15
1.011304e-15
-4.890302e-15
2.350185e-15
-6.539407e-15
2.857597e-15
-8.672168e-15
3.671851e-15
-1.175014e-14
5.217915e-15
-1.65555e-14
8.579432e-15
-2.149806e-14
8.357847e-15
-2.935904e-14
1.303497e-14
-3.977037e-14
1.848161e-14
-5.415893e-14
1.417733e-14
-1.523426e-13
1.631753e-13
4.144096e-13
4.393538e-13
3.07752e-13
3.21185e-13
2.252057e-13
2.934021e-13
4.452479e-14
2.607432e-13
5.949986e-14
2.538449e-13
1.085343e-14
2.393735e-13
2.715732e-14
2.348643e-13
7.178487e-15
2.275679e-13
1.342967e-14
2.173322e-13
1.911932e-14
2.160063e-13
1.904027e-15
2.121675e-13
7.412375e-15
2.057282e-13
1.214417e-14
2.010486e-13
9.399508e-15
2.10211e-13
-1.729073e-14
2.114776e-13
-2.483223e-15
2.091999e-13
4.210759e-15
2.08657e-13
1.594718e-15
2.146476e-13
-1.033031e-14
2.227872e-13
-1.504691e-14
2.26325e-13
-5.268155e-15
2.375773e-13
-1.927492e-14
2.522919e-13
-2.768825e-14
2.603881e-13
-7.424931e-15
3.189646e-13
-1.084831e-13
-8.53298e-14
7.524252e-13
-9.725506e-13
5.278774e-13
5.680326e-13
4.095983e-13
5.091666e-13
1.033908e-13
4.521991e-13
1.164673e-13
4.382024e-13
2.485015e-14
4.132514e-13
5.21083e-14
4.041829e-13
1.624706e-14
3.913324e-13
2.628017e-14
3.738806e-13
3.657105e-14
3.711118e-13
4.672897e-15
3.64863e-13
1.366111e-14
3.544691e-13
2.253805e-14
3.473338e-13
1.653483e-14
3.628634e-13
-3.282035e-14
3.646015e-13
-4.221232e-15
3.607939e-13
8.018318e-15
3.608553e-13
1.533342e-15
3.724041e-13
-2.187918e-14
3.868553e-13
-2.949806e-14
3.947952e-13
-1.320807e-14
4.168532e-13
-4.133287e-14
4.420336e-13
-5.286867e-14
4.664647e-13
-3.185607e-14
5.455505e-13
-1.875689e-13
5.641504e-13
-1.039296e-13
3.025964e-13
6.657397e-13
1.246766e-13
3.577999e-13
8.267624e-14
4.829413e-14
5.961858e-14
4.43277e-14
4.452534e-14
2.651544e-14
3.37169e-14
2.01753e-14
2.476045e-14
1.760897e-14
1.784414e-14
1.311412e-14
1.578663e-14
2.898697e-15
1.243479e-14
6.6728e-15
9.524349e-15
5.709149e-15
7.931042e-15
2.909984e-15
6.469585e-15
2.758873e-15
4.72309e-15
3.469675e-15
3.753887e-15
1.799331e-15
3.086347e-15
1.180374e-15
2.453702e-15
1.1786e-15
1.90853e-15
1.021733e-15
1.141927e-15
1.526542e-15
5.821047e-16
1.089149e-15
3.209202e-16
4.437213e-16
-1.500845e-16
9.33131e-16
-3.377434e-16
2.869651e-16
-3.708276e-16
-3.349046e-17
-3.525862e-16
-1.219141e-16
-3.110221e-16
-1.694537e-16
-3.532435e-16
3.639084e-18
-4.865713e-16
1.871793e-16
-6.499146e-16
2.584575e-16
-9.433496e-16
5.180066e-16
-1.171444e-15
3.487604e-16
-1.987301e-15
1.645696e-15
-2.814128e-15
1.552176e-15
-3.706572e-15
1.634464e-15
-5.017554e-15
2.64605e-15
-5.445003e-15
6.651738e-16
-6.073306e-15
9.360971e-16
-7.347279e-15
2.285277e-15
-9.885189e-15
4.888095e-15
-1.303905e-14
6.011462e-15
-1.725452e-14
7.88732e-15
-2.326574e-14
1.122913e-14
-3.228849e-14
1.760218e-14
-4.218244e-14
1.82518e-14
-5.865197e-14
2.950451e-14
-7.982946e-14
3.96591e-14
-1.263856e-13
6.073347e-14
-2.925214e-13
3.293111e-13
-5.611093e-13
6.829975e-13
-5.541655e-13
-7.871933e-14
-4.739456e-13
-1.9258e-13
-4.416764e-13
-4.823729e-14
-4.185737e-13
-4.832561e-14
-3.904666e-13
-5.411629e-14
-3.774537e-13
-2.29143e-14
-3.707346e-13
-1.258619e-14
-3.679292e-13
-5.438411e-15
-3.563841e-13
-2.383921e-14
-3.544766e-13
-1.817768e-15
-3.571134e-13
6.177779e-15
-3.504995e-13
-1.330496e-14
-3.606218e-13
2.208958e-14
-3.667397e-13
1.18065e-14
-3.746498e-13
1.587774e-14
-3.801653e-13
1.173747e-14
-3.949892e-13
3.177479e-14
-4.100626e-13
3.073075e-14
-4.228963e-13
2.55819e-14
-4.261349e-13
4.186925e-15
-4.50659e-13
4.568643e-14
-5.178676e-13
1.38309e-13
-5.797678e-13
1.15209e-13
-7.38991e-13
3.528806e-13
-9.568526e-13
5.231059e-13
-7.567255e-13
-4.850402e-13
-5.595976e-13
-4.367392e-13
-5.009242e-13
-1.015407e-13
-4.525575e-13
-9.996302e-14
-4.093102e-13
-8.551082e-14
-3.960308e-13
-2.586381e-14
-3.865346e-13
-1.854387e-14
-3.656109e-13
-4.410919e-14
-3.568962e-13
-1.697837e-14
-3.505707e-13
-1.071078e-14
-3.341421e-13
-3.512679e-14
-3.213667e-13
-2.834911e-14
-3.152622e-13
-1.213868e-14
-3.179816e-13
8.148042e-15
-3.077586e-13
-2.149446e-14
-2.970249e-13
-2.403733e-14
-2.952535e-13
-3.676306e-15
-2.888275e-13
-1.273013e-14
-2.856937e-13
-6.905719e-15
-2.92587e-13
1.392951e-14
-2.907876e-13
-3.197871e-15
-2.924076e-13
2.778686e-15
-2.965015e-13
9.163315e-15
-2.901174e-13
-1.334226e-14
-2.880114e-13
-4.456862e-15
-2.861186e-13
-4.230647e-15
-2.873241e-13
1.50156e-15
-2.942077e-13
1.409698e-14
-2.983232e-13
9.139282e-15
-2.993209e-13
2.48759e-15
-3.018733e-13
6.080889e-15
-3.040423e-13
5.431976e-15
-2.993323e-13
4.767527e-15
-2.272961e-13
-1.091978e-13
-2.554502e-15
-5.226375e-13
2.234273e-13
-5.260688e-13
2.966406e-13
-1.116464e-13
3.017674e-13
4.157371e-15
2.999317e-13
4.765094e-15
2.975187e-13
5.845734e-15
2.96616e-13
2.25945e-15
2.930025e-13
8.046847e-15
2.864789e-13
1.338637e-14
2.855728e-13
8.7952e-16
2.878691e-13
-5.095744e-15
2.905326e-13
-5.630218e-15
2.974633e-13
-1.446977e-14
2.937602e-13
8.354281e-15
2.928149e-13
1.311426e-15
2.953591e-13
-4.734313e-15
2.889968e-13
1.285274e-14
2.92673e-13
-8.094979e-15
2.984026e-13
-1.119452e-14
2.992341e-13
-1.670518e-15
3.091967e-13
-2.241796e-14
3.189308e-13
-2.045533e-14
3.160595e-13
8.452031e-15
3.222412e-13
-1.232644e-14
3.350821e-13
-2.850286e-14
3.513796e-13
-3.485037e-14
3.573651e-13
-1.000889e-14
3.655326e-13
-1.584956e-14
3.852375e-13
-4.14468e-14
3.929363e-13
-1.477594e-14
4.045338e-13
-2.203921e-14
4.469881e-13
-8.071705e-14
5.021277e-13
-1.175976e-13
5.658271e-13
-1.149192e-13
7.442785e-13
-3.919883e-13
-5.471407e-13
3.117189e-13
3.981656e-15
-8.417694e-13
4.588256e-13
-2.587531e-13
4.883634e-13
-2.538045e-14
4.896667e-13
3.46183e-15
4.870962e-13
8.416246e-15
4.865661e-13
2.789479e-15
4.813477e-13
1.326525e-14
4.704547e-13
2.427942e-14
4.678326e-13
3.501618e-15
4.710636e-13
-8.326765e-15
4.75322e-13
-9.888591e-15
4.869571e-13
-2.610488e-14
4.813108e-13
1.400055e-14
4.79123e-13
3.49924e-15
4.837485e-13
-9.359848e-15
4.731352e-13
2.346604e-14
4.78562e-13
-1.352176e-14
4.886692e-13
-2.130175e-14
4.900254e-13
-3.026711e-15
5.044638e-13
-3.68563e-14
5.203693e-13
-3.636087e-14
5.180806e-13
1.074076e-14
5.287573e-13
-2.300313e-14
5.477295e-13
-4.747508e-14
5.738993e-13
-6.102018e-14
5.85801e-13
-2.191056e-14
6.005977e-13
-3.064633e-14
6.327169e-13
-7.3566e-14
6.46291e-13
-2.834998e-14
6.673435e-13
-4.309171e-14
7.429605e-13
-1.563341e-13
8.327902e-13
-2.074274e-13
9.528747e-13
-2.350037e-13
1.214265e-12
-6.533784e-13
1.531218e-12
-8.640937e-13
-1.23227e-12
1.507464e-12
-7.602342e-13
-9.448808e-13
-7.241288e-13
-8.3132e-13
-2.151015e-13
-7.498003e-13
-1.814827e-13
-6.747303e-13
-1.605807e-13
-6.512923e-13
-4.930183e-14
-6.347564e-13
-3.507984e-14
-6.007852e-13
-7.80804e-14
-5.850988e-13
-3.266469e-14
-5.726336e-13
-2.317597e-14
-5.462525e-13
-6.150797e-14
-5.273714e-13
-4.723018e-14
-5.167955e-13
-2.27146e-14
-5.188286e-13
1.01812e-14
-5.021508e-13
-3.817234e-14
-4.864663e-13
-3.972177e-14
-4.836326e-13
-6.50999e-15
-4.7244e-13
-2.392276e-14
-4.678671e-13
-1.147861e-14
-4.793797e-13
2.544207e-14
-4.759892e-13
-6.588325e-15
-4.79212e-13
6.001487e-15
-4.854903e-13
1.544161e-14
-4.747629e-13
-2.40697e-14
-4.714004e-13
-7.819311e-15
-4.687983e-13
-6.832776e-15
-4.719136e-13
4.616853e-15
-4.834241e-13
2.56075e-14
-4.894215e-13
1.513664e-14
-4.900676e-13
3.133709e-15
-4.92934e-13
8.947252e-15
-4.922499e-13
4.747854e-15
-4.635884e-13
-2.389388e-14
-3.181221e-13
-2.546642e-13
-8.367779e-13
-8.902949e-13
8.754558e-13
-6.388021e-14
-8.061914e-13
-2.766836e-13
-7.432396e-13
-1.11189e-13
-7.04684e-13
-8.688121e-14
-6.539933e-13
-1.048071e-13
-6.273968e-13
-4.951076e-14
-6.142887e-13
-2.569425e-14
-6.094719e-13
-1.025525e-14
-5.90207e-13
-4.310415e-14
-5.84397e-13
-7.627761e-15
-5.880726e-13
9.853369e-15
-5.763383e-13
-2.503926e-14
-5.922283e-13
3.797967e-14
-6.028603e-13
2.243849e-14
-6.165523e-13
2.956969e-14
-6.250275e-13
2.021271e-14
-6.484892e-13
5.523642e-14
-6.736538e-13
5.58954e-14
-6.964711e-13
4.839923e-14
-7.039975e-13
1.171325e-14
-7.495454e-13
9.123436e-14
-8.594149e-13
2.481785e-13
-9.738967e-13
2.296908e-13
-1.204127e-12
5.831111e-13
8.26443e-13
5.329165e-13
-8.802037e-13
1.013027e-12
2.651375e-13
6.25579e-13
1.62934e-13
1.504976e-13
1.151017e-13
9.215995e-14
8.447109e-14
5.714608e-14
6.325645e-14
4.138994e-14
4.709672e-14
3.376871e-14
3.42659e-14
2.594493e-14
2.933804e-14
7.826561e-15
2.327661e-14
1.273423e-14
1.80721e-14
1.091366e-14
1.500086e-14
5.981223e-15
1.227262e-14
5.487114e-15
9.168045e-15
6.574249e-15
7.342962e-15
3.624414e-15
6.004714e-15
2.518623e-15
4.798841e-15
2.384473e-15
3.777198e-15
2.043376e-15
2.426882e-15
2.876859e-15
1.416992e-15
2.099039e-15
8.880564e-16
9.72657e-16
4.387093e-17
1.777317e-15
-3.78407e-16
7.092434e-16
-5.557536e-16
1.438564e-16
-6.230984e-16
-5.4569e-17
-6.540984e-16
-1.384534e-16
-8.223553e-16
1.718964e-16
-1.153228e-15
5.180522e-16
-1.511464e-15
6.16694e-16
-2.113231e-15
1.119773e-15
-2.612016e-15
8.475462e-16
-4.032686e-15
3.066366e-15
-5.593955e-15
3.113447e-15
-7.305543e-15
3.346052e-15
-9.59359e-15
4.934097e-15
-1.055177e-14
1.623355e-15
-1.20241e-14
2.408422e-15
-1.45229e-14
4.784078e-15
-1.92031e-14
9.568303e-15
-2.506423e-14
1.187259e-14
-3.312532e-14
1.594841e-14
-4.449093e-14
2.259474e-14
-6.095705e-14
3.40683e-14
-8.05382e-14
3.783295e-14
-1.136264e-13
6.259274e-14
-1.585115e-13
8.454413e-14
-2.666119e-13
1.688339e-13
-5.177071e-13
5.804063e-13
1.040746e-12
1.225723e-12
8.333718e-13
9.58546e-13
6.767757e-13
8.453916e-13
2.165453e-13
7.495725e-13
2.122863e-13
7.233065e-13
5.111624e-14
6.817734e-13
9.364131e-14
6.645786e-13
3.344194e-14
6.428052e-13
4.805355e-14
6.141341e-13
6.524216e-14
6.089121e-13
9.894911e-15
5.994735e-13
2.309967e-14
5.835608e-13
3.845071e-14
5.735572e-13
2.653847e-14
5.987187e-13
-5.798184e-14
6.00733e-13
-6.235502e-15
5.946505e-13
1.410076e-14
5.967059e-13
-5.220224e-16
6.184703e-13
-4.364356e-14
6.432048e-13
-5.42326e-14
6.601077e-13
-3.011099e-14
7.009516e-13
-8.217672e-14
7.4331e-13
-9.522712e-14
7.928348e-13
-8.138082e-14
8.788814e-13
-2.736156e-13
-1.052519e-13
1.933081e-12
-2.329842e-12
1.230133e-12
1.567054e-12
1.042802e-12
1.366278e-12
4.173214e-13
1.207581e-12
3.709833e-13
1.162195e-12
9.650217e-14
1.093107e-12
1.627296e-13
1.061694e-12
6.485488e-14
1.026628e-12
8.311903e-14
9.793531e-13
1.125175e-13
9.702588e-13
1.89892e-14
9.570676e-13
3.629087e-14
9.342837e-13
6.123459e-14
9.20459e-13
4.036321e-14
9.61172e-13
-9.869484e-14
9.621217e-13
-7.18517e-15
9.52638e-13
2.358442e-14
9.597351e-13
-7.619123e-15
1.000324e-12
-8.423278e-14
1.042785e-12
-9.669279e-14
1.076073e-12
-6.339936e-14
1.150411e-12
-1.565147e-13
1.218069e-12
-1.628854e-13
1.295408e-12
-1.587194e-13
1.361476e-12
-3.396835e-13
1.32288e-12
-6.665661e-14
8.919056e-13
1.444002e-12
5.182557e-13
9.992289e-13
3.181795e-13
3.505738e-13
2.198264e-13
1.90513e-13
1.586513e-13
1.183213e-13
1.169223e-13
8.311895e-14
8.800966e-14
6.268129e-14
6.452384e-14
4.943076e-14
5.37558e-14
1.85946e-14
4.277674e-14
2.371329e-14
3.354751e-14
2.01429e-14
2.782357e-14
1.170516e-14
2.281033e-14
1.050035e-14
1.734382e-14
1.204076e-14
1.399784e-14
6.970399e-15
1.139755e-14
5.118908e-15
9.144927e-15
4.6371e-15
7.276856e-15
3.911447e-15
4.923529e-15
5.230187e-15
3.130943e-15
3.891625e-15
2.117402e-15
1.986199e-15
6.175392e-16
3.27718e-15
-2.748192e-16
1.601602e-15
-7.886305e-16
6.576683e-16
-1.081172e-15
2.379736e-16
-1.313324e-15
9.369871e-17
-1.774009e-15
6.325814e-16
-2.517972e-15
1.262017e-15
-3.265566e-15
1.364289e-15
-4.45682e-15
2.311029e-15
-5.467724e-15
1.858451e-15
-7.917256e-15
5.5159e-15
-1.080737e-14
6.003563e-15
-1.401952e-14
6.558203e-15
-1.798853e-14
8.90311e-15
-1.999124e-14
3.626063e-15
-2.318005e-14
5.597235e-15
-2.793554e-14
9.53957e-15
-3.646869e-14
1.810145e-14
-4.725236e-14
2.265626e-14
-6.240212e-14
3.109817e-14
-8.356309e-14
4.375572e-14
-1.134442e-13
6.394946e-14
-1.521582e-13
7.65469e-14
-2.176053e-13
1.280398e-13
-3.111364e-13
1.780752e-13
-5.199469e-13
3.776444e-13
-8.702003e-13
9.306597e-13
-1.318031e-12
1.488577e-12