/*--------------------------------*- C++ -*----------------------------------*\
| =========                 |                                                 |
| \\      /  F ield         | OpenFOAM: The Open Source CFD Toolbox           |
|  \\    /   O peration     | Version:  2406                                  |
|   \\  /    A nd           | Website:  www.openfoam.com                      |
|    \\/     M anipulation  |                                                 |
\*---------------------------------------------------------------------------*/
FoamFile
{
    version     2.0;
    format      ascii;
    arch        "LSB;label=32;scalar=64";
    class       volVectorField;
    location    "0.28";
    object      U;
}
// * * * * * * * * * * * * * * * * * * * * * * * * * * * * * * * * * * * * * //

dimensions      [0 1 -1 0 0 0 0];

internalField   nonuniform List<vector> 
4531
(
(3.469069e-05 6.98942e-07 0)
(1.30902e-05 -1.275723e-07 1.079377e-28)
(1.654173e-05 2.396039e-08 0)
(1.327825e-05 1.495192e-08 0)
(1.342485e-05 -7.040216e-09 0)
(1.272122e-05 1.783922e-08 0)
(1.199083e-05 -7.633494e-09 0)
(1.224232e-05 7.083082e-09 -1.694247e-28)
(1.13202e-05 8.621854e-09 0)
(1.116624e-05 -4.612406e-09 0)
(1.121744e-05 5.980757e-09 -1.124466e-27)
(1.089436e-05 2.790385e-10 2.103659e-27)
(1.041511e-05 9.676998e-09 1.719995e-27)
(1.05153e-05 -4.124594e-09 -1.726412e-27)
(1.100436e-05 7.807965e-10 0)
(1.080618e-05 1.559766e-09 0)
(1.071052e-05 2.40063e-09 0)
(1.061096e-05 5.105112e-09 0)
(1.123837e-05 -1.10485e-08 0)
(1.130329e-05 1.39653e-08 0)
(1.156973e-05 -3.625083e-09 3.16913e-31)
(1.172818e-05 3.865664e-08 0)
(1.431071e-05 -1.413419e-07 -6.01486e-27)
(7.238144e-06 7.784139e-07 7.171919e-27)
(2.795152e-05 -1.188226e-06 0)
(1.063851e-06 -1.752152e-05 -1.162779e-24)
(-9.029311e-07 4.707924e-06 -4.591064e-27)
(9.317167e-08 -3.05819e-06 9.820358e-26)
(-5.766631e-08 -9.208507e-07 -1.000293e-25)
(-1.91544e-08 -9.903549e-07 -4.044361e-26)
(-1.36691e-08 -7.329273e-07 7.868057e-26)
(-8.818651e-09 -5.507201e-07 -3.823473e-26)
(-9.604847e-09 -3.096154e-07 0)
(-9.014792e-09 -3.107252e-07 -3.313867e-26)
(-1.829613e-09 -3.076994e-07 3.314405e-26)
(-4.171948e-09 -1.693282e-07 0)
(-2.749499e-09 -1.547634e-07 0)
(-2.290042e-09 -1.326035e-07 -1.49291e-26)
(-1.007351e-09 -8.998649e-08 1.49304e-26)
(-1.573804e-09 -5.34846e-08 0)
(-9.619282e-10 -5.344274e-08 1.41773e-26)
(-6.421184e-10 -3.885161e-08 -2.803937e-26)
(-4.844701e-10 -3.364679e-08 3.431607e-27)
(-1.314044e-10 -1.755501e-08 3.387666e-27)
(-1.316085e-10 5.282681e-09 -1.759394e-27)
(-3.112908e-10 5.287671e-09 -8.465093e-27)
(1.545813e-10 1.271518e-08 4.219828e-27)
(-2.136086e-10 2.399279e-08 -2.512031e-27)
(-7.028865e-11 1.511145e-08 1.256909e-27)
(-1.336041e-10 1.177236e-08 4.214983e-28)
(-1.029288e-10 5.154465e-09 -2.511808e-27)
(-1.456799e-10 -1.465919e-09 8.361945e-28)
(-1.161575e-10 -1.413172e-09 -3.370814e-27)
(-2.625284e-10 -5.182598e-09 3.364654e-27)
(-1.612177e-10 6.183156e-10 5.11212e-27)
(-6.408003e-10 -1.438832e-09 -6.786959e-27)
(-2.193156e-10 3.210113e-09 -6.912534e-27)
(-5.299813e-10 3.922767e-08 6.951283e-27)
(-1.273735e-09 3.233648e-08 0)
(-6.233241e-10 7.219e-08 0)
(-2.010296e-09 9.397569e-08 -1.490621e-26)
(-2.597994e-09 8.017273e-08 1.490491e-26)
(-3.694079e-09 8.189665e-08 0)
(-3.179722e-09 1.20516e-07 0)
(-5.257834e-09 1.776032e-07 -3.350474e-26)
(-4.927972e-09 2.66158e-07 3.34993e-26)
(-1.102526e-08 3.019667e-07 0)
(-6.249627e-09 5.295505e-07 3.825462e-26)
(-1.93231e-08 6.33623e-07 -3.824485e-26)
(-8.574553e-09 1.017552e-06 0)
(-7.651938e-08 7.401468e-07 -1.012228e-25)
(1.235455e-07 3.169916e-06 1.029212e-25)
(-9.264301e-07 -4.676283e-06 -2.121204e-25)
(1.053279e-06 1.696377e-05 1.36096e-24)
(2.837248e-05 1.201261e-06 6.90297e-25)
(7.611276e-06 -7.731951e-07 6.501437e-27)
(1.422961e-05 1.494912e-07 -6.198354e-29)
(1.174628e-05 -4.619094e-08 -4.053822e-27)
(1.15653e-05 1.064398e-08 -5.495754e-31)
(1.095862e-05 -1.478153e-08 0)
(1.100541e-05 4.883366e-09 0)
(1.088115e-05 -7.675651e-09 0)
(1.072525e-05 6.616075e-09 -2.591092e-27)
(1.030918e-05 -8.884546e-09 5.968268e-27)
(1.079682e-05 -1.013168e-09 -3.377199e-27)
(1.053955e-05 -2.022126e-09 0)
(1.081556e-05 -6.631501e-09 0)
(1.103974e-05 4.628104e-09 7.921954e-28)
(1.112364e-05 -6.11473e-09 0)
(1.127311e-05 1.883601e-09 3.119548e-28)
(1.158448e-05 -1.100613e-08 -3.121823e-28)
(1.215368e-05 -9.747417e-10 -1.465822e-28)
(1.259869e-05 -7.891369e-09 2.089917e-27)
(1.272501e-05 7.458313e-09 2.295971e-27)
(1.27036e-05 -3.669302e-09 -6.730968e-27)
(1.353533e-05 -1.201181e-08 3.69086e-27)
(1.708859e-05 -4.582792e-08 -6.554812e-27)
(1.366149e-05 1.508063e-07 2.722005e-26)
(3.335288e-05 -6.780975e-07 1.316664e-25)
(2.485691e-05 -2.389548e-05 0)
(9.122495e-06 -9.300659e-06 2.852181e-24)
(1.131648e-05 -1.126824e-05 -4.538472e-24)
(9.416944e-06 -9.425884e-06 2.801549e-26)
(8.959755e-06 -8.943382e-06 -3.643286e-24)
(8.370998e-06 -8.36578e-06 3.426648e-24)
(8.384361e-06 -8.386501e-06 3.168445e-24)
(8.046501e-06 -8.032406e-06 3.363114e-24)
(7.437819e-06 -7.431705e-06 -3.137025e-24)
(7.655995e-06 -7.665767e-06 2.911923e-24)
(7.403792e-06 -7.38706e-06 -3.409579e-24)
(6.889668e-06 -6.88007e-06 2.559481e-26)
(6.608095e-06 -6.607061e-06 -2.3565e-26)
(6.806732e-06 -6.814389e-06 2.358827e-26)
(6.82092e-06 -6.816178e-06 0)
(6.449271e-06 -6.442755e-06 0)
(6.286037e-06 -6.282391e-06 -3.115223e-24)
(6.303019e-06 -6.304897e-06 5.624455e-29)
(6.185236e-06 -6.18821e-06 -3.210128e-24)
(6.182465e-06 -6.171536e-06 2.488042e-26)
(6.212137e-06 -6.222879e-06 0)
(6.168852e-06 -6.163228e-06 2.584313e-26)
(6.257635e-06 -6.267147e-06 -2.549711e-26)
(6.314268e-06 -6.315079e-06 0)
(6.10479e-06 -6.102985e-06 0)
(6.10174e-06 -6.106551e-06 -1.678527e-27)
(6.06005e-06 -6.065671e-06 0)
(6.079549e-06 -6.081553e-06 -1.561032e-27)
(6.271337e-06 -6.29183e-06 3.748205e-24)
(6.347613e-06 -6.357766e-06 -1.529394e-26)
(6.359322e-06 -6.376726e-06 4.096783e-24)
(6.435794e-06 -6.469513e-06 -1.80077e-26)
(6.490619e-06 -6.512208e-06 1.800831e-26)
(7.218783e-06 -7.373356e-06 0)
(6.97758e-06 -7.123066e-06 6.256273e-24)
(6.839e-06 6.968576e-06 6.416109e-24)
(7.207429e-06 7.374092e-06 -5.947861e-27)
(6.432998e-06 6.451941e-06 1.81882e-26)
(6.397868e-06 6.432031e-06 -4.476777e-24)
(6.321815e-06 6.339105e-06 4.117772e-24)
(6.308646e-06 6.318492e-06 -4.074781e-24)
(6.243602e-06 6.263447e-06 -1.533348e-26)
(6.063144e-06 6.065321e-06 1.52432e-27)
(6.046166e-06 6.051438e-06 0)
(6.097311e-06 6.101941e-06 0)
(6.110768e-06 6.108688e-06 0)
(6.335161e-06 6.335833e-06 0)
(6.285215e-06 6.294722e-06 0)
(6.207221e-06 6.20113e-06 0)
(6.274148e-06 6.284829e-06 0)
(6.249081e-06 6.238153e-06 0)
(6.276115e-06 6.278557e-06 3.192131e-24)
(6.391121e-06 6.394248e-06 3.100645e-24)
(6.342285e-06 6.339012e-06 0)
(6.489558e-06 6.483599e-06 3.251669e-24)
(6.843626e-06 6.839143e-06 -3.1545e-24)
(6.823684e-06 6.831367e-06 0)
(6.626048e-06 6.624909e-06 2.49337e-26)
(6.912263e-06 6.902568e-06 3.179826e-24)
(7.425713e-06 7.409051e-06 2.459272e-26)
(7.67322e-06 7.683121e-06 -2.430796e-26)
(7.444889e-06 7.439e-06 -3.13671e-24)
(8.04209e-06 8.028602e-06 5.607422e-27)
(8.322609e-06 8.32663e-06 -6.340778e-24)
(8.294233e-06 8.289155e-06 5.325966e-26)
(8.81907e-06 8.807113e-06 -3.61727e-24)
(9.184542e-06 9.196167e-06 0)
(1.173332e-05 1.164652e-05 0)
(9.064113e-06 9.295932e-06 1.17794e-26)
(2.429359e-05 2.331548e-05 1.181499e-23)
(2.143598e-05 2.029355e-05 -2.27442e-23)
(2.267312e-05 2.293821e-05 0)
(2.058649e-05 2.06857e-05 0)
(2.040428e-05 2.045238e-05 2.907081e-26)
(2.019522e-05 2.02186e-05 -7.207004e-24)
(2.015534e-05 2.015203e-05 1.417125e-23)
(1.995576e-05 2.002894e-05 6.542066e-24)
(1.940129e-05 1.941961e-05 -1.293782e-23)
(1.933503e-05 1.933493e-05 -6.31496e-24)
(1.949533e-05 1.949226e-05 0)
(1.956023e-05 1.951325e-05 0)
(2.024718e-05 2.021165e-05 -4.571952e-26)
(2.010414e-05 2.014707e-05 5.628667e-24)
(1.986043e-05 1.983046e-05 -4.503014e-26)
(2.006731e-05 2.009638e-05 0)
(2.00317e-05 1.997286e-05 5.575606e-24)
(2.007087e-05 2.005771e-05 -5.496456e-24)
(2.045297e-05 2.046325e-05 0)
(2.033568e-05 2.031261e-05 0)
(2.080842e-05 2.073355e-05 -5.685775e-24)
(2.18434e-05 2.178156e-05 -5.422032e-24)
(2.182361e-05 2.18703e-05 -4.049001e-26)
(2.129446e-05 2.128433e-05 8.330562e-26)
(2.222582e-05 2.208745e-05 -5.573537e-24)
(2.376384e-05 2.36013e-05 4.434224e-26)
(2.452823e-05 2.456116e-05 0)
(2.396897e-05 2.387958e-05 5.336026e-24)
(2.583744e-05 2.567067e-05 1.156911e-23)
(2.669914e-05 2.667036e-05 5.434863e-24)
(2.671298e-05 2.659589e-05 0)
(2.839569e-05 2.821881e-05 6.195704e-24)
(2.999216e-05 2.964059e-05 0)
(3.730147e-05 3.699252e-05 0)
(3.220356e-05 3.093747e-05 -7.349521e-24)
(7.509669e-05 7.024945e-05 -2.046809e-23)
(7.66323e-05 -7.20086e-05 1.841711e-23)
(3.24831e-05 -3.092183e-05 4.955495e-26)
(3.6137e-05 -3.594632e-05 4.868691e-27)
(3.069176e-05 -3.039878e-05 -5.40343e-26)
(2.894639e-05 -2.875221e-05 0)
(2.696264e-05 -2.683172e-05 2.00458e-26)
(2.689255e-05 -2.684843e-05 5.4431e-24)
(2.585923e-05 -2.568148e-05 0)
(2.395004e-05 -2.385676e-05 -5.382187e-24)
(2.447618e-05 -2.450659e-05 -8.285576e-26)
(2.369611e-05 -2.353258e-05 -2.017925e-27)
(2.215508e-05 -2.201748e-05 4.390203e-26)
(2.123686e-05 -2.12277e-05 0)
(2.1769e-05 -2.181485e-05 0)
(2.17714e-05 -2.170547e-05 0)
(2.068302e-05 -2.06018e-05 4.34416e-26)
(2.015913e-05 -2.012871e-05 5.361654e-24)
(2.017957e-05 -2.018187e-05 4.199913e-26)
(1.978434e-05 -1.977682e-05 5.399589e-24)
(1.981825e-05 -1.976352e-05 0)
(1.987225e-05 -1.990648e-05 -4.360956e-26)
(1.973774e-05 -1.971414e-05 5.927745e-24)
(2.001628e-05 -2.006175e-05 -8.846159e-26)
(2.018147e-05 -2.014991e-05 9.183193e-26)
(1.95413e-05 -1.949876e-05 -4.649727e-26)
(1.95098e-05 -1.951007e-05 6.045547e-24)
(1.937899e-05 -1.938137e-05 0)
(1.945461e-05 -1.947457e-05 6.414498e-24)
(2.004477e-05 -2.012299e-05 -5.008055e-26)
(2.027905e-05 -2.027672e-05 6.994187e-24)
(2.031502e-05 -2.033856e-05 -7.056253e-24)
(2.052805e-05 -2.057852e-05 7.650656e-24)
(2.07657e-05 -2.086527e-05 8.34395e-24)
(2.273247e-05 -2.299354e-05 -3.216499e-26)
(2.185002e-05 -2.077641e-05 -3.336952e-23)
(8.661033e-05 4.556969e-06 -3.436822e-24)
(2.998321e-05 3.070654e-08 -2.004881e-27)
(4.460195e-05 5.292237e-08 -1.893747e-26)
(3.827206e-05 1.108976e-07 1.300402e-26)
(3.723669e-05 1.183023e-07 -5.628321e-30)
(3.527339e-05 1.34014e-08 0)
(3.531554e-05 3.203531e-08 6.280745e-27)
(3.493983e-05 9.911988e-10 1.260154e-27)
(3.445412e-05 6.908517e-08 -1.645617e-26)
(3.314071e-05 -1.802814e-08 8.902261e-27)
(3.456118e-05 -2.239195e-08 0)
(3.382779e-05 -1.418673e-08 -6.44779e-27)
(3.463261e-05 -5.228073e-08 1.020432e-26)
(3.53596e-05 9.457485e-10 -4.67878e-27)
(3.569626e-05 -3.296797e-08 3.325862e-27)
(3.619158e-05 -1.985433e-08 0)
(3.71351e-05 -9.684124e-08 7.158164e-28)
(3.893207e-05 -7.141873e-08 6.919656e-28)
(4.037386e-05 -7.358156e-08 -5.916645e-27)
(4.085622e-05 5.193659e-09 5.703472e-27)
(4.091772e-05 -1.000261e-07 1.265078e-26)
(4.385068e-05 -3.488384e-07 -1.260422e-26)
(5.42491e-05 -1.435401e-07 0)
(4.660221e-05 -8.557486e-07 6.727639e-26)
(0.0001017943 -3.245372e-06 -3.265527e-25)
(5.433624e-06 -5.37958e-05 2.057945e-24)
(4.65171e-10 8.235175e-06 -2.212956e-25)
(-1.339973e-07 -8.925901e-06 1.64304e-25)
(9.400881e-08 -3.702157e-06 0)
(2.227533e-08 -3.437319e-06 -5.626594e-28)
(3.162196e-08 -2.575156e-06 0)
(3.515785e-08 -1.952333e-06 -1.252867e-25)
(2.176963e-08 -1.173742e-06 1.253565e-25)
(-8.007522e-09 -1.101042e-06 -4.48778e-28)
(1.618203e-08 -1.064761e-06 5.554954e-26)
(1.008653e-08 -6.332493e-07 -5.535708e-26)
(3.673692e-09 -5.622295e-07 0)
(3.834771e-09 -4.799669e-07 0)
(7.659791e-09 -3.36595e-07 0)
(2.205246e-09 -2.169605e-07 0)
(1.108444e-09 -2.041497e-07 -2.439675e-26)
(1.547976e-09 -1.529347e-07 1.49891e-28)
(1.551613e-09 -1.311877e-07 5.908836e-27)
(3.343305e-09 -7.546343e-08 1.759102e-26)
(2.177443e-09 -2.530473e-09 -8.823623e-27)
(4.641651e-11 3.740152e-09 8.698966e-27)
(2.231094e-09 2.952458e-08 -1.88591e-26)
(-2.868836e-10 6.71536e-08 7.232257e-27)
(-8.318417e-10 4.504044e-08 -7.193378e-28)
(-1.022331e-09 3.730126e-08 5.887495e-30)
(-1.064957e-09 1.993941e-08 7.164765e-28)
(-7.00111e-10 2.234557e-09 7.208645e-27)
(-2.025509e-10 5.62022e-09 2.894121e-27)
(-1.162398e-10 -2.089862e-09 0)
(6.86508e-10 1.831524e-08 8.762432e-27)
(-5.111403e-10 1.79109e-08 0)
(3.911272e-09 3.721897e-08 0)
(2.23648e-09 1.506141e-07 -2.417519e-26)
(1.760334e-09 1.425531e-07 4.915291e-26)
(6.387303e-09 2.724712e-07 2.561036e-26)
(-9.222702e-10 3.443571e-07 -5.037747e-26)
(-9.910352e-10 3.148659e-07 5.276157e-26)
(1.669063e-09 3.373264e-07 -5.254404e-26)
(9.107627e-09 4.6855e-07 -2.14934e-28)
(9.083591e-09 6.699887e-07 4.409816e-28)
(1.301399e-08 9.61986e-07 0)
(1.361282e-08 1.134793e-06 1.256223e-25)
(3.756006e-08 1.872109e-06 5.597847e-27)
(2.082433e-08 2.282483e-06 -1.320949e-25)
(4.153097e-08 3.476781e-06 0)
(5.619376e-08 3.195094e-06 0)
(-4.569778e-08 9.231743e-06 -3.088767e-27)
(-1.342804e-07 -8.238242e-06 7.068343e-27)
(5.45853e-06 5.21174e-05 1.882866e-24)
(0.0001058208 3.260809e-06 7.038646e-26)
(4.502792e-05 1.068933e-06 -7.255867e-26)
(5.287851e-05 7.713189e-08 3.350053e-26)
(4.31454e-05 2.720605e-07 -4.068037e-27)
(4.306196e-05 3.610093e-08 -1.711701e-26)
(4.087342e-05 1.685155e-07 1.05051e-26)
(3.854715e-05 1.590092e-08 -7.049057e-27)
(3.914313e-05 7.264689e-08 1.219207e-27)
(3.636319e-05 1.003214e-07 1.376963e-28)
(3.576617e-05 -9.886568e-09 8.458484e-28)
(3.59191e-05 3.645504e-08 -3.854798e-27)
(3.49104e-05 4.462855e-08 5.511581e-27)
(3.347068e-05 4.545576e-08 -3.909432e-27)
(3.380663e-05 -4.84146e-08 -4.628396e-27)
(3.525189e-05 -1.089954e-08 4.659782e-27)
(3.464807e-05 1.946473e-08 -8.393248e-27)
(3.43138e-05 1.786648e-08 8.454926e-27)
(3.412933e-05 -3.631877e-08 -6.08736e-27)
(3.606387e-05 -8.289841e-08 6.083824e-27)
(3.633461e-05 5.89738e-09 0)
(3.724551e-05 -7.897292e-08 -5.439132e-31)
(3.819684e-05 -1.33986e-07 0)
(4.482281e-05 -7.770842e-10 3.23666e-27)
(2.877791e-05 -3.468062e-10 -2.74478e-26)
(8.536255e-05 -4.573251e-06 0)
(0.0001858421 9.25053e-06 0)
(8.717821e-05 3.981248e-06 3.461854e-27)
(9.661299e-05 4.167263e-07 -2.112681e-26)
(7.986603e-05 8.930746e-07 0)
(7.885871e-05 2.018486e-07 -1.297761e-26)
(7.495043e-05 5.393409e-07 5.770199e-27)
(7.070157e-05 1.063607e-07 2.453167e-27)
(7.145108e-05 2.469178e-07 2.779547e-28)
(6.664509e-05 3.315722e-07 -1.634234e-28)
(6.537328e-05 -8.845344e-09 -1.003882e-27)
(6.565251e-05 1.09132e-07 -4.549546e-27)
(6.385294e-05 1.650412e-07 5.465619e-28)
(6.138407e-05 1.214669e-07 -2.333876e-27)
(6.202836e-05 -1.354675e-07 6.990067e-27)
(6.447716e-05 -4.492763e-08 1.125691e-26)
(6.342336e-05 7.187757e-08 -1.132797e-26)
(6.276724e-05 5.075922e-08 0)
(6.266374e-05 -1.45439e-07 -2.938059e-28)
(6.610142e-05 -2.566448e-07 0)
(6.671182e-05 -3.48342e-08 -1.002808e-26)
(6.851915e-05 -2.816711e-07 1.001481e-26)
(7.089459e-05 -4.995459e-07 0)
(8.089256e-05 2.887118e-08 -3.826749e-27)
(6.083985e-05 -1.784475e-06 2.389923e-25)
(0.0001491318 -1.250029e-05 -2.814542e-25)
(1.581929e-05 -9.493021e-05 8.869154e-24)
(2.064921e-06 4.501743e-06 4.474001e-25)
(-3.244461e-07 -1.566782e-05 0)
(3.546281e-07 -8.01061e-06 -3.553729e-25)
(1.345231e-07 -6.827071e-06 3.565064e-25)
(1.347668e-07 -5.133241e-06 0)
(1.362525e-07 -3.918811e-06 -2.383541e-27)
(9.097378e-08 -2.477633e-06 -2.270612e-27)
(-4.903963e-09 -2.213964e-06 5.319586e-28)
(5.543925e-08 -2.096355e-06 -1.050078e-27)
(4.256653e-08 -1.321225e-06 -2.524599e-28)
(1.78019e-08 -1.151018e-06 0)
(1.823257e-08 -9.797812e-07 0)
(2.791502e-08 -7.036807e-07 0)
(1.121719e-08 -4.79448e-07 5.871015e-26)
(6.249839e-09 -4.340766e-07 -8.04219e-28)
(6.625222e-09 -3.315677e-07 -3.755699e-28)
(6.908048e-09 -2.830066e-07 -1.402593e-26)
(1.227362e-08 -1.731544e-07 -2.779633e-26)
(8.183353e-09 -3.960252e-08 5.552368e-26)
(1.674975e-09 -1.741325e-08 -2.770733e-26)
(7.553227e-09 3.34781e-08 1.372431e-26)
(2.520967e-10 1.055208e-07 -1.374142e-26)
(-2.248622e-09 7.612479e-08 1.711379e-27)
(-2.787918e-09 6.750374e-08 1.69569e-27)
(-3.090603e-09 4.269587e-08 -1.026318e-26)
(-1.673459e-09 1.657245e-08 -6.736045e-30)
(-6.531377e-11 2.8863e-08 -3.434347e-27)
(5.466276e-10 2.247642e-08 0)
(2.979998e-09 6.349389e-08 -6.932432e-27)
(2.985006e-10 7.371892e-08 -1.391392e-26)
(1.386407e-08 1.164711e-07 -2.81164e-26)
(9.287723e-09 3.219745e-07 1.713725e-25)
(9.517476e-09 3.311549e-07 9.784344e-28)
(2.22938e-08 5.739744e-07 -5.879633e-26)
(1.063481e-09 7.104029e-07 -9.399988e-28)
(1.214989e-09 6.827638e-07 -1.203767e-27)
(1.247695e-08 7.536935e-07 0)
(3.609602e-08 1.00795e-06 1.335412e-25)
(4.139411e-08 1.410669e-06 -1.327205e-25)
(5.353227e-08 1.964578e-06 1.418648e-25)
(7.058778e-08 2.381085e-06 -1.41768e-25)
(1.362024e-07 3.754752e-06 6.018965e-28)
(1.116379e-07 4.635478e-06 -1.860964e-27)
(1.736312e-07 6.825976e-06 0)
(2.772174e-07 7.196531e-06 0)
(-1.229768e-07 1.612782e-05 -3.956262e-25)
(1.699267e-06 -4.649746e-06 1.182644e-24)
(1.589551e-05 9.209109e-05 -5.555938e-24)
(0.000151211 1.241766e-05 2.905796e-25)
(6.305686e-05 1.880006e-06 0)
(8.053658e-05 1.263649e-07 1.882292e-26)
(7.106955e-05 4.434305e-07 -1.70196e-26)
(6.852091e-05 4.027412e-07 2.381178e-27)
(6.48325e-05 1.047128e-07 1.243185e-26)
(6.472319e-05 9.458707e-08 -1.251367e-26)
(6.406262e-05 2.922514e-08 -8.901015e-27)
(6.31957e-05 2.13311e-07 1.928983e-26)
(6.080457e-05 -3.357652e-08 3.11593e-27)
(6.316944e-05 -7.04374e-08 -1.367244e-26)
(6.196514e-05 -5.743229e-08 1.999138e-26)
(6.330282e-05 -1.603078e-07 -1.206055e-26)
(6.464046e-05 -2.501272e-08 0)
(6.537356e-05 -1.001919e-07 -4.428556e-27)
(6.630538e-05 -8.80564e-08 4.436992e-27)
(6.792906e-05 -3.080416e-07 1.139172e-28)
(7.117716e-05 -2.630632e-07 -5.688682e-27)
(7.385149e-05 -2.495752e-07 2.661962e-27)
(7.487096e-05 -2.690501e-08 9.736239e-27)
(7.519488e-05 -3.805283e-07 -1.220966e-26)
(8.124428e-05 -1.178981e-06 0)
(9.875547e-05 -5.365719e-07 4.782534e-26)
(8.966139e-05 -3.355999e-06 0)
(0.0001789663 -9.245391e-06 -1.086e-24)
(0.000137136 -0.000123828 -4.216337e-23)
(6.427329e-05 -5.849935e-05 -2.16888e-25)
(6.617553e-05 -6.538743e-05 0)
(5.7003e-05 -5.58894e-05 0)
(5.332918e-05 -5.268726e-05 -7.371106e-24)
(4.956374e-05 -4.907926e-05 -1.370199e-23)
(4.923373e-05 -4.904782e-05 -6.720102e-24)
(4.743721e-05 -4.684756e-05 1.053471e-25)
(4.399718e-05 -4.366582e-05 6.436652e-24)
(4.466201e-05 -4.471307e-05 0)
(4.32995e-05 -4.276522e-05 0)
(4.064832e-05 -4.018757e-05 0)
(3.893239e-05 -3.88995e-05 0)
(3.973615e-05 -3.984587e-05 9.735074e-26)
(3.966164e-05 -3.944455e-05 6.40335e-24)
(3.784827e-05 -3.758899e-05 0)
(3.689404e-05 -3.678673e-05 0)
(3.686609e-05 -3.686434e-05 0)
(3.610844e-05 -3.607693e-05 0)
(3.627021e-05 -3.610048e-05 -1.002089e-25)
(3.626527e-05 -3.635285e-05 2.053736e-25)
(3.60447e-05 -3.598465e-05 -7.030703e-24)
(3.653424e-05 -3.665939e-05 -6.499544e-24)
(3.681544e-05 -3.671368e-05 0)
(3.570286e-05 -3.555452e-05 6.995798e-24)
(3.559425e-05 -3.559146e-05 -1.135629e-25)
(3.536349e-05 -3.536891e-05 -7.460702e-24)
(3.552733e-05 -3.56037e-05 5.7034e-26)
(3.654375e-05 -3.677414e-05 7.747462e-24)
(3.696485e-05 -3.695379e-05 -1.659564e-23)
(3.701182e-05 -3.706853e-05 6.786966e-26)
(3.731003e-05 -3.746023e-05 -9.061341e-24)
(3.783023e-05 -3.812586e-05 -5.6978e-26)
(4.048706e-05 -4.090318e-05 3.819838e-26)
(3.838509e-05 -3.443153e-05 2.699068e-23)
(3.769649e-05 3.354865e-05 1.38053e-23)
(4.032895e-05 4.073022e-05 1.020598e-23)
(3.751298e-05 3.780892e-05 -9.85707e-24)
(3.70795e-05 3.722122e-05 -1.440565e-25)
(3.679356e-05 3.684912e-05 8.50295e-24)
(3.674107e-05 3.672668e-05 -8.307359e-24)
(3.638142e-05 3.659605e-05 -7.820012e-24)
(3.542854e-05 3.5498e-05 7.638763e-24)
(3.528439e-05 3.528167e-05 7.547928e-24)
(3.556744e-05 3.555326e-05 7.284737e-24)
(3.573733e-05 3.55738e-05 -7.092239e-24)
(3.693362e-05 3.681802e-05 1.085929e-25)
(3.66939e-05 3.680966e-05 -1.336254e-23)
(3.626871e-05 3.618764e-05 1.068676e-25)
(3.661549e-05 3.668495e-05 -6.440078e-24)
(3.666054e-05 3.647513e-05 -1.225442e-25)
(3.662466e-05 3.657598e-05 2.074471e-27)
(3.734903e-05 3.737193e-05 1.001504e-25)
(3.720926e-05 3.712749e-05 0)
(3.806993e-05 3.783205e-05 -6.570523e-24)
(3.979114e-05 3.958805e-05 6.288349e-24)
(3.983605e-05 3.994893e-05 9.701202e-26)
(3.903761e-05 3.900189e-05 -1.014781e-25)
(4.077477e-05 4.03118e-05 1.309645e-23)
(4.341889e-05 4.288804e-05 -1.000479e-25)
(4.475155e-05 4.481144e-05 -5.812816e-24)
(4.402494e-05 4.370719e-05 -6.487491e-24)
(4.738436e-05 4.683181e-05 -6.721617e-24)
(4.888555e-05 4.874953e-05 1.043763e-25)
(4.909522e-05 4.866617e-05 -7.044202e-24)
(5.233737e-05 5.171674e-05 7.438816e-24)
(5.592345e-05 5.463353e-05 -7.418171e-24)
(6.80566e-05 6.697919e-05 -1.384541e-25)
(6.358991e-05 5.863088e-05 8.886299e-24)
(0.000134751 0.0001207816 -2.162064e-23)
(5.585589e-05 4.589845e-05 1.649737e-23)
(6.028367e-05 6.059458e-05 -1.20815e-23)
(5.76093e-05 5.820342e-05 1.173628e-23)
(5.689514e-05 5.723389e-05 1.085846e-23)
(5.662598e-05 5.674551e-05 -9.934968e-24)
(5.660323e-05 5.656867e-05 0)
(5.60551e-05 5.653496e-05 0)
(5.467822e-05 5.486035e-05 -9.035528e-24)
(5.44269e-05 5.44259e-05 -1.378334e-25)
(5.484314e-05 5.481014e-05 -8.460751e-24)
(5.519666e-05 5.480347e-05 1.671684e-23)
(5.696252e-05 5.66873e-05 -1.283304e-25)
(5.661464e-05 5.685737e-05 1.095338e-25)
(5.598859e-05 5.581585e-05 0)
(5.64704e-05 5.660085e-05 -1.339634e-25)
(5.674098e-05 5.630797e-05 -1.540914e-23)
(5.649339e-05 5.637756e-05 0)
(5.766108e-05 5.769574e-05 7.500049e-24)
(5.756693e-05 5.736297e-05 1.19725e-25)
(5.889032e-05 5.835267e-05 7.763632e-24)
(6.126338e-05 6.078324e-05 0)
(6.148941e-05 6.168327e-05 -6.799241e-24)
(6.051822e-05 6.042234e-05 -1.133534e-25)
(6.326377e-05 6.217577e-05 -7.658626e-24)
(6.708573e-05 6.583822e-05 -1.177978e-25)
(6.904749e-05 6.911025e-05 1.240613e-25)
(6.839981e-05 6.760486e-05 1.205414e-25)
(7.353115e-05 7.222282e-05 -8.093603e-24)
(7.572397e-05 7.534044e-05 0)
(7.635911e-05 7.52651e-05 4.941101e-26)
(8.167247e-05 8.013644e-05 -8.663149e-24)
(8.83711e-05 8.516451e-05 -8.423625e-26)
(0.0001053224 0.000102406 -1.138173e-23)
(0.000105669 9.351605e-05 -5.01438e-24)
(0.0002044571 0.0001742967 2.536284e-23)
(0.0002075387 -0.00017883 2.448462e-23)
(0.0001069801 -9.31115e-05 -2.411841e-25)
(0.0001028439 -0.0001004829 1.502187e-25)
(8.950757e-05 -8.670767e-05 -1.428406e-26)
(8.302776e-05 -8.148191e-05 -8.711394e-26)
(7.710327e-05 -7.587526e-05 1.761274e-25)
(7.62534e-05 -7.575232e-05 -7.778868e-24)
(7.363377e-05 -7.223812e-05 -1.225465e-25)
(6.836915e-05 -6.754085e-05 2.353518e-25)
(6.8919e-05 -6.896018e-05 -2.310761e-25)
(6.690893e-05 -6.565307e-05 -5.151697e-27)
(6.307344e-05 -6.199001e-05 7.771108e-24)
(6.035614e-05 -6.026611e-05 1.136959e-25)
(6.133561e-05 -6.15213e-05 -2.286395e-25)
(6.106794e-05 -6.055421e-05 -7.56456e-24)
(5.856194e-05 -5.797305e-05 7.776988e-24)
(5.709415e-05 -5.682865e-05 7.649146e-24)
(5.694356e-05 -5.692218e-05 -1.178938e-25)
(5.570747e-05 -5.563009e-05 1.18897e-25)
(5.613754e-05 -5.574424e-05 7.588468e-24)
(5.59397e-05 -5.611447e-05 -2.278447e-27)
(5.564317e-05 -5.551965e-05 -1.759013e-27)
(5.636963e-05 -5.663579e-05 7.794756e-24)
(5.678271e-05 -5.654124e-05 -1.307327e-25)
(5.514357e-05 -5.478689e-05 -8.253087e-24)
(5.488521e-05 -5.487933e-05 1.303071e-25)
(5.454709e-05 -5.456549e-05 8.658148e-24)
(5.483269e-05 -5.503315e-05 -3.02309e-27)
(5.630497e-05 -5.682104e-05 -8.926867e-24)
(5.694543e-05 -5.691871e-05 9.945389e-24)
(5.696209e-05 -5.708601e-05 -1.526664e-25)
(5.725772e-05 -5.761669e-05 -1.075532e-23)
(5.80874e-05 -5.868515e-05 -1.151994e-23)
(6.059725e-05 -6.097008e-05 -1.220916e-23)
(5.680596e-05 -4.726175e-05 1.60728e-23)
(0.0002219245 2.590053e-05 2.87796e-24)
(0.0001092295 5.961552e-06 1.541206e-25)
(0.0001237339 6.508262e-07 -3.060259e-26)
(0.0001116776 1.077115e-06 3.084968e-26)
(0.000106814 1.003388e-06 -2.928908e-29)
(0.000100843 3.298858e-07 0)
(0.0001003645 2.203528e-07 0)
(9.93777e-05 9.579439e-08 1.503786e-27)
(9.807921e-05 4.84791e-07 8.640083e-28)
(9.43613e-05 -4.106871e-08 -1.606612e-26)
(9.76494e-05 -1.5776e-07 1.556658e-26)
(9.599176e-05 -1.501951e-07 -1.46323e-26)
(9.784504e-05 -3.630369e-07 9.034196e-27)
(9.991948e-05 -9.744657e-08 -1.664914e-26)
(0.0001012581 -2.344057e-07 0)
(0.0001027409 -2.343394e-07 -2.490656e-27)
(0.0001050609 -7.140174e-07 1.971249e-27)
(0.0001100358 -6.566807e-07 -6.38322e-27)
(0.0001142552 -6.13696e-07 -6.666788e-27)
(0.0001160656 -1.318335e-07 2.718834e-26)
(0.000116898 -1.007802e-06 -4.875926e-26)
(0.0001273989 -2.765197e-06 8.002137e-26)
(0.0001521836 -1.587108e-06 -1.021784e-25)
(0.0001453194 -8.208845e-06 -2.580122e-27)
(0.0002652771 -1.985639e-05 1.285515e-24)
(3.412035e-05 -0.0001409075 -9.818859e-24)
(6.806661e-06 -8.838575e-06 -1.329991e-24)
(-1.589799e-07 -2.450583e-05 -1.287869e-25)
(8.403379e-07 -1.449086e-05 4.210894e-25)
(4.06033e-07 -1.163463e-05 -8.125193e-25)
(3.556061e-07 -8.727935e-06 3.911065e-25)
(3.43294e-07 -6.70145e-06 3.484674e-25)
(2.371121e-07 -4.43058e-06 -3.48999e-25)
(1.678019e-08 -3.801164e-06 0)
(1.32568e-07 -3.522283e-06 1.238522e-27)
(1.094913e-07 -2.334586e-06 0)
(4.933401e-08 -2.005548e-06 0)
(4.948469e-08 -1.703092e-06 1.4389e-25)
(6.909127e-08 -1.24794e-06 -1.439588e-25)
(3.135878e-08 -8.902998e-07 0)
(1.857174e-08 -7.82528e-07 -6.840442e-26)
(1.759977e-08 -6.067301e-07 8.615305e-28)
(1.890092e-08 -5.16684e-07 6.670793e-26)
(3.080692e-08 -3.315898e-07 -3.296421e-26)
(2.102197e-08 -1.235831e-07 0)
(6.361283e-09 -7.108361e-08 3.252429e-26)
(1.851121e-08 1.456343e-08 -3.258256e-26)
(2.660816e-09 1.328025e-07 -1.615655e-26)
(-3.91424e-09 1.06374e-07 1.212911e-26)
(-5.302776e-09 1.032387e-07 -4.162236e-27)
(-6.149843e-09 7.730013e-08 -1.41508e-26)
(-2.643283e-09 4.790142e-08 2.01983e-26)
(1.166886e-09 7.840757e-08 0)
(2.781419e-09 8.201981e-08 -4.896973e-26)
(8.532885e-09 1.528358e-07 3.261449e-26)
(3.626236e-09 1.879224e-07 1.643517e-26)
(3.40432e-08 2.663977e-07 9.998152e-26)
(2.469066e-08 5.841424e-07 -2.015248e-25)
(2.739998e-08 6.387108e-07 -6.945739e-26)
(5.380251e-08 1.02605e-06 7.161139e-26)
(7.382456e-09 1.248103e-06 -1.110726e-27)
(8.813323e-09 1.251801e-06 -1.138568e-27)
(3.710225e-08 1.413555e-06 -1.516853e-25)
(9.208386e-08 1.833508e-06 -9.94652e-28)
(1.099106e-07 2.520103e-06 1.560854e-25)
(1.405639e-07 3.420867e-06 0)
(1.953556e-07 4.237802e-06 0)
(3.370522e-07 6.425814e-06 0)
(3.11207e-07 8.010678e-06 2.919788e-27)
(4.778312e-07 1.152309e-05 0)
(7.036753e-07 1.34056e-05 -3.36103e-27)
(2.108852e-07 2.503655e-05 4.844628e-25)
(6.039495e-06 8.435444e-06 -1.354279e-24)
(3.430225e-05 0.000136938 1.007013e-23)
(0.0002750258 1.98003e-05 0)
(0.0001420789 9.56701e-06 -4.080196e-27)
(0.0001492044 1.401674e-06 2.334281e-26)
(0.0001248709 2.08983e-06 0)
(0.0001221798 6.027573e-07 -1.320501e-26)
(0.0001162674 1.261146e-06 8.58119e-27)
(0.0001096725 3.300133e-07 5.742441e-27)
(0.0001102945 5.992822e-07 -7.358984e-27)
(0.0001032924 7.849979e-07 0)
(0.0001010113 1.358045e-08 0)
(0.0001014821 2.464816e-07 -1.068977e-26)
(9.876883e-05 4.030716e-07 1.065621e-26)
(9.522304e-05 2.484134e-07 0)
(9.627132e-05 -2.821063e-07 -2.209854e-26)
(9.974935e-05 -1.092539e-07 0)
(9.819443e-05 1.811067e-07 -2.340174e-26)
(9.709619e-05 1.020532e-07 2.338375e-26)
(9.733458e-05 -3.784043e-07 1.739056e-27)
(0.0001025271 -5.925598e-07 -1.730859e-26)
(0.000103669 -1.541437e-07 4.103467e-26)
(0.0001067608 -7.252438e-07 -2.370618e-26)
(0.000111331 -1.187697e-06 0)
(0.0001242458 -2.977338e-07 1.443193e-26)
(0.0001057772 -5.747088e-06 -3.573095e-25)
(0.0002190457 -2.611771e-05 5.310263e-24)
(0.0003735363 3.612214e-05 -1.146046e-24)
(0.0002125495 1.881177e-05 9.2865e-26)
(0.000212701 3.671754e-06 -1.005141e-25)
(0.0001800733 4.124472e-06 -8.593004e-26)
(0.0001747272 1.357421e-06 4.61881e-26)
(0.0001664615 2.553869e-06 0)
(0.0001569506 7.795643e-07 0)
(0.0001570603 1.198471e-06 -3.60582e-27)
(0.0001476849 1.609319e-06 4.467641e-27)
(0.0001439025 9.820683e-08 -1.801729e-26)
(0.0001447205 4.706028e-07 1.253194e-26)
(0.0001409431 7.678255e-07 0)
(0.0001363064 4.585837e-07 -2.50834e-26)
(0.0001378864 -5.344764e-07 5.626102e-26)
(0.0001423916 -1.741874e-07 -3.057738e-26)
(0.0001402706 3.90049e-07 0)
(0.0001385462 1.602905e-07 0)
(0.0001395326 -8.385588e-07 -1.631123e-27)
(0.0001468273 -1.213916e-06 -2.077669e-27)
(0.0001487683 -4.070386e-07 2.811511e-26)
(0.0001537418 -1.630476e-06 -1.867484e-26)
(0.0001614421 -2.329556e-06 -5.94943e-26)
(0.0001772577 -1.628612e-06 3.82011e-26)
(0.0001658921 -1.326053e-05 6.850571e-25)
(0.0002946328 -4.663557e-05 -1.34647e-24)
(6.242538e-05 -0.0001913332 -1.066106e-23)
(1.616919e-05 -3.424012e-05 0)
(1.22934e-06 -3.748531e-05 4.477186e-25)
(1.752262e-06 -2.415411e-05 9.903154e-25)
(1.000202e-06 -1.860077e-05 -9.938621e-25)
(7.961956e-07 -1.384395e-05 4.180605e-25)
(7.262452e-07 -1.067253e-05 -4.393115e-25)
(5.286449e-07 -7.342931e-06 3.89865e-25)
(8.794804e-08 -6.090868e-06 -3.785735e-25)
(2.775709e-07 -5.521622e-06 0)
(2.355387e-07 -3.820436e-06 0)
(1.148407e-07 -3.250762e-06 0)
(1.109613e-07 -2.755771e-06 -5.315602e-27)
(1.455057e-07 -2.052608e-06 0)
(7.186015e-08 -1.522373e-06 -5.122297e-27)
(4.537956e-08 -1.308008e-06 -1.603718e-25)
(3.948876e-08 -1.025611e-06 4.74628e-25)
(4.279354e-08 -8.7371e-07 0)
(6.514398e-08 -5.819281e-07 -3.83641e-26)
(4.568863e-08 -2.807879e-07 1.157566e-25)
(1.670355e-08 -1.769105e-07 0)
(3.911585e-08 -4.273984e-08 -1.908261e-26)
(9.339046e-09 1.393225e-07 0)
(-4.366459e-09 1.324576e-07 1.42079e-26)
(-7.69837e-09 1.455776e-07 -9.32395e-27)
(-9.552867e-09 1.294793e-07 4.737148e-27)
(-2.266541e-09 1.056068e-07 -2.854439e-26)
(5.543963e-09 1.696133e-07 3.798377e-26)
(8.906361e-09 1.968787e-07 9.581249e-26)
(2.043782e-08 3.115675e-07 -1.536598e-25)
(1.24756e-08 3.936129e-07 -8.028302e-28)
(7.111194e-08 5.245429e-07 7.743497e-26)
(5.49525e-08 9.834957e-07 -1.587288e-25)
(6.468761e-08 1.12528e-06 1.602108e-25)
(1.120763e-07 1.702481e-06 1.630374e-25)
(2.300823e-08 2.041352e-06 -1.629087e-25)
(3.101848e-08 2.123837e-06 2.666243e-27)
(8.921882e-08 2.43996e-06 0)
(2.004964e-07 3.085624e-06 3.607018e-25)
(2.430522e-07 4.178163e-06 -3.659682e-25)