/*--------------------------------*- C++ -*----------------------------------*\
| =========                 |                                                 |
| \\      /  F ield         | OpenFOAM: The Open Source CFD Toolbox           |
|  \\    /   O peration     | Version:  2406                                  |
|   \\  /    A nd           | Website:  www.openfoam.com                      |
|    \\/     M anipulation  |                                                 |
\*---------------------------------------------------------------------------*/
FoamFile
{
    version     2.0;
    format      ascii;
    arch        "LSB;label=32;scalar=64";
    class       volScalarField;
    location    "1.24";
    object      p;
}
// * * * * * * * * * * * * * * * * * * * * * * * * * * * * * * * * * * * * * //

dimensions      [0 2 -2 0 0 0 0];

internalField   nonuniform List<scalar> 
217010
(
-30.25233
-1.831229
-8.146718
-7.731265
-4.956934
-3.096321
-4.147378
-4.312286
-4.395672
-4.276576
-4.083039
-3.683615
-2.868785
-1.616276
-0.2117747
-0.7472315
-0.5133081
-1.946308
-3.568784
-3.594837
-2.628657
-1.615165
-1.512412
-2.038916
-2.705742
-3.467177
-4.178457
-4.86005
-6.180086
-8.073988
-8.030217
-7.074158
-7.05502
-7.835216
-8.332099
-9.386354
-11.34819
-14.02953
-17.3617
-21.14753
-25.02506
-28.49767
-31.24404
-33.02657
-33.64579
-33.25646
-33.07424
-32.22285
-31.5056
-30.78947
-36.22772
-39.07994
-41.76636
-44.58249
-46.39829
-45.8325
-45.21541
-46.14291
-48.11016
-50.20457
-52.2073
-54.31959
-56.40491
-58.29003
-60.43507
-62.43294
-64.3973
-66.52427
-69.13884
-72.98943
-77.31089
-79.76674
-80.2358
-81.41188
-84.15839
-87.21957
-90.15637
-93.11315
-96.20121
-99.2589
-102.3481
-105.5405
-108.8111
-112.3866
-116.0957
-119.7242
-123.4701
-127.0946
-130.6454
-134.0972
-137.6176
-141.2339
-144.7212
-148.1512
-151.5957
-154.9288
-158.143
-161.2287
-164.2489
-167.1755
-169.9377
-172.5236
-174.9039
-177.079
-178.9939
-180.6514
-182.0592
-183.1941
-184.1236
-184.8249
-185.2859
-185.4524
-185.4271
-185.2434
-184.8926
-184.4295
-183.884
-183.2961
-182.7367
-182.2967
-181.934
-181.689
-181.5974
-181.6449
-181.7879
-182.0853
-182.5392
-183.1477
-183.8382
-184.613
-185.4925
-186.4404
-187.3814
-188.2951
-189.1656
-189.9265
-190.4668
-190.6978
-190.597
-190.2095
-189.577
-188.7453
-187.7919
-186.7993
-185.9244
-185.3862
-184.9064
-183.8456
-179.7445
-203.3065
-147.5812
-142.4481
-133.5027
-128.3885
-124.3195
-121.2213
-118.8946
-117.4517
-116.9561
-117.6877
-119.2048
-120.9842
-121.4985
-122.7558
-123.3928
-124.5979
-126.3685
-128.5561
-131.594
-134.5489
-135.594
-134.7449
-133.32
-132.4024
-132.6826
-133.4251
-133.6116
-134.0038
-134.7676
-135.8478
-137.1785
-138.5988
-139.8028
-140.479
-140.613
-140.3087
-140.2424
-140.6603
-141.9287
-140.5411
-142.1072
-146.6815
-148.8854
-147.6027
-145.1993
-146.0616
-145.0804
-147.1616
-141.0504
-215.3514
-111.9353
-95.96575
-79.42947
-69.70517
-61.59165
-54.95404
-49.29212
-44.23079
-39.83992
-35.89898
-32.339
-29.10314
-26.0716
-23.21908
-20.55833
-18.1054
-15.82207
-13.63594
-11.55041
-9.562429
-7.668441
-5.877307
-4.18466
-2.527533
-0.9119049
0.6655455
2.17597
3.598064
4.969723
6.319117
7.648917
8.9492
10.18774
11.39031
12.58047
13.74576
14.89653
16.03033
17.16541
18.25416
19.35461
20.40658
21.44811
22.47347
23.49232
24.49073
25.46973
26.45029
27.44673
28.43904
29.40687
30.35737
31.30411
32.27478
33.25486
34.22076
35.18941
36.16676
37.1478
38.14079
39.13416
40.12974
41.17077
42.27333
43.34988
44.40696
45.61931
47.00567
48.06758
47.98231
47.20587
58.8223
57.34121
56.97972
56.16395
55.33695
54.62889
53.9641
53.32881
52.74635
52.18499
51.58853
50.9817
50.39711
49.84416
49.30444
48.76451
48.2185
47.67497
47.15023
46.6334
46.10825
45.58476
45.07137
44.55109
44.03762
43.51595
42.97627
42.44805
41.93546
41.42276
40.89979
40.34407
39.82748
39.28619
38.73233
38.18214
37.63368
37.06759
36.49425
35.92484
35.3465
34.74461
34.1206
33.4994
32.88426
32.25324
31.59881
30.92953
30.23763
29.52592
28.80148
28.05746
27.30952
26.52241
25.6957
24.8498
23.9644
23.04748
22.07816
21.04729
19.97205
18.842
17.60829
16.30668
14.82017
13.24667
11.50533
9.424797
7.282267
3.382679
2.85319
58.49945
57.42108
57.04712
56.26676
55.43243
54.71005
54.03685
53.39484
52.80638
52.24253
51.64518
51.03564
50.44657
49.8895
49.34703
48.80516
48.25731
47.71135
47.1842
46.66541
46.13867
45.61343
45.09837
44.57652
44.06181
43.53892
42.99806
42.46826
41.95409
41.44016
40.91637
40.35835
39.84237
39.29907
38.74423
38.19307
37.64371
37.07664
36.50245
35.93213
35.35294
34.75001
34.12496
33.50291
32.887
32.25495
31.59962
30.92956
30.23647
29.52352
28.79784
28.0525
27.30376
26.51447
25.68596
24.83849
23.95071
23.03191
22.05947
21.02527
19.94743
18.81383
17.5765
16.27054
14.77102
13.19251
11.43903
9.348011
7.157203
3.315338
2.015083
-114.3664
-96.48276
-79.9445
-70.01832
-61.84177
-55.14982
-49.45384
-44.35201
-39.94322
-35.98742
-32.41248
-29.16614
-26.12562
-23.26428
-20.59499
-18.13479
-15.84689
-13.65612
-11.56599
-9.573941
-7.6764
-5.881504
-4.186656
-2.527486
-0.9096606
0.6699929
2.18301
3.606889
4.980311
6.331594
7.663377
8.965616
10.20602
11.41014
12.60227
13.76931
14.92215
16.05825
17.19608
18.28578
19.38858
20.44238
21.48612
22.51375
23.5346
24.53511
25.51655
26.50015
27.49945
28.49414
29.46397
30.4172
31.36768
32.34208
33.32563
34.29488
35.26768
36.24949
37.23551
38.2331
39.23132
40.23404
41.28348
42.39102
43.47035
44.54129
45.77468
47.14691
48.10372
47.95566
48.496
-150.5402
-143.2337
-134.333
-128.8998
-124.7033
-121.4948
-119.0706
-117.5383
-116.9529
-117.6187
-119.0959
-120.9025
-121.4421
-122.6988
-123.3467
-124.5283
-126.2808
-128.4524
-131.4837
-134.4786
-135.6035
-134.7771
-133.3477
-132.4038
-132.6698
-133.4216
-133.6095
-133.9985
-134.7605
-135.8408
-137.1735
-138.5975
-139.8063
-140.4844
-140.6141
-140.3057
-140.2416
-140.6708
-141.9323
-140.5575
-142.1707
-146.7874
-148.9383
-147.5635
-145.1913
-146.0924
-145.1117
-147.2223
-143.0337
-200.1478
-35.63837
-38.71137
-41.42398
-44.29174
-46.34666
-45.90952
-45.20206
-46.01809
-47.91739
-50.00574
-52.01323
-54.12863
-56.22583
-58.11922
-60.26648
-62.27451
-64.24436
-66.3629
-68.94495
-72.75235
-77.16038
-79.69318
-80.1907
-81.33448
-84.03446
-87.08341
-90.02487
-92.98428
-96.07733
-99.14098
-102.234
-105.4342
-108.7092
-112.285
-115.9965
-119.6313
-123.3861
-127.0177
-130.5799
-134.0366
-137.5619
-141.1833
-144.6767
-148.1136
-151.5644
-154.9039
-158.1243
-161.2157
-164.2417
-167.1732
-169.9394
-172.5298
-174.9138
-177.0916
-179.0079
-180.6665
-182.0745
-183.2084
-184.1378
-184.8378
-185.2963
-185.4579
-185.4295
-185.2418
-184.8848
-184.4169
-183.8683
-183.2773
-182.7189
-182.2813
-181.9197
-181.6791
-181.5929
-181.6444
-181.7916
-182.0993
-182.5631
-183.1802
-183.8784
-184.662
-185.5516
-186.5053
-187.4498
-188.367
-189.2371
-189.9857
-190.5029
-190.71
-190.5871
-190.1744
-189.5152
-188.6602
-187.6895
-186.6945
-185.844
-185.3331
-184.7929
-183.6391
-181.0688
-197.1073
-26.72075
-2.414315
-8.030015
-7.827925
-5.049429
-3.119311
-4.138584
-4.310046
-4.397546
-4.279684
-4.087877
-3.692225
-2.879521
-1.624368
-0.2141967
-0.7480314
-0.514248
-1.96104
-3.599133
-3.620569
-2.63395
-1.614739
-1.513265
-2.048021
-2.719633
-3.484344
-4.196049
-4.886896
-6.242311
-8.135308
-8.016393
-7.05721
-7.071021
-7.865633
-8.367315
-9.463621
-11.4809
-14.21591
-17.60396
-21.4349
-25.33177
-28.79268
-31.50389
-33.19963
-33.73273
-33.25132
-32.99618
-32.14282
-31.43792
-30.93379
-22.09788
-2.65558
-7.860449
-7.909333
-5.154435
-3.162865
-4.138559
-4.316329
-4.402471
-4.28395
-4.095119
-3.702763
-2.892038
-1.630301
-0.2143078
-0.7505927
-0.5192405
-1.990133
-3.658237
-3.711629
-2.686284
-1.610361
-1.505676
-2.050271
-2.734724
-3.502981
-4.213468
-4.914498
-6.29624
-8.207884
-8.012502
-7.031722
-7.075976
-7.880322
-8.393199
-9.524078
-11.5785
-14.33999
-17.74984
-21.58612
-25.46472
-28.88207
-31.55028
-33.33478
-33.88538
-33.36086
-33.01018
-32.10994
-31.37685
-31.02257
-35.41851
-38.55604
-41.29445
-44.27775
-46.42295
-46.04876
-45.19082
-45.94881
-47.831
-49.93859
-51.94697
-54.0676
-56.1891
-58.05908
-60.22857
-62.23541
-64.20018
-66.29833
-68.84332
-72.68475
-77.14427
-79.67182
-80.12078
-81.26465
-83.96946
-87.02824
-89.97964
-92.9425
-96.04068
-99.10552
-102.2035
-105.4022
-108.668
-112.2554
-115.9709
-119.6058
-123.3634
-126.9891
-130.5695
-134.023
-137.5542
-141.1848
-144.6716
-148.1099
-151.5659
-154.9039
-158.1275
-161.2163
-164.2457
-167.1796
-169.9469
-172.5397
-174.9244
-177.1021
-179.0183
-180.6776
-182.0861
-183.2173
-184.1482
-184.8482
-185.3061
-185.4625
-185.433
-185.2411
-184.8777
-184.4065
-183.8612
-183.2628
-182.7107
-182.2765
-181.9131
-181.6766
-181.5947
-181.6471
-181.7952
-182.1104
-182.579
-183.197
-183.8901
-184.6788
-185.5717
-186.5245
-187.4652
-188.3786
-189.2475
-190.0029
-190.5165
-190.7117
-190.5727
-190.1442
-189.4717
-188.6114
-187.644
-186.6583
-185.8221
-185.3043
-184.7704
-183.5303
-181.3953
-192.6256
-151.2327
-143.8074
-134.7358
-129.155
-124.8758
-121.6168
-119.1485
-117.5835
-116.9485
-117.5667
-119.0332
-120.8782
-121.4211
-122.6784
-123.3195
-124.4872
-126.2331
-128.3922
-131.4447
-134.507
-135.654
-134.8397
-133.3844
-132.4059
-132.6589
-133.4191
-133.607
-133.9919
-134.755
-135.8379
-137.1747
-138.6043
-139.8196
-140.499
-140.6221
-140.3006
-140.2371
-140.6852
-141.9542
-140.6009
-142.2742
-146.9149
-149.0236
-147.5337
-145.1987
-146.0794
-145.0023
-147.3025
-143.7717
-184.5087
-114.0048
-96.81788
-80.18944
-70.18323
-61.96443
-55.24282
-49.52338
-44.42386
-39.98584
-36.0261
-32.44362
-29.1934
-26.15046
-23.28488
-20.61174
-18.14723
-15.85953
-13.66676
-11.57472
-9.580692
-7.682079
-5.88436
-4.189888
-2.529548
-0.9102962
0.670631
2.186153
3.609928
4.983111
6.334906
7.667463
8.97155
10.21251
11.41548
12.6087
13.77593
14.93073
16.06759
17.20319
18.29583
19.39577
20.45135
21.49618
22.52361
23.54532
24.54628
25.52732
26.51036
27.51131
28.50799
29.47738
30.43042
31.37953
32.35533
33.34186
34.31119
35.28383
36.26783
37.25345
38.2514
39.25044
40.25427
41.30489
42.41863
43.50243
44.57709
45.8238
47.20108
48.11243
47.93062
48.85966
58.25675
57.43322
57.04356
56.28617
55.45865
54.73406
54.05512
53.40921
52.82097
52.25917
51.65995
51.04901
50.45809
49.90069
49.35788
48.81603
48.26679
47.71931
47.19283
46.67427
46.1462
45.62075
45.10612
44.58281
44.06969
43.54603
43.00272
42.47304
41.95938
41.44559
40.91983
40.36539
39.84679
39.30444
38.74817
38.19674
37.64745
37.07906
36.50478
35.935
35.35598
34.75193
34.12571
33.50366
32.88834
32.25558
31.59987
30.92951
30.23529
29.52168
28.79544
28.04967
27.30169
26.51078
25.68139
24.83419
23.94467
23.02628
22.05173
21.01637
19.93822
18.80383
17.56542
16.24803
14.75424
13.17035
11.4114
9.312838
7.110133
3.254876
1.868225
57.92389
57.42702
57.06007
56.36456
55.55736
54.82222
54.13195
53.4805
52.88861
52.32418
51.72253
51.10984
50.51553
49.95426
49.40839
48.86393
48.31268
47.76267
47.23445
46.71297
46.18242
45.65543
45.13904
44.61332
44.09967
43.57382
43.0278
42.49816
41.98267
41.4676
40.93926
40.38598
39.86229
39.32116
38.76238
38.21028
37.66047
37.08953
36.51483
35.94472
35.36511
34.75863
34.13064
33.50821
32.89324
32.25862
31.60206
30.93102
30.23478
29.52011
28.79267
28.04553
27.29839
26.50371
25.67219
24.8249
23.93139
23.01298
22.03372
20.99486
19.91507
18.77798
17.53416
16.21051
14.71457
13.11957
11.34898
9.243196
6.993895
3.202725
1.648334
-114.1982
-97.12133
-80.63384
-70.46048
-62.19968
-55.4223
-49.66531
-44.53832
-40.08744
-36.10955
-32.5109
-29.25205
-26.20133
-23.32617
-20.64463
-18.17073
-15.88116
-13.68323
-11.58665
-9.588294
-7.687133
-5.88392
-4.19008
-2.527329
-0.9051694
0.6780783
2.198692
3.623741
4.997801
6.350786
7.685188
8.993026
10.23692
11.43941
12.63546
13.80399
14.96295
16.10251
17.23545
18.34275
19.43757
20.49515
21.54287
22.57323
23.5969
24.60143
25.5854
26.57205
27.57598
28.57634
29.54857
30.5056
31.45917
32.43782
33.42944
34.40263
35.38042
36.36898
37.36019
38.36234
39.36716
40.37763
41.43098
42.5448
43.63265
44.71897
45.97381
47.30556
48.13639
48.10088
49.90482
-153.6279
-144.7247
-135.5816
-129.6874
-125.2781
-121.9052
-119.3221
-117.6711
-116.9476
-117.5037
-118.9376
-120.8178
-121.3781
-122.6228
-123.2753
-124.4205
-126.15
-128.294
-131.363
-134.4754
-135.6994
-134.91
-133.4378
-132.4298
-132.6604
-133.4219
-133.6033
-133.9823
-134.7487
-135.8368
-137.1811
-138.6187
-139.8418
-140.5253
-140.6415
-140.299
-140.2386
-140.7083
-141.9876
-140.674
-142.4495
-147.1454
-149.1785
-147.5033
-145.1959
-146.0601
-144.8038
-147.2829
-145.6386
-174.1195
-35.04489
-38.15501
-40.94286
-43.97766
-46.49192
-46.2653
-45.17481
-45.80105
-47.64459
-49.73165
-51.7382
-53.85587
-55.96746
-57.86955
-60.0288
-62.04468
-64.02989
-66.143
-68.67287
-72.47768
-77.05738
-79.64832
-80.00869
-81.14279
-83.82252
-86.87758
-89.83757
-92.80251
-95.89968
-98.96732
-102.077
-105.2949
-108.574
-112.1727
-115.89
-119.5196
-123.2754
-126.8965
-130.4639
-133.9415
-137.4743
-141.12
-144.6143
-148.0625
-151.5279
-154.8748
-158.1074
-161.1998
-164.24
-167.1803
-169.951
-172.5494
-174.9369
-177.1199
-179.0374
-180.6993
-182.1084
-183.2359
-184.1693
-184.8682
-185.3252
-185.473
-185.4432
-185.2458
-184.8738
-184.3995
-183.8563
-183.2431
-182.6981
-182.2662
-181.8977
-181.6664
-181.5902
-181.6438
-181.7917
-182.1182
-182.5941
-183.2212
-183.9175
-184.7257
-185.6345
-186.5959
-187.5423
-188.4721
-189.3464
-190.0799
-190.5717
-190.7435
-190.5788
-190.1287
-189.438
-188.56
-187.578
-186.5888
-185.7734
-185.2313
-184.5957
-183.3328
-182.0792
-190.0834
-17.86217
-3.238713
-7.592387
-8.029606
-5.342778
-3.240853
-4.139317
-4.320644
-4.409748
-4.291929
-4.110255
-3.723316
-2.917429
-1.644727
-0.2138527
-0.7526152
-0.535329
-2.048127
-3.757705
-3.877268
-2.810211
-1.585592
-1.489008
-2.056671
-2.761612
-3.529366
-4.240763
-4.955655
-6.373388
-8.293764
-8.01074
-6.969855
-7.080532
-7.914755
-8.43351
-9.619073
-11.73636
-14.55324
-18.02136
-21.89981
-25.7991
-29.21467
-31.89632
-33.59775
-34.14791
-33.64026
-33.10419
-31.97005
-31.2896
-31.16593
-14.60636
-3.808913
-7.313881
-8.223958
-5.605662
-3.366928
-4.143599
-4.329322
-4.419413
-4.305322
-4.135957
-3.758978
-2.961495
-1.672511
-0.2109197
-0.7529322
-0.5690682
-2.157373
-3.921187
-4.138092
-3.028122
-1.543195
-1.460053
-2.0632
-2.799206
-3.564698
-4.276201
-5.007531
-6.456895
-8.368964
-7.996688
-6.915141
-7.08696
-7.94184
-8.485439
-9.746729
-11.93513
-14.80257
-18.33488
-22.24907
-26.14381
-29.50184
-32.09677
-33.79751
-34.43804
-33.9897
-33.24973
-31.78742
-31.14191
-31.285
-34.71965
-37.81711
-40.62228
-43.76234
-46.5787
-46.57703
-45.19857
-45.60674
-47.44254
-49.57533
-51.5805
-53.69983
-55.90056
-57.72394
-59.91928
-61.94859
-63.92206
-66.01937
-68.51766
-72.28251
-76.94977
-79.62122
-79.92159
-81.03785
-83.72894
-86.75739
-89.72643
-92.69464
-95.80557
-98.87815
-101.9937
-105.2128
-108.4824
-112.1032
-115.8234
-119.4428
-123.1928
-126.8055
-130.4127
-133.9052
-137.457
-141.1212
-144.5942
-148.0511
-151.5281
-154.8733
-158.111
-161.1975
-164.2514
-167.1979
-169.9699
-172.5736
-174.9623
-177.1512
-179.0658
-180.7275
-182.138
-183.2591
-184.1976
-184.8942
-185.3507
-185.4838
-185.4548
-185.2501
-184.8668
-184.3906
-183.8471
-183.2153
-182.6813
-182.2523
-181.8768
-181.6538
-181.5844
-181.6396
-181.7874
-182.1302
-182.6141
-183.2534
-183.9495
-184.7734
-185.6902
-186.6496
-187.5868
-188.5102
-189.3989
-190.1367
-190.6141
-190.7644
-190.5737
-190.1039
-189.3958
-188.4993
-187.5032
-186.5173
-185.7076
-185.0991
-184.3786
-183.1122
-182.4446
-187.5634
-155.3678
-145.7648
-136.4211
-130.2272
-125.6647
-122.1791
-119.4806
-117.7608
-116.9444
-117.4347
-118.831
-120.7664
-121.338
-122.5647
-123.2292
-124.3469
-126.0627
-128.1936
-131.3023
-134.5191
-135.8023
-134.998
-133.5095
-132.4909
-132.6911
-133.4262
-133.5947
-133.967
-134.7402
-135.8393
-137.1986
-138.6501
-139.8819
-140.5693
-140.6783
-140.3104
-140.258
-140.748
-142.0291
-140.7976
-142.7402
-147.5156
-149.4227
-147.4577
-145.1548
-146.0203
-144.495
-147.1858
-147.6018
-166.8607
-114.1763
-97.27227
-81.01487
-70.71002
-62.41956
-55.59005
-49.80279
-44.65462
-40.17028
-36.18585
-32.57232
-29.30714
-26.2521
-23.36872
-20.67803
-18.19217
-15.90498
-13.70366
-11.60326
-9.600385
-7.696938
-5.886202
-4.195786
-2.531034
-0.9067245
0.6777573
2.205299
3.630035
5.002209
6.356207
7.692729
9.005396
10.25082
11.45012
12.64954
13.81824
14.98109
16.12044
17.24921
18.35641
19.45692
20.51545
21.56503
22.59497
23.6201
24.62645
25.61046
26.59604
27.60225
28.60646
29.57816
30.53592
31.48834
32.47005
33.46817
34.44133
35.41911
36.41301
37.40594
38.41102
39.41978
40.43583
41.49345
42.62111
43.72155
44.82069
46.09153
47.37674
48.13734
48.29808
50.492
57.52687
57.37795
57.05221
56.41009
55.62038
54.88362
54.18136
53.52088
52.92721
52.36574
51.76011
51.14429
50.54445
49.98119
49.4341
48.88933
48.33528
47.78157
47.25422
46.73277
46.19962
45.67181
45.15598
44.62663
44.11624
43.58874
43.03788
42.50844
41.99274
41.47847
40.94789
40.39644
39.86969
39.33065
38.76896
38.21671
37.66725
37.0935
36.51945
35.95037
35.37086
34.76126
34.13105
33.50939
32.89595
32.25896
31.602
30.93089
30.232
29.51627
28.78777
28.03956
27.29536
26.49526
25.66155
24.81545
23.91749
23.00158
22.01641
20.97472
19.89541
18.75736
17.50894
16.17214
14.67911
13.07485
11.29427
9.181231
6.895199
3.191589
1.43252
57.0296
57.25946
57.01655
56.4537
55.70467
54.97352
54.25702
53.59036
52.99845
52.4401
51.82907
51.21407
50.61017
50.04343
49.49284
48.94768
48.39081
47.83152
47.30356
46.7797
46.24253
45.71344
45.19749
44.66242
44.15559
43.6256
43.0683
42.54021
42.02254
41.50747
40.97167
40.4258
39.89353
39.35422
38.78865
38.23612
37.68523
37.1049
36.53062
35.96314
35.38552
34.77114
34.13527
33.51386
32.90429
32.26336
31.60522
30.9349
30.23214
29.51413
28.78257
28.03223
27.29521
26.4876
25.65121
24.80529
23.89977
22.98961
21.99468
20.94835
19.86847
18.73105
17.4754
16.12407
14.63294
13.0186
11.2248
9.106664
6.783906
3.189529
1.172914
-114.1288
-97.26337
-81.37899
-70.961
-62.68034
-55.79311
-49.9676
-44.79077
-40.27121
-36.2859
-32.6476
-29.37233
-26.31581
-23.41803
-20.71091
-18.21018
-15.93455
-13.72821
-11.62018
-9.608079
-7.701021
-5.880563
-4.196915
-2.528377
-0.9012309
0.6884356
2.228482
3.649226
5.020244
6.380471
7.719818
9.03573
10.28348
11.47924
12.68493
13.85306
15.0214
16.16154
17.29532
18.42461
19.513
20.57105
21.62478
22.65795
23.68776
24.69872
25.68247
26.67113
27.6857
28.69976
29.67158
30.6325
31.587
32.57223
33.58109
34.55596
35.53967
36.54272
37.53705
38.54339
39.55823
40.58012
41.63191
42.76055
43.86946
44.97179
46.23537
47.45027
48.19874
48.7155
51.30916
-157.2235
-147.0273
-137.4741
-130.9021
-126.1514
-122.5469
-119.6905
-117.8689
-116.9394
-117.3629
-118.7158
-120.724
-121.3116
-122.4916
-123.1751
-124.2589
-125.9577
-128.0834
-131.2684
-134.6325
-135.9739
-135.107
-133.5844
-132.5739
-132.7512
-133.4341
-133.5738
-133.9411
-134.7298
-135.845
-137.2313
-138.7111
-139.9541
-140.6388
-140.7409
-140.3468
-140.3132
-140.8152
-142.0735
-141.0612
-143.2518
-148.1239
-149.8052
-147.3799
-145.1336
-146.0266
-144.1492
-146.8509
-148.5085
-159.2641
-34.35416
-37.41836
-40.2199
-43.40903
-46.61093
-46.96078
-45.31983
-45.35127
-47.14395
-49.27675
-51.30592
-53.43136
-55.56374
-57.50669
-59.6749
-61.72533
-63.74709
-65.86949
-68.33801
-72.04188
-76.75452
-79.55683
-79.87269
-80.9361
-83.54899
-86.56019
-89.55456
-92.52769
-95.63219
-98.70557
-101.8555
-105.096
-108.357
-112.0051
-115.7313
-119.3468
-123.093
-126.6734
-130.3096
-133.7856
-137.3713
-141.0726
-144.5256
-148.001
-151.4998
-154.8518
-158.1053
-161.1779
-164.2503
-167.208
-169.9869
-172.6009
-174.9918
-177.1921
-179.1018
-180.7676
-182.1773
-183.2866
-184.2373
-184.9325
-185.3935
-185.5053
-185.4813
-185.2636
-184.8646
-184.3888
-183.8418
-183.1824
-182.665
-182.2375
-181.8503
-181.6401
-181.5776
-181.6333
-181.7785
-182.1439
-182.6349
-183.2916
-183.9825
-184.8299
-185.7599
-186.7272
-187.6734
-188.6264
-189.5154
-190.237
-190.6922
-190.8142
-190.5872
-190.0903
-189.3571
-188.4361
-187.4254
-186.4427
-185.6142
-184.902
-184.0761
-182.8691
-182.7501
-184.9118
-12.08432
-4.23704
-7.167689
-8.547455
-5.934686
-3.500228
-4.156625
-4.337933
-4.429556
-4.32556
-4.177395
-3.819319
-3.037128
-1.7232
-0.2026686
-0.7582126
-0.6158286
-2.340386
-4.1801
-4.529224
-3.36733
-1.537144
-1.434721
-2.067483
-2.844383
-3.609839
-4.321888
-5.071284
-6.539307
-8.429889
-7.962146
-6.879474
-7.128515
-7.988759
-8.565557
-9.92283
-12.21709
-15.13274
-18.74105
-22.70292
-26.60476
-29.91487
-32.51612
-34.23694
-34.83473
-34.39718
-33.43576
-31.61266
-30.95188
-31.3703
-9.970903
-4.522454
-7.273843
-8.83835
-6.499751
-3.567509
-4.177441
-4.342649
-4.433984
-4.35204
-4.241284
-3.918037
-3.161821
-1.807345
-0.2257273
-0.7907811
-0.7092249
-2.627607
-4.575942
-5.090177
-3.871794
-1.637659
-1.419947
-2.123161
-2.902471
-3.661169
-4.370502
-5.157835
-6.63444
-8.422205
-7.884064
-6.865943
-7.200624
-8.036061
-8.708982
-10.15189
-12.66202
-15.66283
-19.3134
-23.2969
-27.17652
-30.42578
-32.96378
-34.65761
-35.27647
-34.83754
-33.67024
-31.51888
-30.69386
-31.41089
-33.90859
-36.88536
-39.73725
-42.93216
-46.5798
-47.37819
-45.58295
-45.13048
-46.88032
-49.07853
-51.11184
-53.17061
-55.48745
-57.29243
-59.48262
-61.57382
-63.61134
-65.73494
-68.13112
-71.70589
-76.44088
-79.41215
-79.83248
-80.85296
-83.41972
-86.39328
-89.38902
-92.35907
-95.50863
-98.57527
-101.7327
-105.0141
-108.2339
-111.9164
-115.6112
-119.224
-123.005
-126.559
-130.2693
-133.723
-137.319
-141.0575
-144.5025
-147.9927
-151.4997
-154.8497
-158.1351
-161.2045
-164.2987
-167.2435
-170.0251
-172.6499
-175.0366
-177.2573
-179.1605
-180.8387
-182.2816
-183.3465
-184.2985
-184.9807
-185.4481
-185.524
-185.5208
-185.2824
-184.8595
-184.3894
-183.8441
-183.1402
-182.6487
-182.2195
-181.8101
-181.6208
-181.5662
-181.6222
-181.7605
-182.1597
-182.6525
-183.337
-184.0145
-184.8961
-185.8383
-186.8219
-187.7588
-188.7115
-189.6332
-190.3526
-190.7779
-190.8634
-190.5973
-190.0783
-189.3155
-188.3667
-187.3429
-186.3561
-185.4825
-184.6535
-183.7504
-182.6537
-182.7887
-182.7702
-158.9738
-148.4218
-138.7649
-131.7177
-126.7263
-123.0431
-119.9347
-118.0147
-116.9413
-117.2935
-118.5988
-120.6816
-121.3069
-122.4122
-123.0885
-124.151
-125.8244
-127.9063
-131.221
-134.8534
-136.2797
-135.2799
-133.6714
-132.6556
-132.8222
-133.4198
-133.5151
-133.8945
-134.7214
-135.8517
-137.2683
-138.7898
-140.0921
-140.7578
-140.8402
-140.4197
-140.4236
-140.9027
-142.1195
-141.5793
-144.1206
-149.085
-150.376
-147.2515
-144.8295
-145.9173
-143.8499
-146.2348
-147.8255
-150.851
-113.7884
-96.99946
-81.6761
-71.18176
-62.98678
-56.00271
-50.11557
-44.92648
-40.39408
-36.40161
-32.70954
-29.44231
-26.39318
-23.46344
-20.74319
-18.24371
-15.98498
-13.75313
-11.63357
-9.608336
-7.707317
-5.883381
-4.202892
-2.532634
-0.9022198
0.7025921
2.24149
3.653648
5.033673
6.395463
7.72167
9.039934
10.30623
11.4948
12.70687
13.87178
15.04941
16.19376
17.33049
18.44034
19.53528
20.59793
21.66151
22.69617
23.72519
24.73338
25.72221
26.71865
27.73232
28.74268
29.70949
30.68021
31.63592
32.625
33.64332
34.62061
35.60799
36.60968
37.60546
38.62688
39.65255
40.68496
41.7272
42.8723
44.01883
45.13221
46.37936
47.51605
48.3266
49.24283
51.96412
56.41126
57.01967
56.91742
56.46436
55.78048
55.06989
54.32909
53.64867
53.05884
52.50635
51.87851
51.26143
50.65375
50.08944
49.53218
48.98451
48.42642
47.86512
47.34077
46.81257
46.26947
45.74022
45.22462
44.68137
44.18144
43.64306
43.0801
42.55536
42.0387
41.52763
40.98395
40.42857
39.90179
39.36164
38.79322
38.24824
37.70117
37.11306
36.53757
35.96692
35.39283
34.77948
34.1383
33.51061
32.90707
32.265
31.6029
30.9336
30.23043
29.51268
28.77619
28.01548
27.2887
26.47226
25.64113
24.79531
23.87466
22.97829
21.96962
20.92372
19.83728
18.70092
17.44082
16.07859
14.5885
12.96416
11.15625
9.038227
6.690223
3.237512
0.9093204
55.75124
56.65558
56.74515
56.42095
55.84196
55.2075
54.44466
53.73635
53.16155
52.64227
52.01025
51.36876
50.7321
50.17536
49.63199
49.07136
48.48864
47.91451
47.40984
46.88094
46.32419
45.79979
45.28896
44.72255
44.26761
43.69831
43.11709
42.60124
42.06582
41.57457
41.02145
40.4868
39.96321
39.39984
38.79993
38.25832
37.71817
37.13009
36.56906
35.99248
35.39292
34.78069
34.1618
33.52675
32.90769
32.2767
31.61388
30.92221
30.22089
29.51272
28.79235
28.02034
27.2849
26.43551
25.62383
24.79542
23.83572
22.96425
21.91886
20.90386
19.81143
18.63712
17.37343
16.00469
14.5154
12.87846
11.04502
8.92195
6.544999
3.294867
0.6405574
-112.9553
-96.65025
-82.19128
-71.56744
-63.49394
-56.1912
-50.32541
-45.18369
-40.63032
-36.5036
-32.75419
-29.57402
-26.49164
-23.50246
-20.82606
-18.32634
-15.99765
-13.7256
-11.64158
-9.615211
-7.753009
-5.910721
-4.176768
-2.556946
-0.8836235
0.7277957
2.214414
3.691092
5.083401
6.404815
7.71925
9.10851
10.41575
11.53401
12.76366
13.92302
15.12168
16.26247
17.38999
18.49304
19.62202
20.70582
21.75866
22.78854
23.80204
24.84124
25.85481
26.82199
27.81182
28.86755
29.87542
30.83374
31.78715
32.75772
33.80808
34.81191
35.74874
36.79236
37.82655
38.82791
39.84652
40.8797
41.90344
43.09977
44.31437
45.37069
46.55118
47.62519
48.62829
49.92894
52.42604
-160.8522
-150.5201
-140.5806
-132.9782
-127.704
-123.8983
-120.2591
-118.2609
-116.9656
-117.2198
-118.4577
-120.5394
-121.3218
-122.3379
-122.8881
-123.982
-125.6586
-127.5725
-131.0956
-135.1991
-136.8092
-135.5909
-133.7887
-132.7258
-132.8743
-133.387
-133.4049
-133.8037
-134.6824
-135.865
-137.3211
-138.8727
-140.2074
-140.9413
-141.0152
-140.5302
-140.5832
-140.9828
-142.03
-142.0556
-145.2759
-150.436
-151.2022
-147.0674
-145.2481
-146.3837
-143.3994
-144.9845
-145.2999
-142.5564
-33.39165
-36.07019
-39.06165
-42.18836
-46.25792
-47.75605
-46.03717
-45.01501
-46.48094
-48.67008
-50.60122
-52.80479
-54.92865
-56.97199
-59.11088
-61.21356
-63.21487
-65.5601
-67.90718
-71.20829
-75.96377
-78.99255
-79.69972
-80.7408
-83.18968
-86.05444
-89.1108
-92.06515
-95.17034
-98.24675
-101.4462
-104.6503
-108.0183
-111.8273
-115.4753
-119.0217
-122.7146
-126.3641
-130.0747
-133.5818
-137.3496
-140.928
-144.363
-147.9879
-151.4761
-154.8285
-158.0307
-161.1268
-164.3808
-167.3009
-170.0804
-172.7314
-175.0902
-177.341
-179.2107
-180.92
-182.3226
-183.4093
-184.4149
-185.075
-185.5534
-185.547
-185.5873
-185.3202
-184.865
-184.3758
-183.8431
-183.0871
-182.6272
-182.1985
-181.7533
-181.5911
-181.5479
-181.6036
-181.7244
-182.1872
-182.6809
-183.4008
-184.0579
-185.0133
-185.9434
-186.9336
-187.9028
-188.9043
-189.7963
-190.5022
-190.9183
-190.9561
-190.6115
-190.0577
-189.2524
-188.2531
-187.2117
-186.218
-185.2858
-184.3382
-183.3767
-182.1724
-182.2579
-181.4037
-8.176899
-4.440108
-7.766538
-9.729888
-7.549334
-3.68969
-4.078048
-4.323055
-4.426616
-4.383243
-4.339437
-4.074606
-3.35994
-2.00016
-0.4903756
-0.8874192
-1.08078
-3.10006
-5.22233
-5.889495
-4.6166
-1.991075
-1.518848
-2.018054
-3.009085
-3.715107
-4.415802
-5.283479
-6.767904
-8.243758
-7.732609
-6.889223
-7.29733
-8.08915
-8.949183
-10.49092
-13.24845
-16.45668
-20.1444
-24.11468
-27.95199
-31.13486
-33.71542
-35.32236
-35.85084
-35.33494
-33.86676
-31.45222
-30.37369
-31.4573
-0.1077172
-0.02555376
-0.08154362
8.863433
0.2101298
-0.8490943
0.06015741
9.857882
2.149625
0.3967127
4.060079
1.08951
-0.04253888
3.128087
-0.07221235
11.06638
11.92464
2.928243
6.467793
-38.71788
1.912977
6.395571
0.2226195
6.202317
-0.2982731
9.390909
6.005781
6.755859
8.309523
-1.184575
3.421223
-1.720579
-154.7297
0.4286528
7.70139
0.6898262
0.342931
9.972816
0.3094201
9.034195
9.490245
-0.02899753
-1.354096
0.3897966
-4.506321
-18.31358
0.133428
-0.02955663
-0.04849387
9.705425
-7.509512
-0.3752772
-1.496072
-0.8556097
8.337171
0.4540174
-0.1334685
3.268354
2.539293
-0.02072637
-0.2231484
5.850122
-0.6930388
-5.184239
10.16121
-0.6031471
-0.5811409
5.810219
33.22605
2.598525
0.3114144
1.322262
8.167818
8.061949
5.152749
5.572931
4.152432
3.852559
-0.09432971
6.0816
0.5045007
4.174203
-0.3799917
-0.6726838
-0.7790425
-0.4463563
14.20335
0.2271271
-1.38802
-1.967497
12.30102
12.68113
10.28029
6.775908
-2.019295
-6.977531
10.87224
7.062397
-53.36098
-0.4699886
-1.198255
-58.92437
8.767524
-0.7894622
4.868435
8.910753
2.239777
8.796607
2.330847
9.997731
0.4433754
-267.5191
0.1619376
3.105884
0.06716522
0.02192699
-0.7367476
-25.61275
-14.19179
5.925131
-1.056772
1.905736
-1.17523
-0.2350604
8.228814
1.89905
-0.03748555
0.04443281
0.7652795
0.9486393
17.70587
12.26947
8.808272
2.083099
-0.0976468
0.5123829
-3.335415
-102.6568
-7.853693
9.671649
8.833933
10.08534
9.721542
1.839074
0.4232574
1.113393
7.416025
-2.371386
-0.2744764
-56.88415
0.7422498
-0.493306
-1.177963
8.965321
9.341406
8.91305
-0.393252
1.225339
-0.01005833
1.526534
3.792695
9.324778
-3.263676
0.1425275
12.50723
0.8092005
-2.959322
11.29051
1.133792
8.97164
-0.122716
-1.033967
0.158457
-22.63166
-1.207334
-0.006199115
-1.178883
-4.037263
-0.7964621
7.525671
-1.254068
10.24728
-2.608131
4.821869
-0.971644
2.664322
9.935223
9.399489
14.06471
1.278469
-0.7552591
0.3486373
4.554269
0.1474558
-9.404528
-0.9915615
2.147751
-0.7588461
-15.75862
-0.9113445
-22.6705
-5.677227
-0.6106529
11.51625
-4.414634
4.265692
-0.03737549
-4.534123
2.071797
-5.879503
0.04759852
-8.459877
0.02520989
8.924346
-0.1816359
0.3916297
-11.34873
-1.035394
7.290992
2.947387
-2.389472
-3.322653
8.332758
-0.02239126
21.93874
4.474864
4.937079
0.5495897
6.195634
-5.269334
-0.7509931
1.793198
-105.2939
8.717247
2.199389
-19.01452
7.939852
6.225303
5.672712
-0.2763714
4.866499
-1.115469
-0.2697142
0.6244072
-0.3568581
-3.675027
1.85422
-7.243605
3.761946
6.252695
6.262989
-114.8183
12.2524
-0.1853293
-0.124049
-1.880098
1.713138
7.300494
2.282426
-0.8811854
9.04227
-1.450937
5.826202
0.8016959
8.826188
3.107019
-0.08143806
1.19968
8.448403
-3.785018
1.59276
0.08270181
-1.030817
-0.1784383
12.3662
-9.291991
8.840854
-0.1197088
-7.560378
0.2609563
-5.475641
13.94402
4.570003
1.442072
13.51024
-0.6632674
-9.851479
8.619437
8.763422
3.061574
1.820948
0.01468268
-65.24036
7.280869
11.7745
8.975976
0.1251897
-23.86958
6.414701
-14.69799
-1.495173
8.007798
-6.938985