/*--------------------------------*- C++ -*----------------------------------*\
| =========                 |                                                 |
| \\      /  F ield         | OpenFOAM: The Open Source CFD Toolbox           |
|  \\    /   O peration     | Version:  2406                                  |
|   \\  /    A nd           | Website:  www.openfoam.com                      |
|    \\/     M anipulation  |                                                 |
\*---------------------------------------------------------------------------*/
FoamFile
{
    version     2.0;
    format      ascii;
    arch        "LSB;label=32;scalar=64";
    class       volScalarField;
    location    "2.38";
    object      p;
}
// * * * * * * * * * * * * * * * * * * * * * * * * * * * * * * * * * * * * * //

dimensions      [0 2 -2 0 0 0 0];

internalField   nonuniform List<scalar> 
217010
(
-214.3256
-137.6493
-141.9943
-143.7123
-145.6181
-143.0915
-139.5234
-133.1793
-137.7759
-140.7332
-141.8855
-140.7744
-140.3946
-140.1548
-138.7737
-137.6777
-136.4642
-135.1731
-133.9563
-134.9459
-140.5659
-148.1166
-155.0124
-164.2563
-173.4305
-179.0238
-172.304
-155.1408
-149.2094
-159.9861
-176.6899
-188.5278
-189.2532
-181.6571
-169.4535
-153.9783
-138.9413
-124.8636
-112.1028
-100.7366
-92.48875
-87.03724
-79.72165
-70.74248
-64.11011
-59.63506
-57.78474
-57.95899
-60.78363
-62.74617
-84.95933
-72.6065
-79.04204
-78.88107
-80.88614
-84.03958
-88.98731
-95.31509
-99.11289
-98.4535
-93.89418
-88.04863
-90.85406
-96.51154
-91.09279
-88.62645
-92.99709
-91.63741
-86.02503
-82.81382
-80.07469
-88.40811
-107.5995
-120.2601
-118.01
-107.5294
-102.1883
-102.076
-103.1401
-105.1508
-108.1735
-111.2897
-114.2339
-116.8905
-119.3264
-121.2386
-122.7651
-123.9244
-124.6843
-125.0889
-125.1131
-124.8027
-124.2076
-123.2822
-122.0259
-120.4676
-118.7104
-116.7548
-114.5598
-112.1431
-109.5505
-106.8425
-104.0509
-101.1935
-98.19798
-95.17285
-92.17288
-89.15461
-86.07279
-83.06366
-80.28549
-77.74349
-75.57348
-73.5419
-71.65597
-70.29436
-69.41812
-68.43886
-67.29658
-65.24799
-61.83025
-57.81476
-54.38427
-51.54923
-48.83366
-45.93571
-42.37811
-38.37663
-34.92506
-32.12928
-29.82337
-27.90681
-26.41302
-25.28867
-24.45667
-23.82831
-23.3964
-23.16085
-23.00519
-23.03369
-23.79236
-25.1156
-27.24117
-29.74369
-32.43807
-34.91287
-37.0665
-39.02105
-44.1919
-44.02556
-174.2925
-145.4679
-133.3977
-126.9933
-121.2809
-110.9684
-94.5128
-73.77232
-53.7583
-42.47719
-41.93884
-41.13543
-36.06659
-35.8872
-46.69479
-50.62311
-41.11064
-33.36591
-25.98401
-17.36244
-11.51652
-11.08792
-19.35699
-33.55252
-50.05762
-71.17527
-95.07193
-118.9416
-139.3606
-153.9442
-161.1919
-160.4587
-150.7455
-132.2266
-114.4443
-103.9913
-100.7987
-107.4638
-120.1311
-120.2258
-99.56463
-78.77625
-74.93182
-78.56785
-79.95442
-79.85744
-79.02899
-80.64626
-75.54653
-130.5421
-60.28349
-53.07222
-42.79625
-36.82341
-31.57813
-27.21985
-23.42817
-19.96539
-16.94955
-14.18822
-11.6711
-9.359799
-7.174463
-5.106791
-3.167073
-1.364666
0.3276786
1.956498
3.515074
5.006262
6.435629
7.794141
9.082555
10.34968
11.59073
12.80361
13.9654
15.06728
16.13176
17.1813
18.22025
19.24119
20.21352
21.15793
22.0966
23.01797
23.93067
24.83234
25.73696
26.60301
27.48965
28.33379
29.17215
29.99794
30.82077
31.62952
32.42483
33.22308
34.03637
34.84775
35.64134
36.42171
37.20079
38.00432
38.82149
39.6291
40.43934
41.26052
42.08591
42.92498
43.76737
44.6059
45.47861
46.4316
47.4191
48.40474
49.39628
50.37294
51.44915
52.88986
55.03869
50.96357
49.55339
48.40091
47.03018
45.71153
44.52581
43.37731
42.26839
41.25485
40.29119
39.27821
38.2385
37.22262
36.25462
35.3088
34.36037
33.39737
32.43223
31.4914
30.55696
29.60344
28.64591
27.69645
26.72931
25.76555
24.78251
23.75949
22.74807
21.75558
20.75211
19.71765
18.63245
17.58008
16.48135
15.35194
14.21606
13.06858
11.874
10.65602
9.431414
8.173736
6.844094
5.448401
4.045556
2.643565
1.181048
-0.3587276
-1.953352
-3.62783
-5.377487
-7.185946
-9.068475
-10.98973
-13.04984
-15.25825
-17.56558
-20.02921
-22.62318
-25.43414
-28.49294
-31.76445
-35.29739
-39.26069
-43.70145
-48.7622
-54.41593
-61.00649
-69.1595
-78.71106
-94.95725
-109.128
51.23256
49.74908
48.56161
47.20141
45.86773
44.66538
43.50601
42.38618
41.36124
40.39148
39.37658
38.33325
37.31079
36.33596
35.38528
34.43341
33.46736
32.49829
31.55359
30.61599
29.6599
28.69961
27.74749
26.77775
25.81196
24.82691
23.80186
22.78774
21.79245
20.78697
19.75105
18.66312
17.61025
16.50874
15.37714
14.23948
13.09034
11.89381
10.67416
9.447781
8.188545
6.856722
5.458819
4.054127
2.650552
1.185632
-0.3561878
-1.952637
-3.629734
-5.38249
-7.194254
-9.08026
-11.00385
-13.0697
-15.2834
-17.59571
-20.06649
-22.66634
-25.48738
-28.55704
-31.83858
-35.38458
-39.36533
-43.8239
-48.92356
-54.61059
-61.25304
-69.46858
-79.21483
-95.43
-111.6014
-61.98386
-53.36823
-43.12285
-37.02436
-31.74393
-27.35153
-23.54015
-20.04901
-17.02178
-14.25122
-11.72391
-9.40559
-7.213962
-5.140016
-3.194263
-1.38671
0.3089461
1.941225
3.503228
4.997378
6.429376
7.790774
9.080884
10.34954
11.59228
12.80696
13.97067
15.07397
16.13986
17.19089
18.23138
19.25391
20.22777
21.1734
22.11366
23.03645
23.95085
24.85433
25.76143
26.62778
27.51689
28.3624
29.20242
30.0302
30.85476
31.6653
32.46266
33.26343
34.07914
34.89255
35.68786
36.47056
37.25295
38.05999
38.88035
39.6909
40.50466
41.32959
42.15915
43.00213
43.84827
44.69265
45.57453
46.53669
47.53069
48.52145
49.51724
50.50348
51.61835
53.13182
54.96077
-156.3533
-147.3733
-134.5829
-127.563
-122.0841
-112.2747
-96.29635
-75.72275
-55.23636
-43.01979
-42.02508
-41.38663
-36.24253
-35.72979
-46.37423
-50.71387
-41.48116
-33.74265
-26.41198
-17.75118
-11.6708
-11.07038
-19.17072
-33.26924
-49.75221
-70.84979
-94.74877
-118.6803
-139.1795
-153.85
-161.2162
-160.6288
-151.0658
-132.5249
-114.5381
-104.0229
-100.8315
-107.6105
-120.2642
-120.3557
-99.46028
-78.6967
-74.98086
-78.63452
-79.99331
-79.85782
-79.04631
-80.61096
-76.9015
-121.0593
-82.78074
-73.02564
-78.57949
-78.78886
-80.62552
-83.64046
-88.4354
-94.80827
-98.95427
-98.71981
-94.44047
-88.16204
-90.48795
-96.67021
-91.44488
-88.65206
-92.93368
-91.84266
-86.34616
-83.04088
-80.08122
-87.91867
-106.8753
-120.0551
-118.2729
-107.8639
-102.2626
-102.0795
-103.0808
-105.0283
-108.055
-111.1907
-114.1613
-116.8327
-119.2849
-121.2117
-122.749
-123.919
-124.6857
-125.0958
-125.1246
-124.8161
-124.2234
-123.2993
-122.0426
-120.482
-118.7226
-116.7638
-114.5652
-112.1451
-109.5483
-106.8362
-104.0395
-101.1781
-98.17739
-95.14699
-92.14202
-89.11921
-86.0332
-83.02067
-80.24259
-77.70114
-75.53263
-73.50211
-71.61905
-70.26494
-69.39344
-68.4093
-67.24469
-65.15715
-61.7006
-57.65875
-54.24687
-51.41493
-48.68094
-45.75657
-42.17181
-38.15945
-34.75793
-31.97756
-29.69645
-27.79809
-26.32552
-25.22052
-24.40414
-23.78945
-23.37064
-23.14591
-23.00683
-23.06661
-23.88567
-25.28058
-27.47117
-30.02496
-32.73937
-35.20158
-37.31989
-39.49712
-44.35191
-48.26831
-198.709
-139.7785
-142.1432
-143.7233
-145.7342
-143.2586
-139.6951
-133.2483
-137.7548
-140.7118
-141.9024
-140.7763
-140.4025
-140.1698
-138.7817
-137.6848
-136.4699
-135.1746
-133.9618
-134.9743
-140.6388
-148.2023
-155.1165
-164.4228
-173.6123
-179.1684
-172.1047
-154.7635
-149.1786
-160.4212
-177.2328
-188.8782
-189.2098
-181.1769
-168.7019
-153.1153
-138.0728
-124.0145
-111.2912
-100.0471
-91.94598
-86.4614
-78.99655
-70.06946
-63.61602
-59.36073
-57.72915
-58.13586
-61.06516
-63.87716
-182.6466
-140.5704
-142.3977
-143.6501
-145.8606
-143.5391
-139.9435
-133.3931
-137.7928
-140.7592
-141.951
-140.7705
-140.4251
-140.2227
-138.7865
-137.6777
-136.4731
-135.1784
-133.9691
-135.019
-140.7394
-148.2906
-155.1554
-164.5026
-173.8072
-179.524
-172.0327
-154.4033
-149.0585
-160.9908
-178.4662
-189.9628
-189.6545
-181.3295
-168.6323
-152.8253
-137.7274
-123.6279
-110.9194
-99.72572
-91.67203
-86.30137
-78.76098
-69.71311
-63.35152
-59.20736
-57.71637
-58.29352
-61.31156
-64.15578
-81.43587
-73.02654
-78.48807
-78.74955
-80.49601
-83.43995
-88.17119
-94.66957
-99.16181
-99.19373
-94.71455
-88.15863
-90.19642
-96.84781
-91.84481
-88.8104
-93.04342
-92.18412
-86.66517
-83.06658
-80.20214
-87.75057
-106.7051
-120.3006
-118.7416
-107.9548
-102.2071
-102.0202
-103.0625
-105.0588
-108.105
-111.2513
-114.216
-116.8744
-119.2964
-121.2219
-122.7554
-123.9278
-124.6949
-125.108
-125.1395
-124.8301
-124.2391
-123.3148
-122.0572
-120.4951
-118.7351
-116.7771
-114.5778
-112.1559
-109.5563
-106.8427
-104.042
-101.181
-98.17729
-95.1438
-92.13705
-89.11391
-86.02505
-83.00712
-80.23021
-77.68595
-75.51899
-73.48919
-71.6016
-70.24963
-69.39237
-68.3999
-67.23755
-65.13379
-61.64736
-57.61184
-54.20561
-51.39424
-48.68729
-45.72787
-42.09328
-38.07952
-34.74859
-31.95252
-29.65536
-27.75575
-26.29121
-25.19482
-24.38518
-23.77668
-23.36349
-23.14503
-23.0169
-23.09703
-23.95773
-25.40011
-27.61
-30.17516
-32.87986
-35.31452
-37.43988
-39.63092
-44.65039
-50.67347
-145.0012
-148.5783
-135.4517
-128.0711
-122.7302
-113.2104
-97.67318
-77.35287
-56.40206
-43.36095
-42.00183
-41.54771
-36.52153
-35.68053
-46.33705
-50.94363
-41.94043
-34.23213
-26.90958
-18.08107
-11.94306
-11.1663
-19.10728
-33.138
-49.61422
-70.75
-94.67213
-118.6931
-139.2657
-154.0161
-161.4744
-160.9452
-151.789
-133.6884
-115.2418
-104.1088
-100.6838
-107.1985
-120.5373
-120.9239
-99.60452
-78.73651
-75.10797
-78.72843
-80.02247
-79.86204
-79.02053
-80.58027
-77.38493
-110.5964
-61.99264
-53.56889
-43.26927
-37.1239
-31.82114
-27.41087
-23.58483
-20.09878
-17.04986
-14.27755
-11.74537
-9.424764
-7.23165
-5.154591
-3.206259
-1.395689
0.2996013
1.93346
3.496896
4.992431
6.425111
7.788734
9.078499
10.34792
11.5918
12.80777
13.97319
15.07648
16.14225
17.19354
18.23456
19.25878
20.23331
21.17771
22.11882
23.04177
23.9579
24.86193
25.76721
26.63706
27.52262
28.36978
29.21092
30.03851
30.86374
31.67474
32.47184
33.2721
34.08925
34.9044
35.69963
36.48235
37.26378
38.07182
38.89474
39.70553
40.51873
41.34559
42.17536
43.01914
43.86657
44.71196
45.59406
46.56233
47.5614
48.55078
49.54811
50.53475
51.67467
53.24926
54.84498
51.35047
49.82316
48.60397
47.23972
45.9061
44.70114
43.53374
42.40622
41.38132
40.4159
39.39857
38.35294
37.32695
36.35201
35.4014
34.45042
33.48271
32.51134
31.5673
30.63013
29.67243
28.71181
27.76029
26.78843
25.82476
24.83934
23.81065
22.79645
21.80179
20.79638
19.75731
18.67227
17.61768
16.51909
15.38484
14.24663
13.09747
11.89863
10.67872
9.453049
8.194484
6.86062
5.460325
4.055412
2.652966
1.186367
-0.3562763
-1.953113
-3.632735
-5.387236
-7.200773
-9.088346
-11.01035
-13.08027
-15.29642
-17.60913
-20.08472
-22.68428
-25.51181
-28.58595
-31.8703
-35.42114
-39.40964
-43.8971
-48.9912
-54.70176
-61.37115
-69.63184
-79.45017
-95.73758
-111.2782
51.50432
49.99968
48.75134
47.40318
46.0742
44.85634
43.6763
42.54169
41.50907
40.53566
39.5136
38.46522
37.43424
36.45214
35.49556
34.53923
33.56781
32.59172
31.64427
30.70217
29.7405
28.77711
27.82261
26.8468
25.88194
24.89337
23.85994
22.84538
21.8477
20.84004
19.7976
18.71806
17.64962
16.55398
15.41518
14.2757
13.12544
11.92216
10.70124
9.474566
8.215156
6.876743
5.472713
4.066909
2.664909
1.194159
-0.3504423
-1.948474
-3.632742
-5.389936
-7.206471
-9.097852
-11.01814
-13.09724
-15.31892
-17.6337
-20.11967
-22.72052
-25.56175
-28.64663
-31.93864
-35.50078
-39.51468
-44.01345
-49.13073
-54.88068
-61.59988
-69.91086
-79.8903
-96.00946
-111.4721
-62.23697
-53.74884
-43.55921
-37.30232
-31.97828
-27.53229
-23.68125
-20.17985
-17.12087
-14.33734
-11.79396
-9.467828
-7.269262
-5.185011
-3.230826
-1.413464
0.2829241
1.920921
3.487818
4.98649
6.420937
7.789025
9.07816
10.34917
11.59534
12.81363
13.98262
15.08697
16.15353
17.20556
18.2479
19.27536
20.25261
21.1962
22.13962
23.0636
23.9833
24.8895
25.79238
26.67403
27.55557
28.40442
29.248
30.07801
30.90484
31.71879
32.51828
33.32119
34.14067
34.95874
35.75621
36.54222
37.32721
38.13796
38.96545
39.77974
40.5968
41.42744
42.26165
43.10889
43.9609
44.81291
45.70147
46.67648
47.68254
48.67292
49.66886
50.66059
51.83109
53.39764
54.66361
-134.8148
-148.344
-136.7501
-128.9523
-123.6128
-114.5477
-99.52723
-79.61693
-58.35889
-44.25494
-42.19476
-41.89164
-37.03208
-35.67617
-46.18157
-51.11068
-42.65795
-35.1042
-27.70014
-18.6612
-12.40563
-11.40918
-19.13482
-33.04178
-49.50477
-70.66211
-94.57284
-118.7028
-139.3367
-154.1442
-161.6209
-161.352
-152.7077
-135.583
-117.0477
-104.3507
-100.4296
-106.7448
-120.8613
-121.7218
-99.79857
-78.92588
-75.34076
-78.91126
-80.10614
-79.86667
-78.97141
-80.47958
-78.75313
-102.7856
-80.11539
-73.13259
-78.02591
-78.70209
-80.32476
-83.13931
-87.73746
-94.283
-99.05967
-99.76659
-95.25708
-88.24882
-89.93864
-97.15718
-92.45599
-89.16302
-93.24154
-92.68314
-87.08356
-83.01169
-80.15651
-87.47311
-106.3212
-120.4121
-119.2627
-108.1489
-102.2198
-102.0361
-103.1613
-105.3024
-108.3297
-111.4039
-114.3114
-116.939
-119.3172
-121.2393
-122.7673
-123.9439
-124.7106
-125.1279
-125.1636
-124.8519
-124.2636
-123.3396
-122.0821
-120.5138
-118.7488
-116.7905
-114.5886
-112.1623
-109.5559
-106.8386
-104.0295
-101.1684
-98.15868
-95.118
-92.10576
-89.08191
-85.99113
-82.96642
-80.19479
-77.64828
-75.48506
-73.45767
-71.56432
-70.21449
-69.38016
-68.37907
-67.20615
-65.07144
-61.52245
-57.43499
-54.05281
-51.33263
-48.68536
-45.65631
-41.90489
-37.87018
-34.58218
-31.81657
-29.53981
-27.65566
-26.21312
-25.13689
-24.34322
-23.74929
-23.34863
-23.14559
-23.04078
-23.1473
-24.07264
-25.59112
-27.86191
-30.47868
-33.20648
-35.62945
-37.71034
-40.07966
-44.97511
-53.49817
-171.9525
-142.6055
-142.4095
-143.2686
-145.9709
-144.0153
-140.3723
-133.6566
-137.8762
-140.8288
-142.0136
-140.7552
-140.4693
-140.3156
-138.7856
-137.6566
-136.4742
-135.1838
-133.9806
-135.0969
-140.9013
-148.4239
-155.2158
-164.7052
-174.2094
-180.2019
-172.1558
-154.0616
-149.1331
-162.2529
-180.4437
-191.3154
-189.9239
-180.8303
-167.9708
-151.994
-136.8877
-122.7922
-110.1421
-99.0743
-91.09036
-85.72436
-78.16003
-69.14415
-62.95683
-59.0237
-57.73708
-58.54126
-61.67047
-65.19657
-164.4859
-144.5537
-142.1106
-142.4075
-146.0086
-144.7207
-141.0484
-134.1352
-138.0276
-140.9365
-142.1004
-140.7373
-140.5355
-140.4378
-138.7866
-137.6455
-136.4821
-135.1957
-134.0235
-135.2292
-141.1555
-148.6204
-155.2495
-164.946
-174.6915
-181.2571
-172.5285
-154.0696
-149.9875
-164.8091
-183.2915
-193.0524
-190.7352
-180.7519
-167.6079
-151.2842
-136.1695
-122.0162
-109.3811
-98.43268
-90.5422
-85.29666
-77.6135
-68.58025
-62.56356
-58.87259
-57.83345
-58.86953
-62.12806
-65.71755
-78.50154
-73.19062
-77.62212
-78.64725
-80.19056
-82.87002
-87.34955
-94.01149
-99.22626
-100.5541
-96.24026
-88.71661
-89.8089
-97.55733
-93.26481
-89.77947
-93.61578
-93.39037
-87.6264
-82.5816
-79.75647
-86.8586
-105.7246
-120.575
-119.9415
-108.661
-102.4629
-102.2919
-103.5644
-105.7553
-108.6433
-111.5795
-114.4116
-117.0061
-119.3433
-121.2606
-122.7814
-123.9668
-124.7327
-125.1558
-125.1977
-124.882
-124.2998
-123.3779
-122.1234
-120.5471
-118.7764
-116.8207
-114.6167
-112.1868
-109.5731
-106.8542
-104.0343
-101.1765
-98.15827
-95.10755
-92.09076
-89.07042
-85.97634
-82.93694
-80.17308
-77.61897
-75.45847
-73.4371
-71.53283
-70.17881
-69.38568
-68.37525
-67.21315
-65.05907
-61.44102
-57.35113
-54.05052
-51.40293
-48.73809
-45.58664
-41.76056
-37.71249
-34.48201
-31.71374
-29.44391
-27.57184
-26.1511
-25.09225
-24.31408
-23.73407
-23.34375
-23.15744
-23.07953
-23.21276
-24.21526
-25.82676
-28.15854
-30.81688
-33.55346
-35.9264
-37.96341
-40.38062
-45.29469
-55.83475
-122.6729
-145.8558
-138.2177
-130.2767
-124.856
-116.28
-101.9076
-82.687
-61.66949
-46.13578
-42.67692
-42.17994
-37.79569
-35.67213
-45.6649
-51.0792
-43.70395
-36.4631
-28.82811
-19.44905
-13.11231
-11.85971
-19.32599
-33.07074
-49.54595
-70.72575
-94.58822
-118.9037
-139.6448
-154.5425
-162.1366
-162.101
-153.9442
-138.0316
-119.9405
-105.1555
-100.577
-106.4671
-121.3447
-122.7484
-100.1636
-79.4146
-75.77053
-79.22576
-80.2479
-79.86849
-78.88476
-80.33777
-80.05595
-97.28312
-62.44871
-53.82778
-43.80823
-37.46101
-32.12318
-27.64361
-23.77325
-20.26173
-17.17783
-14.39106
-11.83749
-9.507843
-7.306448
-5.215918
-3.255595
-1.429583
0.2646473
1.905583
3.47534
4.977183
6.413041
7.787324
9.073708
10.34594
11.59376
12.81386
13.98751
15.09176
16.15707
17.20963
18.25345
19.28508
20.26412
21.20442
22.15064
23.07472
23.99789
24.90389
25.80317
26.68641
27.57111
28.42093
29.26618
30.09598
30.92406
31.73972
32.53936
33.34144
34.16335
34.98508
35.78271
36.56958
37.35405
38.16726
39.00049
39.81537
40.63203
41.46796
42.30439
43.15412
44.0095
44.86595
45.75812
46.74779
47.76447
48.7483
49.74501
50.75146
51.96
53.48953
54.40127
51.62415
50.14598
48.85583
47.50492
46.17872
44.95712
43.75759
42.60349
41.56581
40.59848
39.57064
38.51726
37.47707
36.49302
35.53536
34.57969
33.60491
32.62378
31.67784
30.73602
29.77087
28.80633
27.85276
26.87145
25.91111
24.92117
23.88014
22.86568
21.86747
20.8605
19.81532
18.72978
17.66431
16.57322
15.42918
14.28946
13.1394
11.93133
10.71142
9.486358
8.227702
6.883251
5.47437
4.070194
2.671229
1.194982
-0.3506527
-1.948175
-3.63862
-5.398586
-7.217848
-9.112506
-11.02589
-13.11821
-15.34584
-17.66047
-20.15781
-22.75359
-25.61202
-28.70678
-32.00143
-35.56958
-39.60522
-44.13388
-49.26359
-55.04741
-61.81214
-70.17026
-80.26862
-96.13047
-111.4337
51.70186
50.29705
48.99112
47.65076
46.3414
45.1277
43.91395
42.74994
41.71197
40.74534
39.70896
38.65528
37.60634
36.61432
35.6502
34.69246
33.7117
32.71981
31.77123
30.82477
29.85331
28.88611
27.93174
26.94131
25.98524
24.99295
23.94074
22.928
21.92645
20.9172
19.86436
18.79547
17.71317
16.62144
15.47082
14.33112
13.17774
11.95776
10.73677
9.514184
8.260757
6.907059
5.485693
4.081902
2.691396
1.206174
-0.3424071
-1.936815
-3.636113
-5.401684
-7.228855
-9.130146
-11.02603
-13.13564
-15.37006
-17.68831
-20.20413
-22.78608
-25.67135
-28.78102
-32.08263
-35.6506
-39.71415
-44.27942
-49.42264
-55.24267
-62.05941
-70.45087
-80.64236
-96.10966
-111.3613
-62.69742
-53.83811
-44.06026
-37.62841
-32.30046
-27.78118
-23.88703
-20.35921
-17.24953
-14.46315
-11.89204
-9.556311
-7.353947
-5.252247
-3.280608
-1.443685
0.2415279
1.886804
3.462235
4.970752
6.408902
7.791364
9.072484
10.34717
11.5969
12.82254
14.0046
15.10601
16.17081
17.22788
18.27352
19.30809
20.29004
21.22638
22.1778
23.10133
24.02933
24.93577
25.83849
26.73995
27.61482
28.46409
29.31303
30.14537
30.97704
31.79608
32.59559
33.39992
34.22846
35.0571
35.85413
36.6437
37.42967
38.246
39.08792
39.90476
40.725
41.56767
42.40484
43.25637
44.11716
44.98084
45.873
46.86987
47.89337
48.86488
49.86432
50.88288
52.08898
53.50145
54.04087
-110.1742
-140.7445
-139.2171
-132.1053
-126.5409
-118.3863
-104.7916
-86.39949
-66.07299
-49.40866
-43.79909
-42.49918
-38.67786
-35.45518
-44.19384
-50.45528
-45.02217
-38.27862
-30.37183
-20.50705
-14.18351
-12.58053
-19.75908
-33.22897
-49.6782
-71.04304
-94.82563
-119.3316
-140.2079
-155.2197
-162.8936
-163.1626
-155.5634
-140.9667
-123.749
-107.2468
-101.4719
-106.7139
-122.1347
-124.0454
-100.8828
-80.2124
-76.52331
-79.74295
-80.47061
-79.8717
-78.79431
-80.10571
-80.76901
-92.30391
-76.84461
-73.13594
-77.13207
-78.57813
-80.0499
-82.59018
-86.93268
-93.74808
-99.36058
-101.5495
-97.63837
-89.8706
-89.98807
-97.9648
-94.33237
-90.61501
-94.0374
-94.28108
-88.33014
-82.13224
-78.99307
-85.85811
-104.5517
-120.2247
-120.4865
-109.6958
-103.2926
-103.0339
-104.232
-106.2879
-108.9903
-111.7769
-114.5317
-117.0885
-119.3893
-121.2999
-122.8073
-124.0081
-124.7705
-125.1983
-125.2498
-124.926
-124.3516
-123.4277
-122.1734
-120.5844
-118.8083
-116.8569
-114.648
-112.2153
-109.5878
-106.8665
-104.0261
-101.1739
-98.14335
-95.08356
-92.06975
-89.05502
-85.952
-82.89088
-80.14668
-77.57717
-75.42759
-73.42407
-71.49312
-70.12006
-69.40307
-68.37753
-67.21218
-65.04494
-61.36979
-57.38214
-54.26207
-51.59232
-48.79098
-45.45682
-41.55125
-37.46922
-34.32735
-31.57157
-29.32843
-27.47489
-26.07838
-25.04078
-24.28453
-23.72015
-23.34366
-23.18035
-23.13572
-23.30655
-24.41116
-26.15145
-28.54646
-31.25252
-34.00781
-36.31612
-38.26275
-40.70533
-45.62631
-57.60044
-156.7105
-145.2145
-141.4157
-141.3462
-145.9932
-145.6959
-142.1617
-134.9576
-138.3283
-141.0685
-142.1915
-140.7114
-140.6279
-140.598
-138.8075
-137.6686
-136.5275
-135.2453
-134.1296
-135.4431
-141.5182
-148.9076
-155.252
-165.2309
-175.3626
-182.868
-173.3334
-154.9273
-152.4228
-168.9397
-186.9486
-195.0447
-191.2602
-180.4568
-167.1375
-150.4265
-135.3342
-121.0442
-108.4035
-97.63385
-89.8731
-84.76415
-76.92553
-67.91533
-62.16678
-58.78522
-58.05883
-59.30497
-62.66798
-66.4564
-148.1369
-144.2096
-140.4595
-140.1061
-145.8063
-146.7907
-143.8825
-136.0992
-138.7954
-141.2285
-142.2551
-140.6844
-140.7112
-140.7779
-138.8658
-137.7695
-136.6575
-135.409
-134.36
-135.8073
-141.9444
-149.1469
-155.3084
-165.5943
-176.3261
-185.2546
-175.0505
-157.2037
-157.0448
-174.6356
-191.3361
-197.4529
-192.2126
-180.1364
-166.6319
-149.4888
-134.0616
-119.7351
-107.2938
-96.77479
-89.15554
-84.03603
-76.02273
-67.08233
-61.81
-58.85906
-58.53314
-59.8551
-63.33793
-67.14121
-75.44823
-73.0036
-76.57063
-78.48331
-79.86489
-82.23131
-86.37208
-93.43307
-99.53161
-102.8255
-99.4863
-92.01108
-90.6729
-98.3528
-95.58123
-91.51197
-94.37268
-95.2442
-89.26391
-81.91432
-78.22134
-84.70284
-102.3907
-118.2717
-119.9306
-110.8461
-104.7171
-104.1127
-105.0085
-106.8655
-109.3875
-112.018
-114.7021
-117.2175
-119.4678
-121.3694
-122.8518
-124.0787
-124.8274
-125.2585
-125.332
-124.9936
-124.4232
-123.4932
-122.2433
-120.6529
-118.8701
-116.9147
-114.7031
-112.2715
-109.6122
-106.8948
-104.0226
-101.1908
-98.15209
-95.09066
-92.07273
-89.0386
-85.92977
-82.85086
-80.13979
-77.52876
-75.4332
-73.43251
-71.43483
-70.04643
-69.48482
-68.41787
-67.38487
-65.03611
-61.32515
-57.57394
-54.65084
-51.82965
-48.84964
-45.3128
-41.39241
-37.23103
-34.15472
-31.42817
-29.20789
-27.36574
-25.98041
-24.98787
-24.25814
-23.70554
-23.35558
-23.22749
-23.23366
-23.47662
-24.71173
-26.62476
-29.10174
-31.8586
-34.61898
-36.78808
-38.57863
-40.97893
-45.98614
-58.79806
-99.24793
-133.2433
-138.9464
-134.3773
-129.0816
-121.2074
-108.3872
-90.86121
-71.34281
-54.09257
-45.99854
-42.84006
-39.61485
-35.07128
-41.46039
-48.91387
-46.4941
-40.52097
-32.42875
-22.0688
-16.00386
-13.93565
-20.63392
-33.5202
-49.78872
-71.91562
-95.82777
-120.214
-141.0846
-156.2782
-164.0416
-164.732
-157.7576
-144.5321
-128.5006
-110.8912
-103.921
-107.8223
-123.0457
-124.8995
-101.89
-81.0179
-77.62431
-80.49386
-80.75485
-79.71358
-78.76548
-79.90548
-80.75532
-87.28727
-62.83884
-53.70279
-44.26962
-37.77331
-32.50675
-27.92167
-23.99047
-20.45553
-17.33696
-14.5473
-11.93769
-9.608611
-7.412042
-5.285768
-3.305709
-1.469898
0.2018372
1.867144
3.451555
4.96991
6.402735
7.788823
9.067314
10.34258
11.5941
12.83462
14.01339
15.10854
16.18111
17.23887
18.27347
19.31044
20.30919
21.23761
22.19456
23.11531
24.05137
24.96092
25.86543
26.75376
27.63264
28.4856
29.34276
30.1764
31.00716
31.82455
32.6294
33.43901
34.26675
35.09309
35.88897
36.6867
37.47393
38.29262
39.14267
39.96491
40.78457
41.62831
42.46912
43.33122
44.19945
45.07274
45.95986
46.97229
48.02151
48.98412
49.992
51.00587
52.16179
53.39551
53.57869
51.69795
50.42367
49.13907
47.81111
46.50272
45.28708
44.03688
42.84968
41.80944
40.8496
39.7857
38.73125
37.67733
36.69008
35.71347
34.75356
33.77429
32.78021
31.83668
30.88316
29.90343
28.93571
27.98167
26.97906
26.03174
25.02868
23.96633
22.95903
21.95974
20.95624
19.89035
18.79291
17.73402
16.63857
15.48212
14.35773
13.21125
11.97806
10.75387
9.523137
8.278597
6.927995
5.495317
4.077276
2.699714
1.212018
-0.3463016
-1.936858
-3.637169
-5.401984
-7.240297
-9.168864
-11.0414
-13.17148
-15.39165
-17.71538
-20.26881
-22.81658
-25.73922
-28.84688
-32.1758
-35.745
-39.82813
-44.42323
-49.58027
-55.44052
-62.31425
-70.71944
-80.94573
-95.81748
-110.8399
51.56525
50.46519
49.28219
48.01832
46.75853
45.59188
44.27767
43.0367
42.01925
41.10613
40.03655
38.93687
37.83115
36.85659
35.90425
34.91751
33.89576
32.88132
31.96862
31.01267
30.01153
29.0516
28.1045
27.064
26.18973
25.13855
24.04307
23.05156
22.01839
21.04736
19.96761
18.91126
17.86096
16.72142
15.50172
14.38342
13.24817
12.01981
10.82443
9.580066
8.283504
6.934899
5.551739
4.118536
2.705138
1.241601
-0.3182804
-1.959066
-3.655832
-5.398308
-7.195838
-9.151027
-11.04784
-13.26054
-15.43312
-17.71524
-20.37002
-22.85632
-25.88187
-28.90163
-32.24854
-35.94275
-40.0464
-44.65841
-49.82468
-55.73756
-62.71103
-71.14427
-81.40372
-95.37656
-110.2962
-62.79081
-53.58095
-44.63194
-38.03155
-32.85283
-28.05304
-24.13953
-20.63694
-17.50461
-14.6235
-11.97021
-9.706273
-7.486921
-5.314305
-3.369063
-1.533434
0.1893075
1.886834
3.445027
4.96414
6.364836
7.766191
9.085603
10.32151
11.6053
12.85707
13.98945
15.13573
16.21926
17.2445
18.2686
19.36253
20.39726
21.26532
22.23767
23.1534
24.10747
25.01394
25.91044
26.79248
27.70093
28.56936
29.41888
30.24812
31.06587
31.90905
32.73309
33.51742
34.32655
35.19177
36.019
36.80507
37.58949
38.39259
39.27105
40.11559
40.88973
41.77099
42.64228
43.48753
44.35127
45.23015
46.10621
47.16133
48.26146
49.15743
50.13049
51.08602
52.15435
53.20594
53.06224
-90.39192
-121.5315
-135.5942
-136.073
-132.2611
-125.3422
-113.2361
-96.37853
-77.7825
-60.27819
-50.02595
-43.37391
-41.03647
-34.74343
-37.58497
-46.62027
-48.14674
-43.32179
-35.22764
-24.65841
-18.63872
-16.55751
-22.29918
-34.4555
-50.80348
-73.23576
-97.73718
-121.9024
-142.2231
-157.8143
-165.5885
-166.9492
-160.5713
-148.4872
-134.3766
-116.0363
-108.6451
-109.6264
-124.0442
-125.929
-101.6223
-81.64564
-78.8773
-81.53737
-81.30503
-79.9077
-78.56556
-79.47924
-79.93666
-82.55152
-74.17427
-72.52453
-75.85686
-78.38022
-79.87507
-81.84244
-85.77374
-93.04861
-99.76873
-104.2437
-101.6919
-95.29979
-92.02656
-98.61729
-96.71819
-92.42542
-95.13734
-96.1603
-90.59572
-82.33735
-77.91992
-83.63356
-99.21682
-113.375
-117.2094
-111.2879
-106.1356
-105.2193
-105.7858
-107.4509
-109.7985
-112.3485
-114.9533
-117.3602
-119.5554
-121.4405
-122.9171
-124.1709
-124.898
-125.3482
-125.4658
-125.0726
-124.5151
-123.6024
-122.3735
-120.8092
-118.9422
-116.9679
-114.7903
-112.3516
-109.6286
-106.9637
-104.0333
-101.2634
-98.19426
-95.12512
-92.00591
-88.95307
-85.91789
-82.85608
-80.14223
-77.50005
-75.50808
-73.39713
-71.31894
-69.94955
-69.60845
-68.22533
-67.16468
-64.8738
-61.31267
-57.95307
-55.11667
-51.94049
-48.6897
-45.04803
-41.26631
-36.83754
-33.9064
-31.26276
-29.07238
-27.21705
-25.84954
-24.95607
-24.24418
-23.71053
-23.39716
-23.31438
-23.3947
-23.76782
-25.11284
-27.23215
-29.93718
-32.77501
-35.51293
-37.37723
-38.87537
-41.17622
-46.16304
-59.63379
-140.1002
-141.0454
-139.6208
-140.2833
-146.3771
-148.7904
-145.7299
-136.986
-138.7784
-141.3644
-142.2876
-140.637
-140.9255
-141.0307
-138.9913
-137.9737
-136.9462
-135.8223
-134.9284
-136.4285
-142.362
-149.1327
-155.3701
-165.8297
-178.7516
-188.7639
-177.6736
-161.8283
-164.4993
-181.7621
-196.1948
-200.0358
-193.4097
-179.3589
-166.1411
-148.2108
-131.8845
-117.8885
-106.2013
-95.76537
-88.17451
-82.68196
-74.9392
-66.22551
-61.54756
-59.06782
-59.36765
-60.53893
-64.17634
-67.89689
-0.301766
-0.07202787
2.413191
4.502007
-17.33115
-1.749074
-1.901999
3.868251
2.742718
-5.230833
0.209979
-48.45685
-0.1059926
10.35615
7.949471
4.356808
7.859752
-0.4832059
4.855937
-0.5935467
3.301324
4.930344
-20.49491
4.608715
-0.8664386
4.84731
4.596745
3.130559
4.120903
-1.064689
4.516962
-0.01812523
-6.176532
-0.3870797
5.523691
-1.064737
-9.927212
6.32191
-4.728858
5.185269
6.687428
-0.09507352
-0.4336924
-17.00469
0.7164361
-146.0823
-0.8700335
-0.1155478
-0.3602328
7.12664
1.031372
-3.426863
1.099805
-7.468372
5.22672
-3.519423
1.790053
3.735389
0.3665884
-0.08477309
-31.92901
4.905783
-1.936842
-7.364572
7.392814
-14.52192
-1.548135
-1.165195
3.595089
2.041857
-30.9878
-3.177257
5.825412
2.86016
4.236548
4.697569
3.690344
3.660492
-0.5361959
5.29111
-4.744109
3.937241
-6.935832
-1.845927
-29.36251
-18.82965
7.510794
-20.8583
-1.03557
0.6976734
5.753784
6.273005
4.835742
3.296514
-6.231825
0.8010217
4.808631
4.941222
-86.46746
-1.097976
-2.894339
-9.855573
9.418055
-20.67384
1.106042
4.38415
0.7448225
5.299167
4.852744
3.965459
-4.015858
-132.3664
-18.01756
2.197843
3.600272
1.416065
-1.720374
-14.48032
4.158218
2.76893
0.1294794
3.08284
-1.18724
-7.104511
4.05514
0.9389411
-0.2899194
-30.24034
-96.56703
-1.89445
10.57604
6.904745
4.465956
4.060285
5.739753
-2.119206
1.245733
-73.37005
-0.4169092
6.361257
4.513325
7.299345
4.455016
1.534944
-0.5459522
-9.335359
5.563428
-0.1632707
-3.791259
-16.57284
-56.54328
-180.8073
-0.9957791
4.200145
10.94822
3.904076
-10.96579
6.681634
0.4342375
2.455137
5.904998
4.190795
1.199969
-8.440987
6.573284
-1.231896
-0.0161876
5.711767
0.04374293
2.60488
-45.31615
-11.62169
-17.37474
1.305606
-0.6924892
0.2763735
-0.3649764
0.4329221
-1.953187
-16.51298
-3.685549
4.730872
0.04747898
2.648346
0.663887
1.337778
5.395488
5.18051
5.975865
-1.002603
1.531722
-9.858873
4.204805
-135.4998
-12.60813
0.2370218
1.367062
0.2021174
2.360739
0.3728281
-33.2804
0.497758
0.8312169
9.657081
0.3770261
2.548838
2.751746
3.371352
0.559264
0.4977214
-0.2373049
-1.30888
6.166903
5.150805
-2.02093
-5.64567
0.7242
-1.618384
3.516092
-22.41682
1.708059
1.15403
4.102424
-108.8472
20.21131
-36.50122
4.129914
-1.677488
0.3625641
0.2894995
-15.81723
2.473853
0.7528379
5.214352
-39.71132
-13.57233
3.793787
4.675098
-84.97834
-13.09329
1.227301
-15.62809
-4.813182
-0.2575336
-29.39741
-0.3900677
3.192061
0.8321253
3.710966
4.642326
4.634608
-240.9968
7.341397
1.60464
0.1089829
10.56746
0.5874596
3.427199
1.530106
1.470976
3.400487
-6.979341
2.962877
-27.87541
5.593893
3.170148
-21.37979
-61.55325
4.229866
0.815878
5.041525
-4.407428
-1.495086
-1.576998
6.628815
-79.49237
5.168469
-5.447704
-7.432529
-70.29092
0.5645319
-4.054481
-3.610819
0.417676
6.496435
-14.23811
0.9918498
5.727778
6.220508
3.171149
-109.7843
8.783187
-98.85855
5.010487
5.809255